/*--------------------------------*- C++ -*----------------------------------*\
  =========                 |
  \\      /  F ield         | OpenFOAM: The Open Source CFD Toolbox
   \\    /   O peration     | Website:  https://openfoam.org
    \\  /    A nd           | Version:  10
     \\/     M anipulation  |
\*---------------------------------------------------------------------------*/
FoamFile
{
    format      ascii;
    class       volScalarField;
    location    "1450";
    object      epsilon;
}
// * * * * * * * * * * * * * * * * * * * * * * * * * * * * * * * * * * * * * //

dimensions      [0 2 -3 0 0 0 0];

internalField   nonuniform List<scalar> 
10435
(
0.401906
0.908347
0.607069
0.76781
0.995778
0.932539
0.565441
0.480982
0.402081
0.805162
1.05553
0.737843
0.784031
0.0963399
0.114754
0.549939
0.0827192
0.913016
0.338738
0.469198
0.513165
0.659183
0.579563
0.409623
0.729851
0.0236952
0.0383247
0.673524
0.036726
0.875634
0.672638
1.09359
0.45925
0.0378335
0.50125
0.532219
0.544839
0.038738
0.0166551
0.362694
0.961519
0.575001
0.0503398
0.682758
0.592729
0.382215
0.930073
0.0417818
0.376848
0.521807
0.497174
0.794126
0.0161331
0.0311985
0.0182891
0.0336983
0.525428
0.0415765
0.0606427
0.46539
0.0179618
0.798948
0.042042
0.82502
0.58877
0.642519
0.051837
0.0492732
0.497831
0.419958
0.030666
0.0309435
0.0330884
0.620729
0.1406
0.0611621
0.449187
0.542568
0.434919
0.128574
0.509706
0.277723
0.0156329
0.031815
0.491836
0.376305
0.437888
0.770157
0.212619
0.53517
0.823721
0.861323
0.330567
0.267663
0.62582
0.399537
0.851453
0.141762
0.0695101
0.903752
0.170982
1.07542
0.345126
0.704402
1.03433
0.734192
0.382789
0.519155
0.475662
0.154956
0.50409
1.11638
0.229308
0.188207
0.935632
0.631225
0.869653
0.485765
0.866007
0.817117
0.832578
0.0503062
0.598333
0.171045
1.23432
0.0208925
0.837879
0.0684865
0.927609
0.0364392
0.107327
1.23962
0.52194
0.107682
0.0343793
0.0146051
0.424378
0.770891
0.793469
0.586708
0.53181
0.635213
0.0460522
0.760847
0.662243
0.109834
0.283022
0.863429
0.0806168
0.724939
0.0349998
0.593237
0.469836
0.717129
0.809666
0.0287467
1.20946
0.703273
0.809943
1.15224
0.663193
0.091674
0.954234
0.633398
0.175453
0.86311
0.455604
0.744842
0.586764
0.816124
0.736933
0.0246591
0.035481
0.135244
0.670131
1.05706
0.669062
0.0598291
0.473367
0.0400514
0.99405
0.949269
0.746574
0.0196014
0.6412
0.0379193
0.0464482
0.530694
0.985273
0.76622
0.79225
0.0153524
0.0342435
0.58992
1.16522
0.513284
0.0719828
0.281999
0.0511446
0.55118
0.194439
0.0381349
0.7207
0.041053
0.667972
0.999007
0.925083
0.761857
0.0436538
0.652744
0.0296043
0.586673
0.794013
0.653053
0.0381819
0.0952209
0.217854
0.0196591
0.0240813
0.0794285
0.0379261
0.0661612
0.0487036
0.143363
0.0265988
0.516152
0.0200876
0.209574
0.721433
0.0770868
0.0568072
0.485597
0.0219528
0.595587
0.0393634
0.0723599
0.508524
0.0264106
0.515451
0.691762
0.62095
0.0234219
0.0212471
0.0333486
0.994222
0.425976
0.283629
0.494961
0.0287123
0.924582
0.0292507
0.2447
0.806138
0.639209
0.509465
0.888309
0.0261354
0.52288
0.0258327
0.0384125
0.538221
0.739445
0.0233051
0.520401
0.270783
0.0610509
0.549165
0.627025
0.0177957
0.971812
0.556948
0.466975
0.492634
0.696126
0.0264
0.792427
0.0371088
1.06442
0.535134
0.452324
0.775106
0.0630681
0.579025
0.164785
0.309337
0.017151
0.929325
0.0183433
0.032358
0.0389807
0.1932
1.21356
0.0441056
0.478927
0.0170069
0.030126
0.0881078
0.333604
1.09807
0.670005
0.0508115
0.533323
0.60391
0.0310615
1.10595
0.115434
0.0712107
0.597214
0.654689
0.0326219
0.432424
0.0341188
0.76152
0.911158
0.434292
0.0306376
0.0206268
0.709744
0.0529252
0.73507
1.00412
0.0395306
0.387015
0.0150879
0.43489
0.72095
0.0288999
0.631875
0.0544495
0.0399058
0.427832
0.0417598
0.032605
0.59008
0.666601
0.0441006
0.0311936
0.0298168
0.0348924
0.0345173
0.030934
0.0299504
0.0175652
0.0354541
0.0342105
0.0331381
0.0467525
0.0403331
0.0148465
0.415459
0.0331733
0.70223
0.0376275
0.665348
0.415918
0.357174
0.788526
0.614653
0.0324566
0.035287
0.0305526
0.0214995
0.0338436
0.0173772
0.0376984
0.0327174
0.0447251
0.671308
0.0318803
0.401339
0.019832
0.0347025
0.836425
0.326598
0.0175886
0.0380965
0.040512
0.0392764
0.0348472
0.0260638
0.0440987
0.0190016
0.44722
0.0486144
0.481582
0.398856
0.703882
0.747251
0.381514
0.639072
0.469125
0.104884
0.029262
0.0355162
0.0313015
0.613869
0.0337533
0.8414
0.0421115
0.0403154
0.03609
0.0435434
0.0223664
0.555132
0.0396655
0.465731
0.597701
0.0234991
0.028199
0.0393885
0.333636
0.0392245
0.0300205
0.0252002
0.0338573
0.0440027
0.0369751
0.632944
0.0307354
0.028701
0.0371397
0.0395809
0.938388
0.0183829
0.0154388
0.288587
0.0348498
0.000193992
0.000187259
0.000176207
0.000162626
0.000147463
0.000131
0.000113627
9.57915e-05
7.80679e-05
0.000214099
0.000204379
0.000190784
0.000175029
0.000157943
0.000140002
0.000121617
0.000103356
8.59722e-05
0.000238694
0.000226166
0.000209834
0.000191593
0.000172373
0.000152684
0.000132992
0.00011387
9.60208e-05
0.000270544
0.00025503
0.000235454
0.000214247
0.000192429
0.000170525
0.000149008
0.000128394
0.000109261
0.000313186
0.0002941
0.000270469
0.00024555
0.000220409
0.000195582
0.000171504
0.000148584
0.000127196
0.000371306
0.000347617
0.000318739
0.000289018
0.000259515
0.000230775
0.000203163
0.000176986
0.000152468
0.000451385
0.000421393
0.000385529
0.000349481
0.000314198
0.000280214
0.000247813
0.000217239
0.000188693
0.000562614
0.000523067
0.000477803
0.000433416
0.000390515
0.000349554
0.000310724
0.00027424
0.000240384
0.000716019
0.000661758
0.000604283
0.000549162
0.000496399
0.000446286
0.000398915
0.000354434
0.00031311
0.00092057
0.000847095
0.000775166
0.000706822
0.000641639
0.000579791
0.00052131
0.000466221
0.000414528
0.00117999
0.00108847
0.00100153
0.000917716
0.000837372
0.000760885
0.000688392
0.000619847
0.000555033
0.0014936
0.00139591
0.00129493
0.00119354
0.0010951
0.00100083
0.00091123
0.00082629
0.000745826
0.00187665
0.00178346
0.00166741
0.00154546
0.00142549
0.00130999
0.0012
0.00109567
0.000997056
0.00237023
0.00226883
0.00213058
0.00198301
0.00183721
0.00169665
0.00156272
0.00143582
0.00131616
0.00300094
0.00286465
0.00269244
0.00251268
0.00233627
0.00216658
0.00200505
0.00185196
0.00170691
0.00377291
0.00357265
0.00335528
0.00313737
0.00292603
0.0027236
0.00253129
0.00234943
0.00217766
0.00465079
0.00438218
0.00411604
0.00385722
0.00360832
0.00337064
0.00314513
0.00293231
0.00273283
0.00559709
0.00528028
0.00497077
0.00467226
0.00438552
0.0041116
0.00385135
0.00360539
0.00337447
0.00661031
0.00626424
0.00591996
0.00558561
0.00526286
0.00495346
0.00465841
0.00437833
0.0041137
0.00770213
0.00734175
0.00697053
0.00660507
0.00624978
0.0059076
0.00557967
0.00526674
0.00496985
0.0088929
0.00852788
0.00813464
0.00774253
0.00735974
0.00698973
0.00663321
0.00629032
0.0059615
0.0102119
0.00984222
0.0094271
0.00901236
0.00860923
0.00821977
0.00784293
0.00747736
0.00712238
0.0117051
0.0113063
0.0108623
0.0104292
0.0100166
0.00962106
0.00923811
0.00886398
0.00849772
0.013431
0.0129358
0.0124488
0.012005
0.0115998
0.0112189
0.0108519
0.0104912
0.0101348
0.0154425
0.0147207
0.0141852
0.0137491
0.0133787
0.0130416
0.0127213
0.0124089
0.012056
0.00126581
0.00123825
0.00121606
0.00119913
0.00118744
0.00118088
0.00117931
0.00118253
0.00119033
0.00120239
0.00121838
0.00123789
0.00126041
0.00128544
0.00131231
0.00134036
0.00136889
0.00139712
0.00142425
0.00144949
0.00147193
0.00149064
0.00150438
0.00151124
0.00151003
0.00150043
0.00148353
0.00145923
0.0014261
0.00138503
0.00133758
0.00128432
0.00122564
0.0011627
0.00109652
0.0010281
0.000958424
0.000888421
0.000818991
0.000750976
0.000685143
0.00062219
0.000562699
0.000507163
0.000455977
0.000409416
0.000367636
0.000330697
0.000298524
0.000270964
0.000247778
0.000228674
0.000213349
0.000201483
0.000192792
0.000187019
0.000183961
0.000183465
0.000185378
0.00127241
0.00124778
0.00122811
0.00121335
0.0012034
0.00119808
0.00119726
0.00120079
0.00120845
0.00121999
0.00123509
0.00125336
0.00127437
0.00129759
0.00132244
0.00134829
0.00137445
0.00140019
0.00142474
0.00144733
0.00146716
0.0014834
0.00149515
0.00150136
0.00150083
0.00149245
0.00147561
0.00145021
0.00141673
0.00137617
0.00132944
0.00127716
0.00121993
0.00115848
0.00109366
0.00102637
0.00095756
0.000888154
0.000819067
0.000751166
0.000685258
0.000622072
0.000562248
0.000506325
0.000454732
0.000407779
0.000365645
0.000328385
0.000295934
0.000268121
0.000244696
0.000225354
0.00020977
0.000197626
0.000188613
0.000182463
0.000178958
0.000177941
0.000179238
0.00125424
0.00123118
0.00121274
0.00119889
0.00118956
0.00118466
0.00118404
0.00118755
0.00119497
0.00120605
0.00122047
0.00123788
0.00125784
0.00127987
0.00130343
0.00132791
0.00135266
0.00137698
0.00140015
0.0014214
0.00143993
0.00145489
0.00146536
0.00147032
0.00146879
0.00145994
0.00144326
0.00141863
0.0013863
0.00134694
0.00130131
0.00125016
0.00119417
0.00113411
0.00107077
0.00100503
0.000937748
0.000869829
0.000802145
0.000735543
0.000670815
0.000608688
0.000549805
0.000494711
0.000443845
0.000397521
0.000355927
0.000319121
0.00028704
0.000259515
0.000236296
0.000217079
0.000201543
0.000189359
0.000180226
0.000173878
0.000170095
0.000168716
0.00016957
0.00121057
0.00118904
0.0011719
0.0011591
0.00115055
0.00114615
0.00114577
0.00114924
0.00115636
0.00116688
0.00118051
0.00119693
0.00121572
0.00123643
0.00125857
0.00128155
0.00130477
0.00132755
0.00134918
0.00136892
0.00138596
0.00139947
0.00140859
0.00141243
0.00141013
0.00140099
0.00138455
0.00136069
0.0013296
0.00129179
0.0012479
0.00119864
0.00114472
0.00108691
0.00102599
0.000962775
0.000898101
0.00083281
0.000767733
0.000703676
0.000641399
0.000581601
0.000524906
0.000471846
0.000422846
0.000378212
0.000338127
0.000302647
0.000271708
0.000245147
0.00022272
0.00020414
0.000189089
0.000177241
0.000168301
0.000162012
0.000158159
0.000156583
0.000157117
0.0011511
0.00113139
0.00111576
0.00110416
0.00109651
0.00109272
0.00109266
0.00109616
0.00110304
0.00111306
0.00112596
0.0011414
0.00115902
0.00117839
0.00119903
0.0012204
0.00124193
0.00126296
0.00128282
0.00130079
0.00131609
0.00132795
0.00133556
0.00133815
0.001335
0.00132553
0.00130937
0.0012864
0.00125676
0.00122082
0.0011791
0.00113223
0.00108092
0.0010259
0.000967927
0.000907795
0.000846296
0.000784232
0.000722401
0.000661567
0.000602455
0.000545725
0.000491967
0.000441682
0.000395268
0.000353009
0.000315071
0.000281502
0.000252238
0.000227117
0.000205906
0.00018832
0.00017405
0.00016279
0.000154254
0.000148194
0.000144401
0.000142719
0.000142985
0.00107568
0.00105762
0.00104336
0.00103286
0.00102604
0.00102281
0.00102305
0.00102659
0.00103325
0.00104281
0.00105499
0.0010695
0.00108597
0.001104
0.00112314
0.00114287
0.00116264
0.00118184
0.00119983
0.00121593
0.00122944
0.00123963
0.00124578
0.00124722
0.00124332
0.00123362
0.00121781
0.00119579
0.00116767
0.00113374
0.00109445
0.00105034
0.00100208
0.000950374
0.000895929
0.000839499
0.00078183
0.000723675
0.000665798
0.00060892
0.000553718
0.000500805
0.000450726
0.000403941
0.000360814
0.000321599
0.000286439
0.000255368
0.000228315
0.000205122
0.000185559
0.000169352
0.000156208
0.000145833
0.000137957
0.000132343
0.000128789
0.000127148
0.000127268
0.000986449
0.000970042
0.000957133
0.000947687
0.000941652
0.000938945
0.000939447
0.000943012
0.000949457
0.00095856
0.000970063
0.000983667
0.000999031
0.00101577
0.00103344
0.00105157
0.00106965
0.00108707
0.00110326
0.00111758
0.00112937
0.00113799
0.00114281
0.00114325
0.00113876
0.00112896
0.00111361
0.00109264
0.00106612
0.00103429
0.00099755
0.000956397
0.000911465
0.000863418
0.000812906
0.000760644
0.00070731
0.000653603
0.000600266
0.000547953
0.000497276
0.000448789
0.000402982
0.000360274
0.000320987
0.000285341
0.000253456
0.000225348
0.000200937
0.000180061
0.000162497
0.000147982
0.000136238
0.000126988
0.000119977
0.000114981
0.000111814
0.000110335
0.000110403
0.000881939
0.000866872
0.000855036
0.000846434
0.000841033
0.000838775
0.000839541
0.000843194
0.000849544
0.000858352
0.000869382
0.0008823
0.000896767
0.000912399
0.000928801
0.000945573
0.00096224
0.000978213
0.000992953
0.00100581
0.00101619
0.00102349
0.00102724
0.00102699
0.00102217
0.00101253
0.000997862
0.00097815
0.000953364
0.000923707
0.000889592
0.000851484
0.000810072
0.000765999
0.000719757
0.000672054
0.000623523
0.000574764
0.000526542
0.000479375
0.000433805
0.000390313
0.000349324
0.000311211
0.000276271
0.00024467
0.000216531
0.00019183
0.000170466
0.000152269
0.00013702
0.000124475
0.000114374
0.000106466
0.000100518
9.63238e-05
9.37106e-05
9.25471e-05
9.2704e-05
0.000759907
0.000745746
0.000734669
0.000726787
0.000722119
0.00072057
0.000721931
0.000725887
0.000732479
0.000741732
0.000752961
0.00076579
0.000779783
0.000794485
0.000809795
0.000825312
0.000840929
0.00085643
0.000870657
0.000882621
0.000891887
0.000898065
0.000901017
0.000900312
0.000895575
0.000886492
0.000872967
0.000854915
0.000832087
0.00080453
0.000772955
0.00073794
0.000700163
0.000660324
0.00061883
0.000575777
0.000532036
0.00048899
0.000446646
0.000405154
0.000365198
0.000327222
0.000291541
0.000258421
0.000228095
0.000200864
0.000176784
0.00015594
0.000138095
0.000122901
0.000110143
9.9671e-05
9.13115e-05
8.48444e-05
8.00515e-05
7.67722e-05
7.4858e-05
7.41781e-05
7.4614e-05
0.0311241
0.028342
0.0257589
0.0232873
0.0209062
0.0186121
0.0164223
0.0143573
0.0124329
0.0106599
0.00907687
0.00771182
0.00656278
0.00560347
0.00478296
0.0040785
0.00349211
0.0030163
0.00263382
0.00232348
0.00206782
0.00185279
0.00166695
0.00150083
0.00134585
0.0296769
0.0276942
0.0254353
0.0230902
0.0207488
0.0184575
0.0162542
0.0141721
0.0122374
0.0104747
0.00890732
0.00754531
0.00638441
0.00540882
0.00459471
0.0039199
0.00336658
0.0029178
0.00255598
0.00226327
0.00202328
0.00182229
0.00164923
0.00149522
0.00135279
0.0295713
0.0274899
0.0252194
0.0228665
0.0205038
0.0181853
0.0159583
0.0138626
0.0119293
0.0101818
0.00863388
0.00728841
0.00613975
0.00517556
0.00437831
0.00372767
0.00320215
0.00278048
0.0024428
0.00217101
0.00194914
0.00176376
0.00160403
0.00146146
0.0013296
0.0297224
0.0274007
0.025
0.022569
0.0201566
0.017808
0.0155668
0.013471
0.0115502
0.0098238
0.00830055
0.00697987
0.00585499
0.00491428
0.00414168
0.00351718
0.00301822
0.00262199
0.00230743
0.00205596
0.00185169
0.0016815
0.00153483
0.00140354
0.00128126
0.0299313
0.0273763
0.0248103
0.0222658
0.0197799
0.0173894
0.0151305
0.0130352
0.0111279
0.00942336
0.00792652
0.00663462
0.00553956
0.00462892
0.0038861
0.00329055
0.00281912
0.00244834
0.00215657
0.00192499
0.00173783
0.00158229
0.00144826
0.00132808
0.00121616
0.0301006
0.0273343
0.0245976
0.0219298
0.0193638
0.0169286
0.0146515
0.0125574
0.0106645
0.00898318
0.00751537
0.00625632
0.00519617
0.00432085
0.00361226
0.00304874
0.00260647
0.0022617
0.00199266
0.00178061
0.00161012
0.00146884
0.00134715
0.00123786
0.00113564
0.0302549
0.0272642
0.0243445
0.0215482
0.0189019
0.0164232
0.0141289
0.0120366
0.0101592
0.00850297
0.00706732
0.00584551
0.00482546
0.00399047
0.0033204
0.00279212
0.00238105
0.00206334
0.00181743
0.00162491
0.00147081
0.00134335
0.0012334
0.00113424
0.00104129
0.0304278
0.0271462
0.0240229
0.0210994
0.01838
0.0158643
0.0135568
0.0114681
0.00960805
0.00797964
0.00657988
0.00540037
0.00442659
0.00363753
0.00301063
0.00252107
0.00214346
0.0018541
0.00163196
0.00145919
0.00132133
0.00120726
0.00110826
0.00101785
0.000932639
0.0305584
0.0269261
0.0235961
0.0205613
0.0177862
0.015245
0.0129318
0.0108478
0.00900629
0.00740926
0.00604893
0.00491769
0.00399868
0.00326206
0.00268347
0.00223653
0.00189459
0.00163483
0.00143741
0.001285
0.00116337
0.00106271
0.000973774
0.000889092
0.000807832
0.918908
0.886619
3.77215
3.47316
0.000933521
0.00143017
0.0368791
0.000247067
2.98253
9.22539e-05
2.56434
0.00181377
0.0194235
0.00363676
0.0354869
0.000569224
2.50676
3.17383
6.0534e-05
0.0765211
0.0111207
0.000342182
2.99234
0.00617759
0.000337959
0.000350964
0.000307629
0.0179479
1.21039
2.52918
8.60632e-05
0.000386007
2.78091
0.0239149
2.52621
0.000449523
0.0500962
0.035786
0.0606574
0.00114361
3.9198
0.000348609
0.000316028
0.0503185
0.00877922
0.000472075
3.94846
4.89349
1.63951
1.81663
3.62952
3.53223
0.0077895
3.09815
0.0349776
2.96528
0.00311968
0.00808759
0.000785605
3.63036
0.00064661
4.20006
0.000965647
0.000487621
0.000246692
0.0401085
0.000608413
0.0678796
0.0259602
1.75235
2.90423
0.000442914
0.000487296
0.0711578
0.000485709
0.0103251
0.0597158
4.52706
0.00040644
2.7818
0.0189196
0.000876286
0.00026262
2.51944
0.00073413
0.000730055
0.000357406
4.4471
2.83666
0.00317523
0.00526519
0.00140315
0.000110882
0.00192933
0.000627563
2.58693
0.000368537
2.8767
0.000620954
3.57182
0.00698198
3.86818
0.00811271
0.000440116
0.000640758
0.0103887
3.22972
0.016597
0.000447586
2.53338
0.000390103
0.00116714
3.30079
0.000416795
0.00763704
1.60188
2.88669
0.000970948
0.00863869
0.000860699
7.28854e-05
0.00120283
0.0064222
0.000359961
2.94296
0.00032056
3.54188
0.0507856
0.000662825
4.87569
0.000263762
0.0687107
1.78851
0.0553202
0.021628
0.0003738
0.00832913
0.00433524
0.000543775
0.0844663
0.000278229
0.0576882
3.70439
0.000107154
1.35097
0.000646813
3.50976
0.0290077
0.000569713
2.42654
0.0120557
0.00200542
3.61757
0.0463582
0.000702514
2.45374
0.000405413
0.000922217
0.0563523
0.000298189
0.000294452
2.89373
0.000386175
3.07308
0.000177174
3.08614
0.00371947
0.000306897
0.000692968
0.00047538
0.00321665
0.0005034
0.0648457
2.74573
0.000672502
0.0127407
0.02009
1.49439
2.19937
0.000290283
0.0280757
0.000383891
0.00769782
0.026665
0.0319921
0.000324656
3.3612
0.000343013
2.02083
0.000546731
4.44521
3.63221
1.7857
0.0575647
0.0390615
2.22353
0.000465623
0.0003336
1.47216
1.03903
0.0886073
0.000742884
0.000817048
0.000572975
0.00789399
0.000184079
0.000726306
0.00814051
1.73978
0.000735816
0.000616542
0.00174195
0.0293279
0.00735672
0.0166039
4.27914
0.000867677
0.000270282
0.000643857
0.00499058
0.00695383
0.000391987
0.000775058
4.40086
0.407109
3.14355
0.00274532
2.51987
0.000469017
0.00054629
2.27458
0.000447947
0.000408165
0.000352902
0.0587049
0.000118303
0.0528178
0.0113482
0.0278964
0.0475135
0.000133876
0.000667786
0.000187331
0.0274086
0.000431217
0.000303836
0.000367311
0.012473
0.000555675
0.000200954
0.000423888
0.0138806
0.000284568
1.60019
0.00051867
0.000311933
3.12043
0.0575859
0.0553916
6.13697e-05
0.037846
0.000801308
0.000440052
0.000617262
0.0665553
0.000386107
0.000171385
3.72069
0.0373674
0.000291673
0.0138107
1.76735
0.000628201
0.000273672
6.37011e-05
3.61789
0.000912887
2.89588
0.00325769
3.92698
0.0457508
0.0131236
0.0470633
0.000468229
2.24316
0.000595714
0.0113313
1.23881
3.65443
4.57552
0.0466253
0.000405883
0.000204381
3.86298
0.173251
4.21048
3.96877
0.00103901
0.000316817
2.78534
3.7243
0.000283002
0.00229929
0.000599858
3.73357
0.000169124
0.0117137
0.000362274
0.0844404
0.000796399
0.000446675
0.000209696
2.36727
0.000558912
0.000666964
0.0672888
4.39491
0.000306842
0.000325226
0.170085
0.0567202
0.000307184
0.00276122
8.40215e-05
0.000373985
0.000369087
2.80952
0.0171212
0.00094922
0.00852022
0.000170166
0.0381067
0.00563686
9.94389e-05
4.2262
0.000778333
0.000296244
0.000273693
9.09936e-06
0.0431891
0.00176059
0.00178054
3.11317
0.000193728
0.0639949
0.000903227
0.00226846
0.000483696
0.000386964
3.72113
1.39063
0.000113905
0.000687455
0.0548343
3.92333
0.298392
0.284615
0.0517176
0.000196026
4.06356
1.75957
2.57303
0.000219844
3.04215
0.000265799
0.000350449
0.000617175
4.58711
0.000408966
1.91321
0.000309646
0.0462839
1.2017
3.2286
0.0190069
0.000470608
0.000825259
0.000158652
0.000375012
0.000113991
3.91265
0.00048993
2.91995
0.0571705
0.0547023
0.246131
0.000176331
0.0747052
2.34473
4.46551
0.0270196
0.000182405
0.00707638
2.61072
0.0258074
7.25503e-05
0.000177139
2.71955
0.00092065
1.23712
0.000245027
0.000320351
0.000761363
1.45149
0.00165732
2.70035e-07
0.0357107
0.00775976
0.0966831
0.000135405
1.85525
0.00042715
2.7912
0.000529609
0.000297273
0.0253826
1.76058
3.72077
0.000688874
0.00134898
0.000183596
0.000367472
0.00349303
0.00967063
0.000626768
4.2231
6.68847e-06
0.00291356
0.000260784
0.00036692
0.000548584
0.000318021
0.00334493
0.000406008
0.0450402
0.0005905
0.000381815
0.000125739
0.000458976
0.00683244
0.000262372
0.0475584
3.91536
0.0719587
0.0313602
5.23013
0.013171
2.38968
0.000625232
0.000403351
3.17396
0.000272505
0.000385603
2.56627
0.000202805
1.67462
3.79271
0.000670256
0.00571724
0.0474749
0.000406573
0.0300862
1.78235
0.0271168
3.98981
0.000281212
0.000704213
4.52946
0.000248032
2.38662
0.0111622
0.000319559
2.54808
0.00795619
0.00034656
0.0211305
0.00281932
0.000335314
0.0289146
0.0236793
0.0160713
0.0491376
3.38561e-05
0.00175483
2.44016
0.000661867
0.000772603
0.000543172
1.47054
0.000322009
0.0381453
0.000452039
0.000753714
2.48128
0.000393651
0.00116014
0.0369984
0.000558889
0.000129496
1.88911
0.000305394
0.0452768
0.000468028
0.0226166
0.0188252
0.0252292
0.000563227
0.000534772
0.0363573
0.00038275
0.000252571
0.0205854
0.000660591
0.0025082
0.000338521
4.54472
3.66846
1.84901
0.000521448
0.0178828
0.000110366
4.55064
0.0780438
5.54378
0.0268682
0.00054988
4.13036
3.80613
0.000199153
0.000566108
0.0134341
0.000345625
3.59872
2.82767
0.000921568
0.102928
0.000323421
2.30208
1.55809
0.000471398
0.167527
2.48241
0.00032057
3.53588
0.000849411
3.94806
0.000339204
0.00581963
0.000547484
2.87141
0.0493065
0.0440569
0.000637668
1.64424
1.80717
4.54185
0.000691901
0.000171268
0.0124349
1.92218
0.000308098
0.0474492
0.000322751
0.0190145
2.43537
7.52704e-05
0.0168777
0.000686168
0.000377204
0.0569144
2.51981
0.000610579
0.0339402
0.000865378
0.00108908
3.26991
4.07294
1.97605
0.00657894
0.0631391
0.0825329
0.00741727
0.000727272
0.000115307
0.000256764
2.69716
0.000295699
0.00150656
0.219845
0.000669334
0.00235961
0.000995735
0.000465746
0.0446025
0.000209345
0.000856272
0.0210489
1.89643
0.000732579
0.000356716
3.13392
0.0181206
0.000307798
0.00298264
0.048141
0.000525867
0.000623132
0.000220458
0.964114
0.000285933
0.000305592
0.0531706
0.000289342
0.000668584
0.0087722
0.00879781
0.000540894
0.00212034
4.29152
0.000521425
0.000256959
0.000305075
0.000162145
0.0030884
0.0013184
3.49875
4.65536
0.0158949
2.53692
0.000826824
0.000305308
0.000303959
0.000392901
0.000643263
0.000817577
0.0110799
0.00306023
0.000842244
0.00179059
0.0394814
0.0158324
0.00541371
0.0399867
0.000314939
0.00123037
0.000261293
0.00691869
0.0961509
3.43771
0.0439508
0.0544142
0.000574481
8.74974e-05
0.000589655
0.000579926
0.000186443
4.1074
6.28075e-05
0.0167257
0.000265383
2.12205
2.31054
2.48558
7.23534e-05
0.000297303
0.000263115
3.85392
2.45224
0.031029
0.00751225
0.00121473
6.99138e-05
0.000733362
3.63507
0.000153133
0.000300299
0.0469872
0.000418595
0.000332652
0.000143576
0.000613102
0.00851354
0.00352954
0.000278946
0.000180656
0.00679801
0.000158971
1.386
3.72018
0.000376998
0.035834
0.000808237
2.48341
0.000261341
0.000180111
0.000206347
0.000356033
0.269134
0.000550662
0.000249166
0.000794262
0.0465183
0.000497026
0.000554048
0.000396869
4.05536
0.0352228
0.0122051
4.7258
0.0380996
1.51621
2.54806
6.2223e-05
0.000380214
0.000270449
1.08767e-06
0.000445951
0.0458786
0.000631154
0.000391311
0.0143081
9.14005e-05
0.000188002
0.0203536
0.000242475
0.000378482
0.000249268
0.0129972
0.0195498
3.9627
7.10592e-05
2.31501
0.0374961
1.44515
0.0171579
3.93603
3.62517
3.718
0.000280685
0.000558768
7.21044e-05
0.0332191
0.00036733
0.221137
1.219
0.000153055
0.0603198
0.076806
0.000496896
0.000246688
0.000451729
4.45829
3.76699
0.00028531
0.0407865
0.0471858
0.00893403
2.51092
1.1541e-08
0.000203753
0.0201047
9.8163e-05
1.07738
0.104566
2.75154
0.045114
0.00033285
0.0455123
0.000825222
8.13236e-06
0.029208
0.00205174
0.00523949
0.000316406
0.000319794
0.200684
0.000568743
0.000377826
0.000296204
0.000455247
0.145282
0.001125
3.65176
0.0371056
0.000298473
1.27803
0.000508122
0.0812749
0.000999534
0.000122331
0.000306593
0.0182813
0.0152992
0.000115163
0.000361461
3.77482
3.68145
0.040906
0.000570688
0.0266848
0.147337
0.0501082
5.05121
0.044601
0.00527917
0.000220258
3.04407
0.000643033
0.000244702
0.00661159
2.2154
3.42287
0.000436571
0.000516952
1.86543
0.000286759
3.6508
2.08415
0.000327027
0.000428503
3.21152
1.24928
1.1407
0.000171488
0.000296199
0.000384676
0.0243653
0.0471227
0.000251807
0.00025207
0.00135596
0.0390234
0.00295225
0.0345166
1.22732
6.97752e-05
0.00032874
5.62601
7.6476e-05
0.0129899
0.000971819
0.0176288
0.000408357
0.000894458
0.172497
0.000419679
0.000163385
0.000133582
0.015256
0.0137253
4.33575
0.000265148
0.000228459
0.000366799
0.0339289
0.083044
3.95029
0.000771432
0.0532912
0.0367798
1.69382e-06
0.000408242
0.00217011
2.31173
0.00059501
0.0713192
0.000596183
7.86465e-06
0.0299786
0.000540336
5.95022
3.46334
0.0271216
3.7158
3.96884
4.38995
7.87791e-05
2.38836
0.0336578
0.000268682
0.0345226
0.000395473
0.00225937
0.0543313
0.000534629
0.0045138
0.0190468
4.44274
0.00118838
0.000681579
2.32879
0.00421358
0.00061428
0.0381335
1.35613
0.288988
0.000130471
0.00855617
4.7558
2.70256
0.144593
0.0111793
1.69726
0.00351529
0.000327549
0.0199709
2.08158
0.00057461
0.345637
0.00235671
2.07918
0.000621505
0.0252128
1.07402
0.000100936
0.00160758
0.000135548
2.64273
0.239162
2.36712
1.49294
0.000652977
0.0210918
0.0163452
0.00525667
1.16272
0.00805818
0.000213534
0.000570737
0.000508034
0.000527962
0.0269755
2.55821
0.000186961
2.58217
0.000355276
0.0515969
9.5468e-05
0.000419721
0.000252303
2.83951
2.13383
0.0167556
0.0151796
0.000385419
0.000561686
0.0447689
0.000225582
0.221993
0.0661467
3.26072
0.00107161
0.0660837
0.0463979
0.000587454
0.000673925
0.000825553
3.32491
0.0010617
0.00592298
0.0502053
0.0365296
0.00073728
0.00520597
0.000300678
0.000391071
0.000992394
0.000503433
0.0102728
0.000340457
0.0114196
2.38183
0.0789788
2.8221
0.00037194
0.0104041
0.0198178
0.000699397
1.31992
0.00118969
0.00313202
3.45036
0.00060115
0.0328742
0.00347572
0.000294288
1.68818
0.000130316
0.0999944
0.000462933
0.0378911
0.0418038
2.84123
0.000756112
0.0462472
0.000390461
0.101561
0.000563236
2.94407
0.0292358
0.0239625
2.4911
0.0022775
3.81617
0.000455161
1.53906
0.00130473
0.000247055
0.000965878
0.0263426
0.0369865
0.000911928
0.000127939
0.0596628
0.000274247
0.000149964
0.000814971
0.000477446
0.000478194
4.80438
0.000658611
0.000426834
0.0472207
0.0155846
4.37075
0.000431276
0.000196306
0.000465597
0.137192
0.000727997
0.00203431
3.76124
0.193217
0.0490015
0.000332515
0.00562132
0.0250021
2.68977
0.000165
0.00011009
0.00186271
0.000707543
0.00051597
0.345656
4.39625
3.29224
0.0195881
0.000378677
0.0459228
3.26724
0.0119635
0.0471768
0.00059843
1.40537
2.44387
4.07197
0.000499707
0.000504736
0.00847664
2.29176
0.000677324
3.56788
0.00286214
0.0552773
1.71827
0.000463072
0.00142644
0.00287113
9.38426e-05
8.22542e-05
0.0156985
1.27844
6.56351e-05
2.34706
0.000410627
0.000418063
0.000326627
0.000131175
0.00889157
0.001918
0.0794755
0.0210802
0.00067003
0.000606177
1.49005
2.40317
0.000223758
0.00076013
0.000405751
0.515848
2.64788
0.0102605
3.80749
0.000347302
8.54647e-05
0.00965389
0.000456868
0.00746691
0.0436227
0.000272354
0.000346327
0.000134262
0.00460465
0.0257536
3.88667
0.0460223
8.98153e-05
0.00973655
0.000168873
3.44488
3.71912
0.000204193
8.46644e-05
0.0596907
0.00048974
0.00103777
1.3257
1.2723
0.0110102
0.000108271
0.000766608
0.0269876
1.2609
0.00143382
0.00137006
1.11368
2.48511
4.11849e-06
0.000369225
0.00105103
0.000364902
0.102042
0.00837349
0.000404991
0.0503975
0.000527058
0.000247168
0.000455249
0.00949039
0.000477044
3.64518
1.70162
3.30395
1.06452
0.267868
4.74888
0.000378576
3.28357
0.0105619
0.000258474
0.0253899
0.000329301
0.00784669
0.000262316
0.000416197
0.000855328
2.37072
0.000396406
0.0145257
0.0442096
0.00327773
0.00953814
0.0935502
4.04933
0.000361166
3.9161
2.86901
0.00276827
0.00048025
0.0072635
0.0327171
0.00564367
0.041219
4.1826
0.000265745
0.000845345
0.000504695
0.0289057
3.59309
0.000629083
0.00249732
0.000353792
0.00022835
0.000976872
0.0200239
8.78613e-05
0.0038222
0.007458
1.71679
0.000133712
0.0102448
2.68755
0.000528365
0.00993471
0.00728314
3.59604
0.0130774
0.152463
0.00891994
0.000361127
5.61046
2.22085
0.000536753
0.0206421
0.0362781
0.000182154
0.000871099
0.000287113
0.0333606
0.000378161
0.0196502
0.000117028
0.0437291
1.68438
0.052962
1.61752
0.0178354
0.000767095
0.0583023
0.0420602
0.0026268
0.000504921
0.00337054
2.48853
0.000289227
0.0128789
0.000797929
0.000549262
0.0199008
0.00150054
0.000565347
0.000232871
2.51541
0.0578039
0.000129333
0.000501602
9.85617e-05
0.000278196
0.000518
1.43005
0.000435505
0.109053
2.18622
0.0366083
1.80747e-05
0.0503268
1.18329
0.0817765
1.46909
0.00610365
0.0838149
3.17309
3.37134
0.000231933
2.02735
0.000164082
2.87853
1.45636
7.50819e-05
0.0235647
0.0345025
4.46656
0.0264562
0.0124698
0.000278136
0.0380787
2.01352
0.448663
3.2724
0.000602248
0.0806833
9.73761e-05
2.18157
0.00809741
0.000633809
0.000506294
0.0631405
0.00104217
0.00324057
0.087555
0.000251707
1.57157
0.000630005
0.000245411
0.330103
0.0386397
0.00267517
0.00841794
0.0384777
0.000652282
0.0132399
0.689158
0.000139913
0.0172495
0.000736887
1.52468
0.0689596
0.000281424
4.04171
0.000114829
0.0103939
0.637638
0.000227853
0.000507049
0.0098378
0.0229628
0.0380294
0.000564844
4.37272
0.00149362
0.0122861
4.22256
0.0109398
0.000551522
0.231206
0.000474619
0.000321687
6.63465e-05
0.0516369
2.10879
0.00054331
2.65656
0.00955196
0.000519724
0.0651352
0.000381823
0.00180819
0.0375165
0.000369415
0.000216773
0.311262
0.00124914
0.000271454
0.000413315
1.61754
2.06002
0.00411603
0.00012232
0.000431165
0.0396241
4.29334
0.000438275
0.00088318
0.0108114
2.88698
0.00104839
0.0765054
0.0391122
0.000245309
0.0102983
3.38191
0.000397497
0.00540713
0.000166983
0.921067
0.000461354
0.000350786
0.00344997
0.023451
2.08765
0.000824019
2.67038
0.000875263
2.7275
0.00022589
0.029934
0.0133541
0.0800498
1.65688
0.00315701
0.0362237
0.000693303
0.000471495
0.000630689
2.09515
2.38236
0.0001339
0.000185828
0.150975
0.000464557
0.0019121
0.000593864
4.21474
3.36148
0.0499882
2.93646
0.000521353
0.000261202
0.0414108
0.00803964
1.56331
0.000434108
0.000950728
0.000575673