/*--------------------------------*- C++ -*----------------------------------*\
  =========                 |
  \\      /  F ield         | OpenFOAM: The Open Source CFD Toolbox
   \\    /   O peration     | Website:  https://openfoam.org
    \\  /    A nd           | Version:  10
     \\/     M anipulation  |
\*---------------------------------------------------------------------------*/
FoamFile
{
    format      ascii;
    class       volScalarField;
    location    "1450";
    object      k;
}
// * * * * * * * * * * * * * * * * * * * * * * * * * * * * * * * * * * * * * //

dimensions      [0 2 -2 0 0 0 0];

internalField   nonuniform List<scalar> 
10435
(
1.63644
1.95517
1.88369
2.09124
2.20982
2.20086
1.86584
1.96289
1.9786
2.07358
2.18874
2.15273
2.07753
1.05364
1.10314
1.93862
1.01259
2.24966
1.89678
1.74419
1.94605
2.07729
1.91324
2.01378
1.97402
0.626108
0.794372
1.93972
0.747137
2.17265
1.94595
2.25902
1.97636
0.758413
2.02757
1.44797
2.01923
0.809846
0.508455
1.95449
2.284
1.87688
0.786744
1.95408
1.98813
1.98609
2.21533
0.762521
1.93278
1.98837
1.97312
2.01398
0.49369
0.691868
0.537509
0.701928
2.05451
0.828685
0.924
2.04242
0.526344
1.7977
0.820963
2.04875
1.94617
1.90474
0.869148
0.867991
1.93767
2.0258
0.68664
0.727485
0.605869
1.89256
1.16378
0.790105
2.05224
1.86864
1.97023
1.14772
2.05165
1.46793
0.479267
0.69831
2.06076
1.36284
1.53112
1.9483
1.22732
1.64282
2.02393
2.08273
1.56967
1.31384
1.75543
1.28501
2.11097
1.12667
0.966333
2.13555
1.17039
2.31276
1.41878
1.85901
2.27627
2.03018
1.67134
2.02821
2.06403
1.2121
1.92863
2.35049
1.37237
1.28684
2.14334
2.01473
2.12515
1.48199
1.97422
2.14648
2.11443
0.681727
1.61843
0.921325
2.44679
0.57685
2.1377
0.733941
2.1423
0.81222
0.823012
2.43489
1.96482
1.09279
0.769494
0.440993
1.23672
2.13565
1.87048
1.93709
1.8456
1.9521
0.828253
2.03281
2.12216
0.988728
1.05926
2.08699
0.978936
2.08078
0.711558
2.03353
1.65727
2.043
2.04065
0.664799
2.43348
1.74969
2.05991
2.26886
2.02395
1.04575
2.12176
2.15635
1.2398
2.09546
1.99728
2.17225
2.12352
2.05085
1.97522
0.541128
0.731659
1.05051
2.1125
2.11867
1.62068
0.901537
1.85596
0.787588
2.08678
2.2007
2.11219
0.55111
1.99157
0.692131
0.706508
1.88489
2.19949
2.00488
2.1257
0.468923
0.782367
1.44902
2.39553
1.91007
0.898286
1.25305
0.835414
1.97734
1.2401
0.785354
1.99578
0.816749
1.93116
2.19198
2.06295
2.16372
0.829601
2.1478
0.642571
1.88918
2.08341
2.15315
0.779626
1.0178
1.32576
0.530289
0.633288
1.00503
0.764583
0.94759
0.85899
1.00139
0.656366
1.99773
0.566581
1.16035
1.9679
0.829692
0.904916
2.00323
0.597775
2.06865
0.842291
0.975845
2.06969
0.663796
2.08353
1.93985
1.86529
0.608231
0.542389
0.705936
2.17455
1.98088
1.15872
1.91178
0.599368
1.92314
0.631166
1.33491
2.1025
2.15677
1.8855
2.10298
0.554544
1.8713
0.613071
0.767772
1.86235
1.97239
0.61447
2.10055
1.42193
0.93137
1.76518
1.9252
0.511724
2.17796
1.859
1.93355
1.90265
1.94929
0.672691
2.14526
0.806753
2.27291
1.91912
1.94752
2.0517
0.885048
1.86311
1.10274
1.43697
0.488277
2.14732
0.535589
0.703555
0.77375
1.05141
2.37506
0.828153
1.91821
0.516318
0.6771
0.936513
1.52729
2.29765
1.9234
0.861743
2.09898
1.87546
0.643966
2.2959
1.06844
0.952282
2.09731
1.91074
0.705094
1.76912
0.74691
1.68851
2.12994
2.00594
0.674203
0.560308
1.9962
0.891395
2.16799
2.25148
0.786508
1.54695
0.459104
1.95376
1.99219
0.716887
1.89818
0.897103
0.828052
2.01384
0.795801
0.703087
1.87099
2.07704
0.840856
0.671327
0.626834
0.723519
0.709373
0.747346
0.699047
0.514328
0.733075
0.707328
0.714312
0.856117
0.859183
0.449884
1.9563
0.707215
1.96104
0.78003
1.93338
1.95105
1.89354
2.08704
1.90492
0.70232
0.735046
0.646559
0.59018
0.696082
0.498357
0.764249
0.769389
0.837677
2.13881
0.751194
1.95436
0.563121
0.795487
2.14645
1.8325
0.487807
0.797994
0.814937
0.825577
0.731518
0.665191
0.935549
0.547439
1.96235
0.865262
1.93279
1.94234
1.97901
2.03417
1.92783
1.9035
2.02114
0.892617
0.614447
0.736184
0.686238
1.88287
0.71896
2.15229
0.903008
0.792375
0.810167
0.817774
0.576943
1.88829
0.820144
1.952
2.11495
0.558626
0.70086
0.854349
1.85979
0.864911
0.727615
0.625534
0.699023
0.811384
0.748985
1.89821
0.684897
0.701382
0.750656
0.767698
2.27639
0.482411
0.449455
1.73583
0.728239
0.131671
0.129524
0.125471
0.120309
0.114472
0.108117
0.101447
0.0946818
0.0880862
0.131357
0.128559
0.124262
0.119046
0.113242
0.107065
0.100716
0.0944535
0.0885958
0.130709
0.127496
0.123014
0.117762
0.112046
0.106075
0.100058
0.0942467
0.088932
0.130054
0.126567
0.121927
0.116661
0.111052
0.105291
0.0995819
0.0941455
0.0892137
0.129673
0.125979
0.121195
0.115926
0.11042
0.104855
0.0994103
0.0942669
0.089584
0.129821
0.125944
0.121019
0.115741
0.11032
0.104919
0.0996917
0.0947769
0.0902847
0.130787
0.126707
0.121618
0.116307
0.11094
0.105665
0.100607
0.0958755
0.0915578
0.132982
0.128543
0.123237
0.117852
0.112499
0.107304
0.102364
0.0977706
0.0936016
0.136767
0.131704
0.126129
0.12063
0.115249
0.110083
0.105206
0.100687
0.0965894
0.142147
0.136369
0.130548
0.124914
0.119471
0.114285
0.109411
0.104896
0.10077
0.148799
0.142658
0.136735
0.130986
0.125456
0.120203
0.115277
0.110708
0.106498
0.156371
0.150752
0.144938
0.139115
0.133477
0.128114
0.123085
0.118417
0.114114
0.165601
0.161076
0.155451
0.149549
0.143761
0.138232
0.133045
0.128232
0.123814
0.17826
0.174216
0.168567
0.162476
0.156448
0.150673
0.145252
0.140231
0.13564
0.19506
0.190482
0.184421
0.177954
0.171563
0.165439
0.159691
0.154365
0.149469
0.215729
0.209731
0.202912
0.195892
0.189012
0.182439
0.176277
0.170581
0.165363
0.238832
0.231413
0.223742
0.216077
0.208625
0.201524
0.194878
0.188752
0.183193
0.263152
0.25495
0.246574
0.238276
0.23022
0.222545
0.215359
0.208737
0.202733
0.288586
0.28008
0.271193
0.262321
0.253668
0.245404
0.237648
0.230484
0.223963
0.315326
0.306811
0.297539
0.288143
0.278918
0.270076
0.261752
0.25404
0.24701
0.343722
0.335307
0.325661
0.315749
0.305979
0.296592
0.287726
0.279475
0.271914
0.374298
0.365808
0.355638
0.345164
0.334883
0.325017
0.315678
0.306944
0.298888
0.407903
0.398563
0.387504
0.376378
0.365647
0.355423
0.345744
0.336652
0.328244
0.445688
0.43365
0.421109
0.409275
0.398232
0.387857
0.378052
0.368779
0.360145
0.48897
0.470496
0.456028
0.443645
0.432583
0.422382
0.412758
0.403583
0.394156
0.228498
0.228491
0.22906
0.230201
0.231927
0.234232
0.237112
0.240545
0.244515
0.248982
0.253908
0.259244
0.264923
0.270884
0.277037
0.283299
0.289574
0.29576
0.301752
0.307445
0.312717
0.317442
0.321462
0.324539
0.326514
0.327328
0.32708
0.325733
0.323094
0.31924
0.314336
0.308426
0.301538
0.293795
0.285318
0.276229
0.266655
0.256727
0.246575
0.236336
0.226139
0.216113
0.206375
0.197034
0.188187
0.179918
0.172289
0.165354
0.159136
0.153647
0.148877
0.144801
0.14139
0.138601
0.136394
0.134725
0.13356
0.132863
0.132605
0.227963
0.228287
0.229139
0.230527
0.232452
0.234904
0.237875
0.241352
0.245315
0.249734
0.254571
0.259779
0.265302
0.271072
0.277013
0.283043
0.28907
0.294996
0.300721
0.306139
0.311142
0.315617
0.319441
0.322475
0.32456
0.325545
0.325333
0.323885
0.321232
0.317467
0.312675
0.306911
0.300227
0.2927
0.284424
0.275506
0.266066
0.256232
0.246136
0.235912
0.225694
0.215613
0.205794
0.196352
0.187393
0.179006
0.171261
0.164212
0.157886
0.152293
0.147421
0.143244
0.139727
0.136828
0.134499
0.132697
0.131381
0.130517
0.130068
0.224397
0.224778
0.225665
0.227066
0.228984
0.231418
0.234358
0.237789
0.241689
0.246029
0.250771
0.255871
0.261272
0.266911
0.272716
0.278606
0.284495
0.290288
0.295886
0.301185
0.306077
0.310444
0.31416
0.31709
0.319096
0.32006
0.319896
0.318563
0.316066
0.312457
0.307805
0.302177
0.295639
0.288269
0.280156
0.271404
0.262123
0.252436
0.242469
0.232354
0.222223
0.212206
0.202429
0.193012
0.184061
0.175668
0.167908
0.160834
0.154478
0.148847
0.143934
0.139711
0.136144
0.133189
0.130803
0.128943
0.127568
0.126647
0.126143
0.217501
0.217894
0.218782
0.220171
0.222063
0.224453
0.227332
0.230686
0.234493
0.238724
0.243344
0.248308
0.253565
0.259054
0.264706
0.270444
0.276182
0.28183
0.287289
0.292454
0.297216
0.301459
0.305062
0.307898
0.309848
0.310803
0.310684
0.309449
0.307096
0.303657
0.299187
0.29375
0.287415
0.280262
0.272378
0.263862
0.254821
0.24537
0.235632
0.225735
0.215807
0.205978
0.196372
0.187107
0.178293
0.170021
0.162366
0.155382
0.149102
0.143536
0.138674
0.134495
0.130963
0.128033
0.125663
0.123811
0.122439
0.121514
0.121003
0.208314
0.208722
0.209608
0.210981
0.212839
0.215181
0.217996
0.221271
0.224984
0.229107
0.233605
0.238436
0.243549
0.248886
0.254381
0.259958
0.265534
0.27102
0.276319
0.281328
0.285938
0.290038
0.293511
0.296243
0.298126
0.299065
0.298992
0.297864
0.295671
0.292431
0.288184
0.282985
0.276902
0.270013
0.262404
0.25417
0.245416
0.236253
0.226802
0.217187
0.207535
0.197972
0.188621
0.179599
0.171012
0.162951
0.15549
0.148683
0.142562
0.137137
0.1324
0.128328
0.124884
0.122029
0.119718
0.117911
0.11657
0.115665
0.115158
0.196898
0.197278
0.198127
0.199452
0.201253
0.203528
0.206266
0.209454
0.213068
0.217083
0.221462
0.226164
0.231139
0.23633
0.241671
0.247088
0.252502
0.257822
0.262955
0.267802
0.272257
0.276213
0.279563
0.282199
0.284024
0.284955
0.284927
0.283903
0.281867
0.278828
0.274817
0.269881
0.264086
0.257504
0.250218
0.242322
0.233913
0.225102
0.216005
0.206744
0.197444
0.188226
0.179211
0.170514
0.162236
0.154468
0.147282
0.140731
0.134844
0.129633
0.12509
0.12119
0.117899
0.115177
0.112981
0.11127
0.110008
0.109163
0.1087
0.183543
0.18387
0.184658
0.185913
0.187638
0.189831
0.192481
0.195576
0.199092
0.203001
0.207269
0.211852
0.216701
0.221758
0.226958
0.23223
0.237494
0.242663
0.247644
0.252342
0.256656
0.260483
0.263723
0.266281
0.268063
0.268995
0.26902
0.268103
0.266224
0.263387
0.259617
0.254956
0.249467
0.243223
0.236298
0.228784
0.220773
0.212369
0.203691
0.194855
0.185978
0.177178
0.168571
0.160268
0.15237
0.144964
0.13812
0.131888
0.126299
0.121362
0.117068
0.113395
0.110307
0.107766
0.105728
0.104153
0.103004
0.10225
0.101857
0.168153
0.168363
0.169033
0.170172
0.171787
0.173876
0.17643
0.179435
0.182867
0.186694
0.190881
0.195378
0.200134
0.205089
0.21018
0.215342
0.2205
0.225562
0.230441
0.235033
0.239241
0.242966
0.246126
0.248638
0.250403
0.251361
0.251458
0.250665
0.248949
0.246309
0.242775
0.238385
0.233212
0.227331
0.220796
0.213703
0.20614
0.198198
0.190008
0.181667
0.173286
0.164975
0.156843
0.149
0.141548
0.134566
0.12813
0.122284
0.117053
0.112447
0.108455
0.105056
0.102218
0.0999022
0.0980687
0.0966767
0.0956889
0.0950738
0.0947969
0.150541
0.150533
0.151005
0.15198
0.153471
0.155472
0.157959
0.160894
0.164283
0.168127
0.172328
0.176827
0.181553
0.186435
0.191447
0.196518
0.201621
0.206707
0.211601
0.216157
0.220296
0.223941
0.227049
0.229539
0.231329
0.232354
0.232573
0.231948
0.230414
0.227949
0.224626
0.2205
0.215644
0.210148
0.204058
0.197383
0.19025
0.182881
0.175295
0.167525
0.159717
0.151978
0.144398
0.137074
0.130098
0.123586
0.117606
0.112235
0.107469
0.10326
0.099596
0.0964815
0.093906
0.0918361
0.0902277
0.0890497
0.0882674
0.087844
0.0877458
0.714789
0.669225
0.628254
0.588979
0.550473
0.512504
0.475345
0.43943
0.405203
0.373077
0.344015
0.318884
0.297989
0.281032
0.266941
0.25521
0.246032
0.239411
0.235012
0.232277
0.23071
0.229888
0.229416
0.228901
0.227878
0.680678
0.654128
0.620775
0.58456
0.547148
0.509392
0.472015
0.435709
0.401123
0.368935
0.339867
0.31443
0.292841
0.275026
0.260654
0.249366
0.240866
0.234844
0.230931
0.228691
0.227674
0.227459
0.227676
0.227982
0.22803
0.674148
0.64713
0.614756
0.579174
0.541822
0.503758
0.465921
0.42917
0.394283
0.361971
0.332813
0.3072
0.285332
0.267231
0.252752
0.241627
0.233491
0.227919
0.224469
0.222689
0.222136
0.222385
0.223051
0.22379
0.224295
0.673438
0.643092
0.609197
0.572748
0.534749
0.496138
0.457837
0.42073
0.385615
0.353173
0.323925
0.298214
0.276241
0.258063
0.243591
0.232583
0.22466
0.219359
0.216194
0.214693
0.214403
0.214894
0.215781
0.216714
0.217368
0.674055
0.640483
0.604355
0.566317
0.52715
0.487674
0.448739
0.41118
0.375757
0.343109
0.313718
0.287914
0.265893
0.247716
0.233298
0.222395
0.214616
0.209481
0.20648
0.205119
0.204936
0.205503
0.206436
0.207408
0.20814
0.674266
0.63787
0.599407
0.559542
0.518989
0.478483
0.438789
0.400679
0.364863
0.331937
0.302366
0.27647
0.254435
0.236306
0.221978
0.211182
0.20351
0.198467
0.19553
0.194191
0.193984
0.194485
0.195325
0.19619
0.196813
0.674133
0.634961
0.594084
0.552295
0.510263
0.468631
0.428076
0.389313
0.353012
0.319742
0.289956
0.263971
0.241955
0.223917
0.209714
0.199041
0.191463
0.186472
0.183533
0.182132
0.181795
0.182103
0.182694
0.183273
0.183621
0.673778
0.631491
0.588097
0.544379
0.500871
0.458082
0.416598
0.377087
0.340218
0.306542
0.276509
0.250445
0.228502
0.210611
0.196582
0.186064
0.178587
0.173628
0.170652
0.169132
0.168586
0.168592
0.168774
0.168821
0.168595
0.672694
0.627047
0.581181
0.535646
0.490751
0.446821
0.40438
0.364013
0.326476
0.292338
0.26201
0.235883
0.214114
0.196452
0.182668
0.172361
0.165001
0.16007
0.157051
0.155404
0.154607
0.154264
0.153891
0.153029
0.151662
2.24514
2.20549
4.10714
4.38085
0.105446
0.123734
1.31201
0.0648396
3.5459
0.0861913
2.69059
0.131628
0.721972
0.174418
1.38999
0.143681
2.894
4.11558
0.0820843
0.991507
0.664265
0.138069
3.0912
0.247744
0.0544093
0.0867089
0.0536646
0.449115
2.44418
2.84402
0.0834797
0.099461
3.8724
0.83794
2.81722
0.0938234
1.27078
1.39596
1.35431
0.135718
4.05195
0.0257885
0.115551
0.823744
0.322451
0.17936
3.46907
4.03215
2.75354
3.23528
3.28591
3.74356
0.640951
4.01783
1.26968
3.55866
0.161454
0.636363
0.0733434
3.57198
0.114525
4.40366
0.10445
0.151618
0.0668862
0.751724
0.109667
0.498362
0.760524
3.06257
3.52425
0.163374
0.0747813
1.03108
0.0627417
0.653667
1.1238
4.01156
0.0608992
3.72218
0.791085
0.139038
0.0777395
2.58631
0.105054
0.117232
0.0718125
4.00875
3.89818
0.19871
0.244401
0.139823
0.0976171
0.136586
0.0826834
2.71674
0.0875809
2.85081
0.0539832
3.55253
0.261721
4.06745
0.286183
0.167924
0.0669932
0.353049
3.26723
0.776432
0.0327734
2.85791
0.141064
0.0885559
3.41297
0.1641
0.636087
2.73398
3.70356
0.12888
0.648267
0.0612381
0.00806507
0.0910346
0.249049
0.0553627
3.94528
0.113018
3.77086
0.917716
0.0804738
4.03029
0.075088
1.03463
3.0659
1.25385
0.522747
0.0713227
0.311185
0.19712
0.114428
0.996026
0.138357
1.28723
3.60388
0.0114212
2.55877
0.159129
4.46618
0.89551
0.142128
2.75709
0.577385
0.169759
4.53224
1.55218
0.0715572
2.55149
0.0595658
0.127371
1.22878
0.0960051
0.114218
3.4893
0.123969
2.97354
0.106931
2.92266
0.18318
0.0524284
0.176287
0.0627795
0.160013
0.158486
0.495035
2.72398
0.110174
0.392484
0.913353
2.77813
3.01569
0.140279
1.07021
0.0968932
0.640474
1.09609
0.684002
0.0575477
3.07334
0.0287852
3.40828
0.131395
3.88191
3.58038
3.04653
1.25751
1.45602
3.56046
0.0611197
0.135006
2.65164
2.3143
1.05051
0.201518
0.132591
0.133853
0.439035
0.0955533
0.114894
0.283926
2.86786
0.119707
0.0663377
0.123764
1.05543
0.417401
0.668002
4.14532
0.0862784
0.0665948
0.202805
0.248736
0.243474
0.0298376
0.0738946
4.62917
0.940437
3.78067
0.186191
2.91703
0.032298
0.0793353
2.43734
0.0959594
0.095098
0.0667728
1.3356
0.0899453
1.29704
0.333211
1.12477
1.60496
0.0848293
0.113654
0.105826
0.607749
0.0724977
0.0744296
0.101413
0.393739
0.142022
0.0980984
0.0290074
0.416791
0.0945978
2.75651
0.079793
0.0522947
3.26009
1.14026
1.24819
0.0820925
0.430116
0.0891025
0.112121
0.0673134
1.05347
0.0560667
0.096553
4.65523
1.31158
0.0522876
0.723381
3.03608
0.0601767
0.0635288
0.083938
4.59358
0.123392
3.37511
0.172374
3.74419
0.812308
0.599936
0.446311
0.178428
3.02886
0.12408
0.371389
2.06957
3.40442
3.93061
1.57596
0.129787
0.0165479
3.50405
1.50682
4.15494
4.06601
0.125479
0.0975579
3.2703
3.66036
0.114209
0.160297
0.138171
3.99884
0.10072
0.66572
0.0961965
0.993026
0.137155
0.165599
0.126244
3.6488
0.074272
0.0578424
1.27802
3.73875
0.0964879
0.0547566
1.61843
1.23622
0.103727
0.16875
0.0828827
0.0743712
0.056191
3.66116
0.794038
0.121693
0.645065
0.105423
1.44125
0.212068
0.0876003
3.97381
0.122367
0.0877128
0.0826156
0.0035925
0.441673
0.122992
0.130858
3.37451
0.122307
1.05728
0.0862382
0.142161
0.0779916
0.0687298
3.27958
2.47525
0.0979592
0.035828
1.26
3.55458
0.761263
1.84506
0.828072
0.10577
3.44851
2.90961
2.80211
0.0919119
3.73558
0.0228932
0.0671563
0.165759
3.89397
0.107585
3.32387
0.148678
1.53753
2.46447
3.73324
0.720078
0.0568862
0.0671175
0.108744
0.0957297
0.0885031
4.06979
0.150175
3.93102
0.876235
0.851589
1.75428
0.108266
0.990334
2.58505
3.88642
0.988194
0.0959157
0.297583
3.65162
1.04525
0.0835802
0.101197
3.82806
0.126972
2.47556
0.0648527
0.11755
0.104318
2.88021
0.125553
0.000567605
1.33746
0.311463
1.05302
0.0847532
3.08698
0.108746
3.26071
0.111424
0.0957809
0.214317
2.80879
3.28396
0.112696
0.138132
0.109877
0.0972067
0.207652
0.315367
0.17108
3.85613
0.00269978
0.181008
0.0914119
0.100152
0.129409
0.0527218
0.203782
0.0608235
1.52136
0.160233
0.14076
0.0113369
0.0789603
0.186268
0.0949705
1.60293
3.58707
0.937516
0.792015
5.36953
0.367917
3.48966
0.067357
0.0608909
3.70938
0.108089
0.121911
3.16974
0.12459
3.00244
3.29976
0.118068
0.250793
0.966485
0.13207
0.66475
3.02699
1.00901
3.77363
0.0630913
0.0709915
4.65637
0.0938434
2.63148
0.374955
0.0629198
2.7924
0.189251
0.0556141
0.771507
0.187551
0.0571839
0.919467
0.853664
0.678629
1.33782
0.00709381
0.129501
2.53836
0.0934002
0.137649
0.180184
2.78215
0.145026
1.4225
0.132128
0.0655817
3.56586
0.104166
0.0885884
1.39968
0.123119
0.0992843
3.29847
0.115642
1.53714
0.110445
0.533607
0.885186
0.893222
0.131088
0.130548
1.34379
0.0994046
0.120629
0.846563
0.109774
0.177804
0.0545234
3.87295
4.03233
2.85442
0.0580302
0.745373
0.0992167
3.92596
0.99452
5.77759
0.842105
0.187583
3.81757
4.15838
0.0958001
0.173068
0.402452
0.151242
4.6084
3.62023
0.062919
1.06145
0.118057
3.08129
2.72836
0.13706
1.60303
2.84185
0.132935
3.47566
0.0446808
4.42667
0.105549
0.215745
0.123343
3.32045
1.30345
1.32616
0.0798224
2.80464
2.84032
3.8408
0.0701189
0.11642
0.675385
2.99607
0.0938374
1.23246
0.119126
0.731582
2.7752
0.0837678
0.730812
0.0708176
0.100612
0.484712
3.7315
0.197196
1.31898
0.0778152
0.104868
3.40765
3.48266
3.04567
0.236059
0.502811
1.0238
0.63534
0.197595
0.10065
0.0669752
3.8056
0.127864
0.124439
1.68502
0.190425
0.160567
0.125193
0.147424
1.47109
0.126044
0.0770481
0.782735
2.88038
0.0957175
0.0963186
3.38965
0.452547
0.026694
0.180084
0.907276
0.0828163
0.125579
0.0902642
1.73071
0.10705
0.117265
1.33966
0.0733907
0.172052
0.315038
0.655248
0.0849289
0.139434
4.67817
0.163498
0.0601652
0.102618
0.114005
0.226941
0.109801
3.52391
3.7667
0.415888
3.70531
0.0844259
0.0521416
0.0592496
0.0452109
0.159866
0.0585152
0.695576
0.195069
0.0754698
0.15524
1.3437
0.705294
0.214246
0.746875
0.129842
0.116483
0.0743938
0.269081
1.03738
3.50229
1.47591
1.27208
0.0464326
0.0860147
0.0311133
0.19309
0.0881799
3.50647
0.083469
0.70801
0.098029
3.12322
3.24158
2.62281
0.00880141
0.0604863
0.064374
4.16602
3.50243
0.65098
0.63635
0.104531
0.0860218
0.100578
3.60992
0.0167199
0.0941799
1.26924
0.0900441
0.153529
0.0900367
0.0583821
0.652235
0.185559
0.0811902
0.096224
0.246938
0.107876
2.60418
3.63597
0.100727
1.35629
0.11617
2.6843
0.0692692
0.118807
0.099107
0.0799726
1.7583
0.119105
0.121926
0.0733274
0.447752
0.0834723
0.18333
0.159985
3.72785
1.3494
0.543609
3.99708
1.4404
2.84275
2.8201
0.0833111
0.0593337
0.0609405
0.00119633
0.128123
0.809095
0.151408
0.0888537
0.689578
0.0934569
0.0878183
0.468167
0.104536
0.0968989
0.0676804
0.542299
0.849481
4.15811
0.0858184
3.10739
1.25841
2.72165
0.719128
4.16861
3.37475
4.68513
0.0620849
0.13835
0.00982104
0.405682
0.116168
1.58455
2.60585
0.111624
1.2121
0.958249
0.0803113
0.0672354
0.107386
3.64959
4.42449
0.0842446
1.35707
1.51146
0.661216
3.31694
8.32683e-05
0.0967548
0.481956
0.0132223
2.44883
1.09004
2.93462
1.50502
0.0531549
1.51271
0.0527167
0.00361117
0.638139
0.150163
0.220421
0.0955458
0.114683
0.792035
0.138566
0.0638003
0.116041
0.12628
0.654566
0.134225
3.64698
1.41578
0.130431
2.31584
0.157496
1.01468
0.122683
0.102877
0.147794
0.796734
0.623902
0.0153425
0.153704
3.32345
4.41636
1.12123
0.116467
0.913853
1.37023
1.4101
5.19751
1.24183
0.239686
0.12884
3.11241
0.049388
0.0628594
0.276794
3.55591
3.89325
0.0957447
0.0950617
3.26622
0.0570977
4.23767
3.25062
0.147157
0.0946285
3.59793
2.56407
2.46964
0.104041
0.092194
0.0414602
0.882548
1.2791
0.107727
0.0581947
0.0960769
1.10773
0.144869
0.501254
2.62106
0.0856091
0.10413
5.71351
0.0876085
0.735508
0.0756288
0.772014
0.104917
0.0756849
1.43706
0.158292
0.114401
0.0991654
0.446293
0.743679
3.98642
0.0716731
0.0969382
0.114318
1.33529
1.00614
4.37313
0.0539421
0.915652
1.41955
0.00143856
0.0583018
0.122521
2.45267
0.113524
1.08754
0.154386
0.00291678
1.20888
0.134256
6.00321
4.51172
0.867215
3.64279
3.69551
3.63265
0.088079
3.61897
1.28436
0.140053
1.27167
0.0912755
0.124314
0.992801
0.117867
0.23631
0.73812
4.82869
0.0754692
0.0619613
3.62629
0.21046
0.139653
1.33894
2.68146
1.84392
0.10525
0.306154
4.00096
2.90508
1.43913
0.704555
3.12696
0.246193
0.0592219
0.828772
2.96507
0.108569
0.943696
0.18961
3.25106
0.159593
1.02306
2.39075
0.0110229
0.108147
0.106678
3.19549
1.63515
3.2074
2.65828
0.196616
0.498726
0.700881
0.253539
2.54204
0.632353
0.092558
0.130057
0.118446
0.0457515
0.942554
2.73698
0.0231942
3.19027
0.158028
1.31189
0.094737
0.087846
0.0626021
3.60046
3.16411
0.429365
0.747222
0.0957709
0.0751955
1.54562
0.0899256
1.73808
1.30688
3.89861
0.081398
0.491384
1.56234
0.14264
0.184996
0.13022
3.94625
0.129216
0.235612
1.31362
1.36653
0.071701
0.249706
0.0932655
0.155375
0.0812717
0.0807639
0.675412
0.0736705
0.338348
3.09276
1.00423
3.60296
0.123722
0.313867
0.85408
0.0623559
2.52935
0.110539
0.155552
3.57635
0.152275
0.46962
0.239784
0.0520891
2.82197
0.0911047
0.550729
0.0563386
1.2956
1.38942
3.72012
0.07197
1.18812
0.0978897
0.567649
0.145595
3.37273
1.13311
0.374276
2.8557
0.131206
3.35235
0.113407
2.73173
0.143441
0.0612961
0.126344
1.06091
1.42175
0.060035
0.104409
1.0131
0.0903104
0.1107
0.0730757
0.0521393
0.140754
4.01589
0.1719
0.123108
1.48862
0.440687
3.61866
0.0408073
0.122949
0.0923336
0.46677
0.190613
0.121714
4.17696
0.574012
0.810621
0.092802
0.260537
0.936471
3.2411
0.102726
0.0989439
0.157012
0.185677
0.102142
0.95018
3.87189
4.139
0.755619
0.0921434
1.56881
3.95866
0.37182
0.988968
0.146371
2.72423
2.7154
3.46889
0.109649
0.114068
0.31067
3.19599
0.199695
4.2262
0.189099
0.51686
2.97789
0.0639593
0.145832
0.160336
0.0889091
0.0837486
0.18136
2.62247
0.0842119
3.63951
0.104937
0.0968176
0.0726932
0.0885531
0.662472
0.119022
1.02887
0.94366
0.0964731
0.167982
2.68459
2.55561
0.0915995
0.11197
0.159372
1.19644
3.57409
0.346054
3.69258
0.0835466
0.0901919
0.661378
0.105101
0.424807
1.5432
0.0959823
0.0683703
0.0167994
0.185741
1.06359
4.61537
1.16813
0.0922975
0.330424
0.0871187
3.99464
4.05315
0.10724
0.0891174
1.22581
0.10868
0.0825138
2.58022
2.5679
0.211967
0.0921188
0.0786211
0.589681
2.66437
0.115099
0.078934
2.47658
3.15842
0.00245494
0.0942335
0.0959977
0.159764
0.5783
0.650647
0.112915
1.37931
0.115382
0.135154
0.0895692
0.668557
0.0900253
3.44401
2.95933
3.87777
2.42307
1.78204
5.24136
0.100359
3.79823
0.697146
0.0721222
0.364331
0.0340532
0.292554
0.107045
0.100454
0.0650214
3.42624
0.0572866
0.415494
1.54103
0.158188
0.31483
0.556657
3.4524
0.0357772
3.60221
2.86452
0.153538
0.081749
0.285476
0.407328
0.257556
1.17446
4.70824
0.139182
0.0723418
0.10875
1.15276
4.0106
0.154761
0.178258
0.0542468
0.0903319
0.128976
0.489902
0.088874
0.181299
0.303487
2.89928
0.101736
0.303658
3.11841
0.13357
0.342983
0.27117
4.6063
0.347332
0.643123
0.648562
0.12215
5.75198
3.03938
0.0949548
0.8805
1.39766
0.102672
0.142379
0.143959
1.30102
0.0985288
0.741988
0.100918
1.54017
3.1195
0.933883
2.83075
0.258801
0.124428
1.0305
1.14908
0.16771
0.1712
0.137644
2.72278
0.144526
0.323187
0.0872493
0.186218
0.819453
0.10895
0.07305
0.0901906
3.28896
0.996204
0.0866956
0.182787
0.083136
0.104128
0.123841
2.70142
0.171539
1.08927
3.52466
0.87363
0.0046804
1.19187
2.45497
1.00184
2.82107
0.269675
1.22283
3.71587
3.48537
0.0292677
2.95848
0.101327
3.43193
2.31483
0.0877522
0.757846
1.34438
3.93744
0.95375
0.378298
0.112545
1.30915
3.27077
1.03049
3.74838
0.186188
0.999836
0.0947558
3.10159
0.450532
0.0663811
0.126193
0.974143
0.0794712
0.237041
0.986344
0.0989425
2.70345
0.0550885
0.118024
1.90761
1.29139
0.183588
0.653764
1.45357
0.193122
0.748889
1.38752
0.107962
0.472212
0.0794817
2.94912
1.00492
0.0586765
4.17803
0.100669
0.66948
1.30981
0.13044
0.0858318
0.650744
0.954136
1.28255
0.0779347
3.86891
0.117237
0.731339
3.99583
0.540747
0.178599
1.71137
0.155266
0.105802
0.0090796
1.30034
3.36624
0.110175
3.79208
0.301141
0.126828
1.22346
0.137347
0.128685
0.834127
0.160125
0.098777
0.796015
0.0951293
0.126194
0.168852
3.04142
3.14583
0.22438
0.0946599
0.0776578
0.867355
3.89786
0.101771
0.0960537
0.354715
3.86673
0.106568
1.13536
0.832454
0.0629824
0.688081
3.83853
0.0969082
0.258977
0.096315
1.70221
0.0876431
0.103448
0.190831
0.539452
3.26397
0.0523202
3.69824
0.0795625
2.77569
0.116884
1.20831
0.586257
1.03116
2.84347
0.166696
0.733868
0.189472
0.162567
0.166496
3.02146
3.10682
0.106039
0.107214
0.658541
0.166187
0.133924
0.0589482
4.14313
3.48919
0.963571
3.79798
0.179403
0.063811
0.918022
0.267353
2.77702
0.0518513
0.143075
0.0639283
0.128928
0.106499
0.115274
0.111251
0.506378
4.16056
3.14051
0.0917067
0.319818
0.850541
3.51594
0.114984
4.00906
2.65008
3.55569
0.146527
0.974247
0.0773634
0.178153
0.132605
0.139785
0.0822974
2.66772
3.99388
0.151641
0.387822
0.985115
0.333913
3.1146
4.04903
0.114127
0.0733467
0.122557
0.33754
0.949411
0.0649533
2.96238
0.834138
0.110584
0.196751
0.1779
0.610759
0.18667
0.0844691
0.10271
0.0878179
0.201141
0.74215
0.165941
3.82451
0.151107
0.125632
0.391908
0.181658
0.0960228
3.61203
3.17143
0.129341
3.24434
0.086664
1.19998
0.151039
0.190393
0.0956255
0.0667252
3.08721
0.144904
0.168222
3.6965
2.71695
0.0858767
0.0929831
0.0965318
0.174578
1.47833
0.0124567
0.115641
3.89791
0.11239
0.0871631
0.154911
3.50413
0.121934
3.2225
2.81229
0.0916384
4.60482
0.165865
0.0520851
4.17286
1.1994
0.0844104
0.00155236
0.654379
0.187496
0.198318
0.0737677
1.37581
2.88769
0.131482
0.0687957
3.1273
0.112924
2.40709
1.38648
0.125276
0.902277
3.90395
0.0828665
0.893846
0.10465
0.153139
0.180705
0.10642
3.42952
2.98173
0.121832
0.0900727
3.5482
0.13245
0.187448
0.195001
0.886248
1.26458
0.061708
0.0938714
0.0900379
0.10198
0.059585
0.000475765
0.164445
0.177888
3.39693
0.662739
0.102207
1.7173
0.180445
1.05852
3.93786
1.06952
3.36599
0.241082
0.00361851
0.683433
0.182951
0.114096
2.79305
0.144282
5.73247
3.08512
0.65721
0.140636
3.77185
0.0607537
3.39043
0.115264
0.115518
3.69363
0.447272
1.05978
0.129673
0.105047
0.0689845
0.157752
1.44608
1.19863
0.110849
2.41893
0.539081
3.10865
0.0623458
4.13408
0.127522
0.102316
0.37205
0.0968431
0.664563
3.47415
0.824045
0.0673396
2.85159
1.3759
1.04563
0.995519
0.74067
0.0340027
0.752125
3.44729
0.0909983
0.107877
0.106221
3.67902
0.143513
0.0644143
1.33871
0.769212
0.357282
4.11336
0.91557
0.288799
0.350658
1.31264
0.186817
0.799003
0.0917727
0.105519
0.103306
3.57079
0.136158
1.10787
3.18687
0.0544287
1.03635
3.16093
0.108006
2.67869
0.0959018
0.779003
0.180896
0.0563285
0.155279
0.0905971
0.0604858
0.165329
0.132601
0.136348
0.167624
2.95272
0.796704
0.126599
0.772305
0.089607
0.115762
0.095566
0.11648
0.150627
1.55483
0.0555437
1.74463
3.20488
1.52674
1.13181
0.711196
0.163551
3.42977
0.103774
0.728181
0.128604
0.112876
0.232511
2.90304
0.153951
0.0980271
0.0894996
0.29922
0.217572
1.50928
0.745992
1.41582
2.70774
0.109668
0.0829095
4.17813
0.103788
0.133955
0.0619509
0.231249
0.0747302
0.0839943
0.150627
0.0607882
1.17637
3.29949
1.67553
0.202783
0.0910895
0.999075
3.53426
2.97773
0.063451
0.121653
0.84084
0.0930411
0.059311
0.186095
3.23193
0.886868
0.0899212
0.103078
0.148873
0.0631106
3.16686
0.102372
0.124652
0.1307
0.127268
3.05135
0.0977656
1.5566
0.196727
0.159095
0.0765347
0.0786795
3.32993
0.517124
0.0904818
3.86889
0.88123
0.75022
0.0684913
0.108961
1.28333
4.10952
4.09395
0.091235
0.981896
0.0975973
0.0862946
3.39745
2.98091
0.0556207
0.00301496
1.12745
1.4891
0.0908678
0.056222
3.15419
0.101666
0.555426
0.215879
0.135464
4.3659
0.0951201
0.104074
0.13976
2.49287
0.091595
0.064429
0.0980715
0.131087
0.333688
0.167248
0.65044
0.880224
0.836757
0.128474
0.116858
0.0888946
0.0864587
0.127884
0.111283
0.770574
0.119181
0.147325
0.95394
3.22226
0.085731
0.0600368
0.137139
3.61137
0.118714
1.00579
0.0467792
0.0911284
0.0144312
0.130144
0.0999244
3.85673
0.135887
0.0733913
0.762545
0.0920777
1.38875
0.120663
0.0958377
3.4693
3.46142
0.0578177
3.11787
0.095933
1.11497
1.59615e-05
3.06964
0.0829037
1.57744
0.107342
3.37475
0.640255
1.1822
3.07298
3.97619
0.155058
3.77803
0.0715559
0.0671192
0.0922175
3.36702
0.238503
0.0648114
0.8671
2.5452
2.68489
0.18988
4.01867
0.0757534
0.177495
0.0948797
0.618781
0.192822
1.63676
0.110835
0.145763
0.0921508
0.064583
0.180067
2.98384
0.0937261
0.0907785
4.01215
0.730753
0.0562551
0.234556
3.4654
0.124287
0.110484
3.63733
0.193183
3.62892
1.30749
0.101794
0.5126
0.961939
0.0274405
0.173166
0.0893298
0.0590878
0.187354
0.186916
3.30211
0.0642092
1.00357
0.347909
0.129808
3.29484
1.28543
0.183864
0.101232
0.0529016
0.0786833
0.0574142
1.20295
2.34721
0.0941898
0.11322
0.130331
1.1823
0.171502
0.955032
0.146056
0.112994
0.138633
0.157211
1.52944
0.168833
0.724806
1.20106
0.000397464
1.37521
0.121077
0.97317
0.646225
0.112652
0.107681
0.190225
0.0827818
0.161659
1.24177
3.63825
3.54682
3.04104
0.897373
0.0103455
0.0568481
1.31722
0.0685022
1.45314
4.02111
0.0960269
2.65893
0.982548
2.52135
0.14337
0.0676244
0.11356
0.0904506
2.92439
0.0922307
3.28412
0.370362
0.231726
0.0633314
3.19729
1.22618
0.127895
0.0820481
1.09948
0.160103
0.111516
0.859624
0.961419
0.0838474
0.0811371
2.90389
0.0965077
1.17305
0.13488
0.121045
0.183227
2.9636
0.0116694
0.0357878
0.0927059
0.0893315
0.335343
0.0795821
3.50808
0.421743
0.031467
0.13328
0.0799631
0.912682
0.262999
0.052134
1.54239
3.39764
0.147004
1.03031
0.0991891
3.06152
0.785253
0.200817
0.290838