/*--------------------------------*- C++ -*----------------------------------*\
  =========                 |
  \\      /  F ield         | OpenFOAM: The Open Source CFD Toolbox
   \\    /   O peration     | Website:  https://openfoam.org
    \\  /    A nd           | Version:  10
     \\/     M anipulation  |
\*---------------------------------------------------------------------------*/
FoamFile
{
    format      ascii;
    class       volScalarField;
    location    "1450";
    object      nut;
}
// * * * * * * * * * * * * * * * * * * * * * * * * * * * * * * * * * * * * * //

dimensions      [0 2 -1 0 0 0 0];

internalField   nonuniform List<scalar> 
10435
(
0.599679
0.378758
0.526044
0.512621
0.441362
0.467478
0.554119
0.720953
0.876288
0.480621
0.408468
0.565273
0.495453
1.03711
0.954407
0.615054
1.11558
0.498882
0.955904
0.583542
0.664191
0.589159
0.568432
0.891007
0.480518
1.48895
1.48187
0.50277
1.36795
0.485177
0.506668
0.419982
0.765462
1.36829
0.738145
0.354546
0.67351
1.52374
1.39701
0.947915
0.488287
0.551374
1.10662
0.503337
0.600169
0.928825
0.474901
1.25245
0.892158
0.681908
0.704757
0.459686
1.35966
1.38088
1.42174
1.31589
0.723014
1.48653
1.26709
0.806707
1.38813
0.364048
1.4428
0.457882
0.578974
0.508191
1.31157
1.37614
0.678763
0.879485
1.3837
1.53929
0.998445
0.519323
0.866959
0.918607
0.843863
0.579216
0.803282
0.922072
0.743239
0.698297
1.32239
1.37945
0.777102
0.444212
0.481834
0.443582
0.637611
0.453869
0.447561
0.453255
0.670808
0.580414
0.443159
0.371963
0.471027
0.805895
1.20906
0.454165
0.721032
0.447637
0.524922
0.441557
0.450849
0.505244
0.656773
0.713137
0.806075
0.853323
0.664096
0.445398
0.739209
0.79187
0.441895
0.578751
0.467386
0.406917
0.405054
0.507473
0.483286
0.831462
0.393991
0.446639
0.436523
1.43343
0.490855
0.70788
0.445285
1.62938
0.567997
0.430441
0.665681
0.9981
1.55009
1.1984
0.324364
0.532486
0.396844
0.575601
0.576449
0.539916
1.34066
0.488807
0.612045
0.801049
0.356804
0.454
1.06986
0.537519
1.30196
0.627359
0.526117
0.523822
0.462887
1.38368
0.440661
0.39178
0.471501
0.402082
0.555909
1.07361
0.4246
0.660703
0.788468
0.457864
0.788014
0.570163
0.691661
0.463824
0.476479
1.06872
1.35789
0.734386
0.599345
0.382181
0.353322
1.22264
0.654909
1.39387
0.394264
0.459171
0.53782
1.39454
0.556723
1.137
0.967181
0.60252
0.441908
0.472136
0.513317
1.28905
1.60874
0.32033
0.443239
0.639712
1.00889
0.501106
1.22814
0.63843
0.711822
1.45563
0.497411
1.46243
0.50248
0.432861
0.414036
0.553059
1.41893
0.636045
1.25525
0.54751
0.492
0.638915
1.4327
0.979125
0.726114
1.28737
1.49887
1.14452
1.38724
1.22146
1.36351
0.629523
1.45772
0.695884
1.43826
0.578206
0.483115
0.803705
1.29734
0.74375
1.46497
0.646655
1.62209
1.18442
0.758124
1.50153
0.757973
0.48958
0.504286
1.42153
1.24614
1.34491
0.428053
0.829033
0.426042
0.664579
1.12606
0.360015
1.22573
0.655408
0.493522
0.654949
0.62803
0.448071
1.05897
0.602738
1.30947
1.38113
0.579967
0.473504
1.45812
0.763081
0.672008
1.27878
0.510645
0.531997
1.32434
0.439298
0.55845
0.720544
0.661359
0.491256
1.54265
0.522686
1.57851
0.436811
0.619421
0.754666
0.488775
1.1178
0.539539
0.664152
0.600768
1.25108
0.446548
1.40744
1.37676
1.38227
0.514971
0.418339
1.39949
0.691459
1.41076
1.36964
0.895893
0.629294
0.432694
0.49694
1.31533
0.74348
0.524186
1.20156
0.428957
0.890033
1.14612
0.662883
0.501891
1.3716
0.651395
1.47158
0.336952
0.44811
0.833864
1.33527
1.36983
0.505297
1.3512
0.575477
0.454353
1.40837
0.556501
1.25729
0.789963
0.495448
1.60047
0.513197
1.33025
1.5464
0.853137
1.36488
1.36451
0.533916
0.582461
1.44292
1.3003
1.18601
1.35024
1.31206
1.62499
1.46843
1.3554
1.36419
1.31621
1.38577
1.41093
1.64722
1.22692
0.829057
1.35693
0.492875
1.45532
0.505625
0.823706
0.903468
0.497151
0.53133
1.36776
1.37802
1.23143
1.45809
1.28851
1.28631
1.3944
1.62838
1.41203
0.613288
1.59303
0.856526
1.43906
1.64115
0.495742
0.925375
1.21761
1.50438
1.47539
1.5618
1.38205
1.52791
1.78628
1.41946
0.774954
1.38603
0.698137
0.851289
0.500773
0.498367
0.876736
0.510266
0.783694
0.683695
1.1612
1.37337
1.35402
0.519766
1.37827
0.4955
1.74271
1.40163
1.63683
1.38225
1.3394
0.578077
1.52619
0.736323
0.673532
1.19518
1.56773
1.6678
0.933033
1.71644
1.58719
1.39746
1.29889
1.34653
1.36546
0.512348
1.37358
1.54261
1.36548
1.3401
0.496996
1.13936
1.17761
0.939678
1.36959
8.04345
8.06313
8.04087
8.01036
7.99758
8.03084
8.15155
8.42265
8.94511
7.25327
7.27803
7.28411
7.28719
7.30726
7.36897
7.50669
7.76857
8.21695
6.44183
6.46855
6.49044
6.51435
6.5549
6.63247
6.7752
7.02046
7.41299
5.62671
5.65314
5.68242
5.71717
5.76795
5.85112
5.98955
6.21294
6.55603
4.83215
4.85672
4.88759
4.92568
4.97861
5.05928
5.186
5.38257
5.67846
4.08505
4.10674
4.1354
4.17152
4.22074
4.29305
4.40266
4.56782
4.81164
3.41054
3.42889
3.4529
3.48361
3.52543
3.58606
3.67597
3.8082
3.99832
2.8289
2.84303
2.86074
2.88412
2.91677
2.96456
3.03504
3.1371
3.28022
2.35114
2.35907
2.36938
2.38479
2.40817
2.44384
2.49714
2.57427
2.68166
1.97542
1.97578
1.97874
1.98682
2.00206
2.02745
2.06666
2.12408
2.20471
1.68874
1.68275
1.68009
1.68262
1.69162
1.70904
1.73736
1.77956
1.83912
1.47339
1.46524
1.46002
1.45933
1.46419
1.47595
1.49632
1.52734
1.57138
1.31517
1.3093
1.30433
1.30243
1.30485
1.31278
1.32757
1.3507
1.38376
1.20659
1.20398
1.2003
1.19811
1.19901
1.20427
1.21508
1.23263
1.25807
1.1411
1.13993
1.13688
1.13428
1.13387
1.13696
1.14466
1.158
1.17797
1.11015
1.1081
1.10441
1.1008
1.09886
1.09985
1.10482
1.11466
1.13012
1.10383
1.09984
1.09461
1.0894
1.0856
1.08439
1.08675
1.09349
1.10521
1.11351
1.10788
1.10081
1.09365
1.08769
1.08409
1.08382
1.08765
1.09619
1.13389
1.12704
1.1181
1.10876
1.1004
1.0942
1.09113
1.09198
1.09739
1.16185
1.15395
1.14305
1.13131
1.12029
1.11123
1.10513
1.10282
1.10492
1.19567
1.18655
1.17337
1.15889
1.14489
1.13267
1.12325
1.11752
1.11622
1.23472
1.22364
1.20748
1.18975
1.17237
1.15663
1.14355
1.134
1.12885
1.27933
1.2645
1.24414
1.22248
1.20129
1.18171
1.16458
1.15074
1.14112
1.33105
1.30836
1.28205
1.25577
1.23045
1.2068
1.18533
1.16667
1.15182
1.39344
1.3534
1.31944
1.28837
1.25884
1.23118
1.20532
1.18134
1.15978
3.71226
3.79467
3.88317
3.97733
4.07692
4.18147
4.29062
4.40375
4.52049
4.64014
4.76224
4.88626
5.01152
5.13757
5.26361
5.38901
5.51305
5.63493
5.75383
5.86897
5.97937
6.08412
6.18222
6.27253
6.35422
6.42677
6.4901
6.54397
6.58793
6.62246
6.64831
6.66612
6.6767
6.68137
6.68167
6.67951
6.67706
6.67675
6.68133
6.69386
6.71755
6.75589
6.81213
6.88933
6.99006
7.11584
7.26674
7.44119
7.63483
7.84112
8.05071
8.25216
8.4332
8.58096
8.68446
8.73484
8.7271
8.65958
8.53695
3.67573
3.75896
3.84773
3.94186
4.0411
4.14511
4.25353
4.36594
4.48189
4.60088
4.7224
4.8459
4.97081
5.09651
5.22235
5.34764
5.47164
5.59357
5.71261
5.8279
5.93857
6.04371
6.14242
6.23377
6.31687
6.39093
6.45545
6.51021
6.55533
6.59125
6.61853
6.63777
6.64982
6.65582
6.65721
6.65577
6.6536
6.65308
6.65694
6.66818
6.69005
6.72593
6.77921
6.85305
6.95012
7.07214
7.21942
7.39042
7.58119
7.78524
7.99348
8.1947
8.37641
8.526
8.63199
8.6854
8.68068
8.61594
8.49484
3.61324
3.69341
3.7792
3.87048
3.96704
4.06858
4.17477
4.2852
4.39944
4.517
4.63736
4.75999
4.8843
5.00966
5.13541
5.26085
5.38522
5.50772
5.62752
5.74374
5.85548
5.96182
6.06181
6.15455
6.23916
6.31493
6.38136
6.4382
6.48545
6.52342
6.55257
6.57354
6.58716
6.59452
6.59699
6.59624
6.59428
6.59343
6.59634
6.60594
6.62546
6.65827
6.70781
6.77734
6.86964
6.98664
7.12896
7.29534
7.48225
7.68358
7.89063
8.09252
8.27696
8.43132
8.54404
8.6058
8.61061
8.55608
8.44538
3.51702
3.59365
3.67599
3.76395
3.85735
3.95595
4.05946
4.1675
4.27968
4.39552
4.51453
4.63616
4.75981
4.88487
5.01064
5.1364
5.26138
5.38475
5.50565
5.62317
5.73638
5.84434
5.94611
6.04076
6.12746
6.20551
6.27437
6.33377
6.38364
6.42418
6.45578
6.47904
6.49475
6.50395
6.50796
6.50837
6.50709
6.50638
6.50882
6.5173
6.53501
6.56534
6.61177
6.67766
6.76593
6.87876
7.017
7.17976
7.36391
7.56374
7.77092
7.97486
8.16338
8.32384
8.44445
8.51556
8.5307
8.48697
8.38705
3.39286
3.46549
3.54396
3.62823
3.7182
3.81365
3.91433
4.01992
4.13003
4.24421
4.36198
4.48278
4.60602
4.73105
4.85716
4.98361
5.10959
5.23425
5.35669
5.47598
5.59115
5.70125
5.80534
5.90248
5.99185
6.07277
6.1447
6.20731
6.26049
6.30434
6.33917
6.36552
6.38413
6.396
6.40237
6.40478
6.4051
6.4055
6.40854
6.41707
6.4343
6.46362
6.50859
6.57265
6.65891
6.76972
6.90622
7.06782
7.25171
7.4525
7.66216
7.87024
8.06464
8.23266
8.36226
8.44345
8.46931
8.4365
8.34723
3.24373
3.31186
3.38608
3.4664
3.55276
3.64498
3.74286
3.8461
3.95433
4.06713
4.18399
4.30437
4.42764
4.55314
4.68014
4.80785
4.93543
5.062
5.18662
5.30833
5.42616
5.53911
5.64624
5.74661
5.83942
5.92397
5.99974
6.06634
6.12363
6.17164
6.21062
6.24106
6.26366
6.27936
6.28937
6.29516
6.29855
6.30167
6.30706
6.31757
6.33639
6.367
6.41301
6.47801
6.56529
6.67739
6.81573
6.97997
7.16755
7.3733
7.58932
7.80518
8.00866
8.18684
8.32735
8.41979
8.45686
8.43488
8.3557
3.07357
3.13672
3.20632
3.28244
3.36508
3.4541
3.54934
3.65052
3.75728
3.8692
3.98576
4.10638
4.23043
4.35719
4.48589
4.61572
4.74579
4.87518
5.0029
5.12798
5.24939
5.36614
5.47729
5.58189
5.67914
5.76836
5.84899
5.92067
5.98319
6.03655
6.08099
6.11694
6.14509
6.16636
6.18189
6.19316
6.20191
6.21026
6.22075
6.23623
6.25993
6.29538
6.34635
6.4166
6.50964
6.62826
6.7741
6.94703
7.14465
7.36184
7.59059
7.82023
8.03813
8.2308
8.38537
8.49095
8.53985
8.52814
8.45758
2.88547
2.94295
3.00745
3.07911
3.15798
3.24397
3.33694
3.43662
3.54265
3.65459
3.77187
3.89385
4.01981
4.14898
4.28057
4.41373
4.54755
4.68104
4.81318
4.94289
5.06917
5.191
5.30747
5.41767
5.52073
5.61603
5.703
5.7813
5.85067
5.91113
5.96294
6.00652
6.04256
6.07199
6.0959
6.11586
6.13358
6.15107
6.17094
6.19607
6.22978
6.27575
6.33791
6.4204
6.52705
6.66088
6.82376
7.01557
7.23389
7.47347
7.72597
7.97999
8.22184
8.43689
8.61111
8.73279
8.7938
8.79026
8.72434
2.68404
2.73475
2.79339
2.86029
2.93553
3.01904
3.11056
3.20963
3.31614
3.42982
3.54963
3.67475
3.8043
3.93743
4.07345
4.21144
4.35067
4.49014
4.62841
4.7644
4.89718
5.02574
5.14931
5.26698
5.37774
5.48112
5.57653
5.6637
5.74236
5.81267
5.87502
5.9298
5.9775
6.01916
6.0559
6.08989
6.12281
6.15571
6.19182
6.23422
6.28657
6.35272
6.43672
6.54372
6.67834
6.84355
7.04135
7.27015
7.52718
7.80821
8.10533
8.40546
8.69168
8.94635
9.15277
9.29616
9.36708
9.36249
9.28698
1.47741
1.42219
1.37907
1.34067
1.30448
1.27012
1.2383
1.21046
1.18854
1.17513
1.17344
1.18673
1.21774
1.26852
1.34084
1.43726
1.56005
1.71023
1.88728
2.08984
2.31667
2.56715
2.84161
3.14199
3.47255
1.4051
1.39052
1.36356
1.33191
1.29855
1.26525
1.23364
1.2056
1.18333
1.1695
1.16712
1.17927
1.20889
1.2586
1.3308
1.42772
1.55097
1.70116
1.8778
2.07972
2.30575
2.55525
2.82877
3.12853
3.45936
1.38319
1.37105
1.3487
1.32027
1.28861
1.25593
1.22428
1.19579
1.17285
1.15815
1.15462
1.16534
1.19342
1.24182
1.31319
1.4096
1.53229
1.68146
1.85638
2.05579
2.27845
2.52356
2.7915
3.08416
3.40533
1.37327
1.3584
1.33604
1.30815
1.27681
1.24403
1.2119
1.18263
1.15867
1.14272
1.13769
1.14671
1.17299
1.21965
1.2894
1.38422
1.50503
1.65166
1.82307
2.01774
2.23426
2.4717
2.73028
3.01157
3.31892
1.36618
1.3486
1.32494
1.29635
1.26441
1.23088
1.19778
1.16731
1.14194
1.12435
1.11748
1.12448
1.14863
1.19308
1.26053
1.35277
1.47047
1.61309
1.77924
1.9671
2.17506
2.4021
2.64831
2.91521
3.20599
1.35934
1.33967
1.3146
1.28491
1.2519
1.21718
1.18269
1.15063
1.12346
1.10389
1.09486
1.09956
1.12127
1.16312
1.22767
1.31655
1.43009
1.56742
1.72677
1.90603
2.10336
2.31761
2.54882
2.79848
3.06979
1.35188
1.3309
1.30478
1.27401
1.23973
1.2035
1.16728
1.13328
1.10398
1.08211
1.07066
1.07283
1.09188
1.13082
1.19208
1.277
1.38562
1.51669
1.66808
1.83733
2.02232
2.22173
2.43551
2.66521
2.91417
1.34278
1.32211
1.29573
1.26408
1.22842
1.19044
1.15217
1.11593
1.08423
1.05984
1.04579
1.04531
1.06158
1.09748
1.15524
1.2359
1.33914
1.46336
1.60603
1.76435
1.93586
2.11893
2.31318
2.52006
2.74296
1.33274
1.31422
1.28833
1.25588
1.21865
1.17865
1.13806
1.09935
1.06512
1.0381
1.02141
1.0183
1.03185
1.06478
1.1191
1.19549
1.29331
1.41056
1.54434
1.69148
1.8492
2.01538
2.18883
2.37053
2.56257
0.493695
0.493758
0.40247
0.497319
1.07197
0.963458
4.20083
1.53147
0.379411
7.24744
0.254074
0.859717
2.41522
0.752854
4.89999
3.26405
0.300695
0.480311
10.0176
1.15625
3.57103
5.01396
0.287398
0.894193
0.788359
1.928
0.842543
1.01145
0.444203
0.287824
7.28763
2.3065
0.485308
2.64241
0.282758
1.76243
2.90121
4.90088
2.72144
1.44957
0.376969
0.171694
3.80248
1.21367
1.06589
6.13312
0.274309
0.299018
0.416209
0.51856
0.267735
0.357077
4.7466
0.468945
4.14805
0.38437
0.752023
4.50645
0.616255
0.316308
1.82558
0.415542
1.01682
4.24286
1.63215
1.26801
1.77907
0.329301
2.00522
0.481718
0.384898
5.42361
1.03285
1.34463
0.729421
3.72446
1.90341
0.319929
0.821237
0.448241
2.97699
1.98548
2.07109
0.238945
1.353
1.69425
1.29862
0.325225
0.482123
1.1192
1.02102
1.25399
7.73453
0.870261
0.980443
0.256777
1.87318
0.254264
0.422377
0.318
0.882962
0.384928
0.908583
5.76635
0.630391
1.07982
0.297466
3.26905
0.215978
0.290161
4.59088
0.604723
0.317606
5.81483
4.76816
0.419954
0.427643
1.53964
4.37826
0.392134
0.0803191
0.620085
0.869218
0.766339
0.476009
3.58616
0.361318
1.49251
0.879331
0.299833
1.92385
1.40213
0.473005
2.5577
1.13713
1.22478
1.04636
0.806661
2.16714
1.05706
6.19217
2.58503
0.31555
0.109561
0.436175
3.52343
0.511491
2.48811
3.19115
0.28194
2.48876
1.29331
0.511035
4.67735
0.655986
0.238782
0.78766
1.58326
2.41147
2.78189
3.98747
0.378672
3.58164
0.25895
5.80828
0.249106
0.811925
0.806089
4.03618
0.74617
0.716392
4.49069
0.340121
0.243216
1.62446
1.08817
3.73715
0.464817
0.37215
6.10104
3.67154
2.20101
4.79598
4.05498
1.31618
0.918067
0.252912
0.217405
0.517349
2.842
0.305098
0.317635
0.467782
2.47236
4.88457
0.513114
0.722054
4.91724
0.429849
0.46393
1.12091
4.91984
1.93651
2.81423
2.19758
4.46405
1.63577
0.891254
0.425465
1.75272
0.642393
0.791395
3.41835
2.1314
2.41873
0.361411
0.772128
1.47675
5.74925
1.11576
0.767227
0.204409
0.634065
0.438239
0.19552
0.409223
1.1365
0.30391
0.200173
1.03694
0.235056
1.85008
1.99411
1.13707
2.73477
6.15463
2.86661
0.880548
4.08152
4.87928
4.83764
1.7409
5.38045
1.21284
1.09697
1.64095
2.51999
1.11863
3.26686
4.30992
0.178652
1.12635
2.83021
0.427357
1.10479
0.789037
0.30654
2.03205
2.53138
9.88316
0.43994
0.891708
2.57107
0.660658
1.50073
0.732731
4.89554
0.524206
4.14322
0.843616
3.41007
0.469402
0.518802
1.32725
9.95436
0.524915
1.50108
0.354028
0.820877
0.321291
1.29803
2.46831
0.380922
6.11942
0.368078
2.32598
1.09553
0.311171
0.285437
0.303895
4.79417
3.7351
0.120583
0.286062
1.17948
0.369012
0.374906
1.36385
2.7037
0.345573
0.323776
4.14811
1.00577
2.86435
0.385467
5.39844
3.40511
2.29892
1.05103
2.12585
5.52546
6.84034
0.506168
0.88828
0.451474
2.18462
0.28625
2.73069
0.829717
1.38601
2.42492
3.15231
0.928177
7.35834
1.33106
0.769925
0.429385
3.3143
1.40412
4.3954
5.8781
4.90592
0.718052
6.94541
0.336285
1.73144
2.33733
2.24441
0.127652
0.406509
0.773279
0.86555
0.3292
6.94943
1.57209
0.741045
0.801811
1.13179
1.09866
0.260138
0.396524
7.5821
0.168052
2.60573
0.289844
0.174793
1.07647
1.19328
5.13634
0.26339
0.433017
0.274643
3.45837
0.412836
0.177461
1.15822
4.00672
0.2975
2.54719
0.519721
6.42495
4.59682
0.454875
0.388508
2.45522
0.618867
0.491273
6.70827
2.19933
6.18427
0.380992
4.14291
0.476298
1.20868
1.19316
1.12532
5.98273
1.18156
0.256501
0.304418
3.25273
4.53926
1.12629
0.459679
3.81014
8.66582
5.20311
0.484958
1.57604
0.445836
1.54484
3.88208
1.28637
0.514372
0.856036
0.107378
4.50823
1.12514
1.0322
4.77442
0.462281
2.49165
0.342827
2.10981
2.77744
0.162861
0.403299
0.260858
1.65927
1.27299
5.91822
2.31425
1.11099
0.925593
4.20274
0.316894
0.0980783
1.01207
2.88382
2.46029
2.74745
0.786622
1.11735
0.820071
4.62493
3.91314
4.67033
0.0919938
1.22256
0.457029
3.09387
4.86234
0.295768
1.0993
1.80024
0.496138
0.924961
0.458636
0.653081
0.827303
0.39016
3.85861
3.46885
0.352361
6.88865
0.484478
0.258379
1.87182
0.990119
1.7708
3.86114
1.32188
0.462671
3.37908
0.321224
1.27394
0.644097
0.430815
3.19553
0.261132
1.13358
1.11498
0.275413
0.405148
0.803219
2.5352
1.12289
0.877685
2.63147
2.7698
2.57904
3.27812
0.133772
0.860112
0.237646
1.18622
2.20715
5.37945
0.473725
5.87849
4.77428
3.47581
0.513572
0.461206
2.48075
0.608817
4.76557
2.44099
6.85089
0.518335
3.94109
4.69672
2.34566
1.13307
3.74605
2.84615
2.74591
2.86824
4.47006
2.32349
5.18516
3.13331
1.64177
1.1344
0.790356
0.297043
0.398907
0.396586
0.58122
2.79612
8.02741
0.304833
1.14059
0.541913
2.3754
5.75918
0.317561
0.408891
4.14751
4.76186
1.08508
5.95635
0.531121
0.417145
0.386615
0.98517
3.87844
0.371181
0.429988
3.58654
1.38052
0.292799
4.96134
0.307481
0.211527
0.446698
2.95589
0.719826
2.50093
0.345574
3.10117
3.59268
0.899286
0.430558
0.401772
0.292316
0.639541
7.12228
3.30144
0.420294
2.5722
2.8811
3.95722
2.53329
0.28462
8.39021
2.848
0.657801
2.41528
0.371525
0.497326
5.73187
4.61324
0.629746
0.908793
0.319607
0.268013
0.422483
0.762304
0.360375
1.143
4.8979
4.83168
7.907
1.5723
0.483262
4.97612
0.925057
1.16234
4.87582
0.983371
1.41664
4.19978
4.36681
6.83008
0.623957
2.61964
0.393736
1.12556
2.34067
0.329962
1.01718
0.208355
0.978565
1.53888
1.17381
2.27772
3.32619
0.279616
3.60704
4.04982
3.03779
1.67538
3.98478
1.01826
4.39217
1.20017
0.825226
0.458969
4.61396
1.26786
3.10656
7.21418
1.50084
0.823009
0.319432
0.27429
0.979346
0.487063
0.775854
0.801445
1.03944
0.468217
3.57575
0.376922
3.93002
1.11909
0.608627
1.2113
4.11581
2.82772
0.763082
1.25552
4.81775
0.992493
1.90629
0.941857
1.00731
0.321127
4.46063
2.67646
0.337764
7.61014
0.147753
5.78617
3.7535
0.269412
9.98346
2.69734
3.25896
0.413708
0.409302
0.249085
0.096358
1.10754
1.41748
0.405306
0.450214
1.22917
4.85137
0.809568
9.52568
1.24146
0.322645
0.164302
2.6583
3.08566
1.74325
6.37722
5.08158
0.500345
4.49718
0.877987
2.12681
4.61271
0.8073
6.58828
0.440371
0.31983
2.4221
4.62007
1.50277
0.26113
1.6524
7.05319
4.28403
1.61672
1.03386
2.31855
5.36969
0.609272
0.387877
1.26168
5.45959
5.80436
0.308411
4.65263
2.17909
0.304266
4.90104
0.479687
0.280907
10.0392
0.83333
1.23586
0.118426
3.31292
1.2842
3.26894
1.81581
2.99107
8.60036
3.69191
0.96918
4.05608
2.23272
1.65387
2.03643
3.32205
0.392684
9.32788
0.375388
3.80105
0.461309
2.71263
0.397344
0.282747
0.531345
1.23593
3.08296
0.120391
0.445888
3.30646
1.02187
0.501345
7.32671
2.19209
1.07598
1.16824
1.64927
2.29751
0.268882
0.467707
2.23877
4.06381
4.35735
4.40435
0.394351
0.0540702
4.13508
1.03982
0.160292
0.500944
1.02268
0.281689
4.51872
0.763977
4.52505
0.303087
0.144318
1.25479
0.989109
0.834564
2.59669
3.70143
0.281332
3.03838
0.969608
4.09139
3.15259
0.265422
1.4413
0.327799
4.86175
5.12977
0.377675
4.39353
1.14009
1.35524
7.7865
6.41204
3.12509
2.28985
0.18396
5.88233
0.263345
0.476818
2.76594
2.13918
2.81664
1.14688
3.57137
0.481324
3.11186
0.9794
6.78288
0.286405
0.341392
1.45326
1.04292
0.513679
0.398543
1.88981
1.57327
0.514702
1.02321
0.442699
0.456294
5.95962
1.88076
0.362775
0.473633
0.481216
5.68085
2.58264
0.40217
2.87705
3.12478
4.14785
1.20917
0.612682
2.83001
0.639798
0.655136
0.503777
9.45325
2.96853
0.522214
9.03253
3.7481
0.529702
3.04279
2.426
0.576369
1.07748
5.37335
7.20927
6.62543
1.17501
3.62654
0.32987
1.74368
3.70189
3.20662
4.72961
1.09711
0.43571
0.339469
1.41595
4.93098
0.109959
0.749357
0.622562
0.234199
1.94938
1.49254
3.59816
0.0973574
4.38732
3.00226
0.5451
0.528972
2.49563
0.321409
0.30969
0.27054
8.8629
0.493528
4.41092
6.57037
4.2159
1.89598
0.615597
1.63274
2.3387
1.11344
2.57439
0.472334
0.431349
0.506952
0.508203
0.946082
2.85745
4.23117
0.477184
1.05887
7.64136
0.98592
0.302934
0.281051
1.28913
3.99629
0.518489
1.55179
0.963675
3.09538
0.380119
1.84622
0.231892
1.37297
0.457511
3.68829
3.73612
0.478961
0.10834
0.654788
7.5561
0.347748
1.00616
0.391136
0.425995
5.32824
1.06133
2.70483
1.10058
0.500184
4.46606
3.6108
2.66733
2.48536
0.35682
2.96405
0.263541
0.25897
0.354743
6.32624
3.00204
8.46105
1.65472
1.39797
0.41088
0.422267
0.990232
3.3104
2.14179
0.90601
4.80257
3.2263
1.22473
2.32384
0.419515
0.55646
0.328845
4.73475
3.11711
4.57041
1.84865
0.421533
1.41537
0.843523
3.09338
4.60083
0.627567
1.07795
2.60365
5.55585
0.599014
1.1661
3.9966
1.43472
0.902234
0.36143
1.14922
0.413988
3.70391
0.852179
3.31272
0.50035
0.436226
0.924364
0.695297
0.333625
3.47151
0.603784
1.48881
0.829782
0.424549
5.73225
0.272988
0.617073
3.98703
4.15618
0.438379
0.616537
2.74712
2.20871
0.285547
3.38725
0.347743
3.9525
0.526131
0.29463
0.680288
0.265041
2.54306
0.436379
1.41928
1.36872
1.48741
3.84538
4.91868
0.355706
7.66852
1.54826
2.67655
7.3544
0.589721
0.512446
3.72874
0.302113
4.03798
3.19563
4.22354
1.12152
0.269639
0.347506
6.93038
1.64798
0.142929
4.49179
0.655405
0.417477
0.153476
1.20689
2.33102
1.08679
3.15686
0.35149
5.75591
8.00335
1.19113
4.38536
1.81981
0.235077
0.306906
0.46832
2.62335
2.01791
4.82339
0.431676
1.04004
1.86585
3.22211
0.475271
0.27154
0.265962
2.16539
2.32007
1.02475
0.401128
5.29885
0.450538
1.12442
0.434953
0.464481
0.795063
1.34183
0.805847
7.58115
7.67432
0.188568
0.484157
9.72418
0.507928
2.41352
2.01794
1.45606
5.38021
4.44221
0.664733
1.19874
3.80189
1.25015
4.18955
0.435308
0.244595
3.37482
1.48443
5.63387
0.249747
0.434186
1.05041
0.322302
1.80881
8.56625
4.07792
2.17604
2.17512
4.9133
3.04433
1.21476
0.189181
0.674315
3.95321
0.493263
2.66845
8.53635
1.00921
4.04488
0.416891
0.397546
5.06895
8.44242
2.26558
2.17059
0.590467
0.451969
0.466456
0.367267
7.05388
0.725684
1.15961
0.506702
0.831555
0.40929
0.495665
0.361272
0.1317
2.16452
0.78913
6.29545
0.294966
4.55016
2.83333
3.39747
2.2733
6.65131
1.58603
4.23872
1.52902
0.292855
0.4632
0.409613
0.496385
1.06698
0.520641
2.39441
0.39542
4.14143
1.81118
0.470516
0.316932
0.98168
3.93143
2.1821
0.444859
0.445655
0.745089
1.06963
4.8345
0.687094
0.935257
0.298107
0.264912
0.318969
0.298212
0.257404
0.766419
1.25239
1.0098
0.45641
1.05785
3.01176
0.476994
6.56061
0.557169
2.10897
4.13749
0.402896
3.42657
1.14517
0.748587
3.21606
1.53258
1.07873
8.09086
0.773959
1.11148
0.440661
6.96661
0.810039
0.32565
3.03899
1.06569
0.908671
0.531033
0.830249
0.244155
4.24408
3.71854
0.530736
0.374363
1.51183
3.38023
4.84619
5.20849
2.09443
6.49628
4.56644
2.31043
2.52156
7.8323
4.88215
0.519962
1.48205
0.445857
0.337982
1.81649
1.63928
2.82534
0.963676
5.22429
0.505895
0.268116
6.49976
0.729914
0.858622
5.68209
3.03682
0.711955
0.84951
3.14376
0.387037
1.54519
5.23032
5.99478
6.31121
3.50773
2.66467
0.459278
6.08097
0.979203
0.511424
1.87636
0.109078
2.54039
0.458397
1.10461
0.487553
1.07234
1.60567
0.391635
0.324293
0.332397
0.388554
5.63158
0.368255
0.331142
9.23045
2.19352
4.71449
0.31239
3.09445
1.03288
4.09864
4.05077
0.478175
0.213016
0.386424
5.18048
1.11511
8.29855
0.396864
2.25604
0.625711
2.83083
1.35263
0.545409
1.56051
1.00004
3.50036
0.418546
0.433531
5.10841
0.992139
3.8844
1.13391
4.56961
4.94205
5.14601
3.81234
0.251423
7.49766
1.16343
0.771571
0.513392
1.31798
1.10106
0.388706
7.94297
3.88097
0.242152
6.72062
1.30764
3.87405
3.56811
3.8929
0.967776
0.308084
0.828197
3.91802
0.340314
2.4056
5.20522
1.14007
4.57141
3.13182
0.11183
2.94709
0.483615
2.01077
0.487168
0.854453
2.78546
2.06825
4.44648
0.824244
1.66911
6.24665
4.05087
0.183214
0.652019
5.27991
6.20828
0.514683
0.432356
1.10086
6.59292
1.25884
1.70875
0.318492
2.12688
0.940203
1.04742
0.466107
0.974936
1.51642
1.5946
1.45535
4.13766
0.392112
2.12633
1.11634
4.99986
0.283123
1.49846
2.74563
0.950008
1.11683
0.45928
0.298982
0.460956
0.65091
0.254226
5.44324
4.3897
2.31636
1.19546
0.439188
0.792163
1.33809
4.66027
5.04462
3.95582
0.392158
0.364643
7.55782
5.56714
0.258525
5.35056
0.844199
0.526618
0.366547
0.325957
1.67164
0.442103
5.55607
1.403
1.83162
0.800161
0.443971
0.557396
1.93781
0.63893
1.34908
2.11786
1.52674
1.86743
1.91687
0.430412
0.404129
8.68434
1.01
2.60932
0.382978
2.94394
0.412079
0.504099
0.31871
5.76501
1.61729
1.93141
5.91556
6.25472
1.83922
9.78899
0.457051
0.44331
6.34662
1.01592
1.00034
0.795423
0.468336
0.296039
1.56708
0.773755
1.66121
1.00377
2.82096
0.748098
0.432397
1.27188
6.89017
0.754478
4.80854
1.23039
4.87906
1.28633
7.22717
1.34844
1.11535
3.93444
6.20605
0.406325
3.29885
3.88266
0.461607
0.715951
2.70664
0.410256
0.470173
3.28462
0.439546
8.32063
2.68235
5.60293
5.28439
2.17749
1.39059
0.382837
1.30726
4.64265
0.487666
0.456257
4.22849
6.71664
3.82492
5.34158
4.48731
0.190402
3.40337
0.466459
1.95877
8.73174
5.43528
0.493672
2.31688
0.420189
0.473287
0.347645
0.501213
5.1698
0.584538
0.413567
0.251287
9.76686
0.0211021
4.56241
0.812336
5.23153
0.693561
4.77738
0.298818
0.782446
1.19495
0.355888
7.27231
0.391526
1.19174
4.95098
3.3025
0.321219
7.26606
2.55818
7.00599
3.62323
5.64554
2.36421
0.447799
0.375817
5.03726
7.19922
0.398054
4.56373
4.75249
0.8104
1.16243
2.0141
1.35034
1.06671
7.73717
3.04949
1.1583
0.013006
0.676258
5.98097
0.327847
4.46151
1.39758
1.02358
0.931452
2.69754
0.314551
1.41528
0.333869
0.146097
0.114427
4.25545
5.80378
5.12449
0.417879
3.40855
0.506308
0.432314
3.97168
5.90997
0.274847
0.984896
0.364509
0.83035
1.33234
0.479311
1.11272
2.86684
3.99354
1.61868
0.802149
5.73856
4.83005
0.878954
6.65068
0.501556
1.23669
0.45139
0.805237
0.419031
4.81348
2.67186
0.781757
8.07331
4.14965
0.322402
3.04011
1.04013
0.513426
3.45711
0.21083
1.07082
2.85622
0.379722
2.79602
0.337175
2.91697
0.596099
0.859778
0.452086
0.89492
0.487632
3.2864
3.54965
0.919031
0.385082
3.35249
1.05692
0.976971
4.32511
0.765972
2.77584
0.596508
6.66896
2.53926
0.335763
1.39191
1.72605
0.441382
0.732241
3.35878
0.329924
6.98905
0.249884
3.72346
2.52849
4.64419
0.710234
3.39428
6.52717
0.367189
1.17345
1.42865
0.76023
0.491832
0.478745
3.30021
2.66033
2.29663
1.21675
2.42717
1.88601
5.23365
3.48393
4.95581
0.533019
0.90593
0.479041
4.92368
1.83693
0.17274
5.23622
0.290578
3.81625
0.33279
4.65745
0.796535
1.08864
0.249617
1.26579
3.31837
1.43246
0.975301
0.719008
4.82415
2.82341
1.08358
0.477855
2.72482
2.2493
0.505888
1.86046
1.50747
0.425161
0.826166
1.84699
5.27922
5.72259
0.489618
3.98076
0.467902
1.08803
0.752366
5.26613
3.68549
0.320916
0.393377
0.984567
3.2254
1.1827
3.54611
1.28462
0.712983
0.344378
3.225
2.00623
3.05062
4.31808
0.652374
0.451608
0.79679
5.09766
2.06353
1.38053
0.398366
7.07955
4.72189
0.15321
0.753351
0.752211
1.60186
0.360307
2.42485
1.52791
0.400481
3.06865
1.21493
1.53972
3.28497
4.04459
0.432335
0.379808
0.627022
1.46641
6.5763
9.52558
0.325388
0.383004
0.70909
0.142483
3.86646
4.47442
4.52462
1.05569
0.372354
2.35722
0.151482
1.05989
1.4559
0.517119
7.05211
5.42211
1.31163
0.501853
3.25657
1.35836
0.952458
6.7343
1.89358
0.937332
4.22973
3.35558
3.00903
6.19373
6.43513
3.31723
0.360911
4.47127
2.26982
3.38545
1.74653
1.03017
0.20337
0.456686
1.60364
0.752983
1.29166
0.303559
1.49423
2.72928
0.236331
8.6148
0.116543
4.63809
7.19715
0.319825
5.23899
0.96839
0.229091
3.74257
3.58537
2.59652
3.88942
0.488432
0.486996
1.20955
0.388387
4.86901
3.00845
0.0190235
0.519443
1.44155
1.00454
3.1042
0.391344
1.18768
4.27948
0.253963
0.289842
1.03381
0.433666
0.496692
0.729932
0.588978
0.374019
0.819123
0.689208
1.98481
0.240889
0.485748
5.64046
0.423424
0.766617
4.52578
1.69934
2.66827
0.902662
4.94358
4.36327
1.23826
6.45696
0.490112
5.1335
0.507695
3.24941
8.37331
0.303726
2.91862
0.967542
1.1041
0.329245
6.38362
5.11132
0.389393
5.06941
0.426368
4.3673
3.63475
1.22246
1.36424
0.272076
5.1572
2.9347
1.26675
5.11006
1.13376
0.486258
1.23565
3.10824
0.915256
0.607689
0.365943
0.814335
0.880336
2.75752
0.75861
1.22639
1.11954
1.02588
0.474539
3.44993
3.67629
3.49735
4.23571
0.83047
3.50207
1.49742
0.583976
6.54517
6.29769
0.946524
0.733603
4.00526
3.54849
0.0425453
4.67049
6.96119
2.92782
2.70057
2.44944
3.51459
0.969815
1.1928
4.78997
4.37575
0.381467
0.482848
0.385143
1.84445
0.0850787
1.13884
4.54615
1.47741
4.33976
0.328276
7.16873
0.244269
2.4193
0.236001
1.33835
1.33333
2.96955
4.25166
0.516457
3.34983
0.448224
0.482128
0.380421
0.729163
0.260878
3.87607
2.59864
0.830187
0.215151
4.83711
3.56043
3.03004
2.14236
1.20195
0.58864
0.254912
3.89512
3.18655
6.64408
3.56371
5.87536
0.42427
0.100524
0.30933
3.38639
3.08285
0.882114
1.14273
0.331038
1.06171
0.26164
5.11077
0.530474
2.04966
1.11012
0.814708
4.96344
0.351249
0.639302
3.05651
3.09822
0.363576
2.37538
1.00847
0.822686
3.51386
0.888884
0.913216
4.1117
2.70551
6.54154
1.09341
4.65138
0.457085
1.25201
1.80833
1.71382
7.52635
0.279286
0.673525
2.29675
1.5343
4.54165
1.27914
0.380077
4.96548
3.14348
7.05259
2.86424
0.364768
0.335742
0.478177
0.342304
0.51764
0.764014
0.765626
0.656946
2.90691
4.90054
1.48819
3.13384
1.0445
0.265795
5.2221
4.44715
0.419088
0.324865
0.605899
3.72087
1.06591
0.482442
0.361615
0.764335
0.74736
1.63664
7.53252
1.63819
4.69645
1.16352
0.0652286
3.37028
0.973285
1.07639
1.23191
4.30602
6.71811
2.88277
0.428022
1.08768
4.03419
1.79216
1.94718
1.99911
0.380793
2.50514
0.428515
3.16205
3.38406
5.03076
0.365019
1.08363
3.04692
3.35926
0.362746
0.992369
0.874883
4.62474
0.134651
0.472227
0.727676
0.518508
3.05958
6.56859
0.379438
3.93942
3.06053
0.256854
2.56744
4.44038
4.16677
0.851983
4.95198
8.15695
0.246633
8.7578
3.73132
3.05701
0.289681
4.26802
6.75923
4.35421
1.53865
7.95809
2.608
0.847447
3.62169
6.3114
0.416065
4.88374
0.788591
3.72676
0.440813
2.95734
0.312021
0.449885
9.68811
0.479709
3.93767
3.03079
1.35092
0.869439
0.460655
0.740942
2.14668
0.262588
0.259319
4.1962
0.83662
1.30503
0.40445
0.826555
0.250903
1.3053
5.30876
1.29362
1.72708
1.33743
1.92015
0.501417
5.20119
1.09617
0.325009
0.418384
2.86703
0.818235
0.782147
0.298929
2.04555
0.861245
0.788555
4.81551
1.39266
1.39065
4.29784
0.395408
3.70171
0.775702
1.79669
0.332211
0.437013
0.494516
0.507862
0.32454
1.72892
0.0951787
4.5336
0.37371
2.56093
0.376282
1.3142
1.44102
0.771143
8.44999
4.00759
4.53931
3.1359
3.05641
0.757296
0.360728
0.339758
1.03592
1.30488
0.247233
1.12228
1.19348
1.14267
7.62236
0.580869
0.649786
4.5482
6.7972
1.18635
0.924392
0.853536
0.811196
0.405563
3.36373
0.445313
0.463294
0.486258
0.488057
1.08603
8.12021
0.316282
0.222041
2.93418
2.0221
6.88739
0.871129
3.69133
0.346235
0.359672
1.28373
6.18806
4.15092