/*--------------------------------*- C++ -*----------------------------------*\
  =========                 |
  \\      /  F ield         | OpenFOAM: The Open Source CFD Toolbox
   \\    /   O peration     | Website:  https://openfoam.org
    \\  /    A nd           | Version:  10
     \\/     M anipulation  |
\*---------------------------------------------------------------------------*/
FoamFile
{
    format      ascii;
    class       volScalarField;
    location    "1450";
    object      p;
}
// * * * * * * * * * * * * * * * * * * * * * * * * * * * * * * * * * * * * * //

dimensions      [0 2 -2 0 0 0 0];

internalField   nonuniform List<scalar> 
10435
(
-0.000333693
-1.70845
-12.5068
-3.51838
-9.23171
-12.8372
-12.5622
-12.5932
-12.6723
-12.0397
-3.78503
-7.82993
-12.0029
1.71537
1.65237
-12.1871
1.70159
-11.9367
-12.7298
-0.479098
-12.6721
-3.25914
-12.1334
-10.0584
-12.4335
1.34215
1.2855
-12.2261
0.714286
-12.5798
-11.4119
-4.87576
-12.9021
1.237
-11.6931
0.573884
-11.5585
0.0414777
1.80807
-11.2925
-13.2814
-12.3564
2.0483
-1.85522
-11.4598
-11.1989
-12.6251
1.64448
-12.7785
-3.40816
-12.5453
-11.6716
1.37228
0.477143
2.11925
0.423161
-11.0284
0.934786
1.43348
-11.2618
1.51671
-0.829545
1.13786
-10.8683
-11.888
-12.3917
1.33778
1.28725
-12.8093
-9.3462
1.17097
0.726387
2.41509
-12.1436
1.47609
2.16457
-8.02354
-12.7305
-13.1496
1.44722
-5.29582
0.306293
1.52534
0.896236
-6.28414
0.929516
0.454668
-2.05539
1.47914
-0.0428818
-2.92794
-3.89845
-0.118597
1.14635
-0.626688
1.07654
-4.9864
1.73152
1.8453
-6.45993
1.24824
-11.0462
0.853432
-1.2963
-11.5943
-2.64881
-0.59938
-4.29603
-7.47637
1.26599
-2.58312
-10.0763
0.690549
0.961784
-5.32777
-2.42571
-7.18497
0.49268
-2.37388
-6.52951
-7.59595
2.34672
-0.0657833
1.9901
-6.72966
1.4379
-5.72252
2.29294
-8.24558
0.286702
2.23295
-5.43044
-12.2492
1.58206
0.883035
2.28768
1.43
-4.39727
-1.50174
-1.687
-1.04504
-11.4965
1.53945
-9.89492
-4.1204
2.00125
1.85322
-11.6879
1.857
-9.66228
1.54188
-11.0121
-0.031098
-10.1349
-12.1472
1.4915
-7.9687
-0.728779
-12.2256
-2.96092
-10.6575
1.66448
-4.44928
-6.92867
1.37105
-8.94947
-12.6403
-6.1608
-8.86745
-10.1696
-11.9625
1.78342
0.179003
1.84222
-9.31641
-1.80044
-0.0680196
1.64384
-1.81599
1.19672
-2.69579
-12.2459
-8.8343
1.32996
-11.1884
2.1282
1.75592
-12.642
-10.2666
-10.839
-8.0325
1.64165
1.28773
0.859472
-9.10594
-12.74
2.06613
1.26479
1.71703
-11.9564
1.56975
1.84529
-12.1479
1.16389
-12.3405
-6.58774
-3.39436
-5.26562
0.942698
-5.04676
1.90797
-12.3748
-8.86596
-7.68665
1.5268
1.84013
1.01879
1.7735
-0.246026
1.68976
1.07538
1.43267
1.55167
1.81814
1.16588
-12.1225
0.0271947
1.50286
-11.4401
2.03433
1.56654
-12.3348
-0.049854
-10.5725
0.268777
1.71902
-10.7985
0.500921
-9.84558
-11.8838
-1.17014
1.47213
1.77934
0.45991
-5.73963
-12.9942
1.49429
-12.9172
-1.67273
-0.77608
-1.92585
1.07664
-12.4345
-5.98218
-13.0183
-9.81939
-2.84463
-13.0198
1.46868
1.28251
-12.7948
-11.9679
0.877188
-7.97282
0.780471
1.85968
-0.562295
-11.9093
1.82276
-7.37204
-12.6673
-13.8467
-13.427
-11.8603
-0.516473
-7.27541
1.16762
-8.28489
-12.4734
-13.8482
-12.6308
1.74153
-12.5634
1.41958
0.813731
1.97023
-10.8557
0.307355
0.99676
0.862057
1.89664
-4.18854
0.777294
-13.6404
0.608891
-2.9444
1.9765
0.418184
-7.16108
-12.0611
1.53132
-9.05662
-12.4362
-2.06245
-6.13201
1.77426
2.03657
-9.97879
-12.1796
1.05975
-1.1768
0.845801
0.0980659
-11.4208
-11.9922
-3.26388
1.79377
-10.8286
1.42092
-7.00772
-12.316
0.180492
0.429681
1.83966
-13.5984
-12.3501
-1.15108
-12.2829
1.56516
0.864162
-12.0361
0.893111
1.08927
-12.4865
-9.9599
1.04565
0.907687
-0.20926
1.42235
-0.0254548
-1.86431
1.40938
1.70488
-1.83269
-2.69675
0.877785
1.15105
2.08103
1.95469
-13.2349
1.24406
-12.5588
-1.95334
-12.1623
-14.2476
-14.2951
-12.0323
-11.9973
0.472121
1.14102
-0.0751079
1.76041
0.187456
1.52513
0.42465
-2.26298
0.974721
-8.57487
1.2194
-13.1397
1.69357
-2.67623
-11.6364
-14.6436
1.91889
-3.76871
0.26493
0.729928
1.07965
1.05683
-5.15462
0.576534
-13.436
1.30099
-13.0617
-14.1745
-12.0133
-11.9106
-14.3845
-12.2579
-11.9191
2.05545
1.74719
0.831047
1.47046
-12.5388
0.915355
-12.4132
-3.18971
0.798207
-4.26279
1.5862
1.3166
-12.5581
-0.0423796
-13.1737
-9.62969
1.89581
1.03195
-1.78695
-11.9497
-1.93025
1.23329
0.939099
0.269397
1.60828
1.0957
-12.3923
-1.53674
0.508772
0.697279
1.76119
-12.547
2.00576
2.21762
-12.992
1.39253
21.5285
9.64414
13.1282
10.2572
11.1317
10.1377
10.1452
9.78463
8.75797
18.1392
8.15936
10.9137
8.99583
9.54278
8.92617
8.9018
8.61853
8.38197
14.8438
6.65263
9.12668
7.89813
8.25734
7.87968
7.83255
7.62112
7.3711
12.1977
5.60823
7.6156
6.85785
7.12189
6.91412
6.88551
6.75695
6.566
9.77904
4.88402
6.37956
5.96299
6.16628
6.07356
6.07613
6.02763
5.8893
7.62453
4.42614
5.40712
5.24083
5.39567
5.37786
5.40449
5.40262
5.34691
5.89
4.28658
4.69463
4.69203
4.80185
4.83131
4.87687
4.91125
4.91773
4.62311
4.30168
4.18888
4.28528
4.35858
4.41643
4.47412
4.53342
4.50334
3.72772
4.14626
3.79429
3.97294
4.03153
4.10791
4.17325
4.23834
4.27828
3.07475
3.77802
3.47635
3.72885
3.79193
3.88077
3.9521
4.02304
4.0692
2.62904
3.41807
3.25988
3.54929
3.62007
3.71309
3.78696
3.85924
3.93312
2.463
3.2624
3.17222
3.43263
3.49899
3.58439
3.65231
3.71326
3.8245
2.4998
3.27928
3.18107
3.36152
3.4118
3.48279
3.54363
3.60732
3.67311
2.52003
3.33591
3.21217
3.30675
3.33852
3.39302
3.44583
3.50767
3.54909
2.51329
3.37659
3.23143
3.24981
3.26596
3.30583
3.3523
3.40835
3.46096
2.50903
3.36035
3.21629
3.17723
3.18436
3.2138
3.25555
3.30513
3.36783
2.41243
3.20903
3.1302
3.07553
3.08618
3.11217
3.15188
3.19445
3.27933
2.25244
2.94247
2.98107
2.94674
2.97175
3.00188
3.04467
3.09088
3.17249
2.13419
2.67762
2.81293
2.80522
2.8454
2.88121
2.92533
2.97274
3.02947
2.0557
2.46603
2.64606
2.66145
2.71297
2.75487
2.80071
2.85022
2.90905
1.94028
2.29779
2.48092
2.52025
2.57815
2.62538
2.67281
2.72778
2.76709
1.74371
2.1854
2.3177
2.38296
2.44081
2.49069
2.53755
2.59647
2.56561
1.4157
2.17222
2.17277
2.26435
2.31702
2.36588
2.41081
2.46574
2.41416
1.01437
2.20321
1.96766
2.08038
2.13237
2.18834
2.2524
2.32565
2.25592
0.889778
2.51714
2.14689
2.24355
2.25843
2.2389
2.27053
2.33704
1.78721
12.92
13.1245
13.5811
14.1177
14.7121
15.373
16.0863
16.8511
17.6584
18.4933
19.3453
20.2012
21.0401
21.8543
22.6294
23.3459
23.9976
24.5715
25.0554
25.4452
25.7563
26.0891
26.3668
26.3013
25.9679
25.7853
26.0382
26.6517
27.2779
27.8445
28.4784
28.9922
29.2016
29.235
29.1852
29.0504
28.8379
28.5894
28.3141
28.0448
27.7964
27.5829
27.4061
27.2745
27.1877
27.1207
27.0716
27.0252
26.9457
26.8308
26.6626
26.4231
26.135
25.7958
25.3848
24.9454
24.4692
23.9659
23.656
2.96942
2.67767
2.51177
2.35478
2.2063
2.03959
1.86989
1.7289
1.62233
1.55266
1.52298
1.53498
1.58879
1.68342
1.81776
1.99094
2.20254
2.45523
2.75516
3.11212
3.54142
4.06667
4.68846
5.42911
6.20219
6.73067
6.86691
6.58685
6.0061
5.43238
5.01905
4.72784
4.50694
4.33595
4.20571
4.10074
4.01262
3.93804
3.87409
3.81918
3.7717
3.73039
3.69609
3.6707
3.65816
3.66642
3.70418
3.78194
3.91085
4.10107
4.35975
4.65373
5.00867
5.4738
5.99647
6.53569
7.07864
7.62472
8.35256
7.08079
7.27576
7.44672
7.644
7.85738
8.0864
8.33215
8.59462
8.87281
9.16471
9.46905
9.7834
10.1058
10.4331
10.7635
11.0951
11.4264
11.7571
12.0883
12.4212
12.7575
13.0975
13.4317
13.7392
13.9981
14.1863
14.3146
14.378
14.3552
14.2883
14.2184
14.1466
14.0662
13.9835
13.9027
13.8258
13.7546
13.6918
13.6399
13.6011
13.5778
13.5713
13.584
13.6165
13.6702
13.7456
13.8425
13.9583
14.0912
14.2367
14.3832
14.502
14.5951
14.6808
14.7446
14.7739
14.7678
14.7553
14.663
4.106
4.02164
4.00864
4.00593
4.01506
4.03919
4.07915
4.13715
4.21505
4.31468
4.43798
4.58646
4.76079
4.96168
5.1886
5.44066
5.71634
6.01313
6.32872
6.65941
7.00104
7.34726
7.68869
8.012
8.29839
8.52589
8.68012
8.75696
8.76291
8.7182
8.64147
8.54208
8.42533
8.29542
8.15483
8.00604
7.85105
7.69267
7.53504
7.38263
7.24117
7.11646
7.01568
6.94538
6.91293
6.92399
6.98322
7.09317
7.25375
7.45772
7.70402
8.00415
8.3177
8.61697
8.92494
9.23467
9.52587
9.81452
10.1505
5.30961
5.40523
5.50978
5.63115
5.76483
5.91002
6.06572
6.23143
6.40637
6.58954
6.78056
6.97889
7.18359
7.3947
7.61135
7.83315
8.05953
8.28914
8.52145
8.75481
8.98705
9.2147
9.43289
9.63614
9.81684
9.96949
10.0892
10.1748
10.2265
10.2488
10.2481
10.2276
10.1919
10.1454
10.0901
10.031
9.97053
9.91054
9.85713
9.8136
9.78398
9.7722
9.78223
9.81726
9.88054
9.9729
10.0948
10.2446
10.4177
10.6066
10.8114
11.0417
11.266
11.4488
11.6039
11.7371
11.8428
11.9476
12.0007
4.27161
4.25214
4.27522
4.31253
4.36289
4.42814
4.50905
4.60599
4.71958
4.8495
4.99706
5.1619
5.34414
5.5431
5.75746
5.9856
6.22556
6.47208
6.72533
6.98166
7.23808
7.48835
7.72699
7.95043
8.14727
8.31709
8.45193
8.55393
8.62166
8.65669
8.66469
8.64357
8.60037
8.54032
8.46013
8.37101
8.27187
8.1582
8.04651
7.93848
7.84068
7.759
7.69938
7.66794
7.67165
7.71012
7.78898
7.90586
8.06016
8.24841
8.46535
8.70346
8.95425
9.20579
9.45137
9.68469
9.90037
10.117
10.3381
4.50599
4.54135
4.59993
4.67475
4.7619
4.86183
4.97267
5.09592
5.2306
5.37393
5.52727
5.68909
5.86102
6.04104
6.22739
6.42003
6.62183
6.81878
7.02164
7.22331
7.42723
7.62324
7.80873
7.99095
8.1436
8.2857
8.39721
8.49271
8.56494
8.61127
8.64561
8.64703
8.63258
8.61363
8.56557
8.52472
8.47921
8.40318
8.35068
8.30132
8.26431
8.24295
8.24047
8.26186
8.31985
8.39793
8.51511
8.65771
8.82876
9.02258
9.2322
9.45001
9.66497
9.87321
10.0655
10.2344
10.3803
10.5257
10.645
4.23613
4.21391
4.22124
4.25229
4.28961
4.35236
4.41839
4.52106
4.63379
4.72836
4.86526
5.00618
5.16974
5.35296
5.54051
5.75226
5.98145
6.1467
6.34278
6.5463
6.77052
6.97388
7.15639
7.3702
7.50231
7.65534
7.74593
7.84324
7.91663
7.96227
8.01852
8.00323
7.98689
7.99447
7.90804
7.89994
7.91721
7.75129
7.66225
7.57327
7.50162
7.44343
7.40111
7.38217
7.46798
7.50352
7.64422
7.76005
7.87957
8.04251
8.25155
8.50198
8.73352
8.9668
9.20713
9.44879
9.66824
9.91731
10.108
4.06835
4.11743
4.14115
4.21938
4.29091
4.39419
4.46877
4.5323
4.65828
4.86282
4.91211
5.05379
5.2458
5.38423
5.59616
5.67279
5.90547
6.07978
6.28104
6.41716
6.61924
6.77108
6.91987
7.12121
7.20411
7.35074
7.40849
7.50246
7.62286
7.57231
7.73832
7.71684
7.63947
7.69989
7.59315
7.65398
7.52093
7.31863
7.42728
7.35212
7.30852
7.31171
7.24522
7.24636
7.29913
7.2959
7.37827
7.43346
7.67134
7.87263
8.04109
8.22096
8.42109
8.69232
8.94062
9.12847
9.32163
9.16223
9.46653
-3.03058
-3.10436
-2.84715
-2.47911
-1.98621
-1.43026
-0.938221
-0.484535
-0.0387503
0.32874
0.640361
0.966062
1.25216
1.51468
1.91715
2.48745
3.1058
3.75366
4.48782
5.3412
6.3222
7.45059
8.79185
10.481
11.989
1.65785
1.73106
1.64334
1.50809
1.43117
1.50664
1.68002
1.88704
2.08009
2.14881
2.0557
1.89789
1.75655
1.67623
1.7407
1.93993
2.11576
2.1958
2.29268
2.49233
2.76372
3.0683
3.39035
3.74369
3.91173
0.644423
0.68915
0.756713
0.831474
0.950771
1.12943
1.33063
1.52283
1.6838
1.77073
1.7818
1.75767
1.73088
1.73185
1.80987
1.97372
2.1833
2.42254
2.71741
3.08848
3.53636
4.06238
4.67236
5.37217
6.23442
1.03563
1.05455
1.12566
1.19235
1.28035
1.39246
1.51709
1.63751
1.74069
1.81047
1.84599
1.86333
1.87968
1.91085
1.97523
2.07824
2.21115
2.37109
2.5666
2.80325
3.07755
3.37966
3.69434
3.9877
4.29275
1.08253
1.09416
1.16767
1.24025
1.33166
1.43414
1.54283
1.64485
1.73368
1.80184
1.84941
1.88537
1.92064
1.96525
2.03137
2.12595
2.25068
2.4082
2.60418
2.84219
3.12497
3.45364
3.83438
4.26491
4.83329
1.17935
1.20054
1.27463
1.34125
1.42599
1.51322
1.60637
1.69184
1.76876
1.83273
1.88276
1.92508
1.96765
2.01554
2.07766
2.16016
2.267
2.40197
2.56844
2.76659
2.99781
3.25751
3.54421
3.83856
4.20635
1.29404
1.26993
1.35195
1.40913
1.49055
1.56643
1.65268
1.72805
1.79873
1.86088
1.91041
1.95405
1.99999
2.04837
2.10805
2.18491
2.28348
2.40881
2.56421
2.74796
2.96658
3.21514
3.50144
3.82501
4.2542
1.40375
1.3206
1.42298
1.4685
1.55109
1.61686
1.70254
1.76873
1.8335
1.8943
1.93989
1.98067
2.03
2.07798
2.13467
2.20677
2.29776
2.41277
2.55421
2.71862
2.92133
3.1481
3.43059
3.74678
4.12553
1.39298
1.34867
1.50011
1.52449
1.60692
1.64661
1.73752
1.7891
1.86717
1.92643
1.97323
2.00543
2.04839
2.08907
2.14435
2.20918
2.29142
2.39718
2.5531
2.71114
2.89111
3.1161
3.34881
3.47109
3.69804
-13.5831
-12.9006
0.225864
6.57424
2.30504
2.22672
-2.75637
2.92205
-1.34015
6.9022
-12.3889
3.03234
-15.2012
1.54018
-7.49476
4.55907
-8.79585
6.49552
7.22003
-16.0883
-17.0023
5.12934
-12.0733
4.82158
2.86372
3.95321
2.8263
1.71527
-11.6353
-10.8168
6.54882
4.74
-14.4357
-11.7577
-11.2182
2.67725
-4.0219
-7.20318
-6.0363
5.28111
-13.1408
5.44327
4.53585
1.6183
2.99709
6.56933
-12.0198
-10.3541
-10.834
-13.8391
-12.01
-12.5137
-16.1829
6.59805
-2.59849
-1.0631
1.51678
-16.9579
2.07049
-9.45184
2.89148
1.12971
2.32205
4.61179
2.86592
1.64703
4.31594
4.85115
-13.4879
-12.6764
-1.69691
5.66605
2.42887
-15.0323
2.48346
-17.6598
-13.8277
-12.0289
1.79835
6.83741
-11.8161
3.09125
3.25523
-9.22232
2.48797
2.93551
2.38222
-12.2142
-14.5395
3.49541
3.92276
3.654
6.76059
3.08734
2.32438
-12.2509
3.82884
-11.7211
5.31991
-9.56689
1.9879
-13.6237
1.9693
5.15617
2.14142
1.97694
-12.1158
-12.907
3.72943
-10.4054
4.43249
3.36074
-11.1674
5.11538
-16.6763
-10.7409
-13.5076
5.57542
-15.1255
3.52356
4.27571
3.27508
5.06814
2.98119
-14.2795
4.54531
-12.7214
-16.6359
1.46544
-10.6366
3.4341
-15.1711
-12.2077
-9.3796
1.53842
2.40372
3.02074
2.10965
3.22862
-15.4599
4.06595
-4.7753
-10.1142
4.31461
-11.2382
4.09384
5.6073
-15.1061
3.25697
-11.3975
-0.000580402
1.04389
5.35742
-7.80051
2.842
-10.309
2.32659
5.45466
-11.9274
6.21935
4.8734
-1.78542
3.76384
-11.7524
5.63256
-9.10803
1.46457
2.63722
5.5307
2.33545
1.53915
4.74154
4.52864
-9.39286
3.93278
1.74432
-13.0609
-11.9659
-10.2137
5.84094
-10.8264
5.17179
-15.7445
-10.6196
2.07249
6.1026
-9.47
3.67879
-14.4647
3.79998
-10.1635
-10.3026
-4.61176
-3.66625
-7.84767
-14.3917
2.50293
5.02162
-10.9046
-11.5897
-14.0566
5.20118
3.26735
3.56758
0.299809
5.97355
4.6279
2.03699
-11.4401
5.49233
2.13909
3.19155
-10.8233
0.165299
-0.161469
-12.8518
2.22989
6.31059
7.4879
2.91509
1.95456
5.509
2.9377
1.60234
7.27321
-13.3368
3.98007
-8.50202
3.71422
2.3918
-10.0248
2.82802
4.9583
3.49892
-5.44894
6.24304
-11.5496
1.76986
-10.836
-7.15046
5.68747
2.76942
5.69381
1.7159
2.42577
2.69143
4.4861
2.06734
4.23789
5.78537
3.78563
1.80929
5.04216
-11.3555
4.25725
2.45578
-10.9868
-13.4511
-11.9022
9.09269
4.05076
1.45319
3.42573
2.74036
-14.9141
3.07668
6.46227
5.06065
-3.44853
2.65599
-15.5565
-5.26771
5.11503
6.34709
7.7008
4.92225
4.4869
-3.04702
1.42826
-11.9612
1.77608
0.0197832
5.27772
6.28251
-9.90632
3.65124
1.86325
7.11664
-12.6566
-10.0851
-5.053
3.95653
5.07115
-12.6549
-11.536
-12.9872
-12.211
3.87946
6.03189
-10.5407
-11.2623
4.63266
5.97294
3.70166
-11.6703
6.09591
-17.3339
4.46088
-15.7011
3.28503
5.13775
6.03272
-14.4958
1.61927
5.0789
-3.38745
-12.0054
5.09175
2.88699
-9.31994
-12.3255
3.82048
5.9698
6.51666
2.5729
3.10083
-13.686
-12.789
4.08201
-16.4262
5.43339
-7.95521
1.96765
6.55004
-12.5978
2.88224
3.04357
3.42141
3.67154
4.46487
3.20181
2.93743
-10.3638
5.29685
-14.8826
2.25493
2.15487
5.25992
2.50854
-10.4871
-0.00912259
6.85103
4.60779
-12.0768
-12.6841
7.2674
-8.48332
1.29218
5.61613
-9.279
-11.6253
-12.056
6.24795
-13.5392
5.56839
2.39678
4.77117
-12.4554
3.21871
-14.18
6.54872
-8.15501
-11.6871
-7.43855
-13.8507
3.25987
3.33318
6.10196
6.26259
6.18265
-12.0797
3.90725
-14.0713
1.48944
1.59963
-10.221
5.83848
-16.077
-12.7149
-9.9342
-0.888181
6.27173
2.67436
-11.8964
-10.8334
7.7341
5.75375
-14.1147
5.59247
-11.3156
2.84288
4.65848
2.40489
-13.601
2.84865
6.15242
-3.70941
2.65277
0.157455
5.13903
-9.77806
3.0845
-10.2926
3.05043
3.85041
7.12455
-10.6012
-10.3071
6.12206
3.86732
5.30548
6.04272
3.44844
1.89794
5.83198
-11.5393
3.71468
5.62892
4.49939
4.73209
2.96034
2.43736
3.16
1.83586
-3.5923
5.007
3.94594
5.02298
5.18828
6.66752
6.13765
-7.12836
-12.9442
0.824843
-13.7516
4.45231
1.85376
-5.34342
2.09443
1.7729
-7.4579
5.11232
3.56977
-10.4879
6.53214
-12.6879
-9.0091
3.20237
3.92685
-15.3818
3.71417
1.17467
-9.8771
-11.0254
-11.5764
2.55095
2.22513
1.86732
6.14429
-12.2447
1.81641
2.4963
-11.9053
6.77008
3.01173
-12.8001
3.19299
2.39322
-14.7858
-14.9083
-0.270411
-6.70284
5.84638
2.94785
-9.86573
2.42058
3.07414
6.30648
-12.723
5.05404
-9.2633
4.18041
3.23829
-11.7255
3.14722
2.15887
-8.50246
3.05649
6.65354
-14.1433
4.61403
-4.47064
3.34923
1.71284
-13.6365
-11.5771
4.09824
3.7634
-3.52436
4.06759
5.12213
-11.3393
4.09434
3.35035
6.14434
-12.4858
-11.9951
-10.3761
3.22007
-0.628246
6.65956
-10.4379
-16.056
5.90141
-11.5877
6.57204
-11.6796
-13.8587
5.82576
5.64052
1.85634
4.99655
4.18054
-3.21281
3.48837
0.571815
3.9089
-10.6847
-10.9829
3.98734
-10.2928
-10.3529
4.29677
-12.4036
4.60967
2.44416
3.69211
1.94607
3.09058
-3.53767
-5.51486
-6.99517
1.49796
-11.3192
-10.5454
-11.8757
2.85519
6.37303
-14.5388
-11.9977
4.11645
-10.1572
3.76176
-13.2718
-10.7438
7.34443
-0.438185
1.99048
4.97022
3.56752
-14.5849
7.01706
-7.91862
2.23749
2.24186
-10.8772
-10.6379
-11.8261
1.9114
3.59856
-14.7059
-16.8115
4.96665
6.52788
3.06855
-13.9927
5.00767
2.23328
-5.23465
6.24666
2.21684
2.42088
4.65607
-9.22312
6.38368
1.98109
-12.2003
-10.7132
2.31148
5.23589
-10.3101
1.78259
5.66495
5.84521
-16.2307
4.4219
3.37604
5.16965
7.22264
5.02372
4.95767
-5.86307
2.78189
5.44448
1.93918
-16.0494
6.42459
2.14888
3.09535
4.93092
2.60819
3.55528
6.17195
0.896278
2.59679
-9.66993
-9.40186
1.69149
-13.7504
2.36254
2.55503
2.44207
5.99094
4.25988
3.55177
-15.2814
3.73851
3.0522
1.12159
-10.4712
-0.660959
1.63453
1.66315
4.75141
2.32873
6.11375
3.76471
0.772862
-9.85643
-9.01963
-12.0378
6.36639
6.68941
4.53353
6.86159
5.26615
-10.6754
10.4178
-17.0661
5.67868
-11.7953
7.02894
-12.0067
4.39882
2.50464
3.04441
-13.256
-5.48277
1.61622
-16.6878
2.55403
7.96482
2.58977
-11.1287
5.75299
3.70965
-9.19059
2.75209
6.53659
6.0113
5.20488
-15.4169
5.94697
3.36073
6.45087
1.57401
5.96846
-11.0889
-12.5016
4.40839
-4.33469
6.06471
-12.417
3.26363
6.47813
5.66757
3.79057
-5.17518
4.21304
5.30396
2.10232
4.85631
4.1625
5.71112
6.48322
-9.41396
-9.64082
0.186541
-10.9663
-5.90571
-13.0091
-11.3443
8.55673
2.3405
2.5537
6.14844
3.83653
1.20728
4.37923
2.87317
-14.2515
5.96145
4.92013
2.19603
5.37459
4.15619
2.77021
0.313496
-12.329
-13.0523
7.09573
-10.9638
-1.71035
-12.0497
-16.8237
-13.4605
-12.8609
4.44943
6.31145
4.15607
5.75366
5.24081
3.57407
-11.3824
-12.8341
5.6301
-12.4878
0.887087
6.40693
2.82717
3.2336
-9.18262
2.83313
2.90893
-2.31094
-8.63156
-14.6169
-11.9538
6.15528
6.22177
2.40458
5.8608
-11.8858
-0.139103
-12.2296
-8.37933
2.36611
-9.36202
3.67128
6.23809
1.94563
2.19259
2.13389
6.26966
4.10271
2.52729
3.63365
3.49747
4.64289
3.47897
3.73442
5.61713
-11.3798
-5.71482
5.00669
0.460608
4.49944
-15.207
2.54953
8.01917
5.5591
-15.1322
0.0229786
5.93672
3.98217
-11.0034
2.70804
-13.8216
3.57042
-14.7025
-12.1269
-10.2816
4.27539
-9.20587
1.26251
5.99503
-12.3745
5.27698
2.83853
3.27969
-14.7391
0.0358648
4.72908
2.44565
-13.576
2.47759
2.04291
-9.2048
6.02235
4.95366
-2.8793
-12.06
-13.5959
6.00979
6.32615
5.92439
-14.9685
-5.07477
5.37094
2.65679
2.19951
-12.7654
6.51011
2.70015
-13.2746
7.69908
3.38321
5.0228
7.01389
-14.2377
3.41985
-15.4133
5.61052
3.16154
-11.9068
5.40508
6.283
6.20869
1.76364
-15.2641
-12.2818
6.14523
5.93133
3.31341
-8.40185
-15.1124
1.12974
3.60592
-12.0671
-6.85845
3.79212
2.29429
2.10781
-10.1316
5.75721
-13.9071
4.43062
3.80166
-10.4197
4.07536
5.64632
3.16167
-15.8103
-11.0992
-9.65414
-9.86289
6.73581
-13.9242
-8.66129
5.83868
-2.81005
2.63452
2.13955
-15.4926
3.46769
2.88746
-16.4547
3.05893
6.7276
6.60937
-14.6292
1.35368
4.3722
-10.6057
-11.9215
-10.8707
5.96406
3.32571
-10.5271
-11.793
-11.3685
-14.9354
-13.9089
0.901227
6.04033
-0.778437
-10.2802
4.80971
5.76482
1.00086
-8.36131
4.53781
-1.60222
-13.1562
4.47515
2.18771
6.27769
-9.75323
-3.76735
-11.4382
-10.7433
6.62194
1.73534
-0.314171
3.18798
-12.3509
-16.5212
6.01799
3.53074
3.41602
6.33415
-14.4186
-12.5089
3.4271
-10.6536
5.14642
-11.4806
6.50869
2.66793
2.9843
-3.92997
-12.0012
1.57969
-15.1215
4.12864
4.29977
-4.87828
4.65659
-8.43641
-9.7506
-10.4268
3.38777
5.36328
-4.21141
4.06677
5.29096
2.94339
-11.0381
4.09297
1.91501
-11.5465
-4.13239
2.21462
3.38506
4.55408
5.1799
2.18977
5.08186
-15.8278
5.85846
3.21363
-10.4357
-15.5071
-4.97643
3.82675
3.55762
-1.08835
6.53825
-10.9394
2.24703
2.09726
-11.0321
3.95658
3.14469
0.912501
2.56538
-11.3485
6.34343
5.8142
5.7361
-3.06221
-2.85194
-13.529
2.95947
-13.4366
4.30263
4.50945
4.20816
-10.8711
-10.5482
4.70285
-9.76825
6.49912
-10.7982
3.70092
-11.2139
2.44248
2.66906
4.64869
-1.73937
-6.58326
3.5519
6.15017
-15.4004
6.23465
5.89793
3.06084
5.69737
3.63591
-10.8917
4.6723
3.81578
-9.3381
1.83282
-9.89288
6.35361
4.72872
4.74075
7.24287
5.42622
2.15208
-13.6338
7.22635
1.39986
6.16485
3.10166
-0.772575
-10.5663
5.26675
6.32482
3.7595
5.31336
6.28789
5.54166
-10.4003
6.77217
-16.3455
4.04846
-5.21774
-11.617
1.83405
-15.2428
4.1922
-12.4209
-12.0266
-10.1413
3.13866
3.43554
1.76516
-11.7301
5.54398
2.30575
4.33087
3.01931
-10.8113
1.99062
5.16967
2.11427
6.90511
6.85146
7.11033
-12.1728
8.65868
-14.8327
5.64352
4.87913
5.81819
6.12673
-15.0685
6.54751
-14.945
-12.6998
2.49789
5.23561
-11.2392
-11.4062
6.26313
6.08263
5.81038
5.3679
6.74257
1.85286
-11.5738
3.65207
7.33389
-14.4137
3.04752
0.280011
-6.01474
5.61591
2.44702
5.89328
1.96774
-11.5561
3.4613
-13.8015
5.45443
1.89976
5.18211
-13.8346
-14.0156
5.46321
7.34648
-12.5133
5.50899
2.17527
-9.45041
-11.8916
6.77295
6.49808
6.56758
1.63355
-12.8848
2.71553
6.75597
-13.043
-10.6246
6.22397
5.22584
2.44894
7.56076
3.74127
-15.5395
2.98883
-10.7518
3.17332
6.0957
2.69016
-15.1351
4.80541
-12.7343
-10.1412
-10.0556
-12.9145
-11.518
6.80647
4.35067
-13.2508
-14.7186
3.23922
5.83411
3.42219
1.92378
5.07454
2.94364
3.42389
-7.85519
2.32241
1.79269
-5.92712
2.11386
3.26592
4.10746
-10.1861
6.33744
-12.8744
-12.0023
2.09991
5.12646
3.30778
4.73808
3.29096
-12.8986
3.04588
6.11127
3.20066
5.05864
-11.1956
-13.7532
4.65692
3.6938
2.36057
6.17308
2.46781
1.72267
6.73327
2.0827
1.1577
-11.6557
6.14162
3.95576
-5.69736
3.71657
2.73821
4.11191
3.56288
3.24919
5.73687
-15.034
4.08843
5.62264
-10.7729
2.39471
-1.02761
-6.11874
5.86797
3.44413
6.05885
-8.51276
4.22341
-12.5629
6.54273
-5.5722
-13.8375
-16.3304
-11.7137
6.75321
2.93387
-15.0349
-12.9461
2.04352
5.32418
6.69589
-12.3197
6.08546
3.913
6.47041
6.19898
-1.14123
6.56209
2.29011
6.20017
-11.6772
-15.5173
6.0127
7.05501
5.87283
5.16008
3.44138
-10.9411
6.86256
0.486343
-14.5864
-16.0461
5.8917
-12.8073
-11.5031
-15.5014
-12.3367
1.22986
-11.4923
-12.8283
-10.1881
6.20666
-10.7582
6.54317
-2.17753
7.10215
6.58927
-12.2738
-9.18864
-11.455
-11.4177
1.86131
4.8602
-2.6474
-13.0041
7.04958
-13.3327
5.44464
-15.5749
6.47839
-11.4437
0.19953
2.15669
3.62513
-16.0649
3.27207
0.880365
-15.2207
5.56632
-10.8537
3.72844
4.89263
-8.11507
-2.32726
3.61834
-15.3548
-7.53159
6.95646
-14.2018
6.90465
6.30455
1.79075
2.31868
-13.2692
-12.0576
6.35097
-14.142
5.42862
-16.2409
6.95749
5.94503
4.8311
-16.7491
-1.31773
-10.922
4.4073
-10.6332
2.70402
-14.2698
-13.0925
0.122112
5.78369
-11.7444
5.05475
4.04347
5.64122
-11.5475
-13.2735
2.91154
-14.346
3.78326
3.63812
-3.39227
4.43443
3.17496
-12.6083
6.19012
5.96542
7.19945
3.30286
5.08898
7.11233
-13.9711
-12.0211
3.3554
6.39457
3.88667
-11.7416
-11.7691
3.07735
1.38322
1.94985
-14.5373
1.34252
-1.40841
-13.0193
2.74829
-14.7486
-13.2499
2.936
3.05538
6.29353
6.77507
2.59507
4.26634
2.09587
1.73867
-12.7462
4.68888
-13.8029
2.93339
-12.6544
5.39706
-10.15
0.0987678
-14.5263
-11.5233
2.17312
0.437113
4.84697
4.99941
4.68453
-11.1112
-10.5931
6.24947
6.03394
4.07127
5.32569
3.18618
3.82026
-13.5481
-10.5601
-15.106
-13.7244
6.19278
2.60659
-11.5219
5.19904
-11.64
5.87503
3.02094
2.14945
4.01693
3.07434
4.19272
2.96971
0.415004
-13.651
-11.7559
7.21139
3.03365
-14.6977
-2.47028
3.49234
-11.4442
-12.8063
-10.1451
4.84975
-15.9244
3.33735
6.32648
6.1787
2.80554
8.52489
-9.8296
-12.4793
5.73999
1.87301
-15.2433
3.69001
-12.9242
-9.82241
4.21999
1.61765
5.18415
1.9627
-11.3165
2.39791
-11.674
1.97547
5.73875
2.0352
6.41115
1.49765
6.07009
4.46262
5.98627
2.51661
3.62874
-14.0065
6.48351
-8.97649
3.99304
4.35865
5.25799
2.07422
3.47985
-5.09018
-12.7343
3.99298
-12.3756
7.12068
-12.5589
5.45328
5.87177
2.97185
2.58129
-11.1068
4.40595
4.61744
-2.62252
-8.6755
5.00127
6.58271
6.28671
5.44376
-3.90875
3.41171
3.85334
-14.6817
3.12987
6.92128
4.52467
-13.7677
4.32891
-12.0628
-12.1212
6.85359
3.28473
5.44487
5.85631
-14.0817
5.08028
6.77801
5.17401
-15.4678
2.04581
5.71592
2.71498
-5.82083
-9.25169
2.13181
3.54832
-10.3218
6.36525
-0.260689
-11.065
4.57426
-1.09802
-11.89
6.6887
-11.5144
6.06208
4.29348
6.27155
3.05897
-6.99766
-10.1192
4.95792
6.69539
-12.5291
4.74516
5.73031
6.03779
1.47135
-3.7981
2.68497
2.39132
6.95562
4.02197
2.50797
4.13972
2.07268
6.21763
-9.65371
-14.8567
2.44645
-12.3407
2.09549
-14.0038
-11.6269
-13.8843
-10.3674
7.16035
5.66013
-14.9626
5.81734
5.31691
-10.924
4.15443
4.32033
-12.0101
-14.8446
5.12804
-9.97234
2.40295
-11.5343
2.1928
6.13593
-2.81853
1.77352
-13.9369
4.45196
6.1157
1.65547
4.20481
-7.79915
0.578942
4.91541
-12.5584
1.6826
-12.4189
1.96264
-14.0171
4.58528
5.9154
3.28543
6.88843
-16.1201
-9.71264
-14.9126
2.35874
-13.6188
-10.7141
7.14088
-15.3764
-0.55486
6.23282
-15.9542
-11.0696
4.63565
2.14648
2.26248
-13.6464
3.04886
6.48106
-11.2857
-14.7698
1.64697
-13.5329
-11.5473
3.13363
1.90108
-3.14766
2.07658
-15.6171
2.17398
5.9993
3.15359
-10.493
2.47344
-1.48754
-12.3417
2.78162
-1.38717
-6.6255
6.01466
-12.0023
5.69328
-16.1787
5.31918
3.15964
4.18103
6.355
3.55171
3.81325
5.6797
2.18093
6.66925
-12.7495
-14.8377
3.58275
-16.385
2.52318
3.25844
4.58185
5.05395
4.28964
-6.7588
6.5135
-3.66756
-12.923
-5.73821
-13.9657
7.17751
5.21495
-12.8953
5.37823
2.62714
4.39026
3.0598
3.43487
-10.3509
5.23186
5.99762
2.67843
1.95803
1.9107
-5.03576
-0.941867
-2.00454
-13.1483
3.54924
3.02085
4.53615
4.26257
2.69708
3.43462
1.9786
3.17647
5.60199
5.51199
6.49637
-2.34807
-12.9041
-11.397
2.08299
5.7178
-1.61025
-10.1851
-11.047
2.38852
3.58329
1.44592
5.96531
2.76066
2.08063
-10.449
-1.148
2.94097
3.84301
4.54163
2.18256
-12.3596
2.55805
4.79736
3.33116
4.02762
-11.4021
6.66717
-7.67355
7.11631
2.15182
2.23925
5.6982
-11.2949
0.0215904
4.69482
-13.4282
-14.5283
0.959507
6.30328
4.15011
-10.8661
-14.1934
-13.6975
3.34754
-15.6436
6.04718
8.65223
-10.147
-10.872
2.9149
3.51005
-1.96169
-4.49757
5.76198
2.51568
-10.9926
3.07346
7.22527
4.11802
5.28633
4.67998
6.82566
6.13052
5.70915
-12.8241
5.00773
2.61844
2.28554
5.85596
0.55735
2.12911
-16.0246
-1.13927
-0.970322
6.1305
5.49264
4.70967
6.79827
4.41765
3.09407
-14.9795
5.71031
2.16981
7.07534
1.07312
3.95936
2.3206
5.83026
-12.9479
2.67114
-14.2946
4.68293
8.16106
5.44829
4.69561
6.22839
-11.6816
5.21626
2.30468
5.90885
5.40588
-10.6191
3.53075
5.75696
-13.6491
-13.6052
2.69669
-11.3279
6.11187
-13.0775
6.16293
-13.8685
6.30471
-3.05735
3.42029
-11.9563
1.73538
-10.3391
-10.0481
-10.6399
1.23965
-13.699
3.29878
2.49068
3.34128
-11.7574
5.56475
2.28428
-15.8655
-11.012
-12.2461
6.21944
-13.9292
2.27952
4.66137
2.84689
-0.284029
5.81193
-5.71671
4.83572
3.89143
6.30267
6.56133
5.58643
-14.2153
5.82754
6.83713
-11.0988
-0.538161
2.44884
3.30381
-10.5921
5.36043
5.46674
-12.6276
5.87098
-3.26193
-3.39692
5.37854
1.90593
-16.2731
3.56058
5.52142
6.19887
2.79784
5.86911
3.78098
-13.2454
2.55855
-10.9272
1.5974
2.09004
-11.2074
0.394799
1.33773
5.78157
2.59089
3.94563
2.57275
-12.8889
-11.9246
5.94318
4.65393
3.81645
-11.0649
2.11083
-1.48733
2.55374
2.09691
5.78497
6.57523
-2.28935
2.09443
-14.0974
-12.1036
5.98572
-9.24481
7.62289
-14.3106
-0.276607
2.90587
4.94495
2.09703
4.92049
4.502
-10.6271
-6.70662
-13.5672
-11.0141
-15.8218
5.17945
2.60212
-4.40646
2.67597
-2.89084
-13.3027
5.93566
-10.7545
-14.7329
-9.81998
5.52604
2.52708
3.53127
5.72477
-13.435
6.24503
-12.6064
5.59419
6.74943
2.05787
-11.0767
-11.7008
3.82033
6.51513
7.17724
5.5088
4.58949
-0.957052
-15.1035
4.76709
3.13569
-11.9982
5.99417
-12.6378
6.12142
3.79979
6.37029
-11.4206
5.34435
3.5643
5.90289
6.04891
1.75827
4.13477
-10.9652
1.85102
3.62321
4.65231
3.33795
-15.4433
2.86005
2.47407
-6.43096
-11.5594
2.07907
-13.83
5.90492
-10.5419
-16.0546
5.31825
1.81848
4.3758
3.94841
2.34805
-14.0871
-0.467655
5.90131
2.91279
-7.31222
-7.37133
-9.28325
-13.9125
0.783904
6.67796
-12.1514
2.08167
3.0749
3.32324
5.97403
-14.5994
-13.4411
4.95591
-14.1009
5.41739
-15.2037
-2.31327
-10.6981
-13.7206
-10.5551
3.22225
1.83089
5.96678
2.10357
-16.4333
-5.31834
6.34379
-0.764194
2.41101
-12.0118
5.77484
-4.25152
-6.6796
-10.6009
2.08243
-11.9256
1.45096
-13.6561
-11.6209
6.13786
2.38554
4.57725
6.90818
3.98186
-4.94702
5.98306
4.10191
-12.7183
2.37465
1.21629
1.73352
4.97809
6.58291
-13.9907
-14.0888
1.53587
-11.2833
3.42865
5.48092
4.55867
-11.9222
-12.9215
-12.322
4.15909
5.42552
5.38133
-10.9283
1.51692
-0.671548
3.81389
-13.4638
4.05333
1.6053
-15.7262
5.58776
6.6856
2.13064
3.68541
3.62443
7.17584
-4.1624
4.36396
5.56647
-12.5014
4.18099
-10.3208
-10.9582
1.69529
-6.10739
6.69948
-10.586
6.85605
-10.6159
3.24814
5.36775
6.31844
6.57898
4.74846
0.895901
7.53487
-15.731
4.34708
5.52593
4.34144
-13.7238
5.40598
5.31372
4.37422
-14.2974
3.7213
-10.0774
-9.55372
7.2537
6.73464
-2.51491
-13.3262
-14.5715
-1.8528
6.409
2.15161
-12.9922
-12.2039
-11.1729
-10.0443
5.38352
4.68388
3.92373
1.79101
7.21112
5.95354
5.77871
2.49146
5.73142
-14.6384
4.84351
-14.6951
5.50956
3.81525
-6.20792
3.89942
-15.7924
1.90391
2.5333
3.38892
3.48445
6.50854
2.50086
-5.37745
0.579967
4.0754
-3.20531
-13.4911
-10.2825
6.54297
0.511318
-10.8435
-13.9084
-12.7302
-13.3012
-9.89607
6.17205
4.88674
4.56215
3.35244
-14.4155
-13.2389
2.4038
6.37659
1.90559
6.9433
-10.0866
4.12183
-14.7719
3.25076
2.37692
3.80603
-11.319
4.01802
-16.1216
-11.6542
1.52141
1.60015
3.77506
6.53766
2.14094
3.02001
-4.1299
6.1995
5.83594
3.59753
5.69494
1.74622
-12.0875
-1.46095
-4.32507
-7.00437
-13.3666
-12.5748
1.90251
5.10955
-10.7433
7.13179
3.49864
-16.155
5.99048
5.62384
4.68633
-4.23053