/*--------------------------------*- C++ -*----------------------------------*\
  =========                 |
  \\      /  F ield         | OpenFOAM: The Open Source CFD Toolbox
   \\    /   O peration     | Website:  https://openfoam.org
    \\  /    A nd           | Version:  10
     \\/     M anipulation  |
\*---------------------------------------------------------------------------*/
FoamFile
{
    format      ascii;
    class       surfaceScalarField;
    location    "1450";
    object      phi;
}
// * * * * * * * * * * * * * * * * * * * * * * * * * * * * * * * * * * * * * //

dimensions      [0 3 -1 0 0 0 0];

internalField   nonuniform List<scalar> 
16133
(
2.39417
0.947184
-1.28893
-2.05231
-2.49085
2.44475
-2.80913
2.85525
-0.889207
-3.43757
2.67155
1.65524
0.508691
-0.94203
-4.32963
4.76299
-1.42956
0.482407
5.8955
-4.94829
5.21986
1.65605
-6.76696
-0.108937
-3.74273
1.13539
2.23684
0.370524
-0.0803411
-3.44164
0.91765
2.60433
-1.86875
2.74168
1.98159
-2.85452
0.537524
4.14343
0.0138782
-4.69482
3.57551
-3.23898
2.46466
-2.80114
4.77737
-2.06994
1.88952
-4.59692
-0.262717
-4.30851
2.57368
1.99753
0.928334
-0.788822
0.75187
-0.89139
1.03829
0.867304
-0.977264
-1.68558
1.22665
-3.94789
4.40684
-0.758192
0.644463
-0.675097
-5.63852
1.22447
4.12062
0.293385
-4.65893
3.76412
-0.973945
0.818205
2.76701
-1.19104
-0.771845
2.93984
-2.49148
0.323483
0.169971
-4.02377
4.36245
-4.34206
4.39449
-1.73799
6.40972
-5.25859
-0.159272
-0.991856
-4.63612
5.5415
-0.367842
-0.00255172
0.00286405
-0.0760124
0.0756996
0.0398823
-0.00548759
-0.0251354
-0.00925949
-0.204222
-2.45007
2.21431
0.43998
-0.028399
0.0516668
-0.0181902
-0.00507793
-4.41759
2.92249
3.43371
-1.09577
-5.43101
3.09308
-2.61776
2.5221
3.67124
1.05499
-3.11204
1.9767
-0.0498315
0.154281
0.00662371
-0.111074
-3.14802
-3.08868
3.23798
2.99874
-1.34374
2.33247
1.62908
-2.61781
-2.56369
-4.75173
4.16741
-0.0532053
0.0874307
-0.102419
0.0681934
0.0447854
0.0940707
-0.0242164
-0.11464
-4.61408
0.906596
-0.951444
-4.59885
0.195129
-3.71608
-0.915852
-0.977787
-0.404555
0.138683
1.24365
-1.49306
3.77496
1.0319
-3.3138
4.73085
-1.97672
-5.31782
2.79104
-0.995407
0.553981
0.0670302
-0.450504
-0.387264
0.655243
0.182521
2.18698
1.34549
-0.790789
4.15623
-3.8032
-0.183089
-1.7702
-2.44329
-5.49289
5.7534
-4.21543
3.95494
0.128078
0.0434371
-0.12673
-0.0232035
0.0366423
0.0430336
-0.0564725
-0.0172532
0.0527209
0.058603
-0.0185249
-0.0176452
0.00777102
4.33758
-2.32295
-6.76637
-0.072923
-0.0842872
0.127618
0.0295921
-0.512923
0.773397
-0.600326
0.339845
4.03994
0.078243
0.0175588
0.0322761
2.40527
-2.02113
-2.87498
0.0927687
-0.00122647
-0.00496801
-0.0865745
2.57921
-4.84459
4.38301
-2.11761
2.15206
-1.76324
-4.25083
2.76741
-1.95414
-0.462614
-0.258925
0.208612
-0.0159843
0.304279
-0.0215851
-0.26671
1.1863
2.6712
-4.59103
0.304566
-0.972142
0.0251074
0.00367848
-0.0519896
0.112327
-0.0331182
0.0123943
-0.091603
-1.01578
0.497547
1.68882
-1.1706
2.1854
-3.52455
-2.91166
0.890644
-1.29966
1.4473
-0.910094
-1.10757
1.23168
0.785976
-5.33164
1.65331
-0.912722
-2.28414
1.41707
2.00247
-2.00755
1.81451
1.24803
1.30023
-1.15749
0.747901
4.68262
-4.4053
0.283166
-0.56052
2.03419
-1.73555
-1.0203
0.721639
0.0564613
0.12552
-0.138544
0.0463468
0.0509374
-0.060642
5.22522
0.175665
-0.71828
-2.19473
1.82059
1.64315
-1.26901
2.14109
-1.79454
-2.00012
1.65356
3.87628
-3.3616
-2.00774
1.14261
-0.528774
0.754651
-1.36848
2.51593
-2.0544
1.67955
4.4641
1.46317
-2.05096
5.83909
-2.31701
2.33936
0.642018
1.47721
-1.57205
1.23745
2.94629
-1.97349
1.54313
-2.53504
-1.00343
0.786726
4.90431
0.148084
0.645629
-1.00618
-0.939112
0.79594
-0.482922
0.460376
-4.62347
5.01704
-0.2986
-0.0949034
1.35721
-1.24035
4.58308
-4.54573
1.28197
-1.31932
1.50326
-1.94182
1.52652
0.821496
4.73986
-0.978281
0.908495
2.63387
0.523694
0.143739
-0.392827
-0.756844
6.82099
-0.838926
1.37715
-0.853081
0.776161
-0.427216
-3.39653
0.0205251
-4.3152
-1.66006
-1.52113
-0.975956
0.761529
-0.92612
0.782134
-0.134274
-3.70244
-3.54249
-0.446529
4.73424
0.729345
1.9755
-3.26629
-2.43594
3.69451
-4.77516
-0.0731584
4.40181
2.2831
2.94394
-0.492775
0.656098
-0.176694
-1.3895
2.33158
-2.41048
-1.0004
0.635358
2.51404
-2.149
-3.33087
3.57619
2.41537
-2.66062
-0.053666
0.124529
0.00767916
-0.0785423
-0.169459
0.876517
1.38853
-1.60896
6.36582
-5.15404
-0.0658418
0.0528521
-0.0128353
0.0258249
1.73305
-1.85694
-3.06318
-2.88542
-3.03502
-0.994208
0.704016
-0.015063
0.121432
0.00595834
-0.0586294
0.150375
0.0956921
-0.187437
-0.801765
1.0017
-2.73496
0.0981315
4.81293
-2.76336
-3.09353
0.582935
-1.08106
0.754529
-4.00489
5.46189
-0.096909
-0.148102
-0.217605
-0.871563
2.95136
-5.93201
3.85222
4.60431
1.02509
-1.03454
1.01698
-1.00754
2.28971
-2.45611
1.19709
-4.11078
-0.966286
0.758935
-0.550847
3.80978
1.79538
-6.47672
-0.552374
0.158365
-0.0564954
-1.75359
-5.88718
2.51626
-2.12564
4.56056
2.20058
4.98192
2.42753
-0.179593
0.0450929
0.304323
-0.169823
3.93015
1.99856
-2.35246
0.841082
-2.43139
2.81968
2.79528
-3.18353
6.85424
1.73122
-3.16459
-5.42087
-0.884364
0.642024
-4.10821
4.31333
5.1461
-5.09231
-0.810614
-0.823149
1.41737
4.64238
4.00656
-2.74613
2.10996
-2.47586
-4.75009
0.135799
4.54114
-3.72903
2.86532
-2.14822
3.01192
-4.83599
-5.94059
-0.3439
-3.45113
0.513739
-0.540614
-0.988905
-0.00201592
0.0150714
-0.0118007
-0.00125478
-0.628833
0.647746
4.79925
-4.67143
1.66755
-2.00442
-3.23608
-2.80253
-0.722764
0.682829
-0.0825663
0.122498
-3.01254
0.198931
-0.0176721
0.101465
-0.0321263
-5.21343
-0.356428
-3.72305
2.02372
0.103756
-0.0791787
-0.867504
-1.66906
2.9712
-3.58627
3.25108
3.9264
4.0198
3.91666
-3.04265
0.150786
0.0562208
-0.150546
-0.0727128
-0.00819198
1.35006
-2.96617
1.63534
-2.02035
2.60927
-3.09202
-0.531635
0.797029
-0.833389
-2.00767
0.0711603
2.37158
1.28871
0.176248
-0.0129197
-0.216533
-3.08439
2.61745
0.190755
-1.16339
1.48074
-2.88697
4.32664
-1.5739
-0.106634
0.0950919
0.0394507
-0.0417741
4.78085
-0.248854
-0.00121071
-0.30231
2.86382
2.23968
4.79593
0.0377979
6.80737e-05
-1.03185
0.899397
-1.04351
1.53476
0.13485
-0.135323
-0.170907
0.17138
-0.0615809
0.0590291
0.556038
0.0903353
-0.0536909
-0.0543168
0.702028
-0.191527
0.172325
0.238434
-0.169672
-0.165672
1.1113
-0.109479
-1.63066
-0.0261188
-0.0968369
0.165272
-0.0423169
2.57453
0.0599805
-0.0648566
0.00487602
-0.518697
-1.68317
3.93971
-5.41577
1.26936
0.905144
0.501667
-0.477803
-0.106432
-2.61489
-0.00160043
1.47316
-5.62913
-0.0718646
0.0641989
0.0334103
-0.0257449
-0.455993
-5.45249
-0.098887
-0.0188526
0.0916205
-4.29738
-0.850552
-2.91611
5.66531
-2.86834
-0.0285059
-0.145686
0.0773545
0.257359
-0.312703
0.190194
-0.0215963
-0.0311623
0.0342339
-2.27606
2.08399
-0.721386
2.30363
1.35181
-1.04618
-0.0017943
-0.00526546
0.00705927
-1.66721
-3.21219
0.0131795
-0.0250109
0.0118318
1.48265
-3.9557
0.871661
1.35974
-0.644779
1.31705
0.008973
0.00420636
0.513051
-0.171089
-0.2145
0.359945
0.249488
-1.22198
1.78078
-0.290187
-0.693942
4.39261
0.176425
-0.0639003
0.038262
-0.922286
0.225557
-1.08594
1.4419
-2.53656
-0.581624
2.36324
-0.821951
4.00022
0.0545802
0.00444853
0.866395
-4.23522
1.63831
-0.855418
-2.36325
1.33004
0.834515
0.368597
-2.385
1.76392
-0.171303
-0.0312337
0.0672134
6.06495
-0.0821099
0.0494766
0.0618681
-0.0649981
-0.0843066
0.12481
-3.06902
0.0981073
0.0984486
-0.106326
0.0202047
0.0259073
-0.0461122
-1.29183
-3.81055
4.60353
-0.422628
0.22125
0.278686
-2.12131
0.00449548
-0.0062899
-1.57896
-4.90072
0.257032
0.0484232
0.0707157
-0.0696624
0.375846
-0.177247
-0.033328
-3.11968
-0.163435
-3.48094
-1.84944
-0.0048062
0.134494
0.310678
-0.112832
-0.637002
-0.0319849
0.0416834
-0.0109254
0.0551127
0.163878
-0.16277
-0.375968
-2.55427
-3.37612
0.0513425
0.00323766
0.217131
-2.11173
0.048105
1.4656
-0.0575862
0.0637646
0.060008
0.0623901
-0.0739749
0.657073
0.166532
-0.043882
0.0177424
-0.0275069
-0.00430352
0.00801103
-0.131045
0.220772
-0.0831039
0.0104305
0.00913606
0.0537043
-0.00236182
0.00754468
-0.0193455
0.184397
0.0397718
0.00696586
-0.0133274
-0.174819
1.96747
-1.43261
1.27965
0.00718204
-0.0782191
-0.0248331
0.30726
-0.434302
-0.654192
1.02359
0.608173
-1.44471
-1.08983
-0.02238
0.0342513
-0.0550928
0.0415018
-0.0699336
0.00419558
0.0132939
0.014949
-0.00187018
0.0555746
-0.119838
-0.0621887
1.99687
-0.0123368
0.0473826
-1.76325
0.52239
-1.65051
-0.724638
-0.0951148
0.00343259
-0.0282657
-0.0569144
0.0180689
-0.0469157
0.0612954
-0.0212999
0.670459
-0.911545
-1.11962
0.86244
-0.0998454
-1.5719
-0.354976
-0.0382731
-0.0247796
-1.56408
-0.855552
-0.0346273
-0.0322171
0.0345474
0.134785
-0.467092
0.0443572
0.0201758
-0.0603723
1.32282
-0.0201933
0.0199776
0.0173175
0.0669307
3.01685
0.2482
-0.201283
-0.806422
-0.200706
-0.998453
-0.00384762
0.116201
-0.112353
-0.00840449
0.12081
-0.116253
-0.0129441
0.13168
-0.127141
-0.0178873
0.140896
-0.135953
-0.0229726
0.150561
-0.145476
-0.0283686
0.159319
-0.153923
-0.0338996
0.167956
-0.162425
-0.0395914
0.176076
-0.170384
0.183821
-0.1783
-0.0451119
-0.00352377
0.119725
-0.00758288
0.124869
-0.011637
0.135734
-0.0160508
0.14531
-0.0205435
0.155054
-0.0252944
0.16407
-0.0301564
0.172818
-0.0351295
0.181049
0.188863
-0.040172
-0.00340498
0.12313
-0.00682863
0.128293
-0.0103437
0.13925
-0.0141388
0.149105
-0.0180312
0.158946
-0.0221069
0.168146
-0.0262756
0.176987
-0.0305353
0.185309
0.193194
-0.0348657
-0.00309045
0.12622
-0.00599972
0.131202
-0.00898149
0.142231
-0.0121573
0.152281
-0.0154319
0.162221
-0.0188451
0.171559
-0.0223393
0.180481
-0.0259278
0.188897
0.196901
-0.0296353
-0.00265558
0.128876
-0.00507103
0.133618
-0.00752128
0.144682
-0.0101028
0.154862
-0.0127647
0.164883
-0.0155361
0.174331
-0.0183953
0.18334
-0.0213645
0.191867
0.200008
-0.0244716
-0.00210367
0.13098
-0.00403478
0.135549
-0.00597344
0.14662
-0.0079905
0.156879
-0.0100646
0.166957
-0.0122257
0.176492
-0.0144642
0.185579
-0.0168106
0.194213
0.202502
-0.0193043
-0.00132915
0.132309
-0.00285806
0.137078
-0.00434397
0.148106
-0.00585883
0.158394
-0.00738481
0.168483
-0.00896495
0.178072
-0.0106219
0.187236
-0.0123845
0.195976
0.204417
-0.014299
-0.00038021
0.132689
-0.00163113
0.138329
-0.00272487
0.1492
-0.00377339
0.159443
-0.00479316
0.169503
-0.00584542
0.179124
-0.00696067
0.188351
-0.00818504
0.1972
0.205742
-0.00951013
0.000359153
0.13233
-0.000595841
0.139283
-0.00126842
0.149872
-0.00185873
0.160033
-0.00239972
0.170044
-0.00295868
0.179683
-0.00358867
0.188981
-0.00432049
0.197932
0.206621
-0.00519976
0.000598942
0.131731
6.56645e-05
0.139817
-9.19537e-05
0.15003
-0.000193012
0.160134
-0.00027114
0.170122
-0.000404929
0.179817
-0.000628609
0.189204
-0.000985038
0.198288
0.207109
-0.00147293
0.000470903
0.13126
0.000477205
0.13981
0.000870076
0.149637
0.00123413
0.15977
0.0015592
0.169796
0.00177447
0.179601
0.00186049
0.189118
0.00177236
0.198376
0.207398
0.00148262
0.000404099
0.130856
0.000976389
0.139238
0.00179512
0.148818
0.00251502
0.15905
0.00312352
0.169188
0.00359885
0.179126
0.0039063
0.188811
0.00404317
0.198239
0.20754
0.00390146
0.000795096
0.130061
0.00179361
0.138239
0.00281714
0.147794
0.00371008
0.158157
0.00446823
0.16843
0.00506605
0.178528
0.00548652
0.18839
0.00570243
0.198023
0.207513
0.00572995
0.00151786
0.128543
0.00278995
0.136967
0.00387506
0.146709
0.00481457
0.157217
0.00560709
0.167637
0.00622536
0.17791
0.00665596
0.18796
0.00686961
0.197809
0.207509
0.00687327
0.00225129
0.126292
0.00373271
0.135486
0.00483362
0.145608
0.00575493
0.156296
0.00652014
0.166872
0.00711667
0.177313
0.00751527
0.187561
0.00768069
0.197644
0.207568
0.00762181
0.00264423
0.123648
0.00436422
0.133766
0.00550821
0.144464
0.00643906
0.155365
0.00720007
0.166111
0.00778262
0.176731
0.00815987
0.187184
0.00830361
0.1975
0.207657
0.00821447
0.00244999
0.121198
0.00445023
0.131765
0.0057641
0.14315
0.00681018
0.154319
0.00764605
0.165275
0.00827735
0.176099
0.00867446
0.186787
0.00883136
0.197343
0.207798
0.00868962
0.00193865
0.119259
0.00409642
0.129607
0.00566678
0.14158
0.00692301
0.153062
0.00791634
0.164281
0.00865831
0.175357
0.00913189
0.186313
0.00931734
0.197158
0.207932
0.00918327
0.00152521
0.117734
0.00367995
0.127453
0.00545306
0.139807
0.006939
0.151576
0.00814425
0.163076
0.00907228
0.174429
0.00970592
0.185679
0.0100351
0.196829
0.207916
0.0100514
0.00131816
0.116416
0.00341859
0.125352
0.00532508
0.1379
0.00702233
0.149879
0.00845628
0.161642
0.00961302
0.173272
0.0104691
0.184823
0.0110023
0.196295
0.207726
0.0111923
0.0012514
0.115165
0.00335744
0.123246
0.00538191
0.135876
0.00727559
0.147985
0.00895081
0.159967
0.0103689
0.171854
0.0114906
0.183701
0.012257
0.195529
0.207386
0.0125966
0.00135661
0.113808
0.00353153
0.121071
0.00567977
0.133727
0.00775909
0.145906
0.00968922
0.158036
0.0114133
0.17013
0.0128752
0.182239
0.0139766
0.194427
0.206698
0.0146648
0.00175586
0.112052
0.00397814
0.118849
0.00622824
0.131477
0.00847487
0.143659
0.0106682
0.155843
0.0127385
0.16806
0.0146293
0.180349
0.0161537
0.192903
0.20577
0.0170812
0.00246064
0.109591
0.00466564
0.116644
0.00697444
0.129168
0.00938861
0.141245
0.0118525
0.153379
0.0142811
0.165631
0.0166749
0.177955
0.0187063
0.190871
0.204897
0.0195794
0.00326518
0.00526941
0.00770797
0.0104086
0.0132419
0.0161032
0.0192391
0.0226731
0.0268636
-0.0882659
-0.00127836
0.0895443
-0.0868343
-0.0014316
-0.0852387
-0.00159567
-0.0834646
-0.00177412
-0.0815047
-0.00195981
-0.0793512
-0.00215354
-0.0769966
-0.00235463
-0.074438
-0.00255861
-0.0716693
-0.00276867
-0.0686921
-0.00297714
-0.0655068
-0.00318534
-0.0621167
-0.00339003
-0.0585275
-0.00358915
-0.0547427
-0.0037848
-0.0507711
-0.00397148
-0.0466195
-0.00415162
-0.0423005
-0.00431889
-0.0378279
-0.00447262
-0.0332224
-0.00460539
-0.0285116
-0.00471076
-0.0237346
-0.00477691
-0.0189488
-0.00478578
-0.0142255
-0.00472322
-0.00963643
-0.0045891
-0.00519314
-0.0044432
-0.000805258
-0.00438784
0.00366039
-0.00446555
0.00834514
-0.00468467
0.0133352
-0.00498993
0.0185732
-0.00523796
0.0239413
-0.00536797
0.0293535
-0.00541214
0.0347522
-0.00539861
0.0400855
-0.00533323
0.0453066
-0.00522101
0.0503774
-0.00507081
0.0552653
-0.00488777
0.0599421
-0.00467672
0.0643894
-0.00444728
0.068594
-0.00420452
0.0725527
-0.00395866
0.0762696
-0.00371692
0.0797525
-0.00348277
0.0830158
-0.00326333
0.0860725
-0.00305657
0.0889409
-0.00286844
0.0916327
-0.00269166
0.094162
-0.00252927
0.0965354
-0.00237334
0.0987569
-0.00222148
0.10083
-0.00207326
0.102753
-0.00192297
0.104533
-0.00177966
0.106169
-0.00163631
0.107665
-0.00149581
0.109026
-0.00136018
0.110254
-0.00122813
0.111363
-0.00110871
-0.000990354
-0.0875681
-0.00261311
0.0889029
-0.0861279
-0.00287186
-0.0845732
-0.00315036
-0.0828942
-0.00345311
-0.081085
-0.00376899
-0.0791316
-0.00410692
-0.0770268
-0.00445947
-0.0747562
-0.00482925
-0.0723111
-0.00521375
-0.0696813
-0.00560694
-0.0668573
-0.00600931
-0.0638322
-0.00641516
-0.0605977
-0.00682369
-0.0571548
-0.00722772
-0.0535017
-0.0076246
-0.0496408
-0.00801247
-0.0455779
-0.00838179
-0.0413223
-0.00872823
-0.0368826
-0.00904513
-0.0322715
-0.00932186
-0.0274985
-0.00954988
-0.0225613
-0.00972287
-0.0174421
-0.00984246
-0.0121028
-0.00992824
-0.00653704
-0.010009
-0.00080395
-0.0101209
0.00500394
-0.0102734
0.0107858
-0.0104664
0.0164812
-0.0106853
0.0221145
-0.0108713
0.0277221
-0.0109755
0.0332989
-0.0109889
0.0388155
-0.0109151
0.0442431
-0.0107608
0.0495492
-0.010527
0.0547048
-0.0102264
0.0596832
-0.0098661
0.064467
-0.00946043
0.0690382
-0.00901851
0.0733869
-0.00855322
0.0775041
-0.00807585
0.0813813
-0.00759408
0.0850199
-0.00712135
0.0884175
-0.00666091
0.0915767
-0.00621584
0.0945018
-0.00579354
0.0972009
-0.00539076
0.0996774
-0.00500576
0.101946
-0.00464191
0.104018
-0.00429392
0.10591
-0.0039649
0.107635
-0.00364823
0.109208
-0.00335201
0.110646
-0.0030752
0.111961
-0.00281065
0.11317
-0.00256858
0.11428
-0.00233806
0.115303
-0.00213168
-0.00194049
-0.0956492
-0.00410371
0.0971398
-0.0940418
-0.00447918
-0.09231
-0.00488219
-0.0904508
-0.00531235
-0.0884476
-0.00577219
-0.0862919
-0.00626259
-0.0839726
-0.00677876
-0.0814824
-0.00731942
-0.0788098
-0.00788633
-0.0759446
-0.00847216
-0.0728779
-0.00907604
-0.0696026
-0.00969044
-0.0661134
-0.0103129
-0.0624046
-0.0109366
-0.0584725
-0.0115568
-0.0543207
-0.0121643
-0.0499462
-0.0127563
-0.0453541
-0.0133203
-0.0405481
-0.0138512
-0.0355313
-0.0143387
-0.0303034
-0.0147777
-0.0248647
-0.0151616
-0.0192145
-0.0154928
-0.0133626
-0.0157801
-0.00733591
-0.0160357
-0.00117907
-0.0162777
0.00506044
-0.016513
0.0113319
-0.016738
0.017581
-0.0169344
0.0237805
-0.0170707
0.0299231
-0.0171182
0.0359959
-0.0170618
0.0419786
-0.0168978
0.0478441
-0.0166264
0.0535712
-0.0162541
0.0591353
-0.0157906
0.0645144
-0.0152452
0.0696904
-0.0146364
0.0746488
-0.0139769
0.079374
-0.0132785
0.0838587
-0.0125605
0.0880968
-0.0118323
0.0920842
-0.0111087
0.0958171
-0.0103939
0.0993031
-0.0097018
0.10254
-0.00903074
0.105537
-0.00838787
0.108304
-0.00777266
0.110851
-0.00718847
0.11319
-0.0066332
0.115335
-0.00610994
0.117299
-0.0056125
0.119098
-0.00515058
0.120743
-0.00472039
0.122251
-0.00431902
0.123633
-0.0039499
0.124905
-0.0036104
0.126071
-0.00329736
-0.00301016
-0.102266
-0.00563709
0.1038
-0.100612
-0.00613343
-0.0988231
-0.0066711
-0.0968906
-0.00724485
-0.094807
-0.00785583
-0.0925623
-0.00850732
-0.090147
-0.0091941
-0.0875463
-0.0099201
-0.0847541
-0.0106785
-0.0817593
-0.0114669
-0.0785535
-0.0122819
-0.0751223
-0.0131216
-0.0714613
-0.0139739
-0.0675592
-0.0148387
-0.0634146
-0.0157014
-0.0590189
-0.0165599
-0.0543735
-0.0174018
-0.049478
-0.0182159
-0.0443339
-0.0189953
-0.038944
-0.0197286
-0.0333117
-0.02041
-0.0274414
-0.021032
-0.0213416
-0.0215925
-0.0150314
-0.0220903
-0.00853758
-0.0225296
-0.0018999
-0.0229154
0.0048312
-0.0232441
0.0116041
-0.0235109
0.0183718
-0.0237022
0.0251004
-0.0237993
0.0317659
-0.0237838
0.0383481
-0.0236439
0.0448236
-0.0233733
0.0511706
-0.0229734
0.0573626
-0.0224461
0.0633788
-0.0218068
0.0691987
-0.0210652
0.074796
-0.0202337
0.0801535
-0.0193345
0.0852595
-0.0183845
0.090101
-0.0174021
0.0946694
-0.0164007
0.0989587
-0.015398
0.102968
-0.0144032
0.106694
-0.0134282
0.110149
-0.0124858
0.113336
-0.0115742
0.11627
-0.0107072
0.11896
-0.00987795
0.121426
-0.00909922
0.123682
-0.00836581
0.125745
-0.00767549
0.127624
-0.00702974
0.129341
-0.00643722
0.13091
-0.00588801
0.132345
-0.00538506
0.133656
-0.00492162
0.134854
-0.00449485
-0.00410959
-0.111168
-0.0073128
0.112844
-0.109348
-0.00795291
-0.107382
-0.00863772
-0.105258
-0.0093686
-0.102967
-0.0101466
-0.100502
-0.010973
-0.097847
-0.0118486
-0.0949988
-0.0127683
-0.0919446
-0.0137328
-0.0886739
-0.0147376
-0.0851773
-0.0157786
-0.0814459
-0.016853
-0.0774706
-0.0179493
-0.0732464
-0.0190629
-0.0687632
-0.0201846
-0.064019
-0.0213041
-0.0590112
-0.0224096
-0.0537367
-0.0234904
-0.0482
-0.024532
-0.0424011
-0.0255275
-0.0363496
-0.0264615
-0.0300538
-0.0273278
-0.0235286
-0.0281177
-0.0167939
-0.0288251
-0.00987911
-0.0294443
-0.00282237
-0.0299722
0.00433535
-0.0304018
0.0115511
-0.0307266
0.0187827
-0.0309338
0.0259928
-0.0310094
0.0331494
-0.0309404
0.0402222
-0.0307168
0.0471819
-0.030333
0.0540031
-0.0297946
0.0606609
-0.0291039
0.067125
-0.0282709
0.0733723
-0.0273125
0.0793824
-0.0262439
0.0851349
-0.0250869
0.0906166
-0.0238663
0.0958106
-0.022596
0.100714
-0.0213041
0.105318
-0.0200026
0.109627
-0.0187113
0.113642
-0.0174434
0.117366
-0.0162103
0.120814
-0.0150223
0.123993
-0.013886
0.126918
-0.0128027
0.129601
-0.0117819
0.132059
-0.0108237
0.13431
-0.00992682
0.136374
-0.00909371
0.138256
-0.00831962
0.139976
-0.00760791
0.141545
-0.00695403
0.142977
-0.00635357
0.144286
-0.00580333
-0.00529983
-0.119534
-0.00907168
0.121293
-0.117626
-0.0098614
-0.115562
-0.0107017
-0.113329
-0.0116015
-0.110914
-0.012562
-0.10831
-0.0135767
-0.105505
-0.0146537
-0.102487
-0.0157868
-0.0992427
-0.0169766
-0.0957655
-0.0182148
-0.0920424
-0.0195017
-0.088065
-0.0208304
-0.0838217
-0.0221926
-0.0793042
-0.0235804
-0.0745077
-0.0249811
-0.0694273
-0.0263845
-0.06406
-0.0277769
-0.0584109
-0.0291395
-0.0524795
-0.0304635
-0.0462733
-0.0317337
-0.0397983
-0.0329366
-0.0330694
-0.0340567
-0.0261028
-0.0350844
-0.0189223
-0.0360055
-0.0115591
-0.0368075
-0.00404947
-0.0374818
0.00356675
-0.0380181
0.0112501
-0.03841
0.0189603
-0.0386441
0.0266589
-0.0387079
0.0343111
-0.0385926
0.0418801
-0.0382859
0.0493344
-0.0377873
0.056645
-0.0371052
0.063779
-0.0362378
0.0707112
-0.0352031
0.0774142
-0.0340155
0.0838553
-0.0326849
0.0900177
-0.0312494
0.0958817
-0.0297303
0.101438
-0.0281524
0.106674
-0.0265398
0.111589
-0.0249177
0.11618
-0.0233019
0.120452
-0.0217157
0.124411
-0.0201697
0.128066
-0.0186773
0.131429
-0.0172489
0.134518
-0.015891
0.137346
-0.0146101
0.139934
-0.0134118
0.142297
-0.0122898
0.144453
-0.0112496
0.14642
-0.0102866
0.148215
-0.00940272
0.149847
-0.00858634
0.151333
-0.00783975
0.15269
-0.00716023
-0.00653309
-0.128965
-0.0109548
0.130848
-0.126919
-0.0119077
-0.124699
-0.0129212
-0.122296
-0.0140048
-0.119699
-0.0151596
-0.116892
-0.0163832
-0.113866
-0.0176792
-0.110608
-0.0190451
-0.107111
-0.0204735
-0.10336
-0.0219665
-0.099347
-0.0235144
-0.0950639
-0.0251135
-0.0904982
-0.0267583
-0.0856431
-0.0284355
-0.0804932
-0.030131
-0.0750453
-0.0318323
-0.0692938
-0.0335284
-0.0632512
-0.0351822
-0.0569159
-0.0367988
-0.0502983
-0.0383513
-0.0434024
-0.0398325
-0.0362461
-0.0412131
-0.0288477
-0.0424828
-0.0212267
-0.0436265
-0.0134223
-0.044612
-0.00546788
-0.0454362
0.00259437
-0.0460803
0.0107311
-0.0465467
0.0189043
-0.0468172
0.027073
-0.0468767
0.0352044
-0.046724
0.0432518
-0.0463333
0.0511818
-0.0457174
0.0589654
-0.0448888
0.0665628
-0.0438353
0.0739522
-0.0425925
0.0811027
-0.041166
0.0879657
-0.0395479
0.0945317
-0.0378154
0.100779
-0.0359777
0.1067
-0.034073
0.112278
-0.0321186
0.117514
-0.0301533
0.122402
-0.0281902
0.126953
-0.0262662
0.131169
-0.0243861
0.135062
-0.0225702
0.13864
-0.0208272
0.141923
-0.0191737
0.144928
-0.0176148
0.147668
-0.0161525
0.150174
-0.0147951
0.152455
-0.013531
0.154533
-0.0123647
0.156423
-0.0112927
0.158144
-0.0103068
0.159709
-0.00940533
0.161132
-0.00858297
-0.00782589
-0.138417
-0.0129521
0.140414
-0.136255
-0.0140698
-0.133914
-0.0152625
-0.131371
-0.0165472
-0.128622
-0.0179092
-0.125643
-0.0193617
-0.122434
-0.0208881
-0.118969
-0.0225107
-0.11523
-0.0242117
-0.111233
-0.0259637
-0.106953
-0.0277947
-0.10238
-0.0296864
-0.0975074
-0.0316309
-0.0923231
-0.0336198
-0.0868251
-0.035629
-0.0810035
-0.0376539
-0.0748535
-0.0396784
-0.0684099
-0.0416258
-0.0616699
-0.0435387
-0.0546374
-0.0453838
-0.0473107
-0.0471592
-0.0397194
-0.0488043
-0.0318852
-0.050317
-0.0237983
-0.0517133
-0.0155372
-0.0528731
-0.00712099
-0.0538525
0.00139099
-0.0545923
0.00999047
-0.0551462
0.0186338
-0.0554605
0.0272745
-0.0555174
0.0358948
-0.0553443
0.0444183
-0.0548569
0.0528167
-0.0541157
0.0610877
-0.0531598
0.0691441
-0.0518918
0.0769982
-0.0504466
0.0846346
-0.0488024
0.0919251
-0.0468385
0.0989006
-0.0447909
0.105543
-0.0426196
0.111835
-0.0403657
0.117774
-0.0380572
0.123329
-0.0357082
0.128511
-0.0333728
0.133352
-0.0311071
0.137816
-0.0288494
0.141945
-0.0266996
0.145734
-0.0246163
0.149182
-0.022622
0.152323
-0.0207555
0.15518
-0.0190101
0.157779
-0.017394
0.160139
-0.0158911
0.162281
-0.0145065
0.164225
-0.0132365
0.165992
-0.0120737
0.167594
-0.0110069
0.169054
-0.0100433
-0.00915593
-0.148643
0.150748
-0.0150572
-0.146347
-0.0163661
-0.143859
-0.0177508
-0.141145
-0.0192607
-0.138205
-0.0208491
-0.135002
-0.0225644
-0.131533
-0.0243579
-0.127828
-0.0262157
-0.12385
-0.0281891
-0.119511
-0.030303
-0.114913
-0.0323923
-0.110007
-0.0345928
-0.104744
-0.0368945
-0.0992049
-0.0391585
-0.0933033
-0.0415305
-0.0871419
-0.0438153
-0.0806564
-0.046164
-0.0738155
-0.0484666
-0.0666051
-0.0507491
-0.0591307
-0.0528583
-0.0513542
-0.0549356
-0.0433658
-0.0567928
-0.0351248
-0.058558
-0.0265689
-0.0602692
-0.0178455
-0.0615965
-0.00898245
-0.0627155
-5.33735e-05
-0.0635214
0.00901661
-0.0642162
0.0181674
-0.0646113
0.0272455
-0.0645955
0.0363553
-0.0644541
0.0453692
-0.0638707
0.0541956
-0.0629421
0.062964
-0.0619282
0.0715282
-0.060456
0.0798621
-0.0587804
0.0878543
-0.0567946
0.0954864
-0.0544705
0.10293
-0.052234
0.109969
-0.049659
0.116643
-0.0470401
0.122984
-0.0443981
0.128906
-0.0416297
0.134439
-0.038906
0.139583
-0.0362508
0.144316
-0.0335832
0.148658
-0.031041
0.152607
-0.0285653
0.156284
-0.0262987
0.159628
-0.0241
0.162646
-0.0220282
0.165367
-0.020115
0.167814
-0.018338
0.17005
-0.0167421
0.172072
-0.0152583
0.173891
-0.0138928
0.175535
-0.0126507
0.17696
-0.011469
-0.0104958
-0.0573561
0.0112435
-0.0675384
0.0101824
-0.0766861
0.00914756
-0.0845812
0.00789513
-0.0913586
0.00677735
-0.0974796
0.00612115
-0.103228
0.00574814
-0.108681
0.00545371
-0.113854
0.00517301
-0.118409
0.00455493
-0.121717
0.00330756
-0.12347
0.00175362
-0.123823
0.000352528
-0.123215
-0.000607764
-0.122212
-0.00100288
-0.121014
-0.001198
-0.119389
-0.00162499
-0.117086
-0.00230305
-0.114172
-0.00291394
-0.110841
-0.00333176
-0.10719
-0.00365088
-0.103251
-0.00393927
-0.0990226
-0.00422791
-0.094535
-0.00448763
-0.00499069
-0.0614465
0.0207003
-0.0708069
0.0195427
-0.0796206
0.0179611
-0.0879068
0.0161813
-0.0956836
0.0145541
-0.102851
0.013288
-0.109349
0.0122465
-0.115125
0.0112303
-0.119995
0.0100426
-0.123813
0.00837313
-0.126677
0.00617114
-0.128651
0.00372763
-0.129689
0.00139068
-0.129732
-0.000564323
-0.128765
-0.00197018
-0.126955
-0.00300848
-0.12457
-0.00400985
-0.121787
-0.00508601
-0.118596
-0.00610521
-0.114929
-0.00699863
-0.110781
-0.0077985
-0.106147
-0.0085731
-0.101003
-0.00937195
-0.0952388
-0.0102519
-0.0113266
-0.0669595
0.0311872
-0.0770201
0.0296032
-0.0865938
0.0275346
-0.0956688
0.0252563
-0.104119
0.0230042
-0.111758
0.0209271
-0.118465
0.018953
-0.124165
0.0169302
-0.128803
0.0146806
-0.132462
0.0120324
-0.135282
0.00899128
-0.13733
0.00577529
-0.138608
0.00266929
-0.139063
-0.000110156
-0.138592
-0.00244041
-0.137191
-0.0044101
-0.135003
-0.00619773
-0.132184
-0.00790504
-0.128789
-0.00949975
-0.124821
-0.0109668
-0.120291
-0.0123285
-0.115221
-0.0136427
-0.109645
-0.0149485
-0.103597
-0.0162996
-0.017784
-0.0722201
0.0427651
-0.0831404
0.0405233
-0.093472
0.0378662
-0.103185
0.0349689
-0.112163
0.0319822
-0.120245
0.0290096
-0.127309
0.0260162
-0.13329
0.0229115
-0.138185
0.0195756
-0.142081
0.0159284
-0.145098
0.0120087
-0.147304
0.00798072
-0.148691
0.00405663
-0.149222
0.000420423
-0.148823
-0.00283971
-0.14749
-0.00574233
-0.145298
-0.00838979
-0.142352
-0.0108517
-0.138702
-0.0131494
-0.134385
-0.0152837
-0.129415
-0.0172982
-0.123824
-0.0192337
-0.117641
-0.0211318
-0.110916
-0.0230243
-0.0249004
-0.0775056
0.0552725
-0.0893433
0.0523609
-0.100481
0.049004
-0.110874
0.0453617
-0.120413
0.0415212
-0.128979
0.037575
-0.13647
0.0335074
-0.142843
0.0292851
-0.14811
0.0248425
-0.152338
0.0201564
-0.155619
0.0152891
-0.158009
0.0103707
-0.159506
0.00555387
-0.160086
0.00100013
-0.159722
-0.00320337
-0.158403
-0.00706189
-0.156173
-0.010619
-0.153113
-0.0139123
-0.149279
-0.0169831
-0.144718
-0.0198448
-0.139474
-0.0225423
-0.133597
-0.0251104
-0.127152
-0.0275769
-0.120218
-0.0299587
-0.0322746
-0.08292
0.06853
-0.0956456
0.0650866
-0.107586
0.0609449
-0.118682
0.0564569
-0.128826
0.0516651
-0.137933
0.0466822
-0.145912
0.0414861
-0.152738
0.0361115
-0.158426
0.0305298
-0.163018
0.0247485
-0.16659
0.0188613
-0.169179
0.0129599
-0.170795
0.0071701
-0.171431
0.00163593
-0.171063
-0.00357118
-0.16971
-0.00841527
-0.167412
-0.0129168
-0.164215
-0.0171091
-0.160186
-0.0210127
-0.155368
-0.0246624
-0.149819
-0.0280919
-0.143583
-0.0313459
-0.136711
-0.0344487
-0.129254
-0.0374159
-0.0402354
-0.0883259
0.0828811
-0.102047
0.0788072
-0.114822
0.0737198
-0.126654
0.0682891
-0.137449
0.0624601
-0.14715
0.0563832
-0.155652
0.0499879
-0.162961
0.0434204
-0.169078
0.0366475
-0.174042
0.0297125
-0.177914
0.0227328
-0.180728
0.0157739
-0.18248
0.00892209
-0.183171
0.00232661
-0.182818
-0.00392366
-0.181434
-0.00979956
-0.179055
-0.0152962
-0.175734
-0.0204301
-0.171524
-0.0252223
-0.166495
-0.0296917
-0.160694
-0.0338929
-0.154183
-0.0378572
-0.146996
-0.0416354
-0.139196
-0.045216
-0.048583
-0.0939086
0.0985707
-0.108654
0.0935523
-0.12223
0.0872964
-0.134814
0.0808732
-0.14629
0.0739355
-0.156624
0.0667175
-0.165672
0.0590354
-0.173471
0.0512193
-0.18004
0.0432171
-0.185375
0.0350472
-0.189538
0.026896
-0.192592
0.0188279
-0.194485
0.0108145
-0.195245
0.00308718
-0.194904
-0.00426454
-0.193478
-0.0112254
-0.191015
-0.0177593
-0.187561
-0.0238843
-0.183172
-0.0296116
-0.177921
-0.0349424
-0.171863
-0.0399507
-0.165069
-0.0446518
-0.157534
-0.0491699
-0.149303
-0.053447
-0.0574719
-0.100053
0.11552
-0.115557
0.109056
-0.129795
0.101535
-0.14314
0.0942178
-0.155332
0.0861281
-0.166368
0.0777529
-0.175963
0.0686307
-0.184254
0.0595104
-0.191285
0.0502486
-0.19702
0.0407822
-0.201448
0.0313234
-0.204727
0.0221071
-0.206791
0.0128782
-0.207603
0.00389985
-0.207269
-0.00459869
-0.205802
-0.0126926
-0.203238
-0.0203231
-0.199665
-0.0274574
-0.195074
-0.0342026
-0.189535
-0.0404821
-0.183193
-0.0462921
-0.176079
-0.0517663
-0.168166
-0.0570824
-0.159738
-0.061875
-0.0664617
1.26268
3.31748
-0.0551221
-3.26234
1.80636
-0.41579
-1.39059
0.263388
-0.362384
0.0989962
0.326517
-0.395176
0.0686594
-0.694677
-0.505113
1.19979
-0.502779
0.778731
-0.275952
2.91125
-3.678
0.766753
-0.0376542
-0.189165
0.226819
5.29781
-3.60696
-1.69084
-0.896942
1.94893
-1.05199
-0.85781
0.271598
0.586212
1.27732
-2.08399
0.806667
-1.38985
0.429226
0.960628
0.108787
-0.109337
0.00055057
5.321
-5.20139
-0.119609
0.189985
1.6164
0.129366
-0.0246565
-0.10471
-0.152495
-0.163869
0.39241
0.254985
-0.647396
-0.333235
0.215179
0.118056
3.11503
2.20941
-5.32445
-0.744106
0.973319
-0.229214
1.35976
-1.13447
-0.225293
-1.01674
0.405243
0.611497
1.22097
0.138799
-1.2112
0.808449
0.402752
-0.608999
0.0781041
0.530895
5.43243
-2.9233
-2.50913
-0.0293201
-0.138027
0.167348
0.101914
0.554687
-0.656601
-1.68434
0.782272
0.902055
0.912586
0.701605
-1.61419
3.16333
-5.56742
2.4041
-0.283232
-0.0705212
0.353753
-0.0558802
1.75918
-1.70331
-0.928947
-0.460905
-3.17282