/*--------------------------------*- C++ -*----------------------------------*\
  =========                 |
  \\      /  F ield         | OpenFOAM: The Open Source CFD Toolbox
   \\    /   O peration     | Website:  https://openfoam.org
    \\  /    A nd           | Version:  10
     \\/     M anipulation  |
\*---------------------------------------------------------------------------*/
FoamFile
{
    format      ascii;
    class       volVectorField;
    location    "1450";
    object      U;
}
// * * * * * * * * * * * * * * * * * * * * * * * * * * * * * * * * * * * * * //

dimensions      [0 1 -1 0 0 0 0];

internalField   nonuniform List<vector> 
10435
(
(2.2056 0.963862 4.58788e-22)
(2.97649 1.91575 -3.52149e-20)
(4.67576 -0.423052 -3.30998e-20)
(3.55291 0.758185 7.97039e-20)
(4.17818 0.651029 -3.69671e-20)
(3.90621 -0.219834 2.57827e-19)
(4.73035 -0.387681 -1.18675e-19)
(4.50293 -0.379613 7.19929e-20)
(3.93177 -0.375046 2.44501e-19)
(4.19828 -0.450417 -7.4321e-20)
(3.40137 1.71455 -8.26945e-20)
(4.38052 0.0190597 1.8109e-19)
(4.07454 -0.458184 8.00805e-20)
(0.924768 0.743851 -1.05037e-20)
(1.05414 0.820453 -1.23464e-20)
(4.71602 -0.413267 -8.83814e-21)
(0.809803 0.657288 3.29064e-21)
(3.741 -0.448871 2.67449e-19)
(3.58628 -0.367101 -9.98724e-20)
(2.44319 0.917462 -1.10234e-20)
(4.6353 -0.394566 5.20919e-20)
(3.3859 0.493051 -1.24778e-19)
(4.76261 -0.421675 3.58854e-19)
(3.88343 -0.379263 -1.11611e-19)
(4.47378 -0.417256 8.78252e-20)
(0.250828 0.41693 -3.11708e-22)
(0.0357061 0.172658 -6.11967e-22)
(4.44293 -0.421945 6.94986e-20)
(0.188386 0.0280032 6.62874e-23)
(3.9299 -0.456083 3.71263e-19)
(4.74843 -0.362852 1.52155e-19)
(3.58753 1.56259 -6.68372e-21)
(4.37782 -0.376935 -1.52508e-19)
(0.436 0.0574335 1.38154e-21)
(4.40863 -0.406689 8.38656e-20)
(2.21367 1.87634 1.02337e-20)
(4.56908 -0.406439 1.21917e-19)
(0.144511 0.353007 1.21461e-21)
(0.389806 0.389337 -3.1319e-22)
(3.71122 -0.366448 3.05974e-20)
(3.73811 -0.455343 -3.97054e-19)
(4.7381 -0.40706 -9.61956e-20)
(0.623487 0.758805 -1.33376e-20)
(3.0597 1.01587 -1.10122e-19)
(4.71518 -0.395072 -2.5968e-19)
(3.81342 -0.377754 1.80404e-19)
(3.83961 -0.343018 -2.95528e-19)
(0.437797 0.597449 -3.83326e-20)
(3.86194 -0.402551 7.90981e-20)
(3.2199 0.222276 -4.31638e-20)
(4.53067 -0.395295 -1.1205e-20)
(4.53774 -0.195171 1.19951e-18)
(0.431764 0.410986 -8.68428e-22)
(0.277119 -0.0793118 1.4181e-22)
(0.347298 0.397028 1.19901e-22)
(0.138302 -0.013552 -1.90229e-22)
(4.40725 -0.388506 -3.6394e-19)
(0.146119 0.288221 1.26962e-21)
(0.65266 0.374054 -1.65554e-21)
(4.18429 -0.384765 2.36815e-19)
(0.388724 0.422962 6.37998e-22)
(2.7374 1.95199 2.44524e-20)
(0.155114 0.195244 -7.82625e-22)
(4.51875 -0.0295367 -1.01566e-19)
(4.75251 -0.41419 -4.94922e-19)
(4.62779 -0.441746 2.50374e-19)
(0.584786 0.25235 3.78874e-21)
(0.317623 0.358514 4.22913e-21)
(4.61121 -0.380285 -9.38226e-20)
(3.84655 -0.350996 8.63534e-21)
(0.227609 -0.109853 -6.24006e-22)
(0.187982 0.412561 2.13552e-22)
(0.744308 0.867425 5.17373e-20)
(4.71213 -0.428414 -3.21148e-19)
(1.20067 0.894792 -5.36712e-21)
(0.812246 0.968805 5.15403e-21)
(3.83372 -0.324357 4.68587e-19)
(4.73527 -0.370136 2.92477e-19)
(4.25662 -0.375422 2.15932e-20)
(1.24659 0.757513 3.06626e-20)
(3.5528 -0.0552738 5.30142e-20)
(1.93994 0.787491 3.42144e-22)
(0.472351 0.432815 1.30235e-21)
(0.3185 -0.0550119 -1.16831e-22)
(3.67709 -0.164691 -1.03295e-19)
(1.90091 1.56071 5.51525e-20)
(2.10761 1.40713 3.62276e-21)
(3.18756 1.3053 2.33703e-20)
(1.42481 1.20726 -3.80479e-21)
(2.38534 1.44023 1.79489e-21)
(3.43937 1.19516 -1.82711e-20)
(3.70089 1.05066 -2.03289e-20)
(2.14729 0.745749 3.48842e-21)
(1.6139 1.27908 2.17267e-20)
(2.65995 1.43239 1.00656e-20)
(1.93294 1.76192 2.79041e-20)
(3.91002 0.846573 2.60469e-19)
(1.17345 1.01424 8.31256e-21)
(0.755023 0.479784 -3.8281e-21)
(4.16357 0.730639 -2.3993e-19)
(1.28802 1.10427 1.68783e-20)
(3.86247 0.574777 -1.45649e-19)
(1.84314 1.34857 -1.35066e-20)
(2.9266 1.38478 -7.89569e-21)
(3.89202 0.339783 -8.69072e-21)
(3.31272 0.903246 1.67078e-21)
(2.36376 0.67375 2.88896e-21)
(3.40257 0.070809 5.92386e-20)
(3.77531 -0.231727 -1.34663e-19)
(1.39564 0.789197 -8.67674e-21)
(3.02166 0.351866 -1.64249e-20)
(3.82605 0.822173 -7.27961e-20)
(1.74339 0.802228 -1.08071e-20)
(1.56278 0.804566 -7.65896e-21)
(3.98517 0.949135 -1.396e-19)
(3.16289 0.632636 3.4552e-20)
(4.30098 0.510086 -1.32671e-19)
(2.18077 1.64847 -7.37464e-21)
(3.25072 1.58113 -1.22102e-19)
(4.2219 0.396015 -3.55593e-20)
(4.41119 0.321634 -4.11066e-19)
(0.870587 1.05783 5.3225e-21)
(2.46436 1.6992 5.5649e-21)
(1.37309 1.53131 -9.50291e-20)
(3.52403 1.57945 2.12841e-20)
(0.32596 0.42615 2.47289e-22)
(4.07822 0.602265 2.44098e-19)
(0.998866 1.19618 -1.17323e-20)
(4.31631 0.569565 -2.5755e-19)
(0.0761034 0.351494 -3.34076e-23)
(1.16181 1.35416 3.01599e-20)
(3.38028 1.76341 -1.44114e-19)
(4.62281 -0.40505 -1.31597e-19)
(1.10907 0.710257 2.18022e-20)
(0.158518 0.386572 4.9011e-23)
(0.612923 0.526229 1.64215e-22)
(1.91594 1.9177 6.56814e-20)
(3.75993 0.571694 -1.40123e-20)
(3.00069 1.66172 3.34123e-20)
(2.92415 0.747545 2.79816e-20)
(2.68256 0.844571 2.92166e-21)
(4.7702 -0.389115 -5.45007e-19)
(0.512716 0.163753 1.14698e-20)
(4.66242 -0.0912439 1.1728e-18)
(3.58714 0.333783 1.94841e-20)
(1.03121 1.07211 5.08851e-20)
(1.63891 1.74298 -2.33108e-20)
(4.33775 -0.082032 -3.50941e-19)
(0.777704 0.762766 1.85406e-20)
(4.63574 -0.133072 7.20427e-20)
(0.385805 0.556351 5.08282e-22)
(4.63996 -0.371899 2.28733e-19)
(2.2896 1.18794 1.25194e-21)
(4.69504 -0.190822 5.05863e-19)
(4.36047 -0.282305 -3.09635e-19)
(0.33133 0.497006 8.55162e-22)
(3.64055 1.34144 2.16435e-19)
(2.73868 1.70257 5.20898e-21)
(4.23677 -0.362435 -2.61725e-19)
(3.04662 2.04956 -1.94415e-20)
(4.72425 -0.30563 -9.32561e-20)
(0.987918 0.648264 -4.37812e-21)
(3.72903 1.29316 1.67011e-19)
(4.05893 -0.0455825 1.2354e-19)
(1.36417 0.940525 1.69213e-20)
(4.47563 0.326612 9.25315e-19)
(4.28817 -0.388307 -2.34988e-19)
(4.09116 0.218639 -1.14908e-19)
(4.23309 -0.260224 1.75869e-19)
(4.59028 0.0625674 -1.64085e-18)
(4.52704 -0.371647 3.02037e-19)
(0.685 0.761139 -1.54966e-20)
(0.0139079 0.0949905 8.32894e-23)
(1.15508 1.13402 -6.04969e-22)
(4.53651 -0.215658 -2.67355e-19)
(2.85415 2.12729 -1.73642e-20)
(2.48375 1.93935 3.07733e-21)
(0.541406 0.583826 5.83937e-21)
(2.80877 0.470878 1.03445e-20)
(0.244397 0.0751359 -1.69921e-22)
(3.19905 1.83304 4.86708e-20)
(3.94678 -0.0684855 -4.36633e-20)
(4.54658 -0.0469605 -6.30119e-19)
(0.372884 0.442108 2.33463e-22)
(4.75347 -0.355031 7.70719e-20)
(0.567829 0.714102 1.97377e-20)
(0.759603 0.917897 -4.7636e-20)
(4.73049 -0.372873 -2.29498e-19)
(4.2082 0.464041 9.25407e-20)
(4.66332 -0.152597 -7.97252e-19)
(4.44674 0.170383 9.38032e-20)
(0.508962 0.456604 1.34081e-21)
(0.106932 0.379332 2.65493e-22)
(2.1819 2.05273 -3.85766e-20)
(3.74281 1.08662 1.07745e-19)
(4.68724 -0.370792 1.35531e-20)
(0.765202 0.861621 4.95959e-20)
(1.64503 1.45306 -2.14633e-20)
(0.488311 0.608353 4.0217e-20)
(4.66608 -0.414324 1.88486e-19)
(1.38731 1.07138 -2.04192e-20)
(0.211035 0.407604 2.61115e-21)
(4.29072 -0.435973 -1.98873e-20)
(0.193758 0.364076 2.57367e-21)
(4.50921 -0.435725 -7.60697e-20)
(4.00478 1.02264 -2.10065e-21)
(3.4833 1.46458 1.44495e-19)
(3.93907 0.384727 -7.65717e-20)
(0.220786 0.180062 -1.1136e-21)
(3.76138 0.179097 -5.87211e-20)
(0.454591 0.587338 -6.31812e-21)
(4.75639 -0.416881 -4.65117e-19)
(4.5681 0.0979857 9.36701e-19)
(4.22935 -0.10798 6.99454e-20)
(0.0636179 0.155794 5.23981e-22)
(0.89644 0.856386 -5.18236e-20)
(1.55684 0.957253 5.36939e-21)
(0.4781 0.516268 -9.82917e-22)
(0.238302 0.40013 6.01136e-23)
(0.876009 0.570049 4.06519e-21)
(0.292475 0.03868 -1.454e-22)
(0.600399 0.541117 1.1257e-20)
(0.420968 0.202425 -6.26926e-21)
(1.21963 1.28044 -9.66637e-20)
(0.274598 0.451401 3.05089e-23)
(4.54117 -0.408838 -5.94683e-20)
(0.297663 0.392273 -2.39321e-22)
(1.42399 1.33551 1.06965e-20)
(4.70915 -0.294258 8.78411e-19)
(0.941116 1.09759 -5.03762e-20)
(0.458301 0.448415 -3.69346e-20)
(4.41669 -0.39504 2.61931e-19)
(0.2706 0.397813 -1.89851e-22)
(4.55693 -0.342379 2.71282e-19)
(0.0549623 0.286299 1.00379e-21)
(0.696451 0.573241 -1.95542e-20)
(4.2689 -0.378222 -3.32948e-19)
(0.240726 0.430431 -2.67254e-22)
(4.20408 -0.35228 -2.12646e-20)
(4.68644 -0.380782 4.94512e-21)
(2.80499 1.10207 3.31935e-20)
(0.328246 0.459901 8.66059e-23)
(0.511609 0.559799 1.7889e-22)
(0.188272 -0.0372506 -5.86003e-23)
(3.87118 1.19819 -2.95094e-19)
(4.14151 -0.383292 8.28737e-20)
(1.65733 1.61072 -9.53829e-20)
(4.66817 -0.353064 7.70394e-20)
(0.044747 -0.00868338 -2.46508e-22)
(2.64396 2.15148 1.12548e-20)
(0.108379 -0.0670809 -6.26572e-22)
(1.58229 1.1089 -1.7381e-20)
(4.07896 -0.454147 -1.39263e-19)
(3.91465 0.0430213 -1.10957e-19)
(4.70393 -0.342072 -1.97291e-19)
(4.4272 0.245637 3.95335e-19)
(0.0589912 -0.0390457 1.09327e-21)
(4.71885 -0.346476 2.80388e-19)
(0.413819 0.536437 4.87194e-22)
(0.297242 0.465548 -1.00587e-20)
(4.72258 -0.35497 1.42711e-20)
(4.59829 -0.330339 1.29244e-21)
(0.294318 0.437185 6.89853e-23)
(3.96533 -0.253361 -2.64438e-19)
(1.75358 0.973955 3.99825e-21)
(0.55383 0.419367 2.14228e-20)
(2.54787 1.16068 5.23369e-21)
(4.76494 -0.419895 2.92333e-19)
(0.45553 0.468023 -3.26054e-22)
(4.1542 0.821301 5.02612e-20)
(4.71227 -0.366387 -3.5358e-23)
(4.54826 -0.345747 -4.05891e-20)
(4.67143 -0.337902 -2.89596e-20)
(4.51888 -0.441497 -3.18965e-19)
(0.202359 0.406097 1.87476e-22)
(4.32757 0.245073 -1.72534e-19)
(0.113278 0.348726 -9.382e-22)
(4.01442 0.941336 3.8439e-20)
(4.71673 -0.39792 7.52539e-20)
(4.44921 -0.356497 1.62458e-20)
(4.25048 -0.467577 1.61852e-19)
(0.641775 0.728446 -6.43495e-20)
(4.67292 -0.37847 -8.55669e-21)
(1.28048 1.22587 -7.90523e-21)
(1.79092 1.15035 -8.35406e-21)
(0.533855 0.515866 -5.13205e-22)
(4.27642 0.239305 6.08902e-20)
(0.329763 0.379084 -3.29091e-22)
(0.363667 -0.0305208 -6.2752e-22)
(0.358798 0.0579982 3.35553e-22)
(1.3975 1.43898 1.01534e-19)
(3.22198 1.92943 1.5215e-19)
(0.288711 0.14396 5.56211e-22)
(4.61206 -0.336786 7.80103e-20)
(0.374208 0.362399 -8.16422e-23)
(0.183591 -0.112391 -1.30838e-21)
(0.902583 0.977937 -1.31842e-21)
(1.97315 0.980025 2.24389e-21)
(3.87564 1.18997 -6.41472e-21)
(4.69115 -0.420446 1.92264e-19)
(0.392852 0.476204 5.61212e-20)
(4.1645 -0.333341 -8.94415e-20)
(4.60727 -0.384494 -2.94258e-21)
(0.0251341 0.022714 -3.12335e-22)
(3.73803 1.40211 -7.90249e-20)
(1.02464 0.942402 2.95962e-20)
(0.66911 0.665139 2.45038e-20)
(4.46004 -0.322853 -1.91518e-20)
(4.66576 -0.42724 -2.57369e-21)
(0.407488 -0.0123041 2.2421e-22)
(2.58367 0.582648 7.79353e-21)
(0.221457 0.426544 1.71338e-21)
(2.42296 2.12824 5.42866e-21)
(4.28249 0.0847159 -1.83097e-19)
(4.10332 -0.379409 -4.11064e-20)
(0.147092 -0.0914787 -2.74896e-22)
(0.392319 0.469234 -5.20641e-22)
(4.74366 -0.252512 -9.83216e-19)
(0.390759 0.333803 5.03191e-22)
(4.2296 0.100173 1.38748e-19)
(3.88411 0.119329 -6.84718e-20)
(0.134137 0.127795 4.05876e-22)
(2.03265 1.18109 -1.76172e-21)
(0.545868 0.482044 7.78344e-22)
(4.32527 -0.35734 -9.37314e-21)
(4.35149 -0.447389 -7.11007e-20)
(0.174383 0.409117 1.95357e-22)
(4.5294 -0.392961 -3.91223e-22)
(0.478459 0.303394 -6.64658e-22)
(0.0963729 0.285562 -1.09938e-21)
(4.03213 -0.380219 1.92675e-21)
(0.44285 0.108576 -7.36043e-22)
(0.446077 0.00293675 3.51533e-22)
(4.679 -0.400747 1.05265e-20)
(4.63529 -0.260288 2.36319e-19)
(0.203617 0.276042 -3.54639e-21)
(0.140503 -0.0731096 -4.09333e-22)
(0.057145 -0.0273424 -2.44815e-22)
(0.495673 0.0433655 2.37431e-22)
(0.0395173 0.06738 2.00183e-23)
(0.1507 0.402412 -4.743e-22)
(0.247501 0.448207 1.02492e-21)
(0.425712 0.441438 -8.3104e-23)
(0.0146904 0.0976673 3.17729e-22)
(0.0173635 0.0575678 -5.29131e-22)
(0.309276 0.491695 -1.30278e-21)
(0.263728 0.260499 1.07462e-21)
(0.007305 0.247103 1.21394e-22)
(0.578014 0.504123 -1.10861e-21)
(4.19489 -0.3797 -5.37613e-20)
(0.475735 0.0202036 8.50746e-22)
(4.48273 -0.455859 8.45756e-21)
(0.0175847 0.142089 -1.53742e-22)
(4.42632 -0.405974 -1.60336e-21)
(4.22675 -0.369363 2.42096e-20)
(3.79529 -0.391213 -2.05385e-20)
(4.01253 -0.466563 -4.10266e-21)
(4.74781 -0.425634 -2.06047e-19)
(0.232969 -0.0580718 3.7597e-22)
(0.380973 0.0135275 -1.31444e-21)
(0.0969661 -0.0476211 -1.14101e-22)
(0.283978 0.410482 8.93958e-22)
(0.0659458 0.0386529 -1.00306e-23)
(0.496611 0.492095 5.30719e-22)
(0.0868829 0.120513 -1.07257e-22)
(0.127734 0.390306 -2.76528e-22)
(0.256701 0.37092 -1.13453e-20)
(4.40744 -0.162077 -1.99677e-20)
(0.134859 0.396214 -7.03862e-22)
(4.05758 -0.387721 6.04393e-20)
(0.310733 0.401904 -3.25677e-22)
(0.104896 0.37241 3.98423e-22)
(3.84992 -0.508186 -3.41379e-20)
(3.5987 -0.413409 -6.46157e-20)
(0.566199 0.549859 4.8803e-21)
(0.0111731 0.189862 -6.43336e-22)
(0.106927 0.207655 3.06042e-23)
(0.0226794 0.216916 8.04484e-23)
(0.32839 -0.00392628 3.34243e-22)
(0.211888 0.41686 -1.34798e-22)
(0.00463471 0.234294 8.87207e-22)
(0.351733 0.41145 -2.06573e-22)
(4.36596 -0.366863 -1.57438e-20)
(0.332441 0.233001 -2.06189e-21)
(4.59308 -0.356791 8.93126e-21)
(4.09831 -0.373012 8.3945e-20)
(4.2964 -0.421883 -7.41266e-22)
(4.1499 -0.445571 6.7976e-20)
(3.96713 -0.378825 -3.76628e-20)
(4.53797 -0.404961 -2.30549e-20)
(4.26179 -0.391758 -5.34156e-20)
(1.08863 1.22918 2.74823e-21)
(0.559539 0.665641 -8.42068e-21)
(0.23422 -0.00349082 3.71543e-22)
(0.180264 -0.0870118 -3.90305e-22)
(4.61155 -0.399704 3.24139e-20)
(0.276634 -0.0321187 -1.07391e-21)
(3.87683 -0.475129 -1.62109e-19)
(0.00874733 0.257666 -2.31922e-23)
(0.18415 0.105742 -1.0183e-22)
(0.0779417 0.344233 -1.3944e-22)
(0.364462 0.127857 -5.87127e-22)
(0.413476 0.503197 1.03885e-21)
(4.74516 -0.397923 4.11415e-19)
(0.0707051 0.222774 1.07382e-22)
(4.49204 -0.36017 3.76791e-21)
(4.36907 -0.303441 -1.05051e-19)
(0.550569 0.609847 -6.81136e-22)
(0.179873 0.410738 8.93459e-23)
(0.0439811 0.287913 2.17311e-22)
(3.58625 -0.396786 8.31799e-20)
(0.0633364 0.319716 -3.55124e-22)
(0.1559 0.40376 8.91079e-23)
(0.340474 0.480514 -1.09543e-21)
(0.101222 0.0139935 2.38036e-23)
(0.332311 0.475236 4.33841e-21)
(0.110597 0.0802217 4.62918e-23)
(4.5894 -0.41734 1.81598e-19)
(0.169653 -0.114382 -1.72118e-23)
(0.200708 0.415093 2.08877e-22)
(0.145543 0.0597824 -1.48285e-22)
(0.533384 0.100755 -5.77375e-21)
(3.6449 -0.449799 -1.24984e-19)
(0.650187 0.632851 7.219e-21)
(0.627851 0.558634 -1.42331e-20)
(3.33151 -0.392507 -1.23033e-19)
(0.429762 0.0243792 -3.89619e-22)
(0.42848 -0.376542 1.19752e-21)
(0.451542 -0.364438 -1.44e-23)
(0.504158 -0.36882 -7.81009e-22)
(0.541561 -0.372746 4.05562e-22)
(0.581463 -0.376664 -4.66288e-22)
(0.613863 -0.379306 -1.46698e-21)
(0.645064 -0.381422 3.49273e-22)
(0.671588 -0.383214 4.4906e-22)
(0.696929 -0.38358 4.75433e-22)
(0.46178 -0.363355 -8.1188e-22)
(0.484597 -0.356725 -7.43637e-23)
(0.534321 -0.360091 6.66324e-22)
(0.571619 -0.364912 -1.31083e-21)
(0.609324 -0.368914 1.14868e-21)
(0.640938 -0.372285 2.0072e-21)
(0.670341 -0.374819 -1.27094e-21)
(0.695701 -0.376806 1.37353e-21)
(0.718094 -0.377652 -6.60594e-22)
(0.496486 -0.346491 2.30136e-21)
(0.516079 -0.342993 6.52603e-22)
(0.56338 -0.346678 -1.47831e-21)
(0.5999 -0.352561 7.61647e-22)
(0.635845 -0.35711 -1.98733e-21)
(0.666471 -0.361188 -3.16812e-22)
(0.694355 -0.364322 -2.58499e-23)
(0.718376 -0.366804 -6.77007e-22)
(0.739329 -0.368378 -1.15259e-21)
(0.528284 -0.327691 -1.14048e-21)
(0.545078 -0.325312 6.05124e-22)
(0.59049 -0.329603 1.19445e-21)
(0.626248 -0.336411 5.82197e-23)
(0.660729 -0.341642 8.94865e-22)
(0.690382 -0.346396 2.73701e-21)
(0.716993 -0.350111 -1.66627e-21)
(0.739929 -0.353058 2.77052e-22)
(0.759995 -0.355056 6.74144e-22)
(0.557236 -0.306386 1.26237e-22)
(0.571536 -0.304302 -2.64649e-22)
(0.615151 -0.30935 8.9522e-23)
(0.650241 -0.316778 -6.08913e-22)
(0.683566 -0.3227 2.82113e-22)
(0.712418 -0.328064 -6.22456e-22)
(0.738094 -0.332325 2.932e-22)
(0.760317 -0.335723 1.19393e-21)
(0.779997 -0.337908 2.76334e-22)
(0.582954 -0.282512 1.96749e-22)
(0.595137 -0.280338 -1.40265e-21)
(0.637056 -0.286332 1.284e-22)
(0.671662 -0.294007 1.46928e-21)
(0.704118 -0.300509 -4.83812e-22)
(0.732375 -0.306363 -7.04298e-22)
(0.757414 -0.311128 -2.34905e-22)
(0.779217 -0.314984 -2.11056e-21)
(0.798577 -0.317783 1.15361e-21)
(0.603994 -0.257491 1.72415e-22)
(0.615652 -0.254083 1.05225e-21)
(0.656114 -0.26098 2.03744e-22)
(0.690459 -0.268369 -7.39977e-22)
(0.722273 -0.275223 1.596e-22)
(0.750131 -0.281377 -3.10705e-22)
(0.774788 -0.286519 5.8018e-22)
(0.796382 -0.29073 -5.52035e-22)
(0.815646 -0.293955 -3.71684e-22)
(0.619143 -0.231165 -4.99216e-22)
(0.633611 -0.225687 9.82146e-22)
(0.67269 -0.233237 -2.11182e-22)
(0.706758 -0.23988 4.25456e-22)
(0.738012 -0.24685 -3.42031e-22)
(0.765614 -0.253107 1.03702e-21)
(0.79011 -0.258466 1.42011e-21)
(0.811713 -0.262958 -1.88295e-21)
(0.831203 -0.266041 5.60838e-22)
(0.62946 -0.200063 -9.2702e-23)
(0.649689 -0.193858 2.02912e-22)
(0.687062 -0.202162 1.18462e-22)
(0.72057 -0.208193 -4.87005e-22)
(0.751264 -0.215229 -1.41109e-22)
(0.778727 -0.221449 -4.2631e-22)
(0.803254 -0.226846 -2.36463e-22)
(0.825098 -0.231327 1.97105e-21)
(0.844772 -0.234783 -2.13887e-22)
(0.637113 -0.162391 2.09666e-22)
(0.663315 -0.157484 -8.16268e-22)
(0.698596 -0.167021 -4.29977e-22)
(0.731452 -0.173093 1.38962e-22)
(0.761763 -0.180283 -1.63332e-22)
(0.789306 -0.186349 6.97056e-22)
(0.81411 -0.191533 1.03616e-22)
(0.836387 -0.195695 1.34903e-21)
(0.856536 -0.198647 -6.93725e-23)
(0.643401 -0.120227 -1.8758e-22)
(0.672978 -0.117688 -4.20909e-23)
(0.706101 -0.12863 2.85391e-22)
(0.738744 -0.135129 5.00808e-22)
(0.769164 -0.142341 -1.53516e-22)
(0.797164 -0.148015 -1.6301e-22)
(0.822589 -0.152662 -4.41147e-22)
(0.845651 -0.156112 -1.60099e-21)
(0.866588 -0.158341 -2.47034e-22)
(0.648335 -0.0774501 3.64325e-22)
(0.677428 -0.0777505 7.60361e-22)
(0.709075 -0.0891635 -5.76019e-22)
(0.742231 -0.0955564 3.21832e-22)
(0.773344 -0.102138 -5.9118e-23)
(0.802173 -0.106934 1.00773e-21)
(0.828483 -0.11063 9.8919e-23)
(0.852482 -0.113034 -8.16953e-22)
(0.874463 -0.115034 -5.8838e-22)
(0.649525 -0.0376349 9.60095e-23)
(0.67651 -0.0401453 -1.60618e-22)
(0.708313 -0.0502565 3.21737e-23)
(0.742452 -0.0554116 2.11846e-22)
(0.774582 -0.0603583 -1.42868e-22)
(0.80442 -0.0635816 -1.86054e-22)
(0.831718 -0.0657213 -3.42872e-22)
(0.856665 -0.0667458 6.35553e-22)
(0.879833 -0.066923 -3.71899e-22)
(0.644725 -0.000859381 -1.38211e-22)
(0.672104 -0.00409442 -1.0606e-23)
(0.704995 -0.0118215 -1.1714e-22)
(0.740156 -0.0148231 3.36027e-22)
(0.773284 -0.017321 -6.13918e-23)
(0.804092 -0.0183784 -3.57932e-23)
(0.832347 -0.0184702 -2.41043e-22)
(0.85824 -0.0176503 2.93369e-23)
(0.882079 -0.0156116 2.21408e-22)
(0.634574 0.0351486 4.62087e-22)
(0.664795 0.0318929 -5.83255e-23)
(0.699531 0.0270913 6.549e-22)
(0.735668 0.0266476 -9.56055e-22)
(0.769615 0.0269768 1.07721e-22)
(0.801227 0.0283901 3.47938e-22)
(0.830321 0.0306047 2.44808e-22)
(0.857122 0.0336103 3.50907e-22)
(0.881877 0.0375888 -1.23146e-21)
(0.618474 0.0727518 1.58766e-22)
(0.654428 0.0693761 -2.98121e-22)
(0.691709 0.0676399 -9.35057e-22)
(0.728777 0.069586 1.25842e-21)
(0.763371 0.0726199 4.29077e-22)
(0.795614 0.0764563 -2.27013e-22)
(0.825392 0.080963 -2.93514e-23)
(0.852879 0.0861579 9.38996e-22)
(0.878082 0.0917927 -4.03263e-22)
(0.59851 0.113073 8.95926e-22)
(0.63953 0.109709 -7.56002e-22)
(0.680431 0.11052 9.03622e-22)
(0.718677 0.114242 -6.10233e-22)
(0.753961 0.119475 -6.53725e-22)
(0.786801 0.125445 2.59913e-21)
(0.817195 0.132071 -1.71864e-21)
(0.845297 0.139401 -6.94183e-22)
(0.871452 0.146541 1.67333e-22)
(0.578026 0.153758 -1.15855e-21)
(0.620233 0.151333 1.04002e-21)
(0.664656 0.154642 -4.82522e-22)
(0.704487 0.159808 7.55235e-22)
(0.740746 0.166842 1.73636e-22)
(0.774342 0.174701 -2.06565e-21)
(0.805427 0.183323 1.87892e-22)
(0.834134 0.192673 -9.80103e-22)
(0.860853 0.202173 -1.24733e-21)
(0.557709 0.192115 -2.15415e-22)
(0.597883 0.191334 -2.33943e-22)
(0.64458 0.197762 -5.19556e-22)
(0.686023 0.204698 -2.15743e-21)
(0.723462 0.213525 5.3571e-22)
(0.757998 0.223193 8.99678e-22)
(0.789923 0.233686 1.03845e-21)
(0.819431 0.244829 1.29169e-21)
(0.846846 0.256426 -5.90117e-22)
(0.536678 0.227648 1.86107e-22)
(0.573498 0.228484 6.73692e-23)
(0.621156 0.238329 1.78639e-21)
(0.663728 0.247564 -1.50578e-22)
(0.70226 0.2584 8.81862e-22)
(0.737748 0.269984 -5.98204e-22)
(0.770528 0.282373 -4.22768e-21)
(0.800807 0.295359 -6.51064e-22)
(0.828954 0.30869 -7.80958e-23)
(0.514296 0.260833 4.1803e-22)
(0.547326 0.26273 -2.28186e-21)
(0.595137 0.275674 1.40781e-21)
(0.63819 0.287568 -1.71787e-21)
(0.677537 0.300623 1.29943e-21)
(0.713852 0.314288 -2.84421e-22)
(0.747457 0.328681 1.2096e-21)
(0.778561 0.343578 1.08455e-21)
(0.80721 0.359386 -3.56286e-22)
(0.490624 0.291026 8.7693e-22)
(0.519324 0.293847 2.14746e-21)
(0.567015 0.309349 -3.78485e-21)
(0.609908 0.324177 4.89988e-22)
(0.649677 0.339577 -3.49302e-21)
(0.686572 0.355431 1.01628e-21)
(0.720916 0.371859 3.93898e-22)
(0.753077 0.388614 -5.66423e-22)
(0.782163 0.407497 -2.87965e-22)
(0.465774 0.316108 -7.72159e-22)
(0.489904 0.321619 -1.79922e-21)
(0.537475 0.339321 2.01853e-21)
(0.579559 0.357357 2.14936e-21)
(0.619258 0.375125 2.37872e-21)
(0.656339 0.393174 -1.71208e-22)
(0.69114 0.411531 -7.72632e-22)
(0.724234 0.430211 2.29425e-21)
(0.754049 0.451491 -6.0137e-21)
(0.439189 0.335356 1.23686e-22)
(0.459094 0.34566 1.01632e-21)
(0.505892 0.365178 -5.63206e-22)
(0.546434 0.386355 1.05661e-21)
(0.585512 0.406367 -2.08967e-21)
(0.622422 0.426676 -6.0198e-22)
(0.657466 0.446942 3.23128e-21)
(0.691868 0.467671 -3.33664e-21)
(0.723255 0.493695 3.91335e-21)
(0.410919 0.350533 1.67121e-22)
(0.429589 0.369815 1.43121e-22)
(0.475692 0.392307 6.43032e-22)
(0.51473 0.415283 -1.2127e-21)
(0.552735 0.436711 3.1904e-22)
(0.588427 0.458257 -1.72894e-21)
(0.62272 0.479256 1.21765e-21)
(0.659117 0.499945 -1.05118e-21)
(0.692682 0.527838 -8.80918e-23)
(0.33386 0.292394 -2.82553e-22)
(0.326906 0.290239 -3.46049e-22)
(0.319586 0.287467 -1.09077e-21)
(0.311486 0.284256 1.54436e-21)
(0.302588 0.280557 -1.17114e-21)
(0.292868 0.276331 8.90076e-22)
(0.282317 0.27152 3.49028e-22)
(0.270944 0.266058 -9.4409e-23)
(0.258778 0.259876 -6.52964e-22)
(0.245871 0.252898 -2.7753e-22)
(0.232301 0.245051 3.06596e-22)
(0.218169 0.236256 -3.41156e-22)
(0.2036 0.226441 9.37344e-22)
(0.18874 0.215539 -2.36783e-21)
(0.173738 0.203486 4.11766e-21)
(0.158756 0.19024 -4.65743e-21)
(0.143957 0.175782 4.15253e-21)
(0.129492 0.160117 -1.87715e-21)
(0.115496 0.143297 -6.12414e-22)
(0.102076 0.125434 6.44475e-22)
(0.0892804 0.106704 -2.22516e-22)
(0.0770081 0.0873136 4.85277e-22)
(0.0650964 0.0677564 3.09128e-23)
(0.0534023 0.048416 -6.75474e-22)
(0.0430037 0.0291561 5.3209e-22)
(0.036056 0.00953649 -2.85138e-22)
(0.033521 -0.0109536 3.72991e-22)
(0.0355341 -0.0324607 2.95317e-22)
(0.0407943 -0.0552318 -3.58404e-22)
(0.0467741 -0.0792207 9.57225e-24)
(0.052846 -0.103806 -3.19174e-22)
(0.0598105 -0.12839 2.91406e-22)
(0.0681115 -0.152729 5.52213e-22)
(0.0778205 -0.176528 -4.51971e-22)
(0.0888704 -0.199417 6.45427e-22)
(0.10116 -0.221182 -1.07113e-21)
(0.114522 -0.24162 8.64126e-23)
(0.128769 -0.260577 2.31043e-22)
(0.143717 -0.277945 -3.51002e-22)
(0.159192 -0.293656 7.85051e-22)
(0.175045 -0.307692 -4.46887e-22)
(0.19115 -0.320072 -1.89516e-21)
(0.207391 -0.330843 3.87086e-21)
(0.223671 -0.340084 -4.1168e-21)
(0.239903 -0.347911 3.55486e-21)
(0.255989 -0.354447 -2.08568e-21)
(0.271825 -0.359825 1.06248e-21)
(0.287305 -0.364198 -3.69797e-22)
(0.302307 -0.367704 3.34645e-22)
(0.316714 -0.370476 -3.65153e-22)
(0.33042 -0.372641 -4.9902e-22)
(0.343332 -0.374306 -1.34382e-22)
(0.355401 -0.375561 2.75622e-22)
(0.366605 -0.376484 6.52071e-22)
(0.376923 -0.377139 -9.74771e-22)
(0.386359 -0.377579 1.2525e-21)
(0.394944 -0.377839 -8.47818e-22)
(0.402719 -0.377934 -2.90452e-22)
(0.409791 -0.377933 -2.03265e-22)
(0.350089 0.259445 -1.39478e-23)
(0.343834 0.257194 1.36433e-23)
(0.337105 0.254825 -5.70194e-23)
(0.329785 0.252245 1.29282e-22)
(0.321833 0.249473 -4.12575e-25)
(0.313233 0.246438 -2.99943e-22)
(0.303994 0.24303 5.32794e-23)
(0.29411 0.239184 6.98327e-24)
(0.283567 0.234825 1.93717e-22)
(0.27237 0.229865 -5.22411e-23)
(0.260542 0.224208 -2.65383e-23)
(0.248129 0.217752 -1.27709e-22)
(0.235204 0.210393 2.25979e-22)
(0.221854 0.202034 -1.85841e-22)
(0.208195 0.192586 1.94623e-22)
(0.194354 0.181975 -2.00629e-23)
(0.180465 0.170154 -1.08955e-22)
(0.166669 0.157094 1.67646e-22)
(0.153095 0.142794 1.19302e-22)
(0.139861 0.127273 2.84364e-23)
(0.127073 0.110558 6.74962e-24)
(0.114838 0.0926434 -3.05359e-22)
(0.103401 0.0734473 2.55045e-22)
(0.0932378 0.0526686 -9.40251e-23)
(0.0849488 0.0301284 3.59786e-22)
(0.0791071 0.00601665 -1.49526e-22)
(0.0759007 -0.0191241 -1.72119e-23)
(0.0755025 -0.0445875 7.30477e-23)
(0.0779618 -0.0697123 1.29333e-23)
(0.0825423 -0.0942439 -4.32961e-24)
(0.0885628 -0.118317 -6.0046e-23)
(0.095945 -0.141985 2.33569e-23)
(0.104765 -0.165087 -2.61728e-23)
(0.114921 -0.187442 -5.74808e-23)
(0.126284 -0.208862 -3.57718e-23)
(0.138734 -0.229182 4.44396e-23)
(0.152131 -0.248261 1.03925e-22)
(0.166319 -0.26599 -2.20772e-22)
(0.181146 -0.282291 2.85637e-24)
(0.196462 -0.297115 -4.9263e-23)
(0.212128 -0.310435 2.56742e-23)
(0.228013 -0.322243 1.64718e-22)
(0.243992 -0.332552 -3.74279e-22)
(0.259941 -0.341391 -2.30681e-22)
(0.275733 -0.348812 4.34041e-22)
(0.291241 -0.354889 -3.73985e-22)
(0.306341 -0.35972 2.49436e-22)
(0.320909 -0.363424 -3.19988e-23)
(0.33484 -0.366137 -1.27751e-22)
(0.348045 -0.368008 1.97596e-23)
(0.360462 -0.36919 2.50711e-22)
(0.372052 -0.369813 -5.96946e-23)
(0.382892 -0.369965 8.21304e-23)
(0.392967 -0.369768 -3.59935e-22)
(0.402256 -0.369348 5.35071e-23)
(0.410839 -0.36877 1.40748e-22)
(0.418777 -0.36807 -1.05259e-22)
(0.426144 -0.367265 2.87333e-23)
(0.432999 -0.366482 -1.96786e-23)
(0.406395 0.246795 -3.45238e-22)
(0.400062 0.244623 6.82887e-23)
(0.39327 0.242238 -2.99826e-22)
(0.385999 0.239624 -7.26102e-23)
(0.378222 0.236729 1.03785e-21)
(0.369918 0.233495 -3.24727e-22)
(0.361065 0.229875 -6.32498e-22)
(0.351645 0.225821 -5.32239e-24)
(0.341643 0.221275 3.80341e-22)
(0.331057 0.21617 -9.78817e-23)
(0.3199 0.210431 1.03425e-21)
(0.3082 0.203975 -1.22411e-21)
(0.296006 0.196715 1.1068e-21)
(0.283386 0.188563 -1.5014e-22)
(0.270427 0.179434 -9.73131e-22)
(0.257233 0.16925 2.94177e-22)
(0.243924 0.157944 1.15153e-21)
(0.230627 0.145459 -4.63835e-22)
(0.21748 0.13175 -1.09501e-22)
(0.204627 0.116774 2.09779e-23)
(0.192229 0.10049 -3.11916e-22)
(0.180476 0.0828417 7.77155e-23)
(0.169628 0.0637634 -7.75509e-22)
(0.160036 0.0432203 9.31859e-22)
(0.152162 0.0212679 -3.60682e-22)
(0.14652 -0.00188909 3.75024e-24)
(0.143455 -0.025914 5.02598e-23)
(0.143076 -0.0504046 -2.30782e-22)
(0.145218 -0.0748994 1.43709e-22)
(0.149458 -0.0990325 7.69532e-23)
(0.155398 -0.122656 1.77217e-22)
(0.162812 -0.145696 -1.80812e-22)
(0.171572 -0.168041 8.15486e-23)
(0.181557 -0.189556 1.15128e-22)
(0.192647 -0.210118 -3.74942e-22)
(0.204719 -0.229614 1.0526e-21)
(0.217646 -0.247942 -6.84759e-22)
(0.231293 -0.265015 -1.55847e-22)
(0.245525 -0.280771 -1.65222e-22)
(0.260209 -0.295164 -5.45151e-23)
(0.275214 -0.308171 -2.67008e-22)
(0.290409 -0.319785 -4.44789e-22)
(0.305668 -0.33002 1.09324e-21)
(0.32086 -0.338909 5.04579e-22)
(0.33586 -0.346505 -1.03861e-21)
(0.350545 -0.352882 -3.28621e-22)
(0.364801 -0.358131 1.06327e-21)
(0.378529 -0.362358 -1.22585e-21)
(0.391649 -0.365681 8.58874e-22)
(0.404105 -0.368219 -3.49937e-23)
(0.415865 -0.370089 3.358e-22)
(0.426888 -0.37141 5.68403e-23)
(0.437214 -0.372246 -5.67589e-22)
(0.446869 -0.372672 -2.76127e-22)
(0.45587 -0.372786 8.83777e-22)
(0.464262 -0.372647 -2.42371e-23)
(0.472083 -0.372304 -2.54275e-22)
(0.479378 -0.371803 7.64668e-23)
(0.486191 -0.37118 -2.88163e-22)
(0.445034 0.239686 -7.60996e-23)
(0.438711 0.237956 3.8072e-22)
(0.431963 0.236026 -1.83278e-22)
(0.424726 0.233822 1.39908e-22)
(0.416985 0.231315 -1.5463e-22)
(0.408722 0.228467 -6.82833e-24)
(0.399921 0.22523 -1.01822e-22)
(0.390574 0.221552 -2.65304e-22)
(0.380673 0.217371 1.77096e-22)
(0.370223 0.212618 2.30825e-22)
(0.359238 0.207216 1.75084e-22)
(0.347744 0.20108 -6.76024e-22)
(0.335784 0.194121 6.17583e-22)
(0.323418 0.186248 -1.36557e-22)
(0.310724 0.177369 8.32454e-23)
(0.2978 0.167398 -3.77805e-22)
(0.284762 0.156252 3.73025e-22)
(0.271744 0.143861 -1.58051e-22)
(0.258901 0.130161 -2.37704e-22)
(0.246404 0.115099 1.24916e-22)
(0.234449 0.0986314 -6.54245e-23)
(0.22326 0.0807248 -4.01172e-22)
(0.213102 0.0613681 2.55854e-22)
(0.204276 0.0405908 2.70053e-22)
(0.197108 0.0184972 -2.19439e-22)
(0.191898 -0.00470733 2.52956e-23)
(0.188862 -0.028719 2.5157e-22)
(0.1881 -0.0531789 -2.95789e-22)
(0.189581 -0.0777201 9.80996e-23)
(0.193135 -0.102033 -2.65673e-23)
(0.198543 -0.125903 1.24717e-22)
(0.20561 -0.149178 -2.93465e-22)
(0.214167 -0.171721 2.22675e-22)
(0.224054 -0.193406 -6.58791e-24)
(0.235112 -0.214118 -2.82237e-22)
(0.247192 -0.23375 1.09556e-22)
(0.260139 -0.252209 3.12889e-22)
(0.273801 -0.269414 -1.43286e-22)
(0.288031 -0.285301 -1.24809e-22)
(0.302679 -0.299825 2.26768e-22)
(0.317605 -0.312959 -6.83517e-23)
(0.332665 -0.324696 -8.39076e-23)
(0.347725 -0.335049 5.00927e-22)
(0.362654 -0.344049 -4.63943e-22)
(0.377327 -0.35175 1.97594e-22)
(0.391637 -0.358223 -3.29815e-23)
(0.405485 -0.363557 6.14355e-22)
(0.418795 -0.367853 -5.68052e-22)
(0.431507 -0.371218 2.35596e-22)
(0.443582 -0.37376 1.92542e-22)
(0.454973 -0.375613 2.0077e-22)
(0.465619 -0.376934 -2.7211e-22)
(0.475585 -0.377753 -6.06251e-23)
(0.484991 -0.37809 -8.26526e-23)
(0.49381 -0.378053 -1.32797e-22)
(0.502036 -0.377731 9.53075e-23)
(0.509708 -0.377176 -1.77062e-22)
(0.516863 -0.376433 3.60966e-22)
(0.523565 -0.375565 -1.01654e-22)
(0.494303 0.235691 -5.55875e-22)
(0.488048 0.233781 5.65721e-23)
(0.481302 0.23167 5.43304e-22)
(0.474041 0.229314 -3.90196e-22)
(0.466249 0.226671 1.0256e-22)
(0.457917 0.223697 3.41975e-22)
(0.449036 0.220343 -4.35352e-22)
(0.439605 0.216553 1.63791e-22)
(0.429627 0.212266 5.23625e-22)
(0.419115 0.207415 -1.80588e-22)
(0.408091 0.201925 -5.41075e-22)
(0.396585 0.195717 -1.78599e-22)
(0.384643 0.188706 4.62067e-22)
(0.372326 0.180804 4.13755e-22)