/*--------------------------------*- C++ -*----------------------------------*\
  =========                 |
  \\      /  F ield         | OpenFOAM: The Open Source CFD Toolbox
   \\    /   O peration     | Website:  https://openfoam.org
    \\  /    A nd           | Version:  10
     \\/     M anipulation  |
\*---------------------------------------------------------------------------*/
FoamFile
{
    format      ascii;
    class       volScalarField;
    location    "700";
    object      epsilon;
}
// * * * * * * * * * * * * * * * * * * * * * * * * * * * * * * * * * * * * * //

dimensions      [0 2 -3 0 0 0 0];

internalField   nonuniform List<scalar> 
10435
(
0.00792726
0.0116657
0.0112176
0.0115235
0.0445302
0.11826
0.00747112
0.00461151
0.00411614
0.0706875
0.0164774
0.0151409
0.0413876
0.0133625
0.0125218
0.00790531
0.013887
0.103624
0.00398732
0.00792467
0.0056923
0.00969745
0.0105574
0.00802917
0.0410314
0.00398645
0.00752163
0.0172274
0.00674649
0.090477
0.0223855
0.0202428
0.00428516
0.00688515
0.00714253
0.00898618
0.00905936
0.00818415
0.00227161
0.00531446
0.136482
0.0088374
0.011111
0.00983634
0.0119347
0.00682563
0.128864
0.00999331
0.00343108
0.00821524
0.00534752
0.0466356
0.00225
0.00500941
0.00263678
0.00598296
0.00925279
0.00889163
0.0123294
0.00730988
0.002679
0.0103149
0.00876583
0.0437232
0.0115146
0.0166742
0.0106431
0.0113422
0.00491773
0.00875423
0.00486392
0.00603574
0.00696162
0.0149228
0.0114916
0.0102135
0.00932395
0.00626562
0.0038382
0.0103813
0.00908583
0.00710468
0.00224797
0.00517807
0.00945927
0.00939402
0.00934392
0.0111914
0.010296
0.0094031
0.0124415
0.0140559
0.00683808
0.0098903
0.00972173
0.00883056
0.0151272
0.0116779
0.0129758
0.0200623
0.0109416
0.0851183
0.00953021
0.010307
0.0986913
0.010646
0.00678275
0.00865502
0.00973158
0.00931469
0.00772241
0.0702035
0.00760619
0.00836613
0.0189256
0.00909081
0.0208155
0.009391
0.0125162
0.0161803
0.0204062
0.00771077
0.00964445
0.00792799
0.0318393
0.00337548
0.0157333
0.00786512
0.029558
0.00723468
0.00800999
0.0242472
0.00643059
0.0114274
0.00697738
0.00244864
0.00783443
0.0122859
0.0111548
0.00852924
0.00812783
0.0162891
0.0092391
0.0247139
0.0102678
0.0114905
0.00776075
0.064383
0.0138225
0.0184808
0.00814343
0.0121779
0.00880746
0.0198257
0.0639079
0.00603047
0.0421283
0.0102189
0.0711535
0.0145059
0.0166987
0.0122839
0.0169705
0.011728
0.0103998
0.027618
0.00462942
0.0132964
0.0115843
0.0308717
0.0436965
0.00546329
0.00679126
0.0110879
0.0145875
0.0117394
0.00945378
0.0133951
0.00726808
0.00772916
0.0136724
0.110662
0.0172907
0.00315095
0.0165172
0.00888593
0.00891852
0.00588151
0.0535139
0.0327595
0.0181458
0.00230048
0.00671925
0.00815007
0.0552397
0.00531107
0.012543
0.00960927
0.0119901
0.00866393
0.0104735
0.0083654
0.0256734
0.00904199
0.0178474
0.0242033
0.0144318
0.012844
0.00913
0.0107406
0.00676329
0.0102414
0.022403
0.0125729
0.00752822
0.0132977
0.00938351
0.00363507
0.00402234
0.0128307
0.00697695
0.0139508
0.0103085
0.00996391
0.00505353
0.00682892
0.00305363
0.00999977
0.0299874
0.0099312
0.0130387
0.00551575
0.00350586
0.0123465
0.0079322
0.0139619
0.00964021
0.00480853
0.0100744
0.0289202
0.00926842
0.00422308
0.00429765
0.00573567
0.0203012
0.00398003
0.00892916
0.0046509
0.00521405
0.00993613
0.00490919
0.00982883
0.0530234
0.0111918
0.00513761
0.0394188
0.00455505
0.00557681
0.00545479
0.00879428
0.00617632
0.0400827
0.0040207
0.0103741
0.00864437
0.0133005
0.00892582
0.0164904
0.00289898
0.0269672
0.00704962
0.00409661
0.00464533
0.0322788
0.00458715
0.016461
0.00757477
0.0379389
0.00659177
0.003895
0.0498134
0.0130072
0.00823434
0.0105734
0.00927355
0.00301479
0.0607239
0.00264878
0.00532901
0.0072604
0.00925529
0.0185739
0.00906673
0.00431371
0.00230813
0.00476726
0.0119987
0.00816496
0.0310685
0.02491
0.0119882
0.0105362
0.00982979
0.00584938
0.0251136
0.0125637
0.0139613
0.0122537
0.0213795
0.00540217
0.00694085
0.00722319
0.00880441
0.0649505
0.00490645
0.00499103
0.00357694
0.0235073
0.0119939
0.0139493
0.110466
0.00785557
0.00892317
0.00235493
0.00370359
0.0287186
0.00519391
0.0122969
0.0118967
0.00825795
0.00572784
0.00806244
0.00539639
0.00898818
0.0154965
0.0096641
0.00524587
0.00529469
0.00603746
0.00654377
0.00572939
0.00603051
0.00269651
0.00674482
0.00650662
0.007306
0.0103139
0.00796753
0.00241064
0.00356179
0.00555582
0.027879
0.00721705
0.0162792
0.00352802
0.0031118
0.0402003
0.01499
0.00538996
0.0061465
0.00530807
0.00343203
0.00629513
0.00293105
0.00735346
0.00622237
0.0102125
0.0136472
0.00609838
0.00352632
0.00300766
0.00674655
0.0520038
0.00287437
0.00328584
0.00738953
0.00833094
0.00774578
0.0060278
0.00457322
0.00861068
0.00285825
0.00390522
0.0106014
0.00437537
0.00338938
0.0224481
0.031268
0.00328077
0.0128618
0.00583884
0.00966
0.00678076
0.00628831
0.00510913
0.0104839
0.00572653
0.0562821
0.00832503
0.00796789
0.00711969
0.00871902
0.00425617
0.00745223
0.00800429
0.00412844
0.0121242
0.00514744
0.0050907
0.00787002
0.00317221
0.00779207
0.0055723
0.00488289
0.00616536
0.0103764
0.0070657
0.0127761
0.00491155
0.00534577
0.00699738
0.00735552
0.0941292
0.00378074
0.00277119
0.0025953
0.00601596
1.02055e-05
9.64166e-06
9.04756e-06
8.45636e-06
7.89844e-06
7.3297e-06
6.72273e-06
6.03557e-06
5.21048e-06
1.06347e-05
9.96763e-06
9.24409e-06
8.54744e-06
7.89168e-06
7.24466e-06
6.57463e-06
5.856e-06
5.07312e-06
1.121e-05
1.0406e-05
9.54484e-06
8.73216e-06
7.97321e-06
7.23887e-06
6.5008e-06
5.74257e-06
4.96632e-06
1.20052e-05
1.10326e-05
1.00138e-05
9.06836e-06
8.19264e-06
7.35888e-06
6.54154e-06
5.72727e-06
4.91957e-06
1.31107e-05
1.19408e-05
1.07321e-05
9.626e-06
8.60992e-06
7.6562e-06
6.73968e-06
5.84597e-06
4.97109e-06
1.46612e-05
1.32564e-05
1.18081e-05
1.04978e-05
9.30391e-06
8.19767e-06
7.15229e-06
6.15127e-06
5.18682e-06
1.68731e-05
1.51563e-05
1.33909e-05
1.18115e-05
1.03846e-05
9.07752e-06
7.86036e-06
6.71541e-06
5.63636e-06
2.00956e-05
1.78866e-05
1.56885e-05
1.37487e-05
1.20108e-05
1.04333e-05
8.98104e-06
7.63549e-06
6.39425e-06
2.47447e-05
2.17735e-05
1.89955e-05
1.65746e-05
1.44189e-05
1.24718e-05
1.06912e-05
9.05444e-06
7.55877e-06
3.12418e-05
2.72506e-05
2.37385e-05
2.06849e-05
1.79667e-05
1.55109e-05
1.32675e-05
1.12066e-05
9.31592e-06
4.00642e-05
3.49274e-05
3.05494e-05
2.66758e-05
2.31998e-05
2.0041e-05
1.7146e-05
1.44776e-05
1.20169e-05
5.1812e-05
4.57349e-05
4.03878e-05
3.54503e-05
3.09476e-05
2.68157e-05
2.30054e-05
1.94751e-05
1.62063e-05
6.72855e-05
6.12318e-05
5.47405e-05
4.8373e-05
4.24571e-05
3.69736e-05
3.18802e-05
2.71291e-05
2.27106e-05
9.09529e-05
8.42572e-05
7.59009e-05
6.74556e-05
5.95527e-05
5.21879e-05
4.53029e-05
3.88327e-05
3.27766e-05
0.000128414
0.000118704
0.000107002
9.54563e-05
8.47645e-05
7.48133e-05
6.5464e-05
5.65948e-05
4.81573e-05
0.000185602
0.000168818
0.000151697
0.000135782
0.000121344
0.000107972
9.53582e-05
8.32947e-05
7.16969e-05
0.000265963
0.000237898
0.000213548
0.000192191
0.000173138
0.000155534
0.000138821
0.00012268
0.000107045
0.000365816
0.000327088
0.000295502
0.000268485
0.000244431
0.000222082
0.000200588
0.00017945
0.000158526
0.000482801
0.000437277
0.000400344
0.000368623
0.000340016
0.000313045
0.00028657
0.000259845
0.000232538
0.00061945
0.000571679
0.000532019
0.000497413
0.000465631
0.000435056
0.000404221
0.000372071
0.00033815
0.00078327
0.000736573
0.000696479
0.00066116
0.000628458
0.000596396
0.000562961
0.000526485
0.000486027
0.000984798
0.00094027
0.000901214
0.000867549
0.000837172
0.000807164
0.000774597
0.000736778
0.000692033
0.00123733
0.00119155
0.00115405
0.00112493
0.0011015
0.00107895
0.00105302
0.00101962
0.000976264
0.00155614
0.00149759
0.00146133
0.001441
0.00143112
0.00142376
0.00141308
0.00139309
0.00136047
0.00194859
0.00185954
0.00182724
0.00182281
0.00183595
0.00185375
0.00186968
0.00187659
0.00185927
0.000431186
0.000421377
0.000414608
0.000410868
0.000410117
0.000412236
0.00041707
0.000424405
0.000434027
0.00044566
0.000459001
0.000473702
0.000489365
0.000505592
0.000521944
0.000537971
0.000553184
0.000567071
0.000579118
0.000588828
0.000595693
0.000599173
0.00059845
0.000591906
0.000579398
0.000562676
0.000542464
0.000518652
0.0004911
0.000461567
0.000430763
0.00039902
0.000366616
0.000334168
0.000302188
0.000271111
0.000241311
0.000213097
0.000186711
0.000162327
0.00014004
0.000119872
0.000101757
8.56174e-05
7.13986e-05
5.90503e-05
4.85037e-05
3.96652e-05
3.24066e-05
2.657e-05
2.19709e-05
1.84149e-05
1.57157e-05
1.37062e-05
1.22478e-05
1.12308e-05
1.05731e-05
1.02167e-05
1.01179e-05
0.000463258
0.000455195
0.000449947
0.000447529
0.000447851
0.000450763
0.000456105
0.000463723
0.000473417
0.000484871
0.000497687
0.000511359
0.000525262
0.000538795
0.000551739
0.000563836
0.000574787
0.000584258
0.000591903
0.000597369
0.000600303
0.000600334
0.000597023
0.000589778
0.000578059
0.000561736
0.000541066
0.000516627
0.00048931
0.000460044
0.000429429
0.000397895
0.000365847
0.000333728
0.000301977
0.000271008
0.000241189
0.000212834
0.000186196
0.00016146
0.000138746
0.000118112
9.95659e-05
8.3095e-05
6.86847e-05
5.62983e-05
4.58587e-05
3.72545e-05
3.03097e-05
2.4806e-05
2.05139e-05
1.72157e-05
1.47198e-05
1.28638e-05
1.15165e-05
1.05762e-05
9.9652e-06
9.6298e-06
9.52868e-06
0.000488656
0.000482618
0.000478797
0.000477118
0.000477472
0.000479716
0.000483689
0.000489218
0.000496136
0.000504259
0.000513379
0.000523245
0.000533555
0.000543967
0.000554133
0.000563714
0.000572368
0.000579752
0.000585515
0.000589302
0.000590742
0.000589434
0.000584927
0.000576756
0.000564588
0.000548359
0.000528255
0.000504692
0.000478298
0.000449797
0.000419822
0.000388887
0.00035745
0.000325956
0.000294828
0.000264456
0.000235188
0.00020732
0.000181093
0.00015669
0.000134243
0.000113837
9.5523e-05
7.9326e-05
6.52424e-05
5.32298e-05
4.31946e-05
3.49883e-05
2.84128e-05
2.32391e-05
1.92318e-05
1.61702e-05
1.38597e-05
1.21419e-05
1.08912e-05
1.00121e-05
9.43413e-06
9.10834e-06
8.99703e-06
0.000485674
0.000479992
0.000476388
0.000474753
0.000474934
0.000476759
0.000480043
0.000484599
0.000490246
0.000496802
0.000504078
0.000511876
0.000519974
0.000528136
0.000536108
0.000543623
0.000550392
0.000556105
0.000560431
0.000563016
0.000563487
0.000561448
0.000556495
0.000548256
0.000536457
0.000521003
0.000502011
0.000479811
0.000454907
0.000427888
0.000399334
0.00036978
0.000339712
0.00030958
0.000279798
0.00025074
0.000222735
0.000196063
0.000170956
0.000147595
0.00012612
0.000106631
8.91957e-05
7.38463e-05
6.05758e-05
4.93265e-05
3.99862e-05
3.23887e-05
2.63265e-05
2.15711e-05
1.7895e-05
1.509e-05
1.2974e-05
1.13977e-05
1.02452e-05
9.42946e-06
8.88677e-06
8.5734e-06
8.45569e-06
0.000465783
0.000460341
0.000456855
0.000455213
0.000455263
0.000456826
0.000459709
0.000463716
0.000468653
0.00047433
0.000480565
0.000487177
0.000493981
0.000500783
0.000507375
0.000513531
0.000519003
0.000523515
0.000526767
0.000528435
0.000528171
0.000525613
0.000520412
0.000512261
0.000500941
0.000486377
0.000468652
0.000448018
0.000424862
0.000399663
0.000372932
0.000345174
0.000316874
0.000288483
0.000260413
0.000233032
0.000206659
0.000181567
0.000157984
0.000136089
0.000116023
9.78836e-05
8.17317e-05
6.75872e-05
5.54235e-05
4.51626e-05
3.66754e-05
2.97885e-05
2.42978e-05
1.99875e-05
1.66484e-05
1.40909e-05
1.21531e-05
1.07029e-05
9.63688e-06
8.87782e-06
8.36747e-06
8.06633e-06
7.9434e-06
0.000431165
0.00042551
0.000421763
0.000419826
0.000419553
0.000420771
0.000423282
0.000426886
0.00043138
0.000436566
0.000442253
0.000448259
0.0004544
0.000460492
0.000466343
0.000471745
0.000476473
0.000480281
0.000482902
0.000484052
0.000483425
0.000480701
0.000475586
0.000467822
0.000457231
0.000443751
0.000427451
0.000408538
0.000387326
0.000364211
0.000339641
0.000314081
0.000287998
0.000261831
0.000235977
0.000210795
0.00018659
0.00016362
0.000142104
0.000122209
0.000104056
8.77245e-05
7.32512e-05
6.0633e-05
4.98219e-05
4.07246e-05
3.32072e-05
2.71028e-05
2.22245e-05
1.83799e-05
1.53859e-05
1.30786e-05
1.13202e-05
9.99635e-06
9.01653e-06
8.31244e-06
7.83351e-06
7.54419e-06
7.41641e-06
0.000386401
0.000380598
0.000376593
0.00037431
0.000373636
0.000374412
0.000376462
0.000379597
0.000383621
0.00038834
0.000393563
0.000399107
0.000404789
0.000410423
0.00041582
0.000420782
0.000425095
0.000428524
0.00043083
0.00043176
0.00043104
0.000428395
0.000423584
0.0004164
0.000406686
0.00039441
0.000379641
0.000362563
0.000343433
0.000322589
0.000300432
0.000277381
0.000253889
0.000230378
0.000207213
0.000184737
0.000163222
0.000142904
0.000123985
0.000106593
9.08108e-05
7.66806e-05
6.42061e-05
5.3358e-05
4.40706e-05
3.6245e-05
2.97567e-05
2.44597e-05
2.01971e-05
1.68107e-05
1.41505e-05
1.20822e-05
1.04905e-05
9.28063e-06
8.37677e-06
7.72031e-06
7.26725e-06
6.98611e-06
6.85172e-06
0.000330437
0.00032437
0.00031998
0.00031723
0.000316038
0.000316282
0.000317804
0.000320443
0.00032401
0.000328305
0.000333169
0.000338394
0.000343794
0.000349175
0.000354355
0.000359167
0.000363409
0.000366818
0.000369188
0.000370244
0.000369743
0.000367441
0.000363187
0.000356846
0.000348234
0.000337381
0.000324355
0.000309342
0.000292516
0.000274184
0.000254724
0.000234524
0.000214058
0.000193719
0.000173783
0.000154578
0.00013634
0.000119253
0.000103501
8.91311e-05
7.61742e-05
6.46237e-05
5.44475e-05
4.55936e-05
3.7991e-05
3.15426e-05
2.61517e-05
2.17004e-05
1.80708e-05
1.51457e-05
1.28149e-05
1.09782e-05
9.54738e-06
8.44828e-06
7.6197e-06
7.01269e-06
6.58933e-06
6.32181e-06
6.18704e-06
0.000259928
0.000253559
0.000248754
0.000245548
0.000243922
0.000243766
0.000244916
0.000247125
0.000250399
0.00025474
0.000259632
0.000264915
0.000270322
0.000275583
0.000280727
0.000285541
0.000290098
0.000294322
0.00029749
0.000299112
0.000299076
0.000297298
0.000293848
0.000288575
0.000281424
0.00027236
0.000261496
0.000248957
0.000234765
0.000219135
0.000202627
0.000185655
0.000168709
0.000152117
0.000136085
0.000120622
0.000106058
9.29039e-05
8.09444e-05
7.00514e-05
6.02946e-05
5.16306e-05
4.39895e-05
3.72856e-05
3.14472e-05
2.64461e-05
2.22043e-05
1.86648e-05
1.57288e-05
1.32893e-05
1.12833e-05
9.66349e-06
8.38245e-06
7.38866e-06
6.63278e-06
6.07821e-06
5.69362e-06
5.45327e-06
5.3346e-06
0.00480717
0.00426786
0.00378894
0.00335245
0.00295078
0.00258168
0.00224471
0.00194013
0.00166647
0.00142151
0.00121577
0.00105563
0.000938231
0.000854419
0.000787673
0.000730162
0.000680763
0.0006388
0.000604926
0.000580164
0.000563015
0.000547916
0.000529308
0.000502102
0.000461141
0.00458121
0.00415783
0.00372304
0.00330085
0.00290196
0.0025317
0.00219318
0.00188743
0.00161482
0.00137724
0.00117809
0.00101778
0.000892997
0.000797809
0.000725086
0.000669343
0.000627075
0.000595821
0.000573756
0.000559261
0.000550258
0.000543539
0.000535013
0.000519701
0.000491162
0.00459607
0.00413639
0.00368388
0.00324966
0.00284111
0.00246355
0.00212036
0.00181319
0.00154326
0.00131168
0.00111846
0.000961548
0.000837248
0.00074099
0.000668126
0.000614695
0.000577385
0.000553284
0.000539728
0.000534165
0.00053389
0.000535695
0.000535571
0.000528696
0.000509517
0.00465297
0.00413145
0.00364231
0.00318563
0.00276356
0.00237858
0.00203261
0.00172668
0.00146124
0.00123593
0.00104898
0.000897188
0.000776615
0.000683189
0.000613163
0.000563251
0.000530445
0.000511826
0.000504528
0.000505501
0.000511663
0.000519449
0.000524503
0.000521823
0.000505461
0.00471507
0.00413329
0.00360202
0.00311771
0.00267927
0.0022862
0.00193813
0.00163443
0.001374
0.001155
0.000974456
0.000828533
0.000713084
0.000624175
0.000558326
0.000512486
0.000483818
0.000469565
0.000466743
0.000472204
0.000482501
0.000493674
0.000501067
0.000499815
0.000484817
0.00476142
0.00412549
0.00355217
0.00303965
0.00258505
0.0021849
0.00183603
0.00153568
0.00128103
0.00106884
0.000895297
0.00075605
0.000646746
0.00056339
0.000502499
0.000461046
0.000436254
0.000425523
0.000425809
0.000434007
0.000446525
0.000459219
0.000467343
0.000466204
0.000450809
0.0048009
0.00410676
0.00348834
0.00294737
0.00247804
0.00207274
0.00172481
0.00142917
0.00118132
0.000976823
0.000811129
0.000679501
0.000577308
0.000500321
0.000444922
0.000408009
0.000386812
0.000378862
0.000381176
0.000390736
0.000403951
0.000416679
0.000424299
0.000422383
0.000406378
0.00484857
0.00407235
0.00340231
0.00283421
0.00235367
0.00194663
0.00160223
0.00131306
0.00107338
0.000877737
0.000720989
0.000598089
0.000504141
0.000434368
0.000384967
0.000352733
0.000334874
0.000329042
0.000332453
0.000342216
0.000354815
0.000366251
0.000372129
0.000368526
0.000351094
0.00488259
0.0040031
0.0032807
0.00269217
0.00220751
0.00180406
0.00146689
0.00118598
0.000955743
0.000770414
0.000623711
0.000510838
0.000426758
0.000365159
0.000322276
0.000294893
0.000280061
0.000275686
0.000279364
0.00028841
0.000299207
0.000308229
0.000311066
0.000303026
0.00028147
0.0765376
0.0649036
2.51619
0.00854519
8.6029e-05
0.000118721
0.0207855
1.03058e-05
2.98312
7.90006e-06
4.02932
2.82513e-05
0.000795163
6.68864e-05
0.015305
0.000129181
7.97084
0.00602472
5.03602e-06
0.161069
0.000399398
5.52872e-05
4.16742
0.000289963
7.24344e-06
1.60261e-05
7.37285e-06
0.00184462
0.413171
5.84771
3.98808e-06
2.72749e-05
2.59252
0.00155011
5.02777
5.69337e-05
0.00665255
0.0158577
0.00712614
4.3524e-05
3.53912
7.15375e-06
3.64481e-05
0.00737981
0.00112904
8.42877e-05
6.41669
6.66842
0.783378
1.16822
5.92544
2.28206
0.000474045
0.00485203
0.0185631
2.63543
4.90834e-05
0.000379158
1.81826e-05
2.01874
0.00013534
2.3151
8.16731e-05
8.17123e-05
1.07558e-05
0.00689087
1.38009e-05
0.00122513
0.000873441
0.97396
2.40343
7.68445e-05
3.13027e-05
0.141489
8.11799e-06
0.000364756
0.0799207
5.61615
5.78674e-06
0.00345722
0.0013085
0.000243412
1.34914e-05
4.33264
9.75902e-05
0.000147156
2.46338e-05
5.26301
2.59209
0.000149582
0.000379533
3.34858e-05
2.73162e-05
3.09827e-05
4.2762e-05
4.02299
1.65401e-05
4.68949
2.2496e-05
1.86954
0.000606491
3.46254
0.000738956
7.70828e-05
1.65869e-05
0.00104409
4.18238
0.00121906
3.79427e-05
5.92271
5.57355e-05
2.41625e-05
4.3309
7.22564e-05
0.000439369
0.767059
1.90953
3.55644e-05
0.000593113
1.41903e-05
6.87687e-06
2.12177e-05
0.000278406
7.26146e-06
2.76976
3.41535e-05
2.36043
0.0417712
6.48757e-06
6.6357
1.25008e-05
0.126463
0.99674
0.00485932
0.00278929
2.50539e-05
0.00100415
0.000327432
0.000109402
0.217989
5.71186e-05
0.00632177
2.30589
7.38706e-06
0.576777
0.000180192
0.0125172
0.00554946
0.000130591
5.8542
0.00135785
4.07604e-05
0.0122365
0.0230361
7.91597e-06
4.16613
1.49574e-05
3.78047e-05
0.0707439
1.61287e-05
3.95192e-05
2.72958
4.53656e-05
4.97757
4.33453e-05
5.41315
6.86211e-05
7.58406e-06
0.000197316
1.75481e-05
5.45913e-05
8.85417e-05
0.00135556
4.75331
1.28487e-05
0.00133706
0.00222273
0.701807
0.879079
5.85775e-05
0.00381365
2.66387e-05
0.000501376
0.00457534
0.00523145
1.26073e-05
5.94364
3.9188e-05
1.50936
0.00011788
4.7985
2.09497
0.0443388
0.00584323
0.0185907
1.84077
7.84091e-06
5.34436e-05
0.678446
0.151049
0.00129635
0.00020432
0.000214451
0.000137316
0.000905679
1.68873e-05
1.65024e-05
0.000738284
0.894593
3.03154e-05
1.54543e-05
3.34536e-05
0.00347363
0.000793164
0.00168146
4.61626
4.4831e-05
6.41146e-06
0.000143749
0.000352882
0.000479328
8.27282e-06
8.17279e-06
1.63952
0.000183697
2.10638
0.00012284
7.65237
3.72697e-05
3.80675e-05
3.85041
5.83511e-05
2.69464e-05
9.81139e-06
0.00704709
1.12697e-05
0.0452259
0.000947588
0.00502909
0.0269521
4.04242e-06
0.000133284
3.87983e-05
0.00396219
2.79241e-05
2.05212e-05
2.52351e-05
0.00210808
0.000119803
2.13603e-05
3.7366e-05
0.00149468
8.35904e-06
0.788463
1.98219e-05
8.52138e-06
4.42139
0.0682883
0.0627978
4.86346e-06
0.0013696
7.60725e-06
5.70457e-05
7.55781e-06
0.1162
7.34378e-06
1.97466e-05
0.0212786
0.0213841
7.62246e-06
0.000691509
0.0587298
2.57733e-05
6.4647e-06
5.85461e-06
0.0223843
2.25626e-05
4.91828
5.2469e-05
3.17198
0.00871282
0.00143435
0.000910845
8.27093e-05
0.858063
0.000146591
0.00115827
0.000616592
5.1901
5.27227
0.0314987
5.16625e-05
7.52896e-06
5.64327
0.00352369
4.42711
4.02788
2.17114e-05
1.72275e-05
1.01962
2.50173
4.08889e-05
7.33773e-05
0.000157268
3.941
2.84159e-05
0.000402893
7.16305e-06
0.214943
0.000233793
7.81678e-05
3.57853e-05
1.95019
5.78777e-06
2.7026e-05
0.00560067
6.89115
9.74621e-06
7.37299e-06
0.00621404
0.0669215
2.52045e-05
8.20191e-05
4.0026e-06
2.78896e-05
7.46465e-06
1.81513
0.00130884
1.94363e-05
0.000405965
4.05174e-05
0.0180333
0.000337259
9.25229e-06
4.35411
0.000167652
2.03439e-05
1.50967e-05
1.64807e-05
0.00127357
3.62387e-05
2.57829e-05
1.13887
2.94026e-05
0.100611
4.42547e-05
0.000153843
2.5316e-05
2.29615e-05
6.50529
0.00784952
2.84518e-05
2.44489e-05
0.05576
5.62867
0.000147214
0.00770743
0.00643667
3.74422e-05
7.25543
0.926444
4.27888
1.37841e-05
1.98583
3.83229e-06
2.05127e-05
0.000148178
6.7651
4.56015e-05
1.37498
5.04334e-05
0.0225576
0.381884
3.74659
0.00080816
7.66172e-06
9.81317e-06
4.81965e-05
1.58012e-05
9.50912e-06
3.94707
8.21474e-05
2.79978
0.00862844
0.00721232
0.00553176
4.68302e-05
0.149943
3.86396
4.84709
0.0107368
1.77652e-05
0.000716616
2.48863
0.00361956
6.24554e-06
2.86693e-05
2.65469
3.8611e-05
0.44538
1.07992e-05
3.59167e-05
9.31149e-05
0.665196
2.31475e-05
4.07235e-08
0.0184887
0.000869208
0.00342808
4.11446e-06
0.665779
5.20874e-05
0.971709
9.99571e-05
2.09084e-05
4.65071e-05
0.800407
6.48367
2.80181e-05
3.20565e-05
4.93977e-05
1.67894e-05
0.000185852
0.000927102
0.00015061
4.23466
1.09785e-05
0.000104224
5.7167e-06
2.73901e-05
0.000119651
9.22423e-06
0.000161495
5.99283e-06
0.0304041
0.000133428
5.50428e-05
6.44114e-06
2.45003e-05
6.44251e-05
1.55565e-05
0.0267981
5.37577
0.00490255
0.000965133
0.556727
0.00120493
0.682934
1.4341e-05
5.52663e-06
3.5263
3.45195e-05
4.43813e-05
0.922653
3.16312e-05
0.89378
6.80906
0.000149835
0.000409976
0.0323744
5.27931e-05
0.00474198
0.505636
0.00296907
3.41153
1.45712e-05
2.40496e-05
1.96281
1.47421e-05
3.91021
0.001699
1.63705e-05
4.31965
6.15046e-05
7.39026e-06
0.00116177
0.000112658
1.29516e-05
0.00557946
0.00284133
0.00186316
0.00763399
1.43884e-06
2.60079e-05
4.16795
6.50917e-05
0.000233208
0.000105039
0.555797
6.1424e-05
0.0166638
6.47805e-05
8.79856e-06
2.24421
4.09317e-05
4.23832e-05
0.0156151
0.000125553
3.04249e-05
1.28194
3.90544e-05
0.0304696
7.0208e-05
0.00295516
0.00190063
0.00191497
0.000130338
0.000109302
0.0196126
2.43116e-05
5.4911e-05
0.00162951
1.25208e-05
9.10017e-05
1.28528e-05
6.7035
3.83029
0.818105
7.72397e-06
0.00461548
1.86263e-05
5.21392
0.171642
0.0692411
0.00152636
0.000107699
3.88844
3.54406
1.65026e-05
0.000114426
0.00143984
6.20136e-05
0.0423879
1.41494
1.68657e-05
0.00507742
3.55262e-05
0.957064
0.753871
7.28253e-05
0.00586515
6.95901
5.38177e-05
4.28552
3.30451e-05
1.21516
3.05299e-05
0.000339087
0.000118481
5.41493
0.00734197
0.00812222
6.32843e-06
0.831801
0.831253
6.90697
7.78027e-06
3.21217e-05
0.000684961
1.01038
6.43969e-06
0.004993
3.68037e-05
0.000925133
6.44824
6.23399e-06
0.00418073
1.32144e-05
2.71624e-05
0.00177437
2.10963
0.000130093
0.010502
3.07128e-05
7.81621e-05
4.4534
7.02884
1.05767
0.000457431
0.00198061
0.22848
0.000489502
0.000197367
2.1297e-05
1.02962e-05
2.68166
5.37492e-05
0.000117575
0.0070097
0.00016394
0.000213159
0.000158212
7.35791e-05
0.0202838
3.81941e-05
1.65598e-05
0.00123781
0.834801
6.84047e-05
2.56562e-05
1.19068
0.00174613
6.36091e-06
0.00010103
0.0343554
2.33042e-05
0.000161156
6.29963e-06
0.000449016
3.27275e-05
4.01158e-05
0.00743123
1.83633e-05
0.000182067
0.000828302
0.000466718
1.08869e-05
0.000146787
1.03928
9.57955e-05
1.16612e-05
2.47286e-05
2.27503e-05
0.00010697
1.73461e-05
1.68847
8.065
0.00157967
2.53048
1.11188e-05
7.97917e-06
1.36677e-05
1.28697e-05
0.000175977
1.41891e-05
0.000582504
0.000148742
8.56931e-06
3.01493e-05
0.0154125
0.00368674
0.000167632
0.00669477
5.16024e-05
0.000104871
9.52997e-06
0.000531667
0.00534437
1.57549
0.019895
0.0536082
1.20792e-05
8.05787e-06
2.06267e-05
0.000118129
5.58509e-06
7.05798
4.69203e-06
0.000759722
2.24279e-05
1.12174
0.00197291
4.01222
2.67864e-06
1.41409e-05
9.56349e-06
3.74265
0.83697
0.00474015
0.000470681
1.58284e-05
7.79773e-06
8.24083e-05
2.20707
3.47318e-06
1.98988e-05
0.00577309
4.69254e-05
5.32063e-05
9.8163e-06
2.38891e-05
0.000479063
0.000103757
1.4386e-05
1.88196e-05
0.000265533
4.73535e-05
0.611646
4.30112
2.62194e-05
0.017997
3.07694e-05
3.91868
1.07783e-05
3.11527e-05
2.28638e-05
1.34213e-05
0.0072171
0.000117649
5.68572e-05
1.92693e-05
0.00104181
2.03751e-05
0.00010867
6.88041e-05
3.45654
0.0133507
0.00105328
6.03258
0.0202715
0.708316
4.89054
5.63931e-06
1.47679e-05
1.2966e-05
1.67852e-07
6.16197e-05
0.00844855
0.000175264
4.00443e-05
0.000733642
1.06229e-05
4.74264e-06
0.00373668
3.09612e-05
7.36042e-06
1.24831e-05
0.000994545
0.00164195
3.922
8.96199e-06
1.00406
0.0215265
0.654215
0.000849788
3.76344
5.23081
0.0396715
5.93175e-06
0.000124224
7.92659e-07
0.000774369
3.8809e-05
0.00289716
0.353025
2.36808e-05
0.0950161
0.00466731
9.11894e-06
1.1779e-05
6.26827e-05
7.90997
0.809406
1.85222e-05
0.0256904
0.0233808
0.00061587
1.2748
2.10276e-09
1.92581e-05
0.0041284
3.665e-06
0.2115
0.0034361
4.22878
0.0210156
9.34083e-06
0.0213766
1.98007e-05
2.37473e-06
0.00440839
0.000185609
0.000418476
1.5699e-05
3.36457e-05
0.00423277
0.000132044
9.43674e-06
4.09613e-05
6.43644e-05
0.00215445
4.59519e-05
2.31064
0.0188055
5.55854e-05
0.00668412
9.02027e-05
0.208442
0.00014619
1.55988e-05
5.13743e-05
0.00137325
0.0014146
4.6427e-06
6.38559e-05
6.48829
0.672028
0.0172837
0.000123489
0.00434275
0.00265859
0.030563
0.727347
0.00539538
0.000148414
3.35664e-05
4.16505
2.23093e-05
1.04572e-05
0.000644648
1.89722
2.44871
2.6908e-05
6.94781e-05
1.18922
1.1999e-05
1.22266
0.942451
6.10625e-05
2.72428e-05
4.86106
0.408712
0.279314
3.65402e-05
1.34582e-05
1.22861e-05
0.00322814
0.00712133
3.54188e-05
1.05028e-05
5.27496e-05
0.0148577
4.3626e-05
0.00358485
0.391213
8.43146e-06
2.87829e-05
0.271446
1.11006e-05
0.000772397
2.83948e-05
0.00116835
2.07359e-05
9.15254e-06
0.00263061
7.16607e-05
2.40673e-05
2.93561e-05
0.00171342
0.000811922
4.76579
9.44026e-06
1.73549e-05
3.79152e-05
0.0116374
0.216097
1.54986
1.61638e-05
0.00132575
0.0176181
4.63995e-07
8.97758e-06
9.70888e-05
3.94382
2.72572e-05
0.193329
0.000141991
7.23519e-06
0.00768014
0.000112159
0.0888695
0.0855383
0.00435472
2.45606
3.17508
7.69654
1.19387e-05
2.34622
0.00868321
4.21432e-05
0.0178428
4.17565e-05
9.80407e-05
0.0532182
0.000107905
0.00029045
0.00115612
0.822028
4.75247e-06
3.18236e-06
2.08003
9.4965e-05
0.000168053
0.0145046
0.531788
0.00616464
2.11066e-05
0.000950585
6.11746
4.33933
0.00363086
0.000650913
1.0946
0.000138091
1.30657e-05
0.00587729
0.863042
1.38265e-05
0.00125104
5.89066e-05
0.797392
0.000157343
0.00715491
0.221672
4.62508e-06
7.59779e-05
2.38508e-05
0.904727
0.00620438
1.15519
0.68533
0.000150222
0.00215336
0.00383832
0.00041616
0.287034
0.000351314
1.41435e-05
0.00013577
9.25044e-05
1.06397e-05
0.00457084
3.94679
3.59098e-05
0.975796
5.71752e-05
0.0395948
1.16402e-05
4.5429e-05
9.53769e-06
1.65439
1.16234
0.00161938
0.000859851
2.13001e-05
2.122e-05
0.0291372
5.29904e-06
0.00721123
0.00514869
3.53185
2.53241e-05
0.000956382
0.0316924
0.00014492
0.000171818
0.000202465
3.57996
2.65339e-05
0.000485618
0.0345619
0.0193467
2.43436e-05
0.000416581
6.31114e-06
6.79333e-05
3.31301e-05
2.69536e-05
0.000489458
1.67468e-05
0.00131436
0.899036
0.183011
1.69486
4.2762e-05
0.000931726
0.00463282
3.18522e-06
0.542158
8.92005e-05
0.000188873
4.34102
0.000148008
0.00285928
0.000125158
8.01959e-06
0.852786
1.22404e-05
0.000868898
1.67214e-05
0.0219868
0.0269574
1.94534
8.03449e-06
0.0260895
2.32444e-05
0.00156026
0.000123349
1.22006
0.00493078
0.000815188
6.88954
3.50279e-05
6.52739
6.37844e-05
0.748239
0.000217318
1.08994e-05
2.61776e-05
0.00805468
0.0181442
2.08009e-05
2.41576e-05
0.0753089
1.22996e-05
2.0683e-05
8.43365e-06
1.60955e-05
7.5989e-05
6.45063
0.000174022
5.41875e-05
0.0235309
0.00176123
7.69026
1.13636e-05
3.28178e-05
2.68641e-05
9.3622e-05
0.000207035
0.000102127
3.58266
0.000111441
0.00679044
1.39164e-05
0.000484872
0.00916256
1.01902
3.40424e-05
2.16409e-05
5.54975e-05
0.000196916
2.0191e-05
0.00141885
4.69574
0.00482318
0.00133721
1.89492e-05
0.0303298
3.4441
0.00123711
0.0314803
0.000151317
0.595048
4.37764
7.13847
8.53943e-05
8.97231e-05
0.000797171
1.17197
0.000162036
1.04227
0.000132283
0.00285969
0.614809
6.82708e-06
5.45071e-05
0.00020199
1.18525e-05
4.09093e-06
3.59054e-05
0.426053
7.02812e-06
2.05671
2.00402e-05
2.723e-05
1.56329e-05
8.55254e-06
0.000541813
2.64532e-05
0.205496
0.0025379
7.31782e-05
0.000138808
0.70311
3.94131
1.3177e-05
2.74247e-05
7.05159e-05
0.00166328
0.00276602
0.00101088
2.76329
1.46893e-05
1.485e-05
0.00065644
6.49193e-05
0.000785566
0.0267467
2.0831e-05
2.1309e-05
4.95874e-06
0.000227754
0.00399834
0.499267
0.0257919
1.62787e-05
0.000943449
4.53191e-06
2.76251
3.19809
3.98099e-05
1.34367e-05
0.0888683
2.38975e-05
3.36302e-05
0.0820803
0.449237
7.68683e-05
1.61702e-05
8.26889e-06
0.00371619
0.40725
1.90662e-05
5.07049e-06
0.264984
0.98205
1.13466e-06
2.53821e-05
1.36351e-05
5.93706e-05
0.00217812
0.00057744
4.48953e-05
0.0328151
0.000102166
4.02045e-05
5.28996e-05
0.000505939
2.7296e-05
4.88672
0.455421
3.67811
0.215335
0.00476129
0.0168295
2.55734e-05
2.19358
0.000672343
1.1696e-05
0.000460042
3.9131e-05
0.000717205
3.37302e-05
4.88424e-05
1.15996e-05
1.16911
8.84617e-06
0.00160866
0.0281673
0.000193826
0.0010279
0.00170751
7.12098
1.29703e-05
5.28182
4.56936
0.000185554
2.63176e-05
0.000729217
0.000982774
0.00048174
0.0176509
0.715018
4.50234e-05
8.87162e-06
2.02285e-05
0.00672427
2.93899
0.000169638
9.6715e-05
1.03648e-05
1.27632e-05
0.000179244
0.0024332
1.25988e-05
0.000273331
0.000284633
0.904642
3.60106e-05
0.000749042
7.13257
0.000103874
0.00141069
0.000515153
0.0786909
0.00136343
0.00103079
0.000597388
4.03681e-05
0.177005
0.927444
7.05002e-05
0.00539551
0.017086
3.16106e-05
0.000259233
4.68035e-05
0.00971511
2.29619e-05
0.000986747
2.51997e-05
0.0271889
1.00088
0.0485293
0.821629
0.000121027
0.000177719
0.0695483
0.018896
0.000229911
9.22761e-05
3.21458e-05
4.03857
4.5682e-05
0.000854038
1.17507e-05
0.000107415
0.00582556
2.1441e-05
2.83735e-05
1.22632e-05
1.22418
0.0668133
6.4994e-06