/*--------------------------------*- C++ -*----------------------------------*\
  =========                 |
  \\      /  F ield         | OpenFOAM: The Open Source CFD Toolbox
   \\    /   O peration     | Website:  https://openfoam.org
    \\  /    A nd           | Version:  10
     \\/     M anipulation  |
\*---------------------------------------------------------------------------*/
FoamFile
{
    format      ascii;
    class       volScalarField;
    location    "700";
    object      k;
}
// * * * * * * * * * * * * * * * * * * * * * * * * * * * * * * * * * * * * * //

dimensions      [0 2 -2 0 0 0 0];

internalField   nonuniform List<scalar> 
10435
(
0.841669
0.930934
0.843883
1.15837
1.43252
1.43583
0.81207
0.815392
0.798746
1.19808
1.07513
1.3639
0.896395
0.640674
0.655382
0.913728
0.62725
1.09756
0.789536
0.890999
0.848402
1.13464
0.948098
1.14536
1.13084
0.35645
0.479383
0.830779
0.425388
1.15638
1.20887
1.15121
0.805302
0.412409
0.974321
0.752915
1.03834
0.505914
0.269779
0.912163
1.27863
0.844299
0.529809
1.02956
1.09212
1.04342
1.36518
0.507262
0.739719
1.10462
0.851444
1.37619
0.262567
0.367683
0.290145
0.395355
1.10423
0.518059
0.549873
1.02346
0.285933
0.866752
0.503274
1.43471
1.02187
0.896462
0.503563
0.557437
0.816186
1.21927
0.364869
0.43999
0.393005
0.932895
0.674748
0.520343
1.2634
0.803328
0.779271
0.638392
1.22054
0.754137
0.255723
0.370557
1.26123
0.75247
0.822678
1.03934
0.703125
0.871397
1.10502
1.17774
0.79826
0.735921
0.923373
0.702885
1.24152
0.669841
0.576194
1.32278
0.685309
1.49706
0.776996
0.979134
1.5202
1.09336
0.848036
1.16708
1.284
0.658687
1.03664
1.449
0.715933
0.68447
1.26954
1.06951
1.36393
0.800352
1.03028
1.33574
1.38379
0.435576
0.851354
0.544837
1.20338
0.322649
1.29629
0.463101
1.4018
0.496803
0.503727
1.11682
0.888144
0.62134
0.473618
0.2392
0.632305
1.21978
0.966293
1.00521
0.945391
1.13592
0.471475
1.38862
1.19614
0.615354
0.585045
1.44159
0.627972
1.36868
0.461822
1.16073
0.867098
1.34746
1.35076
0.410363
1.29108
0.906629
1.28251
0.948534
1.26887
0.605974
1.17431
1.31973
0.696801
1.41811
0.83046
1.31357
1.31034
1.42599
1.21691
0.340331
0.434439
0.635181
1.33411
0.87327
0.807332
0.595688
0.968848
0.456185
1.00038
1.48818
1.37654
0.306569
1.20762
0.461624
0.465886
0.811978
1.46879
1.38507
1.38157
0.251562
0.475902
0.68474
1.3771
0.814
0.589953
0.709162
0.559157
0.976503
0.707085
0.497442
0.858749
0.517596
0.858067
1.29312
1.09979
1.27289
0.504447
1.24903
0.410504
0.894602
1.4054
1.33714
0.469541
0.639415
0.723635
0.305735
0.359848
0.591618
0.429185
0.608482
0.513039
0.606334
0.390481
0.928123
0.311475
0.675142
1.29448
0.534227
0.587333
0.875056
0.334053
1.22286
0.517472
0.611998
1.17616
0.389501
1.23661
1.18754
0.971059
0.353342
0.323245
0.389817
1.23655
0.788862
0.657853
0.794817
0.344405
0.804933
0.346869
0.73986
0.972606
1.29098
0.795201
1.45006
0.31117
0.794946
0.376811
0.495151
0.795922
1.26996
0.352267
1.29828
0.757235
0.58565
0.916998
1.06983
0.283429
1.34993
0.798624
0.782911
0.789995
1.03352
0.388396
1.35964
0.498206
1.37044
0.856871
0.777651
1.0348
0.58932
0.799504
0.656067
0.77743
0.273845
1.48281
0.289908
0.371997
0.431831
0.619183
1.03066
0.493294
0.785763
0.27443
0.360891
0.600448
0.796941
1.29828
1.10144
0.566821
1.27599
0.799843
0.378034
1.22579
0.653474
0.616863
1.26925
1.01022
0.370106
0.905446
0.466115
0.742229
1.47463
0.856899
0.364813
0.319061
1.3236
0.564247
1.34341
1.51911
0.470704
0.820355
0.247457
0.769207
0.902573
0.420003
0.804756
0.550545
0.512755
0.922819
0.4458
0.365403
0.811816
1.31018
0.528291
0.368349
0.355377
0.378296
0.417831
0.443653
0.426573
0.280798
0.434573
0.418353
0.451932
0.535311
0.522904
0.243523
0.759795
0.366409
0.949818
0.465249
0.816666
0.757637
0.710102
0.861951
0.990955
0.380158
0.396036
0.361405
0.329479
0.40456
0.27736
0.455797
0.462081
0.538154
1.34262
0.451795
0.753657
0.308991
0.482552
0.874856
0.68009
0.278293
0.480002
0.500129
0.500979
0.396982
0.385297
0.565902
0.299037
0.781973
0.532343
0.79391
0.744833
0.834006
0.853162
0.731685
0.813553
0.910337
0.559078
0.39678
0.40942
0.37028
0.80849
0.390195
0.900284
0.550539
0.469077
0.494812
0.473815
0.339361
0.84834
0.50167
0.789832
1.29895
0.345049
0.411093
0.524121
0.707908
0.529613
0.432004
0.373157
0.400356
0.531598
0.440121
0.828946
0.366414
0.416231
0.435519
0.413251
0.958361
0.283829
0.24911
0.642944
0.386662
0.0796571
0.0773568
0.0744415
0.0711183
0.0675597
0.0636215
0.05925
0.0543536
0.048783
0.081165
0.0785267
0.0752402
0.0716663
0.0679087
0.0638855
0.0595285
0.0548097
0.0497438
0.0822991
0.0792832
0.0756641
0.0718582
0.0679293
0.0638134
0.0594602
0.0548788
0.0501604
0.0831887
0.0797877
0.0758603
0.071843
0.0677585
0.0635547
0.0591978
0.0547126
0.0501971
0.0839277
0.0801858
0.0759714
0.0717542
0.0675224
0.0632323
0.0588601
0.0544326
0.0500239
0.0846355
0.0806194
0.0761319
0.0717164
0.0673362
0.0629557
0.058556
0.0541629
0.0498408
0.085503
0.0812283
0.0764626
0.07184
0.0673045
0.0628258
0.0583886
0.0540214
0.0497931
0.0868292
0.0821365
0.0770628
0.0722183
0.0675186
0.0629321
0.0584458
0.0540935
0.049952
0.0887299
0.0834078
0.0780061
0.0729303
0.0680606
0.0633554
0.0588031
0.0544386
0.0503404
0.0910164
0.0850346
0.0793458
0.0740489
0.0690096
0.0641754
0.059537
0.0551263
0.0510108
0.0933688
0.0869719
0.0811266
0.0756497
0.0704513
0.0654807
0.0607373
0.0562528
0.0520882
0.0954369
0.0892069
0.083416
0.0778279
0.0724896
0.0673796
0.0625167
0.0579401
0.0537193
0.0968234
0.0918878
0.0863663
0.0807314
0.0752662
0.0700101
0.0650106
0.0603192
0.0560213
0.0995992
0.0956408
0.0903074
0.0845967
0.0789783
0.0735486
0.0683802
0.0635385
0.0591229
0.105095
0.101138
0.0956451
0.0897168
0.0838663
0.0782048
0.072813
0.0677611
0.0631427
0.113869
0.108781
0.102688
0.0963526
0.0901609
0.0841898
0.0785084
0.0731874
0.0683167
0.125373
0.118457
0.111499
0.104633
0.0980157
0.0916665
0.0856322
0.0799831
0.0748203
0.137587
0.129492
0.121852
0.114511
0.107471
0.100725
0.0943013
0.0882678
0.0827317
0.149589
0.141316
0.133451
0.125852
0.118502
0.111416
0.104624
0.0981892
0.0922143
0.161587
0.153888
0.146213
0.138612
0.131129
0.123827
0.116749
0.10996
0.103568
0.174428
0.167623
0.160353
0.152931
0.145496
0.138141
0.130911
0.123858
0.117092
0.18913
0.183128
0.17625
0.169084
0.161855
0.154635
0.147443
0.140294
0.133284
0.20681
0.200991
0.194281
0.187371
0.180497
0.173631
0.166731
0.159747
0.152763
0.228614
0.221584
0.214631
0.207977
0.201635
0.195393
0.189112
0.182636
0.17603
0.255107
0.244717
0.237257
0.231002
0.225451
0.220146
0.214878
0.209383
0.203039
0.116563
0.11632
0.116921
0.118376
0.12069
0.12384
0.127797
0.13251
0.137928
0.143984
0.150605
0.157706
0.16519
0.172959
0.180901
0.1889
0.196828
0.204547
0.211915
0.218788
0.225016
0.230433
0.234814
0.237757
0.239155
0.239314
0.238328
0.236104
0.232538
0.228001
0.222623
0.21645
0.20952
0.201984
0.193983
0.185656
0.177142
0.168572
0.160076
0.151768
0.143743
0.136068
0.128765
0.121845
0.11534
0.109289
0.103736
0.0987276
0.094299
0.0904783
0.0872689
0.0846507
0.0825877
0.0810263
0.0799148
0.0792005
0.0788405
0.0787988
0.0790457
0.119897
0.119981
0.120872
0.12259
0.125128
0.128462
0.132559
0.137381
0.142875
0.148967
0.155566
0.162559
0.169808
0.177173
0.184578
0.191936
0.199151
0.206115
0.212715
0.218836
0.224357
0.229149
0.233068
0.235934
0.23757
0.237879
0.236846
0.234532
0.231081
0.226664
0.221385
0.215315
0.20853
0.20113
0.19323
0.184953
0.176426
0.167774
0.159116
0.150561
0.142202
0.134116
0.126364
0.119004
0.112112
0.105766
0.100038
0.0949979
0.0906683
0.0870278
0.0840276
0.0816073
0.0797094
0.0782762
0.0772544
0.0765971
0.0762571
0.0761997
0.0763918
0.12149
0.121848
0.12293
0.12474
0.127269
0.130489
0.134365
0.13885
0.143894
0.149439
0.155422
0.161769
0.168397
0.175212
0.182117
0.189014
0.195801
0.202371
0.208614
0.214413
0.219645
0.224179
0.227867
0.230555
0.232111
0.232454
0.231561
0.229458
0.226232
0.222002
0.216877
0.210948
0.204306
0.197049
0.189287
0.181132
0.172703
0.164114
0.155478
0.146897
0.138469
0.130286
0.122435
0.115009
0.1081
0.101798
0.0961763
0.0912791
0.0871138
0.0836502
0.0808319
0.0785881
0.0768407
0.0755233
0.074577
0.0739528
0.0736112
0.0735234
0.0736611
0.118432
0.11879
0.119842
0.121586
0.124005
0.127069
0.130739
0.134966
0.139698
0.144879
0.150447
0.156337
0.162479
0.168797
0.17521
0.181635
0.187979
0.194143
0.200022
0.205502
0.210462
0.214772
0.218296
0.220899
0.222464
0.222906
0.222189
0.220325
0.21737
0.213413
0.208549
0.202877
0.196494
0.189502
0.182006
0.174115
0.165939
0.157588
0.149169
0.140786
0.132542
0.124539
0.116879
0.109665
0.102995
0.0969557
0.0916078
0.0869803
0.0830657
0.0798254
0.0771987
0.0751169
0.0735031
0.0722853
0.0714035
0.0708116
0.0704734
0.0703656
0.0704659
0.112504
0.112825
0.113806
0.115445
0.117725
0.120616
0.124078
0.128062
0.132515
0.137382
0.142603
0.148117
0.153862
0.15977
0.16577
0.171785
0.177731
0.183518
0.189047
0.19421
0.198892
0.202971
0.206322
0.208826
0.210379
0.210903
0.210356
0.208735
0.206075
0.202438
0.197905
0.192566
0.18652
0.179869
0.17272
0.16518
0.157356
0.149355
0.141287
0.133258
0.125374
0.117741
0.110466
0.10365
0.0973841
0.0917416
0.0867679
0.0824769
0.078851
0.0758467
0.0734043
0.0714565
0.0699359
0.0687804
0.0679375
0.0673677
0.0670351
0.0669185
0.0669956
0.104067
0.104267
0.105099
0.106563
0.108641
0.111307
0.114519
0.118233
0.122396
0.126953
0.131847
0.137019
0.142409
0.147954
0.153588
0.159238
0.164827
0.17027
0.175475
0.180342
0.184765
0.18863
0.191826
0.194242
0.195785
0.196382
0.19599
0.1946
0.19223
0.188927
0.18476
0.179811
0.174178
0.167962
0.161268
0.154204
0.146874
0.139383
0.13184
0.12435
0.117016
0.109939
0.103217
0.0969401
0.0911875
0.086017
0.0814621
0.0775289
0.074197
0.0714251
0.0691583
0.0673375
0.0659094
0.0648196
0.0640203
0.0634745
0.0631532
0.0630359
0.0631015
0.0937059
0.0937655
0.0944191
0.0956683
0.0975018
0.0998947
0.102812
0.106212
0.110046
0.114261
0.118805
0.123622
0.128655
0.133842
0.139122
0.144427
0.149683
0.154807
0.159713
0.164307
0.16849
0.172155
0.175203
0.177536
0.179063
0.179721
0.179469
0.178293
0.176205
0.17324
0.169459
0.16494
0.159782
0.154088
0.147958
0.1415
0.134814
0.127999
0.121165
0.114404
0.107804
0.101451
0.0954259
0.0898018
0.0846403
0.0799855
0.075864
0.0722807
0.0692212
0.0666544
0.0645379
0.0628239
0.0614653
0.0604184
0.0596446
0.0591122
0.0587961
0.0586779
0.0587389
0.0811648
0.0810207
0.08143
0.0824006
0.0839266
0.0859901
0.0885614
0.0916041
0.0950741
0.0989226
0.103103
0.107557
0.112232
0.117068
0.122008
0.126995
0.131957
0.13681
0.14147
0.145835
0.149811
0.1533
0.15622
0.15849
0.160013
0.160742
0.160634
0.159682
0.157877
0.155253
0.151875
0.147818
0.143201
0.138129
0.132679
0.126967
0.121086
0.115124
0.109189
0.103342
0.0976505
0.0921723
0.0869634
0.0820779
0.0775638
0.0734477
0.0697608
0.0665069
0.063683
0.0612749
0.0592599
0.0576091
0.0562891
0.0552686
0.0545178
0.0540096
0.053721
0.0536346
0.0537301
0.0657284
0.0652762
0.0653435
0.065956
0.0671199
0.0688196
0.0710217
0.0736736
0.0767757
0.0803227
0.0841971
0.0883463
0.0926995
0.0971899
0.101808
0.106492
0.11124
0.116002
0.12057
0.124792
0.128599
0.131926
0.134745
0.136973
0.138543
0.139394
0.139495
0.138825
0.137334
0.135035
0.132057
0.1285
0.124502
0.120166
0.115563
0.110697
0.105705
0.100835
0.096033
0.091267
0.0866291
0.0821509
0.0778508
0.0737501
0.0698738
0.0662833
0.063001
0.0600685
0.0574743
0.0551744
0.0531742
0.0514942
0.0501421
0.0491049
0.0483527
0.0478709
0.047639
0.0476358
0.0478357
0.376087
0.34759
0.322618
0.299475
0.277495
0.256504
0.236519
0.217655
0.199958
0.183444
0.169015
0.157404
0.148694
0.142401
0.137281
0.132744
0.128791
0.125459
0.122927
0.121435
0.120943
0.120928
0.120823
0.120039
0.117885
0.356787
0.338138
0.317027
0.295324
0.273792
0.252837
0.23275
0.213733
0.195974
0.179784
0.165619
0.153755
0.144181
0.136644
0.130738
0.126151
0.12271
0.120314
0.118904
0.118429
0.118771
0.119675
0.120759
0.121497
0.12112
0.352277
0.332822
0.311759
0.290052
0.268353
0.247142
0.226794
0.2076
0.189846
0.173842
0.159841
0.147948
0.138122
0.130221
0.124062
0.119488
0.116364
0.114553
0.113918
0.114297
0.115508
0.117293
0.119285
0.120993
0.121778
0.350211
0.328314
0.305987
0.283543
0.261368
0.239837
0.219297
0.200054
0.182396
0.166574
0.152747
0.140951
0.131136
0.123206
0.117062
0.112614
0.109757
0.108357
0.108234
0.109181
0.110959
0.113266
0.115697
0.117733
0.118695
0.348261
0.323976
0.300006
0.27647
0.253604
0.231671
0.210942
0.191683
0.174132
0.158481
0.144828
0.133182
0.123487
0.11567
0.109656
0.105377
0.102738
0.101612
0.101796
0.103054
0.105099
0.107573
0.110037
0.111981
0.112842
0.345472
0.319063
0.293415
0.268701
0.24509
0.222745
0.201848
0.182592
0.165157
0.149677
0.136216
0.124763
0.115259
0.107632
0.10181
0.0977172
0.0952568
0.0942966
0.0946201
0.0959724
0.0980313
0.100409
0.102653
0.104265
0.104718
0.342151
0.313538
0.286116
0.260185
0.235838
0.21311
0.192067
0.172829
0.155516
0.140216
0.126967
0.115748
0.10649
0.0991044
0.0935052
0.0896006
0.0872768
0.0863915
0.0867197
0.0879903
0.0898597
0.0919255
0.0937284
0.094813
0.0947124
0.338711
0.30727
0.277893
0.250771
0.225771
0.202735
0.181591
0.162386
0.145204
0.130095
0.11708
0.106134
0.0971781
0.0900805
0.0847302
0.0810099
0.078782
0.0778897
0.0781074
0.0791499
0.080653
0.0822072
0.0833403
0.0836574
0.08271
0.334537
0.299762
0.268414
0.240283
0.214822
0.191613
0.170449
0.151277
0.134217
0.119312
0.106535
0.0958981
0.0873339
0.0805733
0.0754941
0.0719559
0.0697751
0.0687914
0.0687967
0.0694971
0.0704752
0.0713494
0.0715829
0.0706081
0.0681362
0.905584
0.885756
2.61566
0.222818
0.0335632
0.0401625
0.840712
0.0183224
2.97675
0.0405829
3.0307
0.0293242
0.361489
0.0195829
1.0891
0.052089
5.50929
0.207582
0.0407636
0.616299
0.201334
0.0561652
3.34812
0.0926234
0.0165829
0.0206813
0.0166932
0.139099
1.01668
4.38687
0.043542
0.0251022
2.95167
0.472112
3.94946
0.0274137
0.929999
1.0978
1.03847
0.0512912
3.12234
0.00282595
0.0378296
0.388542
0.145804
0.09218
3.94074
3.96732
1.28039
1.89967
3.75354
2.32647
0.265839
0.192804
0.797989
2.75417
0.0177275
0.230101
0.0163521
1.83301
0.039894
2.47304
0.0325843
0.0581811
0.0186092
0.370138
0.0433267
0.181356
0.377575
1.6536
2.6214
0.0731186
0.0224226
0.642255
0.0170404
0.200733
0.760532
3.76478
0.0124898
0.178331
0.430533
0.0592013
0.0205534
3.06815
0.0350293
0.0426308
0.0214795
3.64294
2.92677
0.0738799
0.0948968
0.0541934
0.0505694
0.0307341
0.024487
3.04038
0.0206044
3.26343
0.00897533
1.75267
0.0839114
3.11395
0.0934472
0.0787716
0.0165999
0.136774
3.36518
0.411402
0.01678
4.48737
0.0533281
0.022765
3.68042
0.0768406
0.255725
1.27851
2.3241
0.0491311
0.309178
0.0158256
0.00259279
0.0219694
0.0916479
0.0163766
3.04027
0.0356231
2.39688
0.418635
0.0121987
3.96692
0.0197708
0.637667
1.655
0.889665
0.204814
0.021501
0.137474
0.0592554
0.0356201
0.656975
0.0685756
0.939912
2.00678
0.00245574
1.15583
0.0674517
0.249045
0.35204
0.0510095
4.32821
0.207626
0.0220919
0.243408
1.37205
0.0174206
2.9913
0.0178665
0.0487162
1.06485
0.030542
0.0387476
2.84421
0.0396649
3.39095
0.0476361
3.48819
0.020743
0.0167694
0.082477
0.0181564
0.0180574
0.0639381
0.188411
3.23594
0.047974
0.14787
0.436819
1.38868
1.25517
0.0686761
0.679703
0.0236139
0.277369
0.681244
0.336795
0.0107677
3.67689
0.0171865
2.18322
0.0428177
3.1905
1.89821
0.801962
0.894827
1.1721
2.45658
0.0168924
0.054117
1.22895
0.758094
0.459592
0.105177
0.0539305
0.0454535
0.113115
0.04029
0.0445599
0.0905829
1.43225
0.0467
0.0164063
0.0299797
0.671603
0.103183
0.282026
3.57878
0.0235124
0.011215
0.107047
0.0998415
0.0583214
0.0030829
0.0174502
1.96084
0.0685829
2.41753
0.0669283
5.42609
0.0154619
0.0237546
2.85176
0.0277168
0.0227742
0.0156745
1.01385
0.0416805
1.11047
0.0880356
0.724369
1.41845
0.0423406
0.0398515
0.0428724
0.260954
0.0218968
0.0209567
0.0265163
0.205271
0.050406
0.0293794
0.0140665
0.161106
0.0404008
1.33349
0.0169612
0.0166744
3.7116
0.78128
1.08808
0.0411685
0.182134
0.0125521
0.0306202
0.0171486
0.659198
0.0160446
0.0378407
0.273911
0.826455
0.0167942
0.237297
0.856277
0.0111944
0.0107226
0.0416093
0.28079
0.046503
4.12416
0.0190773
2.56057
0.438061
0.226659
0.158049
0.0905957
1.22125
0.0417035
0.143953
0.107225
3.58354
3.39556
1.23293
0.0430924
0.00303959
3.74071
0.764646
3.51804
3.43044
0.051183
0.0323208
1.31946
2.21378
0.0397587
0.0501992
0.0497021
3.63476
0.0395938
0.19499
0.0431059
0.655702
0.0570876
0.0753219
0.0660805
2.52128
0.0120515
0.010548
0.901601
4.13788
0.0407618
0.0165779
1.08577
1.01541
0.0299193
0.0514417
0.0422823
0.0221425
0.0159398
2.2541
0.422305
0.0512273
0.23394
0.0468754
1.15478
0.046725
0.0411082
3.29716
0.0462702
0.023199
0.0217371
0.00693714
0.179029
0.0307491
0.0285039
1.3248
0.0636526
0.655408
0.0230762
0.0420802
0.0165116
0.0208775
3.89135
0.538473
0.0504337
0.00584296
1.04677
3.75025
0.0627709
1.20652
0.371192
0.0407288
4.12948
1.48679
3.40232
0.0230127
2.34149
0.00165284
0.0204579
0.0706415
4.12658
0.0288441
2.07795
0.0753882
1.36103
1.04717
3.70903
0.362807
0.0154237
0.0161642
0.0570217
0.0271594
0.0408819
3.42923
0.0567403
3.08226
0.438308
0.397929
0.988393
0.0504964
0.605664
3.00735
3.20495
0.448348
0.0394308
0.129091
2.93395
0.637467
0.0402891
0.0381374
3.03249
0.0478353
1.0702
0.0185449
0.038556
0.0344301
1.58037
0.0271481
0.000221053
0.941932
0.138257
0.517705
0.0414772
1.29887
0.0294032
1.2569
0.0341939
0.0263341
0.0362093
1.2493
3.89084
0.036684
0.052818
0.051364
0.0292296
0.077053
0.103091
0.0751609
3.05646
0.00453506
0.0613294
0.0438978
0.0255775
0.0416445
0.0166928
0.0769343
0.0128555
1.12314
0.0653933
0.0537171
0.00247722
0.016673
0.0401982
0.0303266
1.43135
3.68931
0.429558
0.393878
0.949194
0.104354
1.16856
0.0159782
0.0122165
3.55561
0.0341026
0.0382412
1.24725
0.0648499
1.59585
3.96684
0.0422774
0.0985723
0.470106
0.0447851
0.323936
1.22905
0.619903
2.68752
0.0193067
0.0185308
2.21016
0.0287264
3.05362
0.188008
0.019466
3.45794
0.0393586
0.0163272
0.41677
0.0717697
0.0178532
0.381091
0.312322
0.287893
1.03671
0.00136651
0.0284102
2.99026
0.0290901
0.0570115
0.084363
1.60174
0.0686099
1.12386
0.0430364
0.0160367
2.73741
0.0277006
0.0207123
1.09277
0.0390189
0.0485565
1.9926
0.0390434
1.1608
0.030936
0.208822
0.415569
0.518222
0.0432627
0.0418967
0.93418
0.0252188
0.0521403
0.470887
0.0468086
0.0674707
0.0103204
4.11328
3.6167
1.24781
0.0155219
0.271713
0.0514723
3.38111
0.627354
0.361768
0.473467
0.0931092
2.89186
3.21987
0.040224
0.0763305
0.150753
0.0716175
0.319188
1.87713
0.0166851
0.516626
0.0384878
1.34315
1.3111
0.0462696
1.04894
4.96555
0.054097
3.38792
0.00734301
1.61163
0.0298475
0.0462036
0.0384844
4.39537
0.982864
1.02448
0.0122117
1.38869
1.28111
4.15814
0.0172615
0.0618957
0.336535
1.53119
0.0449977
0.879931
0.0394942
0.380026
4.63672
0.0402472
0.273927
0.01506
0.0258359
0.207142
2.61773
0.101439
1.00035
0.0194182
0.0313295
3.81863
4.0935
1.58487
0.0575456
0.218784
0.654934
0.277216
0.101182
0.0527221
0.0182373
3.06511
0.0528104
0.039526
1.14827
0.0930377
0.0577417
0.0469615
0.0552287
1.23526
0.0663758
0.0154309
0.426703
1.25853
0.029808
0.0233498
1.37444
0.132854
0.00281993
0.0593385
0.398229
0.0181817
0.0440247
0.0399663
0.0966902
0.0323244
0.0403649
1.03149
0.020567
0.0778806
0.115463
0.250285
0.0169242
0.0421028
1.44508
0.06809
0.0185489
0.0294637
0.0594373
0.0352372
0.023717
1.64311
4.41326
0.1257
2.98247
0.0188636
0.0167528
0.0186142
0.00770513
0.0676786
0.0153071
0.254897
0.070488
0.0173875
0.0194254
1.00859
0.262704
0.0288739
0.359865
0.051598
0.0374756
0.0134783
0.10922
0.502641
1.58108
1.22946
1.07891
0.00891299
0.0407263
0.00501195
0.0980641
0.0398231
4.11109
0.0431143
0.192335
0.0247158
1.62645
0.151746
2.9878
0.000750775
0.0189154
0.0176759
3.33866
1.34274
0.290126
0.268456
0.0226446
0.0424383
0.0324351
2.02813
0.00199221
0.0254429
0.934967
0.0258672
0.0777393
0.0407265
0.0104456
0.258014
0.0574047
0.0210756
0.0363597
0.0373101
0.0553464
1.21642
3.41647
0.0259103
0.991782
0.0366927
3.04885
0.0184898
0.0626064
0.0296299
0.0183725
1.15709
0.0371007
0.0545259
0.0166351
0.166977
0.0181315
0.0872521
0.0744324
2.57372
1.01695
0.191503
3.75021
1.13589
1.69067
3.8337
0.0411724
0.0180683
0.0188639
0.000480454
0.0401803
0.425391
0.0610518
0.0248545
0.346503
0.0477581
0.0433878
0.269412
0.0322225
0.0441196
0.0191315
0.191089
0.466133
3.38444
0.0418511
1.40683
0.7184
1.33838
0.199804
3.29524
3.58691
0.311213
0.010426
0.0479326
0.000708722
0.145719
0.0351392
0.676912
1.2932
0.0583901
1.01773
0.444115
0.0151961
0.0189789
0.0297159
4.3416
1.23491
0.0223548
0.848019
1.36919
0.303511
1.72558
3.47703e-05
0.027721
0.286099
0.00236891
1.18664
0.545671
3.41317
1.28568
0.0165643
1.30477
0.0144553
0.00219069
0.286832
0.0531425
0.0680805
0.0289466
0.036494
0.364014
0.0484951
0.0149727
0.0403165
0.0383015
0.238456
0.0493842
2.13908
1.10624
0.0552175
0.501472
0.0629415
0.663634
0.0449918
0.0534233
0.0747568
0.277964
0.248765
0.00297412
0.0720094
3.90687
1.09428
0.670573
0.0376365
0.376606
0.652853
1.27143
1.1301
0.899465
0.0341181
0.0668283
3.31641
0.00767588
0.0183312
0.114073
2.50359
2.58414
0.0231197
0.0292949
1.90361
0.0181453
1.62638
1.4963
0.0701122
0.0226275
4.06361
1.17699
1.54058
0.043993
0.0251836
0.00689646
0.344702
0.94884
0.0352737
0.0181352
0.0220725
0.645001
0.0325601
0.277636
1.48817
0.0418227
0.0295643
0.618941
0.042966
0.276963
0.0227988
0.253111
0.0421388
0.0172254
0.646559
0.0697386
0.0596799
0.0473604
0.180954
0.271721
3.44525
0.0127935
0.038675
0.0339129
1.0191
0.660842
1.90082
0.0142214
0.454386
1.12639
0.000364253
0.0163803
0.0269874
2.88158
0.0441237
0.763838
0.0610856
0.00287365
0.816279
0.0444927
0.394156
0.379725
0.320274
2.16286
2.43695
4.29507
0.0431804
2.85699
0.953976
0.0719129
0.81375
0.0252552
0.0267153
0.524943
0.0358674
0.0930103
0.207642
1.23347
0.0118766
0.00952293
2.64539
0.026809
0.0515201
0.998708
1.29814
1.03637
0.0550738
0.133826
3.76982
3.51164
0.785398
0.274192
1.8787
0.0408139
0.0110094
0.349808
1.25456
0.0429854
0.185755
0.0260773
1.33943
0.0661268
0.579514
1.4948
0.0013176
0.0260613
0.0562544
1.20967
1.03299
1.60375
1.21651
0.0990003
0.154865
0.242652
0.100679
1.23249
0.221202
0.0244141
0.0429865
0.0347452
0.00872741
0.411246
3.07232
0.0219478
1.31271
0.0798452
1.113
0.0484771
0.0255514
0.0178295
2.09306
1.68554
0.126037
0.249705
0.0235496
0.0157711
1.19428
0.0443823
1.1801
0.935263
3.62654
0.0223014
0.163232
1.20026
0.0522255
0.0883925
0.0521412
3.64381
0.0480065
0.0726688
1.08053
0.990629
0.0183788
0.0977911
0.0423224
0.0699561
0.0193172
0.0176785
0.238388
0.014196
0.156355
1.25054
0.642868
2.13735
0.0399572
0.137243
0.412664
0.00933877
1.11686
0.0337597
0.0390423
3.78749
0.0597947
0.245786
0.0389176
0.0168406
1.38729
0.0418681
0.157011
0.00964769
0.779731
0.893188
2.37609
0.0172256
0.799009
0.024398
0.203379
0.0532812
1.52355
0.748555
0.145935
4.98838
0.0289317
3.92909
0.0312925
1.33063
0.0583998
0.0184046
0.0473768
0.616493
1.12593
0.0171861
0.0552126
0.571429
0.0234079
0.0576757
0.0171035
0.00853709
0.0489693
3.92031
0.0772533
0.0372333
1.34379
0.168931
4.28735
0.0086503
0.0644148
0.0217279
0.0514141
0.0954987
0.0290397
3.28361
0.0555437
0.369872
0.02507
0.104366
0.407533
1.34593
0.0436168
0.0517732
0.0579283
0.0905029
0.0299781
0.197936
3.16322
0.187187
0.222164
0.0221464
1.22956
3.56117
0.135008
0.499082
0.0554625
1.33826
3.46123
4.11344
0.0322891
0.0333892
0.115243
1.64571
0.10207
1.46611
0.0685984
0.258869
1.37023
0.0140736
0.0543328
0.0482743
0.0425207
0.0442445
0.0315733
1.24039
0.0410518
2.61704
0.0426075
0.0236483
0.0138476
0.0402619
0.273999
0.0246806
0.673679
0.478103
0.0305745
0.072014
1.28183
2.93492
0.0243668
0.0333904
0.0727174
0.211848
0.1652
0.128872
2.34645
0.0196912
0.0447361
0.321285
0.0295084
0.10785
1.22603
0.0230763
0.0207099
0.00302061
0.0367448
0.646168
0.898265
0.764168
0.046648
0.118598
0.0439958
2.84406
3.01992
0.0413926
0.0435793
1.04047
0.0425127
0.0191772
1.31749
1.18333
0.0446526
0.0441003
0.013767
0.238156
1.39928
0.0247798
0.0123058
1.4236
1.34363
0.00137051
0.0222702
0.0209237
0.08033
0.234886
0.298378
0.0312697
1.2373
0.0348737
0.0698234
0.0267018
0.253864
0.0209011
3.50828
1.25443
3.70952
1.34259
0.889736
0.256888
0.0257093
2.43427
0.29199
0.0192184
0.115048
0.0240704
0.104232
0.0336552
0.0272405
0.0160278
1.7021
0.0164203
0.153181
1.19427
0.0386691
0.139563
0.210458
4.10177
0.00865081
3.66415
3.23793
0.0439066
0.017851
0.11977
0.159797
0.102272
0.756972
1.13226
0.0715405
0.0168447
0.043748
0.718386
2.90367
0.0632486
0.064771
0.0166033
0.0214994
0.050176
0.178832
0.0429909
0.0521849
0.055213
1.4883
0.0515856
0.128669
5.22854
0.043677
0.161812
0.109583
0.368299
0.161489
0.170597
0.313449
0.0392309
0.501883
1.31612
0.0295332
0.427728
1.09136
0.0389999
0.0618828
0.0735042
0.973301
0.0249501
0.389729
0.0534362
1.20846
1.7883
0.44503
1.42882
0.0572669
0.0476458
0.591833
0.718658
0.0599522
0.0767613
0.0273172
3.20483
0.0738732
0.138671
0.0165053
0.0912926
0.336065
0.0221572
0.0210357
0.0225779
1.66044
0.541197
0.0394609
0.0916151
0.0406519
0.0298034
0.0374751
1.36533
0.0842037
0.53514
2.56403
0.334582
0.00107747
0.83198
1.02804
0.653494
1.42776
0.0441692
0.723017
2.24757
1.561
0.0069338
1.32715
0.0417527
3.28678
0.112906
0.043477
0.393489
1.01293
3.44333
0.570818
0.13614
0.0384187
0.803595
1.86721
0.098254
2.30315
0.0888326
0.64671
0.048665
1.53821
0.120122
0.0168284
0.0384333
0.532545
0.0178133
0.0380947
0.633178
0.0258429
1.23002
0.012554
0.0499953
1.23469
0.760517
0.0676865
0.29
1.17077
0.0953739
0.299056
0.120067
0.0563912
0.186371
0.0180333
1.59848
0.499051
0.00999317
3.37611
0.0520295
0.223415
0.108999
0.0682134
0.0195049
0.205638
0.50264
0.91203
0.0168171
3.15145
0.0251164
0.297317
3.3195
0.182699
0.0823248
0.925804
0.0619111
0.0304823
0.000178477
1.08158
1.98128
0.0345957
2.65032
0.128528
0.0391853
0.827103
0.0504686
0.0300841
0.42415
0.0794899
0.0280383
0.0732485
0.0220107
0.0554234
0.0851517
1.82095
1.69337
0.0849016
0.0446741
0.0166046
0.458556
3.21319
0.0282097
0.0129696
0.130899
2.68475
0.0136457
0.676891
0.40781
0.0185126
0.272341
2.52627
0.0260765
0.104993
0.0392189
0.132249
0.0263386
0.0281206
0.0686955
0.205357
1.84094
0.00918704
2.3907
0.0179399
3.1361
0.052379
0.824628
0.22028
0.665721
1.43598
0.0494318
0.302693
0.0929117
0.0695374
0.0717864
1.43106
1.31243
0.0565762
0.045718
0.227452
0.0742738
0.0309209
0.0123565
3.54962
1.59566
0.472987
2.50307
0.084893
0.0190794
0.510495
0.0975096
1.38095
0.00872016
0.0624084
0.0167657
0.0501314
0.0308635
0.0473772
0.0370614
0.167176
3.24747
1.60738
0.0461756
0.143935
0.305065
2.69187
0.0325917
3.66934
1.35983
1.78229
0.0680905
0.495163
0.019896
0.0871842
0.0670488
0.0595307
0.0420753
1.31451
3.45746
0.0760788
0.136495
0.637187
0.15023
1.70341
4.06124
0.0461109
0.0120503
0.047397
0.119958
0.570335
0.0171409
1.53481
0.442681
0.0596188
0.0534304
0.0807033
0.265197
0.0891442
0.0185751
0.0540226
0.0268917
0.073503
0.319533
0.0826648
3.64475
0.0603047
0.0414716
0.136946
0.0458212
0.0260072
2.34804
1.76193
0.0406
1.7933
0.0415241
0.832376
0.0683244
0.0929337
0.0254029
0.0198767
1.44059
0.0525704
0.072037
0.701759
1.20023
0.041292
0.0440719
0.0397094
0.0799439
1.04214
0.0196368
0.0354109
2.73817
0.0368966
0.0422427
0.0685246
2.71207
0.039722
1.73129
1.41757
0.0146787
0.787838
0.0726695
0.00891921
3.2306
0.223077
0.0413756
0.00165181
0.276728
0.0569299
0.100628
0.0177661
1.06504
5.22951
0.037721
0.0158345
1.22488
0.0593535
0.583292
0.691303
0.051746
0.415996
3.20473
0.0405488
0.519458
0.0549035
0.0596115
0.086629
0.0288947
1.51556
1.23132
0.0512768
0.0429521
1.99859
0.049255
0.0903536
0.0585361
0.411237
0.871827
0.0186793
0.0287869
0.0435214
0.0289056
0.0186737
0.00158455
0.0381763
0.0876752
4.29875
0.291246
0.0335697
0.752158
0.0632697
0.568293
3.42291
0.731414
1.37397
0.0381408
1.43372e-05
0.291036
0.0897691
0.0475217
1.33362
0.0518783
0.869769
1.64109
0.321885
0.0673103
4.41386
0.018856
1.66002
0.0335689
0.0333906
0.836071
0.170324
0.5668
0.0439424
0.0301933
0.0119579
0.0727315
1.15632
0.600097
0.058446
1.22137
0.226821
1.68728
0.0136281
3.12694
0.0509162
0.0412631
0.179116
0.0504163
0.239112
1.49559
0.296292
0.0204695
1.61789
1.20111
0.0821667
0.65432
0.334035
0.00767268
0.226103
1.58441
0.0426095
0.0232234
0.0310051
2.34447
0.0320962
0.00910294
1.11121
0.287009
0.0834595
3.23454
0.523399
0.12199
0.120137
0.8707
0.0527076
0.26271
0.0208679
0.0535759
0.0274776
3.93298
0.0535087
0.670357
1.74558
0.016608
0.493774
4.73809
0.057989
3.05828
0.0249796
0.237348
0.0838944
0.0156341
0.0643119
0.0424762
0.0181781
0.0600107
0.0475934
0.0383378
0.035666
1.55108
0.28933
0.0397958
0.224982
0.0276446
0.033413
0.0229771
0.0502026
0.0578812
1.28213
0.00877558
1.07688
1.79671
1.21834
0.797905
0.0668426
0.0716476
3.52933
0.0305819
0.376994
0.0493702
0.0243537
0.0884849
3.42826
0.0566591
0.0383593
0.0273796
0.105336
0.0433283
1.16788
0.275478
0.859002
1.64809
0.0298089
0.0220846
0.273787
0.0441939
0.053282
0.0156352
0.0696127
0.0194014
0.0408017
0.0693076
0.00889421
0.694701
1.88583
0.806075
0.0541374
0.0413935
0.545358
1.70635
1.38816
0.0194414
0.0368217
0.375731
0.0233602
0.0180166
0.0458559
1.2148
0.39633
0.0241517
0.0291934
0.0566316
0.0164998
1.74262
0.0221066
0.053052
0.0516503
0.048851
1.49668
0.0482204
1.36211
0.0314823
0.0446642
0.016634
0.0156989
1.54275
0.162886
0.0209943
2.5887
0.350067
0.290286
0.0115419
0.0323553
0.911043
3.06118
3.22694
0.0240443
0.526745
0.046137
0.0428011
4.15767
1.31093
0.0165038
0.0123866
0.639349
1.04784
0.0405977
0.0179564
1.43172
0.027019
0.0547192
0.0805873
0.05121
0.279774
0.0460766
0.041829
0.0488868
1.33
0.0399863
0.0194102
0.0293985
0.0680287
0.0700341
0.0583561
0.227826
0.443336
0.338557
0.0652425
0.0613963
0.0417493
0.0135946
0.046969
0.0321452
0.27448
0.045155
0.0531259
0.0889203
0.376875
0.0192322
0.016547
0.0464402
3.5845
0.0434171
0.490639
0.00793243
0.0456668
0.00196416
0.0494888
0.0509006
3.02819
0.0580812
0.0218085
0.172019
0.0403546
1.20053
0.0355005
0.0258733
2.67711
2.10605
0.0178887
1.50607
0.0397549
0.652435
1.52482e-05
1.77761
0.0166521
0.981181
0.0311974
1.77219
0.269211
0.795539
3.65122
4.33464
0.0180293
2.45658
0.0167589
0.0174372
0.0301302
1.68087
0.0810674
0.0180257
0.323496
2.95427
1.30557
0.0939936
2.88682
0.0169979
0.0806707
0.0284113
0.212143
0.0622352