/*--------------------------------*- C++ -*----------------------------------*\
  =========                 |
  \\      /  F ield         | OpenFOAM: The Open Source CFD Toolbox
   \\    /   O peration     | Website:  https://openfoam.org
    \\  /    A nd           | Version:  10
     \\/     M anipulation  |
\*---------------------------------------------------------------------------*/
FoamFile
{
    format      ascii;
    class       volScalarField;
    location    "700";
    object      nut;
}
// * * * * * * * * * * * * * * * * * * * * * * * * * * * * * * * * * * * * * //

dimensions      [0 2 -1 0 0 0 0];

internalField   nonuniform List<scalar> 
10435
(
8.0427
6.68605
5.71357
10.4798
4.1475
1.56895
7.94409
12.9757
13.9499
1.82755
6.31351
11.0575
1.74731
2.76458
3.08721
9.50512
2.54985
1.04626
14.0703
9.01604
11.3804
11.9481
7.66288
14.7046
2.80497
2.86848
2.74977
3.60573
2.41399
1.33016
5.87537
5.89221
13.6205
2.22324
11.9617
5.67753
10.7109
2.81464
2.88352
14.0906
1.07809
7.25957
2.27367
9.69861
8.99443
14.3556
1.30163
2.31738
14.3531
13.3673
12.2012
3.65494
2.75765
2.42886
2.87342
2.35126
11.8602
2.71656
2.20711
12.8965
2.74662
6.55495
2.60051
4.237
8.16173
4.33771
2.14427
2.46567
12.1915
15.2836
2.46337
2.88667
1.99677
5.24877
3.5657
2.38588
15.4073
9.26967
14.2394
3.53318
14.7565
7.20441
2.61814
2.38663
15.1346
5.42462
6.51888
8.68713
4.32156
7.26781
8.83303
8.88142
8.38681
4.92828
7.89321
5.03527
9.17052
3.45796
2.30275
7.84942
3.8631
2.36971
5.70136
8.3713
2.10748
10.1061
9.54256
14.1637
15.2473
4.19211
12.5241
2.69167
6.06485
5.03995
7.66449
11.3243
8.04336
6.13893
7.63279
9.92435
8.44536
2.21448
6.76372
3.36987
4.09338
2.77568
9.61226
2.45408
5.98326
3.07038
2.85103
4.62963
11.0397
3.04055
2.89339
2.10301
4.5929
10.8992
7.53354
10.6622
9.8967
7.12917
2.16536
7.02211
12.5409
2.96589
3.96933
2.90505
2.56765
9.12279
2.35713
9.95704
7.68294
8.24226
2.56949
2.51321
3.56105
7.23935
2.08049
5.58219
8.67751
2.69038
7.31331
13.3657
4.20179
6.55345
13.4077
11.6793
13.3396
5.92805
3.05011
1.90805
2.50121
3.27484
10.981
5.84645
6.20499
2.38416
11.6234
2.42321
6.58763
1.80118
9.86296
2.68447
7.94634
2.15832
2.19033
10.0889
3.62821
5.27046
9.46699
2.4758
3.03359
5.17765
3.08974
11.2282
2.49733
4.71023
2.34685
9.90547
4.29629
2.6622
2.58519
2.66661
3.71287
6.21795
7.54289
11.3533
2.50844
13.0725
2.24244
7.03301
7.93482
12.7986
2.6357
2.76714
5.02246
2.31429
2.89736
2.45514
2.3761
2.38858
2.29798
3.32075
2.71549
11.3528
2.85939
4.10244
5.02912
2.58638
2.38109
12.4942
2.8647
10.9007
3.03824
2.41434
12.9148
2.83954
13.6614
4.38873
9.15647
2.66075
2.18815
2.38441
6.77867
14.0721
4.36203
12.2248
2.04742
5.86874
2.20579
5.01234
1.60564
13.4022
11.0773
4.80077
1.91313
10.1984
2.34267
2.5091
9.2311
3.62133
2.77771
14.6229
5.96994
2.32088
8.47874
6.24654
2.49393
6.08174
8.14257
13.4661
12.0914
2.97827
2.9597
10.1074
2.94911
4.45533
10.0247
13.9735
1.93467
2.40304
6.98643
3.66375
5.86568
2.2387
3.25876
2.85574
2.33709
2.31159
3.72812
5.14719
2.41547
12.8817
2.93661
2.45881
2.70434
7.00068
4.88266
4.38324
2.41203
13.9076
5.85743
2.19884
5.38478
3.05901
2.45299
11.8324
4.29608
2.28205
10.6305
2.70708
5.63143
3.01318
13.469
2.3999
2.5614
6.70734
2.38902
11.6442
1.88016
2.53841
6.78777
2.34026
14.3782
2.55296
3.05671
4.73995
2.29299
2.86543
13.3809
2.21848
2.2268
6.59912
9.96945
2.59913
2.32779
2.14675
2.1333
2.40113
3.09186
2.71565
2.63166
2.51999
2.42088
2.51599
2.50054
3.08861
2.21407
14.587
2.17483
2.91237
2.69932
3.68722
14.6431
14.5838
1.66333
5.89588
2.41315
2.29659
2.21459
2.84674
2.33994
2.36216
2.54269
3.08832
2.55227
11.8879
3.01238
14.4967
2.85696
3.10634
1.32459
14.4821
2.12129
2.80616
2.70217
2.9162
2.35301
2.92154
3.34725
2.81574
14.0923
2.40582
12.9649
14.7313
2.7887
2.0951
14.6864
4.6314
12.7738
2.91213
2.0896
2.39909
2.41521
5.61135
2.39284
1.29608
3.27667
2.48535
3.09501
2.31736
2.43527
8.69153
2.8298
13.5996
12.5249
2.08167
2.98776
3.14144
14.2179
3.23971
3.01428
2.56655
2.33979
2.45111
2.46736
4.84058
2.46019
2.91677
2.43961
2.08957
0.878166
1.91769
2.01539
14.3351
2.23666
55.9575
55.8583
55.124
53.8297
52.0088
49.7008
46.9973
44.0536
41.1056
55.7513
55.6781
55.1161
54.08
52.5926
50.7026
48.5089
46.1697
43.8981
54.3783
54.3652
53.9825
53.2199
52.0864
50.6286
48.9473
47.2004
45.5964
51.88
51.932
51.722
51.2251
50.4367
49.3999
48.2141
47.0402
46.0969
48.3535
48.4625
48.4016
48.1383
47.6583
47.001
46.2642
45.6146
45.3049
43.9722
44.1263
44.1768
44.0942
43.8606
43.5133
43.146
42.9221
43.1034
38.9951
39.1801
39.2944
39.3252
39.2592
39.1338
39.0352
39.1112
39.5897
33.7655
33.9459
34.0684
34.1409
34.16
34.1639
34.2312
34.4902
35.1204
28.6352
28.7559
28.8304
28.8811
28.9136
28.9654
29.1082
29.4575
30.1734
23.8642
23.8813
23.8691
23.8576
23.8557
23.897
24.0451
24.4055
25.1386
19.5835
19.491
19.3894
19.3082
19.2547
19.2553
19.3638
19.6714
20.3202
15.8214
15.66
15.5057
15.3778
15.2815
15.2374
15.2899
15.5139
16.0258
12.5395
12.4103
12.2637
12.1262
12.0086
11.9309
11.9314
12.0703
12.4371
9.81607
9.77061
9.67035
9.5484
9.42664
9.32871
9.28918
9.35662
9.59821
7.74091
7.75547
7.69444
7.58901
7.46798
7.3575
7.28883
7.30174
7.45121
6.28739
6.30851
6.25611
6.15356
6.02922
5.90815
5.81724
5.78759
5.85863
5.31902
5.30848
5.23944
5.12682
4.99392
4.86227
4.75402
4.69316
4.70667
4.65732
4.61384
4.52218
4.39561
4.25275
4.1115
3.99
3.90753
3.88584
4.17133
4.11023
4.0036
3.86707
3.71701
3.56886
3.43775
3.33931
3.29113
3.79358
3.72819
3.61647
3.47638
3.3235
3.17197
3.0348
2.92472
2.85486
3.49592
3.43317
3.32267
3.18367
3.03156
2.87974
2.73978
2.62245
2.53884
3.26902
3.20996
3.10223
2.96588
2.81631
2.66623
2.52591
2.40427
2.31031
3.11102
3.05127
2.94361
2.80881
2.66196
2.51477
2.37596
2.25253
2.15136
3.02272
2.95072
2.83713
2.70153
2.55681
2.41336
2.27778
2.15494
2.04986
3.00585
2.89844
2.77258
2.6347
2.49164
2.35294
2.22259
2.10259
1.99554
2.83597
2.88988
2.96748
3.06951
3.1965
3.34827
3.5243
3.72355
3.94487
4.18668
4.4474
4.72534
5.01851
5.32512
5.64289
5.96965
6.303
6.64036
6.97907
7.31649
7.64971
7.9759
8.29209
8.59518
8.88429
9.16055
9.42372
9.67326
9.90966
10.1363
10.3549
10.5673
10.7766
10.9878
11.2071
11.4423
11.7032
12.0015
12.3516
12.7706
13.2789
13.9007
14.6647
15.6063
16.7691
18.2043
19.9677
22.1162
24.6958
27.7293
31.1971
35.0215
39.0607
43.1101
46.9286
50.2673
52.9102
54.6979
55.5788
2.79277
2.84622
2.92237
3.02224
3.14641
3.29491
3.46736
3.66299
3.88069
4.11904
4.3764
4.65093
4.94061
5.2434
5.55735
5.88035
6.21011
6.54418
6.88003
7.21505
7.5466
7.87201
8.18877
8.49448
8.78728
9.06616
9.33094
9.58227
9.82168
10.051
10.2719
10.4863
10.6975
10.9095
11.128
11.3601
11.6148
11.9028
12.2377
12.6357
13.1169
13.7059
14.4336
15.3389
16.4698
17.8831
19.6406
21.8018
24.4102
27.4791
30.9769
34.8158
38.8472
42.868
46.6411
49.9274
52.5191
54.2666
55.1191
2.71844
2.76868
2.84056
2.93516
3.05308
3.19454
3.3593
3.54676
3.756
3.98581
4.23476
4.50121
4.78334
5.07921
5.38679
5.70392
6.02834
6.35768
6.68945
7.02111
7.35002
7.67357
7.98923
8.29471
8.58819
8.86856
9.13542
9.38911
9.63062
9.86145
10.0833
10.2984
10.5096
10.7209
10.9374
11.1656
11.4137
11.6922
12.0137
12.3944
12.8546
13.4201
14.1237
15.0068
16.1199
17.5213
19.273
21.432
24.0382
27.0993
30.5765
34.3748
38.3418
42.2785
45.9596
49.1615
51.6926
53.4139
54.2774
2.59917
2.64588
2.71332
2.80248
2.91398
3.04807
3.20458
3.38305
3.58269
3.80249
4.04119
4.29735
4.56933
4.85539
5.15359
5.46189
5.77813
6.09999
6.42505
6.75081
7.07469
7.39415
7.70674
8.01025
8.30281
8.58316
8.85068
9.1054
9.348
9.57972
9.8022
10.0177
10.229
10.4399
10.6553
10.8815
11.1263
11.3996
11.7142
12.0862
12.5362
13.0909
13.7838
14.657
15.7608
17.1518
18.8885
21.0228
23.5882
26.586
29.973
33.6533
37.4784
41.2597
44.7881
47.859
50.2979
51.9769
52.8507
2.44564
2.4887
2.5515
2.63499
2.7398
2.86618
3.01402
3.18294
3.37227
3.58113
3.80843
4.05292
4.31317
4.58759
4.87444
5.17184
5.47773
5.78992
6.10612
6.42386
6.74069
7.05414
7.36186
7.66166
7.9517
8.23065
8.4977
8.75265
8.99593
9.22853
9.45202
9.66858
9.88111
10.0934
10.3102
10.5376
10.7833
11.0573
11.372
11.7437
12.193
12.7464
13.4371
14.3058
15.4001
16.7725
18.475
20.5522
23.0298
25.9034
29.1282
32.6127
36.2206
39.7807
43.1048
46.0087
48.334
49.9642
50.8545
2.26059
2.29946
2.35708
2.43436
2.53189
2.64996
2.7885
2.9472
3.12548
3.3226
3.53761
3.76942
4.0168
4.27834
4.55251
4.83758
5.13168
5.43278
5.73869
6.04706
6.35555
6.66178
6.96349
7.25854
7.54511
7.82181
8.0877
8.34246
8.58633
8.8202
9.0456
9.26475
9.48067
9.69718
9.91909
10.1525
10.405
10.6862
11.0086
11.3876
11.8431
12.4001
13.0896
13.9489
15.0208
16.3514
17.9854
19.9597
22.2938
24.9805
27.9775
31.203
34.5368
37.828
40.9109
43.6227
45.8223
47.4029
48.3202
2.04521
2.07904
2.13054
2.20063
2.28992
2.39871
2.52704
2.67465
2.8411
3.02573
3.22775
3.44624
3.68014
3.92824
4.18921
4.46152
4.7435
5.03324
5.32865
5.62748
5.92749
6.22642
6.52209
6.81247
7.09571
7.37044
7.63566
7.89095
8.13647
8.3731
8.6025
8.82709
9.0501
9.27555
9.5083
9.75448
10.0215
10.3184
10.6568
11.0508
11.5179
12.0802
12.7644
13.6023
14.6301
15.8861
17.4072
19.2236
21.3517
23.7857
26.491
29.4
32.412
35.4
38.2216
40.7345
42.8124
44.3564
45.3206
1.79427
1.82135
1.86504
1.92632
2.00587
2.10409
2.22112
2.35679
2.51078
2.6826
2.87156
3.07681
3.29744
3.53246
3.7808
4.04125
4.31235
4.59228
4.87889
5.16984
5.46297
5.75622
6.04762
6.33528
6.61735
6.89253
7.15974
7.41848
7.66884
7.9119
8.14974
8.38518
8.62193
8.86417
9.11674
9.38588
9.67848
10.0023
10.3671
10.7838
11.2664
11.8318
12.5008
13.2982
14.2521
15.3922
16.7481
18.3446
20.1982
22.3109
24.6631
27.2078
29.868
32.541
35.106
37.4369
39.4176
40.9535
41.9947
1.49588
1.51242
1.54481
1.59446
1.66224
1.74861
1.85356
1.97674
2.11864
2.27941
2.45741
2.65163
2.86099
3.08483
3.32293
3.57445
3.83902
4.11478
4.39795
4.6858
4.97662
5.26883
5.56092
5.85133
6.13834
6.42081
6.69725
6.96708
7.23045
7.48895
7.74585
8.00462
8.26907
8.54341
8.83217
9.1429
9.48174
9.84998
10.2541
10.7017
11.2019
11.7641
12.4
13.1289
13.973
14.9517
16.0879
17.3986
18.9014
20.6165
22.5533
24.6959
26.9945
29.3715
31.7241
33.932
35.874
37.4501
38.6051
2.64808
2.5478
2.47231
2.40769
2.34864
2.29365
2.24293
2.19761
2.15935
2.13059
2.11467
2.11234
2.12089
2.13599
2.15336
2.17198
2.19289
2.21757
2.24821
2.28758
2.33822
2.40207
2.48218
2.58281
2.71221
2.50081
2.47493
2.42962
2.37801
2.32484
2.27254
2.22305
2.17829
2.14049
2.1122
2.0955
2.09047
2.09511
2.10633
2.12158
2.1398
2.16114
2.18656
2.21773
2.25705
2.30727
2.37148
2.4531
2.55636
2.68812
2.4301
2.41015
2.37451
2.33001
2.28122
2.23139
2.18322
2.13921
2.10188
2.0736
2.05589
2.04874
2.05075
2.05964
2.0733
2.09042
2.11063
2.13457
2.16399
2.2011
2.24914
2.31138
2.39108
2.49205
2.61952
2.37231
2.34812
2.3135
2.27135
2.22473
2.17649
2.12938
2.08604
2.04903
2.02053
2.00181
1.99295
1.99286
1.99969
2.01141
2.0264
2.04393
2.0646
2.08971
2.12235
2.16563
2.22278
2.29688
2.39066
2.50852
2.31506
2.28545
2.24882
2.2065
2.16042
2.11285
2.06627
2.02322
1.98616
1.9571
1.93725
1.92673
1.92463
1.92919
1.93831
1.95008
1.96348
1.97897
1.99813
2.02417
2.06034
2.10962
2.17482
2.25801
2.36379
2.25596
2.22086
2.1813
2.13775
2.09134
2.04375
1.99715
1.95392
1.91637
1.88642
1.86523
1.85295
1.84868
1.85062
1.85645
1.86398
1.87195
1.88066
1.89232
1.91002
1.93698
1.97593
2.02931
2.09869
2.18923
2.1946
2.15438
2.11207
2.06715
2.02004
1.972
1.92489
1.88101
1.84257
1.81142
1.78869
1.77451
1.76787
1.76677
1.7686
1.7709
1.77231
1.77298
1.77563
1.78332
1.79905
1.82521
1.86343
1.91545
1.98667
2.12955
2.08659
2.04279
1.99695
1.9491
1.90028
1.85228
1.8074
1.76787
1.7354
1.71113
1.69505
1.68588
1.6813
1.6784
1.67445
1.66807
1.6594
1.65157
1.64757
1.64999
1.66067
1.67981
1.70916
1.75362
2.06291
2.02022
1.97645
1.93012
1.88147
1.83165
1.78252
1.73664
1.69634
1.66299
1.63773
1.62024
1.60852
1.60008
1.59162
1.58019
1.56456
1.54489
1.52478
1.50718
1.49398
1.48645
1.48255
1.48072
1.48445
0.964328
1.08793
0.244715
0.522902
1.17849
1.2228
3.0604
2.93174
0.267335
18.7628
0.205162
2.73941
14.7903
0.516009
6.97501
1.89032
0.342712
0.6437
29.6961
0.212233
9.13417
5.13515
0.24209
2.66282
3.41679
2.40197
3.40163
0.944032
0.225153
0.296187
42.7854
2.07923
0.302451
12.9411
0.279217
1.18798
11.7009
6.83989
13.6199
5.44001
0.247917
0.10047
3.53372
1.84108
1.69461
9.07302
0.217815
0.212428
0.188346
0.278021
0.213995
0.213457
13.4171
0.689528
3.08735
0.259044
0.576237
12.5678
1.32353
0.149794
1.05835
0.237758
1.16998
3.72837
2.89771
1.78935
12.2419
2.41615
14.6898
0.252674
0.257322
6.2616
1.44556
0.262382
3.21924
9.94212
0.651356
0.227134
2.42618
0.827884
12.7491
1.29587
2.81809
0.195544
1.13162
1.1115
1.68563
0.226941
0.297419
3.28409
2.13548
7.8936
8.42554
2.74387
1.26199
0.2068
2.31006
0.204392
0.322284
0.147879
1.04487
0.252041
1.06355
7.24477
1.49516
1.61253
0.243689
12.4954
0.667883
0.305989
4.59222
1.93034
0.281487
7.3544
13.3956
0.191787
0.254581
6.10857
14.5052
1.58844
0.0879805
2.0473
2.71525
3.32404
0.300349
3.34402
0.219051
0.377605
2.06438
0.213433
2.8142
0.289378
0.247318
14.6595
1.35354
1.66067
1.69389
0.965113
1.04377
0.178199
7.40976
12.577
0.157182
0.0734746
0.208459
2.27245
0.445954
2.00991
1.79321
0.288
2.85729
1.07764
0.43577
7.35489
3.45034
0.193299
1.92072
5.64995
1.44254
5.20521
3.4192
0.266729
3.12125
0.207906
4.71165
0.202298
0.564326
3.33715
3.10274
1.69072
0.537564
4.15541
2.35688
0.198266
16.1211
1.47181
7.72607
0.247304
0.161294
7.24641
10.9029
1.88393
13.81
9.12901
1.95143
0.827694
0.204715
0.678364
0.284214
1.39974
0.190921
0.154794
1.30547
12.333
6.65081
0.295057
3.27538
4.9319
0.200354
0.34243
14.6644
4.87271
1.22063
1.35412
1.27147
8.65121
10.8289
1.00026
0.206373
6.4746
1.56752
2.41799
11.6865
1.20808
4.25728
0.249702
1.10983
1.76558
7.17444
2.54235
0.638654
0.103397
3.35331
0.211062
2.30447
0.249717
3.28188
0.346274
0.577313
1.33408
0.190091
1.1849
1.73232
2.25372
13.1273
13.8738
2.45395
0.736104
9.39014
6.71856
39.9131
1.0724
4.26369
1.5468
1.54534
1.92614
2.50763
1.79891
1.9087
3.63683
0.476584
1.56286
17.5738
0.202974
1.3062
2.93653
0.280419
0.804469
1.69675
31.3637
2.17987
1.86402
1.47922
3.50191
0.336566
3.15484
6.52635
0.317336
2.87468
3.33016
7.32873
1.1236
0.437596
1.60064
26.6149
0.317002
8.62612
0.311243
0.624271
0.186031
1.98223
3.22355
2.4682
8.93106
0.156434
1.06777
1.61019
1.67817
0.222685
0.19682
4.34336
3.23496
0.110443
0.223162
14.9337
0.251607
0.262946
10.8594
5.45739
0.153673
0.176307
3.47939
3.09083
1.41368
0.301709
4.9652
8.49334
23.3463
0.180025
1.25457
6.53217
10.9821
0.293366
2.25846
0.370511
13.0627
0.223618
15.3431
3.35473
17.0745
1.38662
3.19643
2.90374
40.1992
1.58218
3.06335
0.251931
12.2633
12.1515
12.1329
4.88079
6.65526
0.582609
16.438
0.224711
1.14931
2.38093
2.81685
0.262802
2.26499
2.3482
2.83608
0.138696
12.4019
0.384258
1.08296
1.0359
0.969222
1.70844
0.209496
3.32451
8.04591
0.125675
1.76858
0.224883
2.40885
16.9982
1.92654
3.98735
0.211529
0.214745
0.24348
3.4578
0.248476
0.064157
1.83629
3.03095
0.226541
1.64201
0.282629
10.1422
7.39073
0.258433
0.330465
14.6587
2.79445
2.39631
6.07165
4.20139
15.8184
0.26814
3.52721
0.305392
2.00386
1.97596
15.8942
4.90047
0.220181
0.210658
0.190724
1.685
7.87665
2.09289
0.311305
10.1042
23.3909
4.56589
0.311765
5.33369
0.23144
2.86616
3.72504
1.14578
0.337917
2.8656
0.107992
4.31891
1.97923
7.03648
37.6313
0.228056
1.49382
0.146321
1.05275
2.98509
2.53725
0.175495
0.21014
4.32272
7.83232
4.80677
4.57989
2.87511
1.03171
3.37577
0.198546
0.168603
3.24798
30.3377
2.14963
1.30449
2.71876
3.29855
2.48192
3.73406
2.88445
4.7181
0.0857452
1.02117
2.25736
5.32082
6.88067
0.227873
3.38738
14.467
0.14565
0.813392
0.179955
1.60221
2.43039
0.322666
3.03217
2.96556
0.151744
11.9659
0.256446
0.207991
1.07361
2.13302
0.614373
3.41926
1.9916
0.268871
11.6485
0.190545
2.3023
1.28505
0.223982
5.03783
0.214621
1.87242
2.08321
0.249132
2.2668
3.24641
13.456
4.11494
2.21489
2.34264
3.08976
4.00365
12.6709
0.116803
2.7931
0.19308
1.17006
1.25436
6.09812
0.415443
6.89729
6.82178
2.57318
2.63064
0.300509
1.68717
0.910969
6.88266
1.09135
6.97443
0.278752
3.51292
3.98005
1.22683
1.32805
8.17773
12.6215
1.2924
1.44535
4.00468
2.35438
4.45584
12.2467
15.7493
4.50218
0.74582
0.227152
0.307352
0.171289
2.80732
1.43961
12.8015
0.197331
0.206368
0.170113
13.218
7.24462
0.193562
0.26328
8.82391
4.58262
1.42056
7.44379
0.216318
0.224126
1.48558
4.73098
3.75267
0.169649
0.205218
2.64577
16.8835
0.318881
4.89401
0.241049
0.146853
0.192371
2.62622
0.566608
1.12503
0.3211
11.8418
11.63
2.1208
0.208657
0.177696
0.225296
3.44672
10.7341
14.8812
0.20884
28.2981
13.9566
3.81433
14.0496
0.30007
23.3856
1.61532
1.5447
2.21167
2.17638
0.292338
7.11868
8.57585
1.10495
1.1302
0.294691
0.21456
0.213737
0.651539
2.17508
0.168962
14.1295
4.66851
11.7465
2.90725
0.315306
4.66992
1.1959
16.9291
4.75198
1.40773
1.25454
3.73093
6.77036
10.3816
1.29411
13.2386
0.170759
1.16902
1.91256
0.14279
0.909733
0.112513
3.13665
0.415444
1.27666
1.08241
22.82
1.8739
2.87336
3.6554
12.8857
2.07317
2.99826
1.44857
12.0797
2.36784
1.08687
0.180839
4.35576
2.65545
3.1595
13.9757
1.04468
2.9185
0.143907
0.217348
0.900211
0.316369
2.88028
3.16564
2.28158
0.415178
2.34255
1.4862
10.0386
3.00635
3.17519
1.12643
5.94018
1.68474
0.447606
1.74095
4.64341
1.20528
1.71561
2.01931
4.25463
0.142802
6.83798
1.95427
0.591903
18.5256
0.109604
7.32667
25.5555
0.215514
35.6553
4.38234
2.45133
0.212243
1.05043
0.200245
0.0189386
2.27718
2.94029
0.268045
0.193873
1.59817
13.7804
2.91563
20.7869
1.14895
0.167732
0.102846
2.92785
13.6278
1.28332
10.2226
15.2072
0.411062
12.5065
2.85837
2.77883
6.32225
0.47182
5.82196
0.217726
0.244239
2.30444
4.91899
3.93806
0.213489
2.8547
11.3236
3.45585
2.26351
16.696
1.05298
4.70611
1.29249
2.4086
1.45214
6.30501
7.2469
0.172473
6.97161
3.13367
0.209822
5.72833
0.36319
0.270472
27.0538
1.98956
2.47003
0.123771
2.35804
1.92769
1.91403
1.38839
14.729
19.3239
35.7237
1.7482
3.01816
23.8015
2.63888
3.30438
11.9097
0.26285
17.5894
0.177404
2.15776
0.246422
4.22807
0.259676
0.221367
0.219725
1.64928
1.66456
0.0570306
2.4679
2.86348
14.2342
0.426349
12.9576
0.981098
3.80335
2.27908
2.75219
1.26787
0.21447
0.169568
2.42824
2.51931
7.2162
13.4618
0.21022
0.0517453
3.59127
1.7844
0.137805
0.599198
7.79899
0.247938
7.07891
2.64363
7.16751
0.949762
0.181883
1.67965
1.36939
0.996821
4.80359
3.5625
2.81744
1.60294
2.13806
3.57136
2.05129
2.37533
4.77655
0.178223
5.8568
4.93669
3.38604
3.95274
0.190158
1.24621
16.4669
9.79034
5.0637
3.93721
0.17147
7.30834
0.211724
0.160365
2.34151
1.03236
2.93936
14.4286
4.76028
0.158027
13.4955
0.705892
11.9745
0.237662
0.237691
2.89207
1.81671
0.297337
0.245435
1.78783
1.11168
0.274244
2.46961
0.194707
0.213807
7.24527
1.69147
0.305728
0.305048
0.764744
4.76693
4.24122
0.348403
3.31267
11.378
3.16163
2.81824
0.831244
2.52006
2.18709
1.9352
0.509487
18.6708
2.73302
0.127016
14.9673
8.93808
1.6475
4.93506
7.707
2.91771
14.3022
6.10812
13.319
6.87663
1.71995
8.18415
0.224155
1.56039
7.7568
2.72997
8.03197
0.181881
0.209813
1.12611
14.0162
6.48127
0.0257357
2.68985
0.67514
0.18949
6.42843
0.271611
2.36515
0.102721
7.8082
1.5885
0.157335
0.151712
2.11995
0.17142
0.168338
0.215718
14.0559
0.313106
9.43272
11.044
3.34011
1.37474
0.655174
0.466022
1.073
2.68061
3.35638
0.166577
2.6712
2.56469
0.302797
0.681145
1.42151
6.18888
0.285197
15.6807
12.9335
1.69563
0.20908
0.255764
15.2902
10.3951
0.290202
1.08566
0.834903
1.8738
0.164132
12.0274
2.48229
1.03897
0.202493
2.50121
4.22441
0.907183
0.0337824
0.804541
11.9413
0.145566
15.4788
0.200385
0.194346
5.87196
1.00239
1.3806
2.19209
0.476298
12.535
3.79286
1.22491
1.17455
0.644294
3.33005
0.215244
1.20729
0.158934
10.0353
2.81573
18.1701
1.29341
2.99969
0.238324
0.219983
0.882851
6.52638
2.34329
1.05492
4.40562
33.4552
17.3808
15.2902
0.335139
1.76755
2.5074
4.09106
1.69386
4.09266
1.20852
0.333792
7.81704
0.978685
3.04032
4.56519
1.24879
2.06605
25.5432
6.48351
1.0137
1.04355
10.4495
1.08304
1.67399
0.156552
0.20324
0.242583
3.36027
1.81942
3.30818
2.46424
0.207068
1.14993
0.726345
0.297409
2.17412
1.90151
1.08912
3.18276
0.203113
12.8888
2.55348
0.500975
2.48869
2.66348
0.261201
3.32378
2.20231
2.30481
2.38592
2.07136
0.171228
10.2276
2.35128
0.325066
2.15068
0.212857
1.38168
0.212969
1.41244
2.797
7.71691
4.24669
6.2882
1.27795
11.357
0.390231
4.00938
14.4749
3.12174
0.407529
2.84014
0.214428
3.08655
2.30253
6.90667
1.4583
0.215119
0.592637
11.379
1.58162
2.54114
3.96454
0.743165
0.270858
2.49153
1.8132
4.06466
2.02176
1.63137
0.159995
5.02957
11.1475
5.4419
3.74357
4.00583
2.48518
0.191777
0.653823
3.32191
2.32947
4.48611
0.331399
1.32604
0.71211
1.82959
0.270878
0.2463
0.213328
1.09882
1.11828
1.49941
0.207985
5.78667
0.185608
3.20159
2.10904
0.274847
2.61106
4.87431
1.03835
13.7288
43.0664
2.49875
0.32501
21.5808
0.299702
8.15293
1.84839
1.10396
17.0583
12.4707
2.07242
0.198767
8.10607
1.14968
3.36251
0.210319
0.196696
4.05531
3.65884
6.74889
2.42843
0.887992
1.47864
0.179324
2.37568
12.1292
14.1523
1.20715
1.33259
5.05794
2.30072
1.81148
0.1656
0.533543
9.39839
0.145452
2.03768
12.0307
1.34178
38.4401
0.26352
0.25665
3.87345
12.7206
1.09636
6.80655
0.9842
1.90325
0.280527
2.33448
10.8245
2.06289
1.37362
0.432705
2.89849
2.68792
0.68833
0.16545
0.148985
1.75858
2.88977
9.78198
2.2797
13.8762
1.96015
4.19872
1.07135
10.9137
1.21303
11.4643
1.44039
0.226681
0.310972
0.336709
0.75338
14.9637
0.352904
2.32613
0.243123
11.4127
2.84211
2.58945
1.33256
1.36334
3.02223
1.36733
1.99318
0.223028
2.74316
1.31277
4.55722
0.694319
1.70543
2.33459
0.21264
0.519286
0.228774
0.206501
0.935041
1.08973
1.77044
2.33844
1.95408
2.9217
0.161369
10.2308
2.87849
8.5152
6.90738
0.258189
2.12236
3.904
2.39371
3.2594
1.26412
1.18293
13.2028
0.896693
0.963919
0.220366
6.65074
1.98922
0.344951
1.65288
1.67044
2.09793
0.155138
1.72145
2.54105
14.8019
3.43132
0.128074
0.168093
1.11346
3.05172
6.2739
4.33048
1.32951
10.3893
8.77584
2.43995
13.8536
10.1981
4.83412
0.28757
0.367297
0.223626
2.43874
1.14963
0.453267
2.45991
1.407
5.74696
2.08925
0.228889
10.7516
2.02645
2.08654
6.98309
1.74482
2.06077
1.4036
3.74113
0.202697
0.394539
21.5627
8.21966
36.1878
2.70433
1.27843
0.859038
8.57503
6.64643
0.301944
0.797649
0.0993429
1.68466
0.271626
0.190584
0.279103
0.866718
14.9576
0.233538
0.146225
0.434671
0.175295
5.13229
0.282425
1.52474
17.8541
14.0501
7.13634
0.207356
12.2347
1.27299
3.36907
2.61462
0.255374
2.29269
0.23241
5.52143
0.195749
11.1406
0.198063
1.43356
1.46691
1.46127
0.286755
2.4047
1.04269
0.157346
2.62819
0.186291
0.984936
4.25021
16.6835
2.26537
3.82848
13.4339
6.47852
5.39957
9.32398
2.14838
13.419
1.54829
2.86351
0.309044
13.9478
1.489
0.257331
16.2646
10.0979
2.16353
10.1605
1.2477
10.488
3.60177
5.37588
1.05085
0.192608
2.87235
10.0769
0.228716
2.59448
5.63995
15.6054
4.39137
3.15327
0.00898192
2.62923
0.262411
1.04093
0.28824
1.90077
1.38687
12.519
4.38155
2.54683
14.0489
9.31252
3.19015
2.38993
2.18861
4.85784
9.41862
0.300697
0.225158
2.51131
9.07324
1.77569
13.7948
0.20556
1.25419
1.76765
1.42702
0.27962
1.58891
11.4095
14.4233
2.78053
11.1234
0.244064
1.43233
2.36397
7.11401
1.99648
1.23067
2.75474
1.43381
1.25762
0.245002
0.225343
0.270388
3.2583
0.204163
4.50329
8.36474
3.40645
0.177106
0.21792
0.988613
4.4352
4.28452
5.36876
2.94123
0.186851
0.163934
10.5146
4.40902
2.39107
6.08534
2.62086
0.936289
0.252208
0.15081
0.513063
0.266765
6.61116
2.47963
13.6798
2.65203
0.221812
0.462619
1.3524
1.57271
9.3394
1.12668
13.2072
1.0379
2.99895
0.277473
0.206517
13.6717
1.65633
2.54524
0.263918
2.10768
0.324519
0.416523
0.15061
6.68494
0.460151
2.74537
7.85004
7.08926
1.32408
34.9094
1.24941
0.323822
9.54388
1.17222
0.159178
1.8047
0.244794
0.212977
12.9775
1.95957
6.693
1.28867
12.7298
3.08339
0.216833
1.94874
6.6907
0.780255
4.64819
1.60096
4.76653
1.4315
7.06057
1.2069
2.94827
10.5077
9.2663
0.333007
1.9453
3.62338
2.5063
0.701512
2.94389
0.255509
0.24784
2.23748
0.233652
16.0132
2.0095
6.48194
5.77569
1.57293
2.14382
0.183587
5.5251
4.3596
0.138656
1.54901
34.7689
10.2904
8.42225
6.03097
3.36092
1.06953
3.08534
0.280724
1.03255
14.8154
6.2033
0.307852
1.05326
0.221804
0.256406
2.52722
0.138064
5.64421
0.495808
0.265087
2.43526
22.621
0.077648
12.9851
1.01046
5.61028
3.41243
6.53251
0.335984
0.994023
2.19244
0.151442
12.1674
3.77999
14.6235
4.51334
2.16209
0.208018
33.3126
13.0024
6.58828
2.41256
6.88262
1.39268
0.209152
0.160112
4.39462
12.7598
0.226084
4.5226
4.48219
2.73278
2.267
13.1296
2.64803
1.17648
12.2456
3.13669
2.4663
0.0823149
0.640802
8.13483
0.331125
13.0056
1.1129
14.3472
1.37748
2.24199
0.208902
0.236775
0.147586
2.56278
0.00032314
12.004
7.41712
4.07442
0.194001
2.11892
0.140019
0.222282
14.665
6.71853
0.217758
2.08053
0.190655
1.06893
3.3397
0.150158
1.40298
2.68493
3.72363
3.67833
2.15519
7.00394
6.74108
6.4096
6.06055
0.67748
1.71322
0.234567
2.56839
0.266531
4.53159
7.901
1.72721
10.0808
11.1259
0.139618
4.41528
1.739
0.364553
4.33848
2.26935
0.184945
3.99169
0.500993
4.07606
0.164288
28.989
0.718931
1.09436
0.265354
2.82584
2.03584
3.64604
7.56273
0.683454
0.254192
11.6327
1.77526
1.12791
3.53328
0.852266
3.50197
0.861531
5.96998
1.84838
0.310409
1.35394
11.1261
0.232236
3.50206
1.77725
0.345268
6.72449
0.200968
3.08302
2.73122
4.26048
2.92722
2.0882
12.747
1.26855
4.61319
4.54486
0.940715
2.19655
0.252353
5.94438
1.23574
2.00371
1.19265
1.1723
1.87784
4.28054
2.19679
6.00292
2.1239
15.5742
0.253552
5.20667
0.560502
2.4329
5.8112
0.225542
2.85964
2.71503
4.48125
2.70427
2.28676
0.201959
4.31982
7.43129
1.18453
1.30748
0.531062
4.63077
1.49518
13.6526
0.504946
1.89407
2.56314
0.501087
17.7426
1.31639
1.8548
0.92655
2.77295
36.6753
6.75051
2.01133
3.00047
0.250843
14.7768
0.751002
13.4674
3.71657
0.149589
0.183502
1.90292
2.4392
2.05254
3.28659
2.93837
0.676131
0.143508
1.9834
1.58516
3.12905
3.95698
1.68016
0.237241
2.87646
4.5996
1.17528
9.27687
0.195428
7.53917
7.22051
2.49534
0.885884
2.71489
1.1993
0.180671
2.14361
1.51455
0.250317
4.09255
2.72421
1.96619
3.21869
5.77751
0.271027
0.251373
1.95839
0.346391
7.45077
22.0404
0.32049
0.171109
3.45301
0.658676
2.86496
3.28455
15.092
2.6615
0.178451
1.58709
2.47145
2.60045
5.24079
0.392597
8.70256
4.44686
4.12372
0.617427
19.9212
2.31334
1.14987
11.1968
1.08079
1.36278
11.5565
3.77145
1.60945
6.51344
6.0494
30.5538
2.5674
4.34105
1.13694
6.65096
5.68849
1.38639
2.31841
1.2111
2.00154
2.84177
3.91904
0.231233
1.17942
2.40435
0.165301
12.202
0.115997
4.52852
7.17584
0.200718
5.31619
1.45989
2.52064
15.7675
4.74067
1.25327
3.35987
0.304648
0.269164
2.9577
0.191658
7.68768
2.9918
0.0270133
0.296835
2.57036
14.9045
2.85597
0.211525
1.45524
8.91288
0.205327
0.221215
1.02463
0.262005
2.30574
3.24867
1.86167
0.197278
2.81091
1.54253
0.968953
0.194363
0.307581
6.82844
0.266675
2.78176
4.01341
1.13791
1.67144
2.95117
5.72165
3.41121
6.53878
11.1566
2.47147
5.44092
0.312529
2.61824
11.4701
0.214866
1.84776
2.45626
2.45661
0.153265
6.65378
3.9361
0.226461
5.20565
0.212385
3.77982
2.71791
1.71249
0.294371
0.8934
5.56026
3.76081
3.03449
5.33128
3.41312
0.260768
2.1299
12.3229
0.652109
0.61326
0.183436
6.582
0.660564
7.20782
3.30032
1.65308
2.65792
14.4574
0.412167
2.88042
3.30597
2.69305
7.08495
1.09964
4.51113
1.42867
0.666048
9.79094
9.57966
13.7845
0.800531
11.1082
4.44568
0.0685826
6.88021
13.5594
3.08037
1.60414
1.27997
2.87483
1.47311
1.1176
4.7868
7.02112
0.317777
0.308961
0.181434
0.739029
0.105272
2.82747
5.59182
2.12187
2.97834
0.229797
8.22978
0.197368
1.6735
0.191811
4.49209
1.98573
2.24381
16.5739
0.333101
4.41268
0.23992
2.56814
2.38341
2.05417
0.210011
5.39971
1.17582
2.0687
2.23916
4.91598
3.15657
1.58632
1.14381
1.17836
2.77148
0.205005
7.26153
3.40869
10.4602
3.19115
7.69246
0.210396
0.115299
0.992964
2.98768
3.37912
0.715567
1.4141
0.162308
1.26372
0.833466
5.05475
2.16322
1.02987
2.19983
2.97409
5.8545
0.17737
0.608638
3.31079
7.69134
0.15436
2.16562
3.18199
0.628079
3.23288
1.2763
1.56996
13.8338
4.2893
45.4408
1.85264
8.13087
0.19332
17.1195
0.542718
1.38933
14.3011
0.236564
0.619267
1.44052
2.68328
4.05199
0.210968
0.255738
5.10495
4.02895
10.0665
3.6456
0.28991
0.152808
0.273111
0.15424
0.330864
0.538232
2.70747
0.677691
4.85844
5.14178
2.51875
2.16145
1.90716
0.212516
4.01663
5.92545
0.263952
0.154011
0.598686
4.93125
0.960616
0.317375
0.191809
0.761122
3.01407
1.65386
10.5227
2.10515
5.56907
3.4108
0.104731
3.99722
1.59117
0.952915
1.62126
3.59809
11.6291
2.78113
0.269957
0.995148
5.80838
2.6673
6.88967
2.02513
0.205111
1.58435
0.228443
3.19043
2.55513
5.27988
0.172514
1.03038
1.94586
3.1248
0.250873
1.27824
2.35297
14.5952
0.0404615
2.13996
0.844072
0.343297
2.62785
11.3545
0.284011
2.94642
2.3429
0.20608
2.65253
7.44763
6.21033
2.43872
5.49162
11.9775
0.19955
13.5478
10.9803
1.98129
0.18483
7.27976
8.34362
3.35041
1.16502
14.5378
2.847
0.942814
2.74431
6.70737
0.260639
3.72272
2.70745
2.57846
0.27381
3.07266
0.164458
2.10176
22.9971
0.580125
2.68132
3.09696
0.235211
13.2088
1.25462
0.911905
0.912123
0.209977
0.20891
9.6114
2.7984
1.3061
2.18624
2.45528
2.02089
1.00856
5.88983
1.18011
5.31585
0.235753
10.8592
0.307476
33.3653
1.66212
0.343791
0.711875
4.12451
2.53742
3.0565
1.32656
2.68802
2.10168
2.92041
4.47088
4.04272
1.77462
2.94614
0.24982
5.23616
2.09915
3.06842
0.159654
0.269619
0.273952
0.270192
0.139126
1.90737
0.0905512
4.3808
2.15897
1.97004
0.238083
1.14548
2.30039
0.60255
11.3025
10.3309
4.51474
4.62358
2.13649
3.01975
0.764008
0.173771
1.40651
0.265562
0.198873
1.10662
1.7227
4.43797
9.74391
0.8049
3.11861
5.10194
6.50359
3.59214
1.91806
2.87345
0.551953
0.216771
4.91927
3.05096
0.18103
0.292182
0.26931
1.55654
16.7953
0.168569
2.22527
1.48552
1.06507
6.37867
2.90781
3.05392
0.328033
0.226725
1.35159
32.5157
3.06962
0.245767
2.01689
0.297596
0.27403
0.169656
0.286345
0.153545
3.94466
0.280157
9.63146
14.0142
0.351253
0.172354
0.178065
0.681716
14.2835
0.271635
29.458
0.264965
2.7405
0.227445
1.37651
1.94651
0.227255
8.4258
0.263324
2.15127
2.07128
9.16511
4.34739
1.29519
1.46981
0.999652
2.71226
3.00128
0.51337
1.44551
4.6626
1.6792
34.0166
2.4443
0.455947
2.87252
1.07537
0.29437
9.64207
3.95156
5.778
3.44098
5.7248
0.281219
0.302748
0.147809
0.277242
5.096
28.2128
3.63007
1.50509
3.02636
2.5475
1.49057
4.31749
0.837235
0.328738
6.50573
0.396128
13.3481