/*--------------------------------*- C++ -*----------------------------------*\
  =========                 |
  \\      /  F ield         | OpenFOAM: The Open Source CFD Toolbox
   \\    /   O peration     | Website:  https://openfoam.org
    \\  /    A nd           | Version:  10
     \\/     M anipulation  |
\*---------------------------------------------------------------------------*/
FoamFile
{
    format      ascii;
    class       volScalarField;
    location    "700";
    object      p;
}
// * * * * * * * * * * * * * * * * * * * * * * * * * * * * * * * * * * * * * //

dimensions      [0 2 -2 0 0 0 0];

internalField   nonuniform List<scalar> 
10435
(
0.0180138
0.77883
-7.23223
-2.63812
-3.45986
-6.37759
-7.01761
-8.16398
-10.2675
-7.5629
-0.116783
-7.09042
-7.79219
-1.06448
-0.902835
-8.90766
-1.27113
-7.93603
-13.0917
-0.0942402
-8.4947
-2.80935
-8.28167
-11.0637
-7.39961
-2.22601
-3.16618
-7.43125
-2.65884
-7.54942
-7.27974
-0.423485
-8.93743
-1.7774
-10.5849
0.953227
-10.515
-4.38831
-1.6123
-12.6645
-7.0689
-7.78636
-0.791819
-1.05566
-9.32074
-12.8886
-7.06295
-1.73554
-10.4697
-4.6097
-8.78763
-7.14517
-2.45255
-2.79676
-0.869021
-2.6325
-11.9482
-2.7452
-1.68001
-9.99394
-2.12192
0.974288
-2.33387
-5.40945
-8.92594
-7.57307
-1.74959
-2.21007
-7.80404
-10.0461
-1.94275
-3.01371
-0.16977
-8.03915
-0.83344
-0.281961
-6.62714
-6.37941
-7.5095
-0.874346
-6.45833
-0.569283
-2.08803
-2.22023
-7.53565
0.451466
0.361905
-0.633646
0.143584
0.337938
-1.27452
-1.90427
-0.786847
0.0252936
0.263017
0.765771
-3.25386
-0.34616
-1.03443
-3.4967
-1.23704
-3.16041
0.263555
-0.108939
-3.92642
-1.79179
-1.14108
-5.38547
-7.97181
-0.633614
-3.42616
-2.25737
-0.49163
-0.712088
-1.00547
-1.87124
-4.3942
0.569609
-0.278758
-5.20178
-4.68169
-0.00220796
0.602259
0.327863
-0.354463
-2.09708
-4.33908
0.0135324
-3.63824
-3.15188
0.335097
0.110551
-9.508
-0.969322
-2.48491
-0.383972
0.870052
-3.41314
0.201857
-1.14134
-0.555295
-9.57289
-1.5049
-6.15431
-3.61028
-0.480986
0.773028
-6.18408
-1.03485
-7.7071
-1.72183
-9.57291
0.0663243
-8.67103
-6.49566
-1.73718
-0.863125
0.520506
-7.13968
0.608045
-9.30108
-1.06185
-1.23386
-6.54838
-0.480016
-5.79583
-10.6012
-5.53161
-10.9177
-7.47115
-7.34524
-0.929438
-3.89841
-0.35096
-8.20178
0.904961
1.00695
-1.65232
-2.47323
-1.94948
0.366093
-5.8946
-8.28694
-2.33756
-8.81346
-0.71858
-1.03758
-7.06947
-4.41526
-6.73112
-6.98233
-1.75416
-1.63389
1.03066
-1.55112
-7.31344
-0.69182
0.241471
-1.54172
-9.69312
0.363746
-1.10194
-7.59587
-2.22443
-7.54667
-2.29985
-0.907182
-4.58976
-2.5874
-4.7897
-1.03414
-8.17362
-6.1718
-7.54635
-2.16169
-0.891642
-0.49499
-1.20499
-6.06103
-1.17186
-1.96177
-1.99845
-1.57199
0.0824835
-2.24711
-10.2347
-5.50412
0.0568709
-8.08668
-0.350709
-1.74494
-9.46873
-5.50162
-9.28198
-3.00907
-1.28602
-10.0182
-3.54005
-10.546
-7.51779
-0.492947
-1.92283
-1.23502
-2.61669
-2.95155
-9.04631
0.585849
-6.47524
-7.00417
1.00261
-6.97042
-0.308135
-7.54437
-5.89983
-5.337
-3.56663
-9.18337
-5.03812
-1.87081
-2.17063
-5.60823
-7.38772
-3.08847
-10.9343
-0.0475252
-1.16391
-0.061691
-8.26819
-1.41592
-3.24601
-5.95201
-5.25518
-4.94782
-7.90442
-7.01671
-5.82196
-1.57648
-2.51043
-8.34238
-5.18956
-7.22764
-1.40039
-6.07675
-0.816587
-0.00983659
-1.13145
-4.98157
-5.26681
-2.01708
-2.37642
0.532269
0.335062
-2.6979
-4.76456
-4.93312
-8.12751
-0.688951
0.0559542
-1.58467
-7.84614
-1.83569
-8.90809
-6.36482
-9.73305
-1.12979
-0.756105
-0.805692
-8.96322
-7.66103
-1.93134
-1.82425
-2.8263
1.03801
-5.37808
-12.9493
-9.13451
-1.21721
-7.35434
-1.92805
-6.12746
-4.78872
-3.82597
0.102434
-1.36432
-4.99324
-7.56326
-8.40965
-6.78879
-1.60688
-2.9029
-10.9408
-2.28328
-1.89655
-6.80345
-8.74224
-2.56814
-2.14986
-3.51735
-1.29522
-3.30802
-9.41948
-1.79208
-1.77422
-7.16274
-11.2089
-2.97731
-2.36138
-0.525869
-1.09483
-7.38448
-1.58775
-7.53628
-6.59113
-7.1604
-5.73277
-6.93547
-7.69628
-8.16099
-2.67042
-1.82683
-3.96213
-1.74756
-2.46907
-1.96689
-3.94478
-9.70458
-2.80596
-8.18856
-1.92236
-8.81427
-1.90446
-10.2006
-7.92141
-7.64077
-0.977825
-8.29568
-4.09444
-3.81027
-1.90285
-2.19698
-10.153
-4.14824
-7.25862
-2.0451
-6.4111
-5.2211
-7.44566
-7.64382
-6.51108
-7.1647
-10.1987
0.193754
-1.39217
-2.35504
-1.20138
-6.72169
-2.14031
-7.79427
-10.0769
-2.66088
-13.4342
-1.4002
-2.22818
-7.06796
-4.84777
-6.77071
-8.22352
-1.01355
-2.07126
-7.29376
-14.6241
-7.95455
-1.9316
-2.87059
-2.41183
-1.67045
-2.17696
-7.36309
-5.70136
-3.42817
-2.71616
-0.956935
-7.89721
-0.769086
-0.614808
-9.87002
-1.43288
143.181
37.7562
65.4075
44.6265
45.3411
35.5799
31.2205
26.4226
17.1078
124.393
36.3121
54.7092
38.8602
38.9045
31.8042
28.0943
24.231
20.1454
101.006
31.0693
44.5649
33.1852
32.8075
27.9103
25.106
21.8557
18.5056
79.1424
22.6701
33.954
26.8203
26.6764
23.4838
21.457
19.0339
16.3057
58.8022
14.1824
23.9154
20.2978
20.5336
18.7544
17.5483
16.0832
14.0088
39.4824
7.95943
15.1891
14.2743
14.7676
14.0347
13.4565
12.642
11.4922
21.9174
5.65143
8.36493
9.21334
9.72659
9.70414
9.586
9.29105
8.82415
7.3172
5.3653
3.30282
5.20681
5.60339
6.02009
6.20527
6.29579
5.50176
-3.819
3.8713
-0.605866
2.10909
2.45439
3.13203
3.50072
3.74998
3.78476
-11.3634
1.1507
-3.35797
-0.0932591
0.283564
1.09482
1.57685
1.96169
2.16141
-16.1926
-1.46697
-4.82411
-1.39463
-0.985258
-0.166647
0.339703
0.754036
1.20503
-17.779
-2.07827
-4.8517
-1.84342
-1.50472
-0.801661
-0.360896
-0.0275251
0.772685
-15.3903
-0.839971
-3.64736
-1.65159
-1.50071
-0.989344
-0.646104
-0.31795
0.0525752
-12.2132
0.494156
-2.28324
-1.25521
-1.27246
-0.944756
-0.687428
-0.379391
-0.198587
-9.84868
1.12388
-1.27697
-0.92231
-1.02724
-0.835393
-0.643666
-0.392988
-0.168883
-7.56757
1.16227
-0.68571
-0.741102
-0.857784
-0.744184
-0.591159
-0.388764
-0.135807
-5.97503
0.556369
-0.531131
-0.730233
-0.790023
-0.700271
-0.56075
-0.392912
-0.0504044
-5.32825
-0.590523
-0.779684
-0.856295
-0.807124
-0.6986
-0.552173
-0.385861
-0.0963431
-4.82456
-1.57079
-1.07665
-1.00126
-0.858104
-0.724806
-0.575909
-0.414329
-0.218137
-4.17433
-1.98874
-1.26479
-1.09968
-0.905539
-0.751958
-0.597456
-0.430632
-0.229579
-3.7942
-2.05302
-1.38119
-1.15581
-0.947655
-0.785173
-0.633904
-0.467262
-0.3315
-3.79193
-1.88571
-1.46339
-1.18769
-0.99106
-0.827206
-0.679755
-0.506971
-0.519488
-4.19975
-1.44989
-1.49537
-1.18578
-1.01703
-0.862733
-0.723441
-0.562764
-0.617552
-4.7409
-0.954213
-1.65749
-1.33349
-1.17487
-1.0102
-0.833081
-0.637209
-0.720039
-4.63062
-0.122087
-1.13076
-0.871631
-0.795251
-0.788373
-0.688862
-0.520789
-1.43891
8.69624
8.31307
8.17438
8.39228
8.74396
9.2601
9.92312
10.7399
11.7566
13.0079
14.4748
16.124
17.9219
19.8209
21.7671
23.6934
25.5474
27.2633
28.7896
30.0903
31.1982
32.3627
33.3749
33.4657
33.0941
33.3328
34.3339
35.6372
36.765
37.978
39.4485
40.6558
41.3485
41.7683
42.0928
42.3338
42.5251
42.7801
43.174
43.8585
45.0797
46.9021
49.2027
52.0732
55.7334
60.2968
65.7723
71.958
78.7183
86.029
93.8046
101.961
110.394
118.717
126.477
133.364
138.928
143.274
147.688
0.656324
-0.0771934
-0.717364
-1.30526
-1.87368
-2.45006
-3.03729
-3.59338
-4.0815
-4.50304
-4.84938
-5.1032
-5.33315
-5.58575
-5.76053
-5.77906
-5.64819
-5.36087
-4.90848
-4.27994
-3.45783
-2.40664
-1.14781
0.26017
1.45121
2.04587
2.00683
1.28015
0.316876
-0.442246
-0.989894
-1.37723
-1.67719
-1.91246
-2.07837
-2.17246
-2.17646
-2.0591
-1.78668
-1.33253
-0.66539
0.253477
1.20784
1.93829
2.42516
2.67055
2.7599
2.94073
3.42246
4.25335
5.162
5.91439
6.76984
7.77614
9.35929
12.2203
15.947
20.1743
25.8698
3.40064
3.32623
3.23388
3.23223
3.29191
3.4097
3.58446
3.81495
4.09793
4.42941
4.80716
5.2264
5.68228
6.18449
6.74625
7.36222
8.02596
8.73078
9.4708
10.2379
11.0252
11.8211
12.593
13.2733
13.8079
14.221
14.5243
14.6877
14.7227
14.7424
14.7773
14.8237
14.8725
14.9396
15.0443
15.2044
15.4422
15.7823
16.2524
16.8765
17.6839
18.6951
19.9242
21.3879
23.135
25.194
27.694
30.8101
34.5654
38.8935
43.6937
48.5053
53.008
57.3055
61.432
65.1985
68.4616
71.4719
73.1613
0.609417
0.284751
0.0148478
-0.194402
-0.362056
-0.487932
-0.572915
-0.616598
-0.618475
-0.578533
-0.496526
-0.372774
-0.209608
-0.00767874
0.238124
0.5325
0.878576
1.27749
1.72855
2.22713
2.76513
3.3285
3.89516
4.43262
4.90001
5.26448
5.50753
5.62633
5.64178
5.58951
5.49091
5.35882
5.20156
5.02794
4.84566
4.66391
4.49176
4.34005
4.22212
4.15209
4.14847
4.2317
4.42922
4.77546
5.32562
6.13655
7.27428
8.80673
10.7755
13.1474
16.0431
19.5258
23.3546
27.2389
31.0136
34.5509
37.6206
40.2319
42.8554
1.81031
1.72049
1.63054
1.60472
1.62289
1.68232
1.78104
1.91657
2.08611
2.28648
2.51531
2.77011
3.04863
3.3498
3.67252
4.01589
4.37899
4.75942
5.15544
5.56283
5.97612
6.38688
6.78409
7.15484
7.48462
7.76459
7.98786
8.15326
8.26471
8.33235
8.36643
8.37356
8.36358
8.34648
8.33065
8.32943
8.35418
8.41558
8.53449
8.72843
9.02172
9.44147
10.024
10.8083
11.845
13.1783
14.8566
16.9071
19.3362
22.0984
25.208
28.6259
32.1813
35.6225
38.8588
41.8576
44.3725
46.5614
48.1696
0.842998
0.676925
0.543599
0.459169
0.41006
0.396033
0.416749
0.471017
0.557931
0.675927
0.825002
1.00393
1.2122
1.44894
1.71308
2.00339
2.31841
2.65309
3.00759
3.37694
3.75588
4.13433
4.50181
4.84939
5.15847
5.42519
5.6368
5.79467
5.89661
5.945
5.94724
5.89993
5.81464
5.70091
5.55544
5.39844
5.2315
5.05058
4.88937
4.7596
4.68458
4.69207
4.81663
5.09936
5.59157
6.33044
7.37062
8.74127
10.4784
12.5786
14.9159
17.4137
20.1655
23.0789
25.9446
28.6117
31.0226
33.3018
35.2943
1.18751
1.11318
1.05432
1.03862
1.05375
1.09864
1.1713
1.2713
1.39655
1.5437
1.7127
1.90133
2.11005
2.33668
2.57934
2.83786
3.11481
3.3957
3.69108
3.99236
4.3019
4.60625
4.89956
5.18717
5.43349
5.66012
5.83871
5.9862
6.09226
6.15339
6.18836
6.16548
6.11235
6.04833
5.93772
5.8411
5.74575
5.61041
5.53173
5.48705
5.50229
5.60111
5.80903
6.16149
6.71677
7.46607
8.48859
9.77547
11.3606
13.2371
15.3779
17.7342
20.2215
22.7212
25.1212
27.3125
29.1976
30.8309
32.0772
1.00661
0.906771
0.833473
0.7995
0.787426
0.807663
0.84607
0.923222
1.02081
1.11752
1.25927
1.4152
1.59979
1.81212
2.03788
2.29627
2.57684
2.80268
3.07529
3.36626
3.68781
3.99101
4.27153
4.58666
4.79668
5.02654
5.17004
5.31148
5.41069
5.46469
5.51679
5.44229
5.34705
5.27806
5.05425
4.94326
4.86628
4.4815
4.2259
3.98219
3.7781
3.62669
3.54366
3.56827
3.90799
4.22942
4.93328
5.70722
6.65531
7.93119
9.57238
11.5415
13.5838
15.7267
17.9532
20.1407
22.1119
24.0561
25.6655
1.10536
1.09982
1.08435
1.11314
1.14956
1.21702
1.28568
1.35253
1.46643
1.65048
1.71936
1.88001
2.08396
2.24346
2.48496
2.59603
2.87424
3.12288
3.37351
3.57681
3.85012
4.07108
4.30043
4.58823
4.72704
4.94651
5.03155
5.15243
5.2984
5.17449
5.36356
5.23645
5.04024
4.9988
4.70284
4.61975
4.276
3.8138
3.81365
3.56345
3.37302
3.31207
3.1644
3.19188
3.43293
3.61576
4.08666
4.57475
5.77432
7.02149
8.38322
9.92048
11.6147
13.8162
15.8098
17.5632
19.2401
19.1733
19.9204
-8.1859
-8.02678
-7.4724
-6.72969
-5.97084
-5.35249
-4.84064
-4.2349
-3.56418
-3.03964
-2.60936
-2.1105
-1.65425
-1.24347
-0.684447
-0.0382154
0.554745
1.16267
1.83984
2.59479
3.41779
4.24969
5.12182
6.39229
7.84184
-1.0878
-1.0574
-1.31182
-1.42569
-1.25573
-0.94718
-0.615524
-0.231214
0.12781
0.22606
0.032527
-0.282002
-0.595872
-0.789451
-0.699909
-0.340865
0.0860326
0.441099
0.622456
0.605139
0.600139
0.773315
1.10728
1.6976
1.97445
-2.44777
-2.42399
-2.2941
-2.10398
-1.80893
-1.47718
-1.15316
-0.845604
-0.593082
-0.486506
-0.515328
-0.603162
-0.695119
-0.732991
-0.640668
-0.42553
-0.15224
0.14009
0.424379
0.691026
0.986547
1.34466
1.77128
2.29255
3.01667
-1.88162
-1.8696
-1.72851
-1.58206
-1.38825
-1.17415
-0.959273
-0.759057
-0.593717
-0.492557
-0.452266
-0.442871
-0.434547
-0.39867
-0.308506
-0.166756
0.00169005
0.174378
0.334625
0.476832
0.614408
0.754587
0.88581
0.968909
1.09335
-1.80202
-1.77602
-1.63033
-1.48748
-1.31388
-1.1331
-0.953717
-0.790043
-0.652219
-0.551348
-0.485329
-0.437598
-0.390187
-0.328239
-0.237929
-0.119363
0.0176566
0.163088
0.309961
0.456149
0.609593
0.77858
0.973742
1.19172
1.56934
-1.67279
-1.61748
-1.47022
-1.34394
-1.19319
-1.04418
-0.893877
-0.757656
-0.638521
-0.539953
-0.463347
-0.39742
-0.329661
-0.255149
-0.165168
-0.0606408
0.0532027
0.170356
0.285877
0.396509
0.505177
0.611463
0.71719
0.805021
0.976052
-1.48874
-1.51979
-1.35833
-1.25102
-1.11402
-0.987793
-0.853712
-0.734614
-0.626689
-0.528742
-0.449644
-0.377177
-0.298773
-0.218591
-0.127366
-0.0269262
0.0794051
0.188657
0.297805
0.402907
0.510106
0.618385
0.742103
0.869271
1.09775
-1.29612
-1.43102
-1.25518
-1.1723
-1.04046
-0.930028
-0.800245
-0.69487
-0.600378
-0.503678
-0.429509
-0.358518
-0.26849
-0.183125
-0.089851
0.010526
0.114282
0.219705
0.324231
0.423134
0.529001
0.635041
0.750683
0.867579
1.04733
-1.33954
-1.40518
-1.14958
-1.09384
-0.979759
-0.91461
-0.799995
-0.712506
-0.58896
-0.491069
-0.407527
-0.347429
-0.271168
-0.194467
-0.0909178
0.00797131
0.112112
0.220564
0.352336
0.46007
0.561236
0.67658
0.775691
0.823022
0.937205
-7.42378
-7.57446
5.86863
5.69961
0.255475
0.0695349
-4.69176
0.881103
5.69703
7.26784
-8.64624
0.688005
-21.3482
-1.32169
-11.5373
1.59739
3.34064
5.53745
1.70277
-33.3697
-32.0706
2.44342
-3.28369
2.92385
0.678498
1.57945
0.627262
-0.945591
-9.94866
0.431755
11.7235
1.98975
-6.25193
-18.994
-0.361687
0.659686
-2.29308
-10.3313
-5.38174
3.74338
-10.4522
2.3308
1.99114
-0.956344
0.67253
2.75979
-9.60771
-8.66746
-10.2747
-8.69893
-9.50299
-10.474
-27.429
5.46565
-4.49889
5.69699
-1.34948
-30.4434
-0.784798
-8.19779
0.80652
6.02946
0.244754
1.92247
0.827705
-1.04143
1.27075
2.80766
-14.0753
-9.39552
5.5275
2.80903
0.259475
-32.6664
-0.101397
-34.2699
-31.839
-9.81334
-1.12834
5.38189
-17.1719
0.783621
1.24455
-7.46717
0.497345
0.84559
0.338727
-9.92352
-7.11052
1.01824
1.97332
-0.344555
2.14517
0.782773
0.151998
-8.30956
1.53897
-9.03869
2.28286
-8.28657
-0.525226
-10.7044
-0.584578
2.08466
-0.631245
-0.398207
-3.0798
-21.0413
1.41967
1.28557
2.0003
1.10486
-0.171115
1.79804
-28.8046
-10.2377
-10.748
4.53312
-23.468
1.34677
1.70892
0.998233
3.1371
0.834444
-5.90633
2.00179
-10.6206
-33.4385
-1.54199
-8.90786
1.29018
-32.7003
-9.44803
-10.7987
-1.04734
0.302994
0.842193
-0.422022
0.970917
-33.0732
0.240632
-5.15085
-8.56703
1.74622
-10.214
1.33997
5.629
-32.5411
0.870055
-0.388786
-2.71091
-1.98905
5.57005
-18.1217
0.523629
-8.42915
-0.126031
3.76389
-29.8257
3.3368
2.06007
5.6013
1.32492
-8.99933
1.84636
-7.327
-1.40067
0.325991
2.53714
-0.209509
-1.29453
2.08288
2.7289
-7.66676
0.244865
-0.79416
-25.4373
-9.51141
-9.43181
2.66301
-17.8007
2.23946
-24.3946
-17.6728
-0.606921
2.65651
-7.79579
1.3617
-8.58033
1.10435
-8.56816
-8.67107
3.5692
-3.77174
-14.1018
-8.04207
-0.0582753
2.36561
-10.2701
-9.03299
-14.4287
2.53301
0.947768
0.957642
-2.65227
3.65815
2.9473
-0.54762
-9.95278
3.72707
-0.662362
0.868837
-17.7993
-2.75658
-2.468
-8.96275
-0.107499
2.8375
5.12688
0.165602
-0.765079
2.36762
0.654662
6.02538
4.23479
-10.8056
1.84287
3.33738
1.41383
0.225357
-8.12128
0.747466
2.13673
1.42284
-5.86576
5.1564
-29.225
-0.938985
-19.0212
-16.1773
11.2651
0.763062
2.15164
-0.900421
0.212756
0.582521
1.94173
-0.389631
1.48428
2.31737
1.44372
-0.805913
3.80214
-10.1878
1.7907
-0.0325514
-0.244451
-31.5096
-29.7239
8.33233
2.02672
-1.57973
1.05573
0.37371
-32.5507
0.961843
3.46348
5.75086
-5.64413
0.373556
-29.8141
3.74949
2.181
2.83764
2.15345
5.73822
2.0571
5.57879
-1.41658
-9.94251
-0.912838
-2.52443
3.16829
2.10934
-9.27833
1.10331
-0.543519
4.57973
-8.15315
-8.48433
-8.75147
1.54566
2.12924
-8.93822
-13.2152
-8.91833
-3.24574
0.671216
3.26667
-9.11765
-9.42973
1.95346
3.60254
0.985427
-0.682603
2.5288
-33.4542
2.51417
-33.1991
0.926719
2.21698
0.474235
-8.62922
-1.51046
2.17315
-1.9438
-9.67038
3.59657
0.737558
-12.9501
-30.3011
1.45668
3.59454
11.6787
0.561506
0.989382
-10.8294
-24.8565
1.59894
-29.9038
1.66089
-14.4125
-0.791855
6.36099
-10.3752
0.798209
0.941268
1.26572
1.25784
2.49137
0.87329
0.569385
-8.84049
-1.8117
-32.503
-0.12017
-0.214853
2.26571
0.309591
-8.70482
3.14363
2.42217
1.90662
-30.0905
-8.8262
4.16353
-9.17956
-1.2669
2.06621
-7.55791
-9.92663
-3.00282
2.73186
-10.9217
2.39168
0.180509
2.06936
-10.0739
0.947608
-8.16181
1.98088
-19.2255
-9.53866
3.80447
-17.7006
1.20659
1.18441
1.91759
3.33167
5.92577
-2.81976
1.38019
-5.02623
-1.23594
-0.921531
-12.5132
1.96258
-33.3292
-8.29092
-8.39038
-3.70771
3.65611
0.00564275
0.83343
-17.0584
7.56988
2.18787
-4.52
3.66698
-9.85347
0.765545
2.15074
0.448574
-8.00528
0.451347
2.68785
-4.99214
0.059954
-1.16164
4.94758
3.22806
0.847887
-9.01536
0.850752
1.56622
3.66126
-10.2258
-8.38881
3.61755
0.876765
1.71367
3.11362
1.09132
-0.672166
2.90347
-9.64815
1.28978
3.49985
3.25984
2.02626
0.705161
-0.0727983
-0.128836
-1.04905
-6.13057
2.21773
1.36874
2.10857
2.23234
3.48843
3.19066
-16.6748
-8.5186
-1.41017
-19.1959
6.25521
-0.897942
4.72871
-0.772666
-1.16572
3.90619
2.10632
1.23421
-9.22323
1.21313
-9.3728
-7.22763
1.00274
2.03297
-32.7627
1.30992
-1.68487
3.08549
-16.9822
-9.69927
0.454074
-0.372849
6.12776
3.01134
-7.12278
-1.06013
0.320714
-2.44706
3.58636
0.899701
-22.7521
-0.0307808
0.0103244
-32.3808
-31.5829
-2.6726
-6.35945
2.52459
0.586285
-8.06043
0.362647
0.694392
3.58344
-1.69923
1.9283
-19.1376
1.61464
1.09872
1.14393
0.874332
-0.475328
-16.0814
0.811867
2.83476
-8.72177
1.99293
-7.48945
0.993817
-0.919167
-26.7787
-18.6254
1.20324
1.13819
-5.01441
1.7217
2.20648
-12.6458
0.811291
0.145314
2.66544
-10.0743
-0.921271
-10.0463
1.15202
-3.37904
0.295644
-8.77338
-33.3245
6.1562
-17.1776
3.779
-9.74975
-9.33832
3.2335
3.09755
-0.656746
1.39682
5.81191
5.16388
1.27693
-1.55248
1.57065
-9.47151
-10.1366
1.53262
-13.7572
1.63296
1.70221
-4.01285
1.91738
6.11094
1.29441
-0.809024
0.823857
5.42279
-5.2222
-7.02522
-1.54751
-10.0003
-9.99265
-9.57653
0.568293
0.849726
-13.6937
-10.01
0.0551853
-13.3665
1.4115
-21.953
0.0992137
6.97234
-3.20185
-0.914565
2.11648
1.59828
-8.79268
4.4668
-10.5524
-0.393871
0.061942
0.556168
-8.77176
-9.83131
-0.787982
1.897
-32.6489
-29.3484
2.30293
0.436538
1.07766
-3.85574
2.2944
0.0721746
-5.91439
3.67792
0.00831631
0.417359
2.10545
-22.3661
1.59513
-0.933642
-21.9255
-10.0934
0.299772
2.2428
-8.83233
-0.944161
2.42954
3.72531
-33.2466
1.86285
1.00708
4.85321
4.53857
2.10504
2.16976
-4.1888
0.66004
2.48851
-0.557433
-27.1129
3.22428
-0.157591
6.18233
2.37519
0.468561
1.25495
-0.289967
-2.13167
0.0697955
-8.34092
-7.72807
-0.939051
-2.92767
-0.319985
0.158669
0.207586
2.58203
1.45364
1.37664
-26.8485
1.54195
0.818213
-1.93333
-24.2151
-3.33432
-1.20127
-1.06438
2.17232
0.224768
2.69227
1.98007
-1.14996
-8.45689
-21.1473
-29.9023
2.79604
5.59698
1.86238
3.96772
5.23977
-8.74312
19.0787
-33.5828
2.3485
-9.81356
5.19559
-9.18263
1.79439
0.310099
1.02356
-5.0172
4.65535
-0.991264
-28.816
0.00103284
3.23142
0.601508
-9.28745
2.46416
1.4352
-11.333
0.681922
2.20888
5.56148
2.23729
-24.6472
3.5709
1.27774
3.42737
-1.19066
1.94656
-10.0268
-4.06244
1.82977
-5.43936
3.54866
-7.24068
1.17141
1.39537
2.2837
1.57606
-4.57361
1.43517
2.20374
-0.742817
2.95449
1.74806
2.89872
3.57582
-8.05097
-19.2929
-2.43737
-9.17333
-8.09647
-2.11872
-0.683749
5.09031
-0.0528805
0.430921
2.68633
1.36126
-1.72085
1.42587
0.718442
-14.9209
-2.30808
6.53634
-0.296329
2.18331
0.418083
0.679683
-2.24294
-19.5575
-5.12443
1.40815
-9.57376
-4.38406
-9.63297
-33.5252
-9.29483
-8.62366
5.84297
2.83383
1.35468
2.46508
3.43786
1.19717
-17.4516
-8.17496
-1.69758
-30.7687
-1.14139
3.16381
0.777737
0.91244
-7.5245
6.11159
0.809436
-4.80015
-20.7374
-23.5539
-9.93392
2.69043
2.61444
-0.0243858
2.52679
-8.30167
-1.9452
-2.98841
-19.9838
-0.175511
-23.3159
1.46206
2.73619
-0.701297
-0.0213985
-0.396271
3.37133
1.84756
1.27948
1.01304
1.41549
2.02164
1.11122
2.02476
3.76937
-9.52302
-7.51239
2.26948
2.77162
1.94868
-32.8802
0.532187
3.64121
0.644901
-30.885
-2.46426
2.56409
0.41374
-9.08742
6.05904
-31.6923
1.15285
-31.9518
-17.1812
-25.5917
6.24731
-11.7521
-1.48989
-0.0195075
-4.00526
2.25743
0.741249
1.17003
-7.62798
5.85565
2.01031
0.509679
-8.91404
0.251879
6.05564
3.43046
2.97293
2.11238
5.42475
-9.07056
-6.06861
2.23129
3.25043
2.55129
-32.2806
-6.18056
2.20411
0.527803
-0.438776
-29.8495
3.44384
0.725435
-7.47555
2.03362
1.10497
6.23071
1.26873
-24.7242
1.14793
-30.8659
3.46823
0.987931
-15.651
2.60356
-0.206483
2.37082
-0.777451
-28.5072
-10.1188
2.69736
3.42853
0.964587
-12.8181
-32.8984
5.92498
1.40846
-20.944
-10.1404
1.34397
-0.438685
-0.558611
-8.36132
3.80328
-32.108
1.65109
1.35489
-20.0672
1.30013
6.16601
5.82686
-33.387
-9.24066
-8.22052
-8.11207
1.59054
-3.07279
-12.4395
0.263567
-4.544
0.633466
-0.560929
-32.825
1.05336
-0.065229
-33.0401
6.14009
3.22135
3.01037
-6.72653
-1.52104
1.33615
-24.4431
-9.22622
-10.6404
-1.17315
1.30646
-8.78781
-1.96792
-14.7919
-25.3961
-7.56044
-2.11105
2.61616
-3.36232
-9.5932
3.00041
3.43671
-2.05012
3.79787
1.75713
-2.83183
-6.23946
1.82923
-0.366257
0.126142
-8.89467
-5.24786
-9.69303
-10.4408
4.01361
-0.979381
-3.16466
0.834155
-8.28508
-25.9778
2.65024
0.937525
1.00926
2.77973
-31.8143
-7.15558
1.06745
-9.28906
-0.0251743
-29.0703
-0.329342
0.630321
0.915776
4.98561
-9.90193
-1.06915
-28.7952
1.69127
1.81921
-7.97413
4.36677
-7.29653
-11.8376
1.64551
1.10456
3.18368
-7.25854
1.24563
2.60134
0.77584
0.861313
1.06232
-0.617929
-29.1561
-5.47283
-0.431624
1.21546
2.84069
2.31757
-0.494038
2.18763
-28.6704
2.52868
1.19513
-9.33523
-33.0433
4.7828
1.42448
1.87536
-3.16857
3.01128
-10.3464
0.0853044
-0.514112
0.238253
1.26147
1.26477
-2.09727
0.218257
-10.0941
5.44738
3.46691
2.46706
-5.39022
-5.38019
-10.6736
0.724306
-31.3037
1.75968
2.64028
1.48784
-9.27684
-18.2841
2.8345
2.177
3.44167
-8.74435
1.13092
-9.96771
0.320802
0.571323
2.81692
-2.90098
-9.17712
1.33519
-0.255568
-32.777
3.02834
-1.40656
0.85268
2.44892
1.26946
-9.07657
1.87592
1.31815
-23.313
-0.703666
-8.21486
2.80286
-2.38633
2.05073
3.95396
2.65818
-0.450791
-5.85861
3.92323
-1.25265
3.08704
0.766918
-3.54726
-9.22037
1.58873
0.0856453
1.07514
2.50578
3.56318
3.43031
-8.7351
5.49037
-33.2636
1.64988
-8.79683
0.384687
-0.725035
-32.7254
1.3468
-9.25597
-3.57592
-8.32218
0.915558
1.04859
-0.637933
-9.78548
2.74266
6.0597
2.70304
1.16411
2.19029
-0.892031
3.45512
-0.280991
5.29925
12.1915
3.68845
-8.95818
5.02745
-7.67011
3.81765
2.10279
2.52023
6.19664
-23.3874
3.3809
-32.725
-24.4349
0.523488
2.52169
-10.1653
-8.92898
2.8413
3.40578
2.87681
3.43681
5.21968
-0.663142
-9.60403
1.5438
2.72334
-21.0606
0.860936
-2.6153
-10.1261
2.33801
0.394777
2.54525
-0.83016
-22.1523
6.12782
-31.7259
-2.01998
-0.637269
8.35259
-10.7178
-10.8507
2.01342
3.93186
-30.7394
3.2414
-0.549718
0.19763
-9.31843
3.52579
3.92064
3.22751
-1.02476
-8.11017
0.260222
3.27405
-7.43569
-9.33598
2.7289
2.24092
-0.159729
3.92604
2.09474
-24.9105
0.795614
-27.2522
0.879213
0.642682
0.674036
-24.8932
2.06279
-7.20143
2.26391
1.92619
-7.48983
-13.3994
5.94763
1.76763
-10.8817
-24.8204
1.17359
3.33324
1.0802
-0.556759
2.0585
0.781588
1.26071
3.95978
-0.374541
-0.781914
-9.80966
-0.508031
1.24372
2.32753
-8.46145
2.78456
-8.13176
-8.83807
-0.372408
2.21455
1.30568
2.65877
1.11545
-30.4054
6.1091
1.24933
1.01254
2.69496
-22.9894
-10.794
1.69493
1.25814
-0.258866
2.71649
0.454063
-0.903347
3.83362
-0.436197
-1.53844
-9.80036
1.86348
2.13131
4.88196
1.15539
0.614357
2.46703
5.87219
1.34738
3.30813
-16.4418
1.58274
6.23732
-9.62464
0.443537
-3.09614
-7.80814
2.27033
0.98961
1.35645
-12.5343
1.81081
-22.2966
1.00706
-8.80274
-8.28511
-33.2901
-9.86101
3.55981
0.797657
-32.5854
-30.0883
-0.194016
2.4011
3.479
-4.97565
1.00824
2.17913
3.23395
3.19433
-3.71042
3.37086
0.0202076
2.85647
-9.73955
-32.8447
7.19296
4.03367
7.71569
2.13783
0.987094
0.457684
3.67895
-0.500119
-6.14432
-33.2381
2.5478
-30.7503
-9.42431
-33.0648
-9.1385
-1.55171
-15.9495
-10.602
-8.67939
2.70532
-9.74626
2.80139
5.51948
4.64346
-1.62543
-18.1259
-17.5806
-9.55629
-18.1316
-0.702277
1.96564
-4.91015
-9.70738
4.07631
-10.9013
2.63098
-33.1182
0.525657
-9.75355
-2.71106
-0.62403
1.10489
-33.1734
1.07245
-2.15794
-33.0182
2.29379
-10.4451
1.5409
1.84698
-9.1646
-4.83478
1.19332
-24.8754
-12.7307
4.29611
-24.244
4.16436
-0.476143
-0.822113
-0.36566
-8.5357
-19.6481
2.83511
-9.57535
-3.0677
-29.3957
4.06068
0.753966
2.08329
-30.0326
-3.03806
-25.3707
1.87138
-8.91308
0.242391
-23.9128
-10.7784
-2.42994
3.01413
-16.8344
2.37331
1.66864
2.4242
-29.239
-9.73865
0.818705
-9.21285
1.76289
1.06389
-5.58441
1.89643
0.857286
-19.9568
2.05179
2.4163
4.07274
1.037
2.21057
3.69228
-6.96098
-9.79628
0.986829
3.55295
1.63342
-17.2953
-9.82102
0.849362
-1.64498
-0.575427
-10.2085
-1.69953
-2.36077
-16.545
0.622528
-24.0912
-10.8437
0.754994
0.665832
3.43809
4.17527
0.59392
1.82024
-0.260057
-0.889657
-9.85998
1.97324
-10.4983
0.661761
-9.55725
2.18187
-18.6345
-2.36868
-32.5373
-9.94343
-0.264666
-1.64943
2.12174
2.17531
1.91005
-9.72061
-9.38678
0.652396
2.29336
2.39706
2.53726
0.870703
1.57279
-8.08496
-8.88832
-32.6184
-10.6776
3.21436
0.54063
-19.5603
3.52768
-9.97449
2.52522
0.74601
-0.569489
1.24018
0.86067
2.25746
0.876514
-2.19568
-5.60191
-9.87565
0.700227
0.905423
-31.6548
5.41797
1.06832
0.0463669
-8.23285
-8.60069
1.71537
-33.0465
1.24516
3.13702
2.85115
0.59717
11.4534
0.466425
-1.00974
1.2174
-0.716463
-33.0604
1.83085
-9.79588
-8.26064
1.76272
-1.34951
3.38745
-0.563869
-18.2942
-0.258862
-9.76233
-0.762336
1.45675
-0.579014
3.70391
-1.17014
3.44829
1.90848
1.38429
0.538437
1.3852
-23.5125
2.45494
2.74147
1.18736
1.92405
2.8914
-0.583906
1.31988
4.67812
-9.6528
1.39897
-9.89893
5.27353
-30.3855
2.57342
3.26797
0.794989
0.499638
-9.62957
2.37232
1.96501
5.22954
0.98288
5.18606
4.38805
4.37921
2.65509
-6.60679
1.04388
1.4602
-10.1834
0.941345
3.46988
1.59809
-2.52545
1.4826
-9.89522
-9.45862
3.35631
6.07355
2.74199
2.51951
-9.02994
3.35696
-0.583286
2.1929
-25.1221
-0.39413
3.07722
0.322903
-6.9918
2.87495
-0.271911
1.43248
-9.2634
0.470168
2.82065
-18.6914
1.7656
-3.49088
-9.94052
9.53016
-18.0793
1.61074
1.60505
3.47761
0.851241
4.22364
-9.55334
2.02668
4.87755
-10.301
2.14082
3.06553
3.6945
-1.05592
-6.24053
0.565149
0.349401
4.67761
1.60908
0.29322
1.61573
-0.617599
3.06217
2.21924
-23.0859
0.493001
-16.1646
-0.186168
-31.7248
-9.70035
-32.1462
-8.92052
3.73448
2.42386
-25.4147
2.62661
2.04844
-10.0772
1.49429
6.21509
-9.87704
-18.0538
1.968
-8.40257
0.16578
-9.6958
-0.0938724
3.47204
5.18217
-0.838673
-31.5404
2.05075
3.32195
-1.3243
0.809917
-14.249
-0.458261
0.654979
-7.83587
-0.905312
-9.87786
-0.91905
-9.69815
1.93305
4.12214
1.40298
1.52848
-29.2262
-8.40824
-30.8612
0.187838
-7.64894
-27.4539
4.05423
-33.0839
-2.79546
2.72258
-32.1587
-9.28953
3.21585
-0.582498
0.041911
-10.519
0.711339
2.91439
-28.6246
-27.8667
-1.06252
-10.2312
-18.1585
0.923036
-0.699805
-4.85845
-0.444954
-32.2979
-0.526101
1.82684
0.911557
1.09598
0.410656
-2.54232
-9.91043
0.535527
-3.97765
4.2554
1.52317
-9.25447
2.30196
-33.1801
2.62594
1.02033
1.30817
4.98719
1.29363
1.42243
3.57043
-0.232533
3.55014
-9.35865
-29.3801
0.989903
-33.4704
0.534596
0.89468
1.94016
1.95779
1.56291
-12.3899
2.9436
-4.64683
-9.67853
-9.06754
-31.9872
3.90545
2.33673
-7.72548
2.18139
1.43213
1.80679
0.757561
1.25421
-8.416
3.31716
3.61167
0.649973
-0.547085
-0.893604
-7.92026
-3.59487
-2.89327
-2.87805
1.1614
0.924656
5.48288
1.03903
0.59217
1.27902
-0.593245
1.08477
8.38254
2.55835
2.8954
-4.19237
-9.90115
-14.8853
-0.549399
3.98281
-3.23153
-8.63465
-9.83844
0.144609
1.1801
-1.20148
2.55584
0.660014
-0.584088
-9.14395
-3.6078
0.804286
1.64544
1.92318
-0.630383
-9.77385
0.0100062
2.08747
0.980562
1.05522
-9.81745
2.9504
-17.5609
3.64878
-0.332459
-0.50633
2.45558
-9.56465
-2.73889
2.00103
-10.9186
-30.9639
-1.27709
2.87596
1.68463
-24.873
-9.6093
-10.5098
1.05797
-32.9316
2.51869
4.90546
1.52583
-9.80804
0.744243
1.12299
-3.83242
-7.44454
5.00037
0.276603
-9.51579
0.850432
3.90253
2.29291
3.35455
5.64328
3.54738
2.39774
3.64349
-7.79235
3.34897
0.500163
0.164501
0.199719
-2.43399
-0.155226
-26.9161
-3.0852
-3.62349
2.90291
1.64106
3.57156
3.31107
1.89804
0.847166
-29.288
3.80739
0.00089478
3.96105
4.80552
1.62118
-0.390379
3.58802
-7.44895
0.676607
-31.9132
1.95697
3.66369
2.32418
2.13254
1.92381
-9.76868
2.4639
0.128995
3.51017
4.35452
-27.0421
1.01688
2.40225
-1.83028
-9.81929
0.560324
-9.73238
3.27204
-30.1652
2.69495
-7.89453
3.11367
-4.26881
1.1846
-9.90938
-0.885494
-18.2822
-8.16926
-8.8423
-1.75861
-10.8028
1.12742
-0.0854691
1.03669
-9.80638
3.47011
-0.266812
-33.1074
-8.89711
-8.92757
3.38589
-10.5528
-0.44935
2.00956
0.74128
-3.02912
3.68615
-11.3018
1.90096
1.32151
4.2269
3.00334
2.92684
-5.96955
2.42526
2.30678
-9.24987
-3.16829
0.134047
0.912294
-8.9601
1.72884
2.08267
-10.4463
3.19971
5.08908
-4.94919
2.19366
-0.601355
-33.2694
1.25461
2.79277
2.85989
0.683655
3.25111
1.66296
-9.69919
0.371705
-16.7169
-1.1108
-0.675305
-9.51832
-0.72072
-1.48709
3.40788
0.208299
1.63087
0.388304
-20.0739
-8.67392
2.48552
2.04735
1.36906
-23.0384
-0.335758
-3.07254
0.413865
-0.697262
1.06153
2.49587
-3.61753
-0.471239
-23.5344
-28.5891
2.59636
-18.8924
2.70014
-31.7013
-3.04834
0.759263
2.06151
-0.18526
2.11494
1.75344
-22.0213
4.16321
-1.43553
-9.71044
-33.0458
2.18664
0.408461
-5.10272
0.55598
-5.42087
-10.8492
1.75269
-8.62696
-32.3948
-8.06358
3.60806
0.432139
1.14728
5.44254
-8.11244
2.97326
-9.95168
3.3071
3.64393
-0.826848
-8.931
-27.0976
1.09249
3.21895
4.10594
2.73491
1.94983
-3.62023
-32.66
2.0396
0.932872
-9.46588
3.17241
-29.9195
1.14111
1.49977
3.37875
-9.79988
2.27261
1.25547
2.47489
2.66665
-0.928625
1.74567
-9.18539
-0.750502
1.31311
2.08041
1.13817
-32.8564
0.0291232
0.0584678
-11.4541
-9.61821
-0.646615
-31.1449
3.66184
-9.5195
-33.2115
3.47125
-0.932575
1.80198
1.6455
0.0877116
-20.4878
-2.66867
10.9133
0.468433
-9.32585
4.17188
-8.29859
-31.9841
-2.14187
0.495099
-4.00266
-0.615693
0.823842
1.24316
3.19054
-32.5182
-7.89665
2.23891
-30.7328
-0.123349
-32.0761
5.59635
-9.10715
-10.0949
-9.10628
5.56292
-0.964482
3.51894
-0.537457
-32.9657
-8.10141
3.09128
-3.24203
0.220547
-9.40743
2.24936
-4.62403
4.1531
-8.91904
-0.691807
-28.0096
-1.18146
-2.62758
-9.72674
2.66941
-0.287933
1.97562
4.14901
1.68399
-5.96638
3.59126
1.57407
-29.5951
0.160945