/*--------------------------------*- C++ -*----------------------------------*\
  =========                 |
  \\      /  F ield         | OpenFOAM: The Open Source CFD Toolbox
   \\    /   O peration     | Website:  https://openfoam.org
    \\  /    A nd           | Version:  10
     \\/     M anipulation  |
\*---------------------------------------------------------------------------*/
FoamFile
{
    format      ascii;
    class       surfaceScalarField;
    location    "700";
    object      phi;
}
// * * * * * * * * * * * * * * * * * * * * * * * * * * * * * * * * * * * * * //

dimensions      [0 3 -1 0 0 0 0];

internalField   nonuniform List<scalar> 
16133
(
1.90634
0.047798
-0.228758
-1.72564
-1.57681
0.605652
-0.764538
1.73569
-0.40582
-2.32697
1.7475
0.985282
-0.348499
0.191943
-2.71293
2.86946
-0.449292
-0.287913
3.51367
-2.77657
4.05466
1.53008
-5.03362
-0.551146
-2.36933
0.816528
1.42041
0.132407
0.0463171
-2.28756
0.514967
1.72627
-1.30409
2.08682
1.34178
-2.12452
0.736146
2.95297
-0.363911
-3.32527
2.07213
-1.90187
0.556405
-0.726678
2.81877
-0.846606
0.747297
-2.71952
-0.00775595
-3.26643
1.92529
1.3489
1.04067
-0.896901
0.38531
-0.529096
1.16566
0.422159
-0.547151
-1.22527
0.886297
-2.42896
2.7679
-0.464498
0.317194
-0.749604
-4.29871
1.33555
3.35868
-0.395455
-3.6118
3.03186
-0.724176
-0.0718075
2.09234
-0.114195
-0.431664
1.911
-1.58039
0.101044
-0.491739
-2.65215
2.79537
-2.6379
2.65523
-1.24261
4.37641
-3.444
0.112098
-1.04449
-3.03706
3.75759
0.0155769
-0.00279015
0.00453796
-0.0633118
0.0615634
0.0130631
-0.00642814
-0.00953883
0.0029033
-0.281336
-1.61731
1.50199
0.396653
-0.0329351
0.0575158
-0.0528213
0.0282408
-3.84613
2.50036
2.17887
-0.56567
-3.35113
1.73793
-0.670657
0.641605
2.10117
0.770497
-2.05859
1.33441
-0.00815327
0.182071
-0.0434588
-0.130459
-2.08379
-2.01811
2.04652
2.05535
-1.06564
0.826538
1.19224
-0.95315
-1.66891
-2.98563
2.57074
-0.0187959
0.0694951
-0.0816715
0.0309721
0.0421393
0.0810802
-0.0222679
-0.100952
-3.36668
0.622201
-0.867324
-3.75565
-0.454402
-2.31625
-0.458902
-0.835496
-0.150335
-0.0245938
1.01041
-0.171266
2.46451
-0.031471
-2.26178
2.86221
-1.30471
-3.22641
2.00741
-0.997704
0.804778
-0.505786
-0.401866
-0.215534
0.546535
0.0708595
1.66836
0.885471
-0.467011
2.78054
-2.62829
-0.643998
-1.19839
-1.52084
-3.55858
3.56198
-2.50466
2.50131
0.111672
0.0423143
-0.111847
-0.0226619
0.0351228
0.0635113
-0.0759721
-0.0154754
0.0450861
0.0514697
-0.042229
-0.0245643
0.0338587
2.81531
-1.45171
-4.34922
-0.0237432
-0.0609679
0.0897593
-0.00504851
-0.592925
0.878343
-0.345405
0.0599852
2.8046
0.0682563
0.0179847
0.0254309
0.65024
-1.36802
-0.859037
0.0479204
-0.037815
0.0371519
-0.0472578
1.58253
-2.8858
2.57404
-1.27074
1.45973
-1.23544
-2.56087
1.74838
-1.5145
-0.475946
-0.0822307
-0.034747
0.080225
0.207436
-0.089231
-0.198433
0.674419
1.75154
-2.81776
0.454643
-1.08086
0.0369079
0.0102257
-0.0697955
0.0835767
-0.0153879
0.00539164
-0.07358
-0.892095
0.30813
1.44564
-0.861676
1.55079
-2.33847
-1.7732
0.368077
-0.702606
1.50018
-0.634142
-0.979064
0.840624
0.77257
-3.03887
1.28678
-1.06566
-1.35873
0.923833
1.25144
-1.34057
1.3193
0.791773
1.38621
-1.275
0.256868
3.05786
-2.89854
0.695868
-0.855226
1.76578
-1.6032
-0.150082
-0.0124948
0.0556464
0.10918
-0.122512
0.0417084
0.0756212
-0.0822069
3.42225
0.582923
-0.947333
-0.88144
0.685472
1.30785
-1.11189
1.63051
-1.448
-0.676333
0.493818
2.38024
-2.16296
-0.38854
1.04354
-0.610403
0.279513
-0.712658
1.80045
-0.599466
0.42953
2.635
0.117484
-0.372247
3.22708
-0.400152
1.92333
-0.109749
1.27382
-0.676391
0.446104
1.98991
-0.465488
0.276026
-1.04666
-0.900423
1.14078
2.67105
-0.584782
0.906615
-0.571175
-1.03805
0.881489
-0.151218
0.148064
-2.38275
2.61322
-0.72894
0.498415
1.00735
-0.711142
3.07782
-2.93173
0.538884
-0.685093
0.511294
-0.38988
0.216825
0.428997
3.30652
-0.657698
-0.130933
2.06328
-0.211759
0.640445
-0.758456
-0.0253587
4.47245
-1.02488
1.41936
-0.252109
0.218958
0.335448
-2.43166
-0.532082
-2.66965
-0.711426
-1.48436
-0.193567
0.0747304
-0.221191
0.156186
0.345348
-1.58734
-2.44763
-0.700437
2.44979
0.863869
1.45806
-2.00532
-0.565908
2.18269
-2.6246
-0.505138
2.42928
1.56724
1.4295
-0.546988
0.643505
-0.316242
-0.961411
1.60479
-0.746203
-0.899961
0.647708
1.38834
-1.1361
-1.93618
2.07855
0.636555
-0.778957
-0.0420436
0.104388
0.00496073
-0.0673058
-0.68251
0.780331
0.902831
-1.03966
3.2896
-2.71369
-0.0447622
0.0411175
-0.0102357
0.0138807
0.975203
-1.09484
-1.79551
-0.811332
-1.8925
-1.12185
0.269001
-0.0166353
0.0786714
0.021541
-0.0652486
0.131562
0.100056
-0.166369
-0.720664
0.818046
-1.14406
-0.560315
2.84498
-1.78954
-2.23683
-0.242278
-0.0133045
-0.131187
-2.3919
3.26607
0.022932
-0.156461
-0.342416
-0.635423
1.62959
-3.26764
2.27351
2.87549
1.03797
-1.04849
0.60163
-0.591122
1.07754
-1.1505
0.64974
-2.62576
-0.669534
0.849324
-0.644298
2.20486
0.859147
-3.69945
-0.418443
0.0927055
-0.0761292
-1.09558
-3.58254
1.89643
-1.69566
2.66035
1.17409
3.34955
1.74249
-0.122981
0.0209292
0.246269
-0.144217
2.32801
0.4976
-0.74712
0.82905
-1.49858
0.732091
1.66881
-0.902335
4.05316
0.98387
-1.84103
-3.196
-0.990075
0.253537
-2.36684
2.60829
3.17708
-3.14026
-0.0622236
-0.109688
1.35776
2.33856
2.51821
-1.93583
1.53371
-1.65648
-2.77785
-0.398614
2.67129
-2.4418
1.6102
-1.03388
1.86546
-2.91337
-3.24014
-0.0619793
-2.14603
0.373083
-0.498339
-0.766838
0.0104001
-0.00393392
-0.00214967
-0.00431691
-0.197418
0.664206
2.83449
-2.78145
0.806097
-1.299
-0.964145
-0.921989
-0.578473
0.525995
-0.220561
0.273029
-2.2487
-0.425251
-0.0783813
0.122846
0.0130506
-3.79279
-0.591114
-1.77989
0.899175
0.0927849
-0.0665726
-0.7429
-0.943154
1.89752
-2.31311
1.67353
2.37899
2.3429
2.3547
-1.77183
0.131021
0.0578998
-0.133274
-0.0534307
-0.00796662
0.983162
-1.11828
0.390313
-0.732021
1.71795
-1.98669
-0.661142
0.832222
-0.854796
-0.933491
-0.0565344
1.6015
1.17717
0.112877
0.0298227
-0.161495
-2.13788
1.84878
0.158628
-0.951339
1.0824
-1.61681
2.2554
-0.293277
-0.61539
0.0331291
0.0835083
-0.0687172
2.95595
-0.232404
0.0488921
-0.234932
1.88976
1.00821
2.91615
0.00323856
0.0202243
-0.663353
0.983574
-0.294745
1.43131
0.129227
-0.111951
-0.151389
0.134112
-0.051597
0.0488068
0.208607
0.062776
-0.0893054
-0.051852
0.630799
-0.396834
0.292025
0.296127
-0.0683436
-0.204852
0.701679
0.280751
-1.17986
-0.0274132
-0.0779598
0.132529
-0.0271561
1.75552
0.0506734
-0.0552669
0.00459377
-0.654743
-0.912715
2.31239
-3.16221
0.87962
0.795775
0.353134
-0.362958
-0.210741
-1.70114
-0.000923712
0.819014
-3.41767
-0.0381174
0.0453475
0.0131156
-0.0203458
-0.270025
-3.4181
-0.0797879
-0.0176663
0.0700404
-2.57077
-0.392688
-1.90885
3.58479
-2.05826
-0.0291381
-0.117823
0.0690009
0.200621
-0.264834
0.19344
-0.0244915
-0.0537573
0.0360202
-0.595863
1.53492
-0.756375
1.445
0.887239
-0.614295
0.0149041
-0.027384
0.0124798
-1.13593
-1.02212
0.0279141
-0.0412621
0.013349
1.32853
-2.78174
0.850851
0.798125
-0.341586
0.951604
0.0237112
0.00420301
0.278793
-0.154765
-0.168256
0.290783
0.0851624
-0.339253
1.57699
-0.389105
-0.664677
2.6953
0.148063
-0.0605921
0.0435492
0.0400982
0.0589598
-0.65679
0.886475
-1.66406
-0.33622
1.38452
-0.276707
2.64975
0.0440888
0.00471726
0.110454
-2.34618
0.882253
-0.508799
-1.57716
1.10313
0.622298
0.153678
-1.54404
1.50057
-0.149015
-0.0351433
0.0722073
3.75962
-0.0707427
0.0401209
0.0901291
-0.0885418
-0.118261
0.172884
-0.85339
0.1431
0.0128749
-0.0930108
0.0302066
0.0336657
-0.0638722
-0.298734
-2.14187
2.93568
-0.339268
0.326216
0.09747
-1.39644
0.00821515
0.00668873
-0.81259
-2.99778
0.320501
0.0381407
0.0971057
-0.0951256
-0.316614
-0.13807
-0.00188352
-1.07476
-0.136885
-2.45232
-1.32868
-0.0110555
0.123024
0.175209
-0.178514
-0.623175
-0.0231923
0.00922928
-0.0238523
0.0591861
0.142983
-0.144269
-0.183073
-1.74848
-2.23838
0.0404382
0.0036504
0.0457006
-1.40376
0.0153515
0.974474
0.0190932
0.00651687
0.0586745
0.0807179
-0.101252
0.335869
0.10948
0.0174306
0.0354168
-0.0465592
-0.0150556
0.0113829
-0.135614
0.205675
-0.11352
-0.010599
0.0148801
0.0412201
-0.000782066
-0.00237182
0.000221812
0.103757
0.0187763
0.00183882
-0.0074995
-0.155077
1.34174
-0.948621
0.926194
0.0301661
-0.107106
-0.00620653
0.0889876
-0.258809
-0.398013
0.672857
0.36356
-0.928776
-0.913191
-0.0231846
0.0329387
-0.0407306
0.0195752
-0.0592747
-0.0180296
0.0199104
-0.00507366
9.62206e-05
0.0411241
-0.0223745
-0.0479429
1.47177
-0.00959481
0.0331576
-1.38844
0.263977
-1.3151
-0.470823
-0.0610648
0.00459001
-0.0107966
-0.0320822
0.0138274
-0.0399068
0.0486142
-0.00895774
0.377705
-0.526812
-0.742712
0.474198
0.00112389
-1.00823
-0.320925
-0.068653
-0.0328359
-1.05945
-0.952715
-0.0164572
-0.0464372
0.022922
0.102372
-0.362417
0.0347539
0.0175106
-0.0368027
1.24974
-0.013971
0.027212
-0.00901551
-0.130224
2.73579
-0.329792
-0.217508
-0.643247
-0.178517
-0.607842
-0.00491476
0.127875
-0.122959
-0.00917992
0.134297
-0.130032
-0.0135405
0.146403
-0.142042
-0.0182677
0.156351
-0.151624
-0.0233205
0.165996
-0.160943
-0.0288471
0.174642
-0.169115
-0.0348313
0.183076
-0.177091
-0.041385
0.191266
-0.184713
0.199399
-0.192652
-0.0481324
-0.00389837
0.131773
-0.00787579
0.138275
-0.0117836
0.150311
-0.0160008
0.160568
-0.0204499
0.170445
-0.0253391
0.179531
-0.0306283
0.188365
-0.0363432
0.196981
0.205495
-0.0424392
-0.00333105
0.135105
-0.00678168
0.141726
-0.0102069
0.153736
-0.0138731
0.164235
-0.0177581
0.17433
-0.0219953
0.183768
-0.0265687
0.192939
-0.0314811
0.201894
0.210737
-0.0367227
-0.00295834
0.138063
-0.00585391
0.144622
-0.0087426
0.156625
-0.0118287
0.167321
-0.0151293
0.17763
-0.0187299
0.187369
-0.0226209
0.19683
-0.0268099
0.206083
0.215249
-0.0313218
-0.00262989
0.140694
-0.00496031
0.146953
-0.00728627
0.158951
-0.00978684
0.169821
-0.0124893
0.180333
-0.0154574
0.190337
-0.0186963
0.200069
-0.0222155
0.209602
0.219057
-0.0260235
-0.00217965
0.142873
-0.00397718
0.14875
-0.00575722
0.160731
-0.00767675
0.171741
-0.00977792
0.182434
-0.012113
0.192672
-0.0146809
0.202636
-0.0174925
0.212414
0.222129
-0.0205646
-0.00144113
0.144315
-0.00280076
0.15011
-0.00408404
0.162015
-0.00545878
0.173116
-0.00696372
0.183939
-0.00865266
0.194361
-0.0105436
0.204527
-0.0126379
0.214508
0.224446
-0.0149547
-0.000495391
0.14481
-0.00148757
0.151102
-0.00230091
0.162828
-0.00313039
0.173945
-0.00404043
0.184849
-0.0050909
0.195412
-0.00629671
0.205733
-0.00767168
0.215883
0.225947
-0.00917288
0.000347682
0.144463
-0.000205243
0.151655
-0.00049314
0.163116
-0.000755392
0.174207
-0.00105691
0.18515
-0.00145379
0.195808
-0.00198102
0.20626
-0.00263879
0.216541
0.226754
-0.00344613
0.000953997
0.143509
0.000946013
0.151663
0.00127249
0.162789
0.00162966
0.17385
0.00196251
0.184817
0.00220244
0.195568
0.00233209
0.206131
0.00233044
0.216542
0.226877
0.00220799
0.00136559
0.142143
0.00201252
0.151016
0.00302429
0.161777
0.00402039
0.172853
0.00498145
0.183856
0.00584347
0.194706
0.00660142
0.205372
0.00722718
0.215916
0.226402
0.00770185
0.00176296
0.14038
0.00317885
0.149599
0.00485257
0.160103
0.00644982
0.171256
0.00798048
0.182325
0.00943312
0.193253
0.0107816
0.204024
0.0120302
0.214668
0.225353
0.0130795
0.00255235
0.137827
0.00469729
0.147454
0.00685245
0.157947
0.00891574
0.169192
0.0109291
0.180312
0.0128782
0.191304
0.014756
0.202146
0.0165388
0.212885
0.223663
0.0182288
0.00365598
0.134172
0.00638493
0.144725
0.00889515
0.155437
0.0113227
0.166764
0.0137208
0.177913
0.0160737
0.188951
0.0183767
0.199843
0.020602
0.210659
0.221517
0.0227479
0.00461857
0.129553
0.00789119
0.141452
0.0107399
0.152588
0.0134766
0.164027
0.0161905
0.175199
0.0188878
0.186253
0.0215486
0.197182
0.024137
0.208071
0.219
0.0266531
0.00516348
0.124391
0.00892665
0.137688
0.0121116
0.149402
0.0151593
0.160979
0.0181767
0.172181
0.0211792
0.183251
0.0241499
0.194211
0.0270575
0.205163
0.216163
0.0298946
0.00493871
0.119452
0.009207
0.13342
0.0127798
0.145829
0.0161932
0.157566
0.0195419
0.168833
0.0228542
0.179938
0.0261073
0.190958
0.0292919
0.201979
0.213105
0.0323498
0.00403141
0.115422
0.00864795
0.128803
0.012694
0.141783
0.0165368
0.153723
0.0202549
0.165114
0.0238869
0.176306
0.0274289
0.187415
0.0308676
0.19854
0.209797
0.0341758
0.00317107
0.11225
0.00778187
0.124192
0.012158
0.137407
0.0163784
0.149502
0.0204512
0.161041
0.0244055
0.172351
0.0282412
0.18358
0.0319628
0.194818
0.20618
0.0355788
0.00269513
0.109556
0.00707641
0.119811
0.0115547
0.132928
0.0160092
0.145047
0.0203495
0.156701
0.0245727
0.168128
0.0286664
0.179486
0.0326175
0.190867
0.202385
0.0364126
0.00251752
0.107037
0.00666653
0.115662
0.0111106
0.128484
0.0156638
0.140494
0.0201796
0.152185
0.0246166
0.163691
0.0289459
0.175156
0.0331278
0.186685
0.198408
0.0371044
0.00259482
0.104443
0.00658763
0.111669
0.0109446
0.124127
0.0154979
0.13594
0.0201129
0.14757
0.0247194
0.159084
0.0292695
0.170606
0.0336882
0.182266
0.194149
0.0379468
0.00305244
0.10139
0.00687654
0.107845
0.0110963
0.119908
0.0155825
0.131454
0.0202506
0.142901
0.0250094
0.154325
0.0298091
0.165806
0.0344965
0.177579
0.189758
0.0388868
0.00384658
0.0975436
0.00743961
0.104253
0.0114876
0.11586
0.0159038
0.127038
0.0206231
0.138182
0.0255264
0.149422
0.0306171
0.160716
0.0356048
0.172591
0.185705
0.0396575
0.00453295
0.00783369
0.0118464
0.0163722
0.0212803
0.0264335
0.0320723
0.0382936
0.0454811
-0.107863
-0.00100921
0.108872
-0.106674
-0.0011891
-0.105269
-0.00140498
-0.103608
-0.00166083
-0.101658
-0.00195032
-0.0993833
-0.00227449
-0.0967501
-0.0026332
-0.0937288
-0.00302138
-0.0902916
-0.00343712
-0.0864325
-0.00385923
-0.0821562
-0.00427625
-0.0774854
-0.00467092
-0.072457
-0.0050283
-0.0671102
-0.00534691
-0.0614907
-0.00561938
-0.055646
-0.00584482
-0.0496318
-0.0060139
-0.0435047
-0.00612712
-0.0373256
-0.00617894
-0.0311591
-0.00616658
-0.0250778
-0.00608116
-0.0191724
-0.00590531
-0.0135418
-0.00563049
-0.00823071
-0.00531091
-0.00314259
-0.00508798
0.00189282
-0.00503532
0.00704224
-0.00514922
0.0124672
-0.00542486
0.0181793
-0.00571183
0.0240496
-0.0058702
0.0299685
-0.00591871
0.0358648
-0.00589612
0.0416934
-0.00582827
0.04741
-0.00571648
0.052971
-0.00556064
0.0583359
-0.00536472
0.0634645
-0.00512833
0.0683162
-0.00485153
0.0728575
-0.004541
0.077059
-0.00420151
0.080906
-0.00384664
0.084396
-0.00349
0.0875714
-0.00317513
0.0905126
-0.00294125
0.0932932
-0.00278022
0.0959774
-0.00268427
0.0986023
-0.00262452
0.101185
-0.00258248
0.103721
-0.00253538
0.106193
-0.00247195
0.108581
-0.00238819
0.110863
-0.00228132
0.113026
-0.00216267
0.115053
-0.00202755
0.116937
-0.001884
0.118672
-0.00173451
0.120251
-0.0015788
0.121681
-0.0014297
-0.00127799
-0.103157
-0.00265301
0.1048
-0.10136
-0.00298585
-0.0994004
-0.00336445
-0.0972654
-0.00379574
-0.094948
-0.00426781
-0.0924317
-0.00479066
-0.0897107
-0.00535433
-0.0867739
-0.0059582
-0.0836209
-0.00659018
-0.0802483
-0.00723184
-0.0766526
-0.00787215
-0.0728305
-0.00849305
-0.0687734
-0.00908555
-0.0644788
-0.00964141
-0.0599435
-0.0101549
-0.0551721
-0.0106162
-0.0501759
-0.0110101
-0.0449721
-0.011331
-0.0395783
-0.0115728
-0.034016
-0.0117289
-0.0282999
-0.0117972
-0.0224224
-0.0117828
-0.0163451
-0.0117077
-0.0100308
-0.0116251
-0.00353181
-0.0115869
0.00304423
-0.0116112
0.00959447
-0.0116994
0.0160139
-0.0118441
0.0223034
-0.0120013
0.0285259
-0.0120925
0.0346969
-0.0120896
0.0407973
-0.0119963
0.0467905
-0.0118214
0.052647
-0.0115727
0.0583355
-0.011249
0.0638319
-0.0108609
0.069116
-0.0104123
0.0741813
-0.00991665
0.0790235
-0.00938317
0.0836505
-0.0088284
0.0880745
-0.00827064
0.0923122
-0.00772766
0.0963652
-0.00722812
0.100205
-0.00678151
0.103811
-0.00638628
0.107167
-0.00603949
0.110261
-0.00571869
0.113078
-0.00540017
0.115622
-0.0050785
0.117897
-0.00474755
0.119921
-0.00441235
0.121717
-0.00407653
0.12331
-0.00375653
0.124736
-0.00345361
0.126013
-0.00316076
0.127166
-0.00288712
0.128208
-0.00262085
0.129157
-0.00237841
-0.00215296
-0.110112
-0.00452676
0.111986
-0.108079
-0.00501886
-0.10588
-0.00556304
-0.103517
-0.0061596
-0.100973
-0.00681114
-0.0982469
-0.00751711
-0.0953321
-0.00826912
-0.0922293
-0.00906101
-0.0889314
-0.00988821
-0.0854279
-0.0107354
-0.0817061
-0.011594
-0.0777511
-0.0124481
-0.0735474
-0.0132893
-0.0690848
-0.0141041
-0.0643609
-0.0148788
-0.0593818
-0.0155955
-0.0541458
-0.0162462
-0.0486622
-0.0168147
-0.0429384
-0.0172967
-0.0369816
-0.0176857
-0.0307947
-0.0179842
-0.0243806
-0.0181971
-0.017746
-0.0183424
-0.0109237
-0.0184475
-0.00397175
-0.0185389
0.00305347
-0.0186365
0.0100963
-0.0187423
0.0170978
-0.0188456
0.0240119
-0.0189154
0.0308331
-0.0189138
0.0375601
-0.0188167
0.0441785
-0.0186148
0.0506659
-0.0183089
0.0569941
-0.017901
0.0631443
-0.0173992
0.0690966
-0.0168133
0.0748367
-0.0161524
0.0803566
-0.0154367
0.0856542
-0.0146807
0.0907249
-0.0138993
0.0955716
-0.0131173
0.100192
-0.0123479
0.104574
-0.0116101
0.108698
-0.0109058
0.112555
-0.0102429
0.116123
-0.00960831
0.119403
-0.00899844
0.122405
-0.00840219
0.125146
-0.00781942
0.127648
-0.00724932
0.129929
-0.00669398
0.132006
-0.00615338
0.133894
-0.00564476
0.135604
-0.00516322
0.137151
-0.00470825
0.138551
-0.0042865
0.139827
-0.00389682
0.140986
-0.00353757
-0.003209
-0.116237
-0.00644657
0.118156
-0.114159
-0.00709697
-0.111907
-0.00781437
-0.109475
-0.00859231
-0.106855
-0.0094309
-0.104041
-0.0103314
-0.101025
-0.0112844
-0.0977968
-0.0122896
-0.0943512
-0.0133338
-0.0906788
-0.0144078
-0.086772
-0.0155008
-0.0826165
-0.0166036
-0.07821
-0.0176958
-0.0735436
-0.0187705
-0.0686179
-0.0198045
-0.0634232
-0.0207902
-0.0579596
-0.0217099
-0.0522247
-0.0225497
-0.0462186
-0.0233028
-0.0399433
-0.0239611
-0.0334026
-0.024525
-0.0266042
-0.0249955
-0.0195643
-0.0253823
-0.012316
-0.0256958
-0.00490498
-0.02595
0.00261286
-0.0261544
0.0101761
-0.0263056
0.0177274
-0.026397
0.0252228
-0.0264108
0.0326348
-0.0263258
0.0399433
-0.0261253
0.0471292
-0.0258008
0.0541699
-0.0253496
0.0610453
-0.0247765
0.0677315
-0.0240855
0.0742135
-0.0232953
0.0804778
-0.0224168
0.086505
-0.0214639
0.0922853
-0.0204611
0.0978129
-0.0194269
0.103076
-0.0183804
0.108063
-0.0173345
0.112757
-0.0163049
0.117147
-0.0152955
0.121216
-0.0143115
0.124967
-0.0133592
0.128398
-0.0124296
0.131529
-0.0115334
0.134372
-0.0106625
0.136955
-0.00983268
0.1393
-0.00903885
0.141429
-0.0082819
0.14335
-0.00756554
0.145086
-0.00689989
0.146658
-0.00628029
0.148085
-0.00571281
0.149379
-0.00519051
0.150552
-0.00471136
-0.00428034
-0.125822
-0.00849957
0.127875
-0.123582
-0.00933681
-0.121152
-0.0102447
-0.118521
-0.0112238
-0.115679
-0.0122728
-0.11262
-0.0133898
-0.109334
-0.014571
-0.105818
-0.015805
-0.102065
-0.0170869
-0.098068
-0.0184049
-0.0938213
-0.0197475
-0.0893196
-0.0211053
-0.084557
-0.0224585
-0.0795312
-0.0237963
-0.0742326
-0.0251031
-0.0686597
-0.0263632
-0.0628088
-0.0275608
-0.0566751
-0.0286834
-0.0502619
-0.0297161
-0.0435681
-0.0306549
-0.0366043
-0.0314888
-0.0293816
-0.0322183
-0.0219208
-0.0328431
-0.0142511
-0.0333655
-0.00641405
-0.0337871
0.00154151
-0.03411
0.00956541
-0.0343295
0.0176081
-0.0344397
0.0256247
-0.0344275
0.0335776
-0.0342789
0.0414349
-0.0339826
0.0491659
-0.0335319
0.0567411
-0.0329248
0.0641363
-0.0321717
0.0713293
-0.0312785
0.078292
-0.0302582
0.0850061
-0.0291309
0.0914555
-0.0279135
0.0976231
-0.0266286
0.103498
-0.0253015
0.109061
-0.0239437
0.114308
-0.0225818
0.119226
-0.021223
0.123813
-0.0198826
0.12807
-0.0185683
0.131997
-0.0172867
0.135613
-0.0160447
0.138927
-0.0148473
0.141959
-0.0136952
0.144726
-0.0125995
0.147249
-0.011562
0.149552
-0.0105849
0.15166
-0.00967342
0.153583
-0.0088227
0.155341
-0.00803834
0.156944
-0.00731597
0.158406
-0.00665206
0.159738
-0.00604329
-0.00548524
-0.134641
-0.0106228
0.136764
-0.132328
-0.0116495
-0.129818
-0.0127546
-0.127097
-0.0139455
-0.124149
-0.0152205
-0.120972
-0.0165671
-0.117553
-0.0179896
-0.113884
-0.0194742
-0.109956
-0.0210152
-0.105764
-0.0225963
-0.101301
-0.0242108
-0.0965615
-0.025845
-0.0915366
-0.0274834
-0.086221
-0.0291119
-0.0806119
-0.0307122
-0.0747047
-0.0322704
-0.0684961
-0.0337694
-0.0619904
-0.0351891
-0.0551848
-0.0365217
-0.048086
-0.0377537
-0.0406998
-0.038875
-0.0330434
-0.0398748
-0.0251372
-0.0407494
-0.0170124
-0.0414904
-0.00870852
-0.042091
-0.000271451
-0.0425471
0.00825065
-0.0428517
0.016811
-0.0430001
0.0253638
-0.0429803
0.0338664
-0.0427815
0.0422808
-0.042397
0.0505668
-0.041818
0.0586909
-0.0410489
0.0666234
-0.0401043
0.0743317
-0.0389868
0.0817929
-0.0377194
0.0889818
-0.0363199
0.0958684
-0.0348
0.102438
-0.0331984
0.108672
-0.0315354
0.114561
-0.0298329
0.120091
-0.0281115
0.125261
-0.0263928
0.130066
-0.0246881
0.134516
-0.0230177
0.138618
-0.0213888
0.142387
-0.0198139
0.145843
-0.0183031
0.14901
-0.0168629
0.151911
-0.0155002
0.154571
-0.0142219
0.157009
-0.0130224
0.159242
-0.0119064
0.161287
-0.010868
0.163159
-0.00991025
0.164864
-0.00902134
0.166418
-0.00820512
0.167833
-0.00745902
-0.00676699
-0.145104
-0.012857
0.147338
-0.142667
-0.0140861
-0.140017
-0.0154051
-0.137141
-0.0168215
-0.134029
-0.0183324
-0.130666
-0.0199295
-0.127046
-0.0216104
-0.123155
-0.0233648
-0.118993
-0.0251771
-0.114546
-0.0270434
-0.109811
-0.0289456
-0.104782
-0.030874
-0.0994493
-0.0328162
-0.0938081
-0.0347531
-0.087854
-0.0366663
-0.0815851
-0.0385393
-0.074995
-0.0403595
-0.0680956
-0.0420886
-0.060883
-0.0437342
-0.0533669
-0.0452699
-0.0455508
-0.0466912
-0.037454
-0.0479716
-0.0290986
-0.0491048
-0.0205108
-0.0500782
-0.0117375
-0.0508643
-0.00282047
-0.0514641
0.0061893
-0.0518615
0.0152502
-0.052061
0.0243166
-0.0520468
0.0333416
-0.0518065
0.0422856
-0.0513411
0.0510948
-0.0506273
0.0597309
-0.0496851
0.0681615
-0.0485349
0.076346
-0.0471714
0.0842638
-0.0456372
0.0918868
-0.043943
0.0991692
-0.0420825
0.106105
-0.0401347
0.112677
-0.0381073
0.11888
-0.0360358
0.124702
-0.0339332
0.130145
-0.0318357
0.135209
-0.0297519
0.139908
-0.027717
0.144252
-0.025733
0.148258
-0.0238198
0.151941
-0.0219862
0.155328
-0.0202499
0.158443
-0.018615
0.161302
-0.0170814
0.163935
-0.0156551
0.16635
-0.0143211
0.168565
-0.0130834
0.170593
-0.0119385
0.17245
-0.010878
0.174146
-0.0099008
0.175689
-0.00900248
-0.00816912
-0.155744
-0.0151768
0.158064
-0.153228
-0.0166029
-0.150496
-0.0181366
-0.147525
-0.0197927
-0.144307
-0.0215502
-0.140821
-0.0234154
-0.137067
-0.0253644
-0.133021
-0.0274106
-0.12867
-0.0295287
-0.124029
-0.031684
-0.119076
-0.0338991
-0.113801
-0.0361487
-0.108201
-0.0384167
-0.102262
-0.0406918
-0.0959846
-0.0429438
-0.0893586
-0.0451653
-0.0823823
-0.0473359
-0.0750906
-0.0493802
-0.0674766
-0.0513483
-0.0595425
-0.053204
-0.0512858
-0.0549478
-0.0427376
-0.0565198
-0.0339235
-0.0579189
-0.0248413
-0.0591604
-0.0155796
-0.060126
-0.00616547
-0.0608783
0.00333158
-0.0613585
0.012894
-0.0616235
0.0224683
-0.061621
0.0320043
-0.0613426
0.0414756
-0.0608125
0.0507904
-0.0599421
0.059913
-0.0588078
0.0688375
-0.0574594
0.0774724
-0.0558063
0.0858354
-0.0540003
0.0939146
-0.0520222
0.101584
-0.0497517
0.108884
-0.0474354
0.115808
-0.0450312
0.122346
-0.0425734
0.128502
-0.0400892
0.134252
-0.0375864
0.139618
-0.0351181
0.144639
-0.0327372
0.149279
-0.0303731
0.153587
-0.0281287
0.157559
-0.0259575
0.161196
-0.0238871
0.164539
-0.0219584
0.167617
-0.020159
0.170451
-0.0184894
0.173058
-0.0169279
0.175452
-0.0154783
0.17765
-0.0141364
0.179665
-0.0128927
0.181501
-0.0117367
0.183179
-0.010681
-0.00970216
-0.167945
0.170319
-0.0175511
-0.165329
-0.0192189
-0.162477
-0.0209887
-0.159358
-0.0229115
-0.155976
-0.0249322
-0.152298
-0.0270928
-0.148315
-0.0293475
-0.14406
-0.031666
-0.139503
-0.0340858
-0.134549
-0.0366379
-0.129322
-0.0391259
-0.123753
-0.0417182
-0.117793
-0.0443767
-0.111533
-0.0469513
-0.104872
-0.0496044
-0.0979322
-0.0521055
-0.0906221
-0.0546459
-0.0829116
-0.0570907
-0.0748105
-0.0594493
-0.0664226
-0.061592
-0.0577051
-0.0636652
-0.0487513
-0.0654737
-0.0395114
-0.0671588
-0.0299337
-0.0687381
-0.0201818
-0.0698779
-0.0102855
-0.0707746
-0.000344978
-0.0712991
0.0097149
-0.0716833
0.0198117
-0.0717179
0.0297851
-0.071316
0.0397545
-0.0707819
0.0495455
-0.0697331
0.0590863
-0.0683486
0.0684783
-0.0668513
0.0775684
-0.0648965
0.0863473
-0.0627791
0.0947101
-0.0603851
0.10265
-0.057692
0.110352
-0.0551371
0.117616
-0.0522952
0.124495
-0.0494523
0.13104
-0.0466343
0.137175
-0.0437211
0.142941
-0.040885
0.14835
-0.0381457
0.153383
-0.0354068
0.158066
-0.0328113
0.162376
-0.0302673
0.166447
-0.0279582
0.1702
-0.025712
0.173644
-0.0236025
0.176803
-0.021649
0.179694
-0.0198182
0.18239
-0.0181752
0.184867
-0.0166132
0.187127
-0.0151528
0.189181
-0.0137901
0.190986
-0.0124864
-0.0113675
-0.0729077
0.00903533
-0.0808331
0.00792549
-0.0877272
0.0068941
-0.0937914
0.00606442
-0.0994939
0.00570257
-0.105084
0.00559063
-0.110566
0.00548157
-0.11599
0.00542434
-0.12139
0.00540065
-0.126335
0.00494512
-0.130128
0.00379246
-0.13239
0.00226208
-0.133152
0.00076272
-0.132829
-0.000323049
-0.132053
-0.000775911
-0.131196
-0.000856608
-0.130301
-0.000895247
-0.129227
-0.00107382
-0.127695
-0.00153073
-0.125419
-0.00227655
-0.122465
-0.00295324
-0.119134
-0.00333108
-0.115665
-0.00346831
-0.112336
-0.00332936
-0.00346363
-0.0774699
0.0167096
-0.0850852
0.0155405
-0.0923927
0.0142014
-0.0994058
0.0130773
-0.106065
0.0123615
-0.112356
0.0118812
-0.11832
0.0114455
-0.123871
0.0109755
-0.12875
0.0102802
-0.132788
0.00898254
-0.136038
0.00704282
-0.138531
0.00475427
-0.140233
0.00246527
-0.141071
0.000514669
-0.140995
-0.000851966
-0.1401
-0.00175101
-0.138526
-0.00246948
-0.136362
-0.00323765
-0.13371
-0.00418322
-0.130672
-0.00531463
-0.127185
-0.00643989
-0.123064
-0.00745198
-0.118143
-0.00838991
-0.112104
-0.00936832
-0.0107675
-0.084751
0.0254883
-0.0931606
0.02395
-0.101239
0.02228
-0.108942
0.0207798
-0.116132
0.0195511
-0.122747
0.0184963
-0.128756
0.0174541
-0.134068
0.0162876
-0.138591
0.0148025
-0.142395
0.0127872
-0.145594
0.0102414
-0.148223
0.00738284
-0.150265
0.00450709
-0.151625
0.00187484
-0.152143
-0.000333714
-0.151732
-0.0021621
-0.150422
-0.00377986
-0.148287
-0.00537213
-0.145424
-0.00704608
-0.141911
-0.0088281
-0.137716
-0.0106345
-0.132736
-0.0124321
-0.126862
-0.014264
-0.119961
-0.01627
-0.0187429
-0.0918861
0.0351674
-0.101019
0.0330829
-0.109718
0.0309783
-0.117941
0.0290032
-0.125582
0.0271919
-0.132559
0.025473
-0.138818
0.0237128
-0.144309
0.0217787
-0.149018
0.0195111
-0.153019
0.0167887
-0.156411
0.0136325
-0.159228
0.0101995
-0.161428
0.00670779
-0.162921
0.00336729
-0.163554
0.000299622
-0.16323
-0.00248662
-0.161915
-0.00509447
-0.159646
-0.00764105
-0.156475
-0.0102179
-0.152456
-0.012847
-0.147561
-0.0155299
-0.141722
-0.0182709
-0.13486
-0.0211264
-0.126942
-0.0241879
-0.0275284
-0.0989775
0.0456029
-0.10885
0.042955
-0.118172
0.0403004
-0.126919
0.0377502
-0.13501
0.035283
-0.142384
0.0328463
-0.148993
0.0303215
-0.154811
0.0275973
-0.159851
0.0245512
-0.164169
0.0211059
-0.167829
0.0172926
-0.170853
0.0132232
-0.173189
0.00904386
-0.174748
0.00492612
-0.175422
0.000973815
-0.175105
-0.00280354
-0.17375
-0.00644942
-0.171368
-0.0100231
-0.167987
-0.0135989
-0.163638
-0.0171964
-0.158329
-0.0208385
-0.15206
-0.0245404
-0.14485
-0.0283365
-0.136763
-0.0322754
-0.0364162
-0.10612
0.056597
-0.116673
0.053508
-0.126603
0.0502301
-0.135886
0.0470337
-0.144459
0.043856
-0.152282
0.0406685
-0.159308
0.0373474
-0.16553
0.0338191
-0.170966
0.0299872
-0.175644
0.0257846
-0.179613
0.0212608
-0.182863
0.0164736
-0.185348
0.011529
-0.186988
0.00656567
-0.187671
0.00165652
-0.187324
-0.00315023
-0.185902
-0.00787149
-0.183379
-0.0125463
-0.179776
-0.0172017
-0.175106
-0.0218664
-0.169396
-0.026549
-0.16266
-0.0312756
-0.154935
-0.0360617
-0.146265
-0.0409455
-0.0459179
-0.113146
0.0684913
-0.124475
0.064837
-0.135047
0.0608017
-0.144899
0.0568861
-0.153992
0.0529487
-0.162308
0.0489836
-0.169788
0.0448278
-0.176449
0.04048
-0.1823
0.0358378
-0.187358
0.0308424
-0.191652
0.0255546
-0.195165
0.0199872
-0.197828
0.014192
-0.199561
0.00829871
-0.20029
0.00238527
-0.199936
-0.00350438
-0.198451
-0.0093567
-0.195817
-0.0151803
-0.192035
-0.020984
-0.187135
-0.026766
-0.181143
-0.0325416
-0.174104
-0.0383145
-0.166071
-0.044095
-0.157119
-0.0498972
-0.0556993
-0.120173
0.0815588
-0.132346
0.0770098
-0.14355
0.0720052
-0.153992
0.0673282
-0.163629
0.0625855
-0.172471
0.0578253
-0.180429
0.0527864
-0.187538
0.0475887
-0.193831
0.0421307
-0.199273
0.0362838
-0.203895
0.0301769
-0.207699
0.0237916
-0.210561
0.0170532
-0.212424
0.0101625
-0.213217
0.00317743
-0.212868
-0.00385324
-0.211342
-0.010883
-0.208613
-0.0179084
-0.204684
-0.0249131
-0.199587
-0.0318631
-0.193356
-0.0387726
-0.186044
-0.0456273
-0.177682
-0.0524572
-0.168333
-0.059246
-0.065968
-0.127689
0.0957281
-0.140464
0.0897845
-0.152144
0.0836853
-0.163154
0.0783374
-0.173351
0.0727826
-0.182777
0.0672512
-0.19123
0.0612395
-0.198803
0.0551612
-0.205543
0.0488712
-0.211396
0.0421366
-0.216327
0.0351073
-0.220402
0.0278674
-0.223512
0.0201627
-0.225517
0.0121679
-0.226383
0.00404353
-0.226066
-0.00417104
-0.224506
-0.0124425
-0.221723
-0.0206913
-0.217665
-0.028972
-0.212354
-0.0371738
-0.20593
-0.0451962
-0.198414
-0.0531434
-0.189818
-0.0610538
-0.180426
-0.0686376
-0.0760752
1.23316
0.545493
0.24626
-0.791765
-0.454739
0.620395
-0.165654
0.292825
-0.384274
0.0914496
0.359586
-0.418876
0.0592903
-0.0595767
-0.513793
0.573369
-0.415761
0.730069
-0.314308
1.04635
-0.910943
-0.135396
-0.0443081
-0.209497
0.253805
4.71153
-3.16391
-1.54761
-0.811055
1.69707
-0.886012
-0.963331
0.316894
0.646434
0.935755
-1.66289
0.727127
-0.726881
-0.198402
0.925281
0.125335
-0.127912
0.0025774
2.86941
-2.63657
-0.232847
-0.585132
0.130383
0.139598
-0.0258762
-0.113722
0.193889
0.0826179
0.280759
0.0959731
-0.376731
-0.356475
0.221968
0.134506
2.68257
1.23746
-3.92001
-0.467691
0.826651
-0.35896
1.18838
-0.920772
-0.26761
-0.889648
0.26653
0.623118
1.01839
0.169989
-1.12042
0.588373
0.532042
-1.16928
0.28982
0.879457
3.39785
-2.0645
-1.33334
-0.0318907
-0.151851
0.183741
0.272241
0.438134
-0.710375
0.766284
-1.82548
1.05926
0.687943
0.886888
-1.57483
1.88618
-3.75397
1.8678
-0.301706
-0.074695
0.376401
0.406653
1.12933
-1.53599
-0.897737
0.170854
-2.52579
0.89992
1.62588
-0.35749
0.674108
-0.316618
1.20426