/*--------------------------------*- C++ -*----------------------------------*\
  =========                 |
  \\      /  F ield         | OpenFOAM: The Open Source CFD Toolbox
   \\    /   O peration     | Website:  https://openfoam.org
    \\  /    A nd           | Version:  10
     \\/     M anipulation  |
\*---------------------------------------------------------------------------*/
FoamFile
{
    format      ascii;
    class       volVectorField;
    location    "700";
    object      U;
}
// * * * * * * * * * * * * * * * * * * * * * * * * * * * * * * * * * * * * * //

dimensions      [0 1 -1 0 0 0 0];

internalField   nonuniform List<vector> 
10435
(
(1.64873 0.182715 -4.75812e-24)
(1.58322 0.452256 1.55912e-21)
(3.0104 -0.046922 -2.35006e-21)
(2.03235 -0.0630201 4.6258e-21)
(2.35291 0.086048 -4.23548e-21)
(2.9918 0.0791051 5.86484e-20)
(3.00576 -0.0580912 -5.96575e-21)
(2.9673 -0.10283 3.30716e-21)
(2.88913 -0.165296 1.86428e-20)
(3.03062 0.0211544 -1.66412e-20)
(1.7665 0.331501 6.41231e-23)
(2.45052 -0.27974 1.4953e-20)
(3.07186 -0.0313565 1.91382e-20)
(0.947526 0.4202 2.64527e-21)
(1.04962 0.448196 2.27633e-21)
(2.96232 -0.0922018 -4.46369e-22)
(0.847896 0.371257 -9.32147e-22)
(3.13241 -0.016341 1.00883e-19)
(2.85187 -0.205645 -8.19706e-21)
(1.73228 0.113184 -3.49226e-22)
(2.97222 -0.0943709 2.57825e-21)
(2.04107 -0.158698 -7.23134e-21)
(2.96574 -0.0760904 2.80233e-20)
(2.65379 -0.43297 -1.09219e-20)
(2.9867 -0.006409 1.41372e-20)
(0.213373 0.339269 3.49618e-22)
(0.0521123 0.0432481 1.08393e-21)
(3.03461 -0.0411999 7.34454e-21)
(0.239374 -0.0909744 -2.17779e-22)
(3.08943 0.0153377 1.1362e-19)
(2.87737 -0.0941049 1.68209e-20)
(1.86698 0.280037 -5.21826e-22)
(2.95286 -0.113173 -7.86751e-21)
(0.481658 -0.0900145 -1.5657e-21)
(2.88549 -0.194375 6.39348e-21)
(1.3265 0.635644 -1.67271e-21)
(2.88043 -0.181684 1.18718e-20)
(0.156237 0.216492 -4.39236e-21)
(0.348175 0.332569 1.08891e-22)
(2.79776 -0.293649 2.00651e-21)
(3.12356 0.0465774 -1.20659e-19)
(2.99883 -0.0573126 -6.23842e-21)
(0.626845 0.524884 5.32854e-21)
(1.86645 0.0684051 -5.2411e-21)
(2.88742 -0.151318 -2.4528e-20)
(2.72424 -0.380883 1.87836e-20)
(3.07109 0.062845 -8.00518e-20)
(0.446629 0.41332 1.98039e-20)
(2.89587 -0.135104 5.36283e-21)
(2.03349 -0.258186 -3.71372e-21)
(2.95876 -0.111088 -5.10103e-22)
(2.82006 -0.0291092 1.76665e-19)
(0.392309 0.346215 6.64728e-22)
(0.324655 -0.166955 -1.76683e-22)
(0.305163 0.337292 -1.9011e-22)
(0.189381 -0.114304 5.60806e-22)
(2.80875 -0.264114 -3.564e-20)
(0.163997 0.144835 -1.88857e-21)
(0.692999 0.143921 1.39678e-21)
(2.81484 -0.278104 2.35675e-20)
(0.348265 0.352979 -3.52772e-22)
(1.49448 0.516946 -2.6759e-21)
(0.184098 0.0482419 2.11704e-21)
(2.68365 -0.0399426 -1.29772e-20)
(2.93149 -0.104556 -4.25443e-20)
(3.00709 -0.036482 2.84953e-20)
(0.62277 0.0479456 -2.51586e-21)
(0.351277 0.179321 -7.37783e-21)
(2.9798 -0.0897837 -4.39025e-21)
(2.55877 -0.479649 9.55097e-22)
(0.277508 -0.186161 5.45503e-22)
(0.170685 0.299816 -2.04973e-22)
(0.70978 0.634882 -7.33421e-21)
(2.99119 -0.0438649 -3.29054e-20)
(1.15202 0.457482 7.06033e-22)
(0.782749 0.650235 1.12199e-22)
(2.46533 -0.495392 3.68623e-20)
(3.00394 -0.0636377 1.2915e-20)
(2.94759 -0.114066 1.07487e-21)
(1.20856 0.350529 -5.0166e-21)
(2.18026 -0.389726 3.963e-21)
(1.58757 0.157587 3.00928e-22)
(0.4352 0.360179 -6.57512e-22)
(0.366519 -0.15388 1.22326e-22)
(2.2566 -0.438026 -8.54489e-21)
(1.32164 0.587095 2.66889e-21)
(1.47536 0.434151 4.77013e-22)
(1.82272 0.1725 8.33854e-22)
(1.20598 0.56932 7.28753e-22)
(1.56313 0.372361 -5.61597e-22)
(1.90916 0.109573 -3.97854e-22)
(2.00666 0.0450061 -9.09954e-22)
(1.67 0.0890994 5.16863e-22)
(1.29297 0.540608 9.23011e-23)
(1.65032 0.306283 1.97456e-22)
(1.24498 0.68235 6.50235e-22)
(2.10359 -0.0253353 9.16636e-21)
(1.09603 0.54884 -1.07865e-21)
(0.79405 0.22551 9.64638e-22)
(2.21232 -0.0314726 -1.27834e-20)
(1.14897 0.561688 -1.87979e-22)
(2.49815 0.201752 -8.7542e-21)
(1.38324 0.492012 -2.44857e-22)
(1.73737 0.23838 2.33096e-22)
(2.64859 0.175226 5.10118e-22)
(1.94842 0.00259683 -3.82936e-22)
(1.74835 0.0178505 3.25106e-22)
(2.10791 -0.332244 4.98676e-21)
(2.34677 -0.46997 -1.35084e-20)
(1.30862 0.324631 1.0485e-21)
(1.96333 -0.190794 -1.59224e-21)
(2.34229 0.231896 -3.59956e-21)
(1.49982 0.220306 6.84317e-22)
(1.40669 0.279571 7.86015e-22)
(2.10438 0.0355894 -5.14336e-21)
(1.96527 -0.0919579 2.18762e-21)
(2.30544 -0.0911437 -8.25219e-21)
(1.40849 0.535108 6.32218e-22)
(1.75814 0.280133 -1.75868e-21)
(2.29028 -0.169005 -2.37221e-21)
(2.38932 -0.142098 -2.621e-20)
(0.792745 0.718278 1.21042e-21)
(1.49371 0.476405 -3.06061e-21)
(1.01303 0.799394 -4.01305e-21)
(1.89913 0.353538 1.78689e-22)
(0.285787 0.349058 -4.16304e-22)
(2.20514 -0.109659 1.44153e-20)
(0.865556 0.762265 -2.7794e-22)
(2.34153 -0.0139473 -1.70782e-20)
(0.0716628 0.231642 4.43628e-22)
(0.938962 0.788125 1.13554e-21)
(1.77851 0.395577 6.92919e-22)
(2.9563 -0.10927 -8.56979e-21)
(1.10749 0.352524 -4.6899e-21)
(0.153703 0.260036 -2.18965e-23)
(0.584244 0.42147 -3.04265e-23)
(1.15965 0.773734 4.83133e-21)
(2.11788 -0.134478 -4.76001e-22)
(1.66981 0.345248 5.8986e-22)
(1.88912 -0.0253185 1.53223e-21)
(1.81186 0.0435271 -1.18906e-22)
(2.89608 -0.110043 -5.6526e-20)
(0.55601 -0.0163444 -5.83557e-21)
(2.65357 -0.15429 9.40902e-20)
(2.11959 -0.22812 9.96089e-22)
(0.954221 0.648494 -3.7239e-21)
(1.08602 0.797619 -2.42461e-21)
(2.79989 0.0172834 -5.55471e-20)
(0.806596 0.469531 -4.31641e-21)
(2.61071 -0.227699 6.1381e-21)
(0.3819 0.397702 1.31895e-21)
(2.82803 -0.205184 2.13484e-20)
(1.61446 0.273185 1.69081e-23)
(2.69116 -0.195541 4.7692e-20)
(2.90703 0.0155424 -5.0907e-20)
(0.312415 0.368739 -1.14462e-21)
(2.03024 0.308619 4.2652e-21)
(1.58107 0.411717 1.10034e-21)
(2.98964 0.0205722 -5.18452e-20)
(1.57382 0.501788 -6.08694e-22)
(2.77276 -0.20357 -9.96699e-21)
(1.00721 0.330709 1.07213e-21)
(1.95328 0.155107 7.6547e-21)
(2.36437 -0.364704 8.67879e-21)
(1.25753 0.435479 -1.0772e-21)
(2.44121 -0.0832417 7.71157e-20)
(2.93012 -0.133922 -1.66855e-20)
(2.28573 -0.252384 -7.24753e-21)
(2.52479 -0.387097 1.66146e-20)
(2.5933 -0.0973292 -1.76274e-19)
(2.94246 -0.0148124 4.32836e-20)
(0.656129 0.580447 1.4177e-21)
(0.0421567 -0.0221595 -7.80252e-22)
(1.03113 0.649172 9.91333e-22)
(2.61141 -0.298669 -2.13481e-20)
(1.48339 0.564776 1.32362e-21)
(1.40894 0.57948 4.61213e-21)
(0.57828 0.357748 -2.72968e-21)
(1.89414 -0.123139 7.70453e-22)
(0.290677 -0.062637 2.16466e-22)
(1.67349 0.388835 -6.9854e-22)
(2.8944 0.100981 -9.18842e-21)
(2.53524 -0.250085 -5.32152e-20)
(0.333247 0.362039 -1.94469e-22)
(2.83677 -0.156266 7.23141e-21)
(0.560249 0.515894 -5.36038e-21)
(0.724465 0.644977 7.54103e-21)
(2.99617 -0.0688455 -1.03872e-20)
(2.47919 0.0652357 9.20706e-21)
(2.73273 -0.0982954 -8.76829e-20)
(2.43665 -0.201633 6.67408e-21)
(0.473897 0.375553 -6.38921e-22)
(0.0947363 0.265732 -5.37462e-22)
(1.23611 0.73491 -3.82945e-21)
(2.18096 0.26984 4.82142e-21)
(2.98903 -0.0786121 8.65147e-22)
(0.772277 0.564536 -1.08036e-20)
(1.23523 0.627845 -1.04471e-21)
(0.51024 0.399616 -1.80777e-20)
(2.92902 -0.126438 1.55492e-20)
(1.23217 0.501695 1.6606e-21)
(0.218548 0.263023 -1.75895e-21)
(3.04702 -0.0360256 -3.01875e-21)
(0.209344 0.21513 -2.03728e-21)
(3.02605 -0.0365961 -8.42514e-21)
(2.1058 0.0974308 5.92493e-22)
(1.84783 0.218125 3.63637e-21)
(2.20553 -0.202011 -4.52956e-21)
(0.258521 0.026298 1.64006e-21)
(2.1992 -0.290875 -4.32362e-21)
(0.438603 0.437495 2.66589e-21)
(2.98471 -0.0624732 -3.62124e-20)
(2.50932 -0.166283 8.93914e-20)
(2.45285 -0.354452 8.62789e-21)
(0.0860511 0.0226645 -4.29628e-22)
(0.903293 0.517469 9.61934e-21)
(1.36972 0.375115 -3.00478e-22)
(0.44434 0.410003 5.64208e-22)
(0.201816 0.33161 -7.39114e-22)
(0.906973 0.286094 -1.15794e-21)
(0.339958 -0.0922405 9.27939e-23)
(0.645218 0.302665 -5.61421e-21)
(0.464844 0.0238657 4.02889e-21)
(1.02674 0.713174 -4.77504e-22)
(0.248091 0.344289 -4.64656e-22)
(2.92875 -0.140602 -5.11151e-21)
(0.253999 0.331507 1.53595e-21)
(1.15372 0.647927 -1.43264e-21)
(2.82681 -0.0870919 1.17201e-19)
(0.864744 0.700206 3.67293e-21)
(0.499885 0.240807 2.14778e-20)
(2.93497 -0.136137 1.70122e-20)
(0.228838 0.333817 2.37074e-21)
(2.75593 -0.270401 2.3501e-20)
(0.0650067 0.153019 -2.50766e-21)
(0.740532 0.315063 9.89233e-21)
(2.72329 -0.341861 -2.84212e-20)
(0.21183 0.333144 5.5568e-22)
(2.63841 -0.393143 -1.87588e-21)
(2.91505 -0.0544365 6.97117e-22)
(1.78488 0.135899 1.4639e-21)
(0.294499 0.363042 -1.01656e-22)
(0.481974 0.439134 -8.3765e-23)
(0.238868 -0.135401 2.7709e-23)
(2.02416 0.127515 -1.47934e-20)
(2.9234 -0.132099 4.98425e-21)
(1.1649 0.715733 -5.29222e-21)
(2.99295 -0.0805703 2.83383e-21)
(0.108797 -0.102052 -6.09855e-22)
(1.39573 0.625655 -1.14466e-21)
(0.167801 -0.155078 -6.54163e-22)
(1.33678 0.456372 1.11361e-22)
(3.07334 -0.0204625 -3.68233e-20)
(2.27802 -0.338321 -7.46189e-21)
(3.00094 -0.0724222 -6.02004e-21)
(2.53064 -0.0229292 3.8563e-20)
(0.116044 -0.132899 2.28509e-21)
(3.00586 -0.0679645 9.36518e-21)
(0.388921 0.408236 -2.02543e-22)
(0.304264 0.309643 5.22773e-21)
(3.01004 -0.0634845 5.80402e-22)
(2.88835 -0.0301002 2.40498e-21)
(0.258315 0.350076 -1.41679e-22)
(2.43546 -0.452842 -2.23905e-20)
(1.46659 0.314318 -2.17328e-22)
(0.59992 0.197124 -1.07332e-20)
(1.70066 0.204905 1.33159e-22)
(2.93218 -0.0766713 3.08924e-20)
(0.418726 0.380733 1.99366e-22)
(2.213 0.0481768 2.43857e-21)
(3.0129 -0.0591173 -2.41143e-23)
(2.98748 -0.0889031 -1.09366e-21)
(2.99846 -0.0776106 -9.22259e-22)
(3.00113 -0.013331 -5.18548e-20)
(0.17371 0.328411 1.24308e-21)
(2.36433 -0.204517 -1.12553e-20)
(0.119276 0.218325 2.34327e-21)
(2.2066 0.14619 1.43286e-21)
(2.97923 -0.0797302 4.25492e-21)
(2.97659 -0.0961686 4.04274e-22)
(3.04011 -0.00277389 3.63402e-20)
(0.667035 0.475283 2.06481e-20)
(3.01863 -0.0545781 -4.58471e-22)
(1.09803 0.648792 -1.83097e-22)
(1.43002 0.401482 1.35149e-22)
(0.500653 0.412843 2.1015e-22)
(2.60146 0.0413916 6.96388e-21)
(0.285417 0.322234 1.32574e-22)
(0.411074 -0.140406 6.51223e-22)
(0.405956 -0.0838708 -3.69169e-22)
(1.08374 0.729489 3.79927e-21)
(1.66974 0.44699 -1.89976e-21)
(0.332443 -0.0121507 -9.66771e-22)
(2.99396 -0.0833711 2.20554e-21)
(0.330187 0.309388 -4.86638e-24)
(0.241283 -0.185752 -1.974e-21)
(0.875659 0.617923 8.9508e-22)
(1.56083 0.25013 8.79869e-24)
(2.07769 0.194321 -9.50437e-23)
(2.9523 -0.0438224 2.27411e-20)
(0.423516 0.283541 -3.6232e-20)
(2.56553 -0.414661 -6.36808e-21)
(3.02582 -0.0518826 -2.09721e-22)
(0.0775332 -0.070243 -8.15113e-22)
(1.96623 0.242489 -1.76025e-21)
(0.995702 0.54554 -4.42724e-21)
(0.708432 0.404107 -5.92617e-21)
(2.6805 -0.316326 -2.19678e-21)
(2.98389 -0.0362987 -3.29356e-22)
(0.454532 -0.131418 -2.90916e-22)
(1.82133 -0.0525609 6.7049e-22)
(0.217921 0.292671 -2.97183e-23)
(1.31397 0.683873 2.08293e-21)
(2.70128 0.035542 -2.20269e-20)
(2.89534 -0.175497 -3.34713e-21)
(0.205619 -0.172753 -4.66263e-22)
(0.355593 0.377134 2.02809e-22)
(2.76242 -0.144074 -9.90177e-20)
(0.432169 0.142918 -3.37311e-22)
(2.36697 -0.279945 9.2108e-21)
(2.78575 0.140036 -9.04393e-21)
(0.169726 -0.0111483 -1.99779e-21)
(1.52473 0.339333 -3.30569e-23)
(0.512814 0.392928 3.79114e-23)
(2.96281 -0.102576 -3.1752e-22)
(3.03885 -0.0273568 -1.13517e-20)
(0.148095 0.32206 5.31666e-22)
(3.0317 -0.049293 -4.11659e-23)
(0.521935 0.103044 -4.29362e-22)
(0.110925 0.151988 3.29242e-21)
(2.85896 -0.229784 -1.92719e-22)
(0.487717 -0.0536598 8.45728e-22)
(0.49261 -0.123677 -3.20274e-22)
(3.01491 -0.0511185 6.6509e-22)
(2.69221 -0.260571 2.10937e-20)
(0.230517 0.120482 5.3225e-21)
(0.194548 -0.161487 -8.19663e-22)
(0.120285 -0.123537 -4.42548e-22)
(0.540695 -0.101356 -1.63702e-22)
(0.0734112 -0.0484155 -1.48628e-22)
(0.124507 0.309309 -1.35232e-21)
(0.229724 0.328455 -9.56098e-22)
(0.387038 0.36424 1.36793e-22)
(0.034743 -0.0111034 8.61538e-22)
(0.0530459 -0.0412388 -1.1929e-21)
(0.302469 0.349559 9.54503e-22)
(0.299142 0.0944042 -1.36385e-21)
(0.0198742 0.113756 2.39342e-22)
(0.54726 0.407191 3.69338e-22)
(2.9428 -0.112499 -2.13059e-21)
(0.521479 -0.114315 -6.10043e-22)
(3.01765 -0.019889 1.55827e-21)
(0.0257917 0.0168362 -2.47996e-22)
(3.03836 -0.0462892 -1.6195e-22)
(2.95231 -0.107549 8.23724e-22)
(2.9015 -0.131296 -5.97198e-22)
(3.0799 -0.0360607 -7.29061e-22)
(2.96809 -0.0582479 -1.93619e-20)
(0.282349 -0.151166 -4.78769e-22)
(0.42818 -0.114932 1.45223e-21)
(0.151858 -0.140587 9.79081e-23)
(0.243105 0.340966 -8.77807e-22)
(0.113942 -0.0707167 -5.06404e-24)
(0.461559 0.397376 -2.66846e-22)
(0.121039 -0.0118426 9.89387e-22)
(0.105823 0.291095 -7.26677e-22)
(0.280702 0.207346 1.33909e-20)
(2.53568 -0.325548 -3.06899e-21)
(0.115382 0.291511 9.71924e-22)
(2.92124 -0.122197 2.29127e-21)
(0.269152 0.338289 -8.4888e-23)
(0.0891555 0.265514 1.04781e-21)
(3.10016 -0.0292274 -1.08055e-20)
(2.88893 -0.139909 -2.74235e-21)
(0.535753 0.436326 -1.22392e-21)
(0.0231067 0.0549945 -7.10176e-22)
(0.125548 0.0682113 -1.10764e-21)
(0.0381624 0.0867876 8.92067e-23)
(0.375984 -0.122471 -4.7227e-22)
(0.179636 0.331461 7.8557e-24)
(0.0167861 0.0908116 9.07665e-22)
(0.310629 0.344318 3.50517e-22)
(2.96135 -0.104371 -7.03854e-22)
(0.374498 0.0593535 1.96086e-21)
(2.98584 -0.088585 2.85754e-22)
(2.93668 -0.115199 2.50334e-21)
(3.04872 -0.042594 -8.44563e-23)
(3.06362 -0.0384395 1.4341e-20)
(2.9193 -0.121975 -1.26284e-21)
(3.02926 -0.0456303 -1.87575e-21)
(2.90136 -0.177755 -3.84056e-21)
(0.944249 0.728949 -2.70488e-23)
(0.541935 0.500207 3.07152e-21)
(0.284862 -0.116786 -7.59453e-22)
(0.233399 -0.170266 3.73874e-22)
(3.02336 -0.0486358 2.0452e-21)
(0.325865 -0.137918 1.36586e-21)
(3.0964 -0.0342629 -4.61464e-20)
(0.0221828 0.115064 -1.42287e-22)
(0.226598 -0.0333509 1.61029e-22)
(0.0669277 0.229831 -1.94115e-22)
(0.410154 -0.0325831 3.41121e-22)
(0.38115 0.396009 -8.37277e-22)
(2.99035 -0.0683411 2.37144e-20)
(0.0837624 0.0898645 4.56796e-22)
(2.97493 -0.0969353 9.79312e-23)
(2.60356 -0.352644 -6.74469e-21)
(0.525643 0.470019 2.4717e-22)
(0.15173 0.32075 -9.35735e-23)
(0.0576505 0.153928 3.68068e-22)
(2.87033 -0.158578 6.36384e-21)
(0.0661665 0.197059 -1.00857e-21)
(0.131097 0.307869 4.72331e-23)
(0.312208 0.369312 1.38223e-21)
(0.153477 -0.0907377 -1.30162e-22)
(0.351016 0.301857 -4.79034e-21)
(0.155919 -0.0462691 -6.12902e-23)
(3.02218 -0.0439395 1.55184e-20)
(0.226133 -0.189604 -5.56523e-23)
(0.176851 0.314294 -5.09713e-22)
(0.19562 -0.0637559 3.11208e-22)
(0.575881 -0.0643147 2.86179e-21)
(3.13802 -0.0424246 -4.40074e-20)
(0.620398 0.495946 -1.41417e-21)
(0.599578 0.443797 2.62933e-21)
(2.88771 -0.15431 -8.53518e-21)
(0.476071 -0.11026 3.08232e-22)
(0.477569 -0.406156 1.03095e-21)
(0.503713 -0.405753 -9.33062e-23)
(0.559275 -0.413784 -5.46612e-22)
(0.596703 -0.420826 2.88805e-22)
(0.634512 -0.424146 -3.10384e-22)
(0.66533 -0.425109 -8.64077e-22)
(0.695158 -0.424312 1.63524e-22)
(0.722478 -0.422684 2.30122e-22)
(0.751306 -0.419084 2.33623e-22)
(0.510076 -0.398989 -7.4938e-22)
(0.536202 -0.39713 -8.16733e-23)
(0.58887 -0.403952 4.42429e-22)
(0.626652 -0.411212 -7.65277e-22)
(0.662929 -0.415165 6.50018e-22)
(0.693638 -0.417382 1.0178e-21)
(0.722821 -0.41784 -6.23721e-22)
(0.749758 -0.417554 6.60952e-22)
(0.775718 -0.415843 -3.24855e-22)
(0.543443 -0.383717 1.89313e-21)
(0.568503 -0.382152 4.35285e-22)
(0.618487 -0.389016 -8.62257e-22)
(0.65599 -0.396482 4.06967e-22)
(0.691241 -0.401155 -9.74276e-22)
(0.721649 -0.404382 -1.25333e-22)
(0.750109 -0.406042 -2.75556e-23)
(0.776407 -0.406985 -3.1819e-22)
(0.801114 -0.407162 -4.84595e-22)
(0.576318 -0.362389 -8.26333e-22)
(0.599545 -0.361849 1.88968e-22)
(0.647129 -0.369268 5.94229e-22)
(0.684082 -0.377205 2.93115e-23)
(0.718447 -0.38269 4.04153e-22)
(0.748571 -0.386859 1.08332e-21)
(0.776528 -0.389576 -6.47746e-22)
(0.802347 -0.391499 1.05374e-22)
(0.826663 -0.39276 2.04341e-22)
(0.60747 -0.336985 1.39641e-22)
(0.628044 -0.337159 -1.24536e-22)
(0.673571 -0.3454 2.33964e-23)
(0.710041 -0.353943 -1.84026e-22)
(0.74378 -0.36033 1.00767e-22)
(0.773718 -0.365377 -2.39242e-22)
(0.801389 -0.369022 8.01508e-23)
(0.826997 -0.371783 3.6647e-22)
(0.851308 -0.373629 7.5411e-23)
(0.635586 -0.309133 1.07477e-22)
(0.653168 -0.309214 -2.58681e-22)
(0.696978 -0.318405 5.91016e-23)
(0.733196 -0.327401 3.89359e-22)
(0.766582 -0.334661 -1.23416e-22)
(0.796474 -0.340524 -1.71813e-22)
(0.824038 -0.345052 -7.04418e-23)
(0.849601 -0.348644 -5.54388e-22)
(0.873782 -0.351495 2.64178e-22)
(0.658787 -0.280684 6.66201e-23)
(0.674635 -0.279169 1.84591e-22)
(0.717001 -0.289233 5.33994e-23)
(0.753197 -0.298253 -1.71051e-22)
(0.786432 -0.306222 3.5379e-23)
(0.816393 -0.312775 -3.60824e-24)
(0.843975 -0.318092 1.35369e-22)
(0.869561 -0.322449 -1.29466e-22)
(0.893733 -0.326175 -1.01346e-22)
(0.675909 -0.250786 -7.4994e-23)
(0.692887 -0.247339 1.02058e-22)
(0.733818 -0.258179 -1.29369e-24)
(0.769958 -0.266883 9.3128e-25)
(0.80309 -0.275392 -4.5577e-23)
(0.83318 -0.282503 1.70089e-22)
(0.860876 -0.288495 2.04412e-22)
(0.886563 -0.293572 -2.15669e-22)
(0.910884 -0.297583 6.86198e-23)
(0.68775 -0.216623 4.79393e-23)
(0.708223 -0.212856 -7.74725e-24)
(0.74748 -0.224795 -2.02034e-23)
(0.783342 -0.233334 -1.92751e-23)
(0.816344 -0.242374 -1.49431e-23)
(0.846604 -0.249961 -1.04181e-23)
(0.874504 -0.256511 -6.36808e-24)
(0.900425 -0.262069 1.95047e-22)
(0.924791 -0.266888 -1.23878e-23)
(0.695307 -0.177926 -6.83618e-23)
(0.719982 -0.175308 -3.55525e-23)
(0.757425 -0.188859 1.54054e-23)
(0.792949 -0.197719 3.53467e-23)
(0.825918 -0.20738 -1.35643e-23)
(0.856466 -0.215381 2.29413e-23)
(0.884722 -0.222328 1.12899e-23)
(0.911019 -0.228159 5.85988e-23)
(0.935745 -0.233022 -2.06706e-23)
(0.698495 -0.135937 1.26892e-22)
(0.727065 -0.13532 4.33954e-23)
(0.762816 -0.150962 -4.43887e-23)
(0.798291 -0.160527 -7.67882e-24)
(0.831532 -0.17079 -4.12538e-24)
(0.862601 -0.179079 1.1943e-23)
(0.891444 -0.18624 -6.46468e-24)
(0.918389 -0.192129 -3.82106e-23)
(0.94376 -0.19702 -2.28559e-23)
(0.697991 -0.0928346 -2.38145e-22)
(0.728775 -0.0949605 -5.12922e-23)
(0.763103 -0.112653 7.71552e-23)
(0.799133 -0.12268 -1.36026e-23)
(0.833077 -0.133151 1.91745e-24)
(0.864925 -0.141407 -1.57449e-23)
(0.894544 -0.1485 4.43799e-24)
(0.922265 -0.15421 4.04577e-25)
(0.948491 -0.159531 -9.1382e-24)
(0.692634 -0.0520127 -5.29292e-23)
(0.723859 -0.0573473 1.65267e-23)
(0.758713 -0.075426 1.30063e-24)
(0.795859 -0.0850366 -9.74624e-24)
(0.830788 -0.094903 7.47749e-24)
(0.863549 -0.10258 6.45734e-24)
(0.894025 -0.109134 7.82131e-24)
(0.922554 -0.114442 -6.47619e-24)
(0.949859 -0.118996 5.90329e-24)
(0.678658 -0.014605 6.68403e-23)
(0.714119 -0.021806 -5.78807e-24)
(0.750856 -0.0390113 4.97436e-24)
(0.789195 -0.0474639 -1.3516e-23)
(0.825086 -0.0559923 2.33e-24)
(0.858718 -0.062547 1.38765e-24)
(0.890028 -0.0680704 6.11007e-24)
(0.919382 -0.0724852 -1.3635e-24)
(0.947356 -0.075671 -1.01212e-24)
(0.657792 0.022102 -2.00551e-22)
(0.700118 0.0137513 4.91219e-23)
(0.739806 -0.00202823 -3.59119e-23)
(0.7794 -0.00912054 4.2928e-23)
(0.816148 -0.0159441 -5.3157e-24)
(0.850535 -0.0210527 -1.34609e-23)
(0.882611 -0.0252196 -7.09909e-24)
(0.912795 -0.028337 -6.30173e-24)
(0.941581 -0.0303062 -2.99519e-24)
(0.630753 0.0595303 -1.57204e-22)
(0.681652 0.0504759 -7.13581e-23)
(0.725152 0.0368342 4.67621e-23)
(0.766176 0.0309387 -5.32173e-23)
(0.803748 0.0258183 -1.9208e-23)
(0.838807 0.022211 1.11475e-23)
(0.871562 0.0195307 1.28394e-24)
(0.902446 0.0178952 -1.54525e-23)
(0.931793 0.0171088 1.08155e-23)
(0.59852 0.0997614 -3.31894e-22)
(0.658036 0.0897319 6.43254e-23)
(0.706019 0.0785253 -2.03497e-23)
(0.748741 0.0733242 3.08887e-23)
(0.787276 0.0695779 3.13552e-23)
(0.823068 0.0673086 -1.2888e-22)
(0.856523 0.0660906 7.25694e-23)
(0.888098 0.0660596 5.55111e-24)
(0.918395 0.0664346 -8.76205e-24)
(0.566241 0.141293 5.90139e-22)
(0.628068 0.131205 -1.06995e-22)
(0.681075 0.122338 3.72955e-23)
(0.726046 0.117527 -6.32918e-23)
(0.765964 0.114819 -8.79224e-24)
(0.80276 0.113726 1.25223e-22)
(0.837079 0.113928 -1.44221e-23)
(0.869415 0.115438 3.10662e-23)
(0.900439 0.117712 2.02681e-24)
(0.537176 0.179373 1.34005e-22)
(0.594564 0.170616 3.99311e-23)
(0.650574 0.165187 8.99408e-23)
(0.697877 0.161432 2.06478e-22)
(0.73951 0.159995 -4.55551e-23)
(0.777593 0.160207 -7.36544e-23)
(0.812969 0.161879 -6.80989e-23)
(0.846234 0.164866 -6.39892e-23)
(0.878065 0.168913 -1.27594e-24)
(0.509684 0.21209 -1.11328e-22)
(0.559794 0.205342 2.09328e-24)
(0.616485 0.204242 -2.62221e-22)
(0.665294 0.202789 2.78909e-23)
(0.70846 0.20331 -1.05837e-22)
(0.747823 0.205289 7.37305e-23)
(0.784277 0.208738 3.57128e-22)
(0.818428 0.213504 4.43448e-23)
(0.850912 0.219365 3.27812e-23)
(0.482637 0.240511 -2.45181e-22)
(0.524971 0.235487 6.87429e-22)
(0.580712 0.238455 -3.57808e-22)
(0.62978 0.240221 2.78658e-22)
(0.673879 0.243324 -2.0083e-22)
(0.714218 0.247562 5.03781e-23)
(0.751621 0.253103 -1.49617e-22)
(0.786699 0.259796 -9.56081e-23)
(0.819887 0.268028 3.50648e-23)
(0.455509 0.264776 -7.29399e-22)
(0.490181 0.261333 -5.32713e-22)
(0.544399 0.267536 9.50396e-22)
(0.592584 0.273065 -6.75686e-23)
(0.636838 0.279125 5.92694e-22)
(0.677618 0.285979 -1.58385e-22)
(0.715635 0.293845 -4.7779e-23)
(0.751595 0.302554 7.65506e-23)
(0.784963 0.313933 -2.49679e-23)
(0.428341 0.282703 2.19595e-22)
(0.45581 0.282975 3.43241e-22)
(0.508529 0.291755 -5.96937e-22)
(0.554867 0.301376 -5.26923e-22)
(0.598464 0.31046 -4.45736e-22)
(0.639037 0.320018 2.00374e-23)
(0.677178 0.330184 1.39014e-22)
(0.71373 0.34102 -2.91564e-22)
(0.74744 0.354944 6.3026e-22)
(0.40011 0.293882 -2.23628e-22)
(0.421848 0.300677 -2.59771e-23)
(0.472609 0.311443 2.08124e-22)
(0.516286 0.324875 -3.6061e-22)
(0.55849 0.336673 5.57355e-22)
(0.598338 0.348888 9.26665e-23)
(0.636235 0.361278 -5.50271e-22)
(0.673545 0.374323 5.49395e-22)
(0.707963 0.393063 -3.40224e-23)
(0.369171 0.302179 -6.46706e-22)
(0.390062 0.318523 -1.90075e-23)
(0.438945 0.332061 -3.04486e-23)
(0.480311 0.347458 3.79544e-22)
(0.520755 0.360792 -1.33566e-22)
(0.558967 0.3745 4.31559e-22)
(0.59569 0.387754 -1.77897e-22)
(0.634383 0.400784 2.64414e-22)
(0.671499 0.421619 1.49845e-22)
(0.391471 0.371819 -2.64105e-22)
(0.385345 0.370432 -3.06741e-22)
(0.379116 0.367743 -8.57017e-22)
(0.372311 0.364261 1.19474e-21)
(0.364668 0.359719 -8.94333e-22)
(0.356037 0.354109 6.6661e-22)
(0.346324 0.347307 2.71743e-22)
(0.335467 0.339143 -4.9829e-23)
(0.323373 0.329496 -4.86394e-22)
(0.309907 0.318375 -2.40117e-22)
(0.294991 0.305811 2.44498e-22)
(0.278647 0.29182 -3.09563e-22)
(0.260994 0.276462 8.13641e-22)
(0.242253 0.259794 -2.09245e-21)
(0.222711 0.241804 3.701e-21)
(0.202694 0.22253 -4.25048e-21)
(0.182552 0.202041 3.86858e-21)
(0.162626 0.180437 -1.7213e-21)
(0.143225 0.157882 -5.71164e-22)
(0.124595 0.134609 6.09872e-22)
(0.106854 0.110934 -2.12674e-22)
(0.0898298 0.0871566 4.53387e-22)
(0.0732578 0.0640809 4.14398e-23)
(0.0577158 0.0419937 -6.35839e-22)
(0.0458046 0.0198218 4.99941e-22)
(0.039339 -0.00296544 -2.7207e-22)
(0.0380933 -0.0266839 3.35454e-22)
(0.0418216 -0.0516039 2.69092e-22)
(0.0473883 -0.0778884 -3.1669e-22)
(0.0527929 -0.105042 8.5359e-24)
(0.0589201 -0.132305 -2.88753e-22)
(0.0664387 -0.159242 2.55073e-22)
(0.0756432 -0.185616 4.85579e-22)
(0.0864805 -0.211166 -3.80783e-22)
(0.0987674 -0.235548 5.41973e-22)
(0.112286 -0.258571 -9.00652e-22)
(0.126744 -0.280038 6.22354e-23)
(0.141818 -0.299797 1.96425e-22)
(0.15718 -0.317739 -2.88391e-22)
(0.172536 -0.333779 6.46411e-22)
(0.187658 -0.347942 -3.65927e-22)
(0.202293 -0.360216 -1.6081e-21)
(0.217108 -0.370358 3.23117e-21)
(0.232902 -0.378307 -3.47828e-21)
(0.249682 -0.38437 3.02406e-21)
(0.2673 -0.388912 -1.77751e-21)
(0.285524 -0.392261 9.28855e-22)
(0.3041 -0.3947 -3.08811e-22)
(0.322685 -0.396458 3.15286e-22)
(0.3409 -0.397738 -3.11496e-22)
(0.358399 -0.39872 -4.72233e-22)
(0.374911 -0.399536 -1.63512e-22)
(0.390272 -0.400282 2.19819e-22)
(0.404394 -0.401018 6.0526e-22)
(0.41725 -0.401766 -8.9854e-22)
(0.428862 -0.402528 1.16781e-21)
(0.439255 -0.4033 -7.79551e-22)
(0.448486 -0.404064 -2.86877e-22)
(0.456695 -0.404855 -2.17349e-22)
(0.400345 0.317927 -2.51486e-23)
(0.393605 0.313713 -2.96398e-23)
(0.386717 0.308866 1.71594e-23)
(0.379504 0.303342 -1.09743e-22)
(0.371867 0.297201 -1.02117e-22)
(0.363751 0.290437 4.12062e-22)
(0.355125 0.283012 -6.88353e-23)
(0.345914 0.274941 1.28031e-22)
(0.335936 0.266366 -4.62828e-22)
(0.324987 0.257409 -1.56284e-23)
(0.312915 0.248099 2.14459e-22)
(0.299617 0.238432 1.84294e-22)
(0.285099 0.228339 -5.92335e-22)
(0.269559 0.217519 7.23579e-22)
(0.253231 0.205714 -7.61207e-22)
(0.236268 0.192845 3.18854e-22)
(0.218837 0.178789 4.89808e-22)
(0.201159 0.163466 -2.6372e-22)
(0.183468 0.146832 -4.21699e-23)
(0.165995 0.128869 4.41139e-23)
(0.148964 0.109573 7.44757e-24)
(0.132618 0.088881 8.73915e-23)
(0.117468 0.0665752 -1.71681e-23)
(0.104472 0.0421092 -5.68204e-23)
(0.0945156 0.0155915 1.49691e-22)
(0.0877316 -0.0123573 -5.05191e-23)
(0.0842637 -0.0409523 7.17079e-25)
(0.084237 -0.0693807 1.69177e-23)
(0.0872385 -0.0970778 2.27941e-23)
(0.0921127 -0.12411 2.01934e-25)
(0.0984801 -0.150657 -2.06418e-23)
(0.106446 -0.176644 -1.54061e-23)
(0.116112 -0.201835 -7.24304e-26)
(0.127327 -0.226019 5.55444e-23)
(0.139888 -0.249005 -1.35659e-22)
(0.153592 -0.270651 4.79257e-23)
(0.16822 -0.290857 -9.29336e-23)
(0.183559 -0.30958 8.78538e-23)
(0.199429 -0.326821 3.65871e-25)
(0.215711 -0.342612 -2.18071e-23)
(0.232368 -0.356997 -4.96697e-23)
(0.249493 -0.370019 -1.5668e-24)
(0.267266 -0.381604 -9.876e-23)
(0.285718 -0.39157 -1.00574e-22)
(0.304687 -0.399773 1.41337e-22)
(0.323912 -0.406157 -1.22596e-22)
(0.342939 -0.41088 4.64776e-23)
(0.361188 -0.414235 2.46085e-23)
(0.37829 -0.41645 -5.42641e-23)
(0.394049 -0.417743 2.23605e-23)
(0.408392 -0.418285 7.56198e-23)
(0.421478 -0.418154 -1.83793e-23)
(0.433435 -0.417464 2.77861e-23)
(0.444348 -0.41636 -9.72868e-23)
(0.454334 -0.414988 1.81524e-23)
(0.463374 -0.413513 3.74981e-23)
(0.471497 -0.412048 -4.86671e-23)
(0.478854 -0.410623 8.19416e-24)
(0.4856 -0.409291 -1.73937e-23)
(0.461707 0.290751 -2.13438e-22)
(0.455397 0.286008 5.01377e-23)
(0.448788 0.280691 -1.65909e-22)
(0.441875 0.274883 -3.15284e-23)
(0.434575 0.268579 5.63117e-22)
(0.426827 0.261814 -1.71605e-22)
(0.418559 0.254637 -3.43894e-22)
(0.409676 0.24712 7.8125e-25)
(0.400076 0.239324 2.06249e-22)
(0.389663 0.231253 -5.09571e-23)
(0.378366 0.222865 5.73418e-22)
(0.366145 0.214063 -7.03362e-22)
(0.353021 0.204682 6.42167e-22)
(0.339047 0.194541 -8.96012e-23)
(0.324261 0.183566 -6.07437e-22)
(0.308723 0.171654 1.95449e-22)
(0.292558 0.158687 7.55991e-22)
(0.275938 0.144545 -2.77565e-22)
(0.259084 0.129107 -7.69286e-23)
(0.242256 0.112257 2.34373e-23)
(0.225758 0.0938768 -1.99374e-22)
(0.20996 0.0738383 4.16007e-23)
(0.195346 0.0520211 -5.58183e-22)
(0.182533 0.0284083 6.71379e-22)
(0.172215 0.00321392 -2.55006e-22)
(0.164914 -0.02318 1.13456e-23)
(0.160842 -0.0503242 3.78273e-23)
(0.159945 -0.077701 -1.58436e-22)
(0.161812 -0.104793 1.02846e-22)
(0.165899 -0.131324 5.2525e-23)
(0.171855 -0.157223 1.16264e-22)
(0.179496 -0.182404 -1.23989e-22)
(0.188703 -0.206725 5.15583e-23)
(0.199337 -0.230029 6.53554e-23)
(0.211239 -0.252186 -2.4927e-22)
(0.224243 -0.273094 6.78227e-22)
(0.238183 -0.29268 -4.40866e-22)
(0.252906 -0.310902 -8.90112e-23)
(0.268293 -0.327742 -1.20366e-22)
(0.284263 -0.343191 -4.09189e-23)
(0.300773 -0.357236 -1.80902e-22)
(0.317802 -0.369844 -3.31735e-22)
(0.335328 -0.38094 7.46874e-22)
(0.353236 -0.39044 3.65771e-22)
(0.371298 -0.398312 -7.34918e-22)
(0.389197 -0.404596 -2.591e-22)
(0.406607 -0.409426 7.81092e-22)
(0.423196 -0.413025 -9.26145e-22)
(0.43877 -0.415637 6.39213e-22)
(0.453275 -0.417474 -1.55178e-23)
(0.466626 -0.418773 2.88996e-22)
(0.47889 -0.419613 7.42186e-23)
(0.490297 -0.419945 -4.32302e-22)
(0.500865 -0.419862 -2.27415e-22)
(0.510531 -0.419508 6.88695e-22)
(0.51934 -0.418973 1.43802e-25)
(0.527387 -0.418305 -1.85611e-22)
(0.534775 -0.417556 6.46466e-23)
(0.541579 -0.416741 -2.21545e-22)
(0.505214 0.27367 7.63702e-24)
(0.498962 0.269535 4.46272e-23)
(0.49239 0.264952 -1.11821e-23)
(0.485427 0.259914 -4.00742e-24)
(0.478007 0.25443 1.16335e-23)
(0.470074 0.248528 1.71577e-23)
(0.461569 0.242232 1.23197e-23)
(0.452431 0.235561 5.16553e-23)
(0.442598 0.228513 -3.63022e-23)
(0.432013 0.22107 -2.71107e-23)
(0.420634 0.213186 -3.83224e-23)
(0.408438 0.204791 3.21239e-23)
(0.39543 0.195798 -3.23526e-23)
(0.381641 0.186113 -2.43652e-23)
(0.36713 0.175628 -1.16515e-23)
(0.351983 0.164215 -1.51904e-23)
(0.336326 0.151733 2.76955e-23)
(0.320328 0.138033 -2.63567e-23)
(0.304203 0.122966 -7.75782e-23)
(0.288212 0.106396 1.92247e-23)
(0.272668 0.0881992 -6.25111e-24)
(0.257937 0.0682844 -1.80428e-22)
(0.244445 0.0466102 9.39285e-23)
(0.232657 0.0232269 1.34609e-22)
(0.22302 -0.00167519 -1.00023e-22)
(0.21587 -0.0277701 1.25909e-23)
(0.2114 -0.0546489 1.14928e-22)
(0.209654 -0.0818695 -1.30442e-22)
(0.210501 -0.109023 4.20909e-23)
(0.21369 -0.135808 -1.14065e-23)
(0.218982 -0.162026 5.29631e-23)
(0.226179 -0.187517 -1.19861e-22)
(0.235108 -0.212131 8.62972e-23)
(0.245598 -0.235729 -4.85957e-24)
(0.257475 -0.258189 -9.64447e-23)
(0.270572 -0.27941 2.17229e-23)
(0.284725 -0.299314 1.04658e-22)
(0.299781 -0.317837 -1.9353e-23)
(0.315605 -0.334931 -5.00076e-23)
(0.332074 -0.350556 8.23736e-23)
(0.349068 -0.364674 -3.64637e-24)
(0.366459 -0.377245 -2.69294e-23)
(0.384091 -0.388232 1.70241e-22)
(0.401762 -0.397617 -1.62227e-22)
(0.419235 -0.405427 7.32219e-23)
(0.436263 -0.411743 2.6107e-24)
(0.452615 -0.416699 2.50458e-22)
(0.46812 -0.420465 -2.21534e-22)
(0.482689 -0.42322 1.15431e-22)
(0.496298 -0.42511 1.0876e-22)
(0.508895 -0.426354 1.4266e-22)
(0.520454 -0.427125 -1.30714e-22)
(0.53104 -0.427507 -2.63463e-23)
(0.540729 -0.427552 -4.9853e-23)
(0.549632 -0.427297 -8.88902e-23)
(0.557841 -0.426795 6.06425e-23)
(0.565421 -0.426085 -1.20201e-22)
(0.572463 -0.425193 2.41684e-22)
(0.57905 -0.42417 -6.54953e-23)
(0.56301 0.263808 -2.54968e-22)
(0.557192 0.259421 3.4589e-23)
(0.550919 0.25463 2.23276e-22)
(0.544151 0.24948 -1.55528e-22)
(0.536806 0.243964 3.73618e-23)
(0.528824 0.238104 1.41966e-22)
(0.520152 0.231911 -1.61703e-22)
(0.510744 0.225387 6.75625e-23)
(0.500562 0.21852 2.21647e-22)