/*--------------------------------*- C++ -*----------------------------------*\
  =========                 |
  \\      /  F ield         | OpenFOAM: The Open Source CFD Toolbox
   \\    /   O peration     | Website:  https://openfoam.org
    \\  /    A nd           | Version:  10
     \\/     M anipulation  |
\*---------------------------------------------------------------------------*/
FoamFile
{
    format      ascii;
    class       volScalarField;
    location    "1850";
    object      epsilon;
}
// * * * * * * * * * * * * * * * * * * * * * * * * * * * * * * * * * * * * * //

dimensions      [0 2 -3 0 0 0 0];

internalField   nonuniform List<scalar> 
10435
(
0.91844
1.3285
0.897019
0.995653
1.13161
1.27805
0.810237
0.6307
0.575377
1.19552
1.29878
0.85549
1.20773
0.407611
0.492518
0.71035
0.33272
1.3699
0.547789
0.947736
0.66971
0.955612
0.765392
0.65808
1.05581
0.0496686
0.0819722
1.04491
0.0769229
1.291
0.85445
1.27192
0.608249
0.0831883
0.652346
1.20408
0.689987
0.0890428
0.0335182
0.580792
1.39252
0.811798
0.186755
1.01642
0.732422
0.61795
1.31461
0.126048
0.556338
0.91051
0.645928
1.01246
0.032615
0.0613933
0.0371654
0.0685866
0.686922
0.0964233
0.191732
0.641813
0.0367746
1.32067
0.0955624
1.01007
0.745958
0.95212
0.142626
0.13418
0.655241
0.694158
0.0597271
0.0678157
0.131994
0.878935
0.579605
0.274042
0.737752
0.765662
0.588033
0.542664
0.86817
0.813635
0.031865
0.063457
0.837373
0.990452
0.986278
1.09027
0.749078
1.04186
1.08349
1.06828
0.858242
0.831666
1.07603
1.09465
1.01748
0.591062
0.249185
1.02763
0.65708
1.26757
0.914135
1.09089
1.26682
1.01226
0.889643
0.89367
0.794393
0.620777
0.917555
1.27452
0.757965
0.692857
1.08118
0.967486
0.979868
1.08045
1.19643
0.935114
0.935062
0.279718
1.14695
0.813291
1.34829
0.0434514
0.972381
0.413152
1.04488
0.0792815
0.610306
1.37944
0.673443
0.462331
0.0766181
0.0322815
1.21677
0.966657
1.19988
0.970326
0.965118
0.794546
0.115293
0.881468
0.935633
0.499879
1.04543
1.10801
0.332991
0.826621
0.0938154
0.726771
0.970447
0.827677
1.10508
0.0672305
1.31848
1.18621
1.15118
1.44631
0.783446
0.384285
1.15342
0.853493
0.668881
0.975056
0.606795
0.904416
0.790208
0.942666
1.02617
0.0788082
0.074452
0.584927
0.795309
1.46352
1.27927
0.20662
0.919468
0.0876574
1.31997
1.25348
0.846632
0.0408347
0.772786
0.125231
0.199932
0.728621
1.13285
0.928188
0.890919
0.0317131
0.0744697
1.34387
1.29104
0.686467
0.305765
0.883714
0.169239
0.698737
0.704888
0.0919278
1.11915
0.0991757
1.02119
1.13152
1.1843
0.935199
0.101352
0.910447
0.0778629
0.806004
0.894078
0.831595
0.0819162
0.411382
0.746863
0.0435754
0.0504478
0.313184
0.0809448
0.232946
0.124547
0.625252
0.0582461
0.662038
0.0412154
0.762165
0.894644
0.383785
0.177642
0.631382
0.0455065
0.735966
0.085955
0.268334
0.696736
0.0566227
0.726347
0.921518
1.015
0.0504124
0.049895
0.0671494
1.15284
0.58422
0.953334
0.66286
0.0582907
1.46335
0.057523
0.787956
1.2303
0.883
0.697753
1.04281
0.0518712
0.731329
0.0616063
0.0989024
0.767759
0.98079
0.0492671
0.792558
0.816461
0.195503
0.999717
0.814491
0.0374292
1.08966
0.810377
0.620425
0.663959
1.02503
0.0557696
0.902526
0.082364
1.17908
0.705767
0.602125
1.17906
0.240018
0.866689
0.652968
0.861672
0.0376188
1.11497
0.0372993
0.0654969
0.0854312
0.786339
1.41364
0.102965
0.639655
0.0342183
0.0582588
0.394948
0.874465
1.21572
0.920847
0.152147
0.753566
0.924509
0.0637994
1.24635
0.50156
0.273402
0.751135
0.930901
0.0669425
0.910927
0.0793361
1.42393
1.12297
0.601288
0.059719
0.0440176
0.844392
0.149004
0.876581
1.27228
0.0862953
0.92386
0.0317225
0.586264
1.10882
0.0613779
0.982507
0.154568
0.0892676
0.60711
0.0967455
0.067622
0.877279
0.783114
0.106369
0.0618008
0.0600403
0.0753797
0.0720146
0.0660616
0.067371
0.036267
0.0740953
0.070816
0.0812116
0.116755
0.0867572
0.031925
0.574676
0.0698342
1.05524
0.079289
1.0437
0.573031
0.543427
1.22056
0.83605
0.0645775
0.0742503
0.0611501
0.0445424
0.0700787
0.037228
0.0804674
0.0702943
0.115259
0.814078
0.0688413
0.567045
0.0406706
0.0749124
1.27705
0.52951
0.0400524
0.0808749
0.0901191
0.0843569
0.0720701
0.0551545
0.0939867
0.0389332
0.597651
0.123915
0.638438
0.563113
1.1056
1.16713
0.554251
0.985102
0.623874
0.524618
0.0854066
0.0732505
0.0615087
0.934085
0.0683962
1.27803
0.0902341
0.0886277
0.0780178
0.101808
0.0498015
0.762326
0.0867135
0.616424
0.769188
0.0601443
0.0600046
0.084968
0.5372
0.0847629
0.0642708
0.0561471
0.0695573
0.121962
0.0783093
0.961486
0.059819
0.0617717
0.0784776
0.0912106
1.38974
0.0472312
0.0357504
0.511247
0.0738914
0.000512216
0.000499403
0.000474805
0.000442248
0.000404468
0.000362621
0.000318032
0.00027188
0.000225493
0.000575641
0.000556412
0.000526353
0.000489158
0.000447071
0.000401744
0.000354456
0.000306706
0.000260316
0.000651178
0.000626166
0.000590443
0.000547992
0.000501325
0.000452137
0.00040181
0.000351853
0.00030398
0.000744977
0.000714036
0.000671777
0.000623312
0.000571417
0.000517775
0.000463758
0.000410707
0.000360017
0.000864347
0.000826595
0.000776459
0.00072087
0.000662763
0.000603797
0.000545204
0.000487997
0.000432957
0.00101817
0.00097203
0.000912178
0.000847933
0.000782265
0.00071682
0.000652599
0.000590254
0.000530036
0.0012175
0.00116059
0.00108847
0.00101349
0.000938493
0.0008651
0.000794044
0.00072571
0.000660165
0.00147654
0.00140447
0.00131661
0.00122824
0.0011417
0.00105851
0.000979099
0.000903673
0.000832364
0.0018114
0.0017165
0.00160904
0.00150425
0.0014036
0.00130836
0.00121861
0.00113422
0.00105507
0.00223241
0.0021084
0.00197876
0.00185464
0.00173702
0.00162703
0.0015245
0.00142882
0.00133885
0.00274061
0.00259143
0.00243974
0.00229355
0.00215566
0.00202766
0.00190942
0.00179998
0.00169742
0.00333205
0.00318106
0.00300855
0.00283667
0.0026741
0.0025239
0.00238648
0.00226072
0.00214489
0.00405795
0.00390506
0.00370534
0.00350092
0.00330729
0.00312943
0.00296855
0.00282378
0.00269365
0.00498366
0.00479452
0.00455046
0.00430249
0.00406941
0.00385716
0.00366757
0.00350022
0.00335372
0.00615213
0.00587143
0.00555945
0.00525472
0.00497295
0.00471912
0.00449522
0.00430068
0.00413267
0.00756584
0.00714042
0.00674027
0.00636752
0.00602897
0.00572727
0.00546436
0.00524025
0.00505346
0.00914117
0.00858838
0.00809601
0.00765005
0.0072497
0.00689577
0.00659051
0.0063352
0.0061325
0.0108578
0.0102126
0.00963573
0.00911685
0.00865286
0.00824438
0.0078943
0.00760508
0.0073802
0.0127353
0.0120284
0.0113798
0.0107923
0.0102657
0.00980254
0.0094066
0.00908166
0.00883196
0.0148109
0.0140666
0.0133598
0.0127111
0.012127
0.011613
0.0111744
0.0108162
0.0105462
0.0171315
0.0163696
0.0156164
0.0149166
0.0142858
0.013732
0.0132609
0.0128781
0.0125888
0.0197574
0.0189891
0.0181965
0.0174592
0.0168008
0.0162292
0.0157486
0.0153632
0.0150737
0.0227933
0.0219849
0.0211482
0.0203917
0.0197385
0.0191887
0.0187421
0.0184012
0.0181635
0.0263961
0.02541
0.024509
0.023764
0.0231706
0.0227081
0.0223693
0.0221569
0.0220607
0.0307135
0.0292606
0.0282942
0.0276198
0.0271728
0.0268942
0.0267691
0.0268151
0.026926
0.00193126
0.00188304
0.00184159
0.00180679
0.00177861
0.00175693
0.00174164
0.00173249
0.0017293
0.0017317
0.00173936
0.00175185
0.00176863
0.00178917
0.00181277
0.00183872
0.00186626
0.00189453
0.00192265
0.00194974
0.00197477
0.00199673
0.00201443
0.00202628
0.0020299
0.00202403
0.00200912
0.00198602
0.00195428
0.00191176
0.00186048
0.00180179
0.00173588
0.00166414
0.00158781
0.00150807
0.00142606
0.00134289
0.00125965
0.0011774
0.0010971
0.00101967
0.000945897
0.000876448
0.000811894
0.000752667
0.000699066
0.000651292
0.000609393
0.000573349
0.000543041
0.000518281
0.000498871
0.000484572
0.000475179
0.00047049
0.000470348
0.000474632
0.000483177
0.00192383
0.00187948
0.00184136
0.00180943
0.00178354
0.00176362
0.00174954
0.00174114
0.00173823
0.00174054
0.00174774
0.00175943
0.00177514
0.00179433
0.00181637
0.00184057
0.00186616
0.00189232
0.0019182
0.00194287
0.00196541
0.00198484
0.00200017
0.00201028
0.00201387
0.00200946
0.00199585
0.00197238
0.00193902
0.00189642
0.00184578
0.001788
0.0017238
0.00165398
0.0015795
0.00150138
0.00142071
0.00133859
0.00125615
0.00117444
0.00109449
0.00101724
0.00094351
0.00087402
0.000809352
0.000749955
0.000696133
0.000648061
0.000605786
0.00056925
0.000538357
0.000512965
0.000492859
0.000477805
0.000467572
0.00046195
0.00046075
0.000463843
0.000471027
0.00188164
0.00183966
0.00180361
0.00177345
0.00174912
0.00173051
0.00171749
0.00170991
0.00170754
0.00171013
0.00171735
0.00172883
0.00174411
0.00176268
0.00178395
0.00180724
0.00183183
0.00185694
0.00188172
0.0019053
0.00192674
0.00194509
0.00195929
0.0019682
0.00197059
0.00196529
0.00195136
0.00192826
0.00189589
0.00185462
0.00180525
0.00174867
0.00168571
0.00161727
0.00154427
0.00146773
0.00138866
0.00130815
0.00122726
0.00114705
0.00106851
0.000992579
0.000920073
0.000851704
0.000788053
0.000729564
0.000676538
0.000629145
0.000587433
0.000551347
0.000520751
0.00049546
0.000475258
0.00045992
0.000449228
0.000442986
0.000441025
0.000443229
0.000449402
0.00180681
0.00176741
0.00173369
0.00170559
0.00168303
0.0016659
0.00165406
0.00164736
0.00164557
0.00164846
0.0016557
0.00166695
0.00168178
0.00169969
0.00172014
0.00174248
0.00176601
0.00178999
0.00181359
0.00183594
0.00185612
0.00187316
0.00188604
0.0018937
0.00189504
0.00188907
0.00187496
0.00185223
0.00182077
0.00178088
0.00173317
0.00167842
0.00161745
0.00155117
0.0014805
0.00140642
0.00132993
0.00125208
0.00117389
0.00109637
0.0010205
0.00094715
0.000877124
0.000811101
0.000749635
0.000693145
0.000641916
0.000596104
0.000555748
0.000520791
0.000491102
0.000466498
0.000446764
0.000431676
0.000421029
0.000414621
0.000412289
0.000413919
0.000419328
0.00171122
0.00167487
0.00164385
0.0016181
0.00159754
0.00158208
0.00157159
0.00156591
0.00156483
0.00156813
0.0015755
0.0015866
0.00160103
0.00161833
0.00163796
0.00165931
0.00168172
0.00170445
0.0017267
0.00174763
0.00176634
0.00178188
0.00179329
0.00179957
0.00179978
0.00179307
0.00177878
0.0017565
0.00172612
0.00168786
0.00164216
0.0015897
0.00153125
0.00146766
0.00139986
0.0013288
0.00125546
0.00118084
0.00110595
0.00103176
0.000959196
0.000889102
0.000822231
0.000759225
0.000700602
0.000646751
0.000597931
0.000554282
0.000515833
0.000482518
0.000454204
0.000430705
0.00041181
0.000397298
0.000386958
0.000380599
0.00037806
0.000379232
0.000383935
0.00159601
0.00156262
0.00153423
0.0015108
0.00149224
0.00147848
0.00146937
0.00146478
0.00146451
0.00146831
0.00147591
0.00148698
0.00150112
0.00151789
0.00153677
0.00155718
0.00157847
0.00159992
0.00162078
0.00164023
0.00165742
0.00167144
0.00168139
0.0016864
0.00168562
0.00167832
0.00166395
0.00164219
0.00161294
0.00157635
0.00153281
0.00148289
0.00142732
0.0013669
0.00130249
0.00123504
0.00116546
0.00109471
0.00102378
0.000953583
0.000885004
0.000818834
0.000755778
0.000696435
0.000641285
0.000590681
0.000544857
0.000503931
0.00046792
0.000436749
0.000410278
0.000388323
0.000370668
0.000357096
0.000347397
0.000341385
0.000338903
0.000339837
0.000344024
0.00146442
0.00143405
0.00140832
0.00138722
0.00137068
0.00135864
0.00135097
0.00134755
0.00134817
0.0013526
0.00136057
0.00137175
0.00138575
0.00140213
0.0014204
0.00144
0.00146031
0.00148062
0.00150021
0.00151829
0.00153406
0.00154668
0.00155534
0.00155925
0.00155765
0.00154993
0.00153563
0.00151449
0.00148642
0.00145154
0.00141021
0.00136292
0.00131039
0.0012534
0.00119272
0.00112926
0.00106387
0.000997455
0.000930978
0.000865298
0.000801223
0.000739487
0.000680739
0.000625538
0.000574326
0.000527422
0.000485036
0.000447264
0.000414102
0.000385465
0.000361207
0.000341136
0.000325042
0.000312705
0.000303918
0.000298494
0.000296279
0.00029716
0.000300982
0.00131609
0.0012884
0.00126507
0.00124612
0.00123151
0.0012212
0.00121508
0.00121302
0.0012148
0.00122018
0.00122889
0.00124054
0.00125474
0.00127104
0.00128899
0.00130808
0.00132776
0.0013473
0.00136601
0.00138308
0.00139774
0.00140919
0.0014168
0.00141992
0.00141778
0.0014099
0.00139589
0.00137558
0.00134879
0.00131561
0.00127643
0.00123175
0.00118233
0.00112894
0.00107221
0.00101301
0.000952169
0.000890475
0.000828929
0.000768241
0.000709145
0.000652304
0.000598302
0.000547655
0.000500794
0.000457985
0.000419449
0.000385238
0.000355314
0.000329565
0.000307835
0.000289942
0.000275679
0.000264839
0.000257224
0.000252649
0.00025096
0.000252039
0.000255733
0.00114982
0.00112429
0.00110302
0.00108614
0.00107371
0.00106561
0.0010616
0.0010613
0.0010648
0.00107213
0.00108249
0.00109541
0.00111036
0.00112681
0.00114461
0.00116328
0.00118266
0.00120243
0.00122122
0.00123781
0.0012516
0.00126203
0.0012688
0.0012713
0.00126897
0.0012613
0.00124803
0.00122893
0.00120357
0.00117191
0.00113466
0.00109248
0.00104612
0.000996467
0.000944043
0.000889017
0.000832498
0.000776238
0.000720346
0.000665087
0.000611387
0.000559888
0.000511049
0.000465265
0.000422888
0.000384402
0.000349952
0.000319778
0.000293652
0.000271155
0.000252092
0.000236404
0.00022401
0.000214729
0.000208359
0.000204773
0.000203834
0.000205397
0.000209321
0.0598532
0.0541476
0.0489131
0.0439799
0.0393049
0.0348643
0.0306741
0.0267598
0.0231391
0.0198279
0.0168849
0.0143373
0.0121683
0.0103308
0.00874466
0.00738489
0.00625057
0.00532193
0.00456564
0.00394759
0.00343875
0.0030149
0.00265599
0.00234549
0.00206889
0.0573245
0.0530865
0.0484093
0.0436843
0.0390668
0.0346268
0.0304141
0.0264721
0.0228363
0.0195407
0.0166152
0.0140662
0.0118776
0.0100192
0.00845141
0.0071397
0.00605427
0.00516505
0.00444048
0.00384935
0.00336352
0.00295938
0.00261781
0.00232346
0.00206379
0.0575618
0.0529681
0.0481803
0.043383
0.0386926
0.0341844
0.0299196
0.02595
0.0223161
0.0190463
0.0161529
0.0136316
0.0114657
0.00963038
0.00809486
0.00682514
0.00578533
0.00493947
0.00425331
0.00369537
0.00323793
0.00285783
0.0025364
0.002259
0.00201449
0.0584422
0.0531873
0.0480177
0.0429861
0.0381482
0.0335518
0.0292439
0.025267
0.0216534
0.0184212
0.0155725
0.0130968
0.0109754
0.00918418
0.00769413
0.00647106
0.00547725
0.00467457
0.00402724
0.00350324
0.00307507
0.00272002
0.00241998
0.00216092
0.00193197
0.0595077
0.0535819
0.0479428
0.0425947
0.0375543
0.0328416
0.0284807
0.0244959
0.0209047
0.0177128
0.014914
0.0124925
0.0104269
0.00869147
0.00725598
0.00608517
0.00514035
0.00438241
0.00377487
0.00328548
0.00288703
0.00255739
0.00227913
0.00203901
0.00182719
0.0605348
0.0539672
0.0478362
0.0421445
0.036885
0.0320493
0.0276348
0.0236445
0.0200788
0.0169317
0.0141888
0.0118297
0.00982924
0.00815872
0.00678542
0.0056724
0.00477998
0.00406867
0.00350186
0.00304755
0.00267909
0.0023751
0.0021189
0.001898
0.00170308
0.061556
0.0543046
0.0476471
0.041599
0.0361215
0.0311684
0.0267061
0.0227151
0.01918
0.0160831
0.0134032
0.0111147
0.00918819
0.00759068
0.00628641
0.00523636
0.00439989
0.00373738
0.00321257
0.00279402
0.00245583
0.00217745
0.00194302
0.00174075
0.00156241
0.0626699
0.0545491
0.0473093
0.0409081
0.035233
0.0301823
0.0256863
0.0217036
0.0182068
0.0151679
0.0125588
0.0103498
0.00850696
0.0069908
0.00576233
0.00478036
0.00400322
0.00339165
0.00291018
0.00252817
0.00222054
0.00196775
0.00175454
0.00156958
0.00140605
0.0637511
0.0545687
0.0467307
0.0400188
0.034193
0.0290784
0.024572
0.0206076
0.017157
0.0141855
0.011655
0.00953542
0.00778845
0.00636261
0.00521684
0.0043081
0.00359328
0.00303441
0.00259777
0.00225339
0.00197668
0.00174996
0.00155735
0.00138588
0.00123336
1.36302
1.32972
2.55097
3.92541
0.00199595
0.00303167
0.0444003
0.000934025
2.45112
0.000292704
2.21074
0.00610876
0.191051
0.00556061
0.0627029
0.00086946
2.18114
3.94335
0.000169071
0.0623419
0.0262564
0.000652307
2.63173
0.0691113
0.00172118
0.00143268
0.00152876
0.0361311
1.62205
2.24045
0.000294591
0.00136635
3.06691
0.154838
2.24006
0.000869852
0.183529
0.0634148
0.227159
0.00649601
3.84425
0.0015123
0.000793794
0.162309
0.0305116
0.000757416
3.27645
4.23484
1.93084
2.19907
3.02309
3.64998
0.0386331
4.19176
0.0439311
2.51289
0.0048576
0.0288191
0.00248003
3.74805
0.0011264
2.71114
0.00209287
0.000812452
0.000903356
0.1013
0.00246768
1.05941
0.222161
2.07346
2.67418
0.00074569
0.00123581
0.060123
0.00320873
0.0256717
0.0553203
4.04914
0.00361549
4.1805
0.128328
0.00144885
0.000894099
2.15287
0.00146001
0.00130199
0.000911884
4.03127
3.11645
0.00896429
0.0326447
0.00398674
0.000244322
0.00641835
0.00149494
2.23225
0.00153054
2.43892
0.00312628
3.7169
0.0129788
3.81961
0.0149968
0.000729369
0.00220153
0.0198388
2.85065
0.107921
0.00211014
2.25414
0.000724528
0.00300263
2.99157
0.00069784
0.0347503
1.90242
3.13302
0.00525449
0.0782704
0.00538793
0.00026715
0.00361249
0.0761389
0.00186022
3.196
0.000847197
3.65291
0.0483331
0.00263691
4.21991
0.000963189
0.0589105
2.09287
0.223779
0.0440509
0.000967285
0.0330626
0.00827259
0.000909388
0.0668209
0.00049768
0.219072
3.77615
0.000354875
1.72439
0.0009546
3.55848
0.0386686
0.000870293
2.13826
0.0240804
0.00331194
3.71687
0.0500565
0.00420161
2.10212
0.00139855
0.00528475
0.0542336
0.00130673
0.000731467
2.6049
0.00073889
2.59418
0.000394773
2.57686
0.00563419
0.001559
0.00101068
0.00151876
0.0050326
0.000828771
1.01071
2.32312
0.00212215
0.024208
0.0514704
1.84345
2.47871
0.000517964
0.103249
0.00138207
0.0448458
0.0752132
0.0692057
0.00164648
2.7791
0.00136277
2.39532
0.000852762
4.0985
3.7418
1.82311
0.224119
0.0530949
2.58614
0.00302988
0.000651599
1.81061
1.48054
0.354886
0.00108625
0.00136575
0.000883258
0.0115596
0.0006776
0.00288421
0.0149232
2.01047
0.00402707
0.00223952
0.00391391
0.119968
0.0107436
0.0427815
3.96413
0.00206582
0.00128989
0.000980816
0.0117618
0.0118405
0.00172978
0.00449204
2.81162
2.72842
3.3523
0.0129704
2.1979
0.00239525
0.00132303
1.96498
0.000849042
0.00153654
0.00185607
0.218831
0.000391563
0.0529235
0.0202561
0.0803105
0.0505229
0.000512076
0.00118515
0.000437664
0.0593242
0.00111408
0.000754561
0.00125395
0.0309604
0.000855684
0.000568517
0.00219761
0.0265275
0.00123895
1.90135
0.00249433
0.00157749
2.80586
0.0543886
0.0538895
0.000174761
0.682342
0.00257355
0.000761545
0.00376143
0.0580479
0.0020489
0.000540893
3.38334
0.0434414
0.00144097
0.0312648
1.80561
0.00316044
0.00138601
0.000167777
3.26705
0.00370716
2.32438
0.00500391
3.86361
0.119751
0.0281062
0.900483
0.000753433
2.53028
0.000953551
0.0216138
3.79165
3.11516
4.14942
0.0502432
0.000749687
0.000958999
3.27275
0.435112
3.94524
3.74348
0.00303717
0.00142898
3.12908
3.77488
0.000685708
0.0176475
0.000913555
3.61911
0.000437463
0.0258587
0.00135033
0.0667171
0.00128578
0.000746431
0.000385771
2.71867
0.00276493
0.00341455
0.268785
3.66066
0.00136678
0.00163595
0.462537
0.0546513
0.000821014
0.0230471
0.000288815
0.000915211
0.00196812
3.06205
0.10378
0.00275766
0.0299359
0.000386436
0.0546226
0.00949881
0.000315316
3.96937
0.00136853
0.000696887
0.000915599
2.15e-05
0.77674
0.00361569
0.0072372
3.41727
0.000363623
0.0567863
0.00215197
0.00466928
0.00213434
0.00105966
3.05597
1.94554
0.00025345
0.00354161
0.053798
3.33262
2.40855
0.619433
0.18162
0.00046522
3.29933
2.02967
2.26389
0.000735372
3.26884
0.00116807
0.000982867
0.000929391
3.88231
0.000738202
2.2967
0.00053313
0.0500293
1.61333
3.27754
0.186869
0.00263852
0.00485952
0.000323216
0.00177486
0.000387091
3.72455
0.000812125
3.17422
0.196359
0.193279
0.52301
0.000380567
0.0613818
2.04822
4.10923
0.0298369
0.000647278
0.0164502
2.86527
0.087131
0.000214247
0.000457224
3.0042
0.00536265
1.6412
0.000874626
0.000762422
0.00154481
1.86897
0.00725422
2.19694e-06
0.0525955
0.0185119
0.405626
0.000525127
2.05065
0.000755565
3.13963
0.000901103
0.00087041
0.954097
2.03197
3.05785
0.0038478
0.0040296
0.000389583
0.00173083
0.0107654
0.0177409
0.000943815
3.98324
1.72385e-05
0.0236321
0.000976105
0.0012514
0.000858561
0.00153505
0.00874714
0.00384953
0.0489641
0.000900215
0.000712939
0.00066365
0.0019844
0.240546
0.0010845
0.0505381
3.35422
0.30674
0.239541
3.37199
0.0242999
2.47154
0.00239424
0.00354403
3.24023
0.000709656
0.000735939
2.89867
0.000376657
2.01132
3.09314
0.0011498
0.041651
0.0474579
0.000750878
0.0633027
1.96144
0.115936
3.88701
0.000882555
0.00198304
2.86625
0.000988593
2.08545
0.0262996
0.000992923
2.24487
0.320758
0.00178702
0.166241
0.00692393
0.00122746
0.0395434
0.0365519
0.0384275
0.176842
0.00016192
0.0064797
2.09157
0.00142514
0.00123249
0.000865359
1.76548
0.000571002
0.0525699
0.000770216
0.00438225
2.74141
0.000729993
0.00269496
0.0537063
0.000892631
0.000305255
2.2696
0.000756823
0.0495931
0.000803176
0.0467721
0.0517984
0.14208
0.000875198
0.00083947
0.0503691
0.0013716
0.00052434
0.116982
0.00215357
0.00638903
0.00181598
3.8446
3.6176
2.11238
0.00292786
0.0215886
0.000234692
4.13597
0.0631801
4.58226
0.177451
0.000866506
3.94733
3.78516
0.000773577
0.000892754
0.0255273
0.000599134
3.01797
2.8892
0.00552831
0.43548
0.00074734
2.58878
1.87172
0.000786171
0.451976
2.18335
0.000633778
3.121
0.00443884
2.66617
0.000710974
0.00968689
0.000873394
2.30897
0.175304
0.150068
0.00265069
1.93505
2.07242
3.80829
0.00406828
0.000327098
0.137201
2.16951
0.00111439
0.191553
0.000742624
0.173031
2.12607
0.000227135
0.021833
0.00261951
0.00130528
0.834282
2.85646
0.000940899
0.0815864
0.00222319
0.00239787
2.97911
3.33293
2.21988
0.0113256
0.857867
0.0665779
0.0454502
0.00106693
0.000241763
0.00103079
2.97977
0.000602457
0.00320627
0.620908
0.00100457
0.00482793
0.00189385
0.000794362
0.0497655
0.00038473
0.00267493
0.157858
2.15632
0.00158731
0.00123837
3.4319
0.0372177
0.00136736
0.0247698
0.0468704
0.0024283
0.000997942
0.000927501
3.48769
0.000777273
0.000736321
0.195262
0.000743148
0.000983079
0.0167283
0.0336025
0.00320188
0.00440999
2.79722
0.000846528
0.000906075
0.000809543
0.000318166
0.0047681
0.00727397
3.67718
3.76878
0.0307201
2.8339
0.00593556
0.00155709
0.00104443
0.00205131
0.000950586
0.00525558
0.0342374
0.0140966
0.00478882
0.0030443
0.049262
0.0213145
0.00835349
0.102343
0.00064181
0.00262169
0.00104073
0.0588009
0.41178
3.63999
0.0497506
0.0536343
0.00582031
0.000267942
0.0030748
0.0009029
0.000772101
3.36201
0.000176766
0.0282662
0.000800285
2.3641
4.26872
2.14096
0.000185026
0.000990163
0.00113029
3.77155
2.5655
0.0702695
0.0399002
0.00708219
0.000175353
0.00152056
3.73539
0.000674826
0.000933451
0.182473
0.00083917
0.000565778
0.000542714
0.00309273
0.0357207
0.0330086
0.000995929
0.00059209
0.0108268
0.000330348
1.74942
3.31097
0.00130756
0.0568542
0.00467634
2.16182
0.00104615
0.000341241
0.000572033
0.0016057
0.689969
0.000896215
0.000504682
0.0024408
0.86076
0.00229496
0.000876941
0.000672734
3.9308
0.0545153
0.0272949
4.17969
0.0576814
1.83011
2.25445
0.000165745
0.00130757
0.000909215
8.15753e-06
0.000762179
0.122784
0.000938661
0.000795235
0.152949
0.000210929
0.000718269
0.0942554
0.000630734
0.0013664
0.000778667
0.0314447
0.103605
3.8076
0.000180033
2.59619
0.0392524
1.80268
0.0289694
3.85408
3.08444
3.10649
0.00152897
0.000859929
0.000330999
0.701301
0.00072709
0.470773
1.65551
0.000301951
0.0564995
0.328796
0.00299125
0.0008131
0.000792001
3.59837
2.67425
0.000703323
0.0429106
0.0506905
0.0602942
2.78062
5.08229e-08
0.000597117
0.0711921
0.000440427
1.52932
0.430788
2.42698
0.0498849
0.00163282
0.0499282
0.0055399
6.11237e-05
0.0636934
0.00422497
0.00987607
0.00141319
0.000798142
1.17265
0.000871313
0.00209757
0.000716988
0.000764015
1.296
0.00683334
3.73812
0.0601388
0.00059138
1.9532
0.000832422
0.0653385
0.00193646
0.000259186
0.000529264
0.0347734
0.0387226
0.00051406
0.000623244
3.10652
2.68546
0.0468628
0.000948226
0.0392914
0.406017
0.0523203
3.23821
0.175611
0.00826517
0.000402985
2.66904
0.00316381
0.000896219
0.0291139
2.57466
2.48075
0.00170252
0.0010118
2.23492
0.00105682
2.61341
2.27889
0.000574085
0.00165879
2.37171
1.65434
1.5273
0.00040513
0.00127888
0.00195547
0.0380655
0.16675
0.000632509
0.000955477
0.00299597
0.0461471
0.0461609
0.362948
1.66201
0.000176267
0.000715249
3.88292
0.000188035
0.0371065
0.00211675
0.0328616
0.00203508
0.00503518
0.429549
0.000719821
0.000318676
0.000324624
0.0292988
0.0356912
4.00725
0.00108659
0.000926903
0.000721991
0.0743253
0.0662095
2.6621
0.00523038
0.288313
0.0602991
4.48105e-06
0.00253169
0.0042563
1.99133
0.00320499
0.0611468
0.000899836
2.26023e-05
0.0633499
0.000842144
4.90654
2.82655
0.0372739
3.77213
3.89184
3.56005
0.000194414
2.69991
0.0911492
0.000473561
0.0455113
0.000784898
0.00437157
0.0511504
0.000874782
0.0109609
0.0302387
2.88629
0.0405031
0.0117179
2.67679
0.00638522
0.000932285
0.0497841
1.74463
0.560817
0.000266574
0.0491097
4.19338
2.3856
0.407309
0.0382943
2.09527
0.00537115
0.00159809
0.02599
2.3466
0.00242398
2.04921
0.00376478
2.25084
0.000927676
0.0483212
1.46131
0.000414957
0.00339854
0.000273367
2.98497
0.685338
2.63381
1.82541
0.000992177
0.0462341
0.0199803
0.0149455
1.60676
0.0271355
0.000714132
0.000888696
0.000831084
0.00537056
0.0406129
2.22428
9.2173e-05
2.91125
0.000597812
0.052367
0.000216395
0.000862224
0.00103212
2.93544
2.37589
0.0332671
0.0325797
0.00146583
0.0027994
0.0503951
0.000843978
0.551453
0.257052
3.38289
0.00280004
1.11266
0.0498712
0.000890491
0.00100252
0.00140669
3.43201
0.00414319
0.0110344
0.0516943
0.0540692
0.00207024
0.0188273
0.00115909
0.000676384
0.00246804
0.00221688
0.0313242
0.00140657
0.0897951
2.68797
0.0638299
2.95223
0.00073437
0.106148
0.0358158
0.011536
1.70292
0.00258616
0.00593336
3.17982
0.000903772
0.409117
0.00526867
0.00145709
1.96846
0.000444773
1.39062
0.00231825
0.0413813
0.0440871
3.09716
0.0043441
0.0494264
0.00144638
1.21893
0.000863854
3.25824
0.0938828
0.493797
2.19947
0.0287369
3.14105
0.000775796
1.85923
0.00244439
0.000884134
0.00418588
0.049188
0.0604788
0.00534751
0.000261034
0.0540571
0.00113777
0.00029998
0.00462051
0.00242433
0.000793882
4.18573
0.000973459
0.000747297
0.0506523
0.0299412
3.54268
0.00414851
0.000365966
0.00190697
1.83371
0.0010591
0.00410083
3.74373
2.08908
0.159355
0.00150608
0.017996
0.0281206
3.02567
0.000397803
0.000233647
0.0055639
0.00103416
0.00268314
2.02093
4.07041
4.71925
0.0312454
0.00149981
0.0504192
3.4058
0.0225435
0.0476536
0.000901349
1.78265
2.1509
3.31893
0.000857502
0.000843643
0.0162387
2.54768
0.00101967
2.62372
0.0153056
0.684155
1.94083
0.00462552
0.00835773
0.00576933
0.000265989
0.000273846
0.750076
1.68567
0.000170195
2.69646
0.00204448
0.00157886
0.00134637
0.00048874
0.0409534
0.0253965
0.0646002
0.0563259
0.00140375
0.000922428
1.82378
2.07257
0.000802672
0.0043439
0.000691181
2.22035
4.36462
0.0194996
3.81293
0.00147292
0.000204918
0.0871655
0.000809694
0.0112583
0.0514364
0.000854309
0.00094508
0.000594423
0.00766728
0.0773831
2.75823
0.0491773
0.00020468
0.01837
0.000638293
3.56972
3.73859
0.000476042
0.000212965
0.0563186
0.00254028
0.00255456
1.46335
1.67015
0.44636
0.000300927
0.00800433
0.0596127
1.69719
0.00771996
0.0545828
1.54877
2.79882
3.11455e-05
0.00132918
0.00684799
0.000611821
1.0835
0.0596759
0.000728555
0.0521999
0.000874302
0.000441759
0.00092506
0.0345404
0.00198817
3.13986
1.89636
3.39503
1.50822
0.520915
5.32052
0.00132458
3.46451
0.044584
0.000961918
0.614591
0.000163021
0.0149543
0.000680656
0.000769004
0.00518284
2.55893
0.00240879
0.0276409
0.0506964
0.00612293
0.0690025
1.14926
3.29926
0.00325664
3.36457
2.44158
0.00551509
0.00207501
0.0387863
0.649314
0.023757
0.0476733
2.7983
0.000469055
0.00480911
0.00253718
0.0551024
3.66524
0.000934597
0.0078059
0.00161091
0.000788409
0.00179716
0.0403864
0.000233338
0.00731033
0.0133106
1.99801
0.000295603
0.127038
2.22431
0.000829585
0.033266
0.0716797
2.89056
0.131527
1.59532
0.0890324
0.000730942
4.03533
2.49752
0.0010632
0.0346907
0.0637336
0.000455072
0.00141211
0.000500306
0.0820217
0.00137206
0.171269
0.000244127
0.0511394
2.0821
0.0496467
1.92252
0.635718
0.00132082
0.0536009
0.0475891
0.0053637
0.000823995
0.0953887
2.18204
0.000503335
0.189823
0.00635655
0.000867329
0.0251091
0.0164641
0.0015008
0.000853234
2.79208
0.0529116
0.000499159
0.000800396
0.000361642
0.000779004
0.00082995
1.62369
0.000712941
0.449165
2.54003
0.0407993
9.12942e-05
0.0512242
1.59881
0.0653384
1.84649
0.0100762
0.315352
3.3846
3.59673
0.00137009
2.28349
0.000411723
2.44861
4.09222
0.000182459
0.198355
0.0569773
4.07375
0.129805
0.0234608
0.000683623
0.0421884
2.30589
2.45921
3.46223
0.000934124
0.0646834
0.000215498
2.43359
0.0123641
0.00209967
0.00081177
0.0552835
0.00559477
0.00503926
0.0687465
0.000734899
1.88051
0.00409646
0.000520872
0.670422
0.0404838
0.00768067
0.0509307
0.0550816
0.000989915
0.0411979
2.76094
0.000282109
0.0335095
0.0055256
1.92928
0.311422
0.00166336
3.89996
0.000246214
0.0289055
2.74295
0.000412555
0.00220185
0.0260331
0.0410863
0.0487967
0.00271293
4.05786
0.00828164
0.0424983
3.96997
0.0210568
0.000877015
0.501896
0.000801859
0.000922622
0.00030641
0.0523474
2.41164
0.00093575
2.97117
0.102934
0.000826693
0.268152
0.000724689
0.00475281
0.251168
0.000619784
0.000610661
2.27766
0.00391649
0.00054252
0.000678786
2.01587
2.30444
0.0127837
0.000337506
0.00212457
0.246023
4.00672
0.000796109
0.00250047
0.0204751
3.15679
0.00250747
0.336298
0.262703
0.000852127
0.0387556
3.53176
0.000757148
0.0130333
0.000533171
3.00414
0.000962279
0.00113538
0.00695512
0.0496493
2.3521
0.00448135
2.95443
0.00497625
2.33115
0.000467826
0.0698053
0.0304411
0.0652659
1.94884
0.00624447
0.142951
0.00102563
0.000790717
0.00094224
2.34817
2.68428
0.000269628
0.000418876
1.34924
0.000773977
0.00550002
0.00363654
3.9092
3.58839
0.0486224
3.18492
0.000836157
0.000828708
0.23625
0.110327
1.87999
0.00221962
0.00158623
0.00199634
0.00345411
0.000843994
0.00252914
0.00104037
0.0284676
3.66879
2.44436
0.000199365
0.0439284
0.0363597
2.78675
0.000729253
3.54368
1.68719
3.71283
0.000594024
0.0501493
0.00106986
0.000778814
0.000460214
0.00162844
0.000180847
1.56344
3.39849
0.000557877
0.0250344
0.0685344
0.14929
2.15189
4.26526
0.00254151
0.00285217
0.00431775
0.0191871
0.150196
0.0034861
2.08745
0.139926
0.000315867
0.00848156
0.000920773
0.0585606
0.000975791
0.0022705
0.000278313
0.00109941
0.0111274
0.0485745
0.000660843
3.34182
0.000928549
0.000729835
0.663015
0.007552
0.000956596
3.0023
2.20946
0.00076949
2.40347
0.000224428
0.0503749
0.000642847
0.000951411
0.000736597
0.000824712
2.508
0.00643377
0.000873777
2.42184
1.57068
0.000618394
0.000329405
0.000887004
0.00083145
0.0476358
4.19045e-05
0.000730974