/*--------------------------------*- C++ -*----------------------------------*\
  =========                 |
  \\      /  F ield         | OpenFOAM: The Open Source CFD Toolbox
   \\    /   O peration     | Website:  https://openfoam.org
    \\  /    A nd           | Version:  10
     \\/     M anipulation  |
\*---------------------------------------------------------------------------*/
FoamFile
{
    format      ascii;
    class       volScalarField;
    location    "1850";
    object      k;
}
// * * * * * * * * * * * * * * * * * * * * * * * * * * * * * * * * * * * * * //

dimensions      [0 2 -2 0 0 0 0];

internalField   nonuniform List<scalar> 
10435
(
2.32764
2.7833
2.47835
2.43768
2.64901
2.99854
2.3385
2.08953
2.13689
2.92756
2.77782
2.29419
2.9607
1.66912
1.78499
2.16234
1.5533
3.18975
2.17033
2.37482
2.11897
2.42592
2.24603
2.2077
2.70637
0.747909
0.957375
2.71368
0.894795
3.07084
2.34799
2.76166
2.08672
0.918959
2.11438
2.53127
2.12995
0.995191
0.601626
2.18399
3.20065
2.33936
1.12239
2.44493
2.16993
2.19424
3.08065
1.01496
2.13727
2.40717
2.09925
2.57044
0.583587
0.821655
0.637533
0.835308
2.14088
1.02131
1.26352
2.14231
0.623827
2.74496
1.00525
2.54084
2.19936
2.56514
1.12509
1.12624
2.10673
2.23521
0.81406
0.879837
0.847849
2.43866
1.8924
1.20064
2.26128
2.26715
2.0886
1.87727
2.37856
2.23321
0.566226
0.831181
2.34997
2.24569
2.30156
2.51072
1.96641
2.38993
2.51074
2.50457
2.29445
2.07901
2.45308
2.35362
2.45485
1.82995
1.39604
2.47518
1.88233
2.85988
2.19467
2.49173
2.88691
2.44629
2.34251
2.39875
2.31329
1.98215
2.40854
2.84182
2.16038
2.07666
2.53379
2.43118
2.42341
2.38779
2.6335
2.37304
2.37385
1.101
2.50043
1.8761
2.8728
0.686613
2.41062
1.27665
2.51906
0.982885
1.56237
2.89738
2.11924
1.7647
0.936095
0.52551
2.4977
2.41405
2.61945
2.42772
2.40774
2.25694
1.03925
2.33602
2.4126
1.59684
2.22769
2.70601
1.50906
2.25821
0.907705
2.15925
2.34254
2.26489
2.74492
0.813662
2.85225
2.57668
2.84111
2.9466
2.21481
1.64461
2.6108
2.32935
2.00375
2.4349
2.09754
2.3562
2.25893
2.41474
2.64679
0.706812
0.877057
1.7148
2.22981
2.95386
2.6622
1.27827
2.40126
0.953396
2.78822
2.93387
2.27719
0.65505
2.21488
0.933166
1.04851
2.20716
2.67191
2.42426
2.32445
0.554211
0.945883
2.70393
2.83884
2.14557
1.37461
2.0859
1.15705
2.14044
1.97672
0.977226
2.82902
1.01823
2.6759
2.60559
2.62961
2.38615
1.02144
2.39167
0.809242
2.31925
2.33406
2.29197
0.939878
1.61308
2.10274
0.63481
0.757178
1.52237
0.920101
1.36004
1.0879
1.69023
0.791164
2.11144
0.673912
1.91892
2.39902
1.32075
1.23586
2.09733
0.712588
2.17315
1.02111
1.43511
2.17793
0.797035
2.21112
2.4716
2.4266
0.728676
0.65716
0.839245
2.61986
2.10457
2.13407
2.11799
0.71255
2.92618
0.746238
2.09012
2.9927
2.36443
2.16784
2.55247
0.655663
2.21812
0.750601
0.972825
2.27441
2.55467
0.734327
2.29263
2.18912
1.28388
2.39294
2.30677
0.607319
2.56303
2.34186
2.0815
2.12279
2.67709
0.806283
2.33914
0.981513
2.68828
2.16332
2.07545
2.91176
1.29813
2.43219
1.79616
2.1882
0.58206
2.67435
0.63603
0.83958
0.937005
1.88863
2.92535
1.02049
2.09652
0.611774
0.801163
1.47385
2.26531
2.71871
2.47994
1.15554
2.23877
2.52403
0.768001
2.74329
1.72542
1.41737
2.19711
2.51335
0.843566
2.37821
0.917988
2.84466
2.70466
2.12315
0.797174
0.668222
2.30315
1.16991
2.3245
2.92639
0.951824
2.27384
0.54332
2.07782
2.81206
0.860502
2.61636
1.17886
1.01042
2.14399
0.976657
0.842865
2.44734
2.2132
1.04846
0.795692
0.743904
0.873306
0.848703
0.898536
0.849682
0.609451
0.878229
0.845182
0.888449
1.07872
1.03759
0.533795
2.09425
0.849878
2.7263
0.936478
2.71339
2.08834
2.13967
2.97417
2.35713
0.834308
0.882756
0.766742
0.702893
0.831057
0.592377
0.919542
0.926954
1.06643
2.25809
0.905819
2.1118
0.669277
0.960217
3.04558
2.15124
0.585175
0.960183
0.992378
0.996408
0.875328
0.796901
1.12702
0.649861
2.08034
1.09644
2.09314
2.10326
2.81037
2.90258
2.12047
2.61909
2.11249
1.51159
0.79329
0.879415
0.813478
2.5372
0.856888
3.04914
1.08946
0.960421
0.978901
1.00732
0.693962
2.25353
0.99439
2.08143
2.22528
0.691382
0.841264
1.03237
2.15614
1.04536
0.875064
0.755231
0.833099
1.05606
0.899142
2.58103
0.811117
0.843946
0.900598
0.939392
3.18382
0.593202
0.540422
2.14907
0.876073
0.168993
0.167187
0.162978
0.157127
0.150172
0.142362
0.134007
0.125399
0.116874
0.169017
0.166457
0.161972
0.156104
0.149243
0.141707
0.133785
0.12582
0.118216
0.16879
0.165768
0.161099
0.155233
0.148539
0.14132
0.133868
0.126515
0.11963
0.168698
0.165378
0.160559
0.154731
0.14824
0.141365
0.134383
0.127583
0.121261
0.169051
0.165512
0.160567
0.154801
0.14853
0.142007
0.135474
0.129161
0.123266
0.17012
0.166395
0.161337
0.155645
0.149597
0.143418
0.137308
0.131441
0.125936
0.17218
0.168271
0.163095
0.157471
0.151631
0.145778
0.140068
0.13463
0.129542
0.175577
0.171389
0.166059
0.160479
0.154826
0.14927
0.143929
0.138897
0.134236
0.180636
0.17594
0.170422
0.164861
0.159366
0.154071
0.149053
0.144371
0.140055
0.187298
0.182005
0.176337
0.170791
0.165427
0.160346
0.155594
0.15119
0.147108
0.195172
0.189635
0.183966
0.178449
0.173184
0.168256
0.163697
0.159496
0.155587
0.20386
0.199035
0.193541
0.188049
0.182816
0.177956
0.173502
0.16943
0.165683
0.214844
0.210768
0.205377
0.19981
0.194492
0.189577
0.185117
0.181091
0.17745
0.229597
0.225395
0.21975
0.213897
0.20832
0.203196
0.198588
0.19449
0.190853
0.248646
0.24314
0.236764
0.230361
0.224331
0.218828
0.213918
0.209594
0.205773
0.2715
0.263788
0.256308
0.249134
0.242475
0.236439
0.231091
0.226428
0.222389
0.29615
0.286764
0.278142
0.27009
0.262681
0.255993
0.250094
0.244999
0.240703
0.322045
0.311717
0.30211
0.293161
0.284928
0.277494
0.270943
0.265307
0.260586
0.349355
0.338608
0.328211
0.318389
0.309284
0.301029
0.29373
0.287441
0.282168
0.378471
0.367618
0.356574
0.345908
0.335911
0.326789
0.318682
0.311663
0.305772
0.409863
0.399051
0.387401
0.375901
0.365018
0.35503
0.346105
0.338336
0.331749
0.444131
0.433288
0.420915
0.408553
0.396825
0.386036
0.376354
0.367885
0.360627
0.482403
0.470752
0.45728
0.443989
0.43152
0.420097
0.409843
0.400853
0.39314
0.52643
0.511703
0.496431
0.482194
0.469224
0.457494
0.447012
0.437851
0.429989
0.578162
0.555576
0.537931
0.523
0.509989
0.49847
0.488259
0.479403
0.471013
0.271625
0.271472
0.271805
0.272618
0.273925
0.275723
0.278013
0.280778
0.284012
0.287681
0.29176
0.296213
0.300987
0.306035
0.311283
0.316665
0.322101
0.327504
0.332784
0.337851
0.342597
0.346917
0.350689
0.353751
0.355872
0.356917
0.356912
0.355922
0.35389
0.350594
0.34621
0.340857
0.334537
0.327376
0.319491
0.310997
0.302013
0.292658
0.283054
0.273325
0.263594
0.253982
0.244598
0.235544
0.226912
0.218782
0.211216
0.20427
0.197971
0.192344
0.187393
0.183107
0.179477
0.176473
0.174077
0.172257
0.170992
0.170253
0.170017
0.270096
0.270273
0.270887
0.271945
0.273449
0.275399
0.277795
0.28063
0.28389
0.287557
0.291602
0.295991
0.300679
0.305614
0.310734
0.31597
0.321245
0.326475
0.33157
0.336436
0.340976
0.345087
0.348664
0.351592
0.353733
0.354938
0.355076
0.35407
0.351898
0.348607
0.344296
0.339041
0.332898
0.325938
0.318249
0.30993
0.301092
0.291852
0.282336
0.272668
0.262974
0.253377
0.243991
0.234923
0.226266
0.218102
0.210493
0.20349
0.197121
0.191401
0.18634
0.181938
0.178178
0.175039
0.172492
0.170509
0.169061
0.168121
0.167657
0.265535
0.265758
0.266411
0.267502
0.269034
0.271007
0.273419
0.276259
0.279514
0.283163
0.287179
0.291528
0.296166
0.301042
0.306096
0.311263
0.316465
0.321622
0.326646
0.331444
0.335918
0.339965
0.343474
0.346324
0.348387
0.349536
0.349667
0.348712
0.346645
0.343484
0.339291
0.334139
0.328097
0.321244
0.313667
0.305462
0.296737
0.287606
0.27819
0.268613
0.259001
0.249474
0.240148
0.231131
0.222518
0.214389
0.206809
0.199828
0.193476
0.18777
0.182712
0.178296
0.174504
0.171317
0.16871
0.16666
0.16514
0.16413
0.163598
0.25776
0.258
0.258667
0.259766
0.2613
0.263269
0.265667
0.268485
0.271708
0.275316
0.279283
0.283573
0.288146
0.292953
0.297935
0.303026
0.308154
0.313237
0.318187
0.322911
0.327311
0.33128
0.334709
0.337482
0.33948
0.340592
0.340724
0.339811
0.337825
0.334778
0.330715
0.325695
0.31979
0.313079
0.305649
0.297599
0.289031
0.28006
0.270804
0.261385
0.251927
0.24255
0.233367
0.224486
0.215998
0.207986
0.200511
0.193623
0.187353
0.181716
0.176718
0.17235
0.168598
0.165441
0.162857
0.16082
0.159307
0.158296
0.157758
0.247749
0.248011
0.248691
0.249797
0.25133
0.253291
0.255674
0.258469
0.261661
0.265231
0.269151
0.273388
0.277902
0.282644
0.287557
0.292575
0.297628
0.302632
0.307502
0.312144
0.316457
0.320338
0.323677
0.326365
0.328294
0.329364
0.329495
0.328628
0.326736
0.323819
0.319909
0.315054
0.309321
0.302788
0.29554
0.287674
0.279295
0.270514
0.261451
0.252225
0.24296
0.233773
0.224777
0.216076
0.207762
0.199914
0.192594
0.18585
0.179712
0.174196
0.169307
0.165035
0.161367
0.158282
0.155756
0.153765
0.152285
0.151297
0.150771
0.235653
0.235899
0.236563
0.23765
0.239163
0.2411
0.243457
0.246223
0.249384
0.252918
0.256798
0.260991
0.265456
0.270144
0.274997
0.279952
0.284935
0.289865
0.294655
0.299214
0.303441
0.307235
0.310492
0.313106
0.314978
0.316019
0.316155
0.315336
0.313533
0.310742
0.306986
0.302306
0.296765
0.290435
0.2834
0.275756
0.267604
0.259053
0.250222
0.241232
0.232201
0.223247
0.21448
0.206003
0.197907
0.190268
0.183148
0.176594
0.170636
0.16529
0.160558
0.156433
0.152898
0.149934
0.147515
0.145618
0.144219
0.143297
0.142823
0.22181
0.222021
0.222648
0.223698
0.225176
0.227079
0.229405
0.232142
0.235275
0.238782
0.242635
0.246799
0.251231
0.255881
0.260693
0.265602
0.270534
0.275407
0.280136
0.284626
0.288783
0.292505
0.295694
0.298253
0.300085
0.30111
0.301263
0.300498
0.298784
0.296116
0.292511
0.288007
0.282663
0.276552
0.269752
0.262355
0.254459
0.246169
0.237608
0.22889
0.220133
0.211449
0.202947
0.194729
0.186885
0.179491
0.172609
0.166283
0.160545
0.155407
0.150874
0.146936
0.143578
0.140776
0.138506
0.136742
0.13546
0.134638
0.134247
0.206273
0.206392
0.206934
0.20791
0.209325
0.21118
0.213471
0.216186
0.219309
0.222814
0.226671
0.230839
0.235273
0.239918
0.244718
0.249613
0.254532
0.259388
0.264095
0.268554
0.27267
0.276343
0.279488
0.28202
0.283836
0.28487
0.285057
0.284361
0.282741
0.280187
0.276722
0.272379
0.26723
0.261347
0.254791
0.247659
0.240045
0.232045
0.223792
0.215387
0.206942
0.198566
0.190364
0.182436
0.174878
0.167761
0.161155
0.1551
0.149622
0.144734
0.140437
0.136725
0.13358
0.130982
0.128905
0.127323
0.126209
0.125539
0.125281
0.189046
0.18899
0.189382
0.190246
0.191593
0.193419
0.195706
0.19842
0.201572
0.205165
0.209113
0.213362
0.217849
0.22251
0.227317
0.232206
0.237145
0.242085
0.246866
0.251346
0.255444
0.259079
0.2622
0.26472
0.266552
0.267624
0.267887
0.267296
0.265782
0.263317
0.259962
0.255766
0.250797
0.245146
0.238867
0.231979
0.22461
0.216979
0.209119
0.201073
0.192986
0.184969
0.177111
0.169504
0.162234
0.155414
0.149106
0.143389
0.138263
0.133682
0.129639
0.126151
0.123227
0.120847
0.118982
0.117614
0.116717
0.116259
0.116209
0.846787
0.79402
0.746944
0.702037
0.658175
0.614965
0.572619
0.531588
0.492342
0.455394
0.421821
0.392415
0.367401
0.346468
0.328579
0.313491
0.301429
0.292297
0.285661
0.280979
0.277761
0.275565
0.273977
0.272595
0.270947
0.807444
0.777013
0.738699
0.69734
0.654773
0.611891
0.569403
0.528019
0.488438
0.451416
0.417727
0.387885
0.362097
0.340303
0.322225
0.307582
0.296109
0.287486
0.281302
0.277084
0.274357
0.272687
0.271697
0.27105
0.270424
0.800714
0.769328
0.732092
0.691455
0.649008
0.605845
0.562913
0.521103
0.481248
0.444113
0.410313
0.380256
0.354161
0.332076
0.313902
0.299413
0.288269
0.280047
0.274277
0.270475
0.268163
0.266901
0.266298
0.266013
0.265757
0.801163
0.765418
0.726155
0.684402
0.641184
0.597421
0.554023
0.511885
0.471844
0.434615
0.400743
0.370598
0.344402
0.322247
0.304084
0.289706
0.278757
0.270776
0.265262
0.26171
0.259634
0.25859
0.258184
0.258075
0.257955
0.803291
0.763239
0.721071
0.677332
0.632722
0.587987
0.543926
0.50136
0.461053
0.42366
0.38968
0.359464
0.333234
0.311089
0.292984
0.27871
0.267899
0.260075
0.254714
0.251296
0.249325
0.248358
0.248004
0.24794
0.2479
0.805005
0.76109
0.71588
0.66987
0.623618
0.577729
0.532878
0.489784
0.449131
0.41151
0.37739
0.34711
0.320882
0.298794
0.280781
0.266617
0.255917
0.248191
0.242904
0.239523
0.23755
0.236544
0.236126
0.235986
0.235868
0.806296
0.758581
0.710254
0.66188
0.613904
0.56678
0.521048
0.477336
0.436257
0.398348
0.364058
0.333715
0.307518
0.28552
0.267631
0.253592
0.242996
0.235342
0.230083
0.226677
0.224622
0.223478
0.222869
0.222497
0.222153
0.807349
0.755419
0.703879
0.653175
0.603515
0.555155
0.508502
0.464103
0.422535
0.384291
0.349802
0.3194
0.29327
0.271404
0.253676
0.239789
0.229307
0.221716
0.216466
0.213004
0.210817
0.20946
0.208542
0.207748
0.206916
0.807636
0.751143
0.696479
0.643623
0.592427
0.542892
0.495328
0.450174
0.408056
0.369437
0.334705
0.30425
0.278259
0.256579
0.239063
0.225373
0.215022
0.207497
0.202268
0.198764
0.196434
0.194858
0.193541
0.192
0.19025
3.1439
3.10488
3.35002
5.18808
0.152536
0.175494
1.35473
0.117629
3.25172
0.117097
2.6203
0.18488
1.42379
0.186058
1.54785
0.183325
2.80669
5.23636
0.108509
1.11231
0.876425
0.182434
3.05159
0.501667
0.102829
0.154585
0.101907
0.510786
3.16961
2.80416
0.113696
0.163219
4.39727
1.456
2.78431
0.135705
1.58596
1.55318
1.76559
0.232926
4.25041
0.0524344
0.169242
1.11267
0.421559
0.215032
3.32146
3.99189
3.24645
3.92724
3.14901
4.07385
0.9201
5.41798
1.32234
3.32999
0.17517
0.873079
0.126512
3.96305
0.155213
3.49337
0.152334
0.195264
0.120045
0.93674
0.171656
2.09159
1.51548
3.62691
3.49874
0.204573
0.120901
1.13853
0.125192
0.867464
1.20723
4.03339
0.144929
5.42675
1.34829
0.179253
0.134624
2.4927
0.148376
0.158461
0.116376
4.06095
4.40452
0.268349
0.391756
0.200322
0.125798
0.190236
0.129331
2.64769
0.156555
2.7521
0.106815
3.9592
0.326495
4.27721
0.351814
0.207034
0.119939
0.438497
3.23371
1.27757
0.0633485
2.8267
0.187375
0.0964304
3.43003
0.202945
0.899902
3.24228
4.0838
0.218071
1.06605
0.120673
0.0161566
0.106731
0.515773
0.105174
4.43288
0.168501
4.09149
1.05257
0.130855
3.99199
0.133015
1.1403
3.59688
1.86402
0.616247
0.116234
0.421128
0.257575
0.155009
1.12211
0.173869
1.6213
3.96596
0.0204039
3.1971
0.197413
4.89184
1.05113
0.181732
2.70686
0.585124
0.192821
5.0049
1.54484
0.126697
2.46652
0.109225
0.219401
1.29086
0.154002
0.164597
3.40977
0.17161
2.86563
0.142187
2.79286
0.188085
0.09933
0.214111
0.112938
0.177494
0.201658
2.02915
2.61643
0.163663
0.477374
1.16849
3.39366
3.44967
0.176494
1.48749
0.159829
0.944406
1.40519
0.825574
0.106369
2.92609
0.0502226
4.06877
0.171449
4.01178
3.96426
3.36709
1.57339
1.52895
4.18779
0.120358
0.180057
3.2245
3.14733
1.8561
0.239301
0.172907
0.173542
0.494473
0.140089
0.179338
0.346639
3.33378
0.202762
0.120074
0.13669
1.52768
0.474638
0.677962
4.21712
0.1362
0.115422
0.240422
0.312505
0.283749
0.0605403
0.126411
3.6367
3.98566
4.13177
0.289236
2.83659
0.0671381
0.125284
2.36357
0.137762
0.159488
0.132294
1.71708
0.124713
1.34696
0.373562
1.44624
1.58148
0.120717
0.15462
0.143548
0.72641
0.11814
0.119345
0.165912
0.478881
0.181967
0.142471
0.0631203
0.506358
0.145747
3.27031
0.148142
0.100493
3.25956
1.22022
1.30707
0.108642
1.54452
0.132413
0.154392
0.12161
1.15387
0.107693
0.138255
4.69386
1.34761
0.0992697
0.938601
3.3486
0.115605
0.111938
0.110758
4.59941
0.193489
3.06869
0.178877
4.01586
1.02922
0.603176
1.85173
0.214435
3.46914
0.16409
0.458413
5.04866
3.30845
4.0177
1.56447
0.176567
0.0342399
3.39494
2.13109
4.25114
4.18472
0.182948
0.157089
3.75929
3.99732
0.16274
0.29386
0.177483
4.19373
0.138756
0.874023
0.145268
1.11956
0.176838
0.206186
0.15759
4.2367
0.131643
0.113499
1.61886
3.59539
0.15004
0.104311
2.15674
1.29766
0.160436
0.313386
0.112997
0.118505
0.109423
4.04749
1.27939
0.177547
0.884547
0.140369
1.53201
0.250957
0.119433
4.10814
0.163521
0.135919
0.141087
0.00544287
1.68217
0.128836
0.207252
3.86117
0.153345
1.15623
0.136664
0.198864
0.138473
0.114742
3.11617
3.50254
0.126506
0.0820665
1.31659
3.45023
3.65494
2.2203
1.15221
0.144924
3.26084
3.3769
2.76158
0.141501
4.09858
0.047038
0.112989
0.205195
3.78703
0.150771
4.01997
0.182463
1.53453
3.20748
4.06564
1.41436
0.110143
0.120032
0.139678
0.158566
0.122987
4.21306
0.193595
4.42916
1.22201
1.19367
2.20406
0.142559
1.11056
2.53282
4.01229
1.03621
0.140058
0.36421
4.23173
1.41388
0.111331
0.140274
4.37552
0.220017
3.18765
0.115927
0.170642
0.148321
3.68511
0.208604
0.00159444
1.42505
0.381013
1.62033
0.121173
3.61601
0.151311
3.75652
0.152181
0.154095
1.88846
3.26638
3.12123
0.193871
0.200245
0.144493
0.160045
0.283401
0.379313
0.210576
4.02919
0.00450629
0.337787
0.135301
0.161975
0.169482
0.101459
0.269811
0.149634
1.5215
0.200187
0.186871
0.0283254
0.139347
0.721878
0.149783
1.58003
3.49834
1.44152
1.57149
4.20304
0.414841
3.82402
0.122824
0.142809
4.05688
0.157239
0.169243
3.64602
0.155809
3.59958
3.12494
0.15859
0.423823
1.08906
0.178972
0.799303
3.5363
1.48188
4.02138
0.10977
0.122651
3.64434
0.1473
2.57897
0.452735
0.109718
2.75349
0.871931
0.106849
1.42594
0.249185
0.105724
1.07403
1.02883
0.692353
1.75972
0.0154111
0.192895
2.45233
0.137886
0.177137
0.22063
3.47476
0.183039
1.50421
0.175826
0.11689
4.16416
0.147754
0.140143
1.4995
0.163318
0.130299
3.98032
0.167325
1.53639
0.151969
0.628139
1.15167
1.46755
0.170964
0.170809
1.41658
0.165528
0.161279
1.36094
0.164211
0.240072
0.103874
3.76374
4.27664
3.29618
0.110106
0.810733
0.127578
4.01745
1.11526
5.30639
1.5107
0.226069
4.02311
4.38616
0.142517
0.214467
0.486238
0.188975
4.32469
3.90747
0.119587
1.69504
0.170657
3.5166
3.26244
0.180192
2.15748
2.77751
0.177507
3.44221
0.0998386
3.56186
0.154037
0.251983
0.163609
3.0398
1.6445
1.70926
0.131083
3.30424
3.28747
3.71234
0.122302
0.146624
1.25719
3.42042
0.139198
1.80016
0.171335
1.40108
2.71128
0.112024
0.795444
0.128463
0.163956
1.78332
4.28478
0.235271
1.58186
0.129498
0.154654
3.43565
3.30705
3.46254
0.279244
1.82526
1.1466
0.942153
0.235624
0.129035
0.123124
4.36089
0.17168
0.177092
2.14542
0.229603
0.218541
0.169376
0.191894
1.48958
0.157386
0.130982
1.41702
3.31512
0.141092
0.156477
3.87157
0.511007
0.0543861
0.336952
1.04487
0.15055
0.165461
0.135871
4.77277
0.158365
0.168303
1.74191
0.119005
0.210301
0.394288
0.909074
0.149343
0.195887
3.69039
0.206094
0.108008
0.158899
0.144455
0.245986
0.211191
3.9497
3.56391
0.471128
4.29846
0.189308
0.0994742
0.106745
0.0912833
0.198236
0.119921
0.939458
0.298077
0.126199
0.176941
1.41279
0.768176
0.225279
0.932532
0.17541
0.166496
0.12479
0.476218
1.65282
3.94058
1.49601
1.32673
0.129997
0.115943
0.0729663
0.231155
0.13082
3.33087
0.110546
0.902523
0.149506
3.52486
5.48429
2.55005
0.0121676
0.107671
0.120829
4.3789
3.87992
0.785031
0.921547
0.208197
0.112951
0.144846
3.97909
0.034431
0.15425
1.7986
0.132403
0.187566
0.129322
0.112962
0.916349
0.353622
0.141397
0.139733
0.256661
0.139323
3.22915
3.61878
0.164864
1.46468
0.201905
2.62803
0.12685
0.149339
0.143585
0.148484
2.21109
0.159503
0.161394
0.125934
1.80359
0.152754
0.223334
0.198927
3.97979
1.47359
0.530377
4.01172
1.54288
3.55988
2.7853
0.109964
0.108379
0.108191
0.00336807
0.171632
1.03097
0.189951
0.131638
1.31039
0.121872
0.127684
0.663513
0.150896
0.145559
0.11657
0.529507
1.323
4.32082
0.112459
3.53598
1.28002
3.35215
0.912796
4.36244
3.27557
4.4028
0.111188
0.17815
0.0208538
1.55774
0.164224
2.12899
3.45021
0.141591
1.28243
1.48588
0.142209
0.117444
0.149216
3.44517
3.64055
0.132891
1.37034
1.51958
1.01992
3.72008
0.000182924
0.142253
0.63726
0.0276764
3.34419
1.66996
2.89856
1.51379
0.102703
1.51829
0.119959
0.00970213
0.767147
0.206049
0.282648
0.154864
0.169316
2.33707
0.178184
0.128682
0.165982
0.16891
2.45963
0.235784
4.00017
1.53863
0.173255
3.50107
0.200525
1.13306
0.167415
0.13242
0.181769
0.997076
0.624649
0.0317099
0.192026
3.16289
3.67427
1.21979
0.156865
1.07734
2.05832
1.44583
4.05853
1.77397
0.227653
0.160467
3.06746
0.0994357
0.113371
0.39088
4.19277
3.3025
0.16299
0.136863
3.92277
0.104716
3.51797
3.77676
0.184703
0.160381
3.11591
3.31125
3.31346
0.140169
0.149601
0.084232
1.05621
1.59488
0.154068
0.106417
0.147526
1.21295
0.311617
1.07971
3.50675
0.112258
0.153717
4.64493
0.114414
0.97945
0.0762184
0.97061
0.170578
0.125432
2.08083
0.199922
0.144754
0.131199
0.542274
0.976844
4.08633
0.121339
0.147473
0.161886
1.5655
1.12846
3.53068
0.120282
1.7311
1.55092
0.00246224
0.117522
0.172627
2.37486
0.190862
1.18383
0.193732
0.00433598
1.43204
0.174413
5.48097
4.09504
1.02979
3.9866
3.97377
3.43649
0.115011
4.24133
1.59391
0.17274
1.3338
0.133962
0.173544
1.10759
0.158403
0.300841
0.927049
3.79696
0.256418
0.182924
4.25089
0.202425
0.17882
1.41954
3.38629
2.21055
0.134438
0.459714
4.01058
2.86974
2.10871
0.965221
3.88832
0.259637
0.10825
0.891154
3.39201
0.171223
3.39637
0.212154
3.73912
0.198483
1.11776
3.24194
0.0217834
0.160118
0.135871
3.68258
2.16233
3.61544
3.21884
0.23567
0.573388
0.768585
0.328757
3.40644
0.862052
0.141505
0.169922
0.159246
0.127494
1.10546
2.6788
0.0141826
3.66159
0.192442
1.35873
0.12323
0.130337
0.116159
3.93729
3.56677
0.484591
0.958989
0.164009
0.140934
1.55007
0.131674
2.18426
1.9314
4.3083
0.0888554
2.15851
1.55304
0.18192
0.22388
0.170925
4.33876
0.200199
0.297697
1.35992
1.45671
0.123546
0.341803
0.140428
0.19593
0.132932
0.143102
0.91169
0.127707
0.563025
3.54654
1.12287
3.99674
0.172474
0.592551
0.917019
0.187029
3.18507
0.160914
0.208391
3.6335
0.191387
1.13892
0.245322
0.0992303
3.30268
0.127766
2.53991
0.108362
1.32161
1.39993
4.11321
0.122373
1.26464
0.165278
2.32782
0.185471
3.8372
1.50204
1.24706
2.80094
0.261322
3.19142
0.155256
3.28021
0.189211
0.110166
0.201222
1.16049
1.55077
0.114675
0.133224
1.12265
0.145828
0.140871
0.122546
0.1027
0.183896
3.99217
0.21043
0.167124
1.50172
0.52868
3.42189
0.110617
0.15395
0.159967
3.01232
0.228299
0.17376
4.43473
3.30131
1.09525
0.152574
0.344451
0.989151
3.71893
0.13855
0.127013
0.223498
0.223641
0.173064
3.3727
4.01004
5.7584
0.943149
0.160971
1.56294
4.3804
0.450341
1.10643
0.185447
3.40241
2.67417
3.28712
0.150698
0.154988
0.390721
3.59699
0.238425
3.5526
0.30437
1.57197
3.55259
0.16453
0.251806
0.219308
0.118727
0.113331
1.58562
3.37949
0.110746
4.25165
0.170375
0.162688
0.125731
0.126104
0.946676
0.239531
1.14256
1.21295
0.140405
0.207967
3.2544
2.48349
0.142286
0.194135
0.199407
3.62786
5.55186
0.428119
4.00438
0.151558
0.117378
1.10755
0.146779
0.471482
1.56077
0.148623
0.113761
0.0345583
0.222439
1.39067
3.7793
1.24901
0.119546
0.407574
0.125332
4.29835
4.29646
0.146787
0.116636
1.29468
0.179961
0.133929
3.03864
3.29154
1.09923
0.123349
0.156623
0.700748
3.51714
0.21809
0.293442
3.38388
3.61469
0.00671065
0.155147
0.204684
0.194521
2.15341
1.00791
0.156802
1.41842
0.156048
0.167426
0.131812
0.922744
0.156751
3.36622
3.49266
4.25678
3.3433
2.19571
5.99762
0.165106
4.13455
0.988313
0.129009
1.40924
0.0197132
0.36824
0.15514
0.142936
0.121121
3.93065
0.114249
0.495781
1.55119
0.209859
0.510452
2.23785
3.27053
0.0947992
3.51869
2.77153
0.210588
0.143964
0.423918
1.4883
0.363993
1.26361
3.75261
0.172046
0.121966
0.178192
1.3471
4.28259
0.193323
0.250897
0.104273
0.141035
0.172123
0.570788
0.117267
0.239409
0.288321
3.38732
0.131993
0.634012
2.91924
0.173993
0.443737
0.510027
4.15303
0.649405
2.81402
1.0987
0.171621
4.81091
3.46931
0.136961
0.946772
1.54599
0.141577
0.182179
0.177204
1.57379
0.165474
1.40828
0.129133
1.55583
3.86246
1.06437
3.36029
1.41861
0.165174
1.13565
1.24045
0.227583
0.212734
0.407323
2.67798
0.177656
0.755284
0.160925
0.225171
0.882337
0.208964
0.121556
0.141881
3.69953
1.11007
0.124059
0.219908
0.115654
0.155275
0.164427
3.24123
0.208316
1.70589
4.18232
1.0222
0.0104949
1.26342
3.21218
1.12337
3.50405
0.252282
1.96321
4.07333
3.9331
0.0636413
3.37965
0.137984
3.23385
5.28847
0.114791
1.47544
1.48775
4.02714
1.48068
0.454938
0.160965
1.33651
3.7709
3.80555
4.09528
0.226346
1.12088
0.122267
3.50697
0.495445
0.118581
0.16701
1.0949
0.127653
0.263036
1.12229
0.148743
3.2233
0.120178
0.15877
2.23777
1.31013
0.252336
0.97927
1.5422
0.232487
1.00885
4.1537
0.137578
0.566365
0.181769
3.71134
1.81374
0.10824
4.33906
0.129842
0.895158
4.11811
0.162339
0.151522
0.868052
1.0322
1.3691
0.143419
4.01117
0.226319
1.00327
4.12766
0.545417
0.219518
2.19722
0.199232
0.165066
0.0194593
1.34905
3.87318
0.150907
4.3017
0.582562
0.16737
1.54447
0.184532
0.155736
1.6262
0.195501
0.144699
3.56598
0.114899
0.16709
0.20421
3.82605
3.55971
0.302459
0.127482
0.147621
1.64963
4.04108
0.143745
0.134521
0.43585
4.30311
0.13939
1.5282
1.63607
0.112154
0.955948
4.15736
0.139753
0.324652
0.137426
4.41653
0.130158
0.166533
0.25541
0.633257
3.71196
0.111607
4.13467
0.134255
2.6912
0.155011
1.46269
0.580443
1.14808
3.34881
0.225673
0.967531
0.228039
0.205307
0.205535
3.43429
3.55488
0.13494
0.143781
2.52437
0.207609
0.170978
0.123173
4.21637
3.93484
1.08629
4.18804
0.219282
0.111038
1.67662
0.589737
3.32502
0.101927
0.183667
0.116059
0.189954
0.147784
0.172214
0.151941
0.4894
4.46824
3.54139
0.119019
0.453874
1.02058
3.60791
0.159257
4.32851
3.48943
3.95972
0.185419
1.09387
0.138253
0.216023
0.167331
0.180883
0.109086
3.15773
4.42626
0.186171
0.460068
1.12002
0.678917
3.61598
3.98237
0.172325
0.132819
0.206055
0.413198
1.53088
0.134318
3.41292
1.08502
0.140886
0.251328
0.218688
0.730787
0.226381
0.153259
0.131973
0.13088
0.282563
1.0383
0.201549
4.21339
0.189767
0.174756
1.49251
0.233065
0.15675
4.02391
3.66395
0.172217
3.6581
0.114788
1.2716
0.191231
0.230088
0.139114
0.112585
3.50529
0.230023
0.210092
3.77888
3.13986
0.124425
0.125451
0.145876
0.21552
1.48469
0.00912531
0.16526
4.33169
0.152976
0.114366
0.196243
4.15247
0.162098
3.62094
3.44334
0.457712
3.81507
0.20798
0.102165
4.40855
3.58914
0.111072
0.00274948
0.947792
0.248503
0.237166
0.135788
1.54625
2.83
0.186571
0.135104
3.59431
0.142901
3.41646
2.07201
0.168853
0.964736
4.05016
0.113357
1.52403
0.13456
0.192841
0.220098
0.148763
3.89222
3.41231
0.163936
0.120996
3.9327
0.179993
0.226667
0.383321
1.29584
1.60692
0.109673
0.139927
0.119247
0.160037
0.106925
0.00245466
0.213321
0.215282
3.46258
0.982303
0.144973
2.16843
0.24342
1.17484
4.03393
1.16972
3.85161
2.10528
0.00801324
0.983941
0.221382
0.154017
3.2727
0.184513
4.55295
3.50777
1.14057
0.178164
3.56952
0.108431
3.82627
0.167809
0.202041
3.80787
0.533711
1.18212
0.177988
0.180087
0.133355
0.19711
1.51726
1.9141
0.142029
3.33445
0.646194
3.56374
0.158762
4.39878
0.172816
0.164054
0.733514
0.124559
0.904796
3.92649
1.01669
0.114028
3.68436
1.41182
3.92983
1.12008
0.772604
0.0752023
0.944301
3.90426
0.135545
0.157795
0.156979
4.0994
0.209992
0.195763
1.38053
0.999484
0.388366
4.2984
1.38203
0.391605
0.419703
1.37374
0.243913
0.984403
0.142965
0.136702
0.147616
3.64103
0.181655
1.44114
3.60871
0.10126
1.08096
3.16305
0.137928
2.59818
0.143879
0.960702
0.220724
0.110191
0.193668
0.123936
0.105992
0.236302
0.233436
0.191742
0.560168
3.54661
1.00736
0.166816
0.950653
0.133681
0.156758
0.163852
0.156011
0.190077
1.56669
0.15882
2.25114
3.71975
1.55755
1.21397
3.45549
0.205603
3.34736
0.151975
2.04716
0.175513
0.157644
0.320343
2.78046
0.272782
0.152128
0.132085
0.373811
0.248674
1.53896
0.811538
1.97264
3.43655
0.153641
0.132895
4.58231
0.157502
0.177745
0.11978
0.291372
0.134552
0.119122
0.189974
0.182408
1.24091
3.7654
2.17705
0.255795
0.129861
1.08351
3.95438
3.39467
0.110958
0.166485
1.18892
0.142067
0.108697
0.235845
3.72627
0.948287
0.133573
0.162248
0.193485
0.116012
3.61092
0.210984
0.166805
0.17059
0.189974
3.45918
0.128051
1.54894
1.82117
0.215817
0.18831
0.134778
3.78033
0.535922
0.158618
4.18754
1.0651
1.03584
0.118133
0.167279
1.38084
4.41613
4.27444
0.0925071
1.09971
0.1301
0.113412
3.45163
3.40342
0.103151
0.00282361
1.19305
1.49045
0.132993
0.103838
3.58821
0.145
3.30945
0.356645
0.235001
4.54656
0.125936
0.141652
0.248823
3.39769
0.138882
0.110971
0.146274
0.162927
0.385873
0.227622
0.883842
0.947536
0.898427
0.163209
0.149299
0.131585
0.39398
0.176282
0.152421
0.987738
0.203857
0.201634
3.73855
3.95149
0.15635
0.123118
0.244154
3.54339
0.161534
1.13965
0.102396
0.118257
0.0305844
0.17729
0.1295
4.03857
0.17832
0.120314
3.1329
0.138489
1.42164
0.161491
0.142854
4.11834
3.97543
0.106722
3.52939
0.137875
1.2247
2.82693e-05
3.84246
0.143079
2.12768
0.157343
3.77815
0.77258
1.47087
2.92973
3.83146
0.164345
4.15713
0.123642
0.134216
0.0703038
3.79163
0.498093
0.11596
1.0187
2.46664
3.41939
0.228818
4.32889
0.181301
0.217398
0.136573
0.676526
0.368592
1.60649
0.156104
0.211015
0.125743
0.196895
0.220895
3.76954
0.144411
0.118234
3.9959
0.791619
0.104088
0.307392
3.92074
0.157602
0.149976
4.01061
0.232437
3.91572
1.37969
0.151065
0.616044
1.08577
0.0286799
0.214669
0.142239
0.109483
0.227357
0.265836
3.82523
0.110428
1.53282
0.374746
0.176432
3.73708
2.04463
0.183866
0.161926
0.100286
0.148648
0.105049
1.95212
3.18859
0.143741
0.167212
0.174799
1.37627
0.232412
1.04086
0.190956
0.160047
0.17164
0.192086
2.11987
0.224099
1.03407
1.30457
0.000968058
1.47981
0.152192
1.12547
0.708235
0.154217
0.160345
0.254115
0.14677
0.204769
1.41255
3.94957
4.17547
3.45783
1.0393
0.0128898
0.104829
1.46227
0.114172
1.45711
4.07256
0.126227
2.56805
1.1128
2.43544
0.254061
0.113017
0.158641
0.133559
3.72725
0.143566
3.70816
1.39432
1.15709
0.127824
3.05293
1.34058
0.167874
0.154361
4.09332
0.20344
0.166021
0.919154
1.0908
0.149354
0.130457
2.7982
0.145447
1.26967
0.167215
0.169795
0.221207
3.40119
0.0244583
0.0385406
0.142504
0.140796
0.3727
0.148756
3.94495
0.500209
0.0428698
0.176585
0.125321
1.05344
0.333274
0.0998393
1.5644
3.85228
0.194335
1.17111
0.155602
3.51005
0.962513
0.379187
0.322554
0.16778
0.137894
0.117025
1.09234
0.749832
0.117132
0.376017
1.58933
3.77111
2.18568
1.20449
0.308705
0.137068
2.91671
0.215405
0.145445
0.132084
0.227954
1.15708
4.28782
0.212254
1.11347
0.148196
1.00966
3.15286
3.85843
4.07475
3.79717
4.27247
0.27406
0.443788
0.19078
0.928235
1.54867
0.136917
0.870337
0.111351
3.09018
0.147743
1.45024
4.09043
3.94835
0.176858
1.33012
0.564558
4.28847
3.87201
0.102591
0.126129
0.16089
0.121626
0.154842
1.49965
0.251281
0.0154096
1.26163
0.116777
0.175084
0.853865
0.208756
0.163878
1.16437
4.44075
0.580721
1.36697
0.138674
0.190526
0.164704
3.81144
1.27155
3.6637
0.163947