/*--------------------------------*- C++ -*----------------------------------*\
  =========                 |
  \\      /  F ield         | OpenFOAM: The Open Source CFD Toolbox
   \\    /   O peration     | Website:  https://openfoam.org
    \\  /    A nd           | Version:  10
     \\/     M anipulation  |
\*---------------------------------------------------------------------------*/
FoamFile
{
    format      ascii;
    class       volScalarField;
    location    "1850";
    object      nut;
}
// * * * * * * * * * * * * * * * * * * * * * * * * * * * * * * * * * * * * * //

dimensions      [0 2 -1 0 0 0 0];

internalField   nonuniform List<scalar> 
10435
(
0.530914
0.524806
0.616265
0.537141
0.558102
0.633165
0.60744
0.623044
0.714255
0.645202
0.534706
0.553715
0.653223
0.615136
0.582228
0.592403
0.652643
0.668445
0.773896
0.535572
0.603398
0.554259
0.593184
0.666567
0.624352
1.01358
1.00633
0.63428
0.936773
0.657402
0.580693
0.539664
0.644299
0.913635
0.616779
0.478923
0.591752
1.00105
0.971885
0.739137
0.66209
0.60672
0.607095
0.529302
0.57859
0.701226
0.649724
0.735539
0.738964
0.572758
0.614028
0.587326
0.939801
0.989693
0.984257
0.915581
0.60051
0.97358
0.749393
0.643574
0.952406
0.513479
0.951714
0.575238
0.583607
0.621973
0.798765
0.850776
0.609621
0.647768
0.998583
1.02735
0.490146
0.608961
0.556078
0.473426
0.623793
0.604179
0.667651
0.584475
0.586497
0.551659
0.905541
0.979837
0.593538
0.458255
0.48338
0.520359
0.464583
0.493406
0.523623
0.528473
0.552064
0.467744
0.503317
0.455451
0.533052
0.509901
0.703914
0.536565
0.485307
0.580719
0.474209
0.51223
0.5921
0.532065
0.555125
0.579475
0.606273
0.569614
0.569007
0.570282
0.554185
0.560185
0.534421
0.549836
0.539423
0.474932
0.521701
0.541984
0.542386
0.390027
0.4906
0.389503
0.550897
0.976478
0.537852
0.355039
0.54658
1.09667
0.359965
0.547712
0.600209
0.606218
1.02932
0.769929
0.46144
0.542581
0.514665
0.546666
0.540604
0.576984
0.84311
0.55717
0.559895
0.459092
0.427227
0.594781
0.61549
0.555222
0.790419
0.577367
0.508915
0.557795
0.613633
0.886266
0.555322
0.503732
0.631066
0.540285
0.563517
0.633458
0.531863
0.572154
0.540235
0.547236
0.652562
0.552459
0.581176
0.556704
0.614415
0.570531
0.929869
0.452445
0.562654
0.536567
0.498611
0.711728
0.564399
0.933255
0.53007
0.618029
0.551245
0.945718
0.571327
0.625817
0.494889
0.601738
0.567172
0.569857
0.545816
0.871676
1.08128
0.489641
0.561803
0.603542
0.556179
0.443116
0.71194
0.59011
0.498901
0.934943
0.643613
0.940875
0.631065
0.539999
0.525491
0.547943
0.926481
0.565444
0.756954
0.600619
0.548394
0.568525
0.970545
0.569258
0.53281
0.832316
1.02281
0.666017
0.941292
0.714646
0.855236
0.411225
0.967182
0.606061
0.99172
0.434816
0.578974
0.409068
0.773817
0.627022
1.00426
0.577517
1.09173
0.690779
0.61272
1.00973
0.605792
0.596615
0.522123
0.947926
0.778983
0.944014
0.535833
0.682328
0.429947
0.60907
0.783925
0.526619
0.871276
0.498982
0.655176
0.569818
0.606171
0.562284
0.745894
0.60548
0.823068
0.861203
0.606392
0.598873
0.985065
0.596871
0.52826
0.758815
0.515501
0.587981
0.886883
0.542574
0.609082
0.628499
0.610823
0.629266
1.04911
0.545624
1.05268
0.551629
0.596793
0.64384
0.647167
0.631883
0.614288
0.444672
0.500122
0.81054
0.57732
0.976107
0.968603
0.924932
0.408251
0.54483
0.910276
0.618434
0.984389
0.991568
0.495005
0.528146
0.547185
0.601086
0.789859
0.598604
0.620185
0.832049
0.543434
0.534208
0.661314
0.578397
0.610725
0.956706
0.558802
0.955973
0.511462
0.586271
0.674717
0.957716
0.912974
0.565384
0.826699
0.554765
0.605791
0.944862
0.503683
0.837503
0.662775
0.641846
1.08576
0.627051
0.809187
1.02933
0.681428
0.887352
0.945521
0.61446
0.562936
0.930107
0.922016
0.829531
0.910587
0.900188
1.09993
0.964457
0.92174
0.936844
0.907845
0.874761
0.896989
1.11684
0.80327
0.686871
0.930866
0.633922
0.995461
0.63488
0.684962
0.758218
0.652252
0.598104
0.970095
0.944552
0.865254
0.998268
0.886988
0.848339
0.945727
1.10012
0.888042
0.563713
1.0727
0.707836
0.991229
1.10771
0.653693
0.786585
0.769459
1.02597
0.983514
1.05924
0.956817
1.03626
1.21629
0.976255
0.651722
0.87314
0.617617
0.707025
0.642941
0.649671
0.73013
0.626703
0.643776
0.391983
0.663156
0.95021
0.968272
0.620248
0.966181
0.654719
1.18385
0.936691
1.10542
0.897002
0.870304
0.599552
1.02629
0.632536
0.579401
0.715293
1.06151
1.12891
0.778863
1.1603
1.07228
0.914271
0.898034
0.82299
0.92915
0.623571
0.989853
1.03773
0.930162
0.870745
0.656456
0.67053
0.735238
0.813042
0.934824
5.01793
5.03731
5.03485
5.02433
5.01805
5.03011
5.08191
5.20542
5.4519
4.46632
4.48178
4.48588
4.48357
4.48385
4.49859
4.54462
4.64534
4.83164
3.93766
3.94963
3.95594
3.95765
3.96098
3.97537
4.01398
4.09415
4.2372
3.43811
3.44727
3.45372
3.45693
3.46116
3.47366
3.5046
3.56694
3.67589
2.97571
2.98271
2.9884
2.99179
2.99579
3.00589
3.02966
3.07674
3.15854
2.5582
2.56356
2.56822
2.5713
2.57474
2.58249
2.60009
2.63429
2.69298
2.19149
2.19574
2.19942
2.20203
2.2049
2.21086
2.22371
2.24782
2.28778
1.87903
1.88233
1.885
1.88712
1.88963
1.8945
1.90421
1.92141
1.94835
1.62121
1.62303
1.62452
1.62614
1.62851
1.63289
1.64082
1.65387
1.67325
1.41428
1.41402
1.41428
1.41551
1.41792
1.42221
1.42923
1.43983
1.45473
1.25092
1.24894
1.24846
1.24958
1.25221
1.25658
1.26305
1.27196
1.28351
1.12253
1.1208
1.12055
1.12195
1.12485
1.12927
1.13525
1.14281
1.15185
1.02373
1.02383
1.02452
1.02634
1.02937
1.03359
1.03894
1.04521
1.05209
0.95198
0.953639
0.955094
0.957041
0.959787
0.963399
0.967769
0.972616
0.97749
0.904442
0.906175
0.907487
0.908887
0.910766
0.91324
0.916195
0.919309
0.922122
0.876851
0.877058
0.877179
0.877277
0.877672
0.878479
0.879566
0.880544
0.880809
0.863505
0.861748
0.860011
0.858215
0.856606
0.855293
0.854143
0.852726
0.850294
0.85967
0.856301
0.852486
0.848421
0.844408
0.840604
0.836924
0.832982
0.828088
0.862512
0.857885
0.851951
0.845368
0.838624
0.831992
0.825481
0.818794
0.811338
0.870414
0.864663
0.856529
0.847193
0.837411
0.827622
0.817961
0.808237
0.797886
0.882517
0.875512
0.864935
0.852547
0.839399
0.826115
0.812985
0.799997
0.78682
0.898536
0.889797
0.876283
0.860429
0.84355
0.826419
0.80946
0.792842
0.776496
0.91887
0.9072
0.889884
0.870031
0.849047
0.827745
0.8066
0.785901
0.76584
0.944898
0.927415
0.904972
0.880577
0.855195
0.82953
0.80395
0.778729
0.754289
0.979518
0.949394
0.920444
0.891303
0.86145
0.831499
0.801512
0.771376
0.741544
3.43827
3.52236
3.61047
3.70206
3.79686
3.89433
3.99406
4.09542
4.19802
4.30122
4.40459
4.5077
4.61
4.71121
4.81075
4.90824
5.00327
5.09536
5.18402
5.26886
5.34925
5.42468
5.49457
5.55828
5.61509
5.66449
5.70636
5.74075
5.76757
5.78652
5.79825
5.80339
5.80243
5.79623
5.78575
5.7721
5.75649
5.74016
5.72441
5.71057
5.6999
5.69362
5.69253
5.69717
5.70766
5.72351
5.7435
5.76599
5.78827
5.80741
5.81993
5.82222
5.81126
5.7842
5.73942
5.67608
5.59466
5.49633
5.38419
3.41282
3.49793
3.58657
3.67844
3.77321
3.87047
3.96981
4.07077
4.17288
4.27568
4.37872
4.48153
4.58368
4.68474
4.78427
4.88184
4.977
5.06929
5.15822
5.24329
5.32398
5.39975
5.47004
5.5343
5.59195
5.64244
5.68535
5.72044
5.7477
5.76739
5.77998
5.78599
5.78599
5.78072
5.77107
5.75809
5.74295
5.7269
5.71128
5.69744
5.68665
5.68008
5.67864
5.68293
5.69305
5.70855
5.72832
5.75057
5.7728
5.79199
5.80477
5.80765
5.79735
5.77113
5.72706
5.66426
5.58293
5.48423
5.37079
3.37247
3.45524
3.54164
3.63142
3.72423
3.81972
3.91746
4.01702
4.11793
4.21976
4.32205
4.42436
4.52623
4.62723
4.72691
4.82482
4.9205
5.01346
5.10321
5.18921
5.27091
5.34775
5.41915
5.48454
5.54332
5.59499
5.63916
5.67559
5.70427
5.72534
5.7392
5.74631
5.7473
5.74288
5.73395
5.72153
5.70677
5.69092
5.67531
5.6613
5.65021
5.64321
5.64129
5.64509
5.65478
5.66999
5.6897
5.71219
5.73505
5.75532
5.76963
5.77451
5.76666
5.7433
5.70243
5.64304
5.56522
5.47001
5.35996
3.3095
3.38957
3.47337
3.56066
3.65115
3.74449
3.8403
3.93817
4.03767
4.13837
4.23983
4.3416
4.44324
4.5443
4.64432
4.74281
4.83931
4.93329
5.02422
5.11154
5.19467
5.27301
5.34597
5.41293
5.47334
5.52667
5.57256
5.61076
5.64119
5.664
5.67947
5.68806
5.69035
5.68709
5.67913
5.66748
5.6533
5.63785
5.62246
5.6085
5.59733
5.59018
5.58807
5.59171
5.60136
5.61675
5.63692
5.66025
5.6844
5.70647
5.72311
5.73083
5.72626
5.70651
5.66948
5.61399
5.53998
5.44837
5.34163
3.22822
3.30523
3.38611
3.47066
3.55861
3.64967
3.74348
3.83966
3.93779
4.03747
4.13825
4.2397
4.34137
4.44278
4.54347
4.64292
4.74062
4.83603
4.92858
5.01766
5.10267
5.18298
5.25796
5.32699
5.3895
5.445
5.49311
5.53356
5.56627
5.5913
5.60891
5.6195
5.62363
5.62201
5.6155
5.60512
5.59199
5.57741
5.56272
5.54934
5.53866
5.53195
5.53033
5.53457
5.54503
5.5615
5.58314
5.60837
5.63492
5.65988
5.67989
5.69136
5.69084
5.67529
5.64244
5.59099
5.52074
5.43251
5.3287
3.1315
3.2051
3.2828
3.36443
3.44977
3.53853
3.6304
3.72501
3.82198
3.92088
4.0213
4.12278
4.22486
4.32704
4.42884
4.52971
4.6291
4.72644
4.8211
4.91247
4.99989
5.08271
5.16028
5.23196
5.29717
5.35543
5.40633
5.44962
5.48517
5.51302
5.53337
5.5466
5.55324
5.55398
5.54968
5.54133
5.53008
5.51721
5.50413
5.49228
5.4831
5.47795
5.47801
5.48416
5.49685
5.51596
5.54072
5.56961
5.60032
5.62992
5.65491
5.67158
5.67627
5.66575
5.63756
5.59024
5.52351
5.43811
5.33646
3.02369
3.09361
3.16794
3.24655
3.32927
3.41582
3.50592
3.5992
3.69531
3.79382
3.89429
3.99626
4.09924
4.20272
4.30617
4.40902
4.51067
4.61052
4.70791
4.80217
4.89263
4.97861
5.05944
5.13446
5.20307
5.26479
5.31922
5.36609
5.40525
5.43671
5.46065
5.47742
5.48755
5.49171
5.49074
5.48565
5.47759
5.46785
5.45788
5.44918
5.44326
5.44157
5.44539
5.45572
5.47313
5.49758
5.52834
5.56387
5.60179
5.63898
5.67175
5.69605
5.7079
5.70378
5.68095
5.63779
5.57394
5.49018
5.38905
2.90964
2.97561
3.04642
3.122
3.20217
3.2867
3.37531
3.46762
3.56328
3.66186
3.76291
3.86592
3.97038
4.07574
4.18143
4.28688
4.39144
4.49446
4.59524
4.69309
4.7873
4.87718
4.96205
5.04125
5.11412
5.18018
5.23906
5.29049
5.33429
5.37048
5.39924
5.42089
5.43594
5.4451
5.44916
5.44923
5.44646
5.44209
5.43769
5.43482
5.43508
5.44006
5.45117
5.46961
5.4961
5.53064
5.57251
5.61999
5.67048
5.72058
5.76616
5.80261
5.82533
5.83017
5.81396
5.77481
5.71238
5.62768
5.52365
2.79737
2.85918
2.92643
2.99907
3.0769
3.15967
3.24707
3.33869
3.43427
3.53347
3.63561
3.74021
3.84671
3.95449
4.06302
4.17159
4.27965
4.3865
4.49129
4.59338
4.69211
4.78669
4.87656
4.96098
5.0391
5.11061
5.17511
5.23239
5.28228
5.32486
5.36039
5.38909
5.41133
5.42788
5.43957
5.44791
5.45404
5.45862
5.46373
5.47106
5.48248
5.49969
5.5242
5.55779
5.60147
5.65508
5.71772
5.78666
5.85898
5.93154
6.00001
6.05857
6.10076
6.12099
6.11497
6.07979
6.01499
5.92248
5.80646
1.07821
1.04792
1.02658
1.00858
0.991926
0.976255
0.96206
0.950408
0.942822
0.941326
0.948417
0.966639
0.998372
1.04577
1.11117
1.1977
1.30826
1.44485
1.60858
1.79994
2.01922
2.26682
2.54357
2.85131
3.19355
1.02359
1.02356
1.01449
1.00186
0.987681
0.973146
0.959417
0.94788
0.940234
0.93855
0.945194
0.96266
0.99349
1.04026
1.10569
1.19257
1.30342
1.44013
1.60383
1.79506
2.01409
2.26137
2.53791
2.84582
3.1891
1.00245
1.00566
1.00116
0.991861
0.979747
0.966358
0.953168
0.941783
0.934032
0.932008
0.938042
0.954661
0.984561
1.03056
1.09552
1.18215
1.29274
1.42897
1.59182
1.78172
1.99882
2.24341
2.51629
2.81924
3.15533
0.988456
0.99136
0.988324
0.980703
0.969915
0.957386
0.94463
0.933328
0.925366
0.922856
0.928143
0.943808
0.972648
1.01761
1.08161
1.1673
1.27682
1.41163
1.57248
1.75959
1.97293
2.21256
2.47908
2.77394
3.09979
0.975921
0.978464
0.976057
0.969372
0.959419
0.947443
0.934916
0.923523
0.91517
0.911989
0.916357
0.930902
0.95849
1.00212
1.06472
1.14888
1.25659
1.38907
1.54685
1.72987
1.93787
2.17071
2.4288
2.71342
3.02699
0.963462
0.966017
0.964198
0.958258
0.94892
0.937289
0.924789
0.913109
0.904169
0.900126
0.903393
0.916646
0.942788
0.984834
1.04569
1.12785
1.23314
1.36258
1.5164
1.69428
1.89568
2.12025
2.36821
2.6407
2.93998
0.95052
0.953696
0.952868
0.947804
0.939028
0.927592
0.914931
0.902769
0.893054
0.887968
0.889968
0.901772
0.926304
0.966575
1.02545
1.1053
1.20781
1.33375
1.48306
1.65511
1.84905
2.06425
2.30072
2.5595
2.84282
0.936064
0.941523
0.942524
0.938624
0.930397
0.919007
0.905995
0.893178
0.882541
0.876268
0.876873
0.887112
0.909921
0.948307
1.00509
1.08253
1.18214
1.30445
1.44912
1.61515
1.80134
2.00667
2.23083
2.47475
2.74051
0.920844
0.930558
0.934236
0.931627
0.923793
0.912219
0.898644
0.885068
0.873457
0.865923
0.865078
0.873706
0.894726
0.931212
0.98596
1.06111
1.15802
1.27701
1.41741
1.5779
1.75687
1.95278
2.16473
2.39399
2.64121
0.652647
0.652486
0.395942
0.617122
1.04915
0.914293
3.72017
1.33326
0.388244
4.21606
0.279517
0.503582
0.954961
0.560294
3.43885
3.47885
0.325049
0.625802
6.26763
1.78614
2.63291
4.59199
0.31846
0.327736
0.552903
1.50116
0.611384
0.649889
0.55743
0.315874
3.94925
1.75479
0.567425
1.23222
0.311472
1.90542
1.23345
3.42369
1.23507
0.75168
0.422954
0.163621
3.24749
0.686482
0.524196
5.4943
0.303038
0.338659
0.491265
0.631216
0.295216
0.409225
1.97221
0.630262
3.58224
0.397151
0.568512
2.3805
0.580826
0.377134
1.9249
0.405116
0.997919
4.22367
1.43573
0.779599
1.07466
0.371645
0.930413
0.57098
0.411978
5.05103
1.06452
1.94039
0.439606
2.6381
2.37105
0.361593
0.522861
0.634006
1.27492
1.99595
1.82432
0.259754
1.35711
1.73573
1.33668
0.368176
0.560245
0.72298
0.423118
0.9059
5.8295
0.507466
1.00698
0.282639
1.44122
0.279495
0.328457
0.379557
0.7392
0.431067
0.742794
5.28906
0.588085
0.87229
0.330142
1.36115
0.171161
0.319022
4.36124
0.27872
0.353948
5.31183
2.09737
0.497324
0.479081
0.81453
1.30678
0.243243
0.08794
0.283804
0.314451
0.535175
0.553359
3.0162
0.412444
2.06298
0.584425
0.339874
1.65324
1.98649
0.556357
1.39741
0.775885
1.25706
0.482762
0.721788
2.37796
1.69591
5.46684
1.0799
0.374878
0.105582
0.533482
3.6743
0.605233
2.57158
3.4154
0.308401
1.2796
1.01034
0.606535
4.29093
0.343843
0.260468
0.767728
0.819773
2.76525
1.63348
3.33343
0.4017
3.58712
0.284895
4.60907
0.272428
0.565091
0.569582
4.0823
0.755844
0.5634
4.41608
0.366646
0.265208
1.13597
0.84723
2.38745
0.562275
0.432086
5.41258
1.9287
1.6635
1.78994
2.36277
0.886365
0.618463
0.277278
0.166578
0.62202
3.10231
0.353421
0.377995
0.559681
0.994116
3.96258
0.610324
0.430299
4.47796
0.516824
0.602151
0.873684
4.74459
1.97014
3.06876
1.90364
2.60661
1.0036
0.724663
0.49753
0.918817
0.579413
0.429639
1.75083
1.8872
0.966934
0.403762
0.808173
0.929546
5.30399
0.747276
0.611987
0.190696
0.320161
0.423353
0.524
0.458324
0.580488
0.32948
0.169368
1.06773
0.255872
2.01175
1.4899
0.848654
1.21259
3.57489
3.08535
0.620029
2.34395
4.45533
2.56121
1.81552
4.23737
0.800523
1.12751
1.69886
1.97568
0.66664
3.4827
3.21332
0.163166
0.869883
1.54307
0.506244
0.791852
0.576167
0.340796
2.46385
2.85321
6.07843
0.314648
0.613161
2.81705
0.353858
2.0643
0.509442
3.1805
0.586081
3.76244
0.61549
2.536
0.558915
0.380584
0.813639
6.58047
0.582761
0.908892
0.364622
0.575499
0.37567
0.796131
1.16501
0.342707
5.49275
0.428072
2.54135
0.875033
0.605014
0.316237
0.350116
4.38429
3.74265
0.110025
0.316951
0.939388
0.412269
0.421018
0.991806
1.55422
0.406479
0.380959
3.47609
0.440394
3.1033
0.437362
3.96099
2.65877
1.40651
1.69083
2.1889
5.12594
5.7939
0.594211
0.564096
0.339539
0.877515
0.317815
1.48238
0.598596
0.905091
2.7731
2.82162
0.383517
3.97883
1.381
0.54753
0.481506
1.4195
1.02879
2.3523
4.5889
3.86716
0.596724
4.07141
0.382659
1.75847
2.38583
1.95665
0.124011
0.327872
0.41317
0.534157
0.392645
5.82013
2.11877
0.781111
0.762262
0.808548
1.11821
0.285979
0.567503
5.68293
0.171149
2.89986
0.321478
0.499168
0.716261
0.65787
4.06316
0.290052
0.505652
0.303182
2.45051
0.462504
0.170479
1.16901
4.07736
0.332468
2.77144
0.633262
5.62027
4.23614
0.573915
0.453893
0.963442
0.413804
0.266834
5.43257
1.27497
3.51681
0.428908
4.15343
0.556223
0.684453
0.663481
0.835952
4.80618
1.80835
0.281887
0.352587
3.23879
2.72753
0.725729
0.562488
2.06487
5.20671
3.87319
0.573552
0.812411
0.557218
1.3829
3.43733
1.28165
0.653944
0.539881
0.104145
3.475
0.705781
0.582539
2.51644
0.573863
2.72717
0.404515
2.31306
2.45525
0.336406
0.472561
0.286734
0.879137
0.895575
4.82324
1.3319
0.671456
0.729896
4.22838
0.366811
0.106019
0.434535
1.68791
1.88687
3.01105
0.603538
0.749024
0.523478
4.25512
4.00653
4.40833
0.108807
0.880657
0.194972
1.86182
4.44587
0.328378
0.609696
0.927871
0.471501
0.637384
0.532493
0.567079
0.517916
0.457141
3.13557
3.50287
0.412745
5.80072
0.57978
0.284136
1.96866
0.388138
2.24924
3.83923
0.908329
0.573808
1.70471
0.374435
1.22876
0.682733
0.41703
1.97529
0.287036
0.701427
1.09115
0.303962
0.213319
0.574983
1.1008
0.807115
0.819561
2.62542
2.60626
1.12268
1.57596
0.132011
0.516806
0.258777
1.20067
2.29127
5.0626
0.615502
5.28069
3.87366
3.61242
0.280609
0.569279
2.69155
0.655892
3.76801
2.68928
5.00564
0.628246
3.32945
4.28373
2.58786
0.759218
2.30452
1.36425
3.00569
3.12793
3.58558
1.79788
4.46463
1.42495
1.12691
0.811881
0.534739
0.331612
0.455016
0.462904
0.372663
2.74015
6.24155
0.35121
1.77181
0.553046
1.1575
5.30827
0.369031
0.457432
2.36306
4.63693
0.833555
5.36447
0.557748
0.475616
0.232821
0.593794
3.50732
0.429926
0.511784
3.71703
0.926872
0.318002
4.47441
0.341682
0.202102
0.428261
3.00357
0.589929
2.75833
0.360175
1.38842
1.75214
0.583413
0.5078
0.46934
0.325693
0.330901
5.91528
1.03678
0.485331
1.56486
1.52256
3.55766
1.02104
0.31118
4.9726
2.60825
0.566993
1.85351
0.343075
0.578457
5.29464
2.76032
0.678883
0.897718
0.356594
0.295324
0.486075
0.619651
0.34952
1.77719
1.75772
4.68323
6.19823
1.32359
0.574393
4.4031
0.880322
0.667174
4.72298
0.890322
1.36332
4.17202
4.01273
5.79453
0.577234
1.1448
0.4587
1.12872
1.77949
0.393081
0.63146
0.194686
0.41253
2.09638
0.840046
2.46905
1.79135
0.587823
2.90394
3.46225
1.39854
1.71514
4.04889
0.83641
2.21344
0.626915
0.783095
0.438188
4.51576
1.15875
2.80702
5.90271
1.14213
0.55185
0.381817
0.303315
0.650277
0.58679
0.5434
0.57194
0.98187
0.36559
3.72062
0.246268
2.32005
0.567264
0.299311
0.925572
3.64659
2.49167
0.546784
0.764736
4.31466
0.951626
1.34667
0.347113
0.597071
0.383939
4.04868
2.95368
0.261315
4.51533
0.155837
5.32608
1.99488
0.297002
6.22195
2.59353
2.5137
0.473
0.634142
0.273357
0.0720144
1.05375
1.16251
0.457564
0.528101
0.789313
1.91559
0.55084
6.54799
1.2418
0.381483
0.158106
2.29403
1.59555
1.88014
5.59637
2.77341
0.371335
2.11565
0.340952
1.80675
2.96792
0.547598
5.28831
0.536442
0.355968
1.87081
3.39596
0.78457
0.287532
1.38428
5.88207
3.24369
1.23578
0.637712
2.55486
4.64514
0.58479
0.340121
0.91507
5.11897
5.29403
0.362645
3.58489
0.927535
0.346546
3.71423
0.623212
0.309704
6.56607
0.808471
1.15867
0.125154
3.47844
0.779101
3.45954
1.96114
1.01041
6.33744
2.0428
0.420374
3.24901
1.39554
1.57059
0.802488
1.52048
0.44129
6.32238
0.433436
3.75671
0.561011
2.58852
0.444406
0.313069
0.561603
0.727708
3.32165
0.118246
0.311405
3.3383
0.866519
0.647145
5.97556
2.61977
0.604347
0.608478
1.52671
2.53017
0.296865
0.446043
2.25986
3.93853
4.09981
1.55275
0.447925
0.0592547
3.05005
0.513386
0.156527
0.658151
0.582627
0.311558
4.13434
0.581391
4.15535
0.233781
0.138601
0.831583
0.904395
0.728032
1.52738
3.23266
0.419195
3.2795
0.710498
3.45823
3.36087
0.420124
0.732214
0.385253
3.54288
4.56823
0.564804
4.34748
1.76839
1.30264
6.08891
5.61834
2.57307
0.906881
0.176043
5.3248
0.289826
0.452446
2.85747
2.33553
2.6586
0.939125
3.59591
0.4578
1.6128
0.564333
5.7508
0.317282
0.281266
1.29072
0.472312
0.614504
0.39568
1.40434
1.66618
0.619678
0.93383
0.426205
0.563322
5.3483
1.39559
0.368427
0.596488
0.646966
4.3647
1.57501
0.326547
2.63763
1.37288
3.37754
1.06671
0.653798
2.86933
0.189326
0.289076
0.665913
6.43433
2.97323
0.500083
6.26559
2.32679
0.246998
2.58014
1.28678
0.281218
0.907205
4.99735
5.91768
4.77224
0.903296
2.4062
0.375028
1.21948
2.11169
3.26685
2.96765
1.73098
0.421437
0.248951
0.935457
3.59011
0.121765
0.49099
0.630124
0.254904
1.02295
2.06274
3.7539
0.0748627
2.91345
3.25097
0.551039
0.533954
2.56054
0.379193
0.365168
0.298551
6.12347
0.599648
2.50853
5.67093
3.51806
2.05776
0.620047
2.15851
2.58148
0.743139
2.55791
0.449546
0.1461
0.257001
0.60756
0.577557
3.08692
3.64289
0.591543
0.784192
6.10198
0.387304
0.345218
0.310692
0.982542
2.18958
0.64942
1.12955
0.659929
2.75005
0.441284
1.08852
0.506622
1.07598
0.559032
3.82203
2.32703
0.64731
0.102918
0.678942
6.07784
0.408892
0.614016
0.446662
0.510833
5.03807
0.639995
2.66088
0.650852
0.649967
2.46474
2.52351
2.92407
2.74622
0.272398
2.7081
0.290358
0.196403
0.414478
5.5754
3.17288
6.31576
1.7732
1.17657
0.475296
0.481911
0.635298
2.54052
1.65157
0.638571
4.29098
1.8489
0.778651
1.30607
0.493816
0.253773
0.376867
4.3527
3.34481
4.49967
1.86919
0.493656
0.87063
0.722839
3.2198
3.53213
0.66356
0.558477
1.5312
5.10799
0.644389
0.831367
2.38813
1.04354
0.317721
0.421142
1.77779
0.486971
3.64566
0.297703
2.11312
0.2729
0.53615
0.90111
0.658719
0.373672
3.64762
0.285355
1.02805
0.608199
0.498712
3.30321
0.417514
0.455869
3.79878
4.00075
0.491633
0.31025
2.91218
1.69976
0.400097
3.58388
0.406713
2.16282
0.283443
0.32102
0.213872
0.291833
2.79635
0.52085
1.31815
1.23544
0.870576
2.46415
3.57877
0.221325
6.1194
2.09837
1.68217
5.95378
0.292515
0.391553
3.83382
0.342681
4.09391
3.36378
4.00701
0.840154
0.297469
0.265456
5.82852
1.20771
0.445364
4.42909
0.662627
0.472794
0.469526
0.67749
1.39108
0.593365
3.13143
0.411392
4.34298
6.21412
0.807999
4.3527
1.00464
0.506577
0.355551
0.632372
2.56223
1.55489
4.36043
0.507052
0.809662
2.31202
3.4339
0.584455
0.299226
0.293005
2.38355
2.56261
0.846104
0.457064
5.01749
0.432928
0.544748
0.32507
0.585255
0.52671
0.682789
0.750285
4.76953
4.22119
0.301672
0.609779
6.48567
0.603342
1.27783
1.50872
1.05672
2.92836
1.96949
0.203326
1.81873
2.35082
1.26392
4.21986
0.52265
0.267829
2.27002
0.780855
5.17762
0.533485
0.635583
0.845951
0.378489
1.40352
6.05115
1.26656
2.39469
1.77705
4.26234
2.32703
1.23242
0.180822
0.580793
2.2493
0.466052
2.85501
6.28403
0.813853
2.21486
0.465814
0.444381
4.07355
5.74905
2.67865
1.14741
0.631943
0.567874
0.58383
0.243634
4.5504
0.275822
0.741357
0.655981
0.554497
0.141981
0.665404
0.420156
0.13013
1.62983
0.550616
5.56608
0.385185
1.5321
3.03726
3.46884
2.50667
5.71088
1.69036
2.2186
1.11226
0.324802
0.57894
0.480354
0.667001
0.832966
0.608479
1.85221
0.444077
1.97175
1.55719
0.290823
0.214542
0.816093
3.18247
2.39109
0.254749
0.543393
0.487698
0.800333
4.27163
0.647348
0.33985
0.392179
0.291784
0.24836
0.331188
0.283146
0.7237
0.898941
0.416992
0.307022
0.501924
3.01433
0.452913
5.67944
0.278392
1.12633
2.96394
0.450354
3.59904
0.725792
0.607458
2.27063
1.48367
0.726035
5.30403
0.705644
0.56208
0.516841
5.30442
0.284775
0.344817
3.2843
0.532712
0.326612
0.537021
0.288575
0.446735
1.22027
3.62662
0.516199
0.43373
1.58788
2.32552
3.37512
3.96413
2.11529
5.64875
2.71774
1.7961
1.04218
6.1475
4.26004
0.644865
2.05372
0.528596
0.284908
1.85901
2.1655
2.90999
0.869072
4.94301
0.156539
0.295798
5.64348
0.270468
0.366664
5.26117
2.79049
0.238699
0.886074
2.12335
0.441172
2.09599
2.77498
5.43776
3.32876
2.78552
2.93181
0.582318
5.47813
0.583092
0.619781
2.30493
0.108581
2.80456
0.580825
1.73829
0.598463
0.568485
1.09996
0.4412
0.387084
0.266054
0.45018
4.16192
0.384381
0.615096
6.49972
0.987741
3.49622
0.358296
1.52011
0.793971
3.41105
3.8106
0.555002
0.530006
0.435967
4.93608
1.74812
6.24334
0.454841
1.78678
0.602727
3.0924
1.95163
0.262134
1.23568
1.64892
2.7095
0.497241
0.317311
4.35558
0.672245
3.81583
0.746109
1.6946
3.88611
4.91409
2.22343
0.562413
6.03843
0.861522
0.538149
0.642554
0.950697
0.633922
0.434485
6.16257
2.49495
0.556442
5.74916
0.938442
2.605
2.33385
3.45719
0.682365
0.356852
0.556634
2.13162
0.386246
1.27147
4.94512
0.865715
4.45513
2.65787
0.111223
3.12897
0.559842
2.19029
0.560526
0.296736
3.04968
0.800605
4.22897
0.459273
0.947601
5.55012
3.08585
0.502471
0.303376
4.63157
5.52921
0.653554
0.494888
0.64405
4.3337
0.923138
0.995491
0.366816
2.33591
0.65133
0.835007
0.527911
0.697382
0.625001
0.917024
1.32853
2.12215
0.44044
2.32158
0.727824
3.18799
0.584365
1.58447
2.19838
0.844137
0.726925
0.52722
0.250161
0.520775
0.325985
0.279617
4.62257
2.75841
0.996096
1.81761
0.517901
0.734016
0.589364
4.56321
4.79768
4.03509
0.452052
0.423706
6.07802
4.44184
0.42507
5.01194
0.478363
0.375481
0.40929
0.388326
2.18424
0.495639
5.17559
1.339
1.07088
0.283712
0.529266
0.421257
1.91399
0.60725
0.940161
2.32893
1.05537
1.99712
0.757217
0.489771
0.461771
6.39483
0.422053
2.5782
0.420394
3.13012
0.475844
0.649514
0.380072
5.20888
2.14739
1.60793
5.39271
5.47565
1.80827
5.92199
0.573999
0.518836
5.59148
0.760938
1.64736
0.277872
0.546859
0.334643
1.05159
0.556656
0.885014
0.800845
1.40432
0.465768
0.502202
0.757207
5.65552
0.670265
4.67457
0.820765
4.72677
0.931047
5.63218
1.40226
0.645773
1.99748
5.53228
0.478104
3.49043
3.76601
0.302382
0.647344
2.31168
0.485383
0.546833
3.46888
0.50109
5.28397
2.88886
5.11976
5.00796
2.36458
1.38324
0.440924
0.740151
4.54633
0.530668
0.564904
2.25317
4.29995
2.15916
5.02786
4.16469
0.178845
3.36262
0.52871
2.11421
5.82262
5.02343
0.607582
2.54142
0.477853
0.573821
0.150887
0.473962
4.89171
0.437075
0.463184
0.532658
6.54503
0.0325307
1.89154
0.734823
4.97187
0.38495
3.17305
0.325367
0.757351
0.893325
0.416083
5.96453
0.561817
0.954967
4.33916
2.82225
0.369432
3.94517
1.26641
5.51821
3.77634
5.2335
2.59483
0.539538
0.436558
4.35641
4.50278
0.448895
4.21383
4.63398
0.294378
0.642064
0.806174
1.24783
1.07222
5.04929
2.6829
1.07588
0.0809532
0.627168
5.42876
0.366939
1.74605
1.42087
0.8466
0.835657
2.76964
0.360643
1.9962
0.396344
0.358432
0.112299
1.89435
5.33164
4.2977
0.491342
3.60247
0.482475
0.497062
1.16903
5.27734
0.303919
0.955946
0.419882
0.814599
0.6828
0.523534
0.822086
2.82962
3.88498
0.876031
0.544745
5.24285
3.95361
0.579888
5.46023
0.666584
0.892632
0.522075
0.524868
0.468718
4.26845
1.42727
0.276951
6.15494
2.34936
0.385688
2.5947
1.05454
0.661463
3.48679
0.532703
1.70863
1.37894
0.290794
2.58348
0.397848
1.67929
0.622
0.853026
0.509355
0.529803
0.311525
3.34805
2.42616
0.588433
0.430749
1.61659
0.504878
0.753872
3.60238
0.69276
2.58255
0.640058
5.24728
2.73242
0.376601
1.30633
0.656713
0.505319
0.481764
3.32702
0.360147
5.65611
0.274192
2.7789
2.5433
4.55698
0.495457
3.56594
3.93132
0.214548
0.757783
0.725119
0.734713
0.175803
0.573327
2.53483
2.92583
2.48271
1.24449
2.68249
1.40771
4.43468
3.66137
4.3157
0.309973
0.605913
0.559196
4.18733
2.32797
0.490835
4.9275
0.322165
3.03766
0.386452
4.17921
0.442578
0.586487
0.273467
0.619366
1.86161
1.50103
0.804219
0.575223
4.13985
2.71618
0.603295
0.624606
2.92985
2.22159
0.601642
1.20281
1.43863
0.256227
0.708833
1.54328
2.76142
5.20124
0.311239
3.31814
0.538501
0.874081
0.660454
2.94558
2.4464
0.38287
0.454707
0.97966
3.36818
0.649133
2.56339
1.1186
0.637772
0.406049
2.86237
2.16569
2.6279
4.25613
0.585947
0.519905
0.550412
4.45188
2.14914
0.933412
0.457881
5.11605
4.30975
0.324509
0.707631
0.533922
1.17612
0.417188
1.48184
1.1132
0.44866
2.64026
0.609813
0.964141
2.77017
3.47221
0.484984
0.42528
0.296796
2.0382
4.58747
6.5579
0.363771
0.443744
0.463982
0.123799
3.2123
4.2013
2.42601
0.933979
0.429802
2.56619
0.468413
0.461868
0.746151
0.591024
4.83726
4.1811
0.651824
0.666893
1.74592
1.31997
0.950879
5.74383
1.68158
0.848692
2.42076
1.99578
2.89905
5.39604
5.43133
1.84293
0.143627
4.05469
2.50479
2.5035
0.910359
0.941901
0.521871
0.59153
1.20006
0.478695
0.640565
0.337165
1.47647
2.72927
0.215011
6.24185
0.11728
4.20307
5.41402
0.370022
4.72974
0.999465
0.479512
1.97693
3.56383
2.86252
2.87007
0.604927
0.562349
1.04098
0.44576
3.00702
2.94034
0.00576768
0.65224
0.811029
0.607818
3.083
0.444151
0.737221
2.56034
0.278649
0.323897
0.719202
0.485606
0.257077
0.441372
0.304485
0.428361
0.29458
0.706031
2.36094
0.263231
0.606663
5.23819
0.473305
0.537325
4.47077
1.8268
2.22168
0.358482
4.54327
3.61727
0.845508
3.9908
0.264031
4.89916
0.651147
2.43213
5.88245
0.344523
2.47052
0.87606
0.674165
0.391427
5.4972
4.20678
0.439719
4.86068
0.485663
3.51568
2.86108
0.898975
1.96231
0.179953
4.90335
1.93924
1.07567
4.88872
0.676392
0.566576
1.21467
1.56124
0.579891
0.601501
0.422185
0.573085
0.582865
1.49795
0.506536
0.893196
1.0015
0.866987
0.617132
2.56198
3.06348
3.61202
3.00928
0.761877
1.96317
1.39431
0.596915
5.67572
5.57029
0.595765
0.680312
1.90335
3.21827
0.0357448
3.7041
5.79144
2.74069
2.35796
2.70109
2.83243
0.859738
0.850083
4.62806
3.20307
0.443617
0.594948
0.444312
2.28835
0.0439478
0.992625
3.029
1.48478
4.13151
0.371002
5.05044
0.267249
2.59858
0.256927
0.666765
1.34228
3.1301
2.25102
0.655878
2.18998
0.511379
0.290807
0.25195
0.539271
0.286982
3.31131
2.85516
0.348987
0.539564
4.65183
2.93162
2.96341
2.46093
0.8568
0.279482
0.280265
2.28907
3.0749
5.71362
3.53193
5.37334
0.491674
0.102349
0.183334
2.47814
2.13261
0.611503
0.823821
0.392044
0.782974
0.172874
4.5937
0.254037
2.4004
0.685287
0.608564
4.26421
0.409194
0.611378
2.83862
1.70053
0.423513
2.5057
0.419312
0.592603
2.92044
0.630986
0.939926
1.33096
1.19096
3.54989
0.602937
2.79677
0.549426
0.828246
2.30372
1.03681
6.0341
0.308967
0.618171
2.5143
1.22017
4.47024
1.88734
0.424543
4.7703
2.7119
5.88858
2.59689
0.375727
0.397603
0.54638
0.403463
0.577504
0.571354
0.263461
0.641012
2.59757
4.08194
0.855262
2.53806
1.04088
0.293054
4.25287
2.8036
0.504565
0.386717
0.595003
3.30363
0.622383
0.583006
0.41698
0.509043
0.464479
1.20288
5.04925
1.23492
3.28653
0.556668
0.0867738
3.07975
0.998246
0.718314
0.760705
4.30792
5.72822
2.8022
0.480876
0.619687
3.38287
1.45136
1.02335
1.5076
0.43399
2.79298
0.48678
2.72094
2.64904
4.81009
0.42299
0.634916
2.59195
3.27663
0.405013
0.708316
0.546821
1.39235
0.133111
0.167661
0.698879
0.581121
3.12673
5.66198
0.429551
4.02731
2.32249
0.28267
2.0354
3.08718
3.35254
0.520285
4.3327
5.51947
0.269951
6.37714
1.97134
3.27225
0.249385
2.57266
4.60476
3.58621
0.999319
6.20327
2.56115
0.593741
2.78971
5.47061
0.464952
4.01019
0.276883
3.84137
0.495129
2.65969
0.36894
0.569115
6.24107
0.630627
3.5092
2.91196
1.94721
0.588682
0.318278
0.730531
2.57064
0.289367
0.285159
2.38888
0.303822
0.937326
0.329363
0.510403
0.58004
0.937153
5.01853
1.33206
0.902022
1.93545
1.09024
0.597954
2.71715
0.795272
0.349798
0.310598
2.58414
0.523834
0.521362
0.206979
1.67915
0.385192
0.54757
4.49105