/*--------------------------------*- C++ -*----------------------------------*\
  =========                 |
  \\      /  F ield         | OpenFOAM: The Open Source CFD Toolbox
   \\    /   O peration     | Website:  https://openfoam.org
    \\  /    A nd           | Version:  10
     \\/     M anipulation  |
\*---------------------------------------------------------------------------*/
FoamFile
{
    format      ascii;
    class       volScalarField;
    location    "1850";
    object      p;
}
// * * * * * * * * * * * * * * * * * * * * * * * * * * * * * * * * * * * * * //

dimensions      [0 2 -2 0 0 0 0];

internalField   nonuniform List<scalar> 
10435
(
-0.00165043
-3.24632
-12.096
-4.76827
-10.2789
-12.8533
-12.0118
-12.2551
-12.7012
-11.6818
-5.64409
-8.59282
-11.5101
3.35609
3.15018
-11.9671
3.44928
-11.469
-12.7065
-0.744446
-11.8153
-4.0675
-11.6854
-10.161
-12.4613
3.46869
3.49068
-11.6051
2.9994
-12.4502
-11.8542
-6.73192
-12.3554
3.32244
-11.6642
0.0825486
-11.5337
2.42516
3.88127
-11.5926
-13.2978
-11.1922
3.86483
-2.89
-11.5832
-11.1342
-12.4202
3.6195
-12.8241
-3.83083
-12.1061
-11.9244
3.45579
2.74633
4.11268
2.76076
-11.1329
3.17695
3.41745
-11.3231
3.59128
-2.09286
3.34561
-11.2607
-11.7664
-11.8865
3.40687
3.36489
-12.0595
-9.26166
3.26679
2.91983
4.30662
-11.7665
2.82386
3.8406
-8.14561
-11.9127
-12.7085
2.84979
-5.60119
0.762468
3.5692
3.05468
-6.48796
1.02536
0.330178
-3.42133
2.43233
-0.568632
-4.43236
-5.57081
0.0833367
1.79156
-1.48078
1.04213
-6.38946
3.059
3.69627
-7.98386
2.36
-11.7852
1.12814
-2.43295
-12.0188
-3.83661
-0.624459
-4.66075
-7.3789
2.46942
-3.00443
-11.0444
1.41836
1.92874
-7.13453
-3.19827
-8.53052
0.149642
-3.98602
-7.70763
-8.76085
4.19914
-0.825866
2.90058
-8.51315
3.55211
-7.07249
3.94369
-9.64284
2.55221
3.57501
-7.34012
-11.9969
3.13485
3.07011
3.99846
1.27649
-5.55356
-2.8961
-2.34459
-1.53276
-11.6988
3.49359
-10.7835
-4.86844
3.47492
2.2365
-11.9516
3.58028
-9.9525
3.51777
-11.1187
-0.289744
-10.668
-12.1377
3.50183
-9.51594
-1.83389
-12.0934
-4.83703
-11.0884
3.35023
-6.19677
-7.36858
2.47233
-9.88301
-12.3068
-7.07696
-9.14818
-10.7999
-11.7062
3.52805
2.63271
3.14544
-9.67687
-3.51214
-0.984215
3.49984
-2.14814
3.32401
-4.43368
-12.1589
-9.68671
3.37711
-11.0032
4.01604
3.32303
-11.8507
-11.2969
-11.2315
-8.9369
3.62455
3.39021
0.226779
-10.3866
-11.9648
3.83091
1.79053
3.59656
-11.759
2.75048
3.88315
-11.6152
3.26299
-11.7995
-8.16058
-5.15041
-6.34227
3.17665
-5.70015
3.89812
-12.1746
-9.68127
-8.28214
3.73644
3.46158
1.87738
3.64809
2.11981
3.49177
3.25614
3.27936
3.56274
3.00835
3.27152
-11.8307
2.35553
2.43742
-11.6237
3.60915
3.52117
-12.0467
2.26672
-10.7153
2.6593
3.59461
-10.6681
2.77026
-9.92737
-11.8693
-1.99903
3.51579
3.61734
2.73365
-7.50653
-12.7022
1.95119
-12.0688
1.33459
-2.21836
1.05065
1.83095
-12.0278
-6.53431
-11.9877
-10.923
0.451699
-11.859
3.45897
3.36156
-11.336
-12.0044
3.02411
-8.2471
1.38073
3.77572
-1.12632
-11.5699
3.87669
-8.85077
-11.6308
-12.2116
-11.6796
-11.2664
1.9527
-8.18927
3.26887
-9.70395
-11.6304
-12.5161
-12.3622
3.48561
-11.6975
2.56988
1.25763
4.01995
-11.2671
2.6415
3.13023
3.06133
2.81588
-6.14282
3.03812
-12.2004
2.95019
0.31004
3.59757
0.719695
-8.80476
-12.1571
3.50441
-9.19578
-11.5797
1.09973
-7.95137
3.26133
3.81046
-10.1996
-12.169
3.17431
-1.38884
2.97651
-0.971239
-12.1119
-12.1023
0.261792
3.70721
-11.083
3.45712
-7.80121
-12.5707
2.65973
0.529286
3.75817
-12.805
-11.9477
1.48633
-11.4416
3.5731
3.13441
-11.8679
3.10275
3.18036
-11.9271
-10.3016
3.23551
2.93657
2.3755
3.39914
2.57782
0.917258
3.49723
3.78869
1.0611
0.352441
2.8997
3.2959
3.98664
3.86825
-12.8233
3.28631
-12.511
1.00841
-11.3787
-13.1212
-13.9337
-11.3665
-11.5481
2.74473
3.24511
2.41155
3.82288
2.62113
3.4573
2.91489
0.590759
3.14517
-9.13369
3.31893
-12.8827
3.77184
0.294147
-11.0477
-14.2842
3.93085
-0.336488
2.72095
3.02167
3.21445
3.21402
-1.29166
2.8307
-12.4597
3.38811
-12.158
-13.5975
-11.2417
-11.181
-13.806
-11.4706
-11.8782
3.42468
3.64221
3.04481
3.39523
-12.0128
3.08389
-12.032
0.0861265
3.07782
-0.937835
3.61222
3.37912
-12.3562
2.52322
-12.2869
-9.71417
3.78584
3.11625
1.10646
-12.4971
0.961456
3.31601
3.0446
2.66025
3.61373
3.35558
-11.7959
1.24278
2.73518
3.01794
3.72735
-12.4073
3.83922
4.11045
-13.4992
3.41963
17.964
10.2712
12.2997
10.4324
11.0528
10.4178
10.4758
10.3021
9.70938
15.7141
9.31237
10.9251
9.63818
10.0012
9.60782
9.62893
9.4986
9.39947
13.6131
8.29792
9.77292
8.94323
9.17164
8.93731
8.93507
8.8466
8.73935
12.0083
7.63626
8.83429
8.29974
8.46187
8.33312
8.33627
8.29313
8.20847
10.5729
7.15442
8.05186
7.73388
7.86255
7.80964
7.83212
7.83675
7.77719
9.29717
6.78903
7.41053
7.25739
7.36678
7.36716
7.40784
7.44143
7.43044
8.24344
6.56111
6.9016
6.86726
6.96334
7.00208
7.06096
7.12147
7.1577
7.42361
6.42953
6.50385
6.5494
6.63606
6.70099
6.77337
6.85304
6.86114
6.7752
6.2202
6.17002
6.28141
6.36806
6.45146
6.53382
6.61923
6.68263
6.20352
5.87035
5.87654
6.05039
6.14625
6.2428
6.33358
6.42644
6.49949
5.7674
5.56133
5.65758
5.86195
5.9646
6.06635
6.16142
6.25685
6.35487
5.58473
5.4276
5.54682
5.72133
5.81724
5.91265
6.00267
6.08749
6.21398
5.51522
5.41426
5.50397
5.61477
5.69538
5.77971
5.86594
5.95838
6.05354
5.41078
5.42494
5.47885
5.52177
5.58439
5.65367
5.73048
5.8167
5.8813
5.33729
5.42461
5.44811
5.42906
5.47629
5.53287
5.60446
5.68772
5.76966
5.2552
5.36388
5.38637
5.32328
5.36107
5.40761
5.47288
5.54766
5.63416
5.06872
5.17682
5.25827
5.19245
5.2324
5.27476
5.33527
5.39997
5.49706
4.85967
4.91422
5.08859
5.04348
5.09313
5.1379
5.20047
5.27034
5.37346
4.7058
4.6806
4.91267
4.88803
4.94547
4.99174
5.05166
5.11869
5.19249
4.57397
4.49451
4.74061
4.73262
4.79342
4.83986
4.89509
4.95581
5.02118
4.409
4.33731
4.57018
4.58069
4.64125
4.68837
4.74244
4.80682
4.86189
4.16891
4.21045
4.3975
4.43095
4.48547
4.52876
4.57595
4.63344
4.62099
3.81525
4.17336
4.24282
4.30066
4.34487
4.38137
4.42269
4.46698
4.43547
3.40608
4.20772
4.04026
4.10977
4.14264
4.17561
4.22842
4.27396
4.22994
3.2498
4.50506
4.20166
4.26252
4.25842
4.21787
4.25259
4.29433
3.89519
13.5212
13.8125
14.3316
14.8879
15.4863
16.1338
16.8161
17.5321
18.2736
19.0277
19.7863
20.5391
21.2694
21.9734
22.6409
23.2576
23.821
24.3218
24.7495
25.1007
25.3718
25.5871
25.8376
26.0064
25.797
25.4453
25.3521
25.6478
26.2173
26.7351
27.2432
27.7493
28.007
28.0929
28.1166
28.0613
27.9237
27.732
27.4885
27.2138
26.914
26.5952
26.2552
25.8996
25.5286
25.1281
24.7039
24.2561
23.7722
23.2692
22.7562
22.2384
21.73
21.2395
20.7677
20.3323
19.9161
19.5237
19.3134
4.97749
4.80688
4.76124
4.70153
4.62336
4.53906
4.47011
4.42336
4.40104
4.40579
4.4396
4.50291
4.59496
4.71403
4.85827
5.0261
5.21622
5.42981
5.67069
5.94584
6.26685
6.6491
7.11489
7.65778
8.31321
8.95026
9.30856
9.33338
8.98895
8.45205
7.99985
7.68142
7.43892
7.24835
7.1048
6.98986
6.89199
6.80521
6.72533
6.65085
6.58153
6.51843
6.46475
6.42447
6.40271
6.40659
6.44325
6.52308
6.6367
6.74918
6.87029
7.04183
7.26261
7.51385
7.8067
8.14226
8.47869
8.81063
9.30658
8.58035
8.82015
9.0479
9.28858
9.53942
9.80097
10.0725
10.3533
10.6423
10.9375
11.2377
11.5405
11.8441
12.1458
12.4443
12.738
13.0262
13.3088
13.5873
13.8633
14.1395
14.418
14.6991
14.9717
15.2168
15.4131
15.5518
15.643
15.6773
15.6373
15.5747
15.5096
15.4344
15.3554
15.2772
15.1997
15.1225
15.0457
14.9691
14.8931
14.8181
14.744
14.6718
14.6014
14.5332
14.4678
14.4051
14.3444
14.2855
14.2276
14.1702
14.1072
14.0334
13.9374
13.8205
13.7005
13.5778
13.4698
13.3339
6.01386
6.00392
6.06341
6.1234
6.18941
6.26516
6.35143
6.45013
6.56278
6.69088
6.83592
6.99903
7.18052
7.38078
7.59912
7.83464
8.08599
8.35114
8.62844
8.9154
9.20954
9.50703
9.80273
10.0883
10.3518
10.5763
10.7439
10.8457
10.8809
10.8587
10.7995
10.7163
10.6155
10.5024
10.3802
10.2512
10.1169
9.97935
9.84149
9.70637
9.57781
9.45937
9.35529
9.26892
9.20382
9.16215
9.14531
9.15361
9.18565
9.23933
9.31366
9.40714
9.51381
9.63539
9.76853
9.90386
10.0387
10.1848
10.3792
7.05935
7.20196
7.35917
7.52357
7.69505
7.87308
8.05658
8.24505
8.43773
8.63371
8.83261
9.034
9.23704
9.44188
9.64787
9.85491
10.0627
10.2705
10.4783
10.6852
10.8902
11.0911
11.285
11.4682
11.6346
11.7795
11.8976
11.9871
12.0466
12.0778
12.086
12.075
12.0492
12.0125
11.9669
11.9164
11.8626
11.8065
11.7523
11.7015
11.6563
11.6182
11.5887
11.5684
11.5579
11.5565
11.5633
11.5767
11.5941
11.6136
11.6328
11.6488
11.6593
11.6701
11.6809
11.6778
11.6691
11.6806
11.6759
6.15234
6.18967
6.26973
6.35561
6.44966
6.55367
6.66814
6.79341
6.92998
7.07757
7.23734
7.40896
7.59259
7.78773
7.9933
8.20804
8.4304
8.65597
8.88521
9.11543
9.34466
9.56815
9.78184
9.98355
10.1637
10.3221
10.4514
10.5527
10.6239
10.6656
10.6828
10.6737
10.6449
10.6011
10.5396
10.4699
10.3911
10.2989
10.2067
10.1148
10.0277
9.9486
9.88066
9.82685
9.79073
9.77013
9.76791
9.78156
9.81066
9.8541
9.91036
9.97643
10.0499
10.128
10.2118
10.3017
10.3901
10.4882
10.6019
6.33101
6.41356
6.52129
6.63715
6.76074
6.8926
7.03079
7.17673
7.32966
7.48698
7.64982
7.81687
7.98982
8.16711
8.34725
8.53063
8.72004
8.90307
9.08953
9.27335
9.45838
9.63604
9.80422
9.97052
10.1115
10.2441
10.3506
10.4437
10.5168
10.5673
10.6074
10.6188
10.6164
10.6098
10.5778
10.5508
10.5193
10.4601
10.4182
10.3755
10.3384
10.3081
10.2854
10.2724
10.2776
10.286
10.3113
10.3427
10.3826
10.4285
10.4776
10.5282
10.577
10.6244
10.6689
10.7147
10.7589
10.8148
10.8628
6.07896
6.10774
6.16717
6.24198
6.31834
6.4151
6.51073
6.63705
6.76821
6.87863
7.02499
7.17049
7.33372
7.5127
7.69302
7.8939
8.10914
8.26457
8.44543
8.63082
8.83455
9.01958
9.18512
9.3809
9.50445
9.64774
9.73586
9.83092
9.90562
9.95644
10.0179
10.0173
10.017
10.0377
9.97753
9.98326
10.0117
9.88327
9.8176
9.74963
9.69244
9.64192
9.59753
9.56315
9.60471
9.59447
9.6549
9.68349
9.70068
9.73933
9.80397
9.89501
9.97183
10.053
10.1453
10.2481
10.35
10.4855
10.5831
5.85769
5.94333
6.00727
6.12196
6.22728
6.3597
6.45577
6.53665
6.68394
6.90425
6.96515
7.11297
7.30388
7.445
7.64901
7.73122
7.9558
8.12448
8.31585
8.4434
8.63288
8.77831
8.91427
9.1049
9.18709
9.3284
9.38826
9.4827
9.60136
9.56873
9.73018
9.72638
9.67717
9.74848
9.67647
9.7439
9.65099
9.49768
9.60441
9.5537
9.52301
9.53099
9.47072
9.45934
9.47665
9.44083
9.45981
9.44322
9.56396
9.64588
9.68667
9.73095
9.79106
9.90337
10.0081
10.0752
10.1637
10.0407
10.2136
0.20567
0.0451981
0.153364
0.344879
0.63531
1.00657
1.36589
1.70915
2.03699
2.29492
2.52581
2.79281
3.03421
3.27263
3.64689
4.1481
4.68042
5.24727
5.89669
6.65794
7.53936
8.55792
9.76493
11.2848
12.6414
3.62221
3.67642
3.61187
3.50659
3.41241
3.42603
3.53421
3.69032
3.84195
3.8998
3.83529
3.71026
3.58863
3.51905
3.56967
3.71835
3.83326
3.90166
4.01629
4.20844
4.45454
4.73501
5.04954
5.43075
5.68562
2.85396
2.87497
2.90643
2.93862
2.99647
3.10237
3.2377
3.37667
3.49635
3.55993
3.56869
3.55081
3.53111
3.53675
3.60912
3.74974
3.92633
4.13843
4.40911
4.75055
5.16593
5.66027
6.24234
6.92357
7.75262
3.14125
3.13942
3.17766
3.20915
3.25393
3.31856
3.39846
3.48123
3.55529
3.60635
3.63338
3.64729
3.66138
3.6892
3.74617
3.8359
3.95242
4.09829
4.28255
4.50969
4.77886
5.08438
5.41579
5.74689
6.09189
3.17571
3.16568
3.20194
3.23679
3.28607
3.34602
3.41509
3.48354
3.54585
3.59513
3.63106
3.65994
3.69024
3.73028
3.79018
3.87572
3.98927
4.13564
4.32159
4.55165
4.8304
5.16082
5.54988
5.99702
6.56666
3.24697
3.24183
3.27771
3.30861
3.35469
3.40492
3.46343
3.51948
3.57272
3.61883
3.65667
3.69073
3.7272
3.77011
3.82686
3.90293
4.00248
4.13048
4.2917
4.48802
4.72291
4.99394
5.30181
5.62886
6.01954
3.32971
3.29071
3.33181
3.35568
3.40016
3.44255
3.49667
3.54495
3.59362
3.63842
3.67596
3.71132
3.75101
3.79473
3.84974
3.92153
4.01463
4.13476
4.28655
4.47013
4.69357
4.95406
5.26195
5.60273
6.03839
3.40381
3.32345
3.38092
3.39678
3.44318
3.47814
3.53265
3.57352
3.61816
3.66215
3.69672
3.73
3.77282
3.81635
3.86878
3.93652
4.02302
4.13391
4.27288
4.43789
4.64527
4.88338
5.17898
5.51657
5.916
3.3963
3.34725
3.43721
3.4365
3.48418
3.49864
3.5592
3.58695
3.64246
3.68547
3.72089
3.74729
3.78696
3.82511
3.87549
3.93701
4.01548
4.11725
4.26794
4.42519
4.60892
4.84314
5.08353
5.21563
5.4567
-13.9635
-12.875
-1.60237
8.1273
3.98448
3.9217
-1.77788
4.76291
-3.12467
9.1461
-11.5937
5.18006
-16.684
3.16753
-7.0793
6.6906
-9.08701
7.96319
9.21798
-18.1563
-17.6417
7.55233
-11.3299
8.0686
4.71579
6.28226
4.68311
3.48513
-11.4673
-10.5086
8.41367
7.53492
-13.2659
-12.907
-10.7621
4.41336
-2.9976
-6.55812
-5.10279
8.3936
-12.0691
8.54294
7.10664
3.47847
5.28646
8.82424
-11.3788
-10.128
-10.7502
-13.0908
-11.3748
-11.8248
-16.8195
8.25403
-1.70252
-2.90187
3.13082
-17.678
3.81157
-9.3957
4.60219
-0.793479
4.00861
6.74827
4.70414
3.58232
7.03761
7.19352
-15.3475
-12.1839
-3.40647
7.93066
4.1307
-16.2914
4.40571
-18.267
-14.4462
-11.2588
3.56869
8.74269
-12.8174
4.79992
5.18894
-9.23319
4.17971
4.6415
4.01653
-11.435
-13.3608
5.93318
6.66934
6.26436
9.4509
5.24598
4.01362
-11.4467
6.13286
-11.09
8.34967
-9.47701
3.70242
-12.5647
3.70222
7.48484
3.88673
3.73266
-11.389
-13.6273
6.09436
-10.2048
6.64491
5.5763
-10.7299
7.5279
-17.2391
-10.6336
-12.6736
8.639
-16.318
5.66399
6.88626
5.49507
8.40379
4.85442
-13.165
7.11873
-11.9843
-18.1651
3.19064
-10.373
5.46302
-16.41
-11.6951
-9.50093
3.42185
4.06404
5.29584
3.81501
5.0436
-17.3521
6.80275
-3.59787
-9.9814
6.95453
-11.0685
6.20294
6.47928
-15.1165
5.31243
-10.9736
1.51
2.70478
6.12936
-7.49796
4.83741
-10.0893
4.04932
8.63596
-12.2779
9.51219
7.65748
-3.50711
5.85203
-11.113
8.80215
-9.14303
3.08084
4.46425
7.60532
4.09049
3.17623
6.91119
6.84874
-9.38104
6.50409
3.55548
-12.4459
-11.6446
-10.1978
8.37966
-10.9043
8.01592
-16.4556
-10.168
3.92739
9.56008
-9.4454
6.04074
-13.577
5.8352
-10.0373
-10.1926
-6.36784
-2.50584
-7.24069
-13.3107
4.4294
7.49391
-10.7551
-11.2605
-15.3314
7.31565
4.97582
5.56078
1.80975
9.01223
7.32961
3.76349
-11.2123
8.66939
3.90433
5.4012
-10.9654
1.71677
1.28962
-11.7236
3.89734
9.82863
9.50741
5.03207
3.658
8.6365
4.95052
-0.0725211
10.3297
-12.4931
6.78319
-8.84982
6.06591
4.08987
-9.84843
4.57494
7.81553
5.56723
-4.52066
8.93925
-11.7379
3.5085
-10.3139
-6.58472
7.97378
4.46407
8.81696
3.55542
4.13939
4.44519
7.01434
3.83937
6.30089
9.09076
6.17896
3.62804
7.81325
-11.2064
6.73455
4.27333
-10.521
-13.9844
-12.2625
10.3278
6.36292
3.15332
5.3083
4.70973
-15.9723
4.969
9.54706
5.57857
-2.35051
4.47574
-15.5112
-7.00172
8.08658
9.89032
9.5831
5.29997
7.31657
-4.72133
3.01997
-11.566
3.75563
1.45441
8.00977
8.5969
-9.90376
5.51052
3.64216
9.70083
-11.7502
-9.93591
-4.22504
6.02968
8.03687
-11.7657
-12.1334
-11.8653
-11.2829
6.37486
9.3292
-10.4717
-10.9057
7.41242
9.51946
5.70827
-11.059
9.19364
-18.0641
7.03711
-17.6873
4.97409
7.35702
8.62257
-13.3995
3.30459
8.00042
-2.26565
-11.3717
7.90575
4.73676
-9.30137
-12.6353
6.10679
9.56245
8.44536
4.23124
5.00078
-12.9452
-13.609
6.55587
-16.9977
8.64447
-7.43288
3.66966
8.96295
-11.8084
4.57332
4.87094
5.49033
6.07543
6.82112
5.42743
5.07171
-10.3196
8.016
-15.8533
3.92933
3.84579
8.26044
4.23987
-10.2434
-1.19184
9.49246
7.32578
-12.309
-11.7853
10.3554
-8.20551
3.12843
8.75276
-9.27695
-11.3519
-11.3619
9.57901
-12.753
8.73175
4.09645
6.84189
-11.7489
5.09462
-13.3054
8.95507
-7.86731
-11.4133
-7.89036
-15.5979
5.19605
5.38151
9.14347
9.68115
8.67341
-11.1958
6.05416
-12.9758
3.32272
3.37419
-10.4615
8.96307
-18.0719
-11.8668
-9.8481
0.34467
9.29851
4.7408
-11.5821
-10.5017
9.69526
8.97508
-13.0897
8.86519
-11.0681
4.67548
7.07051
4.07634
-13.1311
4.9581
9.63287
-2.91644
4.72915
1.20528
7.64136
-10.6712
4.96866
-10.2675
4.8657
6.03572
10.2953
-10.6151
-10.0582
9.53104
6.4048
8.39526
9.44604
5.85071
3.63881
7.92306
-11.0814
6.13328
9.09425
7.06155
7.51998
4.90123
4.2603
5.71243
3.62736
-2.8722
7.12848
6.30781
7.96016
8.20255
10.2166
9.46199
-6.53612
-12.0132
2.22061
-15.3772
3.49912
3.59524
-6.73332
3.87532
3.54491
-8.01098
8.07452
5.61629
-10.5232
9.02827
-12.2112
-9.05567
4.90514
6.74794
-16.178
5.80503
3.24109
-10.826
-11.3114
-11.1232
4.26061
3.9266
0.017316
9.46097
-11.4292
3.64142
4.20849
-11.235
10.2569
4.8897
-14.1646
5.48573
4.13468
-14.5964
-14.7703
1.16489
-6.08091
9.14994
5.09018
-9.73983
4.11947
4.83261
8.45084
-12.6265
7.5798
-8.61665
6.25902
5.25237
-11.5037
5.05233
3.83463
-7.90913
4.94352
9.49876
-13.3676
7.26738
-3.67286
5.2259
3.54889
-13.034
-12.493
6.13689
5.75892
-2.81463
6.55942
7.95013
-11.8579
6.64505
5.78591
9.61686
-11.7499
-11.4078
-10.3775
5.15815
0.797536
9.02943
-10.2454
-18.0679
6.48912
-12.8268
8.71058
-11.2554
-12.6749
8.97878
7.67535
3.64148
7.5175
4.08633
-4.68539
5.6489
1.6945
6.27378
-10.6124
-10.7943
6.02673
-10.0406
-10.2328
6.82402
-11.585
7.3184
0.822196
5.74759
3.64097
4.94784
-5.13904
-4.534
-6.37921
3.21655
-11.1129
-10.4918
-11.2399
4.83868
8.96187
-16.0835
-11.7516
6.67409
-10.2694
6.19209
-14.8226
-10.3748
9.37544
0.966806
3.75034
7.77034
5.38693
-13.499
9.07099
-7.38732
3.94329
3.92589
-10.5356
-10.3441
-11.5077
3.62075
5.44833
-16.2454
-17.4161
7.07544
9.0808
4.93578
-13.0199
7.64718
3.92073
-4.81997
8.33771
3.93507
4.10391
6.73842
-8.83847
8.98688
3.72187
-13.6313
-10.7479
3.97454
8.2219
-10.1905
3.50995
8.87455
9.36094
-17.6302
7.0038
5.15495
7.83058
9.98259
7.95495
7.65457
-5.02534
4.56484
7.58115
3.70317
-16.3129
9.99699
3.83164
1.54428
7.0224
4.36045
5.77863
8.68445
2.51301
4.63022
-9.63734
-9.39555
3.45648
-12.8623
4.30429
4.38235
4.15931
9.37178
6.38606
5.68858
-15.2767
6.4886
5.08352
2.77885
-9.88856
0.755693
3.2849
3.58344
7.26937
4.02527
9.54454
6.46049
2.00097
-9.81457
-8.58786
-12.2432
9.98143
9.11951
7.21983
8.95448
7.89041
-10.3561
10.9697
-17.9999
8.85815
-11.4608
9.2457
-11.3394
7.08076
4.23921
4.92675
-12.2198
-6.81484
3.53094
-17.2431
4.57266
9.71091
4.28403
-10.8496
9.00636
5.90404
-9.01142
4.49373
8.96172
8.69314
8.17387
-15.8272
9.55061
5.38036
9.5876
3.23307
8.9531
-10.8422
-11.6765
7.11423
-3.56704
9.49985
-11.5746
5.23564
9.08086
8.90814
6.00766
-4.76711
6.05667
8.10537
3.85757
7.54049
6.63465
7.8048
8.66138
-9.37339
-8.89864
1.67123
-10.642
-5.23936
-12.6831
-10.8578
10.0925
4.06269
4.27843
9.62515
5.8552
3.27234
6.48296
4.66216
-15.7968
8.40335
7.35212
4.2005
8.42841
6.82542
4.58223
1.80068
-12.8854
-11.9929
9.31228
-10.8525
-0.618998
-11.7632
-17.4974
-12.255
-11.9596
4.56841
9.87776
6.22659
9.00906
8.15903
5.60737
-12.3284
-12.5272
8.32684
-13.0029
2.1931
9.9923
4.63092
5.1148
-9.19976
1.41507
4.74563
-1.2888
-8.60494
-15.4036
-11.5496
9.64046
9.51357
4.36711
9.1724
-11.3943
0.772147
-11.5423
-8.08318
4.15965
-8.78844
5.90782
9.77516
3.79449
3.91037
3.8476
9.63754
6.45461
3.3924
5.70946
5.56402
7.34735
5.45977
5.1932
8.90775
-11.0024
-5.2454
7.61208
-0.501427
6.6199
-16.8404
4.24168
10.065
8.14969
-14.8661
1.469
9.28852
6.61667
-10.6372
1.43031
-13.4428
5.37428
-14.4164
-12.9937
-10.4433
3.09959
-9.14238
2.83851
8.6122
-11.5995
8.30576
4.66742
5.72941
-13.7311
-1.78662
7.47744
4.14105
-12.8298
4.2124
0.463008
-9.95515
8.46004
7.79638
-4.62358
-11.7614
-13.4569
9.12099
9.7143
9.28452
-14.6108
-4.03714
8.35722
4.42621
3.88488
-12.5426
10.1896
4.61044
-12.8662
9.67529
5.40184
4.68652
9.34778
-14.1497
5.66931
-15.3319
8.75818
5.20626
-12.9065
7.70658
8.88233
9.16609
3.59784
-14.9681
-11.5152
9.60815
9.08283
5.40148
-8.0562
-16.817
-0.525014
5.79726
-13.8677
-6.42388
6.22356
4.15952
3.78129
-9.98108
8.97798
-14.9317
6.55864
6.2565
-9.70642
6.16136
6.05141
2.55382
-15.7628
-10.8101
-9.60296
-9.73861
9.12142
-13.0162
-8.21222
8.43295
-1.87066
4.33261
3.82529
-16.4729
5.32234
5.19138
-17.1073
1.76015
10.3173
10.2403
-13.5443
2.93614
6.38099
-9.9553
-11.5462
-10.719
8.59637
5.72715
-10.2524
-11.164
-11.8048
-14.9621
-13.1137
2.47088
9.48434
0.564104
-10.2807
7.64425
7.6283
2.64808
-9.28448
6.63616
-0.524442
-12.9615
7.17036
3.87075
8.92124
-9.69635
-3.33012
-11.1091
-10.63
8.69195
3.47875
1.08051
5.47593
-11.9245
-17.3743
9.33447
5.50433
5.30528
9.93984
-13.9781
-11.6591
5.78009
-10.6381
7.75637
-11.5839
8.80103
4.38177
4.85485
-5.32217
-11.6409
3.36721
-15.0321
6.58748
6.81408
-4.10109
7.13014
-8.02495
-9.70774
-10.2494
5.62793
7.92288
-3.46777
6.11947
7.37651
4.6464
-10.7218
6.84693
3.63331
-11.5386
-3.49047
3.91336
5.8233
7.14803
7.51456
3.88971
7.99978
-16.0636
9.16583
5.64625
-10.4559
-17.2673
-6.18956
5.94859
6.102
0.154564
10.1755
-10.7517
3.9377
3.79047
-10.6626
6.08621
5.10163
2.50375
4.38282
-11.1713
8.99682
8.29531
8.98839
-1.91123
-1.81418
-12.6468
4.95693
-13.2149
6.84141
6.51604
6.30601
-10.578
-10.5448
7.67062
-9.73335
10.1828
-10.4273
5.67875
-10.9883
4.15441
4.42995
7.49008
-0.83251
-5.91659
5.74451
8.7983
-16.4667
9.63226
8.5083
5.0775
8.93804
5.70234
-10.5564
6.77526
5.88812
-9.15065
3.63992
-9.79417
9.9578
7.63603
7.4693
10.3694
7.52214
3.84172
-12.5198
10.1962
3.2263
9.59156
5.41168
0.497679
-10.4677
8.52487
8.94859
6.29891
7.38258
9.71573
7.29628
-10.195
8.67135
-16.7256
6.44884
-4.36424
-11.1708
3.61485
-15.85
6.31868
-12.1054
-11.2916
-9.94954
4.94963
5.28943
3.5375
-11.3787
7.72172
0.761451
7.19571
4.61195
-11.3015
3.81148
8.31321
3.81235
9.34342
8.64191
10.3818
-11.8415
10.1572
-13.7882
8.70887
7.66771
9.13672
8.71007
-15.5077
10.2077
-16.4407
-12.0989
4.18322
7.27079
-11.0457
-10.8737
9.6226
9.55725
8.11525
6.92678
8.61197
3.63207
-11.2238
5.82052
9.66762
-15.4824
4.85981
1.80786
-5.33923
8.8291
4.0974
9.22159
3.66088
-11.4097
2.36217
-13.5825
8.34485
3.66604
7.53391
-12.7752
-12.9784
8.60697
9.64129
-13.0117
8.74905
3.87464
-10.6209
-11.5685
10.1791
9.18973
10.188
3.50006
-12.4749
4.77802
10.3193
-12.6766
-10.5323
9.75252
8.21063
4.42655
9.75911
5.41063
-16.1474
4.95094
-10.8432
5.04604
8.64846
4.3981
-15.4843
7.58532
-11.81
-10.7847
-10.0406
-12.6833
-11.7908
8.31872
7.02375
-12.4142
-14.9092
5.19141
8.99999
5.75927
3.67529
8.07799
4.77341
5.5126
-8.77077
4.18629
3.59451
-4.96446
3.80195
5.70337
6.02668
-10.0119
9.93711
-11.93
-11.2913
3.79962
8.06602
5.72237
7.47375
5.75359
-12.5257
1.81728
8.67064
5.24008
8.14169
-10.5243
-12.6911
6.74544
6.23639
4.17921
9.5527
4.1562
3.53965
9.23458
3.7879
2.72072
-11.3545
9.10616
6.80023
-6.79284
5.75118
4.72143
6.97212
3.19791
5.64639
7.96801
-16.2789
6.23514
5.54002
-10.7658
4.10709
0.205064
-5.43094
9.07446
5.15036
8.62178
-8.23623
6.67642
-14.358
9.173
-4.8521
-13.1761
-17.8035
-11.4533
10.0494
4.64187
-15.9285
-12.6981
3.74915
7.51304
10.3101
-11.5152
8.59873
6.70472
10.1149
8.38616
0.274221
10.2387
3.96201
9.57254
-11.2638
-16.6013
8.50913
9.2074
8.1434
8.16459
5.40576
-11.6507
9.06933
1.44757
-13.5561
-16.8468
9.22232
-12.9187
-11.1616
-17.326
-11.9148
2.79648
-12.1371
-12.0789
-10.074
9.7249
-10.6845
9.6101
-3.92896
9.54536
8.98808
-14.0892
-8.64946
-10.9914
-12.0367
3.64035
7.73473
-1.60376
-12.407
9.62362
-12.639
7.59904
-17.4312
8.99015
-11.1975
1.72717
3.90078
5.61825
-17.6473
5.37955
2.47316
-17.0817
8.72219
-10.8141
5.95942
7.80523
-7.93389
-1.18787
6.04318
-15.8652
-6.89535
8.99904
-14.0803
9.25266
8.90033
3.62214
4.23853
-12.7276
-13.7075
9.90791
-13.0151
8.1109
-16.4424
9.35157
8.58365
7.60887
-17.3372
-0.154877
-10.3678
6.98682
-10.3857
4.75668
-14.1796
-12.2629
1.55856
7.93235
-11.8522
7.21511
6.44071
8.84138
-11.6668
-12.5719
4.68772
-13.2084
6.51162
5.64445
-2.12301
6.66743
5.3714
-14.3747
8.6091
9.20794
10.049
5.49827
7.77342
9.32627
-13.2743
-11.607
5.79794
9.20826
6.17273
-13.4742
-11.2459
4.90399
3.08967
3.71938
-13.4524
3.03855
-0.386603
-14.7665
4.55739
-14.8842
-12.3775
4.76038
5.12937
9.26671
8.93534
4.29035
6.75091
3.82954
3.56995
-12.2097
7.43732
-12.874
4.97163
-11.8907
8.27851
-9.73791
1.56733
-15.9489
-11.2682
3.87567
1.84723
6.95504
7.22606
6.81863
-10.9508
-10.5634
8.91821
9.19975
5.69855
7.55353
5.36722
6.11611
-12.4392
-10.4188
-16.0008
-12.7628
8.36678
4.33696
-12.9694
8.53255
-11.3932
9.19791
4.72839
3.8887
6.57344
4.89266
6.67271
4.69626
1.89287
-12.5547
-11.4738
9.61655
5.30382
-14.6786
-4.07573
5.52138
-10.9558
-12.468
-10.0485
7.39655
-16.9173
5.3777
8.54292
8.76622
4.51605
9.81042
-10.8766
-11.7901
8.2804
3.64516
-17.0988
6.21459
-12.4708
-9.74841
6.79662
3.34503
8.2693
3.71844
-12.045
4.31621
-11.3452
3.79826
8.65777
3.74156
8.44463
3.45338
8.13822
7.02287
8.93411
4.19199
6.17622
-14.0353
8.84485
-9.09201
6.09044
6.46389
8.20321
3.77443
5.67877
-6.2018
-12.21
6.08482
-11.899
9.30855
-12.5777
7.86099
7.95888
4.80093
4.28949
-10.9488
7.2777
6.76525
-4.19076
-9.9422
7.48102
9.21872
9.25638
7.6503
-2.93213
5.78118
5.93856
-13.594
4.89072
9.19342
6.93822
-12.957
6.20923
-11.65
-11.747
10.3503
2.32944
7.62884
9.19764
-12.8937
6.48442
8.98385
8.14325
-15.8595
3.74437
7.78504
4.70896
-5.38457
-9.45654
3.82733
5.65082
-10.3878
8.9892
-1.55296
-12.0642
7.32266
0.17597
-11.3181
8.71852
-12.5263
9.04314
6.39503
8.44501
4.9151
-8.0924
-10.1412
7.7601
9.21055
-11.9311
7.15985
7.75943
9.66764
3.12685
-2.50694
4.4616
4.06549
9.34529
6.25159
4.2488
6.69684
3.7665
8.46827
-9.64934
-15.4191
4.14345
-12.7921
3.8079
-13.7591
-11.1203
-14.966
-10.2455
10.3071
8.86758
-15.1594
8.07139
8.31092
-10.7741
6.22443
3.49772
-11.6621
-16.0892
7.7085
-9.87627
4.11028
-11.166
3.88459
9.64472
-4.38985
3.60049
-13.5412
6.54618
9.59918
3.38228
6.61012
-7.2782
1.44721
8.11509
-12.1952
3.55827
-12.0174
3.77404
-12.8217
7.19908
9.03662
5.59533
9.43078
-16.2765
-9.67935
-14.6628
4.01729
-13.076
-10.7187
9.81527
-17.2591
0.826481
9.75855
-16.2241
-10.8277
7.21318
3.83976
3.9479
-12.7766
5.1901
10.1084
-11.2285
-14.4816
3.36512
-12.403
-11.8187
5.46549
3.66201
-2.33152
3.7704
-15.6158
3.85921
9.02204
5.03107
-10.2253
4.17008
-0.393699
-11.9148
4.64491
-0.106062
-7.55112
8.96624
-11.3449
9.02015
-16.5401
7.43231
5.0973
6.27996
8.94997
5.77975
6.33612
9.04318
3.87211
10.2681
-12.3153
-14.5359
5.56353
-17.1169
4.19747
5.16839
7.24555
8.00166
6.377
-6.1321
10.14
-3.46777
-12.3722
-5.0473
-14.6305
9.96625
7.45228
-11.972
8.471
3.6773
6.95218
5.2135
5.84728
-10.1013
8.51239
9.13239
4.39742
3.70506
3.60953
-4.3704
0.574959
-1.46058
-12.9379
5.48192
4.8718
4.79609
6.88228
4.3955
5.51875
3.70299
5.17126
7.93576
7.9378
10.1366
-1.38402
-12.3238
-11.8638
3.78686
8.55501
-0.575084
-10.0707
-10.9285
4.08178
5.59636
3.07278
9.28115
4.55731
3.77688
-10.5365
0.137892
4.72297
6.10833
6.65623
3.97456
-11.8902
4.5772
7.52108
5.05983
6.65052
-11.2073
9.35112
-7.29624
10.3543
3.84563
4.13482
8.93822
-11.0294
1.53441
7.40559
-12.5056
-14.1359
2.48101
9.83721
6.64518
-10.2491
-13.006
-12.626
5.57567
-16.9167
9.02234
10.279
-10.0268
-10.8774
4.7938
5.88763
-0.913847
-3.37773
8.53012
4.26718
-10.8342
4.93145
10.2714
7.01983
8.5142
4.87924
9.53237
9.27498
9.09136
-12.4775
7.76765
4.36477
3.96302
8.51775
2.11
3.84982
-16.5059
0.112734
0.432535
8.76266
8.41697
7.28811
10.323
6.88818
4.94867
-14.7035
8.94269
3.88012
9.66545
0.105486
6.31038
4.20328
9.26774
-11.9991
4.34906
-14.0248
7.4314
10.2586
8.5598
7.14967
9.09456
-11.18
7.70184
3.9568
8.03605
8.20748
-10.5349
5.49641
9.01648
-12.9802
-12.8264
4.48044
-11.1273
9.26619
-12.6668
9.65353
-13.1772
9.8703
-2.60031
5.42872
-11.5033
3.59429
-9.73706
-9.86691
-10.353
2.85448
-12.8028
5.37405
4.43055
5.61733
-11.4
9.08632
4.00675
-16.5453
-10.6142
-11.8872
8.37151
-12.8051
4.19314
6.80481
4.64853
1.14072
9.36837
-5.0046
7.82536
6.3996
9.03601
10.1867
7.69655
-13.587
9.11303
9.30691
-10.7116
0.820217
4.19685
5.61751
-10.4214
8.20726
8.54582
-11.979
7.91439
-4.72113
-2.51827
8.50562
3.71397
-17.8962
5.9196
7.67789
9.59534
4.61456
7.99165
6.27539
-12.6123
4.30759
-11.3237
3.30603
3.78002
-10.9446
1.15411
2.94014
8.97083
4.44218
6.27841
4.33008
-14.1943
-11.6125
9.23319
7.3199
5.8496
-10.2566
3.82278
-0.26823
4.25804
3.79161
8.41516
8.98608
-1.81431
3.79251
-14.1919
-11.5134
9.36636
-8.70026
9.8025
-13.9065
1.1489
4.76308
7.83027
3.81481
7.75597
6.73343
-9.83775
-7.51022
-12.9448
-10.895
-16.6238
8.1582
4.37204
-3.62071
4.43503
-1.94917
-12.477
8.94385
-10.3869
-14.7258
-9.7204
8.84003
4.22723
5.51596
8.44921
-12.8474
9.5984
-12.0967
8.72587
10.1577
3.86185
-10.6425
-10.9813
5.76558
10.1401
9.92826
7.69877
7.28818
0.448269
-15.4221
7.52162
5.21339
-11.3707
9.16992
-12.1771
8.71523
5.83631
8.55852
-11.1267
8.39742
5.90431
9.23003
9.4344
3.4899
6.56013
-10.7261
3.64399
5.97673
7.19357
5.47095
-15.9256
5.27959
4.28144
-5.91676
-11.3161
3.76643
-13.3344
9.06488
-10.6598
-16.5244
8.68448
3.53559
7.02302
6.2811
4.03154
-15.1173
0.968004
7.8786
5.20132
-6.967
-8.51365
-8.94798
-14.5796
2.31417
9.0575
-11.3729
3.77226
4.94295
5.32326
8.04782
-15.918
-12.3288
7.1155
-13.6048
8.23044
-15.0163
-4.0188
-10.5378
-12.8164
-10.4547
2.81615
3.53028
9.61126
3.78577
-16.6933
-4.80366
9.8824
0.547394
4.1048
-11.349
8.86422
-3.59811
-7.55075
-10.4263
3.76675
-11.2573
3.2241
-12.8676
-11.2607
9.62366
4.29072
7.22053
9.43916
6.28895
-4.21705
9.48576
6.6135
-12.1161
4.06534
2.8191
3.6214
7.05989
9.03618
-13.5857
-12.8927
3.2468
-10.54
5.4826
8.63093
7.17525
-11.5052
-13.0268
-11.8839
6.60693
8.53417
7.57363
-10.8177
3.28694
0.629684
5.89196
-12.3776
6.44824
3.33397
-16.5999
8.7602
10.273
3.82801
3.48304
5.55409
9.47343
-5.52648
6.45861
8.78991
-11.7095
6.65885
-9.76715
-10.2763
3.44718
-5.53039
9.20652
-10.2757
9.30037
-10.4933
5.12491
8.41892
9.41418
9.30688
7.80008
2.45304
9.69611
-15.8524
6.90221
8.80001
7.32635
-12.7323
8.42591
8.75417
6.48305
-13.1181
5.81767
-9.96956
-10.638
9.25127
8.48145
-1.46923
-12.8751
-15.7865
-1.6454
10.0312
3.84464
-13.4665
-11.4664
-10.7537
-9.87838
8.83704
7.38082
6.09907
3.56355
9.94281
9.31415
7.90531
4.17863
9.03977
-15.8954
7.70708
-13.6362
7.96793
6.07965
-7.27488
6.25064
-15.799
3.69553
4.52938
5.75017
5.57205
10.1191
4.48936
-4.34691
1.979
6.44117
-2.21467
-12.5606
-10.2509
10.1684
2.00259
-10.6164
-12.8565
-12.2789
-12.6213
-9.84441
9.67927
7.70315
6.72547
5.03579
-14.2713
-12.3758
4.07243
9.93903
3.61806
9.36455
-9.78246
6.35511
-14.3273
5.25753
4.29597
6.10688
-11.0291
6.37949
-17.8019
-11.0561
3.2281
3.47396
6.17678
9.17264
3.83331
5.08835
-3.50709
9.12554
9.30298
6.32286
9.27787
3.44538
-11.6715
-0.227321
-6.10694
-8.25507
-12.8133
-12.1515
3.70223
7.9141
-10.5077
9.79577
5.53814
-16.8523
8.9636
9.13216
7.5092
-5.63554
-12.1749
7.16212
8.17574
8.26306
-12.4077
6.49759
-14.1096
-12.984
-17.3775
-13.6825
-10.1374
-11.8543
-13.059
-9.31296
-6.94723
-17.2112
-17.4387
-11.0915
-15.7119
6.13921
-13.0387