/*--------------------------------*- C++ -*----------------------------------*\
  =========                 |
  \\      /  F ield         | OpenFOAM: The Open Source CFD Toolbox
   \\    /   O peration     | Website:  https://openfoam.org
    \\  /    A nd           | Version:  10
     \\/     M anipulation  |
\*---------------------------------------------------------------------------*/
FoamFile
{
    format      ascii;
    class       surfaceScalarField;
    location    "1850";
    object      phi;
}
// * * * * * * * * * * * * * * * * * * * * * * * * * * * * * * * * * * * * * //

dimensions      [0 3 -1 0 0 0 0];

internalField   nonuniform List<scalar> 
16133
(
3.42372
1.61534
-2.01005
-3.02866
-2.81651
2.83823
-3.11713
3.09544
-0.822907
-3.19872
2.5157
1.50593
0.855845
-1.22861
-5.2286
5.60141
-1.26696
0.536399
5.17742
-4.44686
4.02673
1.38174
-5.29643
-0.112049
-3.65784
1.14433
2.17524
0.338283
-0.00155941
-3.97142
0.969942
3.00302
-2.2682
3.61201
2.39262
-3.73643
0.50385
3.32732
0.00383739
-3.83501
3.59434
-3.38044
2.65906
-2.87293
5.11418
-2.33361
2.28738
-5.0679
-0.219746
-3.4864
2.09897
1.60716
1.32878
-1.07382
1.19531
-1.45028
1.5373
1.42321
-1.63173
-1.84482
1.40586
-4.22838
4.66735
-1.19033
0.995252
-0.878753
-4.35157
0.98512
3.15138
0.21506
-6.28837
5.1033
-1.08314
1.42079
3.82402
-1.82108
-0.814467
3.26653
-2.74151
0.289443
0.570888
-5.0464
5.33138
-4.43264
4.35922
-1.77139
8.35279
-6.80327
-0.367824
-1.1817
-4.03283
4.80939
-0.272702
-0.00320635
0.00352197
-0.0923257
0.0920098
0.051643
-0.00500597
-0.032447
-0.0141902
-0.17909
-2.1449
1.92833
0.39566
-0.026948
0.0505371
-0.00659134
-0.0169981
-3.42722
2.40296
3.44195
-1.03574
-5.23926
2.83305
-2.58533
2.61767
3.56203
1.32548
-3.67225
2.34521
-0.0621498
0.148119
0.0196891
-0.105659
-3.7237
-3.638
3.6938
3.6679
-1.82841
3.14488
2.05779
-3.37423
-2.89702
-5.40702
4.58033
-0.0717398
0.108414
-0.125392
0.0887172
0.0537738
0.114047
-0.0291327
-0.138688
-6.14856
1.00991
-1.14975
-3.53241
0.109026
-3.61934
-0.861406
-1.45749
-0.676639
0.242114
1.892
-1.95644
4.72006
1.53873
-4.30232
4.94351
-2.11774
-5.72278
3.40939
-1.20517
0.472581
0.0217357
-0.607969
-0.586783
0.924846
0.269901
2.87194
1.58305
-0.842974
5.20162
-4.83792
0.207197
-2.03188
-2.754
-4.76545
4.90333
-3.78387
3.64598
0.156206
0.0518542
-0.154287
-0.0225751
0.0361058
0.0359493
-0.0494801
-0.0208184
0.0638786
0.0709867
-0.0103095
-0.0151326
-0.00150592
5.33959
-2.72941
-8.01721
-0.0994756
-0.103383
0.15855
0.0443087
-0.540738
0.874776
-0.813078
0.479032
5.11097
0.095687
0.0208394
0.0396796
2.9115
-2.40099
-3.327
0.116976
0.0113764
-0.01993
-0.108422
2.22006
-4.39132
4.05142
-1.88017
2.37199
-1.86112
-3.90039
2.46119
-1.75951
-0.483726
-0.351052
0.294037
-0.0522941
0.396525
-0.000843429
-0.343388
1.24428
2.99219
-5.93711
0.241019
-1.10717
0.0209087
0.00173474
-0.0452188
0.138974
-0.0422746
0.0154823
-0.112182
-1.51911
0.802437
2.67736
-1.96071
2.15556
-3.29058
-2.76537
1.50849
-2.1954
2.22421
-1.55985
-1.77881
2.04878
1.28986
-6.84658
1.88517
-0.975687
-2.28845
1.44194
1.99084
-2.39243
2.29274
1.42516
1.86222
-1.60463
1.2509
5.76631
-5.45162
0.0131907
-0.327848
2.94439
-2.54381
-1.741
1.34041
0.067463
0.154477
-0.170086
0.0466973
0.0428534
-0.0534451
6.42546
-0.083875
-0.575254
-3.16619
2.75373
2.37987
-1.96739
3.05692
-2.70676
-2.85386
2.50371
4.58244
-4.1378
-2.40105
1.8648
-0.864595
1.27215
-2.27234
3.40035
-2.77257
2.42916
5.0831
1.87185
-2.37247
6.45752
-2.60301
3.31248
1.24726
2.33491
-2.50654
2.03644
3.7915
-2.54109
2.14995
-3.50626
-1.48832
0.749533
5.37681
0.331224
1.01428
-1.72125
-1.48843
0.963616
-0.755554
0.666707
-4.76492
5.15296
-0.21297
-0.175023
2.25631
-2.10661
3.66866
-3.71548
1.12672
-1.07993
2.38189
-2.40507
2.05879
0.712589
3.742
-0.785946
1.36331
3.6277
1.10557
-0.170546
-0.0794397
-1.14215
8.3632
-0.795576
2.00746
-1.48091
1.33568
-0.888874
-4.42276
0.473729
-3.61032
-1.37212
-2.23711
-1.68353
1.37683
-1.61238
1.38273
-0.192479
-3.82289
-4.57196
-0.363192
4.87543
0.640753
2.67089
-3.76606
-2.72487
4.08991
-5.18645
0.0759384
4.74736
2.21228
3.10938
-0.446205
1.09718
-0.221912
-2.43513
2.96249
-3.06416
-1.67145
0.972505
4.10445
-3.40549
-3.05698
3.17294
2.30465
-2.4206
-0.0661831
0.152416
0.00938343
-0.0956164
-0.0225906
1.51161
2.42891
-2.84336
6.1407
-4.96353
-0.0808287
0.0640935
-0.0154593
0.0321944
3.00094
-3.16078
-2.91578
-2.72653
-3.36754
-1.31959
1.13817
-0.0178556
0.151765
0.00506442
-0.0669663
0.195101
0.113568
-0.241702
-1.10026
1.2488
-3.65479
0.373106
5.55956
-3.3329
-4.12684
1.09362
-1.63271
1.3299
-4.06701
5.39123
-0.143518
-0.150351
-0.189861
-0.80771
2.99417
-5.81106
3.6246
5.53395
1.71931
-1.70628
1.73388
-1.74691
3.43605
-3.56379
0.928834
-3.47423
-1.54942
1.11261
-0.753526
3.9058
2.03577
-6.74926
-0.759566
0.218787
-0.0671883
-1.95093
-6.50127
3.54737
-3.12826
4.52388
2.37608
4.12089
2.16417
-0.238191
0.0593825
0.393348
-0.214539
3.38184
1.85572
-2.06461
0.758464
-2.48924
3.00986
2.7611
-3.2817
7.05369
1.95296
-3.29764
-5.70902
-1.12366
0.999374
-4.37649
4.39118
5.95281
-5.97612
-1.1188
-1.45492
2.19823
4.64383
3.70916
-3.3695
2.67628
-2.97903
-5.41253
0.388393
5.10012
-4.35136
3.49865
-2.61473
3.46746
-4.6517
-5.55066
-0.256902
-3.01747
0.777963
-0.745021
-1.55205
-0.00639082
0.0224061
-0.0157296
-0.000285876
-1.08759
1.08565
5.17807
-5.13815
1.99587
-2.12791
-3.47845
-3.40735
-1.03355
0.967347
-0.0593478
0.12555
-4.03175
0.702614
0.00213231
0.0978142
-0.0494101
-4.07829
-0.28931
-3.98249
2.34743
0.127345
-0.0978409
-1.24184
-1.70996
3.10062
-3.67911
2.9337
3.37043
3.89214
3.99036
-3.21458
0.187864
0.0664413
-0.186843
-0.0888583
-0.00982593
1.57557
-3.701
1.48715
-1.71563
2.84604
-3.31171
-0.760688
1.26004
-1.36604
-3.10787
0.133405
2.72393
2.07354
0.228797
-0.0255626
-0.274974
-2.60583
2.207
0.237736
-1.02375
1.34004
-2.8531
4.21552
-1.55488
0.124448
0.124133
0.0275834
-0.0347412
5.6716
-0.321604
-0.0192622
-0.4187
2.89544
2.83474
5.40545
0.0519956
-0.00674381
-1.72397
1.38628
-1.77386
2.35972
0.168805
-0.175895
-0.215524
0.222615
-0.0745148
0.0713084
0.835203
0.0994933
-0.0425758
-0.0547858
0.944159
-0.163633
0.186816
0.240428
-0.222753
-0.161195
1.89034
-0.175327
-2.80259
-0.0316775
-0.120422
0.206088
-0.0539892
3.05019
0.072648
-0.0785286
0.00588061
-0.869378
-2.76899
3.5251
-5.11839
2.17021
1.54856
0.677408
-0.646881
-0.089877
-3.07331
-0.00186684
1.7951
-6.3434
-0.0904671
0.0784751
0.0427966
-0.030805
-0.690149
-6.58993
-0.121314
-0.0228636
0.1125
-5.25792
-1.09098
-2.67181
5.24795
-3.87625
-0.0346232
-0.18173
0.0959311
0.343118
-0.412833
0.23852
-0.0198115
-0.0234801
0.0329823
-2.2848
2.67646
-1.16013
2.46456
1.49043
-1.10895
-0.00773601
0.00198896
0.00574632
-1.8474
-3.6075
0.00871779
-0.0191406
0.0104233
2.33612
-3.24094
0.739666
1.38335
-0.655268
1.0922
0.0046129
0.00410477
0.504682
-0.216676
-0.279446
0.47267
0.236102
-2.0197
2.69589
-0.299304
-0.732063
4.26218
0.221043
-0.0774756
0.0442971
-0.923028
0.209236
-1.17808
1.56384
-2.85629
-0.606184
1.99427
-0.678028
3.49314
0.0659407
0.00536756
1.08658
-3.88273
1.64508
-0.922137
-2.74035
1.15629
1.25686
0.337663
-2.25368
2.69831
-0.219314
-0.0357169
0.079137
5.17522
-0.0993472
0.0512572
0.053079
-0.0576392
-0.0744039
0.111747
-3.0276
0.0895277
0.132419
-0.12848
0.0162885
0.0225564
-0.0388452
-2.07376
-3.58189
4.24319
-0.565771
0.125909
0.248538
-1.94971
0.00385376
-0.01159
-1.84513
-5.58923
0.274583
0.0505571
0.0629153
-0.0622155
0.925851
-0.223196
-0.0467135
-3.67917
-0.179177
-4.36997
-2.3455
-0.00285218
0.166658
0.409927
-0.103281
-0.51547
-0.0371023
0.0556038
-0.00712538
0.0639911
0.206944
-0.204493
-0.351626
-3.05998
-2.88992
0.0621267
0.00381395
0.190178
-1.89222
0.0638091
1.75091
-0.0829704
0.0807372
0.05987
0.0571858
-0.0664988
0.600302
0.209767
-0.0711473
0.0117043
-0.0210926
-0.000676521
0.00727836
-0.12937
0.224831
-0.0757715
0.0184264
0.00783308
0.0650823
-0.0029556
0.0118759
-0.0276057
0.236507
0.0503762
0.00907333
-0.0166529
-0.222289
2.36873
-1.69429
1.61829
0.00127596
-0.0707762
-0.0326117
0.266044
-0.466689
-0.693716
1.18283
0.499817
-1.18905
-0.861133
-0.0212549
0.0337241
-0.0586858
0.0471971
-0.0848091
0.0123473
0.0118252
0.0227263
-0.00231449
0.0673968
-0.1768
-0.0756905
2.56523
-0.0150499
0.0575709
-1.39226
0.432681
-2.21252
-0.79726
-0.138594
0.00330948
-0.0359212
-0.0708576
0.0212386
-0.0481827
0.0745138
-0.0268479
0.71039
-0.973057
-1.31335
0.727783
-0.0834006
-1.41316
-0.483137
-0.0283949
-0.0214389
-1.43281
-0.646227
-0.0435009
-0.0285477
0.0421116
0.172597
-0.663317
0.0538927
0.024435
-0.0743059
2.04781
-0.0247534
0.0181197
0.0274261
0.115706
2.30253
0.202621
-0.237146
-1.17119
-0.262172
-0.975314
-0.00382128
0.111777
-0.107955
-0.00863748
0.115504
-0.110688
-0.0133931
0.125471
-0.120715
-0.0186265
0.133876
-0.128643
-0.0239891
0.143001
-0.137638
-0.0296604
0.151263
-0.145591
-0.0354428
0.159486
-0.153704
-0.0413538
0.167176
-0.161265
0.17445
-0.168756
-0.047047
-0.00354476
0.115321
-0.00783755
0.119797
-0.0122029
0.129836
-0.0170042
0.138678
-0.0218766
0.147873
-0.0270038
0.15639
-0.0322113
0.164694
-0.037492
0.172457
0.179742
-0.0427839
-0.0034842
0.118806
-0.00718729
0.1235
-0.0111063
0.133755
-0.0153808
0.142952
-0.0197566
0.152249
-0.0243115
0.160945
-0.028933
0.169315
-0.03361
0.177134
0.184435
-0.0383038
-0.0032371
0.122043
-0.00652566
0.126789
-0.0100191
0.137248
-0.013783
0.146716
-0.0176599
0.156126
-0.0216759
0.164961
-0.0257539
0.173393
-0.0298988
0.181279
0.188665
-0.0341286
-0.00290556
0.124948
-0.00584015
0.129723
-0.00893484
0.140343
-0.012236
0.150017
-0.0156423
0.159533
-0.0191683
0.168487
-0.0227763
0.177001
-0.0264839
0.184987
0.1925
-0.0303184
-0.00252957
0.127478
-0.00514708
0.132341
-0.00788343
0.143079
-0.0107743
0.152908
-0.0137612
0.162519
-0.016862
0.171588
-0.0200552
0.180194
-0.0233667
0.188298
0.195964
-0.0268315
-0.0020483
0.129526
-0.0044317
0.134724
-0.00687927
0.145527
-0.00944039
0.155469
-0.0120748
0.165154
-0.0148167
0.17433
-0.0176818
0.183059
-0.0206974
0.191314
0.199179
-0.023912
-0.00145278
0.130979
-0.00375194
0.137023
-0.00598825
0.147763
-0.00827581
0.157757
-0.0106257
0.167504
-0.0130944
0.176799
-0.0157083
0.185673
-0.0185167
0.194122
0.20217
-0.0215075
-0.00104143
0.13202
-0.00328528
0.139267
-0.00530568
0.149784
-0.00735022
0.159801
-0.00946766
0.169621
-0.0117257
0.179057
-0.0141756
0.188123
-0.016848
0.196795
0.205118
-0.0197962
-0.00111967
0.13314
-0.00316582
0.141313
-0.00487873
0.151497
-0.00666445
0.161587
-0.00858369
0.17154
-0.010718
0.181191
-0.0131035
0.190509
-0.0157859
0.199477
0.208092
-0.01876
-0.00148538
0.134625
-0.00316644
0.142994
-0.00454721
0.152877
-0.00611535
0.163155
-0.0079055
0.17333
-0.00999523
0.183281
-0.0124085
0.192922
-0.0151953
0.202264
0.211293
-0.018396
-0.00156628
0.136192
-0.00286896
0.144297
-0.00407327
0.154081
-0.00553979
0.164621
-0.0073143
0.175105
-0.0094306
0.185397
-0.0119311
0.195423
-0.0148165
0.205149
0.21468
-0.018203
-0.00108539
0.137277
-0.00214922
0.145361
-0.00334858
0.155281
-0.00485925
0.166132
-0.00671793
0.176964
-0.00897035
0.187649
-0.0116518
0.198104
-0.0148061
0.208304
0.218294
-0.0184205
-0.000305309
0.137582
-0.00118544
0.146241
-0.00245009
0.156545
-0.00406738
0.167749
-0.00606481
0.178961
-0.00849191
0.190077
-0.0113807
0.200993
-0.0147762
0.2117
0.222203
-0.0186851
0.000483015
0.137099
-0.000209286
0.146933
-0.00151932
0.157855
-0.00324035
0.16947
-0.00537679
0.181098
-0.00796912
0.192669
-0.0110755
0.2041
-0.0147619
0.215386
0.226488
-0.0190473
0.000833187
0.136266
0.000473046
0.147293
-0.000763743
0.159092
-0.00247917
0.171186
-0.00465745
0.183276
-0.00733648
0.195348
-0.0105737
0.207337
-0.0144297
0.219242
0.231003
-0.018945
0.000560269
0.135706
0.00061711
0.147236
-0.000324299
0.160034
-0.00184954
0.172711
-0.00392164
0.185348
-0.00656173
0.197988
-0.00982918
0.210604
-0.0137598
0.223173
0.235701
-0.018457
0.000125459
0.135581
0.000457013
0.146905
-8.81478e-05
0.160579
-0.00128627
0.173909
-0.00312166
0.187183
-0.00562107
0.200488
-0.00884564
0.213829
-0.012866
0.227193
0.240595
-0.0177602
-9.38827e-05
0.135675
0.000378068
0.146433
0.000190565
0.160766
-0.000625079
0.174725
-0.00211566
0.188674
-0.0043278
0.2027
-0.007332
0.216833
-0.0112002
0.231061
0.245413
-0.0160184
-6.15073e-05
0.135736
0.000542815
0.145829
0.000681063
0.160628
0.000274981
0.175131
-0.000797298
0.189746
-0.00260629
0.204509
-0.00522693
0.219454
-0.00873084
0.234565
0.249858
-0.0131763
9.51508e-05
0.135641
0.000945772
0.144978
0.00144415
0.16013
0.00148081
0.175094
0.000888003
0.190339
-0.000441654
0.205839
-0.00261321
0.221626
-0.00576508
0.237717
0.254109
-0.0100161
0.000375692
0.135265
0.00159979
0.143754
0.00251769
0.159212
0.00303522
0.174577
0.00299248
0.190382
0.00226287
0.206568
0.000723437
0.223165
-0.00183161
0.240272
0.257821
-0.0055439
0.00102814
0.134237
0.00260328
0.142179
0.00392332
0.157892
0.00491646
0.173584
0.00546041
0.189838
0.00541727
0.206611
0.00467887
0.223903
0.00290263
0.242048
0.26105
-0.000326021
0.00222503
0.132012
0.00399484
0.140409
0.00561616
0.156271
0.00706935
0.172131
0.00821116
0.188696
0.00888298
0.20594
0.00907918
0.223708
0.00825872
0.242869
0.263807
0.0055019
0.00353157
0.00525266
0.00723681
0.00928156
0.0111354
0.0125822
0.0140009
0.0151678
0.0168022
-0.0865908
-0.00122443
0.0878152
-0.0852258
-0.00136498
-0.0837126
-0.0015132
-0.0820391
-0.00167351
-0.0801994
-0.00183969
-0.078186
-0.00201344
-0.0759924
-0.00219356
-0.0736165
-0.00237585
-0.0710525
-0.002564
-0.0683014
-0.00275112
-0.0653621
-0.00293921
-0.0622363
-0.00312584
-0.0589265
-0.0033097
-0.0554329
-0.0034936
-0.0517601
-0.00367273
-0.0479099
-0.00385017
-0.0438896
-0.00402024
-0.0397064
-0.00418309
-0.0353741
-0.00433233
-0.0309111
-0.00446293
-0.0263458
-0.0045652
-0.0217208
-0.00462491
-0.0170956
-0.00462515
-0.0125445
-0.0045511
-0.00813674
-0.00440769
-0.00386354
-0.00427317
0.000381275
-0.00424472
0.00472279
-0.00434144
0.0093002
-0.00457732
0.014167
-0.00486674
0.0192335
-0.00506642
0.0243969
-0.00516326
0.0295901
-0.0051931
0.0347565
-0.00516637
0.0398462
-0.00508964
0.0448206
-0.00497434
0.0496482
-0.0048275
0.0543027
-0.00465446
0.0587669
-0.0044641
0.0630271
-0.0042602
0.0670778
-0.00405062
0.0709179
-0.00384014
0.074548
-0.00363
0.0779732
-0.00342522
0.0811961
-0.00322283
0.0842245
-0.00302831
0.08706
-0.0028355
0.0897089
-0.00264884
0.0921717
-0.00246273
0.0944505
-0.00227874
0.0965527
-0.00210219
0.0984834
-0.00193065
0.100255
-0.00177117
0.101872
-0.00161749
0.103345
-0.00147301
0.104682
-0.00133711
0.105889
-0.00120674
0.106979
-0.00109009
-0.00097584
-0.0864229
-0.00247904
0.0876775
-0.0850727
-0.00271518
-0.0836177
-0.00296817
-0.0820485
-0.00324271
-0.0803591
-0.00352914
-0.0785358
-0.00383666
-0.0765722
-0.00415726
-0.0744542
-0.00449381
-0.0721736
-0.00484462
-0.0697203
-0.00520447
-0.0670846
-0.00557489
-0.0642593
-0.00595119
-0.0612353
-0.00633371
-0.0580125
-0.00671642
-0.0545876
-0.00709765
-0.0509612
-0.00747652
-0.047137
-0.00784451
-0.0431222
-0.00819791
-0.0389237
-0.00853081
-0.0345541
-0.00883256
-0.0300252
-0.00909408
-0.025344
-0.00930611
-0.0205081
-0.00946096
-0.0154942
-0.00956502
-0.010265
-0.00963687
-0.00482593
-0.00971219
0.000747087
-0.00981774
0.0063658
-0.00996013
0.0119264
-0.0101379
0.0173907
-0.010331
0.0227999
-0.0104756
0.0281762
-0.0105395
0.0335043
-0.0105212
0.0387618
-0.0104238
0.0439196
-0.0102475
0.0489496
-0.0100043
0.0538238
-0.00970169
0.0585227
-0.0093534
0.0630262
-0.00896763
0.0673215
-0.00855551
0.0713971
-0.00812617
0.0752424
-0.00768545
0.0788568
-0.00724446
0.0822372
-0.00680558
0.0853857
-0.00637137
0.088307
-0.00594957
0.0910099
-0.00553849
0.0934994
-0.00513836
0.0957914
-0.00475475
0.0978995
-0.00438681
0.0998387
-0.00404143
0.101622
-0.00371364
0.103258
-0.00340782
0.104765
-0.00312385
0.106148
-0.00285637
0.107423
-0.00261238
0.108597
-0.00238073
0.109681
-0.00217374
-0.00198291
-0.0945148
-0.00388323
0.095919
-0.0930018
-0.0042282
-0.0913721
-0.00459778
-0.089623
-0.00499182
-0.0877392
-0.005413
-0.0857135
-0.00586227
-0.0835356
-0.00633519
-0.0811983
-0.00683107
-0.0786904
-0.0073525
-0.0760018
-0.00789309
-0.0731236
-0.00845308
-0.0700486
-0.00902624
-0.0667709
-0.00961134
-0.0632847
-0.0102027
-0.0595853
-0.010797
-0.0556758
-0.0113861
-0.0515522
-0.0119681
-0.0472193
-0.0125308
-0.0426808
-0.0130693
-0.0379407
-0.0135727
-0.0330007
-0.0140341
-0.0278634
-0.0144435
-0.0225263
-0.014798
-0.0169909
-0.0151004
-0.0112708
-0.015357
-0.00539818
-0.0155848
0.000581912
-0.0157978
0.00662336
-0.0160016
0.0126749
-0.0161895
0.0186853
-0.0163415
0.0246361
-0.0164264
0.0305185
-0.0164219
0.0363165
-0.0163193
0.0420081
-0.0161154
0.0475747
-0.0158141
0.0529939
-0.0154236
0.0582441
-0.0149519
0.0633064
-0.0144156
0.0681648
-0.0138261
0.0728025
-0.0131933
0.0772106
-0.0125342
0.0813817
-0.0118566
0.0853112
-0.011174
0.0889956
-0.01049
0.0924427
-0.00981845
0.0956522
-0.00915903
0.0986339
-0.00852023
0.101399
-0.00790377
0.10396
-0.00731503
0.106327
-0.00675399
0.108511
-0.00622524
0.110522
-0.00572544
0.112375
-0.00526081
0.114077
-0.0048251
0.115638
-0.00441788
0.11707
-0.00404392
0.11839
-0.00370096
0.119602
-0.00338539
-0.00309616
-0.101087
-0.00533019
0.102534
-0.0995274
-0.0057877
-0.0978423
-0.00628287
-0.0960234
-0.00681073
-0.0940637
-0.00737264
-0.0919538
-0.00797221
-0.0896842
-0.00860478
-0.0872405
-0.00927481
-0.0846166
-0.00997642
-0.0818015
-0.0107081
-0.078787
-0.0114676
-0.0755588
-0.0122545
-0.0721125
-0.0130576
-0.0684368
-0.0138784
-0.0645301
-0.0147037
-0.0603838
-0.0155324
-0.055999
-0.0163529
-0.0513752
-0.0171546
-0.0465142
-0.0179304
-0.0414188
-0.0186681
-0.0360924
-0.0193604
-0.0305385
-0.0199974
-0.0247628
-0.0205737
-0.0187789
-0.0210844
-0.0126042
-0.0215317
-0.00626838
-0.0219206
0.000184411
-0.0222506
0.00670475
-0.022522
0.013242
-0.0227268
0.0197524
-0.0228519
0.0262058
-0.0228798
0.03258
-0.0227962
0.0388531
-0.0225924
0.0450047
-0.022267
0.0510101
-0.0218196
0.0568499
-0.0212633
0.0625039
-0.0206059
0.0679466
-0.0198584
0.073161
-0.0190404
0.0781348
-0.0181671
0.0828557
-0.0172551
0.0873158
-0.0163167
0.0915101
-0.0153682
0.0954388
-0.0144187
0.0991005
-0.0134801
0.102507
-0.0125656
0.105662
-0.0116749
0.10858
-0.0108223
0.111268
-0.0100032
0.113745
-0.0092304
0.116021
-0.00850124
0.118112
-0.00781653
0.120027
-0.00717563
0.121785
-0.00658325
0.123399
-0.00603187
0.124882
-0.005527
0.126243
-0.00506223
0.127492
-0.00463405
-0.00424703
-0.109677
-0.0069121
0.111259
-0.107961
-0.00750355
-0.106108
-0.00813574
-0.104109
-0.00881015
-0.101953
-0.00952804
-0.0996345
-0.0102912
-0.0971385
-0.0111008
-0.0944608
-0.0119525
-0.0915893
-0.012848
-0.0885138
-0.0137836
-0.0852247
-0.0147567
-0.0817136
-0.0157656
-0.0779711
-0.0168002
-0.0739921
-0.0178574
-0.0697665
-0.0189294
-0.0652919
-0.020007
-0.0605653
-0.0210795
-0.0555834
-0.0221365
-0.05035
-0.0231638
-0.0448644
-0.0241538
-0.039135
-0.0250899
-0.0331681
-0.0259643
-0.0269756
-0.0267661
-0.0205727
-0.0274873
-0.0139832
-0.0281212
-0.00724001
-0.0286638
-0.000380341
-0.0291103
0.00655471
-0.029457
0.013522
-0.0296941
0.0204807
-0.0298106
0.0273956
-0.0297947
0.0342348
-0.0296355
0.0409688
-0.0293263
0.0475722
-0.0288704
0.0540209
-0.0282683
0.060286
-0.0275284
0.066345
-0.0266649
0.0721779
-0.0256914
0.0777653
-0.0246278
0.0830948
-0.0234966
0.0881504
-0.0223107
0.09293
-0.0210963
0.0974266
-0.0198648
0.101643
-0.0186354
0.105584
-0.017421
0.109252
-0.0162333
0.11266
-0.0150831
0.115815
-0.0139779
0.118732
-0.0129199
0.121421
-0.0119191
0.123896
-0.0109767
0.126172
-0.0100924
0.128266
-0.00926899
0.130184
-0.0085018
0.131946
-0.00779418
0.133561
-0.00714196
0.135041
-0.00654187
0.136398
-0.00599138
-0.00548691
-0.117681
-0.00857438
0.119343
-0.115879
-0.00930542
-0.113933
-0.0100823
-0.111828
-0.0109143
-0.109554
-0.0118026
-0.107104
-0.0127415
-0.104465
-0.0137394
-0.101626
-0.0147911
-0.0985761
-0.0158981
-0.0953066
-0.0170531
-0.0918054
-0.0182579
-0.0880643
-0.0195067
-0.0840714
-0.0207931
-0.0798183
-0.0221105
-0.0752996
-0.0234481
-0.07051
-0.0247967
-0.0654454
-0.026144
-0.0601102
-0.0274718
-0.0545027
-0.0287713
-0.0486295
-0.030027
-0.0424948
-0.0312246
-0.0361113
-0.0323478
-0.0294922
-0.0333853
-0.0226577
-0.0343218
-0.0156351
-0.0351438
-0.00845655
-0.0358424
-0.00115937
-0.0364075
0.0062183
-0.0368347
0.0136362
-0.037112
0.0210542
-0.0372286
0.0284361
-0.0371765
0.0357441
-0.0369435
0.042946
-0.0365283
0.050013
-0.0359374
0.0569127
-0.0351681
0.0636205
-0.0342361
0.0701099
-0.0331542
0.0763496
-0.0319311
0.0823237
-0.030602
0.088014
-0.0291869
0.0934123
-0.027709
0.098507
-0.0261911
0.103299
-0.024657
0.107786
-0.023122
0.111973
-0.0216085
0.115867
-0.0201272
0.119475
-0.0186912
0.122809
-0.0173112
0.125883
-0.0159941
0.128711
-0.0147468
0.131309
-0.0135755
0.133692
-0.0124753
0.135875
-0.0114518
0.137874
-0.0105013
0.139706
-0.0096263
0.14138
-0.00881525
0.142909
-0.00807157
0.144312
-0.00739346
-0.00676676
-0.126553
-0.0103546
0.128333
-0.124621
-0.0112373
-0.122528
-0.0121753
-0.120264
-0.013178
-0.11782
-0.014247
-0.115181
-0.0153805
-0.112338
-0.0165825
-0.109277
-0.0178515
-0.105994
-0.0191815
-0.102471
-0.0205757
-0.0987034
-0.0220256
-0.094681
-0.0235291
-0.0903915
-0.0250826
-0.0858275
-0.0266745
-0.0809827
-0.0282928
-0.0758526
-0.0299268
-0.0704304
-0.0315662
-0.0647269
-0.0331754
-0.0587394
-0.0347588
-0.052477
-0.0362894
-0.0459419
-0.0377597
-0.0391498
-0.0391399
-0.0321166
-0.0404184
-0.0248585
-0.0415798
-0.0174115
-0.0425908
-0.00980653
-0.0434474
-0.00208348
-0.0441306
0.00572506
-0.0446432
0.0135812
-0.0449681
0.0214436
-0.0450911
0.0292788
-0.0450117
0.0370397
-0.0447044
0.0446928
-0.0441814
0.0522093
-0.0434538
0.0595498
-0.0425086
0.0666927
-0.041379
0.0736085
-0.04007
0.0802504
-0.0385731
0.0866096
-0.0369611
0.092666
-0.0352432
0.0984124
-0.0334555
0.103836
-0.0316144
0.108935
-0.0297565
0.113708
-0.0278945
0.118163
-0.0260639
0.122305
-0.0242687
0.126142
-0.022529
0.129684
-0.0208528
0.132946
-0.0192562
0.135944
-0.0177449
0.13869
-0.0163215
0.14121
-0.0149949
0.143513
-0.0137551
0.145619
-0.0126071
0.147542
-0.0115486
0.149299
-0.0105722
0.150904
-0.0096768
0.152368
-0.00885778
-0.00810221
-0.135339
-0.0122448
0.137229
-0.133296
-0.0132799
-0.131088
-0.0143837
-0.128693
-0.0155726
-0.126107
-0.016833
-0.12331
-0.0181781
-0.120299
-0.0195932
-0.11705
-0.0211004
-0.113548
-0.0226841
-0.109803
-0.0243201
-0.105794
-0.0260352
-0.10151
-0.0278133
-0.0969432
-0.0296489
-0.0920816
-0.0315362
-0.0869209
-0.0334534
-0.0814496
-0.0353982
-0.0756607
-0.0373551
-0.0695852
-0.0392509
-0.0632204
-0.0411236
-0.0565686
-0.0429412
-0.0496271
-0.0447012
-0.0424224
-0.0463446
-0.0349746
-0.0478663
-0.0272715
-0.0492829
-0.0193872
-0.0504751
-0.0113395
-0.0514951
-0.00318639
-0.0522837
0.0050641
-0.0528937
0.0133689
-0.0532729
0.021681
-0.0534033
0.0299818
-0.0533125
0.0381958
-0.0529184
0.0462944
-0.05228
0.0542751
-0.0514345
0.0620529
-0.0502865
0.069638
-0.0489641
0.0770167
-0.0474487
0.0840655
-0.0456218
0.0908136
-0.0437093
0.0972437
-0.0416734
0.103342
-0.0395537
0.109105
-0.0373775
0.114506
-0.035157
0.119554
-0.0329433
0.124282
-0.0307914
0.128655
-0.0286416
0.132714
-0.0265886
0.136455
-0.024593
0.139873
-0.0226744
0.142998
-0.0208704
0.145853
-0.019176
0.148459
-0.017601
0.150834
-0.0161306
0.152998
-0.0147708
0.154969
-0.0135192
0.156767
-0.01237
0.158403
-0.0113131
0.159899
-0.0103539
-0.00946841
-0.144678
0.146682
-0.0142488
-0.142504
-0.0154537
-0.140159
-0.0167289
-0.13761
-0.0181216
-0.134855
-0.0195877
-0.131859
-0.0211739
-0.128621
-0.022832
-0.12517
-0.0245506
-0.121466
-0.0263888
-0.11742
-0.0283662
-0.113133
-0.0303218
-0.108556
-0.0323906
-0.103641
-0.0345641
-0.0984623
-0.0367146
-0.0929393
-0.0389765
-0.0871628
-0.0411746
-0.081072
-0.0434459
-0.0746348
-0.0456881
-0.0678351
-0.0479233
-0.0607713
-0.050005
-0.053406
-0.0520665
-0.0458247
-0.053926
-0.0379906
-0.0557004
-0.0298389
-0.0574346
-0.0215116
-0.0588024
-0.0130348
-0.0599719
-0.00448203
-0.0608365
0.00422099
-0.0615967
0.0130153
-0.0620671
0.0217496
-0.0621376
0.0305218
-0.0620847
0.0392063
-0.0616029
0.047715
-0.0607888
0.0561716
-0.059891
0.0644374
-0.0585523
0.0724823
-0.057009
0.0802019
-0.0551683
0.0875767
-0.0529965
0.0947698
-0.0509024
0.101578
-0.0484813
0.108035
-0.0460113
0.114178
-0.0435198
0.119922
-0.0409016
0.1253
-0.0383206
0.130308
-0.0358001
0.13493
-0.0332635
0.139181
-0.0308393
0.143058
-0.0284702
0.146681
-0.0262978
0.149994
-0.0241833
0.152995
-0.0221767
0.15571
-0.020316
0.15816
-0.0185804
0.160404
-0.0170148
0.16244
-0.0155554
0.164277
-0.0142072
0.165941
-0.0129774
0.16739
-0.0118019
-0.0108351
-0.0504163
0.0115708
-0.0609975
0.0105811
-0.0705902
0.00959245
-0.0789952
0.00840506
-0.0862469
0.00725149
-0.0927407
0.00649398
-0.0988105
0.00606977
-0.104596
0.00578586
-0.110122
0.00552531
-0.115026
0.00490445
-0.118684
0.00365819
-0.120766
0.00208224
-0.121396
0.00062999
-0.121035
-0.000360757
-0.12023
-0.000804995
-0.119117
-0.00111359
-0.117452
-0.0016647
-0.1151
-0.00235197
-0.112193
-0.00290692
-0.108882
-0.00331132
-0.105239
-0.00364335
-0.101296
-0.00394209
-0.097079
-0.00421734
-0.0926552
-0.00442376
-0.00483996
-0.0548842
0.0212361
-0.0645151
0.0202117
-0.0736619
0.0187392
-0.0822979
0.0170408
-0.0904357
0.0153892
-0.0979946
0.0140528
-0.104895
0.0129703
-0.111051
0.011942
-0.116259
0.0107327
-0.120372
0.0090177
-0.123485
0.00677185
-0.125674
0.00427074
-0.126901
0.0018576
-0.127088
-0.000174179
-0.126229
-0.00166415
-0.124523
-0.00281917
-0.122254
-0.00393437
-0.119553
-0.00505236
-0.116401
-0.00605927
-0.112776
-0.00693625
-0.108701
-0.00771858
-0.104184
-0.0084583
-0.0992139
-0.00918778
-0.0936876
-0.00995002
-0.01085
-0.0602358
0.0319917
-0.0705727
0.0305485
-0.0804568
0.0286231
-0.0898542
0.0264381
-0.0986672
0.0242021
-0.106709
0.0220941
-0.11382
0.0200816
-0.119895
0.0180174
-0.12487
0.0157073
-0.128829
0.012977
-0.131902
0.00984466
-0.134157
0.00652517
-0.135603
0.00330389
-0.136184
0.000406769
-0.135805
-0.00204291
-0.134488
-0.00413584
-0.132396
-0.00602728
-0.129663
-0.00778437
-0.126343
-0.00937967
-0.122459
-0.0108204
-0.118045
-0.0121321
-0.11314
-0.0133635
-0.107786
-0.0145419
-0.102024
-0.0157116
-0.0169554
-0.0653818
0.0439282
-0.076623
0.0417896
-0.0872628
0.0392627
-0.0972931
0.0364683
-0.10662
0.0335285
-0.115079
0.0305538
-0.122524
0.0275259
-0.128865
0.0243583
-0.134084
0.020927
-0.138264
0.0171563
-0.141515
0.0130965
-0.143907
0.00891694
-0.145439
0.00483582
-0.146078
0.00104582
-0.145763
-0.00235862
-0.144508
-0.00539017
-0.142401
-0.00813462
-0.139542
-0.010643
-0.135986
-0.012936
-0.131783
-0.0150234
-0.126966
-0.0169494
-0.121579
-0.0187501
-0.11566
-0.0204603
-0.109264
-0.0221075
-0.0236861
-0.0705713
0.0568602
-0.0827647
0.0539828
-0.0942283
0.0507262
-0.104945
0.0471851
-0.114824
0.043407
-0.123744
0.0394741
-0.131589
0.0353711
-0.138298
0.0310671
-0.143868
0.0264965
-0.148357
0.0216455
-0.15185
0.0165898
-0.154404
0.011471
-0.156022
0.00645377
-0.156688
0.00171155
-0.156388
-0.00265839
-0.155126
-0.00665199
-0.152961
-0.0103003
-0.149974
-0.0136297
-0.146231
-0.0166794
-0.141788
-0.0194656
-0.136704
-0.0220341
-0.131037
-0.024417
-0.124857
-0.0266398
-0.118248
-0.0287172
-0.0306749
-0.0759428
0.0705874
-0.089056
0.0670959
-0.101339
0.0630096
-0.112762
0.0586081
-0.123235
0.0538798
-0.132675
0.0489137
-0.140979
0.0436756
-0.148113
0.0382005
-0.154074
0.0324577
-0.158898
0.0264688
-0.162652
0.0203438
-0.165372
0.0141917
-0.167075
0.00815618
-0.167762
0.00239882
-0.167426
-0.00299484
-0.166098
-0.00797962
-0.163833
-0.0125655
-0.160684
-0.0167781
-0.156728
-0.0206356
-0.15202
-0.0241737
-0.146626
-0.0274275
-0.140602
-0.030441
-0.134004
-0.0332381
-0.126889
-0.035832
-0.0382207
-0.0813686
0.0854573
-0.0955015
0.0812287
-0.108629
0.0761368
-0.120788
0.0707668
-0.131897
0.0649893
-0.141907
0.0589235
-0.150705
0.0524733
-0.15829
0.0457857
-0.164649
0.0388163
-0.169808
0.0316283
-0.173823
0.0243585
-0.176727
0.0170956
-0.17852
0.00994935
-0.179216
0.00309446
-0.178849
-0.00336206
-0.177445
-0.0093836
-0.175054
-0.014956
-0.171742
-0.02009
-0.167573
-0.0248051
-0.162626
-0.0291203
-0.156961
-0.0330931
-0.150646
-0.0367555
-0.143724
-0.0401605
-0.136263
-0.0432928
-0.0461507
-0.0870368
0.101718
-0.102207
0.0963986
-0.116138
0.0900681
-0.129043
0.0836715
-0.140816
0.0767626
-0.151434
0.0695412
-0.160745
0.0617846
-0.168788
0.0538286
-0.175561
0.04559
-0.181051
0.0371176
-0.185311
0.0286191
-0.188406
0.0201905
-0.190286
0.0118291
-0.190994
0.00380253
-0.190582
-0.00377418
-0.18908
-0.0108856
-0.18655
-0.0174856
-0.183054
-0.023587
-0.178657
-0.0292011
-0.173448
-0.0343294
-0.16749
-0.0390514
-0.160866
-0.0433802
-0.153578
-0.0474484
-0.145683
-0.0511878
-0.0546041
-0.0932854
0.119232
-0.109224
0.112337
-0.123829
0.104673
-0.137496
0.0973381
-0.149971
0.0892379
-0.161265
0.0808347
-0.171088
0.071608
-0.179588
0.062328
-0.186784
0.0527869
-0.19263
0.042963
-0.197101
0.0330902
-0.200372
0.0234617
-0.202364
0.0138204
-0.203057
0.00449603
-0.202591
-0.00424015
-0.200984
-0.0124932
-0.19829
-0.0201795
-0.194614
-0.0272623
-0.189963
-0.0338525
-0.184415
-0.0398773
-0.178126
-0.0453406
-0.171134
-0.0503718
-0.163426
-0.0551568
-0.155295
-0.0593184
-0.0632174
0.953909
4.33974
-0.365179
-3.97455
3.50638
-1.48578
-2.02061
0.260212
-0.359325
0.0991128
0.32233
-0.390857
0.0685273
-0.98379
-0.526015
1.5098
-0.607932
0.840835
-0.232902
3.21927
-4.48313
1.26387
-0.0460397
-0.171336
0.217375
5.46978
-3.72992
-1.73986
-0.950416
2.15245
-1.20204
-1.26169
0.368777
0.892914
1.4335
-2.40487
0.971371
-1.76397
0.629744
1.13423
0.105514
-0.104205
-0.00130871
5.71876
-5.62976
-0.0890013
1.03209
2.4743
0.121462
-0.0210748
-0.100388
-0.252257
-0.246974
0.456175
0.335616
-0.791791
-0.325693
0.196439
0.129253
3.24532
2.36368
-5.609
-1.3178
1.3261
-0.00830224
1.53584
-1.37198
-0.16386
-1.17521
0.564592
0.610617
1.44134
0.0944991
-1.29451
0.850753
0.443755
-0.314529
0.0270681
0.287461
5.7632
-3.0618
-2.7014
-0.0352861
-0.127452
0.162738
-0.0987593
0.70891
-0.610152
-2.50112
1.40422
1.09689
1.26931
0.970256
-2.23956
3.36478
-5.86936
2.50458
-0.285566
-0.0656644
0.35123
-0.396649
2.52588
-2.12923
-1.08235
-0.681622
-4.33943