/*--------------------------------*- C++ -*----------------------------------*\
  =========                 |
  \\      /  F ield         | OpenFOAM: The Open Source CFD Toolbox
   \\    /   O peration     | Website:  https://openfoam.org
    \\  /    A nd           | Version:  10
     \\/     M anipulation  |
\*---------------------------------------------------------------------------*/
FoamFile
{
    format      ascii;
    class       volVectorField;
    location    "1850";
    object      U;
}
// * * * * * * * * * * * * * * * * * * * * * * * * * * * * * * * * * * * * * //

dimensions      [0 1 -1 0 0 0 0];

internalField   nonuniform List<vector> 
10435
(
(3.24935 1.55385 8.63386e-22)
(3.31132 2.16875 -5.28495e-20)
(4.37626 -0.36721 -3.02608e-20)
(4.26328 1.03989 9.82379e-20)
(3.7311 0.617581 -3.5852e-20)
(3.03999 -0.154583 2.33826e-19)
(4.61716 -0.339119 -1.05723e-19)
(5.18043 -0.310884 7.52408e-20)
(5.06107 -0.317825 2.65544e-19)
(3.42821 -0.347271 -6.41074e-20)
(3.50044 1.80461 -1.05074e-19)
(4.83638 0.14535 1.89974e-19)
(3.29746 -0.384485 6.76656e-20)
(1.32858 1.19258 -3.05536e-20)
(1.58082 1.35142 -3.32679e-20)
(5.01726 -0.345327 -7.82112e-21)
(1.10235 1.01957 9.80536e-21)
(2.85567 -0.331041 2.2961e-19)
(4.83994 -0.326146 -1.07463e-19)
(3.48454 1.4605 -1.60903e-20)
(5.10647 -0.328159 5.12552e-20)
(4.26009 0.83488 -1.49407e-19)
(4.84558 -0.348207 3.36501e-19)
(4.99185 -0.38946 -1.2454e-19)
(3.86429 -0.312064 7.6251e-20)
(0.305278 0.506413 -1.20075e-21)
(0.0322136 0.22913 -2.90937e-21)
(3.87163 -0.358483 5.66548e-20)
(0.172711 0.0695759 5.53649e-22)
(3.08951 -0.344815 3.41193e-19)
(4.59935 -0.286146 1.47788e-19)
(3.55833 1.58771 -6.92913e-21)
(5.19932 -0.304476 -1.6148e-19)
(0.425242 0.0984207 6.08058e-21)
(5.20404 -0.377074 8.62558e-20)
(2.90329 2.46644 2.28506e-20)
(5.16594 -0.362377 1.24395e-19)
(0.168741 0.449398 1.03729e-20)
(0.471008 0.473256 -9.14916e-22)
(4.92914 -0.374833 3.34482e-20)
(2.85313 -0.333797 -3.42485e-19)
(4.62025 -0.336971 -8.55947e-20)
(0.923486 1.17802 -4.43177e-20)
(3.93155 1.4123 -1.48286e-19)
(5.03271 -0.338392 -2.58986e-19)
(4.98014 -0.407605 1.97189e-19)
(2.9557 -0.245897 -2.57346e-19)
(0.589357 0.857593 -1.32223e-19)
(5.01835 -0.295152 8.7408e-20)
(4.17172 0.588676 -5.0012e-20)
(5.17504 -0.333111 -1.18017e-20)
(3.98875 -0.128284 1.15628e-18)
(0.522807 0.504853 -3.03468e-21)
(0.255704 -0.0527639 6.21936e-22)
(0.420081 0.481518 5.24571e-22)
(0.119891 0.0218991 -1.56789e-21)
(5.18877 -0.362704 -3.7574e-19)
(0.162925 0.374252 6.25822e-21)
(0.734752 0.519544 -7.13201e-21)
(5.16215 -0.389243 2.54377e-19)
(0.472247 0.519014 2.0542e-21)
(3.18514 2.30325 4.67547e-20)
(0.160032 0.264983 -5.37047e-21)
(4.05175 0.0169678 -9.7958e-20)
(4.93375 -0.340877 -4.75658e-19)
(4.20643 -0.364331 2.20219e-19)
(0.614873 0.33934 1.44635e-20)
(0.369444 0.492814 2.27787e-20)
(5.12292 -0.310185 -9.32918e-20)
(4.92738 -0.338427 9.77735e-21)
(0.205524 -0.0850306 -2.37781e-21)
(0.229095 0.510532 9.41487e-22)
(1.12599 1.41312 1.57446e-19)
(4.43026 -0.354385 -2.8959e-19)
(1.86426 1.50349 -1.3208e-20)
(1.30278 1.6391 1.36697e-20)
(4.86817 -0.267884 5.42447e-19)
(4.73763 -0.328872 2.67333e-19)
(5.18261 -0.27764 2.25717e-20)
(1.81617 1.25275 8.28241e-20)
(4.48972 0.201035 6.32087e-20)
(2.89188 1.36237 -1.6377e-22)
(0.57362 0.539291 4.1237e-21)
(0.298121 -0.0266567 -4.92302e-22)
(4.61986 0.0343824 -1.22388e-19)
(2.84285 2.30501 5.58126e-20)
(3.10156 2.07424 3.3317e-22)
(3.85909 1.63338 3.02595e-20)
(2.35654 2.01332 -8.49385e-21)
(3.31919 2.01593 9.67252e-21)
(4.00791 1.45416 -2.60739e-20)
(4.14161 1.24951 -2.55311e-20)
(3.14282 1.3025 4.13641e-21)
(2.60393 2.07411 3.39155e-20)
(3.51516 1.91833 1.38941e-20)
(2.73899 2.48353 3.13663e-20)
(4.30405 1.0102 3.05693e-19)
(1.91657 1.72636 2.00327e-20)
(0.904815 0.69234 -1.22305e-20)
(4.27365 0.815644 -2.65523e-19)
(2.13341 1.88213 3.72741e-20)
(3.12782 0.49973 -1.41826e-19)
(2.85806 2.09426 -1.83133e-20)
(3.69571 1.7882 -1.49674e-20)
(3.09702 0.289011 -7.32127e-21)
(4.10508 1.23901 8.19889e-21)
(3.37944 1.20257 5.70011e-21)
(4.34022 0.383887 7.23224e-20)
(4.74574 -0.0987951 -1.52684e-19)
(2.08111 1.33061 -2.21273e-20)
(3.99823 0.762061 -1.98061e-20)
(3.17158 0.710561 -7.89746e-20)
(2.62571 1.38201 -2.44277e-20)
(2.35418 1.37474 -1.84118e-20)
(4.11638 1.03828 -1.63219e-19)
(4.09054 1.02157 4.01719e-20)
(4.39932 0.592862 -1.39982e-19)
(3.04598 2.28452 -1.62812e-20)
(3.68314 1.82676 -1.66477e-19)
(4.57653 0.536198 -3.92388e-20)
(4.5273 0.404118 -4.28448e-19)
(1.43996 1.845 1.46578e-20)
(3.22638 2.22236 3.8013e-20)
(2.22847 2.48418 -1.28067e-19)
(3.19375 1.48276 2.94734e-20)
(0.397439 0.521311 1.14937e-21)
(4.45743 0.752877 2.76993e-19)
(1.72875 2.11178 -2.95673e-20)
(4.11819 0.597134 -2.63772e-19)
(0.0901427 0.431778 -8.783e-22)
(2.00418 2.32963 5.48371e-20)
(3.17915 1.71477 -1.72841e-19)
(5.12819 -0.348353 -1.32337e-19)
(1.55929 1.1401 6.3523e-20)
(0.191383 0.482856 1.63384e-22)
(0.763365 0.708337 4.19442e-22)
(2.56473 2.6179 4.07069e-20)
(4.41491 0.819732 -1.83386e-20)
(3.54566 1.98796 4.31583e-20)
(3.90254 1.18761 3.54466e-20)
(3.70056 1.33707 4.79811e-21)
(4.80081 -0.322689 -5.31131e-19)
(0.523241 0.225661 3.97672e-20)
(4.57312 -0.0254191 1.19396e-18)
(4.41682 0.635087 2.47812e-20)
(1.73451 1.84628 1.23758e-19)
(2.41334 2.58592 -1.57098e-20)
(3.66474 -0.0340002 -3.29969e-19)
(1.13057 1.22096 5.42935e-20)
(4.83276 -0.0449782 7.36512e-20)
(0.501566 0.766732 -3.37632e-22)
(5.09976 -0.316982 2.31285e-19)
(3.32065 1.7869 2.284e-21)
(4.78564 -0.123074 5.10958e-19)
(3.65951 -0.201852 -2.88984e-19)
(0.417699 0.645418 3.80054e-21)
(3.18823 1.21933 2.3594e-19)
(3.39203 2.12102 -3.18848e-21)
(3.47486 -0.271022 -2.30552e-19)
(3.1006 2.15996 -2.30401e-20)
(4.91383 -0.236921 -9.56111e-20)
(1.32652 1.00557 -1.30271e-20)
(3.91355 1.40586 1.89513e-19)
(4.8166 0.11842 1.37926e-19)
(2.14256 1.59531 3.84223e-20)
(4.32959 0.366561 9.67447e-19)
(5.20085 -0.327988 -2.48266e-19)
(4.67812 0.406645 -1.28196e-19)
(4.99357 -0.164516 1.88887e-19)
(4.3553 0.123027 -1.68424e-18)
(3.94648 -0.268061 2.65135e-19)
(0.952735 1.18065 -4.78175e-20)
(0.00489988 0.140498 1.36553e-21)
(1.95403 1.94861 -2.99421e-21)
(4.98901 -0.119028 -2.76417e-19)
(3.02344 2.33206 -2.85028e-20)
(3.05105 2.40356 -2.6427e-20)
(0.723332 0.869155 1.86106e-20)
(3.80817 0.92515 1.17876e-20)
(0.234633 0.124419 -7.86526e-22)
(3.41922 2.00046 6.45585e-20)
(3.09433 -0.0298584 -4.07596e-20)
(4.82234 0.0647947 -6.59825e-19)
(0.456092 0.546394 8.46567e-22)
(4.8961 -0.293868 7.4575e-20)
(0.808417 1.07952 6.27023e-20)
(1.18965 1.5123 -1.46796e-19)
(4.87574 -0.331491 -2.13274e-19)
(3.65652 0.440777 9.85331e-20)
(4.34506 -0.0872595 -7.82343e-19)
(4.68845 0.271397 1.03352e-19)
(0.621778 0.578691 4.21347e-21)
(0.129157 0.465115 1.5576e-21)
(2.69801 2.61183 -1.29226e-20)
(3.17988 0.9622 1.08013e-19)
(5.02952 -0.322543 1.32164e-20)
(1.18056 1.41457 1.46023e-19)
(2.61683 2.28095 -2.47085e-20)
(0.666258 0.89792 1.35215e-19)
(5.10259 -0.358119 1.88156e-19)
(2.25667 1.8133 -4.45198e-20)
(0.255049 0.529553 9.73439e-21)
(3.61116 -0.364302 -1.62378e-20)
(0.226751 0.475211 9.93244e-21)
(3.98084 -0.360455 -6.36457e-20)
(3.91655 1.05503 -1.43925e-21)
(3.79468 1.63806 1.86852e-19)
(4.55758 0.600849 -9.05046e-20)
(0.225202 0.250543 -5.53047e-21)
(4.56356 0.438677 -6.50617e-20)
(0.596041 0.813357 -2.14804e-20)
(4.67796 -0.337015 -4.34011e-19)
(4.60399 0.181331 9.60036e-19)
(4.9155 0.0206224 7.01367e-20)
(0.0592981 0.21107 1.7824e-21)
(1.37753 1.41502 -1.43119e-19)
(2.43606 1.61925 1.08975e-20)
(0.598452 0.674191 -3.30644e-21)
(0.289084 0.483045 1.059e-21)
(1.11351 0.852989 1.31507e-20)
(0.278098 0.0801973 -5.44576e-22)
(0.766387 0.798934 3.9376e-20)
(0.437184 0.282411 -2.28541e-20)
(2.07748 2.18941 -1.9875e-19)
(0.338489 0.563318 7.00927e-22)
(5.18428 -0.363701 -6.13985e-20)
(0.360494 0.475139 -2.41722e-21)
(2.36759 2.20371 2.23486e-20)
(4.40814 -0.203985 8.47809e-19)
(1.5909 1.90616 -1.29129e-19)
(0.562075 0.639884 -1.33751e-19)
(5.20813 -0.348404 2.71818e-19)
(0.32843 0.481247 -3.34882e-21)
(5.10358 -0.301765 2.75696e-19)
(0.0616216 0.359031 7.19959e-21)
(0.892789 0.855863 -6.73295e-20)
(5.13499 -0.36302 -3.51478e-19)
(0.293977 0.529199 -1.5213e-21)
(5.08462 -0.320022 -2.26491e-20)
(4.31865 -0.274608 5.16448e-21)
(3.74501 1.56378 4.63836e-20)
(0.404334 0.572921 3.50575e-22)
(0.653297 0.754447 4.78246e-22)
(0.166902 -0.0057642 -1.52507e-22)
(3.90721 1.25659 -3.44997e-19)
(5.15762 -0.301187 8.75818e-20)
(2.55047 2.45347 -1.07006e-19)
(5.05904 -0.292795 7.46274e-20)
(0.0275295 0.0217858 3.41382e-22)
(2.92228 2.46187 2.02758e-20)
(0.0835491 -0.0421819 -6.01409e-22)
(2.53813 1.84501 -3.25161e-20)
(3.30062 -0.35787 -1.17829e-19)
(4.69551 0.260308 -1.21786e-19)
(4.94017 -0.309292 -1.8112e-19)
(4.02484 0.267238 3.90818e-19)
(0.0422398 -0.0134834 -9.48891e-22)
(4.82981 -0.307046 2.54192e-19)
(0.526809 0.710645 1.60105e-21)
(0.37211 0.621941 -3.56683e-20)
(4.69985 -0.320683 1.25993e-20)
(4.08979 -0.233111 2.43294e-21)
(0.360271 0.536585 3.79803e-22)
(4.88661 -0.148242 -2.90674e-19)
(2.71501 1.62768 8.25126e-21)
(0.654703 0.596138 7.48006e-20)
(3.54203 1.69082 7.83998e-21)
(4.67339 -0.337206 2.71285e-19)
(0.560199 0.591366 -1.10095e-21)
(4.01596 0.846349 5.3622e-20)
(4.58211 -0.340133 -1.71758e-22)
(5.14284 -0.260851 -3.85998e-20)
(5.02599 -0.282291 -2.71264e-20)
(3.94578 -0.338394 -2.80438e-19)
(0.244228 0.490418 -9.69328e-22)
(4.66963 0.371021 -1.81674e-19)
(0.1327 0.435287 -6.34372e-21)
(3.63712 0.887916 4.04025e-20)
(4.99798 -0.344722 7.29751e-20)
(5.17236 -0.248601 1.5502e-20)
(3.53842 -0.365421 1.39663e-19)
(0.930118 1.13595 -2.02376e-19)
(4.42274 -0.344677 -7.39525e-21)
(2.15922 2.08538 -1.54195e-20)
(2.8066 1.86182 -1.34729e-20)
(0.66418 0.680184 -1.62138e-21)
(3.66091 0.248774 5.98348e-20)
(0.398768 0.459107 -9.29593e-22)
(0.344771 -0.000390212 -2.65433e-21)
(0.34745 0.101787 1.50168e-21)
(2.31532 2.35688 1.60639e-19)
(3.15374 1.95054 1.91391e-19)
(0.28902 0.207645 3.02325e-21)
(5.09634 -0.264977 7.3824e-20)
(0.451955 0.438878 -1.31019e-22)
(0.158608 -0.0851776 1.25418e-22)
(1.47288 1.66072 -3.68513e-21)
(2.99133 1.60939 3.67953e-21)
(3.59798 1.13926 -5.32827e-21)
(4.3383 -0.328477 1.73499e-19)
(0.494831 0.672616 2.06093e-19)
(5.02628 -0.267319 -1.00445e-19)
(4.24108 -0.340482 -2.5703e-21)
(0.0148272 0.0578927 2.35085e-22)
(3.57843 1.3777 -8.94927e-20)
(1.63487 1.58853 7.69013e-20)
(0.919258 1.02255 7.44272e-20)
(5.09358 -0.269741 -2.16241e-20)
(4.28203 -0.341388 -2.34382e-21)
(0.390273 0.0190324 1.02096e-21)
(3.59807 1.077 1.05586e-20)
(0.272395 0.544253 4.83771e-21)
(2.81835 2.55558 -7.95845e-21)
(3.62634 0.105273 -1.74366e-19)
(5.15165 -0.348387 -4.63939e-20)
(0.121793 -0.0644398 9.01596e-23)
(0.483714 0.589569 -1.62213e-21)
(4.65005 -0.174188 -9.54796e-19)
(0.442199 0.464017 1.95508e-21)
(4.772 0.256572 1.51447e-19)
(3.0421 0.119703 -6.20767e-20)
(0.131116 0.184565 4.19779e-21)
(3.07429 1.8441 -2.37126e-21)
(0.671393 0.62343 1.95156e-21)
(5.18457 -0.242305 -9.63698e-21)
(3.69568 -0.357312 -6.07425e-20)
(0.209462 0.495199 -1.43783e-22)
(4.06057 -0.344078 -3.27008e-22)
(0.522929 0.419362 -1.02135e-21)
(0.107049 0.363136 -8.79816e-21)
(5.1147 -0.379726 1.76097e-21)
(0.439053 0.158549 -3.32639e-21)
(0.430219 0.03479 1.39259e-21)
(4.41509 -0.354396 9.26686e-21)
(4.98631 -0.190447 2.37984e-19)
(0.224899 0.368396 -1.74966e-20)
(0.117914 -0.0454229 2.85765e-22)
(0.0400415 0.00496167 7.85082e-23)
(0.484058 0.0782107 8.75664e-22)
(0.0302585 0.111177 3.14662e-22)
(0.181464 0.487917 4.57068e-22)
(0.306208 0.565347 4.18369e-21)
(0.519015 0.548628 -3.6398e-22)
(0.00432788 0.144209 -5.58642e-22)
(0.00755378 0.0997799 9.30176e-23)
(0.390658 0.647248 -4.80569e-21)
(0.286201 0.355417 5.02771e-21)
(0.00713097 0.312771 -7.79394e-23)
(0.715048 0.664204 -3.30267e-21)
(5.17344 -0.26458 -5.74385e-20)
(0.461649 0.0529747 3.16545e-21)
(3.90195 -0.363435 7.16998e-21)
(0.00957866 0.193975 8.33273e-23)
(3.85485 -0.353601 -1.3656e-21)
(5.17198 -0.241087 2.5519e-20)
(4.96603 -0.259694 -2.13159e-20)
(3.22503 -0.415073 -2.94831e-21)
(4.59241 -0.359351 -1.85323e-19)
(0.211231 -0.0297321 1.77485e-21)
(0.365439 0.0492452 -5.69854e-21)
(0.0774258 -0.0163997 -4.6091e-22)
(0.344976 0.498131 3.36551e-21)
(0.0536492 0.0795368 -9.75652e-24)
(0.61463 0.63451 1.68833e-21)
(0.0809919 0.173169 -1.81512e-21)
(0.154573 0.473327 2.92679e-22)
(0.303175 0.497258 -5.02248e-20)
(4.96688 -0.054031 -2.08886e-20)
(0.163896 0.483718 -3.3925e-21)
(5.12374 -0.278816 6.42903e-20)
(0.376286 0.487209 -7.22483e-22)
(0.126404 0.452067 -3.95688e-22)
(3.03506 -0.459571 -2.7413e-20)
(4.82997 -0.272028 -6.94527e-20)
(0.713615 0.741985 1.49098e-20)
(0.00532116 0.247693 -1.75289e-22)
(0.111632 0.274895 1.8101e-21)
(0.0210327 0.279456 6.65932e-23)
(0.310717 0.0303417 1.65435e-21)
(0.257309 0.507005 -4.0183e-22)
(-0.000116396 0.297296 3.72384e-22)
(0.426492 0.501079 -9.8717e-22)
(5.19142 -0.271658 -1.65635e-20)
(0.352425 0.323089 -8.44108e-21)
(5.13247 -0.287905 8.79314e-21)
(5.13397 -0.239956 8.83095e-20)
(3.63034 -0.366135 -5.04412e-22)
(3.40797 -0.38947 5.59151e-20)
(5.07274 -0.250669 -3.9358e-20)
(4.06608 -0.343978 -1.8817e-20)
(5.19048 -0.366984 -5.72454e-20)
(1.87742 2.13848 5.90482e-21)
(0.763995 0.967929 -2.77266e-20)
(0.215366 0.0325158 2.27482e-21)
(0.157711 -0.0610786 -1.60884e-21)
(4.23566 -0.342742 2.73528e-20)
(0.256597 -0.000716194 -4.99057e-21)
(3.05335 -0.406898 -1.33108e-19)
(0.00802051 0.324429 1.48317e-22)
(0.178327 0.160823 -5.34852e-22)
(0.0931865 0.419231 -8.9089e-23)
(0.361846 0.185604 -2.08016e-21)
(0.516494 0.64656 3.85738e-21)
(4.80688 -0.336847 3.94432e-19)
(0.0735169 0.288632 -5.27683e-22)
(5.17699 -0.280402 3.72657e-21)
(5.05131 -0.224892 -1.12416e-19)
(0.720286 0.855348 -2.17153e-21)
(0.217778 0.499219 3.87935e-22)
(0.0475433 0.359074 5.10993e-23)
(4.83969 -0.290028 9.30913e-20)
(0.0720683 0.392793 7.26659e-22)
(0.188945 0.491116 1.83429e-22)
(0.423619 0.61043 -4.81574e-21)
(0.0857866 0.0523467 3.37829e-22)
(0.419123 0.653899 1.93038e-20)
(0.10117 0.128647 2.38843e-22)
(4.16454 -0.351174 1.53817e-19)
(0.146299 -0.0882612 5.47379e-23)
(0.243749 0.509069 1.31886e-21)
(0.133216 0.106045 -9.42094e-22)
(0.529911 0.143172 -1.937e-20)
(2.7864 -0.353928 -1.08715e-19)
(0.851068 0.917726 2.18795e-20)
(0.792186 0.768623 -4.19506e-20)
(4.6377 -0.263773 -1.42214e-19)
(0.415284 0.0598988 -1.48762e-21)
(0.411453 -0.36249 1.56895e-21)
(0.433154 -0.345392 2.46483e-23)
(0.483779 -0.346366 -1.20434e-21)
(0.519766 -0.346741 6.27822e-22)
(0.559434 -0.348298 -7.71993e-22)
(0.591474 -0.349053 -2.42215e-21)
(0.622641 -0.349707 6.07084e-22)
(0.648848 -0.350325 7.62484e-22)
(0.673759 -0.349526 8.41847e-22)
(0.444627 -0.349454 -1.20728e-21)
(0.465792 -0.339599 -1.80655e-22)
(0.513897 -0.339129 1.08343e-21)
(0.550293 -0.34037 -2.30864e-21)
(0.587888 -0.341605 1.91876e-21)
(0.619359 -0.342742 3.48042e-21)
(0.648737 -0.343457 -2.1984e-21)
(0.673782 -0.343936 2.58196e-21)
(0.695585 -0.343356 -1.20267e-21)
(0.479173 -0.33329 3.31069e-21)
(0.497602 -0.327413 1.10453e-21)
(0.543881 -0.327136 -2.59215e-21)
(0.579787 -0.329283 1.32528e-21)
(0.615691 -0.330678 -3.70692e-21)
(0.646236 -0.332136 -6.51813e-22)
(0.674072 -0.333066 1.00419e-23)
(0.697735 -0.33366 -1.22873e-21)
(0.717972 -0.333406 -2.37852e-21)
(0.510844 -0.315534 -1.796e-21)
(0.527482 -0.310979 1.48175e-21)
(0.572547 -0.311116 2.22013e-21)
(0.608039 -0.313985 7.00875e-23)
(0.642575 -0.315656 1.66889e-21)
(0.672219 -0.317378 5.55564e-21)
(0.698767 -0.318457 -3.45005e-21)
(0.721314 -0.319099 6.30046e-22)
(0.740607 -0.318836 1.4999e-21)
(0.540153 -0.29535 4.23993e-23)
(0.555651 -0.291 -5.52883e-22)
(0.59962 -0.291488 2.30906e-22)
(0.634785 -0.294633 -1.36804e-21)
(0.668273 -0.296523 5.86365e-22)
(0.697177 -0.29837 -1.24071e-21)
(0.7228 -0.299493 6.85464e-22)
(0.744639 -0.300093 2.73059e-21)
(0.763579 -0.299497 6.96659e-22)
(0.567136 -0.272294 3.3424e-22)
(0.581952 -0.267665 -3.40146e-21)
(0.624876 -0.268433 2.28e-22)
(0.659853 -0.271383 3.27068e-21)
(0.692588 -0.273312 -1.08672e-21)
(0.72098 -0.275094 -1.61538e-21)
(0.746017 -0.276138 -5.16091e-22)
(0.767499 -0.276609 -4.93907e-21)
(0.786194 -0.27606 2.92209e-21)
(0.59096 -0.247286 3.80216e-22)
(0.606195 -0.241397 2.49075e-21)
(0.648221 -0.242184 4.42641e-22)
(0.683173 -0.244379 -1.63665e-21)
(0.715404 -0.246061 3.57208e-22)
(0.743522 -0.247518 -8.4024e-22)
(0.768298 -0.24826 1.32381e-21)
(0.789716 -0.248367 -1.29784e-21)
(0.808461 -0.247491 -8.84751e-22)
(0.610644 -0.220823 -1.16413e-21)
(0.628784 -0.212395 2.25053e-21)
(0.669866 -0.212725 -5.21436e-22)
(0.704763 -0.213658 1.05373e-21)
(0.736626 -0.214795 -7.9256e-22)
(0.764678 -0.215662 2.37664e-21)
(0.789491 -0.215867 3.36848e-21)
(0.811148 -0.215478 -4.68595e-21)
(0.830367 -0.213572 1.42747e-21)
(0.62692 -0.190006 -3.0786e-22)
(0.65038 -0.179672 4.70275e-22)
(0.689975 -0.179388 3.13134e-22)
(0.724519 -0.179077 -1.13178e-21)
(0.756076 -0.179523 -3.15676e-22)
(0.784249 -0.179578 -1.02779e-21)
(0.80936 -0.178987 -5.80312e-22)
(0.831556 -0.17771 4.72119e-21)
(0.851265 -0.175426 -5.40799e-22)
(0.64185 -0.152312 5.95119e-22)
(0.67044 -0.142161 -1.75315e-21)
(0.707821 -0.141737 -9.85776e-22)
(0.741911 -0.140727 2.7263e-22)
(0.773393 -0.140463 -3.57951e-22)
(0.801971 -0.139502 1.59215e-21)
(0.827682 -0.137781 2.29462e-22)
(0.850636 -0.135226 3.17804e-21)
(0.871099 -0.131441 -1.40298e-22)
(0.657126 -0.110016 -5.99476e-22)
(0.687325 -0.10146 -1.61746e-22)
(0.722124 -0.101074 6.79679e-22)
(0.756249 -0.0995485 1.10258e-21)
(0.788188 -0.0983049 -3.31774e-22)
(0.817581 -0.0960064 -3.75177e-22)
(0.844271 -0.092798 -9.83566e-22)
(0.868378 -0.0885727 -3.6234e-21)
(0.889994 -0.0831472 -5.52369e-22)
(0.671506 -0.0676999 1.08134e-21)
(0.699231 -0.0613651 1.65839e-21)
(0.732585 -0.0597701 -1.30262e-21)
(0.767448 -0.0570085 6.93527e-22)
(0.800367 -0.0540242 -1.26794e-22)
(0.830898 -0.049861 2.16959e-21)
(0.858774 -0.0447552 2.09658e-22)
(0.884101 -0.0385817 -1.79052e-21)
(0.907079 -0.0322763 -1.30803e-21)
(0.681191 -0.0282244 2.61931e-22)
(0.70696 -0.0231052 -3.51019e-22)
(0.740226 -0.0189699 6.53989e-23)
(0.776126 -0.013925 4.47127e-22)
(0.810228 -0.00828363 -3.02888e-22)
(0.842015 -0.00159738 -3.90455e-22)
(0.871159 0.00601995 -7.26542e-22)
(0.897717 0.014549 1.3559e-21)
(0.922121 0.0239618 -8.15433e-22)
(0.685149 0.0098422 -3.65913e-22)
(0.711818 0.014655 -1.5461e-23)
(0.745892 0.0218407 -2.47478e-22)
(0.782844 0.0298008 7.01595e-22)
(0.818051 0.0386862 -1.28317e-22)
(0.851021 0.0483219 -7.48895e-23)
(0.881393 0.058771 -5.02685e-22)
(0.909215 0.0699024 6.28749e-23)
(0.934607 0.0822236 4.70799e-22)
(0.683294 0.0486798 1.16075e-21)
(0.713916 0.0533686 -1.72743e-22)
(0.749674 0.0638224 1.37894e-21)
(0.787672 0.0747978 -1.99379e-21)
(0.823818 0.0870703 2.25049e-22)
(0.857821 0.0998249 7.23805e-22)
(0.889323 0.113323 5.12372e-22)
(0.918406 0.127514 7.38259e-22)
(0.945156 0.142824 -2.60941e-21)
(0.674544 0.0912953 5.23326e-22)
(0.71256 0.0950621 -5.41867e-22)
(0.750974 0.108383 -1.97885e-21)
(0.790086 0.121826 2.64108e-21)
(0.827101 0.137094 9.04235e-22)
(0.862068 0.152745 -4.77312e-22)
(0.894667 0.169143 -5.45892e-23)
(0.924923 0.186247 1.98803e-21)
(0.952582 0.203955 -8.65746e-22)
(0.662248 0.137915 2.33806e-21)
(0.705374 0.141048 -1.65188e-21)
(0.748071 0.156155 1.91061e-21)
(0.78886 0.17118 -1.3026e-21)
(0.827004 0.188732 -1.38806e-21)
(0.863047 0.206879 5.56718e-21)
(0.896769 0.225948 -3.67828e-21)
(0.928194 0.245889 -1.49036e-21)
(0.957564 0.265852 3.67667e-22)
(0.649346 0.184868 -3.10494e-21)
(0.693096 0.188493 2.31175e-21)
(0.739768 0.205542 -1.07323e-21)
(0.782884 0.221851 1.67829e-21)
(0.82268 0.241292 3.82688e-22)
(0.860165 0.261724 -4.53714e-21)
(0.895262 0.283464 4.17687e-22)
(0.927977 0.306411 -2.17729e-21)
(0.958579 0.330112 -2.79176e-21)
(0.635264 0.229515 -6.55834e-22)
(0.676812 0.234405 -5.30978e-22)
(0.726313 0.254112 -1.22094e-21)
(0.771882 0.272158 -4.88962e-21)
(0.813719 0.293523 1.19469e-21)
(0.853048 0.316173 2.06154e-21)
(0.889937 0.340438 2.36393e-21)
(0.924472 0.366057 2.95405e-21)
(0.956674 0.393065 -1.3717e-21)
(0.619057 0.271735 5.22688e-22)
(0.657409 0.277827 1.35194e-22)
(0.708527 0.300423 4.24793e-21)
(0.756117 0.320763 -3.63088e-22)
(0.800025 0.344291 2.08375e-21)
(0.841334 0.369276 -1.42715e-21)
(0.880143 0.396053 -9.95944e-21)
(0.916614 0.424298 -1.53068e-21)
(0.951146 0.453808 -2.16462e-22)
(0.599625 0.312188 1.24789e-21)
(0.634764 0.318739 -5.87506e-21)
(0.686892 0.343823 3.60866e-21)
(0.735943 0.366808 -4.24633e-21)
(0.78176 0.392759 3.22889e-21)
(0.825031 0.420353 -7.60065e-22)
(0.865794 0.44992 2.95473e-21)
(0.904134 0.481154 2.64328e-21)
(0.939703 0.514544 -9.25569e-22)
(0.577068 0.350247 2.91071e-21)
(0.608449 0.356675 5.46074e-21)
(0.661624 0.383623 -9.86507e-21)
(0.711619 0.409566 1.16395e-21)
(0.75908 0.438128 -8.87073e-21)
(0.804196 0.468511 2.55896e-21)
(0.847032 0.500926 1.00186e-21)
(0.88792 0.535126 -1.4806e-21)
(0.925439 0.573193 -7.21542e-22)
(0.552423 0.382502 -1.98368e-21)
(0.579032 0.390712 -4.63972e-21)
(0.633487 0.419321 5.46212e-21)
(0.683794 0.448807 5.72711e-21)
(0.732441 0.480196 6.2179e-21)
(0.778997 0.51354 -4.19553e-22)
(0.82361 0.548759 -2.08338e-21)
(0.866943 0.586089 6.0866e-21)
(0.906694 0.628008 -1.61419e-20)
(0.525462 0.406246 6.51711e-22)
(0.547083 0.419817 2.49986e-21)
(0.601931 0.450008 -1.5944e-21)
(0.651461 0.483299 3.02746e-21)
(0.700541 0.517577 -5.81955e-21)
(0.747995 0.554148 -1.59137e-21)
(0.793972 0.592181 8.77595e-21)
(0.840179 0.632919 -9.16336e-21)
(0.883791 0.681856 1.02027e-20)
(0.494805 0.424399 1.22113e-21)
(0.515928 0.449434 3.99585e-22)
(0.571473 0.483157 1.65009e-21)
(0.620217 0.518971 -3.50939e-21)
(0.669277 0.555468 9.62219e-22)
(0.716293 0.594382 -4.91921e-21)
(0.762322 0.634094 3.37196e-21)
(0.812491 0.676311 -3.16878e-21)
(0.85891 0.72731 -3.75431e-22)
(0.327148 0.287086 -3.18544e-22)
(0.320318 0.285212 -3.89465e-22)
(0.31309 0.282854 -1.23856e-21)
(0.305106 0.280114 1.74868e-21)
(0.29637 0.276967 -1.32111e-21)
(0.286863 0.273363 1.00486e-21)
(0.276583 0.269241 3.90166e-22)
(0.265541 0.26454 -1.10979e-22)
(0.253771 0.25919 -7.30788e-22)
(0.241324 0.253116 -3.00136e-22)
(0.228274 0.246242 3.35773e-22)
(0.214716 0.238486 -3.67541e-22)
(0.200764 0.22977 1.02426e-21)
(0.186548 0.220021 -2.5979e-21)
(0.172203 0.209163 4.5104e-21)
(0.157874 0.197141 -5.10049e-21)
(0.143709 0.183916 4.53796e-21)
(0.129847 0.16947 -2.0622e-21)
(0.116422 0.153822 -6.7901e-22)
(0.10355 0.137038 7.0673e-22)
(0.0913105 0.119241 -2.43662e-22)
(0.0797194 0.100622 5.37044e-22)
(0.0686383 0.0814017 2.97542e-23)
(0.0578958 0.062127 -7.49514e-22)
(0.0473035 0.0431463 5.88386e-22)
(0.0383842 0.0241767 -3.10716e-22)
(0.033305 0.004894 4.1573e-22)
(0.0324495 -0.0151449 3.23094e-22)
(0.0361121 -0.0360371 -3.95993e-22)
(0.0423357 -0.0580808 1.05117e-23)
(0.0487429 -0.081201 -3.47949e-22)
(0.0554965 -0.104563 3.20658e-22)
(0.0632838 -0.12788 6.09961e-22)
(0.0723284 -0.150915 -5.0712e-22)
(0.0826378 -0.173231 7.30584e-22)
(0.0941889 -0.194608 -1.20268e-21)
(0.106871 -0.214835 1.0271e-22)
(0.120532 -0.233753 2.57553e-22)
(0.135012 -0.25125 -3.98755e-22)
(0.150142 -0.267253 8.94233e-22)
(0.165764 -0.281737 -5.03541e-22)
(0.181726 -0.294711 -2.15869e-21)
(0.197878 -0.306208 4.44091e-21)
(0.214075 -0.316287 -4.72249e-21)
(0.230185 -0.325039 4.08946e-21)
(0.246066 -0.332562 -2.40786e-21)
(0.261582 -0.338961 1.23329e-21)
(0.276607 -0.344356 -4.38699e-22)
(0.291015 -0.348857 3.89879e-22)
(0.304698 -0.352566 -4.37077e-22)
(0.317613 -0.355571 -5.84516e-22)
(0.329752 -0.357952 -1.54027e-22)
(0.341103 -0.359797 3.37591e-22)
(0.351663 -0.361193 7.9508e-22)
(0.361437 -0.36221 -1.20937e-21)
(0.37044 -0.362918 1.57219e-21)
(0.378686 -0.363374 -1.07604e-21)
(0.386203 -0.363608 -3.74147e-22)
(0.393094 -0.363711 -2.67201e-22)
(0.343773 0.257539 -1.59375e-23)
(0.337534 0.255803 3.90097e-23)
(0.330821 0.253988 -1.20806e-22)
(0.323529 0.252005 2.76991e-22)
(0.315652 0.249827 4.12877e-23)
(0.30719 0.247363 -6.9552e-22)
(0.298128 0.244555 1.26028e-22)
(0.288451 0.241335 -4.53069e-23)
(0.278149 0.237626 5.17559e-22)
(0.267235 0.233338 -7.45663e-23)
(0.255733 0.228377 -1.44742e-22)
(0.243694 0.222638 -2.79282e-22)
(0.231186 0.21602 6.23056e-22)
(0.218295 0.208426 -6.26668e-22)
(0.20513 0.199766 6.52251e-22)
(0.191811 0.189967 -1.84442e-22)
(0.178465 0.178978 -3.98052e-22)
(0.165224 0.166768 3.86564e-22)
(0.152215 0.153332 2.06463e-22)
(0.139553 0.138689 2.28371e-23)
(0.127335 0.122875 7.08007e-24)
(0.11565 0.10593 -5.32745e-22)
(0.104595 0.0878492 4.18102e-22)
(0.0944495 0.0685492 -1.20769e-22)
(0.0857189 0.0476997 4.99137e-22)
(0.0790209 0.0252304 -2.13915e-22)
(0.0747556 0.00143442 -2.93836e-23)
(0.0730841 -0.0230959 1.13e-22)
(0.0741381 -0.0476568 6.63506e-24)
(0.0778902 -0.0716419 -7.66144e-24)
(0.0834439 -0.094977 -8.92464e-23)
(0.0903525 -0.11783 5.15034e-23)
(0.0986503 -0.140148 -4.53174e-23)
(0.108235 -0.161805 -1.39306e-22)
(0.118986 -0.182634 3.622e-23)
(0.13082 -0.202477 4.24146e-23)
(0.143624 -0.221181 2.54504e-22)
(0.157265 -0.238623 -4.60823e-22)
(0.171597 -0.25471 2.18872e-24)
(0.186463 -0.269377 -7.73726e-23)
(0.201706 -0.28259 9.71092e-23)
(0.217168 -0.294341 3.64006e-22)
(0.232693 -0.304649 -7.12169e-22)
(0.248131 -0.313559 -4.29339e-22)
(0.263332 -0.321139 8.83786e-22)
(0.278159 -0.327483 -7.81284e-22)
(0.292488 -0.332703 5.83989e-22)
(0.306209 -0.336933 -1.27561e-22)
(0.319234 -0.340307 -2.52439e-22)
(0.331552 -0.342933 1.64184e-23)
(0.343237 -0.344887 5.42999e-22)
(0.354295 -0.346247 -1.32919e-22)
(0.364705 -0.347113 1.56168e-22)
(0.374487 -0.347569 -7.33835e-22)
(0.383661 -0.347694 1.11132e-22)
(0.392206 -0.34759 2.80033e-22)
(0.400129 -0.347325 -1.86036e-22)
(0.407511 -0.346912 5.59291e-23)
(0.414433 -0.346465 -2.82322e-23)
(0.398019 0.247141 -4.48452e-22)
(0.39166 0.245491 8.73341e-23)
(0.384851 0.243653 -3.89506e-22)
(0.377575 0.241595 -9.57366e-23)
(0.369814 0.239263 1.34435e-21)
(0.361546 0.236614 -4.20613e-22)
(0.352753 0.233601 -8.12807e-22)
(0.34342 0.230173 -1.06172e-23)
(0.333542 0.226268 4.85833e-22)
(0.323123 0.221815 -1.27599e-22)
(0.312181 0.216736 1.32017e-21)
(0.300748 0.210948 -1.54679e-21)
(0.288877 0.204366 1.39702e-21)
(0.276636 0.196902 -1.8327e-22)
(0.26411 0.188476 -1.2107e-21)
(0.2514 0.179014 3.56297e-22)
(0.238617 0.168455 1.42551e-21)
(0.225881 0.156749 -5.81847e-22)
(0.213316 0.143861 -1.29489e-22)
(0.201048 0.129765 2.43885e-23)
(0.18921 0.11444 -3.91602e-22)
(0.177946 0.0978578 1.03656e-22)
(0.167438 0.0799769 -9.4858e-22)
(0.157943 0.0607501 1.13498e-21)
(0.14981 0.0401718 -4.42027e-22)
(0.143507 0.0183479 -7.70687e-25)
(0.139502 -0.00447056 6.02742e-23)
(0.138052 -0.0279286 -2.87576e-22)
(0.139193 -0.0516223 1.75125e-22)
(0.142674 -0.0751068 9.59296e-23)
(0.148044 -0.0980884 2.24623e-22)
(0.154967 -0.120473 -2.24134e-22)
(0.163256 -0.14217 1.04436e-22)
(0.172771 -0.163069 1.53024e-22)
(0.183382 -0.183063 -4.70968e-22)
(0.194973 -0.20205 1.34018e-21)
(0.207426 -0.21993 -8.68551e-22)
(0.220611 -0.236616 -2.06739e-22)
(0.234393 -0.252038 -2.04045e-22)
(0.248626 -0.26615 -6.9924e-23)
(0.263164 -0.278926 -3.48836e-22)
(0.277861 -0.290367 -5.66261e-22)
(0.292573 -0.300496 1.41237e-21)
(0.307161 -0.309357 6.59388e-22)
(0.321501 -0.317015 -1.35208e-21)
(0.335481 -0.323551 -4.2938e-22)
(0.349011 -0.329059 1.39003e-21)
(0.362022 -0.333638 -1.61401e-21)
(0.374476 -0.337389 1.13671e-21)
(0.386354 -0.340409 -4.68346e-23)
(0.397625 -0.342796 4.4341e-22)
(0.408252 -0.34464 7.45507e-23)
(0.418235 -0.346024 -7.87228e-22)
(0.427587 -0.34701 -3.8018e-22)
(0.436337 -0.347652 1.23887e-21)
(0.4445 -0.34801 -3.94831e-23)
(0.452134 -0.34812 -3.649e-22)
(0.459295 -0.348019 1.08183e-22)
(0.466006 -0.347752 -4.12325e-22)
(0.435326 0.241207 -1.26086e-22)
(0.428957 0.239977 5.9893e-22)
(0.422173 0.23857 -2.90192e-22)
(0.414911 0.236908 2.229e-22)
(0.407164 0.234963 -2.49189e-22)
(0.398918 0.232693 -1.83834e-23)
(0.390161 0.230048 -1.64287e-22)
(0.380888 0.226972 -4.38363e-22)
(0.371099 0.223401 2.95259e-22)
(0.360799 0.219265 3.75372e-22)
(0.350009 0.214486 2.96508e-22)
(0.338758 0.20898 -1.08748e-21)
(0.32709 0.20266 9.99167e-22)
(0.315066 0.195439 -2.03045e-22)
(0.302763 0.187231 1.40335e-22)
(0.290274 0.177957 -6.01605e-22)
(0.277707 0.167543 5.88205e-22)
(0.265185 0.155929 -2.42101e-22)
(0.252845 0.143063 -3.42322e-22)
(0.240837 0.128905 1.93436e-22)
(0.229325 0.113424 -1.03987e-22)
(0.218494 0.0965985 -5.53645e-22)
(0.208557 0.0784171 3.65597e-22)
(0.199767 0.058892 3.66429e-22)
(0.192411 0.0380824 -3.02927e-22)
(0.186789 0.0161247 3.42413e-23)
(0.183161 -0.00674238 3.49813e-22)
(0.181689 -0.0301977 -4.14436e-22)
(0.182424 -0.0538833 1.38319e-22)
(0.185285 -0.0774496 -3.75343e-23)
(0.190069 -0.100624 1.7672e-22)
(0.196559 -0.123226 -4.18902e-22)
(0.204569 -0.145113 3.20714e-22)
(0.213921 -0.166163 -7.82793e-24)
(0.224451 -0.186265 -4.15676e-22)
(0.236004 -0.20532 1.71634e-22)
(0.248427 -0.223236 4.64685e-22)
(0.261565 -0.239936 -2.31793e-22)
(0.275266 -0.255357 -1.81779e-22)
(0.289377 -0.269458 3.37044e-22)
(0.303745 -0.28222 -1.17817e-22)
(0.318223 -0.293644 -1.32894e-22)
(0.332671 -0.303756 7.77519e-22)
(0.346958 -0.3126 -7.26649e-22)
(0.360968 -0.32024 3.08143e-22)
(0.374602 -0.326754 -6.76309e-23)
(0.387778 -0.332231 9.99224e-22)
(0.400434 -0.336763 -9.43002e-22)
(0.412527 -0.340447 3.79404e-22)
(0.424028 -0.343374 3.13796e-22)
(0.434921 -0.345636 3.1214e-22)
(0.445207 -0.347318 -4.58678e-22)
(0.454898 -0.348498 -1.06246e-22)
(0.463999 -0.34927 -1.32898e-22)
(0.472524 -0.349695 -2.16215e-22)
(0.480543 -0.349795 1.58734e-22)
(0.488084 -0.349619 -2.86005e-22)
(0.495156 -0.349225 5.83871e-22)
(0.501818 -0.348676 -1.65655e-22)
(0.482064 0.237831 -7.78832e-22)
(0.475729 0.236457 7.68034e-23)
(0.468921 0.234901 7.59251e-22)
(0.461614 0.233111 -5.44735e-22)
(0.453801 0.231048 1.43754e-22)
(0.445475 0.228663 4.70417e-22)
(0.436634 0.225906 -6.0667e-22)
(0.427278 0.222719 2.26293e-22)
(0.417415 0.21904 7.20109e-22)
(0.407061 0.214801 -2.54294e-22)
(0.396241 0.209929 -7.49283e-22)
(0.384988 0.204344 -2.42163e-22)
(0.373348 0.197966 6.31658e-22)
(0.361383 0.190711 5.57422e-22)
(0.349167 0.182496 -1.32685e-22)
(0.33679 0.17324 -7.73875e-22)