/*--------------------------------*- C++ -*----------------------------------*\
  =========                 |
  \\      /  F ield         | OpenFOAM: The Open Source CFD Toolbox
   \\    /   O peration     | Website:  https://openfoam.org
    \\  /    A nd           | Version:  10
     \\/     M anipulation  |
\*---------------------------------------------------------------------------*/
FoamFile
{
    format      ascii;
    class       volScalarField;
    location    "650";
    object      epsilon;
}
// * * * * * * * * * * * * * * * * * * * * * * * * * * * * * * * * * * * * * //

dimensions      [0 2 -3 0 0 0 0];

internalField   nonuniform List<scalar> 
23845
(
0.0415001
0.0599078
0.0597891
0.014432
0.0419583
0.00241602
0.0751236
0.0112171
0.00189688
0.0256525
0.0236897
0.0020643
0.00359806
0.00217739
0.121436
0.0125178
0.00642898
0.00869182
0.00466455
0.00313749
0.0333831
0.0209391
0.0275014
0.00191246
0.0259727
0.00141666
0.0513661
0.00285442
0.0108538
0.00311697
0.0160421
0.0253786
0.13732
0.00919695
0.00208112
0.00256629
0.0213757
0.00208955
0.00217311
0.00211351
0.00433848
0.00600185
0.00303866
0.00588503
0.00106525
0.0041941
0.0292427
0.0140483
0.0235214
0.0113709
0.0150391
0.0487268
0.0286629
0.00254417
0.0246031
0.00570261
0.0560588
0.0115548
0.042419
0.0367914
0.0110195
0.00630333
0.0109069
0.0133513
0.0017369
0.00364167
0.0544363
0.000922056
0.000949918
0.00577769
0.010959
0.0440087
0.00179789
0.104941
0.00152139
0.118345
0.0020663
0.00220273
0.0118132
0.00956953
0.0391372
0.0960756
0.0606004
0.0116402
0.0669654
0.00209676
0.08096
0.0300875
0.00169739
0.00808711
0.0146978
0.00561532
0.0115787
0.00256157
0.011877
0.0129551
0.00562643
0.0157883
0.00148824
0.0332882
0.00662683
0.0590686
0.050712
0.0143096
0.013583
0.0120056
0.00243841
0.00135523
0.046959
0.00574631
0.0210997
0.00211641
0.0918652
0.0209779
0.00268382
0.0235093
0.00164216
0.0153694
0.0109932
0.0135534
0.00215266
0.018222
0.00598221
0.0226903
0.0628614
0.0015422
0.0109377
0.0112587
0.0423179
0.0322476
0.0597992
0.0385271
0.0277375
0.00227277
0.00841331
0.0478305
0.0134666
0.00204359
0.0451143
0.002213
0.0123231
0.00562371
0.00221877
0.00634482
0.00898596
0.00537889
0.0185447
0.0876477
0.0201643
0.00949256
0.12955
0.00254051
0.070042
0.00286507
0.0858097
0.0166494
0.0475824
0.0022756
0.080115
0.0118678
0.00750313
0.118555
0.0122367
0.0017853
0.00239242
0.0119963
0.00228925
0.0165921
0.00298124
0.00526588
0.00233154
0.015674
0.00188297
0.0190102
0.00183454
0.0115973
0.00642156
0.0219632
0.00131211
0.00224282
0.0334701
0.0294546
0.102693
0.0186689
0.0109775
0.00467732
0.00603261
0.0115365
0.0109671
0.00577007
0.0124221
0.00225731
0.0022721
0.00243227
0.008201
0.00218816
0.0129468
0.0112428
0.0224669
0.0223826
0.0135621
0.00238308
0.0178231
0.0342906
0.0114178
0.0120383
0.0564751
0.0023049
0.0499635
0.00979417
0.0102538
0.0151015
0.00778379
0.00303176
0.019353
0.0229402
0.0292317
0.00663398
0.0182461
0.0557317
0.00203967
0.112848
0.0130766
0.0138202
0.00549601
0.128096
0.0141548
0.00228453
0.00244114
0.0045371
0.00240612
0.0209226
0.00214769
0.00105321
0.0428007
0.0107471
0.00168017
0.0145723
0.00196779
0.0174277
0.027394
0.0169779
0.0115918
0.040829
0.0170861
0.0119618
0.00239987
0.000929826
0.0117591
0.115725
0.00429903
0.00222648
0.014806
0.00287689
0.0999977
0.0142378
0.0163039
0.0130078
0.00272344
0.00204056
0.0343262
0.00229989
0.0109037
0.0203483
0.0178993
0.00189308
0.0115958
0.0273846
0.0207718
0.0137574
0.00220168
0.014332
0.0163241
0.00236149
0.0186231
0.00226041
0.0128151
0.00236035
0.0214128
0.0264499
0.0127508
0.0024831
0.0136615
0.0105802
0.00213998
0.0141649
0.019605
0.00234336
0.0117824
0.0973657
0.0115845
0.0187637
0.0126812
0.0128062
0.0116735
0.00211714
0.0176658
0.00243491
0.00212583
0.0116506
0.0854158
0.119287
0.0107502
0.0136782
0.00244573
0.014467
0.0146015
0.0158589
0.00627691
0.0119652
0.0168292
0.0643611
0.00468468
0.00235327
0.034143
0.0118637
0.015836
0.0295871
0.014043
0.00225949
0.0152761
0.0158379
0.0284148
0.0031107
0.110089
0.00232554
0.0122409
0.0303896
0.0164169
0.00928017
0.0709371
0.0122132
0.0144515
0.00228068
0.0169132
0.0155297
0.0210683
0.00835056
0.00512569
0.0117437
0.0177733
0.0236232
0.0212478
0.00113022
0.00110303
0.025009
0.00225895
0.0129444
0.0120222
0.114041
0.0201345
0.0580059
0.0112699
0.0137093
0.0291724
0.00225106
0.0048146
0.001885
0.0999328
0.0114394
0.0298059
0.0016662
0.0178174
0.00918374
0.01095
0.00231228
0.0217653
0.00268538
0.0112894
0.00138135
0.00570409
0.0147945
0.0268665
0.00206364
0.00235432
0.0141906
0.0319401
0.0172341
0.00522915
0.0149543
0.105912
0.00235561
0.0267293
0.00104922
0.00108798
0.00214583
0.00242758
0.0116483
0.0129755
0.0115833
0.0599312
0.00506642
0.0176813
0.016046
0.0176255
0.0123297
0.0174553
0.00129143
0.00614262
0.00232564
0.0259362
0.0183084
0.0122485
0.0208661
0.0479428
0.108701
0.00226058
0.0211205
0.0120409
0.0129357
0.126329
0.00098911
0.0846215
0.0235561
0.0510403
0.0379292
0.0222141
0.016623
0.00229635
0.0218407
0.0984599
0.00388925
0.00200318
0.0118846
0.0114023
0.0526627
0.0867255
0.0178562
0.0234332
0.0285071
0.00226741
0.00850611
0.0245415
0.00799256
0.00383224
0.00160197
0.00205418
0.00452592
0.0109306
0.0219694
0.116625
0.0685287
0.0129423
0.040328
0.0180178
0.0175005
0.00320886
0.0204634
0.00230462
0.0159212
0.0116739
0.002405
0.0567273
0.00229505
0.00109569
0.0220519
0.0373278
0.0366249
0.0121533
0.0025382
0.0526257
0.0131028
0.0133217
0.034405
0.00244332
0.00227312
0.00248242
0.0200236
0.00118068
0.114791
0.00301557
0.00232933
0.0166911
0.0116186
0.0154601
0.0398178
0.00210247
0.0173182
0.00280277
0.00773798
0.0242268
0.020453
0.0153787
0.0198633
0.0131002
0.0942683
0.0021957
0.00211922
0.063046
0.0210776
0.00141248
0.0824705
0.0128886
0.0217017
0.0115277
0.0261566
0.00168366
0.0347014
0.00157137
0.0022952
0.0749869
0.013221
0.0275518
0.0243915
0.0118788
0.0118799
0.0183306
0.00337275
0.00281272
0.0235463
0.0151259
0.0368402
0.0206257
0.0157942
0.00236847
0.00121877
0.0192014
0.123315
0.0939667
0.00490552
0.0274143
0.00264003
0.00914402
0.0198512
0.00132231
0.0796901
0.104826
0.0139821
0.029989
0.012037
0.0109101
0.115583
0.0325166
0.0267551
0.00597026
0.003481
0.00265515
0.0184546
0.0264759
0.0121976
0.0636861
0.00250378
0.0242698
0.0248721
0.00774223
0.023708
0.0201595
0.00313642
0.00293305
0.00299111
0.00279554
0.00211053
0.0219735
0.00321133
0.0114045
0.0668878
0.00485523
0.0333847
0.00228742
0.00269327
0.0118152
0.0121124
0.0424401
0.00327061
0.00482884
0.0195127
0.013575
0.00165826
0.0108858
0.00298567
0.00126881
0.0807414
0.00482413
0.00244771
0.0144982
0.0322786
0.01863
0.0861411
0.0125111
0.0283767
0.00141021
0.00208703
0.00824992
0.0753354
0.0206018
0.00449605
0.00183777
0.00189303
0.0129285
0.00183121
0.0278569
0.123064
0.0501821
0.0164747
0.0118165
0.00481703
0.00119968
0.00261455
0.00831046
0.00209192
0.0452586
0.00293997
0.0267811
0.107673
0.0185252
0.0322466
0.0132194
0.0276319
0.0868273
0.0156478
0.0244335
0.0504114
0.0570354
0.0319402
0.0256193
0.0509979
0.0270605
0.048617
0.00325185
0.00280896
0.0278036
0.0110318
0.026774
0.0149514
0.0519003
0.0114162
0.00397142
0.00631838
0.00273552
0.0106225
0.00346388
0.00364567
0.0236673
0.00271749
0.00208234
0.10283
0.051486
0.0146676
0.00145583
0.0159728
0.0413529
0.0121352
0.00287286
0.00317494
0.0375661
0.0314099
0.0362665
0.00277697
0.0305835
0.0559202
0.00262719
0.00218355
0.0255354
0.0124486
0.0119075
0.138052
0.0378758
0.0245929
0.0152431
0.0218919
0.0123589
0.00637484
0.00983716
0.0523547
0.00872705
0.00146073
0.00263604
0.0381896
0.0172434
0.0294251
0.00953983
0.0126345
0.0208065
0.0136969
0.0118057
0.0229927
0.0107556
0.0252371
0.0192481
0.00907354
0.0241872
0.00915691
0.00503788
0.008407
0.00876247
0.0348165
0.00533965
0.00735677
0.0292519
0.0291104
0.00654937
0.00552421
0.0129109
0.0147073
0.0167189
0.0196275
0.021862
0.0111965
0.0239397
0.0101885
0.0225356
0.00871105
0.017606
0.00805852
0.00847356
0.00891394
0.00699468
0.00597116
0.00624501
0.00382655
0.00580053
0.0184385
0.00193863
0.005266
0.00621757
0.00570305
0.0024787
0.0176751
0.00539442
0.0154572
0.0174715
0.0104292
0.00507268
0.00564522
0.00275195
0.0162256
0.0122858
0.0268223
0.00233675
0.014698
0.00458661
0.00795191
0.00290027
0.0050909
0.0231973
0.00830765
0.0265232
0.00521096
0.00248767
0.00363224
0.00122093
0.00432412
0.0129399
0.0112424
0.00187417
0.00474873
0.0252198
0.00414563
0.00383373
0.00329494
0.0821955
0.00487349
0.00103177
0.0331185
0.00599492
0.0195997
0.0236421
0.0204217
0.0207934
0.0183308
0.0242332
0.00518046
0.0107772
0.0150478
0.0192985
0.00970642
0.011759
0.00766423
0.0584826
0.00686284
0.00373504
0.0209953
0.0191436
0.0267129
0.0180935
0.0161906
0.00345211
0.044705
0.019635
0.00863985
0.00602513
0.00794098
0.0161282
0.00227966
0.0171427
0.00401422
0.0040284
0.00595072
0.00422494
0.003858
0.00558103
0.0053678
0.00858255
0.00514372
0.00447391
0.00501547
0.0384167
0.0103615
0.00364345
0.00752162
0.00644384
0.00487519
0.0266122
0.016053
0.0218218
0.0117339
0.00539871
0.00354592
0.00547484
0.0048798
0.0529751
0.0212007
0.0209943
0.00944289
0.00372037
0.0107458
0.0118247
0.0169927
0.00435017
0.00620228
0.00205023
0.00250834
0.00737564
0.00284277
0.00289201
0.00154207
0.00379222
0.00179723
0.00234125
0.00193107
0.00176159
0.00143588
0.00315051
0.00413295
0.00253086
0.00268766
0.00878637
0.00515347
0.0059458
0.0395643
0.0228678
0.00135183
0.00182334
0.00466875
0.0250983
0.0160316
0.0229066
0.0141248
0.00942312
0.00398948
0.00421166
0.00553768
0.00830788
0.0083942
0.00337826
0.00557051
0.00339049
0.0067163
0.00204003
0.101735
0.00214524
0.0184657
0.0062086
0.0279803
0.00344244
0.00466572
0.00670511
0.00483585
0.0132394
0.0104971
0.00516662
0.0150759
0.00314216
0.00352649
0.00215752
0.00210999
0.00177515
0.0016674
0.00490983
0.00488506
0.00367423
0.0180406
0.00373587
0.0174211
0.0188495
0.0185988
0.00539938
0.0140824
0.00499773
0.00199004
0.00698916
0.00161486
0.0111402
0.00365334
0.00172191
0.0162355
0.00339143
0.00226968
0.0149768
0.00337649
0.00908435
0.018404
0.0112444
0.00527239
0.00972774
0.0036339
0.00778852
0.00359106
0.018211
0.0334846
0.00221001
0.00972235
0.0135467
0.01463
0.0312
0.016924
0.00436036
0.00871924
0.00732885
0.00625424
0.134904
0.018524
0.00571808
0.00498463
0.00293393
0.0234527
0.00502307
0.127482
0.00473769
0.00183553
0.00460136
0.00302686
0.00547274
0.00446994
0.00459246
0.03854
0.00374499
0.0251439
0.00857531
0.0256861
0.00453498
0.0114744
0.0112201
0.0139531
0.0146278
0.00789684
0.015659
0.0086198
0.0162412
0.0178846
0.0210076
0.00781848
0.0192713
0.0187947
0.010777
0.0294054
0.0233633
0.0166523
0.0234187
0.0035694
0.00693185
0.00837728
0.00605858
0.00278774
0.00550129
0.0137469
0.00597631
0.00342878
0.0162512
0.013534
0.0169196
0.00671541
0.0322535
0.00331073
0.00517443
0.00537772
0.00489965
0.00934948
0.0022602
0.0167397
0.0318223
0.0545045
0.0032054
0.00453474
0.0202089
0.0234313
0.00321626
0.0180242
0.0121755
0.0112236
0.0155994
0.0172453
0.00628658
0.0185072
0.0238039
0.0208997
0.0275304
0.0280618
0.0297821
0.00334172
0.00829743
0.00817106
0.0044767
0.0128579
0.0156024
0.00491195
0.0256367
0.00331386
0.103553
0.00347461
0.00324151
0.011348
0.00311648
0.00101309
0.00219513
0.00182791
0.00475732
0.00388665
0.00425647
0.00528495
0.0261048
0.0112928
0.00354015
0.0112477
0.00784291
0.0257707
0.0228845
0.0505554
0.0198031
0.00357115
0.00601211
0.00504275
0.0031193
0.00132974
0.00273271
0.0331244
0.0265717
0.00898692
0.0131645
0.0104489
0.0147586
0.0167848
0.0220354
0.00433188
0.0303546
0.0211832
0.0256329
0.0202234
0.0165651
0.0174894
0.00901004
0.0153403
0.00529358
0.013601
0.0105054
0.00586892
0.00927173
0.00818411
0.00744986
0.00473793
0.00464115
0.0121402
0.0223687
0.0253198
0.00340987
0.0183708
0.00341841
0.00243929
0.00698456
0.00206067
0.0122728
0.00668387
0.00582531
0.00566772
0.0057492
0.00507362
0.0301246
0.00272519
0.00315745
0.0243986
0.00645284
0.00139177
0.0118571
0.0276253
0.0117175
0.0118713
0.0530271
0.00469004
0.0151011
0.0177448
0.0203257
0.00965568
0.00332935
0.0173371
0.0145765
0.01528
0.0132082
0.0113583
0.010326
0.0322089
0.00896089
0.0205638
0.00388648
0.00708157
0.0340702
0.00623234
0.00836668
0.0479523
0.00633672
0.00129261
0.00266708
0.00558799
0.00292808
0.00422194
0.00348973
0.00337257
0.0277436
0.00514967
0.00462613
0.0296959
0.00300681
0.0032576
0.00326511
0.0475429
0.00487974
0.00411577
0.0277276
0.00244243
0.00152184
0.00366954
0.00429715
0.00429793
0.01926
0.00254295
0.0040876
0.012708
0.0225869
0.0268654
0.0186208
0.0145042
0.00350226
0.00765973
0.00531679
0.00608331
0.00351612
0.0275733
0.00815886
0.00313885
0.00309023
0.00955512
0.00825928
0.0272553
0.0124796
0.00353877
0.00471369
0.00326661
0.0253848
0.00748461
0.0019079
0.0227776
0.00378892
0.0125525
0.00335717
0.00232443
0.00292991
0.0106301
0.00473682
0.00406087
0.0207677
0.00335938
0.0256756
0.00793737
0.00279679
0.016604
0.0044016
0.0135421
0.0145615
0.00979991
0.0186243
0.0105934
0.00326454
0.0119723
0.011563
0.00297172
0.0064248
0.00441989
0.00396419
0.0089086
0.0014821
0.00197912
0.0110322
0.00173211
0.00329693
0.0139671
0.00163789
0.00278504
0.017923
0.00260182
0.00212255
0.0156815
0.0349368
0.03102
0.00225719
0.00330087
0.0211448
0.00226094
0.00245411
0.0375049
0.0206576
0.03657
0.00783129
0.0313549
0.00450862
0.00671793
0.0131939
0.018195
0.00347549
0.0159062
0.0423174
0.0363069
0.00335484
0.00443965
0.00306791
0.00216733
0.00288178
0.00535688
0.00400113
0.130301
0.00887488
0.00482273
0.0247177
0.00768728
0.020657
0.00317211
0.0272976
0.00504204
0.00758079
0.0390524
0.00428904
0.010095
0.00279061
0.003584
0.0559686
0.00279505
0.0466669
0.0157915
0.0240146
0.0170575
0.0124825
0.0320859
0.00393888
0.00353878
0.0270495
0.00410297
0.00427339
0.00427465
0.0376081
0.00274247
0.00316225
0.00414115
0.0448805
0.00403295
0.00716874
0.00656005
0.00299205
0.0177474
0.00980401
0.0121335
0.0430288
0.00203137
0.0167218
0.00391083
0.0126323
0.00271441
0.0478519
0.00812751
0.00753457
0.00338625
0.0109806
0.015381
0.00683404
0.0197731
0.0235396
0.00319204
0.00699848
0.00272685
0.02156
0.0198905
0.00233823
0.0102024
0.00793762
0.0113135
0.0115691
0.0160914
0.00658725
0.0148762
0.0160451
0.040177
0.0101898
0.033893
0.00229746
0.0123154
0.00341764
0.00332651
0.0673821
0.0382288
0.0221462
0.00233102
0.0351894
0.00763307
0.00625707
0.0409182
0.00656881
0.0478744
0.0107692
0.0472286
0.0152924
0.00230841
0.109079
0.0141517
0.0134024
0.0113899
0.0396315
0.0475364
0.00291541
0.0043045
0.14324
0.0347275
0.00330887
0.0462054
0.0487383
0.00452654
0.034827
0.00443123
0.0402796
0.00759446
0.0117591
0.00181233
0.0351573
0.0367357
0.00214144
0.12061
0.0426819
0.00212651
0.0127895
0.00366358
0.0212904
0.0327716
0.0115791
0.00293652
0.0311334
0.0314627
0.00767199
0.0448925
0.00704833
0.00416814
0.011767
0.0116761
0.0388793
0.00289112
0.00260664
0.0267233
0.00866204
0.00442162
0.0071885
0.00298256
0.0137656
0.0124807
0.0337294
0.0627662
0.0446532
0.00298672
0.0136594
0.00303911
0.0106803
0.0149755
0.00610409
0.0110408
0.00223215
0.0427064
0.0190089
0.00316229
0.00300181
0.0139602
0.0280999
0.0459297
0.0527643
0.0176132
0.00686719
0.0129414
0.00238273
0.00306004
0.004081
0.00117688
0.0025414
0.00452623
0.0348706
0.129337
0.00571498
0.00386588
0.00964566
0.0395588
0.00453641
0.01496
0.00785951
0.0110873
0.00571484
0.0116548
0.0272628
0.0281724
0.0149988
0.00280113
0.0159573
0.082457
0.0118874
0.00391083
0.0111268
0.0265111
0.0149888
0.00280629
0.0030367
0.00733951
0.012462
0.0137348
0.0129357
0.00215551
0.0141117
0.00403325
0.00269903
0.0574696
0.0126708
0.0341821
0.0142543
0.0176491
0.0207347
0.00985035
0.00297638
0.0365286
0.00298932
0.00786868
0.00744177
0.011062
0.0115691
0.0155037
0.00804418
0.0143453
0.0294725
0.0118815
0.0198971
0.00282776
0.0523457
0.00279555
0.00265836
0.026818
0.0257693
0.0109992
0.0492901
0.0126023
0.00318983
0.0248656
0.00290368
0.0303438
0.038115
0.00283269
0.0188358
0.0510037
0.00588202
0.0434187
0.0189849
0.0332098
0.0079459
0.0460628
0.0434132
0.00299499
0.00976123
0.0450401
0.00296342
0.00268116
0.0364889
0.00240234
0.0127772
0.041652
0.0289755
0.0885412
0.00151636
0.00220078
0.00232207
0.0563593
0.00278295
0.00330672
0.00802876
0.0154884
0.00381511
0.00270192
0.0027994
0.0136957
0.0131181
0.00261613
0.011051
0.00233498
0.00242584
0.00227939
0.0761495
0.023457
0.00255087
0.00293832
0.0208587
0.0318271
0.00359375
0.0164729
0.00250729
0.00237467
0.0343841
0.0030575
0.0275921
0.00224103
0.0174638
0.0112527
0.1436
0.0144762
0.0976071
0.0664902
0.00265827
0.0460166
0.00313335
0.00285921
0.00660103
0.0241064
0.00292263
0.0143451
0.0243746
0.00418804
0.00395203
0.0162922
0.0508047
0.0125143
0.0767328
0.0280984
0.0305831
0.00265639
0.0426567
0.0292381
0.00216312
0.0198798
0.00235114
0.0025003
0.0536957
0.0108697
0.0108966
0.061955
0.0563802
0.00346225
0.01144
0.00445535
0.0267864
0.00258712
0.0396417
0.041594
0.00237327
0.0347415
0.0027644
0.00254659
0.00232979
0.0117981
0.0155912
0.103216
0.0367635
0.00367447
0.0591657
0.00251359
0.00248486
0.0021576
0.0321576
0.0117364
0.00236027
0.00719082
0.0628388
0.0153224
0.0166323
0.00278343
0.0115682
0.00367396
0.00406899
0.00552116
0.00132784
0.00523327
0.00193164
0.00237892
0.113565
0.00423863
0.00731574
0.00261007
0.0112695
0.0126727
0.0352587
0.00131317
0.0123216
0.031285
0.00991036
0.00282539
0.0351167
0.0022622
0.0284193
0.0134287
0.0120423
0.00749101
0.00385302
0.0611355
0.0487176
0.00265487
0.00382342
0.0548813
0.0432773
0.0222503
0.00565352
0.0322668
0.00434423
0.012194
0.00755635
0.0130031
0.00244083
0.00367928
0.00703123
0.0140156
0.0115281
0.00254553
0.0123693
0.0148803
0.0131223
0.0127392
0.0198702
0.0317081
0.0273901
0.00265497
0.0387529
0.0404669
0.0344631
0.00122325
0.0163406
0.0187888
0.0127643
0.0429508
0.00206143
0.00280899
0.0313307
0.109763
0.016465
0.0598141
0.00186936
0.00258208
0.00508816
0.00373022
0.0138079
0.00363601
0.00244501
0.0253088
0.026559
0.0677292
0.0600108
0.102584
0.0518396
0.0539273
0.021672
0.014586
0.0369832
0.00669412
0.0343403
0.00179332
0.0200877
0.00211576
0.0635968
0.0115006
0.00681185
0.0121844
0.00234718
0.00722428
0.00701251
0.00273325
0.0127458
0.00261704
0.0503885
0.0414634
0.00374654
0.0307217
0.0317459
0.0166669
0.0338962
0.148702
0.0113749
0.0115436
0.0641778
0.0112567
0.0238737
0.00145867
0.063869
0.00155849
0.0149227
0.0124207
0.00456058
0.0400502
0.0301347
0.0017614
0.0120925
0.00369364
0.0728786
0.030564
0.00737645
0.0968192
0.00642146
0.0265674
0.00344093
0.00724057
0.0601823
0.018304
0.00850218
0.00248853
0.00321943
0.0144719
0.00417475
0.0826812
0.0141852
0.00813563
0.0632859
0.00208869
0.0111511
0.0100831
0.00267641
0.026699
0.0655288
0.0369584
0.0240054
0.0144526
0.0608806
0.00273283
0.0166326
0.00232427
0.00251205
0.0131438
0.00212781
0.0500237
0.0635465
0.0640553
0.0167558
0.0182347
0.0301193
0.0104018
0.00285673
0.00882409
0.00315082
0.0140708
0.00679922
0.00456203
0.00911476
0.125774
0.00236735
0.082018
0.0466906
0.0124428
0.0120205
0.0438004
0.0331309
0.00217106
0.143612
0.00370809
0.0022907
0.00235829
0.134833
0.00362196
0.00242712
0.00304621
0.0350748
0.00436453
0.0116114
0.00725131
0.0110712
0.00874038
0.00287604
0.0270942
0.0042615
0.00455821
0.0316084
0.00210362
0.0104654
0.00389946
0.0422056
0.0135749
0.00230714
0.0229084
0.0345791
0.064969
0.00422515
0.00260512
0.085645
0.0646468
0.0819167
0.0577743
0.0719842
0.0560106
0.00235583
0.0246324
0.0560641
0.00612975
0.0125914
0.00215444
0.0111043
0.0269412
0.0111197
0.0163182
0.0742264
0.0201449
0.00183534
0.00203127
0.00217799
0.0129159
0.0116323
0.0171578
0.0279487
0.0575244
0.0079732
0.00258847
0.0582513
0.10811
0.0118179
0.0051209
0.0202733
0.00404072
0.0116541
0.0280043
0.0129694
0.0111957
0.0108019
0.0146789
0.00468813
0.0982553
0.0131848
0.0624213
0.0418406
0.0111749
0.0119188
0.011573
0.034425
0.00480695
0.014583
0.0230311
0.00572124
0.0121767
0.00677613
0.0296049
0.0130462
0.0293412
0.0568031
0.0523014
0.00621636
0.0503142
0.106199
0.00233384
0.0520366
0.0030835
0.0110571
0.0424684
0.00233838
0.00388734
0.0331177
0.00263027
0.00436468
0.00249681
0.00206165
0.0484566
0.00226054
0.040606
0.0135338
0.0294537
0.00242842
0.00597491
0.00365407
0.0131079
0.00220953
0.0863714
0.0823363
0.0262599
0.0322648
0.0150898
0.0136413
0.0325326
0.00557683
0.0731326
0.072654
0.0293128
0.00732677
0.00215585
0.00229955
0.0255577
0.0317909
0.00405551
0.00252727
0.00421617
0.0148622
0.0024492
0.00704589
0.0102428
0.0139856
0.0175677
0.00717833
0.00542637
0.00308642
0.0603002
0.00598252
0.0122966
0.00814194
0.0105695
0.00966072
0.00805476
0.0108698
0.0119158
0.0487354
0.028042
0.0185918
0.010173
0.0456879
0.00229403
0.0107536
0.00941837
0.00219474
0.00438517
0.0343735
0.0700457
0.00210383
0.0434767
0.0140323
0.0897791
0.0140045
0.0581453
0.00365059
0.0117963
0.0644303
0.00996306
0.0229126
0.0777868
0.0524956
0.00203048
0.020649
0.00223878
0.0420927
0.028205
0.018999
0.00245782
0.0058356
0.0450322
0.00397707
0.00945226
0.00694774
0.0344301
0.00231171
0.0253543
0.00212233
0.0729357
0.00211295
0.00175354
0.00714915
0.00795161
0.0634932
0.0290411
0.00390103
0.00686196
0.0092821
0.00205622
0.0151675
0.00608833
0.0205957
0.0116523
0.0940108
0.00212443
0.00234451
0.0472593
0.0640457
0.019744
0.146309
0.0543316
0.00404591
0.0270737
0.078888
0.00251953
0.0629449
0.0239292
0.0360408
0.00682331
0.0703719
0.00208979
0.0505829
0.00211542
0.048973
0.011849
0.00233848
0.0898454
0.00302072
0.0458811
0.0389284
0.00627655
0.00301727
0.0986992
0.128296
0.00795034
0.0289634
0.0619125
0.00188229
0.015718
0.00655489
0.0124464
0.00375606
0.00213946
0.0126119
0.0727749
0.00465544
0.0436286
0.0266565
0.00251638
0.00212836
0.00215432
0.00239861
0.00717066
0.0164157
0.0194079
0.00594672
0.0510674
0.0112417
0.00343606
0.00381415
0.00241786
0.0803192
0.0493765
0.00223993
0.00929725
0.0254594
0.00846785
0.066399
0.0385059
0.0024086
0.00339005
0.0114866
0.00194043
0.00409449
0.0350631
0.056233
0.00216995
0.00219028
0.0138683
0.0694651
0.0879068
0.00237594
0.00165077
0.111894
0.0141433
0.00172852
0.00221146
0.0521412
0.047784
0.105562
0.00706738
0.060608
0.0162669
0.117618
0.0656509
0.00259491
0.0378393
0.00247129
0.0175861
0.00261336
0.00303382
0.010506
0.0151161
0.00894051
0.0251679
0.00154234
0.00733792
0.0136669
0.0415201
0.00606453
0.0859918
0.027968
0.0394075
0.00270609
0.0960903
0.0229889
0.0110494
0.0121321
0.0118542
0.042375
0.00154587
0.0300847
0.0489598
0.00159977
0.0201072
0.0109898
0.00278588
0.00268476
0.00220453
0.0117657
0.00572877
0.00289964
0.0548259
0.140962
0.00169954
0.0552152
0.0620818
0.0919406
0.0228744
0.0312029
0.0714931
0.00228087
0.0226398
0.0163528
0.00205063
0.00443227
0.00246732
0.00173182
0.00393781
0.0260661
0.0108116
0.0737303
0.00203561
0.0120433
0.00237168
0.00262561
0.00208064
0.0646607
0.0308976
0.00492839
0.00246304
0.029651
0.0108759
0.0407624
0.038263
0.0426754
0.0292284
0.00229803
0.00226746
0.0116579
0.00224935
0.0115823
0.00258427
0.0200305
0.0469011
0.0157736
0.0706964
0.0028633
0.0022633
0.0223888
0.0300359
0.0180425
0.0140848
0.0117076
0.012784
0.129578
0.0904866
0.0339085
0.0759645
0.0144191
0.00198259
0.010626
0.00786472
0.0406266
0.002264
0.00243188
0.00744887
0.0356681
0.0145521
0.0200014
0.0111381
0.0124951
0.00233337
0.0660649
0.0266149
0.0279279
0.00227871
0.140815
0.0672754
0.0351832
0.00149865
0.0719433
0.0175096
0.0150567
0.00202759
0.0159516
0.00671936
0.00259638
0.0132496
0.0158664
0.0233488
0.0206665
0.114804
0.0591871
0.00247271
0.0519429
0.00219662
0.0113657
0.00654746
0.0398001
0.0025171
0.0021976
0.0772056
0.0108123
0.00226384
0.0745212
0.025876
0.0240532
0.00230726
0.00225978
0.0116311
0.034899
0.00211008
0.00237214
0.00242995
0.0543428
0.00252997
0.00256033
0.00777129
0.00496852
0.0592011
0.00384638
0.0300325
0.00214506
0.0118474
0.0688762
0.0174607
0.0247036
0.0123749
0.00227287
0.00190783
0.00186461
0.00264528
0.0337502
0.00457894
0.00301794
0.0529722
0.0116285
0.0119623
0.048095
0.014755
0.00289822
0.00254376
0.00311934
0.0128148
0.0166889
0.00167864
0.043422
0.0096318
0.0865374
0.0735004
0.0138275
0.00474977
0.0713687
0.00253917
0.00205393
0.0136581
0.10839
0.00403116
0.00235236
0.0135753
0.0165387
0.00223742
0.00230348
0.0204527
0.0123437
0.00201359
0.00220649
0.0111447
0.00676512
0.0403435
0.00201022
0.125363
0.0677759
0.00219385
0.0764741
0.0114004
0.039564
0.0424934
0.0633071
0.0606285
0.075884
0.0161053
0.00914696
0.00726454
0.00209746
0.00263591
0.0113722
0.00909816
0.0387996
0.0726596
0.00227724
0.00188726
0.00230687
0.00214319
0.00219884
0.00228581
0.0116635
0.0051913
0.00196804
0.0106972
0.00223773
0.00248046
0.0034697
0.00246747
0.0312292
0.0319171
0.0179302
0.0176897
0.0113228
0.0346914
0.0066204
0.0109463
0.00195489
0.013399
0.00224856
0.0141254
0.0719176
0.0150871
0.0047345
0.00210636
0.00644605
0.0409016
0.0386522
0.0115117
0.00262858
0.00800049
0.00222365
0.0576354
0.0113632
0.0163926
0.00352942
0.00358067
0.0118859
0.0080228
0.0336634
0.0189902
0.00509073
0.00207039
0.00243155
0.004049
0.0488647
0.0227549
0.0871336
0.0223568
0.011236
0.0447288
0.0256436
0.0258741
0.018436
0.049822
0.011575
0.00298702
0.0694976
0.0627954
0.011775
0.0113482
0.0179583
0.00247176
0.0120701
0.00738395
0.0148684
0.0879773
0.0181859
0.00530505
0.00809656
0.0475353
0.0793809
0.00205864
0.0133981
0.0134233
0.00489426
0.00224886
0.00231227
0.00130898
0.00474706
0.00278809
0.00221983
0.131658
0.0112713
0.0514454
0.0558036
0.0135387
0.00222708
0.022599
0.0235286
0.0175406
0.009828
0.0131559
0.00224942
0.103133
0.0369953
0.0696644
0.00119488
0.00212442
0.00219192
0.0154945
0.0175484
0.011874
0.0020848
0.0113484
0.0423453
0.00232044
0.00152283
0.00534715
0.0795954
0.00191505
0.00638178
0.0112951
0.0134584
0.00336035
0.088464
0.0379036
0.101033
0.0132995
0.022013
0.027436
0.00247939
0.0253489
0.134118
0.0129845
0.00697363
0.0132758
0.0540905
0.0201336
0.0152179
0.0114439
0.0297681
0.00229735
0.0358188
0.00135622
0.00235826
0.00239633
0.0373559
0.0115141
0.0422932
0.08941
0.0124901
0.0219413
0.0019009
0.0200177
0.00224195
0.00934659
0.0285297
0.0258795
0.00198594
0.00236433
0.0482493
0.00132708
0.0591823
0.00177555
0.0578966
0.00259516
0.0290843
0.00202038
0.0528224
0.0122291
0.0341922
0.0583177
0.0247173
0.0266932
0.00131878
0.0511885
0.0299286
0.0245988
0.02032
0.0120406
0.0243613
0.0292073
0.00233236
0.0314831
0.0475689
0.00646944
0.0515986
0.0960297
0.00211551
0.0117979
0.00325761
0.0658549
0.00246107
0.00239169
0.00229592
0.0363366
0.127962
0.0277021
0.0125494
0.0191905
0.00210836
0.00922005
0.00337528
0.0059873
0.00238472
0.0107706
0.0100033
0.00950732
0.00242437
0.0741743
0.0747737
0.00192666
0.00583227
0.0338966
0.0394279
0.0274581
0.002307
0.00220273
0.0107151
0.0344508
0.00258406
0.0020153
0.0876043
0.025285
0.00193082
0.00607394
0.021087
0.0217632
0.0379074
0.0344862
0.0281319
0.0109917
0.0103499
0.0469488
0.0578398
0.00294688
0.0123247
0.0108926
0.00225896
0.00307388
0.011033
0.00273336
0.0277035
0.0504029
0.00329619
0.0328344
0.100572
0.00332614
0.0155749
0.00387139
0.0343217
0.0207945
0.00936534
0.0117869
0.0887899
0.0101277
0.00600334
0.011545
0.0063871
0.0822885
0.0422198
0.0452748
0.00941914
0.00627103
0.00353792
0.0111065
0.001693
0.0014595
0.00966787
0.0199749
0.00390384
0.00871678
0.00930072
0.00236471
0.0444216
0.011207
0.0115174
0.00209716
0.129494
0.00402596
0.00242614
0.00470922
0.0294355
0.00309098
0.00327625
0.0132959
0.00281099
0.00360324
0.00968887
0.050202
0.00374577
0.0474429
0.0108958
0.00590929
0.0395705
0.0166394
0.00359543
0.114414
0.0126462
0.0703726
0.00436834
0.0253678
0.00382663
0.0285914
0.134407
0.00324137
0.0173522
0.00957876
0.011695
0.00221558
0.00224918
0.00453802
0.00235136
0.00306777
0.0035117
0.0177319
0.0104031
0.00265997
0.0021348
0.00338205
0.0187604
0.0336498
0.0355345
0.0147308
0.00905037
0.136419
0.00255959
0.00239296
0.00425048
0.00244802
0.00245685
0.0198642
0.00382343
0.00512908
0.0278258
0.0111687
0.0107616
0.0401773
0.0429392
0.00257622
0.0644653
0.0127128
0.0225258
0.026797
0.0181557
0.0169641
0.0377159
0.00305937
0.0150081
0.00227894
0.0123349
0.00164042
0.0396141
0.00666327
0.00357916
0.013386
0.0309793
0.0275804
0.00237137
0.0218255
0.029736
0.0171292
0.00139536
0.00540151
0.0067157
0.0204113
0.00729838
0.127355
0.0229376
0.0063178
0.0111904
0.00158444
0.00236618
0.00827579
0.0023054
0.0418319
0.0152921
0.00223965
0.0046925
0.0338755
0.00696608
0.0489706
0.0226834
0.0237397
0.00620819
0.00178634
0.0243235
0.0757727
0.00256393
0.00170523
0.011131
0.0018222
0.0027482
0.0240429
0.0068638
0.0448743
0.0258768
0.0548131
0.00699095
0.0234544
0.00195672
0.00202943
0.00268006
0.0319761
0.00121055
0.00105769
0.00142898
0.0129038
0.0109799
0.0015604
0.0280506
0.063406
0.037532
0.00237452
0.0237131
0.0962222
0.0332152
0.00266007
0.0144852
0.0032703
0.0587174
0.00173428
0.0117154
0.0292977
0.0328995
0.00217145
0.0032497
0.0135616
0.0372205
0.0485043
0.00442801
0.0490038
0.00145451
0.00254118
0.0296855
0.013842
0.00273979
0.0435732
0.0126764
0.00234841
0.0112054
0.0284467
0.0115418
0.00181796
0.00228947
0.0278352
0.00969603
0.00223607
0.0269548
0.0643878
0.0384159
0.0132988
0.00168104
0.00266044
0.0148856
0.0494166
0.0150823
0.0547548
0.079978
0.0685499
0.00216377
0.00219723
0.0048171
0.00229813
0.00231342
0.0303228
0.0381789
0.00230946
0.00239179
0.00228165
0.00144945
0.0210774
0.0164944
0.0135377
0.00131526
0.0011813
0.00129482
0.0145279
0.0286985
0.01126
0.00233985
0.0431104
0.00406942
0.00451103
0.0398515
0.00409758
0.0181028
0.0297955
0.00214891
0.0131413
0.00216401
0.0130196
0.0116738
0.0091325
0.0646385
0.00227812
0.0257129
0.0326656
0.0140102
0.0041786
0.0755727
0.0866412
0.00235536
0.0019618
0.011405
0.0132141
0.00611122
0.0345061
0.0726119
0.0137903
0.019704
0.0833888
0.028335
0.0110498
0.0480388
0.0421465
0.0733592
0.0434625
0.0121949
0.0523706
0.00116911
0.00309292
0.00192078
0.0140444
0.00189884
0.065181
0.0238237
0.00229151
0.00206449
0.000966081
0.00106296
0.00202006
0.0148227
0.021676
0.0116633
0.0270276
0.0275694
0.0157248
0.00187423
0.00223665
0.0134664
0.00465089
0.00240117
0.00223107
0.00303974
0.0172323
0.00220401
0.0109984
0.00213006
0.00403638
0.0243339
0.00149796
0.0119278
0.0143063
0.0501733
0.0969274
0.00612834
0.00226308
0.00636249
0.00660942