/*--------------------------------*- C++ -*----------------------------------*\
  =========                 |
  \\      /  F ield         | OpenFOAM: The Open Source CFD Toolbox
   \\    /   O peration     | Website:  https://openfoam.org
    \\  /    A nd           | Version:  10
     \\/     M anipulation  |
\*---------------------------------------------------------------------------*/
FoamFile
{
    format      ascii;
    class       volScalarField;
    location    "650";
    object      k;
}
// * * * * * * * * * * * * * * * * * * * * * * * * * * * * * * * * * * * * * //

dimensions      [0 2 -2 0 0 0 0];

internalField   nonuniform List<scalar> 
23845
(
0.0796755
0.0965643
0.0719617
0.0477007
0.0924127
0.025061
0.0824976
0.0353174
0.0211789
0.0643474
0.0767033
0.0235212
0.0284368
0.0232156
0.0914801
0.0479388
0.0396277
0.0479327
0.0314105
0.0285972
0.0674885
0.0733716
0.063789
0.0211208
0.0699261
0.0173621
0.075722
0.0271128
0.0206011
0.0283348
0.0515969
0.0190673
0.0875199
0.0487786
0.0236163
0.0261532
0.0162813
0.0236591
0.0240229
0.0224276
0.029919
0.0392455
0.0259205
0.0393407
0.014967
0.0313647
0.0795537
0.0514999
0.0242827
0.0157995
0.0309645
0.0738752
0.0203064
0.0253453
0.0184675
0.036472
0.0954431
0.0377274
0.0769363
0.0756543
0.0278284
0.0404969
0.045813
0.0253986
0.0198628
0.0289822
0.0773611
0.0137774
0.0140558
0.034757
0.0318776
0.0634
0.0195942
0.0886653
0.0183071
0.091948
0.0235221
0.0241901
0.0416512
0.0477295
0.0700156
0.0894843
0.0982234
0.0384429
0.0697774
0.0236995
0.0882044
0.0199948
0.0196749
0.0427376
0.02776
0.0336328
0.0220892
0.0261
0.037553
0.0282304
0.0366869
0.0542144
0.0181566
0.08504
0.0393226
0.078883
0.097999
0.0116005
0.0212371
0.0401145
0.0250791
0.017139
0.0762284
0.038649
0.0725797
0.0237927
0.0816039
0.0604906
0.0267156
0.0595125
0.0190114
0.0516225
0.0212907
0.0328835
0.0239486
0.0228187
0.0353149
0.0462522
0.0801762
0.0181596
0.029093
0.0157111
0.0566116
0.0803371
0.0567294
0.0918973
0.0830869
0.0240357
0.044182
0.0909755
0.0105431
0.0234087
0.0749832
0.024208
0.0178184
0.0381381
0.0242934
0.0409503
0.0421312
0.0375652
0.0547671
0.0831388
0.0358627
0.0452369
0.0892758
0.0237207
0.0899623
0.0260578
0.0780713
0.0617065
0.0982831
0.0246428
0.0629196
0.0261882
0.0392327
0.0910368
0.0371384
0.0202638
0.0223958
0.0524389
0.0243624
0.0234798
0.0277974
0.0372718
0.0244754
0.0486537
0.0208731
0.0449326
0.0203536
0.0398217
0.0356862
0.0704385
0.0168832
0.0244579
0.0861411
0.0815932
0.0896139
0.0691166
0.045707
0.0322526
0.03938
0.0373151
0.0188986
0.0383214
0.0230591
0.0236245
0.0235705
0.0249029
0.0404808
0.0230018
0.0169097
0.0192507
0.0138321
0.0735059
0.0574422
0.024065
0.0356637
0.0898081
0.0372779
0.0371036
0.0685082
0.0245685
0.0806614
0.0506301
0.0505329
0.0219143
0.0388017
0.0278694
0.0268487
0.0177557
0.0850215
0.0414522
0.0106585
0.0584907
0.020993
0.0908523
0.016455
0.0544752
0.0381273
0.0901588
0.0109211
0.0237662
0.0251959
0.0304458
0.0252375
0.0261348
0.0239584
0.014744
0.0945346
0.0246575
0.0194317
0.049123
0.0210181
0.049145
0.0221801
0.0532673
0.0393851
0.0942357
0.02433
0.0477927
0.0248252
0.0139297
0.0386541
0.0913342
0.0322229
0.0243866
0.0307431
0.0248718
0.088193
0.0276635
0.0360589
0.0323897
0.0268853
0.0219047
0.0180609
0.0247876
0.030261
0.0707781
0.0659159
0.0209269
0.0409055
0.0465097
0.0603016
0.0472226
0.0241987
0.0460333
0.0306156
0.02417
0.0695031
0.023406
0.0315789
0.0242178
0.0215253
0.0634838
0.0408871
0.0253672
0.0335258
0.0467286
0.023938
0.030362
0.0479775
0.0236635
0.0370156
0.0851988
0.0399806
0.0280522
0.0262661
0.0313906
0.0385715
0.0238097
0.0316993
0.0248371
0.0238574
0.0228869
0.0629191
0.0884703
0.0243478
0.0476296
0.0248393
0.0494248
0.0252559
0.0307266
0.0381934
0.0157913
0.0302336
0.0910477
0.0322239
0.0245941
0.0646292
0.0170907
0.0303498
0.0853442
0.0266365
0.0220891
0.0217018
0.0227707
0.0384019
0.0282283
0.0897449
0.0246913
0.0437437
0.07695
0.0365172
0.0496796
0.0804916
0.0515968
0.0296689
0.0246966
0.0353116
0.0499652
0.0546973
0.0471749
0.036571
0.041847
0.0502718
0.036757
0.0734275
0.015294
0.0151765
0.0201096
0.0245776
0.0298566
0.0427625
0.0841032
0.0550945
0.0555654
0.0152531
0.0319686
0.0205321
0.0234922
0.0357798
0.0203449
0.0872792
0.0386729
0.0498496
0.0192989
0.0540954
0.0439068
0.0199545
0.0244074
0.0414229
0.0266513
0.0219912
0.0171646
0.0386697
0.026078
0.0303806
0.0235178
0.025034
0.0290828
0.0607772
0.0514814
0.036944
0.0450356
0.0902929
0.0250744
0.0626284
0.014804
0.0150048
0.0239269
0.0252704
0.0410485
0.0574448
0.0387591
0.0787986
0.0365669
0.0266491
0.0226022
0.0293561
0.024264
0.0663287
0.0165979
0.0357878
0.0249331
0.0589671
0.0571363
0.0353348
0.0524656
0.0851931
0.0909104
0.0243779
0.0282341
0.0204439
0.0337711
0.0916587
0.0142832
0.0855121
0.0399288
0.0991239
0.0660502
0.0630973
0.0660548
0.0246102
0.0582218
0.0635276
0.0318792
0.0218832
0.0426251
0.0323118
0.0865137
0.0581762
0.0542524
0.0498211
0.0518779
0.0235291
0.0471742
0.0361012
0.0464157
0.0306387
0.0186213
0.02347
0.0317596
0.0236489
0.0513405
0.0916761
0.0494822
0.0201687
0.0540317
0.0554709
0.0302326
0.0287775
0.063117
0.0246766
0.0471741
0.0415878
0.0233203
0.0436655
0.0247621
0.0151373
0.0361127
0.0781894
0.0919751
0.0335082
0.0251021
0.0790752
0.0461058
0.010573
0.078547
0.0253755
0.0245013
0.0252526
0.026667
0.0156519
0.0827797
0.0278216
0.0246127
0.0544417
0.0313079
0.0273388
0.0929551
0.0217033
0.0254188
0.0266633
0.0409422
0.0710062
0.0628391
0.051329
0.0718899
0.0582959
0.0884678
0.0241983
0.0238033
0.0778909
0.0402262
0.0174348
0.0644854
0.0290592
0.0660401
0.03663
0.0750337
0.0191175
0.0614346
0.018745
0.024744
0.0882364
0.01926
0.0414433
0.0723587
0.0397936
0.0409992
0.0679683
0.026871
0.0271733
0.0403169
0.0509208
0.0440526
0.0163163
0.05254
0.0243173
0.0158976
0.0599595
0.0828261
0.0764139
0.0355211
0.0157329
0.0255084
0.0490947
0.0307051
0.0165479
0.0841134
0.0892807
0.0276263
0.0642363
0.0233453
0.0253404
0.0713101
0.0881111
0.0650126
0.0362823
0.0272827
0.0259074
0.0348213
0.0779974
0.0424812
0.0702672
0.0247962
0.0614642
0.0615822
0.0395216
0.0600074
0.0725697
0.0265157
0.0274023
0.0261558
0.0257277
0.0237773
0.0455093
0.0275509
0.037062
0.0914963
0.0357646
0.0435607
0.0247289
0.0265489
0.0385336
0.0433926
0.0842986
0.0291917
0.0356351
0.0245141
0.0226813
0.0188879
0.0228013
0.0253294
0.0163042
0.0848734
0.0327197
0.0251365
0.0508722
0.0856153
0.0407602
0.0688286
0.0333787
0.0802145
0.0171671
0.0236335
0.0406789
0.079093
0.0323396
0.0346756
0.0197889
0.0202642
0.0341292
0.0200148
0.0666493
0.0882486
0.0853464
0.0655238
0.0298983
0.0358404
0.0158443
0.0254119
0.0469079
0.0236496
0.0688312
0.027223
0.0802731
0.09065
0.0490849
0.0813304
0.0332912
0.0802775
0.0858183
0.0597623
0.0716266
0.0993368
0.0942929
0.0858859
0.0342657
0.0914331
0.0824642
0.0998575
0.0288924
0.026431
0.0811914
0.0280726
0.0777668
0.0595184
0.0981402
0.055392
0.0286856
0.0411186
0.0239495
0.0441002
0.0278658
0.0291642
0.0681149
0.0265191
0.0236155
0.0844963
0.0953874
0.0508819
0.0174479
0.0644562
0.087699
0.0558556
0.0274986
0.0260978
0.0766991
0.0848526
0.070921
0.0244194
0.0797608
0.0631321
0.0264741
0.0241735
0.0805273
0.0418788
0.0267121
0.0818726
0.0431734
0.068618
0.0367525
0.0738974
0.055633
0.0372402
0.0496912
0.100371
0.0459728
0.0175044
0.0235189
0.0928436
0.0559
0.0816953
0.0422638
0.0582474
0.0702549
0.0606891
0.0563889
0.0775958
0.0538592
0.0804234
0.0671024
0.0469548
0.0754817
0.0497103
0.0357931
0.047589
0.0462079
0.0882331
0.0353691
0.0445484
0.0844881
0.0783716
0.0419472
0.0373066
0.0590135
0.0629662
0.0669512
0.0723652
0.0760414
0.0549904
0.0789072
0.0524709
0.0721067
0.0485034
0.063801
0.0466577
0.0468772
0.0473955
0.0434689
0.0400139
0.0409877
0.0285994
0.0377243
0.0577039
0.0209933
0.036086
0.0390249
0.0391622
0.0253351
0.0665007
0.0380666
0.064268
0.0682414
0.0529279
0.0368827
0.0373082
0.0270579
0.0562913
0.0501405
0.082115
0.0230656
0.0625433
0.0350793
0.0459114
0.027681
0.0354667
0.0775376
0.0464271
0.0807369
0.0373223
0.0245243
0.0301113
0.0161383
0.0340163
0.0561759
0.0331722
0.0202277
0.0356573
0.0804384
0.0333143
0.031156
0.0292629
0.0835649
0.0351471
0.0146698
0.0865067
0.0383157
0.0410091
0.0726228
0.0679745
0.0742845
0.0700121
0.079254
0.0364786
0.0539858
0.062711
0.0708115
0.0512781
0.0501135
0.0454851
0.100243
0.0429786
0.0316274
0.0747462
0.0714729
0.0821094
0.0520201
0.0608752
0.0298188
0.098225
0.0667837
0.0467936
0.0402658
0.0463048
0.0297671
0.023485
0.0643391
0.032748
0.0300898
0.0397604
0.0335701
0.0321142
0.0387048
0.0361684
0.0465381
0.0363759
0.0346112
0.0352394
0.0854655
0.0524629
0.0305208
0.044695
0.0414105
0.0342556
0.0822722
0.0622544
0.0725541
0.0532704
0.0370493
0.0300051
0.0368199
0.0352227
0.0987617
0.0666858
0.074423
0.0464404
0.0315189
0.0536733
0.0240467
0.06432
0.0298541
0.0351008
0.0206487
0.0228231
0.0379228
0.0244129
0.0244652
0.0179211
0.0280528
0.0193281
0.0221614
0.0200502
0.0191392
0.0172752
0.025507
0.02924
0.0230417
0.0236071
0.0408388
0.0370374
0.0398391
0.0626409
0.077446
0.0168401
0.0204571
0.0348754
0.0726094
0.0656165
0.0742899
0.0617295
0.0487757
0.0285314
0.0293651
0.0333846
0.0399303
0.0476193
0.0293926
0.0378548
0.0278743
0.0371517
0.0233931
0.089345
0.0239632
0.0604076
0.0396518
0.0838631
0.0303637
0.0331345
0.0363812
0.0313994
0.0481594
0.0439529
0.0323874
0.0506601
0.0256557
0.0270763
0.0212665
0.0210148
0.0192628
0.0186794
0.0330114
0.0362083
0.0313824
0.0609263
0.0309376
0.0611482
0.060793
0.0703112
0.0330471
0.0493219
0.0318995
0.0203941
0.0370392
0.0183921
0.044969
0.0275416
0.0189809
0.052102
0.0265691
0.0218056
0.0632469
0.0290608
0.0485828
0.0584904
0.0548069
0.0365796
0.0511893
0.0298633
0.0457548
0.0310115
0.066656
0.0367282
0.02432
0.0511998
0.0601769
0.0625982
0.085931
0.0671387
0.0338945
0.0416757
0.0443048
0.0407761
0.0905549
0.0230984
0.0391567
0.0365438
0.0269881
0.0659082
0.0355592
0.0924631
0.0354476
0.0195412
0.0313258
0.0250198
0.0374007
0.0345862
0.0327137
0.0934244
0.0315725
0.0607983
0.0418762
0.0809706
0.0346574
0.0486034
0.054756
0.0606704
0.062303
0.0426483
0.0564168
0.0480465
0.0658075
0.0691004
0.0744421
0.045659
0.0688133
0.0701985
0.0496374
0.0839765
0.0754775
0.0663109
0.0674817
0.0308954
0.043102
0.0451542
0.0402382
0.0272516
0.0383494
0.0545027
0.0398894
0.0302874
0.064847
0.0551939
0.0649578
0.0412157
0.0693503
0.0297644
0.0348566
0.0378402
0.0361578
0.0474659
0.0220966
0.0666984
0.0870411
0.0973189
0.0275886
0.0347615
0.0728734
0.078102
0.029309
0.0573211
0.0564404
0.0541144
0.0631127
0.0564643
0.0371039
0.069389
0.0782924
0.0723179
0.0765434
0.0825825
0.0829342
0.0274619
0.045713
0.0457471
0.0345315
0.0538635
0.0577269
0.0340833
0.0223481
0.0282508
0.0746861
0.0283353
0.0287247
0.0158705
0.0288456
0.0144849
0.0241956
0.0195416
0.0352645
0.032269
0.0330368
0.0361579
0.0814812
0.0271332
0.0307972
0.0544894
0.0413323
0.0748438
0.0687878
0.0952568
0.0719806
0.0308694
0.0390297
0.0366683
0.0280558
0.0168818
0.0263332
0.0860197
0.0813581
0.041216
0.0482029
0.0438756
0.0504818
0.0531356
0.0762728
0.0340548
0.0863007
0.0679369
0.074685
0.0733876
0.0600075
0.0683757
0.047787
0.0642581
0.0376632
0.0605641
0.0532779
0.0397375
0.049979
0.0470021
0.0447473
0.0356383
0.0345445
0.0567412
0.0595435
0.0806967
0.0301705
0.0549005
0.0301681
0.02345
0.0427967
0.023497
0.0572394
0.0422259
0.038499
0.0388058
0.0358832
0.0349465
0.0841389
0.0242443
0.0290017
0.0629258
0.0405273
0.0172865
0.056587
0.0833973
0.0514973
0.0242919
0.0709849
0.033779
0.0572136
0.0613553
0.0731075
0.0499162
0.029825
0.0678819
0.0574834
0.0639291
0.059624
0.0552298
0.0526146
0.0310042
0.0491037
0.0631386
0.0321852
0.0436357
0.0830459
0.0369107
0.0450172
0.0486609
0.0411635
0.0163716
0.0239682
0.03866
0.0278159
0.0336166
0.030497
0.0287194
0.0834723
0.0371173
0.0351685
0.065899
0.0283404
0.0294904
0.029405
0.0872034
0.0338141
0.0325037
0.0829356
0.0229447
0.0183919
0.0313469
0.0316236
0.0303069
0.0447812
0.0234184
0.0329499
0.0522509
0.075943
0.0818075
0.069689
0.0619701
0.0297335
0.0450431
0.0375462
0.0399645
0.0303728
0.0832379
0.0459725
0.0281268
0.0287249
0.0505524
0.0456482
0.0620119
0.038596
0.0303163
0.0344992
0.0286451
0.0752027
0.0426348
0.0199654
0.0753716
0.0318619
0.0447782
0.0298011
0.0246879
0.0279911
0.049932
0.0349223
0.0294587
0.0708567
0.0296359
0.0738982
0.0445884
0.025291
0.064749
0.0335934
0.0560034
0.0589403
0.0476787
0.0651548
0.051792
0.0294866
0.0548227
0.0558055
0.0249566
0.041586
0.0307929
0.028563
0.0410757
0.0175527
0.0202981
0.0448694
0.0189849
0.0260713
0.0493577
0.0184857
0.0240163
0.0544919
0.023233
0.0210145
0.0517104
0.0908793
0.0802799
0.0231191
0.0283205
0.060465
0.0244107
0.025616
0.0916846
0.0639377
0.0900562
0.0436512
0.0735476
0.0337795
0.0420322
0.0491222
0.0694044
0.0299072
0.0651762
0.0935602
0.031383
0.0293322
0.03442
0.0285899
0.0240706
0.0277422
0.0378185
0.0327393
0.0912397
0.0488455
0.0358878
0.0798167
0.0421671
0.0737815
0.0291002
0.0625424
0.0344687
0.0418512
0.0875365
0.0310982
0.051558
0.0272968
0.0292788
0.0560885
0.027333
0.0909089
0.0628173
0.0782384
0.0441781
0.0437505
0.0880941
0.031268
0.0288373
0.0748061
0.0319071
0.0325758
0.0324971
0.0745561
0.0267819
0.0276913
0.0304744
0.0972361
0.0293349
0.040619
0.04188
0.0281709
0.0274836
0.0477366
0.0529757
0.0909669
0.0233469
0.0131615
0.0306665
0.0255641
0.0269208
0.0974712
0.0444608
0.0431083
0.0298584
0.0514174
0.0616862
0.0407271
0.0692141
0.0705399
0.0262192
0.0411302
0.0269511
0.067339
0.0646438
0.0245695
0.0499248
0.0447192
0.0521243
0.0498292
0.0632126
0.0421385
0.0580649
0.0618634
0.0826944
0.0510798
0.0833075
0.0239562
0.0576766
0.030114
0.0280156
0.0704351
0.0867876
0.0660509
0.0243933
0.0874041
0.043828
0.0388263
0.0893403
0.0398514
0.082377
0.0268231
0.099483
0.0613271
0.0244831
0.0800726
0.0584067
0.0565113
0.0518616
0.0906159
0.0897433
0.0277663
0.0329899
0.0917758
0.0670862
0.0287153
0.0979911
0.0974317
0.0329271
0.0447268
0.0340249
0.0787868
0.0443101
0.0459818
0.0200961
0.0845909
0.0692732
0.0239204
0.0896321
0.0835725
0.0225752
0.0339668
0.0295871
0.0616458
0.072341
0.0402225
0.0273376
0.0830285
0.0656073
0.0448343
0.0921957
0.0420509
0.0333958
0.0546458
0.0520265
0.0856742
0.0277646
0.0244336
0.0791375
0.0443388
0.0337145
0.0435957
0.0265617
0.0599693
0.0555497
0.076971
0.0831831
0.0959351
0.0281993
0.0584194
0.0281232
0.0511257
0.0614082
0.0398665
0.0298189
0.0222034
0.0898208
0.0146978
0.0279211
0.0272936
0.0561327
0.0809461
0.0938039
0.0944898
0.0677604
0.0429419
0.0589198
0.0242862
0.0283229
0.0317362
0.0156957
0.0260424
0.0343904
0.0771493
0.0817939
0.0363766
0.0297995
0.0476625
0.0709489
0.0340364
0.059332
0.044905
0.0534768
0.0388513
0.0538621
0.0812264
0.0806001
0.0618865
0.027256
0.0639067
0.0877016
0.0313976
0.0323254
0.0525053
0.0778577
0.0614317
0.0255167
0.0284708
0.0429502
0.0531975
0.0589114
0.0185677
0.0223195
0.0333938
0.0325349
0.0268391
0.0824479
0.0554265
0.0897811
0.0598202
0.0635094
0.0685178
0.0459486
0.0270516
0.0835914
0.0280893
0.0451189
0.0443451
0.0519083
0.0402809
0.0627228
0.0428463
0.0614681
0.075294
0.0329247
0.0706666
0.0256272
0.0901686
0.0273082
0.0265239
0.0817585
0.0716583
0.0264534
0.0460011
0.0578353
0.0290757
0.0751048
0.0267665
0.0736176
0.0907131
0.0274359
0.0675913
0.0986087
0.0369835
0.0812952
0.0690685
0.0882722
0.0428222
0.0828372
0.0969989
0.0269813
0.0478462
0.0599827
0.0268652
0.0252366
0.0793364
0.0253197
0.052319
0.0964108
0.0733908
0.0707248
0.0181204
0.0233479
0.0242856
0.0527897
0.0255695
0.0262335
0.0423008
0.0439618
0.0312613
0.0241675
0.0258521
0.0411816
0.0487527
0.0264307
0.0504633
0.0249746
0.0253873
0.0224122
0.087796
0.0766344
0.0261054
0.0279456
0.0579335
0.0869395
0.0277079
0.0591683
0.0258853
0.0251299
0.0531515
0.0270401
0.0820827
0.0244762
0.0607707
0.0362107
0.0904654
0.0209452
0.0879321
0.0926566
0.0253004
0.0969614
0.0287679
0.0266032
0.0416086
0.0696651
0.0278987
0.0334066
0.0328139
0.0332074
0.0323554
0.0529706
0.00346085
0.0471228
0.0846469
0.0825405
0.0677271
0.0266279
0.096198
0.0023779
0.0240135
0.0565078
0.0248212
0.0256459
0.0970041
0.019853
0.0311639
0.0978735
0.097874
0.0272271
0.015351
0.0331241
0.0648092
0.0261666
0.0717729
0.0951252
0.0230509
0.085466
0.0268771
0.024291
0.0246482
0.018974
0.0511956
0.0869702
0.0558428
0.0311286
0.0978887
0.0255901
0.0251482
0.0240208
0.0832471
0.0360185
0.0247777
0.0408135
0.0959741
0.0314433
0.066029
0.0264979
0.039803
0.0303406
0.0329543
0.0359368
0.0165848
0.0352286
0.0213303
0.0252122
0.0893275
0.0332329
0.0433915
0.0263893
0.0459534
0.0437424
0.0902517
0.0169035
0.0418909
0.0747703
0.0429337
0.0265699
0.0391248
0.0217616
0.00232328
0.042971
0.0392179
0.0436231
0.0320237
0.0866089
0.080456
0.0251739
0.0315197
0.0943755
0.0913723
0.0663164
0.0337469
0.00256734
0.0337295
0.0312947
0.0441146
0.0266576
0.0255299
0.030937
0.0431239
0.0600164
0.0228317
0.0257508
0.0437626
0.0215417
0.0587461
0.0507522
0.0562532
0.00282603
0.0782016
0.0261361
0.0938333
0.0937432
0.0675714
0.0159908
0.0492049
0.055022
0.0448968
0.00398609
0.0218505
0.0268752
0.0796818
0.0890544
0.0654541
0.0919095
0.0206689
0.0241555
0.0333018
0.0315343
0.0323046
0.0298069
0.0253014
0.0691985
0.0737459
0.088889
0.0943155
0.0785035
0.0676603
0.0976913
0.0230615
0.0493163
0.0928876
0.0372955
0.00310431
0.0195684
0.0538053
0.0237696
0.0543047
0.0254459
0.0426434
0.0565791
0.0220875
0.0427742
0.0429654
0.0265954
0.0583395
0.0261056
0.0828187
0.0934685
0.0290198
0.0864357
0.0877014
0.0522959
0.00245141
0.0902945
0.0377157
0.0269853
0.0951331
0.019645
0.0776281
0.0176377
0.0520935
0.018061
0.0324517
0.0470851
0.0306527
0.00362526
0.086324
0.0201322
0.0421441
0.0312955
0.0882967
0.0674342
0.0379301
0.0865117
0.0409278
0.0618113
0.0267569
0.0436833
0.0921319
0.0129441
0.042873
0.0231282
0.0262589
0.0602711
0.0330689
0.0690088
0.0609214
0.0419355
0.0920978
0.0236428
0.0339159
0.0440889
0.0262964
0.0731949
0.0648365
0.00335536
0.0494004
0.0409805
0.0885969
0.0263403
0.054137
0.0247999
0.0256915
0.0461478
0.0227087
0.0623924
0.0949555
0.0909019
0.0462314
0.0676793
0.0664451
0.0519648
0.0253994
0.0478141
0.0266398
0.0464573
0.042271
0.0328237
0.0438721
0.0923475
0.0250648
0.0838786
0.0044989
0.0573219
0.0163772
0.0041568
0.068086
0.0241064
0.0851418
0.0281295
0.0244652
0.0250776
0.0894073
0.0308663
0.0242763
0.0278095
0.0749791
0.0328225
0.0393216
0.0425828
0.0540487
0.0415774
0.0271438
0.0711568
0.0319152
0.0310821
0.0821569
0.0221251
0.0526554
0.0296182
0.00374492
0.0508602
0.0234159
0.0295765
0.0805415
0.0940732
0.0329047
0.0258832
0.0840992
0.0911228
0.0877402
0.0870047
0.0847299
0.0801593
0.0235647
0.0570566
0.0775027
0.0367387
0.04152
0.0226892
0.0281873
0.0363427
0.0253677
0.055375
0.0830951
0.0158661
0.0206777
0.0233465
0.0241384
0.0351598
0.0410615
0.0267725
0.00246284
0.0777786
0.0416403
0.0259419
0.0911558
0.0741738
0.0421472
0.032227
0.0565804
0.0325459
0.0334986
0.0317543
0.0411957
0.0332491
0.0285137
0.0465986
0.0338681
0.0893357
0.0437684
0.0500737
0.0781011
0.031343
0.0491738
0.0383293
0.040736
0.0318097
0.0331441
0.061752
0.035645
0.0351042
0.037244
0.00256637
0.0353495
0.0762684
0.093007
0.00539427
0.035211
0.0906159
0.0818528
0.0223973
0.0860317
0.0257339
0.0529271
0.0958399
0.0246045
0.0319878
0.0893584
0.0257995
0.032076
0.0255378
0.0210018
0.0740971
0.0245195
0.0835561
0.0110777
0.0546744
0.0252101
0.0346272
0.0279412
0.0354902
0.0228956
0.073916
0.0873467
0.0797094
0.0667992
0.0449235
0.033576
0.0889458
0.0353263
0.0896106
0.00865385
0.0459779
0.043512
0.0240201
0.0242041
0.0779612
0.0694036
0.0311431
0.0255519
0.0317096
0.041218
0.0247137
0.0371744
0.0467421
0.0602156
0.0413838
0.0384452
0.0337182
0.0258485
0.0802633
0.0372626
0.0371415
0.0467526
0.0464942
0.0506125
0.0393513
0.0306073
0.0302318
0.00499527
0.00238542
0.0625767
0.044429
0.0720268
0.0245475
0.0269251
0.046102
0.0213583
0.0312886
0.086026
0.0817508
0.0223019
0.0929807
0.0108773
0.0771828
0.0209116
0.0833617
0.0273407
0.0348004
0.0545376
0.0507534
0.0649638
0.00709738
0.0982064
0.0233534
0.0527222
0.0234671
0.0822508
0.0630516
0.0546253
0.0248452
0.0350589
0.0739666
0.0320356
0.0420797
0.0422824
0.0761505
0.0247934
0.0566187
0.0214291
0.0820183
0.0226614
0.0197692
0.0394346
0.0403413
0.0857201
0.0622307
0.0313609
0.0401562
0.0483497
0.0234824
0.0547977
0.0391513
0.0248155
0.0156682
0.0883234
0.0238162
0.0238034
0.00454236
0.00531088
0.0264686
0.088286
0.0774526
0.0301608
0.0677842
0.0875734
0.0259248
0.0802201
0.0786483
0.0848264
0.0419423
0.0848496
0.0236468
0.00483437
0.0237618
0.0528431
0.0381792
0.0238284
0.0871021
0.0253878
0.0462376
0.0816125
0.0361207
0.0259852
0.0893358
0.0808444
0.041417
0.00276765
0.0960427
0.020745
0.0316814
0.041004
0.0346142
0.0300943
0.0220174
0.0567726
0.00542822
0.0342058
0.064191
0.0800027
0.025325
0.0238313
0.0239367
0.0250815
0.0417005
0.0416115
0.0562082
0.0345262
0.092901
0.0479192
0.0299351
0.0317502
0.0250716
0.0863046
0.0985406
0.0243672
0.043935
0.0796398
0.0476533
0.0625569
0.0936023
0.0227597
0.0286376
0.0379747
0.020461
0.030959
0.0574374
0.0855015
0.0240212
0.0240906
0.0200242
0.00546473
0.0641056
0.0244891
0.0188345
0.0727517
0.0583658
0.0196753
0.0241984
0.0764705
0.0921092
0.0831574
0.0427193
0.0800653
0.0528279
0.0892568
0.00573916
0.0239237
0.0936254
0.0244237
0.0134318
0.0262732
0.026725
0.0444161
0.0511863
0.0444422
0.0780046
0.0182379
0.0412409
0.0592317
0.0658813
0.0366299
0.0878062
0.00252141
0.0716995
0.0253983
0.00531988
0.0590664
0.0272417
0.0290707
0.051422
0.0960336
0.0184849
0.0739277
0.0740288
0.0189074
0.0476905
0.0528071
0.0250463
0.0253577
0.0242546
0.0345376
0.0376575
0.0275881
0.00523557
0.0917555
0.0193997
0.079634
0.00578827
0.0887783
0.0578815
0.00289132
0.0648061
0.0245592
0.0655195
0.0527844
0.023447
0.030301
0.0256466
0.0193313
0.0297911
0.0728673
0.0285065
0.00650437
0.021406
0.0353657
0.0249392
0.0259868
0.0235944
0.080407
0.00280125
0.031648
0.0256444
0.0554483
0.0314516
0.0367812
0.0711254
0.0934722
0.0654437
0.0244605
0.0242174
0.0506337
0.0243454
0.0368114
0.0258969
0.0563277
0.0748697
0.0123428
0.00607055
0.0272801
0.0226185
0.0631374
0.0600146
0.0469989
0.0524543
0.045963
0.0300279
0.0874857
0.0886276
0.0458845
0.00652624
0.0321237
0.0214437
0.0519913
0.0415659
0.0462388
0.0238586
0.022474
0.04215
0.0681803
0.0506226
0.0570147
0.0346218
0.0355623
0.024247
0.0853701
0.0680787
0.00264025
0.0244381
0.0881226
0.0882235
0.0350125
0.0177078
0.0919053
0.0543292
0.0175452
0.0233317
0.0521595
0.0373587
0.0260913
0.0580995
0.0107216
0.072655
0.017717
0.0900776
0.0475002
0.0255892
0.0563835
0.0242244
0.0354746
0.0362373
0.071061
0.0257797
0.0242283
0.00556241
0.0284961
0.0242809
0.00452525
0.0616268
0.0761886
0.0244191
0.0240675
0.0361546
0.00288379
0.0222257
0.0244726
0.0231786
0.0953365
0.024649
0.0257021
0.0387965
0.0317932
0.00558362
0.0286425
0.00262073
0.0227616
0.0162072
0.0592484
0.0535537
0.0640715
0.0172225
0.0245561
0.0201883
0.0203451
0.0255032
0.00346035
0.0322574
0.0280648
0.0785525
0.0318938
0.036534
0.0952593
0.0180651
0.0255447
0.0252064
0.0287062
0.0383203
0.0441526
0.0194155
0.0611896
0.0483886
0.0863159
0.0827264
0.010316
0.0335261
0.0825575
0.0254364
0.0234687
0.0106268
0.071113
0.0311709
0.023354
0.0434078
0.0512558
0.0238233
0.0242844
0.0583184
0.0387361
0.0232614
0.0242967
0.0222921
0.041141
0.0713538
0.0232452
0.0757267
0.00485245
0.0217712
0.00602042
0.0355401
0.0940092
0.0733822
0.0799672
0.0907413
0.0850073
0.0552701
0.0470882
0.0412044
0.0236737
0.0262815
0.0370354
0.0443897
0.0501306
0.00524191
0.02451
0.020817
0.0236678
0.0230309
0.023479
0.0240406
0.0553931
0.0339774
0.0209531
0.051407
0.0219929
0.0243079
0.0284628
0.0234239
0.0859594
0.087724
0.0218461
0.0411453
0.0332044
0.059768
0.0378076
0.0190206
0.0213934
0.0102856
0.0236948
0.0530301
0.0888052
0.0486413
0.031628
0.0222573
0.0399855
0.0344115
0.0942912
0.0390307
0.0255127
0.0439727
0.0242131
0.0846142
0.0340202
0.0544498
0.0269106
0.0294179
0.0553175
0.0424835
0.0693765
0.05834
0.0326838
0.0224778
0.0245435
0.0303983
0.0789888
0.017032
0.0611423
0.0611244
0.0229519
0.0752075
0.0465584
0.0627794
0.0540727
0.0720619
0.0163654
0.0274733
0.0687757
0.0863879
0.0282476
0.0153621
0.0559513
0.0239983
0.0388716
0.0405888
0.0114006
0.0885375
0.0137908
0.0343351
0.0402272
0.0773139
0.0733833
0.0221229
0.0332944
0.0459673
0.0346949
0.0242733
0.0245464
0.0166917
0.0316311
0.0271008
0.0243579
0.0912703
0.0540265
0.0757342
0.0787441
0.0195635
0.0234803
0.0586266
0.0609216
0.0196822
0.0450924
0.0448376
0.0245248
0.0717782
0.0688344
0.0845664
0.0159509
0.0221701
0.0232358
0.0121102
0.0478131
0.046839
0.0218616
0.0325075
0.0722868
0.0240616
0.0182594
0.0328667
0.078467
0.0203269
0.0385105
0.0326958
0.0455989
0.0297963
0.083975
0.0831965
0.0826541
0.0516164
0.0246393
0.0555739
0.0248234
0.0697395
0.0928277
0.0453603
0.0419333
0.0103622
0.077891
0.0155021
0.046325
0.0381454
0.0696374
0.0240448
0.0502728
0.0167753
0.0248436
0.0237615
0.092791
0.0539242
0.0404316
0.0878402
0.036562
0.0582606
0.020668
0.0582491
0.0244915
0.0426184
0.00244977
0.0619797
0.0218561
0.0245977
0.0771211
0.0168395
0.0691353
0.0195364
0.0633141
0.0261367
0.051462
0.0219824
0.0707801
0.0488573
0.0893196
0.077077
0.0273171
0.0171404
0.0167926
0.0428827
0.0661992
0.0547625
0.0617269
0.0472192
0.0615559
0.0728761
0.0242846
0.0794711
0.0742822
0.0358277
0.0762195
0.0717449
0.0226635
0.0352968
0.0267897
0.0809142
0.0255943
0.024897
0.0245193
0.0905069
0.0912283
0.0441736
0.050317
0.0556636
0.0226493
0.0465026
0.0263491
0.0363618
0.0250887
0.0528686
0.0515182
0.0464325
0.022799
0.082722
0.00479298
0.0212908
0.0348982
0.0720907
0.0490691
0.0712896
0.0228547
0.0241536
0.0253254
0.0884225
0.0262448
0.0232736
0.0612129
0.0799174
0.0208224
0.0375377
0.0601719
0.00737312
0.0679375
0.0903943
0.00232949
0.0211006
0.0517817
0.0760916
0.0617274
0.0276206
0.0368827
0.0481705
0.0243915
0.0258293
0.0214485
0.0249117
0.0651114
0.0761967
0.0293922
0.0876215
0.0724216
0.0266544
0.0221745
0.0310406
0.0743107
0.0600755
0.049776
0.0403522
0.085483
0.0505714
0.0359462
0.0399281
0.0381404
0.0843499
0.0402774
0.0540627
0.0438951
0.0368875
0.0303401
0.0325907
0.0193929
0.0178448
0.0465773
0.0593191
0.03177
0.0483838
0.0445864
0.0247351
0.0773781
0.035183
0.0466506
0.0226083
0.0907588
0.0307304
0.0225619
0.0309894
0.0201073
0.0286176
0.0275767
0.0245075
0.0249616
0.0306675
0.0494147
0.0753322
0.0312164
0.0847587
0.0293384
0.0376228
0.0585481
0.0573288
0.0309228
0.0881633
0.0354927
0.0550865
0.0305683
0.0632847
0.0279569
0.00251399
0.0925637
0.0292678
0.0538737
0.0497599
0.0357032
0.0242173
0.0243765
0.0332292
0.0229063
0.0263744
0.0304191
0.0262273
0.0481513
0.0254624
0.0238547
0.0281299
0.0142653
0.0699548
0.00464829
0.0562128
0.0488981
0.0905026
0.0259897
0.0249387
0.0308347
0.0255601
0.0255562
0.0607241
0.0289626
0.0343211
0.06497
0.0341922
0.0240428
0.00225566
0.0756405
0.0257642
0.0045373
0.0180814
0.06179
0.0183495
0.0196147
0.0280539
0.0710773
0.0262885
0.0243453
0.0217672
0.036453
0.019258
0.0891818
0.0402995
0.028312
0.0345746
0.0733387
0.0202162
0.0247424
0.0758091
0.0854156
0.056312
0.0170188
0.0353306
0.0363892
0.0500683
0.038464
0.0837871
0.0768736
0.0402848
0.0349087
0.0188003
0.0224178
0.0398094
0.0223
0.085703
0.0115553
0.0235379
0.034177
0.0711966
0.0376622
0.077068
0.0530557
0.0599342
0.0363864
0.0203741
0.0620464
0.082716
0.0251342
0.0196847
0.0295741
0.0205197
0.0258682
0.0631211
0.0407749
0.0453866
0.077221
0.0786375
0.0404842
0.0778853
0.0204386
0.0220019
0.0260915
0.0673015
0.0160087
0.0149616
0.0177703
0.0436144
0.0327477
0.0187315
0.0702756
0.0796556
0.0704816
0.0235588
0.0516765
0.0875283
0.0374696
0.0266086
0.030054
0.0264707
0.0790074
0.0198576
0.0407577
0.0306019
0.0466605
0.0240239
0.0293464
0.0410257
0.00652348
0.00575562
0.0313101
0.0454749
0.0178202
0.0253794
0.0477458
0.0446929
0.0248951
0.0747488
0.0502436
0.024735
0.026618
0.0285829
0.0395181
0.0202524
0.0242557
0.073065
0.0459637
0.0236912
0.0750842
0.0753845
0.0596097
0.0385842
0.0195984
0.0240567
0.0368793
0.0746989
0.0435345
0.0989085
0.0850861
0.0824187
0.024001
0.0241657
0.0318225
0.0229459
0.0232983
0.0187788
0.0702597
0.0247813
0.0252727
0.0246661
0.0178039
0.0634517
0.0127432
0.0368017
0.0168199
0.015889
0.0167812
0.0105219
0.0636417
0.036076
0.0248887
0.076635
0.0324958
0.0309237
0.0740028
0.0321138
0.0243778
0.0748879
0.0223086
0.0353803
0.0229596
0.0283165
0.0312822
0.0423103
0.0801773
0.0243753
0.0685403
0.039005
0.0475961
0.0303679
0.0828372
0.0849811
0.0248791
0.0215388
0.0303627
0.0107514
0.0371984
0.067944
0.0848909
0.0496472
0.0153
0.084804
0.0182078
0.0302791
0.0565358
0.053672
0.0870943
0.0761436
0.0344232
0.0804179
0.015691
0.0268678
0.0213176
0.0431261
0.0210388
0.0807667
0.0177553
0.0239692
0.0222495
0.0142239
0.0149331
0.0218878
0.039131
0.0578648
0.040982
0.0660662
0.0559362
0.0409904
0.0208759
0.022579
0.0378733
0.0313744
0.0248351
0.0242579
0.0261014
0.0131442
0.0241847
0.0191346
0.0238312
0.0320639
0.0242995
0.0180586
0.0422386
0.0373625
0.0764867
0.0865905
0.0389546
0.0245322
0.0370314
0.0370289
0.0702174
0.0295349
0.0292128
0.0333297
0.0271384
0.0799048
0.0302261
0.024314
0.0245395
0.0219408
0.0316945
0.0366735
0.0758073
0.0778198
0.0158939
0.0311314
0.074246
0.0377796
0.0719072
0.0798736
0.0396781
0.0735896
0.0733246
0.0669394
0.0434237
0.0194725
0.0142363
0.0146982
0.0424305
0.0683771
0.0245314
0.0548482
0.0733652
0.068431
0.0143805
0.024908
0.0339112
0.0186469
0.024327
0.071584
0.026498
0.028745
0.0712058
0.0149234
0.0813098
0.0749091
0.029794
0.016945
0.0301601
0.0584006
0.072672
0.0136917
0.0135513
0.0160808
0.0884772
0.122034
0.136377
0.141182
0.140338
0.135596
0.128343
0.119593
0.110087
0.100393
0.0908755
0.0817964
0.0733212
0.065536
0.0584697
0.0521129
0.0464305
0.0413733
0.0368845
0.0329103
0.0877832
0.121092
0.135457
0.140351
0.139643
0.135049
0.127943
0.11933
0.10994
0.100331
0.0908801
0.0818506
0.0734083
0.0656427
0.0585865
0.0522333
0.0465503
0.0414903
0.0369978
0.0330186
0.0870579
0.120133
0.134503
0.139494
0.138923
0.134481
0.127526
0.11905
0.109782
0.100265
0.0908859
0.0819085
0.0735012
0.0657568
0.0587118
0.0523626
0.0466795
0.0416166
0.0371194
0.0331343
0.0863044
0.11915
0.13352
0.138612
0.138177
0.133892