/*--------------------------------*- C++ -*----------------------------------*\
  =========                 |
  \\      /  F ield         | OpenFOAM: The Open Source CFD Toolbox
   \\    /   O peration     | Website:  https://openfoam.org
    \\  /    A nd           | Version:  10
     \\/     M anipulation  |
\*---------------------------------------------------------------------------*/
FoamFile
{
    format      ascii;
    class       volScalarField;
    location    "650";
    object      nut;
}
// * * * * * * * * * * * * * * * * * * * * * * * * * * * * * * * * * * * * * //

dimensions      [0 2 -1 0 0 0 0];

internalField   nonuniform List<scalar> 
23845
(
0.0137671
0.0140085
0.00779513
0.0141895
0.0183184
0.0233958
0.00815358
0.0100078
0.0212818
0.014527
0.0223517
0.0241206
0.0202272
0.0222775
0.00620224
0.016523
0.0219836
0.02379
0.0190363
0.0234588
0.0122794
0.0231388
0.0133162
0.0209928
0.0169435
0.0191507
0.0100464
0.0231779
0.00351919
0.0231819
0.0149358
0.0012893
0.00502023
0.023284
0.0241196
0.0239876
0.0011161
0.0241094
0.0239007
0.0214193
0.0185695
0.023096
0.0198998
0.0236689
0.0189259
0.0211099
0.0194781
0.0169915
0.00225618
0.00197577
0.00573782
0.0100803
0.00129476
0.0227244
0.00124758
0.0209936
0.0146247
0.0110865
0.0125587
0.0140011
0.00632496
0.0234162
0.0173187
0.00434852
0.0204432
0.020759
0.00989462
0.0185277
0.0187183
0.018818
0.00834528
0.00822019
0.0192193
0.00674227
0.0198264
0.00642948
0.0240991
0.0239088
0.0132169
0.0214252
0.0112731
0.00750106
0.0143284
0.0114266
0.00654367
0.0241085
0.00864873
0.00119589
0.020525
0.0203268
0.00471878
0.0181299
0.00379264
0.0239342
0.0106862
0.00553649
0.0215294
0.0167547
0.019936
0.0195524
0.0210001
0.00948096
0.0170441
0.000846387
0.0029884
0.0120631
0.0232145
0.0195076
0.0111367
0.0233953
0.0224697
0.0240731
0.00652398
0.0156985
0.0239343
0.0135587
0.0198086
0.0156051
0.00371106
0.00718041
0.0239787
0.00257174
0.0187628
0.00848531
0.00920342
0.0192448
0.00696451
0.00197319
0.006816
0.0180126
0.00484354
0.0197279
0.0223996
0.022877
0.0208817
0.0155735
0.000742877
0.0241325
0.0112165
0.0238329
0.00231878
0.0232776
0.023939
0.0237869
0.0177781
0.0236114
0.0145567
0.00709757
0.00574044
0.019402
0.00553698
0.0199332
0.0103993
0.0213297
0.00639276
0.0205829
0.0182706
0.0240173
0.00444735
0.00520093
0.0184628
0.00629153
0.0101443
0.0207002
0.0188685
0.0206302
0.0233339
0.0029904
0.0233268
0.0237428
0.0231237
0.0135923
0.0208244
0.00955828
0.0203234
0.0123063
0.0178485
0.0203314
0.0195515
0.0240042
0.0199529
0.0203422
0.00703802
0.0230297
0.0171279
0.0200159
0.023136
0.0108627
0.00293096
0.0229057
0.00385241
0.0222523
0.0220066
0.0229473
0.0179835
0.0217615
0.0019877
0.00296661
0.000766437
0.0217258
0.0218967
0.0218713
0.00642264
0.0211689
0.0109537
0.0102923
0.00747946
0.0235694
0.0117198
0.0235556
0.0224133
0.00286205
0.0174082
0.0230571
0.00335228
0.00123686
0.0222559
0.0233111
0.000560352
0.00552477
0.019446
0.00658296
0.00186356
0.0193253
0.0238049
0.00571113
0.000758354
0.0222517
0.0234051
0.0183873
0.0238241
0.0029381
0.0240541
0.0185762
0.018792
0.00509153
0.020226
0.0149034
0.0202047
0.0124727
0.00161627
0.0150411
0.0120436
0.0195751
0.00311804
0.0171858
0.0231121
0.0187812
0.0114357
0.00648756
0.0217371
0.0240394
0.00574516
0.0193524
0.00700037
0.00483743
0.00717754
0.00725858
0.0238866
0.0211625
0.000855256
0.0240438
0.00755848
0.0221571
0.0218468
0.02082
0.0129869
0.00710923
0.0157553
0.0145883
0.0239371
0.0133069
0.00516769
0.0222642
0.0233453
0.0218126
0.00700348
0.0223634
0.00194745
0.0137134
0.0117999
0.0233235
0.00740462
0.0185743
0.0240996
0.0058572
0.010567
0.0215061
0.0104659
0.00670971
0.0124184
0.00377449
0.00489638
0.00692502
0.0114702
0.024099
0.00511928
0.0228013
0.0240969
0.00404641
0.00417128
0.00590534
0.00496302
0.0149269
0.0227046
0.0151968
0.0039316
0.00535794
0.0209157
0.00187569
0.0048883
0.011592
0.0199489
0.023133
0.0110103
0.00221586
0.0052349
0.0221558
0.00454711
0.0194352
0.00277472
0.00294645
0.00467092
0.0230545
0.00658442
0.0235943
0.0140689
0.0175362
0.0073105
0.0239355
0.00821997
0.0196182
0.0054819
0.0240687
0.00663515
0.0144682
0.0127804
0.0239855
0.0234836
0.0134204
0.0127975
0.00514735
0.0228374
0.0186261
0.0187931
0.00145531
0.0240665
0.00619787
0.0136894
0.00558223
0.0135681
0.00479049
0.00185797
0.00670925
0.00130058
0.022065
0.0239309
0.0197625
0.0068605
0.0117667
0.00750348
0.0201177
0.0147815
0.0188923
0.00327274
0.023187
0.0070951
0.0238052
0.0038554
0.0191958
0.0235938
0.00413705
0.0030919
0.0241214
0.0239572
0.00536432
0.0104085
0.0138406
0.0234909
0.0122064
0.00692794
0.0240215
0.0132068
0.018799
0.0186243
0.0240115
0.0236752
0.0130189
0.0228886
0.0116724
0.00932451
0.023753
0.00361487
0.00286536
0.00440048
0.00429746
0.0226839
0.019199
0.0187655
0.0240575
0.0120658
0.0160479
0.00917412
0.0118727
0.0136247
0.00684284
0.0236601
0.00339693
0.003124
0.00793494
0.00598531
0.018563
0.00777709
0.00609134
0.0173255
0.0103518
0.01613
0.0236234
0.0237375
0.0139685
0.00368899
0.0235176
0.0215151
0.013759
0.00824083
0.0127911
0.00351225
0.0148352
0.00953317
0.00849679
0.0219746
0.0235462
0.00477952
0.0242597
0.022046
0.0194808
0.024134
0.0200579
0.00460489
0.010798
0.0064858
0.00321564
0.00282871
0.00651528
0.0153699
0.00470047
0.0232272
0.017521
0.0237801
0.0125798
0.013334
0.0203514
0.00302501
0.024045
0.0188214
0.00532252
0.0147403
0.0207877
0.0083148
0.0223428
0.0106936
0.0146012
0.000755224
0.0161391
0.0237186
0.0237685
0.0231196
0.00319631
0.0186743
0.00537256
0.0231013
0.0234062
0.0159816
0.0075927
0.00435098
0.0195304
0.0201634
0.00335776
0.0228287
0.0194965
0.01873
0.0173759
0.0154187
0.0234167
0.0233474
0.00747219
0.0240015
0.0240624
0.0086608
0.00690936
0.0193685
0.00453803
0.00589663
0.0180869
0.0104755
0.019372
0.0195366
0.00978861
0.0201249
0.0240084
0.00934442
0.00252516
0.00561049
0.019319
0.0119976
0.0127344
0.0226819
0.0192676
0.0236266
0.0062129
0.0154281
0.00474093
0.00116166
0.0157298
0.0224701
0.0186633
0.016851
0.00500683
0.0055926
0.0231489
0.000812606
0.0221819
0.0237233
0.0042744
0.0186379
0.00799039
0.00684366
0.00491268
0.0123834
0.00407496
0.00529713
0.00395958
0.0214881
0.0142178
0.0198444
0.0192447
0.022751
0.00591327
0.02068
0.0133157
0.00697756
0.0221012
0.0140095
0.0137227
0.0181571
0.0136696
0.0235112
0.020175
0.0230407
0.0205847
0.0213097
0.0241087
0.00848288
0.021273
0.0108398
0.0112643
0.0237104
0.00511545
0.0240606
0.0235534
0.0113105
0.0139908
0.0150698
0.0234494
0.0236676
0.00277177
0.00341064
0.0193623
0.00429835
0.0193397
0.0188559
0.00802951
0.019973
0.0232322
0.0160653
0.0204376
0.00802604
0.0049496
0.00801469
0.0204073
0.0188084
0.0240863
0.0180523
0.00747343
0.00456883
0.0240691
0.0191776
0.0195228
0.00810864
0.0196884
0.0143516
0.00569543
0.0130637
0.0234543
0.00680838
0.0239998
0.0188332
0.022229
0.0238292
0.0240628
0.00942132
0.0226867
0.0216548
0.00686865
0.0117051
0.0184614
0.0075455
0.0209903
0.00763389
0.020542
0.0188975
0.0176171
0.0140299
0.0207849
0.00412471
0.0147536
0.0226171
0.0184593
0.0231036
0.0223834
0.0213384
0.00642925
0.0203291
0.0213237
0.0167019
0.0241889
0.0186477
0.0240832
0.018871
0.0164778
0.0201755
0.0209974
0.0176433
0.0232913
0.0241038
0.00624878
0.015905
0.0158858
0.0188199
0.0234094
0.0167389
0.0231382
0.0236891
0.019307
0.0140938
0.0206304
0.012482
0.0193259
0.0187212
0.00641467
0.02401
0.0240855
0.0228553
0.0126797
0.00539309
0.00436994
0.00442908
0.0172309
0.00797523
0.02245
0.0225386
0.0195793
0.0225908
0.0173182
0.021796
0.0188786
0.0188853
0.0203142
0.0163095
0.0204136
0.0168515
0.0241679
0.02135
0.0242015
0.0242403
0.0235683
0.0242733
0.0230658
0.0210538
0.0218688
0.0212002
0.0242877
0.0228872
0.0242445
0.0219305
0.0201243
0.0210852
0.0242783
0.0219624
0.0189894
0.0241796
0.0226748
0.0242766
0.024262
0.0241297
0.0240125
0.0238041
0.0243072
0.0234076
0.0243202
0.0207647
0.0243061
0.0208083
0.0243127
0.02334
0.0226802
0.0243126
0.0241327
0.0242112
0.0192375
0.022081
0.0162528
0.02046
0.0222556
0.0220448
0.0242031
0.0233057
0.0225181
0.0241761
0.0240493
0.0239888
0.0241748
0.0241352
0.0221906
0.0239436
0.0175762
0.0184169
0.0226251
0.0204909
0.0239522
0.0241465
0.0238568
0.0237776
0.0222377
0.0233254
0.0233511
0.0221188
0.0240581
0.0217591
0.0224661
0.0191985
0.0240834
0.0219487
0.00880914
0.0196484
0.024097
0.0230902
0.0240943
0.022788
0.02339
0.00764614
0.0228129
0.0187719
0.0203363
0.0220401
0.00772243
0.0200772
0.0203631
0.0238843
0.0240662
0.0233278
0.023118
0.0243385
0.0235211
0.0233845
0.0243807
0.0192212
0.0242947
0.0154641
0.0242238
0.0241032
0.0239497
0.0240161
0.0227147
0.0134606
0.0205997
0.0231813
0.0194236
0.0204433
0.0228092
0.0242186
0.0243008
0.00494457
0.0217748
0.0217327
0.0240443
0.0202278
0.0239097
0.0240063
0.0240588
0.0241578
0.0219334
0.0227114
0.0231522
0.0240984
0.0222837
0.0171122
0.023907
0.0230103
0.0239028
0.0239508
0.0216628
0.0228912
0.0217284
0.0217108
0.0217657
0.0228829
0.0228509
0.0222862
0.0228816
0.016571
0.0188781
0.0237441
0.0205556
0.0240324
0.0241281
0.00440111
0.0219115
0.0184394
0.0178782
0.0187164
0.0186898
0.0175487
0.0188686
0.0186269
0.0187442
0.0186768
0.0187076
0.0188794
0.0187362
0.0187149
0.0187055
0.0185858
0.0186182
0.0188801
0.0186617
0.0170836
0.0239565
0.0240244
0.00892597
0.0236057
0.0188804
0.0206568
0.0234467
0.0189053
0.0241709
0.0216841
0.0242799
0.0227224
0.0183642
0.0184269
0.0181137
0.0172725
0.0243125
0.0230158
0.0231521
0.0206247
0.0184956
0.0241423
0.00706179
0.024091
0.0177853
0.0227916
0.022622
0.0241038
0.021178
0.0177661
0.018349
0.0157665
0.0165634
0.0182721
0.0153212
0.0188531
0.0187102
0.018866
0.018837
0.0188125
0.0188335
0.0199758
0.024154
0.0241239
0.0185183
0.0230582
0.0193167
0.0176461
0.0239226
0.0182039
0.0155469
0.0183247
0.0188101
0.0176661
0.0188527
0.0163371
0.0186866
0.0188306
0.0150483
0.0187332
0.0188544
0.0240381
0.0225109
0.0233838
0.0167301
0.0240423
0.0228409
0.0242432
0.0220874
0.0241913
0.0241027
0.0219577
0.00362573
0.0240866
0.0242666
0.0240585
0.0241058
0.0213004
0.023971
0.0237126
0.0179279
0.0241051
0.0239265
0.00547067
0.00259222
0.0241327
0.0241123
0.0223428
0.0166697
0.0226557
0.00603574
0.0238698
0.0187233
0.0191938
0.0186131
0.0230037
0.024085
0.0209728
0.0203822
0.0239558
0.013231
0.0184046
0.022972
0.0238374
0.0185286
0.0240498
0.0237425
0.0238827
0.0207297
0.0182935
0.0241029
0.023998
0.0240283
0.0237412
0.0239979
0.0221145
0.0235973
0.0205762
0.021584
0.0219454
0.023765
0.0175006
0.0240677
0.0241206
0.0219046
0.0240518
0.0239759
0.02406
0.0194479
0.023962
0.0240784
0.0232883
0.0202581
0.0224448
0.0227664
0.0134203
0.0240831
0.0211324
0.0239635
0.0240149
0.021688
0.0194423
0.023918
0.0214269
0.0156388
0.0213708
0.0239821
0.0236504
0.0234299
0.0240377
0.0164065
0.023547
0.023482
0.0229809
0.0166387
0.0197091
0.0234144
0.0231757
0.0225213
0.0191534
0.0218728
0.0207852
0.0203111
0.0226662
0.0230511
0.0239726
0.0203078
0.0192225
0.0212849
0.00175332
0.0216755
0.00484795
0.0207965
0.0229089
0.00199758
0.0240291
0.0186392
0.0240025
0.0188021
0.0235264
0.0241123
0.0230775
0.0222643
0.0228895
0.00586734
0.0241125
0.0237575
0.019604
0.0195627
0.0186091
0.0161535
0.0235472
0.0240154
0.0228038
0.023997
0.0227108
0.0192892
0.0228379
0.0201044
0.0224194
0.0170123
0.015885
0.0165813
0.0155406
0.015139
0.0237609
0.0240948
0.0220824
0.0196093
0.0195845
0.023968
0.019564
0.0240586
0.0228106
0.024225
0.0241172
0.0242718
0.0243177
0.0242151
0.0242469
0.0242943
0.0241896
0.0241261
0.0231406
0.0238678
0.014265
0.023147
0.0240254
0.0147661
0.0239615
0.0202892
0.0236007
0.0241133
0.0240264
0.0240089
0.0228994
0.0239126
0.0201566
0.0216636
0.0211502
0.0194117
0.0239748
0.0146062
0.022908
0.0193236
0.024305
0.0226589
0.0203693
0.00447369
0.00855218
0.0218958
0.0195089
0.0190931
0.0236658
0.0232243
0.024046
0.0239207
0.020402
0.0240722
0.0242236
0.0241701
0.024128
0.00268601
0.0242169
0.0174473
0.0239883
0.0241989
0.0182182
0.0196742
0.0217995
0.0044442
0.0240659
0.0186619
0.0193855
0.0240719
0.0237819
0.0240901
0.0239864
0.0220106
0.0226029
0.0240777
0.0240621
0.0131615
0.0240407
0.0240274
0.0238335
0.0143954
0.0210883
0.0231024
0.022326
0.0193992
0.0200044
0.0241003
0.0209452
0.0192339
0.00937084
0.0194098
0.0239046
0.0193354
0.0229806
0.02242
0.0234733
0.0238295
0.0227188
0.0238389
0.0238629
0.0236294
0.0236128
0.0226149
0.0233136
0.0226837
0.0240307
0.0240708
0.0227064
0.0126982
0.010743
0.0233746
0.0227249
0.0226072
0.0200509
0.0218575
0.0188038
0.0224466
0.0241141
0.0143762
0.0238086
0.023599
0.0240674
0.0211089
0.0231719
0.0192331
0.0217578
0.0235299
0.0191421
0.0225429
0.0205833
0.0227246
0.023075
0.0208441
0.0214714
0.0208771
0.0205142
0.0227894
0.0239701
0.0225936
0.0242398
0.0188627
0.0242257
0.0193078
0.0185224
0.0170452
0.0187091
0.0187362
0.0164241
0.0187278
0.0185549
0.0156981
0.0187772
0.018639
0.0149106
0.0186714
0.018725
0.0153465
0.021276
0.0186988
0.0213116
0.0218683
0.0155613
0.0237199
0.0240643
0.0201719
0.0178105
0.0199593
0.0218978
0.0155265
0.0227775
0.0236685
0.0164598
0.0238267
0.023162
0.0240356
0.0186168
0.00244142
0.0230814
0.0240168
0.0239786
0.0240597
0.024036
0.0240292
0.02411
0.00574991
0.0241952
0.024035
0.0231965
0.020817
0.0237176
0.0240263
0.0128964
0.0212073
0.0207943
0.0176593
0.0202933
0.0236989
0.0240307
0.0215269
0.00505878
0.0240563
0.0159385
0.0224894
0.0229407
0.0102977
0.0138009
0.0217682
0.0223394
0.0211493
0.0186191
0.0223316
0.0223491
0.0222347
0.0133023
0.0235387
0.021824
0.0201833
0.0189601
0.0192039
0.0207137
0.0240629
0.0238713
0.00383048
0.020919
0.0208167
0.0173081
0.0241497
0.000932333
0.0216423
0.00465612
0.0240294
0.0178688
0.0218897
0.0221976
0.023695
0.021669
0.0222656
0.021844
0.021805
0.0190245
0.0193827
0.0217551
0.0239736
0.018929
0.0189082
0.0232353
0.0219874
0.0226746
0.0216136
0.0193158
0.022349
0.0242604
0.0203975
0.0214668
0.0153185
0.0230449
0.0184289
0.0224818
0.0243105
0.0238811
0.0212351
0.00662638
0.0177324
0.0177297
0.0229741
0.0195386
0.0226489
0.0216832
0.0175558
0.0217592
0.0127571
0.00601282
0.0188597
0.0221346
0.0233701
0.00529018
0.0216949
0.0214453
0.0212527
0.018647
0.0152483
0.0238001
0.0227553
0.00529217
0.0116637
0.0224279
0.0187035
0.0175296
0.0215568
0.00516966
0.0235132
0.0138696
0.0232675
0.0161823
0.0200552
0.0183178
0.0117567
0.0240478
0.00599495
0.0147274
0.0215695
0.00811895
0.0215051
0.0160645
0.0143719
0.0125749
0.0229049
0.0199283
0.0123126
0.0235806
0.0170408
0.0225792
0.0240816
0.0228398
0.0208638
0.0169912
0.0239972
0.0206128
0.021092
0.0204263
0.0231363
0.0237953
0.0212894
0.0235128
0.0222519
0.0158084
0.00992172
0.01855
0.023962
0.0224867
0.0234221
0.0220261
0.0226628
0.0234335
0.00724812
0.0198774
0.0170021
0.0010228
0.0221874
0.0223348
0.0203134
0.020986
0.0172421
0.015229
0.0234614
0.0241671
0.0241425
0.0222786
0.0235934
0.0222119
0.0188396
0.0240178
0.0235169
0.015362
0.00465545
0.0208387
0.0206734
0.0211965
0.0114523
0.0229836
0.0211783
0.0230907
0.0232138
0.0237711
0.0224029
0.0217804
0.0207534
0.0229815
0.023869
0.0230343
0.00839518
0.00746359
0.024047
0.0222987
0.0205787
0.02266
0.0208814
0.0240237
0.0226207
0.020438
0.0227415
0.00239866
0.0207999
0.00711204
0.0236204
0.0240199
0.0106454
0.0218209
0.0212233
0.022594
0.0205682
0.0203775
0.0192902
0.0221278
0.017216
0.0237549
0.023284
0.0237825
0.021922
0.0126223
0.022838
0.0205393
0.0237047
0.017312
0.00821135
0.0225882
0.0209027
0.0139789
0.0240084
0.0238179
0.0224327
0.0179338
0.00572588
0.00386384
0.0238879
0.0238526
0.0204164
0.0222063
0.0160744
0.0194306
0.0239155
0.0218293
0.0171582
0.0209282
0.0136992
0.022615
0.0211166
0.02077
0.0134073
0.0195054
0.0218762
0.0211073
0.00718943
0.0219194
0.0213787
0.0155248
0.0240174
0.0192809
0.0200843
0.0167299
0.00508441
0.0194884
0.0222926
0.0228594
0.00445015
0.0211438
0.0187309
0.0200582
0.0112302
0.0230541
0.019455
0.0214866
0.0111446
0.0163068
0.0240326
0.0207392
0.0240413
0.0239118
0.0198332
0.00911013
0.0225329
0.0240444
0.0239205
0.0144816
0.0213737
0.0192265
0.0191272
0.0240516
0.0239343
0.00739463
0.0215226
0.0219766
0.0240594
0.0190323
0.0104872
0.00512924
0.00272745
0.00712945
0.0116208
0.021672
0.0183876
0.0237711
0.0222774
0.0236046
0.0181193
0.0239682
0.00700173
0.00397576
0.0236974
0.0238405
0.0155
2.1218e-05
0.0159697
0.00840395
0.0218221
0.0134985
0.0240229
0.0195248
1.74053e-05
0.0239923
0.014456
0.0235836
0.0236749
0.0157719
0.00326346
0.00802146
0.0139154
0.0152915
0.0192703
0.00185392
0.022164
0.0141124
0.0238189
0.0116953
0.0195795
0.0201498
0.0189226
0.0235183
0.0208534
0.0234692
0.00274629
0.0151297
0.00659532
0.00763412
0.0237339
0.014576
0.0234473
0.0229062
0.0240684
0.0193953
0.00994858
0.0234101
0.0208483
0.0131924
0.00580728
0.0235916
0.022703
0.0123256
0.0225505
0.0240204
0.0210518
0.0186431
0.0213433
0.0211987
0.0240482
0.00632366
0.0234506
0.023163
0.0240131
0.0168645
0.0135887
0.0207915
0.0195828
0.0128178
0.0160829
0.0167398
0.0224876
0.00392314
0.0188405
1.70936e-05
0.0123754
0.0114948
0.0228631
0.0239544
0.0110427
0.0119584
0.0214832
0.0233859
0.0146062
0.0173625
0.0177889
0.0181297
1.83845e-05
0.0235695
0.00722836
0.023179
0.00491854
0.0240327
0.0234118
0.0238038
0.0231297
0.00406968
0.0234448
0.0139349
0.00280667
0.0236697
0.0181974
0.014333
2.26686e-05
0.0200946
0.0231561
0.0204481
0.0195444
0.0119238
0.0188135
0.0133349
0.0145016
0.0142127
3.32939e-05
0.0208447
0.0231417
0.0182386
0.00650278
0.0234183
0.0127104
0.0205676
0.0203378
0.0196162
0.0239924
0.00680211
0.0219912
0.0235641
0.017028
0.0184292
0.0104994
0.0133407
0.00540683
0.00794783
0.0159274
0.00220862
0.0150067
0.0209968
0.0187009
2.52563e-05
0.0192174
0.0129707
0.0240337
0.00417332
0.00506707
0.024026
0.0236457
0.0187065
0.0227935
0.0236922
0.0232904
0.0240326
0.0234368
0.0122509
0.018963
0.0202303
0.0218869
0.0218056
0.014768
1.5956e-05
0.00493458
0.0112548
0.00567747
0.0126917
0.00308559
0.0227175
0.0191942
0.00382401
0.0188376
0.00635141
0.0160645
0.0185422
2.95335e-05
0.0222556
0.0207095
0.013219
0.0238644
0.0096279
0.0133904
0.0175535
0.00695714
0.0234772
0.0129428
0.0187257
0.0237192
0.0126939
0.000823832
0.0194572
0.0193456
0.019276
0.022591
0.023575
0.00518377
0.0235477
0.0194542
0.0120624
0.0240862
0.00928396
0.0173502
0.0232533
0.0180596
0.00577363
2.74162e-05
0.00914944
0.0104581
0.0116038
0.0228492
0.0158589
0.0238153
0.0236478
0.0145822
0.0218119
0.00700374
0.01277
0.01161
0.0114802
0.0226076
0.0131924
0.0233644
0.0203246
0.0233177
0.0202713
0.0138048
0.023652
0.0212549
0.0190052
0.00610239
0.0238841
0.00772033
3.90145e-05
0.0237666
0.00200817
3.55045e-05
0.0125929
0.0240898
0.00454295
0.0192051
0.0235165
0.0240004
0.00533571
0.0236738
0.0218532
0.0228491
0.0144254
0.0222151
0.0119846
0.0225058
0.0237475
0.0178003
0.0230562
0.016819
0.0215117
0.0190752
0.0192189
0.0209433
0.0238436
0.0202468
2.9906e-05
0.0171499
0.0213891
0.00343669
0.0168837
0.0122594
0.023063
0.0231447
0.00743232
0.0115598
0.008458
0.0117921
0.00897592
0.0103248
0.0212139
0.0118946
0.00964255
0.0198175
0.012322
0.0215053
0.00643961
0.00441225
0.00520848
0.0169121
0.00837211
0.00112465
0.0209667
0.0241501
0.0240772
0.00861414
0.0130451
0.00375975
1.95323e-05
0.00946479
0.0195721
0.0233992
0.0128382
0.00458013
0.0135282
0.0182531
0.0142118
0.0235926
0.00866597
0.00324059
0.0117767
0.00888692
0.00677406
0.0133135
0.0220204
0.00731033
0.0130764
0.00361518
0.0131208
0.00791189
0.018259
0.0114251
0.00433836
0.0189449
0.00677967
0.0149015
0.0199871
0.00910816
0.0184236
2.00224e-05
0.00862033
0.0178424
0.0137057
5.00719e-05
0.01795
0.0146879
0.00567792
0.0193447
0.0128012
0.019329
0.0228013
0.0194657
0.0233
0.0236897
0.0216997
0.0227753
0.0212154
0.0235085
0.0192548
0.0101975
0.0239361
0.0154742
0.000816059
0.00913421
0.0235542
0.0180612
0.019229
0.00864825
0.0213523
0.00569312
0.00833958
0.0217756
0.0124468
0.0120366
0.00743782
0.0218864
0.0201396
0.00988213
9.27688e-05
0.00649058
0.0232567
0.0240866
0.0229286
0.0214031
0.0136366
0.0215239
0.0232508
0.0214638
0.010288
0.0224436
0.017652
0.0191973
0.0233336
0.00877383
0.0185312
0.0188565
0.0194831
0.0096152
0.0208884
0.0100966
0.0241616
0.0184072
0.0238643
0.0173025
0.00775655
0.00690311
4.60804e-05
1.82626e-05
0.018956
0.0174634
0.0102195
0.0236406
0.00606743
0.0203099
0.0187065
0.0200923
0.0193766
0.00858707
0.0212773
0.0178966
0.000758857
0.00597183
0.00281029
0.0107562
0.0184289
0.00923989
0.00415474
0.0232692
0.0165772
5.82817e-05
0.0165348
0.0241738
0.0121152
0.0221387
0.0144649
0.0126855
0.0141351
0.0226036
0.0189563
0.0109343
0.0232244
0.0168598
0.0231589
0.0151583
0.0239321
0.0113792
0.0194733
0.00830088
0.0218739
0.0200589
0.0195768
0.0184199
0.0104155
0.0120016
0.0226903
0.0211495
0.0226665
0.0241356
0.0178178
0.0226588
0.00269098
0.00189613
0.00746821
0.0240295
0.0217504
3.92933e-05
3.96356e-05
0.0031935
0.00479463
0.00993716
0.0202354
0.015274
0.00874935
0.0240079
0.00920128
0.0232645
0.0179684
0.0232034
0.00920753
0.0240817
4.15832e-05
0.0240216
0.00513171
0.0110718
0.0218524
0.00759982
0.0192036
0.00419372
0.0153989
0.0187083
0.0201409
0.00727746
0.0045849
0.0194184
2.3802e-05
0.0134089
0.020577
0.00574719
0.0230849
0.00866379
0.021701
0.0203926
0.0230006
3.64398e-05
0.0226193
0.00850002
0.0216097
0.0229386
0.0240155
0.0239365
0.0236042
0.0218256
0.00949314
0.0146509
0.0180411
0.0152104
0.0183837
0.0234717
0.0237869
0.0233979
0.00834625
0.0176992
0.0238573
0.0186857
0.0224209
0.0241354
0.00530433
0.020478
0.0193557
0.0217726
0.0112989
0.0194177
0.0210677
0.00846802
0.0117003
0.0239321
0.0238473
0.00260214
3.86912e-05
0.00420738
0.0227171
0.0193403
0.00425717
0.0216774
0.0201564
0.0238308
0.0100937
0.0159796
0.00589573
0.0232398
0.0095192
0.0154406
0.00609606
4.51542e-05
0.0198508
0.020849
0.0217241
0.000923301
0.0237722
0.0211879
0.0168999
0.0155995
0.0198825
0.0217589
0.0194094
0.0208606
0.0231037
0.00940824
0.019912
0.0080693
2.04581e-05
0.0117408
0.0214541
2.65074e-05
0.0136585
0.00604466
0.00626932
0.0200757
0.0195875
0.019893
0.0163497
0.0100741
0.0201116
0.0101802
0.0228369
0.0202659
0.0215554
0.0240168
0.00912449
0.0222784
0.0236234
4.49971e-05
0.00537533
0.0199297
0.0103367
4.85709e-05
0.00771523
0.0131817
2.41123e-05
0.00528701
0.0237997
0.0170652
0.0153342
0.0241284
0.0186436
0.0239927
0.0194205
0.0202844
0.018333
0.00676458
5.16425e-05
0.020259
0.00934671
0.0236021
0.0231482
0.0240804
0.00899892
2.28571e-05
0.0182907
0.0240301
0.0093321
0.00818585
0.002987
0.0118991
0.018426
0.0131878
0.0234324
0.0232786
0.0197926
0.0237147
0.0105296
0.0233561
0.0142559
0.0107565
0.000869236
4.69138e-05
0.023392
0.0203436
0.0160245
0.0107923
0.0110185
0.0175814
0.0162403
0.00634784
0.00531602
0.00781261
0.00558813
5.04612e-05
0.00644104
0.0208743
0.0228947
0.0197713
0.00473635
0.0226284
0.0186923
0.0214658
0.0117295
0.0158491
0.014627
0.00968575
0.00910925
0.0226765
0.00992851
0.0156725
2.24643e-05
0.0235878
0.00496325
0.0104125
0.00313585
0.018831
0.0105666
0.0151717
0.00184005
0.0241632
0.0153498
0.0186938
0.0235974
0.0229289
0.00065206
0.0203474
0.00136696
0.00636093
0.00343089
0.0238331
0.00550833
0.0240433
0.00996509
0.0180502
0.0114188
0.0237628
0.0240404
3.60678e-05
0.00675917
0.0234383
2.47313e-05
0.0132094
0.0217195
0.0232598
0.0230694
0.0101146
2.14465e-05
0.0210695
0.0227229
0.0198984
0.0150529
0.0216135
0.0232211
0.0174315
0.0183098
4.73963e-05
0.0191961
2.05823e-05
0.0217375
0.00199543
0.00458698
0.014783
0.0149559
0.00215722
0.0238774
0.0192267
0.0199789
0.022129
3.19306e-05
0.020452
0.0234885
0.0104837
0.0078728
0.010042
0.0169808
0.00199059
0.0202634
0.0224796
0.0237756
0.0103131
0.010513
0.0202106
0.00776048
0.0218787
0.00774855
0.00837994
0.000692669
0.0212979
0.00859504
0.0229331
0.0241343
0.000744142
0.00419905
0.0216926
0.020867
0.0124919
0.0142964
0.0228296
0.0230416
0.0149659
0.0109403
0.0241848
0.0240789
0.00401307
0.0225174
0.011358
0.0241917
0.00411689
3.12672e-05
0.0194447
4.26561e-05
0.00997151
0.020104
0.0114052
0.00909105
0.0122229
0.00857047
0.0170709
0.0218167
0.021034
0.0240481
0.0235838
0.010855
0.0194919
0.00582937
3.40352e-05
0.0237421
0.0206656
0.0218541
0.0222743
0.0225636
0.0227558
0.023677
0.0200146
0.0200772
0.022234
0.0194535
0.0214391
0.0210138
0.0200128
0.0212945
0.0216998
0.00239554
0.00861316
0.00876356
0.0092674
0.019432
0.00297456
0.0210708
0.00071061
0.0224722
0.0179179
0.00986926
0.0141139
0.0190157
0.0211667
0.0223231
0.00260562
0.0207019
0.0119101
0.0222862
0.0217516
0.0237289
0.0111799
0.00916676
0.0162775
0.0184665
0.0217521
0.0231705
0.0202468
0.0128679
0.0161304
0.0188854
0.0219633
0.0222962
0.0205397
0.0114916
0.00114736
0.00386136
0.0150405
0.00421955
0.0113809
0.00760781
0.0137091
0.0142736
0.00938064
0.00208246
0.0227418
0.00612551
0.010696
0.00609883
0.00187162
0.0156891
0.0209699
0.0112667
0.0200801
0.00078675
0.0080191
0.000941207
0.02
0.017988
0.0113173
0.0061055
0.0213967
0.00744629
0.0141672
0.0221353
0.0235797
0.023452
0.0191564
0.0189691
0.0237082
0.0240549
0.00569446
0.0233069
0.0100341
0.0100004
0.00254423
0.02228
0.0136881
0.0141968
0.00198768
0.0186202
0.0137534
0.0240649
0.00449603
0.0115268
0.00923906
0.019164
0.0208227
0.0221683
0.000851861
0.0117246
0.0166288
0.020632
0.00838062
0.0111059
0.0224555
0.0197045
0.0181816
0.00696191
0.019418
0.0209151
0.00851796
0.0139046
0.0237784
0.00717424
0.0164351
0.00608565
0.0180295
0.0024821
0.0101313
0.0223677
0.0172679
0.00578245
0.0142617
0.0226935
0.000727919
0.0100948
0.00107424
0.0126917
0.0114433
0.0146614
0.0226494
0.00635034
0.0186747
0.0235548
0.0212054
0.0207441
0.0227289
0.00347867
0.00776682
0.0096324
0.0139229
0.0202246
0.0152548
0.0240796
0.0174897
1.8932e-05
0.0133594
0.0216481
0.0230316
0.0110943
0.019231
0.0072686
0.0193463
0.00623148
0.0236908
0.00819517
0.0215259
0.00853585
0.0175674
0.0209995
0.00916838
0.00271714
0.000990569
0.0192444
0.00323321
0.0131783
0.0109722
0.016876
0.0166661
0.0139985
0.0163652
0.0227567
0.0180544
0.0104397
0.0178573
0.010133
0.00482413
0.0218516
0.00950406
0.019828
0.00894754
0.0239555
0.0233254
0.0235668
0.020289
0.00585357
0.0063395
0.0181572
0.0145311
0.0218982
0.0211088
0.0185125
0.0198748
0.0237553
0.0233559
0.0238791
0.0204093
0.0192963
0.00830293
2.76506e-05
0.0211749
0.0187937
0.0137989
0.0054961
0.0166581
0.0203772
0.0238366
0.00538717
0.0204253
0.0239897
0.0241898
0.00384949
0.0227333
0.0202099
0.0208788
0.0154531
0.000224813
0.0109582
0.0213245
1.73606e-05
0.0036456
0.0233164
0.0110992
0.00592886
0.0232994
0.00993371
0.0191722
0.0237035
0.0195336
0.00375269
0.0204338
0.0137728
0.0103671
0.0235881
0.0210443
0.00469357
0.0192238
0.00284134
0.0223994
0.0144803
0.0156203
0.02381
0.012433
0.00740693
0.022727
0.0193712
0.0124281
0.0204978
0.00778166
0.0034582
0.00581006
0.0184104
0.0195282
0.0234169
0.00860706
0.0199926
0.0196363
0.0201958
0.0158543
0.0232695
0.0241706
0.0192367
0.0232859
0.0121306
0.00994075
0.0170059
0.0219354
0.00572492
0.021111
0.0188833
0.0183535
0.00123618
0.0238459
0.0208906
0.00406558
0.0199493
0.0234913
0.022682
0.0101738
0.0234136
0.0136282
0.00710977
0.0215581
0.00779645
0.0177767
0.0239359
0.00611421
0.00896521
0.00388088
0.0192517
0.0142088
0.0183825
1.98945e-05
0.00573722
0.0237844
0.0150536
0.0232644
0.00980975
0.0238234
0.0237771
0.0218986
0.0200832
0.0204074
0.0237147
0.00349136
0.0200585
0.0219363
0.0239901
0.0210571
0.000976251
0.0130886
5.4724e-05
0.0193057
0.0237771
0.0054037
0.0237505
0.0233914
0.0201319
0.0240188
0.0239252
0.0167068
0.0197453
0.0206693
0.0136528
0.00942089
0.00483431
1.13975e-05
0.0119922
0.0231895
2.87416e-05
0.00231454
0.0152545
0.00113085
0.00190719
0.00417539
0.0120554
0.0203302
0.00355423
0.0187119
0.00969557
0.0203474
0.0180695
0.0219358
0.020156
0.00803724
0.0156256
0.00133365
0.0232342
0.0236985
0.0220818
0.0166612
0.0186815
0.0207983
0.0177459
0.0110534
0.0182442
0.00496111
0.0231873
0.0231185
0.00980086
0.0200769
0.0191153
0.0172347
0.0194135
0.0158025
0.000785851
0.0222637
0.022403
0.0134671
0.0183259
0.0109158
0.0111686
0.0136181
0.0191936
0.0209139
0.0142446
0.0081266
0.0221751
0.0204511
0.00707179
0.0207964
0.0219142
0.0149144
0.0218003
0.00413143
0.0207397
0.0101535
0.0210998
0.0232771
0.019214
0.0214679
0.022861
0.0127487
0.0190533
0.0190476
0.0198887
0.0132673
0.0087903
0.0202372
0.0158456
0.00900627
0.0119122
0.0210364
0.0101354
0.00716579
0.0038042
0.0239547
0.00561204
0.0192835
0.00956777
0.0204633
0.0127616
0.00287677
0.00595598
0.023921
0.0238512
0.0111697
0.000102901
6.14676e-05
0.0199252
0.00379802
0.0196496
0.0228123
0.00691143
0.0129874
0.0203589
0.0115407
0.017923
0.0234474
0.00569073
0.00258477
0.0121776
0.0203055
0.0231278
0.017261
0.0196101
0.0225907
0.0188236
0.00794335
0.00832463
0.0100751
0.020564
0.0195777
0.00822323
0.0101625
0.0113095
0.0160801
0.00814683
0.00891841
0.0239602
0.0239203
0.0189202
0.0206195
0.0211172
0.00104667
0.0116368
0.0239322
0.0240338
0.023999
0.019682
0.0171914
0.000886059
0.00900395
0.0193587
0.0192342
0.0195741
0.000685853
0.0127019
0.0104026
0.0238264
0.0122607
0.0233541
0.0190787
0.0123678
0.0226516
0.00295452
0.0169401
0.0208435
0.00857294
0.0219236
0.00554277
0.00754438
0.0176419
0.00895064
0.0234728
0.0164431
0.00419172
0.0145526
0.0198628
0.008172
0.00750175
0.0236513
0.0212829
0.00727492
0.000787287
0.0203781
0.0120406
0.00893216
0.0160864
0.00106922
0.00776189
0.00105302
0.0074675
0.0059882
0.00615144
0.0093061
0.0120059
0.00874516
0.0111137
0.0189534
0.0210057
0.0212933
0.0119185
0.0209796
0.00900712
0.00119093
0.0225646
0.0215809
0.0188479
0.0188809
0.0213445
0.00929729
0.0139025
0.01296
0.0145343
0.0102141
0.00961657
0.020927
0.0205142
0.00958642
0.0190484
0.0231182
0.0237376
0.0201713
0.000902337
0.0238841
0.00299607
0.0239963
0.0229236
0.00218387
0.0195935
0.0134618
0.00878188
0.010494
0.00696204
0.0222853
0.023934
0.0193979
0.0186707
0.015819
0.00703952
0.00621386
0.0199493
0.00365803
0.00896369
0.00680052
0.0238555
0.0229672
0.0216071
0.0188926
0.0103854
0.0161455
0.00967436
0.0191234
0.00733044
0.0128254
0.0185986
0.0117518
0.00988607
0.0189876
0.0115049
0.0117022
0.0132772
0.0175843
0.00126592
0.0187677
0.0188752
0.0177264
0.0121575
0.0233135
0.00656359
0.0132856
0.00571355
0.0189309
0.0237453
0.00933003
0.0197942
0.0236386
0.0134877
0.00484975
0.0213437
0.013518
0.0190269
0.00881393
0.0126011
0.0236592
0.000807472