/*--------------------------------*- C++ -*----------------------------------*\
  =========                 |
  \\      /  F ield         | OpenFOAM: The Open Source CFD Toolbox
   \\    /   O peration     | Website:  https://openfoam.org
    \\  /    A nd           | Version:  10
     \\/     M anipulation  |
\*---------------------------------------------------------------------------*/
FoamFile
{
    format      ascii;
    class       volScalarField;
    location    "650";
    object      p;
}
// * * * * * * * * * * * * * * * * * * * * * * * * * * * * * * * * * * * * * //

dimensions      [0 2 -2 0 0 0 0];

internalField   nonuniform List<scalar> 
23845
(
-0.125399
-0.16788
-0.255814
-0.252819
-0.145024
0.00024506
-0.240363
-0.258694
-0.000917257
-0.0844404
-0.0164846
0.000330226
-0.000880972
-0.000230748
-0.247869
-0.0413027
-0.00063693
-0.00122823
-0.00269334
-0.000105135
-0.144712
-0.0152601
-0.191249
-0.00015551
-0.047665
-0.000265729
-0.216134
0.00260937
-0.266484
-0.00015364
-0.248257
-0.245254
-0.258698
-0.00152939
0.000486467
0.000429838
-0.255677
0.000226063
0.00106079
0.000409201
-0.00643991
-0.000287402
-0.00116697
-0.00154172
0.000247834
-0.00036053
-0.162929
-0.0321587
-0.237958
-0.269263
-0.246042
-0.247737
-0.237963
0.000995238
-0.247889
-0.00108743
-0.193145
-0.25572
-0.147901
-0.231164
-0.264856
0.000778121
-0.027342
-0.26705
2.94714e-05
-0.00262669
-0.228628
-0.000787416
-0.00180418
-0.00493979
-0.261263
-0.260455
-0.00129042
-0.247371
-0.00116162
-0.248937
0.000318762
-0.000213646
-0.2552
-0.00225619
-0.198094
-0.240269
-0.179151
-0.259359
-0.251997
0.00059475
-0.23437
-0.235407
-0.000475576
-0.00275372
-0.250575
-0.0130849
-0.26867
0.0015675
-0.252709
-0.255028
-0.00318273
-0.0370831
-0.000250024
-0.145842
-0.00143976
-0.243073
-0.107916
-0.276991
-0.271345
-0.258298
-8.31862e-05
-0.000894932
-0.230228
-0.000116481
-0.013289
-0.000186412
-0.256406
-0.0610063
0.000180408
-0.126106
-0.000621938
-0.0650446
-0.26533
-0.264793
0.000395768
-0.249255
-0.00531871
-0.26304
-0.234628
0.00102414
-0.26395
-0.270542
-0.258762
-0.185017
-0.260716
-0.0577044
-0.0375467
-0.000265428
-0.000414647
-0.115556
-0.274969
0.000309393
-0.225114
0.000208476
-0.265279
-0.00077532
0.000721034
-0.0011997
-0.0173571
-0.000474267
-0.0974241
-0.247106
-0.264298
-0.00602824
-0.243392
-0.000266583
-0.22343
-0.00168715
-0.256075
-0.00928421
-0.116777
0.000512005
-0.261559
-0.259916
-0.00890883
-0.251545
-0.251466
-5.60979e-05
-0.00324369
-0.00448361
-0.000433034
-0.252407
-0.00140078
-0.00078566
-0.000802546
-0.254048
0.000343217
-0.26279
-0.000453004
-0.254244
-0.0180796
-0.0174498
0.000879643
0.00073979
-0.13969
-0.142597
-0.245096
-0.0104861
-0.0252247
-0.00185355
0.000512371
-0.25882
-0.267745
-0.00081909
-0.269241
-0.00151727
-7.32538e-05
0.000228118
-0.0150746
-0.000384773
-0.274365
-0.269432
-0.284529
-0.016125
-0.00320003
-0.00107917
-0.264414
-0.0499458
-0.259062
-0.252591
-0.257695
0.000257756
-0.170993
-0.000890899
-0.00368982
-0.257085
-0.0280301
-0.00236721
-0.241438
-0.252226
-0.0453283
-0.000209997
-0.26713
-0.260039
-0.000584629
-0.249206
-0.274739
-0.0103356
9.29308e-06
-0.249392
-0.270011
0.00144209
-3.32756e-05
-0.00720219
0.000933946
-0.238858
0.000684672
-0.000207395
-0.130679
-0.264609
-0.000160565
-0.249498
0.00210995
-0.257645
-0.237214
-0.0783649
-0.257234
-0.121856
-0.25023
-0.0325787
0.000224569
0.00235356
-0.253048
-0.242781
0.000101126
0.000787956
-0.247193
-0.00149568
-0.238574
-0.253047
-0.26432
-0.253073
-0.000111872
-0.000256561
-0.233746
3.58388e-05
-0.263227
-0.0109879
-0.00811341
0.0016017
-0.253458
-0.264491
-0.23407
-0.251704
0.000530519
-0.256061
-0.243471
0.00104069
-0.0117106
-0.000206708
-0.252486
0.00224506
-0.280447
-0.192271
-0.258957
0.000640986
-0.248335
-0.0113266
0.000620638
-0.265353
-0.260315
-0.000145702
-0.25393
-0.252762
-0.253955
-0.241747
-0.266631
-0.253278
-0.253903
0.000481926
-0.265549
-0.000162729
0.0004343
-0.262471
-0.26452
-0.246083
-0.265294
-0.250566
-7.93554e-05
-0.249328
-0.269028
-0.244483
-0.00241604
-0.273467
-0.242722
-0.219405
-0.00173837
0.0037552
-0.255281
-0.266712
-0.265329
-0.0344107
-0.254228
-0.00111138
-0.272344
-0.254885
-0.264097
0.000360973
-0.251763
0.000499954
-0.253769
-0.194727
-0.265164
-0.000263358
-0.249493
-0.013079
-0.248747
0.000115005
-0.261734
-0.250327
-0.251796
-0.00162252
-0.000505751
-0.254004
-0.255293
-0.264182
-0.0156646
0.000352948
0.000274575
-0.284729
0.00041337
-0.253542
-0.254366
-0.247635
-0.248412
-0.265117
-0.270971
-0.250756
-0.238009
0.00249778
-0.000660509
-0.00166965
-0.252112
-0.255295
-0.261164
0.00290651
-0.0912024
-0.00955736
-0.266821
0.000151847
-0.262185
-0.00106575
-0.264064
0.000357839
-0.000301628
-0.252356
-0.273829
0.000217767
-0.000358312
-0.251245
-0.253694
-0.250988
-0.000344655
-0.258543
-0.249214
0.0006707
-0.178342
-0.000702991
-0.000274115
0.00072798
0.000890534
-0.253432
-0.00281535
-0.253794
-0.231515
0.000328564
-0.269532
-0.272897
-0.24216
-0.260238
-0.00733006
0.000138699
-0.0054921
0.00027844
-0.254083
-0.237868
-0.252051
-0.256674
-0.222473
-0.247543
2.49055e-05
-0.270953
-0.269937
-0.264489
-0.252265
0.00113152
-0.235797
-0.264696
-0.118563
-0.254776
-0.231329
-0.00901171
0.000911132
-0.119731
-0.266007
-0.0005096
0.000503611
-0.254492
-0.263743
-0.155648
-0.274877
-0.246023
-0.262204
-0.261922
-0.000324023
-0.00138149
-0.264145
-0.00106285
-0.000750581
-0.000160921
0.000918994
-0.00164235
-0.266419
-0.262081
-0.25056
-0.270426
-0.271845
-0.26439
-0.242465
-0.265866
0.000282399
-0.219068
0.00145919
-0.256526
-0.256145
0.00074565
-0.278004
0.000843543
-0.000750794
-0.262665
-0.220028
-0.0557138
-0.252366
-0.00240979
-0.192388
-0.253813
-0.272732
-0.208021
0.00152976
4.0267e-05
0.000473744
-0.239961
-0.000646973
-0.25704
0.00114355
-0.000226948
-0.241086
-0.26433
-0.267921
-0.120615
-0.00151573
-0.248054
-0.0007801
-0.00558526
-0.193662
-0.221865
-0.246884
-0.0161736
-0.00269736
-0.245312
8.08188e-05
0.000510531
-0.24988
-0.263554
-0.000381985
-0.264347
-0.253591
-0.210358
-0.26069
-0.174646
-0.00133905
-0.256419
0.000133423
0.000567753
-0.233512
-0.262638
-0.263204
-0.184732
-0.258431
-0.256901
-0.00936268
-0.00213903
-0.000324475
-0.263406
-0.247061
-0.264318
-0.256451
-0.24439
0.0015204
-0.000204297
-0.230159
-0.256923
-0.256134
0.00511101
-0.248819
-0.000321899
-0.00105724
-0.266782
-0.00166066
-0.249021
-0.254515
-0.266659
-0.175669
-0.261478
-0.263032
-0.271607
-0.091057
-0.189666
-0.00137405
-0.00216275
-0.00109609
-0.265485
-0.145788
-0.255653
-0.260588
0.00300889
-0.177593
-0.178361
-0.0124966
-0.176151
-0.0180441
0.00225639
-0.000591412
-8.55558e-05
-0.00230334
0.000510042
-0.262524
-0.00211206
-0.256993
-0.205262
-1.55636e-05
-0.26302
5.83356e-05
0.00196415
-0.252815
-0.254379
-0.204283
-0.00113313
0.00137178
-0.273782
-0.270876
-0.00147522
-0.266727
-0.00149804
-0.00112308
-0.244885
-0.0022794
0.00106553
-0.0499593
-0.122115
-0.264641
-0.251114
-0.252942
-0.144982
-0.000962983
0.0004045
-0.0129775
-0.250749
-0.265857
0.000474981
-0.000102033
-2.20074e-05
-0.251235
-0.00201411
-0.200115
-0.252027
-0.150923
-0.00833133
-0.257354
-0.0022409
-0.00120141
0.00307291
-0.000982156
0.000393841
-0.253895
-0.000752732
-0.118592
-0.248696
-0.259011
-0.0452333
-0.250794
-0.132108
-0.242479
-0.00838025
-0.191748
-0.120962
-0.20073
-0.120181
-0.265584
-0.119646
-0.0645349
-0.100233
-0.000286938
-0.00110282
-0.122877
-0.261341
-0.156126
-0.00403906
-0.147191
-0.00235925
-0.00541128
-0.000809667
-0.00287457
-0.0534213
-0.000800372
-0.000526878
-0.21106
-0.000441001
0.000517155
-0.256224
-0.110887
-0.0584689
-0.00145409
-0.00875524
-0.182203
-0.00378893
0.00114859
-0.00205135
-0.113295
-0.036195
-0.142584
-0.00142813
-0.0407749
-0.256724
2.67569e-05
0.000691014
-0.0706556
-0.257736
-0.266074
-0.26902
-0.263917
-0.0423746
-0.264057
-0.0150815
-0.00515149
-0.00261457
-0.00198984
-0.143878
-0.00207658
-0.00229588
-0.00268468
-0.112589
-0.237832
-0.0278245
-0.0434519
-0.00400006
-0.0118628
-0.00803851
-0.00472249
-0.0431128
-0.00258999
-0.0597193
-0.0133555
-0.00179742
-0.0189838
-0.000530232
0.0015399
-0.00114773
-0.00123277
-0.0421243
-0.00113512
-9.56772e-05
-0.0360399
-0.0367178
0.000224088
-0.00105454
-0.00586625
-0.00964561
-0.0143481
-0.0216018
-0.0367816
-0.00299983
-0.0527249
-0.00252285
-0.0187199
-0.00111398
-0.0102677
-0.0010397
-0.000989878
-0.00158945
-0.00160589
-0.000484096
-0.000951726
-0.00274456
-0.00145862
-0.235509
0.00169185
-0.000909561
-0.00129722
-0.000739469
0.000385018
-0.00783278
4.37566e-06
-0.00968577
-0.0154989
-0.00199417
0.000410061
-0.00181021
6.09377e-06
-0.0261786
-0.0118409
-0.0786038
0.00123213
-0.00783864
-0.000683113
-0.00088154
0.000305598
-0.00120375
-0.0305817
0.000352365
-0.104465
2.65309e-05
-0.000434135
-0.00161562
-0.000690459
-0.000232373
-0.00116128
-0.262876
0.000355154
-0.0025842
-0.0651867
-0.000510262
-0.000225125
0.000216031
-0.23651
-0.00485421
-0.000346063
-0.0395163
-0.000110227
-0.262911
-0.0211756
-0.0147771
-0.0274915
-0.0179823
-0.0503983
-0.00561341
-0.00316504
-0.00602797
-0.0142559
-0.00137338
-0.00862061
-0.000341796
-0.158798
-0.00202264
-0.000623167
-0.0373555
-0.0229063
-0.0293864
-0.253699
-0.00928973
-0.00388315
-0.101268
-0.0135755
2.51872e-06
-0.000874778
-0.00159397
-0.247034
0.00257408
-0.00786719
0.00052745
-0.00152437
-0.000235798
0.00115108
-0.00032793
-0.000524636
-0.00179192
-0.00133825
-0.000469167
5.08792e-05
-0.00035308
-0.181658
-0.000207089
0.000322864
0.0003555
0.00115859
-0.000957919
-0.0580558
-0.0037448
-0.014708
-0.00267588
0.0018173
0.000715574
-0.00100522
0.00272258
-0.125192
-0.0274123
-0.0250152
-0.000669881
-0.000749101
-0.00462738
-0.267187
-0.0092841
-0.00664674
-0.0158323
-0.00192286
-0.00262785
-0.0259758
-0.00327368
-0.00344339
-0.001474
-0.00517585
-0.00248917
-0.00177856
-0.00221436
-0.00239708
-0.00131785
-0.00297843
-0.00601403
-0.00242925
-0.00308776
-0.0403179
-0.000224731
-0.00305716
-0.257663
-0.0423361
-0.000273367
0.000155077
-0.000690068
-0.0238225
-0.0130135
-0.0159536
-0.00832559
-0.00116353
-0.0101756
-0.00651132
-0.00927101
-0.0305661
-0.00152025
0.00110324
-0.00187275
-0.00237421
-0.00770337
0.000378258
-0.2481
0.000658443
-0.0266454
0.00173697
-0.0620799
-0.000336033
-0.00253231
-0.0218158
-0.0091741
-0.0859428
-0.0573396
-0.0112237
-0.103954
-0.00308336
-0.00471372
-0.00120084
-0.00141077
-0.00173542
-0.00133339
-0.0021673
-0.000591757
-0.00198265
-0.0245403
-0.000187011
-0.0240388
-0.0305056
-0.0178692
-0.0124164
-0.0948576
-0.0102705
-0.00178472
-0.024381
-0.00131726
-0.0637405
-0.00507909
-0.00170846
-0.113293
-0.00527115
-0.00191403
-0.00871414
0.000117076
-0.000845587
-0.232655
-0.00226221
-0.000653105
-0.00317326
-0.000371189
-0.000415715
-0.000672323
-0.00891839
-0.27087
0.000647832
-0.00145472
-0.00480152
-0.00732482
-0.107476
-0.013402
0.000221874
-0.0143798
-0.00140168
0.00160529
-0.259047
-0.274809
-0.000474881
-0.00162343
0.00252597
-0.222486
-0.00112817
-0.252306
0.000411667
-0.00142803
-0.00456202
-0.00351983
-0.00065982
-0.000714787
-0.00031951
-0.0974974
-0.000719779
-0.137522
-0.0113938
-0.0397736
-0.00161614
-0.0108661
-0.0025044
-0.0070519
-0.00275826
-0.00209135
-0.0199627
-0.0010847
-0.0117673
-0.0168783
-0.0248495
0.00167703
-0.0107167
-0.0139835
-0.00117396
-0.0300505
-0.0174602
-0.00809411
-0.0381016
-0.000755544
-0.000240726
-0.000719555
-0.000242258
0.000805105
-0.00119814
-0.0103643
-0.00126245
-0.00014863
-0.00699174
-0.00632285
-0.00679024
-0.00165904
-0.211607
0.000240065
-0.0014157
-0.000123693
-0.000556161
-0.00251219
-0.00326698
-0.0124128
-0.0944948
-0.131653
-0.000834467
-0.00309784
-0.0201358
-0.038845
0.000683596
-0.0443338
-0.00253596
-0.00453628
-0.0103902
-0.0396172
-0.00263672
-0.0126901
-0.0261299
-0.0135414
-0.0308048
-0.022644
-0.0283338
0.000159943
-5.32387e-05
0.000492761
-0.000319679
-0.00834258
-0.0136105
-0.00128215
-0.283653
-0.000305721
-0.257982
-0.000961764
-0.000224116
-0.271613
4.52276e-05
-0.00141811
0.000311618
-0.00161166
-0.00329603
-0.000505226
0.000222872
-0.000278178
-0.0433218
-0.265759
-0.000386339
-0.00250451
-0.00612067
-0.177341
-0.202743
-0.124653
-0.0166097
-0.000513771
-0.0030657
0.000943629
-0.000234098
-0.000529491
0.002487
-0.131979
-0.0909386
-0.0373469
-0.0831661
-0.055238
-0.101643
-0.122341
-0.0373584
-2.95122e-05
-0.0699205
-0.0210579
-0.0286682
-0.0266828
-0.0102871
-0.0161156
-0.0009176
-0.0121236
0.000413393
-0.00783544
-0.00244482
-0.001427
-0.000264623
-0.0013514
-0.000358111
-0.00106727
-0.00129401
-0.00383221
-0.164253
-0.0589538
-0.000310962
-0.0885588
-0.000353782
-0.00311556
0.00205026
0.000382733
-0.000542383
0.00125994
-0.001595
0.000163915
-0.00458648
-0.00201645
-0.115775
-0.00292185
0.000269285
-0.0801546
-0.0021477
-0.00085576
-0.00473516
-0.0474117
-0.00259373
-0.260961
-0.255751
-0.000951227
-0.00947709
-0.0122769
-0.0214293
-0.0012585
0.000423275
-0.0129969
-0.00603798
-0.00943643
-0.00618381
-0.00336548
-0.000517189
-0.277845
-0.000834016
-0.033936
-0.000276542
-0.000648046
-0.0518642
-0.00186633
-0.00154962
-0.265528
-0.000229048
-0.000801025
-0.00151734
-0.000110306
0.00138266
-0.00049543
0.000107309
0.000286578
-0.0686776
0.000439302
0.000293449
-0.191086
-0.000316297
0.000681906
0.000704105
-0.214984
-0.00123221
-0.000842293
-0.082508
-0.00104702
-0.00146743
-4.24508e-05
-0.00181528
-0.00169508
-0.262851
-0.00242302
0.000499561
-0.00990754
-0.0206716
-0.0896239
-0.0145575
-0.00644705
-0.00148293
-0.000346198
-0.000476627
-0.00319221
0.000349445
-0.0577344
-0.000426928
0.000306709
-0.00128003
-0.00177907
-0.000799027
-0.247568
-0.2614
0.000289061
-0.00174617
-0.000514939
-0.168145
-0.00103542
-0.00207421
-0.0166997
-0.000624993
-0.252658
-0.000291201
0.00223173
-0.000226102
-0.00284938
-0.00160797
-0.00426136
-0.0122465
-0.000799796
-0.0265881
-0.0035251
-0.000119278
-0.00453666
0.00096142
-0.0032075
-0.0117223
-0.00599692
-0.012006
-0.000790678
0.000362838
-0.0016797
-0.00359879
-0.0038351
0.000104727
-0.0055423
-0.00446173
-0.0392078
-0.00163153
-0.00209873
-0.0615262
-0.00116367
-0.00402537
-0.0927118
-0.00110742
-0.00348195
-0.133146
-0.00279887
-0.00196564
-0.110048
-0.0550336
-0.174052
-0.0010727
0.00282812
-0.0625773
-0.00012728
0.000315318
-0.109309
-0.0291948
-0.0497981
-0.000877344
-0.0754355
-0.000742364
-0.003768
-0.0476058
-0.0164326
-0.00122634
-0.0145105
-0.0724345
-0.281853
-0.000963658
-0.00105729
-0.000516749
0.000853602
0.000793653
0.000256157
0.000291952
-0.249153
-0.0010324
-0.00288178
-0.0504692
-0.00159354
-0.0251328
-0.000962462
-0.156902
-0.0017619
-0.00273329
-0.17861
-0.00223883
0.00113392
-0.000376495
-0.00305493
-0.264664
0.000223718
-0.101286
-0.0042068
-0.0252088
-0.261557
-0.25439
-0.0542798
0.000169162
-0.000665617
-0.184447
0.000532298
0.00185784
-0.00106577
-0.125966
0.000709433
-0.000203813
-0.00188475
-0.107606
-0.00294505
-0.000539592
-0.00239658
-0.00233625
-0.269191
-0.00494666
-0.00585004
-0.0941844
0.000264651
-0.263793
-0.000974922
-0.258771
0.00057919
-0.109876
-0.00243311
-4.94078e-05
-0.000265996
-0.00161832
-0.00504718
-0.00583462
-0.0105747
-0.0249422
-0.00107173
-0.000605147
0.000439469
-0.0242214
-0.0220447
-7.31108e-06
-0.000981397
-0.000915624
-0.00225328
-0.00608512
-0.00622189
0.00117062
-0.00906941
-0.00752368
-0.0871072
-0.0025869
-0.170007
-0.00134341
-0.00486185
0.000448137
0.00097677
-0.256287
-0.0640092
-0.0332549
1.60301e-05
-0.0466014
-0.00151945
-0.000545535
-0.0684003
-0.000947564
-0.226554
-0.264232
-0.0952412
-0.00583741
6.27659e-05
-0.265783
-0.00416326
-0.00904205
-0.00315019
-0.0561637
-0.19735
-0.00219935
-0.000338542
-0.252623
-0.251664
-0.00079803
-0.0826334
-0.099022
-0.000761826
-0.262476
-0.00042191
-0.113073
-0.00113215
-0.0696592
-0.000504585
-0.0556704
-0.203851
0.00104261
-0.2571
-0.101833
0.000682653
-0.264534
-0.00010008
-0.051294
-0.0947234
-0.256623
-0.000712873
-0.0295462
-0.177176
0.000747777
-0.0869724
-0.000796119
0.000681228
0.00174919
-0.00641057
-0.0743414
-0.00100322
-0.00042384
-0.136105
-0.00492063
-0.000242935
0.000164359
-0.000813162
-0.000245507
0.000163706
-0.0751574
-0.216694
-0.0783149
0.000157127
-0.00589217
1.16237e-05
-0.00187701
-0.00511238
-0.00138998
-0.260423
-0.00175805
-0.0842162
-0.260246
-0.00108504
-4.75436e-05
-0.011014
-0.029017
-0.0919849
-0.17885
-0.0105708
-0.000287535
-0.00521661
-0.00116844
0.000346955
-0.00043058
-0.000525044
-6.73039e-05
-0.000637309
-0.0900961
-0.263161
-0.00135428
-0.00150838
0.000501403
-0.213732
-0.00063981
-0.00625204
-0.00301485
-0.000264963
0.000250759
-0.00449023
-0.0242764
-0.0250077
-0.00296279
-0.000244544
-0.0061331
-0.244062
-0.256031
-0.00151439
0.00588195
-0.0236925
-0.001664
-0.000833873
-0.000724726
-0.00128132
-0.00586259
-0.00431393
-0.26364
-0.000836579
-0.247083
-0.00058489
0.000774187
-0.192413
-0.00534481
-0.0851762
-0.00403444
-0.0105267
-0.0157162
-0.00753755
-0.00331899
-0.069291
0.0017989
-0.00063063
-0.000254845
-0.00318512
-0.254678
-0.00558911
-0.00243734
-0.00549099
-0.0547953
-0.255195
-0.0113527
0.000745866
-0.214585
0.00021298
-0.000385736
-0.0285193
-0.202028
-0.262161
-0.265485
-0.00348755
-0.000487445
-0.0222978
-0.000829804
-0.21404
-0.0625377
0.000887502
-0.00917537
-0.142239
-0.00139996
-0.215465
-0.00961547
-0.038535
-0.0045166
-0.129342
-0.0784394
0.000243767
-0.000390461
-0.262781
0.00200695
-0.000969019
-0.0924105
0.00140148
-0.00934122
-0.0912979
-0.0432459
-0.258139
-9.75045e-05
0.00014573
0.00193128
-0.261621
0.000103209
-0.00327373
-0.0034734
-0.260118
-0.000188023
-0.0025246
-0.00183531
-0.261667
-0.0466633
-5.55483e-05
-0.00630016
0.000264522
0.000854076
0.00163787
-0.236563
-0.0188586
-0.000259565
0.000500076
-0.154255
-0.0404505
-0.00238767
-0.0151077
2.14626e-05
0.00095871
-0.259931
0.00134785
-0.0284925
0.000522248
-0.0168707
-0.258523
-0.262365
-0.259112
-0.235168
-0.207963
-0.000187923
-0.0862774
0.000581416
-0.000686492
-0.000311375
-0.204832
0.00030247
-0.246578
-0.267601
-0.000219963
-0.00063588
-0.244719
-0.265536
-0.0767742
-0.235581
-0.0989196
-0.205121
-0.000109555
-0.0949777
-0.270328
0.00145888
-0.246493
0.000879804
0.000532172
-0.172516
-0.267438
-0.26247
-0.187197
-0.15318
-0.00200144
-0.272173
-0.00076605
-0.106324
0.000443151
-0.216877
-0.0702963
-0.00265684
-0.162733
0.000232005
-0.00128536
-0.000185276
-0.270587
-0.246925
-0.258187
-0.260406
-0.000661651
-0.148644
0.000998523
0.00305813
-0.000122932
-0.0428516
-0.262079
0.00110066
-0.00348762
-0.184639
-0.245485
-0.0101849
0.000179069
-0.25454
0.000123599
-0.000375494
-0.00130935
-0.00114592
-0.000522929
0.000195663
0.00129106
-0.245893
-0.000323445
0.000518945
-0.000269146
-0.035154
-0.255144
-0.0933588
0.000189014
-0.257249
-0.0654919
-0.0495016
-0.000126137
-0.266669
-0.00679967
-0.271693
-0.258637
-0.259641
0.00139734
-0.000277512
-0.191518
-0.1596
-0.000917321
-0.000628029
-0.148535
-0.170625
-0.213487
-0.0135366
-0.268445
0.00213534
-0.256068
-0.00348107
-0.257064
0.000691601
0.000228115
-0.00450435
0.000170048
-0.263213
-0.0013201
-0.254075
-0.258105
-0.00783443
-0.0171052
-0.102658
-0.268508
-0.156512
0.000450919
-0.0690745
-0.0652575
-0.190969
-0.00118158
-0.254141
-0.134035
-0.253463
-0.260373
2.10164e-05
0.000279586
-0.0479629
-0.253389
-0.00705223
-0.171601
0.00200768
0.00073817
-0.000395861
-0.00203388
-0.264891
-0.000715189
0.000594475
-0.21353
-0.0313458
-0.205739
-0.177902
-0.266378
-0.254443
-0.171336
-0.242339
-0.249265
-0.0751142
-0.0116949
-0.266758
-0.00132403
-0.251993
0.000996938
-0.263872
-0.266522
-0.000334606
-0.00201371
-0.00240814
0.000573496
-0.00123619
-0.000299193
-0.00449686
-0.000219929
-0.162951
-0.133685
-0.000867977
-0.0713193
-0.0462418
-0.247224
-0.265988
-0.254796
-0.257428
-0.258961
-0.191919
-0.269513
-0.0217795
-0.000143205
-0.266576
-0.00116154
-0.24622
-0.0753471
-0.00662602
-0.262747
-0.0556558
-0.000663582
-0.255764
-0.000609281
-0.222691
-0.117918
-0.0259003
-0.244237
0.00133275
-0.148121
-0.003933
-0.00066222
-0.207955
-0.281273
-0.00294195
-0.00429361
-0.00414655
-0.00825187
2.57522e-05
-0.251517
-0.00476543
-0.00302922
-0.189634
0.000350322
-0.261726
-0.0245106
0.00203727
-0.0395557
-0.257724
-0.264876
-0.260935
-0.26234
-0.235911
0.000295437
-0.241729
0.000247143
0.000370513
-0.2522
0.000587472
-0.257824
-0.204106
-0.21647
-0.259454
-0.00769322
-0.243123
-0.000111921
6.38361e-05
-0.00135794
-0.0055997
-0.254737
-0.000388187
-0.000555286
-0.00545905
-0.249751
0.000290421
-0.24255
-0.257809
-0.00276677
-0.267264
-0.260267
-0.203398
0.000688465
-0.258734
-0.00284913
8.02927e-05
0.00154881
-0.261552
0.000212997
0.0018313
0.000351399
-0.0997231
-0.00147254
-0.253923
-0.000605793
-0.00209825
-0.016775
-6.21129e-05
-0.213477
-0.00189604
-0.00223389
-0.158466
0.000739654
-0.00139377
-0.00101315
-0.262632
-0.0278246
0.000854315
-0.270558
-0.196263
-0.200557
-0.000284171
-0.000600057
-0.25093
-0.197432
-0.242537
-0.177809
-0.247548
-0.243873
0.00310021
-0.252403
-0.224909
-0.00205724
-0.25878
0.000328253
-0.264458
-0.263847
-0.262265
-0.0350769
-0.225813
-0.282261
-0.000703675
0.000427013
0.000648931
-0.249536
-0.253186
-0.246686
-0.272932
-0.221338
-0.00825938
0.00111195
-0.215746
-0.263697
-0.253979
-0.00976222
-0.14353
-0.000748639
-0.256232
-0.268807
-0.2596
-0.262161
-0.262045
-0.255088
-0.00109966
-0.246843
-0.256283
-0.276237
-0.233934
-0.259203
-0.0152323
-0.254944
-0.263485
-0.00237247
-0.246177
-0.238874
0.000971177
-0.253562
-0.00936538
-0.277208
-0.249625
-0.192869
-0.202944
-0.253044
-0.0161439
-0.200149
-0.254824
-0.000701583
-0.221994
-0.00184227
-0.00173983
-0.0737624
0.00238295
-0.00166904
-0.065224
0.000570321
-0.000648202
0.000352805
-0.00169748
-0.210463
0.00149501
-0.0910164
-0.275425
-0.261185
0.0002729
-0.0178566
-0.00226963
-0.249284
-0.00029994
-0.256207
-0.233811
-0.0230416
-0.24371
-0.259004
-0.248972
-0.0633896
-0.00348669
-0.232672
-0.23458
-0.261804
-0.00109575
0.00049897
0.000164582
-0.0149852
-0.211859
-0.00170083
3.19531e-05
-0.00154923
-0.262668
0.000487882
-0.0230699
-0.00817927
-0.00395452
-0.263069
-0.00834147
-0.00350654
-0.00115518
-0.217971
-0.00185504
-0.251329
-0.00105911
-0.0123428
-0.000402404
-0.0334733
-0.262833
-0.264901
-0.255379
-0.274336
-0.0194817
-0.0232091
-0.244231
7.26281e-06
-0.263541
-0.00669931
-0.00201809
-0.00166303
-0.145555
-0.240167
0.000630391
-0.158752
-0.276461
-0.256082
-0.259821
-0.225766
-0.00372633
-0.262411
-0.265703
-0.000869628
-0.0515268
-0.235474
-0.157732
8.7077e-05
-0.255644
0.000107065
-0.225857
-0.15743
-0.246916
0.000434906
-0.00520154
-0.245426
-0.0021818
-0.0441159
0.00197253
-0.219558
0.000702257
-0.255578
-0.0014245
-0.245624
0.0025282
0.00150843
-0.000958492
-0.0101446
-0.233548
-0.250864
-0.00285298
-0.00136114
-0.0017948
-0.000175244
-0.0241238
-0.00232872
-0.242047
-0.268634
-0.244532
0.000505312
-0.00106657
-0.257807
-0.250279
-0.242024
-0.26694
-0.236064
-0.00112996
-0.229599
-0.234805
-0.000289563
-0.240274
-0.0338381
-0.0595517
-0.000350055
-0.225769
-0.000466618
-0.255243
0.000518599
-0.26223
-0.252782
-0.00137673
-0.244273
-0.000663392
-0.263678
-0.214247
-0.00542189
-0.00159786
-0.245663
-0.262059
-0.00377928
-0.276935
-0.196511
-0.00152738
-0.26526
-0.000904203
-0.264059
0.000170347
-0.00266847
-0.00570625
-0.233805
-0.00121683
-0.256983
-0.0305897
0.000808602
-0.00077246
0.000855676
0.00061786
-0.00207202
-0.263289
-0.141853
-0.0145595
-0.127393
-0.0137441
-0.000420341
-0.000677856
0.00249316
-0.233586
-0.129445
0.000736132
-0.009611
-0.021495
-0.0010883
-0.259797
-0.0654811
-0.000330556
-0.00402864
-0.255692
-0.000797584
-0.00111651
-0.259358
-0.227858
-0.00103738
0.000870385
-0.260953
-0.241617
-0.266338
0.000141062
-0.00239877
-0.263892
-0.00237484
-0.00011328
-0.00125044
-0.203888
-0.188456
-0.255296
-0.000705732
-0.237045
-0.244942
-0.253795
-0.244345
-0.000101472
-0.0773933
0.00282576
-0.263182
0.000572199
-0.0019722
-0.0315546
-0.0653465
-0.00523082
-0.0205202
0.000129689
-0.00119147
-0.00313523
-0.256603
-0.00557805
-0.241736
-0.274208
-0.177027
-0.000973568
-0.232956
-0.13718
-0.261717
-0.255804
-0.00929792
-0.0780175
0.00255289
-0.0681132
-0.21921
0.00131756
-0.260365
-0.000908373
-0.00320645
0.00358052
0.000441407
-0.255214
-0.00203952
0.000311344
-0.252509
-0.253616
-0.00194206
-0.253536
-0.24698
-0.248157
-0.250626
-0.278516
-0.261877
0.00075841
-0.221515
-0.0719313
0.000614395
-0.0078802
0.00111373
0.000424087
-0.00152004
-0.194277
-0.262956
-0.237353
0.000990052
-0.263145
0.00157218
0.00208949
0.000542429
-0.234878
-0.279084
-0.00889736
0.000299982
-0.259638
-0.261569
-0.273719
-0.241587
-0.145132
-0.205454
-0.00169891
0.00190224
0.00106763
-0.00137944
-0.255017
-0.000723332
-0.107199
-0.200603
-0.278826
-0.239334
-3.1012e-05
0.000210843
-0.231313
-0.255221
-0.259232
-0.0256207
-0.0681081
-0.265204
-0.257675
-0.240441
-0.26429
-0.23575
-0.265058
0.000135734
-0.00561005
-0.00531271
-0.263225
0.000275289
-0.00261681
-0.0014985
-0.190059
-0.0587284
-0.246582
-0.26036
-0.252658
-0.000355063
-0.208648
-0.22787
-0.275542
-0.00133388
-0.258379
-0.209904
-0.271553
-0.00134777
-0.211932
-0.245492
-0.2765
0.0006377
-0.0706793
-0.00655558
8.20243e-05
-6.44309e-05
-0.268194
-0.0203886
-0.254517
-0.249276
-0.271862
0.000443704
-0.25622
0.000418976
-0.256912
-0.0120261
-0.181435
-0.000276892
0.000371513
-0.236893
-0.263856
0.00208855
-0.233675
-0.133897
-0.0183469
-0.00199438
0.00167008
-0.255497
-0.280469
-0.000438813
0.000812386
-0.00176715
-0.14491
6.33058e-05
3.6645e-05
-0.0289593
-0.0104821
-0.249706
-0.00313919
-0.270075
0.000290148
-0.272864
-0.256598
-0.123289
-0.236718
-0.265896
0.000388401
-0.00106743
0.00117918
0.000427196
-0.281266
-0.00052315
0.00125919
-0.234128
-0.264208
-0.253492
-0.162567
-0.275947
-0.00346568
0.00145606
0.000579569
-0.262256
-0.261861
-0.000214359
-0.256163
-0.00138738
-0.247264
-0.245508
-0.270987
-0.000674592
-0.236395
-0.00147926
0.000381987
-0.27141
-0.264822
-0.00238195
-0.000334319
-0.259173
-0.250058
0.00131758
-0.00162434
-0.24144
-0.260966
0.000564337
0.000694644
-0.264271
-0.000747199
-0.220398
0.000455927
-0.262108
-0.244276
-0.000827109
-0.234574
-0.257717
-0.0720586
-0.239942
-0.239862
-0.181651
-0.234646
-0.034113
-0.0028515
-0.00503643
9.63434e-05
8.33882e-05
-0.256457
-0.00510086
-0.260607
-0.24175
0.000112331
0.0010853
0.000281411
0.000644641
0.000953706
-0.00176153
-0.00382479
-0.00287889
0.000828044
-0.0044453
0.00109245
-0.00306536
0.00228793
-0.00182864
-0.0378303
-0.0756774
-0.251037
-0.264183
-0.258026
-0.257761
-0.00342613
-0.268945
0.000256
-0.272255
-0.00211131
-0.0212086
-0.226689
-0.252808
-0.002796
0.000854988
0.000609158
-0.279236
-0.0721492
-0.256769
0.000333707
-0.00138329
0.00215279
-0.18865
-0.25702
-0.0480343
-0.00408233
-0.000296785
-0.00295031
-0.00353814
-0.127923
-0.0500479
-0.00404845
0.000520399
0.000637602
-0.00255935
-0.177672
-0.253133
-0.267658
-0.070954
-0.267289
-0.178229
-0.263339
-0.0934531
-0.247345
-0.250387
-0.268033
-0.00182565
-0.258113
-0.206249
-0.258825
-0.269918
-0.241004
-0.00242024
-0.259867
-0.00322768
-0.268629
-0.241618
-0.26218
-0.00348268
-0.015897
-0.232494
-0.256999
0.000368539
-0.265116
-0.253232
-0.000135759
0.00204764
0.000996536
-0.000707259
-0.00504062
4.60126e-05
0.000795079
-0.252577
-0.00103756
-0.223917
-0.235614
-0.261865
0.000377124
-0.247651
-0.242459
-0.277839
-0.0103638
-0.253483
0.000445209
-0.258261
-0.183238
-0.242345
-0.000743964
-0.00203451
-0.0023314
-0.266983
-0.257257
-0.039196
0.00102842
-0.263318
-0.175457
0.000393555
-0.00152065
-0.0105738
-0.255682
-0.00164379
-0.0019874
-0.257958
-0.254249
0.000537273
-0.254499
-0.195751
-0.25574
-0.0187097
-0.275877
-0.256935
-0.00141319
-0.0478517
-0.261868
-0.252296
-0.00405127
-0.273591
-0.236372
-0.258012
-0.258584
-0.258374
-0.230578
-3.89337e-06
-0.261014
-0.00124812
-0.000378968
0.00135733
-0.0570243
-0.00143498
-0.272393
-0.241273
-0.262783
-0.15443
-0.000558216
-0.241609
0.000491098
-0.0236764
-0.275698
-0.24436
0.000177752
0.000110656
-0.235212
-0.0014843
-0.252131
5.90817e-05
-0.258492
0.00078995
-0.260615
-0.00250772
-0.255507
-0.0203864
-0.0461867
-0.248681
-0.275672
-0.246372
6.11823e-05
-0.273152
-0.13402
-0.257054
-0.227355
-0.0363209
-0.094708
-0.0604598
0.000639584
-0.182734
-0.213866
-0.0186005
-0.228194
-0.252512
-0.00253218
-0.255143
-0.00330035
-0.228189
0.000529614
0.000551023
0.000145875
-0.0484112
-0.261813
-0.262596
-0.0167066
-0.101
-0.00079012
-0.00165417
-0.00387628
-0.00214932
0.000343964
-0.00101175
-0.000492553
-0.00232681
0.000438421
-0.24012
-0.239029
-0.00323951
-0.00560193
-0.235194
-0.261997
-0.0539217
0.00135607
-0.00169055
-0.264755
-0.039353
0.000674224
0.000301431
-0.26664
-0.0309275
-0.00168239
-0.0027606
-0.0661788
-0.26564
-0.243685
-0.0527797
-0.273006
-0.265643
-0.000716837
-0.230503
-0.26054
5.22092e-05
-0.251495
-0.00835824
0.000503112
-0.00210367
-0.268059
-0.0028739
-0.242523
-0.208168
-0.000737849
-0.0318004
-0.273063
-0.00187837
-0.256163
-0.00060388
-0.225328
-0.239677
-0.000827681
-0.257063
-0.245821
-0.00113626
-0.00198633
-0.254585
-0.00106994
-0.244742
-0.269379
-0.261887
-0.0108489
-0.00673264
-0.00287052
-0.259489
-0.000246978
0.00291229
-0.00267611
-0.0561808
-0.000345383
-0.00132147
-0.00724479
0.000318852
-0.235705
-0.260741
-0.0292531
-4.75519e-05
-0.241137
0.000651146
-0.00247675
-0.00786467
-0.236539
0.000230493
-0.00125552
-0.257385
0.00107641
0.000494158
-0.00206313
-0.217304
-0.000450671
-0.13631
-0.262325
-0.000276747
-0.262031
-0.0271489
-0.000596573
-0.259735
-0.24927
-0.26848
-0.000546084
-0.0985349
-0.00466153
-0.271561
-0.250723
-0.00136985
-0.0792558
-0.00157473
-0.262085
0.000579927
0.000157664
-0.00213384
0.000779267
-0.00277809
-0.00106541
-0.245723
-0.00642951
0.000214783
-0.000513023
-0.00145232
-0.261044
-0.241555
-0.28375
-0.0119557
-0.00118108
-0.255943
0.0026004
-2.32211e-05
-0.00169543
0.000146015
0.000870059
-0.0450052
-0.00166454
-0.00171749
-0.110009
-0.261483
-0.265705
-0.283637
-0.230752
-0.00137513
-0.247234
-0.264359
-0.0690297
-0.243864
-0.277928
-0.245182
-0.157798
-0.00443075
-0.254337
-0.00225268
-0.251239
-0.000445774
-0.158108
0.000274586
-0.00242622
-0.251112
-0.222643
-0.239759
-0.000198926
-0.0339021
-0.0374062
-0.0443363
-0.00103819