/*--------------------------------*- C++ -*----------------------------------*\
  =========                 |
  \\      /  F ield         | OpenFOAM: The Open Source CFD Toolbox
   \\    /   O peration     | Website:  https://openfoam.org
    \\  /    A nd           | Version:  10
     \\/     M anipulation  |
\*---------------------------------------------------------------------------*/
FoamFile
{
    format      ascii;
    class       surfaceScalarField;
    location    "650";
    object      phi;
}
// * * * * * * * * * * * * * * * * * * * * * * * * * * * * * * * * * * * * * //

dimensions      [0 3 -1 0 0 0 0];

internalField   nonuniform List<scalar> 
38623
(
0.219548
-0.216914
0.0803836
-0.0830171
-0.0607641
0.077758
0.125889
-0.142883
-0.00688003
0.0134167
0.0349104
-0.0414474
0.00425013
-0.00235375
-0.0224824
0.0205859
0.0159253
0.0292651
-0.0347996
-0.0103903
-0.124962
-0.252552
0.236482
0.141033
0.0858519
-0.0717141
0.0823443
-0.0964821
-0.00866722
0.00862869
-0.00651405
0.00655255
0.0191194
0.0205481
-0.240293
-0.0361174
0.0797048
-0.321099
0.277511
0.113168
0.127887
-0.115219
-0.125836
-0.219276
0.193954
-0.0054259
0.030748
0.458559
-0.0452438
-0.465393
0.052078
-0.226553
0.205871
-0.0098744
0.0305567
0.0379635
0.0473854
-0.0529586
-0.0323902
0.0437195
-0.292914
-0.0473968
0.296591
-0.0143248
0.386098
-0.000835973
-0.370938
-0.00872622
0.268484
-0.00940588
-0.250352
0.00582799
-0.0266855
0.408592
-0.387735
0.401605
-0.281037
0.238454
-0.359022
0.184133
0.138412
-0.0440868
-0.278458
0.112068
0.0832215
-0.0821222
0.317283
-0.271662
-0.000636467
-0.0449841
-0.217661
0.287677
-0.262219
0.192203
0.0428774
0.25281
-0.0436648
-0.252023
-0.0351521
0.570785
-0.544601
0.0089688
0.0297741
-0.179166
-0.0553432
0.204735
0.222025
-0.178419
-0.488131
0.444525
-0.00924333
-0.000785824
0.00143348
0.00859568
-0.271448
0.291699
0.381355
-0.0150675
-0.0205566
0.0197481
0.015876
0.00576427
-0.0015597
0.00078678
-0.00499135
0.0297553
-0.0329726
-0.0341978
0.0374151
0.295768
-0.0245627
-0.279931
-0.010373
-0.0108988
-0.2364
0.257672
-0.34066
-0.173473
0.146259
0.367874
-0.000607598
0.000142561
-0.0073203
0.00778532
0.00526184
-0.234911
-0.14671
0.16565
0.00342445
-0.0223643
-0.0569089
0.0720926
0.314938
-0.330122
0.0656112
0.410032
-0.426684
-0.0489593
0.272157
0.185093
-0.255142
-0.202108
0.328034
-0.184
0.329866
-0.4739
-0.41796
0.205045
0.338827
-0.125912
0.593872
0.237622
-0.508306
-0.323188
-0.0292369
0.0728313
-0.427515
0.38392
-0.011496
0.0253572
-0.00265741
-0.0112035
-0.26081
0.193251
0.154963
-0.0874047
-0.000972108
0.00195996
0.00100102
-0.0019889
0.00757218
-0.000513492
-0.00772852
0.000669826
-0.00503291
-0.00132283
0.00142498
0.00493072
-0.0114784
0.0302686
-0.0247001
0.0059098
-0.00190912
0.000719039
-0.00170321
0.00289339
-0.377374
-0.108764
0.291677
0.194461
-0.00102162
0.000444561
0.00634133
-0.0201454
-0.395061
0.400881
0.0409536
-0.0240451
-0.0567312
0.0398229
-0.00450119
-0.00811628
0.00858557
0.00403188
-0.142071
0.186996
0.139208
0.00337088
-0.00794007
0.00581357
-0.00124437
-0.00921525
0.00370514
-0.00327571
0.00878578
-0.343078
-0.1108
0.0359178
-0.33695
0.325653
0.0834784
-0.0721811
-0.00576852
-0.00740758
0.00871777
0.00445834
-0.242979
-0.318613
0.343931
-0.497813
0.350018
-0.229227
0.377022
-0.169018
0.144545
-0.0255948
0.0500675
-0.534154
0.419409
0.172741
-0.0579962
0.119304
0.533406
-0.058839
-0.387847
-0.0643056
0.0638257
0.388327
0.00897176
-0.00306485
-0.00907514
0.00316819
0.015564
-0.00791776
-0.0145265
-0.0511551
-0.0172798
-0.511513
0.579947
0.0615357
-0.0619849
0.0384127
0.396663
-0.37578
-0.263861
0.0414791
-0.0620482
0.0599972
-0.0394282
0.0218808
-0.180794
0.17485
-0.0159369
0.113159
0.188615
-0.193378
-0.108396
-0.0118438
0.00547481
-0.00535682
0.0117258
0.0379987
-0.03019
0.342219
-0.350028
-0.110702
0.225223
-0.207719
0.0931975
0.0447036
-0.0568721
-0.0899751
0.102144
0.0733583
-0.0931686
-0.0106507
0.00848398
-0.000345834
0.00251252
-0.0188595
0.0439637
-0.0258824
0.000778231
-0.23524
0.24596
-0.0216194
-0.0588345
0.0940621
-0.100811
0.0655834
-0.00143682
0.000399422
0.000312845
0.000724613
-0.285645
-0.100311
0.133919
0.252038
0.361454
-0.364123
0.0406677
-0.00693587
-0.000348543
0.00662719
0.000657213
-0.422573
0.0712483
0.40142
-0.0500946
0.003927
-0.00743225
-0.00226327
-0.332487
-0.187329
0.201093
0.318722
-0.00698213
-0.00324693
0.00528892
0.00494013
-0.00746974
0.000126888
-7.36599e-05
0.0074165
0.492524
-0.11191
-0.390812
0.0101973
0.075522
-0.103382
-0.23295
-0.275947
-0.02839
0.0658025
0.238534
0.00757737
0.0011798
0.00716851
0.346675
0.0635583
-0.09512
-0.315114
-0.03909
-0.103346
-0.0265817
-0.05941
0.022746
-0.128751
0.165416
-0.00675376
5.76514e-06
0.0067421
5.85741e-06
0.00133042
0.0074541
-0.00827529
-0.000509222
0.000132482
0.00190247
-0.0126856
0.268982
-0.1061
-0.287843
0.221717
0.412569
-0.145017
0.14979
-0.0438627
0.355549
-0.317023
-0.128323
0.0897963
-0.115517
0.157719
0.0924007
-0.134603
-0.273276
0.0792986
0.199239
0.0579994
-0.0415969
-0.035262
-0.00531621
0.288515
-0.000826248
-0.282372
-0.139993
-0.330572
0.129905
-0.307318
-0.0544106
0.0593489
0.30238
-0.182139
0.36702
-0.546331
0.36145
0.0538949
-0.282759
-0.0558497
0.284714
-0.000164926
0.000337388
-0.00941579
0.00545389
-0.00765664
-0.00433127
0.00653398
-0.11939
0.0232469
0.209302
-0.000194165
0.00584052
0.000239464
-0.00588581
-0.0413168
-0.381091
0.0396191
0.382789
-0.00509783
0.0034009
0.00738383
-0.00568704
-0.0929269
0.0858951
-0.0963143
-0.0765618
-0.666301
0.547254
0.19561
-0.00898017
0.00251962
-0.00275473
0.00797455
-0.000115433
-0.000286935
-0.000789256
-0.0106592
-0.00515874
0.0166071
0.0153577
-0.0116658
-0.0132984
0.00960663
0.00820203
0.00968402
-0.00689346
-0.0109927
0.028896
0.166179
-0.151312
-0.0437635
0.137922
-0.00117213
-0.0187761
-0.117974
-0.209369
0.199055
0.0557487
-0.0454341
0.419943
0.0873018
-0.196063
-0.311182
-0.0998783
0.219432
-0.178963
9.18458e-05
0.00641044
-0.00648537
-1.69325e-05
0.0421147
0.17372
0.0522812
-0.120527
-0.170263
0.238509
-0.108247
0.150152
0.00869775
-0.00873691
-0.00012577
0.167165
-0.183044
-0.257424
0.273304
-0.140632
-0.239521
0.217983
0.16217
0.0826532
0.30372
-0.11448
-0.271893
0.361544
0.0133226
-0.0379404
-0.336926
0.47604
-0.195607
0.0751164
0.287883
-0.0545989
-0.283037
0.0497525
-0.0695245
0.0396523
-0.019439
0.0493112
-0.00331717
0.00246224
0.00686958
-0.00601468
0.023278
-0.37099
0.387976
-0.0402649
0.0478745
-0.00302483
-0.0402276
-0.00462203
0.267119
-0.117845
-0.459076
0.309802
0.072501
-0.0916097
-0.058393
0.0775015
-0.0490711
0.428399
0.144863
-0.52419
0.0356147
-0.03412
0.0227754
-0.0242701
-0.063805
0.0487022
0.293733
-0.27863
0.01561
0.0847925
-0.077656
-0.273758
0.156502
0.233991
-0.116736
-0.0103021
0.0114885
-0.00664697
0.00546061
0.0023106
0.0103685
-0.00851395
-0.00416518
0.0547922
0.379222
-0.381099
-0.0529146
0.0824938
0.0294176
-0.0453718
-0.0665397
0.00260644
-0.00952279
-0.00141229
0.00832861
-0.159745
0.161777
0.457825
-0.00042292
-0.407635
-0.0497671
-0.00039351
0.366975
-0.343303
-0.18724
0.186366
-0.0661891
0.0670633
-0.00634586
-0.00169912
0.00717298
0.000871991
-0.227953
0.401642
0.205105
-0.378794
0.281827
0.129328
-0.243991
-0.175813
0.0316053
0.182224
-0.0380168
0.0192868
0.00474744
-0.0197843
-0.230381
-0.309802
0.22157
0.0024622
-0.00687832
-0.000681764
0.282385
-0.540853
0.334652
-0.0761832
-0.013634
0.000291484
0.010564
0.00277848
0.333842
0.0516976
-0.334342
-0.0511978
0.0519759
0.246206
-0.0543804
-0.243801
-0.260745
-0.0296446
0.272157
0.0182333
-0.201282
0.169892
-0.127695
0.159085
0.00794246
0.00953814
-0.0122809
-0.00519911
0.0191924
-0.00260224
-0.00864716
0.0767472
0.0356137
-0.0708819
-0.0986527
-0.135402
0.0789477
0.155107
-0.0420663
0.0906529
-0.397948
0.349361
0.418697
-0.406611
-0.0322319
-0.194637
0.0826592
-0.00465576
0.00512519
0.00801453
-0.00746859
-0.000806906
0.00566818
0.00260729
0.286706
-0.197594
-0.00274254
0.00459339
0.00688742
-0.00873828
-0.387012
0.0718069
0.0403938
0.274811
-0.297865
0.356969
-0.116014
-0.291909
0.141898
-0.18
0.330011
-0.0514722
-0.323326
0.0591968
0.315602
0.150194
-0.200264
-0.290942
0.341011
0.000392339
-4.4657e-06
-0.00749352
0.00710563
-0.000554678
0.0071449
-0.00933277
0.00210967
-0.00625929
-0.000537589
0.00468719
0.164888
-0.133528
-0.146876
0.321571
-0.0253833
-0.296581
-0.259361
-0.321163
0.276032
0.304493
-0.00426788
0.00689534
-0.00594463
0.0129251
-0.127551
-0.0333
0.147926
0.0095996
-0.0070893
-0.0111775
0.00284021
-0.00969101
0.00945723
-0.0312863
0.0164564
0.0239513
-0.00912129
-0.0639846
-0.195315
0.0795632
0.179737
0.19696
-0.0042097
-0.0605619
-0.132188
-0.0962338
0.235884
0.0667806
-0.20643
0.309019
-0.0386725
-0.300537
-0.00816836
-0.000733252
0.008294
0.353899
-0.343176
-0.0527895
-0.441126
0.245609
-0.0324363
-0.00322423
-0.00116949
0.00248457
-0.00455198
0.00114903
0.00936951
-0.00596654
0.11699
-0.0110783
-0.0929866
0.0399483
-0.300374
-0.000189847
0.00733964
-0.00123398
-0.00591587
-0.0127219
-0.00983164
0.00817605
0.0143774
0.0794451
-0.0516295
-0.508237
0.480421
-0.0399971
0.0394846
-0.0070017
0.000349303
6.33581e-05
0.00658904
0.314938
-0.0750765
-0.303667
-0.100254
0.310758
0.0189697
0.0305713
-0.0140986
-0.0354423
-0.00016248
0.00708706
-0.00743809
-0.306563
0.0697451
-0.241908
0.0634722
-0.00496397
0.1834
0.40127
0.0477036
-0.400222
-0.0487522
-0.199644
0.237941
-0.279841
0.241544
-0.00245311
4.41731e-05
-0.00135093
-0.0620745
-0.20985
-0.574702
0.596411
-0.0568613
0.0538426
-0.0412458
0.0166689
0.0109021
0.000357021
-0.00680152
-0.00445758
-0.245037
-0.361124
0.0283103
-0.00856775
0.00253085
-0.0222734
0.0627788
-0.465208
0.518562
-0.116132
-0.0114796
-0.00677413
0.0110827
0.0071709
-0.00142987
0.00244358
0.000946256
-0.307819
0.0446549
-0.0524974
0.315661
0.00137042
-0.0123009
0.011063
0.0122955
0.000645209
0.0409025
-0.00111259
-0.00625489
-0.121032
-0.320569
0.104651
-0.0856617
0.251677
0.102967
0.0361156
-0.487019
-0.0574025
-0.011376
0.00261514
-0.000761944
0.0805384
0.0228867
-0.0209313
0.120846
0.457289
-0.426749
-0.151386
0.0759215
-0.224826
0.309252
-0.160348
-0.00507538
-0.00132244
0.00175123
0.00464657
-0.484476
0.484347
-0.0454893
0.0456178
0.102127
-0.013927
-0.058782
0.00477964
-0.00780142
0.00190918
0.00683037
-0.00564434
0.00449265
-0.000655288
-0.00691174
0.00307437
-0.0900959
-0.338032
0.0912977
0.33683
-0.300039
-0.210026
0.000693337
0.000707217
-0.0531683
0.0825501
-0.307963
0.278581
0.000682268
-0.00865505
-0.00100741
-0.115112
0.174178
0.0324048
0.264052
-0.247754
0.0571345
-0.358112
0.37307
-0.010145
-0.00911916
0.00563022
0.0095
0.00541173
-0.0093594
-0.00555236
-0.0333129
0.0067693
0.00859522
0.0179484
0.00892853
0.017028
0.177965
-0.252622
-0.118721
0.00529501
0.0188527
-0.00486096
0.000359854
0.000738373
0.00277033
-0.00386858
0.093419
-0.219675
0.288938
-0.162681
0.112692
-0.155694
-0.244144
0.0396979
0.000500584
0.00732191
-0.00744283
-0.000379663
0.0563025
-0.0825624
-0.280303
0.00656907
0.000870464
-0.000720454
-0.00671911
0.27404
-0.316812
0.0875126
-0.0447406
0.00757538
-0.0150517
0.00937878
0.0835849
-0.0501236
-0.275369
2.8655e-05
-0.00039501
-0.00466657
-0.0708062
-0.330741
0.0847054
0.316842
0.235986
0.0384025
-0.235377
-0.0390115
0.00708626
0.00547331
-0.00302916
-0.00953043
0.00554781
-0.00309594
-0.00542093
0.00296891
0.0887963
-0.359484
0.544585
-0.273897
0.00836033
-0.008857
0.00333688
-0.0502383
0.048336
0.037517
0.00328406
-0.0143686
-0.00273749
-0.00199637
0.00330397
0.00440001
-0.00832094
-0.00348665
0.0033002
-0.00465485
0.00584729
-0.0109362
0.0038603
-0.0117921
-0.22447
0.00580071
-0.00526002
0.00445968
-0.00500039
-0.354079
0.304282
0.012206
-0.00830415
-0.239141
0.00905954
0.000472013
-0.00905046
-0.000481105
0.00514207
-0.00800147
-0.00974827
0.0126077
-0.0309612
-0.0331383
0.0182074
0.0458922
0.00949356
0.00174591
-0.0273344
0.0202518
-0.0143076
0.02139
-0.122198
-0.389385
-0.0208359
-0.0150663
0.00709921
-0.00160122
0.0032198
-0.00418721
0.374693
0.052092
-0.0801095
1.19341e-05
-0.00692177
0.00180615
-0.0035209
0.0565497
0.0501272
-0.0341756
-0.393679
0.062765
-0.059936
0.39085
0.134731
-0.199515
-0.111029
-0.0119437
-0.00110783
0.00867345
0.004378
0.0084036
-0.000491671
0.00594288
0.00554339
0.103884
-0.0449434
-0.081632
0.0226917
-0.00338395
0.00646446
-0.0363398
0.00641028
0.504447
-0.474518
0.00238832
-0.008627
0.00658801
-0.0018025
0.000807113
-0.00161823
-0.00514023
0.00082574
0.00593262
-0.365452
-0.283043
0.207368
0.0647008
-0.0344008
-0.226972
0.0210591
0.212061
-0.00614805
0.0127277
0.012723
-0.0142452
-0.0112056
0.00177748
-0.00695849
0.0205387
0.00406025
0.00713426
-0.00493927
-0.0062553
0.211429
-0.0983582
-0.209305
-0.0831987
-0.0217701
0.0594796
0.045489
0.00732096
-0.215492
-0.174398
0.382569
-0.00777043
0.00133512
-0.284315
-0.0157194
0.246866
0.00732536
0.00405418
-0.0073193
0.00337396
-0.0233256
-0.0100253
-0.00239615
0.000640639
0.0117808
-0.16581
-0.261287
0.0670826
0.360014
-0.2749
0.316475
0.154511
-0.196086
-0.00928836
0.00889884
-0.00975552
0.00515771
0.0145119
-0.0149224
0.00664468
-0.105036
0.0825011
0.583197
-0.60333
-0.056429
0.484804
-0.649652
0.22158
-0.0567322
-0.00147181
-0.00722258
0.00141559
0.00727871
-0.104393
-0.175084
0.204964
0.074513
-0.000496375
-0.00840441
-0.0332798
0.0212883
0.0113761
-0.00516555
-0.0162359
-0.00461236
0.00536357
0.0118031
-0.0125545
0.00718259
-0.000212957
-0.00752431
-0.000266875
-0.00607858
0.000388521
-0.000854578
0.00290963
0.0500386
0.244197
0.0627339
-0.187217
0.305522
0.228396
-0.346702
0.36566
-0.598159
0.351571
-0.119071
-0.0642614
0.0527362
-0.0135583
0.0104275
0.0121116
0.139274
-0.384816
0.231322
0.0142208
-0.0487765
0.0288411
0.333556
-0.0142612
-0.311974
0.00294208
-0.00138528
-0.00902542
-0.207875
0.0648952
-0.0589039
0.201884
-0.00320618
0.00302983
0.0073106
-0.269161
0.213085
-0.276411
7.68105e-07
0.0449547
0.467512
0.0583181
0.157324
-0.229655
0.00655991
-0.00505605
-0.00213093
0.00346198
0.00372503
-0.0478724
-0.143205
0.161851
0.0292265
-0.390852
0.00137901
-0.00588023
-0.00144205
-0.00438805
-0.00611369
0.00483913
-0.0212495
0.298862
-0.204252
-0.0152608
0.00434289
0.00350703
0.00741071
0.0651988
-0.0617673
0.0612693
-0.0227306
-0.300055
0.0148231
0.212907
-0.404599
0.268695
-0.0770017
0.474628
0.0675149
-0.0573391
0.065033
-0.0565371
0.137873
-0.203729
0.250452
0.191218
0.00639439
0.00797925
0.262306
0.0531635
-0.0534802
-0.26199
-0.003645
-0.0114534
0.0154846
0.17442
-0.137623
-0.039435
0.240575
0.00216086
0.00626878
0.00663152
0.00121493
-0.00292025
0.00970788
-0.00654273
0.000238484
-0.00340365
0.0138542
0.224725
-0.206175
-0.550934
-0.443976
0.12174
0.0136938
-0.320739
-0.00604237
0.00253837
0.0236856
0.0215115
-0.0316021
-0.0135951
0.00749758
0.00376207
-0.00289934
0.00804452
-0.00645561
0.00356863
0.00672669
0.0278119
-0.0409592
0.00642075
-0.0448814
0.0723554
0.0492732
-0.165346
-0.0785545
0.133343
0.110557
0.0047303
-0.00739804
-0.000169761
-0.00970675
-0.00308065
0.00402818
-0.00860419
-0.0479388
0.698173
-0.056808
0.111117
-0.0159092
-0.0595944
-0.00457694
0.00546529
0.00643703
0.073827
0.0805821
-0.0585424
-0.095866
-0.0156381
-0.00835056
0.0125101
0.00438621
-0.0315094
-0.00618991
0.142878
0.0587464
-0.122677
-0.217945
-0.0366222
0.0670309
0.187537
-0.0577849
0.254903
0.048869
-0.245987
-0.00333483
0.00567265
0.00742169
-0.0097595
0.309638
-0.202801
0.197317
-0.304154
-0.214147
-0.0708827
0.128122
0.156907
0.0120247
-0.0090573
0.0090778
-0.00938164
0.000986071
-0.23939
0.175078
-0.00571782
0.0117054
0.00357751
-0.00956504
-0.0182014
-0.00557549
0.00870935
0.00121869
0.00679115
-0.00110352
0.00970597
-0.175412
-0.198092
0.383632
-0.335745
-0.0288252
-0.019062
-0.00521339
-0.00208431
0.00576852
0.00152919
-0.136476
0.178571
-0.207905
-0.330752
0.351364
-0.179188
0.158576
-0.520833
-0.059761
0.495078
0.0855153
-0.112529
0.166134
-0.101477
-0.0332226
0.0250223
0.426898
0.00230867
0.00861836
-0.00420621
0.00241725
-0.00130716
0.0525641
-0.0374482
-0.00233647
0.00148271
-0.00248109
-0.00330603
-0.00530903
0.00866129
-0.0139088
0.0154608
-0.00997667
0.00518783
-0.460635
-0.19539
0.290574
0.0117715
-0.0376444
-0.00459424
0.0304673
-0.316506
-0.0420703
0.00454606
0.00736943
-0.00446388
0.0275638
0.478435
-0.55507
-0.00131312
-0.00219972
-0.00220502
0.188025
-0.073477
-0.218941
-0.154332
0.318351
-0.00495055
0.00840964
0.00333478
0.00676305
0.00738792
-0.106043
0.0041554
-0.00946555
-0.263207
-0.373529
0.0752678
0.147634
-0.0775447
-0.145356
0.0198717
0.0093086
1.39793e-05
-0.000128539
-0.0069811
0.00709564
-0.0111104
0.0146544
-0.00512832
0.00158422
-0.317164
-0.00964658
0.0594973
0.267314
-0.0547377
0.19403
-0.247689
0.264899
-0.303512
0.00164504
-0.614637
0.0671816
-0.0558749
-0.0106785
-0.0366999
-0.207398
-0.175489
0.058049
0.324838
-0.0660561
0.194717
-0.192646
0.020338
-0.0213974
0.0225709
0.00851676
-0.00644036
0.00480594
0.00622779
0.0103898
0.0416036
-0.0363829
0.527577
-0.555548
-0.270643
0.298614
-0.00643558
0.138634
-0.42379
0.507182
-0.014387
-0.32996
0.342887
0.00146061
-0.023389
0.0250772
-0.0199914
0.0183034
0.0498269
0.000400163
-0.0384559
-0.0160953
0.00588323
-0.0106238
-0.143203
0.032173
0.155945
-0.0449152
0.217243
-0.0603466
0.0450363
-0.201933
-0.0751408
0.049979
0.064814
-0.19769
-0.117006
0.00977366
-0.261043
0.0554434
0.195826
0.0427617
0.0209906
-0.0271862
-0.0365661
0.000328797
-0.00126357
0.00776519
-0.0475114
0.360692
0.0190371
0.0037873
-0.0122756
-0.0105489
-0.00661878
0.00514401
-0.00477017
-0.0417466
0.00887234
0.00972019
0.00538307
-0.00550369
0.0206304
-0.024308
-0.0150991
0.0187768
-0.110976
-0.532128
0.122272
0.0121822
-0.0115408
0.00550362
-0.00614529
0.405902
-0.160125
0.126612
0.221537
0.0840481
0.0627734
-0.0796092
-0.0672123
-0.000287545
-0.00865934
-0.00048291
0.00942979
0.000407882
-0.00144257
0.00790423
0.0195767
-0.0223352
0.00913338
-0.00911516
0.00797876
-0.00799701
-0.0132754
-0.00216078
0.00313523
0.0802906
0.166871
-0.092055
-0.437966
-0.0426208
0.0302994
0.450287
-0.484432
0.0368518
0.00763203
-0.0209988
-0.0174752
0.0234077
-0.00332707
0.00448321
-0.000213877
-0.000113313
-0.00753247
0.00785963
-0.0167562
0.314822
-0.741402
0.182243
-0.0554777
0.0352565
0.0189566
0.0331793
0.00706336
-0.0104873
0.0252133
-0.0217862
0.0178612
-0.154275
-0.308775
0.0452459
0.417804
0.000112858
-0.00511996
0.00045516
0.28789
0.205727
-0.354982
-0.101126
0.0757226
0.00468861
0.00371902
-0.627809
-0.0582748
-0.0553187
0.119149
-0.024072
-0.0937255
-0.00135185
0.0373198
0.0876935
-0.00502534
-0.00667506
-0.0224754
0.325523
-0.0901404
0.00672824
0.00251263
0.000467009
0.00386246
-0.010192
0.0191884
0.010403
-0.017886
0.00800363
-0.0613178
0.0185005
0.0348135
0.263198
0.0218655
-0.24379
-0.0412735
-0.39071
0.377835
0.025226
-0.0123505
-0.0403354
-0.430853
-0.0762822
-0.364373
0.177448
-0.00606089
0.0118036
-0.0145011
0.0087588
-0.0134667
-0.00516549
-0.00676158
-0.361014
0.263731
0.05742
-0.0471109
-0.0406008
-0.0467157
-0.353715
-0.0596971
0.342606
0.296257
-0.0500372
0.0459994
-0.136204
-0.052998
0.574196
-0.0773022
-0.168859
-0.333586
0.247097
-0.327906
0.281186
0.286479
-0.239759
-0.0324346
0.129855
0.330979
-0.00330679
-0.0042099
0.000702496
0.00681417
-0.359282
-0.169781
0.497726
0.0313364
-0.00578724
-0.000883367
0.0115552
-0.00488463
0.0731811
-0.126845
-0.049795
0.103459
-0.273612
0.180864
0.398269
0.00788259
-0.00268056
-0.26428
-0.0264371
-0.360898
0.102297
0.285038
0.00855147
0.00125055
-0.0195137
-0.00382675
0.0142831
0.0138598
-0.0138667
-0.0111033
-0.383792
-0.156411
0.0795682
0.235413
-0.0732139
0.0011041
-0.000239065
0.00576646
0.00584658
-0.00226519
-0.53634
0.00427923
0.00727151
-0.00860869
0.0402173
-0.479437
-0.0452559
-0.59087
0.535195
-0.0553006
0.179338
0.0247558
-0.038984
-0.392383
0.148372
0.022102
-0.340825
-0.046762
0.365486
0.00943795
0.0104904
-0.00460985
0.00643281
-0.0050292
-0.0176438
0.00393008
0.0190772
-0.00728707
-0.000422647
-0.0105586
0.0120753
-0.00319127
-0.540886
0.598212
-0.0541349
0.0130188
-0.361816
0.0664712
-0.0583705
0.0303727
0.0353948
0.00412538
-0.15634
0.287393
0.0973437
0.038152
0.472698
-0.473236
-0.0376143
0.541582
-0.51721
-0.00076798
-0.00528195
-0.227059
0.222508
-0.230773
0.256182
0.0137594
-0.0391687
-0.00416038
0.0279595
0.0240754
-0.0291349
0.263621
-0.0043181
-0.230168
0.066482
0.156687
-0.00834941
-0.000231885
0.00850763
0.044097
-0.26147
-0.558495
-0.0346637
-0.0564933
-0.0955741
0.02245
0.285627
-0.0154743
-0.00166896
-0.0568099
0.168466
-0.171547
0.0598911
-0.0260595
0.0226034
-0.290095
0.202118
0.00725917
-0.0069419
-0.000175198
-0.000141105
-0.0497074
0.0578014
0.00838432
0.218903
0.0358497
-0.211875
-0.00448955
-0.00864274
0.00534381
0.046356
0.0768156
0.0702876
0.299241
-0.0757958
0.0269492
0.00673528
-0.0141079
0.0103368
-0.0636199
0.12711
0.0337275
-0.0267822
0.0473525
-0.0542976
0.0145599
-0.00920595
-0.00467633
0.00460298
0.00419867
0.111239
-0.0291318
0.0921888
-0.174296
-0.0178383
0.0386496
0.00830542
-0.0291168
0.0915644
-0.371567
0.394759
-0.304228
0.242225
-0.418918
-0.00249634
0.0117595
-0.0105571
0.00677509
0.00609258
0.0195
-0.222784
-0.0661513
0.188559
0.100376
0.08794
-0.0935491
-0.0291901
0.17339
-0.0770058
0.0719294
-0.168314
0.383181
-0.394654
0.0601337
-0.0486615
0.25386
-0.138041
0.186452
-0.30227
0.412566
-0.418881
0.0554606
-0.0491458
0.451073
-0.373414
-0.0555569
0.449271
-0.0199497
-0.335537
-0.0459776
0.50236
-0.034601
0.000118193
0.029713
-0.165259
-0.374156
0.339501
0.199914
-0.0256416
-0.0428792
-0.102878
0.155575
-0.0260699
-0.320072
-0.511814
0.0248042
-0.0538763
0.180557
-0.0318447
-0.134858
-0.0246213
0.017454
-0.0044985
0.0733802
0.248379
-0.0594534
-0.369423
0.0264247
-0.0410451
0.472236
-0.457616
0.211024
-0.0913543
0.0135899
-0.0310282
-0.188217
0.205656
-0.0421162
0.280269
-0.267287
-0.0455101
0.484613
-0.0385277
0.228339
0.0290911
0.0202419
-0.0167394
-0.32737
0.315617
-0.12824
-0.243574
0.0776123
0.241883
-0.0179299
0.0312045
-0.0311127
-0.00106607
-0.0137804
-0.00904143
0.0286046
0.0172895
-0.0267056
0.00245604
-0.00343256
-0.00235056
0.258674
-0.0443918
0.00567313
-0.0072893
0.0309294
-0.0411033
0.186702
-0.176529
-0.374553
0.192749
0.255184
0.3784
-0.0178365
0.000875051
-0.361439
0.322645
0.0356816
-0.049307
-0.0491717
0.355936
-0.0440902
0.0388614
-0.350708
-0.110437
0.763205
-0.0545561
0.403205
0.0586
-0.0492388
-0.00108338
0.0138734
0.0281128
-0.0149765
-0.0319868
0.0255659
0.0146359
-0.00295205
-0.21678
0.205096
0.335721
0.170186
-0.054834
0.21965
-0.18491
0.0230022
-0.0577424
0.249377
-0.199601
0.166438
-0.202559
0.0880922
-0.0519711
0.17118
0.120127
-0.0716577
0.0738177
-0.00286337
0.0153562
-0.0863106
0.177828
-0.0780326
0.0735936
0.0413353
-0.0182388
0.0155531
0.242357
0.108642
-0.101622
0.360443
-0.0170194
0.00764458
-0.351068
0.156345
-0.143194
0.124025
-0.137176
0.227853
-0.241467
-0.0677475
0.0813613
0.302945
-0.519523
-0.0921973
0.174859
-0.0704325
0.0976018
-0.202029
0.359973
0.0222375
-0.0217681
0.175564
-0.173504
0.0337891
0.0194911
0.413746
-0.40935
-0.0238875
0.283828
-0.320952
0.0156916
0.0214326
-0.0440799
0.196883
-0.139213
-0.0401842
0.237495
0.229223
-0.208695
0.145972
-0.166501
0.270155
-0.184964
0.201515
0.0542212
-0.0613546
0.173571
0.00773269
0.149939
-0.141186
-0.0164866
-0.0239144
0.127618
-0.113483
0.00977927
0.0967988
-0.0507948
-0.0733468
0.0273429
0.0614455
0.0169866
-0.00461438
0.168113
-0.0739389
0.0379946
-0.0311434
0.0344841
0.0792119
0.221149
-0.122533
0.171954
-0.149137
0.206708
-0.0562205
0.0773649
0.240336
0.101544
-0.0995227
0.0916072
-0.053224
0.0138128
-0.0237341
0.321679
-0.311758
0.334161
-0.0238746
0.0176594
-0.327946
0.241122
0.0300988
0.0126066
0.247476
-0.125503
0.131887
0.300798
-0.209615
-0.0623631
0.0639203
-0.405772
0.404214
0.386294
-0.375483
-0.0077696
-0.00304069
0.0270493
0.0219249
0.28504
-0.489104
0.23301
0.24762
-0.210475
0.386676
0.0159757
-0.0165534
0.23744
0.147461
-0.137425
-0.322969
-0.122045
0.15717
-0.0936785
0.085122
0.175427
-0.191198
-0.279141
0.204205
0.266134
0.167516
-0.154273
-0.00551044
0.133921
-0.125662
0.214243
-0.200631
0.0656003
-0.00413629
0.318167
-0.349847
0.0358152
0.415713
-0.0333255
0.00390586
-0.120062
-0.318617
0.100648
0.227722
-0.443592
0.306523
-0.0432769
0.346965
0.0430086
-0.346697
0.0344729
-0.0338322
-0.0185707
0.124403
0.321598
-0.149519
0.0569754
0.159025
-0.0626369
0.316753
-0.315514
0.0613974
-0.00599564
0.305435
-0.321849
-0.167636
0.060421
-0.427283
-0.060036
0.426898
0.0558107
-0.078626
-0.085567
0.108382
-0.0811869
0.194223
0.270596
-0.00818955
0.0112823
-0.00323367
0.304216
-0.408607
-0.249332
0.481637
-0.25295
-0.40436
0.175673
0.271128
0.421116
-0.336646
-0.0558549
-0.0286156
0.00018116
0.00139361
-0.00950968
-0.00126559
0.260808
-0.36288
0.0324836
-0.0195179
0.193527
-0.119018
0.346607
0.360375
0.19025
-0.355657
-0.194968
-0.262045
0.266438
-0.37596
-0.00892285
-0.0608591
0.461251
-0.11306
0.0454313
-0.0578212
0.0164381
0.0306833
-0.00494984
-0.182122
0.175644
-0.136717
0.0966016
-0.124249
-0.077922
0.0792245
0.0545084
-0.121699
0.0592683
0.121733
-0.0593021
-0.0522431
0.0803108
0.0099272
-0.304591
0.158833
-0.0687532
-0.034914
0.205935
0.00953556
0.0240152
0.162859
0.151091
0.101882
-0.0318243
-0.0898957
0.0816966
-0.328728
0.336927
-0.197061
0.0546794
-0.0471783
0.0795187
-0.159155
0.173421
0.226856
-0.270789
0.161633
0.172172
-0.0630148
-0.0547964
0.03832
-0.0888187
0.0639188
-0.0188222
0.0189644
-0.0069477
0.103122
-0.0989951
0.236209
-0.372029
0.376628
0.0990784
-0.103678
0.0394924
0.0509888
0.0381662
0.264093
-0.257322
-0.0449377
-0.0712284
0.326261
-0.336219
0.252673
-0.0773778
-0.142619
0.037165
-0.00525032
0.00092215
0.00300571
-0.421224
0.0143992
-0.19863
0.0996417
0.20211
-0.319336
0.301092
0.164814
-0.14657
0.0205496
-0.459676
0.470916
-0.0317899
-0.137394
0.330314
0.21253
-0.338339
-0.112608
0.142911
-0.176789
0.223031
0.284224
-0.140678
-0.32851
0.333919
-0.0234921
-0.259053
0.284304
-0.0609639
0.0410718
-0.316416
-0.259133
0.343482
0.232067
0.00753331
0.00620751
-0.0224911
0.00875053
-0.0746576
0.0243196
-0.232765
0.283103
0.446065
0.269431
-0.433619
-0.281877
-0.217824
0.203702
0.208345
0.251667
-0.153792
0.088576
-0.282756
0.19935
-0.0380229
-0.0184363
0.00421633
-0.301928
-0.0933919
0.172536
-0.215558
0.0292086
0.224631
-0.0382815
-0.233395
0.186189
0.239954
-0.471103
-0.0295737
0.149018
-0.039409
0.00271664
-0.00793809
0.420935
-0.433872
0.0151291
0.273002
0.14574
-0.048442
0.0250125
-0.105321
0.228571
-0.182972
-0.05774
0.0544889
-0.0855674
0.0115725
0.369361
-0.0591326
-0.321801
0.242498
0.179063
-0.259928
-0.139417
-0.0920055
0.223169
0.00825394
-0.00736832
-0.00639532
0.0324114
0.408492
-0.0485383
0.33308
-0.0507096
0.500576
-0.495496
-0.0505908
-0.447135
0.453919
-0.0494053
0.344116
0.0621022
-0.0523192
-0.432101
-0.0491424
-0.431078
0.424978
0.0549969
-0.048897
0.487139
-0.535279
0.101278
-0.053137
0.375332
0.0563843
-0.0485353
-0.512695
0.53507
0.0293839
-0.0517598
0.494215
0.0134795
-0.0498693
0.511504
0.0520653
-0.512409
-0.0511597
-0.569049
0.679242
-0.0579621
-0.0522311
-0.478999
0.0483498
0.484284
-0.0536349
0.440671
0.0585199
-0.450777
-0.0484135
-0.0489276
0.060068
0.392527
-0.0493906
-0.430773
0.438189
0.0416797
-0.0490961
0.0896443
0.300502
-0.0544249
-0.0667045
0.181855
-0.270277
0.262465
-0.168977
0.0129192
-0.00889613
0.00439414
0.0730534
-0.0547244
0.150188
-0.222981
0.212067
0.313197
-0.208425
0.313032
-0.0393081
0.327462
-0.273518
-0.0114529
0.00132359
0.137747
-0.204686
-0.0377215
0.0276674
0.159994
-0.0274187
0.333044
-0.337164
0.357624
0.0285689
-0.0490291
0.440268
0.016644
-0.0484207
0.358594
0.0240359
-0.0495504
-0.434303
0.366311
-0.05304
0.182653
-0.046378
-0.220822
0.335405
-0.39327
0.399041
-0.160382
-0.00910701
-0.0132599
-0.361444
0.383811
0.0500913
-0.0552328
0.166992
0.0566627
0.0254615
-0.211529
-0.257397
0.0919623
-0.109496
0.27493
0.257181
-0.421135
0.0170962
-0.0412312
-0.0138878
0.238783
-0.259578
-0.253717
0.274512
-0.240522
-0.156491
0.114257
-0.34194
0.354747
0.0390817
-0.0518885
-0.378735
0.418808
-0.0491801
-0.316785
0.324315
-0.0563065
-0.343917
-0.0555667
-0.35347
0.35792
0.0452195
-0.0496696
0.315342
-0.317823
0.0583095
-0.0558284
-0.572326
0.462248
0.15862
-0.0485426
-0.38133
0.39869
0.0312233
-0.048584
-0.529767
-0.0636119
0.643393
-0.0500153
0.472115
0.166794
-0.587906
-0.0510035
0.47094
-0.44923
0.0303176
-0.0520276
0.49975
-0.486808
0.0396028
-0.0525452
0.0594728
-0.389232
-0.010289
0.00815182
0.320304
0.205357
0.237791
-0.270977
0.215545
0.160642
-0.147616
0.338562
-0.231136
0.368497
-0.248118
-0.0237776
-0.289649
0.0617471
0.1103
-0.112779
-0.35824
0.0546833
-0.0499131
-0.0560427
0.0286147
-0.0494297
0.077507
0.445775
-0.0511664
0.0542996
-0.0521233
0.501603
0.0509378
-0.0527906
-0.331254
0.0432199
-0.0558838
0.0425847
-0.0485824
-0.0522081
-0.323624
0.0610113
-0.0552098
-0.451817
-0.0718247
-0.0486847
0.0143289
-0.0498801
-0.128494
-0.377823
0.25608
-0.296081
-0.0446324
0.0557049
-0.16616
-0.0289627
-0.270566
0.293715
-0.164574
0.0219506
0.173551
-0.387662
0.278536
-0.239331
0.229537
0.218318
-0.190765
0.00270669
0.000548108
0.00147552
-0.106751
0.101801
-0.238624
-0.165603
-0.00737604
0.0202438
0.146483
0.301306
0.224421
-0.0435485
-0.34688
0.0537296
-0.282022
-0.0419842
0.0595283
-0.0487481
0.0407712
-0.0515514
-0.000399717
0.00485681
-0.269074
0.227223
-0.454095
0.131564
-0.0290297
-0.00207967
0.193914
0.0556339
-0.0482456
0.440419
0.0501765
-0.0513676
0.522833
-0.0315949
-0.0657211
-0.425517
0.0581172
-0.0485242
0.237605
-0.352873
0.0827416
-0.333132
0.00986932
0.0278346
0.0397707
0.26174
-0.275629
0.192952
-0.0498184
-0.299616
-0.105274
0.382383
-0.367005
-0.0841301
0.0900534
-0.00152909
-0.31135
0.0826955
0.0628557
-0.189894
-0.00365116
0.232588
-0.109355
-0.00227733
0.380372
-0.37045
0.185218
-0.103652
0.133978
-0.0108937
0.0031036
0.04207
-0.0506743
0.079104
0.0264465
0.108685
-0.0519103
-0.423072
-0.0920858
0.281764
0.00961675
0.149155
-0.161724
0.0432318
-0.0532167
-0.0436717
0.262162
0.304085
-0.203684
-0.281468
0.181067
0.168429
-0.0602932
0.349038
-0.146944
-0.242998
0.0713254
-0.293056
0.278767
0.193559
0.154651
-0.0857455
0.321838
0.221031
0.0729705