/*--------------------------------*- C++ -*----------------------------------*\
  =========                 |
  \\      /  F ield         | OpenFOAM: The Open Source CFD Toolbox
   \\    /   O peration     | Website:  https://openfoam.org
    \\  /    A nd           | Version:  10
     \\/     M anipulation  |
\*---------------------------------------------------------------------------*/
FoamFile
{
    format      ascii;
    class       volVectorField;
    location    "650";
    object      U;
}
// * * * * * * * * * * * * * * * * * * * * * * * * * * * * * * * * * * * * * //

dimensions      [0 1 -1 0 0 0 0];

internalField   nonuniform List<vector> 
23845
(
(0.721021 -0.10927 1.14554e-20)
(0.484607 0.0996937 -5.05406e-21)
(0.250123 -0.0151197 2.72007e-20)
(-0.136752 0.0165008 7.28508e-22)
(0.0839327 0.060352 5.2404e-21)
(0.803964 -0.0063241 -2.99505e-23)
(0.923354 -0.0326436 -1.27701e-20)
(-0.0760234 0.0673603 -2.67065e-22)
(0.919952 -0.00547341 6.93814e-24)
(0.854645 0.0968482 -5.60881e-21)
(0.460515 -0.0480322 -5.32063e-21)
(0.748576 -0.00114935 6.06952e-24)
(0.921644 0.0138261 -4.59906e-23)
(0.877741 -0.00657425 1.39061e-24)
(0.723866 0.036413 -2.14774e-20)
(0.932115 0.0723488 -9.98289e-22)
(0.80778 0.019261 6.95938e-23)
(0.607905 -0.0161741 3.09397e-23)
(0.941389 -0.0248572 -2.88886e-22)
(0.773881 0.0070496 -4.16027e-23)
(0.892044 0.0998696 1.86435e-20)
(0.413844 -0.0364712 -9.55674e-21)
(1.05589 -0.0557123 -3.14681e-21)
(0.926928 -0.0059588 1.04431e-23)
(0.763301 0.0864214 -9.76424e-22)
(0.982791 0.0035273 -1.97216e-24)
(0.942272 0.0554071 1.05833e-20)
(0.800642 -0.0079433 2.81474e-22)
(-0.0526498 -0.118367 7.80039e-21)
(0.798006 0.00797281 2.39904e-24)
(-0.149259 -0.00797129 3.21899e-20)
(-0.0316317 0.0878534 4.15084e-22)
(0.427343 -0.0227868 1.00175e-20)
(0.655521 -0.0214528 -1.29187e-22)
(0.745789 2.97954e-05 -2.083e-23)
(0.740654 0.00325271 1.25858e-22)
(-0.0443283 0.118845 -7.13881e-21)
(0.747588 -0.00114256 -7.03953e-24)
(0.773561 -0.00388441 -1.97178e-23)
(0.907604 0.00590616 9.33024e-24)
(0.969634 -0.0311289 1.6107e-22)
(0.737714 -0.0156062 -5.6482e-23)
(0.939522 -0.0127939 -4.47458e-22)
(0.686959 0.012424 1.54319e-22)
(0.998566 -0.00436569 -1.19318e-22)
(0.880426 0.014603 -3.15596e-23)
(-0.062783 -0.0264358 -1.84669e-21)
(0.890349 -0.069974 -4.51077e-21)
(-0.0240101 0.0104505 1.55662e-21)
(-0.0597241 -0.116481 3.42842e-21)
(-0.0499513 -0.044137 7.13427e-22)
(0.164494 -0.018573 -3.96157e-21)
(-0.0224323 -0.0408102 -3.62636e-21)
(0.848597 -0.00777106 -1.57208e-22)
(-0.0348608 0.0978074 7.56794e-21)
(0.862829 0.0192442 -5.61989e-23)
(0.219229 0.0737394 2.64177e-20)
(-0.0920171 -0.0364928 1.87259e-20)
(0.788155 0.106156 -3.6195e-20)
(0.0147423 0.0288592 -1.70965e-20)
(-0.0422919 0.103805 2.5577e-21)
(0.699997 0.0141554 -6.21254e-24)
(0.92039 0.0611691 -1.12311e-21)
(-0.0367219 -0.0967254 3.36016e-21)
(0.946069 -0.00585844 -4.29125e-23)
(0.903786 0.0132677 -5.38501e-22)
(0.982557 0.0378183 1.08987e-20)
(1.01143 0.00225681 9.98001e-23)
(1.00603 -0.00405791 -1.61579e-22)
(0.931675 -0.0318758 7.67176e-23)
(-0.0606363 0.0884906 2.72746e-22)
(0.154985 0.00289974 1.66474e-20)
(0.975004 0.00691439 3.93141e-23)
(0.803929 0.0342588 1.23746e-20)
(0.96662 -0.00545536 -2.40852e-22)
(0.667647 0.0353474 -7.58146e-23)
(0.753413 -0.00208887 -6.19487e-24)
(0.771078 -0.00426466 6.09788e-24)
(-0.120128 -0.0221598 3.81532e-21)
(0.788524 0.0291276 7.75039e-23)
(0.970918 0.0725536 -2.5922e-21)
(0.693704 -0.0424592 -3.76721e-20)
(0.334563 0.0885031 -4.5127e-21)
(-0.0858198 -0.0530271 -7.91965e-22)
(0.251545 -0.000139108 -7.77102e-21)
(0.747051 0.00106254 -5.0369e-23)
(0.61964 0.0616194 1.42981e-20)
(-0.0180256 -0.0130351 1.68924e-20)
(0.945906 -0.00520066 7.26498e-23)
(0.85303 0.0282724 -2.37304e-22)
(-0.0484812 -0.0822471 -1.26212e-20)
(0.968697 0.0398544 -6.56153e-22)
(-0.0477224 -0.106653 1.13245e-20)
(0.74903 -0.00481504 -1.53116e-22)
(-0.0890975 -0.0246017 2.80533e-21)
(-0.0542037 -0.0925957 -3.54205e-20)
(0.840943 -0.019043 1.53882e-22)
(0.872909 -0.0726792 -3.46799e-22)
(0.964732 -0.00517981 1.55705e-23)
(-0.00303264 0.0391928 -8.01066e-21)
(0.846388 -0.0228207 2.4049e-22)
(0.979127 0.0343189 3.7434e-21)
(0.418957 -0.100483 1.44193e-20)
(-0.0691366 -0.0881467 -1.58685e-20)
(-0.053548 -0.0939973 -2.95818e-20)
(-0.0942335 -0.0448174 5.23005e-21)
(0.822446 -0.0070112 2.67266e-23)
(0.978818 -0.00521248 1.59918e-22)
(1.03762 0.029307 -1.68573e-21)
(0.713859 0.0129565 1.84716e-23)
(0.507968 -0.043748 -1.62868e-21)
(0.752171 -0.00229145 -1.3975e-23)
(0.3678 0.0146392 1.58657e-20)
(0.848486 -0.0890393 -2.12811e-21)
(0.744343 0.00375257 -4.40357e-23)
(0.9547 -0.0913241 -2.65215e-21)
(0.964577 -0.00562132 -1.64288e-22)
(0.93855 0.0829095 -5.67876e-21)
(-0.0525796 -0.119946 5.72835e-21)
(-0.0206931 0.0842533 -1.59487e-20)
(0.763985 -0.00338796 -3.59789e-23)
(-0.0400132 -0.0944868 -1.95927e-21)
(0.93466 0.0309921 8.1587e-23)
(0.0268797 0.0424462 3.50753e-20)
(0.96374 0.032858 -3.61882e-21)
(0.977778 0.00427527 3.92901e-24)
(-0.0453312 0.100409 2.15261e-21)
(-0.0607241 -0.11171 -1.29593e-20)
(0.13264 0.0202421 1.05001e-21)
(-0.0509853 -0.0361608 1.25245e-20)
(0.136023 0.0253561 1.83835e-20)
(0.479107 0.0847508 5.69266e-22)
(0.330506 -0.0517324 2.56924e-22)
(0.84777 -0.00655049 6.26465e-25)
(0.82373 -0.0283148 1.30021e-22)
(0.584799 -0.10918 4.18506e-21)
(-0.0663039 0.0946921 3.31831e-20)
(0.749731 -0.00126885 1.23628e-23)
(1.02918 -0.0345858 6.41627e-23)
(0.778093 -0.00453336 1.65451e-23)
(-0.0554336 -0.12497 -1.56562e-20)
(0.729164 -0.0136142 1.33312e-22)
(0.764061 0.00398738 5.13372e-23)
(0.664361 0.0118733 2.62693e-22)
(0.92415 -0.0534017 -2.3838e-21)
(0.702744 0.011165 7.76167e-23)
(0.952437 -0.0892371 -3.07994e-22)
(0.398646 0.0247915 4.2445e-20)
(0.011808 0.0728612 -1.30366e-20)
(0.866155 0.0380702 2.61109e-22)
(0.448138 0.0200263 -1.67164e-20)
(0.943569 0.00876214 7.50196e-23)
(0.45755 -0.0690105 1.52014e-20)
(0.895302 -0.0099442 9.62118e-24)
(0.331862 -0.00869072 -5.75998e-21)
(0.731542 0.0492615 -9.19219e-22)
(0.245762 -0.0856714 -4.97826e-21)
(0.749236 -0.00308655 -1.0032e-22)
(0.162739 0.0184258 1.28028e-21)
(-0.0542209 -0.108133 3.73345e-21)
(0.923982 0.0394239 3.25523e-22)
(0.671688 -0.0345195 -1.80259e-21)
(-0.0842552 0.0131558 -1.02745e-21)
(0.938216 -0.00556156 8.07505e-24)
(0.984568 -0.0146546 -1.59413e-23)
(0.789855 0.0377991 2.25323e-22)
(0.820147 -0.00618234 -2.06941e-23)
(-0.0454078 0.103078 -5.63761e-21)
(0.793366 -0.00767568 -1.32924e-22)
(0.700897 -0.0111523 -2.18712e-22)
(0.833089 0.00572052 2.07895e-23)
(-0.117473 0.0209476 5.22161e-21)
(0.933056 -0.00643731 -3.41736e-23)
(-0.00864801 0.0444093 -7.4009e-21)
(0.947025 0.00520627 2.8856e-22)
(-0.108341 -0.00108285 -4.47069e-21)
(0.972234 0.0480308 6.31027e-22)
(0.676891 0.0598584 1.51693e-21)
(0.979012 -0.00426745 -1.98956e-23)
(0.75331 -0.00335258 3.66463e-23)
(0.0170381 -0.0433776 6.72748e-21)
(-0.0325659 -0.0261892 8.17104e-22)
(0.770702 0.0377564 1.09243e-20)
(0.494204 -0.0359982 -7.0326e-22)
(0.921734 -0.0624467 -2.98409e-21)
(0.912178 0.0186675 3.07419e-23)
(0.727235 0.0144531 -2.14965e-22)
(-0.078012 -0.0602935 2.74984e-21)
(-0.055355 0.118395 1.84321e-21)
(0.763679 -0.016035 1.03681e-22)
(-0.0461565 0.102592 2.94898e-20)
(0.876493 -0.00661444 1.70512e-23)
(0.883588 0.00581864 1.50975e-23)
(0.838269 0.00605418 -2.01476e-24)
(0.933653 0.0488495 -8.67401e-22)
(0.896443 -0.00649993 -7.45617e-23)
(-0.0646947 -0.0928076 -2.73027e-21)
(-0.0555755 0.109085 1.94257e-21)
(-0.078916 -0.0705095 -1.00467e-20)
(0.573296 -0.0518259 2.39504e-22)
(0.704484 0.036727 -1.18862e-22)
(0.886429 -0.00758066 -3.15843e-22)
(0.00511041 0.0741927 -6.88337e-21)
(0.359921 0.0679496 1.14947e-21)
(-0.0822887 0.0595755 1.16365e-20)
(-0.0850536 0.026914 7.32139e-22)
(0.225273 0.004739 -3.79493e-20)
(0.798602 -0.00533127 -1.374e-23)
(0.748035 -0.0942494 -1.11839e-20)
(0.617398 0.0190499 -9.82479e-23)
(0.722516 0.0273873 -1.07498e-22)
(-0.0489098 0.116386 1.05972e-20)
(0.970464 -0.0574011 9.68555e-23)
(0.82329 -0.00974048 9.19742e-23)
(-0.0348441 -0.0360875 2.49717e-21)
(-0.0400868 -0.108199 -5.96246e-21)
(0.259019 0.0478096 -3.57135e-21)
(0.705354 0.015311 -7.22002e-23)
(-0.0530973 0.119853 1.56077e-20)
(0.156788 0.0249222 -1.8364e-22)
(0.967697 -0.00905619 5.63079e-23)
(0.739697 0.0357545 -6.4603e-21)
(-0.0668451 0.0910144 -2.07702e-20)
(0.815858 0.0500146 -1.06485e-21)
(0.676413 0.00972375 -7.17625e-23)
(0.470021 -0.0242947 2.12671e-20)
(-0.0598711 -0.113508 -7.4658e-21)
(0.874446 -0.00652004 8.19072e-23)
(0.803861 0.00614113 9.98841e-24)
(0.97277 0.0307655 6.33037e-22)
(0.767282 -0.00501528 1.14924e-22)
(-0.0287687 -0.00584114 -9.43408e-21)
(0.751692 -0.00236039 1.15162e-23)
(1.00632 0.00255774 -8.66226e-24)
(0.126087 0.0650625 8.12903e-21)
(-0.0497247 -0.11334 -1.06256e-20)
(0.952896 -0.00628521 5.34196e-23)
(-0.154168 0.00789235 8.80272e-21)
(0.945353 0.00548061 9.85224e-23)
(-0.0789644 -0.0249781 2.20314e-20)
(-0.0226651 0.02588 8.66002e-21)
(0.939526 -0.0877698 6.38961e-21)
(-0.0980067 -0.042772 -1.28286e-20)
(0.132699 0.0674124 -1.34097e-20)
(-0.043097 0.0939822 3.1425e-21)
(0.911479 0.0639162 -2.40397e-22)
(0.830094 -0.00688771 -3.70514e-23)
(1.00657 -0.00361757 3.42088e-22)
(-0.0976479 0.0119952 2.11574e-21)
(0.622006 -0.0337932 5.1839e-21)
(0.84798 -0.0142708 7.69253e-23)
(0.746518 0.00185158 -1.39687e-23)
(-0.0519266 0.0552157 -4.38941e-21)
(0.959275 0.0129639 -1.21619e-23)
(0.798861 -0.0334281 -7.95535e-21)
(-0.0514401 0.0889479 2.17524e-21)
(-0.00237131 0.0731014 4.24142e-20)
(-0.0623252 0.0627389 7.51526e-22)
(0.743534 -0.00457971 -6.88444e-23)
(0.91906 -0.00666032 -7.52126e-23)
(-0.0137934 0.0011674 -2.09369e-20)
(0.743074 -0.00229643 -2.83105e-23)
(-0.0497094 0.09619 -3.48296e-21)
(0.554837 -0.0454376 1.98007e-21)
(0.642597 0.044998 -2.63131e-23)
(0.932274 0.0045845 -3.42158e-23)
(-0.117641 -0.00402958 -3.10424e-21)
(0.0609259 0.0433733 -1.41363e-21)
(-0.138368 -0.00266642 5.51338e-21)
(-0.148547 0.00968962 -1.55398e-20)
(0.764317 -0.00371488 -4.25381e-24)
(-0.114097 0.0267459 -3.11786e-21)
(-0.0445638 -0.0141137 -5.084e-22)
(0.871858 0.00613364 -8.07371e-23)
(0.449865 -0.0321478 -1.12204e-21)
(0.890949 0.00595787 1.17028e-23)
(-0.0597884 -0.0694365 6.90539e-21)
(0.866155 -0.00661887 -4.28584e-23)
(-0.0645505 -0.0715606 3.70586e-21)
(1.05863 0.058183 1.80021e-20)
(-0.0840165 -0.0468129 1.89143e-20)
(0.808294 0.00622367 -2.65432e-23)
(-0.0613638 -0.0339164 1.00833e-20)
(0.874759 -0.0482079 6.40197e-23)
(0.743547 -0.000368282 -1.94756e-23)
(-0.0190901 -0.0879131 -1.29479e-20)
(-0.0234473 0.0342341 -3.98067e-21)
(0.900435 -0.00652356 -1.26919e-23)
(-0.0861167 0.0390135 -3.8853e-22)
(0.440127 -0.0231164 9.90975e-21)
(-0.109913 0.0106863 2.56364e-21)
(-0.0370239 0.0306609 -1.05356e-20)
(-0.0342145 -0.0982746 2.60623e-20)
(-0.061082 0.0739234 -5.21864e-21)
(-0.0975607 0.0242272 3.36537e-22)
(0.746629 -0.00135573 -6.91213e-24)
(-0.00937519 0.0826865 1.67869e-20)
(0.844058 -0.00718403 -8.05621e-23)
(0.745793 0.000874492 -6.0569e-24)
(-0.0530788 -0.118747 -6.90269e-21)
(0.151988 0.0147506 3.09627e-20)
(0.469572 -0.0213252 1.47875e-20)
(-0.0472358 -0.112023 1.91095e-20)
(-0.157047 -0.000702933 8.10206e-20)
(0.851933 0.00600209 1.27935e-23)
(-0.16154 0.00199823 -4.71437e-20)
(-0.0385177 -0.0926129 -1.30468e-20)
(-0.0468167 -0.0288318 -3.1463e-21)
(0.855189 -0.0220179 2.78927e-24)
(-0.0648156 0.0982126 4.4818e-21)
(-0.0422595 0.000830096 -1.27482e-20)
(0.338642 -0.0649053 3.10975e-20)
(0.912055 -0.0200082 3.43457e-23)
(0.829323 0.0059467 9.58918e-23)
(0.0576268 0.00433199 3.072e-20)
(-0.0567009 -0.123203 1.44953e-20)
(-0.0154939 -0.0853582 1.80427e-21)
(0.332602 0.0498368 -1.35157e-20)
(-0.0519367 0.0974047 5.61967e-21)
(0.964358 -0.0102221 7.28351e-23)
(-0.0550491 0.0876582 8.80019e-21)
(-0.047286 0.110513 -8.06701e-21)
(0.0255255 0.0628892 -2.30464e-20)
(0.809514 -0.00844028 -4.72177e-23)
(0.546228 -0.0318104 -1.23541e-20)
(0.794786 0.00538868 -2.48543e-23)
(-0.137869 -0.00716961 -1.94096e-20)
(-0.0717484 -0.0282969 1.14887e-20)
(4.05827e-05 -0.0699038 -6.15665e-22)
(0.578663 0.0151549 4.14385e-23)
(0.352758 -0.033643 5.15334e-20)
(0.819455 -0.0458851 -1.03391e-22)
(-0.0505627 -0.0674147 9.61845e-21)
(0.738451 -0.000730681 2.32594e-23)
(0.00166091 -0.0744568 -4.68493e-21)
(-0.139814 0.0127845 -2.27004e-21)
(-0.07023 -0.0131376 -1.20681e-20)
(0.596369 0.0129284 -2.99042e-23)
(0.72517 0.0101889 3.06808e-22)
(-0.124588 -0.00915316 1.07487e-20)
(-0.0880293 0.0223624 -1.33045e-21)
(0.0183555 0.0691054 -1.33014e-20)
(0.462237 -0.0404838 6.60757e-21)
(1.00449 0.00371884 -3.93139e-23)
(1.00158 -0.0046902 1.02114e-22)
(-0.0691157 0.0668911 -4.85869e-21)
(0.740123 0.00115753 -4.72089e-23)
(-0.0563601 -0.0817594 6.04325e-21)
(-0.12951 -0.014351 9.17795e-21)
(0.378224 -0.0191042 -4.127e-21)
(-0.0954927 -0.0097299 1.64047e-20)
(0.128407 -0.0279721 -6.90953e-21)
(-0.0620894 0.110399 2.058e-20)
(-0.0570106 -0.0536042 -1.07518e-20)
(-0.0214725 0.0431778 2.13943e-20)
(0.881646 0.00571673 6.2314e-23)
(0.690482 -0.00953167 -2.42723e-23)
(0.960285 0.00626323 -3.60936e-23)
(0.488068 0.0292833 -7.43209e-21)
(-0.097834 -0.0390392 3.60171e-21)
(0.0722127 0.0338931 -1.22364e-20)
(0.953835 0.00381604 -5.27155e-23)
(0.946079 -0.0899384 -6.82702e-21)
(0.883625 -0.0429635 -9.64828e-22)
(-0.0539406 0.120175 1.06814e-20)
(0.829674 -0.00640587 2.5015e-24)
(0.0285547 -0.0558188 -3.12863e-21)
(0.75897 -0.00618904 8.03005e-23)
(-0.0528582 -0.120293 6.71544e-21)
(0.982305 0.00432239 2.61616e-23)
(0.705893 -0.012534 1.99232e-23)
(-0.0476154 -0.0940542 1.90367e-20)
(-0.0285187 0.0660712 -1.38245e-20)
(0.749424 0.00127654 1.05529e-23)
(0.753153 -0.00397024 7.64426e-23)
(-0.0524748 0.0789697 -3.46017e-21)
(0.0540971 -0.00531988 -2.18452e-20)
(-0.116848 0.0154309 -3.68097e-21)
(0.721651 -0.0125277 9.37586e-23)
(-0.0848646 0.0357586 6.91386e-21)
(0.66527 -0.0401566 -1.21353e-20)
(0.742536 -0.00266654 -7.85842e-24)
(1.02602 -0.068096 1.48252e-20)
(1.00404 -0.00447974 8.49094e-24)
(1.00604 0.00316572 1.11753e-23)
(0.758454 -0.00313597 -1.23801e-23)
(0.781984 -0.0054571 -2.74803e-22)
(-0.117742 -0.0169698 -6.36078e-21)
(0.620918 0.0300642 -9.31562e-23)
(-0.0992976 -0.0251995 -1.346e-20)
(0.947839 -0.0440711 -2.69679e-21)
(0.693621 0.0100461 2.38299e-23)
(-0.0346915 -0.0836261 3.08239e-20)
(-0.0520121 -0.0849567 7.56442e-21)
(-0.0393413 0.0157939 9.44851e-21)
(-0.0537237 0.114919 6.64753e-21)
(0.559408 0.0384791 -9.65188e-22)
(0.986403 -0.00488829 -1.33575e-23)
(0.927441 -0.032811 -3.22215e-22)
(0.736966 -0.00100853 5.67885e-23)
(-0.0224416 -0.00676076 -1.80337e-20)
(-0.159463 0.00144791 4.81025e-20)
(-0.0754275 0.0457215 2.64877e-22)
(-0.0503352 0.0200825 -7.76336e-21)
(0.130566 0.051634 1.91368e-20)
(0.702996 0.0395857 1.15245e-20)
(0.794019 -0.00519358 8.14771e-24)
(-0.0335043 0.0765934 1.96638e-20)
(-0.0534767 -0.101664 9.79542e-22)
(-0.0282104 0.0814118 -1.62534e-20)
(0.562108 -0.0267937 -1.04023e-20)
(1.00756 0.00203577 1.33294e-23)
(0.860636 0.0342958 9.73343e-21)
(0.0313788 -0.0631902 1.14367e-20)
(0.34151 0.0956252 -1.47923e-20)
(0.0870189 -0.00616631 -1.62274e-20)
(-0.133383 -0.00623904 1.73775e-20)
(0.451124 -0.0268643 -4.61696e-22)
(0.780612 0.00481354 6.99673e-23)
(0.96052 0.0930723 1.32656e-21)
(0.148578 -0.00597021 6.8648e-21)
(0.746899 0.00909357 -5.66881e-23)
(0.909013 -0.00591905 -1.64804e-23)
(-0.131618 -0.00147595 6.205e-21)
(-0.0454594 0.0876962 6.58533e-21)
(0.659417 0.103393 5.80571e-20)
(0.116465 0.0109935 -6.33431e-21)
(-0.137989 -0.00585799 1.45254e-20)
(0.0151395 0.0312407 1.16179e-20)
(0.0582387 0.0290193 -2.58232e-20)
(0.886158 -0.00645136 -2.7708e-24)
(0.645085 0.0174938 2.30022e-23)
(0.0153316 -0.069313 -2.52014e-20)
(0.569793 0.0066407 -4.38333e-23)
(0.849937 0.0110907 -3.06927e-22)
(0.97491 -0.00700385 1.58057e-22)
(0.747517 0.000672158 3.35651e-23)
(0.913098 0.0179631 -1.82781e-22)
(-0.0459677 -0.110736 4.30305e-21)
(-0.0182628 0.0250276 4.22509e-21)
(0.584011 0.0333417 -4.87196e-22)
(0.0565926 -0.020607 -1.54472e-20)
(-0.0560642 0.0969379 -2.12155e-20)
(0.121968 0.0277205 -4.97409e-21)
(-0.149246 -0.001776 -8.23249e-21)
(-0.0155147 -0.0836157 -6.69692e-21)
(0.785554 -0.00854234 1.00849e-22)
(-0.160882 0.00414258 -2.30622e-20)
(0.775382 0.00486708 -4.52208e-23)
(-0.0905248 0.0299973 -6.05909e-21)
(-0.123511 0.00293162 3.03463e-21)
(0.933324 -0.00947489 -9.84699e-23)
(0.0264104 0.033881 -1.5982e-20)
(0.742143 0.00217984 -2.24143e-22)
(1.0005 0.00250737 -1.24683e-22)
(0.0161734 -0.0685247 -1.63589e-21)
(0.00852624 0.033083 4.84831e-21)
(0.353889 0.0691476 2.18983e-21)
(-0.0689772 0.0647532 1.29488e-20)
(0.863327 -0.00784163 1.64045e-22)
(0.784686 -0.0936272 -6.56101e-21)
(-0.149577 0.00462213 -5.24312e-20)
(-0.0630319 -0.10308 2.25905e-20)
(-0.0317265 -0.0312688 -7.17611e-21)
(0.775407 0.00496786 6.09152e-23)
(0.782073 -0.00510997 -2.47363e-23)
(0.828531 0.00643548 3.94316e-23)
(-0.0319457 -0.0209052 3.47843e-21)
(1.00324 0.00408938 -3.2369e-23)
(0.350597 -0.014032 -4.01008e-21)
(0.805402 0.00693023 -3.94767e-24)
(0.810795 -0.00587701 -3.63233e-24)
(-0.168453 -0.000602366 -3.83335e-21)
(-0.0384043 0.0913622 7.90442e-21)
(-0.0306293 0.0908345 -2.22898e-20)
(0.114336 -0.0633124 7.07609e-21)
(0.946054 -0.00839254 -1.41714e-23)
(-0.0417936 0.0827823 -6.13673e-21)
(0.835208 -0.0081929 -1.83806e-22)
(0.885345 0.0322449 1.29e-22)
(-0.131159 0.0101722 2.29669e-21)
(-0.16032 -0.000559794 -2.09215e-20)
(-0.163443 0.00275449 -8.38359e-21)
(0.394453 0.02996 -3.01485e-21)
(0.570129 0.0265815 -6.37081e-23)
(0.542706 0.0370033 -1.06616e-20)
(0.758566 -0.00335925 5.07823e-23)
(0.752725 0.00245694 -3.03023e-23)
(0.286205 0.0273324 -3.64875e-21)
(0.0255025 0.0606268 -9.67344e-21)
(0.978912 0.00413115 -1.66262e-23)
(0.170806 -0.0110548 2.24647e-20)
(-0.0563214 0.0893582 6.91979e-21)
(-0.153472 0.00371792 -1.65099e-20)
(-0.0719975 0.0662167 -7.48642e-21)
(-0.101608 0.0167793 6.67442e-20)
(0.971808 -0.00771967 -4.73564e-22)
(0.078814 0.0036445 -7.33965e-21)
(0.958616 -0.00512362 1.74408e-23)
(0.747258 0.00244071 1.21962e-22)
(0.474876 -0.0589297 1.83155e-20)
(-0.0529975 0.126235 -1.36735e-20)
(0.0454164 0.0586311 2.09213e-21)
(-0.124458 0.00233799 -1.50915e-20)
(-0.0951835 0.0465425 1.20078e-20)
(-0.109178 -0.033696 1.30643e-20)
(0.531092 -0.038199 1.74405e-21)
(0.955064 0.0160059 1.01005e-22)
(0.769182 -0.00719118 -6.22112e-23)
(0.0347225 0.0612047 -2.36943e-20)
(-0.164572 -0.0021901 1.11046e-20)
(0.0596049 -0.0519467 -1.80239e-20)
(-0.0456555 -0.1189 3.06995e-20)
(-0.168386 0.000441498 1.03828e-20)
(0.861587 0.00627855 -5.93469e-23)
(1.00187 0.00441767 -1.14839e-23)
(-0.164642 -0.00146344 4.74703e-21)
(0.327922 -0.00998503 -9.63506e-21)
(0.295666 -0.00416067 5.19766e-21)
(0.748866 0.010803 9.83717e-23)
(-0.0338688 -0.101791 2.56066e-20)
(0.868191 -0.00839038 -3.37538e-23)
(0.607457 0.0167204 9.38036e-23)
(-0.0155266 -0.079541 1.16847e-20)
(0.999755 0.00426252 -5.67144e-23)
(0.859783 -0.0411886 5.66186e-21)
(0.757018 -0.0370571 -5.88841e-21)
(-0.029047 0.0950069 -2.47437e-20)
(0.98214 -0.0762795 1.16314e-22)
(-0.0530955 0.118636 -3.57017e-21)
(-0.0514693 -0.112107 1.01739e-21)
(0.220012 -0.00767292 -5.31617e-21)
(0.127965 -0.0500235 2.30509e-20)
(1.07461 0.0471255 -1.46845e-20)
(0.89687 0.0241798 3.15539e-23)
(0.954284 0.0167274 1.26172e-23)
(0.842756 -0.00834874 1.3193e-22)
(0.00519953 -0.0749322 1.81807e-20)
(-0.0670561 0.00175557 -8.41418e-20)
(-0.120567 -0.0260062 -1.5831e-20)
(0.259179 0.00599573 6.31415e-21)
(0.872298 -0.00761529 -8.76997e-23)
(1.05459 0.0645299 1.54611e-20)
(1.05061 -0.0624834 -2.55513e-21)
(0.929062 -0.0449761 7.63552e-23)
(1.04384 -0.0708288 -6.97056e-21)
(0.365725 0.0275433 1.0042e-21)
(0.927061 -0.0129888 -8.60055e-24)
(0.818792 -0.00874022 2.82021e-22)
(0.919332 0.0106529 3.5102e-22)
(0.899466 -0.0100814 9.96935e-23)
(0.744649 -0.000244287 4.40698e-23)
(0.0231061 -0.0435527 -2.80764e-21)
(0.89151 -0.0119491 -3.95798e-22)
(-0.086867 0.0527751 -4.2456e-21)
(0.518827 0.0832519 -1.60102e-20)
(0.717064 -0.0105591 -3.95528e-22)
(0.0576706 0.0535622 -1.23176e-20)
(0.738567 0.000812893 -1.20135e-23)
(0.779992 0.00604517 -2.45383e-22)
(-0.0961416 -0.000614238 1.78606e-21)
(-0.136065 0.00594502 -2.16942e-21)
(0.0477879 -0.0419577 -9.5893e-21)
(0.769766 -0.00785083 7.49433e-23)
(0.711345 0.0118029 1.2577e-22)
(-0.0503708 -0.0764194 -5.04418e-23)
(-0.0477386 0.0969637 5.34883e-22)
(0.97442 0.00425419 3.39196e-23)
(-0.0484786 0.114073 -2.22636e-20)
(0.957761 0.0136702 -2.40313e-23)
(0.998371 -0.0057989 4.14268e-23)
(0.825239 -0.0459106 2.50985e-21)
(0.911484 0.0195727 3.43547e-24)
(0.820264 0.00615037 1.9345e-22)
(0.915981 -0.0780678 6.6583e-21)
(0.0261669 -0.0393669 -1.67421e-21)
(0.00832497 -0.0568255 -4.57053e-20)
(0.218221 -0.0110696 8.3763e-21)
(-0.0660851 -0.0572053 8.37098e-21)
(-0.0469322 0.0201022 1.40133e-20)
(0.996176 -0.00669415 7.34127e-23)
(0.752452 -0.00221626 -5.95942e-26)
(0.925038 -0.047247 5.64778e-22)
(0.338366 0.023937 8.48909e-21)
(-0.00704392 0.077179 1.10752e-20)
(0.675029 -0.00596613 2.18945e-23)
(0.977355 0.00680123 -1.43916e-23)
(0.967326 -0.00791508 -5.34542e-24)
(-0.0666195 -0.0422264 -1.16544e-20)
(0.963934 -0.0076111 4.31419e-22)
(1.08167 -0.0417812 -6.6186e-21)
(0.436018 0.0245528 1.19382e-21)
(0.66547 -0.103537 -3.90866e-21)
(0.480811 -0.0293 -9.0346e-22)
(-0.0593238 -0.090372 -3.95142e-21)
(0.675664 -0.00726089 6.62791e-22)
(0.998801 -0.00476451 -1.93484e-22)
(0.862875 -0.00727959 2.61504e-22)
(0.612079 -0.0149584 -4.8241e-23)
(0.756989 0.00274137 2.13417e-23)
(0.15388 -0.0134411 8.48162e-21)
(0.844153 -0.0107031 -2.80736e-22)
(-0.0140018 0.00628255 -3.52905e-21)
(0.6106 0.0381902 -9.18131e-21)
(-0.0575163 0.0288189 -1.08532e-21)
(0.640267 0.0853466 -4.1128e-22)
(-0.0635836 0.0506208 -1.08556e-21)
(-0.0329324 0.0158774 -2.17243e-20)
(0.857093 -0.0362564 -1.92001e-21)
(0.746098 0.0481241 1.21638e-21)
(-0.127607 -0.00662462 7.46136e-20)
(0.392105 0.0919716 -9.95659e-21)
(0.221474 -0.070638 -1.81142e-20)
(0.0350457 0.0376921 -4.95748e-21)
(-0.00178035 0.0702801 3.06243e-20)
(0.603056 0.106259 2.37094e-20)
(0.130083 0.0226736 -2.36962e-20)
(0.268437 0.0796554 1.79706e-20)
(0.805664 0.00928275 1.63963e-22)
(0.855004 -0.00947002 -5.27758e-23)
(-0.0109167 -0.0178906 2.17539e-20)
(-0.0552532 -0.102444 -2.93955e-21)
(-0.0749461 -0.0149666 3.98408e-20)
(0.716882 0.0413612 -7.78611e-24)
(0.219972 0.0806331 -3.05413e-20)
(0.491784 0.0114898 1.86478e-22)
(0.972411 -0.0274242 -5.78764e-23)
(0.620146 0.00647468 -8.38318e-23)
(0.980829 -0.0177197 3.36895e-24)
(0.973163 -0.0718185 2.58293e-21)
(0.923278 0.0129566 -1.61195e-24)
(0.89164 -0.0119201 -5.57624e-23)
(-0.137744 0.01424 2.51318e-20)
(0.80258 -0.00817831 1.09072e-23)
(0.748459 0.00130023 7.70794e-23)
(0.415003 -0.01832 3.0306e-20)
(0.493978 0.10514 6.69663e-21)
(0.927556 -0.0810974 2.28897e-21)
(0.995841 -0.00741179 9.99637e-23)
(0.498527 0.0275373 -4.76503e-22)
(0.0454119 -0.0536573 -5.43511e-21)
(0.610433 0.026187 -4.54704e-22)
(0.765279 -0.00604765 -3.21444e-23)
(0.956418 0.0148481 -1.30638e-23)
(0.748251 -0.108693 -1.39721e-20)
(0.52567 0.0724378 1.93246e-21)
(0.843985 -0.101433 -4.3358e-21)
(0.960726 0.0122633 5.9734e-23)
(0.648278 0.0821234 -3.62405e-23)
(0.186247 0.0122568 -1.86061e-21)
(0.731586 0.00237037 1.28972e-23)
(0.742641 0.000578866 -4.88141e-23)
(0.0925393 0.00623332 -8.06937e-21)
(-0.104689 -0.0363966 9.17324e-21)
(-0.0354872 -0.100655 -3.26941e-20)
(0.333021 -0.0217434 9.46542e-21)
(0.0502999 -0.0534108 -9.82224e-23)
(0.767307 0.0831708 9.40065e-22)
(-0.0118414 0.0704413 2.08497e-20)
(0.488884 0.0443918 -4.21908e-22)
(0.679407 0.0312622 -8.4019e-23)
(0.901325 0.0273787 2.61537e-22)
(0.713953 0.0254913 -1.07384e-22)
(0.27554 0.0937465 1.22104e-20)
(0.777974 -0.0264698 -3.43e-23)
(0.992947 -0.0060832 -2.87625e-22)
(0.981894 -0.016734 -7.19927e-23)
(0.12571 0.0625573 1.69241e-20)
(-0.170865 0.000902773 3.09084e-20)
(0.555832 -0.0731266 -1.09068e-21)
(0.974063 -0.0697137 -5.99448e-22)
(0.46259 0.0129235 -4.90971e-22)
(0.633099 -0.0527454 3.85452e-22)
(0.42454 0.00991679 -2.68346e-22)
(0.467598 0.00806085 6.2612e-22)
(0.200994 0.0128195 1.13241e-20)
(0.495084 0.00706045 -3.17014e-22)
(0.137547 0.0137045 1.59753e-20)
(0.675826 -0.0524312 1.24608e-21)
(0.774385 0.0268227 -3.06183e-22)
(0.587718 -0.0573817 -4.50955e-21)
(0.530093 0.00291256 1.0618e-22)
(0.772297 0.0131544 1.55075e-22)
(0.553706 0.00502752 -2.89736e-22)
(0.773988 0.0258887 7.97373e-23)
(0.510136 0.0788285 -4.496e-21)
(0.864988 0.0178055 -9.56955e-23)
(0.576607 0.00196254 1.12093e-22)
(0.397702 0.0567071 -6.66813e-21)
(0.653738 0.0794917 1.35204e-21)
(0.603852 0.00482372 -2.55212e-22)
(0.788986 -0.0162529 -1.06807e-22)
(0.434602 0.00407063 7.0714e-22)
(0.389958 -0.000375673 3.22324e-22)
(0.346241 -0.00294062 5.33768e-22)
(0.282518 0.00592705 -5.45469e-21)
(0.22598 0.00934742 -6.59717e-21)
(0.475698 0.00185924 -5.28985e-22)
(0.155899 0.00117521 -1.35014e-20)
(0.502037 0.00157139 -1.79043e-22)
(0.644501 -0.0574991 8.05488e-22)
(0.539572 -0.000225963 -3.65014e-23)
(0.706766 -0.0517504 -1.62501e-22)
(0.557901 0.00174191 -1.21051e-22)
(0.665132 -0.0197058 2.7248e-23)
(0.719467 -0.0242805 2.3142e-22)
(0.585839 0.000780171 -6.39632e-22)
(0.618982 0.00368829 4.19145e-22)
(0.606991 0.000562187 -1.08814e-22)
(0.947416 -0.0199235 -2.26042e-22)
(0.813442 0.0173876 3.6574e-23)
(-0.162254 -0.000601179 -2.69163e-20)
(0.940214 -0.00701541 -4.70868e-23)
(0.815622 -0.0167694 3.87016e-22)
(0.808583 0.018939 -1.12046e-22)
(0.622082 0.000565978 -3.37982e-22)
(0.812861 -0.00690964 2.73713e-22)
(0.565668 -0.0397112 2.15845e-21)
(0.633002 0.00204984 -1.59496e-22)
(0.402475 0.0146804 1.38625e-21)
(0.354415 0.0132014 4.11868e-22)
(0.519145 0.0113401 6.79069e-22)
(0.641179 -0.00124572 -6.14111e-23)
(0.811136 0.0167692 -1.0349e-22)
(0.735991 -0.0042344 2.86402e-23)
(0.838533 -0.0684145 -1.4557e-21)
(0.857677 -0.0538812 -9.16456e-22)
(0.0926459 -0.020848 2.94295e-20)
(0.932384 -0.0102463 -1.06824e-22)
(0.442831 -0.0184931 -3.35911e-22)
(0.65683 0.000142905 6.71084e-23)
(0.616703 -0.0140457 5.35091e-23)
(0.752542 -0.00597491 -6.45463e-23)
(0.817358 0.0163314 1.77197e-22)
(0.280605 0.0314606 -1.00485e-22)
(0.659951 0.0183653 -1.21108e-22)
(0.0142546 0.00364403 -4.60969e-21)
(0.649255 0.00525857 6.73324e-24)
(0.887541 -0.00735705 -5.80376e-23)
(0.828625 0.0104147 -1.37798e-22)
(0.987495 -0.00425812 -9.66903e-23)
(0.66808 0.00126717 1.48661e-22)
(0.702249 0.0346308 2.29024e-22)
(-0.0537134 0.0838832 -1.53865e-20)
(0.963941 -0.00734784 8.14733e-23)
(0.66524 0.00530093 2.43908e-23)
(0.120532 -0.00549093 8.43149e-21)
(0.670697 0.000658155 -9.77194e-23)
(0.812132 0.0105715 -1.83287e-23)
(0.780692 0.00848719 6.42187e-23)
(0.401504 -0.0291831 -3.99168e-20)
(0.786961 0.0114109 1.65021e-22)
(1.00369 -0.00422291 -5.56939e-23)
(0.52214 0.0753426 2.34657e-21)
(0.811559 0.0177196 6.24742e-24)
(0.0169279 0.0570974 4.79157e-21)
(0.662085 -0.0643231 -3.78918e-21)
(0.700641 -0.0558777 -3.92082e-21)
(0.255542 0.0104646 -3.51231e-21)
(0.30814 0.00334344 -6.34026e-21)
(0.179862 -0.0186022 3.33896e-20)
(0.761734 0.0136115 -3.13158e-22)
(0.48761 -0.0021595 1.21726e-21)
(0.50044 0.0258989 -3.09362e-22)
(0.416735 0.0306187 2.0659e-21)
(0.51362 -0.000849469 6.94061e-22)
(0.843917 0.0451021 -4.23189e-22)
(0.567575 0.000362483 2.05376e-22)
(0.356364 0.0924213 -3.44092e-20)
(0.593339 0.00386293 4.67303e-22)
(0.685207 0.000456904 4.50204e-23)
(0.236287 -0.00234121 -4.9458e-21)
(0.292634 -0.00730863 3.05277e-21)
(0.320213 0.0450719 8.25132e-21)
(-0.103686 -0.0148802 -1.6911e-20)
(0.734033 -0.0497236 2.09672e-21)
(0.803227 0.0104431 9.55099e-23)
(0.234003 0.0794934 1.69995e-20)
(0.70037 0.0555738 -6.55908e-22)
(0.7186 0.0227257 3.68344e-23)
(0.614326 -0.0017973 9.59076e-23)
(0.562749 -0.00292491 8.99933e-23)
(-0.0457697 0.0469078 3.30737e-21)
(0.89086 0.00626708 2.92159e-23)
(0.66349 -0.0458592 -1.48647e-21)
(0.681138 0.00350295 3.14557e-23)
(0.915189 0.0157355 -4.14496e-23)
(0.657023 0.0104615 1.19798e-22)
(0.684282 0.00549864 1.3965e-24)
(0.682565 0.00193299 1.57654e-22)
(0.629583 -0.00241907 4.78272e-22)
(0.827416 -0.0178013 -6.03939e-23)
(0.723737 -0.0230802 -1.42604e-22)
(0.749581 -0.0137672 -1.1047e-22)
(0.662573 0.00140661 -4.17307e-23)
(0.819585 -0.0160184 5.88693e-23)
(0.0120157 0.0485306 1.68906e-20)
(0.554355 0.0159565 7.89067e-23)
(0.800847 -0.0100916 1.74495e-23)
(0.624581 0.0133169 1.80681e-22)
(0.643485 0.0100464 1.23609e-22)
(0.848026 -0.016482 2.21526e-22)
(0.181294 -0.0288795 -1.45219e-20)
(0.680797 0.0432939 2.38676e-22)
(0.593697 0.052439 -4.99171e-22)
(0.74562 0.0343069 9.79248e-23)
(0.760435 0.0142514 3.03076e-23)
(0.816475 0.0109854 -2.09537e-22)
(0.80914 0.0164331 4.44872e-23)
(0.774362 -0.0149184 9.53535e-25)
(0.391551 -0.0967916 -5.38093e-21)
(0.742827 -0.0675826 8.10507e-21)
(0.293968 -0.0235425 -1.87419e-21)
(0.820643 -0.0324154 3.98988e-22)
(0.690191 0.00307387 -2.37791e-22)
(0.521625 -0.0123595 2.72926e-22)
(-0.0429203 0.105612 8.78216e-21)
(0.653127 0.0439318 -4.85534e-22)
(0.973929 0.0291468 -2.99881e-22)
(0.970716 0.0454947 3.64315e-22)
(0.991257 0.010866 -1.27918e-23)
(0.986662 0.0146468 -6.90388e-23)
(0.970735 -0.0547126 -2.30873e-21)
(0.979746 -0.018655 1.51549e-22)
(0.983661 0.0176287 -1.52517e-24)
(0.998304 0.00760653 8.63714e-23)
(0.974025 -0.0259199 1.16196e-22)
(0.99469 0.00937222 -8.95667e-23)
(0.983935 -0.0138896 -1.4074e-22)
(0.992654 0.0101474 7.21074e-23)
(0.993131 0.00735574 3.19146e-22)
(1.00052 0.00667782 9.41466e-25)
(0.980486 0.0189437 -4.53265e-23)
(0.971306 -0.029336 1.19542e-22)
(0.983443 -0.015787 -1.09402e-22)
(0.985265 0.01621 -9.53529e-23)
(0.976374 -0.0663692 1.64875e-21)
(0.670998 0.0085533 -6.97938e-23)
(0.638436 -0.00787211 2.95133e-22)
(0.12115 0.00349427 -2.52469e-20)
(0.198292 -0.0141478 -1.0104e-20)
(0.995113 -0.00609825 3.26972e-22)
(0.938366 0.00463566 8.19817e-23)
(0.730844 0.0114445 -4.36102e-22)
(0.689438 -0.0731024 1.08719e-21)
(0.362074 -0.0011494 1.77049e-22)
(0.578791 0.0541737 -3.29236e-22)
(0.405257 -0.00190365 -3.96972e-22)
(0.707971 0.0239651 1.04092e-22)
(0.976307 0.0252221 -5.2666e-22)
(0.973683 0.0277369 -5.56469e-23)