/*--------------------------------*- C++ -*----------------------------------*\
  =========                 |
  \\      /  F ield         | OpenFOAM: The Open Source CFD Toolbox
   \\    /   O peration     | Website:  https://openfoam.org
    \\  /    A nd           | Version:  10
     \\/     M anipulation  |
\*---------------------------------------------------------------------------*/
FoamFile
{
    format      ascii;
    class       volScalarField;
    location    "950";
    object      epsilon;
}
// * * * * * * * * * * * * * * * * * * * * * * * * * * * * * * * * * * * * * //

dimensions      [0 2 -3 0 0 0 0];

internalField   nonuniform List<scalar> 
23845
(
0.0424849
0.0594536
0.0573711
0.0138241
0.0409437
0.00243199
0.0765458
0.0107473
0.00176651
0.0258578
0.0239492
0.0020609
0.00338923
0.00212029
0.121949
0.0123321
0.0064164
0.0088054
0.00445841
0.00314371
0.0337906
0.0210356
0.0278652
0.00177287
0.0261989
0.0011873
0.0518656
0.00287947
0.010346
0.00310496
0.0153772
0.0243898
0.135184
0.00938279
0.00207518
0.0025658
0.0205764
0.00208637
0.00218683
0.00196381
0.0040678
0.00612371
0.00283881
0.00593336
0.000846243
0.00406872
0.0282307
0.0142595
0.0225553
0.0108567
0.0143995
0.0467069
0.0274855
0.00253253
0.0236634
0.00559368
0.0546974
0.0110648
0.0429565
0.0353448
0.0105005
0.00635958
0.0106838
0.0126201
0.00156287
0.00346964
0.0548131
0.000702837
0.000734629
0.00560965
0.0104895
0.0419124
0.00155782
0.105756
0.00131883
0.117971
0.00206685
0.00221636
0.0113207
0.00959183
0.0394771
0.09614
0.0597191
0.0111195
0.0643216
0.00208979
0.0804951
0.028852
0.0015215
0.00797182
0.0140674
0.00528252
0.0109837
0.00258048
0.0113769
0.0123914
0.00567705
0.0160846
0.00128533
0.0323802
0.00667929
0.0595003
0.0507425
0.0136023
0.0128313
0.0114737
0.00244645
0.00113943
0.047046
0.00579553
0.0213771
0.00211763
0.0891978
0.0215113
0.00268536
0.0239761
0.00143901
0.0152665
0.0104898
0.0128386
0.00216207
0.0174502
0.00568469
0.0214653
0.0632756
0.00131401
0.0104346
0.0107353
0.0400566
0.031079
0.056636
0.0386476
0.0277093
0.00225612
0.00853709
0.0485232
0.0128817
0.00204038
0.0457308
0.00222875
0.0117847
0.00573173
0.00221375
0.00639564
0.00891719
0.00542105
0.0188498
0.0853989
0.0189508
0.00934396
0.127385
0.00232225
0.0693913
0.00278005
0.0828545
0.0167864
0.0470474
0.00228073
0.0764286
0.0113429
0.00722276
0.118714
0.0117315
0.00162391
0.0021167
0.0120146
0.00229502
0.0159367
0.0030144
0.00534995
0.0022908
0.0149879
0.00173029
0.0180341
0.00162987
0.011121
0.00609648
0.0221838
0.00109322
0.00224934
0.0325302
0.0285334
0.103286
0.0188673
0.0110005
0.00446476
0.00607783
0.011011
0.0104824
0.00588474
0.0117619
0.00220485
0.0021645
0.00238722
0.00790799
0.00210605
0.012252
0.0107008
0.0213092
0.0228501
0.0137041
0.00231659
0.0167908
0.0342976
0.0109334
0.0115436
0.0541537
0.00232211
0.0509656
0.00989422
0.010355
0.0145087
0.00761457
0.00305597
0.0185398
0.0219923
0.0290671
0.00669311
0.0175919
0.0528158
0.00181832
0.113292
0.0123867
0.0138045
0.00553378
0.126371
0.0135599
0.00223071
0.00242259
0.00420177
0.00242551
0.0200515
0.00215023
0.000827237
0.0419124
0.0102438
0.00149371
0.0139729
0.0017575
0.0166139
0.0263072
0.0172405
0.0110895
0.0401012
0.0164055
0.0117671
0.0024024
0.000713851
0.0112768
0.115695
0.00432122
0.00222104
0.0141961
0.00260858
0.10146
0.0136605
0.0153995
0.0124728
0.00274195
0.00191649
0.0329417
0.00230231
0.010413
0.0207324
0.0180995
0.00170222
0.0111211
0.0258235
0.0198947
0.0131939
0.00221268
0.0137116
0.0156363
0.00227035
0.018754
0.00213987
0.0122618
0.00232213
0.0201725
0.0264298
0.0121679
0.00246088
0.0130796
0.0106699
0.00213538
0.0133899
0.0186313
0.00225046
0.0112986
0.0951383
0.0111119
0.0179945
0.012001
0.0122807
0.0111959
0.00211444
0.016608
0.00242581
0.00211927
0.0111318
0.0815933
0.117474
0.0102345
0.0131277
0.00238683
0.0138815
0.0137769
0.0151874
0.00630751
0.0113816
0.0161251
0.0630857
0.00456415
0.00231465
0.0326131
0.0113397
0.0149421
0.0295803
0.0134764
0.00203861
0.0143964
0.0152146
0.0266485
0.0031343
0.109027
0.00231348
0.0117438
0.0292297
0.0155236
0.00934494
0.068804
0.0124703
0.0138332
0.00227875
0.0159712
0.0148701
0.0200951
0.00840766
0.00516691
0.0112627
0.0169595
0.0221641
0.0214451
0.000899446
0.000880426
0.0236818
0.00225395
0.0123834
0.0115277
0.111187
0.0192394
0.0551853
0.0107727
0.0131231
0.0280038
0.00214277
0.00487034
0.0016587
0.0982735
0.0109517
0.0281554
0.00145432
0.0181044
0.00921098
0.0104741
0.00231265
0.0205559
0.00271163
0.0107807
0.00115216
0.00580637
0.0141586
0.0252426
0.00205622
0.00236463
0.0136121
0.0304337
0.0164725
0.0053265
0.0142748
0.105631
0.00236051
0.0271017
0.000827966
0.000858527
0.00215236
0.00244864
0.0111657
0.0131265
0.0110975
0.061063
0.00510318
0.0166461
0.0151199
0.0168949
0.0118291
0.0176349
0.00107354
0.00598886
0.00232458
0.0247385
0.0175709
0.0117451
0.0198709
0.0463362
0.108554
0.00227812
0.0198336
0.0114074
0.0122826
0.125454
0.000769388
0.0853484
0.0222231
0.0505788
0.0361925
0.0212831
0.0167021
0.00228976
0.021905
0.0945967
0.00390721
0.00189284
0.0114028
0.0108723
0.0529537
0.0828857
0.0171038
0.0222169
0.0269895
0.00219882
0.00859077
0.0231077
0.0080209
0.00376328
0.00138163
0.00204705
0.00431418
0.0103925
0.0208811
0.115693
0.0652509
0.0122463
0.0381138
0.0172773
0.0164894
0.00324477
0.0196723
0.00229957
0.0151994
0.0111994
0.00224263
0.0538017
0.00229021
0.000864208
0.0207718
0.0359023
0.0365985
0.0116532
0.00250704
0.0537136
0.012574
0.0127391
0.0330577
0.0024405
0.00229124
0.00244857
0.019185
0.000946628
0.11163
0.00299345
0.00233995
0.016023
0.011059
0.0145576
0.0389451
0.00191297
0.0166217
0.00280967
0.00754291
0.0233494
0.0196457
0.0147512
0.0199004
0.0132306
0.0930367
0.00220331
0.00211262
0.0609291
0.0198571
0.00118173
0.0789812
0.0123622
0.020878
0.0110268
0.025274
0.00146537
0.0330079
0.00137503
0.00229075
0.0742076
0.0126991
0.0258735
0.0235147
0.0113752
0.0113713
0.0186153
0.00309297
0.00284588
0.0221403
0.0145167
0.0347873
0.0197717
0.0151578
0.00229018
0.000983438
0.0184344
0.119943
0.0905995
0.00493303
0.0262839
0.00260389
0.00922646
0.0186832
0.00108753
0.0810264
0.105795
0.0131955
0.030563
0.0115455
0.0104085
0.111529
0.0319639
0.0266817
0.00575867
0.00319885
0.00265568
0.0174158
0.0256527
0.0116823
0.0611878
0.00244909
0.024237
0.0251796
0.00762024
0.0240325
0.0201592
0.0029568
0.0029476
0.00280197
0.00271882
0.00210526
0.0208005
0.00313214
0.010932
0.0663838
0.00493534
0.0313507
0.00228288
0.00268938
0.0113273
0.011624
0.0408971
0.00331385
0.00486708
0.0183547
0.0128239
0.00143414
0.0103765
0.00271498
0.00103702
0.0819572
0.00460921
0.00241825
0.0146785
0.0313994
0.0176259
0.0828027
0.0119731
0.0275431
0.00117186
0.00208756
0.00815337
0.0730007
0.0193325
0.00452713
0.00158716
0.00168001
0.0123762
0.00162038
0.0280756
0.120695
0.0509919
0.0166013
0.0112956
0.00486141
0.000976324
0.00257991
0.00841559
0.00208531
0.0432379
0.00294864
0.0260832
0.106889
0.0176435
0.0325396
0.0126753
0.0268443
0.0883421
0.015761
0.0235266
0.0501863
0.0556031
0.0312243
0.0240189
0.0511999
0.0266571
0.0481066
0.0032369
0.00279745
0.0270293
0.0105315
0.0259017
0.0150847
0.0509086
0.0114372
0.00369134
0.00634737
0.00245436
0.0105924
0.00325196
0.00355839
0.0227733
0.0027359
0.00207516
0.100274
0.0513619
0.0148538
0.00121395
0.0160832
0.0399788
0.0122702
0.00290675
0.0029002
0.038557
0.0316327
0.0371942
0.0025076
0.0308693
0.0531399
0.00262598
0.0021779
0.0250468
0.0119035
0.0112885
0.134562
0.03576
0.0247891
0.0144352
0.0220628
0.0124973
0.00615165
0.00993729
0.0517143
0.00891918
0.00123113
0.00235454
0.0375543
0.016555
0.0299607
0.00944371
0.0126447
0.0212985
0.0136706
0.0118044
0.0227204
0.0107692
0.0248478
0.0197367
0.00911544
0.0246747
0.00917578
0.00504634
0.00843197
0.00880496
0.0350105
0.00523006
0.00737836
0.029341
0.0293902
0.00657337
0.00562541
0.0128878
0.0146567
0.0166303
0.0194769
0.0216348
0.011196
0.0235781
0.0101987
0.023077
0.00872941
0.0180712
0.00807954
0.00864238
0.00912381
0.0070142
0.00599328
0.00626558
0.00360991
0.00577982
0.0176864
0.0017731
0.00534479
0.00620549
0.00572109
0.00249111
0.0180145
0.00541208
0.015436
0.0174175
0.0104618
0.00509172
0.005629
0.00276676
0.0165809
0.012465
0.0263013
0.00217253
0.0147229
0.0046007
0.00804929
0.00293241
0.00506663
0.0230887
0.00839535
0.02589
0.00523254
0.00242049
0.00359374
0.0010007
0.00433642
0.0130723
0.0107372
0.00165995
0.00476651
0.0247781
0.00415457
0.00381306
0.00329782
0.080185
0.00487669
0.000812676
0.033332
0.00597709
0.0185066
0.0242391
0.0209822
0.0206182
0.0182064
0.0238849
0.00520965
0.0107829
0.0151451
0.0193587
0.00972401
0.0116692
0.00768605
0.0578795
0.00688454
0.00374279
0.0207705
0.0189841
0.0266985
0.0172834
0.0166204
0.00344987
0.0441986
0.0198234
0.00872561
0.00604772
0.00796704
0.0154632
0.00215671
0.0175634
0.0040249
0.00382436
0.00599086
0.004239
0.00386664
0.00560936
0.00542963
0.00878421
0.00524182
0.00448711
0.00508667
0.0371903
0.0104296
0.00368596
0.00758026
0.00648644
0.00490325
0.0262416
0.016232
0.0220475
0.0118418
0.00541748
0.00352762
0.00546182
0.00496988
0.0528268
0.0217868
0.0208489
0.0095909
0.00372796
0.0108005
0.0112161
0.0171851
0.00401486
0.00587727
0.00176889
0.00220986
0.00719025
0.0025606
0.00258335
0.00128356
0.00350951
0.00152847
0.0020685
0.00165596
0.00150198
0.00118399
0.00283865
0.00385643
0.00225116
0.00238376
0.00865431
0.00518303
0.00599753
0.037652
0.0225674
0.00111837
0.00162744
0.00469801
0.0257843
0.0159578
0.0231333
0.0140838
0.00952106
0.00366935
0.00388034
0.00519967
0.00802066
0.00841578
0.00336201
0.00560868
0.00324672
0.00656391
0.00203247
0.100929
0.00214293
0.0185102
0.00623586
0.0275747
0.00344754
0.00464984
0.00649393
0.00457077
0.013277
0.0104411
0.00490545
0.0151734
0.0028635
0.00324246
0.00189021
0.00185203
0.00152198
0.00141858
0.00479933
0.00490282
0.00368594
0.0185135
0.00372868
0.0178803
0.0193221
0.0184869
0.00514548
0.0141501
0.00473376
0.0017321
0.00678837
0.00136734
0.0111054
0.00336936
0.00147106
0.0163711
0.00312697
0.00200045
0.014974
0.00333754
0.00918085
0.0176808
0.0113072
0.0053715
0.00976048
0.00357023
0.00783263
0.00359663
0.0186294
0.0314751
0.00220524
0.00974592
0.0135646
0.0146107
0.0305653
0.0168904
0.00438392
0.00864388
0.00736504
0.00632057
0.135255
0.017424
0.00574009
0.00500319
0.0029197
0.022483
0.00510844
0.126978
0.00476111
0.00156416
0.00432648
0.0027171
0.00557978
0.00449042
0.00455313
0.0379862
0.00375559
0.0256426
0.00831828
0.0254565
0.00455982
0.0116143
0.0112705
0.014033
0.014665
0.00781209
0.0160364
0.00866494
0.0162201
0.0177995
0.0208873
0.0078673
0.0196779
0.0187979
0.0107685
0.0296743
0.0237229
0.0166954
0.0235945
0.0035906
0.00696432
0.00840452
0.00608937
0.0027974
0.00552691
0.0140563
0.00604394
0.00344083
0.0164378
0.0135764
0.0172853
0.00675758
0.0325435
0.00331716
0.00506462
0.00543485
0.00491974
0.00938597
0.00201156
0.0166979
0.0312549
0.054208
0.00306721
0.00455591
0.0201556
0.0232813
0.00322532
0.0180156
0.0122842
0.0113391
0.0157551
0.0172222
0.00607114
0.0185789
0.023761
0.0210749
0.0278006
0.0281828
0.0300154
0.00312935
0.00836994
0.00825166
0.00451823
0.0128809
0.0156336
0.0048085
0.0242146
0.00320781
0.100183
0.00330474
0.00326723
0.010804
0.00312248
0.000785921
0.00218993
0.00157354
0.00484356
0.00390057
0.0043276
0.0052667
0.0259456
0.0107243
0.00355242
0.0113335
0.00785834
0.0248652
0.0220315
0.0505837
0.0197691
0.00357748
0.00604084
0.00508452
0.00313632
0.00111551
0.00273843
0.032303
0.0260178
0.00872303
0.0129887
0.0102125
0.0146129
0.0166745
0.0217825
0.00435001
0.0300336
0.0217754
0.0262558
0.0200322
0.0169997
0.017385
0.00910339
0.0152793
0.00531777
0.0135715
0.0105263
0.0058966
0.00930147
0.00821114
0.00748827
0.00475431
0.00465731
0.0122116
0.0223204
0.0249128
0.00341473
0.0183513
0.00342675
0.00227677
0.00704958
0.00205321
0.0123134
0.00672238
0.00585504
0.00573044
0.00556268
0.00510983
0.0293542
0.00247304
0.00317263
0.0250639
0.00650222
0.00116912
0.0118537
0.027365
0.0119782
0.0113459
0.0507823
0.00473003
0.0154787
0.0182046
0.0202296
0.00976339
0.00334292
0.0172758
0.0146567
0.0152573
0.013199
0.011396
0.0103782
0.0303816
0.00900034
0.0210975
0.0038973
0.00711589
0.0343617
0.00616445
0.00854471
0.0452213
0.00638864
0.00105551
0.00240529
0.00562669
0.00295299
0.00424037
0.00351577
0.00330071
0.0272828
0.00518275
0.0046517
0.029711
0.0030105
0.00326204
0.00329666
0.0459813
0.00487092
0.00418286
0.0272386
0.00221898
0.0013216
0.00368926
0.00424426
0.00401219
0.0182576
0.00232164
0.00410341
0.0129753
0.0226368
0.0262878
0.0186745
0.0145695
0.00353051
0.00775634
0.0053862
0.00618344
0.00356508
0.027274
0.00832388
0.00309773
0.00309219
0.00960049
0.00845278
0.0260371
0.0118895
0.00358728
0.00471263
0.00322583
0.0245486
0.00763231
0.0016515
0.0229338
0.00380608
0.0120474
0.00339224
0.00234323
0.00292977
0.0106516
0.00482424
0.00385539
0.0209886
0.00340308
0.0259292
0.00799526
0.00261076
0.0167809
0.00447624
0.0138986
0.0146998
0.00979173
0.0187979
0.0108445
0.00328392
0.0122635
0.0115785
0.00269029
0.00645473
0.00423353
0.0036311
0.0086367
0.00122658
0.00170134
0.0108083
0.0014693
0.00298392
0.0138086
0.00137685
0.00247908
0.0178316
0.00230107
0.00183859
0.0155547
0.034724
0.0300378
0.00215468
0.00327174
0.021228
0.002279
0.00245016
0.0367373
0.0207752
0.0367305
0.00799665
0.0322287
0.00450675
0.00677823
0.0133126
0.0181313
0.00351699
0.0158725
0.0426942
0.0343159
0.00339063
0.0045024
0.00307072
0.0021693
0.00288706
0.00539771
0.00401248
0.130666
0.00890543
0.0048547
0.0244208
0.00761135
0.0205762
0.00317485
0.0274648
0.00493501
0.00767214
0.0379061
0.00418202
0.0101852
0.00279537
0.00354695
0.0532301
0.00279479
0.0469039
0.015979
0.0240488
0.0161981
0.0119632
0.0318965
0.00396607
0.00339833
0.0261067
0.00414156
0.00432296
0.00423232
0.038024
0.00276868
0.00306428
0.00393484
0.0444085
0.00374354
0.0072325
0.00661406
0.00301634
0.0166842
0.0100014
0.0124357
0.0431971
0.00202553
0.0161041
0.0038177
0.0121204
0.00271708
0.0478182
0.00830318
0.00757399
0.00343033
0.0110628
0.0155663
0.00682408
0.0199885
0.0237553
0.00296875
0.0069823
0.00272737
0.0217322
0.0200217
0.00234257
0.0104542
0.00812182
0.0115967
0.0117584
0.0164585
0.00660719
0.0152609
0.0164594
0.0410822
0.0103054
0.0327318
0.00221587
0.0123004
0.00345012
0.00325815
0.0644747
0.0384933
0.0222916
0.00232274
0.0358156
0.00780831
0.00634482
0.0411347
0.00667352
0.0461998
0.0102548
0.0470038
0.0156691
0.00231572
0.105939
0.0145174
0.0137656
0.0116757
0.0402104
0.0460185
0.00292144
0.00429753
0.142474
0.0332155
0.00331439
0.046178
0.0486281
0.00452467
0.0328832
0.00445869
0.0407476
0.0077531
0.0117459
0.00159931
0.0359298
0.0369131
0.00213523
0.121859
0.0431545
0.00198423
0.0121339
0.00361546
0.0218535
0.0337766
0.011091
0.00290278
0.0317215
0.0316769
0.00774958
0.0450325
0.00720408
0.00420067
0.0119083
0.0117115
0.0396652
0.0029022
0.00242045
0.0259253
0.00877209
0.00443455
0.00724568
0.00283555
0.0138641
0.0127916
0.034082
0.0629528
0.0448903
0.00300067
0.0139852
0.00307235
0.0109477
0.0152958
0.00622532
0.0105419
0.00201388
0.0434329
0.0183008
0.00315076
0.00293461
0.0143211
0.0285855
0.0463399
0.0513924
0.0176871
0.0069076
0.0129599
0.00234289
0.00309762
0.00403511
0.000951296
0.00253944
0.00460404
0.0357915
0.125897
0.00571635
0.00377085
0.00984011
0.0397428
0.00461234
0.0153615
0.00793458
0.0112087
0.00580618
0.0117824
0.0274336
0.0284185
0.0151629
0.00280535
0.0161947
0.0812543
0.0113668
0.00394568
0.0112379
0.0267622
0.0151622
0.00269784
0.00304674
0.00750564
0.0124866
0.0138975
0.0123753
0.00201756
0.0135137
0.0040548
0.00269801
0.0580248
0.013003
0.0337064
0.0145786
0.0178066
0.020939
0.00970508
0.00295652
0.0374129
0.0029965
0.00803084
0.00754396
0.0113395
0.0110901
0.0157904
0.00795014
0.0144547
0.0302481
0.0113641
0.0200719
0.0026563
0.0506875
0.00279572
0.00265998
0.026826
0.0248259
0.0104977
0.0464916
0.0126862
0.00321856
0.0251142
0.00282528
0.0291086
0.0385424
0.0028356
0.0190454
0.0501879
0.00577212
0.0417536
0.0191606
0.0332664
0.0080466
0.0469861
0.0432494
0.00289303
0.00976588
0.0429187
0.00292723
0.00254763
0.0368719
0.0024079
0.0127255
0.0412372
0.029787
0.0849051
0.00129991
0.00214515
0.00226375
0.0535175
0.00262482
0.00302532
0.0078918
0.0147402
0.00387123
0.00248825
0.00267358
0.0130432
0.0129501
0.0026147
0.0112992
0.00233064
0.00244005
0.00205959
0.0750605
0.0235822
0.0025499
0.00294194
0.0207966
0.0319271
0.00330878
0.0165228
0.00250704
0.00237207
0.0325997
0.00299899
0.0278192
0.00223554
0.0175377
0.0107543
0.142522
0.0139086
0.0987689
0.066072
0.00254205
0.0460988
0.00316862
0.00278523
0.00671192
0.0231735
0.00292307
0.0137411
0.0229315
0.00421166
0.00396922
0.0156319
0.0490686
0.0125282
0.0774699
0.0274118
0.0305365
0.00266043
0.0422986
0.0282017
0.00215754
0.0190258
0.00233948
0.00249711
0.0524822
0.0103529
0.0104186
0.0612371
0.0560901
0.00323224
0.0109152
0.00441396
0.0270233
0.00258829
0.0402433
0.0416574
0.00217619
0.0336404
0.00275907
0.00242682
0.00231084
0.0112052
0.0149441
0.104796
0.0348227
0.00369082
0.0591347
0.00253414
0.00248122
0.00215127
0.0328275
0.0112107
0.00233866
0.00711039
0.0622574
0.0146891
0.0167076
0.0027332
0.0110963
0.0037044
0.00410709
0.00541269
0.00108294
0.0052492
0.00180287
0.00237877
0.114354
0.00426052
0.00738254
0.00261549
0.0113067
0.0121481
0.0346193
0.00109449
0.0118037
0.0316048
0.00966067
0.00276494
0.0329848
0.0020098
0.0273816
0.0128212
0.0115202
0.00754981
0.00389291
0.0612076
0.0492004
0.00252652
0.00388232
0.0547316
0.0419509
0.02138
0.00540728
0.0311275
0.00441648
0.0116929
0.00762747
0.0124763
0.00244258
0.00373482
0.00708813
0.0141677
0.0110513
0.00253255
0.0118672
0.0142435
0.0132178
0.0129306
0.0198787
0.0304566
0.0265336
0.002668
0.038572
0.0405287
0.0347112
0.000992198
0.0156129
0.0189954
0.0122412
0.0412066
0.00192359
0.00278352
0.032154
0.108105
0.016562
0.0596835
0.00167034
0.00241882
0.00494677
0.00376448
0.013066
0.00363122
0.00243553
0.0242798
0.0272759
0.0673992
0.0599596
0.0994081
0.0496321
0.0529645
0.0207989
0.0139938
0.0366653
0.00657621
0.0329841
0.0015507
0.0191622
0.00212094
0.0602433
0.0109251
0.00687088
0.0123276
0.00205439
0.00727838
0.0071205
0.00271566
0.0127947
0.00263913
0.0512803
0.0404915
0.00354018
0.0303316
0.0316784
0.0159563
0.0327616
0.147049
0.0108758
0.0110648
0.0639303
0.0106933
0.0239447
0.00122845
0.060556
0.00131246
0.0143024
0.012229
0.0042964
0.038439
0.0298554
0.00160201
0.0115949
0.00373789
0.0726324
0.0308959
0.00706852
0.097659
0.00653773
0.0270859
0.00315899
0.00734828
0.0586624
0.017337
0.00832953
0.00223685
0.00299667
0.0146454
0.00424141
0.0793963
0.0143365
0.00811733
0.0628628
0.0020816
0.0106635
0.0100586
0.00265344
0.0274517
0.062685
0.0354898
0.0227595
0.013764
0.0592135
0.00269027
0.0159567
0.00231999
0.00253605
0.012612
0.00204092
0.047547
0.0624459
0.062712
0.0159612
0.0184141
0.0288239
0.0105175
0.00269817
0.00900072
0.00299146
0.013468
0.0069084
0.00445075
0.00914347
0.124806
0.00236503
0.0826944
0.0447892
0.0125592
0.0115377
0.0422781
0.0335647
0.00216753
0.140637
0.00342039
0.00230501
0.00235438
0.132943
0.00367069
0.00231167
0.0030107
0.0355445
0.00441014
0.0111295
0.00729344
0.0111972
0.00847052
0.00284748
0.0260576
0.00426119
0.00435335
0.0306528
0.00193362
0.0105732
0.00369551
0.0407406
0.0134226
0.00215823
0.0215527
0.0333608
0.064122
0.00423211
0.00261695
0.0871973
0.0646641
0.081156
0.0580081
0.0701785
0.054013
0.00220487
0.0234609
0.057173
0.00591875
0.0120479
0.00204949
0.0105535
0.0253603
0.0106489
0.0162541
0.0754774
0.0190793
0.00168754
0.00202413
0.00217684
0.012367
0.0111595
0.0164589
0.0267942
0.0586413
0.00796673
0.00257512
0.056689
0.104434
0.0113393
0.00478506
0.0205188
0.00410427
0.0111731
0.0263381
0.0123938
0.0106645
0.0102978
0.014032
0.00463809
0.0976717
0.0126226
0.0593561
0.0402195
0.0106747
0.0117727
0.0110984
0.0323145
0.00449899
0.0139733
0.022023
0.00550309
0.0116557
0.00661452
0.028323
0.0124953
0.0283046
0.0552544
0.0502132
0.00598967
0.0488002
0.103308
0.00210629
0.0502568
0.00281149
0.011319
0.0424308
0.00230882
0.00394426
0.0327179
0.00258469
0.0042433
0.00248586
0.00180952
0.0495164
0.00225672
0.0409904
0.0128962
0.0279696
0.00244888
0.00564615
0.0034328
0.0125588
0.00210925
0.0832717
0.082262
0.0264619
0.0308135
0.0143831
0.0130777
0.0322235
0.00550866
0.0716958
0.0699369
0.0275961
0.00748125
0.00214971
0.00228625
0.0259737
0.0317191
0.00395631
0.00250191
0.00411759
0.0141238
0.00237343
0.0067322
0.0101021
0.0141807
0.0166383
0.00689427
0.00524207
0.00287008
0.0613684
0.00599582
0.0117852
0.00819363
0.0103869
0.00976674
0.00789308
0.0103551
0.0113203
0.0467627
0.0269326
0.0186924
0.00992959
0.0438241
0.00228287
0.01028
0.00934177
0.00190819
0.00417487
0.0333392
0.0705012
0.00194609
0.042278
0.0133826
0.0865874
0.0134025
0.0564299
0.00333256
0.0112244
0.0613089
0.0101599
0.0235496
0.0747214
0.0516226
0.00202198
0.019671
0.00213391
0.0405255
0.0287449
0.0181561
0.00243537
0.00554644
0.0432297
0.00404025
0.00919315
0.00700978
0.033014
0.00232475
0.0241463
0.00190181
0.0742464
0.00202613
0.0015388
0.00710799
0.00767939
0.0618533
0.0276847
0.00393634
0.00679252
0.0095018
0.00204825
0.0151081
0.00620762
0.0197569
0.0111747
0.0950185
0.00211822
0.00222149
0.0456062
0.0615129
0.0189362
0.144444
0.0552719
0.00392536
0.0259187
0.0786846
0.00252664
0.0639705
0.0237297
0.0363241
0.00696757
0.0710797
0.00208253
0.0487866
0.00212431
0.046221
0.0113549
0.00222589
0.0906498
0.00276189
0.0432116
0.0375205
0.00598404
0.00279125
0.0987969
0.124848
0.00775716
0.0276744
0.0607234
0.00172651
0.0148137
0.00669435
0.0118455
0.00365921
0.00198719
0.0128693
0.0697153
0.00472808
0.0416615
0.0270423
0.00247281
0.00212148
0.00216715
0.00238932
0.00730421
0.0155724
0.0193428
0.00571074
0.0516388
0.011073
0.00344583
0.00383137
0.00239735
0.0809395
0.0487159
0.0022344
0.00931355
0.0256231
0.0085236
0.0634581
0.0384281
0.00215447
0.00336331
0.0110129
0.0017147
0.00404483
0.0332588
0.0544565
0.00216278
0.00220545
0.0133235
0.0666162
0.0842525
0.00235722
0.00142379
0.10789
0.0142854
0.00152275
0.00220269
0.053211
0.0464036
0.102714
0.0072158
0.0608689
0.015595
0.115725
0.0632369
0.00236192
0.0374483
0.00235129
0.0168555
0.00263507
0.0029539
0.0104766
0.0153059
0.00899716
0.0253828
0.00132225
0.00724381
0.0139097
0.0396707
0.00602272
0.0858449
0.0267859
0.0403799
0.00263042
0.0922143
0.0230727
0.0105801
0.0116339
0.0121121
0.0421807
0.00134083
0.0308834
0.0500903
0.00137878
0.0190868
0.011109
0.00259011
0.00260656
0.00221072
0.0112566
0.00581894
0.002903
0.0528582
0.13987
0.0014871
0.0533963
0.0598301
0.091394
0.0218228
0.0297511
0.0681429
0.00229842
0.0217594
0.0162787
0.00205122
0.0041052
0.00247671
0.0014991
0.00381426
0.0250725
0.0103385
0.0707573
0.00187408
0.0114849
0.00236119
0.0025961
0.00208538
0.0652979
0.0294992
0.00459344
0.00245961
0.028134
0.0103725
0.0384276
0.0366828
0.0416098
0.0296048
0.00227153
0.00226728
0.011881
0.00223718
0.0111051
0.00260294
0.0203918
0.0475081
0.0149551
0.0678162
0.00285533
0.00206404
0.0214844
0.028574
0.0171546
0.014342
0.0115009
0.0121071
0.127167
0.090069
0.032044
0.0729149
0.013625
0.00183646
0.0107448
0.00769665
0.03821
0.00223217
0.0021367
0.00742348
0.036351
0.014426
0.0191246
0.0106624
0.0119632
0.00230957
0.0670051
0.0255458
0.0267233
0.00226057
0.138324
0.0672985
0.0331688
0.00125448
0.0710784
0.0167686
0.0142194
0.00202457
0.016177
0.00657438
0.00259348
0.0135178
0.0152844
0.0235857
0.0198127
0.116034
0.0560705
0.00247264
0.0493652
0.00219991
0.0108694
0.00622482
0.0408221
0.00253911
0.00219194
0.0741636
0.0102951
0.00227027
0.0715154
0.0260204
0.0242773
0.0022704
0.00224897
0.0111322
0.0332326
0.00194443
0.00231052
0.00221526
0.0545413
0.00244905
0.00257528
0.00747167
0.00472531
0.0570625
0.0035568
0.0288453
0.00201239
0.0112493
0.0654365
0.0176311
0.0236676
0.0118845
0.00228762
0.00165941
0.00168211
0.00255746
0.0321993
0.00448843
0.00301958
0.0530853
0.0110484
0.0114544
0.046877
0.0139245
0.00274016
0.0024762
0.00313339
0.0122234
0.0158727
0.00146752
0.0412819
0.00985862
0.0848139
0.0741692
0.0132987
0.00464422
0.0720464
0.00254176
0.00204782
0.0130758
0.104547
0.00403894
0.00218237
0.0129771
0.0158313
0.00221251
0.00225411
0.0195935
0.0117933
0.00200784
0.00220444
0.0106755
0.00691153
0.0410889
0.00200275
0.121551
0.0649925
0.00197409
0.0734087
0.0109286
0.0396388
0.0407196
0.0644338
0.0609571
0.0768104
0.0160573
0.00935315
0.00736119
0.00210252
0.00266206
0.0108809
0.00894584
0.0367396
0.069892
0.00226989
0.001694
0.002237
0.00208024
0.00215657
0.00221728
0.011804
0.00509703
0.0017574
0.0108016
0.00197675
0.00234822
0.00336265
0.00226371
0.0315108
0.0314131
0.0171698
0.0167616
0.0108518
0.0330271
0.00655682
0.0104417
0.00177622
0.0128672
0.00216115
0.0140351
0.0711526
0.0144444
0.00443119
0.00194494
0.00657647
0.0387261
0.0384168
0.0110358
0.00255251
0.00801353
0.00223936
0.0585401
0.0108629
0.016692
0.00321275
0.00349
0.0121137
0.00809126
0.0345684
0.0190127
0.00489058
0.00198417
0.00238986
0.00394979
0.0493326
0.0218975
0.0832583
0.0229479
0.01067
0.0457484
0.0242587
0.0260568
0.0176398
0.0478774
0.0110583
0.00294567
0.0664178
0.0634548
0.0112542
0.0108682
0.017211
0.00235945
0.0115164
0.00741315
0.0142478
0.0873154
0.0175096
0.00510007
0.00781175
0.0475486
0.0765357
0.00194795
0.0126927
0.0128642
0.00485962
0.00226108
0.00229015
0.00107861
0.0045374
0.00279174
0.00222103
0.130488
0.0114776
0.0518918
0.0560473
0.0129559
0.00217397
0.0216015
0.0224722
0.0165238
0.00987644
0.0125988
0.00224904
0.0993167
0.0377907
0.0678698
0.000974542
0.0019478
0.00208342
0.0148485
0.016705
0.0119362
0.0018884
0.010797
0.0429015
0.00223907
0.00129892
0.00501355
0.0768435
0.0016928
0.0062824
0.0107939
0.0128971
0.0033691
0.0865235
0.0365256
0.0984043
0.013188
0.0206944
0.0260483
0.00240212
0.0260754
0.13307
0.0124553
0.00701962
0.0127278
0.0549219
0.0193839
0.0145214
0.0109659
0.0285241
0.00227002
0.0339229
0.0011108
0.00237675
0.00228048
0.0373613
0.01179
0.0399546
0.089996
0.0118787
0.0222272
0.0016913
0.0191585
0.00223876
0.00928132
0.0273568
0.0247049
0.00187655
0.00236077
0.0488006
0.00111098
0.0566257
0.00154312
0.0553266
0.00259425
0.0275606
0.00186394
0.0506898
0.0123612
0.0343995
0.056165
0.0232573
0.0255897
0.00108717
0.0485062
0.0302121
0.0233915
0.0195242
0.0118431
0.0249835
0.0294929
0.00226833
0.0304288
0.0481147
0.00625048
0.0519565
0.0923421
0.00198357
0.0113124
0.00306349
0.0665438
0.00247337
0.00240154
0.00228119
0.0366621
0.127739
0.0261623
0.0124157
0.0191889
0.00202336
0.00939896
0.00305912
0.00591807
0.00238137
0.0109669
0.0101052
0.0096515
0.00216306
0.0756609
0.0718624
0.00175182
0.0055395
0.0324722
0.0371248
0.0277107
0.00210298
0.00221836
0.0102375
0.0349377
0.00259445
0.00200717
0.0839107
0.0253017
0.00176499
0.00596355
0.0216266
0.021005
0.0361847
0.034445
0.0270612
0.0105221
0.0105457
0.0475466
0.0549287
0.00293425
0.0118074
0.0107725
0.00224957
0.00285851
0.0105106
0.00258296
0.026475
0.0511131
0.00330584
0.0331037
0.0968651
0.00309265
0.014911
0.00383552
0.0328913
0.0199421
0.00947955
0.0112967
0.0895871
0.0103684
0.00588512
0.0110624
0.00623744
0.0829958
0.0397602
0.0427755
0.00918802
0.00619823
0.00354511
0.0106389
0.00148193
0.00123092
0.00959251
0.0200237
0.00391162
0.00876629
0.00936129
0.00237185
0.0427437
0.0106936
0.0112954
0.00201432
0.12961
0.00388742
0.00214444
0.00437301
0.0282277
0.00309555
0.00315854
0.012718
0.00263076
0.00361532
0.00991877
0.0512258
0.00375682
0.0479088
0.0104272
0.00597096
0.0376605
0.0166262
0.00360497
0.112549
0.0121248
0.0670798
0.00415528
0.0260527
0.00350779
0.0274513
0.134047
0.00325058
0.0173056
0.00977177
0.0111387
0.00220893
0.00224188
0.00448223
0.00216049
0.00286225
0.00352158
0.0169826
0.0105877
0.00256092
0.00214423
0.00322878
0.0179812
0.0321966
0.0339464
0.0147395
0.00916791
0.13516
0.00258118
0.00237108
0.00404123
0.00244526
0.00245437
0.0203476
0.00364456
0.00509576
0.0286037
0.0106483
0.0102702
0.0382598
0.0433452
0.00254807
0.0618156
0.0122113
0.022648
0.0256889
0.0171092
0.0162679
0.0386487
0.00286817
0.0143635
0.00198907
0.0118131
0.0014581
0.0385159
0.00665388
0.00343267
0.0128311
0.0297605
0.0264448
0.00234014
0.0216258
0.0296886
0.0174819
0.0011453
0.00537897
0.00639676
0.0194072
0.00715554
0.124214
0.0228959
0.00644872
0.0106912
0.00136431
0.00210564
0.00812099
0.0020821
0.040427
0.0145389
0.0021403
0.00475857
0.0324836
0.00680954
0.0490653
0.0215822
0.0238046
0.00594891
0.0016317
0.023279
0.07374
0.0024808
0.00149737
0.0106636
0.00163044
0.00270282
0.0242067
0.00698258
0.0424328
0.0263936
0.0555731
0.00706858
0.0233518
0.0017035
0.00192143
0.00263564
0.0322879
0.000975886
0.000835254
0.00122046
0.0123471
0.0104791
0.00136688
0.0288665
0.0645657
0.037984
0.00221163
0.0225208
0.0969878
0.0312931
0.00267956
0.0138912
0.00299314
0.0567863
0.00152808
0.0112349
0.0275347
0.0309566
0.00216565
0.00325717
0.0129401
0.0356803
0.0464881
0.00429243
0.0463913
0.00122633
0.00248867
0.0280734
0.0132278
0.00257803
0.0436414
0.0128615
0.00236166
0.010662
0.0267719
0.0110689
0.00164091
0.0022866
0.0267305
0.009804
0.00220129
0.0259624
0.0620837
0.0365738
0.0126465
0.00150768
0.00241546
0.0141011
0.0505084
0.0143756
0.0544508
0.0807638
0.0691962
0.00215804
0.00219179
0.00460259
0.00211078
0.00219742
0.0291119
0.0386425
0.00230587
0.00238801
0.00227743
0.00122179
0.0216157
0.0158087
0.0128509
0.00108144
0.000960239
0.00107606
0.0139856
0.0288573
0.0107523
0.00235706
0.0414142
0.00408393
0.00421581
0.0402394
0.00408154
0.0173369
0.0286977
0.00196876
0.012595
0.00203978
0.0123165
0.0111913
0.00906381
0.0660251
0.00228944
0.0247018
0.0307835
0.0134336
0.00402711
0.0761982
0.0882041
0.00237655
0.00178818
0.0109306
0.0126168
0.00608495
0.0350983
0.0731544
0.0136419
0.018886
0.0847839
0.0272239
0.0105114
0.0456663
0.0397992
0.0730754
0.0434313
0.0115884
0.0528588
0.000936376
0.00292688
0.00179254
0.0134087
0.00171498
0.0656095
0.0229202
0.00221352
0.0019134
0.00074733
0.000829756
0.00185791
0.0140638
0.0220883
0.0111887
0.0258563
0.0262147
0.0149412
0.00168808
0.00208788
0.0128192
0.00435348
0.00236307
0.00224801
0.00288211
0.0163437
0.00219797
0.0104666
0.00212419
0.00403222
0.0229201
0.00127213
0.0114432
0.0135863
0.0513662
0.0984014