/*--------------------------------*- C++ -*----------------------------------*\
  =========                 |
  \\      /  F ield         | OpenFOAM: The Open Source CFD Toolbox
   \\    /   O peration     | Website:  https://openfoam.org
    \\  /    A nd           | Version:  10
     \\/     M anipulation  |
\*---------------------------------------------------------------------------*/
FoamFile
{
    format      ascii;
    class       volScalarField;
    location    "950";
    object      k;
}
// * * * * * * * * * * * * * * * * * * * * * * * * * * * * * * * * * * * * * //

dimensions      [0 2 -2 0 0 0 0];

internalField   nonuniform List<scalar> 
23845
(
0.080159
0.0957005
0.0702098
0.0465144
0.0908961
0.0244228
0.0824383
0.0344246
0.0195444
0.0636473
0.0767402
0.022901
0.0267407
0.0220259
0.0909825
0.0465304
0.0387738
0.0477858
0.0296638
0.0279818
0.066993
0.0731881
0.0631911
0.0194581
0.069345
0.0153639
0.0752101
0.0265333
0.0199918
0.0276059
0.0503069
0.0185354
0.0864638
0.0486987
0.0229946
0.0256023
0.0158455
0.023045
0.023429
0.0208258
0.0279848
0.0389735
0.0241251
0.0389502
0.0129188
0.0300207
0.0778927
0.0507768
0.0235881
0.0153249
0.0300993
0.0721216
0.019697
0.0244611
0.0179602
0.0352216
0.0938814
0.036728
0.0767505
0.0738331
0.0270657
0.0400945
0.0442976
0.0245707
0.0180118
0.0274334
0.076707
0.0118463
0.0120318
0.0331569
0.0310608
0.061657
0.0176409
0.088283
0.0163086
0.0912052
0.022906
0.023612
0.0405878
0.046925
0.0694067
0.0892195
0.0969461
0.037404
0.0679346
0.0230754
0.0874555
0.0193982
0.0178004
0.0414849
0.0269737
0.0317207
0.0213944
0.0255743
0.0365577
0.0274334
0.0359102
0.0536585
0.0161254
0.0835155
0.0384907
0.0782585
0.0977632
0.0111898
0.0205187
0.0390455
0.024379
0.0150662
0.0754084
0.0382025
0.0726734
0.0231904
0.0798779
0.060306
0.0261722
0.0590992
0.0170492
0.0504064
0.0206692
0.0319201
0.02336
0.0221555
0.0334787
0.0448747
0.0795468
0.016191
0.0283125
0.015228
0.0548416
0.0786073
0.0548576
0.0915325
0.0827407
0.0231169
0.0435321
0.0913382
0.0102064
0.0227827
0.0746061
0.0236214
0.0173001
0.0378415
0.0236496
0.0406069
0.0408137
0.0371486
0.0541378
0.0815732
0.0346602
0.0438787
0.0879879
0.021901
0.0892693
0.0247555
0.0762727
0.0611407
0.0974163
0.0240735
0.0610517
0.0254435
0.0374977
0.0906807
0.0361712
0.0184735
0.0203316
0.051584
0.0236271
0.0228636
0.0272479
0.0369871
0.0234986
0.0474206
0.0191503
0.0436623
0.0184773
0.0388052
0.0338351
0.0700484
0.0147766
0.0238866
0.084626
0.0800142
0.0891921
0.0691035
0.0445925
0.0306041
0.0388828
0.0362926
0.018374
0.0379788
0.0223373
0.0224781
0.022195
0.0239242
0.0387381
0.0216784
0.0163297
0.0186744
0.0133271
0.073744
0.0570187
0.0228452
0.0345223
0.0893498
0.0363371
0.0361469
0.0667115
0.0239321
0.0811343
0.0503891
0.0500826
0.0213485
0.0372277
0.027233
0.0260816
0.0172219
0.0844176
0.0410369
0.0103759
0.0566064
0.0190391
0.0903288
0.0158962
0.0534726
0.0377424
0.0890902
0.0105886
0.0226196
0.0244192
0.0284715
0.0246956
0.0253909
0.0233638
0.0128004
0.0932014
0.0239385
0.0175279
0.0479117
0.0191527
0.0478106
0.0215374
0.0525798
0.0383448
0.0930073
0.0236864
0.0463555
0.0240653
0.0119274
0.0376634
0.0908123
0.0313669
0.0237812
0.0299261
0.0229292
0.0882377
0.026942
0.0349587
0.0315462
0.026377
0.0203423
0.0175044
0.0242177
0.0294633
0.0709323
0.065638
0.019099
0.0398706
0.0450257
0.0587934
0.0460623
0.0236239
0.0448745
0.0297631
0.0228938
0.0693632
0.0219699
0.0307008
0.0231633
0.0207364
0.0625004
0.03978
0.0245691
0.0326028
0.0458224
0.0233301
0.0293964
0.0466596
0.0222979
0.0360695
0.0837631
0.0389703
0.0272779
0.0254328
0.0305777
0.0375905
0.0232018
0.0306349
0.023987
0.0232395
0.0222286
0.0611194
0.0873108
0.0236278
0.0464656
0.0237332
0.0482141
0.0244114
0.029868
0.0372876
0.0152884
0.0293958
0.0898919
0.0307658
0.0236458
0.0629056
0.01659
0.0293534
0.0849271
0.0259454
0.0201581
0.0209427
0.0221786
0.0370138
0.0275997
0.0888836
0.0239433
0.0426582
0.0752067
0.0353736
0.0494335
0.0790059
0.0511666
0.0288359
0.0241182
0.0341783
0.0487148
0.0532207
0.0469108
0.0360795
0.0407928
0.0489655
0.0354675
0.0734121
0.0133432
0.0131605
0.0194186
0.0239866
0.0290195
0.0416868
0.0825999
0.0536469
0.05382
0.0148064
0.031081
0.0199347
0.0221082
0.0354661
0.0184254
0.0860588
0.0376549
0.0483017
0.0173335
0.053445
0.0428637
0.0194145
0.0236258
0.040092
0.0261324
0.0213549
0.0151506
0.0384043
0.0253344
0.0292712
0.022878
0.0244808
0.0283214
0.0591004
0.0501673
0.0366449
0.0438701
0.0899507
0.0245148
0.0620569
0.0127845
0.0130458
0.0233375
0.0247181
0.0400005
0.0572064
0.0377457
0.0787002
0.0361444
0.025719
0.0218048
0.0285453
0.0236431
0.0661507
0.0145371
0.0342363
0.024363
0.0573691
0.0557367
0.034423
0.0510665
0.0834022
0.0902478
0.0237544
0.0272139
0.0197811
0.032819
0.0910081
0.0123593
0.0850939
0.0386017
0.098222
0.0643508
0.0615306
0.0658652
0.0239228
0.0572997
0.0619185
0.0313487
0.0203765
0.0415652
0.0314479
0.0862485
0.0565897
0.0528788
0.048393
0.0503392
0.0222957
0.0468933
0.0348541
0.0461281
0.0295616
0.0166153
0.0228343
0.0301069
0.0229365
0.0499283
0.0907875
0.0479974
0.0195073
0.0522909
0.0540896
0.0292116
0.0282264
0.0616156
0.0240091
0.0459565
0.0405476
0.0216276
0.0422955
0.0241722
0.0131152
0.0348895
0.0763589
0.0914764
0.0326464
0.0241023
0.0794064
0.0449788
0.0102331
0.0767337
0.0247181
0.0239226
0.0243382
0.0259067
0.013692
0.0811966
0.0270402
0.0239388
0.0531135
0.030449
0.0264258
0.0916567
0.0198675
0.0247405
0.0259264
0.0394336
0.0694023
0.0613302
0.0500647
0.0715998
0.0581039
0.0874958
0.0236192
0.0231702
0.0761958
0.0389406
0.0153946
0.0626886
0.0283093
0.0644925
0.0356953
0.0734344
0.0171285
0.0597572
0.0167668
0.0241476
0.0872893
0.018768
0.0400058
0.0707434
0.0387931
0.0399328
0.0680644
0.0249358
0.0266403
0.0389714
0.0496739
0.0425489
0.0158229
0.051254
0.0231179
0.0139423
0.058508
0.0812075
0.0745773
0.0349469
0.0152458
0.024476
0.048848
0.0296406
0.0146064
0.0841339
0.0891549
0.0267471
0.0639019
0.022747
0.0246082
0.069723
0.0870524
0.0639767
0.0346827
0.0253494
0.0251065
0.0336836
0.0764652
0.0413923
0.068455
0.0236546
0.0604496
0.0609111
0.0380676
0.0593497
0.0722299
0.0248009
0.026723
0.0244972
0.0244544
0.023163
0.0441115
0.0262835
0.0361254
0.090666
0.0354431
0.0420105
0.0241446
0.0258693
0.0375358
0.042325
0.0824904
0.0286996
0.0351813
0.0236246
0.0219379
0.0169544
0.0221641
0.0233887
0.0142712
0.0848679
0.0310704
0.0242957
0.0500667
0.084165
0.0394978
0.0670102
0.0324604
0.0786978
0.0151346
0.0230241
0.0392921
0.0774185
0.0312011
0.0343047
0.0177931
0.0183291
0.0331936
0.018068
0.0659685
0.0868605
0.0856906
0.0654253
0.0290595
0.0355035
0.0138304
0.0243874
0.046743
0.0229957
0.0670872
0.0264445
0.0789103
0.089852
0.0477768
0.0810044
0.0324197
0.0788042
0.0859071
0.0591372
0.0699974
0.0985562
0.0928557
0.0845683
0.0330195
0.0912037
0.0815105
0.098863
0.0281524
0.0255546
0.0797573
0.0272738
0.0761911
0.0590068
0.0968271
0.0551089
0.0267119
0.040789
0.0218983
0.0428494
0.0261535
0.0278352
0.0665184
0.0259685
0.022985
0.0829677
0.0948689
0.0500851
0.0154008
0.0642571
0.0859938
0.0556255
0.026978
0.0241613
0.0771731
0.0846095
0.0711465
0.0224627
0.0794237
0.0612141
0.0259325
0.0235693
0.0794556
0.040779
0.0258869
0.0804959
0.0416893
0.0679938
0.0356801
0.0737023
0.055301
0.0356145
0.0492755
0.0992789
0.0456342
0.0154978
0.0214577
0.0916791
0.054541
0.0819965
0.0408768
0.0579502
0.0705259
0.0603294
0.0560719
0.0768742
0.0535713
0.0795014
0.0673415
0.0462595
0.0757644
0.04942
0.0351782
0.0473005
0.0455219
0.0879444
0.0341132
0.0442423
0.0841801
0.0780282
0.0416249
0.0368622
0.0586679
0.0625846
0.0665132
0.0718264
0.0753889
0.05468
0.0780421
0.0521778
0.0724308
0.048212
0.0639565
0.0463634
0.0467658
0.0472569
0.0431557
0.0396698
0.0406554
0.0267891
0.0368552
0.0562875
0.019221
0.0355047
0.0381755
0.0388118
0.0246897
0.0666401
0.0377009
0.063917
0.0678465
0.0526599
0.0365105
0.0364637
0.0265486
0.0558995
0.0494337
0.0810265
0.021374
0.0622869
0.0346753
0.0457295
0.0271956
0.0345981
0.077043
0.046104
0.0794593
0.0369454
0.0233006
0.0292644
0.0140426
0.0335882
0.0557329
0.0323046
0.0182768
0.0352548
0.0794471
0.0328756
0.0303892
0.0286203
0.0821847
0.0344748
0.0126562
0.0862426
0.0374509
0.0397561
0.072957
0.0682357
0.0737187
0.0695161
0.0784319
0.0359207
0.0536903
0.0625021
0.0705531
0.0509911
0.0489187
0.0451874
0.0991398
0.0426613
0.031172
0.0741066
0.0709281
0.0817121
0.0506476
0.0609264
0.0291061
0.0972126
0.0663263
0.0463666
0.0399334
0.0460201
0.0289636
0.0220434
0.0645268
0.0323001
0.028438
0.0394147
0.0331287
0.0316594
0.0383638
0.0354898
0.0463843
0.0360409
0.0341945
0.0346444
0.0837187
0.052226
0.0299624
0.0444199
0.0410816
0.0334233
0.0814294
0.0618923
0.0723363
0.0527112
0.0364794
0.0292046
0.0359914
0.034818
0.0984121
0.066813
0.0739083
0.0458113
0.0310532
0.0534591
0.0233237
0.0640318
0.0278686
0.0332394
0.0186426
0.0208073
0.0363055
0.0223674
0.0224481
0.0159358
0.026064
0.0173373
0.0200998
0.018052
0.0171678
0.0153032
0.0234986
0.0272831
0.0209783
0.0215897
0.0393737
0.0366534
0.0395479
0.0609264
0.076696
0.0148052
0.0185853
0.0343879
0.0729254
0.0652028
0.0740795
0.0613603
0.0483712
0.0265608
0.0273869
0.0314589
0.0382323
0.0473328
0.0286445
0.0373251
0.0263187
0.0356097
0.0227468
0.0886403
0.023361
0.0594968
0.0390781
0.0829762
0.0298908
0.0321014
0.0346864
0.0295152
0.0470587
0.0426618
0.0305219
0.049669
0.0236375
0.0250676
0.0192148
0.0189798
0.0172174
0.0166347
0.0315924
0.0358267
0.0309385
0.060828
0.0302976
0.0611161
0.0606233
0.0698414
0.0312098
0.0482765
0.0300194
0.0183523
0.035377
0.0163443
0.0437144
0.0255398
0.0169371
0.0511773
0.0246085
0.0197567
0.0629392
0.0280941
0.0483006
0.0570813
0.0546048
0.0361869
0.0509363
0.0287969
0.0454975
0.0305464
0.0668634
0.0354015
0.0237238
0.0509185
0.0598853
0.0622479
0.0846956
0.0667744
0.0334376
0.0403427
0.0440089
0.0405127
0.0902807
0.0222607
0.038805
0.0361584
0.0260649
0.0642905
0.035105
0.0916977
0.0350296
0.0175466
0.0294821
0.0230094
0.0370702
0.0341892
0.031576
0.0923446
0.0311021
0.0604178
0.0402255
0.0803401
0.0342197
0.0478134
0.054509
0.0604543
0.0620293
0.0414916
0.0560997
0.0477807
0.0654622
0.0686605
0.0739354
0.0453786
0.0690102
0.0698974
0.0487097
0.0839939
0.0756404
0.0660638
0.0668254
0.0304675
0.0427953
0.0444226
0.0398976
0.0267403
0.0379845
0.0541668
0.0396201
0.0298372
0.0648239
0.0543718
0.0651124
0.0406588
0.0687728
0.0292901
0.0335988
0.0375302
0.0357643
0.0467295
0.0201552
0.0663409
0.0858933
0.0966335
0.0261607
0.0343362
0.0724614
0.0775498
0.028833
0.0562879
0.056237
0.0538991
0.0629329
0.0553956
0.0354998
0.0691484
0.0778902
0.072131
0.0761805
0.0823058
0.0827051
0.02574
0.0452091
0.0453546
0.034183
0.0529991
0.0568326
0.0328499
0.0215561
0.0270126
0.0729863
0.0267882
0.0280696
0.0153691
0.0283565
0.0124812
0.0235681
0.0175003
0.0349323
0.031838
0.0325951
0.0353169
0.0809078
0.0263148
0.0303499
0.0542706
0.0402955
0.0732241
0.0672045
0.0948514
0.071628
0.0303936
0.0384356
0.0363283
0.0273038
0.0148504
0.0255738
0.0846022
0.0801884
0.0395821
0.0468457
0.0423493
0.0492013
0.0519396
0.0755933
0.033648
0.0854634
0.0681831
0.075053
0.0727996
0.0599485
0.0679147
0.0473851
0.063864
0.0373112
0.0602146
0.053008
0.0394123
0.0497176
0.046723
0.0444721
0.0352452
0.0339722
0.0565165
0.0584905
0.079777
0.0296852
0.0538442
0.0296787
0.0217624
0.0424557
0.0228475
0.056978
0.0419141
0.0379344
0.0385204
0.0343628
0.0341477
0.082774
0.0223428
0.0285298
0.0628845
0.0399971
0.0152328
0.0562802
0.082732
0.051139
0.0235974
0.069242
0.0330243
0.0570294
0.0612859
0.0726661
0.0496262
0.029368
0.0674874
0.0567661
0.0635905
0.0593106
0.0549909
0.0523921
0.0299164
0.0488566
0.0630658
0.0317265
0.0433477
0.0827275
0.0356334
0.0446429
0.0469597
0.040885
0.0144312
0.0220323
0.0383488
0.0273272
0.0332116
0.0300733
0.0276004
0.0824889
0.0367691
0.0347867
0.0649749
0.0278395
0.0290004
0.0289526
0.0853975
0.0327949
0.0320486
0.0818648
0.0210294
0.0163839
0.0309242
0.0304357
0.0284145
0.0434475
0.0215154
0.0324974
0.0518093
0.0757136
0.0806335
0.069484
0.0617766
0.0290685
0.0448541
0.0372536
0.0397162
0.0299412
0.0824382
0.0458452
0.0271972
0.02822
0.0502904
0.0454724
0.0603723
0.0375206
0.0298274
0.0337532
0.0277094
0.0736444
0.0421839
0.0179247
0.0751631
0.0314365
0.0436805
0.0293585
0.0240738
0.0274773
0.0490993
0.0345492
0.027694
0.070629
0.0291622
0.0734881
0.0440272
0.0236206
0.0645662
0.0331665
0.0559133
0.0584645
0.0467298
0.0646687
0.0517771
0.0290299
0.0548549
0.0555295
0.0229213
0.0412781
0.0291039
0.0265599
0.0394346
0.015574
0.0182952
0.0433809
0.0170099
0.0240699
0.0480424
0.0164977
0.0219999
0.0533359
0.0212185
0.0190067
0.050473
0.0901856
0.0786452
0.0216877
0.027299
0.0595872
0.0238151
0.0250592
0.090463
0.0631729
0.0897288
0.0432565
0.0739352
0.0330589
0.0416896
0.0482042
0.0690063
0.0293715
0.0648265
0.0937177
0.0303323
0.0287509
0.0341042
0.0280768
0.0234782
0.0272342
0.0374911
0.0323045
0.0907045
0.0485656
0.0355212
0.0790418
0.0410343
0.073326
0.0286013
0.061754
0.0332222
0.0411154
0.0858537
0.0296864
0.0513306
0.0267802
0.0281942
0.0543281
0.0268082
0.0905924
0.0626054
0.0778954
0.0429024
0.0426452
0.0874416
0.0305086
0.0274091
0.0731685
0.0312143
0.0319117
0.0315486
0.0741833
0.0262431
0.0264615
0.0288206
0.0964304
0.0274182
0.0397947
0.0416099
0.0276887
0.026529
0.0472842
0.0527716
0.0906101
0.0227121
0.0128206
0.0294724
0.024909
0.0263946
0.0971697
0.0440942
0.0424109
0.0294127
0.050798
0.0614227
0.0398621
0.0689757
0.0700381
0.0243549
0.0402272
0.0264186
0.0667393
0.0639566
0.0238241
0.0497684
0.0445119
0.0519991
0.0491903
0.0633699
0.041817
0.0579956
0.0619948
0.0831887
0.0507781
0.0816177
0.0227278
0.0573487
0.0296881
0.0267684
0.0685242
0.086474
0.065346
0.0235454
0.0877505
0.0435908
0.0381783
0.089011
0.0392645
0.0805628
0.0260384
0.0987161
0.0614814
0.023779
0.0784211
0.058463
0.0565229
0.0516871
0.090951
0.0880108
0.0272318
0.0322389
0.0910663
0.0653378
0.0279067
0.0974198
0.0968412
0.0319845
0.0432134
0.0335148
0.0784792
0.0441517
0.04478
0.0181973
0.0851296
0.06852
0.023295
0.0894903
0.0833221
0.0210052
0.0329526
0.0284457
0.0615344
0.0727616
0.0391805
0.0264367
0.0834134
0.064868
0.0445386
0.0918239
0.0417452
0.0330183
0.0543635
0.0512321
0.0861465
0.0272667
0.0227564
0.0776437
0.0436095
0.0331011
0.0432975
0.0251098
0.0597603
0.0555823
0.076586
0.0827231
0.0958633
0.0277119
0.0585446
0.0275795
0.0510167
0.0615161
0.0396181
0.0289776
0.0203513
0.0902488
0.014313
0.0270278
0.026215
0.0559928
0.0811725
0.0939485
0.0930769
0.0675242
0.0426605
0.0586515
0.0232246
0.0278379
0.0307762
0.0136808
0.0254939
0.0340471
0.0776179
0.0803055
0.035372
0.0284453
0.0472371
0.0701937
0.0336013
0.0593943
0.0445097
0.0532372
0.038585
0.0534823
0.0809839
0.0803698
0.0616961
0.0267191
0.063956
0.0865803
0.0305231
0.0319415
0.0520573
0.0775995
0.0612109
0.0240922
0.0279842
0.042683
0.0523428
0.0586723
0.0180293
0.0207093
0.0324766
0.0320303
0.0263043
0.0822185
0.0554268
0.0887603
0.0599221
0.0629897
0.0680926
0.0446003
0.0261008
0.0841418
0.027574
0.0449757
0.0441566
0.0518151
0.039248
0.0628126
0.0416507
0.061338
0.075705
0.0320155
0.0704811
0.024024
0.0884486
0.0267812
0.0259324
0.0814744
0.070022
0.025695
0.0443935
0.0576681
0.0286215
0.0748022
0.0256227
0.0718557
0.0909073
0.0269133
0.0673366
0.0975954
0.0357303
0.0794936
0.0688817
0.0878906
0.042106
0.0832852
0.096314
0.0257191
0.0470024
0.0582273
0.0257904
0.0238022
0.0790019
0.024766
0.0512243
0.095502
0.0737697
0.0688283
0.0161118
0.0221746
0.0231945
0.0510995
0.0240387
0.0242228
0.0409681
0.0427312
0.0307423
0.0223047
0.0244617
0.0400372
0.0473888
0.0258895
0.0501219
0.0243974
0.0248444
0.0205489
0.0868292
0.0764005
0.02556
0.0274219
0.0568511
0.0866074
0.0257748
0.0583139
0.0253384
0.0245301
0.0514992
0.0258621
0.0820678
0.0238791
0.0599656
0.0352248
0.0899744
0.0204074
0.0878954
0.0920352
0.0239422
0.0967056
0.0283009
0.0254766
0.0413938
0.0680356
0.0273776
0.0324949
0.0316531
0.0327252
0.0318852
0.051666
0.00334311
0.0459754
0.0842451
0.0812424
0.0667739
0.0260986
0.095527
0.00229402
0.0233717
0.055058
0.0240775
0.024981
0.0955223
0.0192565
0.0303555
0.0968215
0.0974009
0.0253543
0.0148854
0.0321658
0.0641459
0.0255765
0.0713585
0.0948705
0.0212942
0.0838267
0.0261883
0.0228008
0.023838
0.0183809
0.0499248
0.0869753
0.0541596
0.0306311
0.0974683
0.0249952
0.0243496
0.023401
0.0836733
0.0350845
0.0239587
0.0396644
0.094935
0.0305967
0.0658009
0.0254944
0.0388025
0.029629
0.0325824
0.034687
0.0146185
0.0343191
0.0197191
0.024651
0.0889415
0.0327062
0.0429916
0.0258582
0.0448633
0.0426616
0.0891332
0.0147923
0.0408458
0.074331
0.0413678
0.0254974
0.0377056
0.0197539
0.00223891
0.0418224
0.0382225
0.0431359
0.0316404
0.0861237
0.0802543
0.0237712
0.0310994
0.093703
0.0897355
0.0647419
0.0319385
0.0024771
0.0333796
0.0304906
0.0437253
0.0259722
0.0249796
0.0304815
0.0428171
0.0598301
0.0222434
0.0250062
0.0426884
0.0209177
0.0585426
0.0500569
0.0552549
0.00271507
0.0766469
0.0254913
0.0931632
0.0933204
0.0668649
0.0139572
0.0479116
0.0542022
0.0437783
0.00382509
0.0202255
0.0260781
0.0801722
0.0878136
0.0652413
0.0913801
0.0188164
0.0224746
0.0317749
0.0311382
0.0312982
0.0289401
0.0245824
0.0675286
0.0740874
0.0881864
0.0939325
0.0767857
0.0658612
0.0965248
0.0224238
0.0481017
0.0920348
0.0358607
0.00298237
0.0175988
0.0524011
0.0231708
0.0525091
0.0247058
0.0423854
0.0564983
0.0200742
0.0422721
0.0427684
0.0258255
0.058121
0.0255365
0.0832528
0.0920849
0.0273439
0.0854991
0.0873117
0.0509816
0.0023697
0.0893697
0.0367029
0.0262951
0.0944718
0.0190283
0.0773552
0.0156413
0.0504069
0.0160121
0.0315751
0.0456867
0.0287401
0.00348021
0.0856458
0.0183376
0.041101
0.0309067
0.0879819
0.0669005
0.0361575
0.0860955
0.0406996
0.0614442
0.0247465
0.0434938
0.0906014
0.0124575
0.0414397
0.021206
0.0243879
0.0600277
0.0327044
0.0671613
0.0608561
0.0408028
0.0913587
0.0230016
0.0330436
0.0428769
0.0255247
0.0735333
0.0629865
0.00322275
0.047924
0.0398842
0.0869522
0.0253844
0.0528078
0.0241429
0.0251475
0.0450125
0.0213525
0.060552
0.0938372
0.0895963
0.0450028
0.0674981
0.0647373
0.0517192
0.0237538
0.0477183
0.0250117
0.0452659
0.0420636
0.0315518
0.0428356
0.0913958
0.0244474
0.0833578
0.00431669
0.0572052
0.0159439
0.00401296
0.0676056
0.0235067
0.083823
0.0261965
0.023803
0.0244915
0.0882406
0.0304569
0.0228918
0.0269081
0.0746438
0.0321317
0.0383046
0.0419595
0.0539418
0.0399054
0.0263074
0.0694746
0.0309638
0.0293415
0.0805657
0.0204313
0.0525215
0.0279597
0.00361549
0.0495324
0.0218664
0.0285225
0.0787636
0.0930176
0.0322522
0.0252122
0.0840912
0.0908974
0.0869592
0.0866519
0.083202
0.0784776
0.0220151
0.0555427
0.0774144
0.035143
0.0404712
0.0212433
0.0273473
0.0350687
0.0247121
0.0542377
0.0831229
0.0152874
0.0189565
0.0227047
0.0235445
0.0342037
0.0400344
0.0260527
0.00236165
0.0777877
0.0405523
0.0251899
0.0897098
0.0724617
0.0411024
0.0302824
0.0558161
0.0321695
0.0326439
0.0306032
0.0401404
0.0323009
0.0276932
0.0453805
0.032879
0.0885899
0.0426733
0.0485146
0.0763431
0.0304662
0.0478332
0.0373592
0.039252
0.0298854
0.0322454
0.060174
0.0340214
0.0341502
0.0356811
0.00245609
0.0343942
0.0745788
0.0913457
0.00518009
0.0334647
0.0888665
0.080219
0.0204532
0.0843246
0.0237975
0.052938
0.0953275
0.0237223
0.0316111
0.0885152
0.0248155
0.0307613
0.0248062
0.0190314
0.0741116
0.023894
0.0832681
0.0107011
0.0530659
0.0246182
0.0327378
0.0261072
0.0345396
0.0214728
0.0720965
0.086766
0.0794943
0.065098
0.0436975
0.0326883
0.0882443
0.0340623
0.0884239
0.00833194
0.0444529
0.0433375
0.0234088
0.0233177
0.0781508
0.0684203
0.029911
0.0247447
0.0304861
0.0400362
0.0235371
0.0353772
0.0454079
0.060216
0.0401307
0.0366899
0.0320596
0.0239996
0.080449
0.0363022
0.0361642
0.0465133
0.0450556
0.0504737
0.0378003
0.0297276
0.029377
0.0047942
0.00229166
0.0618268
0.0428566
0.0702354
0.0238033
0.0262179
0.0449659
0.0193515
0.0296336
0.084438
0.0811025
0.0206678
0.0914413
0.0105085
0.0753357
0.0203073
0.0817379
0.0253516
0.0338009
0.0528447
0.0507035
0.0650326
0.00681918
0.0970848
0.022695
0.0512717
0.0220995
0.0804488
0.0626946
0.053225
0.0239131
0.0332322
0.0721583
0.03161
0.0404787
0.0418525
0.074315
0.0242392
0.0550496
0.0194843
0.0818788
0.0213009
0.0178423
0.0382378
0.0386395
0.0843719
0.0606015
0.0307685
0.0390631
0.0482341
0.0228202
0.0536654
0.0387767
0.0241295
0.0152423
0.0882216
0.023169
0.0223884
0.00438418
0.00510202
0.0257373
0.0873983
0.0772299
0.028695
0.0660972
0.0872539
0.0253891
0.0799645
0.0780597
0.0845128
0.0417301
0.0848977
0.0229774
0.00466347
0.0231553
0.0510401
0.0371791
0.0224458
0.0867168
0.0233995
0.0445969
0.0797764
0.0343094
0.0241921
0.088733
0.0793123
0.039915
0.00264518
0.0946679
0.0190082
0.0306668
0.0407454
0.033671
0.0288795
0.0203506
0.0568265
0.00520131
0.0336855
0.0624319
0.0801317
0.0243612
0.0231495
0.0233303
0.0243677
0.0412052
0.0403852
0.0551015
0.0327512
0.0931393
0.0465193
0.0293185
0.0312666
0.0242708
0.0858149
0.0976261
0.0237017
0.0428523
0.0795445
0.0474253
0.0607344
0.0930469
0.0208186
0.0276162
0.0370153
0.0184693
0.0298097
0.0557684
0.0839028
0.0233215
0.0234719
0.019512
0.00524189
0.0623606
0.0235715
0.0168978
0.0710671
0.0579156
0.017763
0.023472
0.0766884
0.0903607
0.0815462
0.0425239
0.0793232
0.051519
0.0879095
0.00552916
0.0220594
0.0928078
0.0230267
0.0130276
0.0257438
0.0254386
0.0431586
0.0503788
0.0435499
0.0778025
0.0162285
0.0400587
0.0592656
0.0641174
0.035439
0.0873942
0.00241542
0.0719091
0.0241447
0.00510646
0.0581755
0.0265392
0.0283259
0.0510481
0.0955383
0.0164886
0.0742858
0.0740192
0.0168793
0.0463046
0.0524991
0.0233408
0.0241039
0.0236747
0.0335946
0.0371213
0.0269533
0.00504854
0.0909034
0.0174694
0.0779669
0.00557934
0.0881732
0.0563708
0.00275761
0.0628797
0.0239978
0.0639487
0.0516253
0.0228237
0.0283177
0.0251041
0.0173729
0.0283112
0.0711981
0.0277629
0.0062436
0.0196824
0.0344286
0.0242127
0.0251501
0.022981
0.0799362
0.00267553
0.0296957
0.0250875
0.0538706
0.0305606
0.035499
0.0693539
0.0920086
0.0648706
0.0235865
0.023426
0.0501299
0.0235787
0.0358756
0.02531
0.0557811
0.0745342
0.0118853
0.00582465
0.0265691
0.0208963
0.0615856
0.0583864
0.0456678
0.0518645
0.0445232
0.0290979
0.086339
0.0879738
0.0443527
0.00626571
0.0311418
0.0197726
0.0516786
0.0401306
0.0445861
0.0228413
0.0204617
0.041215
0.0679456
0.0493557
0.0555587
0.0337416
0.0345981
0.0232916
0.0855721
0.0664106
0.002527
0.0236202
0.0868902
0.0879747
0.0337766
0.015659
0.0908273
0.0529674
0.0169153
0.0226987
0.0514152
0.0358447
0.0254017
0.0581677
0.0104341
0.0723082
0.0171844
0.0899572
0.0459621
0.0249795
0.0546056
0.0236398
0.0345099
0.0343775
0.0712062
0.0252458
0.0236145
0.00534438
0.0276658
0.0235548
0.00434373
0.0608316
0.0759877
0.0234699
0.0231912
0.0351813
0.00274694
0.0205694
0.0233644
0.0213642
0.0953447
0.0233447
0.0250646
0.0370559
0.0299726
0.00538287
0.0267136
0.00251768
0.0212361
0.0156766
0.0573673
0.0526819
0.0624553
0.0167767
0.0239964
0.0182134
0.0185063
0.0242647
0.00330277
0.0309127
0.0273904
0.0777463
0.0309531
0.0355539
0.0936397
0.0174196
0.0239002
0.0240758
0.0281657
0.0373131
0.0429519
0.0174508
0.0594379
0.0481487
0.0850164
0.0822212
0.0100249
0.0322835
0.0820973
0.0246859
0.0228401
0.0102969
0.0694322
0.0302554
0.0217329
0.0423017
0.049945
0.0228449
0.0232306
0.0568456
0.0377387
0.0226197
0.0237062
0.0217119
0.0407998
0.0710797
0.0225958
0.0741636
0.00465431
0.0198384
0.00578046
0.0346394
0.0937667
0.0716421
0.0797729
0.0908057
0.0849673
0.0541527
0.0467867
0.0405061
0.0230689
0.0257453
0.0360434
0.0430198
0.048496
0.00504326
0.0238101
0.0189866
0.0224152
0.0218005
0.0223823
0.0228786
0.055308
0.0326182
0.0190936
0.0509351
0.0200085
0.0228646
0.0270642
0.0216533
0.0859772
0.0867273
0.0212095
0.039955
0.0323606
0.0580738
0.0365362
0.0184735
0.0196297
0.00998155
0.0224182
0.0518291
0.0879585
0.0474016
0.0297153
0.0206108
0.0395609
0.0332765
0.0937673
0.0380519
0.0243373
0.04318
0.0235649
0.084965
0.0330842
0.0538928
0.0249152
0.028212
0.0553391
0.0416333
0.0695814
0.0573595
0.0309724
0.0211039
0.0234695
0.0290195
0.0786873
0.0165718
0.05943
0.0609837
0.0222458
0.0754716
0.0450923
0.0620481
0.0526814
0.0703188
0.0158808
0.026534
0.0668368
0.0865746
0.0274503
0.0149304
0.0545618
0.0225518
0.0378091
0.039604
0.0110571
0.08774
0.0134322
0.0327388
0.0385173
0.0764493
0.071551
0.0206295
0.0322775
0.0448108
0.0337759
0.0235949
0.023699
0.014649
0.0298781
0.0264968
0.0237751
0.0904697
0.0540211
0.07515
0.0780122
0.0189974
0.022325
0.0570928
0.0593461
0.0189608
0.0440872
0.0436941
0.0239438
0.0700181
0.0687317
0.0831759
0.0138366
0.0204706
0.021834
0.0117474
0.0464835
0.0458062
0.0200719
0.031566
0.0718928
0.0228398
0.016242
0.0309403
0.0766982
0.0183652
0.0373011
0.0317883
0.044471
0.0292948
0.0826546
0.0814069
0.0810059
0.0503636
0.0237372
0.0540163
0.0236506
0.0699994
0.0919424
0.0442483
0.0413732
0.0100442
0.0775813
0.0150911
0.0450841
0.0371868
0.0678874
0.0230599
0.0486571
0.0148129
0.0242241
0.0222939
0.0924937
0.0539494
0.0390415
0.0872712
0.0355113
0.0575513
0.0187962
0.0567784
0.0239043
0.0413075
0.00234976
0.0603771
0.0203422
0.0237896
0.0766926
0.01481
0.0673107
0.0176003
0.0614801
0.0255076
0.0498848
0.0203124
0.0689998
0.0479886
0.0892615
0.0754125
0.0263255
0.016618
0.014729
0.0414814
0.0656049
0.0532684
0.0602409
0.0457802
0.0613989
0.0723843
0.0231648
0.0777805
0.0738114
0.0341096
0.0755693
0.0699027
0.0211293
0.0343943
0.0250328
0.0804968
0.0250528
0.0242293
0.0237278
0.09059
0.090862
0.0427226
0.049012
0.0546413
0.0212956
0.0460307
0.0243448
0.0350871
0.0244326
0.0528452
0.0513751
0.0457595
0.020841
0.0827725
0.00460731
0.0195147
0.0330658
0.0703379
0.0473768
0.0707491
0.0210827
0.0235512
0.0246524
0.0886025
0.025717
0.0226197
0.0595425
0.0796417
0.0190548
0.0362858
0.0599769
0.00717096
0.0662151
0.090045
0.00224135
0.0205424
0.0517457
0.075691
0.0598041
0.0268835
0.0359019
0.0468929
0.0236554
0.0239816
0.0208322
0.0232977
0.0634522
0.0758581
0.0288311
0.0875952
0.07064
0.0247556
0.0215315
0.030093
0.0725183
0.0585834
0.0496438
0.0393448
0.0850439
0.0505201
0.0344812
0.0388956
0.03676
0.0838792
0.0388472
0.0522744
0.042324
0.0355955
0.029715
0.0317615
0.0174598
0.0157962
0.0454431
0.0583858
0.031149
0.0481503
0.043651
0.024025
0.0755629
0.0342057
0.0451559
0.0212607
0.0904193
0.029333
0.0204798
0.0290212
0.0195054
0.028094
0.0261382
0.0238063
0.0232195
0.0300724
0.0493276
0.0751856
0.0306758
0.0844646
0.028581
0.0368774
0.0568346
0.0562976
0.0304419
0.0869937
0.0345672
0.0534333
0.0288056
0.0632545
0.025978
0.00241427
0.0919484
0.0287477
0.0527673
0.0496955
0.0346931
0.0235157
0.0236737
0.0322006
0.0210866
0.0246418
0.029913
0.0254773
0.0475848
0.0241683
0.0232597
0.0266433
0.0138349
0.0682247
0.00444257
0.0552681
0.0487634
0.0898963
0.0254592
0.0241258
0.0291764
0.0249821
0.0249622
0.0605287
0.0272783
0.0331883
0.065028
0.0332306
0.0233886
0.00214869
0.0751533
0.0249348
0.00435186
0.0176178
0.0609733
0.0177937
0.0188985
0.0272958
0.071286
0.0246286
0.0236467
0.0197563
0.0354747
0.0173393
0.0875635
0.0394452
0.02674
0.0336586
0.0715716
0.0196099
0.02385
0.0752168
0.085038
0.055863
0.0150464
0.0342463
0.0345648
0.048649
0.0369532
0.0822788
0.0765151
0.0400241
0.0339482
0.0167673
0.0203761
0.0382786
0.020367
0.0838881
0.0111361
0.0221976
0.0335758
0.0694296
0.036108
0.0762466
0.0515675
0.0590272
0.0346542
0.0186002
0.0604562
0.0811885
0.0239216
0.0177206
0.0288181
0.0186489
0.0247634
0.0623653
0.0402343
0.043848
0.0775325
0.0782858
0.0397362
0.0774391
0.0184528
0.0205144
0.0251268
0.0667326
0.0139171
0.0128432
0.0156985
0.0424856
0.0318305
0.0167414
0.0705561
0.0795557
0.0700637
0.0219724
0.0501796
0.0871576
0.0361465
0.0260968
0.0292608
0.0245352
0.077314
0.0179112
0.0397438
0.0294889
0.0450729
0.0233443
0.0288409
0.0399558
0.00625624
0.00551791
0.0297926
0.043956
0.0157535
0.0243772
0.0462103
0.0435172
0.0232487
0.0739174
0.0495209
0.0240831
0.0258685
0.027558
0.0385275
0.0184181
0.0234411
0.0713448
0.0451749
0.0226468
0.0734162
0.0736343
0.0578929
0.0374812
0.0177177
0.0220722
0.0357611
0.0746351
0.0423861
0.0984377
0.0846926
0.0820754
0.0233397
0.0235057
0.0300528
0.0212582
0.0218006
0.018231
0.0698103
0.0241604
0.0247045
0.0240597
0.0157301
0.0633828
0.0123615
0.0357179
0.0147222
0.0137603
0.014659
0.010234
0.062851
0.0350853
0.024339
0.0749072
0.0319487
0.0290255
0.0735092
0.0312954
0.0236746
0.073168
0.0205951
0.0344412
0.0214769
0.0274539
0.0304829
0.0409934
0.0802659
0.0236933
0.0668862
0.0376392
0.0464118
0.028787
0.0822927
0.0850461
0.0242959
0.0197851
0.0295877
0.0103958
0.0360827
0.0675877
0.0844357
0.0483302
0.0148376
0.0848265
0.0176849
0.0293942
0.054776
0.0519068
0.0864739
0.0752503
0.0334176
0.080134
0.0136367
0.0253098
0.0197057
0.0420112
0.0192311
0.0801245
0.017271
0.0227565
0.0206197
0.0121438
0.0128633
0.0202035
0.0379773
0.0573848
0.0399617
0.0644022
0.0543409
0.0398563
0.0190463
0.0209351
0.0368503
0.0294656
0.0239053
0.0236361
0.0244722
0.0126589
0.0235054
0.0185488
0.0231676
0.0313723
0.0234289
0.0160391
0.0411954
0.0363175
0.0767571
0.0866571
0.0384692
0.0239712
0.0353657
0.0352423
0.0684889
0.0286609
0.0283577
0.0316917
0.0263649
0.0798325
0.0293063
0.0236369
0.0235124
0.0204443
0.0297502
0.0356532
0.0740305
0.0773457
0.0137947
0.0301975
0.0737063
0.0360115
0.0710909
0.0795201
0.0383472
0.0732179
0.0724963
0.06705
0.0418153
0.0188863
0.0121734
0.0126464
0.0407789
0.0679927
0.0236348
0.053139
0.0724185
0.0664834
0.0123091
0.0243501
0.0329703
0.0166988
0.0236768
0.0706256
0.0257455
0.0273846
0.0706199
0.0128149
0.080856
0.0739918
0.0292478
0.0164486
0.0296011
0.0566444
0.0720967
0.0117394
0.0115307
0.0139956
0.0884066
0.121904
0.136196
0.140962
0.140081
0.13531
0.128036
0.119275
0.109762
0.100066
0.090559
0.0814959
0.0730395
0.0652755
0.0582324
0.0518995
0.0462409
0.0412065
0.0367391
0.0327844
0.0877025
0.120948
0.135262
0.140114
0.139369
0.134745
0.127616
0.118987
0.109592
0.0999817
0.0905412
0.0815269
0.0731031
0.0653587
0.0583257
0.0519965
0.0463376
0.0413011
0.0368309
0.0328729
0.0869666
0.119975
0.134293
0.139241
0.138631
0.134158
0.12718
0.118687
0.109412
0.099894
0.0905244
0.0815614
0.0731722
0.0654488
0.0584267
0.0521017
0.0464429
0.041404
0.03693
0.0329673
0.0862024
0.118978
0.133294
0.138343