/*--------------------------------*- C++ -*----------------------------------*\
  =========                 |
  \\      /  F ield         | OpenFOAM: The Open Source CFD Toolbox
   \\    /   O peration     | Website:  https://openfoam.org
    \\  /    A nd           | Version:  10
     \\/     M anipulation  |
\*---------------------------------------------------------------------------*/
FoamFile
{
    format      ascii;
    class       volScalarField;
    location    "950";
    object      nut;
}
// * * * * * * * * * * * * * * * * * * * * * * * * * * * * * * * * * * * * * //

dimensions      [0 2 -1 0 0 0 0];

internalField   nonuniform List<scalar> 
23845
(
0.0136117
0.0138641
0.00773294
0.0140858
0.0181612
0.0220735
0.00799059
0.00992384
0.0194612
0.0140997
0.0221308
0.0229031
0.0189883
0.0205927
0.00610915
0.0158008
0.0210876
0.0233395
0.0177631
0.0224157
0.0119538
0.0229175
0.0128971
0.0192205
0.0165192
0.017893
0.00981556
0.0220045
0.00347674
0.0220898
0.0148123
0.00126776
0.00497719
0.0227482
0.0229318
0.022992
0.00109822
0.0229089
0.022591
0.0198767
0.0173272
0.0223238
0.018452
0.0230123
0.0177498
0.0199355
0.0193426
0.0162731
0.00222014
0.00194688
0.0056625
0.0100229
0.0012704
0.0212638
0.00122684
0.0199601
0.0145022
0.0109722
0.0123417
0.0138809
0.00627872
0.0227502
0.0165302
0.00430542
0.0186825
0.0195217
0.00966114
0.0179704
0.0177352
0.0176382
0.00827772
0.0081633
0.0179789
0.00663271
0.0181505
0.0063461
0.0228472
0.0226395
0.0130966
0.0206609
0.0109825
0.00745175
0.0141641
0.0113238
0.00645756
0.0229319
0.00855161
0.00117379
0.0187426
0.0194296
0.00465491
0.017143
0.00375057
0.0228113
0.0105725
0.00546611
0.0204434
0.0161105
0.0182074
0.0193864
0.0199629
0.00926374
0.016952
0.000828464
0.00295306
0.0119587
0.0218644
0.0179293
0.0108783
0.0226639
0.0222353
0.0228565
0.00643786
0.0152159
0.0229572
0.0131107
0.0181798
0.0149787
0.0036654
0.00714253
0.0227153
0.00253167
0.0177448
0.00844324
0.0090002
0.0179552
0.00691389
0.00194406
0.00675752
0.0178937
0.00478216
0.0195106
0.0222359
0.0213176
0.019978
0.0154739
0.000727802
0.022895
0.0109542
0.0225316
0.00228571
0.0224851
0.0227385
0.0232038
0.0168123
0.022911
0.0139938
0.0070127
0.0057053
0.0185447
0.00546976
0.0185892
0.0103358
0.0198396
0.00631923
0.0200423
0.0181539
0.0228691
0.00438916
0.00513658
0.0175206
0.00623407
0.0100372
0.0189137
0.0175762
0.0199326
0.0218915
0.00295212
0.0221671
0.0230141
0.021694
0.0135032
0.0190754
0.009514
0.0188524
0.0121865
0.0169004
0.0199069
0.0179755
0.0228295
0.0198136
0.020194
0.00693191
0.0227789
0.0162687
0.0188801
0.0223876
0.0107659
0.00289858
0.0220596
0.00381792
0.0206244
0.020483
0.0215787
0.0170786
0.0200829
0.00195881
0.00293305
0.000750144
0.0214195
0.0213514
0.0202761
0.00638807
0.0209491
0.010869
0.0101869
0.00739633
0.0221984
0.0116245
0.0230959
0.0218005
0.00282715
0.0163806
0.0218416
0.00330223
0.00121377
0.0220652
0.0226446
0.000550784
0.00546022
0.0179417
0.00648179
0.00183601
0.0186416
0.0231675
0.00565269
0.00074415
0.0206428
0.0221527
0.0173632
0.0226297
0.00289369
0.0228477
0.0178262
0.0186528
0.00503471
0.0185113
0.0147856
0.0187848
0.0123828
0.00158691
0.0144321
0.0119328
0.0194142
0.00307786
0.0164353
0.021696
0.017936
0.0113213
0.00641532
0.0204917
0.0229168
0.00567773
0.0181391
0.00690647
0.00478227
0.00714246
0.00718079
0.0228367
0.0194327
0.000837131
0.0229269
0.00750291
0.0218414
0.0214233
0.0192863
0.0128647
0.00706558
0.0156373
0.014473
0.0227001
0.0132176
0.00509878
0.0207771
0.0230891
0.0203007
0.00691813
0.0207949
0.00191844
0.0133019
0.0117046
0.0220765
0.00731404
0.0177107
0.0229404
0.00580836
0.0105167
0.0198838
0.0103634
0.00663732
0.0123005
0.00372157
0.00485079
0.00685221
0.011359
0.0229133
0.00508581
0.021347
0.0229356
0.00399485
0.00412047
0.00584035
0.00490932
0.0148018
0.021239
0.0150714
0.00389292
0.00528654
0.0198387
0.00184825
0.00482295
0.011528
0.0186646
0.0217404
0.0109202
0.0021844
0.00518976
0.0219449
0.00449562
0.0179395
0.00274192
0.00290971
0.00462697
0.021873
0.00652154
0.022302
0.0139457
0.0174153
0.00725449
0.0235347
0.00816484
0.0188947
0.00540986
0.0229738
0.00658272
0.0143632
0.0126857
0.0235566
0.0226743
0.0132974
0.0127236
0.00510803
0.0226177
0.0178151
0.0177049
0.00143306
0.0229739
0.00612045
0.0135674
0.00552267
0.013463
0.00472397
0.00183154
0.00662514
0.00127716
0.0205293
0.0232439
0.0184209
0.0067826
0.0116521
0.00745771
0.0185933
0.0141995
0.0179521
0.00323877
0.0217223
0.00703752
0.0226657
0.00380709
0.0179303
0.0228611
0.00407984
0.00305484
0.0229092
0.0228101
0.00530329
0.0103292
0.0137507
0.0226897
0.0121341
0.00689383
0.0229136
0.0127887
0.0177662
0.0178416
0.0227739
0.0224567
0.012897
0.0224379
0.0115546
0.00912884
0.0230401
0.00357635
0.00283006
0.00434067
0.00425307
0.0223326
0.0177166
0.0176146
0.0229805
0.0119736
0.0159122
0.00907996
0.0118113
0.0135107
0.00675257
0.0222923
0.00336065
0.00308713
0.0078923
0.00594179
0.0178682
0.0076356
0.00603463
0.0171669
0.0102975
0.0160099
0.0233767
0.0224945
0.0134897
0.0036476
0.0226368
0.0197419
0.0136361
0.0081866
0.012643
0.00347726
0.0147135
0.00948688
0.00845008
0.0203468
0.0230374
0.00473145
0.0238754
0.0208993
0.0179832
0.0229239
0.0189093
0.00455594
0.0107444
0.00641194
0.00317754
0.00279662
0.00645674
0.0152404
0.00465744
0.0220988
0.0173688
0.0225605
0.0125057
0.0132123
0.0187717
0.0029925
0.0229616
0.0179134
0.00527421
0.0146164
0.0205777
0.0082313
0.0208544
0.010565
0.0144805
0.000739805
0.0160303
0.0225317
0.0224795
0.0217724
0.0031485
0.0178237
0.00531539
0.0219831
0.0220416
0.0158456
0.00754524
0.00431727
0.0194142
0.0185703
0.00331424
0.0215315
0.018554
0.0185658
0.0172315
0.0152925
0.0231849
0.0229654
0.00740564
0.0227876
0.0228708
0.00857589
0.00687276
0.0180495
0.00447812
0.0058345
0.0179297
0.0103996
0.0192029
0.0180191
0.00973655
0.0184006
0.0229094
0.00924093
0.00249637
0.00556717
0.0191547
0.0119068
0.0126209
0.0223982
0.0180931
0.0224443
0.00617376
0.0152979
0.00468381
0.00113964
0.0155977
0.0210025
0.0177896
0.0167126
0.00494835
0.00552498
0.0222816
0.000795885
0.0207062
0.0232756
0.00423217
0.0176557
0.00786246
0.00676188
0.00487942
0.0120247
0.00403344
0.00523616
0.00392291
0.0213375
0.0138061
0.0187995
0.0180795
0.0213618
0.00586322
0.0205134
0.0131993
0.00689267
0.0205622
0.0135691
0.0132613
0.0171153
0.0131911
0.0232918
0.0187221
0.0218043
0.0192758
0.0197959
0.0229364
0.0084192
0.0198504
0.010744
0.0111447
0.0229081
0.00506653
0.0229826
0.0223954
0.0111945
0.0138701
0.0149746
0.0223697
0.0228875
0.00273668
0.00337762
0.0180391
0.00426082
0.0181337
0.0176756
0.00790938
0.0188499
0.0219684
0.0153695
0.0203041
0.00796596
0.00488068
0.00792036
0.0202374
0.0175917
0.0228544
0.0170418
0.00738934
0.00453206
0.0233952
0.0179525
0.0179976
0.00801243
0.018132
0.0139504
0.00562598
0.0129601
0.0232056
0.00672836
0.0233358
0.0176326
0.0207476
0.0233664
0.0228227
0.00936821
0.0213448
0.0214857
0.00679778
0.0116437
0.0181488
0.00746283
0.0208204
0.00751853
0.0199701
0.0187433
0.0174191
0.013956
0.0206141
0.00408537
0.0146217
0.0224314
0.0182855
0.0220366
0.0210096
0.0211811
0.00635686
0.0201708
0.0207735
0.0165747
0.0238983
0.0173968
0.0235903
0.0175844
0.0156005
0.0189303
0.0195965
0.0174864
0.0221838
0.0229128
0.00617833
0.0157707
0.0151992
0.0175845
0.0231053
0.0166474
0.0226955
0.0225348
0.0181157
0.0139018
0.0203678
0.0122483
0.0181096
0.0183914
0.00634635
0.0230485
0.0229561
0.022685
0.012573
0.00534276
0.00433379
0.00437416
0.016785
0.00793727
0.0221587
0.0220238
0.0185569
0.0219905
0.0171532
0.0210135
0.0175581
0.0175996
0.020143
0.0161719
0.0201968
0.0159241
0.0239026
0.0210179
0.0239614
0.023971
0.0234092
0.023984
0.0228931
0.0206792
0.0211284
0.0209373
0.0239555
0.0220706
0.0238806
0.0211814
0.019882
0.0200253
0.0238758
0.0217363
0.0186441
0.0237225
0.0217396
0.0240362
0.0240514
0.0239419
0.0238392
0.0236431
0.0240347
0.0232483
0.0240254
0.0204602
0.0239645
0.0203715
0.0239445
0.0227754
0.0220291
0.0238969
0.0236319
0.023742
0.0178922
0.0211507
0.0161223
0.0187527
0.0212268
0.0211366
0.0236969
0.0220233
0.0221867
0.0236365
0.02382
0.0237855
0.023856
0.0235621
0.0212585
0.0229275
0.0169609
0.0176439
0.0224656
0.0189256
0.023716
0.0235212
0.0233818
0.0226995
0.0212631
0.0231371
0.0227867
0.0219483
0.0234775
0.0201871
0.0214474
0.0177352
0.0234144
0.0213852
0.00874738
0.0181112
0.0234681
0.0229261
0.0234134
0.0217975
0.0223544
0.00758108
0.0219342
0.0177392
0.0200828
0.0211192
0.00768638
0.0197633
0.0199717
0.0237218
0.0238886
0.0231796
0.0222907
0.0240602
0.0232145
0.0231419
0.024065
0.0184566
0.0239097
0.0152832
0.0237922
0.0233656
0.0237963
0.0238501
0.0225076
0.0133577
0.0201007
0.0221008
0.0192433
0.0199726
0.0221747
0.0237314
0.0239244
0.00488256
0.0202772
0.0213361
0.023329
0.0190319
0.0233383
0.0233017
0.0233299
0.0236142
0.0208775
0.0220435
0.0223024
0.0234525
0.0212361
0.0169612
0.0235369
0.0219202
0.0234268
0.023417
0.0205048
0.0227412
0.0212395
0.0213598
0.0211169
0.0221076
0.0217602
0.0213453
0.0219536
0.0165001
0.0184404
0.0235801
0.0196937
0.02328
0.0238145
0.00436513
0.0214724
0.0174102
0.016919
0.017683
0.0176324
0.0164985
0.0175846
0.0175557
0.0178064
0.0174212
0.017699
0.0175781
0.017711
0.0176606
0.0178015
0.0175072
0.0173717
0.0175944
0.0175983
0.0161221
0.0233286
0.0234703
0.00887288
0.0234588
0.0176396
0.0191019
0.0226537
0.0185628
0.0239774
0.0213501
0.0240601
0.0221173
0.0173037
0.0173964
0.0171298
0.0164019
0.0239592
0.0219648
0.0223555
0.0192011
0.0173867
0.0229118
0.00700633
0.0229201
0.0172115
0.0220401
0.0224719
0.0233243
0.0199459
0.0166745
0.0171532
0.0150114
0.0156882
0.0170918
0.0146329
0.017561
0.0174419
0.0175795
0.0175057
0.0175293
0.0175556
0.0187166
0.0235618
0.0233719
0.0179872
0.0221566
0.0188009
0.0171186
0.0237467
0.0170372
0.0148237
0.0171333
0.0175005
0.0165928
0.0175831
0.0154867
0.0174234
0.0175506
0.0143986
0.0174297
0.0175607
0.0238093
0.0212837
0.0228699
0.0165856
0.0237327
0.0219407
0.0239236
0.0209044
0.0237853
0.023349
0.0215983
0.0035836
0.0229697
0.0239426
0.0237945
0.0238682
0.021122
0.0237587
0.0229536
0.0169459
0.0236673
0.0233705
0.0054235
0.0025596
0.0236102
0.0235187
0.0209419
0.0165456
0.0217116
0.00595981
0.0231956
0.0177153
0.0180811
0.0175367
0.0221654
0.0234279
0.0197081
0.0202041
0.0231816
0.0128118
0.017507
0.0228196
0.0231126
0.0177154
0.0237266
0.0234394
0.0236131
0.0198333
0.0176626
0.0237127
0.0237777
0.0238368
0.023554
0.0235569
0.0217817
0.0233913
0.0198299
0.0213972
0.0217061
0.0235273
0.017034
0.0232675
0.0236677
0.0211318
0.0235268
0.0230049
0.0234949
0.0187862
0.0233751
0.0232861
0.0230075
0.0195977
0.0220747
0.0220171
0.0130801
0.0232765
0.0200606
0.0233248
0.0233992
0.0209385
0.0181754
0.0237215
0.0212443
0.0155037
0.0200816
0.0232902
0.0234456
0.0232485
0.0231979
0.0158279
0.0231706
0.0230583
0.0226244
0.0160363
0.018682
0.0231627
0.0229796
0.0222188
0.0187878
0.0216331
0.0205098
0.0190548
0.0219772
0.0224359
0.0232753
0.0196261
0.0185943
0.0201977
0.00172705
0.0204724
0.00478557
0.0195431
0.0217039
0.00196769
0.0231765
0.0178392
0.0228277
0.0175169
0.0226742
0.0233888
0.0220954
0.0213142
0.0227069
0.00581131
0.0233363
0.0233888
0.0185962
0.019407
0.0184499
0.0160074
0.0233572
0.0232396
0.0220096
0.0233605
0.0213928
0.0177928
0.0214946
0.0199417
0.0222431
0.0161649
0.015206
0.0158052
0.0149093
0.0145608
0.0236102
0.0234244
0.0218875
0.0192145
0.0193087
0.0238107
0.0190265
0.0238779
0.0221985
0.0240243
0.0235608
0.0240447
0.0240243
0.0237085
0.0239173
0.0239277
0.0237704
0.0235155
0.0223025
0.0235408
0.0137947
0.0229919
0.0232256
0.0142185
0.023134
0.0187213
0.0230118
0.0228817
0.023729
0.0235201
0.0221197
0.0233043
0.0191045
0.020538
0.0210068
0.0181671
0.0230898
0.0141998
0.022143
0.0178626
0.0240492
0.022511
0.0196496
0.00441705
0.00849707
0.0207514
0.0189106
0.0185687
0.023492
0.022702
0.0232202
0.0237273
0.0197872
0.0238533
0.0239864
0.023882
0.023804
0.00265124
0.0238688
0.0169668
0.0232447
0.0237654
0.0179253
0.018538
0.0209918
0.00438884
0.0235485
0.0177575
0.0181634
0.023523
0.0227599
0.0234109
0.0231518
0.0207714
0.0224463
0.0234773
0.023413
0.0127884
0.0231701
0.023204
0.0228846
0.0142742
0.0198722
0.0220997
0.0221438
0.0179367
0.0182799
0.0233292
0.019643
0.018111
0.00930527
0.0179451
0.0231631
0.0186184
0.0227916
0.0222597
0.0232682
0.0235748
0.0215402
0.0233448
0.0231898
0.0229587
0.0226314
0.0224259
0.022725
0.0214906
0.0231787
0.0237094
0.022016
0.0125987
0.0106566
0.0223208
0.0217576
0.0214218
0.0198836
0.0209836
0.0175093
0.0221705
0.0233686
0.0142535
0.0228678
0.0222597
0.023193
0.0203695
0.0222685
0.0179038
0.0213907
0.0224911
0.0187451
0.0218199
0.0192335
0.0223583
0.0221171
0.0202442
0.0209275
0.0200711
0.0200227
0.0222488
0.0230962
0.0220831
0.0239684
0.0175761
0.0237576
0.018007
0.0174846
0.016205
0.017797
0.0177062
0.0156705
0.0177228
0.0174745
0.0150433
0.0177911
0.0175709
0.014358
0.0176093
0.0176836
0.0147401
0.0210808
0.0185319
0.0196466
0.0205001
0.0150535
0.0223977
0.0230665
0.0200483
0.0172886
0.0197278
0.021059
0.0152652
0.0218251
0.0230771
0.0157091
0.0236369
0.0220762
0.0238289
0.0185147
0.00241301
0.0219415
0.0232496
0.0231045
0.0228692
0.0231216
0.0234363
0.0234075
0.00566679
0.0238367
0.0233913
0.0230248
0.0199102
0.0235176
0.0231894
0.0124967
0.0201285
0.0198306
0.0175005
0.0189658
0.0232823
0.0230903
0.02017
0.00499039
0.0231434
0.0157477
0.0220758
0.0227077
0.0102269
0.0136815
0.0215743
0.0211217
0.0198961
0.018456
0.0211732
0.0212013
0.0211653
0.0130256
0.0223873
0.0205656
0.0189987
0.0188454
0.0180733
0.0197062
0.0235596
0.0228754
0.00379646
0.0201194
0.0201545
0.0171057
0.0229202
0.000918591
0.0204772
0.0046072
0.0230764
0.0177709
0.0210747
0.0213734
0.0226974
0.0209929
0.021813
0.0209565
0.0214217
0.0185845
0.0179821
0.0208585
0.0230313
0.018446
0.0183871
0.0218063
0.0213235
0.0219554
0.0209845
0.0185206
0.0219592
0.0238194
0.019836
0.0210155
0.0151606
0.0225181
0.0183164
0.0209803
0.0240642
0.0229917
0.0197933
0.00655453
0.0174835
0.0172401
0.0214809
0.0193495
0.0219016
0.0206755
0.0173349
0.0207916
0.0126436
0.00595038
0.0186589
0.0217114
0.0219758
0.00522459
0.0211893
0.020888
0.0205932
0.0185148
0.0151489
0.0228454
0.0217663
0.00523871
0.0115673
0.0211473
0.018497
0.017357
0.0203486
0.00511098
0.022673
0.0136034
0.0226288
0.0153647
0.0186347
0.018153
0.0114472
0.022873
0.00591475
0.0144789
0.0200125
0.00805419
0.0201424
0.015594
0.0141069
0.012457
0.0216692
0.0197406
0.0119553
0.0230376
0.0168511
0.0217709
0.023358
0.0223362
0.0201703
0.0168387
0.0230558
0.0192555
0.0209282
0.019512
0.0222371
0.0232857
0.0200121
0.0231834
0.0217365
0.0154887
0.00978321
0.0184244
0.0230333
0.0220572
0.0222815
0.0213967
0.0222662
0.0226918
0.0071688
0.0185095
0.0168774
0.00100747
0.0208664
0.0210761
0.019703
0.020745
0.0171423
0.0151715
0.0232009
0.0237119
0.0238891
0.0207199
0.0225157
0.0211259
0.0177073
0.0230345
0.0226602
0.0151491
0.00461017
0.019699
0.0193119
0.0204084
0.0111578
0.022031
0.020668
0.0224713
0.022757
0.0230775
0.0218489
0.0215158
0.0204563
0.022593
0.0229034
0.0227317
0.008303
0.00737669
0.0232719
0.021703
0.0202506
0.0222402
0.0193633
0.023133
0.0218456
0.0197475
0.0222931
0.00236399
0.0191313
0.00702438
0.0227718
0.0230809
0.010485
0.0212636
0.0210362
0.0221667
0.0200539
0.019929
0.0184467
0.0207381
0.0170312
0.0228364
0.0226693
0.0232614
0.021309
0.0125009
0.0224876
0.0196387
0.0234257
0.0170527
0.00811759
0.0222741
0.0195549
0.0138907
0.0230892
0.0227535
0.0222705
0.0177749
0.00566037
0.0038151
0.023593
0.0229069
0.0200518
0.0209136
0.0159641
0.0192975
0.0229896
0.0214267
0.0170806
0.0199059
0.0136211
0.0222864
0.0208988
0.0198298
0.0132864
0.0193037
0.0205779
0.0203597
0.00710968
0.0204504
0.0200144
0.0152343
0.0229254
0.0185575
0.0199057
0.0164426
0.00502161
0.0179728
0.02063
0.0213886
0.00439116
0.0198137
0.0174549
0.0191407
0.0111488
0.0219719
0.0179945
0.0201429
0.0110608
0.015607
0.023071
0.0200102
0.0229855
0.0227668
0.0184517
0.00903988
0.0222767
0.0230591
0.0230041
0.0139871
0.0211443
0.0180702
0.0185227
0.0230483
0.0228304
0.00732201
0.0200722
0.0217893
0.0229559
0.0184533
0.0103838
0.00511209
0.00269486
0.00703971
0.0115381
0.020295
0.0182581
0.0227496
0.0209731
0.0229755
0.0179772
0.0230777
0.00691591
0.00393226
0.0228851
0.0230523
0.0153688
2.04994e-05
0.0151847
0.00824515
0.0216706
0.0131412
0.0230423
0.0194164
1.67944e-05
0.0227857
0.0143397
0.0223022
0.0224918
0.0156473
0.00322356
0.00795995
0.0137775
0.0152224
0.0178995
0.00182697
0.0210961
0.0137038
0.0227464
0.0113878
0.0194452
0.018753
0.0187995
0.0223715
0.01928
0.0221315
0.00271365
0.0150109
0.00649667
0.00758107
0.0228794
0.0144586
0.0221883
0.021506
0.0229096
0.0191946
0.0098819
0.0220902
0.0199136
0.0130288
0.00573584
0.0233234
0.0214024
0.0122119
0.0213284
0.0232635
0.0200061
0.01776
0.0201939
0.0194111
0.022991
0.0062259
0.0225964
0.0225323
0.0230084
0.016021
0.0134837
0.020654
0.0179931
0.0127209
0.0157337
0.0159426
0.0211616
0.00387918
0.0174742
1.64762e-05
0.0122781
0.0114136
0.0221811
0.0231447
0.0109064
0.0117818
0.0201291
0.022421
0.0144381
0.0172755
0.0176444
0.0169782
1.77413e-05
0.0227053
0.00715569
0.0225594
0.00486605
0.0229914
0.0223896
0.023278
0.0227396
0.00402931
0.0222219
0.0138201
0.00276474
0.0233361
0.0174402
0.0138228
2.17834e-05
0.0199267
0.02192
0.0202516
0.019339
0.0115923
0.0176702
0.0132325
0.0139196
0.0140908
3.19566e-05
0.0191394
0.0219886
0.017991
0.00641981
0.02313
0.0125919
0.0190769
0.0187942
0.0183691
0.0231806
0.00674742
0.0207583
0.0223304
0.0169033
0.0181114
0.0103846
0.0132439
0.00533804
0.00786574
0.015832
0.0021758
0.0148809
0.0207918
0.0175997
2.42695e-05
0.0179755
0.0128967
0.0227822
0.00411911
0.00502821
0.0235322
0.0233042
0.0176537
0.0220961
0.0231195
0.0221037
0.0237617
0.0222384
0.0121644
0.0188476
0.0190081
0.0216905
0.0216583
0.0146601
1.54264e-05
0.00488833
0.0111477
0.00562402
0.0125644
0.0030474
0.0224911
0.017924
0.00377629
0.0175814
0.0062737
0.0153613
0.0173027
2.83583e-05
0.0221122
0.0188914
0.0131123
0.0229997
0.00959175
0.0130377
0.0166461
0.00683112
0.0228033
0.0125447
0.0174471
0.0231693
0.0125937
0.000805626
0.0185547
0.0180936
0.017863
0.0221434
0.0226957
0.00511305
0.0232492
0.018459
0.0119495
0.0228751
0.00921544
0.0164495
0.0220981
0.0177272
0.00569606
2.63386e-05
0.0090821
0.0104016
0.0114917
0.0215566
0.0157288
0.0226119
0.0224427
0.0144586
0.0201055
0.00694027
0.0126908
0.0115205
0.0114198
0.0222677
0.0130857
0.0228893
0.0188209
0.0227685
0.0188212
0.0136924
0.0230504
0.0201306
0.018061
0.00602366
0.0227444
0.00756239
3.74431e-05
0.0234505
0.00198295
3.42813e-05
0.0122553
0.0229437
0.00449644
0.0180573
0.0221226
0.0229297
0.00527126
0.022744
0.0204022
0.0216442
0.0141077
0.0210697
0.011865
0.0217255
0.0233875
0.0169198
0.0218745
0.016671
0.0202498
0.0177985
0.0190578
0.0194295
0.0234808
0.0190385
2.88768e-05
0.0164507
0.0199387
0.00339717
0.0167362
0.0121441
0.0221209
0.0218609
0.00729862
0.0114996
0.00838597
0.0116496
0.00887782
0.0102621
0.0197833
0.0118345
0.00943399
0.0187797
0.0122355
0.0198171
0.00637791
0.00436444
0.00516125
0.0162886
0.00823886
0.00110243
0.0191648
0.0229211
0.0229189
0.00851381
0.0129261
0.00371147
1.87342e-05
0.00928667
0.0185778
0.0221768
0.0127768
0.004525
0.0134089
0.0172478
0.013665
0.0226932
0.00858367
0.00320031
0.0117004
0.008805
0.00670263
0.0132088
0.0209769
0.00723173
0.0129839
0.0035688
0.0130421
0.00782569
0.0174914
0.0113182
0.0042911
0.0178668
0.00669698
0.0147973
0.0189295
0.00900509
0.0173229
1.91687e-05
0.00852048
0.0176855
0.013591
4.8095e-05
0.0168272
0.0145645
0.00560613
0.017875
0.0127338
0.0181288
0.0222828
0.0192751
0.0219364
0.0228011
0.0215523
0.0214428
0.0200701
0.0222784
0.0180146
0.0099831
0.0227689
0.0152236
0.000799162
0.00906125
0.0222736
0.0170839
0.0178696
0.00854928
0.019674
0.0056179
0.00823649
0.0214928
0.0123776
0.0119483
0.0073535
0.0217492
0.0189559
0.00981494
8.93363e-05
0.00644459
0.0225941
0.0229414
0.0214038
0.0211629
0.0132828
0.0203523
0.0220261
0.0203144
0.010214
0.0210074
0.0167314
0.0183694
0.0230128
0.00871142
0.017573
0.0176464
0.0180617
0.00949158
0.0197815
0.00998767
0.023764
0.0175895
0.023476
0.0162925
0.00768081
0.00686123
4.42358e-05
1.75495e-05
0.0184048
0.0166474
0.0101307
0.0223376
0.00601793
0.0194796
0.0176623
0.0189308
0.019247
0.00839681
0.0197546
0.0177997
0.000742651
0.00589915
0.00276924
0.0106557
0.0173571
0.00916084
0.00409942
0.0227734
0.016163
5.60095e-05
0.0164326
0.0229258
0.0120274
0.0205984
0.0143732
0.0123067
0.0140427
0.0211325
0.0179204
0.0108401
0.0222578
0.016041
0.0224896
0.0150555
0.0227458
0.0112954
0.0179658
0.00812663
0.0201544
0.0186191
0.0185132
0.0174976
0.010358
0.0119391
0.0216452
0.0202183
0.0220366
0.0228823
0.0171561
0.0218001
0.00265229
0.00187113
0.00737197
0.022808
0.0203071
3.79311e-05
3.80857e-05
0.00314829
0.00475935
0.00971202
0.0188789
0.0151703
0.00870809
0.0229612
0.00899617
0.0231103
0.0176967
0.0224936
0.00912618
0.0228166
4.012e-05
0.0227157
0.00507255
0.0109561
0.0203708
0.00746591
0.0178422
0.00414239
0.0152659
0.0177041
0.0188708
0.00717248
0.00453463
0.0184847
2.27549e-05
0.0132829
0.0188345
0.0057137
0.0223199
0.00861388
0.0205132
0.0187567
0.0225834
3.49253e-05
0.0215995
0.00842016
0.0213702
0.0215997
0.0227345
0.0226044
0.0223666
0.0209206
0.00942609
0.014127
0.0169046
0.0151193
0.0175891
0.0224508
0.0229642
0.0221147
0.00818856
0.0176077
0.0226277
0.017745
0.0222245
0.0237487
0.00523148
0.0202767
0.0181052
0.0204082
0.011197
0.0179042
0.0197723
0.00841613
0.0116344
0.022633
0.0224824
0.00257172
3.71226e-05
0.00415413
0.0212138
0.0180493
0.00421308
0.021132
0.0186487
0.0225107
0.00994719
0.0158362
0.00582664
0.0225541
0.00930353
0.0153177
0.00601016
4.35102e-05
0.0185424
0.0207004
0.0202955
0.000906215
0.0226357
0.0197166
0.0160013
0.0149238
0.0189719
0.021463
0.0179262
0.0199374
0.0227264
0.00932663
0.0187678
0.00800743
1.96029e-05
0.0115251
0.0199463
2.54498e-05
0.0132015
0.0059914
0.00620703
0.0193635
0.0194753
0.0182488
0.0160816
0.00984416
0.0185976
0.0101102
0.0223292
0.0189302
0.0200609
0.0228181
0.00902351
0.021313
0.0225227
4.33972e-05
0.00531714
0.0184697
0.0102459
4.68262e-05
0.00765594
0.0131051
2.3004e-05
0.00522207
0.0225505
0.0169145
0.014735
0.0228561
0.0175802
0.022901
0.0181199
0.0189125
0.0181962
0.00670988
4.95839e-05
0.0186041
0.00928869
0.0223458
0.021928
0.0227927
0.00880705
2.18399e-05
0.0172779
0.0230298
0.00928354
0.00810372
0.00295143
0.0118011
0.0183106
0.0127931
0.0220419
0.0217838
0.0190364
0.0223656
0.0104308
0.0221495
0.0137328
0.0105241
0.000850111
4.50244e-05
0.0222506
0.0190398
0.0158883
0.0107373
0.0109416
0.01688
0.0155125
0.00629396
0.00527571
0.00773345
0.00552505
4.84582e-05
0.00640613
0.0191597
0.02237
0.0188318
0.00468236
0.0210357
0.0176353
0.0205942
0.0114301
0.0151974
0.0145263
0.00960993
0.00900533
0.0211403
0.00983555
0.0155381
2.15062e-05
0.0222122
0.00491231
0.0103503
0.0030956
0.0175917
0.0104457
0.0150579
0.00181101
0.0229041
0.0147072
0.0175889
0.0223917
0.0225269
0.000641069
0.0199512
0.00134142
0.00627669
0.00339085
0.0227117
0.00543622
0.0228626
0.00986105
0.017087
0.0111785
0.0225912
0.0228965
3.46614e-05
0.00669113
0.0219949
2.37448e-05
0.0127993
0.0214057
0.0218354
0.0215232
0.0100065
2.04351e-05
0.0195836
0.0212638
0.0185436
0.0150007
0.0200272
0.0219553
0.0165401
0.0171105
4.57004e-05
0.0180571
1.97773e-05
0.0201688
0.00196616
0.00452639
0.0141672
0.0148329
0.00213145
0.0226544
0.0179916
0.0183243
0.0207197
3.04897e-05
0.0191612
0.0223611
0.0102477
0.00780459
0.00993222
0.0168346
0.00196127
0.0187616
0.0210677
0.022786
0.0102512
0.0104606
0.0186762
0.0077021
0.0211639
0.00766976
0.00820327
0.000680133
0.0201972
0.00841953
0.0215777
0.022927
0.000729769
0.00415003
0.0203977
0.0194782
0.0124102
0.0141811
0.0212292
0.0215471
0.0148431
0.0108688
0.0229343
0.022944
0.00397421
0.0216762
0.0110665
0.0229441
0.00407253
2.99978e-05
0.0179427
4.09656e-05
0.00988143
0.0199627
0.0113442
0.00888874
0.0121743
0.00845913
0.0164365
0.0210634
0.0200602
0.0227801
0.022409
0.0107455
0.0186191
0.0057613
3.27519e-05
0.0224782
0.0191525
0.0202144
0.0205618
0.0209068
0.0212462
0.0233232
0.0187864
0.0186701
0.0216167
0.0182272
0.0200369
0.0196043
0.018641
0.021113
0.0215498
0.00235797
0.00857175
0.00868514
0.00919037
0.018323
0.00294151
0.0195242
0.000696873
0.0209295
0.0172256
0.00978605
0.014
0.0179342
0.0196574
0.0214181
0.00257344
0.020598
0.0118084
0.0208843
0.0209404
0.0223177
0.0110986
0.00906854
0.0156602
0.0173899
0.020525
0.0227526
0.01928
0.0126052
0.0155743
0.0176536
0.0202017
0.0207433
0.0191888
0.0112958
0.00112873
0.00381791
0.0145857
0.00417422
0.0112055
0.00754363
0.0132978
0.01416
0.0092951
0.00205257
0.0215112
0.00605326
0.0106306
0.00602589
0.00184599
0.0155673
0.0193996
0.0111717
0.0190422
0.000772286
0.007935
0.000927384
0.0189144
0.0170925
0.0110625
0.00602018
0.0196626
0.00738736
0.0140484
0.0211278
0.0221597
0.0220719
0.0179059
0.0177069
0.0226336
0.0229052
0.00564518
0.0228832
0.00979493
0.00977266
0.00250706
0.0206335
0.0135807
0.0141053
0.00195814
0.017712
0.0136382
0.022942
0.00444264
0.0112505
0.00917406
0.0176808
0.0193624
0.0205937
0.00083645
0.011641
0.0158207
0.019201
0.00830573
0.0108428
0.0209681
0.0182785
0.0171848
0.00688978
0.017932
0.0199324
0.00842559
0.0138008
0.0229249
0.00710629
0.0163293
0.00600153
0.01731
0.00245046
0.0100812
0.0209571
0.0169122
0.00571736
0.0141475
0.0219466
0.000713381
0.00986304
0.0010574
0.0125974
0.0113495
0.0145415
0.0210827
0.00628118
0.0177781
0.0222206
0.0196151
0.0206084
0.0222178
0.00343344
0.0076166
0.00955451
0.0134112
0.0188002
0.0151442
0.0229714
0.0165459
1.81646e-05
0.0132801
0.0198462
0.0215756
0.0108474
0.0177683
0.00720107
0.018067
0.00614863
0.0225719
0.00812623
0.0199219
0.00845313
0.016767
0.0208458
0.00911303
0.00268186
0.000971254
0.0179595
0.00319265
0.0128214
0.0109175
0.0167283
0.0159269
0.0135803
0.0159887
0.0212909
0.0178936
0.0101909
0.0167526
0.00989221
0.00476246
0.0202566
0.00941149
0.0184096
0.00876379
0.0228384
0.0220006
0.0222125
0.0201459
0.0058168
0.00627888
0.0174131
0.0140034
0.020172
0.0202889
0.0174364
0.0187223
0.0225608
0.0229176
0.0235074
0.0195258
0.0180722
0.00814974
2.6585e-05
0.0195648
0.0177636
0.0137123
0.00544139
0.0162569
0.0190222
0.0225027
0.00534276
0.0202227
0.0229423
0.0229421
0.00380259
0.0225618
0.0185144
0.0198706
0.01497
0.00022033
0.0109052
0.0211854
1.67077e-05
0.00360947
0.0228515
0.0108446
0.00586009
0.0221675
0.00982473
0.0183714
0.0223873
0.0181076
0.00371609
0.0189126
0.0136867
0.0101324
0.0226299
0.0208606
0.00463635
0.0178344
0.00279822
0.0212496
0.0143899
0.0154889
0.0233983
0.012333
0.0072658
0.0221543
0.0181825
0.0123082
0.0194979
0.00762947
0.00341597
0.00574944
0.0175466
0.0183978
0.0224163
0.00853388
0.0185137
0.0182439
0.0193752
0.0153219
0.0223241
0.0238026
0.0183187
0.021902
0.0120223
0.00984721
0.0162469
0.0201961
0.00567711
0.0199202
0.0176028
0.0173338
0.00121304
0.0229473
0.0194674
0.00401058
0.0184445
0.022513
0.0220783
0.00993169
0.0225431
0.0134022
0.00705062
0.0204983
0.00771938
0.0171565
0.0231359
0.00605167
0.00886942
0.00383067
0.0179719
0.0138221
0.0173149
1.91096e-05
0.00567641
0.0228816
0.0144806
0.0227459
0.00972507
0.0225308
0.022499
0.0208198
0.0185226
0.0190933
0.0228679
0.00343989
0.0192476
0.0205276
0.022708
0.019787
0.000958016
0.0130111
5.23258e-05
0.0186513
0.0233432
0.00538118
0.0226003
0.0220932
0.018958
0.0229708
0.022849
0.0162051
0.0183752
0.0194538
0.0133052
0.00933336
0.00479371
1.08605e-05
0.0117273
0.0219605
2.75736e-05
0.00228763
0.0147738
0.00110925
0.00187875
0.00412194
0.0118336
0.0190335
0.00350366
0.0176605
0.0095877
0.0185575
0.0179163
0.0210453
0.0187471
0.00794644
0.0154911
0.00130874
0.0218765
0.0235451
0.021922
0.0160658
0.0177905
0.0196233
0.0168094
0.0109756
0.0171753
0.0049051
0.0230133
0.0223569
0.00970175
0.0185462
0.017746
0.0162385
0.0179305
0.0156665
0.000767672
0.0207194
0.0213216
0.0133557
0.0172319
0.0106637
0.0110892
0.013173
0.0181684
0.0190826
0.0141306
0.00804504
0.0207602
0.0188743
0.00700921
0.0191975
0.0204195
0.0144608
0.020865
0.00407793
0.020498
0.00992531
0.020104
0.0231123
0.0179898
0.0197123
0.0215592
0.012413
0.0178625
0.0177733
0.0181735
0.0131571
0.00870169
0.0184542
0.0155209
0.00882232
0.0116313
0.0196464
0.0100627
0.00704913
0.00375773
0.0228746
0.00554722
0.0181007
0.00947359
0.0188948
0.0126535
0.00284236
0.00590636
0.0226473
0.0229838
0.0111036
9.87282e-05
5.89454e-05
0.0186104
0.00374837
0.0182133
0.0214903
0.00684581
0.0128848
0.0188691
0.0112677
0.0171605
0.0221029
0.00564864
0.00255305
0.0120692
0.0186059
0.0216276
0.017138
0.0187341
0.020969
0.0186845
0.00786006
0.00824751
0.00999772
0.0187391
0.0181524
0.00816229
0.00992579
0.0112477
0.0160163
0.00799312
0.00876164
0.0227183
0.0226877
0.0176608
0.0192688
0.0194656
0.00102752
0.0113505
0.0227832
0.0230016
0.0228759
0.0182269
0.0167269
0.000869941
0.00893476
0.0180378
0.0177467
0.0179728
0.00067399
0.01232
0.0103037
0.0226191
0.0121938
0.0224941
0.0179855
0.0120858
0.0215963
0.00290963
0.0167895
0.0193901
0.00847621
0.0203517
0.00550762
0.00747267
0.0166862
0.00878204
0.022068
0.0163
0.00414196
0.0144314
0.0185201
0.00799873
0.0073801
0.0223543
0.0197019
0.00720813
0.000770922
0.0192568
0.0117137
0.00877112
0.0154101
0.00104913
0.00763823
0.00103394
0.00739784
0.00591326
0.0060928
0.00920962
0.0117343
0.00867303
0.0109335
0.0178736
0.0196977
0.0194965
0.0118464
0.0194084
0.00880656
0.00117127
0.0210556
0.0199987
0.0177599
0.0179471
0.0197729
0.00922969
0.0134176
0.0128455
0.014437
0.010138
0.00956865
0.0193406
0.0188925
0.00953375
0.0179489
0.0217648
0.0223665
0.0187015
0.000882431
0.0226232
0.00295848
0.0227411
0.021968
0.0021554
0.0182
0.0133473
0.00873721
0.0103229
0.0068683
0.0213564
0.0227311
0.0183782
0.0176831
0.0157076
0.006974
0.00617581
0.0188413
0.00360457
0.00877891
0.00674163
0.022606
0.0215112
0.019825
0.0178233
0.0102954
0.016008
0.00946676
0.017662
0.00726774
0.0125401
0.0176257
0.0114526
0.00969003
0.0179352
0.0112294
0.0114185
0.012971
0.0167452
0.00124211
0.017707
0.0180343
0.0168678
0.0118286
0.0219258
0.00648726
0.0129796
0.00564272
0.0178711
0.0225089
0.00923564
0.0181466
0.0222344
0.0131605
0.00478667
0.0201026
0.0131902
0.017795