/*--------------------------------*- C++ -*----------------------------------*\
  =========                 |
  \\      /  F ield         | OpenFOAM: The Open Source CFD Toolbox
   \\    /   O peration     | Website:  https://openfoam.org
    \\  /    A nd           | Version:  10
     \\/     M anipulation  |
\*---------------------------------------------------------------------------*/
FoamFile
{
    format      ascii;
    class       volScalarField;
    location    "950";
    object      p;
}
// * * * * * * * * * * * * * * * * * * * * * * * * * * * * * * * * * * * * * //

dimensions      [0 2 -2 0 0 0 0];

internalField   nonuniform List<scalar> 
23845
(
-0.128067
-0.170291
-0.25454
-0.25148
-0.147864
-5.54565e-06
-0.238973
-0.256824
-0.000837866
-0.0866768
-0.0166412
0.000221282
0.000584703
-0.000330446
-0.246326
-0.042285
0.00100604
0.000362864
-0.001172
0.00057334
-0.146899
-0.0153143
-0.191927
-0.000399476
-0.0491261
-0.000101714
-0.215965
0.00312252
-0.264457
0.000413321
-0.247309
-0.2436
-0.256885
5.8562e-05
0.000339719
0.000731356
-0.253737
7.80618e-05
0.00106206
0.000185124
-0.00514953
0.00135096
0.000213339
4.69397e-05
0.00010295
0.00108989
-0.165454
-0.0325905
-0.236581
-0.267175
-0.244491
-0.247067
-0.236639
0.000941079
-0.246153
0.000523366
-0.194951
-0.253989
-0.150262
-0.231357
-0.262859
0.00245131
-0.027655
-0.26507
-0.000219897
-0.00131491
-0.227727
-0.000727753
-0.00174972
-0.00356729
-0.259313
-0.25902
-0.000418984
-0.245825
-0.00126509
-0.24747
0.00027143
-0.000397911
-0.253586
-0.000788645
-0.198825
-0.239436
-0.181323
-0.257596
-0.250621
0.000422241
-0.234033
-0.23414
-0.000673882
-0.00131209
-0.24891
-0.0123632
-0.266609
0.00187686
-0.25103
-0.253249
-0.00166721
-0.0377993
-0.000335106
-0.14865
0.000184633
-0.242217
-0.110816
-0.27469
-0.269212
-0.256586
-0.000343294
-0.00106263
-0.229216
0.00148476
-0.0130124
-0.000364015
-0.254896
-0.0625374
0.000583904
-0.128138
-0.000430891
-0.0667368
-0.263317
-0.262865
0.000285493
-0.247625
-0.00412681
-0.261332
-0.233428
0.00132625
-0.261975
-0.268434
-0.257259
-0.186934
-0.258957
-0.059671
-0.0386872
-0.000397796
0.00119261
-0.118347
-0.272687
0.000258573
-0.224244
3.80155e-05
-0.263258
0.000821592
0.00050914
0.000432327
-0.0169623
0.00108739
-0.0994349
-0.245889
-0.262431
-0.0049408
-0.241957
0.000829686
-0.223894
-0.000866428
-0.254651
-0.00864398
-0.119686
0.000375483
-0.259697
-0.258026
-0.0080344
-0.250047
-0.249796
-0.000313463
-0.00173676
-0.00333256
-0.000567809
-0.250569
-0.00096575
0.000790427
-0.000897637
-0.252691
9.52312e-05
-0.261056
-0.000459915
-0.252579
-0.0178017
-0.0174643
0.000641293
0.000569326
-0.142405
-0.145438
-0.243688
-0.00997596
-0.0253555
-0.000282563
0.00214135
-0.257018
-0.265657
0.000791514
-0.267149
-0.0018245
-0.000310708
-4.04361e-05
-0.0146511
-0.000600174
-0.272152
-0.26733
-0.281971
-0.0159623
-0.00200333
-0.00113021
-0.26254
-0.0516546
-0.257224
-0.250886
-0.256275
4.21864e-05
-0.172768
0.000641797
-0.0022466
-0.255138
-0.0281227
-0.00187931
-0.240004
-0.250512
-0.0470908
0.00144611
-0.264984
-0.25835
0.000507023
-0.24768
-0.272465
-0.00974461
0.0016284
-0.247972
-0.267883
0.00125608
-0.000268828
-0.00608018
0.000844774
-0.237474
0.0005557
2.3568e-05
-0.133629
-0.262614
-0.000295466
-0.248331
0.00244844
-0.25621
-0.235843
-0.0800799
-0.255516
-0.124709
-0.248453
-0.0330789
-6.1882e-05
0.0021078
-0.251369
-0.241533
0.00154115
0.000668013
-0.245543
-1.20731e-05
-0.237031
-0.25123
-0.262445
-0.251299
0.000295649
-0.000443851
-0.232513
-6.5328e-05
-0.261258
-0.0105439
-0.00742216
0.00137506
-0.251837
-0.262685
-0.233901
-0.250361
0.000348202
-0.25455
-0.241973
0.000885177
-0.0113487
-0.000401533
-0.250779
0.00212892
-0.278038
-0.193137
-0.257251
0.000464964
-0.246732
-0.0106221
0.000466806
-0.263402
-0.258704
1.27211e-05
-0.252189
-0.251479
-0.252287
-0.240249
-0.264642
-0.25148
-0.252195
0.000340857
-0.263623
-0.000394027
0.000263542
-0.260515
-0.262543
-0.244677
-0.263299
-0.249311
-0.000314426
-0.248234
-0.266982
-0.242968
-0.000828798
-0.271247
-0.241231
-0.220128
-0.00012857
0.00356572
-0.254229
-0.264664
-0.263394
-0.0358254
-0.252371
0.000140619
-0.270159
-0.252985
-0.262226
0.00103536
-0.250469
0.000275093
-0.252262
-0.196343
-0.263222
0.00127103
-0.248616
-0.0122699
-0.24713
3.08415e-05
-0.259937
-0.249171
-0.250775
-5.96537e-05
0.00101071
-0.252413
-0.253934
-0.262319
-0.0155447
0.000777337
0.00049045
-0.282137
0.000310126
-0.251804
-0.252809
-0.24626
-0.247452
-0.263138
-0.268798
-0.249088
-0.2366
0.00229236
0.000870567
-0.00118152
-0.250699
-0.253591
-0.259553
0.0025455
-0.0931718
-0.00859378
-0.264742
-3.13276e-05
-0.260386
-0.00090228
-0.262071
0.000371699
0.0013359
-0.250642
-0.271592
0.000106278
-0.000511604
-0.249472
-0.252594
-0.249841
0.00121854
-0.256878
-0.247913
0.000686538
-0.179771
-0.000448787
8.2749e-05
0.00059296
0.000749344
-0.251821
-0.00154129
-0.252115
-0.230692
0.00189033
-0.26748
-0.270723
-0.240669
-0.258249
-0.00660751
0.000139162
-0.00418381
0.000267095
-0.25301
-0.23756
-0.250324
-0.255317
-0.22318
-0.24621
-0.000189864
-0.268824
-0.267849
-0.262559
-0.250854
0.00108998
-0.234393
-0.262764
-0.121432
-0.253679
-0.231366
-0.00845376
0.000676057
-0.121961
-0.264114
0.000674575
0.000328396
-0.252929
-0.261786
-0.158073
-0.272576
-0.24524
-0.260582
-0.260317
-0.000506395
0.000209864
-0.262256
0.000503808
0.000508507
0.000348059
0.000863474
-7.34312e-05
-0.264407
-0.260477
-0.249131
-0.268395
-0.26968
-0.262608
-0.24186
-0.263928
0.00103042
-0.219754
0.0012517
-0.25504
-0.254519
0.00163089
-0.275622
0.000789452
-0.000699253
-0.260829
-0.220747
-0.0576799
-0.2506
-0.00257413
-0.193943
-0.252478
-0.270566
-0.209203
0.0014722
-0.000141002
0.00027624
-0.238561
-2.53017e-05
-0.255364
0.00173849
-0.000454824
-0.240558
-0.262371
-0.265896
-0.123581
-0.000887113
-0.24634
-0.000548014
-0.00432488
-0.195316
-0.222322
-0.24598
-0.0162439
-0.00147893
-0.244225
-9.32296e-05
0.000343947
-0.248973
-0.261743
-0.000355247
-0.262409
-0.251756
-0.211377
-0.258817
-0.176856
-0.000768316
-0.255205
-0.000163327
0.000471413
-0.233444
-0.260595
-0.261389
-0.186622
-0.256663
-0.255239
-0.00872365
-0.000600284
1.75596e-05
-0.261594
-0.246121
-0.262399
-0.254621
-0.243641
0.001305
0.000364924
-0.230185
-0.255233
-0.254501
0.00677968
-0.247206
-0.000120396
0.000499491
-0.264819
-0.000892415
-0.248147
-0.253289
-0.264674
-0.177327
-0.259487
-0.261074
-0.269393
-0.0936344
-0.189764
0.000155522
-0.00061604
-0.00104487
-0.263536
-0.148492
-0.254072
-0.258994
0.00325129
-0.178647
-0.179219
-0.0117868
-0.177623
-0.0182859
0.00371076
-0.000201021
0.00102437
-0.00155017
0.000356211
-0.260775
-0.00106604
-0.25518
-0.206391
0.00152011
-0.2612
-4.34353e-05
0.00222631
-0.251146
-0.252854
-0.205634
-0.000351349
0.00292167
-0.271592
-0.268733
-0.000947957
-0.264674
-4.7544e-07
-0.000434762
-0.244139
-0.000720298
0.000901853
-0.0510643
-0.125178
-0.262751
-0.24962
-0.251229
-0.14771
-2.3191e-05
0.000303033
-0.0123251
-0.249574
-0.263918
0.00202779
0.000886797
0.000881624
-0.249564
-0.00143502
-0.199736
-0.250525
-0.153319
-0.00764756
-0.255523
-0.000719957
-0.000730725
0.00339814
0.000624525
0.000344677
-0.252844
-0.000254892
-0.121518
-0.247377
-0.257483
-0.0467191
-0.249075
-0.13496
-0.241172
-0.00763849
-0.193438
-0.123681
-0.20224
-0.123056
-0.263656
-0.122443
-0.0670107
-0.103385
0.000401068
-0.000786099
-0.125846
-0.259435
-0.158661
-0.00305444
-0.15003
-0.00115763
-0.00406509
0.000852617
-0.00133448
-0.0545273
0.000636501
0.000844265
-0.212083
-0.000315272
0.000342095
-0.254782
-0.113835
-0.0598035
-0.000432357
-0.00802041
-0.184225
-0.00247516
0.00164174
-0.000533892
-0.115946
-0.0372991
-0.144811
2.77865e-05
-0.0420609
-0.255291
0.000459234
0.000564543
-0.0732727
-0.256078
-0.264086
-0.266886
-0.262005
-0.0436337
-0.262187
-0.01503
-0.00387127
-0.00117432
-0.000472811
-0.146602
-0.000514693
-0.00136671
-0.00112082
-0.115402
-0.237457
-0.02865
-0.0442756
-0.0030159
-0.011495
-0.0073248
-0.00365177
-0.0446935
-0.0013388
-0.061899
-0.0128422
-0.000268636
-0.0190601
0.000920189
0.00307046
0.000387651
0.000325687
-0.0436209
0.000441285
0.00152805
-0.0370929
-0.0378103
0.00189465
0.000523586
-0.00499934
-0.00916229
-0.014331
-0.022293
-0.038058
-0.00182584
-0.0547207
-0.00123096
-0.0186562
0.000392556
-0.00961293
0.000513465
0.000636265
1.91188e-06
-1.32962e-05
0.0011763
0.000705613
-0.00118697
9.8752e-05
-0.235239
0.00184899
0.00066254
0.000306455
0.000903228
0.000231126
-0.00707523
0.00165689
-0.00924965
-0.0155225
-0.000663659
0.00204597
-0.000280214
0.000529336
-0.0264302
-0.0112573
-0.0811698
0.00212033
-0.0071429
0.00086803
0.000752129
0.000867938
0.000266875
-0.0315691
0.00200272
-0.107304
0.00166371
-0.000198792
-0.000638899
-0.000884592
0.00127643
0.00013193
-0.260929
0.0011965
-0.00110146
-0.0674821
0.000956769
0.00091262
0.00103916
-0.235795
-0.00352431
-0.000203653
-0.040815
0.00150476
-0.261148
-0.021303
-0.0145183
-0.0285237
-0.0183838
-0.0522076
-0.00428913
-0.00193513
-0.00517239
-0.0141714
1.96856e-05
-0.00785102
0.00128342
-0.16141
-0.000395702
0.000688901
-0.0383862
-0.0234207
-0.0305683
-0.252498
-0.00854174
-0.00313897
-0.104261
-0.0133076
0.00161605
0.000799282
-1.10544e-05
-0.245393
0.00238984
-0.00705305
0.00196654
-9.76921e-06
0.00141924
0.00265683
0.00103149
0.00112992
-0.000256058
0.000269184
0.00106601
0.00160498
0.00120082
-0.183741
0.00122214
0.00139616
0.0019972
0.00285894
0.000590336
-0.0599712
-0.00281428
-0.0145491
-0.0013447
0.00341824
0.00170454
0.000531282
0.00433676
-0.128073
-0.0276624
-0.0257588
0.000823067
0.000527183
-0.00329561
-0.265164
-0.00850933
-0.00547704
-0.0154296
-0.000468619
-0.00109555
-0.0259581
-0.00174482
-0.00193674
-0.000296335
-0.00379881
-0.00114641
-0.000280966
-0.000806152
-0.00108711
-0.000202153
-0.00148762
-0.00472756
-0.00089263
-0.00154779
-0.0409897
0.00135386
-0.00146547
-0.256369
-0.0439844
0.000428427
-3.27016e-05
0.000740757
-0.0243661
-0.0128241
-0.0159324
-0.00773158
0.000399657
-0.00871726
-0.00531564
-0.00882218
-0.031041
2.48074e-05
0.00194745
-0.000366783
-0.00105584
-0.00662122
0.000345684
-0.246993
0.000517617
-0.0271881
0.00340124
-0.0642192
0.000850055
-0.00104268
-0.0215754
-0.00810855
-0.0876758
-0.0585121
-0.010322
-0.105846
-0.0016074
-0.00327911
0.000174003
6.62801e-06
-0.000391646
-0.000101358
-0.000566576
0.000994411
-0.000764877
-0.024663
0.00087588
-0.0239006
-0.0309867
-0.018156
-0.0116239
-0.0966713
-0.00929211
-0.000392431
-0.0242934
-0.000153488
-0.0650763
-0.00367081
-0.000420998
-0.115179
-0.00377828
-0.000417371
-0.00814017
0.00100693
0.000736049
-0.232547
-0.000986401
0.000904527
-0.00174018
0.000763529
0.00119978
0.000570616
-0.00820607
-0.268715
0.000543212
-5.63879e-05
-0.00391715
-0.00673008
-0.110345
-0.0132588
0.00165029
-0.0138198
0.000215838
0.00331122
-0.257205
-0.272537
0.00117738
-8.18513e-05
0.00321438
-0.222915
0.000347918
-0.250744
0.00198038
-7.99446e-05
-0.00305424
-0.00202936
0.000915936
0.000819381
0.00123474
-0.10038
0.00052322
-0.139527
-0.0107114
-0.0413229
-0.000198248
-0.0101981
-0.00123535
-0.00612787
-0.00196501
-0.000586124
-0.0198501
0.000456529
-0.0114805
-0.017073
-0.0256438
0.00335464
-0.0101373
-0.0139417
0.00012885
-0.0309565
-0.0174353
-0.00766174
-0.0391715
0.000430273
0.00140187
0.000855569
0.0014167
0.00148235
0.000413265
-0.00965834
0.000383071
0.00102572
-0.00619106
-0.00540858
-0.00592624
-5.36197e-05
-0.211162
0.00137841
0.000136675
0.00151451
0.00101746
-0.00102667
-0.00207675
-0.0121957
-0.0973514
-0.134551
0.000283365
-0.00168661
-0.0205632
-0.0400849
0.00177233
-0.0455476
-0.00125243
-0.00319336
-0.00952424
-0.0406467
-0.00116244
-0.0124789
-0.0269415
-0.0133513
-0.031685
-0.0234844
-0.0292132
0.00157022
0.00156524
0.00214409
0.00117668
-0.00739692
-0.0132564
0.000240477
-0.281172
0.000701319
-0.256214
0.000262181
0.00054039
-0.269484
0.00104367
-0.00130979
9.75966e-05
-0.000218925
-0.00192155
0.000868557
0.00156566
0.00125451
-0.0447956
-0.263756
0.000842093
-0.00117046
-0.00475876
-0.17943
-0.204007
-0.127412
-0.0168117
0.000701487
-0.00155001
0.00257322
0.000489024
-0.000434517
0.00279376
-0.134864
-0.0937107
-0.0379425
-0.084974
-0.0565097
-0.103597
-0.124314
-0.0386893
0.00148423
-0.0721396
-0.0210927
-0.0292419
-0.02756
-0.00974024
-0.0162419
0.000666422
-0.0117638
0.00208539
-0.00715082
-0.00115838
0.000215242
0.00117742
0.000206491
0.00128356
0.00049634
7.6989e-05
-0.00263793
-0.165547
-0.061054
0.00083504
-0.0906402
0.00074424
-0.00220186
0.00378434
0.000344536
0.00059469
0.00296194
-5.49544e-05
0.00183312
-0.00312047
-0.000487788
-0.118594
-0.00151156
0.00125926
-0.0820492
-0.000574106
-0.000727415
-0.00368779
-0.0491691
-0.00139232
-0.259033
-0.254602
0.00053935
-0.00882635
-0.0119643
-0.0218795
0.000293131
0.00154857
-0.0129551
-0.00518396
-0.00898154
-0.00536958
-0.00215512
0.000854159
-0.275528
0.000671441
-0.0346434
0.0010612
0.00101225
-0.0535735
-0.000327709
3.33516e-05
-0.263538
0.00144058
4.87012e-06
-8.38595e-05
0.00155233
0.0020863
0.000974594
0.00127637
0.00123536
-0.0710417
0.0020764
0.00187194
-0.191662
0.000576238
0.00178656
0.00170618
-0.216015
0.000306031
0.000366898
-0.0850974
0.000330275
-0.00156199
0.001243
-0.000323113
-0.000207457
-0.261091
-0.00105619
0.0019083
-0.00913194
-0.0210253
-0.0922909
-0.0143447
-0.00562613
-0.000529827
0.00131509
0.00112529
-0.00164362
0.00140945
-0.0597978
0.00122383
0.000903876
-0.000408591
-0.00032475
0.000833334
-0.246839
-0.259578
0.00131098
-0.000379858
0.000225503
-0.170408
0.000600189
-0.000685239
-0.0168023
0.000683634
-0.251215
0.000699264
0.00213294
0.000592639
-0.00149766
-0.000226428
-0.00275844
-0.0119422
8.96169e-05
-0.0272764
-0.00198527
0.00100237
-0.00366638
0.00240756
-0.00200281
-0.0107992
-0.00466798
-0.0116078
0.000751939
0.00141977
-0.000260658
-0.00247134
-0.00231258
0.0017861
-0.00410733
-0.00329287
-0.0399834
-0.000451138
-0.000659891
-0.0629744
0.000137138
-0.00252596
-0.0946097
4.30485e-05
-0.0019525
-0.135071
-0.00126322
-0.000485215
-0.111997
-0.0573732
-0.176315
-0.00099033
0.00399685
-0.0643662
-0.000355694
0.000559913
-0.112222
-0.0298926
-0.0515324
0.000751413
-0.0775135
0.000606666
-0.00219849
-0.0486568
-0.0164899
-0.000319894
-0.0141231
-0.0747202
-0.27935
-0.000130795
0.000368195
0.000319986
0.00072248
0.00163277
0.00192892
0.00175255
-0.247468
0.000484592
-0.00137746
-0.0523064
-5.51008e-05
-0.0257797
1.11966e-05
-0.158695
-0.000235441
-0.00121314
-0.18075
-0.000714462
0.00264887
0.00024509
-0.00194244
-0.26272
0.000947085
-0.104137
-0.00324722
-0.0258458
-0.259836
-0.252872
-0.0563073
0.00144027
0.000537929
-0.186404
0.00188396
0.00332011
0.000232481
-0.128393
0.000962105
0.000653338
-0.000361677
-0.110469
-0.00143139
0.00107231
-0.000752851
-0.0017473
-0.267131
-0.00360211
-0.00470329
-0.0965938
0.000201987
-0.26169
0.000246075
-0.256827
0.00120032
-0.112624
-0.000876414
0.00156624
0.000710329
-0.000190597
-0.00403556
-0.00432854
-0.0101339
-0.0254582
0.000422869
0.00100123
0.00100617
-0.0245898
-0.022254
-0.000242512
0.000555106
0.000727851
-0.00084607
-0.00511968
-0.00525976
0.00287688
-0.00824185
-0.00661958
-0.0895577
-0.00109652
-0.172293
-0.00155438
-0.00388179
0.00155897
0.00216648
-0.2549
-0.06615
-0.0341272
-0.000242038
-0.0481704
0.000107669
0.00110386
-0.0707505
0.000695213
-0.226988
-0.262221
-0.0980743
-0.00479912
-0.000113662
-0.263804
-0.00300203
-0.00799381
-0.00177606
-0.0581225
-0.198943
-0.00170537
0.000981056
-0.250904
-0.250838
5.74358e-05
-0.0853186
-0.101821
0.000751232
-0.260638
0.000945799
-0.115623
0.000512739
-0.0710676
-0.000333868
-0.0571924
-0.204038
0.00086201
-0.255423
-0.104546
0.000463596
-0.262585
0.00122434
-0.052639
-0.0970742
-0.254942
-0.000266506
-0.030523
-0.178444
0.00240725
-0.0895969
0.000854506
0.00215652
0.0032081
-0.00523367
-0.07653
-0.000330985
0.000484249
-0.138916
-0.00350876
0.00110286
0.00183019
0.000104342
0.00091
0.00162905
-0.0774279
-0.217389
-0.0808812
0.000966331
-0.00471589
0.000602292
-0.000402874
-0.00403623
0.000215309
-0.258521
-0.00083796
-0.0865805
-0.258208
-0.000338242
0.000517007
-0.0101708
-0.0296991
-0.0944603
-0.180999
-0.0102108
0.00136814
-0.00427141
-0.00145316
0.00106011
0.000863389
-8.83804e-06
0.000253557
0.00078039
-0.0923676
-0.261231
0.000274093
-5.00774e-05
0.00206782
-0.21376
0.000764
-0.00524424
-0.00144355
0.00121557
0.00191707
-0.00314186
-0.024942
-0.0256865
-0.00191475
0.000246737
-0.00522762
-0.243387
-0.254237
-0.000241451
0.0074752
-0.0241824
-0.00053574
0.000235585
0.000129827
0.000351321
-0.00481112
-0.00312143
-0.26165
-0.000481957
-0.245507
0.000673875
0.00140179
-0.193504
-0.0040943
-0.0879223
-0.00285286
-0.0100023
-0.0155885
-0.00654402
-0.00285897
-0.0713757
0.00252178
0.00102279
0.00140451
-0.00179681
-0.253026
-0.00458925
-0.000973356
-0.00455468
-0.0564079
-0.253429
-0.0110216
0.00179867
-0.215555
0.000859999
-0.000161984
-0.0295199
-0.203345
-0.260211
-0.263533
-0.0023528
0.000389528
-0.0226235
-0.000304782
-0.214875
-0.0644068
0.00155166
-0.00860315
-0.145106
0.000204939
-0.216297
-0.00914218
-0.0400122
-0.00304588
-0.131827
-0.081085
0.000909712
0.001083
-0.261076
0.0028009
-0.000414909
-0.094823
0.00155628
-0.00865754
-0.094087
-0.0447032
-0.256451
0.000180241
-1.76271e-05
0.00188073
-0.259796
0.000966148
-0.00177809
-0.00206465
-0.258427
0.000960336
-0.00109768
-0.00124405
-0.259885
-0.0478276
0.000411627
-0.00505616
0.000247002
0.000870114
0.00255914
-0.236327
-0.0191262
8.78745e-05
0.00122186
-0.155793
-0.0417154
-0.000843328
-0.014879
0.000318319
0.000896963
-0.258304
0.0023943
-0.0291988
0.000420663
-0.0167734
-0.256733
-0.260449
-0.257119
-0.23387
-0.209063
0.00022082
-0.0890445
0.00141398
-0.000208599
0.00135282
-0.206028
0.00108914
-0.245006
-0.265609
0.00112544
0.000650925
-0.243963
-0.263391
-0.0783439
-0.234724
-0.101833
-0.205076
0.000382173
-0.0977198
-0.268117
0.00133488
-0.245709
0.000665658
0.000467265
-0.174857
-0.26541
-0.260503
-0.189178
-0.155856
-0.000418947
-0.269986
0.000597086
-0.108798
0.000631388
-0.21644
-0.0727145
-0.00187757
-0.165136
0.000488698
-0.000621672
-0.000373782
-0.268463
-0.245952
-0.256553
-0.258865
0.000468969
-0.151291
0.000893339
0.0030085
-0.000352193
-0.0440587
-0.260177
0.000900542
-0.00196113
-0.18661
-0.243897
-0.00966863
0.000479113
-0.252851
0.00129605
0.00102889
0.000282298
-0.000230712
0.00107328
-2.80369e-05
0.0014563
-0.244236
0.000988789
0.00219543
0.00010572
-0.0356453
-0.253586
-0.0962603
0.000145077
-0.25556
-0.0675614
-0.0505957
0.000268674
-0.264705
-0.00518728
-0.269458
-0.25696
-0.257832
0.00308624
0.000983427
-0.192952
-0.161762
-0.000435138
0.000511979
-0.151125
-0.172918
-0.214334
-0.0128116
-0.266263
0.00364871
-0.254207
-0.00190468
-0.255145
0.000898835
0.00132763
-0.00296932
0.0013592
-0.261197
-0.00147833
-0.252536
-0.256239
-0.0067566
-0.0167505
-0.104769
-0.266392
-0.159065
0.000466375
-0.0714066
-0.0674196
-0.192013
-0.000547544
-0.252815
-0.135849
-0.252025
-0.258443
5.91613e-05
0.000543509
-0.0494216
-0.251937
-0.00634195
-0.173816
0.00185488
0.00181462
0.00114731
-0.000880441
-0.262927
0.000443087
0.000432901
-0.214363
-0.0321728
-0.206684
-0.179977
-0.264451
-0.253221
-0.173566
-0.240782
-0.24813
-0.0777105
-0.0106284
-0.264676
-0.000384347
-0.250861
0.000930511
-0.261946
-0.264501
0.00133677
-0.000709985
-0.000888339
0.0022373
0.000416901
-0.000167342
-0.00345427
-0.000221719
-0.165046
-0.136583
0.000623048
-0.0738571
-0.0479012
-0.24628
-0.263828
-0.25306
-0.255663
-0.256997
-0.19369
-0.26744
-0.0222204
0.000111231
-0.264579
-4.12086e-05
-0.244633
-0.0770588
-0.0053913
-0.260758
-0.0575512
-0.000814815
-0.25413
0.000562008
-0.222959
-0.120358
-0.0260418
-0.242597
0.00303816
-0.149882
-0.00246209
0.000998909
-0.20914
-0.278833
-0.00170716
-0.00298944
-0.00265044
-0.00716784
0.00137314
-0.250057
-0.00372841
-0.00176326
-0.191332
0.000228453
-0.259797
-0.0245295
0.00217306
-0.0405692
-0.256071
-0.262836
-0.259309
-0.260521
-0.236059
0.000485142
-0.241111
2.02937e-05
0.000277955
-0.250854
0.000301216
-0.256386
-0.205473
-0.217298
-0.257831
-0.00706949
-0.242684
0.00140612
0.00128282
0.00024626
-0.00426576
-0.253336
0.00127724
0.000936674
-0.00431426
-0.248251
0.000164967
-0.24095
-0.255943
-0.00154482
-0.265147
-0.258209
-0.203653
0.0005486
-0.256945
-0.00131625
-0.000113593
0.00158098
-0.259698
0.0013574
0.00184762
0.000883449
-0.102218
-0.000151995
-0.252255
0.00104046
-0.000712521
-0.0164861
0.000296483
-0.21444
-0.000491525
-0.000680724
-0.161042
0.000739696
5.4922e-05
0.000496512
-0.260531
-0.0283567
0.00106735
-0.268476
-0.197893
-0.201994
0.0010066
-0.000727269
-0.249338
-0.198963
-0.241874
-0.179673
-0.246892
-0.243455
0.00323998
-0.251312
-0.224258
-0.000550882
-0.257055
0.000121591
-0.262497
-0.261978
-0.260244
-0.0359138
-0.225165
-0.279754
-0.000832069
0.000386716
0.000494065
-0.247911
-0.251567
-0.245026
-0.27074
-0.221213
-0.00700046
0.00107043
-0.216658
-0.261777
-0.252388
-0.00885406
-0.145157
0.000487637
-0.254387
-0.2668
-0.257843
-0.260253
-0.260101
-0.253657
0.000342928
-0.245618
-0.25469
-0.273894
-0.233979
-0.257336
-0.0149171
-0.253205
-0.261621
-0.000964634
-0.244603
-0.238605
0.00254719
-0.251845
-0.00837909
-0.274847
-0.247996
-0.194517
-0.2044
-0.251316
-0.0156
-0.201704
-0.253258
0.000682629
-0.222651
-0.000333036
-0.000256025
-0.0761106
0.00224043
-0.000519373
-0.0676843
0.000602651
0.000823235
0.000232471
-0.000551385
-0.211151
0.00137209
-0.0935958
-0.273179
-0.259625
6.28465e-05
-0.0172114
-0.000695947
-0.247656
-0.000397387
-0.254568
-0.233318
-0.0235108
-0.243163
-0.257418
-0.247314
-0.0654586
-0.00196937
-0.232689
-0.233296
-0.260086
0.000550856
0.000342864
-2.63817e-05
-0.0152545
-0.21149
-0.000424461
-0.000137773
-0.000161001
-0.26086
0.000333711
-0.0230634
-0.00726243
-0.00283061
-0.261265
-0.00739128
-0.00209136
0.000384483
-0.218381
-0.000245133
-0.24967
0.000533612
-0.0117944
0.00112045
-0.0338102
-0.260892
-0.262936
-0.253582
-0.272051
-0.0195335
-0.0233283
-0.243638
-0.00017253
-0.261556
-0.00542535
-0.000527085
-0.000104592
-0.148346
-0.238637
0.000464788
-0.161304
-0.274128
-0.254583
-0.25791
-0.226059
-0.00231848
-0.260513
-0.263756
0.000700153
-0.0529116
-0.23415
-0.160332
0.000123476
-0.254358
-7.35599e-05
-0.226321
-0.158828
-0.246032
0.000307001
-0.00391995
-0.244958
-0.00108015
-0.0450428
0.00368035
-0.220282
0.000548496
-0.254343
-0.000286368
-0.244149
0.00233126
0.0015501
0.00055969
-0.00936482
-0.233566
-0.249964
-0.00177742
0.000190018
-0.000216664
-0.000151463
-0.0243757
-0.0008075
-0.240512
-0.266494
-0.243386
0.00037512
-0.00110959
-0.255802
-0.248628
-0.240504
-0.26489
-0.235196
0.00040805
-0.229768
-0.234558
-7.4134e-05
-0.23884
-0.0351117
-0.0614794
0.0013203
-0.225794
-0.000451919
-0.253297
0.000570071
-0.260422
-0.25111
-0.00151488
-0.243039
0.000903532
-0.261798
-0.215261
-0.00426374
-0.000293069
-0.244451
-0.260188
-0.00253712
-0.274627
-0.198185
-0.00159696
-0.263337
0.000730085
-0.262127
0.00145368
-0.00217709
-0.00439622
-0.232563
0.000180037
-0.255685
-0.031076
0.000663582
-0.000766639
0.000943347
0.000418257
-0.000471284
-0.261462
-0.143586
-0.0139026
-0.130094
-0.0133074
0.000476936
0.000534693
0.00232857
-0.232922
-0.132384
0.000496529
-0.00872353
-0.0220327
0.000488886
-0.258045
-0.0676288
0.000921001
-0.00315344
-0.253921
0.000246517
0.000333209
-0.257925
-0.228219
-0.00103781
0.000960706
-0.25893
-0.24022
-0.264356
-0.000153034
-0.00183051
-0.261943
-0.00123659
-0.000262946
-0.00125498
-0.204769
-0.19039
-0.253734
0.000950349
-0.235603
-0.244088
-0.252256
-0.242707
0.00107635
-0.0800158
0.00309066
-0.261193
0.000742852
-0.000969167
-0.0319736
-0.0668462
-0.00395625
-0.0208156
0.000533658
0.000373578
-0.00191892
-0.255415
-0.00409482
-0.240993
-0.271986
-0.179001
-0.000434406
-0.231754
-0.139444
-0.259727
-0.253913
-0.00829931
-0.0806981
0.00246138
-0.0699721
-0.219504
0.00115623
-0.258753
0.000572491
-0.00204252
0.00427104
0.000285532
-0.253459
-0.000478718
0.000806826
-0.250633
-0.251928
-0.00182796
-0.252847
-0.24526
-0.247211
-0.249658
-0.276155
-0.260062
0.000574198
-0.222095
-0.0737717
0.00066616
-0.00657903
0.00130787
0.00104505
8.88166e-06
-0.19587
-0.260986
-0.236066
0.00139895
-0.261226
0.00139681
0.00212655
0.000594726
-0.234243
-0.276664
-0.0079167
0.000463217
-0.258173
-0.259663
-0.271504
-0.241211
-0.147949
-0.205972
-0.00167871
0.00200037
0.00233584
-0.00138528
-0.253236
-0.000826343
-0.109291
-0.201919
-0.276464
-0.237999
0.000315258
0.000843054
-0.231333
-0.254087
-0.257636
-0.0257881
-0.0696875
-0.263242
-0.255951
-0.239566
-0.262396
-0.234501
-0.263132
-2.20784e-05
-0.00420383
-0.0039862
-0.261378
0.00010067
-0.00109169
4.04235e-05
-0.190778
-0.060258
-0.245744
-0.258456
-0.250961
-0.00065684
-0.209313
-0.228077
-0.27328
-0.00131433
-0.256603
-0.210741
-0.269442
-0.000240905
-0.212723
-0.244665
-0.274163
0.000691856
-0.0722597
-0.00541829
9.26481e-05
0.00129107
-0.266033
-0.0205615
-0.252751
-0.247663
-0.269681
0.000427362
-0.25464
0.000228533
-0.255135
-0.0114566
-0.182961
-0.000295003
0.000201351
-0.23551
-0.261878
0.00221526
-0.232465
-0.136073
-0.0184834
-0.00198131
0.00175062
-0.25375
-0.278048
-0.000485043
0.000508921
-0.000628063
-0.147361
0.000407074
-8.58011e-05
-0.0292654
-0.00938987
-0.247906
-0.00161757
-0.267931
9.41327e-05
-0.270697
-0.254982
-0.125148
-0.236567
-0.263791
0.000193825
1.3425e-05
0.00153892
0.000692563
-0.278779
0.00107694
0.00189438
-0.232784
-0.26225
-0.251788
-0.16519
-0.273691
-0.00222027
0.00134798
0.0013648
-0.260389
-0.26012
-0.000359965
-0.254826
0.000163349
-0.246254
-0.244336
-0.268776
0.000843917
-0.235226
-0.00173515
0.000261483
-0.269263
-0.262893
-0.0010723
5.57702e-05
-0.257538
-0.24895
0.00137679
-0.00159491
-0.240925
-0.259126
0.000612379
0.000580323
-0.262232
0.000901563
-0.220531
0.000499871
-0.260297
-0.242801
0.000378494
-0.23335
-0.255883
-0.0740874
-0.239641
-0.238618
-0.183593
-0.234347
-0.03481
-0.00132746
-0.00359967
4.02195e-05
0.000209091
-0.254702
-0.00393901
-0.258871
-0.240195
-0.000114675
0.000932046
0.000130969
0.000693538
0.0010046
-0.00172828
-0.00249698
-0.00131106
0.001199
-0.00302992
0.00236377
-0.00283721
0.00377718
-0.000762813
-0.0389266
-0.0783139
-0.249348
-0.26234
-0.256145
-0.256422
-0.00197978
-0.266839
-2.28253e-05
-0.270024
-0.00206726
-0.0212889
-0.227042
-0.25154
-0.00134085
0.000745323
0.00228277
-0.276908
-0.0745317
-0.255007
0.000534341
0.000174179
0.00231701
-0.190375
-0.255221
-0.0492198
-0.00263195
0.000869227
-0.00157381
-0.00206498
-0.130197
-0.0514566
-0.00264439
0.00056647
0.000559632
-0.00107
-0.179572
-0.251255
-0.265602
-0.0727247
-0.265269
-0.179903
-0.261547
-0.0956972
-0.246417
-0.249477
-0.265963
-0.00134805
-0.256553
-0.207399
-0.256953
-0.267754
-0.240427
-0.00193521
-0.258076
-0.00168671
-0.266522
-0.240891
-0.260108
-0.00197611
-0.0153498
-0.231285
-0.255402
5.31002e-05
-0.263149
-0.251864
0.00135032
0.00218221
0.00101526
-0.000725331
-0.00360955
0.000412299
0.000661244
-0.250992
0.000418419
-0.223527
-0.234382
-0.259908
0.000144793
-0.246868
-0.241969
-0.275519
-0.00957525
-0.251998
0.000334311
-0.25649
-0.184356
-0.241882
-0.000711854
-0.00191911
-0.00227631
-0.264909
-0.255812
-0.0399435
0.00126552
-0.261378
-0.176876
0.000121332
-0.00151968
-0.00974685
-0.254388
-0.000673783
-0.000424675
-0.256127
-0.252789
0.00155985
-0.253211
-0.197365
-0.254168
-0.0186449
-0.273583
-0.255643
-0.00155874
-0.0491469
-0.260163
-0.250875
-0.00249022
-0.271335
-0.235233
-0.256018
-0.257055
-0.256579
-0.230786
-0.000242698
-0.259266
-0.000271408
-0.000721808
0.00190186
-0.0591081
1.21882e-05
-0.270199
-0.240225
-0.260879
-0.155841
-0.000306861
-0.241032
0.000401891
-0.0236318
-0.273382
-0.243692
0.000235163
-0.000168001
-0.233998
-0.00130024
-0.250947
0.000828367
-0.256837
0.000877778
-0.258996
-0.00238988
-0.254314
-0.0203129
-0.0477686
-0.247907
-0.273417
-0.244826
-1.86083e-05
-0.270991
-0.136485
-0.25572
-0.227482
-0.0371354
-0.096813
-0.06233
0.00043273
-0.184735
-0.214339
-0.0181912
-0.227558
-0.251006
-0.00245522
-0.25335
-0.00181583
-0.227685
0.00067523
0.000294602
8.32625e-05
-0.0501786
-0.260257
-0.260776
-0.0165142
-0.103174
-0.000965197
-0.000108237
-0.00240956
-0.000559562
0.000172788
0.000479325
0.000988274
-0.00091935
0.00171538
-0.238989
-0.237566
-0.0030951
-0.00437892
-0.235136
-0.260227
-0.055589
0.00206435
-0.00185476
-0.262721
-0.0408065
0.00100828
0.000344803
-0.264663
-0.0316738
-0.00142539
-0.00119885
-0.0678804
-0.263505
-0.243159
-0.0546506
-0.270747
-0.263574
0.000818251
-0.229406
-0.258878
0.000511598
-0.249834
-0.0075118
0.000459136
-0.000589225
-0.265967
-0.00179905
-0.24202
-0.209079
5.63926e-05
-0.0331993
-0.270783
-0.000308974
-0.254364
0.000587448
-0.22572
-0.239352
0.000736025
-0.255336
-0.244314
0.000428081
-0.000485217
-0.252927
0.000464367
-0.243373
-0.267306
-0.260138
-0.0102423
-0.00535608
-0.0019878
-0.257582
-0.000309203
0.00253971
-0.00139176
-0.0577832
0.000806269
0.000236116
-0.00612536
8.15892e-05
-0.235625
-0.25887
-0.0298511
-0.000141897
-0.239456
0.00209998
-0.00093978
-0.00681477
-0.235251
0.00104891
0.000166245
-0.255544
0.00247103
0.00150905
-0.000506124
-0.216686
0.000638568
-0.138826
-0.260349
0.00138791
-0.260389
-0.027574
0.000577995
-0.258114
-0.247616
-0.266444
0.00104387
-0.100876
-0.00327801
-0.269392
-0.249134
-0.000566939
-0.0812161
-1.54991e-06
-0.260227
0.000555611
6.64416e-06
-0.000729162
0.00183435
-0.00152493
-7.38477e-05
-0.24418
-0.00525884
0.000549777
-0.000609512
-0.000194288
-0.2591
-0.241181
-0.281178
-0.0114776
0.000397291
-0.254153
0.00284695
-0.000267227
-0.000153434
0.000299073
0.000919467
-0.0461294
-1.79343e-05
-9.05727e-05
-0.11238
-0.259597
-0.263664
-0.281135
-0.229629
-0.00154146
-0.245673
-0.262287
-0.0709885
-0.242387
-0.275563
-0.243571
-0.159926
-0.00311576
-0.25257
-0.00074761
-0.249582
-0.000583992
-0.160741
0.00192929
-0.000990793
-0.249421
-0.22323
-0.238385
-0.000466878
-0.0349006
-0.0388579
-0.0453203
9.47213e-07
0.000572796
-0.0202117
-0.258803
-0.0108953
-0.256279
-0.0250276
-0.00170296
-0.256108
-0.00133401
-0.0020979
-0.0364902
-0.000675815
-0.199654
-0.275938
0.00042164
0.00171439
-0.234045
-0.00977039
-0.234881
-0.254382
-0.138512