/*--------------------------------*- C++ -*----------------------------------*\
  =========                 |
  \\      /  F ield         | OpenFOAM: The Open Source CFD Toolbox
   \\    /   O peration     | Website:  https://openfoam.org
    \\  /    A nd           | Version:  10
     \\/     M anipulation  |
\*---------------------------------------------------------------------------*/
FoamFile
{
    format      ascii;
    class       surfaceScalarField;
    location    "950";
    object      phi;
}
// * * * * * * * * * * * * * * * * * * * * * * * * * * * * * * * * * * * * * //

dimensions      [0 3 -1 0 0 0 0];

internalField   nonuniform List<scalar> 
38623
(
0.216929
-0.21386
0.0787538
-0.0818222
-0.0594825
0.0767997
0.122786
-0.140103
-0.00693745
0.0134575
0.0331516
-0.0396716
0.00431155
-0.00236919
-0.0224606
0.0205183
0.0152289
0.0264495
-0.0332874
-0.00839092
-0.126369
-0.254345
0.238435
0.142279
0.0846984
-0.0709356
0.0821074
-0.0958702
-0.0086345
0.00852993
-0.00640635
0.00651091
0.0198908
0.0203346
-0.244186
-0.0359736
0.0793466
-0.32029
0.276917
0.110084
0.124482
-0.111276
-0.12329
-0.219917
0.194574
-0.00537893
0.0307216
0.461632
-0.0463924
-0.468394
0.0531539
-0.229863
0.208922
-0.0104511
0.0313913
0.0376605
0.0464732
-0.0521069
-0.0320268
0.044069
-0.293419
-0.0477826
0.297133
-0.0149812
0.386473
-0.000212172
-0.371279
-0.00876613
0.264774
-0.00922651
-0.246781
0.00615289
-0.0272181
0.411812
-0.390747
0.402417
-0.282659
0.239394
-0.359152
0.18275
0.138324
-0.0435941
-0.27748
0.108544
0.0806076
-0.0790676
0.317184
-0.271663
-0.00173952
-0.0437819
-0.221776
0.291905
-0.265876
0.195747
0.0429673
0.251638
-0.0438529
-0.250753
-0.037829
0.577446
-0.550406
0.0107883
0.0306385
-0.178156
-0.0555148
0.203033
0.223196
-0.178727
-0.491502
0.447033
-0.00919259
-0.000762675
0.00139595
0.00855932
-0.273585
0.292765
0.383237
-0.0149461
-0.0205939
0.0195381
0.0160019
0.00564316
-0.00154065
0.000773545
-0.00487606
0.0286332
-0.0320266
-0.0331539
0.0365473
0.292819
-0.0245872
-0.276998
-0.0102718
-0.0111463
-0.236955
0.258373
-0.340998
-0.172985
0.145733
0.368251
-0.000608799
0.000144094
-0.00719146
0.00765617
0.00535547
-0.235544
-0.147658
0.166681
0.0033995
-0.0224226
-0.0566814
0.0719409
0.319134
-0.334393
0.0663782
0.413162
-0.429894
-0.0496458
0.271453
0.184418
-0.25392
-0.201951
0.33144
-0.185401
0.332916
-0.478955
-0.415704
0.203464
0.336628
-0.124388
0.600277
0.241941
-0.51523
-0.326988
-0.0301648
0.0738068
-0.429782
0.38614
-0.0137354
0.026748
-0.00124454
-0.0117681
-0.261041
0.193435
0.155342
-0.087736
-0.000915988
0.0018806
0.000999185
-0.0019638
0.00753038
-0.000498259
-0.0076789
0.000646779
-0.0049681
-0.00135141
0.00146199
0.00485752
-0.0108878
0.0288152
-0.0230889
0.00516146
-0.00187564
0.000703997
-0.00170947
0.00288111
-0.38193
-0.109274
0.294959
0.196245
-0.00101245
0.000439531
0.00621608
-0.0208861
-0.396347
0.402252
0.0396246
-0.0229025
-0.0545887
0.0378666
-0.00437064
-0.00808735
0.00852716
0.00393083
-0.141082
0.185061
0.138772
0.00196285
-0.00724966
0.0057452
-0.000458394
-0.00917845
0.00361054
-0.00319409
0.008762
-0.341382
-0.109434
0.0351119
-0.337465
0.326266
0.084001
-0.0728017
-0.00572337
-0.00746876
0.00879287
0.00439925
-0.247568
-0.323078
0.348869
-0.501697
0.352758
-0.230034
0.378973
-0.168314
0.144045
-0.0249425
0.0492115
-0.537197
0.423374
0.175473
-0.0616504
0.121934
0.540112
-0.0617685
-0.39034
-0.0650895
0.0645018
0.390928
0.0088832
-0.00309215
-0.00896838
0.00317733
0.0144438
-0.00767589
-0.0137053
-0.0501846
-0.0190505
-0.516322
0.585557
0.0605895
-0.0611742
0.0382452
0.401973
-0.380631
-0.26891
0.0410796
-0.0609293
0.0587229
-0.0388732
0.0219022
-0.181455
0.175534
-0.0159818
0.113777
0.189688
-0.194322
-0.109142
-0.0117601
0.00534875
-0.00522012
0.0116315
0.0374556
-0.0294976
0.341837
-0.349795
-0.10978
0.225017
-0.207349
0.0921119
0.0447132
-0.0560176
-0.0882092
0.0995136
0.070706
-0.0905639
-0.0106039
0.00847017
-0.000416002
0.00254978
-0.0178363
0.0423663
-0.0249513
0.000421268
-0.235799
0.246574
-0.0219214
-0.0579765
0.0917954
-0.0988388
0.0650199
-0.0014165
0.000362951
0.000306899
0.00074665
-0.289979
-0.102635
0.136661
0.255953
0.362075
-0.364858
0.040239
-0.00687309
-0.00032246
0.00656365
0.000631903
-0.42384
0.0720182
0.402692
-0.0508701
0.00395089
-0.00744021
-0.00223406
-0.333093
-0.187408
0.201454
0.319047
-0.00685486
-0.00325404
0.00526469
0.00484421
-0.00740349
0.000111204
-5.73574e-05
0.00734965
0.494772
-0.112944
-0.392359
0.0105301
0.0754951
-0.103648
-0.232889
-0.280231
-0.0295403
0.0675013
0.24227
0.00735177
-0.0012992
0.00917629
0.348042
0.0639461
-0.0958456
-0.316142
-0.0384123
-0.103025
-0.0268773
-0.0579902
0.0222928
-0.124396
0.160093
-0.00672626
8.29099e-06
0.00672079
-2.82162e-06
0.0012801
0.00749882
-0.00829336
-0.00048556
4.60896e-05
0.0019835
-0.0126335
0.271609
-0.107619
-0.290359
0.22616
0.417754
-0.144648
0.14961
-0.0433745
0.354017
-0.31597
-0.127047
0.0889986
-0.113549
0.154154
0.0903874
-0.130992
-0.274181
0.0796154
0.199921
0.0567201
-0.0402641
-0.0342924
-0.00522219
0.287632
-0.000758825
-0.281651
-0.139477
-0.330979
0.129458
-0.30706
-0.0536763
0.0584482
0.302288
-0.183745
0.370739
-0.554096
0.367101
0.0540066
-0.283118
-0.0560014
0.285112
-0.0001479
0.00030862
-0.00935331
0.00532035
-0.00773222
-0.00421866
0.00663053
-0.119918
0.0233548
0.21034
-0.000180332
0.00577706
0.000229162
-0.00582589
-0.0420684
-0.382466
0.0402827
0.384251
-0.00546621
0.00388582
0.0068696
-0.00528921
-0.0925731
0.0850887
-0.0955402
-0.0795139
-0.673065
0.552764
0.199815
-0.00893141
0.0024292
-0.00267624
0.00794139
-0.000137532
-0.000273477
-0.0011792
-0.0100534
-0.00463537
0.0158679
0.0170885
-0.0106497
-0.0157854
0.00934663
0.00810419
0.00900574
-0.00678783
-0.0103221
0.0288284
0.162992
-0.148246
-0.043574
0.132277
-0.000576317
-0.0186557
-0.113045
-0.211997
0.201646
0.05675
-0.0463989
0.420771
0.0875392
-0.196956
-0.311354
-0.098233
0.215404
-0.175161
8.56446e-05
0.00636729
-0.00643658
-1.63531e-05
0.0421529
0.174323
0.051396
-0.120336
-0.169339
0.238279
-0.10912
0.151149
0.00862808
-0.00866132
-0.00011466
0.166472
-0.182793
-0.256108
0.272429
-0.141803
-0.24005
0.219092
0.162762
0.0815869
0.301302
-0.112999
-0.26989
0.363266
0.0135963
-0.0383459
-0.338517
0.473619
-0.193745
0.0741438
0.288165
-0.0541753
-0.28323
0.0492404
-0.0674561
0.0390109
-0.0192256
0.0476707
-0.00353274
0.00270167
0.00673041
-0.00589935
0.0238732
-0.371513
0.388577
-0.0409374
0.0466062
-0.00318003
-0.0391168
-0.00430942
0.270095
-0.119911
-0.462524
0.31234
0.0695425
-0.0886475
-0.056817
0.075922
-0.0504536
0.432969
0.146856
-0.529371
0.0347448
-0.0327465
0.0215877
-0.023586
-0.0642141
0.0489912
0.292435
-0.277212
0.0153993
0.0803482
-0.0734547
-0.274401
0.15692
0.234497
-0.117016
-0.00992064
0.0107801
-0.0062273
0.00536788
0.00229349
0.0102855
-0.00844735
-0.00413166
0.0554466
0.380306
-0.382102
-0.0536503
0.0806697
0.0292752
-0.0447052
-0.0652398
0.00251541
-0.00938342
-0.00133975
0.00820777
-0.163029
0.164955
0.462301
-3.44726e-05
-0.411537
-0.0507292
0.00024442
0.366434
-0.342805
-0.189183
0.188421
-0.0671954
0.067957
-0.0062269
-0.0016857
0.00704636
0.000866236
-0.229625
0.403659
0.206065
-0.380099
0.280264
0.128465
-0.242257
-0.177463
0.0312771
0.184137
-0.0379512
0.0193388
0.00488189
-0.0199091
-0.234644
-0.314066
0.225632
0.00207811
-0.00712459
-0.000419728
0.285932
-0.547451
0.337355
-0.0758352
-0.0134284
0.00022804
0.0104051
0.00279521
0.33495
0.0523568
-0.335409
-0.0518984
0.0520457
0.244381
-0.0546432
-0.241783
-0.265081
-0.0291344
0.276264
0.0179516
-0.201924
0.170371
-0.128054
0.159606
0.00913238
0.00595024
-0.0121564
-0.00292624
0.0213282
-0.00473904
-0.00745682
0.0754996
0.0354662
-0.0698861
-0.096882
-0.131722
0.0771339
0.151471
-0.0423555
0.0910238
-0.399445
0.350777
0.420768
-0.408548
-0.0331058
-0.194608
0.0821025
-0.00462014
0.0050675
0.00802281
-0.00741446
-0.000783492
0.00562817
0.00256979
0.286549
-0.197888
-0.00268943
0.00453068
0.00690601
-0.00874727
-0.392335
0.0721952
0.0414231
0.278717
-0.30173
0.361452
-0.116403
-0.295271
0.142631
-0.180987
0.333626
-0.0521178
-0.324195
0.0598117
0.316501
0.152963
-0.203809
-0.294807
0.345653
0.000368607
3.9121e-06
-0.00749056
0.00711804
-0.000533649
0.00712228
-0.00927806
0.00210311
-0.00624832
-0.000528452
0.00467366
0.162007
-0.131887
-0.143669
0.319786
-0.0245425
-0.294999
-0.261836
-0.326147
0.279229
0.308754
-0.00446875
0.00675486
-0.00581884
0.0134252
-0.123779
-0.033214
0.143568
0.00952773
-0.00708963
-0.0110726
0.00276462
-0.00955827
0.00930905
-0.0299716
0.0161966
0.0228372
-0.00906216
-0.0647545
-0.196875
0.0803567
0.181273
0.193916
-0.00361924
-0.0600021
-0.130294
-0.0945412
0.233289
0.0656735
-0.204421
0.307613
-0.0378793
-0.299231
-0.00803391
-0.000741325
0.00816643
0.356034
-0.345189
-0.0532
-0.443757
0.247305
-0.0331727
-0.00317197
-0.00119264
0.00248898
-0.0044974
0.00113204
0.00926234
-0.00589697
0.111927
-0.00957319
-0.0889281
0.0392585
-0.299053
-0.000186748
0.0072511
-0.00123127
-0.00583309
-0.0119281
-0.00958108
0.00755047
0.0139587
0.0810297
-0.0529681
-0.513996
0.485934
-0.0395537
0.0392138
-0.00698104
0.000330676
6.77067e-05
0.00658265
0.314701
-0.0756322
-0.303283
-0.0989573
0.308539
0.0182624
0.0299561
-0.0138226
-0.034396
-0.000156201
0.00702833
-0.00737039
-0.310537
0.071165
-0.243897
0.0635549
-0.0044685
0.18481
0.402843
0.0484863
-0.401732
-0.0495979
-0.200173
0.238994
-0.2813
0.242479
-0.00241716
8.46766e-05
-0.00142249
-0.0622709
-0.210488
-0.579792
0.602134
-0.0601707
0.0499693
-0.0398838
0.016364
0.0108527
0.000373842
-0.00676498
-0.00446152
-0.248316
-0.366959
0.0281731
-0.00852599
0.00256713
-0.0222143
0.0615082
-0.470325
0.524962
-0.116145
-0.0117049
-0.00672626
0.0113329
0.00709829
-0.00141413
0.00236563
0.000929098
-0.308146
0.0442842
-0.0522536
0.316115
0.00127465
-0.0122258
0.0109972
0.0123441
-0.000275122
0.0379003
-0.0011084
-0.00613095
-0.121791
-0.320771
0.105097
-0.087049
0.254367
0.104292
0.0376786
-0.492658
-0.0602506
-0.0112199
0.00253571
-0.000699181
0.0784868
0.0229636
-0.0207806
0.121393
0.459939
-0.429583
-0.151749
0.0763464
-0.225106
0.309885
-0.161125
-0.00499945
-0.00127365
0.00172853
0.00454457
-0.487681
0.487666
-0.0466977
0.046713
0.100595
-0.0134073
-0.0579124
0.00469497
-0.00766068
0.00185731
0.00668807
-0.00583646
0.00440736
-0.000673497
-0.00677487
0.00304101
-0.0903085
-0.337913
0.0912306
0.336991
-0.304001
-0.213874
0.000663269
0.000698869
-0.0533484
0.0827346
-0.308341
0.278954
0.000606663
-0.00858879
-0.000949287
-0.11365
0.170922
0.0326602
0.261641
-0.24531
0.0563873
-0.362737
0.378291
-0.00998411
-0.00905112
0.00560687
0.00872138
0.00550662
-0.00926257
-0.00496542
-0.033866
0.00668263
0.00898347
0.0182
0.00888315
0.0169208
0.178745
-0.253669
-0.119398
0.00538106
0.0188391
-0.00488137
0.000401666
0.000680302
0.00272502
-0.00380698
0.0938912
-0.221177
0.292633
-0.165348
0.109535
-0.15087
-0.247071
0.0392315
0.000463069
0.00725796
-0.00737834
-0.000342689
0.0575819
-0.0840549
-0.284064
0.00664518
0.000840259
-0.000714397
-0.00677105
0.274535
-0.317355
0.0866297
-0.0438097
0.00767775
-0.0150443
0.00935002
0.0836219
-0.0498738
-0.277645
7.31794e-05
-0.000437397
-0.00460389
-0.0713347
-0.331465
0.0850434
0.317757
0.236476
0.0386129
-0.235797
-0.0392922
0.00721649
0.00535107
-0.00295431
-0.00961325
0.00597435
-0.00365324
-0.00559572
0.00327461
0.0906286
-0.363718
0.551461
-0.278372
0.00824739
-0.00874842
0.00326565
-0.0485887
0.0473575
0.035976
0.00320467
-0.0141966
-0.00265069
-0.00197725
0.00321381
0.00433448
-0.00836695
-0.00343629
0.00326952
-0.00459442
0.00573226
-0.0108004
0.00377787
-0.0119492
-0.225017
0.00569334
-0.00517214
0.0046105
-0.0051317
-0.357809
0.307772
0.0124284
-0.00857946
-0.239648
0.00899225
0.000457028
-0.00897958
-0.000469693
0.00467424
-0.00765267
-0.00913611
0.0121145
-0.0301736
-0.0319926
0.0174963
0.0446699
0.00947267
0.00168861
-0.0271905
0.0200699
-0.0141477
0.0212683
-0.122613
-0.393834
-0.0207586
-0.0149579
0.00718206
-0.00154305
0.00315386
-0.00412171
0.376395
0.0524921
-0.0808455
-6.60727e-06
-0.00688878
0.00173212
-0.00346898
0.0549783
0.0475709
-0.0330066
-0.396565
0.0634768
-0.0607622
0.39385
0.136559
-0.201403
-0.112619
-0.0108994
-0.00140215
0.0077434
0.00455816
0.0083429
-0.000477493
0.00608871
0.00546225
0.100513
-0.0423811
-0.0797212
0.0215888
-0.00334219
0.00635145
-0.0374012
0.00702262
0.510008
-0.47963
0.00233137
-0.00862972
0.00662902
-0.00179121
0.000803666
-0.00187961
-0.0050357
0.00109388
0.00582143
-0.366925
-0.28539
0.208558
0.0636504
-0.0337523
-0.228607
0.0207285
0.213666
-0.00578796
0.0126425
0.0125453
-0.0141507
-0.0110371
0.0012469
-0.00601477
0.0218563
0.00434438
0.00697426
-0.00486913
-0.0064495
0.20847
-0.096379
-0.206632
-0.0801823
-0.0213174
0.0581917
0.043308
0.00704727
-0.215608
-0.173903
0.382464
-0.00769763
0.0012876
-0.284493
-0.0159357
0.247081
0.00737351
0.004265
-0.00729414
0.00347385
-0.0233673
-0.0103479
-0.00223945
0.000422455
0.0121649
-0.162896
-0.258157
0.0657655
0.355288
-0.273023
0.315555
0.153651
-0.196184
-0.00913241
0.00883562
-0.00968733
0.00541226
0.0147299
-0.0152603
0.0065154
-0.102816
0.0803686
0.588095
-0.608287
-0.0593221
0.489655
-0.656399
0.22583
-0.0590857
-0.00154848
-0.00724593
0.00142572
0.00736869
-0.104698
-0.175242
0.205136
0.0748037
-0.000467991
-0.00825006
-0.0322188
0.0203076
0.0114033
-0.00538895
-0.0163623
-0.00469888
0.00540606
0.0111709
-0.0118781
0.00713793
-0.000202934
-0.00746864
-0.000221074
-0.00601456
0.000383877
-0.000847551
0.00282931
0.049816
0.247261
0.0643744
-0.186298
0.303692
0.226636
-0.34403
0.36843
-0.604897
0.355463
-0.118996
-0.062676
0.0519401
-0.0134503
0.0103543
0.011428
0.141951
-0.389495
0.234265
0.0132785
-0.0484496
0.0284688
0.334758
-0.0145747
-0.313136
0.00288922
-0.00135335
-0.00895034
-0.210135
0.0658501
-0.059913
0.204198
-0.00354852
0.00342945
0.00709333
-0.269882
0.213537
-0.276748
1.27809e-05
0.0431365
0.472995
0.0613148
0.156345
-0.228035
0.00649452
-0.00519757
-0.00209406
0.00339177
0.00389986
-0.0479009
-0.143623
0.162392
0.0291313
-0.391839
0.00137137
-0.00576253
-0.00178171
-0.00358867
-0.00552904
0.00505239
-0.0214877
0.297787
-0.20382
-0.0154312
0.0044178
0.00352678
0.00748659
0.0634477
-0.0603335
0.0605361
-0.0228586
-0.30033
0.0148477
0.21251
-0.404293
0.269512
-0.0777287
0.479702
0.0697761
-0.0598234
0.0679514
-0.0596483
0.138442
-0.205222
0.251912
0.192304
0.0062838
0.00790058
0.259538
0.0520419
-0.0521995
-0.259381
-0.00365479
-0.0112874
0.0147218
0.173453
-0.136779
-0.0386876
0.239284
0.00207095
0.00639121
0.0067046
0.00116283
-0.00288237
0.00957937
-0.00645023
0.0002557
-0.00338483
0.0141713
0.221476
-0.202987
-0.558219
-0.446633
0.122672
0.0134612
-0.320813
-0.00672737
0.00308577
0.0238196
0.0214316
-0.0318309
-0.0134203
0.00739585
0.00367127
-0.00281973
0.00842298
-0.00697604
0.00396531
0.0061834
0.0260861
-0.0387012
0.00643169
-0.0443007
0.0709205
0.0488797
-0.166572
-0.0793819
0.134481
0.111473
0.00468368
-0.00754988
-0.000145668
-0.00969074
-0.0029681
0.00389103
-0.00865515
-0.0467416
0.705639
-0.0603692
0.109875
-0.0154598
-0.0589492
-0.0043587
0.00570602
0.0060262
0.0718451
0.0781407
-0.0573384
-0.0926474
-0.0142677
-0.00777545
0.0111554
0.00426647
-0.0322267
-0.00590581
0.139002
0.057143
-0.119011
-0.21908
-0.0373103
0.0677438
0.188647
-0.057401
0.255132
0.0484574
-0.246188
-0.00335745
0.00558711
0.00691512
-0.00914478
0.309521
-0.201884
0.196764
-0.304401
-0.218029
-0.0714703
0.12998
0.159518
0.0118575
-0.00899954
0.00906383
-0.00934294
0.000885779
-0.236513
0.17223
-0.00539115
0.0112227
0.00309311
-0.00892464
-0.0183148
-0.00546406
0.00883276
0.00175712
0.00629533
-0.000543285
0.00917001
-0.177466
-0.201396
0.380071
-0.332664
-0.0278743
-0.0195327
-0.00515558
-0.00236158
0.00575552
0.00176164
-0.133973
0.175928
-0.204851
-0.333003
0.353506
-0.179403
0.1589
-0.527074
-0.0616958
0.501114
0.0876563
-0.112975
0.166662
-0.101588
-0.0341124
0.0257875
0.429093
0.00225385
0.00861476
-0.00442284
0.00246905
-0.00169945
0.0512217
-0.0367995
-0.00226409
0.000939866
-0.00203322
-0.00333997
-0.00529636
0.00850737
-0.0130541
0.0153274
-0.0098226
0.00533238
-0.461657
-0.196734
0.291466
0.0119022
-0.0382237
-0.00451509
0.0308365
-0.318049
-0.0428344
0.00467983
0.0072466
-0.00444025
0.0271079
0.484312
-0.561874
-0.00109837
-0.00253087
-0.00176191
0.188122
-0.0733544
-0.219466
-0.154201
0.322643
-0.00525737
0.00835805
0.00210407
0.00604217
0.00787774
-0.102829
0.00406908
-0.009337
-0.265697
-0.378069
0.0750831
0.145052
-0.0767033
-0.143432
0.01973
0.00922302
4.80339e-06
-0.000125882
-0.00693031
0.00705139
-0.0098583
0.0160081
-0.00687727
0.000727496
-0.318928
-0.0090153
0.0592571
0.268686
-0.0553726
0.195335
-0.249105
0.267521
-0.306513
0.00161705
-0.61954
0.0699221
-0.0586693
-0.0106379
-0.0354035
-0.20888
-0.17565
0.0578767
0.326653
-0.066977
0.196608
-0.194386
0.0202642
-0.0214405
0.0226078
0.00852492
-0.0065102
0.00472439
0.00631649
0.010517
0.03758
-0.0326977
0.533478
-0.562973
-0.273376
0.302871
-0.00630023
0.139514
-0.427956
0.511637
-0.0139379
-0.330813
0.343817
0.000933494
-0.024328
0.0256983
-0.0205535
0.0191833
0.050353
0.000662731
-0.0391135
-0.0160444
0.00588312
-0.0105973
-0.138733
0.0316155
0.151523
-0.0444056
0.214177
-0.0588356
0.0439264
-0.199268
-0.0734052
0.0493633
0.0630529
-0.198395
-0.117545
0.0100241
-0.261814
0.0552852
0.196504
0.0416879
0.0198401
-0.0264249
-0.035103
0.000682845
-0.00163991
0.00764513
-0.0464627
0.365257
0.0184339
0.00329887
-0.0116197
-0.0101131
-0.00653359
0.00504872
-0.00461339
-0.0427281
0.00911779
0.00967369
0.00539673
-0.00554269
0.0214321
-0.026031
-0.0153727
0.0199716
-0.113487
-0.53839
0.124803
0.0116372
-0.0104
0.00453017
-0.00576734
0.412
-0.16085
0.127117
0.221855
0.0823198
0.0601434
-0.0770336
-0.0654296
-0.000307559
-0.00854431
-0.000462091
0.00931397
4.56159e-05
-0.00104877
0.00773356
0.0204421
-0.023338
0.00908471
-0.00909751
0.00794624
-0.00793344
-0.0131963
-0.00204479
0.00301525
0.0787358
0.163464
-0.0907296
-0.440461
-0.0436577
0.0311941
0.452925
-0.485634
0.0370251
0.00748332
-0.0209593
-0.0173413
0.0233427
-0.00296739
0.00402403
-0.000209788
-0.000112772
-0.00744474
0.00776729
-0.0167395
0.318862
-0.747524
0.186108
-0.0581236
0.0355215
0.019098
0.0322892
0.00659155
-0.0102476
0.0245317
-0.021176
0.0169518
-0.153254
-0.308916
0.0447719
0.417398
0.00011492
-0.00505816
0.00044584
0.291108
0.207781
-0.359374
-0.0992949
0.0744265
0.00483966
0.00364658
-0.633055
-0.0566649
-0.0578036
0.117671
-0.0241343
-0.092776
-0.000760352
0.0371547
0.0864038
-0.00495052
-0.00673182
-0.0216985
0.325003
-0.0907943
0.00664437
0.00245208
0.000482912
0.00382575
-0.0101337
0.0185466
0.00974461
-0.0170685
0.00801083
-0.0559797
0.0164199
0.031549
0.262725
0.0212049
-0.243659
-0.0402708
-0.392161
0.379317
0.0258538
-0.0130104
-0.0413539
-0.43322
-0.0775614
-0.367722
0.179586
-0.00661902
0.0132908
-0.016502
0.00983023
-0.0133906
-0.00502574
-0.00683093
-0.365002
0.264218
0.0565714
-0.0462538
-0.0415287
-0.0455799
-0.355575
-0.0602775
0.344518
0.296822
-0.049009
0.044833
-0.131425
-0.0521404
0.580009
-0.0785555
-0.170014
-0.336582
0.248738
-0.331425
0.283081
0.289048
-0.240704
-0.0333735
0.131837
0.334506
-0.00364774
-0.00408287
0.00114123
0.00658938
-0.362722
-0.170921
0.502602
0.0310413
-0.00571156
-0.000852085
0.0114319
-0.00486822
0.0723464
-0.124204
-0.048952
0.10081
-0.272905
0.179868
0.396729
0.00772395
-0.00225731
-0.264532
-0.0259839
-0.362478
0.101942
0.286519
0.00841868
0.00128725
-0.0192923
-0.00382519
0.014118
0.0119438
-0.0126255
-0.00917662
-0.384173
-0.157273
0.0797891
0.234502
-0.0722001
0.00105387
-0.000213558
0.00586428
0.00580015
-0.00223411
-0.541635
0.00420886
0.00724218
-0.00856182
0.0412566
-0.48255
-0.0463877
-0.596942
0.540634
-0.0571793
0.177106
0.0255006
-0.0398747
-0.394174
0.150089
0.0223558
-0.34146
-0.0467298
0.365834
0.00869353
0.00777369
-0.00493951
0.00627653
-0.00488554
-0.0168709
0.00397301
0.018304
-0.00722538
-0.000374033
-0.0127798
0.0135125
-0.00225971
-0.54668
0.604716
-0.0557757
0.0130872
-0.3636
0.066949
-0.0589234
0.0298503
0.034017
0.00429919
-0.155052
0.28523
0.0964583
0.0397461
0.476913
-0.477254
-0.039405
0.548301
-0.523453
-0.000710855
-0.00523052
-0.231038
0.226126
-0.230763
0.255603
0.0130054
-0.0378453
-0.00419365
0.0275068
0.023293
-0.0282207
0.259223
-0.00470696
-0.226296
0.0648728
0.152865
-0.00828458
-0.000214105
0.00844133
0.0436322
-0.259197
-0.564383
-0.0333165
-0.0586994
-0.09709
0.0231966
0.281779
-0.0152202
-0.00178512
-0.0568141
0.169176
-0.172274
0.0599114
-0.0244167
0.0217861
-0.292875
0.203598
0.0101738
-0.00726985
0.00150262
-0.00440653
-0.0488602
0.0571048
0.00867997
0.216686
0.0358784
-0.209597
-0.00437847
-0.00892381
0.00631779
0.0454998
0.0763533
0.0705056
0.298147
-0.076218
0.0277843
0.00723971
-0.014582
0.0102502
-0.0624437
0.124039
0.0315188
-0.0251068
0.0451833
-0.0515953
0.0112152
-0.00614096
-0.00456676
0.00481158
0.00405437
0.109391
-0.0286587
0.0912827
-0.172015
-0.015489
0.0354702
0.00720929
-0.0271904
0.0881157
-0.372436
0.396386
-0.30661
0.244296
-0.423514
-0.00472711
0.0149232
-0.0104962
0.00673472
0.00605492
0.0208836
-0.221301
-0.0663984
0.187613
0.100086
0.0844354
-0.0904177
-0.0273051
0.169716
-0.0749336
0.0700767
-0.164859
0.386195
-0.397705
0.0608974
-0.0493876
0.250906
-0.135991
0.184018
-0.298933
0.41625
-0.422569
0.0563431
-0.0500242
0.45334
-0.375244
-0.0557401
0.452475
-0.0210074
-0.338657
-0.046699
0.506749
-0.0353989
0.000535392
0.0302502
-0.167112
-0.375935
0.341807
0.20124
-0.0250317
-0.0414671
-0.10077
0.152822
-0.0259765
-0.320706
-0.517199
0.0259392
-0.0554205
0.177012
-0.0308033
-0.132037
-0.022965
0.0144857
-0.00217041
0.0720817
0.245514
-0.0580571
-0.369878
0.0273157
-0.0421061
0.475191
-0.460401
0.209013
-0.0903173
0.0139816
-0.0312028
-0.1851
0.202321
-0.0412209
0.278275
-0.265274
-0.0467586
0.488032
-0.0386983
0.226142
0.0292426
0.0195562
-0.0156842
-0.327275
0.315523
-0.127725
-0.243896
0.0779433
0.242299
-0.0156066
0.0277503
-0.0276327
-0.000952513
-0.0137258
-0.0090674
0.0278101
0.0164892
-0.0257528
0.00262287
-0.00343208
-0.00215817
0.257572
-0.0446318
0.0055135
-0.00745893
0.0308238
-0.0410718
0.183101
-0.172853
-0.3724
0.191111
0.253371
0.37972
-0.0173214
0.000312171
-0.36271
0.321053
0.0349799
-0.0484198
-0.0480958
0.355602
-0.0444156
0.0389916
-0.350178
-0.110512
0.771478
-0.0562507
0.40687
0.0595205
-0.0501402
-0.00163979
0.0136491
0.025891
-0.0149896
-0.0320365
0.0255856
0.0139438
-0.0023823
-0.212617
0.201056
0.337567
0.170845
-0.0550721
0.214452
-0.180426
0.0218795
-0.0559061
0.246187
-0.19783
0.16182
-0.196863
0.0852575
-0.0502145
0.167135
0.116937
-0.0696198
0.0694438
-0.00246541
0.0138934
-0.0808718
0.174048
-0.0760202
0.0716886
0.0379718
-0.0162417
0.01374
0.240006
0.107615
-0.101434
0.359874
-0.0163855
0.00706822
-0.350557
0.153763
-0.1415
0.122004
-0.134266
0.223526
-0.236837
-0.0661811
0.0794923
0.303024
-0.519011
-0.0929296
0.171919
-0.068966
0.0956754
-0.198629
0.359476
0.0227362
-0.0223381
0.172548
-0.170327
0.0336577
0.0201553
0.415317
-0.410816
-0.0246558
0.279433
-0.315632
0.0149481
0.0212511
-0.0418015
0.191567
-0.135784
-0.04039
0.235329
0.226286
-0.206157
0.143828
-0.163957
0.270533
-0.185642
0.201657
0.0524249
-0.0594647
0.168859
0.00714064
0.14514
-0.13642
-0.0158608
-0.023294
0.122866
-0.109012
0.00944044
0.0925061
-0.0487269
-0.0696501
0.0258708
0.0580986
0.0155546
-0.00420939
0.164193
-0.0719923
0.0350069
-0.0284973
0.0314622
0.0772228
0.216484
-0.11966
0.16983
-0.147954
0.202888
-0.0550279
0.0756661
0.238514
0.100879
-0.099387
0.0901253
-0.0521791
0.0137856
-0.0237688
0.318758
-0.308775
0.332479
-0.0240574
0.0177409
-0.326162
0.237424
0.029402
0.012607
0.244536
-0.12366
0.13003
0.29687
-0.206575
-0.0632936
0.0647578
-0.409136
0.407672
0.386895
-0.376012
-0.00840381
-0.00247928
0.0272145
0.023069
0.289422
-0.496236
0.233776
0.248309
-0.211553
0.387102
0.0165943
-0.0172234
0.234664
0.145436
-0.135564
-0.325308
-0.123694
0.158642
-0.0926037
0.0837293
0.172339
-0.188765
-0.276168
0.201629
0.263305
0.162547
-0.14949
-0.00591607
0.129286
-0.120965
0.210174
-0.196899
0.0639478
-0.00445259
0.314754
-0.34586
0.035558
0.416351
-0.0327388
0.00328226
-0.120128
-0.318249
0.100463
0.227145
-0.442591
0.306469
-0.0436607
0.347501
0.0432951
-0.347136
0.0305594
-0.0286041
-0.0175619
0.125183
0.325756
-0.145099
0.0553001
0.154672
-0.0623293
0.313754
-0.312391
0.0609661
-0.00590255
0.301467
-0.321872
-0.168134
0.0611107
-0.428092
-0.060924
0.427906
0.053734
-0.0761577
-0.0815476
0.103971
-0.0812403
0.192867
0.268445
-0.00794592
0.00726523
-0.00372583
0.301278
-0.404688
-0.253027
0.48418
-0.253035
-0.406954
0.175809
0.274607
0.417626
-0.333654
-0.0558042
-0.0281677
-0.00057242
0.00144613
-0.00944653
-0.00134254
0.258595
-0.359612
0.0293646
-0.017856
0.191622
-0.117863
0.343867
0.361931
0.190375
-0.357523
-0.194783
-0.263817
0.267392
-0.37601
-0.00802598
-0.0586988
0.46173
-0.113934
0.047479
-0.0604349
0.0166907
0.0312452
-0.00538898
-0.18069
0.173661
-0.134471
0.0956934
-0.123694
-0.0735097
0.0753533
0.0518904
-0.116185
0.056857
0.116747
-0.0574195
-0.0484944
0.0746715
0.00882988
-0.304249
0.15525
-0.0670769
-0.0336576
0.2019
0.0087699
0.0237853
0.158561
0.148081
0.0994756
-0.0310719
-0.0905468
0.0821475
-0.328677
0.337076
-0.193612
0.053907
-0.0455581
0.0779261
-0.157095
0.170772
0.223747
-0.268974
0.160342
0.171101
-0.062469
-0.0515967
0.0361856
-0.0847015
0.0610231
-0.0174458
0.0189602
-0.00713443
0.102627
-0.0989604
0.234847
-0.373788
0.378057
0.0989459
-0.103215
0.0378151
0.0486608
0.0384399
0.262455
-0.255578
-0.0453165
-0.0715932
0.324882
-0.334529
0.249488
-0.0762778
-0.1401
0.0366132
-0.00513105
0.000920349
0.00293706
-0.425972
0.0135535
-0.196083
0.0987232
0.199988
-0.317257
0.299051
0.163386
-0.14518
0.0213252
-0.462297
0.473706
-0.0327342
-0.13558
0.327448
0.21093
-0.336564
-0.111582
0.14166
-0.174631
0.220529
0.285357
-0.14167
-0.329328
0.332374
-0.0236643
-0.259125
0.284006
-0.0607954
0.0408954
-0.318017
-0.259451
0.344518
0.23295
0.00536547
0.00743639
-0.0209362
0.00813436
-0.0728125
0.0233431
-0.229135
0.278604
0.447983
0.270312
-0.436014
-0.282281
-0.214669
0.201536
0.206
0.249281
-0.152783
0.0875199
-0.284616
0.200376
-0.0351532
-0.0167805
0.00343929
-0.299364
-0.0935161
0.171579
-0.212797
0.0293986
0.221927
-0.0385291
-0.233515
0.18545
0.239176
-0.470238
-0.0301946
0.148997
-0.0386047
0.00335452
-0.0086019
0.421599
-0.434252
0.0153854
0.273046
0.14582
-0.0471259
0.0242713
-0.101541
0.227285
-0.180829
-0.0548271
0.0518796
-0.081754
0.0113413
0.369582
-0.0587696
-0.322154
0.241146
0.177729
-0.258533
-0.136455
-0.0900551
0.218492
0.00801772
-0.00737304
-0.00632475
0.0327823
0.410173
-0.0493983
0.334267
-0.0514346
0.503807
-0.498633
-0.0519323
-0.449518
0.456413
-0.0505523
0.346249
0.0625301
-0.0527456
-0.43586
-0.0500031
-0.433152
0.42708
0.0560133
-0.0499406
0.490434
-0.538873
0.103368
-0.0549293
0.378342
0.0571229
-0.0492692
-0.516128
0.538797
0.0306437
-0.0533127
0.499117
0.0140422
-0.0508586
0.514848
0.0534705
-0.515732
-0.0525867
-0.573114
0.684081
-0.0570759
-0.0538915
-0.482333
0.0501365
0.487793
-0.055597
0.442768
0.0595321
-0.452891
-0.049409
-0.0496327
0.0610015
0.396172
-0.0503035
-0.432952
0.440472
0.0426739
-0.0501939
0.0900767
0.30221
-0.0547192
-0.0658155
0.180609
-0.267232
0.259594
-0.166993
0.0125826
-0.00853878
0.0037532
0.0684529
-0.0565019
0.151381
-0.224949
0.215519
0.312396
-0.207016
0.312018
-0.0393894
0.323914
-0.27058
-0.0113524
0.00133971
0.132878
-0.201823
-0.0364772
0.026482
0.155135
-0.0266581
0.331325
-0.338164
0.358966
0.0291364
-0.0499392
0.442176
0.0172952
-0.0492979
0.360067
0.0244646
-0.0502649
-0.435538
0.367337
-0.0535896
0.179378
-0.0454559
-0.222453
0.336693
-0.39274
0.402731
-0.161379
-0.00942186
-0.0130794
-0.363667
0.386168
0.0500833
-0.0552585
0.167568
0.0547876
0.0255899
-0.211994
-0.256719
0.0920846
-0.10983
0.274464
0.256857
-0.420219
0.0159132
-0.0376031
-0.0134634
0.23758
-0.257905
-0.25249
0.272815
-0.242195
-0.157244
0.114823
-0.344101
0.357025
0.0394679
-0.0523917
-0.381531
0.421934
-0.0498248
-0.317965
0.325597
-0.0560813
-0.345547
-0.0556735
-0.355983
0.360522
0.0457473
-0.0502861
0.316415
-0.318817
0.0577996
-0.0553975
-0.577256
0.466236
0.160381
-0.0493613
-0.384454
0.402016
0.0317833
-0.0493455
-0.535115
-0.0638445
0.650034
-0.0510743
0.476502
0.169097
-0.59349
-0.052109
0.475554
-0.453531
0.0312444
-0.0532673
0.504797
-0.491645
0.0407174
-0.0538694
0.0601294
-0.391936
-0.0104318
0.00817461
0.317012
0.203882
0.236358
-0.269139
0.214932
0.160052
-0.147699
0.339703
-0.230807
0.36691
-0.247036
-0.0241808
-0.288545
0.0591804
0.105752
-0.108075
-0.360736
0.055257
-0.0505037
-0.0557254
0.0290495
-0.0500585
0.0789133
0.449912
-0.0523232
0.0547307
-0.0525821
0.506725
0.0522286
-0.0541564
-0.332751
0.0431164
-0.0559122
0.0432191
-0.0493314
-0.0534926
-0.324528
0.0603774
-0.0546666
-0.455697
-0.0720907
-0.0494686
0.0149052
-0.0509035
-0.124433
-0.380587
0.25708
-0.293557
-0.0447693
0.0544647
-0.162465
-0.0284547
-0.270267
0.28778
-0.16121
0.0215108
0.173838
-0.390417
0.274107
-0.23542
0.228242
0.216786
-0.187808
0.00262462
0.000313346
0.00174571
-0.107147
0.102126
-0.238875
-0.161658
-0.00783366
0.0169184
0.141719
0.300103
0.223223
-0.0439948
-0.342362
0.0530699
-0.278697
-0.0416043
0.0586129
-0.0478174
0.0397122
-0.0505076
-0.000378098
0.00491306
-0.266312
0.225031
-0.458511
0.132464
-0.0298723
-0.00169168
0.194272
0.0543603
-0.0474408
0.437083
0.0515643
-0.0528443
0.525363
-0.0324561
-0.0653461
-0.427561
0.0591523
-0.0495366
0.235483
-0.349639
0.0834404
-0.335294
0.00965858
0.026549
0.0371571
0.260617
-0.274639
0.191751
-0.0489786
-0.299302
-0.106085
0.383271
-0.367732
-0.0793791
0.0851648
-0.00203246
-0.309079
0.082985
0.0612665
-0.186477
-0.00415035
0.227929
-0.107204
-0.00285395
0.380935
-0.371012
0.18497
-0.103893
0.133854
-0.0110985
0.00332763
0.0406151
-0.0491159
0.0757423
0.0255817
0.104965
-0.049939
-0.422417
-0.0927157
0.281617
0.00976278
0.144846
-0.156991
0.0419248
-0.0514002
-0.0439611
0.261143
0.302438
-0.202615
-0.2801
0.180277
0.166151
-0.0608636
0.348747
-0.146824
-0.242541
0.0711173
-0.292368