/*--------------------------------*- C++ -*----------------------------------*\
  =========                 |
  \\      /  F ield         | OpenFOAM: The Open Source CFD Toolbox
   \\    /   O peration     | Website:  https://openfoam.org
    \\  /    A nd           | Version:  10
     \\/     M anipulation  |
\*---------------------------------------------------------------------------*/
FoamFile
{
    format      ascii;
    class       volVectorField;
    location    "950";
    object      U;
}
// * * * * * * * * * * * * * * * * * * * * * * * * * * * * * * * * * * * * * //

dimensions      [0 1 -1 0 0 0 0];

internalField   nonuniform List<vector> 
23845
(
(0.711556 -0.106791 1.1852e-20)
(0.47465 0.0966228 -5.21475e-21)
(0.23917 -0.0115348 2.74932e-20)
(-0.136439 0.0167491 7.29691e-22)
(0.0753253 0.0583476 5.40343e-21)
(0.810589 -0.00717756 -1.21524e-24)
(0.916105 -0.0285553 -1.28708e-20)
(-0.0756055 0.0664265 -2.67381e-22)
(0.935204 -0.00781907 6.21593e-24)
(0.852578 0.0964198 -5.84021e-21)
(0.447914 -0.0478725 -5.46998e-21)
(0.750875 -0.000805943 3.78165e-24)
(0.927677 0.015456 1.86149e-23)
(0.890596 -0.00843916 1.54879e-24)
(0.713618 0.0336817 -2.16488e-20)
(0.93392 0.0732922 -1.03995e-21)
(0.808699 0.0205542 1.46022e-23)
(0.599355 -0.0161819 -1.02823e-23)
(0.948601 -0.0257339 -1.8057e-22)
(0.775661 0.0084155 2.8413e-22)
(0.888782 0.0977857 1.9161e-20)
(0.400633 -0.0361973 -9.7534e-21)
(1.05633 -0.0515949 -3.20248e-21)
(0.941664 -0.00825534 6.92651e-24)
(0.759848 0.0870615 -1.02004e-21)
(0.993046 0.00732592 -1.12528e-23)
(0.937227 0.0520195 1.07023e-20)
(0.805298 -0.00870155 4.3494e-22)
(-0.0526818 -0.117548 7.82554e-21)
(0.801422 0.00957772 -1.711e-22)
(-0.148756 -0.0088429 3.23006e-20)
(-0.0310816 0.0859331 4.18153e-22)
(0.414928 -0.0196411 1.01203e-20)
(0.648759 -0.0216829 -7.69066e-25)
(0.747721 0.000588425 -1.52168e-23)
(0.740884 0.00425595 2.23527e-22)
(-0.0436883 0.116779 -7.18024e-21)
(0.749712 -0.000787897 -3.80129e-24)
(0.778244 -0.00417308 -1.80892e-23)
(0.919524 0.00916932 8.4617e-24)
(0.976975 -0.0320645 1.37783e-22)
(0.735379 -0.0159457 3.75002e-22)
(0.94902 -0.0137643 -1.77857e-22)
(0.682487 0.0133879 -2.02096e-22)
(1.01132 -0.00734616 -4.77766e-23)
(0.885297 0.0161653 6.38839e-23)
(-0.0705784 -0.0249957 -1.85682e-21)
(0.891808 -0.0703826 -4.65974e-21)
(-0.0235533 0.00961627 1.56822e-21)
(-0.0595669 -0.115579 3.44278e-21)
(-0.0491366 -0.0441454 7.18195e-22)
(0.154758 -0.0149886 -4.02122e-21)
(-0.0220338 -0.0407314 -3.65797e-21)
(0.857867 -0.00903917 -1.58045e-22)
(-0.0342748 0.0957951 7.62411e-21)
(0.865944 0.0206284 2.18676e-23)
(0.210171 0.0702759 2.71711e-20)
(-0.0907481 -0.0367488 1.8794e-20)
(0.782219 0.104106 -3.72138e-20)
(0.00980847 0.0258488 -1.73646e-20)
(-0.0428934 0.102904 2.55633e-21)
(0.696186 0.015167 6.89672e-23)
(0.922371 0.0624848 -1.15269e-21)
(-0.0377478 -0.0966681 3.36156e-21)
(0.961047 -0.00836271 1.05057e-24)
(0.9098 0.0149424 -9.03074e-23)
(0.978246 0.0344369 1.1018e-20)
(1.01976 0.006858 9.27774e-23)
(1.01808 -0.00731408 -1.77764e-22)
(0.937822 -0.0328424 5.69846e-23)
(-0.0606099 0.0873782 2.72806e-22)
(0.146233 0.00587305 1.67723e-20)
(0.983773 0.0095651 8.42111e-24)
(0.794991 0.0314297 1.24719e-20)
(0.981263 -0.00810181 -2.81697e-22)
(0.656662 0.0325088 -7.77372e-23)
(0.756244 -0.00193594 -5.30613e-24)
(0.775313 -0.00455531 2.40489e-23)
(-0.118705 -0.0226354 3.82766e-21)
(0.787987 0.0304432 -1.31485e-24)
(0.967736 0.0694264 -2.58699e-21)
(0.680465 -0.0383211 -3.80545e-20)
(0.32457 0.0850693 -4.59015e-21)
(-0.0851205 -0.0533477 -7.9385e-22)
(0.242515 -0.00285487 -7.89262e-21)
(0.74908 0.00181718 -3.61472e-23)
(0.608325 0.0579828 1.45044e-20)
(-0.017668 -0.0134549 1.70551e-20)
(0.96129 -0.00784146 9.47321e-23)
(0.854803 0.0296006 -1.19487e-22)
(-0.0478043 -0.0816607 -1.27022e-20)
(0.972204 0.041396 -6.50658e-22)
(-0.0482456 -0.106246 1.13448e-20)
(0.749969 -0.00494296 -1.75723e-22)
(-0.0877843 -0.0249436 2.81607e-21)
(-0.0535589 -0.0919181 -3.56053e-20)
(0.844409 -0.0197408 1.81335e-23)
(0.873215 -0.0729484 -3.62061e-22)
(0.979995 -0.00806252 2.11435e-23)
(-0.0110691 0.0379623 -8.21764e-21)
(0.849501 -0.0235043 5.58944e-23)
(0.974617 0.0309513 3.77638e-21)
(0.405466 -0.098091 1.50181e-20)
(-0.0689599 -0.0877481 -1.59281e-20)
(-0.0541576 -0.0939675 -2.96334e-20)
(-0.0934695 -0.0452881 5.23706e-21)
(0.830466 -0.00812587 8.86613e-24)
(0.993157 -0.00802506 1.64265e-22)
(1.03487 0.0259233 -1.70168e-21)
(0.710722 0.0139798 2.0061e-22)
(0.496279 -0.0437242 -1.60793e-21)
(0.754712 -0.00213506 -7.68631e-24)
(0.357164 0.0117126 1.60902e-20)
(0.846292 -0.0887378 -2.21515e-21)
(0.744663 0.00480362 -1.11863e-22)
(0.954287 -0.0888313 -2.73833e-21)
(0.978239 -0.00774223 -1.24117e-22)
(0.939869 0.0832164 -5.92296e-21)
(-0.0525096 -0.119031 5.74868e-21)
(-0.0224108 0.0840944 -1.59128e-20)
(0.767665 -0.0035049 -2.42652e-23)
(-0.0394588 -0.0935869 -1.97438e-21)
(0.938262 0.0324698 6.47617e-23)
(0.0225736 0.0438183 3.50142e-20)
(0.958771 0.0295783 -3.6518e-21)
(0.987801 0.00771811 -1.7971e-23)
(-0.0458613 0.0994552 2.15226e-21)
(-0.0606405 -0.110979 -1.30059e-20)
(0.124924 0.0227509 1.05696e-21)
(-0.0584681 -0.0339757 1.26749e-20)
(0.128773 0.0275504 1.85871e-20)
(0.470048 0.0847829 5.96316e-22)
(0.316627 -0.0511541 2.70838e-22)
(0.858622 -0.00808974 1.61494e-24)
(0.824946 -0.0289742 2.67019e-23)
(0.572824 -0.107014 4.34391e-21)
(-0.0658782 0.0939714 3.33207e-20)
(0.752219 -0.00095376 1.04144e-23)
(1.0263 -0.0301599 6.46912e-23)
(0.7831 -0.00493964 1.73118e-23)
(-0.0551054 -0.123817 -1.57292e-20)
(0.726418 -0.0138919 -1.27716e-22)
(0.767485 0.00534234 5.16588e-23)
(0.658865 0.0127715 3.53017e-22)
(0.928396 -0.0541916 -2.3843e-21)
(0.699059 0.0121198 -2.24839e-22)
(0.953586 -0.0877177 -3.17602e-22)
(0.38769 0.0216651 4.29618e-20)
(0.00882749 0.0734179 -1.30034e-20)
(0.86774 0.0395218 2.21767e-22)
(0.436979 0.0173342 -1.68792e-20)
(0.951596 0.0108691 -3.22198e-23)
(0.443429 -0.0644805 1.55045e-20)
(0.904888 -0.0111331 9.37396e-23)
(0.319857 -0.0052801 -5.84757e-21)
(0.728454 0.0506148 -8.60821e-22)
(0.232418 -0.0832467 -5.19552e-21)
(0.750945 -0.00304842 -7.68073e-23)
(0.15466 0.0206573 1.29994e-21)
(-0.0537809 -0.107284 3.74948e-21)
(0.926894 0.0409231 2.92385e-22)
(0.658741 -0.0309692 -1.81873e-21)
(-0.0830243 0.0124357 -1.03186e-21)
(0.953364 -0.00804595 1.71658e-23)
(0.993805 -0.0157096 -2.05183e-23)
(0.788978 0.0391594 1.81279e-22)
(0.828968 -0.00736709 -2.71356e-23)
(-0.0447966 0.101148 -5.66612e-21)
(0.797044 -0.00829458 -3.16244e-23)
(0.696618 -0.0112788 2.86299e-22)
(0.842078 0.00826321 2.43386e-23)
(-0.117925 0.0215193 5.2195e-21)
(0.947609 -0.00872387 1.49232e-23)
(-0.0118538 0.0454547 -7.38423e-21)
(0.958605 0.0086391 2.83147e-22)
(-0.106874 -0.00160657 -4.48593e-21)
(0.975523 0.0494871 6.36137e-22)
(0.672018 0.0610394 1.54065e-21)
(0.99363 -0.0072906 -1.07235e-23)
(0.755546 -0.00337427 2.70066e-23)
(0.00663274 -0.0415261 6.93844e-21)
(-0.0417287 -0.0248407 8.33186e-22)
(0.761018 0.0348575 1.10129e-20)
(0.482335 -0.0359224 -6.60667e-22)
(0.925163 -0.0629493 -3.07201e-21)
(0.916861 0.0201467 1.02329e-23)
(0.724731 0.0155446 -6.75809e-23)
(-0.0774864 -0.0605368 2.75419e-21)
(-0.0552849 0.117336 1.84693e-21)
(0.762853 -0.0164816 -5.29972e-23)
(-0.0467228 0.102159 2.9491e-20)
(0.888712 -0.00830297 2.60637e-23)
(0.894678 0.00874705 8.39707e-24)
(0.846857 0.00846648 -1.69408e-23)
(0.936384 0.0503331 -8.58319e-22)
(0.909509 -0.00834443 -6.97934e-23)
(-0.0648664 -0.0927039 -2.74139e-21)
(-0.0556897 0.10841 1.94699e-21)
(-0.0789174 -0.0703872 -1.00709e-20)
(0.563059 -0.0519621 2.62175e-22)
(0.700731 0.0380024 -7.77923e-23)
(0.897947 -0.00920442 -3.21417e-22)
(0.00236151 0.0745915 -6.86068e-21)
(0.349417 0.0681778 1.21012e-21)
(-0.0820089 0.0589148 1.16412e-20)
(-0.083886 0.0260775 7.3503e-22)
(0.216717 0.00183636 -3.83692e-20)
(0.805334 -0.00607816 -1.59407e-23)
(0.737525 -0.090325 -1.14581e-20)
(0.610477 0.0200065 -1.84147e-22)
(0.719513 0.0286174 -5.76853e-23)
(-0.0483589 0.114452 1.0641e-20)
(0.97617 -0.0579198 9.65899e-23)
(0.829002 -0.0106374 4.40072e-23)
(-0.0342458 -0.0361706 2.51574e-21)
(-0.0395894 -0.106944 -6.00735e-21)
(0.247437 0.0479996 -3.75925e-21)
(0.701786 0.0163639 -5.72212e-23)
(-0.0525342 0.118302 1.56596e-20)
(0.148782 0.0272175 -1.87599e-22)
(0.979007 -0.010423 -3.11649e-23)
(0.72962 0.0329379 -6.5143e-21)
(-0.0668339 0.0907676 -2.08313e-20)
(0.815392 0.0514585 -1.02947e-21)
(0.671404 0.0105883 -1.1498e-22)
(0.457112 -0.020951 2.14831e-20)
(-0.0594309 -0.112423 -7.49976e-21)
(0.886363 -0.00815787 5.88031e-23)
(0.810104 0.0081594 3.69641e-24)
(0.976641 0.0323291 5.5489e-22)
(0.770377 -0.00536286 1.22786e-22)
(-0.0282424 -0.00641874 -9.5117e-21)
(0.754101 -0.00221532 6.12791e-24)
(1.0147 0.00674441 -2.52792e-23)
(0.116713 0.0633381 8.4437e-21)
(-0.049775 -0.112609 -1.065e-20)
(0.967521 -0.00871029 6.53741e-23)
(-0.153544 0.00797108 8.82647e-21)
(0.955674 0.00843584 9.6354e-23)
(-0.0796549 -0.0263794 2.20447e-20)
(-0.0222221 0.024812 8.7472e-21)
(0.940977 -0.0868363 6.64102e-21)
(-0.0969529 -0.043132 -1.28625e-20)
(0.122982 0.0660193 -1.39979e-20)
(-0.0424772 0.0921143 3.16033e-21)
(0.913097 0.0651688 -2.44293e-22)
(0.838917 -0.0081129 1.99846e-24)
(1.01827 -0.00671293 2.87364e-22)
(-0.0963067 0.0113456 2.12367e-21)
(0.608533 -0.0301444 5.23153e-21)
(0.853073 -0.0149987 -4.56332e-23)
(0.74812 0.00280625 -1.03848e-23)
(-0.0511479 0.053863 -4.41231e-21)
(0.965659 0.0146882 1.52907e-25)
(0.788024 -0.0295695 -8.01952e-21)
(-0.0507971 0.0872373 2.18532e-21)
(-0.00491562 0.0734063 4.22813e-20)
(-0.0615207 0.0614004 7.5434e-22)
(0.743654 -0.00467468 2.06143e-23)
(0.932965 -0.00877665 -1.17899e-22)
(-0.0134857 0.000525123 -2.11585e-20)
(0.744095 -0.00211592 -2.12426e-23)
(-0.0501155 0.0952094 -3.48329e-21)
(0.544259 -0.0455452 1.93804e-21)
(0.636907 0.0462189 -2.66818e-23)
(0.944659 0.0080785 -2.54628e-23)
(-0.116129 -0.00451714 -3.11412e-21)
(0.0557466 0.0449117 -1.41819e-21)
(-0.140308 -0.00149659 5.53573e-21)
(-0.147724 0.00967501 -1.55743e-20)
(0.767845 -0.00386921 1.05038e-23)
(-0.114211 0.0270533 -3.11833e-21)
(-0.0437934 -0.0145663 -5.11729e-22)
(0.882147 0.00892019 -7.19662e-23)
(0.437184 -0.0319449 -1.11781e-21)
(0.902105 0.00895795 1.05063e-23)
(-0.0589579 -0.0691361 6.9419e-21)
(0.877351 -0.00810969 -3.08182e-23)
(-0.0654139 -0.0720315 3.71503e-21)
(1.05848 0.0551249 1.83113e-20)
(-0.0837042 -0.047437 1.89223e-20)
(0.814636 0.00825117 -1.83149e-23)
(-0.0603753 -0.0341003 1.01346e-20)
(0.876934 -0.0490181 6.12716e-23)
(0.745102 0.000168453 -1.55302e-23)
(-0.0206208 -0.088117 -1.29468e-20)
(-0.026592 0.0354618 -3.95963e-21)
(0.912231 -0.00814977 -3.97657e-23)
(-0.0850551 0.038113 -3.89788e-22)
(0.426793 -0.0193465 1.00468e-20)
(-0.108502 0.0101147 2.57216e-21)
(-0.0363762 0.0295541 -1.06176e-20)
(-0.0352231 -0.0981675 2.60751e-20)
(-0.0603578 0.0724729 -5.23726e-21)
(-0.0963145 0.0235041 3.37583e-22)
(0.748581 -0.00101488 -5.88457e-24)
(-0.0114767 0.0829479 1.67556e-20)
(0.853599 -0.00850881 -9.07489e-23)
(0.747615 0.00160689 -5.35631e-24)
(-0.0527711 -0.117761 -6.93071e-21)
(0.144123 0.0169724 3.13614e-20)
(0.456471 -0.0179176 1.49748e-20)
(-0.0474676 -0.111399 1.91561e-20)
(-0.155905 -0.00102838 8.1278e-20)
(0.861057 0.00851976 2.57576e-23)
(-0.160688 0.00184475 -4.73021e-20)
(-0.0396073 -0.0926807 -1.30536e-20)
(-0.0460237 -0.0290633 -3.1655e-21)
(0.858908 -0.0227162 1.85426e-24)
(-0.0646953 0.0977616 4.49679e-21)
(-0.0415213 0.000156497 -1.28403e-20)
(0.325257 -0.0604384 3.17626e-20)
(0.918947 -0.0208326 1.18042e-23)
(0.837975 0.00841212 9.26956e-23)
(0.0526328 0.00147447 3.09582e-20)
(-0.0564231 -0.122125 1.45586e-20)
(-0.0172657 -0.0856636 1.80456e-21)
(0.321558 0.0501226 -1.42629e-20)
(-0.0513364 0.0956274 5.64223e-21)
(0.975168 -0.0114553 1.4142e-23)
(-0.0556406 0.0876499 8.8156e-21)
(-0.0467031 0.10857 -8.10354e-21)
(0.021922 0.063884 -2.30313e-20)
(0.814074 -0.00914463 -1.66362e-22)
(0.532561 -0.0280647 -1.24925e-20)
(0.800864 0.00731277 -1.79694e-23)
(-0.136395 -0.0076273 -1.94668e-20)
(-0.0782127 -0.0262294 1.16279e-20)
(-0.00218961 -0.0705944 -6.1312e-22)
(0.570259 0.0160132 4.60899e-22)
(0.339843 -0.0296122 5.23091e-20)
(0.819152 -0.0467143 -1.8349e-22)
(-0.0498067 -0.0670756 9.6803e-21)
(0.739075 -0.0002939 1.79429e-23)
(-0.00064225 -0.0750443 -4.67619e-21)
(-0.139825 0.0132121 -2.27285e-21)
(-0.0716967 -0.0149592 -1.20891e-20)
(0.588414 0.0137555 -2.3277e-22)
(0.722664 0.0111417 2.3717e-22)
(-0.123067 -0.00962323 1.07811e-20)
(-0.0895804 0.0233546 -1.32855e-21)
(0.0151 0.0698696 -1.3276e-20)
(0.449721 -0.0403205 6.70239e-21)
(1.01262 0.00742473 -4.35104e-23)
(1.0133 -0.00726996 1.85634e-23)
(-0.0698425 0.0671866 -4.85016e-21)
(0.741015 0.00192755 -3.88153e-23)
(-0.0556271 -0.0812576 6.07407e-21)
(-0.128037 -0.0148422 9.20605e-21)
(0.366013 -0.0158575 -4.18481e-21)
(-0.0964531 -0.0114235 1.64323e-20)
(0.121942 -0.0298701 -6.98034e-21)
(-0.0618565 0.109539 2.06548e-20)
(-0.0561293 -0.0535031 -1.08092e-20)
(-0.0210474 0.0418524 2.16054e-20)
(0.892896 0.00870659 5.37641e-23)
(0.685708 -0.00958705 -2.18389e-23)
(0.970071 0.00913398 -3.03864e-23)
(0.476623 0.0261915 -7.52615e-21)
(-0.096603 -0.0393354 3.61272e-21)
(0.0664078 0.0357757 -1.2255e-20)
(0.966267 0.00767468 -4.41187e-23)
(0.947399 -0.088776 -7.09133e-21)
(0.886699 -0.0438303 -8.83032e-22)
(-0.0538681 0.119 1.07026e-20)
(0.839075 -0.00767541 1.7448e-24)
(0.0252639 -0.0569935 -3.12826e-21)
(0.760534 -0.00651804 7.15617e-23)
(-0.052665 -0.119324 6.7391e-21)
(0.992879 0.00822681 3.35609e-23)
(0.701825 -0.0126979 -5.02426e-23)
(-0.0469996 -0.0932661 1.9155e-20)
(-0.0305972 0.0667753 -1.38254e-20)
(0.751863 0.00210394 8.27727e-24)
(0.755023 -0.00408128 4.29917e-23)
(-0.0517814 0.0773627 -3.47473e-21)
(0.0493294 -0.00792698 -2.20247e-20)
(-0.117781 0.0162629 -3.68273e-21)
(0.718571 -0.012769 -1.26752e-22)
(-0.0857821 0.0362107 6.9034e-21)
(0.651919 -0.0362341 -1.22441e-20)
(0.743367 -0.00254089 -1.15154e-23)
(1.02621 -0.064257 1.50843e-20)
(1.0157 -0.00724382 3.77332e-23)
(1.01423 0.00710757 -1.32692e-24)
(0.761572 -0.00315923 -1.24745e-23)
(0.786439 -0.00598631 -2.31211e-22)
(-0.116253 -0.017428 -6.38087e-21)
(0.614413 0.0311902 -1.65377e-23)
(-0.097911 -0.0255585 -1.35048e-20)
(0.941563 -0.0398117 -2.7248e-21)
(0.689426 0.0109752 7.6451e-23)
(-0.0361133 -0.0839852 3.08484e-20)
(-0.0528692 -0.0852063 7.57368e-21)
(-0.0386482 0.0149004 9.51685e-21)
(-0.0533526 0.113196 6.6631e-21)
(0.551399 0.0395717 -8.90795e-22)
(1.00009 -0.00764631 -8.37457e-24)
(0.933277 -0.033654 -2.6877e-22)
(0.73732 -0.000603954 6.4814e-23)
(-0.0253221 -0.00902224 -1.80359e-20)
(-0.159885 0.000623626 4.83887e-20)
(-0.074452 0.0446584 2.65839e-22)
(-0.0532125 0.0215924 -7.73014e-21)
(0.12321 0.0480389 1.95146e-20)
(0.692309 0.0366342 1.16286e-20)
(0.800574 -0.00589214 1.43979e-24)
(-0.0350939 0.0770212 1.96579e-20)
(-0.0539371 -0.10139 9.81334e-22)
(-0.0297385 0.0811898 -1.6219e-20)
(0.548733 -0.0232985 -1.04963e-20)
(1.01603 0.00646333 2.27759e-23)
(0.852814 0.0311827 9.82532e-21)
(0.0279856 -0.0641712 1.14639e-20)
(0.331584 0.0936805 -1.54785e-20)
(0.0793961 -0.00306804 -1.64114e-20)
(-0.135976 -0.00492937 1.74762e-20)
(0.438565 -0.0266322 -4.45181e-22)
(0.785464 0.00649983 5.7311e-23)
(0.96068 0.0918725 1.38228e-21)
(0.141138 -0.00814851 6.92726e-21)
(0.746031 0.0102551 8.95581e-23)
(0.923527 -0.00808633 6.10984e-24)
(-0.130118 -0.00191861 6.22345e-21)
(-0.0462247 0.0870242 6.58082e-21)
(0.650929 0.100728 5.9678e-20)
(0.109466 0.0132218 -6.41255e-21)
(-0.13808 -0.00700104 1.45855e-20)
(0.0107764 0.0328815 1.16005e-20)
(0.0525924 0.030967 -2.5892e-20)
(0.898465 -0.00822248 5.00498e-24)
(0.63904 0.0184511 4.28904e-23)
(0.012286 -0.0701081 -2.51828e-20)
(0.560682 0.00729274 3.49488e-22)
(0.854504 0.012629 6.32714e-23)
(0.98761 -0.0090628 6.30535e-23)
(0.749753 0.0013588 3.18764e-23)
(0.917938 0.0194467 -4.17083e-24)
(-0.0463514 -0.110195 4.31195e-21)
(-0.0218651 0.0266323 4.20711e-21)
(0.572573 0.0304424 -4.94433e-22)
(0.0513055 -0.022512 -1.56042e-20)
(-0.0564354 0.0966358 -2.12327e-20)
(0.114776 0.029951 -5.01071e-21)
(-0.149403 -0.00281588 -8.27044e-21)
(-0.0174048 -0.0839788 -6.69282e-21)
(0.788212 -0.00911814 3.48412e-22)
(-0.162774 0.00382057 -2.32491e-20)
(0.779654 0.00645768 -3.57218e-23)
(-0.0915468 0.0306383 -6.04496e-21)
(-0.12203 0.00245672 3.04281e-21)
(0.944658 -0.010815 -5.51613e-23)
(0.0219428 0.0354736 -1.60842e-20)
(0.743116 0.00310789 -2.23554e-22)
(1.00992 0.00689069 -1.15228e-22)
(0.0131992 -0.0693643 -1.63424e-21)
(0.00335613 0.0301275 4.93374e-21)
(0.343473 0.0691814 2.30157e-21)
(-0.0681937 0.0634891 1.29885e-20)
(0.873312 -0.00918358 1.92556e-22)
(0.774448 -0.089692 -6.69935e-21)
(-0.148417 0.0043886 -5.25868e-20)
(-0.0626652 -0.102313 2.26907e-20)
(-0.0387203 -0.0285332 -7.2432e-21)
(0.77914 0.00652043 5.88226e-23)
(0.787204 -0.00562009 -1.50177e-23)
(0.836214 0.00872078 3.17647e-23)
(-0.0313791 -0.0212385 3.50428e-21)
(1.01129 0.00768477 -1.52548e-23)
(0.338849 -0.0109316 -4.05397e-21)
(0.809554 0.00858391 -4.57861e-23)
(0.818548 -0.00685104 -1.33267e-23)
(-0.168308 -0.00107683 -3.8522e-21)
(-0.0393721 0.0907456 7.89676e-21)
(-0.0319104 0.0908305 -2.2265e-20)
(0.102109 -0.0612021 7.37065e-21)
(0.958175 -0.00995303 -5.21259e-23)
(-0.0411611 0.0810202 -6.17256e-21)
(0.842461 -0.00921836 -2.80495e-22)
(0.887864 0.0336869 9.5431e-23)
(-0.135392 0.00965883 2.2366e-21)
(-0.162419 -5.37201e-05 -2.10584e-20)
(-0.162974 0.00276266 -8.42392e-21)
(0.38314 0.0306863 -3.07942e-21)
(0.562038 0.0275975 -4.28388e-24)
(0.531122 0.0337334 -1.07741e-20)
(0.761501 -0.00341459 2.03057e-23)
(0.755304 0.00349972 -2.4803e-23)
(0.276619 0.0238628 -3.69284e-21)
(0.0218137 0.0614763 -9.63502e-21)
(0.989961 0.0081053 -1.81424e-23)
(0.163213 -0.0132215 2.27604e-20)
(-0.0557169 0.0877404 6.94341e-21)
(-0.156424 0.00348782 -1.66896e-20)
(-0.0721196 0.0656374 -7.48276e-21)
(-0.10729 0.0161259 6.77134e-20)
(0.984361 -0.00968694 -2.62782e-22)
(0.0717679 0.00636388 -7.40546e-21)
(0.973656 -0.00781177 4.96081e-24)
(0.748718 0.00347712 1.11645e-22)
(0.46062 -0.0544187 1.8654e-20)
(-0.0526081 0.12449 -1.37139e-20)
(0.0410931 0.0597351 2.10307e-21)
(-0.12964 0.00236049 -1.53071e-20)
(-0.0948192 0.0461409 1.20126e-20)
(-0.108011 -0.0341686 1.30982e-20)
(0.52003 -0.0382464 1.67693e-21)
(0.960739 0.017613 3.19819e-23)
(0.771313 -0.0076866 -7.14797e-23)
(0.0307664 0.0621372 -2.36971e-20)
(-0.163822 -0.00255707 1.11361e-20)
(0.0550651 -0.0532354 -1.81577e-20)
(-0.0450901 -0.117512 3.09172e-20)
(-0.167974 0.00024027 1.0423e-20)
(0.871598 0.00899219 -4.78634e-23)
(1.00987 0.00780283 1.36934e-24)
(-0.16595 -0.00117017 4.78556e-21)
(0.316632 -0.00701919 -9.74253e-21)
(0.284656 -0.00110419 5.2633e-21)
(0.74771 0.0118641 1.78147e-22)
(-0.0333889 -0.10057 2.58108e-20)
(0.877807 -0.00972757 6.31726e-24)
(0.600075 0.0176349 -4.17961e-23)
(-0.0175572 -0.0800284 1.16892e-20)
(1.00767 0.00745819 -2.44577e-23)
(0.850208 -0.0369957 5.72422e-21)
(0.745232 -0.0332919 -5.93178e-21)
(-0.0302885 0.0948147 -2.47068e-20)
(0.980715 -0.072455 1.18997e-22)
(-0.0528075 0.116953 -3.57865e-21)
(-0.0513665 -0.111337 1.02014e-21)
(0.210669 -0.00499471 -5.38015e-21)
(0.115053 -0.0486277 2.42031e-20)
(1.07429 0.0439619 -1.49388e-20)
(0.900425 0.0256321 2.09449e-24)
(0.959817 0.01832 1.42684e-23)
(0.851082 -0.00950713 1.32018e-22)
(0.00272819 -0.0755396 1.81721e-20)
(-0.0749196 0.00198408 -8.5588e-20)
(-0.119301 -0.0265519 -1.58747e-20)
(0.250054 0.00310548 6.38465e-21)
(0.882652 -0.00902898 -9.43714e-23)
(1.05489 0.0617108 1.57933e-20)
(1.05153 -0.058671 -2.61865e-21)
(0.933993 -0.0457829 7.16515e-23)
(1.04505 -0.0673172 -7.14485e-21)
(0.353989 0.0282259 1.03082e-21)
(0.936307 -0.0139182 4.55884e-22)
(0.824548 -0.00963059 7.60055e-23)
(0.926615 0.012566 6.85523e-23)
(0.909523 -0.0113368 5.25755e-23)
(0.746398 0.000297434 3.2024e-23)
(0.0198546 -0.045038 -2.80309e-21)
(0.900177 -0.0129762 -1.74242e-22)
(-0.0861163 0.05193 -4.25363e-21)
(0.508134 0.079557 -1.63805e-20)
(0.71381 -0.0107241 -6.21805e-22)
(0.0529097 0.0548873 -1.24066e-20)
(0.739208 0.00152238 -1.22957e-23)
(0.783305 0.00762521 -2.85027e-22)
(-0.0947602 -0.00117032 1.79288e-21)
(-0.134674 0.00557535 -2.17013e-21)
(0.0388526 -0.0385657 -9.83235e-21)
(0.771111 -0.00827132 2.27882e-23)
(0.708089 0.012877 -1.29419e-24)
(-0.0515162 -0.0769031 -5.37881e-23)
(-0.0483875 0.0967081 5.35591e-22)
(0.984241 0.0075007 6.47625e-23)
(-0.0487267 0.113106 -2.22789e-20)
(0.964 0.0153664 -1.41331e-23)
(1.00969 -0.00784967 3.84851e-23)
(0.81472 -0.0417528 2.53555e-21)
(0.916029 0.0210573 -6.82434e-24)
(0.82767 0.00835915 1.63033e-22)
(0.917755 -0.0779448 6.94001e-21)
(0.0152761 -0.037767 -1.76225e-21)
(0.00572109 -0.0578939 -4.56402e-20)
(0.209781 -0.0133067 8.46673e-21)
(-0.0651298 -0.0571062 8.41211e-21)
(-0.0548768 0.019764 1.42935e-20)
(1.00711 -0.00842478 3.23157e-23)
(0.755123 -0.00205927 -9.73331e-25)
(0.929626 -0.0480321 5.44533e-22)
(0.328093 0.0207337 8.58995e-21)
(-0.00933868 0.0776692 1.10611e-20)
(0.669486 -0.00583184 3.41004e-22)
(0.985649 0.00934159 9.8293e-25)
(0.979121 -0.00944981 1.07102e-23)
(-0.0655883 -0.0423156 -1.17117e-20)
(0.97634 -0.00936337 3.18272e-22)
(1.0821 -0.0375828 -6.7259e-21)
(0.424936 0.0217968 1.20538e-21)
(0.654065 -0.100164 -3.99964e-21)
(0.468758 -0.0291706 -8.38435e-22)
(-0.0587001 -0.0898199 -3.96696e-21)
(0.670095 -0.007175 2.81836e-22)
(1.01053 -0.0071865 -5.79241e-23)
(0.872352 -0.00857505 2.99318e-22)
(0.603685 -0.0149504 3.81483e-23)
(0.760171 0.00390084 1.99156e-23)
(0.144606 -0.0100121 8.58571e-21)
(0.851551 -0.0118334 -1.80793e-22)
(-0.0235727 0.00625698 -3.60242e-21)
(0.599173 0.0351384 -9.27239e-21)
(-0.0597677 0.0299346 -1.08106e-21)
(0.633908 0.0858545 -4.2855e-22)
(-0.062692 0.0494032 -1.0903e-21)
(-0.0416783 0.0156962 -2.21578e-20)
(0.847606 -0.03227 -1.93654e-21)
(0.743513 0.0495197 1.11597e-21)
(-0.13254 -0.00606769 7.54838e-20)
(0.382358 0.0904295 -1.03466e-20)
(0.209266 -0.0664229 -1.86738e-20)
(0.0255657 0.0369694 -5.1589e-21)
(-0.00446421 0.0709809 3.06276e-20)
(0.594518 0.104475 2.44993e-20)
(0.118309 0.0228516 -2.50564e-20)
(0.258366 0.078093 1.86893e-20)
(0.809261 0.010952 -1.94398e-22)
(0.86341 -0.0106897 -3.04184e-23)
(-0.0209893 -0.0171154 2.22701e-20)
(-0.0549602 -0.101802 -2.9488e-21)
(-0.082642 -0.014051 4.04071e-20)
(0.713471 0.0426599 1.30889e-23)
(0.210388 0.0780901 -3.17097e-20)
(0.481062 0.0121954 8.73119e-23)
(0.980022 -0.0283428 -3.57808e-23)
(0.612606 0.0071407 8.01982e-22)
(0.989595 -0.0187232 1.06125e-23)
(0.977953 -0.0717793 2.68665e-21)
(0.929493 0.0146182 3.43932e-23)
(0.89938 -0.0127272 -1.09014e-22)
(-0.140749 0.0131284 2.54102e-20)
(0.80774 -0.00907578 2.249e-23)
(0.750724 0.00212082 5.57928e-23)
(0.402101 -0.0148095 3.07001e-20)
(0.484638 0.103276 6.95469e-21)
(0.929564 -0.0808362 2.38474e-21)
(1.00661 -0.00903837 2.23311e-23)
(0.488822 0.0284573 -4.24166e-22)
(0.0357857 -0.0505239 -5.58496e-21)
(0.603518 0.0272313 -3.31346e-22)
(0.766974 -0.00640353 -1.19958e-22)
(0.962377 0.0164971 -6.54891e-24)
(0.73994 -0.106631 -1.44862e-20)
(0.517315 0.0730528 2.01935e-21)
(0.83783 -0.0985762 -4.46155e-21)
(0.96726 0.0140174 -7.86619e-24)
(0.642193 0.0827743 -3.47975e-23)
(0.177162 0.0150513 -1.88747e-21)
(0.73091 0.00318779 7.12013e-23)
(0.743982 0.00130272 -4.16867e-23)
(0.0806306 0.00662754 -8.5252e-21)
(-0.103826 -0.0369846 9.1928e-21)
(-0.0363459 -0.100449 -3.27205e-20)
(0.321809 -0.0187801 9.56219e-21)
(0.0459518 -0.0546497 -9.90679e-23)
(0.764131 0.0839559 9.8255e-22)
(-0.0141562 0.0706972 2.0788e-20)
(0.479566 0.0452963 -4.35821e-22)
(0.674821 0.0324485 -6.84579e-23)
(0.904703 0.028803 1.20303e-22)
(0.710644 0.0266799 -7.31255e-24)
(0.265679 0.0915761 1.26224e-20)
(0.776944 -0.027059 1.60334e-24)
(1.00418 -0.00781596 -8.67174e-23)
(0.990788 -0.0177496 -2.41473e-23)
(0.115633 0.0614844 1.76231e-20)
(-0.171058 0.000880495 3.10807e-20)
(0.544741 -0.0730557 -1.13855e-21)
(0.979229 -0.0698794 -6.19396e-22)
(0.451364 0.013718 -3.571e-22)
(0.624657 -0.0530328 4.09048e-22)
(0.412629 0.0105912 -2.72864e-22)
(0.456296 0.00876895 4.63463e-22)
(0.188263 0.0132039 1.19507e-20)
(0.484192 0.00769975 -2.35978e-22)
(0.125296 0.0139999 1.69069e-20)
(0.668878 -0.0528758 1.21346e-21)
(0.773413 0.0281164 -5.02466e-23)
(0.577742 -0.0575124 -4.58799e-21)
(0.519769 0.00349599 -1.11882e-22)
(0.772229 0.0143658 3.67182e-22)
(0.544025 0.00563443 1.30679e-22)
(0.773046 0.0271836 3.05339e-24)
(0.501492 0.0791915 -4.71484e-21)
(0.868414 0.0191911 2.10392e-23)
(0.567471 0.00249394 -6.50142e-22)
(0.387315 0.0572721 -7.00697e-21)
(0.647876 0.0802838 1.41324e-21)
(0.595646 0.00545603 -6.23343e-22)
(0.789731 -0.0167795 7.69417e-23)
(0.422541 0.00461505 6.20806e-22)
(0.377189 0.000222729 3.14413e-22)
(0.33307 -0.00238995 5.39222e-22)
(0.269363 0.00650501 -5.70281e-21)
(0.21299 0.00982674 -6.93285e-21)
(0.464261 0.00239074 -3.06307e-22)
(0.143114 0.00164594 -1.42616e-20)
(0.491064 0.00212645 3.02289e-23)
(0.636198 -0.0577871 8.01022e-22)
(0.529347 0.000274331 -7.77315e-24)
(0.70107 -0.0523442 -1.6219e-22)
(0.548211 0.00227384 9.00166e-23)
(0.658817 -0.0199215 -3.76627e-23)
(0.715585 -0.0247196 -6.35433e-24)
(0.576938 0.00127521 -5.76837e-23)
(0.611219 0.0042712 -6.68077e-22)
(0.598735 0.00104717 3.03075e-22)
(0.955504 -0.0208402 -1.13694e-22)
(0.814846 0.0187019 -8.58482e-24)
(-0.16319 -0.00013353 -2.70478e-20)
(0.953772 -0.00902558 -6.05665e-23)
(0.818074 -0.0174005 -1.98113e-22)
(0.809625 0.0202416 8.93094e-23)
(0.614316 0.00105674 6.1814e-22)
(0.819882 -0.00786571 2.53492e-22)
(0.555513 -0.0398837 1.95511e-21)
(0.625703 0.00259107 2.97085e-23)
(0.390505 0.0155004 1.34565e-21)
(0.341958 0.013832 4.16699e-22)
(0.509009 0.012065 2.55331e-22)
(0.634143 -0.00083752 -2.98727e-22)
(0.812516 0.0180822 7.09288e-25)
(0.735412 -0.00424892 -5.89979e-23)
(0.83756 -0.0689103 -1.49075e-21)
(0.858666 -0.0546557 -8.97564e-22)
(0.080202 -0.0200013 3.10762e-20)
(0.943918 -0.0117235 -1.85393e-22)
(0.430267 -0.0181744 -3.13126e-22)
(0.650536 0.000601227 -2.75589e-22)
(0.608477 -0.0140267 -5.43842e-23)
(0.753116 -0.00624567 -1.90866e-22)
(0.81932 0.0177565 1.81907e-23)
(0.268276 0.0319211 -1.05167e-22)
(0.654473 0.0193784 -5.01408e-22)
(0.00385908 0.00385077 -4.77184e-21)
(0.642788 0.00591752 1.17573e-22)
(0.898446 -0.00883249 -7.18882e-23)
(0.832645 0.0120141 7.67909e-23)
(1.0014 -0.00733091 -1.3281e-22)
(0.662389 0.00178498 -7.14881e-23)
(0.698473 0.0358729 9.65095e-23)
(-0.0542085 0.0831409 -1.53686e-20)
(0.976035 -0.00891467 1.90584e-22)
(0.659499 0.00600955 -6.49547e-24)
(0.108011 -0.00502802 8.89434e-21)
(0.665138 0.00113498 3.68836e-22)
(0.815055 0.01205 -1.74779e-23)
(0.782651 0.00995439 1.3768e-22)
(0.38808 -0.0252413 -4.05264e-20)
(0.787625 0.0126025 9.52728e-23)
(1.01554 -0.0071222 -3.56586e-23)
(0.513714 0.0758279 2.45961e-21)
(0.812809 0.0190225 -3.7533e-23)
(0.0133754 0.0579669 4.77156e-21)
(0.65414 -0.0646444 -3.87521e-21)
(0.694385 -0.0562597 -3.93208e-21)
(0.242456 0.0110065 -3.7011e-21)
(0.294999 0.00394697 -6.58212e-21)
(0.166399 -0.0180013 3.52686e-20)
(0.761051 0.0147845 -2.09113e-22)
(0.476215 -0.00168588 7.00677e-22)
(0.490671 0.0268054 -2.63086e-22)
(0.405747 0.0313748 2.08211e-21)
(0.502752 -0.000345084 1.97004e-22)
(0.844482 0.0465591 -3.87423e-22)
(0.558093 0.00084489 2.05121e-22)
(0.346306 0.0895873 -3.55638e-20)
(0.584774 0.00445224 1.39534e-23)
(0.68045 0.000923856 1.60152e-22)
(0.222839 -0.00178548 -5.19285e-21)
(0.279061 -0.00675508 3.20652e-21)
(0.308747 0.045522 8.6925e-21)
(-0.104095 -0.0163595 -1.69515e-20)
(0.729523 -0.0503438 1.95277e-21)
(0.806234 0.0120752 4.76959e-23)
(0.223776 0.0782491 1.78214e-20)
(0.696235 0.0568507 -6.51008e-22)
(0.715503 0.0238976 -2.98677e-22)
(0.606187 -0.00140018 5.83147e-23)
(0.553006 -0.00252132 -1.49121e-23)
(-0.0450282 0.0456163 3.32664e-21)
(0.901805 0.00923338 3.19755e-23)
(0.656371 -0.046306 -1.35581e-21)
(0.676165 0.00413736 8.58874e-23)
(0.920626 0.0172848 -6.41786e-24)
(0.651126 0.0113281 -3.35773e-22)
(0.679529 0.006239 -2.29831e-22)
(0.677669 0.00248333 -3.16234e-22)
(0.622002 -0.00204457 -6.37315e-22)
(0.830408 -0.0184985 -2.46855e-23)
(0.720112 -0.023493 4.52789e-23)
(0.748185 -0.0141455 1.39523e-22)
(0.656592 0.00192845 2.22119e-22)
(0.822472 -0.0166826 -1.19817e-22)
(0.005294 0.0461215 1.73071e-20)
(0.545369 0.0167719 7.3863e-23)
(0.803906 -0.0107056 -3.18631e-22)
(0.617566 0.0141868 1.79114e-22)
(0.637055 0.0108383 4.09935e-22)
(0.852537 -0.0172123 1.19015e-22)
(0.167722 -0.0281354 -1.52807e-20)
(0.676239 0.0446025 2.36958e-22)
(0.586767 0.0535375 -4.90659e-22)
(0.743376 0.0356529 1.36718e-22)
(0.75965 0.015426 2.80946e-22)
(0.820078 0.0126643 -3.35579e-22)
(0.810532 0.0177603 1.48956e-23)
(0.774656 -0.0154791 -5.10925e-23)
(0.377907 -0.0939412 -5.58847e-21)
(0.737687 -0.0680167 8.31979e-21)
(0.280107 -0.0230596 -1.94867e-21)
(0.82133 -0.0330596 1.46232e-22)
(0.685795 0.00371551 1.97507e-22)
(0.510644 -0.0121089 1.60333e-22)
(-0.0435211 0.105039 8.78015e-21)
(0.647735 0.0451896 -4.16861e-22)
(0.977897 0.0307137 -2.53415e-22)
(0.974017 0.0469937 3.63892e-22)
(0.997294 0.0127782 4.34159e-24)
(0.992099 0.0163822 -3.02185e-23)
(0.976594 -0.0552719 -2.35959e-21)
(0.988409 -0.0196598 7.79246e-23)
(0.988691 0.0192677 1.89953e-25)
(1.0052 0.0100373 1.79836e-23)
(0.981747 -0.0268433 8.22634e-23)
(1.00116 0.0115171 -3.59781e-23)
(0.993283 -0.0149644 -5.75185e-23)
(0.998922 0.0121476 2.58277e-23)
(0.999932 0.00958477 1.47425e-22)
(1.00754 0.00929929 -2.23425e-24)
(0.985297 0.0205598 -3.05952e-23)
(0.97878 -0.0302597 9.22327e-23)
(0.992428 -0.0168068 -4.23812e-23)
(0.990495 0.0179038 -3.81372e-23)
(0.981856 -0.0666916 1.71235e-21)
(0.665653 0.00938704 1.44562e-22)
(0.631128 -0.00771505 1.29547e-22)
(0.113103 0.00636964 -2.54638e-20)
(0.184902 -0.0135455 -1.06626e-20)
(1.0065 -0.00798467 1.4456e-22)
(0.951124 0.0083151 4.99848e-23)
(0.728735 0.0125396 -8.98123e-22)
(0.682092 -0.0733211 1.1172e-21)
(0.349053 -0.000579473 1.79796e-22)
(0.571514 0.0552179 -3.31719e-22)
(0.392613 -0.001303 -3.76388e-22)
(0.704439 0.0251239 -1.95129e-23)
(0.980442 0.0268595 -4.67235e-22)
(0.977745 0.0293077 -4.44038e-23)
(0.977804 0.0444311 -7.10441e-22)