/*--------------------------------*- C++ -*----------------------------------*\
  =========                 |
  \\      /  F ield         | OpenFOAM: The Open Source CFD Toolbox
   \\    /   O peration     | Website:  https://openfoam.org
    \\  /    A nd           | Version:  10
     \\/     M anipulation  |
\*---------------------------------------------------------------------------*/
FoamFile
{
    format      ascii;
    class       volScalarField;
    location    "350";
    object      epsilon;
}
// * * * * * * * * * * * * * * * * * * * * * * * * * * * * * * * * * * * * * //

dimensions      [0 2 -3 0 0 0 0];

internalField   nonuniform List<scalar> 
10435
(
0.000247048
0.000216874
0.000255137
0.00063283
0.000954861
0.000645245
0.000263745
0.000492931
0.000652728
0.000412369
0.000313041
0.001601
0.000158701
0.0026237
0.00247889
0.000568139
0.00268299
0.000177886
0.000700282
0.000235967
0.000490823
0.000681542
0.00053958
0.00164811
0.000479661
0.00044869
0.00190517
0.00017796
0.00161078
0.000280398
0.000985615
0.000399695
0.000523314
0.00151305
0.000963203
0.000484051
0.00102845
0.00189611
0.000161456
0.00100152
0.000316313
0.000306068
0.00240548
0.000353507
0.00100455
0.00136875
0.000459084
0.00217518
0.000533086
0.000687614
0.000559868
0.00105138
0.000166646
0.000990717
0.00020551
0.00139561
0.00135805
0.00220351
0.00232511
0.00123072
0.000222872
0.000224699
0.00222768
0.00123066
0.000749358
0.000280168
0.00212968
0.00260832
0.000437985
0.0017936
0.00093424
0.00106826
0.00154699
0.000376568
0.00218957
0.00225727
0.00180643
0.000284112
0.000501156
0.00174502
0.00113911
0.000243579
0.000176804
0.00105098
0.00140513
0.000849091
0.000471682
0.000327084
0.00174842
0.000313477
0.0004265
0.000573899
0.000189832
0.001308
0.000261884
0.000853058
0.000757419
0.00239702
0.00236333
0.00092787
0.00210723
0.000808175
0.000808919
0.0002719
0.000828393
0.000472397
0.000201307
0.000895047
0.00163808
0.00130015
0.000508329
0.000744382
0.000420414
0.000798569
0.000726192
0.000504825
0.00113137
0.000493329
0.000291968
0.00118342
0.00129623
0.00174312
0.000316247
0.0016056
0.000410863
0.000334163
0.000981975
0.00178372
0.00109575
0.00154297
0.00178126
0.000325676
0.000592192
0.00205091
0.00142361
0.000272793
0.000784039
0.000832705
0.000250279
0.000369212
0.000279091
0.000932864
0.00196265
0.00148036
0.000894649
0.00252992
0.00122362
0.00102062
0.00280764
0.00161464
0.00171272
0.00129773
0.000290683
0.00152671
0.000799352
0.00108172
0.000514865
0.000251435
0.00057483
0.000200349
0.00143675
0.0022233
0.000486079
0.0015998
0.00169046
0.00129525
0.000624992
0.00127898
0.00182364
0.00140457
0.000639946
0.00111972
0.00174674
0.0023919
0.00172775
0.000173453
0.000296336
0.00277941
0.000363795
0.00187153
0.000249459
0.000777831
0.00165186
0.000305063
0.00119516
0.001934
0.00197896
0.000333066
0.00103731
0.00130198
0.00145308
0.000196372
0.00132228
0.000432477
0.0006359
0.000384257
0.00267679
0.00135651
0.00257646
0.000770344
0.00175121
0.00187762
0.000171309
0.00213717
0.000210285
0.000695422
0.000372094
0.00105781
0.00227225
0.00113378
0.00133879
0.000396176
0.00150033
0.00173602
0.00193465
0.00276401
0.00107658
0.000465306
0.000449459
0.00231579
0.00162433
0.00276425
0.00229952
0.00214213
0.000764128
0.00074777
0.00026355
0.00181963
0.00107918
0.00223048
0.00275867
0.000681859
0.000342106
0.00156038
0.00187548
0.00268775
0.00164807
0.000673182
0.00179335
0.000764494
0.000281815
0.000542283
0.000658507
0.00127337
0.000584856
0.00056622
0.00135946
0.000368791
0.00127107
0.000182227
0.00104968
0.00122751
0.000192377
0.00138433
0.000323775
0.00123858
0.00103957
0.000293192
0.000936761
0.00193187
0.000266179
0.000832674
0.000472147
0.00181045
0.000600312
0.00266357
0.000256814
0.000701903
0.000286191
0.000876226
0.000243138
0.000399993
0.000347827
0.000365655
0.000585887
0.00134199
0.00168633
0.000780036
0.00044665
0.000427602
0.000273433
0.00272375
0.000217202
0.00214835
0.000728647
0.000351924
0.00105797
0.000206351
0.0010994
0.00165807
0.00182605
0.000253203
0.00218817
0.000373442
0.000162499
0.000904398
0.00262034
0.000345173
0.000619326
0.000604731
0.00263666
0.00183357
0.000193294
0.00150477
0.000499049
0.00264468
0.00279331
0.00171971
0.000443799
0.00111646
0.000261057
0.00148221
0.000250801
0.00106158
0.000763067
0.00100501
0.000405772
0.0013451
0.00265197
0.00147083
0.000820692
0.00199447
0.000423423
0.000219584
0.000449451
0.000206278
0.000747327
0.000176721
0.00250942
0.00201238
0.000967769
0.0017934
0.00110751
0.000227956
0.00162864
0.0023898
0.00112444
0.00124488
0.00126491
0.0016689
0.000920879
0.00107223
0.000237281
0.00174908
0.00170745
0.00147495
0.00248656
0.00192354
0.000246528
0.000480458
0.00114552
0.00027228
0.00184433
0.000166841
0.00045981
0.000476308
0.000137674
0.000517234
0.00112983
0.00133686
0.00120393
0.000333547
0.00156802
0.00031217
0.00188272
0.00111042
0.00241187
0.0017663
0.00108082
0.000509334
0.00025935
0.00132277
0.000125438
0.000457989
0.000437117
0.00184311
0.0021237
0.00191446
0.00132089
0.000591683
0.00210502
0.000242106
0.000468748
0.00246856
0.000407324
0.000468482
0.00015889
0.000149527
0.000477402
0.000183975
0.000843587
0.00215501
0.00138736
0.00143652
0.00103602
0.000199447
0.0012362
0.000135238
0.00200866
0.00198759
0.00150353
0.00201995
0.000588104
0.00037067
0.00200542
0.000443329
0.0017921
0.00092919
0.000734127
0.0018482
0.000526567
0.00174013
0.000889447
0.000735291
0.00149173
0.00233119
0.001775
0.000208491
0.00095215
0.000829888
0.00172262
0.0015622
0.000117988
0.000630821
0.000356884
0.000431078
0.00128167
1.89179e-06
1.85289e-06
1.82215e-06
1.71776e-06
1.58904e-06
1.45156e-06
1.30467e-06
1.12092e-06
8.53173e-07
1.95193e-06
1.84886e-06
1.75207e-06
1.62421e-06
1.48117e-06
1.33007e-06
1.16741e-06
9.80616e-07
7.52872e-07
1.95146e-06
1.80466e-06
1.66309e-06
1.51306e-06
1.36029e-06
1.20438e-06
1.04158e-06
8.66118e-07
6.74291e-07
1.92998e-06
1.75172e-06
1.57802e-06
1.41115e-06
1.25188e-06
1.09593e-06
9.38989e-07
7.7747e-07
6.105e-07
1.91609e-06
1.71178e-06
1.51331e-06
1.33332e-06
1.16907e-06
1.01417e-06
8.6332e-07
7.12754e-07
5.60562e-07
1.93143e-06
1.70261e-06
1.48237e-06
1.29026e-06
1.12021e-06
9.64541e-07
8.16771e-07
6.72271e-07
5.28138e-07
1.99674e-06
1.7417e-06
1.49837e-06
1.2919e-06
1.11286e-06
9.52353e-07
8.02775e-07
6.58723e-07
5.17e-07
2.13913e-06
1.84872e-06
1.57644e-06
1.3502e-06
1.15654e-06
9.85143e-07
8.27236e-07
6.7671e-07
5.30345e-07
2.39195e-06
2.04698e-06
1.73611e-06
1.48174e-06
1.26549e-06
1.07508e-06
9.00392e-07
7.34222e-07
5.72655e-07
2.78703e-06
2.36465e-06
2.00438e-06
1.7111e-06
1.46179e-06
1.24185e-06
1.03964e-06
8.46243e-07
6.55907e-07
3.35039e-06
2.83729e-06
2.41986e-06
2.07482e-06
1.77912e-06
1.51629e-06
1.27313e-06
1.03857e-06
8.04737e-07
4.09582e-06
3.51461e-06
3.0386e-06
2.62624e-06
2.26709e-06
1.94441e-06
1.64352e-06
1.3506e-06
1.05566e-06
5.01357e-06
4.48014e-06
3.94369e-06
3.44153e-06
2.99558e-06
2.59095e-06
2.2109e-06
1.83757e-06
1.45817e-06
6.41238e-06
5.90365e-06
5.25999e-06
4.62568e-06
4.05853e-06
3.5423e-06
3.0552e-06
2.57314e-06
2.079e-06
8.68721e-06
8.00908e-06
7.14603e-06
6.31028e-06
5.57435e-06
4.90855e-06
4.27911e-06
3.65082e-06
2.99551e-06
1.22044e-05
1.10086e-05
9.76447e-06
8.64262e-06
7.68411e-06
6.82714e-06
6.01686e-06
5.20269e-06
4.3452e-06
1.71145e-05
1.50195e-05
1.32503e-05
1.17764e-05
1.05543e-05
9.47372e-06
8.44898e-06
7.40895e-06
6.30461e-06
2.29956e-05
1.9997e-05
1.77001e-05
1.58777e-05
1.4395e-05
1.30904e-05
1.18402e-05
1.05422e-05
9.12415e-06
2.95705e-05
2.59115e-05
2.32385e-05
2.11719e-05
1.95077e-05
1.80434e-05
1.66125e-05
1.50701e-05
1.33025e-05
3.69375e-05
3.2965e-05
3.01525e-05
2.80414e-05
2.63755e-05
2.49187e-05
2.34538e-05
2.17787e-05
1.97287e-05
4.56748e-05
4.17066e-05
3.9023e-05
3.71526e-05
3.57968e-05
3.46756e-05
3.3499e-05
3.19665e-05
2.98039e-05
5.6808e-05
5.30832e-05
5.08237e-05
4.95954e-05
4.90671e-05
4.8882e-05
4.86416e-05
4.789e-05
4.61807e-05
7.19094e-05
6.85067e-05
6.70383e-05
6.70704e-05
6.82449e-05
7.00669e-05
7.19905e-05
7.33408e-05
7.34491e-05
9.35048e-05
8.99991e-05
8.98257e-05
9.21446e-05
9.65152e-05
0.0001022
0.000108496
0.000114421
0.000119057
0.000125325
0.000120223
0.000122306
0.000128653
0.000138719
0.000151263
0.00016556
0.000180523
0.000193507
0.000144385
0.00013884
0.000136246
0.000136636
0.000139936
0.000145876
0.000153988
0.000163599
0.000173961
0.000184322
0.00019403
0.000202563
0.000209552
0.000214806
0.000218285
0.000220109
0.000220506
0.000219763
0.000218138
0.000215702
0.000212463
0.00020845
0.00020363
0.000197871
0.000190742
0.000180981
0.000169095
0.000156396
0.000143397
0.000129979
0.00011663
0.000103767
9.15101e-05
7.9798e-05
6.88318e-05
5.87435e-05
4.95895e-05
4.13798e-05
3.41075e-05
2.77585e-05
2.23081e-05
1.77195e-05
1.39397e-05
1.0899e-05
8.51149e-06
6.67977e-06
5.30251e-06
4.28341e-06
3.53742e-06
2.99505e-06
2.60212e-06
2.31845e-06
2.11521e-06
1.97203e-06
1.87504e-06
1.8149e-06
1.78561e-06
1.78348e-06
1.80575e-06
0.00017272
0.000171043
0.000172812
0.000178053
0.000186588
0.00019796
0.000211222
0.000225242
0.000238854
0.000251008
0.000260864
0.000267844
0.000271651
0.00027229
0.000270048
0.000265493
0.000259407
0.000252637
0.000245285
0.000237141
0.000228086
0.000218573
0.000208832
0.000198899
0.000188607
0.000177609
0.000165679
0.000152893
0.000139503
0.000125872
0.000112419
9.94535e-05
8.71401e-05
7.55821e-05
6.48756e-05
5.50905e-05
4.62667e-05
3.84195e-05
3.15474e-05
2.56313e-05
2.06316e-05
1.64876e-05
1.31194e-05
1.04326e-05
8.32546e-06
6.69597e-06
5.44904e-06
4.50126e-06
3.7831e-06
3.23912e-06
2.8266e-06
2.51466e-06
2.28073e-06
2.1072e-06
1.98088e-06
1.89279e-06
1.83748e-06
1.8114e-06
1.81154e-06
0.000189014
0.000189901
0.00019489
0.000203763
0.00021597
0.000230578
0.000246365
0.000261969
0.000276082
0.000287614
0.000295798
0.000300216
0.000300815
0.000297818
0.000291696
0.000283093
0.000272755
0.000261425
0.000249692
0.000237903
0.000226207
0.000214672
0.000203286
0.000191936
0.00018041
0.000168469
0.000155994
0.000143041
0.000129781
0.000116461
0.00010337
9.07689e-05
7.88503e-05
6.77537e-05
5.75863e-05
4.84217e-05
4.0298e-05
3.32206e-05
2.7165e-05
2.20787e-05
1.78831e-05
1.44794e-05
1.17565e-05
9.60095e-06
7.9052e-06
6.57395e-06
5.52702e-06
4.69998e-06
4.04285e-06
3.51765e-06
3.09595e-06
2.75717e-06
2.48643e-06
2.27276e-06
2.10786e-06
1.98538e-06
1.90048e-06
1.84967e-06
1.82952e-06
0.000182702
0.000182047
0.000185228
0.000192037
0.000201987
0.000214266
0.000227809
0.000241419
0.000253926
0.000264326
0.000271874
0.00027613
0.000276987
0.000274597
0.000269339
0.000261758
0.000252471
0.000242082
0.000231092
0.000219851
0.000208571
0.000197352
0.000186198
0.000175027
0.000163701
0.000152081
0.000140097
0.000127781
0.000115268
0.000102764
9.0518e-05
7.87725e-05
6.7735e-05
5.75684e-05
4.83912e-05
4.02745e-05
3.32421e-05
2.72731e-05
2.23057e-05
1.82462e-05
1.49785e-05
1.23768e-05
1.0317e-05
8.68598e-06
7.38625e-06
6.33831e-06
5.48021e-06
4.76589e-06
4.16216e-06
3.65198e-06
3.21814e-06
2.8507e-06
2.5437e-06
2.29294e-06
2.09437e-06
1.94397e-06
1.83769e-06
1.77196e-06
1.74259e-06
0.000164723
0.000162016
0.000162472
0.000165937
0.000172074
0.000180324
0.000189947
0.000200097
0.000209911
0.000218602
0.000225533
0.000230259
0.000232553
0.000232395
0.000229928
0.000225439
0.000219297
0.000211892
0.000203582
0.000194661
0.000185335
0.000175728
0.000165882
0.000155782
0.000145376
0.000134618
0.000123507
0.000112109
0.000100562
8.90621e-05
7.78402e-05
6.71326e-05
5.71544e-05
4.80786e-05
4.00247e-05
3.3052e-05
2.71588e-05
2.22894e-05
1.83459e-05
1.52029e-05
1.27247e-05
1.07787e-05
9.24542e-06
8.02303e-06
7.02898e-06
6.19905e-06
5.48581e-06
4.85657e-06
4.29117e-06
3.78006e-06
3.32084e-06
2.91505e-06
2.56559e-06
2.27445e-06
2.04148e-06
1.86429e-06
1.73887e-06
1.66081e-06
1.62467e-06
0.00014262
0.000137854
0.000135531
0.000135551
0.000137721
0.000141721
0.000147124
0.000153428
0.000160094
0.000166589
0.000172429
0.000177215
0.000180652
0.000182569
0.000182915
0.000181725
0.000179115
0.000175256
0.000170335
0.000164529
0.000157979
0.000150787
0.000143014
0.000134688
0.000125821
0.000116441
0.000106607
9.64322e-05
8.608e-05
7.5761e-05
6.57144e-05
5.61835e-05
4.73918e-05
3.95131e-05
3.2654e-05
2.68497e-05
2.20653e-05
1.82123e-05
1.51685e-05
1.27952e-05
1.0956e-05
9.52711e-06
8.40313e-06
7.49771e-06
6.7424e-06
6.08502e-06
5.48829e-06
4.92846e-06
4.39397e-06
3.88353e-06
3.40337e-06
2.96396e-06
2.57623e-06
2.24837e-06
1.98403e-06
1.78227e-06
1.63889e-06
1.54839e-06
1.50403e-06
0.000120553
0.000114674
0.000110552
0.000108156
0.000107412
0.000108176
0.00011025
0.00011339
0.000117307
0.000121678
0.000126168
0.000130456
0.000134249
0.000137306
0.000139446
0.000140563
0.000140611
0.000139581
0.000137515
0.000134474
0.000130518
0.000125698
0.00012006
0.000113641
0.000106475
9.86362e-05
9.02276e-05
8.14029e-05
7.23526e-05
6.33073e-05
5.45202e-05
4.62394e-05
3.86944e-05
3.20481e-05
2.63798e-05
2.16936e-05
1.79219e-05
1.49546e-05
1.26624e-05
1.09093e-05
9.57151e-06
8.54218e-06
7.73307e-06
7.07285e-06
6.50471e-06
5.98517e-06
5.484e-06
4.98317e-06
4.47677e-06
3.96934e-06
3.47347e-06
3.00643e-06
2.58582e-06
2.22546e-06
1.93254e-06
1.70753e-06
1.54599e-06
1.44125e-06
1.38521e-06
9.70296e-05
9.07489e-05
8.57137e-05
8.19362e-05
7.94144e-05
7.81431e-05
7.80699e-05
7.91053e-05
8.10996e-05
8.38619e-05
8.71747e-05
9.07759e-05
9.44098e-05
9.78316e-05
0.000100827
0.000103231
0.000104909
0.000105758
0.00010574
0.000104803
0.000102935
0.000100129
9.64153e-05
9.1819e-05
8.63482e-05
8.01106e-05
7.3233e-05
6.59027e-05
5.83103e-05
5.07089e-05
4.33559e-05
3.64931e-05
3.03509e-05
2.50608e-05
2.0648e-05
1.70844e-05
1.42786e-05
1.21167e-05
1.0481e-05
9.24906e-06
8.3209e-06
7.61181e-06
7.05287e-06
6.58747e-06
6.17013e-06
5.76328e-06
5.34377e-06
4.89638e-06
4.41921e-06
3.92139e-06
3.42057e-06
2.93893e-06
2.49894e-06
2.11909e-06
1.80952e-06
1.5715e-06
1.39991e-06
1.28677e-06
1.2226e-06
6.85024e-05
6.26808e-05
5.76996e-05
5.36164e-05
5.05069e-05
4.84275e-05
4.7413e-05
4.73987e-05
4.83801e-05
5.02912e-05
5.28247e-05
5.58137e-05
5.90134e-05
6.21927e-05
6.52526e-05
6.8009e-05
7.04812e-05
7.25966e-05
7.39866e-05
7.44773e-05
7.40605e-05
7.27537e-05
7.06467e-05
6.7675e-05
6.38819e-05
5.93177e-05
5.41473e-05
4.8555e-05
4.26774e-05
3.67546e-05
3.11249e-05
2.59963e-05
2.15733e-05
1.78919e-05
1.49173e-05
1.25258e-05
1.06636e-05
9.31026e-06
8.30394e-06
7.53703e-06
6.96266e-06
6.52509e-06
6.17679e-06
5.87324e-06
5.57265e-06
5.25937e-06
4.91152e-06
4.5236e-06
4.09849e-06
3.63247e-06
3.1432e-06
2.65961e-06
2.21361e-06
1.82922e-06
1.51725e-06
1.28099e-06
1.11421e-06
1.00675e-06
9.4585e-07
0.000869249
0.000736092
0.000627838
0.000538387
0.000464823
0.000404748
0.000353502
0.000308175
0.000268014
0.000233056
0.000207424
0.000192485
0.000187069
0.000188906
0.000192652
0.000195597
0.000197009
0.000196321
0.000193771
0.000190396
0.000187682
0.000186729
0.00018643
0.000181485
0.000163961
0.000834318
0.000719226
0.000616457
0.00052781
0.000453214
0.000390929
0.000338283
0.000293221
0.000254786
0.000223087
0.000199018
0.000182575
0.000172713
0.000167807
0.000165928
0.000165693
0.000166292
0.00016728
0.000168599
0.000170515
0.000173437
0.00017761
0.000182577
0.000186214
0.000183087
0.000857958
0.000728865
0.000617226
0.000522388
0.000443044
0.000377103
0.000322154
0.000276297
0.000238455
0.000208136
0.000184934
0.000168133
0.000156696
0.000149449
0.000145321
0.000143598
0.000143849
0.000145838
0.0001495
0.000154888
0.000162074
0.000170966
0.000180936
0.000190061
0.000193632
0.000888334
0.000741816
0.000618858
0.000516415
0.000431844
0.000362391
0.000305447
0.000258938
0.000221424
0.000191853
0.000169243
0.000152545
0.00014069
0.000132715
0.000127899
0.000125843
0.000126342
0.000129341
0.000134832
0.000142802
0.000153119
0.000165327
0.000178204
0.000188878
0.000191125
0.000915557
0.000754529
0.000620562
0.000510323
0.000420541
0.00034788
0.000289289
0.00024229
0.000204998
0.000175917
0.000153736
0.000137243
0.000125373
0.000117279
0.000112397
0.00011047
0.0001114
0.000115229
0.000122009
0.00013169
0.00014393
0.000157773
0.000171127
0.000180008
0.000177768
0.000933231
0.000762028
0.00061882
0.000501741
0.000407522
0.000332352
0.000272656
0.000225494
0.000188553
0.000159998
0.000138306
0.000122181
0.000110568
0.000102682
9.80298e-05
9.6413e-05
9.77799e-05
0.000102222
0.000109819
0.000120477
0.000133662
0.000147997
0.000160713
0.000167147
0.000160042
0.000945652
0.000764369
0.000612111
0.000488933
0.00039127
0.000314533
0.000254462
0.00020764
0.00017138
0.000143587
0.000122603
0.000107084
9.59815e-05
8.85325e-05
8.42677e-05
8.29998e-05
8.46881e-05
8.94345e-05
9.73192e-05
0.000108187
0.00012134
0.000135118
0.000146331
0.000150262
0.000139925
0.000958442
0.000760159
0.000597631
0.000469399
0.000369804
0.000292852
0.000233413
0.000187644
0.000152585
0.000125959
0.000106026
9.14296e-05
8.11446e-05
7.43632e-05
7.06129e-05
6.96927e-05
7.15442e-05
7.62543e-05
8.38773e-05
9.41835e-05
0.000106335
0.000118545
0.000127544
0.000129048
0.000116702
0.000963493
0.000742894
0.000570715
0.000440025
0.00034104
0.000265815
0.000208391
0.000164528
0.000131259
0.000106333
8.78545e-05
7.45665e-05
6.55432e-05
5.97101e-05
5.6605e-05
5.6031e-05
5.78551e-05
6.21502e-05
6.89349e-05
7.78945e-05
8.7979e-05
9.74447e-05
0.000103104
0.00010091
8.64195e-05
0.0001106
0.000114088
0.0141654
1.56896e-05
8.49979e-06
1.22195e-05
0.00230061
2.34573e-06
0.0243167
9.49035e-07
8.20868
3.68336e-06
0.000121942
2.20799e-06
0.00229967
8.55092e-06
1.64148
1.55001e-05
5.46262e-07
0.105455
1.92806e-05
8.81983e-06
5.20786
1.37969e-05
2.24351e-06
2.33025e-06
2.36932e-06
0.000155761
3.28474e-05
3.08794
3.95587e-07
1.51711e-06
0.00395821
0.000186909
3.81665
3.78986e-06
0.000808919
0.00255967
0.000908508
3.66034e-06
3.44511
7.78328e-07
3.30206e-06
0.00104125
0.000139483
8.31056e-06
8.32897
5.38753
6.39528e-05
0.000191861
7.98383
0.125643
2.63952e-05
1.42277e-05
0.00189392
0.0188193
1.52698e-06
1.80615e-05
2.43923e-06
0.00290184
2.77503e-05
0.0108954
6.98078e-06
6.85228e-06
2.26276e-06
0.00118635
7.21544e-07
4.17543e-05
0.000143749
0.000128677
0.0161478
1.11495e-05
2.56285e-06
0.0619547
1.45139e-06
1.68741e-05
0.0151037
6.2572
2.23732e-06
1.37809e-05
0.00015651
7.2779e-05
2.35192e-06
7.8768
1.42708e-05
3.31648e-05
2.38032e-06
5.8055
0.00597685
8.1047e-06
2.82132e-05
1.68671e-06
6.64439e-06
4.08539e-06
2.65481e-06
8.26842
2.29712e-06
7.13109
2.3712e-06
0.0024493
5.94742e-05
3.26195
7.74434e-05
1.18075e-05
2.16298e-06
0.000133082
4.7198
0.00013912
2.60117e-06
2.761
6.60164e-06
1.3371e-06
2.41399
1.22499e-05
2.24957e-05
5.81758e-05
0.00545486
3.14796e-06
5.11189e-05
1.16483e-06
4.67878e-07
1.20326e-06
1.24481e-05
2.11001e-06
0.00840419
2.85458e-06
0.303718
0.00173298
2.8766e-07
5.46893
2.26272e-06
0.0427847
0.000139771
0.000499228
0.000409224
2.48271e-06
0.000122977
2.49806e-05
1.3275e-05
0.335806
1.90059e-05
0.000707234
0.00719406
3.97478e-07
3.59527e-05
2.18724e-05
1.78876e-05
0.000144582
8.54251e-06
3.77677
2.17377e-05
5.03814e-07
1.68153e-05
0.0056727
1.23237e-06
7.22595
2.59854e-06
3.36809e-06
0.0202177
1.02565e-06
2.68844e-06
0.0217444
4.65446e-06
7.30086
6.47195e-06
9.49248
1.34172e-06
2.32178e-06
3.00055e-05
2.49737e-06
2.39263e-06
8.08005e-06
5.33257e-05
8.49652
6.67674e-07
0.000175389
0.00016465
6.13153e-05
0.000289278
1.86975e-05
0.000323559
1.47876e-06
3.00849e-05
0.000308955
0.00102682
9.84494e-07
10.0376
2.75282e-06
0.00035704
6.91829e-06
1.49166
0.00494163
0.000203042
0.000591465
0.00298679
0.000788539
1.35308e-06
8.24167e-06
4.33271e-05
4.51573e-05
0.000219193
3.66088e-05
6.06548e-05
1.0413e-05
2.02205e-05
2.9845e-06
8.40319e-07
7.5066e-05
0.000102081
3.03758e-06
2.15535e-06
2.99674e-06
0.00031887
1.88473e-05
3.3108e-05
4.94816
2.30276e-06
1.46569e-07
1.79754e-05
2.09998e-05
2.23579e-05
9.25728e-07
1.24979e-06
0.00434653
3.09302e-06
0.0424518
6.89478e-06
1.24605
2.62032e-06
2.62084e-06
6.75764
3.87961e-06
1.9947e-06
1.44057e-06
0.000893041
1.86485e-06
0.00789935
5.6416e-05
0.000340764
0.0081506
3.0939e-07
2.7523e-05
4.44268e-06
0.000637278
2.57061e-06
1.99294e-06
1.79436e-06
0.000277369
7.26461e-06
1.54796e-06
2.7507e-06
0.000201983
6.23157e-07
6.2146e-05
3.03575e-06
2.13528e-06
2.71504
0.0107887
0.0153784
5.14188e-07
8.15062e-05
2.40766e-07
3.06397e-06
1.25608e-06
0.0341206
1.91644e-06
2.75807e-06
1.92282e-05
0.00226966
2.42802e-06
4.40502e-05
0.000230491
3.53628e-06
1.48854e-07
9.20076e-07
2.09769e-05
1.2081e-06
0.0806756
9.08696e-07
0.574393
0.00165532
2.39273e-05
2.89808e-05
8.33784e-06
0.000304227
2.4753e-05
0.00014936
7.64036e-06
7.82571
2.41366
0.00869118
4.86337e-06
8.59211e-07
7.57212
0.00054532
4.50773
2.20881
1.12001e-06
1.18437e-06
0.000663462
0.0472805
2.85928e-06
2.20746e-06
1.50166e-05
0.926887
3.22568e-06
1.78091e-05
3.59047e-07
0.310682
6.93756e-05
1.15164e-05
7.8925e-06
0.00110751
3.61779e-07
3.32393e-06
0.000515945
8.439
8.26964e-07
2.27696e-06
0.00109011
0.0137498
4.11823e-06
2.27963e-06
3.79433e-07
2.30912e-06
1.88366e-06
0.00293221
0.000149163
1.0453e-06
2.11634e-05
5.94087e-06
0.0028546
1.38351e-05
1.25205e-06
4.59084
4.10281e-05
2.30381e-06
2.65581e-06
6.52887e-07
6.18279e-05
3.19462e-06
4.72565e-06
0.000894393
5.43908e-06
0.0225965
2.28774e-06
9.97853e-06
5.98981e-06
2.67626e-06
10.0195
6.34947e-05
6.47885e-06
2.43928e-06
0.0101114
7.55541
2.67415e-06
0.00149573
0.000792679
3.76825e-06
11.1285
0.00011475
6.38338
7.83932e-07
0.0132113
7.6772e-07
2.69372e-06
1.61501e-05
7.86297
2.7465e-06
0.000277471
8.0996e-06
0.00537446
3.71198e-05
0.0726576
0.000118392
1.54314e-06
1.21142e-06
1.45845e-05
5.6947e-07
1.43196e-06
1.89228
6.51415e-06
0.0060274
0.00128675
0.000956671
0.00103808
8.27864e-06
0.0806488
12.8527
1.40233
0.000301984
2.94378e-06
5.32315e-05
0.00372374
0.00029444
5.9342e-07
2.97033e-06
0.00294744
3.14026e-06
3.411e-05
2.41284e-06
4.27761e-06
1.25038e-05
0.000131711
4.86125e-06
1.23396e-08
0.00266218
7.19727e-05
2.58754e-05
3.06471e-07
0.000595311
2.96341e-06
0.000604439
1.10612e-05
3.68731e-06
1.28918e-06
8.70284e-05
9.89982
1.15874e-06
1.57555e-06
8.90243e-06
7.40158e-07
1.06999e-05
0.000101421
1.77876e-05
2.76506
4.05958e-07
4.21645e-06
3.42946e-07
1.27291e-06
7.72181e-06
2.15229e-06
8.66114e-06
2.92161e-06
0.00677434
1.25757e-05
6.81419e-06
7.49546e-07
5.56108e-06
1.47348e-06
1.1285e-06
0.00815444
7.52067
0.000271794
0.000154017
0.000201563
8.69299e-05
0.000765144
2.2339e-06
1.78376e-06
0.0580558
1.70506e-06
4.40537e-06
0.000483806
5.92444e-06
0.000106795
10.9447
3.34678e-05
3.00856e-05
0.00125596
5.10028e-06
0.000916193
0.000490397
0.000290746
1.17241
2.85641e-06
2.31166e-06
0.00683967
1.0121e-06
12.7718
0.000187759
2.96044e-06
5.90119
1.47313e-06
2.10946e-06
0.000142756
5.9779e-06
2.82967e-06
0.000166193
0.000102909
4.91443e-05
0.00102399
2.32449e-07
3.91172e-06
7.37954
5.25127e-06
6.86473e-05
1.22838e-05
0.000381728
1.69074e-05
0.00218492
4.17336e-06
1.27078e-06
0.00257723
2.62462e-06
2.43864e-06
0.00187537
1.38958e-05
5.45716e-06
0.000227935
3.0176e-06
0.00730944
4.32305e-06
0.000427467
0.000151425
0.000225293
9.67343e-06
5.83215e-06
0.00273777
1.85712e-06
8.20137e-06
0.000192196
6.16666e-07
4.79019e-06
1.2275e-06
7.77757
0.625791
0.000112878
1.49986e-06
8.65927e-05
5.03987e-06
2.52333
0.131859
1.80152e-05
0.000187019
1.24657e-05
1.93647
2.63602
2.86337e-06
1.24868e-05
0.000191748
1.53036e-05
2.86771e-05
0.00258889
1.21204e-06
0.000171619
4.65818e-06
0.000384547
5.51894e-05
4.55574e-06
0.00101672
2.71684
8.53185e-06
4.7899
3.13899e-06
0.00206028
3.49394e-06
1.39568e-05
1.07469e-05
0.105998
0.000985781
0.00113845
2.83632e-07
7.46625e-05
0.000103196
8.26918
1.29855e-06
8.87402e-06
8.80031e-05
0.000190595
3.78553e-07
0.00048039
4.64274e-06
0.000117668
3.41288
6.0549e-07
9.56915e-05
2.2976e-06
1.44191e-06
0.000128865
0.0017973
1.55756e-05
0.00125435
2.31465e-06
5.01519e-06
2.092
10.0543
0.000231328
2.16451e-05
0.000165567
0.466492
2.88858e-05
3.4169e-05
6.16017e-06
2.17627e-06
0.00278231
8.13127e-06
1.08259e-05
0.00088619
2.41963e-05
2.75808e-05
3.28616e-05
6.27589e-06
0.00361449
9.72885e-06
2.42806e-06
0.000149762
0.000131294
5.59937e-06
1.17e-06
0.000996651
0.00011702
8.5875e-07
3.68163e-06
0.000964473
3.83271e-06
3.25617e-05
4.34543e-07
6.52674e-06
1.44353e-06
3.46586e-06
0.000983173
2.02093e-06
2.47843e-05
9.86315e-05
2.74389e-05
1.62666e-07
1.03687e-05
0.00123513
9.19965e-06
2.94324e-06
4.14625e-06
4.54262e-06
1.13288e-06
6.05426e-06
0.00179494
11.0009
0.000131247
0.00196842
6.21251e-06
2.26126e-06
3.06657e-06
1.91117e-06
2.07485e-05
1.1539e-06
4.17122e-05
8.49618e-06
1.23777e-06
3.56569e-07
0.00145765
9.20725e-05
5.73762e-06
0.00110799
7.49893e-06
1.06388e-05
2.42546e-07
4.27521e-05
0.000259828
0.00159944
0.00350068
0.00996639
1.93164e-06
9.30044e-07
2.02538e-06
1.34598e-05
3.9821e-07
9.90638
6.64344e-07
2.30216e-05
9.12113e-07
0.000345027
1.17767e-05
6.92868
1.4633e-07
3.06259e-06
2.17034e-06
1.80612
0.00090562
0.000776425
2.58267e-05
6.29389e-06
1.3333e-06
9.29396e-06
0.0141887
5.7826e-07
3.49412e-06
0.00057683
2.86536e-06
7.13369e-06
1.55744e-06
3.10507e-06
2.82239e-05
3.08456e-06
2.55886e-06
2.46901e-06
7.73013e-06
1.25421e-05
3.96537e-05
4.29912
1.51797e-06
0.00286332
1.04751e-06
11.2788
2.13619e-06
7.43005e-06
1.57567e-06
1.95511e-06
0.000904602
1.36975e-05
9.83565e-06
2.43757e-06
3.68759e-05
2.99159e-06
1.26923e-05
1.29709e-05
0.0635077
0.00124794
7.88541e-06
4.70947
0.00389099
0.000372706
4.24874
8.01696e-07
2.73575e-06
2.99021e-06
4.35455e-08
3.77569e-06
0.00151855
1.93e-05
2.39781e-06
9.72198e-05
2.66007e-06
3.24034e-07
0.000749138
1.66383e-06
3.77753e-07
2.23781e-06
5.13976e-06
0.000187605
2.26191
1.12895e-06
0.000423855
0.00172932
5.34761e-05
2.78396e-05
3.13691
7.82097
2.47205e-05
1.40372e-07
7.42473e-06
2.50119e-07
2.55622e-05
4.17398e-06
0.000468908
9.17348e-05
5.28093e-06
0.0378529
0.000186128
1.52846e-07
2.30034e-06
3.80244e-06
11.3121
0.000710198
2.22153e-06
0.00300645
0.00572376
4.77332e-05
0.000811955
5.88241e-10
1.34066e-06
0.000817661
5.16835e-07
0.00011086
2.93493e-05
5.2267
0.00420996
1.96843e-06
0.00446274
1.35077e-06
3.41077e-07
0.000756334
2.38531e-05
3.57863e-05
8.17828e-07
3.90977e-06
0.000591898
8.56096e-06
1.32064e-06
3.17067e-06
3.36651e-06
0.000120564
3.19883e-06
0.0302187
0.003468
9.41337e-06
6.40637e-05
8.04138e-06
0.281383
2.82635e-05
3.71671e-06
9.53684e-06
7.53183e-05
1.81726e-05
6.38067e-07
1.44933e-05
9.50769
0.000464415
0.000863666
1.872e-05
0.000151721
0.000386981
0.00652049
0.000412321
0.000509163
1.08284e-06
5.67465e-06
5.79475
2.04963e-06
2.52548e-06
6.47338e-05
0.000818315
0.0139608
2.46317e-06
6.0582e-06
0.000195455
3.06932e-06
0.00224204
0.000886705
1.66888e-05
2.45489e-06
0.0735371
4.86653e-05
0.000382736
4.65636e-06
5.71871e-07
1.52238e-06
0.000124294
0.000938821
2.02417e-06
2.97226e-06
2.47869e-06
0.000684799
7.70409e-07
0.000706067
0.000193375
1.15367e-06
3.64564e-06
5.42897e-05
1.54742e-06
6.04665e-05
1.55637e-06
6.05784e-05
2.55316e-06
1.20592e-06
0.000401068
1.11256e-05
4.90609e-06
4.95314e-06
0.000241672
6.05575e-05
5.09482
2.35681e-07
2.57757e-06
3.89832e-06
0.00144561
0.327573
0.00404427
1.2012e-06
0.000193118
0.00307327
5.80066e-08
1.69999e-06
3.45394e-06
6.96862
2.73804e-06
0.383792
1.23506e-05
3.2057e-07
0.000454323
5.97421e-06
2.01195e-05
5.00271e-05
0.00011433
0.0301484
0.0329835
10.8642
1.5995e-06
0.00147273
0.000869787
6.52305e-06
0.00192018
2.46897e-06
3.70381e-06
0.00402636
1.05157e-05
1.67574e-05
3.2848e-05
0.000614996
9.73156e-07
8.01252e-07
0.00109406
7.84293e-07
1.86627e-05
0.00130035
5.49917e-05
0.00122225
5.34829e-06
0.000120185
4.61946
4.85215
0.000528874
5.03886e-05
0.000212895
1.25434e-06
1.18996e-06
0.000181329
0.000219991
7.93922e-07
2.32221e-05
7.05589e-07
0.000810187
1.6195e-05
0.000670678
0.000427027
2.48127e-07
2.64096e-06
6.47329e-06
0.000496482
0.000543014
0.000566625
4.41207e-05
2.07776e-05
0.000160536
7.18017e-05
2.91283e-05
9.40177e-05
1.57496e-05
8.86495e-07
1.20916e-05
6.03629e-06
1.49918e-06
0.000174103
10.6762
2.04661e-06
0.000534784
7.08924e-06
0.00646444
2.91162e-06
2.79539e-06
2.36565e-06
0.00402851
0.000364366
0.000116323
5.40927e-05
2.27717e-06
3.42788e-06
0.00715105
3.4878e-07
0.0013163
0.000579365
0.0567823
1.37808e-06
2.73169e-05
0.00831175
1.09576e-05
2.53712e-05
5.51275e-05
0.0641411
1.35301e-06
4.24711e-05
0.00503527
0.00302392
2.30663e-06
3.24694e-05
3.33468e-07
1.27589e-05
2.45049e-06
5.93752e-06
3.12328e-05
1.80885e-06
0.000191227
0.000391708
0.163016
0.00372548
4.88916e-06
9.95928e-05
0.000290621
8.34267e-07
3.42749e-05
6.66334e-06
6.99599e-06
1.81955
1.29421e-05
0.000508745
8.95611e-07
2.41679e-06
8.33249e-05
2.19217e-06
2.15542e-05
3.46001e-06
0.00205027
0.00353415
0.00564763
1.30238e-06
0.00196056
2.04574e-06
5.76925e-05
8.1891e-06
0.00118596
0.000362779
3.38689e-05
2.3907
5.77014e-07
9.41446
3.38046e-06
5.51254e-05
4.83683e-05
2.71778e-06
1.57422e-06
0.000790189
0.00328636
1.32648e-06
7.12547e-06
0.0096301
5.17332e-07
4.35006e-06
1.2718e-06
2.34437e-06
4.95005e-06
5.65742
2.28803e-05
3.53214e-06
0.00553595
0.000246961
11.0144
1.74722e-06
7.11759e-06
3.30995e-06
1.90673e-06
3.63594e-05
3.2835e-06
1.6167
2.10141e-06
0.000905671
4.98741e-07
3.84991e-05
0.000224242
0.000629958
4.37704e-06
6.41413e-06
2.78983e-06
3.23184e-05
6.24518e-07
2.60014e-05
1.7699
1.27415e-05
4.2383e-05
2.35993e-06
0.00813164
0.0430463
0.000157459
0.00137112
1.26391e-05
5.70047e-05
7.06412
10.5156
7.25798e-06
6.94966e-06
9.52115e-05
0.000508239
2.37281e-05
0.00149094
7.65875e-06
0.000429993
0.000487028
4.7361e-06
4.18812e-06
1.43146e-05
1.5879e-06
4.28542e-07
1.15286e-06
5.77127e-05
9.05078e-07
0.00112156
2.54067e-06
2.086e-06
1.3116e-06
1.22461e-06
3.59277e-05
4.67712e-07
0.273848
0.000189228
7.05877e-06
1.50605e-05
4.76288e-05
6.63037
7.87564e-07
7.39883e-07
1.26546e-05
2.62086e-05
1.25456e-05
0.000125333
0.118155
2.18684e-06
2.28984e-06
6.04496e-05
4.23857e-06
1.54726e-05
0.00649496
8.16124e-07
2.59249e-06
6.49226e-07
9.47247e-06
0.00028994
0.000218223
0.00179592
3.52137e-06
0.00011335
3.34347e-07
1.6628
2.73257
3.94739e-06
1.74549e-06
0.0328752
2.55862e-06
2.53167e-06
0.000424936
4.46223e-05
1.91452e-06
2.59728e-06
2.94732e-07
0.000535797
0.000115789
6.46236e-06
1.03328e-06
0.000248518