/*--------------------------------*- C++ -*----------------------------------*\
  =========                 |
  \\      /  F ield         | OpenFOAM: The Open Source CFD Toolbox
   \\    /   O peration     | Website:  https://openfoam.org
    \\  /    A nd           | Version:  10
     \\/     M anipulation  |
\*---------------------------------------------------------------------------*/
FoamFile
{
    format      ascii;
    class       volScalarField;
    location    "350";
    object      k;
}
// * * * * * * * * * * * * * * * * * * * * * * * * * * * * * * * * * * * * * //

dimensions      [0 2 -2 0 0 0 0];

internalField   nonuniform List<scalar> 
10435
(
0.167255
0.195621
0.262872
0.425496
0.578361
0.459417
0.263007
0.349545
0.397389
0.35082
0.278616
0.774525
0.224499
0.242449
0.225961
0.386663
0.256391
0.233433
0.408185
0.194661
0.35239
0.439444
0.380717
0.731032
0.375635
0.195772
0.298916
0.230371
0.252834
0.289106
0.563075
0.330804
0.358503
0.226424
0.517901
0.142652
0.547522
0.309694
0.163336
0.515054
0.311581
0.282948
0.272601
0.28549
0.550207
0.637422
0.379602
0.287321
0.350881
0.437631
0.376532
0.602794
0.158338
0.204022
0.169971
0.233409
0.649829
0.322105
0.250571
0.599268
0.166787
0.168471
0.31243
0.669507
0.460639
0.277634
0.248198
0.322482
0.330073
0.78486
0.201473
0.253026
0.205995
0.31924
0.205638
0.23779
0.799039
0.270138
0.3477
0.173836
0.607921
0.132318
0.15364
0.205802
0.692239
0.159435
0.165195
0.274106
0.188133
0.176608
0.332169
0.406279
0.150036
0.173985
0.198018
0.146689
0.487808
0.220861
0.240877
0.561728
0.204821
0.527983
0.164187
0.230012
0.537392
0.349631
0.180222
0.521152
0.759789
0.151525
0.357418
0.500156
0.126333
0.133477
0.481869
0.359586
0.636164
0.1584
0.25643
0.648716
0.691882
0.200381
0.167853
0.167033
0.342397
0.181513
0.57562
0.192867
0.625982
0.296115
0.18351
0.292361
0.391799
0.19446
0.28109
0.138597
0.126292
0.509616
0.216471
0.29038
0.235285
0.535826
0.247138
0.742618
0.525648
0.235946
0.144234
0.598576
0.270012
0.778901
0.269678
0.645857
0.176477
0.749003
0.511791
0.238496
0.396561
0.187212
0.422585
0.202641
0.706396
0.211394
0.371293
0.760918
0.180418
0.692466
0.394706
0.671892
0.819373
0.724165
0.444074
0.186473
0.27089
0.222766
0.801812
0.168209
0.150558
0.300803
0.285102
0.271467
0.232558
0.513811
0.790494
0.174877
0.62579
0.253923
0.230175
0.290178
0.60928
0.685882
0.737737
0.149937
0.278062
0.119637
0.452934
0.309923
0.266214
0.171698
0.30001
0.46078
0.187169
0.300948
0.22924
0.316442
0.245699
0.473349
0.308287
0.595112
0.306642
0.612577
0.238085
0.32282
0.752125
0.802186
0.293867
0.25618
0.157639
0.174881
0.196177
0.226213
0.24934
0.287693
0.282615
0.206003
0.221367
0.446956
0.176413
0.189322
0.603217
0.224994
0.309617
0.419032
0.184238
0.729597
0.317944
0.268738
0.739648
0.217208
0.792221
0.486773
0.236388
0.199027
0.184929
0.225199
0.422095
0.369826
0.162869
0.302216
0.207991
0.14263
0.198327
0.169913
0.24136
0.694932
0.284897
0.675469
0.18265
0.272853
0.217683
0.294368
0.262259
0.518164
0.195962
0.808981
0.147961
0.28746
0.200521
0.451429
0.164282
0.545556
0.253398
0.312783
0.293698
0.32242
0.211879
0.70207
0.301929
0.510289
0.33733
0.322299
0.282058
0.284042
0.243172
0.2068
0.160382
0.157997
0.617524
0.170406
0.205607
0.245421
0.18476
0.244671
0.291375
0.303089
0.167307
0.199077
0.250121
0.151875
0.442331
0.421218
0.315896
0.812851
0.233706
0.234861
0.384505
0.240308
0.280657
0.782915
0.35247
0.202067
0.22551
0.277279
0.125959
0.616943
0.440188
0.204415
0.181371
0.689941
0.311496
0.733886
0.533268
0.290829
0.163012
0.146239
0.328989
0.246364
0.230833
0.227685
0.287947
0.318398
0.509191
0.24453
0.196315
0.248751
0.769002
0.324405
0.210481
0.21097
0.200174
0.258766
0.247226
0.247138
0.163942
0.27219
0.263034
0.266386
0.319517
0.321623
0.14259
0.338097
0.194736
0.278001
0.290218
0.224894
0.330934
0.328148
0.213497
0.377685
0.214893
0.220461
0.211156
0.183283
0.247026
0.160529
0.28339
0.262638
0.323348
0.813334
0.257745
0.346224
0.175758
0.280686
0.206015
0.316851
0.15966
0.297148
0.313258
0.310209
0.224478
0.211475
0.348413
0.172213
0.337195
0.306365
0.316598
0.331795
0.222899
0.219605
0.332406
0.23134
0.472926
0.21043
0.224493
0.238003
0.207549
0.237002
0.221482
0.211319
0.338869
0.285512
0.293941
0.269821
0.193606
0.308444
0.313045
0.32925
0.809436
0.197612
0.226938
0.321118
0.342412
0.319458
0.241572
0.212956
0.240633
0.31016
0.269962
0.242622
0.202782
0.233608
0.263582
0.21601
0.198698
0.160411
0.142554
0.301451
0.210631
0.058399
0.0565248
0.0542357
0.0507436
0.0468044
0.0425808
0.0380868
0.0330399
0.0268246
0.0627457
0.0600759
0.0569649
0.0531547
0.04897
0.0445184
0.0397666
0.0345787
0.0287211
0.065514
0.0622091
0.0584492
0.0542765
0.0498872
0.0452951
0.040458
0.0353153
0.0298325
0.0672485
0.0634259
0.0591359
0.0546545
0.0501048
0.0454454
0.040623
0.0356018
0.0303968
0.0683514
0.0640803
0.0593599
0.054636
0.0499678
0.0452843
0.0405149
0.0356173
0.0305895
0.0691145
0.0644582
0.0593908
0.0544794
0.0497196
0.0450237
0.0403032
0.0355007
0.0305997
0.0697875
0.0648114
0.0594568
0.0543895
0.0495453
0.0448254
0.0401272
0.0353841
0.0305811
0.0706659
0.0653612
0.0597478
0.0545328
0.0495943
0.0448228
0.0401064
0.0353749
0.0306205
0.0720187
0.066274
0.0604127
0.0550449
0.0499932
0.0451346
0.0403507
0.0355644
0.0307639
0.073907
0.0676373
0.0615638
0.0560403
0.0508562
0.0458749
0.0409749
0.0360675
0.0311206
0.0761474
0.0694611
0.0632849
0.0576213
0.0522933
0.0471615
0.0421075
0.0370343
0.0318935
0.0783162
0.071724
0.0656488
0.0598868
0.0544148
0.0491154
0.0438848
0.038625
0.03329
0.0797045
0.0745079
0.0687674
0.0629525
0.0573343
0.0518519
0.0464259
0.0409621
0.0354238
0.082282
0.0783654
0.0728812
0.0669685
0.0611648
0.055465
0.0498114
0.0441178
0.0383547
0.0875968
0.0838701
0.0782396
0.072064
0.0659822
0.0599999
0.0540631
0.0480849
0.0420211
0.0961264
0.0912039
0.0848994
0.0782461
0.0717674
0.065422
0.0591398
0.0528342
0.0464637
0.107015
0.0999234
0.0925981
0.0853287
0.0783686
0.0715987
0.0649203
0.0582492
0.0515713
0.117657
0.108942
0.100758
0.0929362
0.0855147
0.0783229
0.0712383
0.0641747
0.0571351
0.126607
0.117284
0.108742
0.100628
0.0928934
0.0853736
0.0779442
0.0705204
0.0631082
0.133533
0.124539
0.116156
0.108083
0.100263
0.0925839
0.0849384
0.0772567
0.0695611
0.138884
0.130802
0.122947
0.115194
0.10753
0.0998954
0.0922077
0.0844061
0.0765345
0.143391
0.136452
0.129303
0.122052
0.114757
0.107386
0.0998669
0.0921347
0.0842511
0.147917
0.141981
0.13555
0.128902
0.122167
0.11529
0.10819
0.100779
0.0931448
0.153655
0.147969
0.142077
0.136097
0.130115
0.124003
0.117641
0.110866
0.103795
0.162277
0.15505
0.14943
0.144221
0.139204
0.134164
0.128968
0.123341
0.117002
0.0479479
0.046401
0.0455983
0.0456268
0.0465661
0.0484604
0.0513074
0.0550461
0.0595776
0.0647774
0.0705184
0.0766791
0.0831473
0.0898307
0.0966472
0.103535
0.110445
0.117331
0.124139
0.13076
0.13706
0.142908
0.148154
0.152608
0.155956
0.157505
0.157321
0.155906
0.153441
0.149793
0.14521
0.139945
0.134093
0.127628
0.120745
0.113619
0.106379
0.0991284
0.0919714
0.0850241
0.0784102
0.0722591
0.0666925
0.0618141
0.0576957
0.0543652
0.0518041
0.0499579
0.0487436
0.0480705
0.0478458
0.047986
0.0484212
0.0490921
0.0499557
0.0509789
0.0521397
0.0534216
0.0548087
0.0515606
0.050655
0.0505392
0.0513039
0.0530187
0.055712
0.0593246
0.0637469
0.068835
0.0744329
0.0803864
0.0865537
0.0928115
0.0990611
0.105237
0.111316
0.117323
0.123309
0.129155
0.134655
0.139618
0.14404
0.14787
0.151013
0.153307
0.154521
0.15447
0.153104
0.150476
0.146726
0.142074
0.136713
0.130778
0.124384
0.117662
0.110742
0.103746
0.0967899
0.0899939
0.0834784
0.0773593
0.0717395
0.0667014
0.0623009
0.0585635
0.0554848
0.0530345
0.0511633
0.0498101
0.048909
0.0483953
0.0482195
0.0483404
0.0487101
0.0492821
0.050023
0.0509176
0.0519543
0.0531155
0.0529423
0.0524641
0.0528452
0.0541366
0.0563537
0.0594597
0.0633655
0.0679394
0.0730272
0.0784726
0.0841314
0.089879
0.0956144
0.10126
0.106763
0.112093
0.11724
0.122207
0.126981
0.131511
0.135713
0.139494
0.142749
0.145345
0.147116
0.147883
0.147518
0.14598
0.143306
0.139593
0.134997
0.129692
0.123837
0.117583
0.111084
0.104487
0.0979337
0.0915511
0.0854557
0.0797473
0.0745031
0.0697737
0.0655821
0.0619273
0.05879
0.0561395
0.0539394
0.0521525
0.0507427
0.0496748
0.0489141
0.0484322
0.0482056
0.0482148
0.0484429
0.0488754
0.0494998
0.0503071
0.0512789
0.0509887
0.0503942
0.050611
0.0516833
0.0536243
0.0564007
0.0599329
0.0641034
0.0687725
0.0737955
0.0790361
0.084375
0.0897148
0.0949811
0.100122
0.105103
0.109908
0.114521
0.118918
0.123051
0.126855
0.130245
0.133116
0.135346
0.136792
0.137318
0.136816
0.135241
0.132608
0.129001
0.124555
0.119437
0.113827
0.107905
0.10185
0.09583
0.0899945
0.0844667
0.0793384
0.0746659
0.0704698
0.0667397
0.0634422
0.0605312
0.0579573
0.0556753
0.0536486
0.0518532
0.0502741
0.0489423
0.0478453
0.0469858
0.0463721
0.046013
0.0459115
0.0460658
0.04647
0.047117
0.047986
0.0470347
0.0462456
0.0461706
0.0468508
0.0483042
0.0505164
0.0534367
0.0569824
0.0610478
0.0655167
0.0702732
0.0752092
0.0802304
0.0852573
0.0902255
0.0950841
0.0997909
0.104307
0.108589
0.112584
0.116225
0.11943
0.1221
0.124124
0.125383
0.125769
0.125199
0.123636
0.121098
0.117659
0.113447
0.108628
0.103394
0.097948
0.0924863
0.0871862
0.0821906
0.0776003
0.0734691
0.0698044
0.0665764
0.0637288
0.0611923
0.0588949
0.0567717
0.0547708
0.0528588
0.0510234
0.0492739
0.0476418
0.0461711
0.0449096
0.0439021
0.0431832
0.0427733
0.0426785
0.0428938
0.0434084
0.0441952
0.0419836
0.0409567
0.0405363
0.0407597
0.0416523
0.0432172
0.0454315
0.0482477
0.0515971
0.0553977
0.0595606
0.0639966
0.0686199
0.0733506
0.0781159
0.0828493
0.0874891
0.091975
0.0962451
0.100232
0.103859
0.107038
0.109673
0.11166
0.112893
0.113284
0.112765
0.111312
0.108947
0.105749
0.101845
0.0974115
0.0926538
0.0877879
0.0830158
0.0785086
0.0743868
0.070717
0.067514
0.0647454
0.0623467
0.0602357
0.0583249
0.0565307
0.05478
0.0530171
0.0512096
0.0493525
0.0474703
0.0456149
0.0438577
0.0422797
0.0409573
0.0399504
0.0392942
0.0389998
0.0390594
0.0394568
0.0401584
0.0364224
0.0352493
0.034571
0.0344251
0.034841
0.035833
0.0373997
0.0395214
0.0421615
0.0452692
0.0487836
0.0526372
0.0567588
0.0610759
0.0655155
0.0700058
0.0744744
0.078847
0.0830483
0.0869989
0.090612
0.0937935
0.0964452
0.0984649
0.0997512
0.100225
0.0998326
0.0985597
0.0964358
0.093545
0.0900247
0.0860552
0.0818575
0.0776508
0.0736251
0.0699313
0.066655
0.0638278
0.061436
0.0594191
0.0576954
0.0561731
0.0547599
0.0533701
0.051928
0.0503763
0.0486842
0.0468508
0.0449099
0.0429263
0.0409896
0.0392023
0.0376634
0.0364517
0.0356136
0.0351624
0.0350868
0.0353639
0.0359541
0.0301264
0.0288661
0.0279972
0.0275623
0.0275906
0.028106
0.0291185
0.0306265
0.0326149
0.0350556
0.0379114
0.041132
0.0446629
0.0484442
0.0524132
0.0565062
0.0606526
0.0647696
0.0687787
0.0725854
0.0760986
0.079219
0.0818546
0.0839062
0.0852608
0.0858541
0.0856369
0.0846094
0.0827963
0.0802973
0.0772591
0.0738657
0.0703559
0.0669347
0.0637427
0.060899
0.0584489
0.0563927
0.0547034
0.0532978
0.0520962
0.0510098
0.0499538
0.0488493
0.0476291
0.0462334
0.0446425
0.0428534
0.0409049
0.0388717
0.0368557
0.0349712
0.0333286
0.0320192
0.031096
0.0305705
0.0304248
0.030629
0.0311371
0.0224314
0.0211499
0.0201638
0.0195145
0.0192446
0.0193784
0.0199307
0.0208973
0.0222972
0.0241371
0.0263492
0.0289049
0.0317523
0.0348417
0.0381579
0.0416474
0.0453163
0.0491099
0.0528334
0.056354
0.0596017
0.0625082
0.0650269
0.0670378
0.0684566
0.0691955
0.0692208
0.0685335
0.0671227
0.0650811
0.0626479
0.0600094
0.0574187
0.0549986
0.0528204
0.0508501
0.0491506
0.0478574
0.0467995
0.0458493
0.0449984
0.0441781
0.0433193
0.0423509
0.0411917
0.0398446
0.0382871
0.0365518
0.034691
0.032709
0.0306914
0.0287721
0.0270956
0.0257683
0.0248318
0.0243097
0.0241794
0.0244043
0.0249117
0.205483
0.189176
0.176055
0.164768
0.154779
0.145784
0.137084
0.128276
0.119389
0.110651
0.103342
0.0981065
0.0948367
0.0930171
0.0912983
0.0890932
0.0863323
0.0829705
0.0791253
0.0750612
0.0711071
0.0674871
0.0639848
0.0596581
0.0531806
0.194818
0.183577
0.172239
0.161464
0.151429
0.14203
0.132994
0.124155
0.115567
0.107532
0.100547
0.0948601
0.0903872
0.0868269
0.0837659
0.0809228
0.0781476
0.0753635
0.0725675
0.0698125
0.0671694
0.0646698
0.0622129
0.0594175
0.0553857
0.192771
0.180515
0.168647
0.157396
0.146839
0.136909
0.127466
0.11845
0.10996
0.102208
0.0953968
0.0895921
0.0847128
0.0805855
0.0770261
0.0739155
0.0711829
0.0687762
0.0666582
0.0648024
0.0631781
0.0617239
0.0602937
0.0585488
0.0557483
0.191231
0.177186
0.164224
0.152211
0.141064
0.130672
0.120931
0.111816
0.103404
0.0958195
0.0891447
0.0833722
0.0784172
0.0741644
0.0705199
0.0674367
0.0648935
0.0628642
0.0613051
0.0601522
0.0593146
0.0586538
0.0579284
0.0566942
0.0540415
0.188949
0.173361
0.159238
0.146384
0.134647
0.123869
0.11393
0.104782
0.0964544
0.0890013
0.0824449
0.0767495
0.0718391
0.067633
0.0640776
0.0611548
0.0588619
0.0571841
0.0560777
0.0554581
0.0551853
0.0550338
0.0546376
0.0534255
0.0504758
0.185342
0.168601
0.153452
0.139834
0.127593
0.116532
0.106486
0.0973648
0.0891454
0.0818303
0.0754091
0.069837
0.0650493
0.0609858
0.0576104
0.0549135
0.0528947
0.0515406
0.0508037
0.0505822
0.0506966
0.0508558
0.0506031
0.0492775
0.0458958
0.18093
0.163024
0.146845
0.13252
0.119873
0.108633
0.0985643
0.0895289
0.0814542
0.074305
0.0680537
0.0626554
0.0580555
0.0542012
0.0510593
0.0486171
0.046867
0.0457903
0.0453329
0.0453771
0.0457099
0.0459979
0.0457362
0.0442318
0.0405564
0.17624
0.156573
0.139234
0.124279
0.111357
0.100062
0.0900616
0.0811711
0.0732838
0.0663371
0.0602966
0.0551249
0.0507817
0.0471989
0.0443352
0.0421669
0.0406711
0.0398203
0.0395528
0.0397355
0.0401291
0.040382
0.0399806
0.0382491
0.0343468
0.170633
0.148767
0.130271
0.114881
0.101895
0.0907123
0.0808944
0.0721971
0.0645188
0.0578065
0.0519994
0.0470995
0.0431095
0.0398693
0.0373265
0.035452
0.0341865
0.0335017
0.0333316
0.0335304
0.0338203
0.0338635
0.0331218
0.0309024
0.0265901
0.195335
0.198256
0.222987
0.0387018
0.00896635
0.0118768
0.241203
0.0102295
0.281578
0.015753
4.5971
0.0119336
0.152008
0.00907567
0.377221
0.00917438
1.8245
0.0379236
0.0158146
0.514159
0.0613098
0.0209265
3.29526
0.0251709
0.0109453
0.00789996
0.0111329
0.0332651
0.103962
2.19197
0.0223557
0.00668659
0.380871
0.208528
2.54823
0.00727942
0.316993
0.388719
0.39758
0.0161713
2.36311
0.000704347
0.0116348
0.124902
0.071515
0.0390852
4.18343
2.87881
0.114181
0.21708
4.10202
0.689512
0.0782918
0.0361181
0.227336
0.250916
0.00848271
0.0645107
0.00846527
0.468989
0.0132754
0.200445
0.00834006
0.0150577
0.00991967
0.156067
0.0165001
0.0381861
0.162058
0.182413
0.233956
0.0276927
0.00804006
0.502203
0.00895302
0.0587774
0.553359
3.53306
0.00762294
0.0348929
0.188854
0.0258761
0.00916636
3.94804
0.010389
0.01544
0.00841612
3.37801
0.388184
0.039506
0.034527
0.028191
0.0156656
0.0124813
0.0071918
4.70463
0.00772274
3.9018
0.00242199
0.468447
0.0232812
2.267
0.0267225
0.0320575
0.00842067
0.0576641
3.09752
0.177187
0.00454722
2.0401
0.0175765
0.00706821
1.87713
0.0320612
0.0732072
0.111549
0.41523
0.0158918
0.109427
0.0063333
0.000668475
0.00716519
0.0242134
0.0105575
0.393831
0.0107406
0.745762
0.148086
0.00682504
2.9454
0.00911902
0.470001
0.18397
0.342443
0.0730112
0.00852673
0.0649938
0.0143883
0.00920078
0.779368
0.0323862
0.317917
0.513537
0.000617611
0.101134
0.01549
0.0409993
0.140296
0.00883593
2.51177
0.024223
0.00956603
0.0401713
0.780805
0.00911858
3.77453
0.00951736
0.0143541
0.973204
0.0065698
0.0104045
0.266523
0.012191
3.96019
0.0133649
4.37667
0.00870158
0.0109116
0.0236534
0.00900613
0.00889908
0.0173911
0.0390569
4.11858
0.0247641
0.0556895
0.181855
0.13366
0.226158
0.0323022
0.264891
0.00622164
0.084257
0.243062
0.164975
0.00381799
4.51922
0.00458136
0.241305
0.00733848
1.35285
0.51071
0.163472
0.28315
0.447809
0.293709
0.00883819
0.019875
0.104267
0.130714
0.194692
0.0402143
0.0225029
0.00791135
0.0300157
0.0130688
0.0171778
0.0245549
0.142323
0.0142559
0.00845703
0.00995387
0.269796
0.0294614
0.0316158
3.22271
0.00677538
0.00346944
0.0436077
0.0587656
0.0120003
0.000948857
0.0091489
0.137833
0.0141283
0.483289
0.0253973
1.65444
0.0041796
0.00754502
3.63368
0.00731768
0.00640574
0.00659281
0.3784
0.0159089
0.8814
0.0186597
0.251357
0.722838
0.0214633
0.0134652
0.0112963
0.102346
0.00837127
0.00822587
0.00780985
0.112248
0.00885509
0.00738776
0.00372076
0.0631788
0.0154753
0.117123
0.00590579
0.01004
2.03766
0.552157
0.968863
0.0167513
0.0405451
0.00696502
0.00753741
0.00912343
0.487637
0.00989367
0.0107714
0.041926
0.230089
0.011094
0.0884263
0.180107
0.00336862
0.00337688
0.0152963
0.0428061
0.0175908
0.497557
0.00820388
0.95845
0.204296
0.0253267
0.0350266
0.0379
0.234057
0.0113034
0.0597112
0.0232724
4.69018
1.74614
0.466675
0.0125636
0.000921718
4.42384
0.358189
2.98943
1.73569
0.0268315
0.00700233
0.359212
0.670504
0.0105792
0.00940809
0.00919646
0.97467
0.010281
0.0590241
0.020056
0.758717
0.0236571
0.0291231
0.0306058
0.310964
0.00678967
0.00303872
0.281245
4.20474
0.0151561
0.010921
0.566112
0.815645
0.0115229
0.00953502
0.0207723
0.00799828
0.00963408
0.403466
0.184174
0.027787
0.0678004
0.0129229
0.426163
0.0105533
0.0157368
2.86338
0.0178463
0.00878803
0.00928071
0.00109628
0.0390915
0.00992648
0.0135383
0.405953
0.0301983
0.460021
0.00685446
0.00997057
0.00656788
0.00900227
4.52428
0.0669394
0.0153859
0.0019097
0.825569
4.47735
0.0131046
0.704715
0.0981459
0.0105393
4.78053
0.152812
3.74015
0.00586063
0.463696
0.000753558
0.00931042
0.0171528
4.05594
0.00788364
0.234526
0.0342111
0.805356
0.112723
0.489964
0.151549
0.00859416
0.00779223
0.0201752
0.00527241
0.0157812
1.53046
0.0140956
0.387009
0.145934
0.113666
0.539695
0.0150023
0.468272
6.16204
1.30672
0.0879794
0.0122316
0.0736265
0.319921
0.250258
0.0156109
0.00972892
0.366947
0.0130561
0.105128
0.0103355
0.0131262
0.00993682
0.212544
0.0137181
0.000120509
0.313684
0.0767865
0.0484171
0.0202769
0.264281
0.0076615
0.347061
0.00883787
0.0106218
0.00942021
0.124627
4.5025
0.00688077
0.0261216
0.0156247
0.00577309
0.0390237
0.0291478
0.0196723
1.94401
0.000712584
0.013919
0.0223852
0.0065256
0.00731831
0.00982052
0.0432541
0.00832114
0.387738
0.0147773
0.0181001
0.000785259
0.00653211
0.00833431
0.00683161
0.752197
4.5582
0.0511077
0.168606
0.0594357
0.0233443
0.191368
0.0084446
0.00723918
0.435045
0.00824224
0.0116704
0.307533
0.0304568
0.17276
4.73875
0.0147402
0.0336492
0.196885
0.0131647
0.159964
0.261115
0.260413
1.23126
0.0104626
0.00820718
0.165307
0.00651462
6.16188
0.1045
0.0102671
3.51865
0.00854204
0.0104168
0.177677
0.0429546
0.0102967
0.153136
0.128257
0.0365597
0.399558
0.000486685
0.0123823
3.81548
0.00746955
0.0229503
0.0296781
0.324455
0.031334
0.421948
0.0102632
0.00817061
0.311199
0.00796245
0.00746954
0.391474
0.00863512
0.0144691
0.222498
0.0111406
0.415753
0.0074652
0.0733048
0.175649
0.232331
0.0076457
0.00727165
0.303372
0.00759632
0.0170456
0.212236
0.0229674
0.0391657
0.00390583
4.06059
0.815812
0.138322
0.00860908
0.0599413
0.0212707
1.80386
0.558921
0.0410611
0.207477
0.0363108
1.57948
1.92668
0.0129452
0.0224685
0.0551674
0.032387
0.0453972
0.150434
0.00630237
0.0555962
0.0135288
0.264332
0.113222
0.0104665
0.540479
2.05372
0.0198978
3.16494
0.00227516
0.10523
0.0102614
0.0109424
0.0079397
0.571309
0.359733
0.389378
0.00687869
0.12706
0.134053
4.15384
0.00928486
0.0281496
0.13593
0.186611
0.0234511
0.327388
0.0136935
0.15705
2.34267
0.0158115
0.0598295
0.00806103
0.00683872
0.0444386
0.339352
0.040191
0.336309
0.00779121
0.00741802
1.69957
4.52546
0.205438
0.0115174
0.0479673
0.84418
0.0841
0.0371881
0.0215767
0.00962415
0.36077
0.0185966
0.0110879
0.511003
0.0316705
0.0224301
0.0183023
0.0147434
0.706149
0.0307752
0.00810145
0.183146
0.1482
0.00760366
0.00596477
0.41964
0.0282419
0.000989749
0.0127178
0.131965
0.00640388
0.0133145
0.0164082
0.0210535
0.00774667
0.0119757
0.392907
0.00851329
0.020817
0.0441323
0.0758539
0.00368362
0.0105141
0.0894771
0.0189645
0.0111745
0.0114691
0.0295574
0.0113185
0.0149148
0.452867
4.69814
0.0298688
0.343729
0.014141
0.0105597
0.0107893
0.00302893
0.0154576
0.00601099
0.0889624
0.0274362
0.00897472
0.00883152
0.445554
0.0576559
0.0109821
0.145463
0.018344
0.0106336
0.00381441
0.0358325
0.0590267
0.450912
0.667041
0.868072
0.00389707
0.015548
0.00162341
0.0386211
0.0168497
4.4866
0.0187248
0.0642708
0.00619312
0.24786
0.0312289
3.90225
0.000313267
0.0107846
0.00974725
1.47226
0.192295
0.115845
0.078921
0.0150268
0.0149675
0.00879548
0.606278
0.000670145
0.0103052
0.343725
0.00721587
0.0348165
0.0157195
0.00307114
0.0778524
0.0113259
0.00908912
0.0100466
0.0119861
0.0185167
0.105669
2.92685
0.00706843
0.346477
0.00653396
5.77666
0.00928461
0.0287967
0.00743559
0.00706205
0.522188
0.00884664
0.0187323
0.00849158
0.0366056
0.00631577
0.0312647
0.0316171
0.553883
0.341904
0.0173508
2.69766
0.418066
0.314395
2.75397
0.0149641
0.00980949
0.0109766
0.000251358
0.00958138
0.187425
0.0127502
0.00725719
0.141267
0.0218231
0.0224477
0.136096
0.00784797
0.0214153
0.00967173
0.0161515
0.209338
1.76743
0.0136706
0.277338
0.170686
0.125941
0.0694818
2.20373
4.65124
0.0440558
0.00334057
0.00812695
0.000277748
0.0329435
0.0112948
0.317848
0.180252
0.0273586
0.938976
0.0458551
0.0036436
0.00992631
0.00750796
4.8025
0.0785663
0.00881553
0.227658
0.946638
0.102611
0.37066
1.60455e-05
0.00701078
0.153519
0.000803431
0.19284
0.0559611
3.25654
0.72791
0.00939834
0.752764
0.00482319
0.000743596
0.120657
0.0198355
0.0175928
0.00600803
0.0123806
0.0850819
0.00822141
0.0062893
0.0113211
0.00847943
0.0433384
0.0127826
0.662889
0.405872
0.0203144
0.058425
0.0166369
0.736495
0.0168964
0.0268686
0.0341948
0.114227
0.0243996
0.00102509
0.0318582
4.40818
0.0722318
0.30901
0.0104172
0.152875
0.289809
1.0469
0.0681867
0.326324
0.00931726
0.0316679
3.58159
0.00200493
0.0106468
0.0508582
0.301792
0.220994
0.00695632
0.00757807
0.213988
0.011085
0.10903
0.26006
0.0322738
0.00670073
0.473767
0.129878
0.358737
0.0116678
0.00532835
0.0024046
0.141613
0.33543
0.00863151
0.0114677
0.00710556
0.283866
0.00595371
0.109523
0.255195
0.0138074
0.0105486
0.0481849
0.0135199
0.106745
0.00664683
0.101553
0.0123785
0.00861415
0.292184
0.0267153
0.0287268
0.0141514
0.0771172
0.10578
3.07083
0.00368346
0.0113134
0.0108048
0.34064
0.773591
0.133677
0.00506064
0.193416
0.4072
0.000146527
0.00878533
0.00704753
3.68307
0.012347
0.847625
0.0124106
0.000542676
0.250572
0.00760138
0.042398
0.0506215
0.128058
0.633926
0.524482
4.70329
0.0135047
0.334881
0.313728
0.0331986
0.239434
0.00723608
0.00740075
0.256417
0.00823638
0.0541105
0.0744708
0.0743134
0.00858466
0.00721112
0.326142
0.00869015
0.0101646
0.408341
0.135281
0.598773
0.0248243
0.0567237
2.64218
3.06487
0.357554
0.0986364
0.238335
0.0115055
0.00397536
0.0760269
0.193148
0.0159556
0.0378497
0.0102754
0.248674
0.0145493
0.158348
0.375223
0.000416578
0.0063552
0.0249387
0.31477
0.374642
0.318582
0.103508
0.0368461
0.0339887
0.0566414
0.0531002
0.180754
0.0610144
0.00610966
0.00806132
0.00731257
0.00377199
0.165995
5.59676
0.00438602
0.320863
0.0353532
0.852658
0.0221289
0.00722265
0.0104001
0.168421
0.255397
0.0279377
0.0974973
0.00803914
0.00540649
0.439532
0.0234382
0.648405
0.374145
0.502351
0.00681409
0.0357227
0.441375
0.00918986
0.0280352
0.0215678
0.528112
0.0185514
0.0185151
0.777158
0.339239
0.00820348
0.04629
0.0195713
0.0288158
0.00795025
0.00681677
0.0775663
0.00472226
0.0628388
0.271191
0.608844
0.180548
0.0128494
0.0455418
0.0938498
0.00723699
0.10006
0.0083398
0.00713676
1.53557
0.0118035
0.089091
0.0106472
0.0108801
0.130252
0.0159577
0.0347049
0.0038811
0.20008
0.249655
0.386758
0.00922788
0.440465
0.00772735
0.0396703
0.00971
0.446634
0.264109
0.0338912
1.94246
0.00530845
4.39161
0.0073628
0.115808
0.0261827
0.0109335
0.0174409
0.174144
0.411244
0.00597244
0.0235835
0.322697
0.00518193
0.0287178
0.00895875
0.00290117
0.0110912
3.05077
0.0205593
0.00946854
0.955014
0.0627946
4.73524
0.0034185
0.0298474
0.00704207
0.0112067
0.0328192
0.00636705
1.33885
0.01178
0.111147
0.00508446
0.0521175
0.0801308
0.347944
0.011568
0.0199788
0.0288793
0.0292348
0.00537167
0.0387275
1.48639
0.0343239
0.0834551
0.007985
0.466123
0.484998
0.0469991
0.221201
0.0102394
0.135581
4.00814
4.62972
0.0080292
0.00775462
0.0456474
0.300187
0.0386822
0.0968558
0.0248333
0.076265
0.277634
0.0105864
0.0171933
0.012005
0.0152297
0.022941
0.00907779
0.14192
0.0139095
0.324772
0.0130638
0.00677202
0.00439053
0.0156975
0.0868677
0.00503864
0.738205
0.19639
0.007989
0.0181808
0.109692
3.69774
0.00590894
0.00564099
0.0299255
0.0392258
0.0329246
0.0496656
0.723191
0.00761606
0.0136596
0.116932
0.0075354
0.0259527
0.46904
0.00587649
0.0090784
0.000998373
0.0101577
0.24205
0.060827
0.411328
0.0149745
0.04202
0.023424
1.31417
1.95695
0.0108246
0.0138449
0.966874
0.0117612
0.00805264
0.354988
0.122685
0.00967455
0.0154905
0.00449607
0.083462
0.201229
0.0154351
0.00894967
0.284054
0.307796
0.000518129
0.00594374
0.0154576
0.0353494
0.0476151
0.0988439
0.00849656
1.02576
0.00832798
0.0323152
0.00722173
0.0811658
0.0070545
4.56623
0.26943
0.535632
0.270819
0.476926
0.0375523
0.00721244
0.565755
0.10395
0.00927025
0.0264839
0.00510133
0.037814
0.0081294
0.00745828
0.00710319
0.237027
0.00873483
0.0528871
0.43812
0.00717969
0.055125
0.0405128
4.66353
0.00326408
4.54171
4.0288
0.0094963
0.00680181
0.0503337
0.0361867
0.0455322
0.357246
0.0698596
0.0330528
0.00856369
0.0141717
0.233308
1.67342
0.0134521
0.0318541
0.00917708
0.00551294
0.0205527
0.0571577
0.0145296
0.0113639
0.0102574
0.149135
0.0156959
0.0375822
0.89865
0.00761471
0.0805454
0.0335607
0.0479704
0.0593326
0.0364886
0.115358
0.012981
0.0448143
0.238939
0.00765204
0.100821
0.401233
0.00993269
0.0271545
0.0336495
0.318004
0.00819863
0.162116
0.0207075
0.451474
0.219453
0.172528
0.134205
0.0125317
0.0186087
0.342318
0.342818
0.0231034
0.0261958
0.00637326
4.68718
0.0338125
0.0379137
0.00397363
0.0349494
0.0716727
0.0046311
0.00806613
0.00551713
0.368686
0.280888
0.0158637
0.0370408
0.0189998
0.0071295
0.00709505
0.324883
0.0350625
0.0519146
0.30886
0.113032
0.000422988
0.517409
0.116173
0.69093
0.15353
0.00965796
0.305284
0.529292
0.465047
0.00255002
0.186041
0.0110024
0.333181
0.0240201
0.0151487
0.165803
0.329487
2.58125
0.250858
0.0459328
0.00987585
0.213041
0.224545
0.0227301
0.555502
0.0304975
0.647943
0.0163916
0.25634
0.0264302
0.00836323
0.0071526
0.284431
0.00784829
0.0124007
0.841509
0.0064629
0.106495
0.00412201
0.0154937
0.730222
0.188319
0.0356129
0.0930884
0.435448
0.0339115
0.118267
0.0274405
0.026343
0.0720854
0.013399
0.200159
0.213254
0.00324866
2.45406
0.0250116
0.0707025
0.0250557
0.0317253
0.00704475
0.0599467
0.12768
0.381875
0.00592005
1.55711
0.0163009
0.114307
2.91343
0.0208197
0.0277164
0.489242
0.0176882
0.0108745
0.000163474
0.809393
0.237845
0.00939157
0.351501
0.0406235
0.00712146
0.230177
0.0166576
0.0107112
0.180784
0.0348966
0.00706634
0.0163062
0.00735661
0.0199
0.0365999
0.250093
0.235847
0.0430735
0.0152159
0.0059469
0.196415
2.35715
0.00742691
0.00715598
0.0486915
0.377694
0.00735399
0.134548
0.174831
0.0105212
0.0935797
0.765036
0.0074202
0.0601984
0.0117227
0.029673
0.00720865
0.00883883
0.0270099
0.0678331
0.24232
0.0026724
0.334747
0.00892386
4.10467
0.0167778
0.254896
0.0216191
0.845159
0.135924
0.0117342
0.0218995
0.0311459
0.0229128
0.0176049
0.21747
0.279411
0.0240412
0.0125139
0.0409217
0.0270493
0.0116093
0.00386638
2.96746
0.484823
0.199957
0.386487
0.0314511
0.0103557
0.220958
0.0247641
0.124634
0.00352506
0.0282031
0.0083463
0.0239482
0.00778618
0.0226948
0.0112805
0.0141806
0.969453
0.267659
0.0158363
0.0653333
0.123353
0.243338
0.00891872
0.618236
0.188254
0.487827
0.030343
0.223975
0.00883161
0.0352228
0.0313183
0.0265584
0.0182652
0.326174
0.445153
0.0345273
0.0433773
0.854192
0.049202
0.195617
2.98222
0.0207895
0.00661595
0.0152957
0.040967
0.251055
0.00933119
0.169242
0.188044
0.0233402
0.0102393
0.0245801
0.107096
0.0293097
0.006452
0.0177917
0.00721399
0.0348028
0.12626
0.0355527
0.492414
0.0122679
0.0135413
0.0311726
0.00832949
0.0103361
0.197885
0.208672
0.00910841
0.263333
0.0145842
0.493399
0.0289635
0.0331476
0.00759749
0.00958664
0.261014
0.0193527
0.0203366
0.135021
0.289027
0.0198266
0.0155956
0.0122588
0.0281005
0.333502
0.00348788
0.012026
0.391476
0.0108612
0.0137837
0.0272967
0.323444
0.0102059
0.283994
0.142081
0.00886943
0.0577786
0.0247809
0.00381176
1.86414
0.0392339
0.0143344
5.94789e-05
0.0860383
0.0143008
0.0374959
0.00889083
0.394403
1.8258
0.00826624
0.00637831
0.28654
0.027295
0.0752157
0.309022
0.0175717
0.0946624
2.42166
0.0183174
0.23036
0.0183443
0.0119861
0.0329438
0.00758393
0.22288
0.204009
0.0167107
0.015563
0.463018
0.017231
0.0298116
0.0114327
0.0972481
0.257804
0.0108722
0.00731403
0.0149137
0.0111257
0.0111241
0.000634962
0.00764678
0.035693
1.27937
0.0951245
0.00955768
0.372198
0.0235098
0.241491
2.64141
0.84339
0.41666
0.00963663
3.22719e-06
0.0998046
0.0353549
0.0138201
0.12294
0.00950009
0.0576206
0.212251
0.120758
0.0308703
4.68595
0.0103202
0.452813
0.0075383
0.0053915
0.138564
0.0616948
0.23358
0.013926
0.00517998
0.00660714
0.0308704
0.444033
0.0708618
0.0216046
0.215991
0.0950798
0.204227
0.00976993
1.65493
0.017639
0.0120889
0.0664844
0.0171813
0.0747851
0.435027
0.122985
0.0092481
0.240531
0.912384
0.0184077
0.721975
0.0545763
0.00275303
0.0864206
0.491414
0.02058
0.0076133
0.00708624
0.348958
0.0137543
0.00693129
0.787069
0.115891
0.0167769
2.45495
0.232751
0.0574376
0.0368867
0.265853
0.010877
0.106264
0.00764799
0.0170044
0.00825366
1.39052
0.0227707
0.136814
0.240273
0.0107042
0.099375
0.826459
0.0216451
3.84442
0.00642022
0.0910614
0.0258002
0.00907816
0.0141237
0.015905
0.006017
0.0287482
0.0112718
0.0080453
0.00738833
0.163967
0.119259
0.00730748
0.0813495
0.00725815
0.00738255
0.00707496
0.0154483
0.0111439
0.542421
0.00549771
0.41648
0.210125
0.46653
0.641258
0.0146316
0.0253395
4.67281
0.00740852
0.104728
0.0172386
0.00921286
0.0420707
4.17778
0.0164277
0.0106973
0.00726228
0.0366537
0.0113946
0.425716
0.0602206
0.23321
0.341714
0.00836908
0.00900231
0.0432982
0.0200478
0.0226773