/*--------------------------------*- C++ -*----------------------------------*\
  =========                 |
  \\      /  F ield         | OpenFOAM: The Open Source CFD Toolbox
   \\    /   O peration     | Website:  https://openfoam.org
    \\  /    A nd           | Version:  10
     \\/     M anipulation  |
\*---------------------------------------------------------------------------*/
FoamFile
{
    format      ascii;
    class       volScalarField;
    location    "350";
    object      nut;
}
// * * * * * * * * * * * * * * * * * * * * * * * * * * * * * * * * * * * * * //

dimensions      [0 2 -1 0 0 0 0];

internalField   nonuniform List<scalar> 
10435
(
10.1911
15.8806
24.3758
25.7482
31.5283
29.4396
23.6044
22.3081
21.7742
26.8611
22.318
33.7227
28.5821
2.01637
1.85375
23.6839
2.20511
27.5692
21.4133
14.4528
22.7701
25.501
24.1763
29.183
26.4753
7.68776
4.22091
26.8396
3.57173
26.8276
28.9513
24.6409
22.1037
3.04954
25.0622
3.78364
26.2339
4.55245
14.8713
23.839
27.6227
23.5417
2.78032
20.7504
27.1222
26.716
28.2492
3.41571
20.7857
25.0677
22.7909
31.1044
13.5399
3.78133
12.6519
3.51329
27.985
4.23761
2.43031
26.2618
11.2334
11.3682
3.94361
32.7805
25.4844
24.7611
2.6033
3.58834
22.3874
30.9102
3.91035
5.39381
2.46869
24.3576
1.73817
2.25448
31.8095
23.1166
21.711
1.55856
29.1993
6.46905
12.0159
3.62699
30.693
2.69435
5.207
20.6738
1.8219
8.9548
23.2831
25.8854
10.6724
2.08286
13.4754
2.27017
28.2751
1.83151
2.20957
30.606
1.79176
31.0439
2.99927
17.5119
31.3753
23.2892
14.5211
27.3102
31.7172
1.58935
22.6178
30.2452
3.41663
2.0079
28.7773
23.0519
32.194
4.57736
20.2696
32.0047
33.2372
2.07314
8.01819
1.5639
25.6805
8.87355
30.3678
1.87686
32.185
5.11453
1.70151
23.6208
23.3295
1.65941
4.99507
6.33746
1.83086
28.0696
16.8506
20.5542
17.852
27.6995
2.80077
33.5278
27.7958
1.98044
1.53014
31.5948
2.33704
33.8166
3.82161
28.9288
9.64271
33.0715
29.491
4.7325
27.4896
12.5453
27.9595
18.4463
31.2577
1.80896
25.5252
32.5726
1.73299
33.3184
22.4344
31.7672
33.1334
33.6028
27.7338
2.79491
3.78094
1.86723
33.4894
14.6812
6.88441
2.92992
20.1088
3.54388
19.5122
30.5467
34.046
9.02235
29.4898
3.00047
2.40947
22.7532
32.2082
32.5191
33.7097
10.3034
5.26261
2.97858
29.0351
22.4972
2.38282
1.95593
3.14405
24.8053
1.80042
4.34127
27.6085
4.2169
25.837
28.9972
22.9879
30.1323
3.72435
29.7876
3.81059
23.6741
33.9342
33.3608
4.01736
2.13696
2.07743
5.91548
7.70636
1.98874
3.44471
2.69478
3.12606
1.78296
5.77166
24.0439
10.6278
1.77281
30.3457
2.04261
3.12746
23.1762
8.92978
30.7028
4.85099
2.4183
29.8757
6.30757
31.4971
27.8946
17.8456
6.5742
4.67406
3.58441
27.4167
21.7396
1.7561
22.2894
3.06311
10.0473
3.37246
2.11675
27.2533
31.3969
22.5618
33.1536
2.88822
22.8532
4.55265
4.03687
23.2557
29.0203
7.31995
32.5337
3.28217
2.79212
14.0911
26.1303
8.48727
30.5707
23.7682
22.0128
22.3193
25.5867
6.8961
33.0563
4.8653
30.0442
22.929
21.8635
26.186
2.66588
24.5022
1.79158
3.17714
6.38401
32.4396
12.665
3.46068
3.26936
1.68247
21.2784
3.49192
22.1392
15.5032
3.94389
2.14874
6.01421
28.4328
26.4055
3.40625
32.4314
25.431
3.29909
26.6627
1.96519
2.53791
32.0787
25.1942
3.29148
17.5323
4.66838
5.6934
32.2686
22.8537
3.74194
7.29618
31.8502
3.29291
32.9562
31.1856
3.81672
5.64819
8.76526
21.6731
26.4816
6.41693
26.4012
2.97369
4.53391
24.1119
3.00075
3.13185
24.43
32.6793
3.96331
3.54596
3.21778
2.85101
3.61099
5.97349
5.12666
10.1944
3.81221
3.64687
4.33
3.69516
4.83989
7.4226
21.4127
2.97943
25.5459
4.1101
27.2833
21.4361
20.3468
29.797
24.8208
3.67852
3.27205
3.3331
9.06417
3.50247
7.42946
3.83905
5.59073
3.90148
33.7066
5.53182
21.1814
10.7198
5.36039
30.4518
19.7286
5.24856
4.31157
4.15865
4.52381
3.43339
6.80254
5.19011
11.0247
21.8305
3.42196
22.1472
21.149
28.1425
29.0274
20.8304
26.1811
23.8615
1.8493
3.26932
3.54892
3.74211
25.3466
3.57135
29.7181
5.14516
3.69117
5.1719
3.24379
5.7362
23.0998
4.39796
22.0073
32.9037
3.78237
6.31371
5.02137
20.0395
5.27822
5.90496
5.55087
3.49351
3.71395
3.69531
25.4107
3.88683
5.91829
3.6298
2.68815
30.1154
3.67117
5.12477
18.9723
3.11539
162.249
155.193
145.288
134.909
124.074
112.418
100.067
87.6486
75.9055
181.529
175.687
166.688
156.561
145.713
134.106
121.915
109.739
98.6109
197.948
192.999
184.878
175.23
164.661
153.314
141.436
129.596
118.788
210.889
206.686
199.449
190.512
180.484
169.606
158.171
146.724
136.211
219.442
215.896
209.556
201.495
192.214
181.982
171.12
160.186
150.233
222.587
219.625
214.153
207.029
198.608
189.149
178.987
168.722
159.562
219.522
217.056
212.338
206.084
198.521
189.886
180.521
171.063
162.802
210.1
207.975
203.802
198.227
191.402
183.545
175.001
166.429
159.114
195.156
193.115
189.2
184.037
177.748
170.538
162.747
155.041
148.741
176.389
174.119
170.182
165.185
159.238
152.52
145.343
138.35
132.891
155.761
153.046
148.954
144.022
138.334
132.018
125.339
118.855
113.761
134.774
131.733
127.651
122.905
117.546
111.658
105.462
99.415
94.4809
114.041
111.521
107.921
103.637
98.7622
93.3928
87.7393
82.1796
77.4502
95.0238
93.6204
90.8843
87.2586
82.9618
78.1618
73.0903
68.0781
63.6833
79.4948
79.045
77.0959
74.0681
70.2914
66.0072
61.474
56.9992
53.0527
68.1414
68.0042
66.4359
63.7562
60.3258
56.4224
52.3157
48.2886
44.7156
60.2233
59.8305
58.24
55.6444
52.3717
48.7004
44.8951
41.216
37.9665
54.179
53.4159
51.6212
48.9581
45.7206
42.176
38.5754
35.1592
32.2
48.7861
47.7783
45.7961
43.0449
39.8112
36.3556
32.9135
29.6999
26.9451
43.4464
42.3446
40.2719
37.4934
34.3025
30.9592
27.6846
24.6651
22.0738
38.0074
36.9205
34.8623
32.1448
29.0706
25.9006
22.8426
20.0584
17.6882
32.5744
31.5679
29.607
27.0328
24.155
21.2319
18.4534
15.953
13.8335
27.3836
26.4833
24.6671
22.2962
19.6823
17.0733
14.6332
12.4633
10.631
22.725
21.8952
20.2249
18.0914
15.7871
13.5411
11.4801
9.66795
8.144
18.9111
17.997
16.4312
14.5504
12.5723
10.7098
9.04178
7.58449
6.36696
1.43305
1.39567
1.37347
1.37125
1.39461
1.44888
1.53856
1.66692
1.83636
2.04886
2.30663
2.61238
2.96926
3.38101
3.8512
4.38308
4.97864
5.63783
6.35811
7.1341
7.95754
8.8177
9.70125
10.5929
11.4763
12.3367
13.173
13.9876
14.7769
15.5366
16.2715
16.9863
17.6843
18.3713
19.0632
19.7782
20.5383
21.3722
22.3202
23.4385
24.8042
26.5202
28.7172
31.5523
35.1985
39.8219
45.55
52.4398
60.4493
69.4378
79.1778
89.3867
99.7608
109.99
119.785
128.875
137.023
144.015
149.722
1.38527
1.35015
1.33023
1.33043
1.35587
1.41111
1.49959
1.62372
1.78538
1.98648
2.22942
2.51728
2.85388
3.24352
3.69092
4.20053
4.77556
5.41668
6.12063
6.88148
7.6918
8.54302
9.42338
10.3189
11.2152
12.0991
12.9617
13.7985
14.6081
15.3932
16.1595
16.9138
17.6642
18.4226
19.2058
20.035
20.937
21.9458
23.1049
24.4693
26.1057
28.0932
30.521
33.484
37.0756
41.3787
46.4557
52.339
59.0239
66.4649
74.5735
83.2163
92.2125
101.339
110.347
118.981
126.986
134.113
140.165
1.33461
1.30449
1.28963
1.29449
1.32341
1.37997
1.46679
1.58575
1.7385
1.92694
2.15359
2.42172
2.73521
3.09863
3.51686
3.99456
4.53544
5.14145
5.81184
6.54284
7.32786
8.15787
9.02151
9.90575
10.797
11.6831
12.5551
13.4082
14.2416
15.0587
15.8671
16.6774
17.504
18.3654
19.2852
20.2922
21.4202
22.7071
24.1944
25.924
27.935
30.2604
32.9257
35.9495
39.3493
43.1472
47.3767
52.0832
57.3195
63.1337
69.5532
76.5679
84.1126
92.0555
100.198
108.287
116.034
123.142
129.355
1.2807
1.25551
1.24459
1.25187
1.28128
1.33616
1.41907
1.53191
1.67635
1.85422
2.06788
2.32036
2.61523
2.9568
3.34965
3.79819
4.30617
4.87587
5.50744
6.19849
6.94392
7.73606
8.56504
9.4195
10.2876
11.1589
12.0252
12.8822
13.7302
14.5744
15.4252
16.2985
17.2154
18.2028
19.2928
20.5218
21.9273
23.544
25.3976
27.4988
29.8388
32.3895
35.1111
37.9649
40.9294
44.0143
47.2674
50.7748
54.6528
59.0313
64.0201
69.6986
76.0833
83.1021
90.5798
98.2449
105.758
112.757
118.926
1.20872
1.18802
1.18085
1.19051
1.22038
1.27366
1.35298
1.46044
1.59789
1.76723
1.97066
2.2109
2.49115
2.815
3.18647
3.60934
4.08688
4.62121
5.21285
5.86028
6.55973
7.30516
8.08865
8.90099
9.73263
10.5751
11.4222
12.2713
13.1244
13.9895
14.8807
15.8193
16.8338
17.959
19.234
20.6986
22.386
24.3148
26.4797
28.8458
31.3498
33.9115
36.4509
38.9099
41.2681
43.5528
45.8391
48.2449
50.9215
54.0405
57.7743
62.2694
67.6123
73.7897
80.657
87.9323
95.2277
102.111
108.2
1.1123
1.09515
1.09117
1.10307
1.13375
1.1861
1.26262
1.36549
1.49664
1.65798
1.85161
2.07997
2.34585
2.6523
3.00242
3.39943
3.84608
4.34419
4.89435
5.49557
6.1451
6.8384
7.56943
8.33119
9.11646
9.9191
10.735
11.5638
12.4101
13.2846
14.2058
15.2004
16.3029
17.5538
18.9945
20.6603
22.5696
24.7129
27.0451
29.4859
31.9315
34.276
36.4342
38.3603
40.0564
41.5731
43.004
44.4785
46.1562
48.2203
50.8657
54.2792
58.6032
63.8876
70.0407
76.8055
83.7806
90.491
96.5023
0.990381
0.975166
0.97297
0.986149
1.01712
1.06826
1.14183
1.23974
1.3638
1.51579
1.69761
1.91145
2.15972
2.44509
2.77029
3.1379
3.55008
4.00854
4.51392
5.06561
5.66166
6.29882
6.97276
7.67839
8.41063
9.1656
9.94142
10.7399
11.5682
12.4403
13.3785
14.414
15.5851
16.9329
18.4937
20.2887
22.3113
24.5181
26.8271
29.127
31.3
33.2453
34.8993
36.2446
37.3093
38.1608
38.8974
39.6435
40.5472
41.7802
43.5338
46.006
49.3724
53.7354
59.0671
65.1673
71.6677
78.0952
83.9889
0.841848
0.826374
0.823042
0.834444
0.862708
0.909807
0.977453
1.06716
1.18048
1.31884
1.48385
1.67738
1.9016
2.15897
2.45215
2.78372
3.15593
3.57003
4.02635
4.52448
5.06328
5.64079
6.25437
6.90078
7.57684
8.28085
9.01275
9.77634
10.5808
11.4435
12.3906
13.4561
14.6782
16.0898
17.7102
19.5373
21.5333
23.6213
25.6962
27.6416
29.3551
30.7654
31.843
32.6017
33.0898
33.3798
33.5654
33.755
34.0761
34.6792
35.7399
37.4519
40.0056
43.5427
48.0938
53.522
59.5111
65.6153
71.3696
0.661074
0.642279
0.63418
0.639235
0.659951
0.69789
0.75403
0.829196
0.92486
1.04261
1.18288
1.34723
1.53759
1.75672
2.00823
2.29537
2.62227
2.98995
3.39552
3.83768
4.31691
4.8335
5.38687
5.9766
6.60229
7.26462
7.96414
8.70592
9.50132
10.3715
11.3487
12.4672
13.7541
15.2156
16.8328
18.5789
20.389
22.1401
23.7378
25.102
26.1734
26.9197
27.3428
27.4847
27.4032
27.1675
26.8616
26.5813
26.4274
26.5079
26.9715
28.0134
29.8496
32.6699
36.5764
41.5201
47.2243
53.2422
59.0512
4.37171
4.37566
4.44313
4.5383
4.63852
4.7258
4.78437
4.80545
4.78648
4.72816
4.63378
4.50031
4.32706
4.12214
3.89399
3.65233
3.40489
3.15589
2.90793
2.66327
2.42463
2.19519
1.97642
1.76498
1.55242
4.0942
4.21709
4.33117
4.44547
4.55364
4.64415
4.70574
4.73122
4.71773
4.66489
4.57179
4.43577
4.25726
4.04334
3.8059
3.55696
3.30524
3.05576
2.81107
2.57245
2.34123
2.11923
1.90791
1.70631
1.50793
3.89815
4.02368
4.14722
4.2681
4.38006
4.47352
4.53909
4.57022
4.56355
4.51717
4.42886
4.29663
4.12176
3.91079
3.67444
3.42425
3.17022
2.91909
2.67491
2.4401
2.21647
2.00558
1.80826
1.62325
1.44454
3.70496
3.80896
3.92217
4.03771
4.14714
4.24064
4.30908
4.34566
4.34603
4.30706
4.22593
4.10097
3.93371
3.73002
3.49943
3.25242
2.99983
2.74988
2.50866
2.2804
2.06793
1.8728
1.69476
1.53158
1.37524
3.50952
3.58486
3.67746
3.77905
3.87994
3.96954
4.0382
4.07833
4.08449
4.05253
3.9792
3.86282
3.70477
3.51025
3.28776
3.04691
2.79916
2.55407
2.31969
2.10193
1.90431
1.7277
1.57002
1.42708
1.2899
3.31286
3.35731
3.4247
3.50744
3.59541
3.67736
3.74291
3.78366
3.79321
3.76667
3.7004
3.5926
3.44428
3.25991
3.0471
2.81492
2.57524
2.33883
2.11522
1.91132
1.73058
1.57279
1.43399
1.3075
1.18456
3.11554
3.12927
3.17052
3.23265
3.3053
3.37674
3.43604
3.47422
3.48424
3.46069
3.39973
3.29941
3.1604
2.98647
2.7844
2.56298
2.33429
2.11001
1.90052
1.71293
1.54974
1.40931
1.28654
1.17182
1.05795
2.91667
2.90251
2.91944
2.96141
3.01791
3.07702
3.12749
3.16017
3.16772
3.14432
3.08613
2.99124
2.8602
2.69617
2.50527
2.29614
2.08084
1.87149
1.67862
1.50878
1.36297
1.23804
1.12793
1.02031
0.909782
2.71968
2.68119
2.6762
2.69936
2.73997
2.78609
2.82618
2.85129
2.85421
2.82831
2.76997
2.67751
2.55188
2.39592
2.21525
2.01881
1.81807
1.6253
1.45049
1.29901
1.17009
1.05913
0.95763
0.851711
0.736329
31.0489
31.0067
0.315916
8.59196
0.851267
1.03894
2.27597
4.01488
0.293452
23.5335
0.231706
3.47968
17.0539
3.3574
5.56887
0.885897
0.182512
8.3508
41.2058
0.225615
17.5461
4.46863
0.187656
4.13296
4.80583
2.4104
4.70803
0.639382
29.6137
0.140037
113.704
2.65238
3.29837
20.9382
0.153122
1.25838
11.1799
5.31286
15.6589
6.43001
0.145884
0.0573657
3.68958
1.34843
3.30001
16.5438
0.189111
0.138446
18.3473
22.1052
0.189682
0.340556
20.9002
8.252
2.45593
0.30109
4.2411
20.7373
2.64407
6.82172
0.571574
0.331887
0.896763
2.97798
3.9138
1.84778
33.9588
3.14306
16.4429
23.2732
0.30507
6.19037
2.27006
0.366375
4.97046
18.4265
1.82463
0.179541
2.33754
7.95132
20.5093
0.828006
3.21524
0.178096
0.680674
0.646931
2.67813
0.176898
2.26906
17.3313
3.80285
42.4056
3.32417
3.43184
1.75341
0.240919
2.3367
0.19214
0.222649
8.06348
0.820211
0.141798
0.829874
7.83325
2.95041
2.24872
0.182956
20.3104
0.715427
0.135668
4.21167
3.36279
0.13137
7.55211
21.4412
19.2499
2.84469
7.2204
21.0819
3.09914
0.0859567
3.84006
4.23888
4.75427
1.66099
3.63712
0.164806
1.13887
14.5738
0.142767
3.30757
0.464677
21.7933
21.1407
1.17236
2.63561
3.09146
0.745863
0.573927
0.162795
4.96677
12.862
3.29923
0.0863692
25.6038
0.987291
8.45752
12.2524
0.822549
0.150343
2.42931
16.3469
8.63718
9.67246
6.07236
0.177449
3.13722
5.50565
4.21617
3.78744
3.62399
0.294012
2.87379
0.193331
2.48393
0.181615
5.07899
4.6153
1.67814
2.92305
2.97891
3.36884
2.57455
0.179678
82.6652
1.59143
18.0773
26.2227
15.913
5.02255
19.5175
2.35588
21.2376
17.2101
2.38554
1.3326
0.183122
0.686205
14.6777
0.700577
0.110426
4.75031
11.8452
12.1996
6.0426
9.84589
5.19572
4.31362
22.5826
34.0534
15.5637
3.97574
0.751368
0.540966
4.01001
5.1504
31.6032
0.722894
17.8586
6.02153
2.98649
2.97562
20.5448
4.14477
2.71718
0.188904
1.79416
7.39131
9.52119
14.8004
0.579688
0.0875307
6.02758
0.393376
5.80815
0.495177
8.41974
0.197701
0.600008
1.95489
0.175849
1.24223
1.85141
2.7155
14.4303
12.2147
8.8511
0.555458
16.6866
5.76945
134.008
0.592889
2.58507
1.4793
2.45352
3.05571
3.05927
4.08833
0.971439
3.17327
0.452962
1.77857
34.588
19.866
1.03403
4.24866
0.137636
2.5433
5.49358
49.1157
1.81522
18.134
1.66879
5.96405
0.627218
4.59686
3.78601
8.22756
2.09929
4.56215
15.9756
12.6662
0.288802
6.89465
22.8872
7.86161
23.0521
0.276176
6.66595
0.143937
2.26924
2.41271
3.81001
15.5049
16.2065
0.464551
2.14842
6.37985
0.252986
0.11369
2.25524
2.921
0.0889895
0.232607
21.1746
0.178428
0.122753
57.8511
3.72599
17.5036
0.85578
3.52281
3.60871
0.506888
0.0922425
2.94914
17.6059
100.828
0.166758
0.726037
6.62829
10.6816
7.85803
11.4683
0.250019
13.7978
0.188552
24.9995
4.71424
26.4593
4.35462
2.9017
3.5894
102.348
2.49338
4.43467
4.99645
20.4663
66.479
19.5488
2.52994
5.72597
0.724499
17.8014
0.160734
0.69865
3.01703
2.91883
0.165672
2.22445
2.77597
3.49067
16.5831
15.0897
0.842861
1.84834
0.896635
0.648156
2.72532
0.183864
6.35139
3.28845
0.134558
6.06652
0.238796
5.77965
29.8825
1.09368
2.65295
0.184825
18.3149
0.197229
3.94324
1.46476
0.0665691
2.8962
1.63959
0.188295
2.03665
17.8405
13.0051
10.8613
30.8079
0.297365
17.4592
4.30768
4.51099
2.51181
4.39329
15.6528
0.111404
2.74504
2.23643
1.48958
1.21547
25.2526
2.44682
0.244704
0.265887
0.109587
2.30686
4.5741
9.1652
2.4737
19.1435
36.9604
2.86792
4.11154
4.88545
29.1606
3.98452
3.6251
0.710716
30.8686
3.48406
0.105921
3.32652
7.37301
8.15366
120.741
10.5592
1.7827
17.935
0.635527
2.7538
6.19513
16.0621
0.184299
3.6773
38.9772
2.46808
4.05261
12.8091
0.753921
1.9581
0.123008
0.112573
4.13534
131.504
3.01083
0.624231
4.03283
19.4411
2.13297
1.99734
1.56279
4.32701
0.0740407
0.690542
4.24266
3.72209
6.2447
0.248641
0.864918
16.612
1.57734
0.564202
4.30763
2.87301
2.64415
0.293403
3.58586
2.78246
17.5936
14.0917
25.1523
0.184657
0.584283
3.38714
2.77773
3.05822
2.51363
12.5129
20.9919
0.116376
3.44909
2.62245
0.359577
3.77395
0.267557
5.23446
3.20467
0.188823
4.45785
4.62952
19.9025
27.7788
3.37212
12.6995
14.3863
2.44779
14.0316
0.0917086
3.52755
0.177546
0.95624
0.690548
6.4533
24.8198
5.22634
7.33374
2.27157
4.72805
3.38195
2.17406
2.05912
7.35464
0.482943
3.4527
19.5471
3.70165
2.12828
1.16021
1.13137
18.3375
21.5629
0.543872
0.815981
3.02551
2.79646
3.18847
21.0928
76.9864
28.8204
1.11853
0.190799
0.0957179
15.2552
4.44738
3.73434
8.07956
0.116058
0.213222
8.42296
20.7156
9.51913
0.115947
0.126739
5.26728
3.63861
1.42848
6.16867
6.46795
0.786727
2.94939
1.62094
3.53625
16.3528
20.9049
2.16415
25.8583
0.139721
4.17649
0.188212
0.148415
0.483722
2.71233
0.772118
0.527917
0.277131
11.8147
11.9859
15.0141
19.4606
15.6722
0.187793
5.97495
8.0365
18.8963
16.444
130.75
20.0805
3.63493
18.8653
0.144725
37.1606
3.36666
2.54537
2.91915
1.3792
5.76663
9.33376
8.11524
2.3603
0.987485
0.124268
0.183323
16.4202
0.551558
1.25072
0.137489
22.0369
3.64266
6.80175
3.83049
4.21016
3.8278
1.02206
26.5193
3.7308
1.64171
0.917415
3.11717
12.4162
8.76161
2.43282
20.1575
15.0555
0.929285
2.7368
15.9021
0.613434
0.102666
3.95393
1.62506
0.962992
0.489986
55.7613
6.11215
3.74152
3.7242
14.1316
3.22764
1.57363
1.77721
18.8726
7.5075
0.959543
0.583384
3.51849
3.81835
2.85525
17.3088
10.1774
3.30686
10.2833
0.180579
0.611771
5.40203
2.89691
4.43809
3.41648
0.432039
1.03643
2.81816
17.0763
7.97383
5.85661
19.6865
12.2571
3.24937
1.89183
1.71875
4.03859
0.956559
5.39889
2.70296
1.20685
11.4408
11.4392
6.80481
0.707605
23.3932
0.11711
9.97359
64.1678
0.182878
47.4989
16.1486
3.78454
16.0251
7.45303
0.197798
0.0603584
3.41792
3.93984
0.10801
3.67478
1.55561
21.705
3.22891
15.1221
0.749137
2.33154
0.0698968
2.73536
18.4339
1.63547
15.2932
14.2793
0.273383
19.3273
3.74276
2.90563
3.67921
1.67267
2.46035
25.3428
0.179335
2.96226
3.7733
3.66808
0.266277
3.63186
10.0447
3.15797
2.29579
27.1293
0.51423
3.21085
2.66233
3.27035
1.20003
6.9312
6.93609
0.434763
8.43058
3.43603
0.139073
4.04271
23.8686
0.160657
25.1381
3.16562
3.62641
0.130583
2.18828
2.08194
0.758083
1.97681
18.4743
16.1131
139.958
2.22522
3.33156
109.266
3.76208
4.56798
21.023
0.124295
14.8984
16.3322
1.51622
26.694
15.6071
0.139334
0.248954
7.06627
7.15492
0.800602
0.0277586
3.82106
2.75073
19.3908
31.8763
12.7561
2.0963
1.01673
7.81715
3.85502
1.33421
0.183499
0.782232
3.14838
1.55151
14.0906
19.8524
15.2287
0.0393909
3.29955
2.59415
0.112405
30.1899
9.60321
0.182611
11.3271
4.03855
11.4277
1.55
0.145903
1.73235
1.48451
0.778391
3.97233
3.52836
1.1007
0.710579
2.69563
3.63803
1.92218
1.40208
4.5972
1.30872
4.27506
3.94552
4.79544
3.09782
0.173494
0.909085
17.4813
11.0347
15.5912
2.94843
0.148219
6.30258
0.183944
1.0111
9.95044
0.521726
13.8633
19.5333
15.1276
1.01486
18.8227
7.21534
15.9053
0.199232
0.176509
4.03961
3.59611
10.017
0.314843
1.7681
0.853133
21.0851
3.60305
0.477191
6.86454
5.61718
1.64609
0.274705
31.1956
30.2619
2.63134
4.46817
0.341826
14.5212
10.7861
3.3126
3.98203
1.83323
10.5903
4.14091
1.529
30.3099
14.8725
2.74702
3.84899
10.6311
16.9599
2.55481
15.3219
5.40136
5.53794
19.1575
5.77352
15.1385
3.63882
2.21472
16.6296
0.166581
5.1812
4.46909
2.69525
7.22408
0.164421
0.397663
1.91883
17.4344
4.85576
0.0333119
4.08614
1.2942
0.175192
5.01098
0.168483
1.12238
0.08268
12.4378
0.870457
8.0411
4.61007
12.9092
1.19965
0.750597
0.183252
10.2619
6.85333
10.1844
15.2066
2.68703
1.90868
1.3309
1.46968
0.580597
15.7254
15.1952
0.808173
6.81563
5.84088
8.75016
8.666
0.498254
11.5406
29.9514
26.4002
10.37
2.40947
0.136011
0.174234
21.7557
17.3774
24.0134
9.49821
1.19526
2.86886
15.2622
28.8598
5.55219
13.4674
6.86941
1.17637
3.36475
29.6734
0.0629448
1.37638
8.64697
17.9608
23.2629
16.1209
21.855
5.88073
0.647652
4.02139
8.71205
31.2758
21.2734
3.78967
0.483694
0.797283
0.854142
14.2438
0.264056
0.845958
17.3262
15.8672
10.1219
15.1366
1.67955
4.11498
0.633707
16.1115
0.603889
15.8157
2.55427
0.767445
2.43139
141.755
28.7462
21.7455
0.399986
3.03239
4.20436
2.10943
0.693658
2.78809
0.759423
0.391343
22.8926
0.726443
10.7954
3.42517
2.6258
5.93939
103.378
5.85721
2.32141
0.704361
17.3372
1.10953
1.85844
16.8978
0.204656
0.787486
3.03932
1.87428
2.72761
5.65007
26.29
0.939424
0.655233
0.116632
0.968849
1.40414
11.3918
4.40831
18.3246
10.4546
5.02911
0.391809
1.75728
1.58722
2.38372
5.88451
8.90607
2.62696
2.45502
1.0362
15.1383
17.3048
3.05223
0.142043
4.39533
0.184372
1.44329
21.896
1.27558
3.95864
17.3906
3.45406
4.63154
2.42017
7.02498
0.973197
4.6715
17.0628
5.67962
0.32312
2.23661
0.148062
1.66265
2.28439
14.8276
1.43701
0.183217
0.601956
11.2648
1.34841
5.92797
2.66614
1.11118
0.0997885
5.9432
1.22763
4.66506
6.34979
2.57706
17.2961
2.75155
5.60069
26.9052
2.38008
4.1583
5.19142
0.112347
8.32178
14.7896
2.43161
2.40473
0.491797
1.26257
3.21175
0.746581
29.0223
0.204678
0.183449
0.799413
0.778753
1.96963
15.9572
5.67546
0.566281
7.24694
1.2174
14.2441
2.1297
6.35242
0.90613
13.1463
110.528
6.4332
31.4094
19.2389
8.46403
6.04552
1.97863
1.32274
18.1095
18.903
4.8853
0.179097
18.3441
0.813764
1.97527
22.7366
0.1856
3.99003
3.87071
6.36907
5.28376
7.77664
1.77129
0.398378
2.38718
7.33358
20.357
1.20569
3.91782
3.0485
3.80822
2.86117
0.138176
0.98032
18.1864
1.52593
8.47877
5.73106
1.40196
147.695
0.0934771
0.126133
2.67152
9.88336
2.55925
4.86564
2.30522
26.6898
30.3581
4.39991
8.31487
6.17277
1.17009
31.4744
3.31793
6.9765
29.2204
16.9844
0.132227
2.25174
3.05461
14.8129
1.22795
20.5912
2.24466
14.1055
0.628384
12.7632
1.3437
18.0043
1.13054
0.248902
14.4823
0.348297
28.5315
23.302
9.28848
2.92033
0.195088
18.0252
3.52332
4.67444
0.988412
1.56935
3.49128
1.71884
3.87985
4.06139
4.282
1.1623
2.57644
0.673692
2.05918
1.91741
0.184164
0.380863
0.249672
0.203324
0.75736
0.743206
2.86124
2.88189
4.48492
10.887
0.954354
10.7978
5.34974
7.90363
14.1003
0.112148
0.89328
18.0667
3.79757
4.23415
0.916837
0.922041
11.9349
0.659116
7.42603
19.528
2.7794
2.11659
0.27901
1.00311
3.06353
2.72454
5.24083
1.66691
5.06546
20.9849
3.08869
5.46215
15.9749
0.822766
2.75579
4.73119
2.7474
0.823911
12.8381
8.90107
2.74735
19.1959
4.77208
2.83814
25.8599
0.983409
21.5709
4.36914
0.687822
1.27154
9.97209
1.68935
5.73005
4.91036
0.229698
15.1775
2.01418
6.50497
8.71044
3.00504
5.23775
2.36267
4.3171
15.6933
1.02659
31.3013
12.6427
91.1226
3.7482
0.811421
24.7235
12.0566
6.37173
10.3213
7.14405
0.0793361
6.69284
31.4252
0.181055
29.3667
8.37053
21.862
2.3122
11.7915
0.418674
15.1618
2.90431
0.283635
6.57294
11.7483
18.4106
7.89456
0.14037
21.6503
1.13289
3.51138
1.83972
18.1964
5.66311
1.00105
5.20404
0.191609
4.9671
15.9128
3.72127
2.95834
1.05765
0.47944
4.94663
8.47892
0.134988
3.68423
19.7132
1.21815
3.05302
30.6351
1.51181
20.1444
20.0538
5.14515
4.88863
17.4313
6.08301
12.5842
1.58862
2.82414
30.2071
18.1534
6.42786
0.152349
15.5467
17.3458
5.9269
8.84746
0.890514
18.6445
3.00478
12.6407
0.741058
0.114338
3.28171
17.6295
0.164833
2.65659
5.5235
23.9991
3.81111
3.13237
0.0130514
9.48918
16.248
0.603605
3.48279
2.04676
0.887416
12.679
4.01358
3.19613
17.6169
12.2732
3.306
5.39596
4.15402
3.5602
15.8037
26.0834
16.5359
10.327
6.09307
1.70088
18.9647
0.135344
1.40367
21.9678
1.5792
0.825147
24.2876
11.8755
16.3544
3.92885
17.7044
0.0828339
1.93661
12.2891
4.12542
6.35474
1.40396
3.16982
1.86682
1.0123
16.9195
0.179256
3.77852
6.12667
0.208795
2.86442
12.6896
2.77861
0.139653
20.1645
0.819048
9.7928
3.05533
5.108
1.54286
15.5465
16.7388
5.96069
2.51873
1.8021
6.11153
3.25993
0.893508
0.182594
11.0577
1.98245
0.653796
7.5306
3.63707
20.4183
4.14907
22.2765
0.414893
0.919192
3.08202
44.1937
0.933867
62.923
0.557963
6.04201
0.0812169
15.9409
7.22
2.50983
13.7911
0.299576
2.31858
0.207711
31.9059
6.91006
5.25054
1.52308
3.02223
10.5803
4.328
0.920784
59.0622
25.0702
0.673401
10.9556
0.933324
0.137959
1.68577
20.1904
0.138489
56.7407
5.97399
7.31222
1.24475
21.8845
4.29514
17.7104
2.01811
2.76822
0.509732
3.65502
1.58177
3.76245
1.15686
2.66105
1.24714
11.5748
18.1825
13.8861
0.336943
0.783465
3.25297
4.09478
0.547631
2.75833
0.601369
19.3579
2.01159
16.1445
17.721
8.02267
5.52814
5.70696
2.21556
3.28495
16.045
12.8176
3.39448
4.02256
23.1676
115.173
7.54665
4.95412
6.25584
1.87448
0.67212
2.86205
0.543416
0.551269
13.7128
5.64766
8.02293
0.468932
15.84
27.119
7.06918
1.97611
5.51486
0.471076
0.126106
4.78231
18.8395
0.0226069
19.6284
0.839078
5.29908
5.97684
5.08356
0.16225
0.866528
2.51862
17.3466
10.8969
7.0762
20.2096
3.64282
2.68139
0.13841
73.464
21.4931
2.55067
1.20178
8.20249
1.64331
4.19699
15.4996
3.33977
11.2704
9.8866
4.15557
3.33063
3.75371
1.05938
14.0631
3.81089
1.05623
10.4319
2.87668
3.61762
0.084522
0.737767
11.5443
0.140131
19.3905
0.662827
20.6683
1.68218
10.4016
0.14333
0.15129
16.2758
6.26122
2.8814e-05
18.3812
9.75389
2.83373
17.8837
1.14469
1.99204
16.8266
20.4257
4.78644
0.180515
3.20722
14.3198
0.952625
3.89645
3.67184
1.30578
11.5933
3.34326
4.2013
5.4687
6.45105
6.72435
4.47298
2.5875
29.037
1.8839
18.2385
2.08391
0.112052
3.88744
5.20182
1.5599
4.19385
17.9263
13.1891
15.3996
2.78499
30.2153
14.046
5.57722
0.173794
2.46481
0.542651
14.955
12.636
117.927
1.66738
1.01921
4.19401
3.50159
4.95257
12.3536
16.6407
0.727168
0.150994
21.2058
3.73335
0.887189
2.7202
0.591243
14.7123
2.01091
2.48797
2.36069
0.114708
1.14792
10.7435
16.7048
4.97037
2.11138
0.282546
2.65545
0.193917
3.58145
14.3871
3.03504
4.32193
0.866375
10.7838
2.31967
20.8326
4.20109
0.808973
4.32838
25.2892
16.0819
0.614601
14.3614
1.13014
0.878547
1.90122
2.90978
1.02877
4.40606
4.95844
24.8244
19.7287
3.26351
1.20553
5.42381
5.6902
0.253607
3.51756
1.23258
4.02895
4.19297
7.50757
0.182158
5.33536
4.31686
1.15624
1.3863
0.897047
2.79835
3.606
17.9267
28.0804
2.26271
3.19977
7.39564
77.9658
1.02587
3.5599
0.644171
3.20908
105.298
5.62774
4.82378
2.65231
16.877
21.6815
0.492754
11.1911
3.12558
8.47541
15.3073
3.00823
2.4321
1.01876
3.81336
4.11149
0.564151
18.0908
2.7143
2.36771
2.96289
3.37379
3.18051
17.5849
3.12747
3.51653
0.659028
39.8383
15.7075
3.8528
8.90637
6.87268
0.6868
2.51529
1.22086
15.8054
2.8349
1.23623
0.0757283
15.3318
1.24849
7.96848
3.34628
12.1534
0.0938495
0.1547
3.1174
0.778941
4.33299
16.1098
0.123244
15.3219
4.98275
0.295093
2.65561
1.76617
14.4666
3.79713
16.5677
2.09689
6.08202
5.15312
5.70325
7.42746
5.46611
2.64749
4.03675
29.3094
40.0291
3.46533
1.06393
12.8519
4.50319
1.59018
18.833
2.85667
3.10504
3.78616
2.90015
113.269
7.02433
4.02281
0.888972
16.1524
4.6726
1.48029
5.52862
4.4721
1.98483
4.11994
3.78489
0.241904
0.764151
11.6219
0.156992
6.2186
0.0109765
4.11182
3.01793
0.124512
4.30326
2.34936
5.46307
18.1175
14.485
0.893668
3.47701
7.68477
13.3647
4.13043
16.0726
4.47945
11.5624
0.00917079
26.7033
7.75164
21.6274
2.76717
14.3687
1.25809
14.1853
0.183642
0.166383
21.4727
0.797944
4.56408
4.90885
1.78595
14.7479
4.30479
2.86888
8.74686
0.179339
30.9533
8.36568
0.0898897
2.61623
2.70927
1.02476
3.24365
3.92845
3.44769
3.22843
30.8408
8.53985
5.73704
5.10956
26.3304
3.89557
7.12692
0.150575
2.98754
3.5883
11.2126
12.1842
3.55721
2.70852
5.87234
4.50623
1.17519
2.95971
3.62546
1.93384
0.508833
0.825026
5.40553
4.5858
4.21614
4.79916
13.844
18.1305
3.25469
21.5989
0.842594
1.36326
16.1511
4.56674
8.33545
4.42202
4.69253
1.52346
3.80664
16.3954
33.433
3.79645
3.70087
2.44578
13.2452
1.0212
3.26863
1.26883
1.68897
9.09314
12.7268
19.3641
0.584217
18.2959
12.6757
0.0442138
8.25244
19.8004
13.5573
3.39739
1.24045
3.79006
1.97807
0.765936
4.25047
11.3759
0.279941
6.20728
15.7197
5.62063
0.0229505
3.98148
4.46533
3.26917
1.64637
0.181455
4.67865
0.180553
9.40068
0.176236
4.77539
3.09456
2.44652
18.5833
29.9886
3.90963
16.0476
4.51133
4.26715
2.76749
0.18494
12.6554
0.477927
6.54831
5.6902
4.47727
3.71923
3.02188
6.92204
0.828102
5.5354
0.189531
4.14153
11.7267
10.7247
2.92684
10.6536
16.9356
0.00560047
1.02952
3.91983
4.44954
0.580598
1.18082
9.48444
1.0658
0.85887
4.15365
4.53856
7.50311
9.56494
4.21815
4.11202
14.2823
1.03569
13.2591
4.60341
16.6307
14.0599
4.66003
0.655354
3.65958
1.08623
2.59014
20.0896
2.52974
134.544
5.14993
7.00019
5.7934
27.8038
1.24581
8.2247
14.67
0.20247
0.776364
1.82587
3.23935
2.76242
0.178118
0.16631
4.618
15.1384
6.8366
14.8551
0.279605
15.6978
8.27585
17.099
5.42493
0.879427
3.92415
0.909925
15.2497
3.28029
8.09007
2.74708
3.00398
0.19143
2.63143
4.77993
0.824749
9.054
1.38916
12.7359
0.625358
4.83808
12.9118
1.30498
4.38213
1.46169
7.68916
2.10264
4.28954
3.56579
0.121447
12.7106
2.58703
19.9784
1.53324
2.26535
15.3329
12.1954
0.105376
0.641947
12.2339
2.94519
5.7334
2.18873
14.0083
6.07791
15.6746
3.07794
3.76032
4.94667
16.8063
0.641842
2.86481
2.8714
0.189968
1.0358
8.41343
21.6746
0.0195447
4.72388
0.707239
6.13311
2.6827
17.3198
0.282117
1.67252
3.85186
0.220776
2.98435
11.3065
11.8843
4.33393
3.50923
9.25514
0.181126
7.12776
18.6852
1.97801
0.148819
4.16827
5.22603
3.19142
10.791
11.7729
14.31
0.656324
3.61436
3.75293
0.0740079
2.79805
4.27658
1.2113
0.0775414
2.79457
1.14826
27.9645
27.9344
8.53874
2.28973
12.0903
0.208395
18.8726
3.05071
0.872366
2.25719
0.203298
0.18451
14.6347
4.34272
0.964414
1.65576
2.52904
6.06576
1.17085
6.01223
1.07038
4.22877
0.225479
19.2543
7.11863
87.3445
1.59761
0.281924
0.650687
14.9575
2.0812
3.47659
0.960306
2.73477
6.79093
3.07227
2.15792
10.5164
1.6743
1.73157
0.0895588
15.3169
6.37119
7.78334
11.415
0.0775964
28.5376
22.9208
14.3141
7.18891
0.0871912
3.88996
1.15171
10.1776
0.100702
0.857279
8.4975
0.662412
5.63622
16.2477
4.15108
15.6849
2.23086
3.94372
0.889822
9.84838
1.20943
0.391365
0.191986
0.63312
2.11907
25.5976
6.28383
1.98451
6.06126
4.03948
2.92911
3.70142
2.38834
4.08685
0.908814
15.2968
3.31157
17.2129
6.58338
9.17244
28.311
1.94481
15.1596
0.852392
5.66092
0.667154
10.2712
2.56412
4.2478
3.71404
0.277392
0.109914
1.03442
74.2522
3.2478
0.210644
2.04444
3.53513
5.86752
0.152241
24.2316
4.73241
12.2998
0.0787544
13.4353
17.24
0.82316
0.156189
12.8756
2.74874
76.3549
0.0813927
58.4365
0.074721
2.65662
0.238025
1.02018
2.09963
24.3882
11.5663
30.2013
10.9761
13.0786
50.4993
4.03175
5.40424
2.89711
1.04093
3.80413
4.09181
0.98377
3.82557
5.24744
2.38917
124.686
2.6161
30.4923
3.40955
22.9031
0.335064
7.46696
3.04032
2.53012
11.9993
13.5805
6.75078
10.2963
17.0669
0.0774619
7.77659
94.5238
2.78114
5.97334
2.87313
3.8009
1.2245
3.14805
5.8206
0.649798
11.1293
1.11826
21.2897
7.57854
4.66893
4.34179
1.04314
6.46635
6.8844
4.11828
4.16972
1.00949
0.665641
0.101781
11.5416
0.110058
4.21468
1.77524
3.38567