/*--------------------------------*- C++ -*----------------------------------*\
  =========                 |
  \\      /  F ield         | OpenFOAM: The Open Source CFD Toolbox
   \\    /   O peration     | Website:  https://openfoam.org
    \\  /    A nd           | Version:  10
     \\/     M anipulation  |
\*---------------------------------------------------------------------------*/
FoamFile
{
    format      ascii;
    class       volScalarField;
    location    "350";
    object      p;
}
// * * * * * * * * * * * * * * * * * * * * * * * * * * * * * * * * * * * * * //

dimensions      [0 2 -2 0 0 0 0];

internalField   nonuniform List<scalar> 
10435
(
0.0446186
-0.0509265
-82.2899
-4.65899
-10.4323
-41.7558
-90.4213
-90.1705
-87.7681
-61.9857
-1.90826
-19.9274
-87.8577
-0.802719
-0.895938
-75.9044
-0.776962
-74.7306
-85.1824
-0.0161608
-80.6168
-4.26433
-72.3206
-43.692
-63.6269
-1.79103
-1.80407
-92.2443
-0.784462
-73.6697
-47.1409
-2.38893
-89.0011
-0.130029
-68.8567
-0.563881
-65.8495
-4.2712
-5.35895
-70.6041
-60.5353
-80.559
-0.363567
-1.77975
-61.4441
-59.4959
-46.7432
-1.1844
-102.155
-8.02164
-81.784
-44.4316
-8.25537
-1.35676
-0.336361
-0.546711
-62.6526
-1.13792
-0.804596
-57.8784
-4.57665
0.17184
-0.47477
-19.3824
-66.8011
-77.1806
-0.804508
-1.00759
-87.4433
-31.6978
-0.256201
-1.95663
-0.0140583
-75.3694
-1.07758
-0.183728
-15.381
-92.1922
-95.6144
-1.00335
-12.9495
-0.448998
-6.60966
-0.500311
-16.5749
-0.963204
-0.526079
-1.20439
-1.03469
0.0682784
-2.62621
-4.25296
-0.476646
-1.18405
0.366423
-0.831449
-5.71993
-0.877196
-0.534733
-8.45416
-1.39005
-12.3551
-1.00063
-0.11622
-15.9887
-3.19202
-1.29264
-9.72619
-17.479
-1.08711
-5.93608
-7.62146
-0.837416
-1.12602
-1.69104
-2.96155
-10.2583
-0.595304
-1.0101
-11.0876
-9.69697
-0.341516
-0.0506566
-0.571429
-3.15864
-2.61572
-8.67799
-0.380016
-10.2165
-1.37734
-0.411579
-2.05467
-77.7917
-0.880129
-0.705083
0.880552
-0.722161
-5.8038
-0.0628183
-1.85878
-0.792335
-62.9279
-0.243002
-23.6776
-5.21706
-0.743462
-0.62615
-31.1996
-0.699739
-27.3404
-0.652248
-54.476
0.0441687
-40.2917
-39.7481
-0.214202
-4.38259
0.289879
-50.7156
-1.23234
-47.4203
-0.779581
-2.16788
-13.3497
-1.15506
-18.3636
-85.8359
-11.1922
-34.9422
-33.3451
-53.1453
-0.462358
-2.55891
-0.885455
-28.7046
-0.710487
-0.132182
-0.861607
-4.27452
0.112675
-0.826905
-30.1472
-29.0249
-3.74781
-50.4254
-0.155144
-1.00439
-87.6801
-21.4372
-32.1601
-21.4832
-4.68809
1.23629
-0.657108
-6.2145
-88.523
-0.579157
-1.07128
-0.85115
-70.3378
-0.92876
1.07676
-92.7314
-0.0227353
-81.9526
-5.99476
-2.34957
-8.61282
-1.01831
-7.7493
-0.02749
-78.1444
-18.3195
-19.6583
0.117518
-0.763867
-1.26241
-0.0798968
-12.2041
-0.743793
0.0284744
-1.17462
-0.210337
-0.682066
-1.11992
-73.8367
-15.3467
-1.01258
-49.3956
-0.501827
-0.733604
-79.9126
-12.3579
-45.6656
-1.18709
-0.588174
-45.7407
-4.08516
-40.8211
-54.2662
-0.601061
-0.947452
-0.261309
-0.670558
-8.91426
-89.544
-0.844877
-92.0699
-7.90145
-0.469821
-7.73638
-1.259
-74.7556
-10.945
-95.8441
-8.7467
-11.4323
-97.6001
-1.31395
-0.858927
-95.5124
-49.5995
-4.11281
-30.5856
-0.938364
-0.350063
0.125291
-62.8633
-2.35962
-9.83775
-96.6621
-95.1737
-94.9098
-70.4053
-13.1681
-12.8945
1.57439
-9.17091
-80.3187
-98.0978
-71.5745
-0.802759
-98.988
-1.17084
-1.00747
-2.06644
-19.6869
-18.1229
-0.230124
-0.86674
-0.658733
-1.88142
-1.27628
-96.4631
-21.5627
-9.78481
-0.698328
-0.394212
-5.64086
-63.3536
-0.78877
-28.1881
-100.487
-13.295
-4.29357
-0.859282
-0.402463
-39.2307
-69.9558
-0.240183
-2.77903
-1.43796
-0.534118
-28.1481
-88.9557
-11.3128
0.406509
-37.425
-0.752263
-13.8208
-23.73
-2.67857
-0.489756
-2.79141
-102.752
-81.4041
-14.9939
-100.868
-0.573324
-1.45492
-68.4565
-0.888474
-0.224704
-91.5111
-37.6526
-1.08815
-0.103884
-1.93029
0.328869
-1.18193
-15.8267
0.0313075
-3.69164
-8.98515
-16.4897
-2.04716
-0.945465
2.85995
-1.8149
-100.414
0.0520833
-76.1253
-7.68845
-100.286
-102.864
-109.795
-104.927
-70.1839
-0.934233
-0.0665124
-2.99221
-1.85712
0.182694
-3.34981
-2.75106
-15.2692
-1.8236
-25.2031
0.638291
-100.38
-4.26424
-15.5419
-97.9614
-113.302
-1.10907
-9.94494
-3.34673
-3.47084
0.0608518
-1.14486
-12.0648
-12.7911
-93.1964
-0.62681
-92.8134
-107.528
-99.5438
-97.7771
-107.813
-93.9176
-75.3194
-0.377525
-0.985874
-0.412153
1.27064
-95.021
-0.211605
-108.282
-13.8885
-0.8895
-21.276
0.349943
-2.65045
-84.4024
-5.03985
-93.4699
-30.0427
-0.0727083
-0.487318
-9.13173
-107.187
-10.5037
0.287256
-2.96189
0.00662843
-0.379429
0.189741
-84.162
-5.78098
-2.90671
-0.787716
0.185093
-115.992
-0.436853
-1.08839
-119.075
0.383379
453.877
162.645
217.376
147.75
133.025
95.0226
75.4361
57.4998
34.8786
447.808
146.299
202.454
144.436
131.728
100.66
82.5121
66.1361
49.0595
437.447
126.175
182.182
137.548
126.259
100.883
83.9153
67.8488
51.1148
411.94
102.456
155.565
122.398
113.93
94.325
79.8026
65.4757
50.4273
365.699
73.3925
122.683
101.47
96.4282
82.5406
71.3578
60.128
47.6568
299.187
41.2269
85.6968
76.7135
75.0057
66.5357
58.8696
50.717
42.0856
217.241
15.3567
48.7555
50.9709
51.816
48.1902
43.9671
39.1172
34.281
128.365
3.35045
16.2559
27.222
29.3477
29.557
28.1854
26.2675
21.3205
40.1452
-1.14851
-10.2646
7.43865
9.9483
12.874
13.6171
13.6609
13.3385
-40.5783
-7.47703
-30.3576
-7.24878
-4.72226
-0.169575
1.89299
3.38108
4.42344
-111.819
-16.2182
-42.7506
-16.1687
-13.8955
-8.79569
-6.24517
-4.21826
-1.7721
-157.5
-14.6856
-44.7267
-19.0996
-17.8454
-13.2934
-11.0525
-9.40666
-5.26661
-161.942
0.663299
-35.6874
-17.065
-17.796
-14.5784
-12.942
-11.25
-9.39269
-146.909
16.7751
-23.5773
-13.3247
-15.956
-14.2166
-13.1799
-11.5933
-10.8492
-130.751
25.0771
-13.9415
-10.3627
-14.0618
-13.4602
-12.8327
-11.5296
-10.3468
-109.882
26.0093
-8.13963
-9.10686
-12.9294
-12.9261
-12.4298
-11.2915
-9.704
-92.2361
18.4793
-6.92963
-9.75288
-12.7451
-12.762
-12.1348
-11.0512
-8.55391
-83.3922
2.76333
-10.5464
-11.8951
-13.2315
-12.7747
-11.8216
-10.5501
-8.2866
-73.8597
-11.9465
-14.4403
-13.85
-13.5977
-12.6007
-11.3749
-9.97043
-8.28329
-60.1261
-19.0208
-16.1397
-14.5023
-13.2325
-11.8358
-10.3963
-8.85253
-7.08838
-47.8629
-20.3545
-15.8537
-13.7627
-12.0614
-10.512
-9.06186
-7.54534
-6.25536
-39.643
-18.3419
-14.2932
-11.9759
-10.257
-8.73104
-7.36999
-5.90774
-5.52917
-35.3579
-13.4786
-11.8495
-9.49433
-8.03322
-6.70116
-5.55439
-4.33081
-4.22412
-31.967
-6.38067
-9.63553
-7.64933
-6.38929
-5.11155
-3.96104
-2.81055
-2.93116
-24.6834
2.44076
-3.43205
-2.77511
-2.60876
-2.49573
-2.19265
-1.61183
-4.56394
5.87613
5.46247
5.09177
4.87068
4.72099
4.66559
4.75064
4.9953
5.40779
6.02704
6.89759
8.06357
9.55489
11.4052
13.6259
16.1888
19.0553
22.2845
26.0564
30.283
34.6038
38.7706
42.7448
46.8844
50.9844
53.7402
55.2246
57.3445
60.7499
64.6068
68.7896
73.7683
78.948
83.3578
87.4029
91.6556
95.9944
100.431
104.994
109.856
115.182
121.196
128.148
136.404
146.337
158.197
172.315
188.889
207.856
229.204
252.42
276.933
302.815
329.493
355.773
380.783
403.958
426.286
447.105
2.32377
1.55564
0.787876
0.129913
-0.46053
-0.969892
-1.43403
-1.88944
-2.34998
-2.83225
-3.35497
-3.9333
-4.58039
-5.30839
-6.12508
-7.03003
-7.89614
-8.46869
-8.63215
-8.57797
-8.40222
-7.84649
-6.67062
-4.80171
-2.23051
0.408438
2.40239
3.54624
3.54521
2.52654
1.23475
0.130827
-0.765458
-1.53251
-2.15181
-2.55938
-2.81962
-3.02987
-3.21574
-3.33353
-3.30547
-3.01789
-2.32511
-1.05897
0.957387
3.91711
7.99827
13.3673
20.2862
28.6155
37.565
47.0314
58.1495
71.3368
85.3169
98.6616
111.715
125.949
141.995
3.21137
2.80552
2.36715
2.06108
1.8471
1.72446
1.69348
1.75424
1.90509
2.14372
2.46915
2.88143
3.3825
3.97606
4.66922
5.47189
6.40268
7.47041
8.66149
9.96055
11.4084
13.057
14.8941
16.8839
18.9528
20.8806
22.5622
24.05
25.3504
26.4318
27.4292
28.4709
29.5962
30.7941
32.1223
33.6388
35.3757
37.3556
39.6075
42.1683
45.0871
48.415
52.2143
56.5505
61.4947
67.1339
73.5741
80.913
89.3316
98.95
109.912
122.208
135.627
149.674
164.109
178.984
194.077
209.93
223.149
1.46483
0.991625
0.521175
0.142353
-0.175189
-0.43013
-0.623266
-0.757422
-0.83697
-0.866421
-0.849539
-0.789325
-0.686858
-0.540944
-0.346785
-0.0956341
0.228773
0.646271
1.16756
1.78742
2.50202
3.31925
4.23665
5.23229
6.26427
7.25081
8.11039
8.78429
9.23773
9.46661
9.51931
9.45046
9.30728
9.12471
8.94209
8.79196
8.69821
8.67743
8.74817
8.92792
9.23559
9.69457
10.3315
11.1891
12.3261
13.8539
15.9537
18.3816
21.4545
26.3612
33.1227
41.1966
50.7822
61.9303
74.4765
88.0335
102.284
117.625
132.598
2.06974
1.811
1.53281
1.33066
1.18158
1.08717
1.04977
1.07026
1.14816
1.28257
1.4729
1.71877
2.02061
2.3796
2.79771
3.27708
3.82037
4.42846
5.10182
5.83677
6.62911
7.47104
8.34955
9.24382
10.1252
10.9587
11.7122
12.3666
12.9134
13.3569
13.7221
14.0391
14.3489
14.6914
15.1037
15.6251
16.278
17.0692
18.0048
19.0702
20.241
21.4939
22.8026
24.1654
25.599
27.1728
29.0024
31.2564
34.1875
38.1027
43.1987
49.6942
57.7378
67.2691
78.0941
89.7974
101.993
114.913
126.123
1.42986
1.19819
0.975223
0.803026
0.667126
0.568764
0.508871
0.487679
0.504731
0.559631
0.652602
0.78422
0.956232
1.17087
1.43122
1.74056
2.10274
2.51836
2.99042
3.51597
4.09046
4.7025
5.33762
5.97821
6.59329
7.16128
7.64808
8.03616
8.30839
8.45874
8.4984
8.4305
8.29002
8.10989
7.89898
7.6987
7.50177
7.27711
7.05136
6.79578
6.49394
6.13906
5.72771
5.28961
4.87528
4.54988
4.44646
4.72571
5.61024
7.4203
10.4073
14.7982
20.769
28.3337
37.3745
47.5239
58.3653
69.8662
80.6463
1.6954
1.57615
1.46225
1.38525
1.33567
1.31371
1.31927
1.35251
1.41289
1.50003
1.61443
1.75689
1.92951
2.13447
2.37429
2.65241
2.97352
3.33192
3.7355
4.17914
4.66393
5.17639
5.7053
6.24724
6.75506
7.2381
7.64663
7.98412
8.22673
8.36433
8.42112
8.35062
8.20922
8.04131
7.7944
7.58621
7.37951
7.07479
6.83857
6.58696
6.32967
6.07015
5.80071
5.54419
5.36441
5.21101
5.25579
5.54766
6.2817
7.66596
9.91628
13.2487
17.8348
23.746
30.9026
38.9919
47.6255
56.6603
64.7757
1.67485
1.58552
1.51356
1.46851
1.44189
1.43559
1.44392
1.47135
1.51371
1.56586
1.64134
1.73247
1.84682
1.98984
2.15918
2.36912
2.61613
2.86056
3.17168
3.53235
3.95372
4.3962
4.84725
5.35374
5.76634
6.20475
6.52977
6.81788
7.00778
7.09494
7.10057
6.81068
6.38738
5.93954
5.15946
4.54838
3.91069
2.60714
1.56758
0.525171
-0.464501
-1.4018
-2.27829
-3.07344
-3.30823
-3.88228
-3.93731
-4.12674
-4.25809
-3.75938
-2.32814
0.176278
3.58307
8.18473
14.1112
21.0144
28.4191
36.2427
44.0328
1.84933
1.8392
1.82953
1.83938
1.85598
1.88938
1.93103
1.97352
2.03191
2.12507
2.18389
2.28765
2.41563
2.5397
2.72355
2.85566
3.10959
3.39297
3.6691
3.95713
4.32434
4.67963
5.08648
5.56868
5.92008
6.37499
6.63473
6.89192
7.12188
6.84564
6.98367
6.42402
5.72214
5.04724
3.8084
2.88404
1.58002
0.0501513
-0.377534
-1.19865
-1.67648
-1.6951
-1.88251
-1.36713
-0.987984
-0.715232
-0.141507
-0.147718
1.59657
3.32199
5.07924
7.16544
9.90486
14.1535
18.5938
23.7382
28.9613
33.8342
34.9759
-10.1587
-10.2079
-9.60798
-8.74686
-8.15516
-7.91922
-7.69673
-7.02235
-6.09952
-5.44936
-4.6844
-3.36195
-2.05798
-0.983101
0.18827
1.27808
2.01083
2.51084
2.98619
3.52607
4.05827
4.48567
4.79789
5.25227
5.75258
0.953723
0.66824
-0.0182933
-0.159221
0.0811273
0.561687
1.4451
2.58493
3.44661
3.59757
3.08366
2.10489
1.06028
0.438855
0.550438
1.2529
2.06017
2.69078
3.06079
3.16379
3.02494
2.78737
2.72869
2.9743
3.21562
-0.989772
-1.17238
-1.13769
-0.951581
-0.617504
-0.205546
0.314822
0.871095
1.28365
1.34763
1.15319
0.843325
0.555352
0.436486
0.609012
1.00081
1.4438
1.84371
2.16693
2.41005
2.58096
2.70901
2.84935
3.01457
3.30141
-0.139782
-0.299675
-0.244401
-0.156254
0.0162956
0.25286
0.552911
0.869617
1.12458
1.24649
1.2513
1.19362
1.14591
1.17794
1.32904
1.56794
1.8247
2.04712
2.20843
2.3023
2.33435
2.31649
2.25933
2.13281
2.04079
-0.0537194
-0.151246
-0.0817414
-0.00822185
0.116239
0.274997
0.467615
0.668435
0.841758
0.960513
1.02952
1.07668
1.13646
1.2352
1.38557
1.56878
1.75201
1.90936
2.02859
2.10751
2.15253
2.17113
2.17287
2.14096
2.18513
0.0380108
0.0310866
0.114797
0.170273
0.25724
0.360212
0.488076
0.62657
0.758297
0.87726
0.977634
1.07454
1.18411
1.31061
1.45681
1.60809
1.74614
1.85684
1.93379
1.97582
1.9877
1.96946
1.92009
1.8134
1.72933
0.186211
0.111904
0.218421
0.255247
0.319776
0.385229
0.473975
0.575021
0.678238
0.794471
0.904002
1.02061
1.15458
1.29358
1.43998
1.57849
1.69831
1.79248
1.8597
1.89903
1.91932
1.91863
1.89923
1.84179
1.8072
0.319316
0.149928
0.28235
0.29958
0.359247
0.407393
0.482298
0.560679
0.632358
0.743443
0.846566
0.966124
1.12231
1.27231
1.42133
1.55628
1.6695
1.75747
1.82208
1.86292
1.89515
1.90721
1.90514
1.86691
1.81809
0.165464
0.0939963
0.340921
0.339861
0.366623
0.354912
0.376543
0.433077
0.54389
0.654859
0.78159
0.897914
1.02917
1.17111
1.34937
1.48463
1.60228
1.69816
1.79838
1.85318
1.89269
1.9244
1.93256
1.89449
1.84787
-108.418
-109.161
16.7946
8.00033
1.5241
1.26709
5.61872
2.27847
17.0254
5.7519
13.7765
2.18506
-132.161
0.324065
10.3968
2.47466
18.6451
7.14082
-3.72417
71.948
-3.80583
4.06696
16.4865
3.12913
2.01211
2.46076
1.99852
-0.0367224
-110.612
17.706
21.4932
2.65002
13.9561
-38.1631
17.3628
1.88124
5.83568
10.2783
4.27109
4.76941
11.8393
2.95506
3.02483
-0.330816
0.292679
-1.2425
10.0615
9.97758
-65.3433
-11.6849
10.5979
9.5492
-49.7891
7.31226
5.23501
16.9144
0.412418
-35.8733
0.682519
9.78914
2.11508
16.8345
1.47815
2.62367
2.15153
-0.212435
-1.23129
2.22838
-122.521
-34.2145
16.743
4.65465
1.43664
70.5475
1.32105
-9.25939
65.9413
9.84098
1.00283
6.92484
-40.5564
2.01234
2.49713
14.0634
1.84183
2.1177
1.49813
9.98242
14.0929
-2.18893
1.22185
-9.39497
1.81044
2.30132
1.31997
14.2782
2.48063
11.4548
2.93758
7.72473
0.356304
12.0372
0.288481
3.75317
0.796416
0.764549
16.5456
-34.3425
2.47658
17.9689
3.29257
2.38814
17.4754
3.45302
-52.832
-69.821
7.70254
5.47156
-82.7486
2.5135
2.63234
2.2894
3.40383
2.1531
14.6033
2.9444
9.63366
69.059
1.05732
9.55381
2.46611
70.1802
-35.1915
-1.70927
-0.104165
1.49534
0.413136
0.460652
2.22974
71.8037
2.71381
1.96917
8.19041
2.64832
-84.6046
2.36958
7.20212
32.5772
2.24955
17.3672
1.33146
0.840654
7.11702
11.3888
1.79496
11.8027
1.13189
4.56513
68.7109
4.08079
2.98566
16.9335
2.28995
11.645
2.80188
14.0649
0.426648
1.67316
2.92158
1.02052
0.455803
2.84558
1.94789
13.6501
-8.13144
0.242021
5.449
-60.2122
-37.3157
4.52045
-2.5392
2.89887
-54.5869
9.62672
0.723471
3.17948
13.4445
2.44007
0.161729
2.2849
10.4914
6.88742
2.20429
2.421
11.367
8.24091
1.33007
3.895
-76.896
-134.644
-145.405
3.52701
2.15478
2.23048
2.21725
4.10453
3.30162
0.30076
-49.9277
4.50931
0.799371
2.29537
-4.10755
1.9551
1.10354
14.0819
0.997908
3.44881
6.53274
-3.12864
0.158083
2.97088
1.9159
16.4305
5.49065
10.7663
0.885322
18.5445
2.46661
1.39883
12.3359
1.95804
2.7873
2.49221
2.51791
4.90045
54.1548
0.0187213
3.39621
6.82977
24.1463
2.07291
2.98026
-0.00636583
1.40236
1.85181
2.72549
0.63239
2.43619
3.05231
2.48225
0.317387
4.35468
-60.8778
2.67902
1.27143
17.4302
64.9217
66.5649
5.39948
1.29479
0.937251
2.2389
1.66664
69.3061
2.25426
3.8514
7.91868
4.92036
1.72175
1.5576
2.98244
2.8963
3.45787
-4.53909
7.92772
1.85741
17.6443
0.281863
8.15178
-0.0267467
1.27942
2.95904
-1.436
-40.4554
2.22892
0.69545
5.82335
14.3805
10.4184
7.87943
2.41705
2.85502
13.1955
-58.2238
14.2004
16.6421
-3.71803
4.13607
-20.5026
8.10148
2.98596
4.10694
2.17609
17.3211
3.09972
-2.55923
0.580268
71.7817
2.05347
4.1144
-1.14654
9.06898
1.22041
2.88537
3.54152
9.61532
4.04375
2.10117
-23.1689
63.2717
2.47382
4.11186
18.7509
1.76121
2.2551
7.41939
-37.4456
0.880192
-32.173
2.57643
10.7852
0.198035
5.39244
9.73021
2.07742
2.26155
2.42318
2.38523
1.72018
2.3115
2.11747
-1.94356
-6.7198
68.7861
0.982735
0.762645
2.92887
1.5343
11.0335
0.437327
1.86269
2.73911
58.8604
13.455
5.32784
-19.1052
-0.524891
2.86018
13.5323
-46.6352
16.5313
3.40168
10.1036
2.99129
1.41528
2.79321
9.58114
2.15623
0.40155
-0.0953619
10.6557
-104.058
17.2708
-113.77
2.47869
2.41382
2.54106
4.0805
4.96053
16.7687
2.2905
14.6937
-0.505907
-0.39758
-44.2052
2.72957
71.853
14.3187
11.1366
3.97542
4.01856
-1.75484
15.3136
2.83536
5.30821
2.98519
13.6463
4.3309
-101.298
2.13483
3.21754
1.79803
-36.806
1.99924
3.18724
6.33952
-1.14268
-1.45884
6.22546
8.74519
2.0843
-19.7661
2.12909
2.58259
4.67059
-63.4104
11.1575
4.20275
-4.29446
2.8414
3.92706
-0.868405
0.211773
3.24784
8.26457
2.4016
4.03355
5.92476
2.63775
2.17158
1.24976
-7.46102
1.02661
7.91846
2.84754
2.79898
2.84078
2.90159
4.2133
4.00006
5.94092
13.8919
-0.847097
-121.339
15.2529
0.0162553
11.0351
0.683911
1.02011
17.2147
2.86685
2.20415
-25.3997
-2.01583
-35.4441
14.0315
2.22126
1.22624
61.772
2.29375
-0.332932
7.23667
-7.11903
8.36295
1.85244
0.833692
16.7247
3.88005
15.8255
-1.49215
1.66244
16.7932
4.37464
2.2343
-64.5806
-7.6212
1.2903
28.7643
23.2133
1.2402
6.49704
3.07504
2.11529
12.5638
1.61792
1.94434
4.59952
-0.663842
4.32715
9.21071
2.39311
2.36375
14.4792
2.09192
0.6578
12.013
2.16826
2.81742
-6.54275
3.02628
7.55841
2.20571
-0.0416726
3.60369
-30.6536
2.2724
2.30866
6.17789
2.52461
3.4578
-18.5614
-3.91878
-7.21468
3.16171
9.69202
17.2375
-60.1276
2.39605
2.74934
-2.64424
9.84683
71.8506
10.5309
-43.8208
4.35906
8.17143
14.117
3.79375
3.85611
0.387427
3.32334
8.91494
15.7586
2.46679
-1.00284
2.71027
-32.3571
-67.4116
2.33898
-30.2049
18.1493
3.38195
16.3647
2.74637
16.1898
2.33346
0.171482
2.15663
17.7376
4.0057
5.90988
0.981518
-58.1754
-57.567
9.65341
1.8786
0.0317345
-110.72
-33.2185
-4.96123
-5.37129
2.63002
-81.3095
17.5971
3.49817
2.64465
0.675519
2.65678
0.904849
10.1811
5.32166
11.281
0.789314
1.22737
17.6792
10.5504
-35.0008
0.163091
0.929664
71.9531
-68.7523
3.22573
-1.03627
2.43567
13.9251
3.72138
1.24815
-4.48446
4.42669
1.15678
1.83646
2.80746
12.1297
0.976482
0.658067
-53.7358
-55.4125
1.57
2.79664
-1.80689
-0.0862411
3.01079
4.21988
68.2799
2.71887
2.20353
5.4326
5.83126
2.81169
3.10272
6.99983
2.02255
2.95371
0.459759
-28.96
3.96466
0.831016
16.1243
3.22812
1.86659
2.25124
-4.69816
1.05689
1.62388
8.73437
13.1967
-0.0313996
13.9474
1.36113
1.47898
1.51708
3.09778
2.43719
2.51257
-12.2348
0.242133
2.07773
0.695096
14.649
2.27788
0.154066
-0.229373
3.70493
1.42463
3.19055
1.51953
-0.935833
5.30938
13.2509
57.8033
3.2773
4.22195
2.71686
4.19116
4.78892
10.3697
26.9027
20.2059
2.86951
-29.2109
6.63956
12.0586
2.67749
1.60022
2.33974
16.2241
12.0995
-0.0956722
-59.913
1.60104
-2.37995
1.84976
7.54022
3.03963
2.40196
3.61288
1.86666
-1.21465
4.80464
2.91238
-36.0854
4.05752
2.40905
3.82844
0.175501
2.68244
-81.552
16.3085
2.50398
6.88492
4.18536
15.4314
2.42213
-0.208092
3.04915
2.54838
-3.11276
2.37977
3.45289
0.673232
2.50985
2.64212
3.84148
5.73732
11.708
10.8256
1.0213
8.89823
9.40742
-0.0383877
17.2499
-1.72494
1.18953
1.76905
3.18634
2.26579
-0.773066
2.34287
1.92125
-102.288
-7.44673
14.3496
-0.634402
2.93692
-4.02768
2.11397
0.856933
-27.558
16.1544
-1.16457
-28.9297
5.12395
-66.6351
19.8784
14.0692
13.7164
8.80597
3.42473
2.38366
3.03991
3.32979
2.27486
-90.4966
-63.2508
-5.23
69.0384
-0.862921
3.88818
2.2557
2.12662
13.6058
15.6374
2.15975
5.72119
19.8661
-52.0013
-18.3514
3.18878
3.18999
0.14408
3.07433
-72.7976
-1.92759
16.4682
10.9273
1.15542
4.22829
2.54988
3.22348
0.194944
1.16665
0.449212
4.09705
3.01515
0.189673
2.27254
2.49723
3.06437
2.14308
0.93354
4.42731
8.0915
8.93987
3.72789
-0.0394788
2.78834
71.6611
1.85581
0.646823
-0.685221
13.5476
0.961057
3.09837
2.43322
10.1798
15.0822
34.6371
2.28068
27.7637
-79.4173
42.9789
15.6934
3.82804
0.223693
-4.65413
16.1603
2.92528
2.1416
0.422807
6.6705
16.7804
2.73953
1.84573
-12.1165
1.56196
16.1086
9.46704
5.06808
2.78009
17.5023
-81.8685
-35.9121
2.93599
3.99522
3.07889
23.5176
1.92609
3.01676
1.90753
0.611491
36.8598
4.1479
0.275886
-42.0307
-2.48046
2.2227
13.6129
-0.855884
-6.45394
2.38658
14.7238
4.2537
2.26764
-80.7332
4.3639
-4.44994
2.61228
0.398255
1.401
9.6303
3.19505
4.11648
1.9958
8.52386
71.7906
16.3402
2.50194
-96.1882
10.0759
2.43684
1.02961
0.464208
12.1174
4.36128
71.8772
2.54478
2.44076
10.3789
2.36637
10.5462
10.1165
32.1654
8.43938
11.4177
11.8693
0.585065
13.6055
10.3744
-4.15499
5.2862
1.81768
0.449194
65.6845
2.26537
-5.40892
22.6098
15.6798
4.04696
3.59449
10.2472
0.355037
2.24361
15.0559
-70.9283
-40.8815
-4.0315
0.831604
9.37856
16.863
-55.4213
-13.4125
-9.10921
1.15694
3.11663
2.81217
-45.6833
4.15808
3.57427
0.812528
9.80167
2.57325
3.24099
-33.9086
2.70047
0.640697
-1.4008
-27.2961
-5.26766
-25.0615
-79.624
4.90383
-0.126308
2.90069
-0.725939
-59.6446
-32.8886
3.44336
2.21006
2.23713
3.2511
24.0783
15.0588
2.30992
-22.6256
-5.43411
49.4928
-4.76753
1.80566
2.30186
15.9761
-26.4599
-0.107086
7.30924
2.52193
2.71459
8.19252
9.36949
-8.82014
-6.84938
16.9164
2.36897
3.10841
8.10039
2.32299
3.30498
2.04949
16.967
-1.13152
0.301417
44.4117
6.6675
0.794975
0.107925
3.83358
4.55788
0.673041
2.88918
-15.1413
3.0413
0.729602
-32.4827
71.7264
16.0374
2.3648
1.22695
2.10949
3.75081
-96.9077
1.27
0.399246
17.5946
2.38648
0.646475
0.898427
1.56767
-56.0716
4.85753
3.73285
3.02742
4.96646
5.68431
9.21546
2.03858
37.1184
2.53292
1.72949
2.45131
-12.9396
1.79997
2.46846
18.3224
4.16834
10.4538
2.31536
-64.059
1.7379
1.98889
3.57048
3.55334
9.90914
2.48266
-1.29289
68.1069
3.75527
-6.85253
2.15088
3.02265
2.18765
8.99002
2.65585
2.25839
16.6426
0.30561
12.1484
3.27404
-4.95202
2.80388
5.05909
3.30863
0.521671
16.0026
5.12653
-0.43982
3.87215
-0.161074
3.81287
-21.9264
2.62178
-0.872764
-3.33278
3.07382
4.23034
3.3997
9.65928
7.20593
23.7308
2.52088
8.04881
16.6993
0.231988
59.6365
2.3761
-63.6089
16.3591
11.3493
2.15477
2.2438
0.510827
-25.0323
3.67758
15.8851
2.37292
0.545722
7.47861
1.06476
4.13958
0.65087
5.0457
25.1334
4.70434
-78.6658
0.388664
8.55732
4.66951
2.76307
3.04147
5.41259
-31.637
4.20278
71.5068
2.37858
1.79238
3.0671
-70.2213
11.464
3.57192
4.10989
4.80643
3.24368
6.80361
0.342335
8.64258
2.50868
1.27335
-72.1627
2.08488
2.05614
8.62199
2.81826
1.60493
3.08588
0.215465
-2.1039
14.7303
39.3726
-2.32359
0.295875
20.8801
12.3576
12.1892
2.94813
3.25855
68.8295
4.03597
0.644932
-3.17131
-83.2481
4.28322
3.87127
4.05715
-0.158524
-59.805
1.88879
4.1855
-48.6681
-27.4495
3.21717
2.80796
1.4664
2.17604
0.926215
-59.3039
1.97728
41.0537
2.15561
-1.91996
1.88729
-21.6242
2.80932
15.1096
5.06671
17.0486
-62.3043
-60.7911
8.88117
2.42512
10.806
-24.1571
2.40257
3.73328
2.3161
0.395899
2.83224
1.99737
2.45199
12.4877
1.04077
0.160402
7.23157
0.3927
0.794627
1.33748
11.5412
3.25758
14.447
12.736
0.543326
2.90847
0.863814
2.18621
0.264374
30.2115
15.3405
0.0616607
2.28126
3.73727
11.9766
11.9427
2.45387
-2.0031
1.03133
3.32638
1.80917
-0.0262804
3.91421
0.442718
0.141883
-48.1228
2.15704
1.44928
18.1507
2.31346
0.759574
1.88339
9.88764
0.847913
3.42008
-92.9046
2.52507
12.8042
-33.305
1.79115
2.50013
9.16461
3.01985
2.12968
-1.00565
9.9848
2.62803
-77.7749
0.242214
9.37532
-17.3129
68.9619
-56.2316
4.28159
2.07857
67.2559
36.4437
1.08322
3.46422
4.30144
15.9774
-2.94596
1.53263
3.9793
3.81262
2.40908
4.12731
1.19445
3.58182
-19.9908
67.839
6.37373
3.68804
5.98477
2.79216
2.25029
-2.931
3.32653
-0.885223
9.37764
52.2209
3.09174
51.5196
-103.18
71.727
-57.2221
0.298602
-46.0427
8.64398
1.5163
3.20211
-42.6514
3.14317
17.1819
5.81112
-6.33351
-88.0199
11.2882
8.34251
-20.3119
0.248955
2.82876
5.40024
-18.7015
5.10435
10.2727
3.45949
71.7885
-0.648463
-30.1663
1.90366
0.755684
2.28386
70.6305
2.35456
1.20202
72.0767
2.92867
-71.4836
2.56403
3.09985
-19.5347
5.06988
-1.16807
-50.6543
10.6403
4.92506
-6.12661
5.16158
-3.8595
0.226989
1.31355
-33.2133
-93.0255
3.46195
13.9215
-7.59289
-9.40048
5.01643
0.424038
2.84731
-12.866
2.78699
19.6195
2.7409
9.22132
1.84039
-11.1495
9.74955
1.4538
3.91521
-64.5425
3.12828
2.65733
3.01418
50.302
-11.6036
2.12409
12.4168
1.2013
2.26373
-1.58835
3.19792
2.33986
-98.5523
0.698737
3.07418
5.19933
2.35613
3.63022
1.51661
-10.7001
-26.8068
-1.36218
3.6554
2.58113
-74.4321
8.33169
2.04715
0.860279
0.433886
12.6119
0.872835
-0.916463
-116.664
1.98484
-20.8521
10.9729
1.9557
-0.398053
3.84606
5.07369
1.77882
2.63214
0.799607
-0.0438676
-20.3201
2.77837
8.60356
1.96831
11.9715
3.34023
9.43888
1.17703
71.9444
-54.7198
0.638974
-1.12517
2.99592
3.44082
2.709
-35.9694
-29.8939
0.137967
2.93891
1.23958
4.13956
2.35024
2.57747
14.8741
1.36148
64.6144
11.4164
4.0966
1.97728
-59.112
3.85025
-57.7631
3.05478
2.0135
0.829462
-1.84522
2.0955
1.49974
2.15254
0.678515
16.1769
-27.913
-2.27604
0.716269
25.0443
16.7694
2.19904
17.2608
-66.696
7.43704
3.89502
65.6908
2.35781
3.59488
4.48108
1.91659
17.6217
-1.05504
16.4553
0.292444
0.171044
72.0558
1.18949
-26.0259
11.8358
-0.805116
0.903987
4.28767
0.385439
-22.6841
1.20302
-40.3988
-0.129216
2.52675
0.310587
4.16847
-0.191296
4.13904
2.75363
1.98827
1.72232
-0.790389
-14.7335
-0.0903165
17.0643
2.26975
2.87384
2.92395
0.316998
2.37919
16.2392
-26.2892
2.31654
-22.2945
4.25394
49.4759
4.7097
4.34971
2.01728
1.88164
-31.5625
2.32076
2.86634
9.38654
-1.67572
4.0879
4.22212
4.63583
3.87722
6.49846
2.29318
2.45823
13.2148
2.18992
2.94362
3.7442
12.4399
2.40121
-23.6133
-54.7422
4.2431
13.9455
4.06403
3.05076
14.4153
2.94923
-5.93728
2.87895
-42.3876
0.514131
4.00686
1.62126
8.60969
18.5395
0.703073
2.43613
-29.0869
-1.80021
0.026423
-71.7381
3.17604
2.94852
8.42769
7.19507
-33.8158
2.0606
2.51337
4.56284
2.0719
11.9375
-43.6313
3.30265
4.40859
-1.55965
3.43876
3.69678
4.20732
-0.515086
-1.71715
1.95035
1.56653
4.20341
2.61357
1.61689
2.57735
0.328781
2.77904
18.1353
-41.2331
1.82679
-85.9856
0.925523
36.1742
8.33845
71.8936
-8.02002
4.84724
3.01561
-30.1617
3.03351
3.1189
-60.0787
2.43317
14.9202
-32.9572
-86.5904
4.0644
12.0154
1.41881
-11.4994
0.976819
4.0925
10.2803
0.152016
32.0441
3.03975
4.02965
0.959672
2.95452
12.9951
-0.649533
2.32857
-68.4878
0.28993
-30.3149
1.06752
13.8499
3.37632
4.5699
0.912963
0.35517
-20.2271
6.57677
16.5334
1.4113
-30.9252
35.2399
5.14656
71.9576
1.55797
3.22401
19.0228
-5.71148
4.44748
0.483284
1.15643
8.15355
2.21981
3.58571
37.8621
3.18827
-0.0531254
12.7725
-15.2472
0.458412
0.19924
5.6222
0.439654
20.6147
0.586189
2.33663
2.12729
17.8251
1.79105
-0.797976
-25.3307
1.90268
3.8674
17.8676
2.18329
11.839
2.97162
26.2871
3.40682
2.27042
2.31404
4.5941
2.45911
-0.932692
4.20337
0.717043
4.31667
-38.9065
10.1274
2.22964
31.8053
1.7308
2.15829
2.69153
3.15012
2.4777
10.104
3.56422
-4.59625
-23.1406
9.32365
67.9523
5.00084
3.86415
14.6147
2.83896
0.236612
3.25722
2.21137
0.137852
11.3873
3.97212
4.22363
1.88174
0.429404
0.15304
8.07731
2.31543
-3.00304
-1.88726
2.33737
2.26233
6.96811
-3.33621
1.96283
2.47071
0.303524
2.25986
10.3317
4.74934
3.48535
4.45967
-16.615
-70.0966
0.326614
3.77392
2.91358
4.63172
-39.7205
1.40273
2.17585
-0.502152
3.24315
2.06254
0.314
-18.3534
2.83504
2.03511
2.66127
2.72553
0.720889
-26.1334
1.62815
3.54071
2.17358
-3.20348
-33.0361
2.71342
9.45442
4.69812
0.563283
1.2989
2.98037
-15.3696
1.51522
2.77341
11.1742
19.3385
-0.670369
3.46213
2.62826
17.6205
14.1154
12.4051
2.36681
69.1646
2.95249
-2.47712
17.9985
-40.869
2.09367
2.31533
4.22346
5.98175
4.83861
1.6121
-26.8397
2.06259
5.10499
1.69164
4.11771
7.87265
3.34393
2.96022
4.25887
-59.8017
2.62998
1.82817
1.36046
-2.72881
2.21004
0.997137
-24.4398
2.19562
2.90786
4.30907
2.99535
3.80667
4.22552
3.27388
2.11217
5.67597
4.4614
1.28292
4.95791
3.20648
2.53061
1.0729
4.16515
14.8664
1.97211
34.3949
2.76925
0.5628
2.95397
3.57635
2.08164
8.29081
4.06
1.27965
3.79539
4.34725
31.1898
2.23362
3.14373
12.155
-3.52747
1.95794
-28.59
3.74913
31.3592
3.19201
-14.6134
3.82424
-4.56947
2.28476
-12.8214
-0.086766
8.2447
11.8202
9.85116
1.00132
10.7664
2.37536
1.32488
2.32771
-12.1122
3.94201
1.00883
48.1709
11.0256
-64.7431
4.06352
12.6531
1.32102
2.90288
1.99051
2.23116
4.21372
9.2483
2.84499
-1.50447
4.08009
3.68467
3.95416
-7.20965
2.97541
1.64687
8.73942
2.54194
1.43182
-0.644488
-1.48424
3.30402
3.03842
4.85209
3.99749
15.1345
5.70624
2.81088
0.542461
70.7051
2.38007
3.87387
3.55142
2.054
4.20266
0.446862
-13.4369
1.67911
-11.6038
-0.044115
0.381591
-16.2502
-0.91348
0.711665
4.13893
1.56615
2.56849
1.72646
-131.898
-114.696
3.08385
2.97097
2.23072
12.0233
0.617935
2.41689
1.8299
0.429919
0.847637
0.513731
-4.50559
0.416452
-21.0366
24.285
3.12248
11.5335
-1.21394
28.214
2.45229
2.06398
2.78047
0.955991
2.85588
2.75558
11.4426
17.1246
12.9513
-34.1615
55.3678
2.88456
1.773
6.46126
1.85269
6.41428
9.62481
2.23726
11.13
42.4304
12.7457
4.25762
1.68111
2.24164
5.16913
-29.8857
3.74057
-18.6849
3.64843
4.37576
0.794515
10.4224
18.2612
2.22193
4.01458
5.27247
3.61739
2.83359
3.1032
50.02
2.81682
2.22316
10.8977
3.86955
31.7294
-0.21483
2.46748
3.59441
-44.1274
2.92765
2.3878
3.12038
3.35447
0.020411
2.65684
0.0121885
0.166422
2.41456
3.82091
2.37812
49.2946
-3.42614
1.40748
10.2731
-5.04408
0.349846
27.8368
4.28362
-32.3343
29.8207
3.93152
0.0588857
2.73919
2.59994
1.29006
-58.9731
1.34529
29.0365
-0.320424
9.03821
10.0084
-15.034
67.9919
1.12814
-4.08996
16.2601
0.312281
2.03512
2.41023
3.65097
71.5085
15.0203
3.27951
22.0383
0.0372758
19.5016
17.3415
-8.14337
3.65794
-13.8111
7.77515
0.0964189
4.02359
0.413897
16.696
9.44112
3.78135
2.5574
1.44983
11.0453
3.0556
5.95248
16.0667
2.17404
0.370021
19.5189
-0.222238
13.143
-7.83947
3.17298
1.17709
2.75847
3.98862
2.57522
7.45126
4.12635
2.56344
25.0226
1.35926
1.02878
-0.0655696
2.98482
-2.40666
29.8816
14.6952
-0.242226
15.0323
2.38827
4.37803
2.6928
-10.047
53.039
-20.7159
2.49454
2.79831
3.49678
-24.672
-0.209974
2.58921
2.45123
14.5776
2.62225
1.02154
-81.5583
2.99711
4.23356
0.519448
7.60829
2.45076
-1.75322
16.8976
2.60576
2.83825
12.7435
2.57834
10.7144
15.12
1.0363
9.5794
2.2534
11.2007
-2.08855
1.8621
2.16991
2.94017
4.20589
3.33303
2.70917
0.988223
-1.48896
24.8645
2.70983
2.80959
2.61117
11.932
3.0489
3.6506
2.49041
13.797
2.6587
10.0196
-4.49309
-1.26893
6.97236
4.48754
29.4583
71.3241
-4.03721
3.34816
0.666389
66.5994
12.4527
10.2396
6.9717
3.98911
2.8122
1.34769
1.04952
5.50061
3.09171
4.25498
1.74631
4.23037
71.248
3.76734
11.4149
7.05015
2.54316
17.9179
2.61336
17.8779
1.04665
1.53761
2.29934
2.4103
3.91676
1.58148
7.69185
-0.791591
2.62176
5.96152
11.2543
30.4692
3.95017
0.515075
-0.575463
12.4893
-44.978
-18.2672
2.41255
3.26294
2.80726
2.98196