/*--------------------------------*- C++ -*----------------------------------*\
  =========                 |
  \\      /  F ield         | OpenFOAM: The Open Source CFD Toolbox
   \\    /   O peration     | Website:  https://openfoam.org
    \\  /    A nd           | Version:  10
     \\/     M anipulation  |
\*---------------------------------------------------------------------------*/
FoamFile
{
    format      ascii;
    class       surfaceScalarField;
    location    "350";
    object      phi;
}
// * * * * * * * * * * * * * * * * * * * * * * * * * * * * * * * * * * * * * //

dimensions      [0 3 -1 0 0 0 0];

internalField   nonuniform List<scalar> 
16133
(
1.58753
-0.0598278
-0.0583341
-1.47003
-1.42825
0.372859
-0.450913
1.5063
-0.556897
-2.11823
1.63995
1.03517
-0.201645
0.0522355
-2.19617
2.34556
-0.684683
0.126578
2.81379
-2.25569
3.34044
1.52407
-4.12041
-0.744103
-2.30854
0.679166
1.37743
0.251936
-0.0221072
-2.35262
0.595126
1.7796
-1.52277
2.2653
1.49339
-2.23593
0.568826
2.67417
-0.253932
-2.98907
1.68846
-1.59247
0.465132
-0.561132
2.55977
-0.85231
0.721686
-2.42914
-0.206218
-2.87798
1.69087
1.39333
1.0107
-0.878543
0.042651
-0.174805
1.14107
0.0314776
-0.161845
-1.08909
0.811116
-2.52988
2.80785
-0.172522
0.0212924
-0.727314
-3.84849
0.869101
2.95885
0.020535
-3.87316
3.31304
-0.962656
-0.0944596
1.70851
-0.0265154
-0.501688
1.93541
-1.63293
0.19921
-0.351254
-2.14234
2.29194
-2.6944
2.71272
-1.10741
4.45639
-3.41123
0.407785
-1.45297
-2.83793
3.4894
-0.0826347
-0.00302659
0.00491534
-0.0674977
0.065609
0.00804344
-0.00793035
-0.00682203
0.00670889
-0.0988907
-1.54544
1.39693
0.247403
-0.037697
0.0650841
-0.0675892
0.0402021
-3.23402
2.0597
2.11137
-0.590231
-3.2304
1.70925
-0.59163
0.599972
1.68011
0.788054
-2.21148
1.40132
0.000941634
0.198461
-0.0565369
-0.142865
-2.08175
-2.25551
2.22158
2.11567
-1.11943
0.431982
1.19936
-0.51191
-1.61373
-3.18587
2.71784
-0.00887677
0.0712027
-0.0861581
0.0238328
0.0454408
0.0865874
-0.0238597
-0.108169
-3.50397
0.891862
-1.26107
-3.15312
-0.334827
-2.29404
-0.571397
-0.689824
0.102787
-0.157553
0.74459
-0.150458
1.99782
0.00477032
-1.85214
2.94236
-1.23146
-3.32464
2.39741
-1.44501
0.765519
-0.578205
-0.382939
-0.0789447
0.459618
0.00226633
1.80869
0.974759
-0.518154
2.2999
-2.12337
-0.52779
-1.19102
-1.66329
-3.30551
3.11022
-2.20378
2.39907
0.119284
0.0458701
-0.119714
-0.0237938
0.0367668
0.0758597
-0.0888328
-0.016298
0.0481119
0.0547735
-0.053864
-0.0292617
0.0454288
2.79217
-1.38768
-4.59037
-0.00980652
-0.0619219
0.0879339
-0.0162054
-0.615554
0.887833
-0.181074
-0.0912046
2.93406
0.0726705
0.0194436
0.0271706
0.354196
-1.30563
-0.476816
0.0408184
-0.0529371
0.0546861
-0.0425678
1.25999
-2.40264
2.46115
-1.3185
1.37931
-1.13136
-2.59293
1.72355
-1.24885
-0.487746
-0.00853391
-0.119275
0.132747
0.169931
-0.12229
-0.18039
0.764539
1.766
-2.65966
0.658
-1.40958
0.044278
0.0137496
-0.0818214
0.0866511
-0.0130367
0.00450533
-0.0781196
-0.775626
0.122436
1.20083
-0.547642
1.36747
-2.18724
-1.77315
-0.0256777
-0.236962
1.40371
-0.362729
-0.830545
0.438424
0.754855
-2.76474
1.39292
-1.28785
-1.4398
0.874285
1.24468
-1.45928
1.38244
0.864887
1.29077
-1.21608
-0.100371
2.69816
-2.47005
0.583109
-0.811219
1.46778
-1.36999
0.0454328
-0.14322
0.0603084
0.116025
-0.130463
0.0428327
0.0895114
-0.0955773
3.13778
0.533136
-0.972756
-0.455593
0.301857
1.26964
-1.1159
1.46443
-1.32645
-0.329135
0.191167
1.94792
-1.79913
-0.299256
0.98704
-0.64221
0.0150674
-0.359899
1.57516
-0.307023
0.196292
2.13958
0.155403
-0.347075
2.64421
-0.452403
1.56314
-0.155191
1.18893
-0.290186
0.0882916
1.69379
-0.245445
0.126818
-0.579162
-0.995861
0.765474
2.2297
-0.350962
1.03465
-0.235183
-1.03643
0.860722
0.103967
-0.0768577
-1.99575
2.23317
-0.44276
0.205347
0.758138
-0.365697
2.34372
-2.22205
0.776095
-0.897763
0.164339
-0.240481
0.135146
0.678712
2.57309
-0.908076
-0.042942
1.64973
-0.181047
0.498534
-0.66869
0.0211656
4.25373
-1.13713
1.28914
0.108774
-0.107144
0.220823
-1.93709
-0.407105
-2.03824
-0.868493
-1.30552
0.0689493
-0.133427
0.103292
-0.119666
0.157717
-1.388
-1.96446
-0.441226
2.16267
0.511721
1.37249
-1.69796
-0.404414
1.80312
-2.22875
-0.321498
2.10903
1.2018
1.33725
-0.376383
0.682503
-0.473074
-0.572156
1.45684
-0.391369
-1.00177
0.83165
0.825022
-0.654904
-1.54579
1.62938
0.63545
-0.719047
-0.0447124
0.11091
0.00541319
-0.0716105
-0.441815
0.796577
0.488125
-0.602198
2.93246
-2.29416
-0.0453829
0.043449
-0.0108694
0.0128035
0.422747
-0.627941
-1.47545
-0.661976
-2.01284
-1.09154
-0.0930586
-0.0191863
0.0775575
0.0282802
-0.0723636
0.131005
0.108363
-0.167004
-0.890012
0.962668
-0.651821
-0.374195
2.36879
-1.56559
-1.80286
-0.156831
0.00160236
-0.0959438
-2.39371
3.27362
0.0594933
-0.165221
-0.382019
-0.507931
1.58782
-3.10016
2.02027
2.41628
1.03636
-1.01717
0.237461
-0.256651
0.605801
-0.664166
0.226283
-2.2718
-0.353078
0.834513
-0.653954
2.08389
0.849788
-3.4416
-0.354187
0.0625667
-0.0913195
-1.04105
-3.67127
1.61509
-1.47713
2.51577
1.15595
2.97958
1.6547
-0.109334
0.0157557
0.242101
-0.148524
1.80374
0.596865
-0.771228
0.756034
-1.34423
0.490588
1.42569
-0.572049
4.025
0.934167
-1.81116
-3.14801
-0.963541
-0.0853456
-1.92117
2.06873
2.92481
-2.80537
-0.098278
0.292177
1.2203
2.20105
1.93322
-1.98831
1.60686
-1.83004
-2.36902
-0.285118
2.33264
-2.39301
1.51624
-0.957217
1.83399
-2.46653
-3.03627
-0.0800465
-2.00185
0.253109
-0.473583
-0.555153
0.015757
-0.00945448
-0.00027179
-0.00603077
0.122432
0.678745
2.75808
-2.66077
0.752493
-1.23977
-0.555377
-0.497647
-0.443245
0.375146
-0.30198
0.370078
-1.78529
-0.308633
-0.10081
0.140057
0.0258368
-3.04537
-0.848751
-1.75734
0.875503
0.0984417
-0.0704836
-0.646332
-1.0661
1.86988
-2.24358
1.6443
1.94559
2.27764
2.02282
-1.53787
0.137784
0.0630644
-0.14054
-0.0556764
-0.0088929
1.0715
-0.620743
0.59365
-0.828157
1.67667
-1.97824
-0.719399
0.804747
-0.909267
-0.496825
-0.14118
1.56726
1.06538
0.100156
0.0507241
-0.159757
-1.98819
1.68308
0.161552
-0.728026
0.906137
-1.29353
1.8688
-0.417564
-0.44204
0.0193228
0.105299
-0.0838036
2.55735
-0.237982
0.0861441
-0.20235
1.78615
0.90401
2.74249
-0.00531538
0.0291159
-0.301104
0.960813
0.0503094
1.27328
0.13567
-0.111289
-0.156715
0.132334
-0.0549271
0.0519005
-0.0815257
0.0610883
-0.106094
-0.0558045
0.523807
-0.506887
0.358225
0.325513
-0.0384347
-0.227585
0.440249
0.577736
-0.895554
-0.0300746
-0.0816684
0.138144
-0.026401
1.776
0.0538285
-0.0585662
0.00473768
-0.753297
-0.515871
2.15093
-2.98226
0.513523
0.729458
0.254215
-0.290841
-0.265355
-1.87561
-0.00109858
0.718748
-3.45585
-0.0348484
0.0464723
0.010055
-0.0216788
-0.0995393
-3.46384
-0.0846153
-0.0191468
0.0736873
-2.50068
-0.305145
-1.80378
3.43298
-1.71539
-0.03121
-0.12339
0.0729316
0.187075
-0.257091
0.205685
-0.0275343
-0.0660646
0.039735
-0.612805
1.64097
-0.886887
1.47835
0.875894
-0.67757
0.0221504
-0.0378468
0.0156965
-1.15728
-0.559306
0.0358455
-0.0507766
0.0149311
1.20398
-2.58789
0.579017
0.870655
-0.42385
0.541252
0.0312208
0.00462484
0.334609
-0.16024
-0.160168
0.273459
0.181369
-0.0307433
1.37298
-0.433746
-0.532813
2.67508
0.154848
-0.0649846
0.0479201
-0.220013
0.17139
-0.716921
0.945534
-1.68386
-0.377967
1.42209
-0.424816
2.49214
0.046726
0.00517443
0.194775
-1.88206
1.02882
-0.564676
-1.62277
0.893901
0.395269
0.260253
-1.46303
1.33758
-0.151393
-0.0391722
0.079276
3.16555
-0.0748644
0.0398213
0.105082
-0.102071
-0.135206
0.197236
-0.610892
0.167385
-0.0080052
-0.0987242
0.0363365
0.0390196
-0.0753563
-0.0516196
-1.70276
2.81754
-0.299275
0.408479
0.206536
-1.30526
0.0107063
0.011444
-0.766019
-2.99496
0.205483
0.0375673
0.110781
-0.108527
-0.2315
-0.140863
0.00938653
-0.583428
-0.424749
-2.68866
-1.37732
-0.0144401
0.1299
0.116768
-0.212192
-0.897036
-0.024511
0.0021525
-0.0305786
0.0650703
0.147967
-0.149973
-0.222761
-1.8276
-2.13719
0.0426998
0.00402605
0.173058
-1.31232
0.00838314
1.13726
0.0383537
-0.005114
0.0615938
0.0901688
-0.114195
0.428861
0.100232
0.0423874
0.0449028
-0.057506
-0.0202659
0.0136399
-0.143568
0.21187
-0.12484
-0.0177038
0.0189557
0.0432863
-0.000586591
-0.00541328
0.00514147
0.0832413
0.0160928
0.000985533
-0.00702337
-0.158686
1.43233
-1.03276
0.982865
0.037384
-0.119358
-0.0027889
0.236927
-0.285175
-0.416183
0.724663
0.436255
-0.996276
-0.711612
-0.0251012
0.0348963
-0.0397376
0.0153123
-0.0631831
-0.0265497
0.0245424
-0.0108707
0.000527459
0.0427588
0.0235494
-0.0506437
1.58297
-0.0103335
0.0338659
-1.20104
0.389593
-1.42404
-0.483091
-0.0468098
0.00529448
-0.00808341
-0.0296573
0.0145653
-0.0407491
0.0516366
-0.00709787
0.438608
-0.595432
-0.803275
0.602364
-0.0819568
-0.982956
-0.307079
-0.0836586
-0.0383291
-0.958352
-0.519318
-0.0141212
-0.0558143
0.0229965
0.101993
-0.303743
0.0368244
0.0188382
-0.0358
1.37084
-0.0144059
0.032519
-0.0169068
-0.175263
2.07233
0.367202
-0.237352
-0.539973
-0.175799
-0.589645
-0.00505248
0.135489
-0.130436
-0.0104256
0.14519
-0.139817
-0.016469
0.158184
-0.15214
-0.0232346
0.168342
-0.161576
-0.0304303
0.177475
-0.170279
-0.0381302
0.185144
-0.177445
-0.0462181
0.192204
-0.184116
-0.0548032
0.198635
-0.19005
0.204808
-0.196394
-0.0632174
-0.00483336
0.140322
-0.00973442
0.150091
-0.0149798
0.163429
-0.0207937
0.174156
-0.0269324
0.183614
-0.0335135
0.191726
-0.0404181
0.199108
-0.0476451
0.205862
0.212171
-0.0550071
-0.00461335
0.144935
-0.00902304
0.154501
-0.0136229
0.168029
-0.0185771
0.17911
-0.0238049
0.188841
-0.0293633
0.197284
-0.0351743
0.204919
-0.0411977
0.211886
0.218336
-0.047363
-0.00429838
0.149234
-0.00825621
0.158458
-0.0122418
0.172014
-0.016413
0.183281
-0.0207938
0.193222
-0.0254256
0.201916
-0.0302601
0.209754
-0.0352729
0.216899
0.223523
-0.0404595
-0.00395326
0.153187
-0.00740652
0.161912
-0.0107526
0.175361
-0.0141731
0.186702
-0.0177398
0.196789
-0.0215065
0.205683
-0.0254651
0.213713
-0.0296116
0.221045
0.227872
-0.0339605
-0.00354712
0.156734
-0.00642942
0.164794
-0.00910203
0.178033
-0.0117691
0.189369
-0.0145399
0.19956
-0.0174806
0.208623
-0.0205954
0.216827
-0.0238979
0.224348
0.231391
-0.027417
-0.00295607
0.15969
-0.00522843
0.167066
-0.00721436
0.180019
-0.00914447
0.191299
-0.0111329
0.201548
-0.0132582
0.210749
-0.0155572
0.219126
-0.0180417
0.226832
0.234094
-0.0207451
-0.00207404
0.161764
-0.00376206
0.168754
-0.0050746
0.181332
-0.00626786
0.192492
-0.0074877
0.202768
-0.00882365
0.212085
-0.0103151
0.220618
-0.0119907
0.228508
0.235926
-0.0138227
-0.000998519
0.162762
-0.00209346
0.169849
-0.00272113
0.181959
-0.00318737
0.192959
-0.00364732
0.203228
-0.00419516
0.212632
-0.00489966
0.221322
-0.00578287
0.229391
0.237023
-0.00687999
5.15367e-05
0.162711
-0.000368921
0.17027
-0.000247516
0.181838
3.94178e-05
0.192672
0.000345851
0.202922
0.000556016
0.212422
0.000616359
0.221262
0.000479603
0.229528
0.237366
0.000136322
0.000955057
0.161756
0.00135291
0.169872
0.00230775
0.180883
0.0033575
0.191622
0.00440899
0.20187
0.00534975
0.211482
0.00614176
0.22047
0.00673231
0.228937
0.237009
0.00708991
0.00179842
0.159957
0.00317835
0.168492
0.00496881
0.179093
0.00674378
0.189847
0.00846644
0.200148
0.0100894
0.209859
0.0115589
0.219
0.0128597
0.227636
0.235984
0.0138848
0.00296057
0.156997
0.00533258
0.16612
0.00778912
0.176636
0.0101459
0.18749
0.0124356
0.197858
0.0146219
0.207672
0.0166818
0.21694
0.0185766
0.225741
0.234261
0.0202997
0.0044043
0.152593
0.00763407
0.16289
0.0106069
0.173663
0.0134272
0.18467
0.0161685
0.195117
0.018809
0.205032
0.02134
0.214409
0.0237252
0.223356
0.23204
0.0259456
0.00570773
0.146885
0.00969809
0.1589
0.0131396
0.170222
0.0163527
0.181457
0.019469
0.192
0.0225025
0.201998
0.0254379
0.211474
0.0282339
0.22056
0.229409
0.0308655
0.00656212
0.140323
0.011199
0.154263
0.0150785
0.166343
0.0186812
0.177854
0.0221687
0.188513
0.0255731
0.198594
0.0288889
0.208158
0.0320873
0.217362
0.22634
0.0351561
0.00654723
0.133776
0.0118183
0.148992
0.016174
0.161987
0.02023
0.173798
0.02414
0.184603
0.027955
0.194779
0.0316681
0.204445
0.0352765
0.213753
0.222897
0.0387193
0.00568768
0.128088
0.0114203
0.14326
0.016357
0.15705
0.020954
0.169201
0.0253565
0.1802
0.0296334
0.190502
0.0338039
0.200274
0.0378653
0.209692
0.21898
0.0417829
0.00475594
0.123332
0.0105567
0.137459
0.0159331
0.151674
0.0210356
0.164099
0.0259391
0.175297
0.0307092
0.185732
0.0353753
0.195608
0.0399617
0.205105
0.214455
0.0444865
0.0041325
0.1192
0.00972357
0.131868
0.0152899
0.146107
0.0207518
0.158637
0.0260742
0.169974
0.031294
0.180512
0.0364335
0.190469
0.0415055
0.200034
0.209449
0.0465117
0.00376024
0.115439
0.00907312
0.126555
0.0146526
0.140528
0.0203175
0.152972
0.0259503
0.164341
0.031551
0.174911
0.0371305
0.184889
0.0426923
0.194472
0.203929
0.0482118
0.0035387
0.111901
0.0086309
0.121463
0.0141443
0.135014
0.0198825
0.147234
0.0257132
0.158511
0.03161
0.169014
0.0375646
0.178935
0.0435685
0.188468
0.197845
0.0496528
0.00360893
0.108291
0.00849704
0.116575
0.013871
0.12964
0.0195657
0.141539
0.0254942
0.152582
0.0316179
0.16289
0.0379164
0.172636
0.0443276
0.182057
0.191377
0.0507954
0.00435108
0.10394
0.00883096
0.112095
0.0139041
0.124567
0.0194508
0.135992
0.0254049
0.146628
0.0317087
0.156587
0.0383613
0.165984
0.0451742
0.175244
0.185177
0.0513739
0.00521612
0.00914193
0.013995
0.0195242
0.025612
0.0322253
0.0395226
0.0477623
0.0571407
-0.132325
-0.000666584
0.132991
-0.131546
-0.00077923
-0.130644
-0.000901584
-0.129587
-0.00105667
-0.128336
-0.00125162
-0.126834
-0.00150158
-0.125026
-0.00180873
-0.122852
-0.00217336
-0.120245
-0.00260757
-0.117144
-0.00310065
-0.113495
-0.0036494
-0.109256
-0.00423873
-0.104403
-0.00485246
-0.0989234
-0.00548005
-0.0928232
-0.00610011
-0.0861171
-0.00670616
-0.0788381
-0.0072788
-0.0710472
-0.00779102
-0.0628673
-0.00817966
-0.054465
-0.00840248
-0.0460075
-0.00845724
-0.0376558
-0.00835194
-0.0295689
-0.00808655
-0.0219203
-0.00764873
-0.0148768
-0.00704329
-0.00843811
-0.00643873
-0.00240522
-0.00603264
0.00344875
-0.00585401
0.00935322
-0.00590423
0.0154667
-0.00611355
0.0217842
-0.00631722
0.0282202
-0.00643608
0.0347096
-0.00648909
0.0412053
-0.00649573
0.0476528
-0.00644732
0.0539954
-0.00634255
0.0601889
-0.00619338
0.0662011
-0.00601213
0.0720072
-0.00580597
0.0775776
-0.00557034
0.0828846
-0.00530688
0.0879008
-0.00501617
0.0925991
-0.00469818
0.0969614
-0.00436221
0.100973
-0.00401145
0.104636
-0.00366257
0.107954
-0.00331868
0.11095
-0.0029955
0.113644
-0.00269432
0.116064
-0.0024201
0.118245
-0.00218086
0.120222
-0.00197616
0.122033
-0.00181167
0.123704
-0.00167065
0.125252
-0.00154793
0.12669
-0.0014384
0.128027
-0.00133662
0.129276
-0.00124921
-0.00116016
-0.130133
-0.00228291
0.131749
-0.128327
-0.0025847
-0.126292
-0.00293633
-0.123996
-0.00335251
-0.121422
-0.00382655
-0.118551
-0.00437259
-0.11538
-0.00497975
-0.111898
-0.00565561
-0.108107
-0.0063984
-0.10401
-0.00719727
-0.0996119
-0.00804796
-0.0949168
-0.00893393
-0.0899255
-0.00984385
-0.0846499
-0.0107557
-0.0790969
-0.0116531
-0.0732842
-0.0125189
-0.0672454
-0.0133175
-0.0610366
-0.0139999
-0.0547008
-0.0145153
-0.0482602
-0.0148432
-0.04172
-0.0149972
-0.0350877
-0.0149844
-0.0283668
-0.0148072
-0.0215259
-0.0144898
-0.014483
-0.014086
-0.00721012
-0.0137117
0.000199249
-0.0134418
0.00763115
-0.013286
0.0149671
-0.01324
0.0221367
-0.0132833
0.0291646
-0.013345
0.0360951
-0.0133666
0.0429327
-0.0133266
0.049665
-0.0132281
0.0562746
-0.0130568
0.0627427
-0.0128106
0.069037
-0.0124876
0.0751216
-0.0120967
0.0809539
-0.0116382
0.0864999
-0.0111163
0.0917287
-0.0105356
0.0966147
-0.00990211
0.101151
-0.00923443
0.105335
-0.00854592
0.109178
-0.00785409
0.112699
-0.0071843
0.115929
-0.00654856
0.118891
-0.00595775
0.121622
-0.00542461
0.124149
-0.00494775
0.126499
-0.0045303
0.128683
-0.00416046
0.130707
-0.00383487
0.132578
-0.00354258
0.134299
-0.00326849
0.135879
-0.00301855
0.13732
-0.00277713
0.138628
-0.00255747
-0.00234908
-0.138876
-0.00420615
0.1408
-0.136721
-0.00474043
-0.134303
-0.00535412
-0.131605
-0.00605065
-0.128598
-0.00683352
-0.125269
-0.00770122
-0.121606
-0.008643
-0.11761
-0.00965162
-0.113285
-0.010723
-0.108644
-0.011839
-0.103701
-0.0129902
-0.098479
-0.0141564
-0.0929989
-0.0153239
-0.0872837
-0.0164709
-0.0813599
-0.0175769
-0.0752667
-0.0186122
-0.0690324
-0.0195518
-0.0626765
-0.0203558
-0.0561844
-0.0210073
-0.0495309
-0.0214967
-0.0427009
-0.0218272
-0.0356909
-0.0219945
-0.0284877
-0.0220103
-0.0210764
-0.0219012
-0.0134548
-0.0217075
-0.00567635
-0.0214903
0.00217877
-0.0212969
0.0100428
-0.0211501
0.0178538
-0.021051
0.0255518
-0.0209812
0.0331102
-0.0209034
0.0405245
-0.020781
0.0477894
-0.0205914
0.0548811
-0.0203198
0.0617814
-0.0199571
0.0684678
-0.019497
0.0749151
-0.0189349
0.0810965
-0.0182781
0.0869875
-0.0175292
0.0925645
-0.0166933
0.0978189
-0.01579
0.102751
-0.014834
0.107369
-0.0138525
0.111688
-0.0128647
0.115737
-0.0119034
0.119534
-0.0109818
0.123106
-0.0101204
0.126473
-0.00932502
0.129656
-0.008607
0.132667
-0.00795925
0.135509
-0.00737239
0.138181
-0.00683218
0.140683
-0.00633639
0.14301
-0.00586958
0.145166
-0.00542509
0.147152
-0.00500456
0.148978
-0.00460325
0.150639
-0.00421795
-0.00385043
-0.143764
-0.00631759
0.145876
-0.141429
-0.00707605
-0.138835
-0.00794792
-0.135958
-0.00892714
-0.132779
-0.0100126
-0.129279
-0.0112014
-0.125447
-0.0124748
-0.121275
-0.0138239
-0.116773
-0.0152246
-0.111954
-0.0166586
-0.106836
-0.0181077
-0.101436
-0.0195564
-0.0957835
-0.0209765
-0.0898976
-0.0223568
-0.083808
-0.0236664
-0.0775277
-0.0248925
-0.071071
-0.0260085
-0.0644346
-0.0269923
-0.0576095
-0.0278323
-0.0505891
-0.0285173
-0.0433692
-0.029047
-0.0359425
-0.0294213
-0.0283007
-0.029652
-0.0204463
-0.0297557
-0.0123916
-0.0297622
-0.00417528
-0.0297066
0.00413988
-0.029612
0.0124843
-0.0294946
0.0207882
-0.0293548
0.0289885
-0.0291816
0.0370392
-0.0289541
0.0449086
-0.0286504
0.0525689
-0.0282517
0.0599958
-0.0277469
0.0671617
-0.0271229
0.0740472
-0.0263827
0.0806348
-0.0255224
0.0869017
-0.024545
0.0928405
-0.023468
0.0984556
-0.0223084
0.103756
-0.0210907
0.10876
-0.0198382
0.11349
-0.0185825
0.117972
-0.0173461
0.122222
-0.0161531
0.126266
-0.0150258
0.130111
-0.0139655
0.133773
-0.0129869
0.137249
-0.0120828
0.140541
-0.0112519
0.143644
-0.0104751
0.146556
-0.00974465
0.149271
-0.00905055
0.151793
-0.00839171
0.154122
-0.0077546
0.156261
-0.00714369
0.158212
-0.00655346
0.159978
-0.00598482
-0.0054483
-0.151441
-0.00856079
0.153684
-0.148958
-0.00955943
-0.146218
-0.0106877
-0.143197
-0.0119483
-0.139873
-0.013337
-0.13623
-0.0148437
-0.132253
-0.016452
-0.127943
-0.0181342
-0.123298
-0.01987
-0.118324
-0.0216326
-0.113033
-0.0233983
-0.107441
-0.0251482
-0.101564
-0.0268534
-0.0954231
-0.0284981
-0.0890281
-0.0300614
-0.0823963
-0.0315242
-0.0755376
-0.0328671
-0.0684536
-0.0340763
-0.06115
-0.0351358
-0.053623
-0.0360442
-0.0458774
-0.0367926
-0.0379124
-0.0373864
-0.0297331
-0.0378313
-0.0213503
-0.0381386
-0.0127897
-0.0383228
-0.0040944
-0.038402
0.00468193
-0.0383884
0.0134775
-0.0382902
0.0222269
-0.0381042
0.0308662
-0.037821
0.0393384
-0.0374263
0.047593
-0.0369051
0.0555864
-0.0362452
0.0632856
-0.035446
0.0706652
-0.0345026
0.0777012
-0.0334187
0.0843861
-0.0322074
0.0907241
-0.030883
0.096726
-0.0294699
0.102416
-0.027999
0.107818
-0.0264918
0.112966
-0.0249866
0.117886
-0.0235027
0.122606
-0.0220658
0.127143
-0.0206906
0.131504
-0.0193865
0.135697
-0.0181584
0.139714
-0.0170043
0.143545
-0.0159139
0.147176
-0.0148829
0.150602
-0.0139012
0.153816
-0.0129583
0.156815
-0.0120495
0.159588
-0.0111649
0.162142
-0.0103089
0.164479
-0.00948071
0.166608
-0.00868189
0.168539
-0.00791645
-0.00718822
-0.157207
-0.0108907
0.159537
-0.154649
-0.0121173
-0.151848
-0.013489
-0.14878
-0.0150165
-0.145423
-0.0166935
-0.14177
-0.0184967
-0.137807
-0.0204156
-0.133524
-0.022417
-0.128917
-0.024477
-0.123989
-0.0265608
-0.118739
-0.0286477
-0.113175
-0.0307124
-0.107298
-0.0327303
-0.101115
-0.0346813
-0.0946334
-0.0365428
-0.0878589
-0.0382986
-0.080795
-0.039931
-0.0734511
-0.0414203
-0.0658256
-0.0427613
-0.0579256
-0.0439442
-0.0497543
-0.0449639
-0.041324
-0.0458167
-0.0326481
-0.0465073
-0.023751
-0.0470356
-0.0146674
-0.0474064
-0.00544423
-0.0476252
0.00386118
-0.0476938
0.0131843
-0.0476134
0.0224548
-0.0473747
0.0316001
-0.0469663
0.0405511
-0.0463774
0.0492398
-0.0455938
0.0576116
-0.0446171
0.0656262
-0.0434606
0.0732529
-0.0421294
0.0804843
-0.0406502
0.0873249
-0.0390481
0.0937874
-0.0373455
0.0999086
-0.0355912
0.105725
-0.0338155
0.111282
-0.0320486
0.116612
-0.0303169
0.121752
-0.0286428
0.12672
-0.0270339
0.131531
-0.0255012
0.136184
-0.0240398
0.140671
-0.0226452
0.144977
-0.0213106
0.149088
-0.0200254
0.152988
-0.0187823
0.156662
-0.0175759
0.160097
-0.0163926
0.163283
-0.0152361
0.166222
-0.0141036
0.168918
-0.0130049
0.171373
-0.0119356
0.173602
-0.0109107
0.175623
-0.00993774
-0.00900989
-0.164515
-0.0133103
0.166935
-0.16187
-0.0147626
-0.158984
-0.0163745
-0.155845
-0.0181561
-0.152439
-0.0200994
-0.148751
-0.0221842
-0.144775
-0.0243922
-0.140499
-0.026693
-0.135923
-0.0290522
-0.131033
-0.0314508
-0.125827
-0.0338544
-0.120297
-0.0362425
-0.114434
-0.0385931
-0.108234
-0.040881
-0.101693
-0.0430835
-0.0948111
-0.0451808
-0.0875822
-0.0471599
-0.0800187
-0.0489838
-0.0721171
-0.0506629
-0.0638879
-0.0521734
-0.0553343
-0.0535175
-0.0464744
-0.0546766
-0.0373295
-0.0556522
-0.0279277
-0.0564375
-0.0183187
-0.0570154
-0.0085536
-0.0573904
0.00130008
-0.0575475
0.0111743
-0.0574876
0.0209911
-0.0571915
0.0306674
-0.0566427
0.0401235
-0.0558336
0.0492675
-0.0547378
0.0580343
-0.053384
0.0663809
-0.0518072
0.074277
-0.0500256
0.0817328
-0.048106
0.0887676
-0.046083
0.0954001
-0.043978
0.101692
-0.0418832
0.107693
-0.0398161
0.113457
-0.0378131
0.119022
-0.0358815
0.124422
-0.0340436
0.129675
-0.0322868
0.134793
-0.0306195
0.139769
-0.0290152
0.144588
-0.027464
0.149225
-0.0259477
0.153661
-0.0244614
0.157873
-0.0229951
0.161837
-0.0215396
0.165545
-0.0201007
0.168979
-0.0186699
0.172137
-0.0172623
0.175023
-0.0158903
0.177649
-0.0145614
0.180029
-0.0132907
0.182178
-0.0120874
-0.0109474
-0.17175
-0.015771
0.17421
-0.169087
-0.0174246
-0.166207
-0.0192549
-0.163086
-0.0212768
-0.159722
-0.0234638
-0.1561
-0.0258061
-0.152224
-0.028268
-0.148079
-0.0308385
-0.143644
-0.0334866
-0.138919
-0.036176
-0.133875
-0.0388985
-0.128489
-0.041629
-0.122747
-0.0443345
-0.116626
-0.0470021
-0.110114
-0.049596
-0.103195
-0.0520991
-0.0958689
-0.0544861
-0.0881577
-0.056695
-0.0800556
-0.058765
-0.0715629
-0.0606661
-0.0626785
-0.0624019
-0.0534308
-0.0639243
-0.0438493
-0.0652337
-0.0339439
-0.0663429
-0.0238097
-0.0671496
-0.0134895
-0.0677106
-0.00307862
-0.0679584
0.00736831
-0.0679346
0.0177551
-0.0675783
0.0279946
-0.0668821
0.0380077
-0.0658467
0.0476479
-0.0643781
0.056847
-0.062583
0.06559
-0.0605504
0.0738111
-0.0582468
0.0815773
-0.0558722
0.0889311
-0.0534369
0.0958339
-0.0508808
0.102403
-0.048452
0.108698
-0.0461116
0.11477
-0.0438853
0.120668
-0.041779
0.126399
-0.0397749
0.131993
-0.0378812
0.137485
-0.0361114
0.142819
-0.0343491
0.148008
-0.0326532
0.153001
-0.0309408
0.157746
-0.0292062
0.162236
-0.027485
0.166459
-0.0257622
0.1704
-0.0240421
0.174045
-0.022315
0.177393
-0.0206096
0.180449
-0.0189464
0.183226
-0.0173386
0.185733
-0.0157978
0.187998
-0.0143524
-0.0129997
-0.180595
0.18303
-0.018206
-0.177924
-0.0200951
-0.175042
-0.0221378
-0.171935
-0.0243831
-0.168627
-0.0267718
-0.165099
-0.0293346
-0.161336
-0.0320308
-0.157359
-0.0348151
-0.153141
-0.0377045
-0.14857
-0.0407471
-0.143713
-0.0437559
-0.138485
-0.0468572
-0.132829
-0.0499905
-0.126792
-0.0530383
-0.120275
-0.0561139
-0.113373
-0.0590003
-0.105986
-0.0618733
-0.098089
-0.0645921
-0.0897257
-0.0671283
-0.080962
-0.0694299
-0.0717589
-0.071605
-0.0622035
-0.0734798
-0.0522418
-0.0751954
-0.0418529
-0.0767318
-0.0312069
-0.0777956
-0.0203477
-0.0785699
-0.00943118
-0.0788749
0.00158025
-0.078946
0.0125353
-0.0785334
0.0232332
-0.07758
0.0337717
-0.0763852
0.0438667
-0.0744731
0.0534739
-0.0721903
0.0626514
-0.0697279
0.0712797
-0.0668751
0.0794339
-0.0640264
0.0871073
-0.0611104
0.0943581
-0.0581317
0.101421
-0.0555153
0.108165
-0.0528555
0.114692
-0.050412
0.121089
-0.0481757
0.127299
-0.0459856
0.13341
-0.0439919
0.139367
-0.0420691
0.145153
-0.0401348
0.150765
-0.0382648
0.156076
-0.0362525
0.161257
-0.034387
0.166191
-0.0324183
0.170824
-0.0303958
0.175133
-0.0283515
0.179096
-0.0262771
0.182778
-0.0242917
0.186123
-0.0222919
0.189151
-0.0203666
0.191851
-0.0184974
0.19427
-0.0167718
-0.0151237
-0.0837807
0.00842426
-0.0908805
0.00709971
-0.0969926
0.006112
-0.102674
0.005681
-0.108265
0.00559125
-0.113927
0.00566213
-0.119906
0.00597913
-0.126323
0.00641649
-0.132983
0.00666022
-0.139228
0.00624417
-0.144241
0.00501373
-0.147423
0.00318183
-0.148672
0.00124892
-0.148525
-0.00014725
-0.147828
-0.000696992
-0.147151
-0.000677136
-0.14665
-0.000501541
-0.146236
-0.000414084
-0.145712
-0.000524095
-0.144808
-0.00090395
-0.143222
-0.00158534
-0.140813
-0.00240956
-0.137911
-0.00290244
-0.135269
-0.00264181
-0.00227765
-0.0891966
0.0157994
-0.0965111
0.0144142
-0.103587
0.013188
-0.110412
0.0125058
-0.117072
0.0122516
-0.123644
0.0122337
-0.130049
0.0123836
-0.136115
0.0124833
-0.141594
0.0121387
-0.146291
0.0109417
-0.150218
0.00894038
-0.153452
0.00641576
-0.155994
0.00379079
-0.157701
0.00156027
-0.158477
7.85611e-05
-0.158417
-0.000736872
-0.15771
-0.00120935
-0.156487
-0.00163696
-0.154813
-0.00219761
-0.152711
-0.00300612
-0.150209
-0.00408781
-0.147262
-0.00535629
-0.143583
-0.00658133
-0.138544
-0.00768063
-0.00907326
-0.0975866
0.0245533
-0.105889
0.0227168
-0.113836
0.0211346
-0.121384
0.0200537
-0.128523
0.0193906
-0.135259
0.0189701
-0.141497
0.0186211
-0.147105
0.0180909
-0.152019
0.0170535
-0.156345
0.0152677
-0.160176
0.0127714
-0.163563
0.00980258
-0.166501
0.00672869
-0.168864
0.00392323
-0.170446
0.00166088
-0.171128
-5.54871e-05
-0.170931
-0.00140574
-0.169938
-0.00263082
-0.168221
-0.00391371
-0.165833
-0.00539416
-0.162794
-0.0071277
-0.15904
-0.00910977
-0.154355
-0.0112667
-0.148376
-0.0136598
-0.0166493
-0.105361
0.0343367
-0.114485
0.0318412
-0.1231
0.0297496
-0.1312
0.0281531
-0.138759
0.0269499
-0.145749
0.0259596
-0.152103
0.0249753
-0.157766
0.0237536
-0.162751
0.0220386
-0.167159
0.0196765
-0.171096
0.0167081
-0.174615
0.0133215
-0.177685
0.00979818
-0.180195
0.00643319
-0.181956
0.00342275
-0.182832
0.000820043
-0.182756
-0.00148207
-0.181737
-0.00364941
-0.179795
-0.00585527
-0.176963
-0.00822701
-0.173209
-0.0108814
-0.168442
-0.0138769
-0.162447
-0.017262
-0.154958
-0.021148
-0.0257319
-0.112669
0.0449346
-0.122557
0.041729
-0.131794
0.0389864
-0.140397
0.0367559
-0.148354
0.0349069
-0.155651
0.0332571
-0.16226
0.0315847
-0.168167
0.0296601
-0.173408
0.0272799
-0.178061
0.0243294
-0.182202
0.0208485
-0.185863
0.0169829
-0.189001
0.0129361
-0.191514
0.00894661
-0.193271
0.00517907
-0.194127
0.00167661
-0.193998
-0.00161097
-0.192856
-0.00479182
-0.190683
-0.0080282
-0.187462
-0.0114478
-0.183158
-0.0151856
-0.177705
-0.0193303
-0.171015
-0.0239516
-0.163022
-0.0291412
-0.0350694
-0.11964
0.0560478
-0.130172
0.0522601
-0.139981
0.0487961
-0.149079
0.0458535
-0.157461
0.043289
-0.165132
0.0409284
-0.172083
0.0385356
-0.178323
0.0358995
-0.183895
0.0328517
-0.188843
0.0292777
-0.193221
0.0252263
-0.197028
0.0207903
-0.200226
0.0161339
-0.202726
0.0114469
-0.204397
0.00684968
-0.205137
0.00241649
-0.204861
-0.00188679
-0.203494
-0.00615867
-0.200999
-0.0105231
-0.197321
-0.0151264
-0.192415
-0.0200914
-0.186218
-0.0255271
-0.178676
-0.0314941
-0.169757
-0.0380598
-0.0452901
-0.126111
0.0679629
-0.137351
0.0635007
-0.147745
0.0591895
-0.157349
0.0554573
-0.166182
0.0521227
-0.174268
0.0490142
-0.181602
0.0458691
-0.188211
0.0425092
-0.194134
0.038774
-0.199398
0.034542
-0.204031
0.0298591
-0.208015
0.0247745
-0.211291
0.0194103
-0.213774
0.0139292
-0.21537
0.00844622
-0.215979
0.00302573
-0.215515
-0.002351
-0.213907
-0.00776655
-0.211088
-0.0133429
-0.20701
-0.0192044
-0.201617
-0.0254841
-0.194887
-0.0322572
-0.186808
-0.0395731
-0.177441
-0.0474269
-0.0557967
-0.132271
0.0808761
-0.144252
0.075481
-0.155196
0.0701335
-0.165302
0.065564
-0.174591
0.0614113
-0.183108
0.057531
-0.19084
0.0536009
-0.19782
0.0494892
-0.204113
0.0450671
-0.209693
0.0401223
-0.214587
0.034753
-0.218774
0.0289608
-0.222148
0.0227843
-0.224652
0.0164332
-0.226183
0.00997787
-0.226662
0.00350422
-0.226015
-0.00299837
-0.224163
-0.00961818
-0.221033
-0.0164728
-0.216584
-0.023653
-0.210767
-0.0313018
-0.203581
-0.0394435
-0.195021
-0.048133
-0.185164
-0.0572841
-0.0667502
-0.138636
0.0946725
-0.151112
0.0879574
-0.16244
0.0814615
-0.172994
0.0761173
-0.182726
0.0711435
-0.1917
0.0665045
-0.199835
0.0617363
-0.207191
0.0568451
-0.213838
0.0517143
-0.21974
0.0460235
-0.224894
0.0399076
-0.229254
0.0333204
-0.232777
0.0263074
-0.235342
0.0189978
-0.236818
0.0114546
-0.2372
0.00388527
-0.236381
-0.00381692
-0.234329
-0.0116708
-0.230895
-0.0199064
-0.226082
-0.0284655
-0.219933
-0.0374511
-0.21243
-0.0469469
-0.203599
-0.0569643
-0.193671
-0.0672119
-0.0773914
0.842314
-0.284119
0.256583
0.0275969
-0.965314
0.803442
0.161872
0.293801
-0.372321
0.078519
0.358844
-0.407102
0.0482577
0.0137506
-0.523091
0.509339
-0.406503
0.69498
-0.288477
0.296264
0.00833559
-0.304586
-0.0595738
-0.198172
0.257746
3.45223
-2.16315
-1.28908
-0.740473
1.54349
-0.803014
-0.711423
0.177139
0.534283
0.808475
-1.47538
0.666906
-0.430998
-0.525035
0.956029
0.136414
-0.138167
0.00175318
1.23929
-1.07034
-0.168873
-0.719544
-0.245769
0.137668
-0.0169946
-0.120673
0.124464
0.227349
0.0327057
0.173143
-0.205849
-0.379784
0.220783
0.159001
1.38448
0.520878
-1.90536
-0.400392
0.78166
-0.381268
1.12156
-0.876606
-0.244955
-0.846235
0.212272
0.633963
0.97373
0.147833
-1.06634
0.465901
0.60044
-0.548989
0.00553912
0.54345
1.59113
-1.01038
-0.580732
-0.0424749
-0.14832
0.190795
0.362077
0.37675
-0.738828
0.810674
-1.47761
0.666969
0.516936
0.65567
-1.17261
0.883867
-1.80137
0.917503
-0.303957
-0.064034
0.367991
0.601429
0.853164
-1.45459
-0.936527
0.50553
-2.25101
0.522477
1.72853
-0.343658
0.665638
-0.321981
0.269396
0.405462
-0.674793
0.808761
-1.46275
0.653969
-0.581002