/*--------------------------------*- C++ -*----------------------------------*\
  =========                 |
  \\      /  F ield         | OpenFOAM: The Open Source CFD Toolbox
   \\    /   O peration     | Website:  https://openfoam.org
    \\  /    A nd           | Version:  10
     \\/     M anipulation  |
\*---------------------------------------------------------------------------*/
FoamFile
{
    format      ascii;
    class       volVectorField;
    location    "350";
    object      U;
}
// * * * * * * * * * * * * * * * * * * * * * * * * * * * * * * * * * * * * * //

dimensions      [0 1 -1 0 0 0 0];

internalField   nonuniform List<vector> 
10435
(
(1.36451 0.0610561 1.0446e-23)
(1.34989 0.252215 -1.28087e-22)
(2.8794 -0.273235 -7.32493e-21)
(1.66831 0.0192156 3.30681e-21)
(1.94314 0.287952 -3.76662e-21)
(2.47547 0.243005 2.39523e-20)
(2.91424 -0.279783 -2.78436e-20)
(3.07701 -0.216143 2.04662e-20)
(3.15444 -0.255796 8.83783e-20)
(2.72877 -0.0620267 -1.14475e-20)
(1.45388 0.264367 -1.30027e-21)
(2.23919 -0.197013 1.51437e-20)
(2.71152 -0.363935 1.73234e-20)
(0.853048 0.107346 2.77851e-21)
(0.930753 0.111722 4.48691e-21)
(3.0089 -0.242467 -2.84863e-21)
(0.780259 0.0985451 -9.02673e-22)
(2.66524 -0.259909 5.21308e-20)
(3.12725 -0.328751 -3.80198e-20)
(1.41556 0.0525156 -2.34559e-22)
(3.03694 -0.236768 1.3203e-20)
(1.67409 -0.0758099 -5.18326e-21)
(2.96455 -0.231035 8.16654e-20)
(2.75169 -0.659177 -2.16081e-20)
(2.79135 -0.104032 1.435e-20)
(0.228466 0.361284 2.02104e-22)
(0.0648323 0.0152762 4.58001e-22)
(2.79618 -0.324969 1.28421e-20)
(0.278559 -0.132408 -5.00084e-23)
(2.70269 -0.140414 6.75707e-20)
(2.79897 -0.114986 2.34338e-20)
(1.52128 0.277751 -9.86125e-23)
(3.10638 -0.209831 -4.55476e-20)
(0.520031 -0.127923 -2.38522e-22)
(3.05504 -0.340328 2.17514e-20)
(1.2083 0.303329 -5.94432e-22)
(2.99535 -0.31373 3.00759e-20)
(0.179388 0.200016 -1.40525e-21)
(0.374121 0.354629 6.96341e-23)
(3.03259 -0.495233 1.14802e-20)
(2.62377 -0.00570786 -5.37859e-20)
(2.92361 -0.26315 -2.18362e-20)
(0.603758 0.290579 1.71891e-21)
(1.52273 0.0736889 -4.18736e-21)
(2.93832 -0.255144 -5.00561e-20)
(2.89781 -0.625064 4.51325e-20)
(2.5654 0.138795 -2.94054e-20)
(0.457084 0.283982 7.77745e-21)
(3.15718 -0.163886 3.2722e-20)
(1.66512 -0.192918 -3.2122e-21)
(3.07294 -0.235769 -3.76999e-21)
(2.56868 0.0905236 1.35394e-19)
(0.421225 0.368618 3.66503e-22)
(0.364484 -0.213703 -2.92204e-23)
(0.325102 0.360037 -1.32186e-22)
(0.22457 -0.157391 7.15015e-23)
(2.9422 -0.408093 -8.83463e-20)
(0.18994 0.117865 -5.44692e-22)
(0.68351 0.00769283 6.67164e-22)
(3.00198 -0.461532 5.69603e-20)
(0.372109 0.375776 -2.5687e-22)
(1.30418 0.260398 -7.35439e-23)
(0.216393 0.0124172 8.12596e-22)
(2.38988 0.134055 -6.94431e-21)
(2.96005 -0.228996 -1.05661e-19)
(2.85594 -0.250823 5.20177e-20)
(0.635558 -0.0303168 -9.08871e-22)
(0.382993 0.104696 -3.18528e-21)
(3.0393 -0.224313 -2.57686e-20)
(2.56403 -0.672033 2.22521e-21)
(0.315936 -0.231068 3.82401e-23)
(0.185992 0.309634 4.81131e-23)
(0.681689 0.387834 -4.59905e-21)
(2.89146 -0.22573 -7.28307e-20)
(1.01124 0.116008 3.43029e-21)
(0.729335 0.327574 -1.22958e-22)
(2.38158 -0.635118 4.72358e-20)
(2.93242 -0.271154 7.07319e-20)
(3.12563 -0.185839 6.03708e-21)
(1.05007 0.036167 -1.4493e-20)
(1.87851 -0.359842 4.34775e-21)
(1.30581 0.0164854 1.65936e-22)
(0.467259 0.379277 -3.93613e-22)
(0.408048 -0.200333 1.97939e-23)
(2.00563 -0.445162 -9.58665e-21)
(1.1883 0.263357 -1.18219e-20)
(1.28297 0.179392 -5.405e-22)
(1.5003 0.13973 7.35719e-22)
(1.07312 0.22056 1.73074e-21)
(1.3404 0.166915 -3.04805e-23)
(1.56386 0.130758 -3.02743e-22)
(1.64512 0.117845 -6.80353e-22)
(1.35481 0.0115085 4.54675e-22)
(1.14545 0.213374 -8.18343e-21)
(1.39315 0.157016 3.76922e-23)
(1.15005 0.330307 -3.06542e-21)
(1.74228 0.0856752 5.22298e-21)
(0.972057 0.188991 -2.83876e-21)
(0.754586 0.0263831 6.85526e-22)
(1.85087 0.114156 -7.64956e-21)
(1.02089 0.204874 -6.13467e-21)
(1.95911 0.421371 -2.02203e-21)
(1.21667 0.196509 3.30883e-21)
(1.4452 0.14808 1.89089e-22)
(2.08684 0.411782 5.72649e-22)
(1.58889 0.0507804 -3.38106e-22)
(1.40193 -0.00159168 3.21601e-22)
(1.76651 -0.279321 5.17228e-21)
(2.16362 -0.521057 -1.85618e-20)
(1.1208 0.0346822 2.76844e-21)
(1.58069 -0.12612 -1.57011e-21)
(1.83968 0.41533 -8.83941e-22)
(1.251 0.0211697 3.06966e-21)
(1.18922 0.028726 3.12149e-21)
(1.7322 0.152701 -1.57025e-21)
(1.59309 -0.0281224 1.64281e-21)
(1.96788 0.0696767 -4.60504e-21)
(1.2512 0.241707 7.26164e-22)
(1.45799 0.199844 -2.16258e-21)
(1.97265 -0.0313363 -1.56398e-21)
(2.08828 0.0145978 -1.89796e-20)
(0.753778 0.392409 5.13269e-22)
(1.30561 0.223602 4.57833e-22)
(0.97144 0.415123 9.18272e-21)
(1.5228 0.367667 3.28046e-22)
(0.302516 0.371752 -3.71432e-22)
(1.86058 0.0219482 9.57751e-21)
(0.822055 0.403293 5.49629e-22)
(1.9789 0.171627 -1.0247e-20)
(0.0795694 0.232322 1.52225e-22)
(0.89535 0.406449 -2.8056e-21)
(1.44453 0.341062 -1.95047e-21)
(3.04286 -0.24777 -3.36696e-20)
(0.976776 0.0362551 -7.30184e-21)
(0.171369 0.25943 2.5714e-23)
(0.607596 0.400069 2.57877e-23)
(1.1062 0.397626 -8.27685e-21)
(1.76356 -0.0286421 -3.7833e-22)
(1.40582 0.20254 6.50554e-22)
(1.52493 0.00871118 1.29053e-21)
(1.46706 0.0357462 -1.43557e-22)
(2.87996 -0.179099 -1.0018e-19)
(0.582668 -0.0658345 -3.46002e-22)
(2.46952 -0.0426082 8.52209e-20)
(1.77232 -0.138176 5.21946e-22)
(0.867832 0.280222 -9.16224e-21)
(1.04354 0.415932 3.1029e-21)
(2.43363 0.198251 -3.37936e-20)
(0.742956 0.175451 -3.78759e-21)
(2.46659 -0.154681 6.26433e-21)
(0.398424 0.318895 6.13717e-22)
(2.88667 -0.294773 4.97224e-20)
(1.36039 0.111381 -2.35472e-23)
(2.57723 -0.13859 5.52764e-20)
(2.60056 0.10967 -2.99348e-20)
(0.32926 0.351091 -3.71125e-22)
(1.61115 0.38854 3.31418e-21)
(1.35605 0.210306 1.02697e-22)
(2.67698 0.0414295 -3.12215e-20)
(1.32537 0.302129 -3.05085e-22)
(2.73812 -0.215626 -1.22901e-20)
(0.904855 0.0348553 1.57853e-21)
(1.59818 0.200538 6.38365e-21)
(2.14971 -0.327674 6.55276e-21)
(1.09321 0.109852 -6.16672e-21)
(2.12662 0.0999027 4.58176e-20)
(3.12717 -0.233623 -7.73286e-20)
(1.99145 -0.145039 -5.60471e-21)
(2.43049 -0.433519 2.09907e-20)
(2.33725 0.0705937 -1.30107e-19)
(2.74367 -0.035309 3.66678e-20)
(0.639226 0.408686 1.64401e-22)
(0.0587616 -0.0568997 -4.09875e-22)
(0.931221 0.275107 -1.11869e-22)
(2.51966 -0.288503 -2.66326e-20)
(1.28003 0.299627 -3.01791e-22)
(1.25844 0.278161 -1.05713e-21)
(0.567792 0.16973 -1.50437e-21)
(1.5111 -0.0711464 9.10648e-22)
(0.331767 -0.103118 3.41093e-23)
(1.3986 0.253817 6.22665e-22)
(2.35882 0.319754 -2.63506e-21)
(2.35331 -0.164562 -5.22163e-20)
(0.354313 0.383494 -1.03234e-22)
(2.82143 -0.197337 1.28069e-20)
(0.551016 0.335862 -1.98673e-21)
(0.689064 0.357543 4.97172e-21)
(2.96922 -0.255294 -6.27818e-20)
(2.05517 0.282638 4.00223e-21)
(2.53682 0.0170936 -7.47607e-20)
(2.18188 -0.0708021 3.72457e-21)
(0.506049 0.389144 -3.17496e-22)
(0.104436 0.272165 -1.27292e-22)
(1.15881 0.366695 4.48533e-21)
(1.71768 0.408123 1.944e-21)
(3.00491 -0.237282 3.29813e-21)
(0.715609 0.257812 -7.87026e-21)
(1.11769 0.280808 7.64174e-21)
(0.509874 0.22876 -8.35366e-21)
(3.01252 -0.262756 4.40687e-20)
(1.08226 0.165557 7.24229e-21)
(0.24476 0.23407 -2.36517e-22)
(2.76609 -0.333951 -3.81053e-21)
(0.237315 0.182257 1.27196e-22)
(2.81963 -0.294189 -1.55432e-20)
(1.72396 0.225331 4.48672e-22)
(1.51657 0.200884 2.99676e-21)
(1.87588 -0.0889585 -3.18815e-21)
(0.29677 -0.0144404 4.53368e-22)
(1.88555 -0.207954 -3.51754e-21)
(0.448744 0.363155 4.68087e-22)
(2.94013 -0.237677 -1.15069e-19)
(2.26896 -0.0235025 7.73761e-20)
(2.28508 -0.332237 8.57364e-21)
(0.107333 -0.00958912 -9.32041e-23)
(0.816883 0.185952 1.09586e-20)
(1.1765 0.0892504 -2.50046e-21)
(0.464591 0.402503 1.94394e-22)
(0.214527 0.353349 -5.63416e-22)
(0.835097 0.0308398 -6.04547e-22)
(0.381602 -0.13305 -2.8082e-23)
(0.627963 0.108106 -2.7515e-21)
(0.498445 -0.0323336 7.1263e-22)
(0.945334 0.333875 1.56993e-20)
(0.265592 0.356718 -3.32936e-22)
(3.05882 -0.275405 -1.45981e-20)
(0.266852 0.354049 1.25944e-21)
(1.04491 0.284345 -3.77728e-21)
(2.68975 -0.0441481 1.13242e-19)
(0.805209 0.343147 5.8488e-21)
(0.512477 0.111641 6.54607e-21)
(3.10046 -0.259017 7.64095e-20)
(0.241522 0.356472 1.64105e-21)
(2.79222 -0.350617 4.43483e-20)
(0.0755378 0.14105 -5.82244e-22)
(0.701288 0.092163 5.26558e-21)
(2.81863 -0.49785 -5.91932e-20)
(0.227396 0.351148 2.48171e-22)
(2.66314 -0.527982 -2.42594e-21)
(2.79277 -0.0885473 9.18484e-22)
(1.46608 0.0906761 1.20896e-21)
(0.312565 0.379883 -5.1647e-23)
(0.49527 0.406251 1.25768e-22)
(0.276391 -0.180376 1.54456e-23)
(1.65357 0.214098 -1.02034e-20)
(3.14949 -0.205502 2.86726e-20)
(1.08316 0.348758 1.77195e-20)
(3.00255 -0.228434 2.14294e-20)
(0.140862 -0.145548 -4.56208e-22)
(1.23954 0.310182 3.44141e-22)
(0.203728 -0.201927 -6.91895e-22)
(1.16479 0.149471 5.49382e-21)
(2.73728 -0.282452 -2.53496e-20)
(2.00883 -0.274583 -6.58123e-21)
(2.96905 -0.250891 -5.75869e-20)
(2.18497 0.175821 2.43244e-20)
(0.148216 -0.1795 1.68941e-21)
(2.94118 -0.263552 7.83721e-20)
(0.404375 0.378707 2.72849e-23)
(0.330204 0.256764 -2.96593e-22)
(2.91485 -0.278802 3.59343e-21)
(2.70025 -0.00118874 2.09143e-21)
(0.274436 0.371899 -7.83808e-23)
(2.30922 -0.5196 -2.84889e-20)
(1.24588 0.0756668 -1.14806e-21)
(0.600964 0.0572374 -3.45062e-21)
(1.41345 0.102642 5.70242e-23)
(2.89588 -0.181344 5.46649e-20)
(0.44471 0.395294 2.28778e-22)
(1.8333 0.208566 1.50908e-21)
(2.89378 -0.291989 3.83791e-24)
(3.03427 -0.204251 -1.24209e-20)
(2.98687 -0.235175 -7.94147e-21)
(2.81555 -0.180298 -6.02726e-20)
(0.184876 0.348392 9.53501e-22)
(2.08181 -0.0729842 -9.09211e-21)
(0.135861 0.21343 6.21189e-22)
(1.79216 0.307653 8.55169e-22)
(3.00595 -0.243391 1.89641e-20)
(3.06619 -0.186179 5.17329e-21)
(2.76431 -0.201714 2.91012e-20)
(0.63506 0.226493 1.12027e-20)
(2.86664 -0.305086 -2.06571e-21)
(0.990493 0.278345 2.37152e-21)
(1.23532 0.134267 2.31369e-21)
(0.524482 0.402782 1.27717e-22)
(2.18455 0.269868 3.59363e-21)
(0.299811 0.342546 2.61016e-22)
(0.453391 -0.185301 2.53782e-23)
(0.447555 -0.124171 -2.07366e-23)
(1.00666 0.35014 -1.46435e-20)
(1.37881 0.318888 2.31404e-21)
(0.373248 -0.0545259 -2.67888e-22)
(3.01007 -0.218127 2.34535e-20)
(0.349475 0.328057 2.15985e-22)
(0.28013 -0.229099 -1.51579e-21)
(0.799789 0.271553 1.0453e-21)
(1.30917 0.0666329 -3.02297e-22)
(1.68083 0.306067 -1.69212e-22)
(2.84816 -0.134152 3.1415e-20)
(0.443147 0.169439 -1.06395e-20)
(2.52426 -0.517202 -7.34959e-21)
(2.83446 -0.316147 -6.43756e-22)
(0.104739 -0.108576 -7.4956e-22)
(1.59327 0.298736 -1.56569e-21)
(0.890969 0.191514 -6.52499e-21)
(0.671244 0.156934 -3.13414e-21)
(2.67783 -0.38418 -3.68255e-21)
(2.86458 -0.184882 -5.55624e-22)
(0.496657 -0.174339 -3.09871e-23)
(1.45134 -0.0284838 8.09972e-22)
(0.239953 0.281747 6.26057e-22)
(1.20202 0.333935 -8.59531e-22)
(2.29416 0.24797 -1.06721e-20)
(3.14211 -0.291764 -1.61676e-20)
(0.243329 -0.218325 -3.53751e-22)
(0.375816 0.39321 4.92827e-23)
(2.65062 -0.0938308 -1.26098e-19)
(0.46051 0.0580857 4.28587e-23)
(2.11561 -0.186212 8.02347e-21)
(2.20945 0.381589 -2.64988e-21)
(0.203411 -0.0486173 -8.62514e-22)
(1.30202 0.120809 2.45826e-22)
(0.542935 0.396636 4.81539e-23)
(3.09981 -0.1728 -3.08832e-21)
(2.78968 -0.284655 -1.30319e-20)
(0.157154 0.340587 4.23103e-22)
(2.80726 -0.326951 -6.45259e-23)
(0.54459 0.0150188 9.52558e-23)
(0.130044 0.134704 9.18585e-22)
(3.10024 -0.397404 -3.03259e-21)
(0.523716 -0.092147 1.54446e-22)
(0.533259 -0.164239 -2.98108e-24)
(2.87622 -0.295176 1.93418e-21)
(2.63737 -0.263283 2.66997e-20)
(0.264346 0.0804966 1.67934e-21)
(0.230249 -0.207985 -6.02252e-22)
(0.152504 -0.169204 -3.59472e-22)
(0.576229 -0.136465 1.19869e-23)
(0.0964075 -0.0860652 -4.52112e-23)
(0.132037 0.32551 -1.15879e-21)
(0.247386 0.330407 -1.67755e-22)
(0.413682 0.384009 1.47607e-22)
(0.049263 -0.0409025 6.56833e-22)
(0.0732958 -0.0752612 -1.1675e-21)
(0.322891 0.315842 1.86051e-22)
(0.336072 0.0438421 -3.70762e-22)
(0.0244351 0.0965153 1.90071e-22)
(0.575174 0.399867 1.84432e-22)
(3.13255 -0.164421 -1.96136e-20)
(0.559766 -0.151927 4.26969e-23)
(2.81475 -0.23332 2.16904e-21)
(0.0350494 -0.0102012 -1.84292e-22)
(2.78083 -0.337349 -2.50653e-22)
(3.11648 -0.160079 8.42368e-21)
(3.12912 -0.132212 -8.18752e-21)
(2.65102 -0.401065 -6.76468e-22)
(2.91112 -0.206098 -4.18723e-20)
(0.321218 -0.197298 9.80073e-24)
(0.470044 -0.156413 1.73099e-22)
(0.185201 -0.186402 -2.39017e-23)
(0.259103 0.363402 -4.59045e-22)
(0.14379 -0.110224 -3.20058e-24)
(0.486835 0.402006 -1.1924e-22)
(0.149453 -0.0475437 4.75635e-22)
(0.112608 0.303663 -5.56529e-22)
(0.313786 0.153568 4.26402e-21)
(2.40417 -0.307658 -3.28846e-21)
(0.125685 0.303924 1.30487e-22)
(3.1517 -0.16228 2.38657e-20)
(0.287042 0.360889 -1.28618e-22)
(0.0956391 0.273058 8.79823e-22)
(2.59971 -0.422646 -6.69824e-21)
(3.10896 -0.123238 -2.90999e-20)
(0.554111 0.407086 -4.82956e-22)
(0.0270515 0.0320857 -5.49384e-22)
(0.149149 0.0378729 -6.55331e-22)
(0.0464348 0.0659675 9.80055e-23)
(0.417832 -0.165682 -1.2796e-23)
(0.192917 0.352149 -5.18367e-23)
(0.0192809 0.0684886 7.17947e-22)
(0.330377 0.368255 2.17674e-22)
(3.10078 -0.18974 -4.83786e-21)
(0.411452 0.00355406 5.4588e-22)
(3.03275 -0.214116 2.60513e-21)
(3.13023 -0.146903 3.19835e-20)
(2.74836 -0.351322 -2.50274e-22)
(2.70652 -0.375932 1.44373e-20)
(3.1378 -0.140394 -1.48076e-20)
(2.81615 -0.319257 -4.34704e-21)
(3.11031 -0.314921 -1.77427e-20)
(0.879302 0.353065 -3.8697e-22)
(0.540135 0.376265 1.31548e-21)
(0.325063 -0.160117 -1.10405e-22)
(0.270823 -0.216216 -2.8591e-23)
(2.84182 -0.308015 6.37866e-21)
(0.366562 -0.183076 8.60892e-23)
(2.62943 -0.415532 -3.06274e-20)
(0.0286211 0.0947781 -9.96102e-23)
(0.264893 -0.0727387 2.89336e-23)
(0.0721497 0.23116 -1.89212e-22)
(0.450215 -0.0752043 -1.72429e-23)
(0.40109 0.396092 -3.2544e-22)
(2.96544 -0.245847 9.77406e-20)
(0.0993333 0.0659877 3.01648e-22)
(3.06693 -0.201329 1.14396e-21)
(2.55397 -0.408808 -1.10099e-20)
(0.532426 0.397809 -2.50167e-23)
(0.162893 0.339682 -9.94383e-24)
(0.0686416 0.14119 3.53571e-22)
(3.13497 -0.169211 4.42332e-20)
(0.0748127 0.192473 -6.9627e-22)
(0.141486 0.324215 8.93327e-23)
(0.330794 0.372386 5.42189e-22)
(0.186971 -0.131796 -1.73605e-23)
(0.376507 0.21867 -1.6143e-21)
(0.189889 -0.0847507 5.45233e-24)
(2.84013 -0.29853 3.4262e-20)
(0.264378 -0.234106 -3.07539e-23)
(0.190722 0.33037 -1.76483e-22)
(0.232919 -0.103402 4.50851e-23)
(0.603899 -0.100113 1.12394e-22)
(2.59096 -0.428399 -2.08105e-20)
(0.616073 0.411408 -9.63694e-22)
(0.616033 0.403821 1.43337e-21)
(3.08192 -0.130447 -5.98891e-20)
(0.516304 -0.149793 -1.11701e-23)
(0.502322 -0.432656 1.05474e-21)
(0.543896 -0.437524 -5.75675e-23)
(0.607681 -0.439709 -7.17817e-22)
(0.652449 -0.43758 4.07262e-22)
(0.695241 -0.430281 -4.68144e-22)
(0.728799 -0.420495 -1.05659e-21)
(0.759518 -0.408994 2.06657e-22)
(0.785513 -0.396905 2.11503e-22)
(0.812546 -0.383198 2.54952e-22)
(0.544157 -0.420427 -1.03997e-21)
(0.584935 -0.425434 -9.72226e-23)
(0.645966 -0.429114 5.52614e-22)
(0.689751 -0.430292 -1.01426e-21)
(0.728792 -0.425805 7.51572e-22)
(0.759906 -0.418929 1.13916e-21)
(0.787361 -0.410066 -6.62118e-22)
(0.810625 -0.400593 8.14127e-22)
(0.831703 -0.389714 -3.59244e-22)
(0.585178 -0.404166 2.12011e-21)
(0.624002 -0.408179 5.0548e-22)
(0.683016 -0.412639 -1.02462e-21)
(0.725409 -0.415744 4.52978e-22)
(0.761858 -0.413702 -1.20229e-21)
(0.79088 -0.409325 -1.60291e-22)
(0.815693 -0.402953 -1.7055e-23)
(0.836357 -0.395835 -3.34345e-22)
(0.853944 -0.387862 -5.21423e-22)
(0.624652 -0.384155 -1.09055e-21)
(0.661063 -0.386564 1.86167e-22)
(0.717874 -0.391374 6.81044e-22)
(0.758895 -0.395787 9.76515e-24)
(0.793261 -0.395759 4.39633e-22)
(0.820499 -0.393516 1.24861e-21)
(0.843172 -0.389285 -7.38407e-22)
(0.861721 -0.384068 1.34562e-22)
(0.877132 -0.378023 1.7945e-22)
(0.662355 -0.35987 6.61874e-23)
(0.695683 -0.360788 -1.13061e-22)
(0.749865 -0.365976 2.81992e-23)
(0.78937 -0.371356 -2.38572e-22)
(0.82198 -0.373118 1.13124e-22)
(0.847763 -0.372764 -2.50105e-22)
(0.868849 -0.37043 8.99864e-23)
(0.885938 -0.36688 3.89497e-22)
(0.900167 -0.36221 8.58289e-23)
(0.697768 -0.331448 1.12225e-22)
(0.727049 -0.331217 -2.55317e-22)
(0.77824 -0.337087 6.32918e-23)
(0.816197 -0.34333 4.37292e-22)
(0.847342 -0.346771 -1.35067e-22)
(0.872003 -0.34815 -1.82777e-22)
(0.891971 -0.34759 -7.60193e-23)
(0.908097 -0.345646 -5.50885e-22)
(0.921444 -0.342645 2.77124e-22)
(0.729504 -0.300236 1.59119e-22)
(0.754271 -0.298697 2.1328e-22)
(0.802357 -0.305564 5.61362e-23)
(0.838904 -0.312533 -1.82441e-22)
(0.868894 -0.31754 3.66933e-23)
(0.892771 -0.320511 -6.71092e-24)
(0.912032 -0.321599 1.2674e-22)
(0.927574 -0.32118 -1.35263e-22)
(0.940454 -0.319711 -1.01099e-22)
(0.755675 -0.267456 -1.4818e-22)
(0.776982 -0.264141 5.73543e-23)
(0.821986 -0.272205 5.06436e-24)
(0.857289 -0.279654 -5.48605e-24)
(0.886405 -0.286079 -4.28765e-23)
(0.909812 -0.290489 1.61529e-22)
(0.928727 -0.293101 1.83566e-22)
(0.94401 -0.294168 -1.82372e-22)
(0.956731 -0.293782 5.12537e-23)
(0.775214 -0.232262 2.01409e-23)
(0.795351 -0.227618 -1.4788e-23)
(0.837224 -0.237236 -1.76351e-23)
(0.871338 -0.245072 -8.76144e-24)
(0.899795 -0.2528 -1.37126e-23)
(0.923016 -0.258494 -1.88529e-24)
(0.941914 -0.262474 8.63917e-25)
(0.957296 -0.26479 1.47668e-22)
(0.970019 -0.265846 -8.53803e-24)
(0.788181 -0.19328 -4.23469e-23)
(0.809307 -0.188589 1.07595e-23)
(0.847973 -0.200477 2.75174e-23)
(0.880973 -0.208942 3.29332e-23)
(0.909016 -0.217941 -1.06325e-23)
(0.932348 -0.224766 5.83288e-24)
(0.951565 -0.229921 8.34172e-24)
(0.967375 -0.233311 1.86846e-23)
(0.980587 -0.235228 -2.04967e-23)
(0.794591 -0.150358 1.20421e-22)
(0.818029 -0.147 2.75973e-23)
(0.853679 -0.162091 -5.19111e-23)
(0.885963 -0.171541 -1.84091e-23)
(0.914 -0.181729 -1.39306e-24)
(0.937799 -0.189466 1.63645e-23)
(0.957682 -0.19555 6.34572e-24)
(0.974288 -0.199788 1.57713e-23)
(0.988327 -0.202522 -1.64301e-23)
(0.795236 -0.105071 -2.27498e-22)
(0.820624 -0.104524 -5.13277e-23)
(0.853795 -0.123217 8.4156e-23)
(0.886182 -0.133523 -1.90396e-23)
(0.914781 -0.144475 3.04968e-24)
(0.939412 -0.15271 -4.41362e-23)
(0.960234 -0.159345 4.63666e-25)
(0.977835 -0.164122 3.1749e-23)
(0.992945 -0.167951 1.49585e-23)
(0.789117 -0.0609134 -6.26572e-23)
(0.81563 -0.0643065 1.57215e-23)
(0.848659 -0.0851877 2.51457e-24)
(0.882049 -0.095548 -1.25068e-23)
(0.911685 -0.106395 1.00142e-23)
(0.937402 -0.114477 1.10348e-23)
(0.959319 -0.121074 1.98204e-23)
(0.978017 -0.126012 -3.28105e-23)
(0.994511 -0.129738 2.22257e-23)
(0.772816 -0.019676 8.76452e-23)
(0.804351 -0.0261077 -8.49357e-24)
(0.839444 -0.0476856 5.16281e-24)
(0.874321 -0.0573206 -1.64723e-23)
(0.905183 -0.0672391 3.43661e-24)
(0.932054 -0.0745527 2.35124e-24)
(0.955103 -0.0805485 1.51912e-23)
(0.974929 -0.0850947 -2.55288e-24)
(0.992351 -0.0881231 -1.27869e-23)
(0.747536 0.0204846 -2.49375e-22)
(0.787629 0.012047 6.57973e-23)
(0.826527 -0.00919404 -3.87724e-23)
(0.863267 -0.0178128 4.96112e-23)
(0.895425 -0.0263723 -7.75011e-24)
(0.923421 -0.0325834 -2.44785e-23)
(0.947577 -0.037652 -1.75824e-23)
(0.968579 -0.0414183 -2.42048e-23)
(0.987289 -0.0438594 7.24258e-23)
(0.714612 0.0608943 -2.26704e-22)
(0.765538 0.0513689 -1.13088e-22)
(0.809534 0.031702 5.762e-23)
(0.848517 0.0240165 -6.21768e-23)
(0.882061 0.0168189 -3.05207e-23)
(0.911169 0.0116937 1.83011e-23)
(0.936386 0.00758875 1.7918e-24)
(0.958451 0.00467135 -6.94747e-23)
(0.978137 0.00270601 3.66946e-23)
(0.674752 0.103998 -4.63365e-22)
(0.73761 0.0933717 5.60933e-23)
(0.787573 0.0760071 -9.97027e-24)
(0.829152 0.0687551 3.7161e-23)
(0.864292 0.0625257 5.24115e-23)
(0.894629 0.0581825 -2.35861e-22)
(0.920969 0.0548444 1.61265e-22)
(0.944116 0.052698 5.11257e-23)
(0.965096 0.051021 -2.03046e-23)
(0.633927 0.148557 7.78934e-22)
(0.702349 0.137989 -6.20139e-23)
(0.759084 0.123025 4.92255e-23)
(0.803899 0.115809 -7.47941e-23)
(0.841112 0.110091 -1.50301e-23)
(0.872999 0.106197 2.24371e-22)
(0.900672 0.103383 -2.48374e-23)
(0.925036 0.101732 9.89614e-23)
(0.947276 0.100766 1.02358e-22)
(0.596147 0.189569 1.69823e-22)
(0.662851 0.180594 9.38328e-24)
(0.724131 0.169468 7.91696e-23)
(0.77233 0.16288 2.6203e-22)
(0.811994 0.157833 -6.78227e-23)
(0.845756 0.154394 -1.17317e-22)
(0.874986 0.152015 -1.34713e-22)
(0.900745 0.150649 -1.61296e-22)
(0.924312 0.150099 5.05169e-23)
(0.560157 0.224841 -1.42589e-22)
(0.621523 0.218245 1.45158e-23)
(0.684641 0.212237 -2.98504e-22)
(0.735377 0.207544 3.16192e-23)
(0.777316 0.203863 -1.42094e-22)
(0.812974 0.201287 9.65121e-23)
(0.843807 0.199572 6.44692e-22)
(0.870931 0.198693 1.05177e-22)
(0.895569 0.198546 3.32302e-23)
(0.525274 0.255404 -2.40568e-22)
(0.579949 0.250958 6.60133e-22)
(0.642634 0.250116 -3.39055e-22)
(0.694499 0.248295 3.13171e-22)
(0.738046 0.246674 -2.29812e-22)
(0.775276 0.245473 2.144e-23)
(0.807576 0.244735 -2.44966e-22)
(0.836101 0.244461 -2.16693e-22)
(0.862056 0.245076 3.89901e-23)
(0.490627 0.282027 -6.00124e-22)
(0.538322 0.279191 -5.11473e-22)
(0.599391 0.282714 9.5956e-22)
(0.651028 0.284322 -1.36708e-22)
(0.695299 0.28525 7.10492e-22)
(0.733502 0.285879 -2.34776e-22)
(0.766867 0.286439 -6.31619e-23)
(0.796595 0.286919 8.58765e-23)
(0.823097 0.288978 -4.14183e-23)
(0.457116 0.303281 4.91816e-22)
(0.497044 0.302734 3.59529e-22)
(0.55611 0.309742 -5.99478e-22)
(0.606325 0.315279 -5.45786e-22)
(0.650363 0.31902 -5.22181e-22)
(0.688787 0.321711 7.58686e-23)
(0.722677 0.323681 9.53487e-23)
(0.753243 0.325081 -3.33905e-22)
(0.780265 0.328165 8.59882e-22)
(0.425824 0.315276 7.10575e-23)
(0.45732 0.320898 -5.82949e-23)
(0.513517 0.330936 2.31264e-22)
(0.56099 0.340719 -2.81357e-22)
(0.603775 0.347274 4.61863e-22)
(0.64174 0.352084 1.29117e-22)
(0.675785 0.355452 -5.6954e-22)
(0.70729 0.357789 6.06938e-22)
(0.734719 0.363617 -2.24355e-22)
(0.39269 0.321122 -2.72946e-22)
(0.421 0.33868 2.30679e-23)
(0.474019 0.351911 5.43475e-23)
(0.518354 0.364007 1.9085e-22)
(0.558936 0.371949 -1.04103e-22)
(0.595294 0.377424 2.36508e-22)
(0.62851 0.38053 -1.32237e-22)
(0.661467 0.381283 3.41256e-22)
(0.6933 0.388131 2.14591e-23)
(0.466563 0.467579 -3.86487e-22)
(0.459427 0.469466 -4.29324e-22)
(0.451538 0.471199 -1.1276e-21)
(0.443097 0.472576 1.56053e-21)
(0.434308 0.473045 -1.10896e-21)
(0.425278 0.472165 7.85832e-22)
(0.415835 0.469803 2.83405e-22)
(0.40579 0.465836 -6.13909e-23)
(0.395008 0.459969 -4.82424e-22)
(0.383285 0.452016 -2.35475e-22)
(0.370382 0.441839 2.2318e-22)
(0.356076 0.429326 -2.98442e-22)
(0.340226 0.414389 7.48502e-22)
(0.322798 0.396946 -1.94025e-21)
(0.303873 0.376898 3.43094e-21)
(0.283668 0.354167 -3.96181e-21)
(0.262515 0.328716 3.66776e-21)
(0.240675 0.300483 -1.5771e-21)
(0.218159 0.269958 -5.86368e-22)
(0.195042 0.237951 6.15811e-22)
(0.171752 0.205045 -2.26604e-22)
(0.148837 0.171737 4.87523e-22)
(0.126639 0.138697 6.86215e-23)
(0.105043 0.106479 -7.50146e-22)
(0.0836665 0.0762472 5.7261e-22)
(0.0648167 0.0482005 -3.29422e-22)
(0.0519188 0.0209048 3.86386e-22)
(0.0456325 -0.00629157 3.03726e-22)
(0.0459882 -0.0335312 -3.47518e-22)
(0.0512768 -0.0614788 9.46281e-24)
(0.0585678 -0.0903154 -3.26361e-22)
(0.0668585 -0.119616 2.80195e-22)
(0.076637 -0.148731 5.73645e-22)
(0.0881184 -0.177497 -4.44863e-22)
(0.101147 -0.205749 6.79002e-22)
(0.115551 -0.233023 -1.119e-21)
(0.13135 -0.259034 7.2092e-23)
(0.148563 -0.283538 2.58011e-22)
(0.166995 -0.306385 -3.87026e-22)
(0.186324 -0.327472 8.82209e-22)
(0.206223 -0.346729 -4.94206e-22)
(0.226368 -0.36411 -2.17713e-21)
(0.246443 -0.379583 4.2721e-21)
(0.266173 -0.393149 -4.47945e-21)
(0.285335 -0.404854 3.75971e-21)
(0.303751 -0.414768 -2.12272e-21)
(0.321302 -0.422989 1.06444e-21)
(0.337936 -0.429658 -3.42115e-22)
(0.353638 -0.434919 3.43569e-22)
(0.368412 -0.438924 -3.3327e-22)
(0.3824 -0.441776 -5.0404e-22)
(0.395822 -0.443538 -1.80569e-22)
(0.408802 -0.444344 2.32579e-22)
(0.421353 -0.444377 6.61112e-22)
(0.433431 -0.443814 -9.957e-22)
(0.444985 -0.442794 1.30652e-21)
(0.455994 -0.441431 -8.70395e-22)
(0.466436 -0.439837 -3.30805e-22)
(0.476305 -0.438117 -2.58418e-22)
(0.484223 0.420191 -5.68355e-23)
(0.475147 0.418125 -2.41493e-23)
(0.465507 0.41524 -9.06034e-23)
(0.455394 0.411367 -2.82371e-23)
(0.444796 0.406147 -1.52292e-22)
(0.433722 0.399567 3.62728e-22)
(0.422128 0.391688 -4.98839e-23)
(0.410056 0.382402 1.71468e-22)
(0.397552 0.371728 -5.82284e-22)
(0.384601 0.359739 -3.39974e-23)
(0.371143 0.346538 2.67971e-22)
(0.357114 0.332222 3.0207e-22)
(0.342472 0.316853 -9.17018e-22)
(0.327215 0.300453 1.09183e-21)
(0.311412 0.283002 -1.21975e-21)
(0.295188 0.264502 4.36754e-22)
(0.278605 0.244931 8.53612e-22)
(0.261389 0.224663 -4.93725e-22)
(0.243077 0.204174 -1.42553e-22)
(0.223658 0.183459 4.63508e-23)
(0.203665 0.162066 -2.03073e-24)
(0.183638 0.139702 3.35271e-22)
(0.163917 0.116317 -1.7108e-22)
(0.14489 0.0916424 -4.74143e-23)
(0.127415 0.0651872 9.23713e-23)
(0.113264 0.0363201 -2.38811e-23)
(0.103482 0.0053145 1.01634e-25)
(0.0980446 -0.0268004 2.52333e-23)
(0.0968653 -0.0591005 2.37159e-23)
(0.0998416 -0.0907335 -8.31844e-25)
(0.105995 -0.121326 -3.0156e-23)
(0.114468 -0.15098 -9.83603e-24)
(0.125032 -0.17976 -4.43331e-24)
(0.137699 -0.207487 4.93364e-23)
(0.152176 -0.23405 -1.45834e-22)
(0.168163 -0.259342 5.66852e-23)
(0.185456 -0.283236 -9.35197e-23)
(0.203836 -0.305562 7.7042e-23)
(0.223002 -0.326159 4.85944e-24)
(0.242597 -0.344929 -2.14463e-23)
(0.262246 -0.361834 -6.79809e-23)
(0.28161 -0.376891 -5.77822e-23)
(0.300414 -0.390163 -3.39905e-23)
(0.318478 -0.401743 -6.7223e-23)
(0.335721 -0.411738 6.34662e-23)
(0.352155 -0.420258 -1.0024e-22)
(0.367858 -0.427414 5.60311e-23)
(0.382936 -0.43331 1.68225e-23)
(0.397512 -0.438056 -1.05701e-22)
(0.411675 -0.441746 2.74518e-24)
(0.425536 -0.444433 2.32795e-22)
(0.439191 -0.446166 -3.95237e-23)
(0.452566 -0.447034 1.02737e-22)
(0.465464 -0.447198 -3.98559e-22)
(0.477678 -0.446849 4.22823e-23)
(0.489136 -0.446137 1.50076e-22)
(0.499856 -0.445095 -1.16437e-22)
(0.509854 -0.443768 2.73964e-23)
(0.519146 -0.442265 -2.21425e-23)
(0.549035 0.398324 -3.89309e-22)
(0.54197 0.393492 1.20522e-22)
(0.534579 0.3875 -2.23471e-22)
(0.526881 0.380461 1.30186e-23)
(0.518651 0.372282 7.44625e-22)
(0.509764 0.363038 -2.17175e-22)
(0.500128 0.352752 -3.70716e-22)
(0.489687 0.341467 4.50168e-24)
(0.478415 0.329245 2.04841e-22)
(0.466316 0.31616 -5.3692e-23)
(0.453415 0.302287 5.88209e-22)
(0.439751 0.2877 -7.23658e-22)
(0.425368 0.272466 6.75278e-22)
(0.410312 0.256653 -7.65217e-23)
(0.394614 0.24034 -6.59867e-22)
(0.378273 0.223635 2.00631e-22)
(0.361208 0.206675 8.36826e-22)
(0.343288 0.189607 -2.66097e-22)
(0.324534 0.172243 -7.20952e-23)
(0.305213 0.154193 4.09088e-23)
(0.285686 0.135047 -1.9784e-22)
(0.266225 0.11464 4.40323e-23)
(0.247182 0.0927334 -6.0732e-22)
(0.229095 0.0690655 7.02516e-22)
(0.212737 0.0434028 -2.68496e-22)
(0.199135 0.0157658 1.16695e-23)
(0.189184 -0.0134045 4.17423e-23)
(0.18332 -0.0434929 -1.86084e-22)
(0.181626 -0.0738981 1.13627e-22)
(0.183825 -0.103995 6.15414e-23)
(0.189318 -0.133303 1.41522e-22)
(0.197512 -0.161606 -1.43636e-22)
(0.207987 -0.188794 6.25758e-23)
(0.22042 -0.214728 8.30393e-23)
(0.234481 -0.239271 -2.99162e-22)
(0.249843 -0.262331 8.28362e-22)
(0.266197 -0.283836 -5.26946e-22)
(0.283228 -0.303721 -1.05152e-22)
(0.300608 -0.321952 -1.48904e-22)
(0.318017 -0.338536 -5.23029e-23)
(0.335186 -0.353527 -2.15045e-22)
(0.351928 -0.367012 -3.8638e-22)
(0.368158 -0.379096 8.31726e-22)
(0.383884 -0.389882 4.02183e-22)
(0.39919 -0.399457 -7.98105e-22)
(0.414196 -0.407884 -2.7883e-22)
(0.429031 -0.41521 8.44879e-22)
(0.443786 -0.421467 -1.00147e-21)
(0.458519 -0.426686 6.99733e-22)
(0.473288 -0.430917 -1.89131e-23)
(0.487974 -0.434237 3.18781e-22)
(0.502389 -0.436753 9.34601e-23)
(0.516335 -0.438584 -5.03239e-22)
(0.529668 -0.439838 -2.79549e-22)
(0.542293 -0.440616 8.46385e-22)
(0.554128 -0.441028 1.495e-23)
(0.565084 -0.441173 -2.23132e-22)
(0.57514 -0.441164 9.02819e-23)
(0.584285 -0.441045 -2.79139e-22)
(0.591511 0.370715 -1.88752e-23)
(0.585237 0.365023 2.78481e-22)
(0.578813 0.358234 -1.01263e-22)
(0.572163 0.350443 1.3216e-23)
(0.565043 0.341641 3.35318e-24)
(0.557268 0.33193 3.21639e-23)
(0.548656 0.321423 4.51887e-23)
(0.539054 0.310227 1.53598e-22)
(0.52836 0.298439 -8.2506e-23)
(0.51653 0.286133 -9.26842e-23)
(0.503572 0.273365 -9.54469e-23)
(0.489536 0.260174 1.92796e-22)
(0.474499 0.246583 -1.67473e-22)
(0.458557 0.232605 -6.64703e-24)
(0.441811 0.218241 -2.93733e-23)
(0.42436 0.20347 3.20272e-23)
(0.406292 0.188239 -1.25377e-23)
(0.387702 0.172423 -1.57335e-23)
(0.368729 0.155815 -7.17245e-23)
(0.34959 0.138184 1.24963e-23)
(0.330562 0.119321 -2.44991e-24)
(0.311973 0.0990372 -1.82662e-22)
(0.29423 0.0771368 8.68205e-23)
(0.277837 0.0534617 1.42198e-22)
(0.263388 0.0279476 -1.01397e-22)
(0.251527 0.000707241 1.21473e-23)
(0.242785 -0.0279163 1.27099e-22)
(0.237465 -0.0574259 -1.42031e-22)
(0.235663 -0.0872681 4.60392e-23)
(0.237269 -0.116891 -1.26475e-23)
(0.241986 -0.145828 5.8342e-23)
(0.249437 -0.173746 -1.30239e-22)
(0.259252 -0.200402 9.05889e-23)
(0.271071 -0.225608 -5.23282e-24)
(0.284516 -0.249219 -9.30176e-23)
(0.29921 -0.27114 1.36811e-23)
(0.314782 -0.291325 1.02315e-22)
(0.33088 -0.309768 -7.42674e-24)
(0.347194 -0.326513 -5.24271e-23)
(0.363478 -0.341648 8.14204e-23)
(0.37957 -0.355295 2.75745e-25)
(0.395403 -0.367589 -2.71003e-23)
(0.410994 -0.378654 1.58999e-22)
(0.426416 -0.388591 -1.51122e-22)
(0.441771 -0.397467 6.7703e-23)
(0.457154 -0.405318 1.05466e-23)
(0.472634 -0.41217 2.14504e-22)
(0.488183 -0.417992 -1.92441e-22)
(0.503953 -0.422771 1.06986e-22)
(0.519742 -0.426568 9.89278e-23)
(0.535208 -0.429504 1.45343e-22)
(0.550231 -0.431695 -1.2792e-22)
(0.564654 -0.43325 -2.5189e-23)
(0.578301 -0.434315 -5.38052e-23)
(0.591009 -0.435041 -1.08524e-22)
(0.602665 -0.435559 7.36729e-23)
(0.613206 -0.435967 -1.61034e-22)
(0.622643 -0.436359 3.27456e-22)
(0.631008 -0.436796 -8.09384e-23)
(0.645647 0.348499 -5.89277e-22)
(0.640856 0.341735 9.11323e-23)
(0.636029 0.333848 4.44905e-22)
(0.631079 0.32505 -3.02038e-22)
(0.625693 0.315412 5.89791e-23)
(0.619605 0.305123 1.90201e-22)
(0.612544 0.294369 -2.27433e-22)
(0.604274 0.283306 8.40859e-23)
(0.59463 0.272041 2.62711e-22)
(0.583526 0.260627 -5.2647e-23)