/*--------------------------------*- C++ -*----------------------------------*\
  =========                 |
  \\      /  F ield         | OpenFOAM: The Open Source CFD Toolbox
   \\    /   O peration     | Website:  https://openfoam.org
    \\  /    A nd           | Version:  10
     \\/     M anipulation  |
\*---------------------------------------------------------------------------*/
FoamFile
{
    format      ascii;
    class       volScalarField;
    location    "500";
    object      epsilon;
}
// * * * * * * * * * * * * * * * * * * * * * * * * * * * * * * * * * * * * * //

dimensions      [0 2 -3 0 0 0 0];

internalField   nonuniform List<scalar> 
23845
(
0.0392138
0.0576738
0.0634907
0.0152289
0.0415806
0.00234063
0.0723386
0.0113712
0.00209752
0.0262675
0.021551
0.00196156
0.00419671
0.00225239
0.115969
0.0142764
0.00646206
0.00797457
0.00548957
0.00304725
0.0332976
0.0191755
0.0285781
0.00214519
0.0258318
0.00194566
0.0505687
0.0027724
0.0109812
0.00310534
0.0169617
0.0251145
0.136722
0.00843921
0.00197989
0.00245396
0.021031
0.00198599
0.00207369
0.00240841
0.00546089
0.00561136
0.00355133
0.00554417
0.00150493
0.00455541
0.0299867
0.0150236
0.0234095
0.0114873
0.0149943
0.0517697
0.0285303
0.00255474
0.0243047
0.00607645
0.0559468
0.0116952
0.0409611
0.0387281
0.0113519
0.00596481
0.0125923
0.01438
0.00203847
0.0041147
0.054214
0.00144474
0.00139124
0.00667027
0.0110838
0.0479119
0.00238305
0.100399
0.0018896
0.1139
0.00196333
0.00210227
0.0121611
0.00951345
0.0391861
0.0914658
0.0590672
0.0119845
0.0711572
0.0019989
0.078347
0.029947
0.00198755
0.00862039
0.0146331
0.00719157
0.0121355
0.00243218
0.0119707
0.012905
0.00561067
0.0165253
0.00183131
0.0333893
0.00670673
0.0584549
0.0476251
0.0152929
0.0147775
0.0124306
0.00240241
0.00174897
0.0479351
0.00545562
0.0191522
0.00201173
0.0943504
0.0213218
0.00257162
0.0242154
0.00203287
0.0170427
0.0110445
0.0145836
0.00205044
0.0180984
0.00726391
0.0251754
0.0623126
0.0020768
0.0112046
0.011501
0.0472131
0.0332689
0.0674648
0.0359579
0.0256212
0.00227285
0.00839243
0.0445352
0.0139152
0.00194148
0.0457189
0.0021157
0.012268
0.0052416
0.00213792
0.00595279
0.0102028
0.00509122
0.0196519
0.0886348
0.0228495
0.0103179
0.129356
0.00308537
0.0677489
0.00305761
0.089579
0.0161634
0.0454308
0.00216384
0.0885049
0.0118337
0.00890587
0.112932
0.0123002
0.00205395
0.00313634
0.0120583
0.00224129
0.0163933
0.0028875
0.00489258
0.00237664
0.0166722
0.00214846
0.0207902
0.00227654
0.0117801
0.00812704
0.0209055
0.00170191
0.0021337
0.0334168
0.0297892
0.0980098
0.0169845
0.0122445
0.00538153
0.00575475
0.0118682
0.0111026
0.00547792
0.0133383
0.00233465
0.00247354
0.002495
0.00983779
0.00232866
0.0139988
0.0117039
0.0250995
0.0204206
0.0129138
0.00250316
0.0198941
0.0318627
0.0116997
0.0121113
0.0601606
0.0022231
0.0469833
0.00908761
0.00980419
0.014902
0.00928486
0.00297583
0.0192697
0.0227348
0.0274345
0.00629252
0.0179257
0.0624368
0.00253077
0.107852
0.014257
0.014268
0.00517037
0.126348
0.0141372
0.00236626
0.0024251
0.00593722
0.00229545
0.0208286
0.00204161
0.00159592
0.0419334
0.0108516
0.00201843
0.0153491
0.00244908
0.0186413
0.0272369
0.018129
0.0119033
0.0396745
0.016903
0.0136082
0.00237551
0.00138766
0.0118917
0.110913
0.00429931
0.00212804
0.0147238
0.00364997
0.0943711
0.0141106
0.0179465
0.0129647
0.0025828
0.00225718
0.0341543
0.00218606
0.0111255
0.0185222
0.0167454
0.00228151
0.0118469
0.0308629
0.0221084
0.0144399
0.00209905
0.0151542
0.0162673
0.00252299
0.0170228
0.00248746
0.0128017
0.00241714
0.0242745
0.0279665
0.0133315
0.00247877
0.0136415
0.011269
0.00203579
0.0152707
0.0213425
0.0025247
0.0118743
0.0978385
0.011781
0.0186662
0.0135141
0.0127514
0.0118166
0.00201251
0.0198972
0.0024306
0.00202634
0.0116193
0.0942988
0.118392
0.01094
0.0143315
0.00254471
0.0152118
0.0159756
0.0158058
0.00640339
0.0126722
0.0167681
0.0636434
0.00517302
0.00239568
0.036667
0.0118535
0.0173383
0.0274416
0.0139036
0.00276982
0.0171492
0.0156386
0.0329344
0.00304628
0.106854
0.00228837
0.0126842
0.0316536
0.0178337
0.00861542
0.0726697
0.0121359
0.0144066
0.00216889
0.0184979
0.0164583
0.0226366
0.00776824
0.00488135
0.0120642
0.0190914
0.0271379
0.0193225
0.00168939
0.00157353
0.0287831
0.00215305
0.0129116
0.0124194
0.116175
0.0215283
0.0641205
0.0114867
0.0136855
0.0289938
0.00244603
0.00448979
0.00241367
0.0989771
0.0116573
0.033414
0.00211046
0.0189342
0.00990464
0.0110319
0.00228226
0.0240657
0.00255326
0.0112908
0.00190483
0.00528768
0.0147091
0.0313283
0.00196679
0.00223979
0.0140872
0.034545
0.0184148
0.00487227
0.0159123
0.101404
0.00223834
0.0277362
0.00151372
0.00163836
0.00204233
0.00232928
0.0119318
0.0120354
0.0117447
0.0582236
0.00478504
0.0197643
0.0178554
0.0175516
0.0122169
0.0161143
0.00170628
0.00703843
0.00221143
0.0279364
0.0193756
0.0122759
0.022623
0.0494311
0.103915
0.00217422
0.0243799
0.0127899
0.0137645
0.123023
0.00152254
0.0815688
0.0262706
0.048957
0.0409793
0.0236152
0.0152516
0.00223589
0.0231096
0.105976
0.00374592
0.00217293
0.0122498
0.0118066
0.0502841
0.0963194
0.018956
0.0258047
0.0316341
0.00238345
0.00794031
0.0276732
0.00745224
0.00400475
0.00204769
0.0019552
0.00521351
0.0112367
0.0239648
0.11366
0.0760675
0.0140747
0.0452918
0.0190944
0.0193957
0.0030927
0.0215566
0.002237
0.017006
0.0119691
0.00275745
0.0650918
0.002192
0.00163042
0.0247013
0.0391088
0.0341124
0.0121508
0.00258337
0.0495449
0.0136894
0.0135677
0.035991
0.00237617
0.00217645
0.00253022
0.0199359
0.00174992
0.117655
0.00301797
0.00226556
0.0176253
0.0121209
0.0172291
0.038884
0.00249329
0.0171546
0.00277011
0.00862408
0.025219
0.0216099
0.0162217
0.0183684
0.0120867
0.0923182
0.00209102
0.00202665
0.0652916
0.0236891
0.00192526
0.0893407
0.0127971
0.0227804
0.0118737
0.0269557
0.00213026
0.0378999
0.00191251
0.00219596
0.0727786
0.0130523
0.0316446
0.0252992
0.0122722
0.0122598
0.0166307
0.00424383
0.00268099
0.0267657
0.0159299
0.0415624
0.0204199
0.016662
0.00249828
0.00179706
0.0203194
0.126883
0.0991085
0.00473921
0.027192
0.00272093
0.00848505
0.0222681
0.00190109
0.0753317
0.0987231
0.0153074
0.0302998
0.0119326
0.0109613
0.123502
0.0313934
0.0284808
0.00676328
0.00437551
0.00263869
0.0203578
0.0269442
0.0126385
0.0675266
0.00260166
0.0258283
0.0261257
0.00891627
0.0248012
0.0187132
0.00359688
0.00287106
0.00346777
0.00297732
0.00200795
0.0240768
0.00340477
0.0115626
0.0646307
0.0045256
0.0385653
0.00217937
0.00263533
0.0119371
0.0125341
0.0439703
0.00311575
0.00458624
0.0220879
0.0148649
0.00218564
0.0111559
0.0037748
0.00176805
0.0760554
0.00554992
0.00247631
0.0157207
0.0321268
0.0203286
0.0919934
0.0125216
0.0287153
0.00193244
0.00198345
0.00942167
0.0774621
0.023591
0.00420676
0.00245069
0.00235226
0.0129295
0.00226468
0.0295716
0.123382
0.0470362
0.0150366
0.011812
0.00449463
0.00166763
0.00267624
0.00763591
0.00200161
0.0487078
0.00292697
0.0268009
0.104795
0.0200156
0.0306664
0.0131906
0.0278804
0.0821436
0.0153005
0.0254469
0.0479648
0.0570693
0.0315381
0.0297697
0.0484679
0.0260687
0.0464564
0.00325111
0.0028305
0.0278539
0.0110713
0.0273356
0.014359
0.050747
0.0106212
0.00503763
0.0059106
0.00356014
0.0121034
0.00406653
0.00389986
0.0248161
0.0026422
0.0019855
0.10426
0.0490882
0.0158917
0.00198739
0.0147054
0.042176
0.0112302
0.002738
0.00400223
0.035734
0.0291484
0.0350886
0.00353741
0.029115
0.0616207
0.00250453
0.00208065
0.0248896
0.0129524
0.0125137
0.141694
0.042798
0.0245572
0.0165736
0.0201614
0.011643
0.00727244
0.00937151
0.0504412
0.00835239
0.00195934
0.00344129
0.0369524
0.0182215
0.0269236
0.0111015
0.0117602
0.0191093
0.0127873
0.0110094
0.0219427
0.0100173
0.0243245
0.0177803
0.008912
0.0221076
0.0085339
0.00494727
0.00783483
0.00860044
0.0324027
0.00570012
0.00686242
0.0270094
0.0277167
0.00612477
0.00529035
0.0120542
0.0137557
0.0156711
0.0184937
0.0207892
0.010439
0.0230158
0.00949054
0.0207177
0.00811831
0.0164319
0.00751345
0.00778878
0.00828085
0.00653152
0.00558981
0.00583838
0.00455182
0.00585315
0.019546
0.0022543
0.00511051
0.00624396
0.00534212
0.00242347
0.0160744
0.0050626
0.0144115
0.0163318
0.009695
0.00475234
0.00567549
0.00260799
0.0166359
0.0128335
0.0260848
0.00268567
0.0135716
0.0043075
0.0073145
0.00275072
0.00513615
0.0217018
0.00776436
0.0263185
0.00489294
0.00262663
0.00368061
0.00162963
0.00406968
0.012303
0.0115638
0.0023321
0.00446943
0.0243985
0.00390424
0.0038406
0.00323161
0.0828278
0.00480408
0.0014893
0.0307851
0.00604201
0.0217991
0.0219649
0.019076
0.0196305
0.0172394
0.0231798
0.00502098
0.0100347
0.0138719
0.0178132
0.00903876
0.0124815
0.00714262
0.0564024
0.0064127
0.00352404
0.0199381
0.0180251
0.0247738
0.0193153
0.0152847
0.00343745
0.0426933
0.0188321
0.00823393
0.00562707
0.00738875
0.0160357
0.00251827
0.0157615
0.00378825
0.00464516
0.00558077
0.00398913
0.00363986
0.00521268
0.00527873
0.00797997
0.00485573
0.00420633
0.00488667
0.0392116
0.00959923
0.00352691
0.00701425
0.00603312
0.00488092
0.0253574
0.0151322
0.0202698
0.011293
0.00526287
0.00357562
0.0054923
0.00465586
0.0500889
0.0203531
0.019662
0.00946762
0.00351796
0.00991841
0.012517
0.0159219
0.00571592
0.00787696
0.00284755
0.00342939
0.00886058
0.0036899
0.003909
0.00221696
0.00483265
0.00252535
0.00306379
0.00269115
0.00245295
0.00208112
0.00421596
0.00522929
0.00331566
0.00365579
0.0103548
0.00485069
0.00551751
0.043156
0.0218318
0.00185537
0.00221806
0.00446815
0.0236973
0.0150157
0.0212538
0.013198
0.00895046
0.00521587
0.0055443
0.00719441
0.0101405
0.00781763
0.00338927
0.00537013
0.00376133
0.00775362
0.00194245
0.0984643
0.00203944
0.0190894
0.00605822
0.0266887
0.00325483
0.00480046
0.00814322
0.0060339
0.0147753
0.0120541
0.00643774
0.0165571
0.00403023
0.00451059
0.00285019
0.00274913
0.00236916
0.00223865
0.00539334
0.0045802
0.00346076
0.0177739
0.0036948
0.0168409
0.0188397
0.0174119
0.00669899
0.0155903
0.00623835
0.00261987
0.00845522
0.00217652
0.0127005
0.00466467
0.00230418
0.017664
0.00427224
0.00297949
0.0138826
0.00345288
0.00847434
0.0194371
0.0103596
0.00505969
0.00902088
0.00377238
0.00722058
0.0033923
0.0166623
0.0389861
0.00210404
0.00905326
0.0125881
0.0136438
0.0305872
0.0157903
0.00414168
0.00989755
0.00683588
0.0057881
0.128379
0.0212415
0.00535968
0.00468282
0.00296438
0.024859
0.00481069
0.123072
0.00446068
0.00257697
0.00559128
0.00406842
0.00516883
0.00418748
0.00479558
0.0370357
0.00354996
0.0257375
0.00997836
0.0241562
0.00428915
0.0120799
0.0104079
0.0128905
0.0135533
0.00827313
0.0158056
0.00801843
0.0151397
0.0167694
0.019727
0.00728165
0.0176019
0.0173542
0.0109351
0.0268347
0.0212644
0.0153368
0.0234384
0.00335783
0.00647665
0.00827145
0.00567556
0.00264141
0.00516541
0.0136423
0.00553808
0.00323069
0.014777
0.0135576
0.0154301
0.00650364
0.0337178
0.00312984
0.00552845
0.00500222
0.00460447
0.00922125
0.00289861
0.0155603
0.0309225
0.0521294
0.00355577
0.0042786
0.0188511
0.0221025
0.00303862
0.019226
0.0112404
0.01038
0.0143877
0.0184434
0.00713312
0.0170718
0.0221096
0.0192462
0.0262745
0.0259161
0.0276393
0.00393491
0.00796074
0.00771967
0.00418278
0.012947
0.0158881
0.00523103
0.0291048
0.00354948
0.108463
0.00392667
0.00317851
0.0117356
0.00294788
0.00153404
0.00210695
0.00243467
0.00444892
0.00365599
0.00405843
0.00531779
0.0245529
0.0117069
0.00333589
0.0103988
0.00826626
0.0266085
0.0239162
0.0478321
0.018346
0.00338363
0.005859
0.00470022
0.00308925
0.00174803
0.00270328
0.0329556
0.0261143
0.0107957
0.0150015
0.0123162
0.0165689
0.0185378
0.0209457
0.00406296
0.0288754
0.0199522
0.0237969
0.0190974
0.0160277
0.0163991
0.00855169
0.0143599
0.00495008
0.0126869
0.00975544
0.00547737
0.00860907
0.00761191
0.00691452
0.00444481
0.00452623
0.0112302
0.0239798
0.0243346
0.00323629
0.0198464
0.00325248
0.00279508
0.00655376
0.00196627
0.0113899
0.0062477
0.00565955
0.00526337
0.00642796
0.00506921
0.0298651
0.00342612
0.00298084
0.0244888
0.00621267
0.00182439
0.0110397
0.0259903
0.0114957
0.0118306
0.0566221
0.00463075
0.014769
0.0173441
0.0189418
0.00901755
0.0031406
0.0161494
0.014415
0.0141998
0.0122821
0.0105025
0.00953613
0.0366925
0.00830668
0.0204106
0.0036748
0.00658284
0.0323627
0.00675612
0.00802286
0.0550193
0.00587584
0.00188422
0.00340292
0.00520314
0.00277235
0.00396068
0.00328258
0.00351877
0.0266613
0.00480821
0.00432735
0.0310733
0.00284721
0.00308818
0.00308221
0.0488331
0.00501499
0.00392871
0.0269542
0.00298475
0.00186542
0.0034512
0.00451187
0.00529955
0.0209174
0.00309007
0.00387054
0.0127258
0.020726
0.026368
0.0170926
0.013331
0.00343474
0.00704695
0.00493937
0.00562998
0.00332449
0.0262477
0.00751419
0.00321279
0.00293895
0.00887923
0.00769198
0.0292506
0.0130356
0.00336806
0.00470003
0.00334426
0.0260719
0.00721938
0.00252505
0.0209687
0.00356242
0.0130538
0.0031694
0.00223746
0.00278122
0.0106148
0.00447904
0.00478543
0.0193147
0.00318136
0.0246562
0.00767401
0.00325717
0.0153326
0.00419589
0.0129221
0.0139514
0.00996405
0.01792
0.0097395
0.00307955
0.0110238
0.0107305
0.00384024
0.00598611
0.00512675
0.00526746
0.0107551
0.00214148
0.0027567
0.0129032
0.00243872
0.0043854
0.0157849
0.00232666
0.00377653
0.0196362
0.00354503
0.00293824
0.0174607
0.0328315
0.0316699
0.0024561
0.00338134
0.0221628
0.00216988
0.00233828
0.0364692
0.0209431
0.0340728
0.00751271
0.030006
0.0044893
0.00630747
0.0144719
0.0169373
0.00334735
0.01479
0.0392042
0.0421961
0.0032675
0.00414474
0.00292303
0.00206021
0.00272924
0.00499258
0.00376591
0.124893
0.00826374
0.00450323
0.023607
0.00802588
0.0193213
0.00301279
0.0281813
0.0053789
0.00762867
0.0394717
0.004681
0.00935696
0.00264386
0.00370418
0.0618485
0.0026574
0.0441925
0.0147402
0.0221802
0.0183527
0.0129707
0.0301292
0.00389284
0.00390485
0.0279883
0.0040316
0.00417221
0.00437099
0.0369138
0.00264012
0.00336918
0.00477537
0.0427358
0.00502395
0.00725246
0.00607946
0.00283029
0.0201417
0.00960054
0.0116463
0.040714
0.0019306
0.0164061
0.0041524
0.0125157
0.00257364
0.0449798
0.00778263
0.00736696
0.00320603
0.0107024
0.0143821
0.00686786
0.0184159
0.022866
0.00383117
0.00703866
0.0026033
0.0211997
0.0197685
0.00230206
0.00959258
0.00741345
0.0106616
0.0118322
0.0147236
0.00615183
0.0142184
0.0148607
0.0378299
0.00954216
0.0346764
0.00242894
0.0114886
0.00321674
0.0035168
0.0724122
0.0362364
0.0222785
0.00232054
0.0323384
0.00714858
0.0061559
0.0387213
0.00641955
0.0496648
0.0109387
0.044559
0.0140314
0.00225306
0.112773
0.0131653
0.0125466
0.0108483
0.0366552
0.0484539
0.00280819
0.00430025
0.139373
0.0371417
0.0032984
0.0434017
0.0460255
0.00460876
0.0392258
0.00425187
0.0390237
0.00702313
0.0133209
0.00229284
0.0324369
0.0375147
0.00204785
0.113614
0.0409319
0.00240154
0.0134875
0.00381291
0.0214896
0.0315686
0.0118604
0.00299098
0.0285067
0.0321698
0.00717628
0.0425396
0.00664237
0.0039016
0.0110141
0.0116434
0.0362358
0.00273472
0.00305213
0.0270425
0.0087505
0.00431603
0.00671514
0.0033239
0.0126992
0.0115273
0.0328465
0.0598794
0.0415151
0.00282256
0.0125325
0.00290939
0.0100032
0.0136498
0.00566065
0.0111004
0.00276202
0.0396467
0.0186777
0.00318698
0.00313288
0.013454
0.0256338
0.042854
0.0526629
0.016247
0.00637616
0.0119863
0.00244677
0.00291208
0.00419215
0.00165821
0.00242118
0.00425283
0.0331664
0.133256
0.00589326
0.0041681
0.00939543
0.0401703
0.00433487
0.0139989
0.00745165
0.0102943
0.00529851
0.0110548
0.025178
0.0262072
0.0138209
0.00269042
0.0144764
0.0810611
0.0118976
0.00366804
0.0106464
0.0247829
0.013901
0.00306372
0.00287092
0.00689225
0.0125248
0.0127677
0.0128499
0.00242505
0.0140857
0.00386504
0.00256842
0.0547885
0.011862
0.0327917
0.0130577
0.0170446
0.0198163
0.0106989
0.00302271
0.033987
0.00287879
0.00726288
0.00684419
0.0103637
0.0117925
0.014102
0.00848038
0.0131278
0.0279181
0.0119092
0.0183267
0.00325398
0.0533904
0.00266221
0.00256412
0.0246862
0.0268698
0.0110371
0.0568978
0.011568
0.00301343
0.0233992
0.00306453
0.0319905
0.0351352
0.00271079
0.0175762
0.0493118
0.00626673
0.0454146
0.0175022
0.0308104
0.00797992
0.0433678
0.0408145
0.00322111
0.00979543
0.0489629
0.00306026
0.00298321
0.0353389
0.00228197
0.0133609
0.0395104
0.0277228
0.0954709
0.00194859
0.00227666
0.00240377
0.0627242
0.0031501
0.004232
0.00867214
0.0165135
0.00366374
0.00324219
0.00308551
0.0144572
0.0148746
0.00248827
0.0107744
0.00222563
0.00230887
0.00281564
0.074592
0.0215758
0.00242469
0.00280973
0.0225062
0.0294378
0.00451294
0.0166976
0.00238309
0.00228316
0.0378808
0.00320436
0.025148
0.00213834
0.017601
0.0114386
0.139959
0.0142804
0.0917811
0.0637484
0.00289881
0.043073
0.00296105
0.00300429
0.00609195
0.0252803
0.00278125
0.0143188
0.0276418
0.003992
0.00375413
0.0172088
0.0498719
0.0140638
0.0734136
0.0278
0.0321506
0.0025191
0.0404025
0.0288267
0.00207743
0.0211826
0.00231295
0.00243863
0.0531698
0.011069
0.011071
0.0598784
0.0536573
0.00417685
0.0118492
0.00454747
0.0272263
0.00248989
0.0402499
0.0387001
0.00284445
0.0351523
0.00271147
0.00280524
0.00231581
0.012501
0.0164797
0.0975388
0.0408342
0.00351164
0.0560217
0.00243192
0.00247161
0.00206216
0.029637
0.0121655
0.00235748
0.00753241
0.0607966
0.0152604
0.0153455
0.00287903
0.0117751
0.00360339
0.00381055
0.00588501
0.00193556
0.00530628
0.00214023
0.00226149
0.108711
0.00409352
0.00694299
0.00247617
0.012538
0.0132101
0.0341184
0.00169957
0.0128006
0.03066
0.0117783
0.00294289
0.0409099
0.00289912
0.0283462
0.0141087
0.0124932
0.00723324
0.00361299
0.0585633
0.0466474
0.00293619
0.00361748
0.0525908
0.0436626
0.0234239
0.00698104
0.0316786
0.00407623
0.0121558
0.00715595
0.0128872
0.00231932
0.00350534
0.00657594
0.0129345
0.0114577
0.00251396
0.0128437
0.014756
0.0121115
0.0133351
0.0213183
0.0313965
0.0279268
0.00260981
0.0364009
0.037848
0.0350061
0.00171561
0.017371
0.020106
0.013296
0.0423316
0.00232112
0.00282593
0.0291864
0.108671
0.0151598
0.0571754
0.00228884
0.00294915
0.00571567
0.00350132
0.0147785
0.00365061
0.00240106
0.0267222
0.0250749
0.0651697
0.0569867
0.106674
0.0554109
0.0528794
0.0214761
0.0153434
0.0349863
0.00753495
0.0339055
0.002395
0.0216603
0.00201228
0.072203
0.0120594
0.00630322
0.011126
0.0032239
0.00694594
0.00645512
0.00272556
0.0117518
0.00252028
0.0473554
0.0407321
0.00435016
0.0293987
0.0294099
0.0177109
0.0329348
0.14665
0.0116218
0.011498
0.06141
0.0117107
0.0219852
0.00199169
0.0726112
0.00210954
0.0148792
0.0142706
0.00571619
0.03946
0.0283191
0.0020165
0.0125126
0.00346617
0.0697616
0.0305773
0.00916981
0.0933227
0.00593773
0.0270868
0.00439622
0.00665925
0.0604227
0.0202871
0.00936662
0.00316936
0.00387256
0.0134665
0.00392206
0.0884866
0.0129238
0.00875698
0.0610464
0.00199559
0.0114064
0.0113925
0.0026801
0.0253426
0.070864
0.036429
0.0262418
0.0154167
0.0616113
0.0028127
0.0175836
0.00225248
0.00240731
0.0137297
0.00227177
0.0549733
0.0620363
0.0636918
0.0180231
0.0168292
0.0321576
0.00965642
0.00323847
0.00810232
0.00355518
0.0147987
0.00626326
0.00489361
0.00975224
0.122543
0.00228256
0.0800363
0.0460618
0.0113805
0.0119434
0.042817
0.0341597
0.00206491
0.145375
0.00465372
0.00221535
0.00225587
0.133815
0.00340849
0.0026539
0.00310347
0.0344417
0.00428124
0.0117793
0.00707843
0.0101323
0.0103602
0.00291149
0.0284136
0.00432748
0.00536308
0.0320677
0.00246812
0.00959915
0.00450516
0.0412398
0.0151189
0.00261733
0.0259954
0.0357529
0.0633397
0.00414329
0.00256452
0.08199
0.0613356
0.0794022
0.0550966
0.0725937
0.0582576
0.00267399
0.0267627
0.0545078
0.00694487
0.01314
0.0023381
0.0114429
0.0305276
0.0111095
0.0176101
0.0699255
0.0227844
0.0020728
0.00193165
0.00207065
0.0129215
0.0119
0.0170163
0.028442
0.0549962
0.00847757
0.0025514
0.0586374
0.113906
0.0121604
0.00662819
0.0215158
0.00379827
0.0116854
0.0320242
0.0136068
0.0114907
0.0109207
0.0155026
0.0048133
0.0952758
0.0138257
0.069476
0.0439576
0.011237
0.013086
0.011726
0.0400215
0.00597053
0.0145533
0.0246378
0.00652504
0.0122162
0.00789875
0.031064
0.0130535
0.0303953
0.0572563
0.0517628
0.00759586
0.0511478
0.109031
0.00287564
0.0536698
0.00389021
0.0101511
0.0398004
0.00235591
0.00365061
0.0313398
0.00270834
0.00471751
0.00245912
0.00270548
0.0466677
0.00217373
0.0389791
0.0141846
0.0321605
0.00233962
0.00758165
0.00436681
0.0131186
0.00239493
0.0911256
0.0788866
0.0242944
0.0347233
0.0160271
0.0136135
0.0305797
0.00599239
0.0724167
0.0722526
0.0333067
0.00678849
0.0020551
0.00229529
0.0232725
0.0334535
0.00432005
0.00253672
0.00449151
0.0158375
0.00258734
0.00881006
0.0111094
0.0127084
0.0190469
0.00855227
0.00632365
0.00370894
0.056895
0.00614039
0.0123562
0.00753439
0.0117894
0.00886062
0.00958344
0.0110761
0.012541
0.0481522
0.0285831
0.0186169
0.0118657
0.0484166
0.00225201
0.0108593
0.0098209
0.00302913
0.00505568
0.0345808
0.0693289
0.00241837
0.0433773
0.0148319
0.09433
0.0138951
0.059356
0.00482095
0.012241
0.0713684
0.00912091
0.0226984
0.0773875
0.0509565
0.00193612
0.022231
0.00242274
0.0438354
0.0286403
0.0203521
0.00248531
0.00702218
0.0475967
0.00378779
0.0113076
0.00661093
0.0363232
0.00220099
0.0274071
0.00261777
0.0709635
0.00225073
0.00223116
0.00769699
0.0093672
0.0639624
0.0314671
0.00379325
0.00712927
0.00861011
0.00196532
0.0161888
0.00579011
0.0204395
0.0116397
0.088418
0.00203653
0.00259458
0.0462589
0.063483
0.0196208
0.144629
0.0537091
0.00445599
0.0288134
0.0754687
0.00239085
0.0622529
0.0224835
0.0341992
0.00635048
0.066161
0.00200345
0.0496143
0.0020157
0.0558041
0.0119569
0.00256005
0.0858447
0.00374987
0.0529977
0.0404339
0.00756965
0.00363601
0.0940261
0.132181
0.00887091
0.0304844
0.0610397
0.00216417
0.0174051
0.00611404
0.0131119
0.00400483
0.00244954
0.0115035
0.0725695
0.00447515
0.0469776
0.0242422
0.00258192
0.00204835
0.00205693
0.00235191
0.00694568
0.0176618
0.0210537
0.00729878
0.0476988
0.0124413
0.00335672
0.00363598
0.00241301
0.0763767
0.0474491
0.00216738
0.0100693
0.0232123
0.00782799
0.0721747
0.0359953
0.00309133
0.0034715
0.0116533
0.00243242
0.00427686
0.0386773
0.0576278
0.00209881
0.00209751
0.0136802
0.0690847
0.0951353
0.00238815
0.00219756
0.119618
0.0135075
0.00215987
0.00215279
0.0493501
0.0482617
0.108054
0.00656359
0.060805
0.0172107
0.116723
0.0648662
0.00319851
0.0357465
0.00271522
0.0173948
0.00249822
0.0032303
0.0119681
0.0163774
0.00928713
0.0232965
0.00198546
0.00771549
0.0124455
0.0445809
0.00647896
0.0821405
0.0287775
0.0380565
0.00287189
0.0957449
0.0242036
0.011059
0.012068
0.0116685
0.0397353
0.00193227
0.0286511
0.0472577
0.00204676
0.0217977
0.0103081
0.00328479
0.00284767
0.00209737
0.0118228
0.00553832
0.00282127
0.0538953
0.138181
0.00216285
0.0570746
0.0612199
0.0886927
0.0246902
0.033574
0.0786803
0.00218126
0.023846
0.0179677
0.00194941
0.00570216
0.00234206
0.00229972
0.00434044
0.0272076
0.0109147
0.0734476
0.00235815
0.0125772
0.00232976
0.00265449
0.00197966
0.0628084
0.0331069
0.006396
0.00234834
0.0326431
0.0110384
0.0475848
0.0406229
0.042208
0.030352
0.00230177
0.00223265
0.0116892
0.00220715
0.0116934
0.00250455
0.0210168
0.0454502
0.0172201
0.0703878
0.00282344
0.00272059
0.0237063
0.0327759
0.0194123
0.0147304
0.0135656
0.0135612
0.129631
0.0873054
0.0380202
0.0756648
0.0157212
0.00224599
0.00997888
0.00862694
0.0468883
0.00229546
0.00332902
0.0075611
0.0356801
0.0162621
0.021395
0.0113414
0.0125196
0.00235412
0.0615204
0.0281243
0.0290245
0.00225752
0.14077
0.0638312
0.0401176
0.00204057
0.0700762
0.0186117
0.0168259
0.00192699
0.0171653
0.00772502
0.00253604
0.012093
0.0156276
0.022106
0.0204765
0.108094
0.0678266
0.00239164
0.0574073
0.00208848
0.0114826
0.00817156
0.0386455
0.00240432
0.00210151
0.076663
0.0110027
0.00220757
0.0742446
0.0268576
0.0222783
0.00233941
0.00224661
0.0117279
0.0380359
0.0024553
0.00246388
0.00296665
0.0512278
0.00269438
0.0025059
0.00958773
0.00609835
0.0582929
0.00481658
0.0298824
0.00239408
0.0124999
0.0770715
0.0188395
0.0262766
0.0122572
0.00216977
0.00252982
0.00222671
0.00281103
0.0367618
0.00494284
0.00295646
0.0537956
0.0120771
0.0120318
0.0478506
0.0163129
0.00328503
0.00266914
0.00301369
0.0134774
0.0180183
0.00211107
0.0475718
0.0091303
0.0860507
0.0715943
0.0137674
0.00506915
0.0694235
0.00250739
0.00195311
0.0137505
0.114955
0.00406242
0.00273722
0.0143027
0.0175418
0.00225059
0.00236836
0.0217528
0.0128818
0.00191405
0.00209797
0.0111276
0.00640055
0.0404743
0.0019117
0.130883
0.067327
0.00269611
0.0761732
0.011503
0.0367258
0.045194
0.062106
0.057067
0.0711391
0.0172963
0.00872141
0.00726092
0.00199459
0.00252721
0.0115362
0.00990858
0.0432528
0.0719502
0.00221886
0.00228627
0.00243215
0.00222573
0.00224472
0.00238418
0.0106602
0.00565434
0.00245678
0.0102529
0.00292864
0.00275546
0.00375438
0.00297567
0.0285401
0.0305839
0.0177844
0.0193662
0.0113877
0.0376462
0.00720429
0.0112084
0.00230744
0.0134785
0.00238694
0.0152226
0.0700037
0.0159355
0.00585955
0.00243823
0.00614822
0.0462693
0.0361199
0.0117567
0.00277172
0.00796431
0.00213816
0.0538376
0.0114479
0.017311
0.00467284
0.0038109
0.0108353
0.00821898
0.0327269
0.0201348
0.00599181
0.00219291
0.00250306
0.00438584
0.0469631
0.0224201
0.0964353
0.0226764
0.0116663
0.0427721
0.0283098
0.0265805
0.0196249
0.0525418
0.0116176
0.00305402
0.0752181
0.0589708
0.0117606
0.0114375
0.0190644
0.00271344
0.0125265
0.00769887
0.0147848
0.0853622
0.0178602
0.00603092
0.00967345
0.0487428
0.0836945
0.00224439
0.0142497
0.0140519
0.00497513
0.00217358
0.00230564
0.00181986
0.00560743
0.00269907
0.00211051
0.128809
0.01028
0.0508781
0.056169
0.0134342
0.00230317
0.0241928
0.0252763
0.0197357
0.0105783
0.0137537
0.00213857
0.110324
0.0365683
0.0702515
0.00159537
0.00249852
0.00237891
0.0153633
0.0188208
0.0131993
0.00252805
0.011708
0.0413819
0.00244959
0.00199027
0.00688683
0.0828485
0.00239633
0.00674831
0.0113647
0.0141228
0.00321208
0.0886676
0.0391839
0.103431
0.0144334
0.025542
0.030116
0.00262602
0.0244762
0.131436
0.013561
0.00675177
0.0135151
0.0540933
0.0197928
0.0161445
0.0116986
0.0316212
0.00232339
0.0397783
0.00197404
0.00227492
0.00263375
0.0346148
0.0105788
0.0479579
0.0850115
0.0130735
0.0231032
0.00237509
0.0213505
0.00213286
0.0106825
0.0294331
0.0278755
0.00214883
0.00234772
0.0491099
0.00175598
0.0634746
0.00235449
0.0626958
0.00252096
0.0319843
0.00231121
0.0559705
0.0131699
0.0313934
0.061049
0.0282003
0.026513
0.0018184
0.0576274
0.0302079
0.0268434
0.0214441
0.0138042
0.0246673
0.0287886
0.00242951
0.0323616
0.0465358
0.00787744
0.0514958
0.102841
0.00235509
0.0118497
0.00379324
0.0634549
0.00234165
0.00233514
0.00226676
0.0333816
0.122692
0.0309178
0.0137147
0.0206231
0.00223428
0.00901624
0.00449388
0.00648007
0.00231487
0.00983076
0.00918172
0.00957542
0.00314039
0.0709112
0.0741052
0.00225931
0.00704944
0.036037
0.045138
0.0272043
0.00278609
0.00210714
0.0108511
0.0314665
0.00245119
0.00191824
0.0951503
0.0232579
0.00225344
0.00646781
0.0215394
0.0212911
0.0408737
0.031936
0.0283543
0.0110223
0.00945881
0.0477062
0.0640761
0.00292698
0.0123751
0.0117126
0.00220843
0.00366619
0.0113683
0.00308146
0.0297197
0.0488111
0.00318438
0.0300691
0.107356
0.00402137
0.0154506
0.00395509
0.036348
0.0220573
0.00858369
0.0121382
0.0857477
0.00934196
0.00669949
0.0117721
0.00694669
0.0796857
0.0492162
0.0511185
0.0107688
0.00682508
0.00346802
0.0111972
0.00214771
0.00195146
0.0100977
0.0210769
0.00382947
0.00806623
0.00980117
0.00232137
0.0465489
0.0114521
0.0133276
0.00221625
0.124057
0.0044164
0.00319565
0.00614464
0.0292991
0.00295778
0.0035873
0.0132131
0.00325115
0.00351537
0.0089653
0.0493433
0.00362959
0.0452947
0.0109677
0.0058749
0.0431034
0.0175002
0.0034155
0.113415
0.0126636
0.0776213
0.00516802
0.0253341
0.00502305
0.0287009
0.129256
0.00310733
0.0189013
0.00878132
0.0121013
0.00214931
0.00218833
0.00468962
0.00276626
0.00361619
0.00336809
0.0176577
0.010432
0.00285922
0.00203329
0.00377687
0.0185562
0.0359686
0.0390365
0.01509
0.00829577
0.133703
0.00244344
0.00239167
0.00490527
0.00234289
0.0023622
0.020074
0.00439758
0.00537435
0.0275732
0.0114318
0.0109668
0.0442703
0.0441842
0.00260162
0.0639048
0.0125609
0.0234322
0.0266447
0.0207449
0.0168429
0.036473
0.00356265
0.0149018
0.00313369
0.0123769
0.00193867
0.0397603
0.00669161
0.00400139
0.0133777
0.0325948
0.0274533
0.00240377
0.0205764
0.0275112
0.0177436
0.00202743
0.00562606
0.00845117
0.0220534
0.00846687
0.129925
0.021193
0.00593503
0.0113394
0.00202911
0.0030311
0.00983593
0.00282906
0.0430041
0.0165379
0.00240626
0.00458257
0.0359154
0.00811244
0.0498815
0.0245321
0.0250669
0.00727646
0.0020295
0.0259599
0.0768351
0.00272311
0.00211653
0.0111484
0.00219485
0.00284444
0.024809
0.00667771
0.0506296
0.0237109
0.0550574
0.00701175
0.021797
0.00259299
0.00220687
0.00275571
0.032126
0.00171548
0.00147731
0.00178264
0.0134746
0.011129
0.00187872
0.02732
0.0616334
0.0368923
0.00273415
0.0257853
0.0922252
0.0378255
0.00252615
0.0143945
0.00411901
0.0606453
0.00214668
0.0120313
0.0343138
0.0375893
0.00209432
0.00310472
0.0143311
0.0408625
0.0527887
0.00493682
0.0552022
0.00193288
0.00263084
0.0329609
0.0145638
0.00312533
0.0446568
0.013355
0.00227582
0.0116346
0.0331938
0.0117672
0.00214944
0.0022641
0.0292235
0.0100214
0.00227074
0.0279697
0.0672161
0.0417563
0.0140238
0.00195966
0.00328306
0.0159727
0.0482461
0.0161047
0.0520891
0.0767531
0.0655359
0.0020822
0.00211867
0.00571852
0.0027265
0.00254187
0.0300995
0.0377582
0.0022241
0.00227971
0.0021888
0.00192382
0.0209535
0.0163284
0.014342
0.00181094
0.00158144
0.0016783
0.014358
0.0296386
0.0114917
0.00223486
0.0454766
0.00395642
0.00556013
0.0411999
0.0041255
0.0180071
0.0310542
0.00253534
0.0131517
0.00238779
0.0140334
0.0116648
0.0104073
0.0611787
0.00220891
0.0270928
0.0370809
0.0147114
0.00470167
0.0739492
0.0823569
0.00226195
0.00229112
0.0114047
0.0136257
0.00643519
0.0350211
0.0688765
0.0155274
0.0194948
0.0790199
0.0280626
0.0113403
0.0529243
0.0475585
0.0706322
0.0448547
0.0127453
0.0501105
0.00169146
0.00350941
0.00211975
0.0148674
0.00225905
0.0646642
0.0234998
0.0024104
0.00234626
0.00139217
0.00158212
0.00233222
0.015836
0.0225321
0.0119503
0.0288723
0.0299558
0.0169703
0.00223748
0.00254019
0.0142982
0.00574203
0.00244999
0.00214105
0.00343735
0.0190846
0.00213091
0.0112873
0.00204532
0.00399104
0.0282938
0.00198967
0.0123024
0.015361
0.0475311
0.0918198
0.00589828
0.00215627
0.00733256
0.00792149