/*--------------------------------*- C++ -*----------------------------------*\
  =========                 |
  \\      /  F ield         | OpenFOAM: The Open Source CFD Toolbox
   \\    /   O peration     | Website:  https://openfoam.org
    \\  /    A nd           | Version:  10
     \\/     M anipulation  |
\*---------------------------------------------------------------------------*/
FoamFile
{
    format      ascii;
    class       volScalarField;
    location    "500";
    object      k;
}
// * * * * * * * * * * * * * * * * * * * * * * * * * * * * * * * * * * * * * //

dimensions      [0 2 -2 0 0 0 0];

internalField   nonuniform List<scalar> 
23845
(
0.0813559
0.0973608
0.0751299
0.0488862
0.0936844
0.0260741
0.0853896
0.0352622
0.0242382
0.0696736
0.0751509
0.0239571
0.0329966
0.0253799
0.0924984
0.0551912
0.0419929
0.0473921
0.0368017
0.0296261
0.0718874
0.0717513
0.0696794
0.0243698
0.0740954
0.0221929
0.0792814
0.0282439
0.0206358
0.0297497
0.0532205
0.0189094
0.0895478
0.0484279
0.0240596
0.0266894
0.0160664
0.0240996
0.0246244
0.0258089
0.0362116
0.0396737
0.0303032
0.0397029
0.0196738
0.0349201
0.0815828
0.0572928
0.0241996
0.0158854
0.0308381
0.0768048
0.0202424
0.027034
0.0182872
0.0401441
0.0971503
0.0377435
0.0798298
0.0785531
0.0279412
0.0410506
0.0530591
0.0262373
0.0235648
0.0330128
0.0813123
0.0187652
0.0188469
0.0403182
0.031763
0.066534
0.0244623
0.090119
0.0224594
0.0930907
0.0239742
0.0247867
0.0420394
0.0503614
0.0743137
0.0902532
0.0993566
0.0387162
0.0731713
0.0241691
0.0893453
0.0199319
0.0233275
0.0470983
0.0276178
0.0409489
0.0225528
0.0265853
0.03751
0.0280647
0.0388884
0.0596083
0.0222023
0.0865481
0.0420682
0.0825575
0.0974767
0.0121713
0.0221877
0.0405352
0.0263469
0.0214886
0.080947
0.0393166
0.0711825
0.0242559
0.0845022
0.0653383
0.0273008
0.0648813
0.0232121
0.0585562
0.0212439
0.0336071
0.0244859
0.0226901
0.0418864
0.048285
0.0837419
0.0229539
0.0291282
0.0159165
0.0600979
0.0826231
0.0612162
0.0916152
0.0815093
0.0256318
0.0468305
0.0909936
0.0108247
0.0238415
0.0798827
0.0248589
0.0177138
0.0384777
0.0249624
0.0411546
0.0484237
0.0380712
0.0607396
0.0856059
0.0377664
0.0505451
0.0913214
0.0282301
0.090624
0.0289502
0.0814576
0.064081
0.0981494
0.0251214
0.0674888
0.0260199
0.0460372
0.0920056
0.0370606
0.023765
0.0277744
0.0557293
0.0255332
0.0232343
0.0287981
0.0373299
0.0261536
0.0500127
0.0243101
0.0464922
0.0246013
0.0399188
0.0431973
0.0720852
0.0212575
0.0249571
0.0873807
0.083209
0.0908545
0.0676848
0.0520759
0.037149
0.0403108
0.0375395
0.018938
0.0390359
0.0237429
0.0257942
0.0263684
0.0267232
0.0477767
0.0256086
0.0177031
0.0195999
0.0149263
0.0724991
0.0586899
0.026534
0.037183
0.0888191
0.0373843
0.037021
0.0716748
0.025451
0.0819509
0.0504922
0.0517119
0.0216493
0.0457454
0.0291396
0.026751
0.017639
0.0840396
0.0421056
0.0104925
0.0627202
0.025511
0.0919213
0.0173073
0.0590307
0.0384053
0.0919941
0.0109182
0.0259599
0.0264662
0.0374314
0.0258576
0.0260449
0.0244263
0.0197135
0.095259
0.0246193
0.0233494
0.0504385
0.0254206
0.0506996
0.0220996
0.0593327
0.0396507
0.0945663
0.0241025
0.0549203
0.0261905
0.0187749
0.0386539
0.0923145
0.0343957
0.0249015
0.0305532
0.0301945
0.0894019
0.0274109
0.0372833
0.0321833
0.0273474
0.025019
0.0180128
0.0252409
0.0302395
0.0696716
0.0664388
0.0248832
0.0411257
0.0490883
0.0626228
0.0483151
0.0247623
0.0470849
0.0304972
0.0267089
0.0679839
0.0263705
0.0314396
0.0262571
0.0232561
0.0694982
0.0415025
0.0267259
0.0333892
0.0517567
0.0243834
0.0312373
0.0496402
0.0264951
0.0369324
0.0875447
0.0400937
0.0279284
0.0269294
0.0311618
0.0385724
0.0242529
0.0332754
0.0264426
0.0243272
0.022742
0.0673975
0.0904137
0.0244167
0.0487705
0.0269233
0.0507681
0.0263288
0.0306046
0.0410841
0.01633
0.0301193
0.0922336
0.0364355
0.0262472
0.0674009
0.0170342
0.0315193
0.0840796
0.0263707
0.02663
0.0230546
0.0225159
0.0413298
0.0294602
0.091119
0.0257539
0.0443708
0.0794648
0.0376756
0.0493657
0.0828988
0.0547269
0.0295385
0.0251394
0.0365818
0.0514124
0.056772
0.0469648
0.037254
0.0422028
0.0518924
0.0391558
0.071814
0.0202829
0.019964
0.021903
0.025044
0.0297039
0.0432709
0.0869788
0.0571335
0.0594211
0.0154397
0.0318375
0.0204399
0.0262574
0.0358402
0.0249526
0.0891565
0.038807
0.0525761
0.023662
0.0600902
0.0488599
0.0199172
0.02572
0.0432667
0.027202
0.0218836
0.0220009
0.0387295
0.025924
0.0330723
0.0239783
0.0255432
0.0288525
0.0634355
0.0531478
0.0371814
0.046083
0.0911761
0.02553
0.0683149
0.0195978
0.0199905
0.0244372
0.0260276
0.0413221
0.0574902
0.0388119
0.0820917
0.036977
0.0282026
0.0239715
0.0292403
0.0239901
0.0658917
0.0210806
0.0413561
0.0253753
0.0614061
0.0592179
0.0351923
0.0544051
0.0878186
0.0920946
0.0251862
0.0304
0.0210656
0.0343321
0.0928881
0.0192715
0.0876477
0.0420101
0.0994103
0.0689133
0.0655807
0.064724
0.0254824
0.0642503
0.067111
0.0327268
0.024723
0.0430789
0.0324735
0.0881425
0.0623566
0.0561406
0.0519181
0.0544228
0.0259599
0.0472716
0.0383318
0.0461253
0.0332753
0.0230848
0.0239128
0.0366014
0.0238492
0.0533151
0.0929658
0.0530196
0.0210241
0.0575039
0.0574438
0.0316742
0.0297349
0.0654766
0.0254946
0.0484515
0.0418894
0.0271059
0.0474397
0.0252629
0.0201167
0.0380736
0.0810437
0.0910634
0.0333164
0.0270878
0.0805479
0.047052
0.0107492
0.0812583
0.0262396
0.025201
0.0269347
0.0265731
0.0206577
0.0859339
0.029347
0.0256747
0.0562897
0.0315621
0.0286258
0.0934203
0.0257395
0.0252153
0.0281508
0.046401
0.0733824
0.0652471
0.052874
0.0707189
0.0578294
0.089948
0.0247211
0.024326
0.0805673
0.0421566
0.0222247
0.0684653
0.0287996
0.0684551
0.0367895
0.0772348
0.0235583
0.0642659
0.0227246
0.0252824
0.0892996
0.0190098
0.0442246
0.074653
0.0400913
0.0414033
0.066733
0.0324642
0.0278336
0.04261
0.0524354
0.0471789
0.0161747
0.0542104
0.026632
0.0209173
0.0622214
0.0861264
0.0802361
0.0366198
0.0156319
0.0276771
0.0489023
0.0324757
0.0215103
0.0858758
0.0902279
0.028582
0.069145
0.0230814
0.0252422
0.0751155
0.0878963
0.071266
0.0414459
0.0329409
0.0274915
0.0363015
0.0797746
0.0430275
0.0735369
0.0270925
0.0676312
0.0677357
0.0457388
0.0659811
0.071407
0.0306937
0.0286761
0.0302686
0.0285829
0.0242227
0.0473446
0.0304789
0.0370339
0.0926296
0.0358834
0.0469002
0.0251928
0.0275618
0.0385266
0.043959
0.0868689
0.0299311
0.0361957
0.0263037
0.0236386
0.0235901
0.0229133
0.030691
0.0211178
0.086292
0.0376866
0.0266898
0.0571206
0.0866858
0.0422024
0.072673
0.0332553
0.0818825
0.0220086
0.0240896
0.046879
0.0818415
0.0343967
0.034764
0.0247505
0.024693
0.0340004
0.0243451
0.0730547
0.0905144
0.0860472
0.0641623
0.0297445
0.0359003
0.0205661
0.0275081
0.046418
0.0241781
0.0718293
0.028801
0.0814232
0.0919138
0.0506948
0.0830547
0.0331156
0.0817999
0.0875092
0.0623831
0.0740046
0.0993811
0.0957567
0.0866844
0.0369261
0.0925636
0.0822447
0.0996964
0.0303909
0.0282818
0.0824187
0.027947
0.0796468
0.0612928
0.0990854
0.0547682
0.0348575
0.0410916
0.0295449
0.0508788
0.0324587
0.0323703
0.0706028
0.0275919
0.0240854
0.0871702
0.0960726
0.0571118
0.0223077
0.0635951
0.0897382
0.0557162
0.0281113
0.0315673
0.0788866
0.084585
0.0740692
0.0297099
0.0815461
0.0670738
0.0269514
0.024638
0.0806536
0.0424626
0.0271771
0.0847727
0.0463435
0.0728842
0.0377601
0.0730883
0.0562451
0.042721
0.0507024
0.100728
0.0473318
0.0222312
0.0290646
0.092919
0.0578651
0.0809205
0.049231
0.0575246
0.0699744
0.0599094
0.0557437
0.0769666
0.0532729
0.0801583
0.0673548
0.0490579
0.0747936
0.0492786
0.037243
0.0472458
0.0482542
0.0880251
0.0389638
0.0442909
0.0833148
0.080158
0.0418569
0.0383299
0.0582593
0.0620849
0.0659981
0.071417
0.0752853
0.0543565
0.0785078
0.0519064
0.0720966
0.0480944
0.0645849
0.0463179
0.0466126
0.0476881
0.0432575
0.0399959
0.0408897
0.0337295
0.0400599
0.0598261
0.0247099
0.0375683
0.041338
0.0391495
0.0264858
0.0654861
0.0381281
0.063376
0.0672602
0.0523936
0.0369314
0.0395108
0.0274958
0.0609852
0.0549183
0.0821488
0.0268392
0.0614287
0.0352052
0.0454694
0.0281942
0.0376729
0.0764212
0.0466966
0.0815563
0.0374469
0.0270857
0.0321752
0.0206373
0.0342096
0.0574676
0.0332586
0.024667
0.035856
0.0802716
0.0335212
0.0329008
0.0304234
0.0857775
0.0367253
0.0194432
0.0863131
0.0406673
0.0427089
0.0732029
0.0688709
0.0733678
0.0690781
0.0786718
0.0376244
0.0533406
0.0618964
0.0696687
0.0507438
0.055242
0.0451669
0.100922
0.0428227
0.0318771
0.0739385
0.070509
0.0807786
0.0537931
0.0621762
0.0312466
0.0979688
0.0687438
0.0477111
0.040164
0.0459218
0.0295981
0.0265063
0.0642141
0.0330178
0.0346902
0.0399132
0.0338658
0.0323718
0.0386636
0.0379779
0.0468597
0.0369809
0.0347769
0.0367483
0.0877134
0.0520223
0.0316073
0.0446479
0.0414742
0.0364354
0.0815748
0.0632368
0.0725834
0.0550576
0.0383995
0.0317574
0.0389302
0.0361317
0.0984287
0.0690296
0.0732527
0.0493835
0.0318347
0.0528997
0.0245335
0.0649157
0.0367675
0.0425674
0.0261716
0.0286803
0.0448571
0.0300651
0.0305768
0.0231499
0.0341728
0.0246654
0.0274786
0.0254668
0.0243677
0.022423
0.0317399
0.0354824
0.0285335
0.0295905
0.0478403
0.0372814
0.0396921
0.0656197
0.0767922
0.0216385
0.0244924
0.0356569
0.0741126
0.064691
0.0741868
0.0608654
0.0496651
0.0351166
0.036207
0.0408913
0.0475346
0.0472174
0.0310034
0.0389058
0.0315904
0.0431036
0.0238378
0.0905322
0.0244083
0.0656199
0.041045
0.0832145
0.0306667
0.0358712
0.0432589
0.0378864
0.0549063
0.0508521
0.038997
0.0572709
0.0314075
0.0330681
0.0265327
0.0260918
0.0242544
0.0236198
0.0372025
0.0362823
0.0315975
0.0642507
0.0323647
0.0636473
0.0647809
0.0692441
0.0397037
0.0559994
0.038434
0.0254636
0.0439592
0.0233122
0.051834
0.0335911
0.0239435
0.058612
0.0322626
0.0270878
0.0621659
0.0311531
0.0487115
0.0606421
0.0539715
0.0375187
0.0505752
0.0323506
0.04535
0.0312895
0.0661048
0.0399521
0.0247729
0.0507252
0.0593832
0.0617615
0.0864316
0.0661657
0.0344302
0.0478852
0.0441454
0.040589
0.0913938
0.0248968
0.0391924
0.0366787
0.0289114
0.0684852
0.0366641
0.0935635
0.0357161
0.0249191
0.0371854
0.0311952
0.0380669
0.0346849
0.0357309
0.0932963
0.0319663
0.0660242
0.0486363
0.0798673
0.0350561
0.0534674
0.0541732
0.0599045
0.0614338
0.0464884
0.0605358
0.0477385
0.0648606
0.0681428
0.0734129
0.0454883
0.0679381
0.0688219
0.0531112
0.0823361
0.0742428
0.0650127
0.0717851
0.0311294
0.0430047
0.0473322
0.0402808
0.0276633
0.0384734
0.0577152
0.039758
0.0305441
0.0635103
0.0586047
0.064089
0.0425357
0.0752955
0.0300773
0.0384124
0.0378018
0.0363277
0.0497664
0.027046
0.0655784
0.0872264
0.0978781
0.031027
0.0350478
0.0717794
0.0771521
0.0296262
0.0635687
0.0559581
0.0538442
0.0626278
0.0627336
0.0424299
0.0682914
0.0770013
0.0715651
0.0784594
0.0815798
0.0827363
0.032028
0.0468809
0.0463903
0.0346183
0.0573637
0.0620268
0.0374701
0.0242006
0.0313018
0.078163
0.032303
0.0300163
0.0162206
0.0291836
0.0194523
0.0247872
0.0245673
0.0356022
0.0324527
0.0338686
0.0383127
0.0804883
0.0274064
0.0310379
0.0540012
0.0454724
0.0770419
0.071186
0.0957495
0.0706457
0.0312304
0.0404238
0.0366731
0.029604
0.0213582
0.0278091
0.0871576
0.0818103
0.0487213
0.0553488
0.0512947
0.0574673
0.0599139
0.0754854
0.0341795
0.0857167
0.0693538
0.0752874
0.0724552
0.0624629
0.0673918
0.0486219
0.063358
0.0376673
0.0597035
0.0526043
0.0396407
0.049437
0.0465914
0.0443961
0.0357364
0.0357617
0.0561072
0.0658657
0.0802772
0.030564
0.061382
0.0306421
0.0272462
0.0430397
0.023975
0.0565718
0.042204
0.039786
0.0387356
0.0406632
0.0370976
0.0850009
0.0293233
0.0293359
0.0674803
0.0416949
0.0218043
0.0558393
0.0822943
0.0540509
0.0241301
0.074015
0.0357139
0.0600181
0.0642878
0.0718741
0.050139
0.0301183
0.0667554
0.0604932
0.0628725
0.0587362
0.0544217
0.0518961
0.0335621
0.0485701
0.0669446
0.0325176
0.0433479
0.0846691
0.0412853
0.0464414
0.0527617
0.0409581
0.0213893
0.0291952
0.0385873
0.0282925
0.0337517
0.030768
0.0312759
0.0830952
0.0371171
0.0352391
0.0716109
0.0287004
0.0298641
0.0297988
0.0897407
0.0365894
0.0333451
0.0830457
0.0275722
0.0224134
0.0315581
0.0346951
0.0362297
0.0463248
0.0280538
0.0333487
0.0557143
0.07435
0.0821636
0.0682657
0.0608175
0.0311395
0.0446448
0.0375487
0.0399129
0.0308821
0.0826414
0.0457867
0.0301014
0.0291656
0.0501496
0.0460288
0.0646018
0.0390951
0.0310341
0.0361868
0.0306754
0.0772653
0.0441498
0.025004
0.07446
0.032048
0.0455451
0.0302095
0.0255264
0.0283775
0.0528604
0.0355557
0.0345735
0.0709958
0.0302367
0.076161
0.045996
0.0293609
0.0643671
0.0344139
0.057629
0.0605591
0.0509751
0.0672256
0.0516352
0.0298153
0.0546541
0.0550331
0.0306627
0.0414033
0.0358215
0.0353781
0.0486269
0.0227374
0.0257709
0.0522427
0.02427
0.0323547
0.0564135
0.0237484
0.030062
0.0611544
0.0291484
0.0265881
0.0585937
0.0899847
0.0823684
0.0260809
0.0306126
0.0664033
0.0251646
0.0260737
0.0919065
0.0685911
0.0897841
0.0450351
0.076162
0.0354561
0.042294
0.0554729
0.0682257
0.0308767
0.0640928
0.0927487
0.0342611
0.0304488
0.0344811
0.0290741
0.0245333
0.0281124
0.0377885
0.0329299
0.0922463
0.0484734
0.0359185
0.0792598
0.0458742
0.0727047
0.0295151
0.067926
0.0379424
0.0446196
0.0894801
0.0349206
0.051274
0.0276749
0.031843
0.0598748
0.0277538
0.0919974
0.0628937
0.0769667
0.0454779
0.044428
0.0871547
0.03296
0.0324108
0.0771362
0.0335174
0.0340981
0.034807
0.0782165
0.0276029
0.0305786
0.0351364
0.0968577
0.0352478
0.0435899
0.0416433
0.0285988
0.0291489
0.0499967
0.0547842
0.0919164
0.0237731
0.0129647
0.0336636
0.0252862
0.0273127
0.0969199
0.045812
0.0449541
0.0303574
0.0535196
0.0621374
0.0431713
0.0694593
0.0733671
0.0310975
0.043687
0.0274606
0.0706823
0.0683697
0.025832
0.0507499
0.0451966
0.0531772
0.0538007
0.0626117
0.0419722
0.0598695
0.062225
0.084035
0.0514444
0.0852949
0.0263072
0.056935
0.0304455
0.0309058
0.0742017
0.0881407
0.0704763
0.0258897
0.0866846
0.0443922
0.0407715
0.0904231
0.0416505
0.0851321
0.0268324
0.0990178
0.061053
0.0255999
0.0832106
0.0589052
0.0573555
0.0533167
0.0899559
0.0919146
0.0284813
0.0347134
0.0927877
0.0699199
0.0304659
0.0976777
0.0975664
0.0353447
0.0477419
0.0348038
0.0818556
0.0442693
0.052813
0.0245355
0.084724
0.0741923
0.0244434
0.0906272
0.0859629
0.0258307
0.0344972
0.0322869
0.0662411
0.0753489
0.0404735
0.0291437
0.0824259
0.0706744
0.0450089
0.0930948
0.0428048
0.0334858
0.0550011
0.0550193
0.086235
0.0281368
0.0284868
0.080704
0.0474396
0.034958
0.0436352
0.0300415
0.059298
0.0556759
0.0803001
0.0849009
0.095119
0.0285604
0.058097
0.0289424
0.0518205
0.0606404
0.0399722
0.0297066
0.0267223
0.0898601
0.0144716
0.0298888
0.0296612
0.0582314
0.0798417
0.0935163
0.095859
0.0667219
0.0426642
0.0579867
0.0263775
0.0289835
0.0340905
0.0204807
0.0265072
0.0347859
0.0792652
0.08493
0.0394156
0.0332137
0.0496878
0.0757195
0.0349292
0.0601861
0.0456025
0.0534165
0.0388047
0.0548108
0.0803342
0.0806907
0.0614972
0.0279008
0.0627597
0.0891748
0.0312561
0.0324978
0.0537109
0.0784265
0.0613872
0.0287904
0.0288194
0.0435987
0.056592
0.059006
0.01843
0.0257173
0.0332612
0.0332505
0.0272814
0.0841414
0.0559613
0.0895609
0.0593123
0.0657058
0.0703406
0.0513332
0.0291074
0.0842385
0.0288042
0.045013
0.0439923
0.052645
0.0404463
0.0617623
0.0469091
0.0602756
0.0771839
0.0328025
0.0699789
0.0295368
0.0923872
0.0277691
0.0272355
0.0801308
0.0741287
0.0263335
0.0501073
0.0568419
0.0294848
0.0761372
0.0292953
0.0763559
0.0897661
0.0280003
0.0679644
0.0989425
0.040713
0.0840258
0.0684856
0.0874085
0.0456153
0.0840682
0.0965028
0.0298703
0.0508841
0.0630933
0.0292065
0.0285662
0.0823499
0.0257689
0.057151
0.0959327
0.0758216
0.0750598
0.0225738
0.0255063
0.026252
0.0565989
0.0292302
0.0321061
0.0470105
0.0450849
0.0322157
0.0287457
0.0290855
0.0419656
0.0559621
0.0268648
0.0526378
0.0254464
0.0259202
0.0269556
0.0891265
0.075591
0.026534
0.0284934
0.0643608
0.0859554
0.0334347
0.0633926
0.0263166
0.0257593
0.0559304
0.029699
0.0803637
0.0249623
0.0648778
0.0362541
0.0914933
0.0206782
0.0889914
0.093033
0.0283463
0.0962583
0.0292115
0.0290457
0.0414903
0.0721544
0.0283658
0.0332799
0.0350694
0.0337988
0.0328338
0.054704
0.0034009
0.0539123
0.0865071
0.0832565
0.0735431
0.0270338
0.0955392
0.00234677
0.0246165
0.0586133
0.0258864
0.0265715
0.0983912
0.0199811
0.0310924
0.0985125
0.09788
0.0323536
0.015672
0.0354729
0.0699191
0.0268582
0.0769003
0.0940183
0.0273181
0.0871609
0.0279395
0.0275774
0.0258861
0.0195195
0.0527352
0.0886413
0.0589386
0.0317592
0.097705
0.0265471
0.0266655
0.0245354
0.0828607
0.0362468
0.026097
0.0444954
0.0970334
0.0312923
0.0650347
0.0285365
0.0399152
0.0318421
0.0330896
0.0395569
0.0216373
0.0377468
0.0244187
0.0256504
0.0905998
0.0341462
0.0440937
0.0268101
0.0523232
0.0444185
0.0902114
0.0212596
0.0423787
0.0784061
0.0504078
0.028799
0.0425267
0.0267918
0.00231921
0.0437791
0.0395506
0.0447434
0.0322293
0.0879444
0.0826922
0.0284133
0.0321292
0.0953292
0.0929214
0.0687864
0.0404511
0.00252323
0.0340823
0.0310605
0.0447453
0.0263856
0.0259657
0.0316216
0.0432202
0.0596161
0.0225995
0.0269328
0.0443973
0.021371
0.0580871
0.055676
0.0625616
0.00280108
0.0800964
0.0274004
0.0931396
0.0934235
0.0723977
0.020796
0.05068
0.0613547
0.0457054
0.00393327
0.0252108
0.0284203
0.0805116
0.0909137
0.0645117
0.092716
0.0247991
0.0279762
0.0380113
0.031756
0.0330679
0.0318951
0.0263566
0.0718249
0.0753019
0.0900244
0.0944408
0.0818152
0.0707689
0.0984382
0.0229052
0.0506752
0.092227
0.0427007
0.00306831
0.0245053
0.0557744
0.0242597
0.0588559
0.025797
0.0423609
0.0556203
0.0278256
0.043952
0.0427227
0.0279715
0.0573686
0.0270304
0.0838682
0.0942149
0.0335876
0.0860847
0.0861535
0.053983
0.00238475
0.0917147
0.0378609
0.0267321
0.0954587
0.0200435
0.0764467
0.022467
0.0564939
0.0229569
0.0323157
0.0543072
0.0370227
0.00357599
0.0851766
0.023575
0.0425975
0.0315721
0.088866
0.071972
0.0455314
0.088495
0.0409074
0.0669418
0.0326576
0.0433834
0.0940518
0.013928
0.0482652
0.0281815
0.0311828
0.0604392
0.0334511
0.0728772
0.0597417
0.0466426
0.0931563
0.0241448
0.0339426
0.0505403
0.0277391
0.075052
0.0685764
0.00331105
0.051451
0.0418228
0.0907803
0.0282595
0.0559498
0.0255891
0.026444
0.0471114
0.0253073
0.0660084
0.0958919
0.0925329
0.0475397
0.0672103
0.0692157
0.0519106
0.0292486
0.0475029
0.0305466
0.0475411
0.042088
0.0362484
0.0487158
0.0936977
0.0257528
0.0866608
0.00444356
0.0563177
0.0162616
0.00406825
0.0735443
0.0245513
0.0874362
0.0339303
0.0254069
0.0256145
0.091255
0.031278
0.0272118
0.0296472
0.0788592
0.0344634
0.0393878
0.0442123
0.0532176
0.0488111
0.0288068
0.0737761
0.0343232
0.0364211
0.0840137
0.0258834
0.0518926
0.0341826
0.00366351
0.0577432
0.0268398
0.0316921
0.0830822
0.0952854
0.0342416
0.0271609
0.0866183
0.0912669
0.0887947
0.0883287
0.0868108
0.082769
0.0270438
0.0593878
0.0808983
0.0419587
0.0420466
0.0255605
0.0283703
0.038804
0.0251523
0.0617791
0.0847119
0.0172304
0.0239705
0.0237761
0.0245886
0.03503
0.0412989
0.0265825
0.0025077
0.0803377
0.045988
0.0271155
0.0929108
0.0777292
0.0425322
0.039425
0.0627993
0.0329365
0.0333169
0.0343074
0.0417803
0.0333777
0.028457
0.0477533
0.0363948
0.0906353
0.0445197
0.0537523
0.0808454
0.0312332
0.0553656
0.0383297
0.0441507
0.0381688
0.0330188
0.0642301
0.0408322
0.035003
0.0433516
0.00269368
0.0352269
0.078706
0.0950709
0.00534481
0.0419965
0.0928874
0.0848345
0.0270557
0.0884537
0.0311436
0.0526839
0.0953882
0.0260664
0.0323322
0.0884752
0.0277558
0.0355779
0.0266568
0.0260206
0.0772161
0.0251534
0.0859474
0.0114605
0.0571479
0.0260785
0.0419909
0.0330445
0.0353756
0.0257996
0.0774894
0.0885301
0.0789508
0.0696086
0.0460379
0.0334193
0.0878022
0.0392765
0.0911131
0.00861506
0.0487963
0.0435319
0.0244915
0.025754
0.0768165
0.0752961
0.0342589
0.0270106
0.0348778
0.042169
0.0270671
0.0447473
0.0521829
0.0591265
0.0426942
0.0451976
0.0393038
0.0306365
0.0817872
0.0402386
0.0370656
0.0462883
0.0527929
0.0499197
0.0463325
0.0306368
0.0306003
0.00494126
0.00243289
0.066523
0.0517213
0.0749273
0.0255611
0.0268034
0.0502091
0.0269794
0.036075
0.0875109
0.0852403
0.0258018
0.0942271
0.0113409
0.0808343
0.0207439
0.0857448
0.0338171
0.0350971
0.0584381
0.0502838
0.0688613
0.00706863
0.0988186
0.023815
0.0546671
0.0261681
0.0849081
0.068091
0.0565902
0.0266791
0.0414057
0.0768821
0.0327942
0.0495783
0.0430685
0.0790091
0.0253387
0.0589434
0.0259443
0.0853367
0.0252255
0.0242287
0.0439046
0.0471539
0.0874629
0.0648906
0.0326753
0.0435223
0.0485859
0.023985
0.0607162
0.0400138
0.0246658
0.0156244
0.0892053
0.02438
0.0268659
0.00445143
0.00527009
0.0263321
0.089976
0.0815473
0.0340513
0.0704867
0.0882555
0.0263581
0.0841949
0.0775335
0.0863349
0.0421083
0.0854445
0.0242055
0.00474731
0.0243049
0.0570219
0.038157
0.0267462
0.088722
0.0306299
0.0502816
0.0843422
0.042727
0.0306998
0.0906496
0.0837746
0.0469521
0.00291307
0.0974869
0.024297
0.0329074
0.0413266
0.0350419
0.0331032
0.0256485
0.0561052
0.00541894
0.0354009
0.0671547
0.0785538
0.0271642
0.0244633
0.0245446
0.0261041
0.0433119
0.0427647
0.0627218
0.0412629
0.0928275
0.0541772
0.0309723
0.0323124
0.0263845
0.0876933
0.0986706
0.0251148
0.0491513
0.0778826
0.0471443
0.0664156
0.0928085
0.0278451
0.0309711
0.0379761
0.0250157
0.0338764
0.0603544
0.087705
0.0247482
0.0247806
0.0197611
0.00544095
0.0680065
0.0262055
0.0236101
0.076699
0.0598129
0.0239423
0.0250462
0.0785641
0.0941783
0.0861494
0.0428061
0.084054
0.0545272
0.0913179
0.00567687
0.0286562
0.0927275
0.0274647
0.0133036
0.0269096
0.0296695
0.0512237
0.0574532
0.0483348
0.0774611
0.0227148
0.0450237
0.058358
0.0687947
0.0406392
0.0885456
0.00259536
0.0747196
0.0281464
0.00530655
0.0649764
0.0270273
0.0288125
0.0541267
0.0951487
0.0227155
0.0761769
0.0773672
0.0233239
0.0493857
0.0532945
0.0293067
0.0280862
0.0247531
0.0344462
0.0390567
0.0284982
0.00515261
0.0929975
0.0238239
0.0821748
0.00571432
0.089762
0.0601867
0.00311026
0.0692338
0.0252232
0.0680015
0.0595783
0.0239058
0.0369874
0.0260971
0.0241708
0.033655
0.0753184
0.0283704
0.00648655
0.0251331
0.0356834
0.0259807
0.027567
0.0240887
0.0831773
0.00300168
0.038766
0.0261183
0.0580247
0.0314354
0.0402506
0.0740013
0.0944485
0.0712984
0.0258189
0.0254847
0.0539397
0.0253388
0.0367332
0.0269285
0.0620864
0.0778884
0.013155
0.00605076
0.0284679
0.0268388
0.0655826
0.0626809
0.0484874
0.0575582
0.0532544
0.0306267
0.0896783
0.0898496
0.0488108
0.00650758
0.0330627
0.0248357
0.0524817
0.0466397
0.0500704
0.0256945
0.0282642
0.0450138
0.0726828
0.0576636
0.059156
0.0346033
0.0354464
0.0260169
0.085582
0.070733
0.00274452
0.0255994
0.0901733
0.088477
0.0378927
0.022589
0.0932028
0.0561977
0.0187612
0.0237694
0.0583368
0.0431776
0.0270627
0.0574098
0.0105876
0.074032
0.0175819
0.0910131
0.0516495
0.0263405
0.060068
0.024697
0.035441
0.0436086
0.0743869
0.0264346
0.024754
0.00552947
0.0285177
0.025373
0.00451338
0.0671379
0.0758663
0.0259936
0.0255288
0.0361101
0.00314149
0.025891
0.026534
0.0276786
0.0953023
0.027359
0.0269012
0.0464114
0.0380694
0.0055042
0.0345077
0.00261
0.0258624
0.0167288
0.063853
0.0599782
0.0666496
0.0170474
0.0251631
0.0251604
0.0243339
0.0280908
0.0037686
0.0359622
0.0291204
0.0829646
0.0321708
0.0364639
0.0967697
0.0191917
0.0294065
0.0274555
0.0294459
0.0388213
0.0453868
0.0237138
0.0644313
0.0494833
0.088182
0.0855961
0.0103124
0.0369022
0.0852869
0.0268803
0.0239032
0.0107047
0.074687
0.0333969
0.0271704
0.0441944
0.0528838
0.0255141
0.0261101
0.0605348
0.0391361
0.0236892
0.0247413
0.0221137
0.0420088
0.0759998
0.0236721
0.0788696
0.00482581
0.0262976
0.00600327
0.0354384
0.0927474
0.0762567
0.0837115
0.0906165
0.0858481
0.0615213
0.0483623
0.0437213
0.0241613
0.0270777
0.037075
0.049641
0.0532895
0.0051965
0.0253896
0.0248502
0.026167
0.0252458
0.0254222
0.026143
0.0545029
0.0380982
0.0253809
0.0527493
0.0271537
0.0275519
0.0317747
0.0277933
0.0843561
0.0873045
0.0217068
0.0425127
0.0330408
0.0625018
0.0424024
0.0191985
0.0251332
0.01037
0.0260983
0.0590868
0.0899996
0.0499847
0.0378791
0.0258493
0.0411079
0.0371546
0.0930563
0.0391461
0.02794
0.0463651
0.0250047
0.0851329
0.0339416
0.0601403
0.0333169
0.0323558
0.0546181
0.0458791
0.0727922
0.0644954
0.038292
0.0249809
0.0266637
0.033977
0.0813402
0.0168293
0.0655235
0.0659944
0.0232869
0.0776117
0.0487416
0.0682523
0.0559726
0.0748898
0.0163708
0.02941
0.0727777
0.0867369
0.0280876
0.0154209
0.0579445
0.0271941
0.0392786
0.0443327
0.0113478
0.0897812
0.0135681
0.0392885
0.0473591
0.0820952
0.0768541
0.0250442
0.0339588
0.0469425
0.0370476
0.0251974
0.025826
0.0215123
0.0371317
0.0279065
0.0248182
0.0926413
0.0533226
0.0795542
0.0828821
0.0194048
0.0256373
0.0609529
0.0633838
0.0211469
0.050237
0.0456963
0.0249725
0.0758805
0.0729306
0.086492
0.0204447
0.0259905
0.0259612
0.0120229
0.0493061
0.0532933
0.0260037
0.0326986
0.0757978
0.0264081
0.0227893
0.0401223
0.0816387
0.024849
0.0422136
0.0325958
0.0465232
0.0304041
0.0861131
0.0856584
0.0855395
0.0577445
0.0267767
0.0580391
0.0272265
0.0725614
0.0940528
0.0462147
0.043305
0.010538
0.0822935
0.0152813
0.0475233
0.0382447
0.0724757
0.0258471
0.0532042
0.0218536
0.025729
0.0269139
0.0913272
0.0536874
0.0436888
0.0892409
0.0370298
0.0643555
0.0250375
0.0604512
0.0249368
0.0491597
0.00252852
0.0645261
0.0246395
0.026036
0.0820857
0.0213469
0.0726033
0.0243877
0.0668588
0.0269866
0.0539118
0.0253575
0.0737575
0.0545922
0.0877033
0.0798096
0.02952
0.0170548
0.0215739
0.0462424
0.0710072
0.0570125
0.06405
0.054521
0.0665311
0.0767493
0.0263653
0.0817669
0.0777009
0.0426546
0.0802112
0.0759735
0.0257113
0.0351558
0.031246
0.0833994
0.0260999
0.0260303
0.0256329
0.0891896
0.0922205
0.0466069
0.0564997
0.0620291
0.0251735
0.0486402
0.0327161
0.0406088
0.0259141
0.0522086
0.0507999
0.0495012
0.0280052
0.0851821
0.00475547
0.0249453
0.0413762
0.0749189
0.0527513
0.0753424
0.027111
0.0248228
0.0252513
0.0869936
0.0266751
0.0237102
0.0650042
0.0782725
0.0245878
0.041314
0.0651435
0.00724454
0.0708446
0.0888608
0.00234957
0.0209897
0.0512151
0.0810407
0.0658433
0.028947
0.0367967
0.0535156
0.0253268
0.0305637
0.0216585
0.0286266
0.0677825
0.0791916
0.0302186
0.0860275
0.0765128
0.031714
0.0220049
0.0332065
0.0771593
0.0623747
0.0491288
0.040633
0.0877169
0.0505733
0.0408879
0.0400946
0.0425032
0.0868504
0.0440355
0.0578889
0.0505048
0.0413708
0.0314541
0.0324478
0.0237867
0.0225209
0.0507666
0.0653914
0.0329748
0.0478569
0.0490484
0.0259427
0.0802499
0.0352762
0.0540744
0.0250915
0.0917311
0.0343928
0.0280252
0.038049
0.0200459
0.0292079
0.0310242
0.0243302
0.0291039
0.0316477
0.0495571
0.0792187
0.0321907
0.0868116
0.0291713
0.0397857
0.0614612
0.0629536
0.0313656
0.0901237
0.035362
0.0589233
0.0358994
0.0677257
0.0344776
0.0025255
0.093528
0.0299017
0.0605179
0.0493601
0.0359762
0.0250079
0.0252234
0.0358647
0.0270003
0.0307812
0.03112
0.0261216
0.0513215
0.0282455
0.0243936
0.0318366
0.0141267
0.0727814
0.00510504
0.0606184
0.0483062
0.0917797
0.0266169
0.0262772
0.0355689
0.0261176
0.0261886
0.0652471
0.0335251
0.037585
0.0691408
0.0342935
0.0240591
0.00248375
0.0810078
0.0273176
0.00450305
0.0178608
0.0675547
0.0182727
0.021219
0.0278755
0.0741944
0.0305296
0.0241834
0.0274412
0.0363547
0.0229915
0.0908576
0.0426912
0.0322925
0.0344375
0.0761273
0.0201526
0.0263106
0.0747905
0.0838539
0.0614965
0.0221323
0.0385131
0.0439357
0.0518703
0.0446774
0.0865526
0.0753649
0.0406705
0.0348961
0.0232181
0.0275432
0.046841
0.0268847
0.0882156
0.0122823
0.0261318
0.0356389
0.074056
0.0438458
0.0816998
0.0551068
0.0658534
0.042375
0.0237321
0.0645555
0.0850166
0.0276714
0.0238716
0.0293618
0.0244448
0.0282072
0.0686824
0.0424791
0.0488675
0.0767112
0.0831524
0.0430464
0.0764743
0.0254557
0.0248635
0.0279952
0.0719353
0.0208659
0.0196168
0.0219053
0.0443635
0.0327218
0.0226135
0.0735826
0.0829971
0.0742415
0.0272618
0.0537534
0.0892229
0.0403825
0.0270825
0.0298456
0.0320004
0.081581
0.0240306
0.0410241
0.033428
0.0498391
0.0247039
0.029918
0.0417141
0.0071595
0.00626043
0.0356021
0.0490169
0.0224591
0.0273674
0.0502811
0.0456394
0.0287686
0.0796392
0.0553607
0.0257332
0.0268382
0.0312017
0.0396343
0.0240823
0.0256186
0.0756891
0.0499196
0.0255582
0.0774186
0.0783008
0.0624755
0.0392393
0.0232092
0.0289721
0.0377849
0.0783013
0.0445287
0.0987772
0.0869849
0.0843285
0.0246376
0.0248439
0.0374474
0.0269799
0.0264294
0.0186764
0.0741426
0.0254421
0.0257448
0.0252488
0.0224315
0.0673363
0.0126309
0.0374764
0.0216023
0.0203946
0.0211356
0.0104381
0.0689762
0.0361661
0.0255229
0.079378
0.0335559
0.0370204
0.0795295
0.033979
0.0242634
0.0774872
0.0261764
0.0352652
0.0259076
0.0290282
0.0310568
0.0487201
0.0823309
0.0253755
0.0711595
0.04188
0.0487695
0.0347137
0.0858291
0.0870477
0.0256683
0.0251487
0.0301361
0.0110218
0.0408299
0.0729136
0.0862789
0.0567783
0.0151604
0.0866191
0.0180805
0.0303941
0.0599996
0.0573111
0.0882479
0.0812319
0.0348225
0.0824574
0.0206254
0.0306908
0.0243564
0.0439583
0.0248524
0.0843708
0.0175628
0.0262324
0.0255549
0.0189529
0.0198902
0.0253827
0.0400304
0.0634412
0.0412326
0.0687399
0.0583393
0.0420469
0.02472
0.0261545
0.0385106
0.0375242
0.0265223
0.0250114
0.0299999
0.0141433
0.0249107
0.0193591
0.0244267
0.0335702
0.0265019
0.0227125
0.0426587
0.0381715
0.0786286
0.0882002
0.0402376
0.0250874
0.0427226
0.0436568
0.0729596
0.0297022
0.0297312
0.0383369
0.0270384
0.0830531
0.0306553
0.0250725
0.0263944
0.0247257
0.0381735
0.0369422
0.0785472
0.0806059
0.0203995
0.0314919
0.07997
0.0444605
0.0769025
0.0822049
0.044948
0.0785576
0.0782883
0.0708418
0.0507051
0.0194047
0.0189538
0.0196786
0.0497137
0.0735708
0.0259904
0.057982
0.0789441
0.0726252
0.0191413
0.0256195
0.0338875
0.0228144
0.02518
0.0773113
0.0263258
0.032103
0.077233
0.0195968
0.0840117
0.0802308
0.0305631
0.0168331
0.0309931
0.061605
0.0786525
0.0186168
0.0183133
0.0209425
0.0888891
0.1226
0.137175
0.14222
0.141668
0.13724
0.130308
0.121868
0.112639
0.10316
0.0938202
0.0848779
0.076495
0.0687591
0.0617035
0.0553236
0.0495894
0.0444561
0.0398704
0.0357776
0.0882101
0.121685
0.136296
0.141441
0.141039
0.136773
0.130003
0.121719
0.112615
0.103236
0.0939773
0.0850956
0.0767548
0.0690458
0.062005
0.0556301
0.0498929
0.0447497
0.040147
0.0360281
0.0875017
0.120757
0.135385
0.140639
0.140385
0.136285
0.129681
0.121551
0.112582
0.103309
0.0941345
0.0853161
0.0770198
0.0693393
0.0623138
0.0559437
0.0502031
0.0450492
0.0404291
0.0362879
0.0867668
0.119805
0.134445
0.139813
0.139707
0.135777