/*--------------------------------*- C++ -*----------------------------------*\
  =========                 |
  \\      /  F ield         | OpenFOAM: The Open Source CFD Toolbox
   \\    /   O peration     | Website:  https://openfoam.org
    \\  /    A nd           | Version:  10
     \\/     M anipulation  |
\*---------------------------------------------------------------------------*/
FoamFile
{
    format      ascii;
    class       volScalarField;
    location    "500";
    object      nut;
}
// * * * * * * * * * * * * * * * * * * * * * * * * * * * * * * * * * * * * * //

dimensions      [0 2 -1 0 0 0 0];

internalField   nonuniform List<scalar> 
23845
(
0.0151909
0.0147922
0.00800125
0.0141236
0.0189971
0.0261414
0.00907156
0.00984129
0.025208
0.0166326
0.0235854
0.0263336
0.0233493
0.0257381
0.00663999
0.0192028
0.0245597
0.0253482
0.0222044
0.0259229
0.013968
0.0241632
0.0152903
0.0249161
0.019128
0.0227825
0.0111868
0.0258963
0.00349009
0.0256507
0.0150291
0.00128136
0.00527856
0.0250111
0.0263134
0.0261247
0.00110463
0.02632
0.0263165
0.0248914
0.021611
0.0252452
0.0232718
0.0255888
0.0231474
0.0240916
0.0199761
0.0196638
0.00225147
0.00197708
0.0057081
0.0102552
0.00129259
0.0257464
0.00123836
0.0238691
0.0151829
0.0109627
0.0140024
0.0143398
0.00618959
0.0254264
0.0201214
0.00430848
0.0245169
0.0238379
0.010976
0.0219362
0.0229783
0.0219331
0.00819212
0.00831546
0.0225998
0.00728027
0.0240252
0.00684748
0.0263473
0.0263022
0.0130793
0.0239938
0.0126838
0.0080151
0.0150414
0.0112566
0.00677182
0.0263011
0.00916988
0.00119395
0.024641
0.0231593
0.00469121
0.0209847
0.00377215
0.0261535
0.0105783
0.00549294
0.0242588
0.0193511
0.0242256
0.0201907
0.0237486
0.0104938
0.0179559
0.000871817
0.00299825
0.0118964
0.026005
0.0237616
0.0123024
0.0255006
0.0238106
0.0263213
0.00681139
0.01802
0.0260847
0.0156455
0.023854
0.0181071
0.00367761
0.0069701
0.0263165
0.0025602
0.0217379
0.00833472
0.0101287
0.0228328
0.00681514
0.00198244
0.00688491
0.0184674
0.00499917
0.0210079
0.0233376
0.0260153
0.0235186
0.0167325
0.000757849
0.0263497
0.0125618
0.0262876
0.00230194
0.0254213
0.0262315
0.025607
0.0206843
0.0256221
0.0168959
0.00744125
0.00561793
0.0222849
0.00580232
0.0232466
0.01091
0.0246698
0.00666652
0.0228649
0.0190839
0.0262485
0.00463168
0.00514913
0.0214182
0.00674612
0.0100498
0.0247474
0.0221365
0.0231805
0.0261792
0.00296371
0.0258492
0.0256341
0.0259025
0.0135024
0.0247564
0.00935719
0.0239266
0.0121744
0.0206644
0.0223704
0.0238963
0.0262722
0.020564
0.0209182
0.00757994
0.0242758
0.0199331
0.0230798
0.0254131
0.0106865
0.00290728
0.0250354
0.00380376
0.0256488
0.0252982
0.0257602
0.0208823
0.0253458
0.00201488
0.00295407
0.000798883
0.0231653
0.0240057
0.0253139
0.0062547
0.022283
0.010751
0.0101847
0.00768534
0.0262235
0.0128649
0.0252488
0.0245478
0.00283064
0.0202844
0.0256804
0.00334232
0.00123168
0.0231693
0.025357
0.000552743
0.00567044
0.0231444
0.00705095
0.00189092
0.0219803
0.0256745
0.00602828
0.000758897
0.0256322
0.0259953
0.0212389
0.0262151
0.00293107
0.0263018
0.0219158
0.0194757
0.0050269
0.0243097
0.0149171
0.0237472
0.0124101
0.00161382
0.0174766
0.0118871
0.0202864
0.00309316
0.0199484
0.025988
0.0228621
0.011308
0.00691511
0.0247658
0.0262249
0.00570606
0.0224807
0.0076225
0.0047923
0.00697095
0.00719019
0.0260606
0.0249584
0.000854989
0.0262295
0.00739725
0.0235864
0.0237242
0.0244249
0.0128489
0.00702687
0.0159644
0.0145494
0.0262907
0.0131666
0.00514573
0.0254471
0.0244356
0.0251606
0.00694912
0.0256705
0.00200524
0.0155436
0.0116282
0.0259341
0.00735516
0.021394
0.0262844
0.00575085
0.0103912
0.0250245
0.0103383
0.00705005
0.0122804
0.00376078
0.00482959
0.00685379
0.0113319
0.0263045
0.00500839
0.0258903
0.0262855
0.00400608
0.00433535
0.00621422
0.00490457
0.014937
0.0256367
0.0152491
0.00390524
0.00533334
0.0237235
0.00189393
0.0048691
0.01203
0.0230966
0.025881
0.0111506
0.00220312
0.0051569
0.0231854
0.00450151
0.0230426
0.00278943
0.00291759
0.00466788
0.0256414
0.00699309
0.0260857
0.0139693
0.0179543
0.00716344
0.0254576
0.00851109
0.0222112
0.00545078
0.026225
0.00651103
0.0144542
0.0128144
0.0255543
0.0255886
0.013287
0.0126944
0.00508462
0.0240214
0.0219166
0.0227962
0.00150008
0.0262177
0.00615019
0.0135686
0.0058608
0.0136463
0.00495596
0.00186777
0.00666593
0.00129686
0.0253678
0.0257488
0.0232165
0.00722792
0.0116269
0.00744544
0.0238764
0.0171634
0.0216925
0.00323628
0.0260868
0.00700085
0.0260825
0.00381729
0.0228701
0.0255305
0.00411206
0.0031422
0.02631
0.0262172
0.00531845
0.0104839
0.0138053
0.0255366
0.0120113
0.00737815
0.0262069
0.0151435
0.0228356
0.0219524
0.0263159
0.0261751
0.0128796
0.0247154
0.0115433
0.010417
0.025717
0.00362193
0.00289643
0.0043842
0.00423977
0.024249
0.0234401
0.0218699
0.0262055
0.0121477
0.016289
0.00908002
0.0117753
0.0140416
0.00734568
0.0262583
0.0034116
0.00312266
0.00770698
0.00631213
0.0219535
0.00847616
0.00604618
0.0181673
0.01043
0.0163909
0.0247206
0.026138
0.0160768
0.0038249
0.0257331
0.0253164
0.0136346
0.00803851
0.0139054
0.00363323
0.0149641
0.00940116
0.00842653
0.0254474
0.0253282
0.0047786
0.0256942
0.0248835
0.0234223
0.0263216
0.0231263
0.00455564
0.010675
0.00684354
0.00332596
0.00282644
0.00657079
0.0155533
0.00465531
0.0257298
0.0178992
0.0261501
0.0124238
0.0131944
0.0239808
0.00311172
0.026204
0.0223387
0.00528168
0.0151149
0.0218785
0.00822155
0.0255625
0.0117856
0.0145551
0.000766462
0.0165114
0.0260782
0.0262621
0.0258053
0.00318779
0.0219478
0.00564885
0.0256835
0.0261864
0.0161795
0.00739676
0.00428049
0.0202001
0.0239149
0.00333574
0.025747
0.0224691
0.0192176
0.0177302
0.0155107
0.0245043
0.0249018
0.00788747
0.0263039
0.0262788
0.00894751
0.00675189
0.0230901
0.00472209
0.00583317
0.0185137
0.010259
0.0199167
0.0234476
0.00980766
0.0243015
0.0261971
0.00986138
0.00249178
0.00556252
0.0198258
0.0117875
0.0125844
0.0240997
0.0223509
0.0260068
0.00610503
0.0155338
0.00481991
0.00115309
0.0158738
0.0255511
0.0219124
0.0171479
0.00526151
0.00584617
0.0254664
0.000808775
0.0253377
0.0253657
0.00426261
0.0219044
0.00881061
0.00742173
0.00480316
0.0142012
0.00401819
0.00523162
0.00411177
0.0221485
0.0160493
0.0228586
0.0223195
0.0257782
0.00582585
0.0212573
0.0131838
0.00720741
0.0253916
0.0159383
0.0158056
0.0211169
0.0157983
0.0245231
0.023573
0.0257776
0.023778
0.0246962
0.0262988
0.00837885
0.0245558
0.0106755
0.0119482
0.0256067
0.00513329
0.0262098
0.0259432
0.0111909
0.0138754
0.0154458
0.0258776
0.0257098
0.00281916
0.00338318
0.0229152
0.00423557
0.022458
0.022701
0.00881157
0.0230319
0.0258897
0.0186792
0.0210509
0.00788514
0.00516692
0.00794886
0.0210141
0.022559
0.0263317
0.0209928
0.00778215
0.00451368
0.0258555
0.0224969
0.0233296
0.00804689
0.0235537
0.0162429
0.0059762
0.0141672
0.0246407
0.00674109
0.0258074
0.0228268
0.0254471
0.0253953
0.026285
0.00953339
0.0255058
0.0222633
0.00725544
0.0115559
0.0202446
0.00748241
0.0215998
0.00839028
0.0228914
0.0193698
0.0185322
0.0144603
0.0214432
0.00412225
0.0159099
0.0233527
0.0192556
0.025568
0.0254328
0.0219487
0.00634911
0.0208858
0.023547
0.0174121
0.0254172
0.0217074
0.0257108
0.0220669
0.0192491
0.0233175
0.0241817
0.0180781
0.0259322
0.0262955
0.00655934
0.0169225
0.0184724
0.0225355
0.0247522
0.0171843
0.0248782
0.0259759
0.0224087
0.0156736
0.022091
0.0140719
0.0224574
0.0205557
0.00657085
0.0261023
0.0262576
0.0235219
0.0125287
0.00531207
0.00456459
0.00451645
0.0194684
0.00774272
0.0238461
0.0244538
0.0225863
0.0246882
0.0181033
0.0241401
0.0227016
0.0220928
0.0210285
0.0165384
0.0218891
0.0196489
0.025324
0.0230608
0.0252612
0.025402
0.0242973
0.025498
0.0237736
0.0229636
0.0243044
0.0227736
0.0256101
0.0252328
0.0256412
0.0243664
0.0215216
0.0239708
0.0257274
0.0231298
0.0208639
0.0257446
0.0249938
0.0253416
0.0252192
0.0250154
0.0248212
0.0245372
0.0254734
0.0241013
0.0255501
0.0225803
0.0256428
0.0228463
0.0256981
0.0251062
0.0247166
0.0257841
0.0257559
0.0257738
0.0224945
0.0246759
0.0164804
0.0243766
0.0248554
0.024631
0.0258214
0.0260514
0.0240107
0.025844
0.0250831
0.0249301
0.0254831
0.0258301
0.0247554
0.0260898
0.0201208
0.0211509
0.023284
0.0241396
0.0250239
0.0258959
0.0254388
0.0260085
0.0248692
0.02422
0.0252759
0.0227456
0.0257931
0.0251376
0.0253142
0.0235212
0.0258809
0.0241589
0.00860895
0.0234817
0.025889
0.0237686
0.0259028
0.0253662
0.0257775
0.00799491
0.0252674
0.0228452
0.0217798
0.024635
0.0075308
0.0219568
0.0223783
0.0246787
0.0249116
0.024031
0.0253742
0.0255184
0.0248564
0.0245232
0.0256389
0.0220047
0.0257055
0.0162525
0.0257365
0.0259514
0.0246774
0.0248231
0.0237051
0.0134833
0.0227632
0.025563
0.0202329
0.0225845
0.0248814
0.0258009
0.0256868
0.00491679
0.0251096
0.0235454
0.0259001
0.023316
0.0256911
0.0258755
0.0259115
0.02581
0.0245909
0.0247651
0.025348
0.0258774
0.0248716
0.0176588
0.0253737
0.0254931
0.0255778
0.02566
0.0244786
0.0236183
0.0237837
0.023392
0.0241583
0.0252157
0.0253852
0.0248348
0.0252359
0.0174078
0.0210709
0.0245619
0.0231828
0.025927
0.0253926
0.00432774
0.0238204
0.0212855
0.0207033
0.0216488
0.0215871
0.0204382
0.0220472
0.0215259
0.0217562
0.0217479
0.021682
0.0221805
0.0216897
0.0217863
0.0217437
0.0215059
0.0216684
0.0220995
0.0215559
0.0198926
0.0257883
0.0256985
0.00897987
0.0243102
0.0227126
0.0243406
0.0256096
0.0208607
0.0250834
0.0233056
0.0252624
0.0248027
0.0212785
0.0212804
0.0209174
0.0200541
0.0256668
0.0255243
0.0253681
0.0238787
0.0215658
0.0263283
0.00749151
0.0262911
0.0203012
0.0250276
0.0233514
0.0260044
0.0241241
0.0206822
0.0214097
0.0183632
0.0193076
0.0212604
0.0178289
0.0220283
0.0218186
0.0222296
0.0222872
0.0223475
0.0224289
0.0230955
0.025867
0.0259643
0.0209033
0.0255149
0.0216489
0.0200476
0.0247835
0.0211785
0.0181032
0.021311
0.0222742
0.0205692
0.0224722
0.0190393
0.0217706
0.0223926
0.0175036
0.0219273
0.022164
0.025054
0.0252967
0.0252
0.0170278
0.0253062
0.0250389
0.0255193
0.0249685
0.0256345
0.0259744
0.0236033
0.00368478
0.0262507
0.0255791
0.0252122
0.0251619
0.021981
0.0249527
0.02576
0.0208506
0.0256577
0.0256167
0.00585572
0.0026263
0.0257933
0.0258562
0.0253774
0.0169806
0.0251488
0.00640174
0.0257377
0.0216868
0.0222576
0.0215274
0.0252316
0.0258565
0.0239602
0.0211519
0.0259062
0.0152434
0.0213355
0.0237658
0.0257868
0.0212988
0.0253775
0.0250549
0.0250618
0.0235105
0.0208668
0.0255794
0.0250084
0.0249209
0.0245882
0.0255747
0.0235999
0.0245635
0.0232161
0.0227366
0.023329
0.024803
0.0197871
0.0259732
0.0256995
0.0243767
0.0257294
0.0260744
0.0257905
0.0219754
0.0256882
0.0259897
0.0245666
0.0227994
0.0239574
0.0250376
0.0151329
0.0260134
0.0240205
0.0257101
0.0257952
0.0241727
0.0227121
0.024874
0.0221444
0.0165398
0.0243662
0.0258382
0.0245983
0.024238
0.0259967
0.0189165
0.0250719
0.0251375
0.0245351
0.0192045
0.0227147
0.0245864
0.0241356
0.0239497
0.0210862
0.023112
0.0222898
0.0234621
0.0248474
0.0250899
0.0257862
0.0228744
0.0217936
0.0241561
0.00181105
0.0248436
0.00506948
0.0239168
0.0255112
0.00201777
0.0260023
0.0221997
0.0262448
0.022311
0.0256413
0.0259262
0.0254377
0.0248426
0.0237468
0.00577435
0.0259905
0.0252387
0.0225128
0.020076
0.0190695
0.0172503
0.0244834
0.0259427
0.0251012
0.0257525
0.0255323
0.0234867
0.0257469
0.0207455
0.0230664
0.0197892
0.0183791
0.019227
0.0179386
0.0174277
0.0244835
0.025878
0.0229005
0.0216966
0.0214371
0.0247404
0.0219087
0.024925
0.0248802
0.0251591
0.0257964
0.0252864
0.0255293
0.0258198
0.02555
0.0256661
0.0256549
0.0258589
0.0254297
0.0252285
0.0162823
0.0238344
0.0259785
0.0170861
0.0259816
0.0239035
0.0254384
0.0263098
0.0252884
0.0256585
0.0251722
0.0256566
0.0231512
0.0244339
0.0217733
0.0225874
0.0259837
0.0167351
0.0251843
0.0234536
0.0254194
0.0234515
0.0228725
0.0044295
0.00870755
0.0247894
0.0219511
0.0214461
0.0245451
0.0250903
0.0259949
0.0248347
0.0228476
0.0250543
0.0252804
0.0253801
0.0254179
0.00276289
0.0255596
0.0197614
0.0258968
0.0256901
0.0199364
0.0227058
0.0241949
0.00455372
0.0256952
0.0218526
0.0225431
0.0257552
0.0259858
0.025886
0.0259554
0.0250191
0.0233084
0.0257873
0.0258268
0.014853
0.0260376
0.0259919
0.0259286
0.0148425
0.0240261
0.0254717
0.0230277
0.0229233
0.0242372
0.0259714
0.0240117
0.0222911
0.00923338
0.0229223
0.02586
0.0219528
0.0240043
0.0230422
0.024538
0.024971
0.025408
0.0254556
0.0256897
0.0254662
0.0258185
0.0234178
0.0251096
0.0253824
0.0260491
0.0254919
0.0247893
0.0128409
0.0105525
0.025736
0.025075
0.0253235
0.0206082
0.0242996
0.0222839
0.0237967
0.0259477
0.0143018
0.0259151
0.0262099
0.026059
0.0236914
0.0254025
0.0224806
0.0234866
0.0258643
0.021173
0.0248119
0.02382
0.0243195
0.0254031
0.0231307
0.0236584
0.0234705
0.0226973
0.0246376
0.0259798
0.0243868
0.0254021
0.0220346
0.0257732
0.0225262
0.021385
0.019787
0.0217276
0.0216826
0.0190368
0.021738
0.0214836
0.0181454
0.0218162
0.0215371
0.0171412
0.0215701
0.0216536
0.0176963
0.0221968
0.0192804
0.0249254
0.0249432
0.0179059
0.0262656
0.0261667
0.0208453
0.020218
0.0212929
0.0242967
0.0173985
0.0252026
0.0255238
0.0191372
0.024734
0.0256333
0.0249974
0.0197481
0.00250364
0.0255368
0.025817
0.0260269
0.0262932
0.0260613
0.0257417
0.0259152
0.00613203
0.0255901
0.0257843
0.0239501
0.0235986
0.0246225
0.0260233
0.0147351
0.0240879
0.023488
0.0182562
0.0234459
0.0252873
0.0260721
0.0246365
0.00521677
0.0260874
0.0172363
0.024152
0.0240371
0.0101425
0.013696
0.0226901
0.0251161
0.0242113
0.019133
0.0250788
0.0250806
0.0249456
0.0149159
0.0259735
0.0249777
0.0232675
0.0197569
0.0222568
0.0235792
0.0256725
0.026008
0.00379655
0.0234331
0.0231934
0.018676
0.0263465
0.000922061
0.024562
0.00459786
0.0260869
0.0187954
0.0242703
0.0246884
0.0258704
0.0240873
0.0241617
0.0244237
0.0235781
0.0211863
0.0227175
0.0244038
0.0260698
0.0212097
0.0212812
0.0260881
0.0241645
0.024799
0.023871
0.0220168
0.0239629
0.0257728
0.0226884
0.0234495
0.0168007
0.0249615
0.0188823
0.0256434
0.0253941
0.0259342
0.0244441
0.00684318
0.0192953
0.0200651
0.025996
0.0209126
0.0248105
0.0243032
0.0190043
0.0243208
0.0131335
0.00592377
0.0198031
0.0239086
0.0261787
0.00552578
0.0237202
0.0235975
0.0235835
0.0198686
0.0156922
0.0259977
0.0252199
0.00555962
0.0118463
0.025326
0.0197846
0.0186142
0.0243953
0.00522962
0.0256399
0.015453
0.0251141
0.0188448
0.0236297
0.0199166
0.0132056
0.0262584
0.00650622
0.0162481
0.0250049
0.00794105
0.0246058
0.0183767
0.016186
0.0124304
0.0255575
0.0214498
0.0139739
0.0254062
0.0183358
0.0248258
0.0258655
0.0247193
0.0233987
0.0184702
0.0260542
0.0239291
0.0216763
0.0231468
0.025483
0.0255189
0.0244364
0.0249198
0.024202
0.0176679
0.010834
0.0196142
0.0260093
0.0242389
0.0259126
0.0241604
0.024246
0.0254034
0.00715501
0.0232682
0.0183303
0.00100914
0.0252278
0.025274
0.0226832
0.0223815
0.0183665
0.0157037
0.0246607
0.0256927
0.0252472
0.0255927
0.0259622
0.0249502
0.0227663
0.0261182
0.0256078
0.0170494
0.00487169
0.0237259
0.0238198
0.0236497
0.0128456
0.0253304
0.0232884
0.025117
0.0249458
0.0255775
0.0244582
0.0230687
0.0223598
0.0246273
0.0260409
0.0244874
0.00882905
0.00739016
0.0259129
0.0243873
0.0223366
0.024398
0.0243494
0.026037
0.0248216
0.0230134
0.0245427
0.00237899
0.0245454
0.00706868
0.0257445
0.0260802
0.0116298
0.0237609
0.0220149
0.0242473
0.0227963
0.0224715
0.0221667
0.0252262
0.018791
0.0259384
0.0251078
0.0254492
0.024068
0.0124851
0.0243449
0.0233529
0.0249077
0.0192048
0.00813159
0.0240488
0.0241299
0.0143881
0.0260689
0.0260361
0.0234093
0.0184056
0.00565464
0.00397145
0.0251374
0.0259643
0.0222965
0.0252042
0.0164024
0.0206407
0.02603
0.0236527
0.0178672
0.023805
0.0139918
0.0241184
0.0223178
0.0234674
0.0146669
0.0205356
0.0249297
0.0237894
0.00731716
0.0250868
0.0246185
0.0172709
0.0261894
0.0220016
0.0209635
0.0186634
0.00531112
0.0235359
0.0257182
0.0258032
0.00459646
0.0244107
0.0219215
0.0229354
0.0110781
0.0254949
0.0229377
0.0246757
0.0109634
0.018949
0.0261044
0.0231444
0.0261844
0.0261889
0.0232254
0.00958438
0.023835
0.026133
0.0260056
0.0165647
0.0225883
0.0222935
0.0216603
0.0261554
0.0261561
0.00743222
0.0247733
0.0231132
0.0262262
0.0215227
0.0103416
0.00538297
0.00269479
0.00776579
0.0122193
0.0249468
0.0193604
0.025936
0.0252735
0.025432
0.0185348
0.026037
0.00696148
0.00400435
0.0257546
0.0258449
0.0156505
2.08724e-05
0.0186001
0.00917423
0.0224406
0.0151404
0.0261102
0.0203328
1.71944e-05
0.0262525
0.0145967
0.0260747
0.0260572
0.0163866
0.00324619
0.00785891
0.0145867
0.0160694
0.0225548
0.00186554
0.0249039
0.0161602
0.0260746
0.0132231
0.0205568
0.0236126
0.0194506
0.0259105
0.0243994
0.0260419
0.00274305
0.0151878
0.00724999
0.00765628
0.0258507
0.0153363
0.0260813
0.0258917
0.0262728
0.02085
0.00971973
0.0260001
0.0236559
0.0139382
0.005775
0.0248057
0.0254563
0.0121775
0.0253241
0.0258605
0.0239298
0.0217693
0.0241664
0.0250743
0.0261841
0.00679553
0.0256348
0.0252028
0.0261251
0.0196518
0.013442
0.0214673
0.023934
0.0126272
0.0180455
0.0194158
0.0253642
0.00397866
0.0222834
1.70776e-05
0.0122261
0.0112687
0.0249096
0.0258748
0.0118859
0.013193
0.0247459
0.0256825
0.015552
0.0177977
0.0181798
0.0210952
1.8088e-05
0.0256473
0.0071429
0.0251808
0.00486203
0.0261627
0.0256732
0.0255657
0.0247297
0.00401182
0.0259686
0.0138123
0.00278563
0.0250728
0.020921
0.0165237
2.24912e-05
0.0206751
0.025891
0.0214486
0.0207545
0.0134756
0.0226874
0.0133074
0.0168505
0.0141402
3.28916e-05
0.0246445
0.025724
0.0199884
0.00684521
0.0247073
0.0135314
0.0241824
0.023885
0.022751
0.0259217
0.00665925
0.0250798
0.0260386
0.0173748
0.0203524
0.0111922
0.014086
0.00564746
0.00813453
0.0164924
0.00219864
0.015063
0.0218807
0.0217788
2.49903e-05
0.0225661
0.0129255
0.0263222
0.00431785
0.00496656
0.0256219
0.0250247
0.0216147
0.0250305
0.0254481
0.0258357
0.0252051
0.0260914
0.013368
0.0196131
0.0233397
0.0226865
0.0227141
0.0148086
1.55407e-05
0.00516223
0.0111007
0.00559352
0.0133547
0.00308751
0.0239238
0.0228091
0.00395588
0.0224843
0.00631668
0.0186001
0.021581
2.91662e-05
0.023057
0.0248054
0.0130516
0.025882
0.0101882
0.0152465
0.0203472
0.00755254
0.0253645
0.0148895
0.0218339
0.025437
0.0131758
0.000860601
0.0223835
0.0225528
0.0225983
0.0244132
0.0256773
0.00540192
0.0248547
0.022359
0.012794
0.0262917
0.00909042
0.020179
0.0258391
0.0200039
0.00597264
2.70848e-05
0.00907897
0.0102112
0.0120383
0.0255534
0.0160225
0.0261631
0.0261435
0.014549
0.025373
0.00713328
0.0133401
0.0120991
0.0112856
0.0241574
0.0134081
0.0251153
0.0237745
0.0250653
0.0236215
0.0137454
0.0254542
0.0241653
0.0219017
0.00644778
0.0261499
0.00844503
3.85802e-05
0.0250825
0.0019927
3.4789e-05
0.0142504
0.0262717
0.00473299
0.0222647
0.0262243
0.0261759
0.0056008
0.0258321
0.0251115
0.0254895
0.0162504
0.0249683
0.0118534
0.0248537
0.0251561
0.0206972
0.0256518
0.0172405
0.024501
0.0222604
0.0198096
0.0244297
0.0252476
0.0233422
2.92901e-05
0.0198483
0.0247709
0.00347735
0.0173759
0.0129009
0.0254686
0.0258896
0.00823572
0.0122224
0.00893684
0.0127445
0.00934311
0.0105834
0.024616
0.0118606
0.0108059
0.0228151
0.012109
0.0251489
0.00633046
0.00443917
0.00512513
0.0195058
0.00923626
0.00117273
0.0249482
0.0263388
0.0262787
0.00854696
0.0128995
0.0037374
1.98991e-05
0.0105621
0.0224523
0.0259358
0.0132495
0.00477379
0.0133885
0.0211053
0.0164966
0.0257047
0.00854922
0.0033078
0.0115459
0.00872581
0.00667376
0.0132387
0.0247672
0.00775987
0.0129021
0.00374285
0.0133819
0.00781313
0.0210821
0.0112762
0.00438353
0.0219607
0.00674225
0.0150702
0.0229967
0.00902646
0.0214138
2.10221e-05
0.00855591
0.0183422
0.0142074
4.96695e-05
0.0208974
0.015182
0.0059407
0.02291
0.0131203
0.0224392
0.0246084
0.0205752
0.0259565
0.025772
0.0224796
0.0256004
0.0241485
0.0260063
0.0225233
0.0114985
0.0261958
0.017056
0.000833359
0.00913946
0.0261615
0.020931
0.0225049
0.00858547
0.0250135
0.00593044
0.00894172
0.0230914
0.0125588
0.011902
0.00738361
0.0226893
0.023169
0.0103173
9.24497e-05
0.00643405
0.0251238
0.0262687
0.0260074
0.0228197
0.0152526
0.0244512
0.0258843
0.0243751
0.0101051
0.0254843
0.0204549
0.0220601
0.0247581
0.00861304
0.0214977
0.0219858
0.0227756
0.0105813
0.0237319
0.0100069
0.0255939
0.0212766
0.0253118
0.0201601
0.00762676
0.00671989
4.56354e-05
1.86371e-05
0.0213934
0.0202902
0.0104359
0.0261114
0.00595415
0.0231024
0.0216267
0.0231673
0.0199311
0.00943232
0.0247753
0.0184218
0.000780439
0.00623424
0.00278714
0.0111479
0.0213492
0.00905668
0.00430654
0.0249494
0.0188018
5.81088e-05
0.0172473
0.0263639
0.0120986
0.0254379
0.0148018
0.0145695
0.0141617
0.0257752
0.021973
0.0111768
0.0255536
0.019564
0.0252522
0.0154672
0.0262539
0.011409
0.0231417
0.00923591
0.0254448
0.0236794
0.0225393
0.0213633
0.0107638
0.0120434
0.025332
0.0239123
0.0246749
0.0263445
0.0204945
0.0248871
0.00267894
0.00188761
0.00809996
0.0262674
0.0250366
3.85518e-05
3.93751e-05
0.00318051
0.0050378
0.0111433
0.0234188
0.0155189
0.00928879
0.0261528
0.0102484
0.0240634
0.0196155
0.0251288
0.00993137
0.0263204
4.08819e-05
0.0263758
0.00524395
0.010959
0.0251487
0.00825261
0.0225174
0.00429342
0.0158339
0.0217056
0.0233286
0.00786549
0.00477857
0.0223658
2.50535e-05
0.0140127
0.0245503
0.00559957
0.0251405
0.00842856
0.0246263
0.0241703
0.0246274
3.64181e-05
0.0252036
0.00863982
0.022909
0.0257213
0.0262947
0.0263594
0.026076
0.0243077
0.00931921
0.0168171
0.0209948
0.0162588
0.0212329
0.0257201
0.025844
0.0259646
0.00906179
0.0184667
0.0261919
0.021593
0.0235183
0.0255535
0.00550045
0.0215364
0.0225733
0.0248679
0.0111382
0.0231542
0.0241497
0.00847624
0.0120132
0.0262636
0.0263489
0.00256906
3.85665e-05
0.00437524
0.0258801
0.0228296
0.00442613
0.0238373
0.0238863
0.0262257
0.0112565
0.0165402
0.00618168
0.0251254
0.0104573
0.0155479
0.00642979
4.47138e-05
0.0231064
0.0216484
0.0250027
0.000915718
0.0260872
0.0245256
0.0197315
0.0181396
0.0226402
0.0231803
0.0233882
0.0236462
0.0246281
0.00955441
0.0229418
0.00859052
2.10661e-05
0.0132033
0.0248268
2.64698e-05
0.015699
0.00594475
0.00619113
0.022597
0.0205056
0.0240337
0.0182284
0.0113995
0.023921
0.0100701
0.0247986
0.0235325
0.024931
0.0262921
0.0090325
0.0247888
0.025908
4.4335e-05
0.00563296
0.0236179
0.0106482
4.80041e-05
0.00817597
0.0132044
2.59318e-05
0.00548292
0.0262503
0.0174527
0.0177797
0.0263845
0.0215928
0.0261715
0.0228638
0.0234859
0.0187653
0.00663688
5.15576e-05
0.0241082
0.00911151
0.0260754
0.0257656
0.0263802
0.00991367
2.44935e-05
0.0211464
0.026144
0.00928273
0.00805699
0.00306422
0.0121325
0.0190212
0.0150735
0.0260648
0.0261806
0.0224013
0.0261808
0.0103853
0.0260579
0.0165071
0.012013
0.000904452
4.68129e-05
0.0258331
0.0238291
0.0163289
0.0107884
0.0108999
0.0202415
0.0188154
0.00622509
0.00558354
0.00832211
0.00563976
5.03718e-05
0.00625797
0.0247166
0.0248415
0.0226933
0.00481216
0.0258852
0.0215973
0.0241184
0.0133254
0.0184021
0.0147207
0.00950195
0.00903228
0.0258778
0.0107149
0.0160105
2.33567e-05
0.0261259
0.00519862
0.0110375
0.00322122
0.0225053
0.0111566
0.0152719
0.00188271
0.0263874
0.0178433
0.02172
0.0259912
0.024529
0.000645576
0.0223137
0.00135869
0.00689684
0.00353977
0.0261092
0.00565668
0.0262844
0.00984496
0.020945
0.0128865
0.0261576
0.0262422
3.58942e-05
0.0066523
0.0262466
2.46935e-05
0.0151047
0.0232519
0.0259936
0.026108
0.0100065
2.33517e-05
0.0245717
0.0257175
0.0232416
0.0159567
0.0250025
0.025991
0.0202198
0.0213886
4.67752e-05
0.0222503
2.05167e-05
0.0251445
0.00201495
0.00476114
0.0171854
0.0152149
0.00213386
0.0262638
0.0225211
0.0239331
0.0252642
3.47701e-05
0.0235483
0.0258146
0.0115155
0.00771264
0.00994574
0.017613
0.00203207
0.0236913
0.0254174
0.0258937
0.0100642
0.0102893
0.023974
0.00785392
0.0241365
0.00813294
0.00921026
0.000695202
0.0241776
0.00942977
0.025935
0.0263285
0.00075002
0.00436722
0.0247098
0.024273
0.0122902
0.0143487
0.026032
0.0259067
0.0151613
0.0107009
0.026387
0.0262596
0.00395518
0.0248146
0.0128436
0.0263814
0.00427741
3.1131e-05
0.0230854
4.2581e-05
0.00982609
0.0210802
0.0115802
0.010155
0.01295
0.00932386
0.0196943
0.0241362
0.0236939
0.0263408
0.026111
0.0107237
0.0223827
0.00590898
3.37779e-05
0.0261472
0.0243093
0.0253373
0.0257722
0.0259124
0.0257996
0.0250795
0.0231031
0.0235988
0.0244247
0.0226586
0.0247943
0.0242028
0.0233634
0.0224398
0.0224297
0.00238448
0.00839917
0.00862791
0.00933911
0.0224612
0.00295961
0.024638
0.000718061
0.0256819
0.0206412
0.0104136
0.0141107
0.0220383
0.0246641
0.0247368
0.00268518
0.0215768
0.011731
0.0253481
0.0242927
0.0263176
0.0121158
0.00905691
0.018804
0.0213792
0.0247241
0.0247784
0.0230491
0.0145716
0.0185932
0.0220242
0.0256117
0.0255631
0.0236897
0.0126793
0.00113693
0.00400683
0.0172855
0.00418345
0.0126747
0.00755274
0.015773
0.0143677
0.00960689
0.00207618
0.0254895
0.00633748
0.0114819
0.00603728
0.00187124
0.0158505
0.0245285
0.0110847
0.0229754
0.000783886
0.00849861
0.000927665
0.0230351
0.0208674
0.0124442
0.00635154
0.0251512
0.00728355
0.0141137
0.024829
0.0262894
0.0260355
0.0228864
0.0221293
0.0259679
0.026266
0.00599659
0.0248928
0.0111954
0.0110069
0.00252262
0.0256838
0.0138212
0.0143049
0.00203932
0.021472
0.0136642
0.0262447
0.00469711
0.0130906
0.00958383
0.02358
0.0243326
0.0254984
0.000846785
0.0116254
0.0193658
0.0240729
0.00821899
0.0124953
0.0256227
0.0234851
0.0210375
0.0072402
0.0231906
0.0237658
0.00841415
0.0137931
0.0259011
0.00752689
0.0168529
0.00636684
0.0207919
0.00252639
0.0100667
0.0254055
0.0193602
0.00605719
0.0141746
0.0249977
0.000739508
0.0112676
0.00106182
0.0125902
0.0112526
0.0149502
0.0258788
0.00640454
0.0217738
0.0261891
0.0247527
0.0216861
0.0245218
0.00358198
0.00843127
0.00943959
0.016134
0.0237544
0.0154044
0.0262399
0.0203605
1.95497e-05
0.0134428
0.0254277
0.0259862
0.0123483
0.0233555
0.00747403
0.0227345
0.00641684
0.026
0.00817849
0.0250389
0.00874773
0.0203667
0.0220514
0.00939018
0.00278113
0.000987364
0.0230361
0.00333959
0.015022
0.010898
0.0172176
0.0193802
0.0161499
0.018415
0.0257506
0.0185938
0.0116764
0.0207869
0.0112445
0.00505128
0.0252629
0.00938704
0.0231644
0.00986513
0.0261817
0.0261149
0.0260875
0.0214469
0.00623853
0.00632317
0.0209483
0.0167911
0.0255265
0.0236161
0.021436
0.0229035
0.0261089
0.024954
0.0252956
0.0230312
0.0224769
0.00920925
2.7465e-05
0.0247881
0.0218569
0.0140177
0.00554838
0.0187795
0.0237432
0.0263178
0.00528853
0.0216455
0.0261262
0.0263761
0.00399682
0.0237077
0.0241456
0.0237509
0.0177317
0.000221854
0.0110513
0.0222527
1.75227e-05
0.00359736
0.0249575
0.0123901
0.00608933
0.0257649
0.00984717
0.0220063
0.0261408
0.0229319
0.00371369
0.0239346
0.0139134
0.0115633
0.0258086
0.0221512
0.00490777
0.0225097
0.00282056
0.0250917
0.0147414
0.0158748
0.025307
0.0122418
0.00807582
0.0246404
0.022459
0.0122903
0.023405
0.00851934
0.00354601
0.00590004
0.0213178
0.0225696
0.0256752
0.00846258
0.0237103
0.0233913
0.0229709
0.018259
0.0255545
0.0255542
0.022091
0.0260932
0.0124515
0.00977957
0.0197457
0.0255669
0.00610457
0.0241052
0.0221198
0.0212047
0.00123435
0.0259584
0.0241477
0.00403208
0.0234482
0.0256423
0.0246541
0.0114464
0.0256949
0.0149744
0.00698294
0.0242492
0.00788739
0.0203817
0.0259235
0.00644538
0.00888707
0.00402565
0.0224436
0.0162946
0.0212986
2.00006e-05
0.00609079
0.0258969
0.0174389
0.0249709
0.0096259
0.0261877
0.0261661
0.0246853
0.0237184
0.023581
0.0258785
0.00347784
0.0227235
0.0251128
0.0263387
0.0241525
0.000967914
0.0132544
6.00856e-05
0.0219161
0.0253158
0.00567015
0.0260949
0.0259835
0.0232124
0.0262035
0.0261307
0.0190867
0.0230022
0.0236563
0.0156036
0.00925869
0.00475031
1.25414e-05
0.0133669
0.0258157
2.85577e-05
0.00228571
0.0175283
0.00112781
0.00195336
0.00415213
0.0135836
0.0235456
0.00353214
0.0216269
0.00961061
0.02454
0.018686
0.0245126
0.0234551
0.00797851
0.016002
0.0013314
0.0259187
0.0244662
0.0230028
0.0191823
0.0217445
0.0237276
0.0205571
0.0109801
0.0212176
0.00518933
0.0241207
0.0250829
0.00966509
0.0239105
0.0225252
0.0200761
0.0229938
0.0162863
0.000820964
0.0255411
0.0249449
0.013743
0.0213278
0.0120433
0.0111409
0.0155703
0.0222097
0.0249762
0.0144479
0.00846623
0.0253068
0.0242316
0.0069598
0.0245025
0.0251748
0.017113
0.0243201
0.004245
0.0223364
0.0113025
0.0237843
0.0241478
0.0224911
0.025211
0.0255962
0.0144967
0.0228418
0.0234438
0.0242259
0.0131455
0.00865888
0.0244972
0.0178366
0.0100589
0.0134462
0.0244641
0.0100852
0.00776864
0.00388011
0.0261312
0.00556936
0.0223749
0.00987695
0.0242105
0.0125895
0.00293085
0.00594729
0.0262258
0.0259469
0.0109277
0.000112897
6.68204e-05
0.0231071
0.00391721
0.0234866
0.0256222
0.00690323
0.012872
0.0238332
0.0127823
0.0206539
0.0261874
0.00557184
0.00263962
0.0120147
0.0242835
0.026089
0.0176432
0.0223798
0.0258903
0.0192861
0.0082092
0.00841279
0.00988147
0.0247389
0.0230103
0.00804455
0.0114371
0.0110808
0.0168581
0.00887227
0.00976588
0.0262371
0.0262192
0.0220701
0.0240281
0.0247322
0.00104296
0.0131029
0.0261935
0.0261662
0.0262132
0.0235393
0.0194754
0.000879357
0.00881354
0.023192
0.023671
0.0239554
0.000682954
0.0144472
0.0102438
0.0262333
0.0124697
0.0256141
0.022184
0.0138167
0.0251876
0.00294242
0.0174013
0.0243235
0.00851045
0.0252989
0.00540404
0.00744182
0.0205268
0.00997166
0.0262358
0.0168211
0.00425702
0.0145508
0.0230671
0.00896558
0.00828051
0.0262153
0.0248442
0.00716694
0.000802388
0.0233152
0.0136625
0.00972704
0.0186856
0.00106107
0.00854542
0.00104842
0.00733159
0.00612187
0.00621574
0.00992312
0.01324
0.00856272
0.0122116
0.0226352
0.024156
0.0251874
0.0116973
0.0246067
0.00990747
0.00118131
0.0256939
0.0250504
0.023222
0.022505
0.0248628
0.00910701
0.0160762
0.012804
0.0147292
0.0102255
0.00937607
0.0245799
0.0242364
0.00933514
0.0220699
0.0258404
0.0262962
0.0235645
0.000943324
0.026209
0.00298829
0.026255
0.0254135
0.00223411
0.0233342
0.0133127
0.00853689
0.0117065
0.00762509
0.0247048
0.0262694
0.0224028
0.021654
0.0161158
0.00691111
0.0060505
0.0230021
0.00364568
0.0100036
0.006666
0.0261972
0.0258171
0.0253774
0.0219122
0.0102033
0.0165574
0.0106751
0.0235096
0.00718013
0.0143366
0.0215771
0.0131087
0.0108841
0.0219567
0.0129159
0.0130042
0.0151162
0.0204379
0.00126326
0.0230779
0.0224104
0.0205916
0.0138224
0.0259827
0.0066615
0.0147041
0.00592902
0.0231898
0.0262216
0.00919628
0.0239017
0.0262824
0.0150097
0.00481088
0.0243718
0.0152007
0.023384
0.00969154
0.0139261
0.0257971