/*--------------------------------*- C++ -*----------------------------------*\
  =========                 |
  \\      /  F ield         | OpenFOAM: The Open Source CFD Toolbox
   \\    /   O peration     | Website:  https://openfoam.org
    \\  /    A nd           | Version:  10
     \\/     M anipulation  |
\*---------------------------------------------------------------------------*/
FoamFile
{
    format      ascii;
    class       volScalarField;
    location    "500";
    object      p;
}
// * * * * * * * * * * * * * * * * * * * * * * * * * * * * * * * * * * * * * //

dimensions      [0 2 -2 0 0 0 0];

internalField   nonuniform List<scalar> 
23845
(
-0.118432
-0.159195
-0.254703
-0.252298
-0.136972
0.000807044
-0.24045
-0.259629
-0.00104376
-0.0808185
-0.0220003
0.0006814
-0.00500184
-4.43211e-05
-0.248433
-0.0429579
-0.00608743
-0.00770816
-0.00838282
-0.00150277
-0.137664
-0.02096
-0.186592
0.000396026
-0.0485824
-0.000205482
-0.212763
0.00180731
-0.2678
-0.00125268
-0.246695
-0.246198
-0.259764
-0.00790433
0.000961018
-1.11762e-05
-0.256995
0.000677992
0.00118894
0.000936911
-0.0123125
-0.00534187
-0.00487942
-0.00657421
0.00140106
-0.00442249
-0.154662
-0.0358748
-0.238467
-0.270711
-0.246679
-0.244668
-0.238445
0.00127179
-0.24894
-0.00639122
-0.184764
-0.25629
-0.140436
-0.226135
-0.266082
-0.00465959
-0.0310156
-0.268249
0.000696988
-0.00625886
-0.227263
-0.000338457
-0.00110606
-0.0110933
-0.262389
-0.259697
-0.00301442
-0.247848
-0.000587374
-0.249105
0.000490399
0.000220429
-0.255441
-0.00858149
-0.192402
-0.238839
-0.170524
-0.259917
-0.251628
0.00115197
-0.230677
-0.235828
-0.000209871
-0.00891677
-0.251403
-0.0184931
-0.270054
0.00112906
-0.253278
-0.25598
-0.00800765
-0.0400411
-1.57831e-06
-0.138001
-0.00714167
-0.241662
-0.1018
-0.278979
-0.272914
-0.258753
0.00048047
-0.000142689
-0.229403
-0.00504657
-0.0192999
0.000286252
-0.256197
-0.0605852
-0.000518979
-0.120387
-0.000536974
-0.0638812
-0.266622
-0.265806
0.000713587
-0.250106
-0.0111446
-0.263281
-0.233929
0.000892337
-0.265141
-0.272039
-0.258473
-0.177123
-0.26154
-0.0574162
-0.0403053
-7.06716e-05
-0.00679445
-0.109234
-0.276854
0.000489907
-0.223865
0.000623495
-0.26662
-0.00558368
0.0013771
-0.00666382
-0.0223896
-0.00515904
-0.0934361
-0.246236
-0.265174
-0.0122776
-0.243969
-0.00275498
-0.217507
-0.00353863
-0.255782
-0.0155154
-0.110274
0.00101415
-0.262793
-0.261007
-0.0146643
-0.251879
-0.252052
0.000500006
-0.00781268
-0.0110374
-0.000220389
-0.253541
-0.00227955
-0.005488
-0.00066555
-0.253501
0.000964199
-0.263109
-0.000226257
-0.25466
-0.0226562
-0.022711
0.00177127
0.00130923
-0.132546
-0.134827
-0.245039
-0.0169097
-0.0288391
-0.00702412
-0.00458347
-0.259591
-0.269168
-0.00568898
-0.270681
-0.00101783
0.000452129
0.000844972
-0.0202889
0.000100303
-0.276132
-0.270912
-0.287225
-0.021809
-0.0100567
-0.000807879
-0.265278
-0.0508652
-0.259895
-0.253219
-0.256918
0.00070066
-0.163289
-0.00753514
-0.00991479
-0.258367
-0.031541
-0.00340795
-0.24199
-0.253212
-0.0464819
-0.00574102
-0.268667
-0.260508
-0.00299791
-0.249479
-0.276646
-0.0162628
-0.00502468
-0.249752
-0.271529
0.00193056
0.000585385
-0.0128619
0.0013323
-0.239362
0.00113343
-6.43753e-05
-0.123374
-0.265855
0.000429357
-0.248548
0.00181252
-0.257142
-0.237746
-0.0761071
-0.25774
-0.115473
-0.251276
-0.0358561
0.000816906
0.00398292
-0.253571
-0.242849
-0.00367035
0.00129762
-0.247989
-0.00572264
-0.239447
-0.254075
-0.265172
-0.253934
-0.000821865
0.000218973
-0.234142
0.00046673
-0.264397
-0.017262
-0.0146067
0.00227712
-0.253796
-0.265053
-0.230347
-0.251257
0.00103349
-0.255944
-0.244044
0.00151374
-0.0179752
0.000248789
-0.253287
0.00272613
-0.282686
-0.187358
-0.259386
0.00118692
-0.24897
-0.0170956
0.00118365
-0.266429
-0.260288
-0.000292389
-0.254613
-0.25209
-0.254398
-0.242373
-0.267836
-0.254226
-0.25447
0.000966096
-0.266588
0.000324761
0.00101455
-0.263687
-0.265965
-0.246355
-0.266528
-0.249886
0.000485878
-0.248087
-0.270383
-0.245076
-0.00795421
-0.275246
-0.243296
-0.212789
-0.00703366
0.00426355
-0.253276
-0.268091
-0.266388
-0.0369045
-0.255333
-0.0041362
-0.274035
-0.256107
-0.265085
-0.000993616
-0.251167
0.00108494
-0.25374
-0.187173
-0.266094
-0.00705033
-0.246994
-0.0190571
-0.249492
0.000563589
-0.262417
-0.249295
-0.250127
-0.00800213
-0.00493685
-0.254222
-0.254656
-0.26509
-0.0214261
6.4735e-05
0.000574073
-0.287586
0.000937709
-0.254416
-0.25447
-0.24764
-0.246728
-0.266513
-0.272554
-0.251478
-0.238608
0.00306403
-0.00506412
-0.00255776
-0.251606
-0.255844
-0.261148
0.00391997
-0.0878449
-0.0155771
-0.268228
0.000469154
-0.26275
-0.00131843
-0.265343
0.000805727
-0.00534511
-0.253265
-0.275686
0.000581587
0.00013206
-0.252215
-0.251992
-0.249849
-0.00493475
-0.258815
-0.248574
0.000899146
-0.171821
-0.000458541
-0.000451218
0.00114585
0.00135294
-0.253752
-0.00968823
-0.254318
-0.23017
-0.00429343
-0.270924
-0.274593
-0.242752
-0.261521
-0.0139873
0.00080413
-0.0114817
0.000588903
-0.252354
-0.234553
-0.252808
-0.255902
-0.216027
-0.247191
0.000433864
-0.272527
-0.271405
-0.265504
-0.252399
0.00205783
-0.235906
-0.265691
-0.111981
-0.252855
-0.226985
-0.0156057
0.00158123
-0.114166
-0.267126
-0.00348156
0.000936576
-0.254593
-0.264851
-0.14755
-0.277013
-0.243944
-0.262105
-0.26179
0.000153803
-0.00756671
-0.265152
-0.00760143
-0.00393104
-0.000855661
0.00116955
-0.00669584
-0.267688
-0.261866
-0.250537
-0.271797
-0.273464
-0.264853
-0.23998
-0.266957
-0.00129423
-0.213318
0.00212089
-0.256314
-0.25634
-0.00100444
-0.280313
0.00127462
-0.000263699
-0.26351
-0.213818
-0.0557063
-0.253268
-0.00208748
-0.184937
-0.253246
-0.274352
-0.20097
0.00193755
0.000532648
0.00102298
-0.240478
-0.00151851
-0.257758
4.69407e-05
0.000218603
-0.238335
-0.26545
-0.269202
-0.113875
-0.00279002
-0.249013
-0.00111821
-0.0116698
-0.186128
-0.2168
-0.24506
-0.0218235
-0.0097741
-0.243926
0.000553365
0.00103952
-0.247432
-0.264219
-0.000141675
-0.265696
-0.254671
-0.203929
-0.261588
-0.166658
-0.00233161
-0.255011
0.00083964
0.00105454
-0.228962
-0.264041
-0.263967
-0.177015
-0.259054
-0.257232
-0.0158859
-0.00697894
-0.000920804
-0.264104
-0.245372
-0.265478
-0.257584
-0.242109
0.00204328
-0.000912979
-0.226083
-0.257822
-0.256741
0.000517398
-0.249695
-0.000597341
-0.00759623
-0.26796
-0.00308625
-0.247249
-0.25377
-0.267843
-0.168567
-0.262748
-0.2642
-0.273517
-0.087348
-0.186032
-0.00721273
-0.00711974
-0.00112349
-0.266524
-0.138195
-0.255786
-0.260363
0.00291067
-0.172334
-0.173072
-0.0179884
-0.17057
-0.023407
-0.00126144
-0.00130206
-0.00271076
-0.00402645
0.00104261
-0.262826
-0.00473706
-0.257791
-0.19812
-0.00433598
-0.263862
0.000601661
0.00166814
-0.253324
-0.254374
-0.196622
-0.00288796
-0.00306081
-0.275534
-0.272467
-0.00237523
-0.268081
-0.00584046
-0.00224209
-0.242727
-0.00753119
0.0015639
-0.0506819
-0.115132
-0.26536
-0.251502
-0.253687
-0.13746
-0.00278549
0.000742152
-0.0184737
-0.249394
-0.266956
-0.00400052
-0.00212898
-0.00177605
-0.251912
-0.00310925
-0.197387
-0.252392
-0.143059
-0.0150029
-0.258334
-0.00668395
-0.00162841
0.00278163
-0.00738336
0.000564698
-0.251851
-0.00174195
-0.112284
-0.2481
-0.258763
-0.0464832
-0.251589
-0.125078
-0.242403
-0.0146844
-0.184242
-0.114822
-0.19264
-0.113902
-0.266698
-0.113017
-0.0628909
-0.0942876
-0.00173743
-0.00165537
-0.116109
-0.262397
-0.148341
-0.0107048
-0.138853
-0.00951428
-0.011144
-0.00654177
-0.00784878
-0.054304
-0.00476341
-0.00409637
-0.204607
-0.000592645
0.00103568
-0.256001
-0.10426
-0.058309
-0.00355873
-0.015374
-0.173979
-0.0105059
0.000279722
-0.00665197
-0.107433
-0.038932
-0.135733
-0.00548363
-0.042691
-0.256414
-0.000737105
0.00121498
-0.0682643
-0.258034
-0.267269
-0.270657
-0.265134
-0.0440138
-0.264894
-0.020853
-0.0116396
-0.00852614
-0.00831755
-0.136382
-0.00821919
-0.00418364
-0.00762494
-0.106952
-0.234705
-0.0315162
-0.0447771
-0.0110535
-0.017998
-0.0147825
-0.011714
-0.0447807
-0.00966224
-0.059063
-0.0193725
-0.00799039
-0.0242531
-0.00749359
-0.00271785
-0.00779087
-0.0073764
-0.0437637
-0.00613054
-0.00653297
-0.0389808
-0.0392482
-0.00580718
-0.00576672
-0.0128105
-0.0162006
-0.0202188
-0.0261452
-0.0393722
-0.0101264
-0.0529608
-0.0095376
-0.0240754
-0.00788986
-0.0165035
-0.00764473
-0.00718852
-0.00776226
-0.00766384
-0.0061321
-0.00673769
-0.00800542
-0.00632255
-0.232123
0.0017876
-0.00554617
-0.00651232
-0.0062432
0.00081322
-0.0144976
-0.00539384
-0.0161972
-0.0212497
-0.00901894
-0.00476248
-0.00653197
-0.000977341
-0.0301045
-0.0177196
-0.0758957
-0.000455515
-0.0145706
-0.00523815
-0.00715349
-0.00078575
-0.00548117
-0.0340435
-0.00580778
-0.0992945
-0.00510249
-0.000781272
-0.00395876
0.000142268
-0.00455181
-0.00803344
-0.263962
-0.00121382
-0.00697389
-0.0639276
-0.00454527
-0.00299955
-0.00158195
-0.234586
-0.0086647
0.000196136
-0.0416958
-0.00521621
-0.263437
-0.0260443
-0.0206034
-0.031155
-0.0231758
-0.0511788
-0.0094719
-0.0102032
-0.0128791
-0.0201743
-0.00842671
-0.0146156
-0.00693029
-0.150309
-0.00793148
-0.0039995
-0.0403542
-0.0276069
-0.0325782
-0.252595
-0.0155906
-0.00568758
-0.095862
-0.0193267
-0.0061169
-0.00654868
-0.00811244
-0.247785
0.00318332
-0.0144457
-0.00334197
-0.0060672
-0.00565344
-0.00299539
-0.00387314
-0.00596825
-0.00641122
-0.00741843
-0.00489071
-0.0044532
-0.00476279
-0.173448
-0.00723747
-0.00215306
-0.00578064
-0.0047334
-0.00544792
-0.0581046
-0.0105085
-0.0204613
-0.00914743
-0.00286641
-0.00153255
-0.00563578
-0.00165863
-0.118051
-0.03139
-0.0292386
-0.0072739
-0.00402801
-0.0114264
-0.268478
-0.0156785
-0.0122817
-0.020648
-0.00591981
-0.00739636
-0.0298409
-0.00836167
-0.00852079
-0.00420707
-0.0108353
-0.00595935
-0.00605373
-0.00597337
-0.00568735
-0.0037592
-0.008217
-0.011789
-0.00716498
-0.00810588
-0.0424417
-0.00506324
-0.00827395
-0.256502
-0.0439585
-0.00137561
0.000600834
-0.00460568
-0.0279332
-0.0191217
-0.0215077
-0.0150239
-0.00748636
-0.0168153
-0.0120763
-0.0134554
-0.0333241
-0.00814285
-0.000751153
-0.00641392
-0.00604589
-0.0136054
0.000500075
-0.247028
0.00118524
-0.0301985
-0.00350751
-0.0613963
-0.00330259
-0.00706485
-0.0262805
-0.0147814
-0.0832258
-0.0574825
-0.0166952
-0.0998264
-0.00815684
-0.0102584
-0.00491735
-0.00521905
-0.00503826
-0.00419778
-0.00757609
-0.00541407
-0.00507783
-0.0289555
-0.00273833
-0.0290201
-0.0341054
-0.0231662
-0.0177209
-0.0914657
-0.0158114
-0.00550105
-0.0284697
-0.00397143
-0.0632196
-0.0106959
-0.00481447
-0.10867
-0.0108302
-0.00614277
-0.015359
-0.00189375
-0.0072658
-0.228963
-0.00932327
-0.00520398
-0.00998388
-0.00308932
-0.00694445
-0.00385693
-0.0154166
-0.2726
0.00114405
-0.00842255
-0.0118177
-0.0140989
-0.102065
-0.0194491
-0.00365695
-0.0197738
-0.0074756
-0.00423206
-0.259763
-0.276723
-0.00594121
-0.00635224
0.00131777
-0.217319
-0.00526868
-0.252674
-0.00412506
-0.00486476
-0.0102604
-0.00868296
-0.00533599
-0.00513404
-0.00491035
-0.0926166
-0.00390455
-0.131351
-0.0169798
-0.0417093
-0.00552166
-0.0167901
-0.00956403
-0.0137955
-0.00997244
-0.00819245
-0.0251024
-0.00768677
-0.0180318
-0.0223602
-0.0290496
-0.00490783
-0.0170547
-0.0198617
-0.0077335
-0.0335361
-0.022976
-0.0147104
-0.0403758
-0.00374289
-0.0062809
-0.00676739
-0.00587372
-0.000567531
-0.00635771
-0.0164046
-0.00663871
-0.00305365
-0.0137733
-0.0126883
-0.0135409
-0.00700716
-0.20957
-0.00251331
-0.0062582
-0.00526493
-0.00524329
-0.00871542
-0.00623466
-0.0185745
-0.0899897
-0.123994
-0.00349568
-0.00717351
-0.0251617
-0.0413852
-0.00189068
-0.0456612
-0.00955053
-0.0110739
-0.0168101
-0.0416069
-0.00859368
-0.0188091
-0.0301875
-0.0195271
-0.0340703
-0.0268364
-0.0319685
-0.00357921
-0.00601552
-0.00552596
-0.00451999
-0.0145819
-0.0192333
-0.00586946
-0.286055
-0.00267865
-0.259033
-0.00414215
-0.00188597
-0.273167
-0.00227149
-0.00128079
0.000965242
-0.00503145
-0.00714266
-0.00411026
-0.00321328
-0.00479014
-0.0451761
-0.266985
-0.00351595
-0.0094127
-0.0124031
-0.169589
-0.195945
-0.118024
-0.0220635
-0.00360528
-0.00781855
-0.00399161
-0.001736
-0.000162163
0.0021567
-0.124851
-0.0869013
-0.0400587
-0.080517
-0.0553385
-0.0976269
-0.117108
-0.039864
-0.00435729
-0.0686413
-0.0260345
-0.0324459
-0.0306057
-0.0164204
-0.0217054
-0.0071244
-0.0184101
-0.00490161
-0.0145746
-0.00950135
-0.00692172
-0.00728266
-0.00792347
-0.00673196
-0.00569396
-0.00497554
-0.0108063
-0.158715
-0.0585511
-0.00314214
-0.0850529
-0.00302258
-0.00531623
-0.00391986
0.00052734
-0.00791822
-0.00478843
-0.0063361
-0.00515557
-0.00993945
-0.0066302
-0.109949
-0.00685305
-0.00201254
-0.0773757
-0.00728321
-0.00057129
-0.0117258
-0.048416
-0.00922683
-0.262137
-0.254012
-0.00504947
-0.0157084
-0.0180011
-0.0262981
-0.00774349
-0.00227513
-0.018976
-0.0124773
-0.0159703
-0.013075
-0.0103774
-0.00766288
-0.279877
-0.00766182
-0.0371809
-0.00375968
-0.00681719
-0.0522356
-0.00769649
-0.0075838
-0.267015
-0.00598958
-0.00224508
-0.00544314
-0.00550177
-3.30453e-05
-0.00459391
-0.00275421
-0.00192746
-0.0670705
-0.00468282
-0.00434886
-0.186245
-0.00232472
-0.00193617
-0.00159127
-0.207889
-0.00590284
-0.00393604
-0.0795033
-0.0045881
-0.00123194
-0.00334656
-0.00612938
-0.00693925
-0.26319
-0.00614134
-0.00326633
-0.0159115
-0.0256878
-0.0858583
-0.0205119
-0.0133048
-0.00368083
-0.00652215
-0.00538445
-0.00817523
-0.0021445
-0.0574907
-0.00655024
-0.000890319
-0.00323316
-0.0085691
-0.00681926
-0.244951
-0.262062
-0.00205961
-0.00552978
-0.00212258
-0.160402
-0.00683067
-0.00563973
-0.0222261
-0.00401519
-0.252493
-0.00259979
0.0026295
-0.00200466
-0.00928293
-0.00542963
-0.00961258
-0.0182782
-0.00284362
-0.0303741
-0.00907615
-0.0025943
-0.0114542
-0.00277549
-0.0101164
-0.0178322
-0.0122208
-0.0179543
-0.0074741
-0.00211356
-0.0085616
-0.0106538
-0.009069
-0.00589687
-0.0108817
-0.00951819
-0.0410841
-0.00436233
-0.00601412
-0.0608617
-0.00433607
-0.00952164
-0.089349
-0.00371688
-0.00857857
-0.127416
-0.00767775
-0.00613074
-0.105524
-0.0542656
-0.165998
-0.00108877
0.000354546
-0.0615943
0.000385103
1.75948e-05
-0.103505
-0.0326196
-0.0504885
-0.00678401
-0.0731249
-0.00431504
-0.00908799
-0.048993
-0.0220401
-0.00332492
-0.0206095
-0.0703225
-0.284472
-0.00284673
-0.00498388
-0.00236606
0.00134373
-0.0010285
-0.0049925
-0.00358469
-0.250207
-0.00778413
-0.00728258
-0.0512011
-0.00766877
-0.0295526
-0.00322579
-0.150297
-0.00645855
-0.00869607
-0.170581
-0.00694973
-0.005873
-0.00161576
-0.00599449
-0.265862
-0.00129243
-0.0954894
-0.0110401
-0.0295361
-0.261868
-0.254391
-0.0542911
-0.00295219
-0.00373867
-0.17663
-0.00285376
-0.00181013
-0.00441958
-0.119424
0.000316983
-0.00209659
-0.0065512
-0.101931
-0.00824746
-0.00650748
-0.0080169
-0.00362671
-0.270568
-0.0112487
-0.0123358
-0.0903359
0.000461416
-0.265296
-0.00408831
-0.259993
-0.000609817
-0.104102
-0.00834659
-0.00571416
-0.00253037
-0.00835768
-0.0118266
-0.0110696
-0.0168066
-0.028957
-0.00540927
-0.0061354
-0.000656509
-0.0284308
-0.0265945
0.000432949
-0.00755843
-0.00680438
-0.00891239
-0.0123999
-0.0129894
-0.00508496
-0.0153722
-0.0141051
-0.0829797
-0.00899517
-0.161912
-0.00101509
-0.011875
-0.00219234
-0.00183179
-0.255777
-0.0627671
-0.0361741
0.000464249
-0.04778
-0.00724086
-0.00593062
-0.066304
-0.00644263
-0.220763
-0.265498
-0.0905875
-0.0125497
0.00038901
-0.267205
-0.0109592
-0.0153422
-0.00974292
-0.0557744
-0.189256
-0.00317215
-0.00373221
-0.253697
-0.249024
-0.00271392
-0.0790652
-0.0938092
-0.0049833
-0.263374
-0.00406372
-0.107297
-0.00693495
-0.0685436
-0.000580888
-0.0561553
-0.199976
0.00164912
-0.257474
-0.0964511
0.00119116
-0.265528
-0.00341863
-0.051883
-0.0906209
-0.257002
-0.00150849
-0.0329285
-0.171085
-0.00530296
-0.0828249
-0.00637136
-0.00330845
-0.00534945
-0.0127929
-0.0722446
-0.00243056
-0.00236663
-0.128878
-0.0111195
-0.00377781
-0.00580821
-0.00294932
-0.00766992
-0.00694766
-0.0726485
-0.210388
-0.0752344
-0.00156901
-0.0125139
-0.00117483
-0.00843064
-0.0119248
-0.00646672
-0.261487
-0.00377926
-0.0809689
-0.261679
-0.00274637
-0.00116016
-0.0173188
-0.0327744
-0.0878713
-0.170217
-0.0169394
-0.00636315
-0.0121866
-0.000620729
-0.0011383
-0.00366321
-0.00105884
-0.000556099
-0.00442675
-0.0864459
-0.264445
-0.00675657
-0.00554511
-0.00616549
-0.210206
-0.00437683
-0.0129013
-0.00859805
-0.0071586
-0.00499192
-0.0109493
-0.0285548
-0.0291301
-0.0100368
-0.00117167
-0.0129673
-0.241035
-0.256934
-0.00481239
-0.00137798
-0.0280483
-0.00881403
-0.00323624
-0.00264885
-0.00691445
-0.0123178
-0.0111507
-0.264931
-0.00135558
-0.247691
-0.00381726
-0.000461034
-0.186153
-0.0118423
-0.0815554
-0.0108921
-0.0166376
-0.0212148
-0.0136688
-0.0044566
-0.0680842
0.000381927
-0.00660291
-0.00630316
-0.00970996
-0.25504
-0.0124295
-0.00852211
-0.0124214
-0.0552062
-0.256022
-0.0175898
-0.00158564
-0.207548
-0.0010923
-0.000670439
-0.0320994
-0.195166
-0.263342
-0.266744
-0.0105467
-0.00247886
-0.0268957
-0.0018689
-0.207788
-0.0620474
-0.000442713
-0.0155536
-0.134126
-0.00680182
-0.208858
-0.0160464
-0.0405866
-0.0104944
-0.122224
-0.0752748
-0.00110424
-0.00686712
-0.262866
0.000489886
-0.00205591
-0.0884875
0.00134817
-0.0152937
-0.0870565
-0.0440576
-0.25886
-0.000183447
0.000470022
0.0021225
-0.26268
-0.00173192
-0.00861493
-0.00972853
-0.260428
-0.0029535
-0.00639886
-0.00305448
-0.262168
-0.0476926
-0.000899453
-0.0125866
0.000592303
0.00106814
-0.000155915
-0.23229
-0.0240698
-0.000822951
-0.000996677
-0.14848
-0.0427622
-0.00744954
-0.0205323
-0.00042374
0.00138802
-0.259944
-0.000848926
-0.0323777
0.00100164
-0.0220778
-0.259223
-0.2633
-0.260448
-0.23506
-0.200716
-0.000877747
-0.0821026
-0.00120363
-0.00156773
-0.00591816
-0.198157
-0.00138893
-0.247179
-0.268899
-0.00375926
-0.00397083
-0.24266
-0.267086
-0.0748517
-0.233863
-0.0938558
-0.20209
-0.000998876
-0.0905088
-0.271955
0.00191686
-0.244305
0.00147219
0.000951407
-0.163915
-0.268765
-0.263631
-0.178534
-0.14445
-0.00704517
-0.273836
-0.00446396
-0.101568
0.000242464
-0.214637
-0.0681375
-0.00440021
-0.154966
-0.000118515
-0.00272328
0.000329829
-0.272137
-0.245462
-0.258296
-0.260121
-0.00346511
-0.140369
0.00137167
0.00336887
0.000569075
-0.0448499
-0.263034
0.00164127
-0.0093915
-0.176271
-0.246175
-0.0166431
-0.000245312
-0.255024
-0.00259496
-0.00408443
-0.00644532
-0.00287734
-0.0053473
0.000725658
0.00122504
-0.246852
-0.00373704
-0.00536272
-0.000902532
-0.0383806
-0.255236
-0.0886919
0.000524377
-0.257657
-0.0640354
-0.0503524
-0.000776131
-0.267836
-0.0117447
-0.273369
-0.258964
-0.260363
-0.00452062
-0.00348348
-0.184228
-0.1521
-0.00184416
-0.00347031
-0.140422
-0.162388
-0.207481
-0.0188182
-0.270031
-0.00182507
-0.257082
-0.00908538
-0.258254
0.000475708
-0.00241303
-0.00992991
-0.00716848
-0.26455
-0.000799789
-0.254145
-0.259239
-0.014471
-0.0222964
-0.0980469
-0.269998
-0.148674
0.000592134
-0.0674218
-0.0640733
-0.185001
-0.00209322
-0.253509
-0.128593
-0.253234
-0.261648
0.000164268
-9.61769e-05
-0.0490768
-0.253208
-0.0138566
-0.163397
0.00269644
-0.00161947
-0.00589563
-0.00496953
-0.26596
-0.00344442
0.00114748
-0.207493
-0.034651
-0.199275
-0.169274
-0.267462
-0.253088
-0.163069
-0.243136
-0.248255
-0.0724743
-0.017543
-0.2682
-0.00328111
-0.250677
0.00128562
-0.265159
-0.267802
-0.00628322
-0.00908498
-0.00696403
-0.00510404
-0.00696182
-0.000386835
-0.0115022
-3.68033e-05
-0.155273
-0.12625
-0.00514471
-0.0691534
-0.0474006
-0.245625
-0.267553
-0.255834
-0.258094
-0.260245
-0.183608
-0.270944
-0.0265734
-0.000272414
-0.267948
-0.0036171
-0.246864
-0.0733403
-0.0122393
-0.264082
-0.0558306
-0.000487277
-0.256059
-0.00353638
-0.21755
-0.11224
-0.0296101
-0.245075
-0.00427458
-0.141842
-0.0093856
-0.00655217
-0.20064
-0.283614
-0.00920075
-0.00792998
-0.00893912
-0.014825
-0.00346056
-0.251673
-0.0117215
-0.00903765
-0.181689
0.000749815
-0.262773
-0.0285152
0.00207995
-0.0419047
-0.258142
-0.266269
-0.260871
-0.262998
-0.230356
8.90273e-05
-0.239272
0.000911944
0.000737827
-0.251724
0.00118809
-0.257338
-0.196285
-0.209505
-0.259542
-0.0143271
-0.239689
-0.00690089
-0.00281657
-0.00764347
-0.00949497
-0.254323
-0.00610734
-0.00486663
-0.0118186
-0.250144
0.000818336
-0.243179
-0.259008
-0.00983124
-0.268753
-0.261738
-0.198642
0.00123061
-0.259809
-0.00800075
0.000451378
0.00178487
-0.262606
-0.00256718
0.00210492
-0.000682185
-0.0951628
-0.00503005
-0.254379
-0.00629032
-0.00906032
-0.0217102
-0.000657747
-0.207042
-0.00580204
-0.00789965
-0.150393
0.00106107
-0.00836405
-0.00543222
-0.264146
-0.0310759
0.000788046
-0.272058
-0.188613
-0.192811
-0.00360002
-0.00027842
-0.251175
-0.189505
-0.239658
-0.170173
-0.244259
-0.239995
0.00321888
-0.250831
-0.223232
-0.00798518
-0.25925
0.000839794
-0.265585
-0.264854
-0.26362
-0.0377254
-0.224076
-0.284824
-0.000499756
0.00058492
0.00120846
-0.250149
-0.253538
-0.247547
-0.274575
-0.216954
-0.0143612
0.00151583
-0.208691
-0.265001
-0.2542
-0.015268
-0.138039
-0.00390854
-0.257186
-0.27015
-0.260162
-0.263138
-0.263175
-0.254799
-0.0052168
-0.245815
-0.256453
-0.278557
-0.228943
-0.260188
-0.0205113
-0.255563
-0.264518
-0.00799957
-0.246792
-0.235158
-0.00477556
-0.254246
-0.0151703
-0.279295
-0.250227
-0.185491
-0.195055
-0.254082
-0.0211579
-0.192113
-0.255167
-0.004115
-0.215622
-0.00632639
-0.00841635
-0.0716428
0.00281632
-0.00460797
-0.0635512
0.000721267
-0.00483201
0.000835184
-0.00442957
-0.204687
0.00200184
-0.0864566
-0.277265
-0.26081
0.000807795
-0.023569
-0.00741423
-0.249883
5.67977e-05
-0.256765
-0.230903
-0.0275886
-0.240512
-0.258993
-0.249683
-0.0627106
-0.00894534
-0.22792
-0.235052
-0.26223
-0.00679213
0.00105187
0.000487618
-0.0203725
-0.209706
-0.00510953
0.000563634
-0.00546275
-0.263223
0.000983617
-0.0271163
-0.0142265
-0.0109341
-0.263576
-0.0141758
-0.00954699
-0.00556353
-0.212579
-0.00733474
-0.251897
-0.00761149
-0.0179913
-0.00723591
-0.0365079
-0.263913
-0.266035
-0.256499
-0.276159
-0.0243978
-0.0273222
-0.241125
0.000457906
-0.264785
-0.0128829
-0.00629143
-0.00659493
-0.137662
-0.240556
0.00111988
-0.150589
-0.278502
-0.256117
-0.26101
-0.220392
-0.00921145
-0.263348
-0.267061
-0.0075102
-0.0523513
-0.236011
-0.149311
4.9921e-05
-0.254681
0.000462316
-0.21987
-0.15111
-0.245041
0.000773818
-0.0110837
-0.241786
-0.00502511
-0.0455359
-0.0038177
-0.213289
0.00122242
-0.254347
-0.00407748
-0.24587
0.0030622
0.00186616
-0.00727323
-0.0158232
-0.228565
-0.248638
-0.0055799
-0.00686753
-0.00805832
-0.000195866
-0.028246
-0.00720837
-0.242776
-0.270163
-0.243564
0.00090733
-0.000830845
-0.259223
-0.251226
-0.2427
-0.268259
-0.235115
-0.00570495
-0.22476
-0.230749
-0.000563221
-0.240471
-0.0366746
-0.0589924
-0.00590591
-0.220898
-0.000481764
-0.256592
0.000509463
-0.263077
-0.25331
-0.00103722
-0.24366
-0.00531005
-0.264732
-0.207436
-0.0113214
-0.00496436
-0.24474
-0.263271
-0.00987554
-0.278913
-0.188297
-0.00119315
-0.266278
-0.0062371
-0.265076
-0.00301999
-0.00363293
-0.01233
-0.234227
-0.00502353
-0.255748
-0.0345294
0.00130493
-0.000784422
0.000810795
0.00122444
-0.00768637
-0.263879
-0.136175
-0.0197717
-0.120358
-0.0192351
-0.00243882
-0.00375116
0.00304017
-0.231375
-0.122031
0.00142149
-0.0155482
-0.0261917
-0.00768653
-0.260497
-0.0644718
-0.00338968
-0.00635848
-0.256403
-0.00304353
-0.00505684
-0.258732
-0.222188
-0.00105068
0.000837947
-0.262326
-0.24225
-0.267789
0.000735774
-0.0034525
-0.265237
-0.00927711
0.000292365
-0.00127855
-0.197497
-0.180149
-0.255676
-0.006339
-0.237225
-0.243172
-0.254093
-0.245308
-0.0029876
-0.0744439
0.00273849
-0.264503
0.00037945
-0.00433352
-0.0345624
-0.0645089
-0.0113596
-0.0254524
-0.000259097
-0.00722962
-0.0101265
-0.254956
-0.0115019
-0.239173
-0.275934
-0.168988
-0.00205325
-0.233328
-0.130986
-0.26298
-0.256973
-0.0155568
-0.0748145
0.00335472
-0.0669309
-0.214075
0.00176917
-0.260324
-0.00759192
-0.00612566
0.00252054
0.000920937
-0.255964
-0.00675918
-0.000612519
-0.253775
-0.254563
-0.00202901
-0.250066
-0.24805
-0.246259
-0.24871
-0.280651
-0.262734
0.00128067
-0.215979
-0.070028
0.000592717
-0.0138903
0.000930426
-0.000558486
-0.00603041
-0.186974
-0.264144
-0.237833
0.000506631
-0.264136
0.00215012
0.00234477
0.000520028
-0.232665
-0.281359
-0.0144684
0.00021317
-0.259036
-0.262573
-0.275516
-0.237795
-0.137136
-0.201561
-0.00177094
0.00189336
-0.0058959
-0.00141101
-0.255788
-0.000394314
-0.102422
-0.193516
-0.280983
-0.239882
-0.000611983
-0.000925217
-0.22706
-0.253636
-0.259233
-0.0297088
-0.0668251
-0.266305
-0.258562
-0.238548
-0.265194
-0.236179
-0.266074
0.000641386
-0.0118181
-0.011471
-0.264226
0.000589345
-0.00727409
-0.0071061
-0.184694
-0.0583001
-0.24448
-0.261358
-0.253294
0.000160023
-0.203107
-0.223153
-0.277381
-0.00139408
-0.259408
-0.203341
-0.273172
-0.00370921
-0.205753
-0.243574
-0.278551
0.000610821
-0.0692446
-0.0124658
0.000314038
-0.007317
-0.269758
-0.0252869
-0.255569
-0.249984
-0.273651
0.000744783
-0.256453
0.00101423
-0.257642
-0.0171479
-0.174399
-8.80872e-05
0.000955441
-0.237514
-0.26502
0.00204134
-0.234054
-0.127176
-0.0235966
-0.00207018
0.0016772
-0.256165
-0.282779
-0.000200827
0.00144073
-0.00447603
-0.137178
-0.000447726
0.000392542
-0.0322716
-0.016302
-0.250878
-0.00837173
-0.27161
0.000710898
-0.274508
-0.257142
-0.118232
-0.232709
-0.267373
0.000924714
-0.0034748
0.0008654
0.000132297
-0.283759
-0.00537163
6.66102e-05
-0.2341
-0.265268
-0.254106
-0.15385
-0.277855
-0.00676607
0.00192227
-0.00109007
-0.263091
-0.262246
0.000128609
-0.255344
-0.00776901
-0.245419
-0.244922
-0.272635
-0.00514297
-0.235786
-0.00100866
0.000760055
-0.272971
-0.266162
-0.00585995
-0.00101343
-0.259335
-0.248919
0.00134391
-0.00173887
-0.238569
-0.261752
0.000544905
0.0011904
-0.265639
-0.00620413
-0.216938
0.000439567
-0.263153
-0.245009
-0.00364887
-0.234971
-0.258558
-0.0706162
-0.235954
-0.239581
-0.173277
-0.230933
-0.0373104
-0.00902619
-0.0107366
0.00026657
-1.19843e-05
-0.257117
-0.0113768
-0.261107
-0.242603
0.000704212
0.00163379
0.000751657
0.000674822
0.00098219
-0.00190348
-0.0106805
-0.00835527
0.000407762
-0.0107809
-0.0018583
-0.00350993
-0.00133338
-0.00431891
-0.0405864
-0.0728846
-0.251976
-0.264844
-0.259036
-0.256709
-0.0095745
-0.270412
0.00083123
-0.273953
-0.00229938
-0.0257457
-0.22102
-0.252047
-0.00854599
0.00133402
-0.00481264
-0.281277
-0.0700898
-0.257411
0.000149497
-0.00723565
0.00205554
-0.180551
-0.257856
-0.0490177
-0.00963965
-0.00312757
-0.00974356
-0.0098743
-0.121741
-0.0506404
-0.00991038
0.000550709
0.000974479
-0.00699487
-0.169936
-0.254374
-0.269209
-0.0692839
-0.268585
-0.170243
-0.263752
-0.0888215
-0.245669
-0.247974
-0.269446
-0.00278239
-0.258166
-0.199177
-0.259878
-0.271479
-0.23844
-0.00343317
-0.260501
-0.00960613
-0.270106
-0.239125
-0.263651
-0.00882308
-0.0215596
-0.232099
-0.257203
0.00098627
-0.266157
-0.252808
-0.00437299
0.00199118
0.00108907
-0.000298791
-0.0107752
-0.00056914
0.00131212
-0.253382
-0.00796982
-0.221174
-0.23535
-0.263099
0.00086366
-0.24532
-0.239321
-0.279898
-0.0161572
-0.253464
0.000924731
-0.259264
-0.177339
-0.238736
-0.000560598
-0.00210703
-0.00258305
-0.268413
-0.256841
-0.0416284
0.00083962
-0.264352
-0.168795
0.000926168
-0.00157339
-0.0159896
-0.254808
-0.00374998
-0.00744697
-0.258869
-0.254073
-0.00181984
-0.25335
-0.187947
-0.255981
-0.0235518
-0.277845
-0.255879
-0.0010178
-0.0491079
-0.262398
-0.252108
-0.00934709
-0.275367
-0.235802
-0.259393
-0.258382
-0.259075
-0.225584
0.000433145
-0.261497
-0.00320148
0.000278061
0.000603103
-0.056675
-0.00822342
-0.274338
-0.239793
-0.263671
-0.149052
-0.000768495
-0.238865
0.000955562
-0.0279442
-0.27763
-0.241659
0.000152626
0.000641322
-0.234843
-0.00137468
-0.251014
-0.00131865
-0.25878
0.000855272
-0.260526
-0.0028713
-0.253866
-0.0249626
-0.0474486
-0.245811
-0.277562
-0.247161
0.000425044
-0.274917
-0.127457
-0.256131
-0.223021
-0.0385395
-0.090496
-0.0597176
0.00104969
-0.174884
-0.20888
-0.0233726
-0.226204
-0.252902
-0.00283013
-0.255953
-0.00769911
-0.225667
0.000425018
0.00110662
0.000349337
-0.0491052
-0.261982
-0.263263
-0.0217656
-0.0968392
-0.000466379
-0.00820298
-0.00935529
-0.00812651
0.000921877
-0.0078494
-0.00744331
-0.00872224
-0.00273416
-0.239617
-0.239761
-0.00374464
-0.0114105
-0.230708
-0.262671
-0.0540054
0.00012845
-0.00140664
-0.266076
-0.0413195
0.000181913
0.000260523
-0.268045
-0.0346884
-0.00198475
-0.00815793
-0.0651248
-0.267178
-0.240379
-0.0531138
-0.274744
-0.26704
-0.00747323
-0.230055
-0.260905
-0.000784818
-0.25207
-0.014392
0.000634887
-0.00648079
-0.269488
-0.00555705
-0.239306
-0.201348
-0.00251262
-0.0344323
-0.275251
-0.00677626
-0.257213
-0.00354874
-0.219833
-0.236216
-0.00750947
-0.257599
-0.24608
-0.00768345
-0.00800816
-0.254987
-0.00675989
-0.244459
-0.270815
-0.26243
-0.0163134
-0.0126293
-0.00490279
-0.260551
7.49346e-05
0.00407592
-0.00893766
-0.0559892
-0.00320403
-0.00797292
-0.0134789
0.000816631
-0.231231
-0.261611
-0.0320802
0.000176534
-0.242426
-0.00328539
-0.00712321
-0.0134552
-0.23698
-0.00156083
-0.00485631
-0.258471
-0.00228744
-0.00182362
-0.00840192
-0.215245
-0.00309766
-0.129137
-0.26352
-0.00553851
-0.26189
-0.0308733
-0.00354484
-0.25997
-0.249955
-0.269997
-0.00607463
-0.0941536
-0.0102735
-0.273146
-0.251456
-0.00316973
-0.0765823
-0.008042
-0.262854
0.000694711
0.000562393
-0.00616306
-0.00145529
-0.00609328
-0.00338143
-0.246417
-0.0126647
-0.000240948
-0.000294079
-0.0046462
-0.262307
-0.23781
-0.286529
-0.017759
-0.00774399
-0.256951
0.00238407
0.000541821
-0.00648861
3.06302e-05
0.00105352
-0.0463133
-0.00670669
-0.00686879
-0.104604
-0.262389
-0.267032
-0.286192
-0.230269
-0.000890152
-0.248073
-0.265793
-0.0673013
-0.24456
-0.280046
-0.24597
-0.150374
-0.00802862
-0.255326
-0.00666377
-0.251834
-0.000289473
-0.149753
-0.00525991
-0.00654076
-0.251781
-0.216899
-0.240301
0.000359142
-0.0371576
-0.0396117
-0.0462537
-0.00319577
-0.00635755
-0.024556
-0.260049
-0.0172208
-0.25893
-0.0288077
-0.00818038
-0.258771
-0.00182789
-0.00753956
-0.0386942
-0.00531791
-0.190195
-0.280538
0.000611689
-0.00388958
-0.229642
-0.01635
-0.235159
-0.25497
-0.130337
-0.0124907
0.00115522
-0.237126
-0.247442
0.00203824
-0.00137829
-0.262075
-0.00274833
-0.00169447
-0.0736373
-0.0071492
-0.26596
-0.0259607
-0.238155
-0.00489654
-0.0301644