/*--------------------------------*- C++ -*----------------------------------*\
  =========                 |
  \\      /  F ield         | OpenFOAM: The Open Source CFD Toolbox
   \\    /   O peration     | Website:  https://openfoam.org
    \\  /    A nd           | Version:  10
     \\/     M anipulation  |
\*---------------------------------------------------------------------------*/
FoamFile
{
    format      ascii;
    class       surfaceScalarField;
    location    "500";
    object      phi;
}
// * * * * * * * * * * * * * * * * * * * * * * * * * * * * * * * * * * * * * //

dimensions      [0 3 -1 0 0 0 0];

internalField   nonuniform List<scalar> 
38623
(
0.214815
-0.213428
0.0794338
-0.0808208
-0.062
0.0773167
0.12873
-0.144045
-0.00649763
0.0130477
0.0394904
-0.0460403
0.00375622
-0.00206757
-0.0220472
0.0203584
0.0171577
0.0363431
-0.0374438
-0.0160545
-0.117202
-0.237371
0.222144
0.132429
0.0860871
-0.0714494
0.0806696
-0.0953072
-0.00862133
0.00861083
-0.00653546
0.0065459
0.0177916
0.0195948
-0.226206
-0.0336488
0.0758338
-0.309589
0.267403
0.11332
0.128493
-0.118158
-0.123657
-0.205911
0.182059
-0.00544633
0.0292983
0.436694
-0.041349
-0.443235
0.0478904
-0.212737
0.193299
-0.00909843
0.0285368
0.0378195
0.0486172
-0.0538345
-0.0326023
0.0400675
-0.28123
-0.0434385
0.284601
-0.0122487
0.367463
-0.00215545
-0.353059
-0.00792968
0.260842
-0.00944014
-0.243472
0.00464868
-0.024428
0.388791
-0.369012
0.380233
-0.263981
0.223917
-0.34017
0.179349
0.13395
-0.0428461
-0.270452
0.114015
0.0842515
-0.0849468
0.307679
-0.263667
0.000782198
-0.0447943
-0.20481
0.271562
-0.247358
0.180606
0.0398691
0.243634
-0.0403365
-0.243167
-0.0290908
0.544031
-0.520122
0.0051827
0.0275024
-0.176177
-0.0534906
0.202165
0.209745
-0.168669
-0.46001
0.418934
-0.00931395
-0.000817434
0.00149073
0.00864068
-0.254664
0.276152
0.358745
-0.0149687
-0.0199042
0.0197633
0.0151097
0.00590578
-0.00158149
0.000800997
-0.00512534
0.0328121
-0.0354789
-0.0366418
0.0393088
0.28521
-0.0229379
-0.270203
-0.0101822
-0.00961506
-0.222099
0.241896
-0.321109
-0.164835
0.139521
0.346423
-0.000596825
0.000135549
-0.00746651
0.00792774
0.00457622
-0.220669
-0.13779
0.155452
0.00307987
-0.0207414
-0.0552876
0.0699503
0.296189
-0.310852
0.0612153
0.392124
-0.407867
-0.0454728
0.259644
0.176524
-0.244071
-0.192097
0.31134
-0.17524
0.314542
-0.450642
-0.400268
0.197541
0.324904
-0.122177
0.568736
0.225336
-0.485402
-0.30867
-0.0262013
0.0677979
-0.40607
0.364473
-0.00443373
0.0202206
-0.00665231
-0.00913185
-0.249052
0.182717
0.148725
-0.0823904
-0.0010164
0.00203292
0.00101952
-0.00203601
0.0076396
-0.000524823
-0.00780903
0.000694316
-0.00514226
-0.00132846
0.00142426
0.00504652
-0.0128765
0.0336695
-0.0289408
0.00814828
-0.00195924
0.000739755
-0.00172741
0.00294681
-0.354584
-0.102782
0.274
0.183366
-0.00102949
0.000447813
0.00648742
-0.0177062
-0.375929
0.381386
0.0432534
-0.026593
-0.0606166
0.0439585
-0.00463239
-0.00819984
0.00869379
0.00413846
-0.139106
0.183305
0.13515
0.00778056
-0.00984229
0.00581326
-0.00375088
-0.00907063
0.00382773
-0.00337801
0.00862089
-0.328442
-0.10763
0.035804
-0.323214
0.312322
0.0780447
-0.0671533
-0.00580282
-0.00720154
0.00846385
0.00454056
-0.229125
-0.301246
0.325561
-0.472536
0.331026
-0.21874
0.36025
-0.166126
0.141783
-0.0261331
0.0504758
-0.516974
0.403137
0.163883
-0.0500455
0.112825
0.509872
-0.0539586
-0.369192
-0.0600851
0.0595516
0.369725
0.00895102
-0.0029663
-0.00909067
0.00310591
0.0187597
-0.00845064
-0.0168068
-0.0519033
-0.0130244
-0.489119
0.554046
0.0623711
-0.0624284
0.0378768
0.376965
-0.356652
-0.249438
0.0414909
-0.0633956
0.0619212
-0.0400165
0.0208831
-0.169728
0.164086
-0.0152417
0.106468
0.176939
-0.181489
-0.101918
-0.0119218
0.00559969
-0.00550191
0.011824
0.0376007
-0.0303178
0.326594
-0.333877
-0.108856
0.218972
-0.202345
0.0922303
0.043512
-0.0577362
-0.0917406
0.105965
0.0776726
-0.096418
-0.0106219
0.00844378
-0.000272535
0.00245064
-0.0214816
0.0479252
-0.0282637
0.00182026
-0.220984
0.231065
-0.0196963
-0.0595651
0.0972428
-0.102797
0.0651194
-0.00147257
0.000426816
0.000321602
0.000724093
-0.269844
-0.0943367
0.125993
0.238188
0.344345
-0.346918
0.0401728
-0.00706467
-0.000362416
0.00674989
0.000677198
-0.407139
0.0664353
0.386791
-0.0460879
0.00387579
-0.00737958
-0.00229901
-0.313935
-0.176637
0.189643
0.300928
-0.00713104
-0.00328495
0.00536226
0.00505377
-0.00759157
0.000128954
-7.23676e-05
0.00753498
0.467062
-0.105465
-0.370621
0.00902372
0.0709493
-0.0973394
-0.222663
-0.261341
-0.0264408
0.0618412
0.22594
0.00786413
0.00867946
0.000616087
0.328965
0.0597446
-0.0896243
-0.299085
-0.0394063
-0.101419
-0.0253006
-0.059187
0.0224915
-0.132632
0.169329
-0.00682153
1.49829e-05
0.0067946
1.19353e-05
0.00143136
0.00729211
-0.00818733
-0.000536024
0.000237236
0.00176646
-0.0126256
0.252673
-0.0993468
-0.270528
0.209294
0.393008
-0.142251
0.14652
-0.043676
0.339821
-0.302629
-0.124106
0.0869138
-0.112617
0.156767
0.0910996
-0.13525
-0.25669
0.074144
0.187122
0.0604284
-0.0444511
-0.0374589
-0.00392278
0.276216
-0.00185015
-0.270443
-0.133368
-0.311682
0.123942
-0.296098
-0.0524055
0.0576312
0.290872
-0.173788
0.350687
-0.518817
0.341917
0.0502217
-0.272012
-0.0519516
0.273742
-0.000192046
0.000388221
-0.0095101
0.00564547
-0.00717679
-0.0044874
0.0060187
-0.111979
0.022002
0.196446
-0.000199056
0.00595839
0.000245642
-0.00600499
-0.0378667
-0.364751
0.0363458
0.366272
-0.00367041
0.00158336
0.00881077
-0.00672385
-0.0913454
0.0854213
-0.0954945
-0.0687935
-0.636327
0.52313
0.18199
-0.00887002
0.00265569
-0.00285633
0.00802469
-9.40569e-05
-0.000290996
0.000595458
-0.012459
-0.00680541
0.0186689
0.00980413
-0.0142691
-0.00572189
0.0101889
0.00839367
0.0119766
-0.00711609
-0.0132543
0.0271957
0.165871
-0.151589
-0.0414787
0.143678
-0.00312853
-0.0174208
-0.12313
-0.196449
0.186744
0.0522287
-0.0425231
0.398877
0.0822745
-0.185241
-0.295912
-0.0978209
0.21739
-0.178755
8.50052e-05
0.00642768
-0.00650943
-3.14737e-06
0.0399228
0.163019
0.0524709
-0.117657
-0.167405
0.23259
-0.101729
0.140877
0.00881
-0.00886238
-0.00013963
0.159504
-0.174093
-0.246271
0.260859
-0.130813
-0.225633
0.203957
0.152489
0.0804635
0.292081
-0.111241
-0.261303
0.344085
0.0111575
-0.0345698
-0.320672
0.455268
-0.188758
0.0733108
0.275828
-0.051698
-0.271532
0.0474023
-0.0737737
0.0405627
-0.0197535
0.0529647
-0.00245573
0.00151679
0.00711006
-0.00617111
0.0206304
-0.354075
0.370251
-0.0368069
0.0504797
-0.00258378
-0.0425249
-0.00537092
0.25259
-0.110154
-0.437991
0.295555
0.0778698
-0.0959544
-0.0607231
0.0788089
-0.045346
0.405147
0.136028
-0.495829
0.0375102
-0.037554
0.0260138
-0.0259702
-0.0594719
0.0452974
0.28205
-0.267876
0.0152654
0.091557
-0.0843301
-0.257815
0.147095
0.220287
-0.109567
-0.0115586
0.0139061
-0.00804529
0.0056979
0.00235919
0.0105044
-0.00862061
-0.00424299
0.0507111
0.363101
-0.364934
-0.0488784
0.085314
0.0290797
-0.0461763
-0.0682176
0.00264528
-0.00970062
-0.00144599
0.00850134
-0.150366
0.152084
0.438339
-0.00121113
-0.390453
-0.046675
-0.00199852
0.35065
-0.328021
-0.175624
0.174765
-0.062056
0.0629151
-0.00647431
-0.00170779
0.00730839
0.00087372
-0.214777
0.379272
0.193454
-0.357949
0.26966
0.123812
-0.233967
-0.164971
0.0308538
0.170572
-0.0364555
0.0187356
0.00400217
-0.0189818
-0.216964
-0.292545
0.208262
0.00352843
-0.00581025
-0.00138869
0.267153
-0.512641
0.319973
-0.0744848
-0.0138588
0.00028967
0.010759
0.0028102
0.321369
0.0475875
-0.321972
-0.0469856
0.0487838
0.237929
-0.0506277
-0.236085
-0.247388
-0.0288113
0.258405
0.0177949
-0.189443
0.159851
-0.11987
0.149462
0.00417324
0.019035
-0.0119581
-0.0112484
0.012063
0.00366882
-0.011556
0.0779204
0.0350789
-0.0715085
-0.0963534
-0.136137
0.0780676
0.154422
-0.0384115
0.0844708
-0.378766
0.332707
0.399253
-0.387783
-0.0291765
-0.184794
0.0797062
-0.00464338
0.00514592
0.00794121
-0.00745607
-0.000831258
0.00565387
0.00263346
0.272957
-0.187406
-0.00279422
0.00463045
0.00666616
-0.00850237
-0.363658
0.0679449
0.0375993
0.258114
-0.279603
0.335142
-0.110827
-0.273078
0.13461
-0.170147
0.308615
-0.0475112
-0.309822
0.0549042
0.302429
0.140664
-0.188061
-0.273882
0.321279
0.000434802
-2.59156e-06
-0.00748303
0.00705084
-0.000574018
0.00705585
-0.00927603
0.00214359
-0.00624988
-0.000571114
0.00467727
0.16207
-0.128857
-0.145831
0.309024
-0.0260914
-0.284931
-0.244866
-0.301842
0.260629
0.286078
-0.00344851
0.00710795
-0.00611514
0.0105969
-0.131034
-0.0314071
0.151842
0.00947824
-0.00699986
-0.0110998
0.00286731
-0.0098486
0.00962659
-0.0346383
0.0169572
0.0268584
-0.00917684
-0.0600314
-0.18331
0.0747158
0.168626
0.195188
-0.00494865
-0.059528
-0.13071
-0.0947022
0.228713
0.0656723
-0.199684
0.296274
-0.0384814
-0.28811
-0.008308
-0.000710247
0.00842144
0.337937
-0.327683
-0.0486658
-0.416596
0.231923
-0.0301046
-0.00330425
-0.00117667
0.00252171
-0.00464996
0.0011723
0.00956301
-0.00608536
0.124636
-0.0147391
-0.0993016
0.0393929
-0.287372
-0.000195504
0.00741052
-0.00122767
-0.00598729
-0.0152682
-0.0104712
0.0102213
0.0155181
0.074507
-0.0480739
-0.48455
0.458117
-0.0402124
0.0391879
-0.00692384
0.000383616
6.86514e-05
0.00647161
0.301082
-0.070122
-0.290433
-0.097388
0.298186
0.02071
0.0317381
-0.0147022
-0.0377458
-0.000162397
0.0071868
-0.00754912
-0.288118
0.0651229
-0.22653
0.0603763
-0.00576463
0.171918
0.386378
0.0439372
-0.385414
-0.0449014
-0.187839
0.223862
-0.263387
0.227364
-0.00251349
2.45309e-05
-0.000934305
-0.0586167
-0.197139
-0.552975
0.572946
-0.0490619
0.0626031
-0.0428547
0.0165968
0.0109552
0.000319382
-0.00685076
-0.00442375
-0.232069
-0.341547
0.0280665
-0.00829849
0.00217161
-0.0219397
0.0638363
-0.441592
0.490198
-0.112441
-0.0105526
-0.00664243
0.0100619
0.00713295
-0.00146174
0.00252343
0.000971205
-0.294672
0.0419945
-0.0492254
0.301903
0.00146943
-0.0123408
0.0111086
0.0113531
0.00362256
0.0476291
-0.00111558
-0.0063882
-0.113745
-0.307908
0.0984375
-0.0801492
0.236323
0.096499
0.0332853
-0.466443
-0.0522447
-0.0115652
0.00263982
-0.000775185
0.0841561
0.0221344
-0.0209767
0.115023
0.432794
-0.403955
-0.143862
0.0706715
-0.21173
0.290828
-0.14977
-0.00516785
-0.00135748
0.00178348
0.00474189
-0.463855
0.463669
-0.0416199
0.0418056
0.103147
-0.01475
-0.0593178
0.00486213
-0.00793788
0.0019602
0.00702508
-0.00482809
0.00456489
-0.000654705
-0.00702842
0.00311826
-0.0851767
-0.319753
0.0865764
0.318353
-0.283121
-0.197485
0.000723548
0.000722683
-0.0496609
0.0774648
-0.290231
0.262427
0.000822043
-0.00859223
-0.00109986
-0.111098
0.171511
0.0299326
0.255807
-0.240442
0.0567734
-0.338294
0.351471
-0.0103038
-0.00925049
0.00569544
0.0118799
0.00489224
-0.00932069
-0.00745142
-0.030724
0.00707681
0.00696771
0.0166795
0.00902779
0.0169711
0.167339
-0.237164
-0.111664
0.0046835
0.0185534
-0.0045015
0.000345814
0.000776128
0.00284025
-0.00396216
0.0890458
-0.208075
0.270507
-0.151478
0.113053
-0.158091
-0.229726
0.039169
0.00052646
0.00744308
-0.00756676
-0.000402779
0.0524199
-0.0772588
-0.263279
0.00628126
0.00100575
-0.000766471
-0.00652057
0.265814
-0.307515
0.0859764
-0.0442748
0.00727269
-0.0147833
0.00927703
0.0797372
-0.048267
-0.258
4.41863e-06
-0.00038009
-0.00476658
-0.0660482
-0.314547
0.0794088
0.301186
0.221824
0.0356774
-0.221388
-0.0361128
0.00666393
0.00571986
-0.00316604
-0.00921772
0.0038955
-0.00134109
-0.00458826
0.00203352
0.0827521
-0.339219
0.514057
-0.25759
0.0084815
-0.00897241
0.00335824
-0.0537417
0.0500397
0.041212
0.00329967
-0.0145753
-0.00281799
-0.00203802
0.0033943
0.00449694
-0.00814471
-0.00355373
0.00333455
-0.00471026
0.00594062
-0.0110921
0.00388326
-0.0106463
-0.210957
0.00596442
-0.00535264
0.00378505
-0.00439681
-0.332769
0.285842
0.0109214
-0.00715581
-0.22475
0.00916924
0.000508344
-0.00916805
-0.000509527
0.00683426
-0.00921238
-0.0118257
0.014204
-0.0327564
-0.0356985
0.0199577
0.0484972
0.00948981
0.00185358
-0.0272316
0.0201789
-0.0143078
0.0213604
-0.116202
-0.36495
-0.0206266
-0.0149035
0.0068151
-0.00169521
0.00334407
-0.00428689
0.355446
0.0488192
-0.0753006
3.92877e-05
-0.00687808
0.001867
-0.00360434
0.0585902
0.0554062
-0.0361247
-0.373831
0.0588535
-0.0562226
0.3712
0.125186
-0.187002
-0.103155
-0.0150262
-0.00016809
0.0114496
0.00374482
0.00850113
-0.000508539
0.00548291
0.00567802
0.107318
-0.0497145
-0.0822092
0.0246052
-0.00341876
0.00657311
-0.0335803
0.0051915
0.480966
-0.452577
0.00251271
-0.0084029
0.00627388
-0.0018037
0.000804096
-0.000588056
-0.00534967
-0.000236138
0.00617377
-0.345494
-0.266671
0.195569
0.0659923
-0.0355781
-0.212641
0.0207382
0.198509
-0.00660583
0.0128052
0.012864
-0.0143323
-0.011337
0.00348296
-0.00967627
0.0159983
0.00320592
0.00750426
-0.00507618
-0.0056341
0.20625
-0.0972234
-0.203729
-0.0897604
-0.0225689
0.0615877
0.0507425
0.00800958
-0.204904
-0.166996
0.363891
-0.00791775
0.00137958
-0.267974
-0.0142606
0.232574
0.00708355
0.00341382
-0.00729141
0.00276369
-0.0226393
-0.00871811
-0.00276848
0.00126034
0.0102261
-0.162828
-0.253766
0.0662883
0.350304
-0.264143
0.301498
0.148493
-0.185849
-0.00943412
0.00898916
-0.00985887
0.00403336
0.0135704
-0.013602
0.00689312
-0.103425
0.0821884
0.561675
-0.581151
-0.0493173
0.465571
-0.623371
0.209546
-0.0517458
-0.00110083
-0.00695903
0.00134115
0.00671838
-0.0978349
-0.164908
0.193136
0.069607
-0.000510904
-0.00855076
-0.0360198
0.0239734
0.0109358
-0.00433809
-0.0153159
-0.00428242
0.00518595
0.0135982
-0.0145022
0.00716231
-0.000212607
-0.00752369
-0.000297252
-0.00619624
0.000396829
-0.000871382
0.00299797
0.0486371
0.229277
0.0572287
-0.178808
0.292382
0.218998
-0.332572
0.350689
-0.568835
0.333946
-0.1158
-0.0669813
0.0536359
-0.0136886
0.0105256
0.0140587
0.130262
-0.364987
0.219226
0.015499
-0.0458761
0.0270315
0.316693
-0.0124158
-0.296268
0.00299316
-0.00142045
-0.0090288
-0.195044
0.0608266
-0.0551628
0.18938
-0.00214719
0.00178311
0.00786846
-0.254081
0.201162
-0.261016
-2.1464e-05
0.0473936
0.445495
0.0511425
0.150544
-0.220292
0.00667979
-0.00436331
-0.00222293
0.00367303
0.00291328
-0.0452499
-0.13441
0.151747
0.0279124
-0.36819
0.00139005
-0.00599337
-0.000356109
-0.00679286
-0.00787737
0.00381899
-0.0200372
0.285293
-0.194441
-0.0144131
0.003857
0.00350892
0.0070469
0.0681203
-0.0636083
0.0614803
-0.0210122
-0.282938
0.0137185
0.206375
-0.392033
0.259185
-0.0735268
0.455262
0.0626112
-0.0523033
0.0577333
-0.0490335
0.129504
-0.191508
0.235525
0.179845
0.00650957
0.00807928
0.254459
0.0529798
-0.0535474
-0.253892
-0.00367693
-0.0116539
0.0165385
0.171398
-0.135466
-0.0387707
0.229895
0.00238874
0.00585782
0.00637784
0.00134913
-0.00298699
0.00980545
-0.00661926
0.000204637
-0.00339083
0.0123059
0.220292
-0.202665
-0.524823
-0.422459
0.114483
0.0135569
-0.302543
-0.00361577
0.00067917
0.0225842
0.0210083
-0.0299803
-0.0136123
0.00761925
0.00380509
-0.00294282
0.00675435
-0.00479725
0.00207594
0.00816906
0.0321398
-0.0465861
0.00627872
-0.0453516
0.0742535
0.0490186
-0.155083
-0.073736
0.125134
0.103685
0.00478428
-0.00663486
-0.000191257
-0.00969127
-0.00326193
0.00426031
-0.00817521
-0.0501366
0.669002
-0.0486611
0.111135
-0.0165024
-0.0595538
-0.00513797
0.00464861
0.00757309
0.0758228
0.0832287
-0.0586006
-0.10045
-0.0195289
-0.00971111
0.0163633
0.00486453
-0.0283742
-0.00721442
0.143591
0.0587091
-0.124233
-0.204537
-0.0333606
0.062079
0.175818
-0.0551129
0.245976
0.0466951
-0.237558
-0.00328817
0.00590191
0.00886576
-0.0114794
0.293388
-0.193868
0.188448
-0.287968
-0.201241
-0.066923
0.120662
0.147503
0.0121691
-0.00916404
0.00884733
-0.00920843
0.00118308
-0.236352
0.174564
-0.00696114
0.0133592
0.00544935
-0.0118473
-0.0173255
-0.00573112
0.00808793
-0.000657371
0.00808116
-0.00299521
0.0111486
-0.165204
-0.185937
0.370611
-0.324321
-0.0292772
-0.0170131
-0.0052956
-0.00124145
0.0057226
0.000814532
-0.13411
0.174279
-0.202997
-0.31262
0.331906
-0.170996
0.15171
-0.496587
-0.0552394
0.472044
0.079783
-0.10527
0.1558
-0.0957793
-0.0301224
0.0223681
0.407007
0.00239921
0.00858135
-0.00326142
0.00202861
-0.000108589
0.0550073
-0.0384378
-0.0026018
0.0031508
-0.00383713
-0.00314081
-0.0052228
0.00896588
-0.0165327
0.0153699
-0.0101113
0.00472791
-0.435943
-0.184178
0.274626
0.0107511
-0.0345061
-0.00457865
0.0283342
-0.296998
-0.0383519
0.00384067
0.0074521
-0.0045335
0.0274084
0.453328
-0.526083
-0.00222148
-0.000759899
-0.00397982
0.177401
-0.0696741
-0.205562
-0.150829
0.302857
-0.0039957
0.00843235
0.00714225
0.00880814
0.00541747
-0.109256
0.0042092
-0.00957417
-0.248025
-0.351425
0.0730932
0.147331
-0.0765661
-0.143856
0.0199936
0.009213
8.23838e-06
-0.000118402
-0.00707279
0.00718305
-0.0146414
0.0104298
-9.29385e-05
0.00430569
-0.297331
-0.0105099
0.0570923
0.250748
-0.0514367
0.182096
-0.232577
0.247859
-0.284325
0.0016881
-0.592294
0.0600447
-0.0489007
-0.0106505
-0.0400714
-0.19481
-0.166751
0.0558279
0.305733
-0.0619106
0.182687
-0.180808
0.0198834
-0.0207429
0.0218678
0.00824108
-0.00603164
0.00491335
0.00574874
0.00947594
0.0501477
-0.0443576
0.502291
-0.527165
-0.257165
0.282039
-0.00657962
0.131194
-0.399088
0.47764
-0.014931
-0.31471
0.326801
0.00283954
-0.0195544
0.0220614
-0.0173337
0.0148275
0.0465843
-0.000665034
-0.0351683
-0.0157128
0.00561833
-0.0105322
-0.146819
0.0318682
0.158634
-0.0436838
0.212392
-0.0605431
0.0452116
-0.197062
-0.0778201
0.0503567
0.0680262
-0.185679
-0.110102
0.00861501
-0.245116
0.0528448
0.183656
0.0449126
0.0239606
-0.0289116
-0.039961
-0.000931309
6.88406e-05
0.00788764
-0.048163
0.342829
0.0206145
0.00523589
-0.0140619
-0.0117887
-0.00668721
0.00522866
-0.00493934
-0.0371704
0.00760398
0.00953378
0.00527844
-0.00533404
0.0172037
-0.0179311
-0.013495
0.0142235
-0.104212
-0.50718
0.114805
0.0134423
-0.0149016
0.00850719
-0.0070481
0.384489
-0.149745
0.118411
0.208735
0.085853
0.067952
-0.0836733
-0.0701306
-0.000245741
-0.00876297
-0.000516914
0.00952561
0.00171213
-0.00286903
0.00826695
0.0160537
-0.0184036
0.00895288
-0.00903414
0.00796522
-0.00788403
-0.0133008
-0.00230496
0.00326494
0.0786691
0.164896
-0.0891429
-0.419565
-0.0390849
0.0273041
0.431345
-0.457559
0.0348081
0.0078888
-0.0206491
-0.0173335
0.023079
-0.00439892
0.0058391
-0.000211056
-0.000119021
-0.00768607
0.00801615
-0.0164785
0.294291
-0.713721
0.170141
-0.0487143
0.0333329
0.0181159
0.0354439
0.00852506
-0.0111566
0.0268901
-0.0234468
0.0205299
-0.148243
-0.292946
0.0441507
0.397038
0.000117601
-0.00523206
0.000464486
0.271081
0.194284
-0.334171
-0.0995452
0.0744927
0.004196
0.00387606
-0.604328
-0.0605041
-0.0488889
0.11906
-0.023296
-0.0932519
-0.00251235
0.0367618
0.0885201
-0.00507722
-0.00630706
-0.0224494
0.31509
-0.0862649
0.00678618
0.00258616
0.000433086
0.00392965
-0.0102721
0.0211459
0.0126829
-0.0204695
0.00735673
-0.0721511
0.0231517
0.0416418
0.256705
0.0221552
-0.237694
-0.0411658
-0.372474
0.360034
0.0227332
-0.0102937
-0.0368711
-0.412816
-0.0713623
-0.343125
0.166463
-0.00408552
0.00683243
-0.00784874
0.00510385
-0.0134742
-0.0053286
-0.00646647
-0.340035
0.255612
0.0564735
-0.0462708
-0.0381574
-0.0461964
-0.336611
-0.0554841
0.326046
0.285822
-0.0490858
0.046538
-0.1411
-0.0522573
0.544455
-0.0725184
-0.160596
-0.314206
0.233468
-0.310235
0.268314
0.271315
-0.229395
-0.0300043
0.121769
0.313382
-0.00223079
-0.00456408
-0.000637675
0.00743253
-0.339912
-0.16105
0.470369
0.0305924
-0.00580888
-0.000875951
0.0116056
-0.00492083
0.0728475
-0.129065
-0.0505289
0.106748
-0.260606
0.172862
0.380126
0.00823962
-0.00421562
-0.248843
-0.02602
-0.339488
0.0981398
0.267368
0.00872436
0.00125945
-0.0196273
-0.00394524
0.0144084
0.0184913
-0.0170079
-0.0161234
-0.363583
-0.147588
0.0752277
0.224502
-0.0712472
0.00125827
-0.000306118
0.00542565
0.00581003
-0.00228467
-0.512446
0.00433798
0.00719092
-0.00853574
0.0366769
-0.458985
-0.0415475
-0.567234
0.513979
-0.0509573
0.179111
0.0221158
-0.0356461
-0.374253
0.138089
0.0228921
-0.325159
-0.0458797
0.348146
0.011004
0.0175071
-0.00357438
0.00682768
-0.0054006
-0.0196858
0.00375053
0.021121
-0.00740664
-0.000457344
-0.00332756
0.00710731
-0.00463716
-0.518843
0.573604
-0.0501242
0.0119481
-0.344344
0.0618782
-0.0541455
0.0312458
0.0386762
0.00334871
-0.149999
0.275463
0.0935344
0.0336674
0.452554
-0.453373
-0.0328479
0.515487
-0.492716
-0.000811956
-0.00537984
-0.214822
0.209932
-0.224546
0.24971
0.0144996
-0.0396629
-0.00402105
0.0286733
0.0258275
-0.0291652
0.261268
-0.00359062
-0.228511
0.0659297
0.156331
-0.0084609
-0.000228466
0.008617
0.0424551
-0.251216
-0.535955
-0.0357079
-0.0517082
-0.0895365
0.0205825
0.277271
-0.0152927
-0.00113671
-0.0537854
0.157819
-0.160728
0.0566941
-0.0304936
0.0244074
-0.273433
0.191151
-0.00179855
-0.00553534
-0.00506526
0.0124018
-0.0509004
0.0581726
0.00733348
0.213271
0.0334285
-0.206831
-0.00457701
-0.00731034
0.0021861
0.0470795
0.0757694
0.0659899
0.286996
-0.0709367
0.0234005
0.00484898
-0.0121952
0.0097468
-0.063302
0.129378
0.0386333
-0.0301595
0.0510259
-0.0594977
0.0237851
-0.017966
-0.00492391
0.00364354
0.00462902
0.110493
-0.0294617
0.0909275
-0.171958
-0.0235826
0.0455902
0.0110359
-0.0330434
0.0965987
-0.351914
0.373607
-0.285674
0.229031
-0.39465
0.00394587
0.00199382
-0.0106328
0.00683148
0.00616047
0.014462
-0.21479
-0.0621023
0.181134
0.0957588
0.0940451
-0.0979341
-0.0335537
0.172185
-0.0773562
0.0721812
-0.167011
0.366627
-0.377537
0.0561609
-0.0452512
0.245735
-0.134444
0.181127
-0.292418
0.395271
-0.401257
0.0520305
-0.0460442
0.431089
-0.356723
-0.0514739
0.427511
-0.0170185
-0.317844
-0.0430414
0.475909
-0.0306617
-0.00116762
0.0268906
-0.155097
-0.352874
0.319802
0.188169
-0.0270259
-0.0461063
-0.10381
0.155702
-0.0234801
-0.305601
-0.491109
0.0223217
-0.0500553
0.179158
-0.0325731
-0.134279
-0.0283251
0.0247722
-0.0107141
0.0724683
0.241387
-0.0593958
-0.349282
0.0236041
-0.0375517
0.452206
-0.438259
0.205348
-0.0883538
0.0115262
-0.0285174
-0.186264
0.203255
-0.0412618
0.272382
-0.260285
-0.0415703
0.46389
-0.0355637
0.22211
0.0267246
0.0220474
-0.0198869
-0.309131
0.297912
-0.12215
-0.229267
0.0724333
0.227505
-0.023362
0.039261
-0.0394819
-0.00123502
-0.0136956
-0.00891154
0.0307066
0.019779
-0.0293396
0.00190757
-0.00338803
-0.00291848
0.249018
-0.0409483
0.00593989
-0.00650768
0.0294219
-0.0387767
0.185561
-0.176207
-0.359942
0.186662
0.245748
0.360943
-0.0183679
0.00231113
-0.344887
0.309475
0.0355193
-0.0487206
-0.0492597
0.338778
-0.041107
0.0363513
-0.334023
-0.107482
0.731558
-0.0504727
0.386331
0.055066
-0.0461267
0.000777694
0.0136556
0.0331965
-0.0146761
-0.0307359
0.0246691
0.0159755
-0.00467688
-0.213323
0.202022
0.321123
0.160637
-0.0506707
0.219665
-0.185304
0.0242291
-0.0585911
0.242506
-0.191534
0.168149
-0.205075
0.089912
-0.0529862
0.171003
0.120765
-0.072104
0.0816653
-0.00353743
0.0185601
-0.0966893
0.176469
-0.0780676
0.0737834
0.0485262
-0.0227984
0.0198616
0.234094
0.104094
-0.0956817
0.344158
-0.0176077
0.00862105
-0.335172
0.15341
-0.138175
0.120762
-0.135999
0.224507
-0.238262
-0.0670721
0.0808261
0.288166
-0.494791
-0.0863209
0.171402
-0.0695179
0.0962925
-0.198177
0.343625
0.0199872
-0.0194545
0.174112
-0.172675
0.0319918
0.0172002
0.393466
-0.389384
-0.021283
0.277094
-0.314081
0.0162508
0.0207359
-0.0479648
0.200292
-0.140802
-0.0370803
0.230672
0.222477
-0.202398
0.142229
-0.162309
0.256809
-0.175133
0.19128
0.0553312
-0.0620605
0.174878
0.00852119
0.15302
-0.144792
-0.0167505
-0.0243115
0.132156
-0.11817
0.010325
0.102668
-0.0535005
-0.0787466
0.0295788
0.0670693
0.0198471
-0.00525192
0.167616
-0.0739695
0.0441856
-0.0365614
0.0409014
0.0791457
0.219146
-0.121824
0.167269
-0.142717
0.203303
-0.0554078
0.0766116
0.231243
0.0967457
-0.0938955
0.0896539
-0.0523624
0.0128984
-0.0221769
0.309673
-0.300395
0.31967
-0.0220798
0.016321
-0.313912
0.235226
0.0297978
0.0120698
0.239549
-0.122109
0.128296
0.29189
-0.203857
-0.0585818
0.0599707
-0.386563
0.385174
0.367318
-0.357159
-0.00605673
-0.00410229
0.0257336
0.0197746
0.269006
-0.462568
0.221297
0.23472
-0.199208
0.367953
0.013881
-0.0143708
0.229645
0.143243
-0.13334
-0.303765
-0.114339
0.147576
-0.0901486
0.0828193
0.172224
-0.185216
-0.269516
0.197972
0.25676
0.170351
-0.157522
-0.0043083
0.138171
-0.130614
0.211483
-0.198024
0.0656855
-0.00328506
0.306914
-0.337963
0.0343345
0.395243
-0.0330047
0.00507964
-0.11368
-0.301643
0.0955703
0.216171
-0.424259
0.292558
-0.0397295
0.330076
0.0395079
-0.329854
0.0433486
-0.0466465
-0.0200649
0.119161
0.304163
-0.151276
0.0572926
0.159913
-0.0596899
0.304711
-0.303796
0.0587743
-0.0060189
0.296188
-0.304599
-0.158363
0.0561298
-0.406119
-0.0556095
0.405598
0.0583977
-0.080922
-0.0917595
0.114283
-0.0767726
0.186579
0.260805
-0.00840855
0.0223993
-0.00158921
0.293047
-0.393721
-0.234471
0.454774
-0.241215
-0.381716
0.168158
0.258444
0.404091
-0.323475
-0.0527589
-0.0278575
0.00206167
0.00126583
-0.00939441
-0.0010799
0.250657
-0.349118
0.039335
-0.0228727
0.186368
-0.114508
0.332231
0.340241
0.181723
-0.335851
-0.186112
-0.245921
0.250708
-0.3567
-0.011111
-0.0656015
0.438392
-0.106075
0.0415485
-0.0527299
0.0145718
0.0279934
-0.00331195
-0.174512
0.170484
-0.134148
0.0940113
-0.118277
-0.0851764
0.0850632
0.05851
-0.128873
0.0622662
0.127659
-0.0610527
-0.0591799
0.090848
0.0125175
-0.290169
0.157935
-0.0683861
-0.0359249
0.204237
0.0108452
0.0233041
0.164751
0.149267
0.101328
-0.0314497
-0.0842804
0.0765621
-0.314154
0.321872
-0.193144
0.0533415
-0.0499322
0.0807284
-0.15463
0.169212
0.220644
-0.258914
0.155005
0.164433
-0.0605241
-0.0601036
0.0419962
-0.0940511
0.0678454
-0.0215692
0.0184152
-0.00621909
0.0979848
-0.0933833
0.226641
-0.351282
0.356124
0.0948928
-0.0997344
0.0421502
0.0552261
0.0352615
0.254503
-0.248304
-0.0414612
-0.0668354
0.31257
-0.322507
0.244844
-0.0750622
-0.139855
0.0363654
-0.00537122
0.000938011
0.00307575
-0.396726
0.0155215
-0.193059
0.0954698
0.195573
-0.305456
0.288015
0.158418
-0.140977
0.0181016
-0.437997
0.448597
-0.0287019
-0.133476
0.317926
0.20404
-0.323127
-0.108216
0.137317
-0.17101
0.215439
0.269705
-0.132845
-0.311993
0.319256
-0.0217625
-0.246055
0.270742
-0.0578616
0.0390978
-0.299623
-0.246362
0.325597
0.220388
0.0139464
0.00205068
-0.0262534
0.010258
-0.0745492
0.0251513
-0.228165
0.277561
0.422354
0.254907
-0.409898
-0.267363
-0.212446
0.19705
0.201974
0.242694
-0.147528
0.0859614
-0.26768
0.189355
-0.0434803
-0.0219661
0.00626574
-0.29212
-0.0881942
0.165524
-0.210846
0.026991
0.219255
-0.0354006
-0.221692
0.178891
0.229463
-0.449204
-0.0268137
0.142694
-0.0392024
0.00123159
-0.00617549
0.400187
-0.411978
0.0139941
0.259339
0.138644
-0.0487224
0.0253929
-0.109302
0.219706
-0.178047
-0.062183
0.0581345
-0.0900031
0.0120457
0.350935
-0.0571795
-0.305802
0.231316
0.171651
-0.247963
-0.137901
-0.0912117
0.22056
0.00855207
-0.00717252
-0.00640708
0.0296766
0.393206
-0.0446952
0.320367
-0.0465084
0.482529
-0.477614
-0.0464854
-0.431233
0.437744
-0.0455959
0.328629
0.0575524
-0.0482452
-0.413807
-0.0460313
-0.415676
0.409851
0.0510431
-0.0452186
0.470303
-0.516587
0.0944212
-0.0481373
0.359134
0.0526634
-0.0451707
-0.494401
0.51569
0.0259322
-0.0472206
0.473143
0.0119426
-0.0467467
0.493235
0.0476993
-0.494035
-0.0468999
-0.548275
0.654396
-0.0586659
-0.0474544
-0.462356
0.0433736
0.467235
-0.0482523
0.424804
0.0543538
-0.434416
-0.0447418
-0.0454979
0.0565358
0.376105
-0.0463098
-0.415464
0.422591
0.0382073
-0.0453341
0.0840406
0.287335
-0.0502536
-0.0647868
0.174214
-0.261055
0.253484
-0.163439
0.0135722
-0.00971397
0.00614465
0.0811655
-0.0504976
0.143452
-0.21227
0.19908
0.29801
-0.200059
0.299088
-0.0358872
0.316331
-0.26447
-0.0112309
0.00149315
0.141893
-0.200839
-0.0382
0.0287126
0.162508
-0.0276656
0.319533
-0.325756
0.345028
0.0260221
-0.0452942
0.423545
0.0142406
-0.0445793
0.343921
0.0218501
-0.0454049
-0.418069
0.353022
-0.0486982
0.17932
-0.0455356
-0.20766
0.317863
-0.374662
0.37907
-0.152459
-0.00733279
-0.013722
-0.343699
0.364754
0.0474533
-0.0522537
0.156548
0.0604239
0.0236335
-0.198913
-0.24707
0.0867227
-0.103342
0.263689
0.245149
-0.40195
0.0191924
-0.0487093
-0.0139636
0.227442
-0.248083
-0.241626
0.262268
-0.22786
-0.148574
0.108754
-0.326619
0.338845
0.0356396
-0.0478647
-0.361636
0.399854
-0.0455507
-0.30347
0.310459
-0.0528657
-0.328662
-0.0515413
-0.337601
0.341794
0.0417529
-0.0459466
0.302347
-0.304988
0.0555364
-0.0528955
-0.547261
0.442487
0.150148
-0.0453738
-0.364826
0.381372
0.028761
-0.0453078
-0.50705
-0.061419
0.615271
-0.0468023
0.453102
0.158178
-0.56349
-0.0477892
0.4521
-0.431374
0.0279242
-0.0486503
0.479653
-0.467285
0.0366758
-0.0490442
0.0557202
-0.369581
-0.00942268
0.0076675
0.308668
0.196556
0.227047
-0.259169
0.206407
0.152601
-0.139304
0.319375
-0.220349
0.352405
-0.237569
-0.020825
-0.27743
0.0648091
0.115282
-0.117825
-0.342148
0.0507204
-0.0461737
-0.0528211
0.0259193
-0.0457609
0.0729851
0.427987
-0.04787
0.0501142
-0.0481041
0.481403
0.0474551
-0.0492056
-0.31671
0.0400343
-0.0519869
0.0395754
-0.0452673
-0.0487656
-0.310851
0.0584351
-0.0525723
-0.432128
-0.0695839
-0.0455501
0.0127771
-0.0466842
-0.130767
-0.356273
0.243506
-0.285698
-0.0426002
0.0551007
-0.164859
-0.0281433
-0.257698
0.289801
-0.162429
0.0218943
0.166222
-0.366215
0.271898
-0.233849
0.218929
0.208943
-0.186462
0.00297523
0.00147142
0.000337697
-0.0998169
0.0952757
-0.224726
-0.165898
-0.0060111
0.0290325
0.150244
0.287134
0.214915
-0.0399886
-0.337278
0.0519352
-0.272725
-0.0402646
0.0605721
-0.0503289
0.0428268
-0.0530699
-0.000466825
0.00451781
-0.259749
0.218838
-0.428221
0.124683
-0.0255895
-0.00344975
0.184362
0.0577667
-0.0493618
0.422691
0.0458415
-0.0470078
0.500149
-0.0285611
-0.0643857
-0.407203
0.0539617
-0.0448331
0.228212
-0.339113
0.0780772
-0.315796
0.00985828
0.0299723
0.0453745
0.249174
-0.26227
0.184747
-0.0482864
-0.289072
-0.0991236
0.366175
-0.351332
-0.0914498
0.0973624
0.000231438
-0.298685
0.0774066
0.0630307
-0.187272
-0.00227642
0.230743
-0.108559
-0.000812193
0.362352
-0.352919
0.175478
-0.0977337
0.128662
-0.0098374
0.00255845
0.043583
-0.0520567
0.0836193
0.0267504
0.11135
-0.0538489
-0.404494
-0.0864509
0.269253
0.00820941
0.150316
-0.163203
0.0435728
-0.0547535
-0.0401908
0.252128
0.290134
-0.194173
-0.268467
0.172505
0.163864
-0.0562187
0.333008
-0.139348
-0.230142
0.0678464
-0.279742