/*--------------------------------*- C++ -*----------------------------------*\
  =========                 |
  \\      /  F ield         | OpenFOAM: The Open Source CFD Toolbox
   \\    /   O peration     | Website:  https://openfoam.org
    \\  /    A nd           | Version:  10
     \\/     M anipulation  |
\*---------------------------------------------------------------------------*/
FoamFile
{
    format      ascii;
    class       volVectorField;
    location    "500";
    object      U;
}
// * * * * * * * * * * * * * * * * * * * * * * * * * * * * * * * * * * * * * //

dimensions      [0 1 -1 0 0 0 0];

internalField   nonuniform List<vector> 
23845
(
(0.707347 -0.107079 1.04924e-20)
(0.490977 0.102389 -4.61096e-21)
(0.278088 -0.025724 2.5982e-20)
(-0.134795 0.0140032 7.31586e-22)
(0.105981 0.062951 4.70364e-21)
(0.755202 -0.00553773 -9.33668e-23)
(0.914375 -0.0403831 -1.2211e-20)
(-0.0758208 0.0674084 -2.72175e-22)
(0.8659 -0.00415799 7.42341e-24)
(0.822974 0.0902767 -5.1921e-21)
(0.46245 -0.0440897 -6.68133e-21)
(0.70273 -0.00257201 1.31335e-23)
(0.877817 0.00984193 -2.20013e-22)
(0.824191 -0.00547053 1.54293e-24)
(0.732807 0.0423334 -2.06302e-20)
(0.893752 0.0638872 -9.9358e-22)
(0.768461 0.0155261 2.39939e-22)
(0.591042 -0.0147144 1.94981e-22)
(0.896318 -0.021533 -6.94987e-22)
(0.730964 0.00371302 -7.02263e-22)
(0.865505 0.0979335 1.71704e-20)
(0.420658 -0.0336752 -1.2567e-20)
(1.0238 -0.0584733 -2.93295e-21)
(0.873587 -0.00386919 1.91107e-23)
(0.734937 0.0784368 -9.67029e-22)
(0.939122 -0.00400909 -2.41321e-23)
(0.925401 0.060053 1.00464e-20)
(0.754868 -0.00681552 4.99679e-23)
(-0.052569 -0.119477 7.8807e-21)
(0.75285 0.00421512 3.41014e-22)
(-0.146591 -0.00550939 3.19298e-20)
(-0.032259 0.090092 4.16909e-22)
(0.458376 -0.0318715 9.49339e-21)
(0.632672 -0.0192431 -6.33075e-22)
(0.700255 -0.00166097 -4.00115e-23)
(0.699021 0.000794935 3.46388e-24)
(-0.0449409 0.121195 -7.19379e-21)
(0.702028 -0.00248774 -1.69889e-23)
(0.725966 -0.00453645 -2.67028e-23)
(0.854123 -0.00025402 1.19616e-23)
(0.927115 -0.026638 2.6976e-22)
(0.703824 -0.0139674 -1.33836e-21)
(0.893054 -0.0105858 -1.16244e-21)
(0.659123 0.00969745 1.25145e-21)
(0.95373 -0.00117803 -7.3862e-22)
(0.836109 0.0107486 -2.87905e-22)
(-0.0374326 -0.0295786 -1.77041e-21)
(0.849007 -0.0627743 -4.83068e-21)
(-0.0246667 0.0110312 1.56385e-21)
(-0.0601584 -0.117783 3.44107e-21)
(-0.0511481 -0.0447904 7.18024e-22)
(0.189291 -0.0297111 -3.73736e-21)
(-0.0230354 -0.041516 -3.63143e-21)
(0.797854 -0.00614454 -1.63798e-22)
(-0.0355024 0.100163 7.60718e-21)
(0.820418 0.0153667 -3.01703e-22)
(0.237249 0.0804427 2.40138e-20)
(-0.0936411 -0.0365614 1.89478e-20)
(0.769477 0.104325 -3.32626e-20)
(0.0301198 0.0374741 -1.60535e-20)
(-0.0398998 0.103254 2.62193e-21)
(0.670721 0.0112443 -2.43289e-22)
(0.881147 0.0532197 -1.24802e-21)
(-0.0342179 -0.0957944 3.40816e-21)
(0.893684 -0.0034669 -1.4012e-22)
(0.858894 0.00927758 -1.72994e-21)
(0.96577 0.0432537 1.03738e-20)
(0.974828 -0.00615019 2.35476e-23)
(0.962826 -0.000724688 8.16568e-23)
(0.886802 -0.0276923 1.6675e-22)
(-0.0596659 0.0887128 2.78807e-22)
(0.179017 -0.00706748 1.61465e-20)
(0.933056 0.00100731 9.76387e-23)
(0.806155 0.0402344 1.18789e-20)
(0.916239 -0.00271492 -5.41012e-23)
(0.680193 0.0416136 -6.60165e-23)
(0.707118 -0.00333502 -9.55889e-24)
(0.724052 -0.00467481 -3.54958e-23)
(-0.121543 -0.0216475 3.85073e-21)
(0.751922 0.0246188 4.04338e-22)
(0.947522 0.075106 -2.56339e-21)
(0.707377 -0.0508841 -3.58684e-20)
(0.348874 0.0935464 -4.19548e-21)
(-0.086004 -0.0523606 -8.03174e-22)
(0.274069 0.00776164 -7.36289e-21)
(0.701201 -0.0010031 -9.35608e-23)
(0.630785 0.0687667 1.35367e-20)
(-0.0185398 -0.013026 1.69298e-20)
(0.893222 -0.0032562 4.24987e-23)
(0.812162 0.0237367 -7.2228e-22)
(-0.0494669 -0.0837047 -1.27124e-20)
(0.931599 0.0332603 -8.10831e-22)
(-0.0466177 -0.106707 1.1439e-20)
(0.707001 -0.00486078 -1.33206e-22)
(-0.0908739 -0.0246982 2.83571e-21)
(-0.0550712 -0.0940984 -3.57764e-20)
(0.797621 -0.0168866 5.65326e-22)
(0.833307 -0.0653017 -3.65308e-22)
(0.913534 -0.00305613 5.87357e-24)
(0.0217693 0.0407861 -7.32849e-21)
(0.803128 -0.0201528 8.71832e-22)
(0.963577 0.0400863 3.57561e-21)
(0.429327 -0.100125 1.30972e-20)
(-0.0698337 -0.0888816 -1.56981e-20)
(-0.0520246 -0.0932756 -2.9688e-20)
(-0.0943421 -0.0437866 5.31519e-21)
(0.772485 -0.00584655 6.68134e-23)
(0.929891 -0.00256959 1.26224e-22)
(1.01775 0.0346432 -1.60869e-21)
(0.682716 0.0100681 -5.1386e-22)
(0.504406 -0.0398846 -2.3796e-21)
(0.706377 -0.00331314 -3.17995e-23)
(0.391314 0.0225104 1.50612e-20)
(0.813347 -0.0819614 -2.08342e-21)
(0.702813 0.00118605 6.435e-23)
(0.919051 -0.0885857 -2.44062e-21)
(0.915382 -0.00261642 -1.15338e-22)
(0.901102 0.0748342 -5.31693e-21)
(-0.0526296 -0.121309 5.79239e-21)
(-0.0151169 0.081674 -1.64689e-20)
(0.717279 -0.00411702 -6.85674e-23)
(-0.0408495 -0.0963904 -1.96852e-21)
(0.894169 0.0257035 1.62965e-22)
(0.0401177 0.0359649 3.57536e-20)
(0.949823 0.038811 -3.4697e-21)
(0.933931 -0.00282799 1.83444e-23)
(-0.0431081 0.100028 2.20585e-21)
(-0.0610869 -0.112672 -1.29779e-20)
(0.155453 0.0110305 1.01924e-21)
(-0.0275865 -0.0417738 1.18907e-20)
(0.159917 0.0166556 1.75762e-20)
(0.477782 0.0788942 5.46078e-22)
(0.345319 -0.0487113 2.60026e-22)
(0.79539 -0.00575135 -8.1218e-25)
(0.782647 -0.0250137 5.38575e-22)
(0.582331 -0.107067 3.83807e-21)
(-0.0666921 0.0949004 3.3082e-20)
(0.703607 -0.00276192 1.94911e-23)
(1.00698 -0.0413633 6.52992e-23)
(0.730334 -0.00489625 1.72342e-23)
(-0.0559761 -0.126836 -1.57855e-20)
(0.696057 -0.0122736 8.93997e-22)
(0.716356 0.000754566 5.44155e-23)
(0.639536 0.00932732 -1.16606e-23)
(0.880376 -0.0469722 -2.9258e-21)
(0.672676 0.00852285 9.71296e-22)
(0.913397 -0.0840515 -2.72477e-22)
(0.421508 0.0327099 4.03709e-20)
(0.0216974 0.0681269 -1.34095e-20)
(0.825744 0.0324683 4.95294e-22)
(0.470576 0.0268754 -1.59867e-20)
(0.898998 0.00387611 3.1224e-22)
(0.478924 -0.0782736 1.41299e-20)
(0.846387 -0.00788372 -1.63129e-22)
(0.362211 -0.0187438 -5.428e-21)
(0.701755 0.0429499 -1.52362e-21)
(0.266784 -0.0869607 -4.49237e-21)
(0.705188 -0.00359454 -1.91345e-22)
(0.189742 0.00985821 1.20132e-21)
(-0.0547345 -0.109723 3.77499e-21)
(0.883586 0.0332526 5.41949e-22)
(0.689346 -0.0425925 -1.71809e-21)
(-0.0859202 0.0133923 -1.03777e-21)
(0.885209 -0.00351905 -9.7736e-24)
(0.943526 -0.0120441 -5.20334e-24)
(0.753979 0.0324437 4.95963e-22)
(0.769198 -0.00578005 -1.16609e-23)
(-0.0459963 0.105174 -5.69439e-21)
(0.74897 -0.0066415 -3.16388e-22)
(0.670926 -0.0102219 -1.67699e-21)
(0.779611 0.000618908 1.5947e-23)
(-0.113775 0.0172642 5.27246e-21)
(0.880211 -0.00411025 -1.54313e-22)
(0.0014109 0.0389059 -7.57985e-21)
(0.897114 -0.00155737 2.4945e-22)
(-0.110206 -0.00102932 -4.52097e-21)
(0.935551 0.040574 7.48445e-22)
(0.653503 0.0529387 1.8895e-21)
(0.92969 -0.00177323 -5.53736e-23)
(0.708496 -0.00383227 6.94686e-23)
(0.045141 -0.0461964 6.10349e-21)
(-0.00479424 -0.0286199 7.67988e-22)
(0.775145 0.0437195 1.04794e-20)
(0.49208 -0.0328761 -1.17213e-21)
(0.878457 -0.0554199 -3.19642e-21)
(0.869298 0.0146501 9.38824e-23)
(0.694738 0.0113384 -6.62979e-22)
(-0.0779271 -0.0597087 2.80012e-21)
(-0.0547168 0.118522 1.86607e-21)
(0.726936 -0.0143145 5.717e-22)
(-0.0437107 0.101049 3.00225e-20)
(0.823498 -0.00508415 2.28224e-24)
(0.829719 7.17462e-06 2.97143e-23)
(0.785588 0.000990622 2.69856e-23)
(0.894144 0.0417662 -1.12691e-21)
(0.843308 -0.0046339 -8.74839e-23)
(-0.064347 -0.0925487 -2.70966e-21)
(-0.0544245 0.108375 1.96226e-21)
(-0.0779983 -0.0705834 -9.91701e-21)
(0.562468 -0.0470245 1.58941e-22)
(0.676726 0.0315781 -3.46374e-22)
(0.834611 -0.00546794 -2.84329e-22)
(0.014 0.0699482 -7.11269e-21)
(0.36918 0.0629236 1.14703e-21)
(-0.0816374 0.0590068 1.1882e-20)
(-0.0865563 0.0272472 7.40721e-22)
(0.246914 0.0129935 -3.63615e-20)
(0.749423 -0.00508791 -1.07617e-23)
(0.739598 -0.0974695 -1.02548e-20)
(0.599089 0.0158504 2.72497e-22)
(0.692227 0.0230727 -3.16066e-22)
(-0.0492875 0.118426 1.07249e-20)
(0.927949 -0.0502888 1.22868e-22)
(0.776829 -0.0082829 1.87603e-22)
(-0.0357435 -0.036632 2.50756e-21)
(-0.0408553 -0.110488 -5.97257e-21)
(0.277203 0.0443063 -3.58938e-21)
(0.675625 0.0122237 -1.21873e-22)
(-0.0534734 0.121175 1.57437e-20)
(0.181757 0.0159983 -1.70844e-22)
(0.922237 -0.00660517 2.41807e-22)
(0.747111 0.0417735 -6.20273e-21)
(-0.0657909 0.0898168 -2.07466e-20)
(0.77898 0.0433839 -1.56584e-21)
(0.649676 0.00731404 5.22148e-23)
(0.498839 -0.0331898 2.0193e-20)
(-0.0607559 -0.115156 -7.47315e-21)
(0.821653 -0.00490925 1.37638e-22)
(0.753268 0.00171742 2.6715e-23)
(0.936286 0.024985 1.04613e-21)
(0.722178 -0.00482382 9.72366e-23)
(-0.0295434 -0.00566936 -9.46933e-21)
(0.706157 -0.00328629 2.71218e-23)
(0.969324 -0.0058788 -3.01338e-23)
(0.147724 0.0663309 7.29207e-21)
(-0.049381 -0.114401 -1.07931e-20)
(0.901385 -0.00366758 -2.93545e-23)
(-0.152468 0.00627228 8.78093e-21)
(0.897245 -0.000779558 1.11457e-22)
(-0.0745675 -0.0205614 2.21814e-20)
(-0.0232843 0.0268488 8.67636e-21)
(0.899745 -0.0812872 5.97303e-21)
(-0.0988947 -0.0422344 -1.30048e-20)
(0.154695 0.0673191 -1.20312e-20)
(-0.0437456 0.096004 3.17029e-21)
(0.872541 0.055862 -2.63505e-22)
(0.779388 -0.00571799 -1.15729e-22)
(0.964179 0.000176091 6.74259e-22)
(-0.0993907 0.0121077 2.1405e-21)
(0.642998 -0.0422634 4.94291e-21)
(0.802961 -0.0126181 3.95733e-22)
(0.701669 -0.00057746 -2.53945e-23)
(-0.052895 0.0564095 -4.42687e-21)
(0.918555 0.00875747 -4.57863e-23)
(0.803972 -0.0414977 -7.58401e-21)
(-0.0520456 0.0906262 2.19841e-21)
(0.00573558 0.0692201 4.38606e-20)
(-0.0632152 0.063813 7.60285e-22)
(0.703084 -0.00456191 -2.26623e-22)
(0.866104 -0.00441695 3.11031e-23)
(-0.0142099 0.00153655 -2.09557e-20)
(0.699952 -0.00303455 -6.48721e-23)
(-0.0477603 0.0959483 -3.56703e-21)
(0.545767 -0.0412167 2.96753e-21)
(0.621975 0.039286 -3.10595e-23)
(0.879915 -0.00202135 -5.62596e-23)
(-0.119441 -0.00395727 -3.13601e-21)
(0.076948 0.0362601 -1.41236e-21)
(-0.128751 -0.00760082 5.40738e-21)
(-0.147716 0.00826466 -1.55662e-20)
(0.717951 -0.00419355 -4.18016e-23)
(-0.111569 0.0238359 -3.15515e-21)
(-0.0456928 -0.0141564 -5.11381e-22)
(0.81844 0.000502811 -1.10008e-22)
(0.452716 -0.0295902 -1.54772e-21)
(0.837422 3.34289e-05 1.53653e-23)
(-0.0609458 -0.0704378 6.97121e-21)
(0.813791 -0.00498419 -7.14078e-23)
(-0.0610447 -0.0701654 3.65724e-21)
(1.02934 0.0595512 1.68398e-20)
(-0.083006 -0.0451137 1.92443e-20)
(0.757781 0.00177304 -4.8525e-23)
(-0.0627879 -0.0343183 1.01712e-20)
(0.831983 -0.0426089 9.23011e-23)
(0.698758 -0.00193923 -3.47217e-23)
(-0.0150836 -0.0862707 -1.32204e-20)
(-0.0134335 0.0283117 -4.09393e-21)
(0.848962 -0.00430468 -1.45412e-24)
(-0.087348 0.0393437 -3.93518e-22)
(0.469186 -0.0329786 9.3684e-21)
(-0.111633 0.0106656 2.59315e-21)
(-0.0379216 0.0315948 -1.05839e-20)
(-0.0317619 -0.0974739 2.65048e-20)
(-0.0617869 0.0751349 -5.28332e-21)
(-0.0990805 0.0243408 3.4093e-22)
(0.701374 -0.00262229 -1.13333e-23)
(-0.00209547 0.0788492 1.72401e-20)
(0.792903 -0.00576314 -6.6053e-23)
(0.700378 -0.00112848 -8.54964e-24)
(-0.0534655 -0.120472 -6.98545e-21)
(0.179081 0.00628507 2.91799e-20)
(0.498378 -0.0305543 1.39939e-20)
(-0.0465837 -0.11274 1.93847e-20)
(-0.156705 -0.000808109 8.08066e-20)
(0.799141 0.000735373 -1.35435e-23)
(-0.160148 0.00139866 -4.6858e-20)
(-0.0357199 -0.0914075 -1.31971e-20)
(-0.0479822 -0.0291836 -3.16651e-21)
(0.811265 -0.0193859 6.69255e-24)
(-0.0642416 0.0973908 4.488e-21)
(-0.0433312 0.00110473 -1.28142e-20)
(0.362936 -0.0749671 2.87341e-20)
(0.86599 -0.0174419 1.09092e-22)
(0.77613 0.000910419 1.07922e-22)
(0.0723157 0.0131942 2.97611e-20)
(-0.0572118 -0.124873 1.46002e-20)
(-0.010802 -0.083356 1.83646e-21)
(0.344596 0.0457708 -1.37768e-20)
(-0.052436 0.0991607 5.68632e-21)
(0.919108 -0.00787458 2.10582e-22)
(-0.0518534 0.0853303 8.83889e-21)
(-0.0477767 0.112594 -8.15527e-21)
(0.0383307 0.0570146 -2.32935e-20)
(0.764364 -0.00718251 1.89218e-22)
(0.571449 -0.0408193 -1.17435e-20)
(0.743953 0.0011344 -4.29397e-23)
(-0.139072 -0.00688686 -1.95214e-20)
(-0.0503885 -0.0343392 1.09003e-20)
(0.0063427 -0.067071 -6.37436e-22)
(0.565331 0.0124624 -1.7652e-21)
(0.381348 -0.0442808 4.85617e-20)
(0.780366 -0.0407257 2.84667e-22)
(-0.051674 -0.0685369 9.68446e-21)
(0.69569 -0.00200578 5.71537e-23)
(0.00804145 -0.0718005 -4.80908e-21)
(-0.13668 0.00976962 -2.27456e-21)
(-0.0633537 -0.00723233 -1.20266e-20)
(0.580692 0.0104886 7.36211e-22)
(0.692283 0.0075602 5.1487e-22)
(-0.126238 -0.00895003 1.08491e-20)
(-0.0817174 0.0172819 -1.34826e-21)
(0.0295248 0.0637972 -1.36035e-20)
(0.463839 -0.0371271 8.63865e-21)
(0.967957 -0.00405311 -4.80287e-23)
(0.959261 -0.000800826 9.64277e-23)
(-0.0643698 0.0641096 -4.88756e-21)
(0.696598 -0.000842638 -9.2801e-23)
(-0.0573658 -0.0830349 6.10347e-21)
(-0.130867 -0.0138817 9.24737e-21)
(0.40912 -0.0283684 -3.88515e-21)
(-0.0895003 -0.00429788 1.63318e-20)
(0.146784 -0.021833 -6.64784e-21)
(-0.061899 0.110302 2.06573e-20)
(-0.0582928 -0.054389 -1.08401e-20)
(-0.0220361 0.0445571 2.1437e-20)
(0.827406 -7.3536e-05 8.2505e-23)
(0.66146 -0.00885431 -2.01969e-23)
(0.914664 0.000150425 -5.11252e-23)
(0.508769 0.0367606 -7.07142e-21)
(-0.099239 -0.0388663 3.64876e-21)
(0.0898527 0.0260196 -1.22048e-20)
(0.903391 -0.00315797 -7.42714e-23)
(0.90661 -0.0839242 -6.32335e-21)
(0.839915 -0.0378784 -1.53403e-21)
(-0.0532927 0.120516 1.08294e-20)
(0.778323 -0.00568309 3.32926e-24)
(0.0379605 -0.0515589 -3.18091e-21)
(0.716476 -0.00583512 9.77881e-23)
(-0.0530668 -0.121881 6.79776e-21)
(0.938007 -0.00314626 4.62323e-23)
(0.675612 -0.0113876 2.27467e-22)
(-0.0485034 -0.0957788 1.91852e-20)
(-0.0193544 0.0615757 -1.38598e-20)
(0.702805 -0.00105482 1.89847e-23)
(0.709256 -0.00416823 1.9865e-22)
(-0.053205 0.0804983 -3.49729e-21)
(0.0682652 0.00293763 -2.12159e-20)
(-0.111601 0.0109634 -3.69321e-21)
(0.689115 -0.0113559 7.33837e-22)
(-0.0806417 0.032234 7.04775e-21)
(0.682302 -0.0485764 -1.1562e-20)
(0.699882 -0.00326825 1.12029e-24)
(0.992735 -0.0702236 1.39443e-20)
(0.961916 -0.000487852 2.531e-23)
(0.96947 -0.00491958 2.42509e-23)
(0.712236 -0.00390497 -1.2747e-23)
(0.735457 -0.00500593 -4.25903e-22)
(-0.119417 -0.0166937 -6.4275e-21)
(0.60238 0.0257447 -5.02368e-22)
(-0.101085 -0.0251775 -1.36168e-20)
(0.933617 -0.0506046 -2.56884e-21)
(0.664446 0.00752292 -1.24362e-22)
(-0.0306135 -0.0817276 3.10028e-20)
(-0.0494766 -0.0835771 7.56821e-21)
(-0.0403301 0.0163975 9.49435e-21)
(-0.0536806 0.116453 6.75337e-21)
(0.548231 0.0335424 -1.76033e-21)
(0.939009 -0.00187047 5.56871e-23)
(0.882438 -0.0285632 -5.81112e-22)
(0.694759 -0.00218304 6.1218e-23)
(-0.0123112 0.000530192 -1.79952e-20)
(-0.153076 0.00334459 4.7067e-20)
(-0.076584 0.0463489 2.68178e-22)
(-0.0407452 0.0134389 -7.91078e-21)
(0.148846 0.0607279 1.77145e-20)
(0.712634 0.0457521 1.10458e-20)
(0.744864 -0.0052308 2.00239e-23)
(-0.0266276 0.0727342 1.98578e-20)
(-0.0525385 -0.101492 9.86079e-22)
(-0.0231891 0.0791132 -1.67793e-20)
(0.587244 -0.0356901 -9.90943e-21)
(0.970355 -0.00661303 -7.52459e-23)
(0.856578 0.0404903 9.27601e-21)
(0.0409567 -0.0593118 1.15159e-20)
(0.352535 0.0949559 -1.33686e-20)
(0.107974 -0.0166278 -1.55341e-20)
(-0.12173 -0.0114215 1.69099e-20)
(0.45377 -0.0247686 -7.64752e-22)
(0.731164 0.000942033 1.09035e-22)
(0.926114 0.0879358 1.2112e-21)
(0.169749 9.47284e-05 6.56808e-21)
(0.709592 0.0061664 -4.20979e-22)
(0.854985 -0.00442966 -6.36991e-23)
(-0.133095 -0.00145922 6.2518e-21)
(-0.0425389 0.0866875 6.76722e-21)
(0.652849 0.104575 5.35352e-20)
(0.142197 0.00245398 -5.95118e-21)
(-0.133568 -0.00241436 1.43386e-20)
(0.0284416 0.0241506 1.17432e-20)
(0.0751188 0.0211089 -2.56209e-20)
(0.833396 -0.00456599 -2.23371e-23)
(0.623291 0.0144836 -5.67317e-23)
(0.0240614 -0.0659036 -2.55064e-20)
(0.557603 0.00502822 -1.57866e-21)
(0.805063 0.00730469 -1.21144e-21)
(0.928278 -0.00379106 2.95931e-22)
(0.701332 -0.00137856 4.30606e-23)
(0.870096 0.013996 -7.30881e-22)
(-0.0450747 -0.111168 4.36103e-21)
(-0.00699501 0.0180793 4.31304e-21)
(0.601271 0.0399948 -4.5425e-22)
(0.0729976 -0.0151939 -1.47548e-20)
(-0.0539682 0.0953592 -2.14382e-20)
(0.143682 0.0190053 -4.85921e-21)
(-0.144202 0.00116476 -8.10573e-21)
(-0.0103876 -0.0814482 -6.8066e-21)
(0.74269 -0.00748179 -4.05426e-22)
(-0.14935 0.00425279 -2.23301e-20)
(0.726738 0.00118357 -7.40961e-23)
(-0.0858222 0.0259431 -6.17556e-21)
(-0.125141 0.00287345 3.06765e-21)
(0.884523 -0.00719146 -1.93382e-22)
(0.0448724 0.0268573 -1.54062e-20)
(0.698534 -0.000133519 -2.92758e-22)
(0.960608 -0.00577311 8.57725e-23)
(0.0245328 -0.0649803 -1.66329e-21)
(0.0248485 0.0412703 4.52004e-21)
(0.36346 0.0645761 2.1191e-21)
(-0.0697384 0.0656281 1.31249e-20)
(0.81234 -0.00606102 1.07474e-22)
(0.776409 -0.097173 -6.06829e-21)
(-0.149659 0.00402384 -5.24739e-20)
(-0.0639509 -0.104272 2.24935e-20)
(-0.010839 -0.0395366 -6.84337e-21)
(0.727953 0.00134854 8.38753e-23)
(0.734402 -0.00509221 -5.2162e-23)
(0.77679 0.00154912 6.45391e-23)
(-0.032791 -0.0210917 3.4934e-21)
(0.966722 -0.00359466 -6.16934e-23)
(0.381902 -0.0232972 -3.79855e-21)
(0.759112 0.00308317 7.18578e-23)
(0.760804 -0.00533787 1.4023e-23)
(-0.1639 0.000228392 -3.77505e-21)
(-0.0349887 0.0901141 8.12839e-21)
(-0.0257956 0.0879441 -2.2788e-20)
(0.141036 -0.0655053 6.35848e-21)
(0.897345 -0.00587067 5.33444e-23)
(-0.0425119 0.0846622 -6.18448e-21)
(0.786825 -0.00672366 -4.16722e-23)
(0.843869 0.0271903 2.89895e-22)
(-0.112495 0.0111625 2.37689e-21)
(-0.148513 -0.0030564 -2.03214e-20)
(-0.160653 0.00156236 -8.27459e-21)
(0.401705 0.026424 -3.91329e-21)
(0.557635 0.022671 -4.03202e-22)
(0.560714 0.0444718 -1.01651e-20)
(0.712782 -0.00392371 1.32377e-22)
(0.705994 -0.000191093 -4.91507e-23)
(0.308208 0.0367894 -3.47428e-21)
(0.0371951 0.0552204 -9.90552e-21)
(0.933427 -0.00330867 -2.95231e-23)
(0.192048 -0.00462228 2.13174e-20)
(-0.0567815 0.0908079 7.01151e-21)
(-0.138573 0.00364869 -1.58531e-20)
(-0.0704342 0.0653157 -7.66928e-21)
(-0.0793458 0.0179083 6.35434e-20)
(0.925079 -0.00468024 -8.1416e-22)
(0.0987146 -0.00600497 -7.11406e-21)
(0.907162 -0.00279875 3.64468e-23)
(0.70283 -0.000142262 1.94628e-22)
(0.498135 -0.0688083 1.71241e-20)
(-0.053014 0.127899 -1.38636e-20)
(0.059713 0.0523699 2.07902e-21)
(-0.103389 0.00183938 -1.43916e-20)
(-0.0945227 0.0454583 1.22451e-20)
(-0.110098 -0.03293 1.32195e-20)
(0.524626 -0.0346932 2.74781e-21)
(0.914548 0.0118404 3.08621e-22)
(0.726279 -0.00651099 -4.87852e-23)
(0.0475044 0.0554575 -2.38647e-20)
(-0.162491 -0.00167184 1.103e-20)
(0.0728253 -0.0472095 -1.7644e-20)
(-0.0465036 -0.121332 3.0833e-20)
(-0.164981 9.63931e-05 1.02572e-20)
(0.807993 0.000849708 -8.78875e-23)
(0.965269 -0.00291609 -3.03176e-23)
(-0.155507 -0.003216 4.6056e-21)
(0.359679 -0.0192789 -9.10924e-21)
(0.326148 -0.013844 4.9155e-21)
(0.712937 0.00794358 -1.0015e-22)
(-0.0345704 -0.104042 2.5646e-20)
(0.817872 -0.00644607 -8.85711e-23)
(0.590371 0.013782 6.51396e-22)
(-0.00977755 -0.077095 1.17987e-20)
(0.963138 -0.00279126 -1.13905e-22)
(0.856825 -0.0489856 5.34033e-21)
(0.766235 -0.0451126 -5.63038e-21)
(-0.0246166 0.0925496 -2.53983e-20)
(0.95106 -0.078083 1.06933e-22)
(-0.0528947 0.120019 -3.62729e-21)
(-0.0513829 -0.113344 1.03262e-21)
(0.250689 -0.0168249 -4.99998e-21)
(0.155686 -0.0503191 2.09429e-20)
(1.0468 0.0493542 -1.37151e-20)
(0.854507 0.0197952 1.40276e-22)
(0.913815 0.0125379 6.57022e-24)
(0.793173 -0.00677 1.16058e-22)
(0.0119963 -0.0721139 1.85468e-20)
(-0.0402705 0.00103931 -7.9885e-20)
(-0.12147 -0.0250833 -1.59748e-20)
(0.281696 0.0141526 6.03713e-21)
(0.821198 -0.00568039 -8.95413e-23)
(1.02375 0.0648157 1.43212e-20)
(1.01669 -0.0644166 -2.34294e-21)
(0.884798 -0.0393515 1.00915e-22)
(1.00821 -0.0711944 -6.41396e-21)
(0.375937 0.0243315 1.26094e-21)
(0.879973 -0.0109641 -1.14805e-21)
(0.772031 -0.00732873 6.6359e-22)
(0.873737 0.0062025 1.02686e-21)
(0.850196 -0.00803038 1.97097e-22)
(0.699471 -0.00187115 8.6031e-23)
(0.0328233 -0.0386308 -2.84844e-21)
(0.843399 -0.0100086 -9.26117e-22)
(-0.0873341 0.0527885 -4.31758e-21)
(0.528644 0.0891663 -1.48148e-20)
(0.684799 -0.00964026 2.29051e-22)
(0.0737826 0.0467313 -1.20953e-20)
(0.695656 -0.0010266 -1.28696e-23)
(0.733826 0.00237847 -2.19633e-22)
(-0.0979925 -0.000543192 1.80556e-21)
(-0.1372 0.00563379 -2.19768e-21)
(0.0708334 -0.0514863 -8.74849e-21)
(0.728716 -0.00701994 1.95644e-22)
(0.679826 0.00900076 4.85275e-22)
(-0.0465926 -0.0744975 -4.15254e-23)
(-0.0448127 0.0950669 5.42063e-22)
(0.930581 -0.00257853 -6.01081e-24)
(-0.0470313 0.113809 -2.26658e-20)
(0.917013 0.00949693 -5.12859e-23)
(0.956839 -0.00233861 4.19533e-23)
(0.825201 -0.053473 2.39444e-21)
(0.868694 0.0154812 3.60115e-23)
(0.768532 0.00140409 2.80238e-22)
(0.874815 -0.070859 6.51161e-21)
(0.0551234 -0.0417093 -1.4872e-21)
(0.0159729 -0.0530283 -4.67674e-20)
(0.240541 -0.00438403 8.00081e-21)
(-0.0674191 -0.0579179 8.45485e-21)
(-0.0204774 0.0201282 1.32072e-20)
(0.955158 -0.00359497 1.47256e-22)
(0.706388 -0.0033535 2.34055e-24)
(0.88099 -0.0414339 7.94057e-22)
(0.361329 0.0322514 8.07134e-21)
(0.00129518 0.0727551 1.1306e-20)
(0.647677 -0.00584928 -8.66583e-22)
(0.936513 0.00106432 -4.61579e-23)
(0.92126 -0.00528562 -3.52255e-23)
(-0.0680897 -0.0427269 -1.17643e-20)
(0.916614 -0.00478592 6.4638e-22)
(1.05106 -0.0460431 -6.16237e-21)
(0.458754 0.0314369 1.14374e-21)
(0.661116 -0.104962 -3.62241e-21)
(0.480105 -0.0268515 -1.60405e-21)
(-0.0600655 -0.0915892 -4.00177e-21)
(0.648619 -0.00688599 1.76204e-21)
(0.9564 -0.000985254 -2.53094e-22)
(0.812492 -0.00550128 2.27931e-22)
(0.594601 -0.0136649 -3.75315e-22)
(0.709244 -0.000199726 2.80563e-23)
(0.178388 -0.0243335 8.08719e-21)
(0.795943 -0.00897941 -4.81429e-22)
(0.0150884 0.0058873 -3.20454e-21)
(0.62611 0.0448778 -8.79757e-21)
(-0.0497143 0.0232812 -1.10928e-21)
(0.623205 0.0780097 -4.36109e-22)
(-0.064686 0.0515463 -1.09632e-21)
(-0.00505656 0.0155393 -2.05005e-20)
(0.85545 -0.0439963 -1.8321e-21)
(0.714762 0.0418613 2.13434e-21)
(-0.107553 -0.00867343 7.13951e-20)
(0.399768 0.0902795 -9.07284e-21)
(0.245422 -0.0801192 -1.63768e-20)
(0.0616628 0.037547 -4.46864e-21)
(0.00847458 0.0653671 3.09328e-20)
(0.59733 0.104004 2.1622e-20)
(0.156744 0.0208562 -2.20263e-20)
(0.283358 0.079119 1.62115e-20)
(0.760557 0.00531232 9.19219e-22)
(0.805815 -0.00765787 -9.43042e-23)
(0.0184132 -0.0190916 2.00979e-20)
(-0.0554046 -0.103576 -2.98103e-21)
(-0.0487988 -0.0168835 3.81288e-20)
(0.688079 0.0357749 -1.50392e-22)
(0.2376 0.0835187 -2.74664e-20)
(0.489202 0.00942472 8.30276e-22)
(0.930202 -0.0233433 -1.51323e-22)
(0.60111 0.00485058 -3.06842e-21)
(0.939468 -0.0148661 -2.24418e-23)
(0.930804 -0.0642769 2.53139e-21)
(0.879372 0.00891722 -9.39147e-23)
(0.844608 -0.0100449 7.11822e-23)
(-0.122852 0.0168619 2.40072e-20)
(0.756106 -0.00697482 -3.72427e-24)
(0.702174 -0.000937195 1.43619e-22)
(0.444866 -0.0279823 2.86686e-20)
(0.495668 0.103474 6.10527e-21)
(0.886525 -0.0737727 2.19787e-21)
(0.955117 -0.00449755 2.46883e-22)
(0.494582 0.0238409 -9.75488e-22)
(0.0699037 -0.0611266 -4.94189e-21)
(0.593106 0.0223412 -1.09109e-21)
(0.723017 -0.00549203 1.28873e-22)
(0.915779 0.0106901 -3.18264e-23)
(0.730063 -0.105174 -1.28379e-20)
(0.518993 0.0658546 2.04305e-21)
(0.821129 -0.10036 -3.99467e-21)
(0.920023 0.00802066 2.40487e-22)
(0.629961 0.0746757 -7.64099e-23)
(0.212498 0.00261083 -1.76959e-21)
(0.691729 0.000348192 -9.19389e-23)
(0.698184 -0.00137343 -8.21109e-23)
(0.121491 0.00495205 -7.35773e-21)
(-0.104782 -0.0350757 9.2848e-21)
(-0.0333758 -0.100181 -3.32868e-20)
(0.36548 -0.0309202 8.95155e-21)
(0.0631892 -0.0488642 -9.58202e-23)
(0.738032 0.0751189 9.2665e-22)
(-0.00448093 0.0668327 2.15536e-20)
(0.485621 0.0393164 -5.12037e-22)
(0.654139 0.0268035 -1.4948e-22)
(0.859207 0.0228301 8.10568e-22)
(0.684453 0.0214117 -5.09465e-22)
(0.290568 0.0943323 1.10419e-20)
(0.741002 -0.0234439 -1.69992e-22)
(0.951034 -0.00301645 -6.53899e-22)
(0.940627 -0.0139343 -2.15889e-22)
(0.148904 0.0616937 1.53236e-20)
(-0.165122 3.17304e-05 3.02927e-20)
(0.548346 -0.0673924 -1.16882e-21)
(0.93141 -0.0620088 -5.95253e-22)
(0.463351 0.010775 -1.42664e-21)
(0.615143 -0.0476575 3.92979e-22)
(0.429541 0.00812788 -2.66581e-22)
(0.467901 0.00640663 1.71142e-21)
(0.224978 0.0112837 1.11158e-20)
(0.492223 0.00546184 -7.61104e-22)
(0.164652 0.0121895 1.49061e-20)
(0.652765 -0.0471131 1.81438e-21)
(0.73884 0.0225493 -1.30435e-21)
(0.575643 -0.0521467 -5.60704e-21)
(0.52306 0.001821 1.15011e-21)
(0.734481 0.00987083 -4.16457e-22)
(0.543628 0.00363472 -2.06115e-21)
(0.738372 0.0216741 3.77455e-22)
(0.505444 0.0724602 -4.50284e-21)
(0.82219 0.0140434 -4.50686e-22)
(0.563507 0.00099652 3.05538e-21)
(0.403717 0.0515987 -7.07324e-21)
(0.634434 0.0718979 1.35194e-21)
(0.587058 0.00345747 1.0399e-21)
(0.749661 -0.014432 -6.36503e-22)
(0.43871 0.0029422 1.46258e-21)
(0.398871 -0.0011266 4.98947e-22)
(0.359489 -0.00344333 7.39689e-22)
(0.301095 0.00463999 -6.31608e-21)
(0.248551 0.00795608 -6.72309e-21)
(0.475229 0.000921757 -1.85038e-21)
(0.182675 0.000177405 -1.28757e-20)
(0.498419 0.00061292 -1.17657e-21)
(0.625765 -0.0519169 1.16826e-21)
(0.531355 -0.000909494 -1.51982e-22)
(0.67982 -0.0463251 -2.05587e-22)
(0.547238 0.000771739 -9.85265e-22)
(0.640901 -0.0177039 2.64187e-22)
(0.688814 -0.0216226 1.12364e-21)
(0.571492 -4.86492e-06 -2.74001e-21)
(0.600058 0.00239416 3.99787e-21)
(0.589738 -0.000228509 -1.50895e-21)
(0.90246 -0.0171505 -5.94231e-22)
(0.773241 0.0137593 1.71967e-22)
(-0.154721 -0.00319252 -2.63848e-20)
(0.889046 -0.00438532 -4.98585e-23)
(0.773773 -0.0148535 2.06246e-21)
(0.769028 0.0152251 -7.43435e-22)
(0.602687 -0.000326136 -3.43925e-21)
(0.763922 -0.00588251 3.50616e-22)
(0.555019 -0.0359087 4.0102e-21)
(0.611989 0.000890178 -7.56256e-22)
(0.409628 0.0123495 2.23607e-21)
(0.366354 0.0112037 5.50525e-22)
(0.513245 0.00921567 2.8653e-21)
(0.618881 -0.00191347 6.59307e-22)
(0.770967 0.0131694 -4.11588e-22)
(0.696643 -0.00437063 1.80918e-22)
(0.800394 -0.0614631 -1.62853e-21)
(0.816487 -0.0477732 -1.25422e-21)
(0.122207 -0.0215571 2.68825e-20)
(0.883309 -0.00789172 2.83973e-23)
(0.446324 -0.0172434 -6.02054e-22)
(0.631998 -0.00077532 1.03736e-21)
(0.598555 -0.0128663 4.53908e-22)
(0.711858 -0.00556438 1.81619e-22)
(0.776199 0.0126158 6.30885e-22)
(0.298397 0.0284508 -9.2145e-23)
(0.636209 0.0151855 1.2404e-21)
(0.0439037 0.00290002 -4.16114e-21)
(0.625954 0.00358383 -3.26227e-22)
(0.836502 -0.00519534 -4.4786e-23)
(0.783865 0.00654901 -6.31772e-22)
(0.939918 -0.0014194 4.79116e-23)
(0.641419 0.000155945 7.59442e-22)
(0.674513 0.0297932 9.16845e-22)
(-0.0514333 0.0831506 -1.58123e-20)
(0.917023 -0.00472366 -1.14066e-22)
(0.639478 0.00353632 1.11579e-22)
(0.148865 -0.00622035 7.9133e-21)
(0.64353 -0.000302127 -1.36855e-21)
(0.768853 0.00690772 -2.35242e-23)
(0.73787 0.00492437 -9.19887e-23)
(0.430158 -0.0393731 -3.75327e-20)
(0.747916 0.00817816 3.62973e-22)
(0.961046 -0.000240774 -1.67062e-23)
(0.516049 0.0688747 2.36313e-21)
(0.771619 0.0140832 1.41736e-22)
(0.0280633 0.0517976 4.94718e-21)
(0.641644 -0.058305 -4.36266e-21)
(0.675068 -0.0503169 -5.0949e-21)
(0.276145 0.00890943 -3.96746e-21)
(0.324672 0.00222645 -7.86656e-21)
(0.205843 -0.0185092 3.2193e-20)
(0.725181 0.0104578 -6.20531e-22)
(0.485817 -0.00264141 4.09388e-21)
(0.496313 0.0223937 -6.89017e-22)
(0.42166 0.0269357 2.8461e-21)
(0.508663 -0.00148981 3.18957e-21)
(0.805087 0.0388094 -7.12457e-22)
(0.5556 -0.000412422 2.87517e-22)
(0.368618 0.0952757 -3.1238e-20)
(0.577874 0.00265048 2.11881e-21)
(0.655443 -0.000579288 -2.45203e-22)
(0.258635 -0.0029799 -5.14336e-21)
(0.310768 -0.00750297 3.49621e-21)
(0.333748 0.0410971 8.65287e-21)
(-0.0993481 -0.0101812 -1.68486e-20)
(0.703838 -0.0443963 3.43257e-21)
(0.759382 0.00655543 2.06619e-22)
(0.251295 0.0780591 1.53396e-20)
(0.674192 0.0488398 -9.08213e-22)
(0.688256 0.0189085 1.27024e-21)
(0.596098 -0.002274 2.27843e-22)
(0.551446 -0.00325999 5.03489e-22)
(-0.0467384 0.0480623 3.33227e-21)
(0.837587 0.000368955 2.41381e-23)
(0.641269 -0.0410926 -2.5894e-21)
(0.652364 0.00205394 -1.12232e-22)
(0.871647 0.0118157 -1.44178e-22)
(0.633012 0.00809201 1.57998e-21)
(0.65539 0.00370011 6.19816e-22)
(0.653379 0.000719661 1.35517e-21)
(0.609059 -0.00285504 4.05532e-21)
(0.784829 -0.0157295 -1.64372e-22)
(0.692487 -0.0205566 -8.30484e-22)
(0.713828 -0.012376 -8.03752e-22)
(0.636832 0.000283554 -7.86077e-22)
(0.777085 -0.014142 5.59957e-22)
(0.0325649 0.0537542 1.5488e-20)
(0.544009 0.0133539 1.69037e-22)
(0.758029 -0.00875995 7.8333e-22)
(0.605219 0.0107776 1.88714e-22)
(0.621388 0.00789 -8.22817e-22)
(0.803591 -0.0144856 5.26267e-22)
(0.207038 -0.0284593 -1.38838e-20)
(0.655805 0.0375928 2.93185e-22)
(0.578856 0.0463123 -7.3901e-22)
(0.713322 0.0293262 -5.45186e-23)
(0.724077 0.0110121 -6.8718e-22)
(0.772011 0.00701045 6.6925e-23)
(0.768935 0.0128508 1.34538e-22)
(0.735616 -0.0133204 1.40494e-22)
(0.404913 -0.097916 -4.86998e-21)
(0.713708 -0.0609981 9.10496e-21)
(0.312082 -0.0224013 -2.16314e-21)
(0.780228 -0.028739 1.51123e-21)
(0.659666 0.00153792 -1.32615e-21)
(0.515763 -0.0115835 8.51586e-22)
(-0.0404741 0.10433 8.96337e-21)
(0.631299 0.0382976 -1.01269e-21)
(0.937518 0.0234954 -5.28003e-22)
(0.934037 0.0381461 4.45928e-22)
(0.956211 0.00621151 -6.29706e-23)
(0.951314 0.0101374 -1.85831e-22)
(0.928226 -0.0477684 -2.54168e-21)
(0.938204 -0.0156889 3.85922e-22)
(0.948019 0.0131183 -5.6199e-24)
(0.963284 0.00201321 2.36687e-22)
(0.932025 -0.0219909 2.53726e-22)
(0.959688 0.00434705 -2.17959e-22)
(0.942747 -0.0112764 -3.70305e-22)
(0.957559 0.00538631 1.89914e-22)
(0.957343 0.00206388 7.28352e-22)
(0.965744 0.000706117 7.03964e-24)
(0.944563 0.0142784 -9.86365e-23)
(0.929032 -0.0250582 2.41549e-22)
(0.942439 -0.0130546 -3.05169e-22)
(0.949816 0.0116928 -2.73287e-22)
(0.933925 -0.0586985 1.65886e-21)
(0.644786 0.00631834 -6.92758e-22)
(0.616857 -0.00748385 8.24146e-22)
(0.143455 -0.00637454 -2.44518e-20)
(0.223109 -0.0142286 -9.87654e-21)
(0.953072 -0.00285846 6.27744e-22)
(0.886073 -0.00201891 1.5327e-22)
(0.696701 0.00858145 7.88013e-22)
(0.666871 -0.0666159 1.23386e-21)
(0.373774 -0.00181685 2.42313e-22)
(0.565667 0.0480041 -4.32757e-22)
(0.41261 -0.00248362 -6.83857e-22)