/*--------------------------------*- C++ -*----------------------------------*\
  =========                 |
  \\      /  F ield         | OpenFOAM: The Open Source CFD Toolbox
   \\    /   O peration     | Website:  https://openfoam.org
    \\  /    A nd           | Version:  10
     \\/     M anipulation  |
\*---------------------------------------------------------------------------*/
FoamFile
{
    format      ascii;
    class       volScalarField;
    location    "1350";
    object      epsilon;
}
// * * * * * * * * * * * * * * * * * * * * * * * * * * * * * * * * * * * * * //

dimensions      [0 2 -3 0 0 0 0];

internalField   nonuniform List<scalar> 
10435
(
0.2757
0.734975
0.552106
0.644715
0.959404
0.862205
0.512322
0.407368
0.309533
0.725053
0.925016
0.649261
0.688354
0.0681378
0.0785683
0.493898
0.0606053
0.800799
0.245481
0.33177
0.449255
0.51606
0.530425
0.310759
0.669181
0.0201574
0.0327649
0.59917
0.0312788
0.778469
0.630633
0.989344
0.37868
0.0319994
0.422799
0.360353
0.474356
0.0328908
0.0141047
0.269727
0.856045
0.524376
0.0386565
0.539335
0.535388
0.287935
0.840401
0.0338599
0.280613
0.380083
0.426625
0.751521
0.01366
0.0264549
0.0155089
0.0287261
0.441299
0.0352781
0.0482719
0.376604
0.0152275
0.615622
0.0357248
0.787257
0.536665
0.585533
0.0425496
0.0407726
0.431222
0.315409
0.0259946
0.0263426
0.0255984
0.571245
0.0937843
0.0437877
0.337669
0.488285
0.34828
0.0866902
0.374398
0.183587
0.0132326
0.0269802
0.364089
0.243397
0.297441
0.635372
0.135084
0.382837
0.704411
0.763462
0.221673
0.170701
0.472146
0.253323
0.762747
0.0929496
0.0533903
0.839255
0.110295
1.04222
0.22509
0.55751
0.994031
0.600022
0.261204
0.379723
0.355639
0.10257
0.362198
1.08567
0.150358
0.123458
0.861584
0.484819
0.811752
0.331518
0.728943
0.737118
0.77736
0.0354067
0.434592
0.100215
1.16776
0.017744
0.753395
0.0452398
0.884257
0.0311161
0.0657316
1.14441
0.457491
0.0745953
0.0292612
0.0123155
0.259175
0.655656
0.641716
0.439405
0.387415
0.588856
0.03841
0.719448
0.524014
0.0723844
0.164055
0.817583
0.0584425
0.664038
0.0289739
0.525827
0.329122
0.665369
0.756631
0.0242523
1.16078
0.54167
0.745553
0.982521
0.606871
0.0655723
0.858276
0.511162
0.114924
0.819452
0.372365
0.637309
0.479771
0.77745
0.685327
0.0199186
0.030315
0.0867958
0.588586
0.858056
0.485601
0.0467212
0.334587
0.0340233
0.838908
0.890431
0.675991
0.0166289
0.589647
0.030152
0.0344892
0.475428
0.952945
0.727682
0.726479
0.0129906
0.0292183
0.390717
1.13135
0.453179
0.0518965
0.176719
0.0405384
0.490356
0.125631
0.0321621
0.637345
0.0346358
0.599426
0.931156
0.806045
0.648829
0.0369627
0.518016
0.024559
0.537916
0.749171
0.54216
0.0326196
0.0664067
0.14203
0.0166082
0.0204918
0.0588372
0.0322153
0.0512205
0.0405823
0.0897588
0.0225894
0.44639
0.0170603
0.130997
0.681033
0.0523198
0.0456062
0.408964
0.0186646
0.518759
0.0336195
0.0548946
0.414306
0.022471
0.413515
0.648521
0.472755
0.0198823
0.0178592
0.0283826
0.914491
0.336764
0.172811
0.430154
0.0245047
0.70999
0.0249006
0.158031
0.709896
0.510641
0.450615
0.85196
0.0223094
0.466598
0.0217086
0.0320574
0.483464
0.695609
0.0198094
0.403319
0.177698
0.0486003
0.401387
0.581398
0.0150726
0.918209
0.502321
0.393365
0.428695
0.63657
0.0224834
0.715902
0.0316291
1.01844
0.47863
0.373247
0.690185
0.0475362
0.521877
0.104593
0.202576
0.0144849
0.894737
0.0155591
0.0274344
0.0330223
0.117258
1.08035
0.0372567
0.409876
0.0144054
0.0255389
0.0605734
0.222871
1.03598
0.623536
0.0412595
0.426812
0.541882
0.0265328
1.03013
0.0777332
0.0534363
0.510229
0.603824
0.0276415
0.30043
0.0288798
0.54551
0.872667
0.345865
0.0260288
0.0174872
0.66762
0.0434645
0.632862
0.954315
0.0336886
0.26075
0.0127577
0.350084
0.642339
0.0246336
0.563665
0.0445514
0.0340021
0.338029
0.0351842
0.0276074
0.533744
0.597807
0.0372184
0.0265411
0.0254401
0.0294978
0.0294897
0.0263881
0.0254099
0.0148848
0.0302938
0.0292171
0.0278228
0.0392276
0.0344864
0.0125399
0.324865
0.0280718
0.633821
0.0321823
0.589703
0.326193
0.259278
0.687886
0.567771
0.0275739
0.0299174
0.0260444
0.0182718
0.0288999
0.0146986
0.0321941
0.0279254
0.0373782
0.575495
0.0271905
0.30776
0.0168375
0.0296351
0.727838
0.228264
0.0148144
0.0325948
0.0345228
0.0335835
0.0295825
0.0221918
0.0377304
0.0161211
0.364734
0.0406052
0.411386
0.305515
0.620227
0.654692
0.285592
0.571571
0.385894
0.0672971
0.0238597
0.0302142
0.0265834
0.55196
0.0286736
0.734751
0.0360254
0.0342961
0.0308401
0.0367084
0.0189128
0.503278
0.0338671
0.389293
0.501721
0.0195548
0.0240289
0.0336847
0.236894
0.0335308
0.0255963
0.0213435
0.0288915
0.036288
0.0315552
0.570044
0.0260713
0.0244446
0.0316643
0.0333185
0.81746
0.0153249
0.0129821
0.192066
0.0295131
0.000143481
0.000138022
0.000129536
0.000119329
0.00010811
9.6065e-05
8.34141e-05
7.04493e-05
5.75536e-05
0.000157131
0.000149468
0.000139075
0.00012727
0.000114659
0.00010156
8.82287e-05
7.50434e-05
6.25253e-05
0.000174005
0.000164231
0.000151787
0.000138145
0.000123975
0.000109618
9.53734e-05
8.1624e-05
6.88551e-05
0.000196137
0.000184084
0.000169195
0.000153343
0.000137253
0.000121272
0.000105707
9.09003e-05
7.72431e-05
0.000226159
0.000211348
0.000193377
0.000174723
0.000156138
0.000137973
0.000120508
0.000104008
8.87157e-05
0.000267624
0.000249229
0.000227222
0.000204893
0.000182977
0.000161831
0.000141686
0.000122736
0.000105121
0.000325582
0.00030223
0.000274781
0.000247527
0.000221117
0.000195896
0.000172042
0.000149709
0.000129027
0.00040742
0.000376485
0.000341596
0.000307731
0.000275283
0.00024453
0.000215586
0.000188594
0.000163755
0.000522483
0.000479687
0.000434936
0.000392387
0.000351955
0.000313787
0.000277926
0.000244476
0.000213644
0.000679218
0.000620502
0.000563782
0.000510291
0.000459584
0.000411694
0.000366622
0.000324391
0.000285029
0.000882328
0.00080797
0.000738466
0.000671894
0.00060839
0.000548125
0.000491183
0.000437539
0.000387074
0.00113299
0.00105196
0.00097023
0.000888582
0.000809592
0.000734065
0.000662378
0.000594542
0.000530462
0.00144282
0.00136562
0.00127098
0.00117167
0.00107414
0.00098025
0.00089081
0.000805955
0.000725801
0.00184883
0.00176576
0.00165235
0.00153107
0.00141127
0.00129565
0.00118531
0.00108054
0.000981637
0.00237623
0.00226485
0.00212258
0.00197364
0.00182743
0.00168658
0.00155215
0.00142434
0.00130286
0.00303068
0.00286534
0.00268423
0.0025024
0.00232605
0.00215686
0.00199565
0.00184262
0.00169747
0.00378367
0.00355794
0.0033344
0.0031172
0.00290846
0.00270884
0.00251884
0.0023388
0.00216927
0.00459835
0.0043297
0.00406845
0.00381711
0.0035759
0.00334515
0.0031252
0.00291639
0.00271931
0.00547099
0.00517654
0.00488544
0.0046036
0.00433177
0.00407082
0.00382111
0.0035829
0.00335648
0.00641075
0.00610408
0.00579022
0.00548224
0.00518306
0.00489448
0.00461692
0.00435068
0.00409654
0.00743522
0.0071249
0.0067926
0.00646242
0.00614034
0.00582849
0.00552686
0.00523512
0.00495353
0.00856994
0.0082556
0.00790486
0.00755577
0.00721679
0.0068887
0.0065699
0.00625874
0.00595462
0.00985387
0.00951431
0.00913894
0.00877421
0.00842706
0.00809359
0.00776907
0.00744978
0.00713512
0.0113358
0.0109139
0.0105016
0.0101271
0.00978544
0.00946293
0.00914994
0.00883939
0.00853008
0.0130594
0.0124456
0.0119914
0.0116219
0.0113073
0.0110187
0.0107412
0.0104659
0.0101531
0.00112609
0.00110254
0.00108401
0.00107039
0.00106169
0.00105776
0.0010585
0.0010637
0.00107316
0.00108656
0.00110358
0.00112382
0.00114677
0.00117194
0.00119867
0.00122633
0.00125422
0.00128157
0.00130764
0.00133164
0.00135272
0.00136996
0.00138212
0.00138722
0.0013842
0.00137344
0.00135581
0.00133106
0.00129758
0.00125703
0.00121071
0.00115908
0.00110261
0.00104239
0.000979384
0.000914561
0.000848835
0.000783087
0.00071815
0.000654796
0.000593718
0.000535537
0.000480764
0.000429826
0.000383053
0.000340671
0.000302794
0.000269445
0.000240523
0.000215851
0.000195172
0.000178178
0.000164551
0.000153964
0.000146127
0.000140779
0.000137714
0.000136778
0.000137825
0.00113622
0.00111542
0.00109925
0.00108768
0.00108062
0.0010779
0.00107933
0.00108476
0.00109399
0.00110677
0.00112277
0.00114163
0.00116291
0.0011861
0.00121064
0.00123592
0.00126125
0.00128595
0.00130929
0.00133052
0.00134889
0.00136361
0.00137381
0.00137847
0.00137641
0.00136668
0.00134882
0.00132285
0.00128936
0.00124942
0.00120384
0.00115321
0.00109812
0.00103929
0.000977534
0.000913727
0.000848754
0.000783493
0.000718793
0.000655447
0.000594189
0.000535675
0.000480473
0.000429061
0.000381813
0.00033899
0.000300735
0.000267069
0.000237898
0.000213027
0.000192181
0.00017504
0.00016126
0.000150504
0.000142463
0.000136867
0.000133496
0.000132192
0.000132793
0.00112373
0.00110436
0.00108926
0.00107839
0.00107172
0.00106915
0.00107054
0.00107572
0.0010845
0.0010966
0.00111174
0.00112955
0.00114962
0.00117147
0.00119457
0.00121835
0.00124217
0.00126536
0.00128724
0.00130707
0.0013241
0.0013375
0.0013464
0.00134983
0.00134686
0.00133678
0.00131921
0.0012941
0.0012618
0.00122303
0.00117854
0.00112904
0.0010752
0.00101776
0.000957476
0.00089518
0.0008317
0.000767869
0.000704498
0.000642362
0.000582181
0.000524612
0.000470232
0.000419531
0.000372895
0.0003306
0.000292799
0.00025952
0.000230673
0.000206064
0.00018542
0.000168423
0.000154724
0.000143986
0.000135897
0.000130187
0.000126634
0.000125075
0.000125348
0.00108688
0.00106881
0.00105478
0.00104475
0.00103864
0.00103635
0.00103776
0.00104269
0.00105095
0.0010623
0.00107646
0.00109309
0.00111182
0.00113221
0.00115375
0.00117592
0.00119811
0.00121969
0.00123998
0.00125827
0.00127379
0.00128577
0.00129337
0.00129576
0.00129215
0.00128193
0.00126474
0.00124053
0.00120957
0.00117241
0.0011297
0.00108212
0.00103038
0.000975199
0.000917334
0.000857552
0.000796634
0.000735364
0.000674505
0.000614796
0.000556928
0.000501534
0.000449179
0.000400344
0.000355412
0.000314654
0.000278223
0.00024615
0.000218345
0.000194622
0.000174713
0.000158314
0.000145077
0.000134668
0.000126788
0.000121172
0.000117604
0.000115922
0.000115969
0.00103507
0.00101854
0.00100577
0.00099669
0.000991246
0.000989339
0.000990844
0.000995604
0.00100343
0.0010141
0.00102734
0.00104284
0.00106025
0.00107915
0.00109908
0.00111954
0.00113995
0.00115973
0.0011782
0.0011947
0.0012085
0.00121885
0.00122501
0.00122626
0.00122194
0.00121154
0.00119479
0.00117161
0.00114222
0.001107
0.00106651
0.00102137
0.000972251
0.000919864
0.000864933
0.000808197
0.000750396
0.000692271
0.000634554
0.000577942
0.000523094
0.000470612
0.00042103
0.000374804
0.000332293
0.000293752
0.000259319
0.000229018
0.000202761
0.000180367
0.000161577
0.000146088
0.000133574
0.000123717
0.000116225
0.000110846
0.00010737
0.00010564
0.000105504
0.000967958
0.000952783
0.000941098
0.000932858
0.000927997
0.000926422
0.000928007
0.000932602
0.000940019
0.000950039
0.000962404
0.000976816
0.000992935
0.00101037
0.00102869
0.00104742
0.00106601
0.0010839
0.00110048
0.00111512
0.00112715
0.00113589
0.00114067
0.00114088
0.00113596
0.00112549
0.00110924
0.00108716
0.00105941
0.00102631
0.000988314
0.00094598
0.000899944
0.000850874
0.000799452
0.000746379
0.000692346
0.000638047
0.000584179
0.000531402
0.000480328
0.000431515
0.000385457
0.000342573
0.000303189
0.000267531
0.000235718
0.00020776
0.000183567
0.000162958
0.000145685
0.000131459
0.000119971
0.000110923
0.000104039
9.90791e-05
9.58456e-05
9.41904e-05
9.39709e-05
0.000887554
0.000873719
0.000863088
0.000855631
0.000851295
0.000849998
0.000851622
0.000856024
0.000863024
0.000872404
0.000883914
0.000897268
0.000912138
0.000928155
0.000944906
0.000961943
0.00097877
0.000994843
0.0010096
0.00102246
0.00103281
0.00104004
0.00104359
0.00104292
0.00103754
0.00102712
0.00101147
0.000990587
0.000964568
0.000933676
0.000898325
0.000859006
0.000816335
0.000770946
0.000723451
0.000674516
0.000624768
0.000574848
0.000525433
0.000477117
0.000430452
0.000385938
0.000344018
0.000305067
0.000269374
0.000237129
0.000208429
0.000183269
0.000161549
0.000143092
0.00012766
0.000114979
0.000104761
9.67287e-05
9.06251e-05
8.62287e-05
8.33574e-05
8.18734e-05
8.16464e-05
0.00079217
0.000779361
0.000769508
0.000762613
0.000758644
0.000757538
0.000759183
0.000763441
0.000770124
0.000779001
0.000789845
0.000802338
0.000816157
0.000830939
0.000846312
0.000861901
0.000877261
0.000891841
0.000905141
0.000916556
0.000925534
0.000931516
0.000934086
0.000932841
0.000927263
0.00091715
0.000902335
0.00088285
0.000858698
0.000830104
0.000797486
0.000761303
0.000722217
0.000680842
0.000637634
0.000593255
0.000548284
0.000503268
0.000458904
0.000415655
0.000374005
0.000334382
0.000297165
0.000262684
0.000231199
0.000202849
0.000177728
0.000155796
0.000136938
0.000120973
0.000107673
9.67878e-05
8.80557e-05
8.12268e-05
7.60722e-05
7.23918e-05
7.00205e-05
6.88326e-05
6.87103e-05
0.000679322
0.000667124
0.000657739
0.000651273
0.000647743
0.000647052
0.000649005
0.0006533
0.00065997
0.00066904
0.00067985
0.00069205
0.000705229
0.000718953
0.000733139
0.000747408
0.000761678
0.000775752
0.000788527
0.00079907
0.000806991
0.000811945
0.000813828
0.000812255
0.000806896
0.000797485
0.000783964
0.000766282
0.000744231
0.000717885
0.000687946
0.000654975
0.000619629
0.00058256
0.000544142
0.000504454
0.000464302
0.000424966
0.000386427
0.000348795
0.000312688
0.000278492
0.00024648
0.000216879
0.000189887
0.00016576
0.00014453
0.000126249
0.000110682
9.7502e-05
8.64954e-05
7.75036e-05
7.03462e-05
6.48084e-05
6.06823e-05
5.78133e-05
5.6061e-05
5.53054e-05
5.54398e-05
0.0263313
0.0239208
0.0216864
0.0195562
0.0175104
0.0155482
0.013684
0.011934
0.0103105
0.00882077
0.00749616
0.00636245
0.0054172
0.00463584
0.00397164
0.00340193
0.00292808
0.00254492
0.0022387
0.00199091
0.0017865
0.00161362
0.00146263
0.00132549
0.0011948
0.025105
0.0233706
0.0214111
0.019386
0.0173721
0.0154102
0.013533
0.0117678
0.0101357
0.00865595
0.00734716
0.00621743
0.00526194
0.0044654
0.00380542
0.0032614
0.00281735
0.00245871
0.00217082
0.00193869
0.00174847
0.00158851
0.00144947
0.00132376
0.00120486
0.0250233
0.0232053
0.0212331
0.0191983
0.0171637
0.0151767
0.0132778
0.0115002
0.00986886
0.0084024
0.00711116
0.00599627
0.00505139
0.0042643
0.00361838
0.00309501
0.00267509
0.00234019
0.00207345
0.00185967
0.00168542
0.00153937
0.00141228
0.0012969
0.00118768
0.0251557
0.0231355
0.0210525
0.0189501
0.0168717
0.0148575
0.012945
0.0111661
0.00954479
0.00809622
0.00682622
0.0057327
0.00480818
0.00404103
0.00341598
0.00291482
0.00251758
0.00220449
0.0019576
0.00176128
0.00160218
0.00146922
0.00135342
0.00124779
0.00114681
0.0253335
0.0231192
0.0208969
0.0186975
0.0165556
0.0145044
0.0125755
0.010796
0.00918554
0.00775528
0.00650781
0.00543894
0.00453991
0.00379835
0.00319856
0.00272188
0.00234788
0.00205628
0.00182864
0.00164909
0.0015044
0.00138377
0.00127859
0.00118232
0.00109018
0.0254732
0.0230854
0.0207203
0.0184163
0.0162056
0.0141152
0.0121698
0.0103903
0.00879155
0.00738085
0.00615817
0.00511747
0.00424834
0.00353691
0.00296617
0.00251651
0.00216698
0.00189709
0.00168836
0.00152501
0.0013941
0.00128523
0.00119023
0.00110296
0.00101886
0.0255969
0.0230252
0.0205071
0.0180943
0.0158148
0.0136865
0.0117255
0.0099468
0.00836089
0.00697159
0.00577659
0.00476804
0.00393344
0.00325655
0.00271856
0.00229861
0.00197516
0.00172771
0.00153802
0.00139066
0.00127308
0.00117539
0.00108987
0.0010108
0.000934258
0.0257331
0.0229211
0.0202326
0.0177122
0.01537
0.0132095
0.0112365
0.00946028
0.00788905
0.00652382
0.00536009
0.00438837
0.00359393
0.0029566
0.00245543
0.00206816
0.00177263
0.00154858
0.00137833
0.00124697
0.00114241
0.00105536
0.00097844
0.00090616
0.000835663
0.0258277
0.022726
0.0198643
0.0172496
0.0148598
0.0126771
0.0106987
0.00892623
0.00737089
0.00603323
0.00490429
0.00397506
0.00322858
0.00263669
0.00217691
0.00182569
0.0015599
0.00136022
0.00121008
0.00109511
0.00100342
0.000926864
0.000857566
0.00078912
0.00072092
0.798008
0.77003
4.37222
2.78188
0.000740046
0.00112578
0.0358335
0.000172861
3.3019
6.9359e-05
2.67922
0.00118682
0.00990506
0.00301491
0.0320986
0.000502746
2.64028
2.45307
4.5695e-05
0.0824818
0.00899055
0.000286012
3.0956
0.00421612
0.00021794
0.000253746
0.000197139
0.0149612
1.08461
2.62387
6.1094e-05
0.000294516
2.71389
0.0143591
2.61522
0.000374271
0.0357553
0.0323742
0.0418955
0.00080857
3.93753
0.000221156
0.000251236
0.0393378
0.00726335
0.000408513
4.16635
5.09806
1.55948
1.69197
3.82667
3.49356
0.00573769
2.31744
0.0337001
3.25481
0.00258524
0.00617905
0.000571986
3.56103
0.00055506
4.87499
0.000760098
0.000419102
0.000174112
0.0332208
0.000427182
0.0301808
0.0125343
1.6403
3.08381
0.000379431
0.000370527
0.0757148
0.000263743
0.00826012
0.0614808
4.6679
0.000233576
2.00013
0.0117979
0.000764083
0.000190392
2.64222
0.00060206
0.00062187
0.000274396
4.5671
2.77103
0.00255769
0.00412085
0.00105387
9.16033e-05
0.0012657
0.000482575
2.70185
0.00026696
3.02014
0.000427767
3.49505
0.00573555
3.87938
0.0067078
0.000378062
0.000450547
0.00852788
3.33348
0.0108119
0.000355365
2.62672
0.000326733
0.000892596
3.37076
0.000357132
0.0056847
1.51718
2.83287
0.000686282
0.00568648
0.000620359
2.27564e-05
0.000894134
0.00429008
0.000237792
2.88283
0.000252709
3.50613
0.0520849
0.000484426
5.07753
0.000188704
0.0727511
1.68501
0.0360103
0.0182394
0.000285286
0.00683765
0.00349376
0.00047127
0.0918794
0.000235957
0.0399927
3.65036
3.33655e-05
1.23674
0.000577648
2.95029
0.0271338
0.000503393
2.5296
0.00992383
0.00158711
3.01845
0.0449776
0.000424757
2.57114
0.000280358
0.000641983
0.057146
0.000211115
0.000236783
3.09328
0.000320696
3.22933
0.000147662
3.25619
0.00306511
0.000188724
0.000619986
0.000334819
0.0026736
0.000433963
0.0294361
2.887
0.000472119
0.0105891
0.0166468
1.37515
2.13964
0.000246264
0.0209801
0.000292445
0.00554962
0.0216166
0.0269954
0.000233012
3.55535
0.000296141
1.91156
0.000480884
4.53681
3.567
1.71436
0.0396769
0.0369518
2.12777
0.000255438
0.000277663
1.37072
0.912147
0.0419418
0.000662754
0.000710182
0.000506307
0.00689746
0.000136596
0.00051638
0.00674991
1.66514
0.000511972
0.0004285
0.00122055
0.0209816
0.00641137
0.0130171
4.36075
0.000656872
0.000190805
0.000566233
0.00411908
0.00582898
0.000251411
0.000488309
5.06218
0.143102
3.09724
0.00213601
2.65544
0.000354794
0.000420097
2.3783
0.000375034
0.00030899
0.000244603
0.0408332
8.9013e-05
0.0527128
0.00954208
0.0224733
0.0465179
9.11233e-05
0.000569933
0.000154518
0.0230609
0.000327559
0.000235792
0.000278564
0.0104598
0.000489411
0.000158103
0.000311962
0.0115449
0.000194705
1.51281
0.000374466
0.000190829
3.19701
0.0588945
0.0559196
4.6106e-05
0.0194974
0.000603045
0.000375541
0.000365249
0.0700337
0.000260941
0.000131984
3.28528
0.0364991
0.000181878
0.0114307
1.71854
0.000439355
0.000193368
4.85761e-05
3.221
0.000660122
3.22101
0.00267805
3.92312
0.0378101
0.0106552
0.0224053
0.000404798
2.18037
0.00052279
0.00933476
0.656854
3.81975
4.69553
0.0462639
0.000339994
0.000144509
4.0463
0.106639
4.2778
4.014
0.00075784
0.000223373
2.69357
3.68349
0.000228934
0.00152211
0.000532353
3.74347
0.000136567
0.00956222
0.000245354
0.0918929
0.000699462
0.000383226
0.000175769
2.27673
0.000394587
0.000463381
0.0451847
4.63015
0.000210877
0.000212877
0.110362
0.0574854
0.000237184
0.00180616
5.98687e-05
0.000290625
0.000251072
2.7549
0.0113763
0.000686091
0.00653269
0.000141374
0.0357625
0.00471155
7.51249e-05
4.29334
0.000665837
0.00023306
0.000200082
8.04397e-06
0.0211691
0.00125027
0.00111952
3.00952
0.000161177
0.0669511
0.000682387
0.00177999
0.000353208
0.000289577
3.94172
1.08322
9.4183e-05
0.000495115
0.0551953
4.10475
0.0966295
0.197144
0.0392898
0.000161006
4.31745
1.68234
2.66853
0.000165141
2.99311
0.000167814
0.000261206
0.000546237
4.80409
0.000344973
1.79848
0.000263163
0.0448515
1.07404
3.19455
0.00980069
0.000327277
0.000582299
0.00013395
0.000260319
8.48259e-05
3.9473
0.000421607
2.85929
0.0441161
0.041632
0.166661
0.000147797
0.0803072
2.4416
4.56044
0.0262948
0.000136618
0.00591362
2.55056
0.0199282
5.4954e-05
0.000142986
2.65267
0.000637181
1.11249
0.000173009
0.000255537
0.000619368
1.31468
0.00102173
1.6347e-07
0.0335392
0.00649637
0.0629069
9.22481e-05
1.83892
0.000362553
2.69554
0.000456866
0.000224722
0.0103751
1.69221
3.94059
0.0004698
0.00101107
0.000154217
0.000255928
0.00282842
0.00806867
0.000554488
4.27926
4.24818e-06
0.00195578
0.000175201
0.000281519
0.000482387
0.000198478
0.00270238
0.00022176
0.0446767
0.000520679
0.000319495
9.30936e-05
0.000336597
0.00395766
0.000188165
0.0465105
4.08454
0.0500538
0.014876
5.64355
0.0110676
2.43605
0.000433077
0.000236456
3.13832
0.000218522
0.000320355
2.48426
0.000169252
1.55563
4.02597
0.000578026
0.00438612
0.0479458
0.000340605
0.0254057
1.76973
0.0192463
3.99948
0.000203732
0.000511038
5.2245
0.000179066
2.48481
0.00937811
0.000231302
2.64187
0.00450224
0.00023136
0.0118866
0.00224756
0.000228955
0.0269424
0.0214053
0.0128513
0.0353904
1.9744e-05
0.00112611
2.55677
0.000528075
0.000680893
0.000471771
1.40812
0.000273314
0.0359221
0.000386349
0.000526557
2.42208
0.000329764
0.000880659
0.0345446
0.000489855
0.000106623
1.76926
0.000244722
0.0448551
0.000401399
0.0190535
0.015374
0.0160458
0.00049658
0.000469217
0.0345404
0.000288455
0.000210751
0.0135797
0.000463488
0.0019829
0.00024127
4.76028
3.6631
1.78629
0.000362915
0.0169127
8.9706e-05
4.66664
0.0842898
5.10282
0.0153463
0.000478651
4.16667
3.80971
0.000145847
0.000493603
0.0112071
0.000294137
3.38259
2.88881
0.000671011
0.0690256
0.000258694
2.24202
1.46495
0.000405133
0.10838
2.59206
0.000266668
3.64681
0.000590816
4.51484
0.000275148
0.00487695
0.000479621
3.17034
0.0356029
0.032786
0.000462924
1.55942
1.74237
4.77375
0.000426613
0.000142769
0.00710467
1.86194
0.0002076
0.0319275
0.000258757
0.0102363
2.54864
5.67671e-05
0.0157013
0.000484606
0.000288283
0.0274297
2.43577
0.00053506
0.0286082
0.000641138
0.000847116
3.3325
4.31702
1.91797
0.00549631
0.0303437
0.0892406
0.00531838
0.00064822
9.43069e-05
0.000179175
2.6307
0.000245571
0.00118128
0.143375
0.000592183
0.00187326
0.000826798
0.00039795
0.0431339
0.000175818
0.000634518
0.0121672
1.83658
0.000581396
0.000273033
3.03247
0.0149639
0.000196654
0.0019805
0.0490115
0.000383436
0.000547315
0.00015003
0.467767
0.000227538
0.000245679
0.0376818
0.00022241
0.000596545
0.00717798
0.00669401
0.00036053
0.0016607
4.87285
0.000451106
0.000180194
0.000235576
0.000133253
0.00250334
0.000755943
3.41326
4.94663
0.0133175
2.46773
0.000424766
0.000186209
0.000213064
0.000270937
0.000573992
0.000586737
0.00872349
0.00240544
0.000550465
0.00141212
0.0376188
0.014571
0.00449868
0.0330042
0.00026061
0.000969816
0.000189332
0.00521181
0.0650704
3.3472
0.0424487
0.0546582
0.000339126
6.63432e-05
0.000424597
0.000506552
0.000127065
4.35278
4.68626e-05
0.0144618
0.000206808
2.07179
1.53427
2.59896
2.92582e-05
0.000210909
0.000181542
3.86574
2.48953
0.0260102
0.00548946
0.000681569
5.4286e-05
0.000592152
3.57743
9.44979e-05
0.000224726
0.032516
0.000344986
0.000283412
0.000104136
0.000426872
0.00640157
0.00228925
0.000201784
0.000137732
0.00562566
0.000133982
1.27298
3.82437
0.000287037
0.0331966
0.000548121
2.58685
0.000183267
0.000150052
0.000163212
0.000252981
0.178694
0.000480339
0.00020878
0.000579796
0.0223625
0.000361522
0.000481969
0.000339186
4.06758
0.0324809
0.00971155
4.88945
0.0356177
1.4453
2.6393
4.73647e-05
0.000263725
0.000191993
6.26884e-07
0.000380866
0.0377157
0.000563094
0.000321077
0.00791035
7.203e-05
0.000126539
0.015971
0.000194748
0.000256487
0.000181678
0.0101545
0.0133556
3.99296
5.56477e-05
2.25836
0.0370708
1.32524
0.0148847
3.9552
3.79229
3.46374
0.000196814
0.000492812
4.30252e-05
0.0169285
0.000302416
0.139677
1.08162
0.00012598
0.0618347
0.0528028
0.000331254
0.000177604
0.000385204
4.74267
4.23608
0.000221759
0.0403964
0.0456949
0.00622649
2.46057
8.96079e-09
0.000158795
0.01625
5.97642e-05
0.946926
0.067381
2.84695
0.0436653
0.000206324
0.0440692
0.000574884
4.44919e-06
0.0245885
0.00162756
0.00425435
0.000222702
0.000252842
0.0943279
0.000502607
0.000261764
0.000238869
0.000390698
0.0601991
0.000776988
3.60294
0.0342421
0.000248993
0.950254
0.000438637
0.0879333
0.000824132
9.85021e-05
0.00026056
0.0157896
0.0119795
7.1168e-05
0.000307902
3.99521
4.10154
0.0397459
0.00049584
0.0244824
0.084886
0.049094
5.55181
0.0308301
0.00427075
0.000184349
3.15264
0.000436637
0.000171306
0.00538577
2.12234
3.9233
0.000328526
0.000428562
1.74279
0.000196764
4.15554
2.07012
0.000277886
0.00032305
3.66235
1.11799
1.04563
0.000141319
0.000209094
0.000262139
0.0220404
0.0342597
0.000203499
0.000173108
0.00104059
0.0376579
0.00182552
0.0226837
1.1007
5.447e-05
0.000264307
5.72598
6.0575e-05
0.0104157
0.000795099
0.0152112
0.000284459
0.000604195
0.102198
0.000358093
0.000134638
0.00010939
0.0126898
0.0111776
4.42564
0.000191808
0.00016571
0.000302287
0.0292644
0.0900984
4.53806
0.000542594
0.0252433
0.0338037
3.68356e-07
0.000233181
0.00171989
2.41913
0.000411978
0.0755657
0.000527889
4.26265e-06
0.0259868
0.000474755
5.51515
3.4147
0.0251427
3.6715
3.96445
4.66373
6.25885e-05
2.3157
0.0274704
0.000226961
0.0329923
0.000326565
0.00180008
0.0558755
0.0004654
0.00370866
0.0168011
4.97963
0.00062661
0.000379804
2.24251
0.00343034
0.000546059
0.0360846
1.22478
0.203287
0.00010673
0.00682002
4.92524
2.79638
0.086924
0.00868754
1.5766
0.00286656
0.000235698
0.0186793
2.02522
0.000402003
0.129346
0.00188103
2.0774
0.000552232
0.0220286
0.981295
6.28251e-05
0.00124526
0.000111497
2.55425
0.155104
2.31697
1.39485
0.000575085
0.0172806
0.015375
0.004344
1.02646
0.00618567
0.00016047
0.000503327
0.0004414
0.000314946
0.0246843
2.66478
0.000280913
2.50283
0.000303472
0.0512626
7.56526e-05
0.000343591
0.000173924
2.8717
2.08119
0.0139436
0.0127359
0.000286017
0.000402762
0.0441076
0.000151642
0.148699
0.0424906
3.21303
0.000841609
0.0296766
0.0460928
0.000520848
0.000598187
0.000713215
3.28138
0.000778398
0.00484005
0.0496895
0.0343068
0.000536168
0.0042672
0.000202652
0.000333117
0.000743933
0.000368975
0.0080674
0.000249459
0.00872249
2.31243
0.0853284
2.82771
0.000306592
0.00760426
0.0172985
0.000390625
1.20284
0.00092882
0.00251187
3.50235
0.000533326
0.0206907
0.00282901
0.000181948
1.60982
9.75852e-05
0.0413358
0.000325208
0.0373042
0.0414304
2.78332
0.000484362
0.0455959
0.000292411
0.0422045
0.000496451
2.85894
0.0227818
0.0131427
2.60092
0.00142313
4.03838
0.000390248
1.44086
0.0010854
0.000173168
0.000699369
0.0232083
0.0340363
0.00067082
0.000105259
0.0620836
0.000194962
0.000122639
0.000540247
0.000331518
0.000411386
4.99218
0.0005865
0.000362264
0.0457629
0.0130568
4.64412
0.000259342
0.000163976
0.000347761
0.0407895
0.000651097
0.00159718
3.75843
0.0587208
0.0381001
0.00023232
0.00464174
0.0242035
2.60569
0.000135438
9.0096e-05
0.00143967
0.000631939
0.000353104
0.130167
4.48074
2.41759
0.0173304
0.000277842
0.0454054
3.21991
0.00996443
0.0474908
0.000531414
1.27664
2.53712
4.32084
0.000429601
0.00043653
0.00691549
2.24344
0.000598264
4.03569
0.00220055
0.0297856
1.68822
0.000228259
0.00101719
0.00226976
7.30925e-05
5.88091e-05
0.00712046
1.14381
5.07141e-05
2.25987
0.000285809
0.000316256
0.000239102
9.50489e-05
0.00660586
0.00119352
0.0856614
0.017332
0.000540004
0.000534509
1.38789
2.51271
0.000165058
0.000514223
0.000346612
0.211071
1.83921
0.00844692
3.78079
0.000248904
6.86298e-05
0.00624913
0.000388905
0.00644857
0.0425615
0.000210448
0.000260466
8.34871e-05
0.00384403
0.0205454
4.26492
0.0454039
7.25337e-05
0.00803306
0.000114019
3.41444
3.71363
0.000168179
6.74553e-05
0.0610204
0.000339872
0.000782011
1.30091
1.1434
0.00602792
8.53636e-05
0.000479691
0.0225864
1.1245
0.00083311
0.000708923
0.995275
2.41413
2.27048e-06
0.000281007
0.000564476
0.000312006
0.0441406
0.00580991
0.000341385
0.0495561
0.000457239
0.000208287
0.000373648
0.00727759
0.000355224
3.79907
1.68208
3.261
0.94445
0.184786
3.8568
0.000287346
3.24136
0.00794647
0.000183649
0.0134106
0.00040765
0.00640592
0.000210661
0.000349958
0.000612414
2.36056
0.000227005
0.0121891
0.0434049
0.00264044
0.0073956
0.0402523
4.29734
0.00021584
4.08341
3.00808
0.00219079
0.000353217
0.00583073
0.0168729
0.00459694
0.0399383
4.67477
0.000224776
0.000575958
0.000350831
0.0255257
3.57398
0.000560745
0.00197671
0.000225252
0.000169978
0.000821202
0.0168637
6.93405e-05
0.00307058
0.00591686
1.6317
0.000111407
0.00714496
2.91606
0.000462964
0.00822093
0.00532676
3.52042
0.0095498
0.0587661
0.00570669
0.000295951
5.54476
2.1634
0.000443054
0.0183583
0.0329276
0.000148099
0.000764168
0.000243354
0.0279545
0.000283065
0.0106955
9.64335e-05
0.0427569
1.55457
0.0545825
1.5207
0.00926107
0.000660687
0.0603555
0.0409643
0.00208318
0.000435942
0.0020084
2.58519
0.000245063
0.00849577
0.000513183
0.000477909
0.0187211
0.000942981
0.000419802
0.000170605
2.4629
0.0599778
9.1802e-05
0.000434761
6.92384e-05
0.000220404
0.000452218
1.4053
0.000374745
0.0711849
2.09644
0.0357622
1.06238e-05
0.050248
1.05471
0.0886726
1.33651
0.00489017
0.0478797
3.12572
3.27849
0.00015191
1.97341
0.000133493
3.13671
0.809966
5.8969e-05
0.0121007
0.0314746
4.57598
0.0177882
0.0104213
0.000224709
0.0374384
1.92039
0.160917
3.22793
0.000527297
0.0874008
7.92383e-05
2.13302
0.00700142
0.000447265
0.000441233
0.0665016
0.000731118
0.00263371
0.0954725
0.000197268
1.48419
0.000435296
0.000204337
0.233895
0.0382258
0.00212967
0.00600721
0.0361716
0.000574858
0.0104942
0.294169
0.00011456
0.0144655
0.000372754
1.38759
0.0337423
0.000197322
4.07585
9.22909e-05
0.00824459
0.264608
0.00019194
0.000374382
0.00780215
0.020263
0.0360752
0.000408235
4.45346
0.000865086
0.00955882
4.28878
0.00902619
0.000479466
0.154214
0.00040643
0.000247159
4.00701e-05
0.0513614
2.01472
0.000467486
2.57943
0.00691728
0.000454308
0.0435586
0.000318198
0.00123262
0.0179775
0.000315893
0.000170804
0.1007
0.000907976
0.000227085
0.000355301
1.49857
2.00084
0.00336136
9.70713e-05
0.000306572
0.0197355
4.3664
0.000370572
0.000670125
0.00893589
2.82229
0.000806787
0.0492175
0.0181496
0.000173581
0.0078804
3.3458
0.000331489
0.0044782
0.000128312
0.447993
0.000375549
0.000266921
0.00274225
0.0196776
2.01228
0.000569672
2.60083
0.00055398
2.85653
0.000189383
0.0253991
0.0106521
0.0862613
1.56776
0.00250768
0.0252325
0.000616418
0.000404402
0.000559732
2.04441
2.31592
0.000110768