/*--------------------------------*- C++ -*----------------------------------*\
  =========                 |
  \\      /  F ield         | OpenFOAM: The Open Source CFD Toolbox
   \\    /   O peration     | Website:  https://openfoam.org
    \\  /    A nd           | Version:  10
     \\/     M anipulation  |
\*---------------------------------------------------------------------------*/
FoamFile
{
    format      ascii;
    class       volScalarField;
    location    "1350";
    object      k;
}
// * * * * * * * * * * * * * * * * * * * * * * * * * * * * * * * * * * * * * //

dimensions      [0 2 -2 0 0 0 0];

internalField   nonuniform List<scalar> 
10435
(
1.47791
1.70871
1.81403
1.99951
2.11789
2.03617
1.81096
1.86699
1.79704
1.92188
1.97727
2.10632
1.90162
0.969839
1.00625
1.8986
0.940691
2.03071
1.68008
1.58785
1.88223
1.95617
1.88266
1.85831
1.87093
0.59948
0.763601
1.82319
0.71543
1.98444
1.91646
2.07516
1.85475
0.724644
1.93875
1.24365
1.96058
0.778193
0.484357
1.76125
2.07197
1.82613
0.741643
1.82944
1.9594
1.81517
2.03529
0.726616
1.72446
1.83565
1.89173
1.9329
0.470434
0.65803
0.512712
0.671542
1.97256
0.79631
0.876667
1.92229
0.502308
1.55314
0.788728
1.9798
1.92088
1.82582
0.829552
0.829929
1.86248
1.87062
0.652689
0.698534
0.576411
1.8365
1.0531
0.73582
1.90386
1.81557
1.82115
1.04411
1.90602
1.31886
0.456903
0.664535
1.9173
1.20757
1.37219
1.81905
1.09377
1.48638
1.91161
1.98628
1.41372
1.16769
1.60313
1.12163
2.04007
1.0153
0.909426
2.06647
1.04943
2.20534
1.2632
1.71618
2.15968
1.92215
1.51107
1.87906
1.92338
1.09556
1.7714
2.24749
1.23257
1.15803
2.05031
1.8836
2.07666
1.31869
1.80653
2.10548
2.08283
0.636592
1.43567
0.819211
2.29721
0.551579
2.08555
0.677907
2.06953
0.780911
0.745762
2.24356
1.90471
1.00194
0.739359
0.421793
1.03234
2.05836
1.69441
1.79523
1.69523
1.93071
0.79203
2.0095
2.00788
0.897541
0.912717
1.98226
0.906933
2.06157
0.681147
1.99228
1.50045
2.02606
1.93227
0.63779
2.30221
1.56704
1.9252
1.99114
2.00531
0.967178
1.98709
2.06208
1.11458
2.0476
1.86741
2.10993
2.03572
2.00928
1.88751
0.519024
0.702389
0.945287
2.06906
1.81116
1.39407
0.850745
1.69477
0.754769
1.85204
2.06036
2.08661
0.526743
1.97461
0.658538
0.663708
1.83381
2.10673
1.96404
2.09756
0.447378
0.751878
1.19232
2.28465
1.8501
0.832942
1.10962
0.791552
1.93357
1.11056
0.753825
1.85194
0.784103
1.82646
2.08406
1.90777
2.09533
0.796261
2.03822
0.615727
1.84676
2.06057
2.08
0.749213
0.933723
1.18753
0.50793
0.606371
0.937699
0.731441
0.892289
0.821806
0.900217
0.629473
1.9275
0.541214
1.03306
1.92647
0.764523
0.859309
1.90348
0.571743
2.01521
0.81
0.914721
1.9725
0.636458
1.97466
1.88732
1.7264
0.582664
0.520176
0.674132
2.04576
1.82063
1.01863
1.83741
0.573947
1.6022
0.602263
1.19104
1.92314
2.05175
1.82457
2.03449
0.530396
1.81506
0.587968
0.735679
1.80702
1.90298
0.588398
1.9794
1.27258
0.88296
1.61483
1.89301
0.489052
2.08386
1.80043
1.83119
1.82882
1.85099
0.64472
2.10982
0.775573
2.16028
1.87182
1.82616
1.89667
0.828934
1.79493
0.988294
1.2829
0.467304
2.05735
0.510908
0.669831
0.740033
0.935147
2.14003
0.793982
1.83022
0.491808
0.643569
0.859179
1.3708
2.16694
1.86668
0.820582
1.99043
1.79436
0.617339
2.14186
0.970781
0.889981
2.0323
1.84475
0.671428
1.60714
0.71714
1.38468
2.03104
1.85684
0.642102
0.536204
1.97476
0.850817
2.11069
2.12106
0.755331
1.38819
0.438375
1.81009
1.85603
0.687684
1.80036
0.855611
0.79614
1.86327
0.761356
0.669513
1.80275
2.04564
0.807212
0.640498
0.599832
0.690079
0.680748
0.717475
0.670957
0.491031
0.703609
0.67835
0.685098
0.820778
0.826196
0.429954
1.78646
0.673754
1.84695
0.74943
1.81473
1.78464
1.66974
1.90465
1.86391
0.669324
0.701432
0.618061
0.564369
0.667489
0.476564
0.734069
0.739114
0.802709
2.08055
0.72151
1.76797
0.537823
0.764569
1.94681
1.59011
0.467396
0.76714
0.783382
0.793836
0.698059
0.63757
0.89957
0.522638
1.83006
0.828546
1.84365
1.75595
1.83756
1.86975
1.72389
1.80743
1.90495
0.812931
0.587968
0.703654
0.653523
1.80138
0.685714
1.95357
0.868431
0.760346
0.779
0.783119
0.552838
1.84291
0.7886
1.84274
2.04141
0.536058
0.672285
0.821748
1.6249
0.831791
0.698429
0.599738
0.669658
0.775509
0.718774
1.81172
0.651435
0.67301
0.719762
0.733773
2.04932
0.463545
0.430527
1.4778
0.694624
0.123348
0.121085
0.117082
0.112098
0.106553
0.10059
0.0943685
0.0880778
0.0819439
0.123047
0.120196
0.115962
0.110928
0.105412
0.0996075
0.0936808
0.0878572
0.0824187
0.122409
0.119171
0.114763
0.109694
0.104255
0.0986332
0.0930073
0.0875978
0.082664
0.121731
0.118232
0.113672
0.108587
0.10324
0.097803
0.092451
0.0873785
0.0827919
0.121267
0.117567
0.112867
0.107773
0.102513
0.0972442
0.0921225
0.0873069
0.0829385
0.121247
0.11737
0.112533
0.107423
0.102228
0.0970953
0.0921554
0.0875334
0.083327
0.121937
0.117866
0.112869
0.107715
0.102554
0.0975168
0.0927118
0.0882385
0.0841762
0.123728
0.119311
0.1141
0.108861
0.103692
0.0987039
0.0939827
0.0896124
0.0856669
0.126984
0.121952
0.116469
0.111101
0.105881
0.100891
0.096198
0.0918687
0.0879657
0.131735
0.125974
0.120233
0.114711
0.109402
0.10436
0.0996371
0.0952796
0.0913216
0.137673
0.131513
0.125648
0.119989
0.114566
0.109428
0.104621
0.100178
0.0961095
0.144458
0.138757
0.132987
0.127236
0.121686
0.116415
0.111479
0.10691
0.102719
0.152686
0.148138
0.142573
0.136746
0.131041
0.125594
0.120486
0.115753
0.111424
0.16426
0.160296
0.15475
0.148756
0.142826
0.13714
0.131799
0.126853
0.12234
0.180001
0.175611
0.169706
0.163373
0.157106
0.151094
0.145443
0.140204
0.135392
0.199715
0.193987
0.187371
0.180527
0.17381
0.167384
0.161351
0.155768
0.150655
0.222036
0.214884
0.20745
0.200006
0.192762
0.185854
0.179379
0.173407
0.16799
0.245619
0.237682
0.22958
0.221553
0.21376
0.206333
0.199373
0.192954
0.187139
0.270305
0.26208
0.253512
0.244971
0.236649
0.2287
0.221238
0.21434
0.208064
0.296274
0.288065
0.279165
0.27017
0.261352
0.252906
0.244954
0.237586
0.230876
0.323872
0.315789
0.306573
0.297138
0.28786
0.278958
0.270553
0.262733
0.255571
0.353615
0.345483
0.335806
0.32589
0.31619
0.306902
0.29812
0.28991
0.282345
0.386313
0.377381
0.366893
0.35641
0.346348
0.336792
0.327763
0.319289
0.311466
0.423034
0.411543
0.399681
0.388575
0.378281
0.368651
0.359574
0.350998
0.343034
0.465008
0.447411
0.433755
0.422176
0.411921
0.402516
0.393673
0.38525
0.376575
0.216295
0.216317
0.216943
0.218172
0.220014
0.222464
0.225516
0.229146
0.233334
0.238037
0.243214
0.248812
0.25476
0.260991
0.267411
0.27393
0.28045
0.286862
0.293058
0.298928
0.304347
0.309184
0.313268
0.316338
0.318237
0.318988
0.318666
0.317214
0.314399
0.310402
0.305363
0.299315
0.292295
0.284429
0.275838
0.266648
0.256988
0.246991
0.236791
0.226523
0.216318
0.206304
0.196598
0.187304
0.178521
0.170329
0.16279
0.155956
0.149849
0.144477
0.139829
0.135876
0.132584
0.129904
0.127794
0.126207
0.125103
0.124447
0.124208
0.216125
0.21648
0.217392
0.218871
0.220916
0.223518
0.226662
0.23033
0.234501
0.239142
0.244211
0.249657
0.255419
0.261427
0.267601
0.273852
0.280087
0.286204
0.292098
0.297661
0.302783
0.307347
0.311227
0.314275
0.316325
0.317234
0.316915
0.31534
0.312556
0.308666
0.303752
0.297864
0.291058
0.283412
0.275024
0.266004
0.256473
0.246562
0.236404
0.226132
0.215882
0.205783
0.19596
0.18653
0.177598
0.169254
0.16157
0.154599
0.148369
0.142887
0.138138
0.134091
0.130704
0.127928
0.125713
0.124009
0.122773
0.121969
0.12156
0.212947
0.213364
0.21431
0.215794
0.217818
0.220381
0.22347
0.22707
0.231154
0.23569
0.240638
0.245948
0.251562
0.257411
0.263421
0.269506
0.275578
0.281537
0.287284
0.29271
0.297703
0.302144
0.305902
0.308837
0.310811
0.311709
0.311454
0.310013
0.307399
0.303674
0.298908
0.293169
0.286523
0.27905
0.270841
0.262
0.25264
0.242884
0.232859
0.222696
0.212527
0.202482
0.192689
0.183267
0.174325
0.165958
0.158244
0.151236
0.144966
0.139441
0.134647
0.130556
0.127123
0.124299
0.122034
0.12028
0.118992
0.118138
0.117677
0.206384
0.206811
0.207753
0.209217
0.211203
0.213707
0.216718
0.220218
0.224184
0.228585
0.233382
0.238528
0.243967
0.249635
0.255462
0.261366
0.267261
0.27305
0.278634
0.283905
0.288752
0.293055
0.296689
0.299529
0.301452
0.302353
0.302158
0.300834
0.298383
0.294846
0.290281
0.284752
0.278331
0.271098
0.263142
0.25456
0.245461
0.23596
0.226179
0.216244
0.206285
0.19643
0.186806
0.177533
0.168723
0.160471
0.152857
0.145936
0.139741
0.134281
0.129542
0.125498
0.122102
0.119306
0.117059
0.115316
0.114033
0.113177
0.11271
0.197509
0.197947
0.198881
0.200318
0.202259
0.204699
0.207627
0.211028
0.214877
0.219144
0.223791
0.228774
0.23404
0.239527
0.245166
0.250879
0.256582
0.262182
0.267581
0.272673
0.277348
0.281492
0.284987
0.287718
0.289577
0.290474
0.290341
0.289143
0.286874
0.283557
0.279236
0.273969
0.267825
0.260882
0.253227
0.244954
0.236167
0.226978
0.217505
0.207872
0.198205
0.18863
0.179273
0.170253
0.16168
0.153649
0.146238
0.139502
0.133474
0.128162
0.123554
0.11962
0.116317
0.113597
0.111412
0.109714
0.108463
0.107625
0.107163
0.186367
0.186769
0.187657
0.189035
0.190905
0.193261
0.196093
0.199385
0.203113
0.207246
0.211747
0.216572
0.221669
0.226979
0.232433
0.237957
0.243466
0.248873
0.254079
0.258986
0.263486
0.267471
0.270832
0.273463
0.275267
0.276162
0.276089
0.275012
0.272921
0.269828
0.265769
0.260792
0.254963
0.248357
0.241056
0.233151
0.224742
0.215935
0.206846
0.197597
0.18831
0.179108
0.170113
0.161442
0.153202
0.145486
0.138369
0.131905
0.126127
0.121041
0.116634
0.112878
0.109731
0.107147
0.105077
0.103475
0.102301
0.101522
0.101102
0.173237
0.173579
0.174395
0.17569
0.177468
0.179724
0.182448
0.185624
0.189229
0.19323
0.197591
0.202268
0.207208
0.212352
0.217634
0.22298
0.228311
0.233537
0.238566
0.2433
0.247639
0.251479
0.25472
0.257267
0.259028
0.259931
0.259923
0.258969
0.257056
0.254188
0.250396
0.245721
0.24023
0.233995
0.22709
0.219605
0.211632
0.203271
0.194642
0.185857
0.177034
0.16829
0.159742
0.151504
0.143679
0.136356
0.129609
0.12349
0.118027
0.113229
0.109083
0.105559
0.102618
0.100214
0.0982997
0.09683
0.0957656
0.0950737
0.0947201
0.157984
0.158198
0.158881
0.160045
0.161695
0.163828
0.166434
0.169496
0.17299
0.176881
0.181133
0.185694
0.19051
0.195521
0.200663
0.205871
0.211068
0.216161
0.221063
0.22567
0.229885
0.233609
0.23676
0.239257
0.241001
0.241937
0.24201
0.241197
0.239466
0.236819
0.233289
0.228916
0.223775
0.21794
0.211465
0.204445
0.196966
0.189116
0.181025
0.172788
0.164513
0.15631
0.148289
0.140559
0.133225
0.126367
0.120063
0.114357
0.109276
0.104823
0.100988
0.0977431
0.0950515
0.0928705
0.0911554
0.0898628
0.0889531
0.0883936
0.0881496
0.140351
0.140332
0.140801
0.141782
0.143288
0.14531
0.147827
0.150796
0.154221
0.158105
0.162345
0.166881
0.17164
0.176551
0.181587
0.186679
0.191799
0.196899
0.201801
0.206356
0.210487
0.214119
0.217211
0.219683
0.221456
0.222466
0.222675
0.222046
0.220517
0.218068
0.214777
0.2107
0.205913
0.200506
0.194524
0.187972
0.180975
0.173757
0.166333
0.158729
0.151091
0.143523
0.136114
0.12896
0.122154
0.115813
0.110004
0.104805
0.100209
0.0961666
0.0926654
0.0897062
0.0872743
0.0853327
0.0838346
0.0827471
0.0820334
0.0816566
0.0815824
0.678157
0.633595
0.59352
0.555224
0.517809
0.481098
0.445347
0.410959
0.378339
0.347848
0.320383
0.296825
0.27746
0.26196
0.249213
0.23863
0.230395
0.224553
0.220828
0.21866
0.217559
0.217111
0.216929
0.216625
0.21573
0.645782
0.619232
0.586372
0.550933
0.514515
0.477958
0.441962
0.407179
0.374208
0.343676
0.316253
0.292426
0.272382
0.256012
0.24295
0.232808
0.225281
0.220074
0.216846
0.215185
0.214655
0.214846
0.215392
0.215949
0.216155
0.639817
0.612742
0.580711
0.545786
0.509353
0.472445
0.435968
0.400732
0.367462
0.336815
0.309326
0.285346
0.265039
0.24839
0.235221
0.225245
0.218095
0.213356
0.210607
0.209423
0.209372
0.210047
0.211065
0.212081
0.212777
0.639396
0.609069
0.575502
0.53967
0.502552
0.465066
0.428102
0.392495
0.358992
0.328221
0.300654
0.276594
0.256196
0.23948
0.226327
0.216477
0.20955
0.205092
0.20264
0.201745
0.201964
0.202888
0.204131
0.205343
0.206185
0.640222
0.606751
0.570974
0.533545
0.495243
0.456875
0.419262
0.383196
0.349385
0.318416
0.290723
0.266587
0.246158
0.229458
0.21637
0.206633
0.199855
0.195568
0.193282
0.192528
0.192854
0.193846
0.195128
0.196367
0.197275
0.640624
0.604404
0.566318
0.527066
0.487371
0.447963
0.409584
0.372965
0.338767
0.307535
0.279682
0.255477
0.235055
0.21842
0.205433
0.19581
0.189141
0.184945
0.182717
0.181976
0.182266
0.183179
0.184348
0.185459
0.186237
0.64068
0.601745
0.561265
0.520088
0.478909
0.43837
0.399128
0.361861
0.327193
0.29564
0.2676
0.243335
0.22296
0.206435
0.193585
0.184088
0.177511
0.173357
0.171115
0.170292
0.170432
0.171128
0.17202
0.172815
0.17329
0.640528
0.59851
0.555514
0.512401
0.469737
0.428039
0.387872
0.349869
0.314655
0.282728
0.254479
0.230173
0.209902
0.193549
0.180885
0.171544
0.165058
0.16092
0.158618
0.157649
0.157547
0.157903
0.158346
0.158569
0.158428
0.639651
0.594271
0.548782
0.503832
0.459774
0.416938
0.375824
0.336982
0.301126
0.268779
0.240284
0.215964
0.195911
0.179813
0.167406
0.158273
0.151888
0.147753
0.145374
0.14424
0.143842
0.143799
0.143629
0.142877
0.141519
2.02275
1.99132
4.46191
3.6448
0.0942914
0.110824
1.29553
0.0547884
3.75669
0.0801073
2.71539
0.113069
0.653467
0.164471
1.36782
0.132998
2.94708
3.3343
0.076361
0.950513
0.615025
0.127207
3.10096
0.225511
0.0455367
0.0743373
0.0448182
0.427183
2.24559
2.86305
0.0774645
0.0876388
3.72858
0.764499
2.83112
0.0840531
1.20888
1.37388
1.27414
0.12122
3.99695
0.020585
0.10388
0.781003
0.309876
0.169678
3.51682
4.04274
2.62134
3.02004
3.33071
3.65232
0.599146
3.18322
1.25086
3.76034
0.151893
0.592067
0.0623612
3.43678
0.10445
4.79007
0.0931296
0.140194
0.0566415
0.718198
0.0983467
0.406712
0.67588
2.88249
3.65247
0.15253
0.0652526
0.995181
0.0500123
0.604903
1.09593
4.00344
0.0487201
2.86449
0.728982
0.128784
0.066462
2.61871
0.0947576
0.107063
0.0626678
3.99108
3.75966
0.184571
0.231308
0.126271
0.0915854
0.117643
0.0725965
2.74117
0.075156
2.88451
0.0451425
3.41329
0.240109
4.01024
0.263909
0.157485
0.05636
0.325953
3.27256
0.720452
0.0322413
2.87659
0.129509
0.0837143
3.39717
0.153795
0.593936
2.59628
3.60967
0.115174
0.606537
0.0555301
0.0050601
0.0844557
0.22489
0.0465639
3.81002
0.101212
3.6832
0.87459
0.0687691
4.04096
0.0638932
0.999495
2.89958
1.14876
0.496236
0.0621712
0.299092
0.178271
0.104152
0.95283
0.129505
1.21805
3.47834
0.00612823
2.3817
0.148702
3.84119
0.853729
0.131467
2.78002
0.554664
0.150448
3.88072
1.55005
0.0588251
2.58102
0.0502959
0.113229
1.2081
0.0852937
0.103404
3.6303
0.112332
3.00984
0.0994756
2.96644
0.173462
0.043548
0.165872
0.0531669
0.150069
0.147091
0.407386
2.76078
0.0987926
0.365138
0.870069
2.58968
2.90761
0.13122
1.01191
0.0852813
0.599442
1.05014
0.651325
0.0490612
3.1225
0.0296387
3.21316
0.120741
3.83508
3.4485
2.88208
1.19082
1.44648
3.38285
0.0489263
0.124118
2.49313
2.09724
0.857251
0.190999
0.122374
0.123256
0.406602
0.0873574
0.103076
0.262223
2.74185
0.106624
0.0556497
0.111424
0.99026
0.384674
0.646946
4.11953
0.0751289
0.0574812
0.192356
0.233488
0.226577
0.0238908
0.0618321
5.0125
0.485584
3.6946
0.172481
2.97141
0.0303898
0.0695826
2.46321
0.0860962
0.0834137
0.0560251
1.2603
0.083338
1.27932
0.314774
1.07763
1.60898
0.0779954
0.103577
0.0978878
0.578816
0.063183
0.064945
0.0891031
0.377708
0.131287
0.0889628
0.0266143
0.38831
0.0855135
2.61493
0.0682288
0.0433281
3.25261
1.11356
1.22826
0.0763913
0.376106
0.07712
0.101469
0.0549462
1.02012
0.0474141
0.0884649
4.14622
1.29489
0.0435205
0.67578
2.8994
0.0507463
0.054781
0.0779853
4.11522
0.110925
3.57312
0.162616
3.65255
0.775983
0.57834
0.373249
0.168646
2.91784
0.113682
0.343689
1.29147
3.43363
3.89835
1.57949
0.118173
0.0140482
3.53788
1.27663
4.12257
4.01737
0.112699
0.0867374
3.13639
3.54827
0.10372
0.140256
0.127639
3.92369
0.0929692
0.615466
0.0866954
0.949586
0.126967
0.154857
0.118528
3.48379
0.0627492
0.0486951
1.20381
3.78424
0.087116
0.0458855
1.43707
1.21527
0.0914537
0.147422
0.0768984
0.0651611
0.0474574
3.56581
0.738197
0.109202
0.600514
0.098103
1.42925
0.196368
0.0813943
3.93152
0.112131
0.076982
0.0709417
0.00322062
0.378068
0.111879
0.109709
3.2248
0.114684
1.02458
0.0749366
0.126754
0.0670703
0.0595667
3.33328
2.01529
0.0919183
0.0311352
1.24046
3.58632
0.394118
1.66808
0.781431
0.0975109
3.5099
2.78055
2.81679
0.0819183
3.64733
0.0181487
0.0580969
0.154987
3.92699
0.0969285
3.11693
0.139926
1.53391
2.25806
3.62963
0.652722
0.0487697
0.0596035
0.10202
0.0841326
0.0819433
4.01358
0.138788
3.79218
0.828302
0.803536
1.54364
0.100949
0.949707
2.60482
3.84099
0.958125
0.0876736
0.282131
3.4957
0.992891
0.0778599
0.0931776
3.67728
0.112572
2.27869
0.054968
0.105636
0.0939011
2.63556
0.104099
0.000446611
1.3194
0.29623
0.972636
0.077856
3.00063
0.0981599
3.12244
0.101216
0.0835757
0.168918
2.68957
3.33743
0.0989443
0.124767
0.102409
0.085717
0.19398
0.292999
0.160261
3.79687
0.00182824
0.159938
0.0829901
0.0885083
0.118778
0.0437765
0.189223
0.0481165
1.51981
0.149378
0.129281
0.00987369
0.0680208
0.159708
0.0846884
1.6064
3.61281
0.87201
0.694809
5.58403
0.348209
3.49353
0.0564494
0.0489519
3.60565
0.0978028
0.110352
3.0435
0.116894
2.81069
3.35738
0.107954
0.23696
0.928552
0.120409
0.631948
2.94386
0.945225
3.68993
0.0540563
0.060364
5.05041
0.0836571
2.6513
0.358608
0.053952
2.80691
0.16196
0.0467831
0.700656
0.17265
0.0482732
0.879319
0.809792
0.656342
1.26682
0.00539371
0.10986
2.56834
0.0832624
0.127463
0.169198
2.62762
0.135427
1.41059
0.120899
0.0576769
3.41034
0.0935613
0.0765873
1.38496
0.112613
0.0929582
3.08969
0.104457
1.53717
0.100011
0.507432
0.841056
0.821436
0.120481
0.119865
1.32744
0.0870484
0.111427
0.784966
0.0984053
0.163169
0.0462692
3.9067
3.9445
2.74121
0.0500502
0.710853
0.0926905
3.8922
0.953442
5.36
0.760169
0.177021
3.74711
4.09332
0.0873275
0.161871
0.375422
0.141503
4.29219
3.65232
0.0579738
0.976714
0.106072
2.97451
2.57962
0.125845
1.41663
2.87599
0.122274
3.47878
0.0378427
4.78232
0.094193
0.200438
0.112797
3.49517
1.23993
1.26416
0.0680464
2.66616
2.72512
3.88107
0.0581372
0.109199
0.624686
2.88692
0.0849836
1.14143
0.10723
0.664542
2.80728
0.0779996
0.69693
0.0596531
0.0887371
0.415864
3.5782
0.186657
1.28098
0.0666343
0.0930018
3.38782
3.53969
2.93927
0.218794
0.430856
0.982742
0.594856
0.187026
0.094138
0.0565001
3.6525
0.117633
0.111215
1.53295
0.179597
0.145159
0.114264
0.135925
1.46448
0.118365
0.0659456
0.713036
2.77015
0.0853027
0.0850046
3.24193
0.430656
0.0212483
0.158499
0.863566
0.0711946
0.115247
0.0819886
1.02335
0.0964803
0.106059
1.26693
0.0638206
0.161539
0.28976
0.611303
0.0731315
0.124351
5.02855
0.152158
0.0510818
0.0904025
0.106653
0.205264
0.0878628
3.37971
3.83186
0.394838
3.5437
0.0649578
0.0432369
0.050386
0.0373901
0.149403
0.0526534
0.649968
0.181607
0.0643065
0.137645
1.32883
0.671939
0.202497
0.713465
0.1191
0.104249
0.0645117
0.25475
0.956473
3.35579
1.46997
1.25311
0.0357617
0.0800496
0.0271537
0.182587
0.0803751
3.56344
0.0775772
0.655461
0.0876715
3.02644
2.357
2.64868
0.0051855
0.0515842
0.0541212
4.09694
3.4984
0.621204
0.595152
0.0828478
0.0800178
0.0902242
3.48675
0.013034
0.0818881
1.18538
0.0803228
0.144623
0.0828239
0.0491173
0.608997
0.162367
0.069462
0.0878083
0.234013
0.101122
2.42803
3.63096
0.0886623
1.33693
0.101705
2.70471
0.0585215
0.111425
0.089914
0.0679542
1.6015
0.108671
0.112907
0.0623858
0.376171
0.0716516
0.17241
0.149747
3.63882
1.33005
0.525065
3.98892
1.42631
2.67564
2.83428
0.0774196
0.0502
0.0519365
0.000912615
0.116977
0.772561
0.140972
0.0790581
0.634145
0.0869371
0.0802523
0.449801
0.0948227
0.087324
0.0578816
0.524846
0.791809
4.09978
0.0800079
3.00442
1.23641
2.53186
0.667371
4.11423
3.40549
4.33586
0.0534805
0.127678
0.00755817
0.346395
0.104623
1.33239
2.36068
0.104457
1.18911
0.889436
0.0690635
0.0572901
0.0970041
3.71574
4.72985
0.0735959
1.34039
1.50379
0.618812
3.22521
7.09176e-05
0.0874265
0.463455
0.0102077
2.20808
1.00499
2.94544
1.50041
0.0440218
1.50823
0.0462596
0.00267577
0.607683
0.135568
0.200435
0.0845505
0.102652
0.636885
0.127935
0.0534916
0.105176
0.115267
0.498321
0.118803
3.53249
1.39803
0.120294
1.8301
0.146124
0.974475
0.111673
0.0959239
0.139018
0.750902
0.604212
0.0119229
0.143763
3.37602
4.69021
1.09354
0.106208
0.873416
1.13634
1.39531
5.47544
1.15926
0.228949
0.120963
3.12404
0.0410535
0.0531847
0.26484
3.37706
4.20649
0.083734
0.0853263
3.0596
0.0483214
4.57038
3.16904
0.137589
0.0828247
3.85918
2.34634
2.26837
0.0965376
0.081285
0.0340206
0.840394
1.21965
0.097919
0.0491692
0.0835453
1.07914
0.124309
0.471198
2.37844
0.0797475
0.0926648
5.7055
0.0817699
0.689938
0.0747921
0.724787
0.0939606
0.0656819
1.19199
0.147466
0.107076
0.0926954
0.416312
0.697789
3.95381
0.0620244
0.0878037
0.102877
1.30211
0.964453
4.73352
0.0472456
0.773707
1.40155
7.54356e-05
0.0471703
0.108531
2.4797
0.101013
1.05641
0.1437
0.000878347
1.17407
0.123551
5.60723
4.35582
0.823633
3.52705
3.59741
3.696
0.0822729
3.45092
1.23967
0.131724
1.25252
0.081385
0.110417
0.956328
0.107423
0.221305
0.686693
5.14627
0.058514
0.0480378
3.45365
0.200155
0.129163
1.32311
2.4669
1.64421
0.0984004
0.294353
3.99533
2.91636
1.22462
0.659581
2.90311
0.224959
0.0505071
0.796546
2.85908
0.0973629
0.60423
0.169018
3.18745
0.148985
0.993532
2.19238
0.00855972
0.0948106
0.0998397
3.06311
1.49039
3.11356
2.50426
0.1858
0.474818
0.665676
0.239762
2.29774
0.587469
0.0827167
0.119476
0.107892
0.0354842
0.903654
2.75763
0.0344864
3.06732
0.148952
1.29507
0.0881758
0.0782261
0.0526817
3.5919
3.06492
0.408179
0.700064
0.0832178
0.0640985
1.54612
0.0819384
1.56197
1.18917
3.76886
0.0783828
0.399824
1.56461
0.132057
0.174259
0.119964
3.8201
0.116457
0.215124
1.29722
1.34967
0.060966
0.237028
0.0843021
0.144887
0.0698085
0.0696238
0.629509
0.063488
0.325269
2.97688
0.963914
3.5612
0.111937
0.298537
0.825174
0.0481007
2.3482
0.0983369
0.139422
3.54549
0.14166
0.43922
0.220539
0.04331
2.69146
0.0842291
0.428364
0.0472231
1.27683
1.37485
3.62077
0.0606854
1.16459
0.0854447
0.445466
0.134849
3.24688
1.08031
0.328386
2.89083
0.112449
3.40498
0.102787
2.57652
0.131825
0.05195
0.113621
1.03167
1.40392
0.0560987
0.0977363
0.977637
0.0795913
0.103468
0.0626846
0.0434128
0.12949
4.02144
0.161315
0.111976
1.47968
0.412939
3.68231
0.0317596
0.115364
0.0804145
0.267756
0.180168
0.107493
4.10036
0.31099
0.767961
0.0815551
0.24752
0.905263
3.11463
0.095349
0.0925807
0.143218
0.175177
0.0894786
0.612384
3.82225
3.24359
0.705571
0.079599
1.57149
3.82766
0.346027
0.952873
0.135811
2.51554
2.73195
3.52805
0.0993967
0.103652
0.285374
3.10353
0.188938
4.54222
0.174935
0.464619
2.87092
0.0492432
0.130651
0.143581
0.0829404
0.0777972
0.147688
2.39648
0.0783722
3.46976
0.0940638
0.084913
0.0626539
0.0815825
0.61945
0.101549
0.990481
0.899913
0.08633
0.157073
2.52445
2.58135
0.0815486
0.0977782
0.148902
0.74242
2.68571
0.319679
3.588
0.071313
0.0843483
0.617557
0.094855
0.394202
1.5427
0.0854905
0.0592996
0.0131022
0.17149
1.01557
4.84147
1.14338
0.0862736
0.305258
0.0798386
3.91537
3.98774
0.0988209
0.083328
1.20327
0.0969172
0.0710016
2.47782
2.35795
0.181446
0.0859513
0.0662927
0.562533
2.41613
0.0926142
0.0608027
2.24445
3.04311
0.00182564
0.0829089
0.0747849
0.150569
0.468586
0.609145
0.101997
1.36385
0.105004
0.127028
0.0799542
0.624087
0.0782682
3.46574
2.86662
3.75503
2.18919
1.56164
4.43515
0.0881962
3.71466
0.6529
0.0612043
0.311181
0.0452104
0.268412
0.0969726
0.0902071
0.0584652
3.3538
0.0464539
0.389474
1.54083
0.142098
0.302402
0.444647
3.51167
0.0276839
3.62563
2.89619
0.137225
0.070587
0.273643
0.351922
0.245331
1.14999
5.00721
0.130851
0.0630311
0.097366
1.11936
3.93868
0.144284
0.164468
0.0450546
0.0801453
0.118221
0.465486
0.0830448
0.163398
0.290993
2.76026
0.0954206
0.285085
3.24598
0.12282
0.330041
0.25507
4.42101
0.332123
0.473007
0.60633
0.110298
5.61912
2.93382
0.085201
0.851105
1.37602
0.0946149
0.132163
0.13543
1.2616
0.0860005
0.673629
0.0945387
1.53958
2.89036
0.892077
2.67639
0.220618
0.114228
0.99655
1.12312
0.151551
0.160092
0.116932
2.73941
0.136008
0.300322
0.0744376
0.175547
0.786562
0.0929399
0.0631185
0.079934
3.19483
0.95958
0.0797465
0.172637
0.0768433
0.0936955
0.113198
2.59886
0.161612
1.0016
3.34254
0.828804
0.0035551
1.16857
2.24484
0.960332
2.60479
0.258237
1.05516
3.62862
3.33946
0.0235484
2.8551
0.0938431
3.60126
1.48996
0.0817138
0.679465
1.32271
3.90552
0.884996
0.352948
0.102157
1.29155
3.11803
0.562967
3.66215
0.175181
0.958526
0.0886439
3.00674
0.420226
0.0558999
0.115465
0.934529
0.0708408
0.213433
0.939759
0.0888061
2.5626
0.0463151
0.108919
1.73935
1.27099
0.169516
0.611938
1.44228
0.182242
0.70373
0.79161
0.10094
0.443306
0.0610104
2.71086
0.837566
0.0504426
4.13085
0.093842
0.622549
0.734427
0.12254
0.0742894
0.602825
0.924929
1.26357
0.0667235
3.81794
0.0941351
0.686334
3.9549
0.518201
0.167508
1.49269
0.143797
0.0933969
0.00705895
1.28309
3.21267
0.100062
3.65216
0.285248
0.116142
1.15457
0.125695
0.113785
0.723516
0.150754
0.0893012
0.422517
0.0869097
0.116679
0.159366
2.81542
3.03862
0.210885
0.0882273
0.06591
0.752872
3.84946
0.0915879
0.0834046
0.328435
3.74929
0.0932452
1.06536
0.71829
0.053467
0.643604
3.75824
0.0867283
0.243915
0.0884173
1.02301
0.0780846
0.0910502
0.172716
0.513911
3.13603
0.0440326
3.58172
0.0667179
2.80476
0.108365
1.16993
0.566521
0.992362
2.69961
0.149511
0.697331
0.178797
0.151323
0.155814
2.92272
2.99445
0.0993608
0.0994546
0.493837
0.155223
0.117233
0.0494293
4.11448
3.34577
0.925106
3.69803
0.168579
0.0545731
0.802994
0.239822
2.61839
0.0432458
0.132715
0.0536505
0.116045
0.0963087
0.103353
0.10121
0.489799
4.07033
3.04666
0.0855852
0.30804
0.806169
3.58629
0.10397
3.90072
2.40398
3.41764
0.136682
0.936368
0.0658233
0.167862
0.124129
0.129351
0.0765741
2.57108
3.86248
0.142649
0.36351
0.938869
0.316835
2.96108
4.06948
0.102328
0.0621987
0.109453
0.312593
0.872744
0.0513622
2.83962
0.795266
0.103838
0.178644
0.166789
0.581204
0.175738
0.0726658
0.0964463
0.0781833
0.187702
0.697045
0.156417
3.7039
0.140632
0.113777
0.335543
0.164611
0.0836284
3.54764
3.02154
0.118257
3.13608
0.080877
1.17719
0.140754
0.179466
0.0853705
0.0575768
2.98825
0.131371
0.15697
3.69935
2.62067
0.0786349
0.08664
0.0876601
0.163562
1.4726
0.0226271
0.103896
3.78109
0.1023
0.0814128
0.144247
3.33076
0.111521
3.12643
2.61524
0.0719256
4.78624
0.15472
0.0435151
4.10416
0.747857
0.0785086
0.00126282
0.612048
0.169035
0.187537
0.0596165
1.35027
2.92824
0.116832
0.0578018
3.00527
0.105758
1.96391
1.15907
0.115231
0.871658
3.85484
0.0768464
0.81317
0.0982491
0.142381
0.169989
0.0959662
3.38277
2.87425
0.112271
0.0839671
3.45901
0.121002
0.176627
0.170257
0.831301
1.18931
0.0524853
0.0833864
0.0841248
0.0896342
0.0506738
0.00196185
0.148547
0.167722
3.36585
0.620265
0.0921008
1.47689
0.162938
1.02697
3.90448
1.03707
3.22189
0.180573
0.00282162
0.639747
0.172457
0.105324
2.66471
0.133472
5.87165
2.97375
0.613058
0.131292
3.83678
0.0517898
3.28271
0.102156
0.100626
3.72967
0.420102
1.02808
0.117867
0.0917491
0.0576789
0.147474
1.43622
1.092
0.103979
2.18123
0.508293
2.97829
0.0484305
4.06037
0.11697
0.0918492
0.355051
0.0907088
0.619257
3.32478
0.779197
0.0581525
2.6079
1.36171
0.555788
0.952811
0.715749
0.0276196
0.702766
3.31265
0.0825498
0.0948744
0.0939932
3.56914
0.122655
0.0495895
1.32362
0.723681
0.339191
4.06191
0.855756
0.276661
0.327027
1.29557
0.168772
0.752137
0.0796143
0.0989158
0.0926142
3.53465
0.124727
1.04627
3.07393
0.0453094
1.0075
3.18308
0.101433
2.7069
0.0861007
0.729945
0.169967
0.0478089
0.144854
0.0841745
0.0576853
0.151609
0.117037
0.121247
0.143455
2.7634
0.75135
0.115983
0.721598
0.0797139
0.105251
0.0833898
0.107693
0.139942
1.55532
0.0439517
1.58976
3.04502
1.52436
1.10421
0.37793
0.152481
3.45359
0.0937879
0.621753
0.117591
0.0973827
0.219548
2.9444
0.137396
0.0883812
0.0798723
0.275099
0.203127
1.50589
0.711551
1.29648
2.53504
0.0988245
0.0721258
3.62633
0.0931196
0.122977
0.0556194
0.211189
0.0634366
0.0773158
0.140549
0.0471061
1.15307
3.1629
1.44061
0.184715
0.0839322
0.969991
3.39316
2.87635
0.0543578
0.110439
0.791678
0.0831101
0.050034
0.169158
3.09511
0.855609
0.0798882
0.0906499
0.137349
0.0527474
3.04138
0.0805344
0.114947
0.120522
0.114541
2.95443
0.0915823
1.55544
0.152391
0.142454
0.0580278
0.068127
3.2167
0.49191
0.0785675
3.78896
0.839087
0.706426
0.0591248
0.0967
1.26361
4.02474
4.04344
0.0866892
0.943787
0.0911152
0.0802234
3.36956
2.87736
0.0466396
0.00308744
1.10237
1.48346
0.0832649
0.0474608
3.04971
0.0912012
0.3049
0.201664
0.120612
3.86495
0.0889457
0.0962522
0.123166
2.25179
0.083124
0.0552988
0.0868943
0.123139
0.302628
0.15085
0.604982
0.851498
0.80356
0.120172
0.109498
0.0808852
0.0670589
0.116492
0.100922
0.724568
0.105691
0.133281
0.515713
2.74563
0.0734449
0.0481245
0.120497
3.62879
0.108209
0.97092
0.0397297
0.0851842
0.011614
0.118968
0.0937498
3.79589
0.125587
0.0637881
0.521104
0.0838673
1.37556
0.11004
0.0862258
3.29761
3.30829
0.0487069
3.02186
0.0879903
1.08659
4.28943e-05
2.8368
0.0716319
1.43755
0.0957392
3.28277
0.611409
1.13941
3.12073
4.02362
0.142169
3.68267
0.0639588
0.0532193
0.0915581
3.26645
0.211037
0.0548088
0.822164
2.57288
2.46053
0.179167
3.93673
0.0577796
0.166561
0.0851338
0.586226
0.169402
1.64617
0.101082
0.132247
0.0856696
0.0494636
0.168969
2.76525
0.0834956
0.0849485
4.01564
0.698313
0.0474994
0.220618
3.32315
0.116435
0.101937
3.54818
0.182323
3.67119
1.28936
0.0916883
0.481884
0.921469
0.031623
0.162018
0.0789064
0.0497116
0.176365
0.173345
3.14023
0.0552133
0.932115
0.330284
0.116159
3.18667
1.16417
0.173937
0.0907541
0.0436793
0.0669277
0.0485667
0.971993
2.12437
0.0841382
0.10178
0.119023
1.14982
0.153991
0.925424
0.134624
0.100339
0.130294
0.148024
1.39146
0.151796
0.679871
1.17713
0.000304255
1.35895
0.113447
0.93607
0.612747
0.102118
0.0968751
0.172434
0.0714649
0.150282
1.21353
3.55183
3.37999
2.94148
0.854334
0.00810304
0.0479531
1.29164
0.0592492
1.4434
4.00311
0.0899038
2.69049
0.946387
2.5513
0.127137
0.0585386
0.102474
0.0827087
2.68136
0.0821677
3.1695
0.31727
0.198593
0.0518837
3.24497
1.20259
0.117326
0.0697838
0.581545
0.148728
0.100135
0.826808
0.923738
0.0723841
0.0708124
2.93969
0.0874899
1.14821
0.126763
0.10931
0.172845
2.84789
0.00954825
0.0399249
0.0826272
0.0790502