/*--------------------------------*- C++ -*----------------------------------*\
  =========                 |
  \\      /  F ield         | OpenFOAM: The Open Source CFD Toolbox
   \\    /   O peration     | Website:  https://openfoam.org
    \\  /    A nd           | Version:  10
     \\/     M anipulation  |
\*---------------------------------------------------------------------------*/
FoamFile
{
    format      ascii;
    class       volScalarField;
    location    "1350";
    object      nut;
}
// * * * * * * * * * * * * * * * * * * * * * * * * * * * * * * * * * * * * * //

dimensions      [0 2 -1 0 0 0 0];

internalField   nonuniform List<scalar> 
10435
(
0.713017
0.357527
0.536427
0.558114
0.420772
0.432775
0.576127
0.770087
0.938969
0.458487
0.380386
0.614997
0.472799
1.24238
1.15986
0.656857
1.31409
0.463464
1.03487
0.683948
0.709736
0.667351
0.6014
1.00013
0.470777
1.60457
1.60165
0.499296
1.47274
0.455276
0.524163
0.391739
0.817601
1.4769
0.80011
0.38629
0.729304
1.65708
1.49696
1.03504
0.45135
0.572351
1.28059
0.558496
0.645388
1.02987
0.443618
1.40335
0.953758
0.797895
0.754942
0.447424
1.45811
1.47309
1.52549
1.41291
0.793544
1.61771
1.43291
0.883071
1.49126
0.352653
1.56721
0.448091
0.618782
0.5124
1.45557
1.52039
0.723975
0.998475
1.47493
1.66709
1.16814
0.531379
1.06426
1.11284
0.966102
0.607565
0.857051
1.13178
0.873304
0.852701
1.41986
1.4731
0.908693
0.539205
0.569734
0.468712
0.797056
0.519382
0.466891
0.46509
0.811442
0.718895
0.489897
0.446962
0.491081
0.998121
1.39417
0.457936
0.898658
0.419986
0.638017
0.47546
0.422299
0.554177
0.786738
0.83687
0.936186
1.05315
0.779701
0.418736
0.909363
0.977613
0.439122
0.658629
0.478133
0.472083
0.402941
0.541265
0.502261
1.0301
0.426846
0.602702
0.406716
1.54315
0.519592
0.914244
0.435922
1.76385
0.761498
0.395854
0.713702
1.2112
1.68136
1.30013
0.370081
0.581578
0.402659
0.660112
0.667614
0.569731
1.46988
0.505149
0.692431
1.00163
0.457009
0.432543
1.26667
0.57603
1.44118
0.679358
0.615646
0.555246
0.444114
1.50954
0.410944
0.408008
0.447419
0.363164
0.596361
1.28391
0.414049
0.748678
0.972863
0.460479
0.842852
0.628681
0.777398
0.467361
0.467866
1.21719
1.46467
0.926556
0.654604
0.344066
0.36019
1.39421
0.772595
1.50694
0.367985
0.429071
0.579673
1.50168
0.59513
1.29446
1.14951
0.636598
0.419172
0.47709
0.545067
1.38663
1.74133
0.327467
0.415225
0.679772
1.20319
0.627056
1.39103
0.686201
0.883544
1.59016
0.484309
1.59758
0.500874
0.4198
0.406384
0.609002
1.5438
0.721773
1.38934
0.570625
0.51008
0.718194
1.54873
1.18159
0.893615
1.39806
1.61488
1.34499
1.49464
1.39897
1.49777
0.812569
1.57868
0.749058
1.54523
0.733219
0.490457
1.00544
1.45719
0.797355
1.57625
0.704555
1.75639
1.3718
0.845187
1.62241
0.848665
0.494322
0.5674
1.53678
1.36358
1.44106
0.411884
0.885852
0.540382
0.706366
1.20987
0.325403
1.311
0.807886
0.46889
0.741953
0.664904
0.437255
1.13489
0.635447
1.43324
1.51947
0.607861
0.468537
1.57295
0.874306
0.820219
1.44373
0.5847
0.55472
1.42812
0.425636
0.580784
0.767207
0.702159
0.484401
1.66389
0.559604
1.71159
0.412408
0.658828
0.804124
0.469096
1.30094
0.55561
0.840453
0.731213
1.35684
0.425758
1.50989
1.4719
1.49258
0.67121
0.381521
1.52285
0.73552
1.51116
1.45959
1.0968
0.758823
0.407927
0.502944
1.4688
0.835408
0.534759
1.29273
0.400806
1.09113
1.33404
0.728537
0.507231
1.46784
0.773757
1.60272
0.316327
0.425432
0.897192
1.4256
1.47973
0.525707
1.49892
0.633553
0.424284
1.52417
0.665143
1.35569
0.842309
0.482668
1.7278
0.517533
1.47888
1.67771
0.924361
1.48276
1.46128
0.548002
0.630002
1.57565
1.39111
1.27287
1.45295
1.41431
1.75569
1.59451
1.45787
1.47079
1.41747
1.51826
1.54562
1.7814
1.32676
0.884154
1.45538
0.484379
1.57068
0.502613
0.878758
0.967776
0.474629
0.550706
1.46224
1.4801
1.32005
1.56888
1.3875
1.39062
1.5064
1.76062
1.55146
0.676954
1.72309
0.914076
1.54613
1.77529
0.468658
0.99692
1.32718
1.62496
1.59987
1.6888
1.48249
1.64856
1.93028
1.52493
0.826413
1.52158
0.743614
0.908307
0.489977
0.480586
0.93652
0.514393
0.846331
0.883798
1.30402
1.47486
1.44595
0.52911
1.47587
0.467478
1.8841
1.51712
1.77093
1.5036
1.45439
0.607352
1.65264
0.785043
0.747551
1.32255
1.69284
1.80421
1.0031
1.85706
1.71518
1.5167
1.39694
1.4916
1.47352
0.518222
1.46495
1.66764
1.47248
1.45439
0.462378
1.26191
1.28499
1.02335
1.47139
9.54362
9.5604
9.52427
9.47747
9.45154
9.47952
9.60853
9.91056
10.5003
8.67212
8.69904
8.70207
8.70161
8.722
8.79231
8.95229
9.25731
9.77775
7.75012
7.78274
7.80927
7.83921
7.8905
7.98741
8.16299
8.4608
8.93179
6.79968
6.83431
6.87318
6.92041
6.98905
7.09883
7.27713
7.55939
7.98653
5.85213
5.88589
5.92892
5.98295
6.05751
6.16842
6.33807
6.59589
6.97837
4.94374
4.9746
5.01594
5.06881
5.14031
5.24298
5.39458
5.61846
5.94461
4.11012
4.13694
4.17259
4.21867
4.28082
4.36893
4.49653
4.6807
4.94243
3.38172
3.40297
3.43005
3.4659
3.51524
3.58574
3.68738
3.83222
4.03342
2.77759
2.79038
2.80698
2.83115
2.86675
2.91952
2.99672
3.107
3.25971
2.29951
2.30177
2.3077
2.32079
2.34384
2.38089
2.43706
2.51868
2.63331
1.93335
1.92656
1.92408
1.92851
1.94166
1.96617
2.00557
2.06428
2.14774
1.65768
1.64722
1.64053
1.6397
1.64611
1.66159
1.6886
1.73019
1.79014
1.45422
1.44625
1.43939
1.43636
1.43879
1.44826
1.46667
1.49623
1.5395
1.31344
1.30966
1.30437
1.30077
1.3009
1.30642
1.31897
1.34029
1.37224
1.22717
1.22548
1.22116
1.21713
1.21559
1.21824
1.22658
1.24208
1.26628
1.18447
1.18198
1.17714
1.17211
1.16889
1.16909
1.17408
1.18513
1.2034
1.17267
1.16802
1.16159
1.15495
1.1498
1.14762
1.14969
1.15712
1.17083
1.18077
1.17429
1.16595
1.15734
1.15004
1.14542
1.14471
1.14897
1.15908
1.20195
1.19418
1.18396
1.17321
1.16355
1.15636
1.15285
1.15403
1.16079
1.23232
1.2235
1.21135
1.19828
1.18606
1.17612
1.16966
1.16769
1.17107
1.26969
1.25967
1.2453
1.2296
1.21455
1.20161
1.19198
1.18671
1.18673
1.31319
1.30121
1.28389
1.26505
1.2468
1.23057
1.21749
1.2086
1.20489
1.36306
1.34718
1.32564
1.30297
1.28112
1.26132
1.2445
1.23159
1.22366
1.42083
1.39667
1.36904
1.34186
1.3161
1.29255
1.27175
1.25438
1.24155
1.49019
1.44757
1.41209
1.38024
1.35055
1.32336
1.29856
1.2763
1.25704
3.73907
3.8197
3.90753
4.00217
4.10345
4.21091
4.32421
4.4427
4.56597
4.69329
4.8241
4.95782
5.09366
5.23105
5.36908
5.50698
5.64391
5.7789
5.91101
6.03933
6.16272
6.28014
6.39044
6.4923
6.58487
6.66778
6.74086
6.80379
6.85602
6.89838
6.93162
6.9564
6.97367
6.98492
6.99193
6.9969
7.00238
7.01123
7.02679
7.05279
7.09327
7.1527
7.23546
7.3459
7.48794
7.6645
7.87682
8.12414
8.40216
8.70336
9.01617
9.32552
9.61439
9.86429
10.0585
10.1828
10.2283
10.1906
10.0743
3.69988
3.78128
3.8693
3.96383
4.06467
4.17149
4.28395
4.4016
4.52395
4.65047
4.78058
4.91363
5.04897
5.18587
5.32354
5.46119
5.59792
5.73282
5.86494
5.9933
6.11687
6.23463
6.34555
6.4486
6.54277
6.62725
6.70151
6.76538
6.81903
6.86298
6.89782
6.9242
6.94308
6.95575
6.96388
6.96949
6.97502
6.9833
6.99757
7.02149
7.0591
7.11476
7.193
7.2983
7.43476
7.60555
7.81233
8.05439
8.32799
8.62571
8.9363
9.24497
9.53445
9.78649
9.98386
10.1123
10.1619
10.1284
10.0149
3.63181
3.71001
3.79487
3.88635
3.98428
4.08839
4.19837
4.3138
4.43421
4.55906
4.68778
4.81973
4.95423
5.09055
5.22791
5.36548
5.50238
5.63766
5.77038
5.89951
6.02404
6.14291
6.25508
6.3595
6.45524
6.54153
6.61786
6.68399
6.73996
6.78612
6.82298
6.85124
6.87182
6.88594
6.89515
6.90135
6.90686
6.91439
6.92705
6.94843
6.98251
7.03361
7.10631
7.20522
7.33459
7.49788
7.6971
7.93199
8.1993
8.49219
8.79993
9.10822
9.40008
9.65736
9.86269
10.0014
10.0631
10.0427
9.94273
3.52706
3.60156
3.68279
3.77073
3.86526
3.96618
4.07321
4.18596
4.304
4.42683
4.55386
4.68448
4.81801
4.95369
5.09076
5.22834
5.36556
5.50144
5.63501
5.76523
5.89105
6.01141
6.12526
6.23157
6.32942
6.41808
6.49697
6.56583
6.6246
6.67352
6.71303
6.74376
6.7666
6.7827
6.79352
6.80086
6.8069
6.81425
6.82593
6.84544
6.87669
6.92402
6.99204
7.08545
7.20869
7.36549
7.55819
7.78697
8.04913
8.33835
8.64445
8.95357
9.24897
9.51259
9.7269
9.87678
9.95134
9.94469
9.85881
3.39193
3.46225
3.53941
3.62345
3.7143
3.81178
3.91567
4.02564
4.14127
4.26207
4.38748
4.51689
4.6496
4.78488
4.9219
5.0598
5.19766
5.3345
5.46931
5.60103
5.72859
5.85092
5.96696
6.07569
6.17623
6.26783
6.34993
6.42218
6.48447
6.53694
6.57992
6.614
6.63999
6.65898
6.67235
6.68182
6.68948
6.69784
6.70986
6.72899
6.75913
6.8046
6.87007
6.96034
7.08004
7.2331
7.42216
7.64781
7.90774
8.1961
8.50313
8.81529
9.11609
9.3875
9.61178
9.77346
9.86114
9.86831
9.79636
3.2294
3.29503
3.36773
3.44756
3.53451
3.62846
3.72921
3.83647
3.94984
4.06885
4.19294
4.3215
4.45382
4.58915
4.72663
4.86539
5.00448
5.14288
5.27955
5.41342
5.5434
5.66839
5.78735
5.89927
6.00326
6.09858
6.18465
6.2611
6.32776
6.38468
6.43214
6.47067
6.50102
6.52423
6.54161
6.5548
6.56582
6.57712
6.59162
6.61272
6.64432
6.69076
6.75679
6.84733
6.96717
7.12047
7.31016
7.53714
7.79943
8.09151
8.40389
8.72317
9.03291
9.31494
9.55124
9.72597
9.82728
9.84823
9.78974
3.04319
3.10361
3.17142
3.24677
3.32968
3.42009
3.51784
3.62266
3.73416
3.85189
3.97528
4.10367
4.23636
4.37254
4.51135
4.65186
4.7931
4.93401
5.07352
5.21052
5.34391
5.47258
5.59549
5.71163
5.82013
5.92025
6.01141
6.09321
6.16545
6.22812
6.28149
6.32604
6.36251
6.3919
6.41546
6.4348
6.45187
6.46907
6.48931
6.51595
6.5529
6.60456
6.67578
6.77166
6.89719
7.05679
7.25363
7.48887
7.76075
8.06391
8.38884
8.72204
9.04673
9.34427
9.59618
9.78613
9.90188
9.93622
9.88985
2.83562
2.89004
2.95239
3.0229
3.10168
3.18869
3.28382
3.38679
3.49724
3.61467
3.73848
3.86794
4.00226
4.14058
4.28202
4.42564
4.57044
4.71532
4.85914
5.00071
5.13893
5.2727
5.40099
5.52287
5.63739
5.74388
5.84175
5.93061
6.01021
6.08057
6.14199
6.19494
6.24019
6.27872
6.31174
6.34094
6.36824
6.39588
6.42686
6.46449
6.51277
6.5762
6.6598
6.76901
6.90917
7.08492
7.2997
7.55467
7.84811
8.17464
8.52456
8.88371
9.23428
9.55649
9.83064
10.0395
10.1704
10.2162
10.178
2.60975
2.65676
2.71268
2.77794
2.8527
2.93695
3.03042
3.13262
3.24345
3.36266
3.48907
3.62174
3.75968
3.90196
4.04786
4.19638
4.34675
4.49786
4.64806
4.79615
4.94112
5.0819
5.21764
5.34741
5.47013
5.58531
5.6923
5.7908
5.88055
5.96172
6.0348
6.10022
6.15857
6.21095
6.25858
6.30384
6.34861
6.39403
6.44367
6.5011
6.57062
6.65688
6.76493
6.90136
7.07237
7.2825
7.53536
7.83033
8.16536
8.53645
8.9348
9.3447
9.74484
10.1121
10.4238
10.6591
10.8035
10.8507
10.8047
1.57192
1.51039
1.46193
1.41871
1.37812
1.33977
1.30445
1.27366
1.24946
1.23457
1.23238
1.24629
1.27899
1.33225
1.40739
1.5065
1.63157
1.78322
1.96044
2.16138
2.38449
2.62908
2.89562
3.18626
3.50565
1.49504
1.47666
1.44527
1.40913
1.37147
1.33418
1.29903
1.26799
1.24341
1.22808
1.22516
1.23783
1.26898
1.321
1.39597
1.49566
1.62126
1.77286
1.9495
2.14961
2.37175
2.61521
2.88065
3.17056
3.49009
1.47234
1.45617
1.42939
1.39645
1.36041
1.32364
1.28832
1.25674
1.2314
1.21513
1.21097
1.2221
1.25156
1.30215
1.37619
1.47533
1.60028
1.75067
1.92529
2.12254
2.34085
2.57948
2.83893
3.12133
3.4308
1.46267
1.4431
1.4159
1.38321
1.34724
1.31017
1.27419
1.24168
1.21519
1.19755
1.19178
1.20107
1.22859
1.27729
1.34958
1.44695
1.56976
1.71725
1.88785
2.07979
2.29129
2.52155
2.77094
3.04132
3.3363
1.45615
1.43315
1.40409
1.37025
1.33332
1.29521
1.25802
1.22411
1.19604
1.17662
1.16887
1.17599
1.20122
1.24754
1.31729
1.41179
1.53108
1.674
1.83864
2.02296
2.22503
2.44396
2.68009
2.93522
3.21286
1.44999
1.42416
1.39306
1.35759
1.31916
1.2795
1.24064
1.2049
1.17484
1.15326
1.1432
1.14786
1.17048
1.21396
1.28053
1.37124
1.4858
1.6227
1.77966
1.95432
2.14466
2.3497
2.56974
2.80658
3.06381
1.44324
1.41535
1.38253
1.34541
1.30522
1.26366
1.22275
1.18479
1.15238
1.12833
1.11569
1.11767
1.13742
1.17775
1.24064
1.32687
1.43579
1.5655
1.71339
1.87677
2.05347
2.24234
2.44359
2.65914
2.89282
1.43492
1.40653
1.37272
1.3341
1.29205
1.24832
1.20501
1.16453
1.1295
1.10275
1.08736
1.08654
1.10333
1.14033
1.19927
1.28058
1.38324
1.50498
1.64283
1.79378
1.95543
2.1263
2.30633
2.49731
2.70318
1.42575
1.39859
1.36449
1.32445
1.28032
1.23414
1.18817
1.14495
1.10718
1.07766
1.05954
1.056
1.06991
1.10363
1.15862
1.23488
1.33105
1.44446
1.57182
1.70983
1.85582
2.00787
2.16501
2.32822
2.50026
0.461444
0.463463
0.40981
0.429786
1.08125
0.981875
4.2155
1.56287
0.38467
8.32691
0.247684
0.969497
3.88001
0.807507
5.24587
3.16652
0.296059
0.407888
11.4846
0.985826
3.78653
5.09194
0.27957
1.08559
0.856304
1.96
0.91702
1.09775
0.418436
0.281163
8.83994
2.34707
0.461039
3.66326
0.275836
1.69889
3.67849
5.24738
3.48746
1.63559
0.365153
0.172444
3.86567
1.39553
1.18982
6.34287
0.26717
0.288529
0.396561
0.485151
0.260913
0.343645
5.63081
0.393521
4.1786
0.390994
0.803193
5.10577
0.611908
0.298518
1.76896
0.423598
1.02695
4.2207
1.65838
1.3974
2.03774
0.493271
3.28006
0.455884
0.38934
5.51852
1.03423
1.17724
0.853523
3.98682
1.75819
0.309021
0.9146
0.369215
4.0539
1.95355
2.08805
0.233587
1.34224
1.6589
1.28812
0.313894
0.459091
1.19873
1.16853
1.36164
8.24108
0.984108
0.982898
0.250296
1.90425
0.247947
0.428753
0.300009
0.904658
0.373096
0.934483
5.90413
0.634518
1.12127
0.289147
4.32069
0.263265
0.283521
4.62011
0.706621
0.30814
5.96074
5.58489
0.399861
0.413951
1.73958
5.82255
0.447359
0.101265
0.717956
1.06101
0.820624
0.453186
3.64822
0.34823
1.32172
0.878622
0.28944
1.94702
1.23585
0.449065
3.2982
1.21509
1.21939
1.17746
0.818674
2.07161
0.889313
6.39707
3.33879
0.298298
0.101301
0.412799
3.44518
0.450101
2.41753
3.09007
0.274971
2.79012
1.28353
0.449038
4.80772
0.733208
0.233184
0.812074
1.79736
2.29861
3.1014
4.06413
0.383451
3.54121
0.252474
6.03123
0.243222
0.883492
0.904382
3.99397
0.759828
0.758099
4.48703
0.507428
0.237608
1.86054
1.13317
4.09278
0.438921
0.355609
6.29274
4.3926
2.23824
5.82739
4.59143
1.41432
0.929695
0.246811
0.266971
0.486095
2.72841
0.29177
0.300055
0.436066
3.21658
5.09604
0.484042
0.843415
4.99336
0.408116
0.433982
1.57693
4.95395
1.8978
2.7005
2.15721
5.02808
1.85178
0.916825
0.406329
1.9985
0.650454
0.91547
4.20632
2.0772
2.89377
0.350249
0.77335
1.55849
5.88113
1.19116
0.792648
0.204324
0.704653
0.446697
0.148295
0.396645
1.25348
0.299248
0.234272
1.03728
0.229603
1.77885
2.02663
1.1549
3.50088
7.02224
2.7944
0.934536
4.65066
5.00872
6.0083
1.69411
5.58112
1.30751
1.09686
1.60993
2.56509
1.22753
3.16967
4.50526
0.204348
1.17546
3.38014
0.406797
1.11884
0.885397
0.297825
1.89492
2.42808
11.3913
0.652961
0.88762
2.46747
0.743923
1.33734
0.775383
5.33659
0.47095
4.13453
0.937236
3.59568
0.440251
0.527515
1.39675
11.268
0.473192
1.67754
0.356735
0.888687
0.306059
1.43331
2.82518
0.559614
6.32351
0.351426
2.22483
1.13886
0.22853
0.277788
0.291287
4.85324
3.69664
0.12291
0.2784
1.37549
0.357568
0.361867
1.50836
3.03127
0.32868
0.307621
4.22921
1.16316
2.75428
0.370133
5.69604
3.56527
2.75703
0.883138
2.07424
5.63179
7.19346
0.479772
0.898084
0.460549
2.88645
0.278358
3.23899
0.890156
1.68414
2.31223
3.17365
1.08296
8.8895
1.31488
0.807332
0.415387
4.31108
1.5643
4.96818
6.12686
5.14081
0.736583
7.93683
0.324017
1.69952
2.28851
2.2638
0.116052
0.607688
0.901023
0.96759
0.310994
7.34422
1.41117
0.740628
0.812365
1.14623
1.10277
0.253689
0.337444
8.07373
0.176214
2.50903
0.282003
0.144673
1.27027
1.39876
5.31504
0.256806
0.413609
0.267597
3.65721
0.40001
0.176647
1.16296
3.95779
0.288902
2.4511
0.486173
6.69596
4.72133
0.427262
0.371157
3.91239
0.654075
0.549086
6.99317
2.44718
7.12428
0.367288
4.11186
0.452651
1.39966
1.39581
1.28676
6.20556
1.01081
0.250106
0.291154
3.14208
5.06374
1.21141
0.431196
4.45223
9.92819
5.46478
0.458789
1.78995
0.420063
1.57179
3.93021
1.28125
0.475518
0.954548
0.109816
4.67134
1.21571
1.35346
5.91384
0.440661
2.39188
0.325525
2.01813
2.79741
0.247517
0.384729
0.254393
1.87547
1.38569
6.12043
2.58379
1.19733
0.957577
4.16878
0.303197
0.0708122
1.17713
3.538
2.50439
2.63219
0.868985
1.19247
0.939609
4.6531
3.85698
4.70813
0.09425
1.23713
0.580043
3.43046
4.99345
0.2876
1.36725
2.92071
0.497262
0.985982
0.450906
0.662211
0.912076
0.372831
3.93958
3.42113
0.335577
7.26603
0.457047
0.251985
1.81457
1.15216
1.61847
3.831
1.41473
0.440727
4.17797
0.306391
1.29085
0.641718
0.439391
3.51751
0.254605
1.23415
1.1326
0.268404
0.524362
0.851399
3.71703
1.19362
0.916019
2.58285
2.75721
3.01686
4.08117
0.132612
0.96458
0.232197
1.18153
2.14748
5.46139
0.441294
6.03932
4.98519
3.40495
0.568593
0.432164
2.38909
0.599443
4.99733
2.32999
7.29401
0.485604
4.01275
4.74104
2.24264
1.21625
4.141
3.78468
2.63082
2.75583
4.59137
2.36421
5.30214
4.08371
1.88036
1.20842
0.798587
0.288556
0.382276
0.378595
0.621227
2.68899
8.6197
0.292165
0.970634
0.506713
3.38891
5.89214
0.303281
0.395825
4.70595
4.77752
1.13185
6.12667
0.490176
0.415588
0.450793
1.24385
3.91437
0.355169
0.408821
3.51816
1.6665
0.287191
5.0459
0.298664
0.21815
0.455909
2.9021
0.741406
2.38749
0.346795
3.88644
4.38687
0.900209
0.410252
0.383595
0.283979
0.713044
7.51703
4.94335
0.402853
3.13102
3.67262
3.99932
3.88278
0.278295
9.64561
2.78411
0.660877
2.4583
0.567446
0.473083
5.8604
5.16226
0.623284
0.91893
0.309964
0.261209
0.405396
0.783864
0.550603
0.973999
5.98806
4.85652
8.45724
1.60347
0.456406
5.07134
0.942365
1.47513
4.90215
1.01235
1.42121
4.17841
4.475
7.17179
0.616836
3.76074
0.376045
1.12641
2.38184
0.311927
1.11547
0.206628
1.14163
1.36942
1.18972
2.18408
4.03247
0.201493
3.68184
4.12066
3.83368
1.6482
3.93691
1.05273
5.02423
1.33509
0.838011
0.467031
4.61904
1.30327
3.12229
7.68259
1.51478
0.919102
0.301184
0.267149
1.05356
0.457993
0.894038
0.903547
1.07239
0.464397
3.49992
0.425257
4.3585
1.23399
0.676118
1.20751
4.22449
2.78876
0.820339
1.38809
4.89865
1.00854
1.97832
1.12068
1.26533
0.302796
4.58138
2.58561
0.339405
8.69289
0.156288
5.92323
4.57573
0.262551
11.558
2.6737
3.34497
0.39789
0.325884
0.242942
0.0827134
1.13548
1.45211
0.390777
0.44245
1.33526
5.80723
0.906348
10.6152
1.23724
0.305852
0.161799
2.68553
3.88919
1.68314
6.64204
5.92861
0.508643
5.21418
1.03644
2.15204
5.03825
0.87609
6.86882
0.416802
0.310259
2.46481
4.84579
1.69845
0.254514
1.68186
7.44678
4.45806
1.64281
1.29177
2.21268
5.49537
0.604142
0.569498
1.27808
5.55071
5.95007
0.292974
4.9017
2.55494
0.292882
5.14052
0.445799
0.27393
11.3891
0.86
1.26446
0.119572
3.2335
1.42425
3.17635
1.75196
4.57535
9.44363
4.58071
1.14012
4.15522
2.67574
1.65967
2.44146
4.22492
0.378851
10.3529
0.359725
3.71138
0.435341
2.693
0.385169
0.275234
0.488482
1.30791
2.97712
0.119496
0.637923
3.25753
1.14387
0.463702
7.795
2.05806
1.34839
1.29592
1.66322
2.19853
0.262005
0.475307
2.1982
4.00278
4.454
5.535
0.380472
0.0505131
4.33203
1.18961
0.156912
0.463398
1.34904
0.27426
4.64009
0.845334
4.64558
0.335016
0.14483
1.35165
1.0163
0.84988
2.88903
3.75083
0.387012
2.93083
0.983793
4.1679
3.06063
0.371254
1.63487
0.311708
5.13704
5.2305
0.317215
4.38105
0.971921
1.36188
8.40718
6.67539
3.21395
2.74273
0.179772
6.04118
0.256751
0.482704
2.70783
2.04746
2.80434
1.36905
3.56907
0.486011
3.92311
1.10463
7.14342
0.278613
0.347394
1.48609
1.17209
0.48362
0.405912
1.92077
1.52895
0.483423
1.06801
0.452397
0.436621
6.13117
1.91114
0.365993
0.443186
0.442883
5.93518
2.84395
0.39737
2.88395
3.90776
4.24047
1.25693
0.603678
2.78318
0.761838
0.88092
0.46255
10.508
2.92391
0.511659
9.93426
4.11314
0.633188
3.10813
2.79328
0.642622
1.25125
5.4655
7.66401
7.06939
1.22921
3.92049
0.317905
1.8051
4.18715
3.15106
5.21429
0.929153
0.444365
0.370247
2.13427
5.22989
0.00139036
0.858788
0.616381
0.22876
2.22907
1.32919
3.52057
0.016289
4.77392
2.89377
0.513076
0.500068
2.42827
0.304945
0.293792
0.263617
9.73334
0.462841
5.03486
6.88048
4.27953
1.82541
0.609569
1.47311
2.23158
1.18852
2.52598
0.478662
0.491773
0.546827
0.478703
1.05109
2.74965
4.36629
0.447186
1.19687
8.16491
1.14339
0.291689
0.273734
1.55276
4.50694
0.481113
1.58887
0.974073
3.05707
0.363266
2.12227
0.254035
1.36682
0.440159
3.61747
4.03292
0.440833
0.104961
0.649676
8.04613
0.330601
1.28891
0.376561
0.404642
5.40258
1.17419
2.5939
1.191
0.462919
5.0214
3.83738
2.55244
2.37351
0.359812
2.97732
0.256835
0.381037
0.338321
6.57986
2.9446
9.24949
1.60289
1.43616
0.404345
0.406226
1.07539
3.4633
2.17913
0.918099
4.87772
3.98473
1.47667
2.99529
0.397877
0.657013
0.484803
4.77994
3.01339
4.56873
1.81602
0.400253
1.56811
0.860543
3.04795
4.77877
0.623903
1.18495
3.15623
5.67159
0.589556
1.18239
4.42092
1.45421
1.09166
0.344902
0.979999
0.403645
3.67814
1.05483
3.54262
0.533072
0.412577
0.937009
0.696477
0.323025
3.38643
0.839134
1.54731
0.927837
0.404988
6.54309
0.399524
0.617148
3.93324
4.10616
0.423917
0.684292
2.67711
2.24708
0.423167
3.29657
0.33187
4.61053
0.738457
0.289175
0.799663
0.258384
2.43658
0.414655
1.44096
1.40264
1.66132
4.12745
5.21174
0.422223
8.16763
1.38555
2.92431
7.85645
0.654593
0.511649
3.66831
0.291552
3.99325
3.11504
4.30593
1.17538
0.262773
0.350041
7.30474
1.67352
0.158187
4.48698
0.651107
0.402607
0.148232
1.39314
2.57667
1.18791
3.04729
0.335067
6.04133
8.56204
1.28226
4.3704
2.0407
0.259292
0.293448
0.391664
2.58532
2.05239
4.89506
0.409511
1.08146
1.72069
3.1238
0.446105
0.264757
0.259265
2.06977
2.21504
1.05986
0.386401
5.3702
0.46011
1.2516
0.652275
0.439396
0.956111
1.51031
0.817437
8.47036
9.26245
0.275692
0.451895
10.9003
0.479464
2.7862
2.05188
1.4776
6.30216
5.22788
0.777615
1.03074
4.20528
1.24214
4.15421
0.413257
0.238668
3.62609
1.6733
5.75706
0.235025
0.352962
1.08886
0.306453
1.83885
9.33002
5.49258
2.08219
2.16878
5.03258
3.1256
1.21505
0.18506
0.688547
4.51806
0.494636
2.59139
9.23546
1.04399
5.03143
0.404082
0.385387
5.22599
9.2642
2.13546
2.4873
0.580185
0.424748
0.437638
0.491554
7.78887
0.824541
1.26093
0.467222
0.926606
0.469342
0.455534
0.345236
0.132115
2.20154
0.891712
6.53956
0.447695
5.74796
2.74264
3.37817
2.17025
6.97235
1.53979
4.81665
1.55207
0.284549
0.439679
0.389151
0.456701
1.18777
0.45902
2.43634
0.383136
4.82794
1.83577
0.64986
0.451264
1.0122
4.01751
2.0927
0.502333
0.428848
0.855565
1.12003
4.92284
0.688241
1.11285
0.442061
0.258267
0.31957
0.289725
0.250962
0.773581
1.26955
1.15581
0.66061
1.17836
2.98015
0.482696
6.85566
0.620814
2.43197
4.41776
0.390654
3.34126
1.23159
0.811058
3.40099
1.53173
1.15639
8.95118
0.782553
1.288
0.420245
7.35554
1.02374
0.32519
2.93248
1.1925
1.09926
0.499678
1.03955
0.34265
5.79796
3.69962
0.512504
0.358074
1.4746
3.5512
5.17529
5.44015
2.0572
6.7832
5.12426
2.35158
3.81842
8.34131
4.98933
0.483655
1.31218
0.423934
0.473001
1.77743
1.48089
2.77136
0.992279
5.29116
0.612714
0.261255
6.7935
0.955462
0.971752
5.80339
2.97424
0.824412
0.854105
3.37066
0.372986
1.3817
6.23467
6.16967
7.67551
3.58476
2.5502
0.432553
6.27271
1.26835
0.479636
1.72871
0.107069
2.44585
0.430009
0.936042
0.456894
1.22731
2.0928
0.379119
0.30614
0.328532
0.371764
5.93728
0.372115
0.246674
10.1908
3.43372
5.00278
0.299997
3.96271
1.07583
4.17978
4.01005
0.455632
0.177259
0.373931
5.23796
0.946096
8.92493
0.381452
2.26998
0.628781
2.71942
1.18194
0.617763
1.55667
0.832526
3.59809
0.398213
0.44351
5.22517
1.16412
3.80336
1.21437
5.61028
5.17579
5.19968
4.24723
0.191721
8.0045
1.22269
0.898728
0.476645
1.87113
1.16054
0.376794
8.58773
4.23078
0.183458
7.04098
1.32673
4.19189
3.79975
3.98321
0.981498
0.294581
0.921906
4.43516
0.328231
2.67753
5.26693
1.30035
4.57884
3.17637
0.111919
2.88485
0.461063
1.92757
0.465392
1.05865
2.67221
2.7543
4.46868
0.945336
2.62066
6.475
4.20203
0.159551
0.748694
5.39557
6.43335
0.476051
0.415321
1.19074
7.21701
1.2753
2.58485
0.305435
2.03726
0.934257
1.08643
0.448271
0.969922
2.07545
2.55844
1.48221
4.73078
0.379936
2.04219
1.19568
5.48338
0.210249
1.46119
2.79525
0.979041
1.20795
0.43986
0.306313
0.443929
0.723157
0.247854
5.5806
4.85001
2.71167
1.02747
0.418374
0.80227
1.73445
4.66751
5.09613
3.90369
0.376053
0.348462
8.02153
5.76568
0.360485
5.43506
0.964687
0.534539
0.355301
0.308064
1.51294
0.427478
5.66094
1.41827
2.65514
0.997893
0.421716
0.554762
1.91838
0.647433
1.48465
2.02583
1.72259
1.80118
2.29769
0.414033
0.388861
9.43372
1.15765
2.56412
0.383552
2.858
0.393074
0.465672
0.300792
5.91082
1.45612
1.9594
6.07546
6.46575
1.82422
11.3751
0.430629
0.420906
6.5953
1.06251
0.833149
1.01155
0.44576
0.286143
1.77235
0.776559
1.88583
1.03924
3.71585
0.876086
0.413655
1.42276
7.18988
0.763242
4.82778
1.32291
4.90506
1.30336
7.61666
1.32631
1.20782
4.54226
6.42731
0.386363
3.20658
3.87158
0.654856
0.721613
2.73829
0.397258
0.448028
3.19985
0.42254
9.31476
2.6029
5.72678
5.35346
2.09547
1.3903
0.367246
1.44206
4.64825
0.476712
0.43029
5.23298
7.41965
4.34697
5.42089
4.49255
0.289289
3.37008
0.448504
1.88286
9.66138
5.53703
0.461396
2.21353
0.40474
0.446055
0.412748
0.49936
5.23329
0.582057
0.399974
0.238177
10.9608
0.0187588
5.44091
0.824708
5.29516
0.78065
5.15684
0.293615
0.790289
1.21297
0.339148
7.71712
0.334381
1.42886
5.04914
3.29804
0.308199
8.68369
3.50416
7.35484
3.54704
5.76251
2.26633
0.434509
0.359011
5.14492
8.0398
0.385104
4.61264
4.76709
0.967871
1.38926
2.68183
1.37868
1.06972
8.55007
3.07651
1.19282
0.0925147
0.678573
6.15292
0.317699
5.42206
1.37933
1.12749
0.95804
2.63911
0.302176
1.25105
0.316218
0.21972
0.114687
5.03215
5.94433
5.25008
0.398536
3.31938
0.504633
0.414727
5.53564
6.07547
0.267669
1.00995
0.350135
0.840008
1.50465
0.473188
1.16873
2.83444
3.98321
1.81721
0.816228
5.87611
5.03486
1.11522
6.9177
0.462695
1.30753
0.431678
0.957026
0.405519
4.89938
3.07503
1.00198
8.63653
4.6403
0.303936
3.09969
1.04821
0.473096
3.44942
0.161538
0.902532
3.26256
0.378469
2.79662
0.32043
3.57253
0.586945
0.868662
0.436066
1.00817
0.505147
3.26259
3.81181
1.00093
0.373366
4.18702
1.17967
1.01562
4.39947
0.774232
2.77019
0.586138
6.98078
2.45235
0.324805
1.40876
2.34909
0.42371
0.814788
3.25368
0.323245
7.31057
0.243743
3.87762
2.47127
4.64813
0.744133
3.30858
7.35822
0.441695
1.26391
1.62135
0.766134
0.610202
0.451784
3.4499
2.54464
2.19817
1.20759
2.31796
1.91654
5.36001
3.39908
5.10258
0.565891
1.13292
0.455575
5.06102
1.68713
0.155714
5.30882
0.282534
3.90754
0.488903
4.72931
0.894296
1.18938
0.243615
1.43356
3.76646
1.40208
1.00555
0.745612
4.93276
2.72791
1.43696
0.442055
2.63392
2.21971
0.446809
2.1677
1.51453
0.477441
0.84194
1.87456
6.50012
5.86128
0.509173
4.02854
0.447425
1.22094
0.76222
6.07314
3.91475
0.302912
0.376812
1.0013
3.15132
1.39966
3.72734
1.33092
0.719743
0.327021
3.19093
1.93482
3.08745
4.30688
0.667457
0.432457
0.893642
5.2049
2.00569
1.52425
0.382477
7.56887
4.8551
0.224044
0.759323
0.887562
1.62575
0.345288
2.60672
1.55082
0.388262
3.1241
1.50201
1.63617
3.33664
4.16762
0.417715
0.368098
0.734208
1.29931
7.07491
10.6357
0.315358
0.366365
0.77518
0.112952
3.90974
4.46997
5.31523
1.10909
0.35694
2.26685
0.148166
1.20158
1.64711
0.462035
7.64337
5.65219
1.49054
0.461763
3.92026
1.36887
0.960245
7.0736
1.83479
0.963597
4.7209
3.65178
2.91548
6.39343
6.66367
4.08342
0.422879
4.52809
2.16834
3.57049
1.98869
1.05834
0.169291
0.396815
1.62816
0.876199
1.46856
0.294992
1.48424
2.68415
0.243655
9.3478
0.118974
4.70299
7.63173
0.306192
5.33972
0.972298
0.291188
4.44388
3.59408
2.48319
4.06876
0.45586
0.464595
1.26229
0.373127
5.38975
2.98804
0.0598261
0.481515
1.58944
1.29855
3.06511
0.377784
1.30324
4.80322
0.247801
0.28167
1.07865
0.41974
0.561183
0.847624
0.73014
0.360016
0.999479
0.696556
1.84764
0.235164
0.453791
5.75519
0.410161
0.904462
4.51888
1.64143
2.66274
1.06589
5.04722
4.45587
1.34112
7.20752
0.521016
5.18668
0.468967
3.36851
9.11164
0.293122
2.909
1.01563
1.18928
0.311586
6.60767
5.24891
0.376703
5.11504
0.425756
4.47526
3.72493
1.28795
1.19283
0.340168
5.21539
3.16447
1.31579
5.15969
1.22511
0.462463
1.2472
3.95524
1.00063
0.603241
0.351125
1.02066
0.96145
3.15193
0.864664
1.24209
1.16756
1.3061
0.442504
3.59177
3.74416
3.43214
4.53259
0.844968
3.87511
1.51737
0.5761
6.83095
6.53861
1.22366
0.738333
4.69959
3.60146
0.0524374
4.89547
7.38071
2.92564
2.66481
2.34311
3.58556
1.00091
1.21007
4.81423
4.65405
0.366527
0.451306
0.369174
1.69515
0.0847948
1.19339
4.87732
1.4687
4.31222
0.316967
7.71864
0.238429
2.33118
0.230597
1.51779
1.33089
2.8902
5.04042
0.477439
3.62965
0.430483
0.668135
0.512263
0.777828
0.254386
3.98993
2.48407
0.93882
0.158548
4.86781
3.6279
2.9274
2.02226
1.2194
0.659612
0.248575
4.36493
3.18252
6.95661
3.53054
6.02784
0.406209
0.104161
0.3886
3.54181
3.27974
0.94038
1.15711
0.313814
1.11455
0.326633
5.20585
0.607879
1.92021
1.19636
0.908509
5.11541
0.335802
0.638296
3.06571
3.53926
0.346913
2.29037
1.17827
0.870449
3.5775
0.898634
0.920675
5.4351
3.16112
8.01417
1.19803
5.183
0.4432
1.49501
1.65746
1.84348
8.05493
0.271852
0.677065
2.20382
1.56344
4.53996
1.11172
0.367684
5.00339
3.20157
7.42439
2.87725
0.367881
0.318441
0.458137
0.325323
0.468702
0.804219
0.928444
0.654443
2.93434
5.04896
1.63137
3.16265
1.05851
0.259028
5.37566
4.83579
0.401319
0.307126
0.602476
3.7987
1.19082
0.453215
0.347216
0.774429
0.876516
1.66156
8.2443
1.66386
4.99001
1.32798
0.0935137
3.40691
0.979758
1.13948
1.35464
4.28014
7.0621
2.8587
0.413065
1.22691
4.17256
1.8219
2.22999
2.03211
0.367172
2.40551
0.412706
3.20209
3.46439
5.07658
0.349358
1.21002
3.03755
3.33395
0.351809
1.00439
0.8948
6.01931
0.135755
0.582637
0.73073
0.467157
3.00182
6.88422
0.371554
3.88528
3.15083
0.25039
2.61374
4.77784
4.34578
0.904785
5.0808
8.94513
0.240729
9.52818
4.45719
2.96301
0.293007
4.75065
7.3277
4.4499
1.62667
8.57043
2.56595
0.859864
3.73238
6.52677
0.403361
5.00976
0.980691
3.66127
0.425609
2.97258
0.295634
0.422332
10.9425
0.404916
3.93006
3.02026
1.18435
1.10802
0.474471
0.744312
2.01307
0.255923
0.252881
4.80078
1.0211
1.32391
0.607002
0.923038
0.17843
1.32209
5.38165
1.27778
1.96361
1.17068
2.21013
0.472883
6.37208
1.10919
0.322879
0.426835
2.88479
0.957
0.890225
0.436619
2.07615
0.963427
0.894693
4.86984
1.79314
1.40991
4.27261
0.383298
3.72179
0.873267
2.1891
0.314964
0.422863
0.463522
0.477749
0.306082
1.82032
0.097333
4.54211
0.573065
2.48977
0.364074
1.29853
1.56479
0.80387
9.14554
4.67977
4.58019
3.21857
2.96972
0.886764
0.370512
0.323502
1.0481
1.13361
0.241235
1.27794
1.25103
1.22107
8.27769
0.569829
0.72273
4.81626
7.18723
1.35377
1.10773
1.02231
0.866886
0.391337
3.80583
0.407674
0.449399
0.453153
0.458184
1.12852
8.81023
0.299832
0.169527
2.82298
1.88813
7.23575
1.04462
3.76495
0.34801
0.346976
1.30166
7.48478
4.25875
0.334668
1.76196
0.463291
0.454824
0.858537
0.482847
0.297303
3.40299
0.431392