/*--------------------------------*- C++ -*----------------------------------*\
  =========                 |
  \\      /  F ield         | OpenFOAM: The Open Source CFD Toolbox
   \\    /   O peration     | Website:  https://openfoam.org
    \\  /    A nd           | Version:  10
     \\/     M anipulation  |
\*---------------------------------------------------------------------------*/
FoamFile
{
    format      ascii;
    class       volScalarField;
    location    "1350";
    object      p;
}
// * * * * * * * * * * * * * * * * * * * * * * * * * * * * * * * * * * * * * //

dimensions      [0 2 -2 0 0 0 0];

internalField   nonuniform List<scalar> 
10435
(
-0.000855122
-1.17318
-12.2172
-3.13775
-8.49662
-12.3501
-12.2882
-12.2454
-12.2431
-11.7475
-3.03535
-7.42652
-11.7716
1.41224
1.38638
-11.8262
1.36231
-11.6962
-12.3046
-0.424576
-12.4328
-3.03968
-11.8496
-9.76655
-11.9885
0.864613
0.764862
-12.0359
0.231599
-12.1649
-10.9383
-4.06554
-12.5668
0.818502
-11.3227
0.686917
-11.1931
-0.51092
1.36399
-10.9014
-12.8123
-12.2314
1.68182
-1.58766
-11.0612
-10.8636
-12.2317
1.21839
-12.3503
-3.29695
-12.2137
-11.1506
0.920106
0.0153037
1.69292
-0.0544075
-10.6828
0.437526
1.02649
-10.8966
1.06752
-0.425956
0.660701
-10.2863
-11.5122
-12.1206
0.916514
0.83395
-12.5413
-9.12244
0.734912
0.235225
2.0548
-11.8743
1.23984
1.86305
-7.80861
-12.5055
-12.782
1.18773
-5.14908
0.207485
1.08652
0.458229
-6.12873
0.894652
0.473343
-1.65042
1.31613
0.0744248
-2.44567
-3.32216
-0.173763
1.02705
-0.407631
1.05644
-4.44624
1.51379
1.49099
-5.7804
1.04507
-10.3073
0.793955
-0.983156
-10.9644
-2.31789
-0.612004
-4.16961
-7.33165
1.0484
-2.4928
-9.29173
0.549029
0.77685
-4.57427
-2.23754
-6.54891
0.55991
-1.83219
-6.03618
-7.03464
2.00697
0.12569
1.77901
-5.81025
0.979274
-5.20272
2.00211
-7.49731
-0.21752
1.98269
-4.53957
-11.8981
1.29272
0.408174
1.93309
1.4088
-4.01469
-1.06694
-1.54018
-0.942796
-11.0382
1.15004
-9.26929
-3.89003
1.73002
1.69869
-11.1746
1.52983
-9.2939
1.12021
-10.6526
0.0180171
-9.66217
-11.6936
1.05775
-7.06815
-0.413515
-11.8255
-2.21843
-10.2401
1.34599
-3.75352
-6.67726
1.18423
-8.3174
-12.279
-5.79298
-8.57742
-9.56202
-11.618
1.44849
-0.420603
1.6192
-8.96488
-1.17379
0.192171
1.25174
-1.76028
0.754192
-2.04425
-11.8122
-8.35417
0.879737
-10.9214
1.74362
1.46172
-12.4113
-9.49243
-10.3086
-7.5482
1.21962
0.841982
1.0064
-8.24626
-12.5009
1.7344
1.15243
1.31556
-11.604
1.38148
1.42259
-11.9361
0.701092
-12.0939
-5.81489
-2.75489
-4.8852
0.458052
-4.81422
1.49807
-11.9872
-8.35882
-7.37527
1.03152
1.54661
0.8649
1.38508
-0.800676
1.34219
0.629612
1.04521
1.1385
1.62508
0.704962
-11.7863
-0.494958
1.33519
-10.9903
1.75896
1.14952
-11.9864
-0.578935
-10.2147
-0.241407
1.34311
-10.499
-0.0112999
-9.5518
-11.4584
-0.969987
1.0254
1.39771
0.0020005
-4.96356
-12.6008
1.36831
-12.6857
-2.33948
-0.291574
-2.60129
0.938995
-12.1524
-5.74518
-12.8202
-9.09569
-3.6475
-12.8482
1.04232
0.826051
-12.7394
-11.5026
0.394215
-7.74803
0.67462
1.47388
-0.434292
-11.5748
1.39491
-6.61391
-12.5273
-13.7068
-13.3699
-11.6457
-1.11534
-6.83428
0.731432
-7.45533
-12.2603
-13.6226
-12.2909
1.38778
-12.4026
1.22671
0.725719
1.55173
-10.2601
-0.206249
0.568261
0.4088
1.69877
-3.35323
0.290518
-13.4903
0.104595
-3.64011
1.68471
0.362766
-6.30041
-11.6469
1.10438
-8.7877
-12.3005
-2.87346
-5.26262
1.51144
1.69978
-9.63406
-11.7792
0.636491
-1.15439
0.365396
0.419748
-10.717
-11.6001
-4.06351
1.38238
-10.3853
0.986232
-6.63688
-11.7373
-0.373771
0.40561
1.43588
-13.2881
-12.0654
-1.82921
-12.1665
1.15192
0.36221
-11.6822
0.436171
0.672305
-12.248
-9.57883
0.564127
0.502452
-0.759612
1.02696
-0.586771
-2.60413
0.960546
1.26335
-2.47543
-3.52304
0.414294
0.684166
1.68717
1.55604
-12.8593
0.837322
-12.1257
-2.5922
-12.0402
-13.9406
-13.8741
-11.8724
-11.7314
0.0111491
0.717297
-0.623487
1.3085
-0.304023
1.1145
-0.147502
-3.02885
0.489252
-8.20768
0.767701
-12.7435
1.24318
-3.48266
-11.4901
-14.2075
1.50964
-4.55158
-0.307397
0.198247
0.649473
0.571623
-6.09082
0.0780774
-13.1624
0.857009
-12.8115
-13.7843
-11.8949
-11.7752
-13.9866
-12.1132
-11.5465
1.81155
1.34771
0.373821
1.08925
-12.293
0.473176
-12.1321
-4.05253
0.308095
-5.21173
1.17489
0.87362
-12.1648
-0.642004
-12.9085
-9.33303
1.50674
0.574747
-2.48942
-11.4869
-2.65945
0.789272
0.47041
-0.205938
1.17677
0.621516
-12.1611
-2.11478
0.00353188
0.20451
1.37985
-12.1702
1.65166
1.83852
-12.5198
0.989896
24.331
10.0352
14.2614
10.8621
11.8709
10.6794
10.6416
10.1711
8.90109
20.372
8.38384
11.6995
9.41444
10.0519
9.3089
9.24877
8.87681
8.55734
16.4745
6.6637
9.61073
8.14494
8.5693
8.10591
8.02701
7.74478
7.41414
13.2878
5.41861
7.81791
6.91899
7.23271
6.97672
6.92749
6.75089
6.49889
10.3601
4.53601
6.34082
5.85451
6.0979
5.98211
5.97465
5.89928
5.71671
7.74514
3.98213
5.17875
4.99325
5.17829
5.15288
5.17615
5.15963
5.08163
5.63827
3.83147
4.33546
4.34343
4.47162
4.50159
4.54722
4.57484
4.57158
4.11149
3.89008
3.75064
3.87098
3.95104
4.01278
4.07185
4.12952
4.08278
3.05894
3.75461
3.30733
3.51829
3.57652
3.65804
3.72493
3.78958
3.82584
2.33018
3.36225
2.95993
3.25177
3.3124
3.40686
3.47972
3.55115
3.59452
1.85531
2.96646
2.73252
3.06404
3.13257
3.23087
3.30592
3.37874
3.45303
1.69925
2.79974
2.65163
2.95014
3.01421
3.10362
3.17189
3.23254
3.34915
1.78991
2.83
2.6814
2.88858
2.93527
3.00827
3.06822
3.131
3.19584
1.86494
2.90222
2.73324
2.84429
2.87163
2.92677
2.97853
3.04028
3.08057
1.8912
2.95163
2.7679
2.79601
2.80767
2.84729
2.89242
2.94777
2.99926
1.91878
2.941
2.76415
2.73023
2.73343
2.76243
2.80326
2.85242
2.91583
1.85118
2.79051
2.68595
2.63356
2.64135
2.66726
2.70674
2.74939
2.83829
1.70655
2.51578
2.53887
2.50763
2.53164
2.56239
2.60544
2.65157
2.73496
1.59981
2.23978
2.37064
2.36804
2.40937
2.44695
2.49228
2.5405
2.59917
1.53665
2.02218
2.2042
2.22627
2.28086
2.32595
2.37442
2.42647
2.48946
1.43458
1.85302
2.04011
2.08727
2.14964
2.20115
2.2519
2.30998
2.35112
1.24689
1.74443
1.87857
1.9525
2.01602
2.07161
2.12326
2.18786
2.1577
0.920708
1.73615
1.73482
1.83628
1.89557
1.95132
2.00193
2.06447
2.01348
0.514729
1.76983
1.52748
1.6522
1.7127
1.77775
1.84955
1.93446
1.86589
0.391193
2.0981
1.71582
1.82287
1.84525
1.83241
1.86717
1.94186
1.35963
12.7914
12.948
13.3648
13.886
14.4707
15.1306
15.8521
16.6338
17.4671
18.3365
19.2307
20.1349
21.0266
21.896
22.7264
23.496
24.1964
24.8129
25.3323
25.7498
26.0867
26.4683
26.7778
26.6426
26.2643
26.1524
26.5214
27.2259
27.8593
28.4455
29.1294
29.6493
29.8517
29.8763
29.8113
29.6605
29.4344
29.1801
28.9099
28.6623
28.4565
28.3102
28.2277
28.2195
28.2852
28.3965
28.5489
28.7223
28.8723
28.9898
29.0479
29.0209
28.9079
28.7004
28.3859
28.0096
27.5556
27.0353
26.7378
2.54485
2.20681
1.99502
1.7926
1.61432
1.43585
1.23957
1.05879
0.918266
0.818301
0.762328
0.752678
0.790133
0.874065
1.00376
1.17852
1.39818
1.66562
1.98751
2.37428
2.84209
3.4167
4.09272
4.90284
5.70214
6.18687
6.26724
5.89656
5.26103
4.68987
4.28231
3.99513
3.77794
3.61089
3.48404
3.38322
3.301
3.2349
3.18219
3.14083
3.10808
3.08109
3.05912
3.0427
3.0351
3.04475
3.08184
3.15954
3.29258
3.49637
3.76326
4.11438
4.5642
5.08729
5.67182
6.30327
6.94818
7.60364
8.47396
6.73504
6.91025
7.05905
7.23921
7.439
7.65644
7.89241
8.14846
8.42374
8.71617
9.02448
9.34624
9.67934
10.0204
10.3674
10.7181
11.0707
11.4245
11.7804
12.139
12.5019
12.8684
13.2261
13.5502
13.814
14.0058
14.1367
14.1957
14.1599
14.0905
14.0208
13.9493
13.87
13.7894
13.7122
13.641
13.5789
13.5294
13.496
13.4815
13.4891
13.5205
13.5787
13.6648
13.7809
13.9283
14.1071
14.3144
14.5487
14.8057
15.05
15.2596
15.4689
15.6741
15.8463
15.9715
16.0474
16.1164
16.0541
3.66967
3.56029
3.52245
3.49874
3.48935
3.49749
3.5233
3.56903
3.6366
3.72792
3.84505
3.98965
4.16252
4.36454
4.59526
4.85386
5.13879
5.44742
5.77721
6.12407
6.48324
6.84752
7.20616
7.54413
7.83997
8.07124
8.22465
8.29704
8.29738
8.24877
8.16863
8.0658
7.94542
7.81153
7.66655
7.51302
7.35307
7.18966
7.02723
6.87055
6.72593
6.59994
6.50094
6.43696
6.41728
6.44956
6.54043
6.69414
6.91108
7.18104
7.52977
7.93656
8.33529
8.72459
9.12975
9.53674
9.91662
10.2882
10.7075
4.90821
4.987
5.07324
5.17997
5.30124
5.43614
5.58368
5.74332
5.91422
6.09532
6.28616
6.48614
6.69422
6.91035
7.13355
7.36332
7.59893
7.83882
8.08229
8.32739
8.57158
8.81092
9.03995
9.25262
9.44073
9.5988
9.72205
9.80944
9.86167
9.88421
9.88335
9.86249
9.82643
9.77962
9.72437
9.66593
9.60704
9.54986
9.50113
9.46473
9.44546
9.44821
9.47812
9.53972
9.63772
9.77433
9.95116
10.1671
10.4173
10.6903
11.0049
11.3532
11.6776
11.9569
12.204
12.42
12.5953
12.7608
12.8511
3.8416
3.80436
3.80938
3.83168
3.86893
3.92292
3.99442
4.08381
4.19164
4.31756
4.46287
4.62716
4.81051
5.0122
5.23084
5.46469
5.71172
5.96643
6.22889
6.49518
6.76199
7.02264
7.27114
7.50353
7.70782
7.88351
8.02248
8.12709
8.19611
8.23137
8.2387
8.21585
8.17009
8.10678
8.02245
7.92881
7.82472
7.70545
7.5886
7.47625
7.37582
7.29423
7.23874
7.21702
7.23784
7.30215
7.41729
7.58174
7.79536
8.05407
8.35181
8.67855
9.0216
9.36676
9.70064
10.0152
10.3039
10.5857
10.8651
4.09073
4.11208
4.15581
4.21852
4.29525
4.38641
4.49013
4.60787
4.73855
4.87935
5.0316
5.19368
5.36716
5.5499
5.74003
5.9374
6.14487
6.34805
6.55785
6.76692
6.97859
7.18227
7.37514
7.56437
7.72282
7.87003
7.98536
8.08383
8.15804
8.20537
8.24018
8.24071
8.22472
8.2041
8.15317
8.11006
8.0624
7.98308
7.92923
7.87986
7.84512
7.82926
7.83659
7.87355
7.95489
8.06411
8.22268
8.41658
8.64935
8.91456
9.20358
9.50567
9.80809
10.1038
10.3759
10.6156
10.8218
11.019
11.1782
3.8189
3.78245
3.77545
3.7946
3.82168
3.87563
3.93446
4.03141
4.13997
4.23161
4.36717
4.50814
4.67308
4.85883
5.0498
5.26606
5.50041
5.67017
5.8724
6.08296
6.31501
6.52578
6.71525
6.93638
7.07318
7.23115
7.32463
7.42472
7.49987
7.54625
7.60316
7.58527
7.56576
7.57105
7.47799
7.46689
7.48223
7.30512
7.20926
7.11418
7.03827
6.97822
6.93736
6.92501
7.0288
7.08404
7.25902
7.41386
7.58072
7.8024
8.08095
8.40953
8.71939
9.0322
9.34708
9.65898
9.94407
10.2558
10.4956
3.6764
3.71498
3.72827
3.79656
3.8593
3.95483
4.0245
4.08438
4.20563
4.40644
4.45383
4.59527
4.78815
4.92693
5.14165
5.21842
5.45468
5.63303
5.83766
5.97758
6.18445
6.33984
6.49357
6.70016
6.78514
6.93563
6.99425
7.08985
7.21267
7.15789
7.32767
7.30189
7.21815
7.27656
7.16069
7.2196
7.07621
6.85993
6.96938
6.88748
6.8399
6.84301
6.7755
6.78153
6.85016
6.86195
6.97215
7.06
7.34906
7.60399
7.83094
8.07609
8.34324
8.68953
9.00863
9.25841
9.51118
9.34415
9.70238
-3.71084
-3.74429
-3.43955
-3.01505
-2.47052
-1.88456
-1.37516
-0.902406
-0.431945
-0.0403133
0.281313
0.609315
0.89955
1.16223
1.56614
2.15075
2.78993
3.45716
4.20986
5.08122
6.079
7.22191
8.58019
10.2992
11.848
1.25694
1.3331
1.23238
1.0915
1.03341
1.13172
1.3201
1.53834
1.73995
1.80787
1.71003
1.54948
1.40363
1.31997
1.38825
1.60423
1.80275
1.884
1.96668
2.16329
2.43929
2.74839
3.07152
3.42298
3.56559
0.199208
0.251099
0.328228
0.416104
0.555193
0.752128
0.967312
1.17049
1.33962
1.43018
1.4401
1.41316
1.38266
1.38061
1.45871
1.62801
1.8464
2.09051
2.38707
2.76076
3.21104
3.73785
4.34642
5.04204
5.90417
0.612999
0.638658
0.719092
0.796007
0.896707
1.02101
1.15589
1.28437
1.39337
1.46642
1.50309
1.52067
1.53685
1.56821
1.63404
1.74017
1.8768
2.03841
2.23322
2.46764
2.73743
3.03162
3.3339
3.60829
3.89409
0.665923
0.68486
0.768867
0.851844
0.954463
1.06728
1.18477
1.29376
1.38767
1.45903
1.50819
1.54481
1.5803
1.62519
1.69214
1.78827
1.91472
2.07295
2.26802
2.50327
2.7809
3.10158
3.47151
3.88772
4.44524
0.769892
0.799803
0.884565
0.96082
1.05533
1.15128
1.25193
1.34336
1.42464
1.49158
1.54328
1.58649
1.62958
1.67788
1.74063
1.82394
1.93139
2.06598
2.23044
2.42438
2.64864
2.8981
3.1713
3.44787
3.79943
0.893735
0.876133
0.969202
1.03514
1.12547
1.20895
1.30188
1.38253
1.45701
1.52188
1.57287
1.61723
1.66366
1.71229
1.77238
1.84965
1.94833
2.07289
2.22599
2.40536
2.61707
2.85594
3.13034
3.43782
3.85314
1.01248
0.932694
1.04694
1.10018
1.19116
1.26375
1.35571
1.42667
1.49455
1.55782
1.60445
1.64559
1.6955
1.74366
1.80067
1.87304
1.96394
2.07804
2.21714
2.37728
2.57341
2.79075
3.06035
3.36153
3.72684
1.0039
0.965197
1.13145
1.16205
1.25189
1.29674
1.39287
1.44871
1.53045
1.59186
1.63973
1.67154
1.71401
1.75424
1.81019
1.87515
1.95733
2.06247
2.21697
2.3714
2.54512
2.76021
2.98297
3.10237
3.32254
-13.0362
-12.5106
0.969767
6.15698
1.98585
1.90564
-2.79017
2.54486
-0.472623
6.56646
-12.2798
2.60572
-14.6582
1.22924
-7.41339
4.08363
-8.18051
6.10323
6.90845
-15.1595
-16.6114
4.60748
-11.887
4.21628
2.49435
3.47679
2.45839
1.39396
-11.2869
-10.4388
6.37788
4.16563
-14.3836
-11.5668
-10.9016
2.33157
-4.07037
-7.1604
-6.03747
4.71729
-13.1203
4.80948
3.99852
1.27827
2.56385
6.07364
-11.8784
-10.1113
-10.4917
-13.6615
-11.8665
-12.3738
-15.8788
6.17876
-2.62448
-0.209765
1.20811
-16.5777
1.73397
-9.1544
2.54314
1.85267
2.00212
4.13956
2.49452
1.2785
3.80334
4.26597
-12.7779
-12.4347
-0.849957
5.17294
2.10118
-14.3225
2.11404
-17.3255
-13.319
-11.9203
1.43892
6.35395
-11.6306
2.74304
2.85072
-8.93844
2.16174
2.59517
2.06407
-12.1091
-14.5013
3.04767
3.43458
3.14718
6.19929
2.66023
1.99979
-12.1427
3.35975
-11.577
4.70452
-9.27356
1.67103
-13.6008
1.64728
4.64934
1.80389
1.64944
-11.9196
-12.9154
3.2738
-9.97954
3.95784
2.9275
-10.8394
4.58789
-16.4068
-10.4021
-13.4047
5.01596
-14.7511
3.09978
3.76893
2.84172
4.43023
2.60479
-14.2112
4.01078
-12.5932
-15.8644
1.12452
-10.4017
3.01362
-14.4649
-11.9829
-9.15401
1.18834
2.08161
2.60553
1.78871
2.8465
-14.5761
3.4459
-4.83816
-9.82847
3.82057
-10.9059
3.63401
5.39336
-14.8136
2.81723
-11.0632
-0.262163
0.73374
5.19756
-7.6059
2.4555
-10.0752
1.99376
4.86815
-11.4442
5.55764
4.2937
-0.902708
3.31294
-11.6091
4.94853
-8.81885
1.15645
2.27841
5.06881
1.99523
1.2265
4.26768
3.97507
-9.11459
3.42033
1.40463
-13.1365
-11.6645
-9.86689
5.29231
-10.7965
4.58073
-15.4023
-10.6732
1.73075
5.38661
-9.19428
3.22376
-14.3386
3.35399
-9.89054
-10.0086
-3.73571
-3.79139
-7.77221
-14.3158
2.13386
4.49561
-10.5681
-11.273
-13.2691
4.74321
2.91509
3.13368
0.0315828
5.37972
4.14193
1.71613
-11.1385
4.90091
1.79737
2.75545
-10.8147
-0.113101
-0.39752
-12.8508
1.91046
5.57558
7.06714
2.50645
1.63788
4.86658
2.54404
2.19572
6.59199
-13.2403
3.48488
-7.87342
3.25761
2.06498
-9.77902
2.46884
4.37794
3.0813
-5.49551
5.73726
-11.1599
1.4496
-10.915
-7.03866
5.37591
2.433
5.03096
1.37147
2.09334
2.33937
3.95943
1.74252
3.78235
5.09483
3.32175
1.4653
4.51642
-11.0272
3.75402
2.10199
-10.6752
-12.9796
-11.4343
9.06018
3.52374
1.11957
3.01968
2.35952
-14.2594
2.69424
5.83913
4.9506
-3.53547
2.29973
-15.3797
-4.3515
4.52286
5.60275
7.42047
4.83963
3.96413
-2.09842
1.12589
-11.7365
1.39505
-0.210859
4.62489
5.76352
-9.55515
3.25382
1.53133
6.53137
-12.5738
-9.82057
-5.02973
3.50882
4.47957
-12.5733
-11.0661
-12.9823
-12.0828
3.39549
5.37643
-10.2138
-11.0269
4.05625
5.26792
3.26429
-11.3979
5.44984
-16.9308
3.96614
-14.7853
2.93842
4.64746
5.4347
-14.4382
1.28495
4.48945
-3.4953
-11.8603
4.56188
2.51738
-9.04639
-11.8994
3.34351
5.25866
6.31978
2.24933
2.7172
-13.5554
-12.8374
3.61233
-16.0939
4.74545
-7.89657
1.64718
6.14738
-12.492
2.54733
2.65788
2.99114
3.19182
3.92033
2.76181
2.51609
-10.0477
4.64536
-14.2548
1.93462
1.83555
4.65088
2.1731
-10.2568
0.436377
6.30256
4.06205
-11.6728
-12.6051
6.57199
-8.33067
0.947081
4.95254
-8.99683
-11.3334
-11.8503
5.5495
-13.4247
4.91794
2.06532
4.31572
-12.33
2.81995
-14.0368
6.00969
-7.96022
-11.3608
-6.75753
-13.249
2.86574
2.92012
5.4585
5.56776
5.74566
-11.9352
3.4416
-13.9831
1.14021
1.28175
-9.85235
5.17072
-15.1721
-12.6132
-9.65443
-1.05038
5.67025
2.27669
-11.4533
-10.8702
7.50091
5.07493
-13.9953
4.97636
-10.9788
2.47374
4.1453
2.08368
-13.3008
2.43431
5.42875
-3.68497
2.25863
-0.0473849
4.67198
-8.90281
2.6853
-9.9561
2.67252
3.39076
6.32311
-10.2352
-10.0761
5.44144
3.39484
4.63761
5.36121
3.01237
1.57605
5.36332
-11.3394
3.23409
4.96042
4.00321
4.16905
2.54875
2.084
2.67136
1.47126
-3.59163
4.53879
3.44457
4.43494
4.5822
5.86482
5.46802
-6.99391
-12.8683
0.561346
-13.2155
4.65314
1.53262
-4.45778
1.7503
1.41014
-6.74864
4.494
3.13241
-10.1359
5.97119
-12.4402
-8.71626
2.85713
3.43044
-14.829
3.26478
0.777959
-8.98327
-10.9571
-11.3722
2.21508
1.89546
2.52747
5.46723
-12.1305
1.45784
2.1633
-11.6863
5.96049
2.63388
-12.6541
2.74998
2.05626
-14.5707
-14.6805
-0.502006
-6.64732
5.16178
2.52576
-9.61287
2.09487
2.70851
5.84179
-12.2119
4.5022
-9.27563
3.72556
2.83038
-11.2437
2.74301
1.83519
-8.43202
2.66252
6.07281
-13.971
4.06008
-4.45934
2.94878
1.3725
-13.7677
-11.4124
3.64473
3.32635
-3.47867
3.56472
4.52927
-11.1784
3.60375
2.8812
5.42614
-12.3686
-11.7125
-10.0142
2.82822
-0.847498
6.15258
-10.1806
-15.1397
5.67498
-11.3585
6.11353
-11.4671
-13.8606
5.1961
5.1953
1.52303
4.43667
4.23005
-2.36416
3.06
0.341442
3.41473
-10.3556
-10.6637
3.54525
-10.0601
-9.89099
3.75842
-12.2471
4.06694
2.95406
3.25188
1.62862
2.70133
-2.59176
-5.49364
-6.87505
1.15864
-11.0041
-10.1978
-11.7324
2.46797
5.78344
-13.9688
-11.7125
3.58746
-9.91849
3.25907
-13.0264
-10.398
7.07206
-0.652698
1.6499
4.39292
3.10976
-14.5307
6.58246
-7.87242
1.90823
1.92212
-10.5071
-10.4171
-11.552
1.59188
3.1624
-13.9232
-16.5805
4.50915
5.96264
2.68359
-13.8441
4.45197
1.91412
-5.21538
5.79599
1.89193
2.09515
4.20006
-9.05211
5.8031
1.64449
-12.0422
-10.3483
1.99392
4.62062
-10.0031
1.46913
5.00404
5.15741
-15.5008
3.90083
3.00297
4.67598
6.59307
4.41779
4.39533
-5.87018
2.42208
4.97279
1.6077
-15.8506
5.67801
1.83283
3.53905
4.47401
2.26091
3.0941
5.59459
0.592225
2.20009
-9.36119
-9.11851
1.36927
-13.5571
1.98734
2.19893
2.10863
5.29225
3.79481
3.12805
-15.1284
3.26123
2.65116
0.808913
-10.4095
-0.877883
1.32348
1.29811
4.21847
2.00788
5.40061
3.30755
0.541356
-9.54655
-8.88024
-11.6349
5.61402
6.27049
3.99416
6.40878
4.78519
-10.4604
10.7199
-16.568
5.01884
-11.5302
6.48774
-11.8711
3.90206
2.16789
2.6628
-13.1687
-4.60707
1.25762
-16.4448
2.16213
7.70025
2.26679
-10.8722
5.08002
3.25154
-9.09736
2.39912
6.00511
5.52655
4.59911
-15.1515
5.23002
2.94103
5.82489
1.26289
5.32398
-10.7696
-12.3458
3.86214
-4.30038
5.38336
-12.3065
2.85906
5.89939
4.99037
3.3373
-5.18515
3.81209
4.70857
1.76315
4.23594
3.66763
5.24936
6.00766
-9.12063
-9.65872
-0.0788498
-10.7403
-5.84311
-12.5802
-11.0423
8.41411
2.008
2.21584
5.42523
3.39684
0.794553
3.91431
2.504
-13.7001
5.40526
4.49699
1.83797
4.73049
3.61221
2.40281
0.0516177
-12.3326
-12.9756
6.67963
-10.6439
-1.81666
-11.735
-16.3924
-13.4702
-12.7773
4.44573
5.56584
3.69877
5.08049
4.58728
3.13397
-10.8087
-12.4856
4.98832
-11.9813
0.656916
5.65565
2.4572
2.83316
-8.89703
3.25023
2.52654
-2.37563
-8.34266
-14.3896
-11.7135
5.43255
5.53491
2.03684
5.1743
-11.6158
-0.345568
-12.0157
-8.16902
2.01769
-9.2669
3.23822
5.50399
1.59921
1.86555
1.81221
5.58953
3.6113
2.2932
3.18226
3.08058
4.08342
3.05097
3.32151
4.99941
-11.1492
-5.60623
4.4543
0.830183
4.03775
-14.3905
2.2252
7.62425
4.96753
-14.9862
-0.222828
5.24218
3.39848
-10.7994
3.08225
-13.6589
3.18725
-14.5315
-11.5887
-9.91353
4.53336
-9.06195
0.966148
5.39334
-12.203
4.66534
2.46782
2.8435
-14.6418
0.800435
4.16963
2.1062
-13.4035
2.1418
2.57915
-8.39033
5.49523
4.37498
-1.93837
-11.721
-13.141
5.34427
5.63269
5.23287
-14.8251
-5.1349
4.74136
2.30812
1.87569
-12.5598
5.72712
2.34858
-12.948
7.36638
2.95531
5.02056
6.55626
-14.0851
2.98414
-15.1868
5.00636
2.75529
-11.3236
4.90731
5.68733
5.5854
1.41798
-15.1914
-12.171
5.42345
5.30489
2.87209
-8.3243
-14.2827
1.72675
3.17819
-11.4316
-6.76088
3.30394
1.93207
1.78778
-9.88677
5.14304
-13.2602
3.96214
3.3173
-10.4943
3.6157
5.47785
3.37568
-15.5514
-10.8486
-9.36048
-9.60638
6.25514
-13.7321
-8.6351
5.24162
-2.83488
2.28547
1.81774
-14.8763
3.07145
2.43982
-16.0186
3.43217
5.92342
5.81795
-14.5431
1.05171
3.92439
-10.5958
-11.6267
-10.575
5.35259
2.89829
-10.2927
-11.554
-10.9131
-14.7816
-13.7259
0.60636
5.33039
-0.96361
-9.92494
4.28269
5.21496
0.690539
-7.51169
4.07741
-1.6767
-12.736
3.96379
1.86633
5.67545
-9.42448
-3.85273
-11.1724
-10.4053
6.17491
1.4211
-0.536286
2.76409
-12.0536
-16.0091
5.32727
3.10289
3.01062
5.58548
-14.306
-12.4001
2.97751
-10.3123
4.54923
-11.1129
6.0172
2.32613
2.60553
-3.07563
-11.7473
1.25142
-14.9036
3.62704
3.79335
-4.85827
4.1946
-8.27595
-9.50503
-9.96111
2.95096
4.69051
-4.16874
3.61176
4.83526
2.60218
-10.6339
3.59152
1.59467
-11.2259
-4.06571
1.88615
2.94645
4.0501
4.67256
1.86037
4.4922
-15.6013
5.17769
2.77763
-10.0857
-14.6626
-4.11838
3.37444
3.13562
-1.23198
5.75833
-10.6113
1.92595
1.77638
-10.674
3.49086
2.76357
0.610591
2.21102
-11.0302
5.8693
5.10778
5.06972
-3.16851
-2.93343
-13.4381
2.56542
-13.1918
3.78313
4.00335
3.74695
-10.607
-10.5263
4.08711
-9.28115
5.71837
-10.5941
3.26964
-10.8999
2.11032
2.31575
4.14322
-1.77125
-6.53085
3.11926
5.54333
-14.7519
5.5397
5.28609
2.65951
5.03471
3.19133
-10.6711
4.20839
3.36689
-9.08339
1.49409
-9.63142
5.6035
4.02525
4.18591
6.51065
4.96857
1.82918
-13.5774
6.5097
1.05615
5.46844
2.67806
-0.942349
-10.2502
4.56684
5.73431
3.29267
4.85786
5.59507
5.00346
-10.1445
6.30319
-15.9779
3.55828
-5.18878
-11.254
1.50144
-14.7354
3.72532
-12.1041
-11.8434
-9.89854
2.75949
3.03864
1.43615
-11.4709
5.0705
2.79301
3.83765
2.6644
-10.0607
1.62654
4.59853
1.79543
6.47669
6.70401
6.30505
-11.8491
8.4946
-14.749
5.06147
4.30882
5.13602
5.67652
-14.7896
5.76434
-14.1667
-12.7856
2.17695
4.78448
-10.9146
-11.2395
5.56626
5.38529
5.30873
4.92965
6.28555
1.51891
-11.3363
3.20907
6.89575
-14.1845
2.66817
0.0090998
-5.96972
4.95126
2.12756
5.20309
1.6469
-11.643
3.7512
-13.5577
4.77602
1.56903
4.80296
-13.8104
-13.9817
4.79892
6.94096
-11.9947
4.89632
1.84674
-8.56895
-11.578
5.96058
5.97557
5.78921
1.28763
-12.5669
2.31494
5.95006
-12.695
-10.3027
5.4917
4.61341
2.0657
7.09056
3.33719
-15.3793
2.57645
-10.3941
2.77427
5.50883
2.35558
-14.8395
4.24294
-12.6459
-9.3744
-9.54165
-12.5498
-11.0849
6.36281
3.81204
-13.1539
-14.5922
2.83517
5.09436
2.97541
1.59602
4.45079
2.56288
3.00502
-7.01129
1.96244
1.45686
-5.99192
1.79526
2.83573
3.61721
-9.94024
5.58973
-12.8
-11.8757
1.77868
4.53031
2.89009
4.12319
2.85298
-12.7423
3.37842
5.53344
2.79089
4.48028
-11.2528
-13.7231
4.19348
3.23486
2.00805
5.46989
2.14124
1.38763
6.26011
1.76189
0.869734
-11.3671
5.51086
3.43816
-4.83986
3.27442
2.3909
3.61721
3.70608
2.83481
5.08301
-14.5412
3.62226
5.54113
-10.4265
2.05542
-1.17014
-6.07217
5.19335
3.09112
5.48825
-8.41848
3.72092
-12.3035
5.96972
-5.56433
-13.6176
-15.577
-11.413
5.93848
2.59085
-14.437
-12.7315
1.72034
4.84004
5.89484
-12.1729
5.51684
3.41248
5.70016
5.72198
-1.34269
5.77343
1.96879
5.50049
-11.438
-14.8636
5.59985
6.59628
5.52619
4.53785
3.01838
-10.1525
6.39075
0.318094
-14.468
-15.5044
5.20139
-12.4592
-11.1979
-14.6386
-12.0587
0.936143
-11.0207
-12.6983
-9.89187
5.47804
-10.4229
5.90629
-1.27629
6.5291
6.08374
-11.8494
-9.17522
-11.2602
-11.3103
1.53015
4.26378
-2.72298
-12.8041
6.41477
-13.1926
4.97133
-14.7
5.93435
-11.1581
-0.0716352
1.81768
3.193
-15.2739
2.85265
0.582024
-14.339
4.90423
-10.4973
3.29034
4.27685
-7.96348
-2.42042
3.17334
-15.1817
-7.47574
6.50967
-14.0796
6.33506
5.70724
1.44404
1.94639
-13.0144
-11.494
5.60474
-14.1277
4.78871
-15.9863
6.37618
5.33983
4.26808
-16.3757
-1.43092
-10.842
3.88911
-10.3852
2.30455
-14.1632
-12.9992
-0.121061
5.31343
-11.332
4.58155
3.5445
4.98135
-11.1824
-13.1032
2.54952
-14.3149
3.28111
3.2007
-3.58561
3.95123
2.7385
-12.1184
5.65436
5.28298
6.51577
2.86953
4.51705
6.64065
-13.7396
-11.7764
2.91001
5.83367
3.4248
-11.314
-11.5876
2.69279
1.05121
1.61789
-14.5011
1.01379
-1.60942
-12.382
2.38614
-14.5702
-13.1648
2.55481
2.66772
5.69788
6.25952
2.25954
3.75444
1.76586
1.40413
-12.5346
4.14001
-13.7222
2.53513
-12.5416
4.78203
-10.1725
-0.146727
-13.7717
-11.2214
1.85294
0.182136
4.38444
4.51035
4.21513
-10.8018
-10.2535
5.65176
5.36647
3.64995
4.84048
2.74994
3.36691
-13.5171
-10.2643
-14.5244
-13.658
5.71576
2.26136
-11.1639
4.58177
-11.3363
5.1916
2.68
1.81167
3.53581
2.69346
3.72678
2.61995
0.152632
-13.5879
-11.4785
6.7137
2.62843
-14.4325
-1.59269
3.0534
-11.1138
-12.4607
-9.84749
4.29369
-15.2959
2.92099
5.84455
5.6191
2.46562
8.50892
-8.97744
-12.2147
5.1686
1.54482
-14.3563
3.23322
-12.6839
-9.54853
3.74039
1.27475
4.62575
1.63506
-11.2189
2.02935
-11.3977
1.63849
5.08913
1.71422
5.95926
1.12738
5.61928
3.94019
5.3332
2.19341
3.1724
-13.9245
5.96509
-8.40588
3.53311
3.90161
4.56479
1.75331
3.02843
-4.24861
-12.5124
3.53423
-12.1505
6.76484
-12.2544
4.93258
5.41936
2.58901
2.24285
-10.7986
3.89988
4.147
-1.83932
-7.79214
4.5536
6.08446
5.71758
4.964
-3.98261
2.95637
3.40509
-14.6454
2.76687
6.50523
3.99838
-13.5272
3.91279
-11.8227
-11.8384
6.04118
3.54372
4.96943
5.17343
-14.0774
4.66677
6.34163
4.56859
-15.2728
1.72878
5.26548
2.33073
-5.69272
-8.66855
1.81016
3.12514
-9.96043
5.77148
0.23059
-10.5049
3.99513
-1.25717
-11.7208
6.45219
-11.3584
5.41992
3.83362
5.80359
2.66943
-6.13355
-9.75831
4.3668
6.23893
-12.3526
4.23017
5.28342
5.31445
1.17154
-3.99294
2.33229
2.07314
6.52883
3.54486
2.16654
3.6403
1.75161
5.73426
-9.15035
-14.6144
2.12072
-11.8264
1.77295
-13.8023
-11.442
-13.2162
-10.0635
6.37259
4.99787
-14.852
5.32536
4.68175
-10.5982
3.70072
4.46729
-11.7489
-14.4162
4.5652
-9.71177
2.0736
-11.2862
1.87227
5.43093
-2.02835
1.43094
-13.7916
3.99672
5.41555
1.30985
3.66558
-7.70491
0.419019
4.19857
-12.2288
1.32774
-12.172
1.59921
-14.0219
4.03299
5.32174
2.87055
6.35763
-15.9402
-9.4001
-14.7448
2.03881
-13.342
-10.3852
6.5024
-14.5011
-0.760382
5.50107
-15.6174
-10.7967
4.13971
1.81975
1.94276
-13.5488
2.62377
5.70873
-10.9844
-14.6548
1.33224
-13.5227
-11.5252
2.70948
1.57402
-3.14557
1.76003
-15.3591
1.84922
5.35246
2.75597
-10.0921
2.1468
-1.69956
-12.1046
2.41394
-1.54756
-5.81465
5.37225
-11.8645
4.99814
-15.8107
4.85524
2.76914
3.71736
5.8752
3.11469
3.35596
5.03689
1.86149
5.86888
-12.4825
-14.7068
3.15153
-15.9076
2.20209
2.84969
4.03858
4.4343
3.83186
-6.67281
5.73943
-3.68688
-12.7113
-5.66583
-13.4261
6.48762
4.72309
-12.8092
4.73338
2.3863
3.84974
2.63652
3.00229
-10.1219
4.62702
5.38597
2.3377
1.63159
1.59091
-4.99163
-1.17421
-2.14121
-12.6792
3.13168
2.63335
4.50367
3.75662
2.36632
3.01592
1.65615
2.76791
5.24251
4.98848
5.72254
-2.39915
-12.7091
-10.9475
1.76366
5.16058
-1.68528
-9.8912
-10.726
2.06151
3.14844
1.15003
5.2729
2.40268
1.76176
-10.0895
-1.31372
2.57559
3.37198
4.07654
1.8356
-12.1273
2.16832
4.2258
2.96966
3.54033
-11.1024
6.11878
-7.49819
6.31839
1.83279
1.87272
5.03322
-11.0193
-0.245284
4.14384
-13.3572
-14.4094
0.691829
5.56431
3.63325
-10.8381
-14.1955
-13.6729
2.91156
-14.9416
5.42525
8.45765
-9.69075
-10.5201
2.54096
3.03644
-2.03205
-4.60586
5.24758
2.17348
-10.6863
2.68318
6.4953
3.61429
4.69038
4.64233
6.29319
5.46967
5.06386
-12.4928
4.47386
2.27342
1.96652
5.24441
0.274317
1.80246
-15.7015
-1.28655
-1.17079
5.56606
4.84927
4.21357
5.98608
3.8955
2.70263
-14.8681
5.09902
1.84458
6.42979
1.44982
3.48255
1.95727
5.1613
-12.8667
2.34643
-14.104
4.12938
7.80033
4.81316
4.17461
5.61122
-11.4919
4.68242
1.98689
5.26606
4.87777
-10.324
3.10476
5.07496
-13.3513
-13.4596
2.34137
-11.0321
5.47998
-12.9359
5.43977
-13.6531
5.56619
-3.144
2.99534
-11.7324
1.39491
-10.4148
-9.80365
-10.4135
0.926872
-13.6159
2.882
2.11851
2.90571
-11.5096
4.87932
1.95206
-15.3652
-10.8162
-11.9329
5.75437
-13.9155
1.91088
4.19493
2.48941
-0.510842
5.1221
-5.55169
4.2097
3.42911
5.77452
5.77689
5.12605
-13.9388
5.13976
6.3405
-10.8885
-0.739722
2.10938
2.86857
-10.3072
4.73943
4.8134
-12.4682
5.42154
-2.4427
-3.40588
4.72813
1.56485
-15.4644
3.10789
5.05055
5.49852
2.43272
5.41017
3.3382
-13.0598
2.21489
-10.8591
1.28219
1.76556
-10.9311
0.251363
1.03133
5.16386
2.23165
3.47449
2.22992
-12.1099
-11.5852
5.2536
4.10148
3.3746
-11.1563
1.78645
-1.61077
2.22192
1.77038
5.19117
6.04921
-2.41058
1.77405
-14.0177
-12.0505
5.28359
-9.21849
7.15511
-14.1833
-0.503048
2.51521
4.34654
1.77152
4.34754
4.015
-10.6911
-5.92817
-13.2556
-10.6947
-15.2755
4.57232
2.25303
-4.37443
2.32539
-2.92714
-13.2044
5.289
-10.5504
-14.4406
-9.56129
4.90258
2.19248
3.10384
5.22808
-13.1862
5.55335
-12.3925
4.87819
5.93858
1.70696
-10.8875
-11.7159
3.39329
5.74109
6.53904
5.02714
4.03038
-1.1572
-14.7019
4.21031
2.72385
-11.854
5.35943
-12.5234
5.53523
3.36357
5.89925
-11.136
4.719
3.11651
5.20661
5.34637
1.43904
3.64601
-10.6906
1.51692
3.17322
4.11458
2.91317
-14.9951
2.39261
2.12255
-6.32839
-11.2826
1.75721
-13.7357
5.29
-10.1674
-15.6508
4.68757
1.50018
3.82877
3.47908
2.02407
-13.8219
-0.684607
5.66976
2.48085
-7.18674
-6.49221
-9.09205
-13.373
0.498127
6.15246
-11.9861
1.76238
2.68091
2.91299
5.52
-13.8706
-13.4132
4.48305
-14.0208
4.7656
-15.0151
-1.40205
-10.4031
-13.6239
-10.2434
3.39235
1.51304
5.2351
1.78357
-16.1195
-5.22368
5.60986
-0.942292
2.08388
-11.8754
5.12337
-4.1718
-5.87055
-10.3149
1.76093
-11.8997
1.12857
-13.4272
-11.377
5.41708
2.01822
4.04018
6.43102
3.5103
-4.89998
5.28841
3.57742
-12.6634
2.04889
0.907498
1.38194
4.52002
6.02968
-13.8519
-14.0875
1.22314
-11.2956
3.00578
4.89091
4.02473
-11.689
-12.573
-12.0907
3.65123
4.78164
4.90034
-10.6088
1.19795
-0.850204
3.36805
-13.4322
3.57118
1.25884
-15.3891
4.93453
5.88327
1.80866
3.79176
3.20661
6.66964
-3.28237
3.90516
4.89559
-12.3933
3.672
-10.361
-10.9834
1.33871
-6.01835
6.20524
-10.3698
6.33743
-10.6421
2.84687
4.74358
5.71107
6.03848
4.11229
0.601998
7.09148
-15.4372
3.832
4.84994
3.67349
-13.675
4.77135
4.64407
3.91413
-14.2927
3.27881
-9.7918
-8.72614
6.94997
6.29161
-2.59518
-13.2092
-13.8699
-1.91722
5.65002
1.82972
-12.497
-12.0841
-10.981
-10.0216
4.7308
4.13684
3.42985
1.428
6.56574
5.26051
5.31777
2.16498
5.09713
-13.9266
4.31318
-14.597
5.08902
3.35946
-5.35619
3.43787
-15.5466
1.54251
2.14936
2.94282
3.05319
5.73838
2.1182
-5.18779
0.332017
3.59414
-3.2809
-13.4252
-9.97154
5.76662
0.243923
-10.5664
-13.8727
-12.4604
-13.1102
-9.58306
5.44232
4.30965
4.09315
2.96901
-14.1774
-13.1537
2.08336
5.63351
1.58553
6.44785
-10.1081
3.64418
-14.6805
2.82343
2.00763
3.35712
-11.0557
3.54269
-15.2982
-11.5022
1.21527
1.24657
3.33607
6.00701
1.81352
2.61473
-4.05468
5.57633
5.16322
3.11993
4.99245
1.43042
-11.853
-1.58054
-3.47322
-6.09689
-13.0085