/*--------------------------------*- C++ -*----------------------------------*\
  =========                 |
  \\      /  F ield         | OpenFOAM: The Open Source CFD Toolbox
   \\    /   O peration     | Website:  https://openfoam.org
    \\  /    A nd           | Version:  10
     \\/     M anipulation  |
\*---------------------------------------------------------------------------*/
FoamFile
{
    format      ascii;
    class       surfaceScalarField;
    location    "1350";
    object      phi;
}
// * * * * * * * * * * * * * * * * * * * * * * * * * * * * * * * * * * * * * //

dimensions      [0 3 -1 0 0 0 0];

internalField   nonuniform List<scalar> 
16133
(
2.15862
0.754611
-1.06298
-1.85014
-2.256
2.19884
-2.58375
2.6409
-0.859257
-3.35983
2.59714
1.62195
0.363511
-0.792568
-3.95363
4.38271
-1.43105
0.444587
5.90907
-4.92258
5.45092
1.69365
-7.03524
-0.109325
-3.59911
1.08841
2.1529
0.357796
-0.0838085
-3.18718
0.859383
2.41161
-1.71887
2.48635
1.82139
-2.58887
0.538316
4.25657
0.00766767
-4.80254
3.41797
-3.04872
2.28604
-2.65528
4.50403
-1.91271
1.71339
-4.30471
-0.262707
-4.41179
2.62704
2.04745
0.879491
-0.757115
0.699166
-0.821543
0.972842
0.794229
-0.887581
-1.59082
1.14409
-3.70707
4.1538
-0.707579
0.605646
-0.655185
-5.86909
1.26158
4.30242
0.305084
-4.21209
3.40175
-0.908529
0.627235
2.50218
-0.970796
-0.722887
2.74284
-2.32706
0.30711
0.0344086
-3.68828
4.01738
-4.13307
4.20798
-1.66572
5.81867
-4.77403
-0.12579
-0.918855
-4.64101
5.54876
-0.369423
-0.00247184
0.00280254
-0.0743746
0.0740438
0.0375881
-0.00570592
-0.0237659
-0.00811626
-0.206591
-2.43784
2.20737
0.437065
-0.029141
0.0526718
-0.0215044
-0.00202638
-4.60004
2.98753
3.3007
-1.05725
-5.27872
3.03527
-2.51536
2.37718
3.55615
0.963462
-2.86837
1.8211
-0.0471126
0.157099
0.0032161
-0.113203
-2.90367
-2.84319
2.99802
2.74884
-1.13419
1.98852
1.4019
-2.25623
-2.3897
-4.40326
3.88929
-0.0500549
0.0854743
-0.100259
0.0648398
0.0438083
0.0920471
-0.0236945
-0.112161
-4.17839
0.84084
-0.874543
-4.8077
0.215327
-3.57748
-0.88088
-0.924158
-0.367695
0.122959
1.16889
-1.27326
3.41574
0.829423
-2.97191
4.47397
-1.87335
-4.99031
2.55615
-0.915858
0.566622
0.0766041
-0.435318
-0.362078
0.627066
0.17033
1.98505
1.24156
-0.740259
3.82799
-3.50608
-0.287502
-1.64339
-2.26668
-5.52532
5.80376
-4.18457
3.90613
0.125194
0.0424982
-0.123884
-0.0233847
0.036827
0.0453659
-0.0588082
-0.0168838
0.0515972
0.0573337
-0.0210029
-0.0185441
0.010406
3.96998
-2.14686
-6.22638
-0.0684774
-0.0822131
0.124157
0.0265338
-0.514538
0.767423
-0.577884
0.324998
3.68295
0.0764535
0.0171865
0.0315536
2.12568
-1.78551
-2.59617
0.0891592
-0.00457899
-0.00127583
-0.0833042
2.59536
-4.8002
4.3244
-2.11956
2.02077
-1.67987
-4.16066
2.73815
-1.93731
-0.464012
-0.247283
0.196757
-0.00846022
0.294279
-0.0269659
-0.258853
1.11403
2.48819
-4.1592
0.299718
-0.914546
0.0265174
0.00435668
-0.0542587
0.109301
-0.0316932
0.0118768
-0.0894845
-0.957566
0.459539
1.56855
-1.07052
2.10914
-3.44593
-2.82388
0.798914
-1.16268
1.33661
-0.822979
-1.02504
1.12634
0.72168
-4.82328
1.53939
-0.87531
-2.17713
1.34977
1.91577
-1.84803
1.65538
1.15611
1.22826
-1.1036
0.674251
4.30207
-4.0535
0.35689
-0.605477
1.87271
-1.60558
-0.835843
0.568704
0.0552342
0.122542
-0.135278
0.0463038
0.0535802
-0.063057
4.79462
0.241128
-0.7337
-1.85426
1.53938
1.39977
-1.08489
1.85556
-1.55408
-1.69276
1.39127
3.51355
-3.00674
-1.78008
1.0049
-0.474842
0.651964
-1.18201
2.19577
-1.75274
1.41253
4.1
1.25806
-1.84451
5.41877
-2.11135
2.15005
0.477272
1.28679
-1.3388
1.05692
2.60058
-1.703
1.29818
-2.14493
-0.843513
0.783365
4.57303
0.0623857
0.592912
-0.892672
-0.862921
0.780555
-0.452837
0.439706
-4.38926
4.77334
-0.327453
-0.0566055
1.20482
-1.08675
4.72746
-4.65429
1.28658
-1.35974
1.27209
-1.69756
1.29139
0.82957
4.91388
-1.01598
0.720174
2.42244
0.354849
0.24095
-0.466466
-0.634394
6.25516
-0.826148
1.29153
-0.745425
0.682155
-0.266544
-3.12964
-0.109896
-4.38356
-1.70178
-1.41565
-0.816321
0.626388
-0.790984
0.666861
-0.102641
-3.50326
-3.23465
-0.464946
4.50397
0.734306
1.69553
-2.95739
-2.2258
3.40311
-4.47369
-0.127167
4.13591
2.21966
2.77756
-0.493242
0.59782
-0.175811
-1.24499
2.03344
-2.09066
-0.864053
0.534693
2.1455
-1.81612
-3.28234
3.56294
2.34901
-2.62959
-0.0524101
0.121698
0.00752217
-0.0768103
-0.228122
0.777153
1.23472
-1.41405
6.18873
-5.00982
-0.0639303
0.051736
-0.0125951
0.0247895
1.51162
-1.59852
-2.98219
-2.8155
-2.82636
-0.957422
0.648055
-0.01504
0.1174
0.00694085
-0.0576775
0.145683
0.0937556
-0.181761
-0.66746
0.848646
-2.32611
-0.00928895
4.45438
-2.45611
-2.81128
0.406055
-0.871379
0.56227
-3.8194
5.24676
-0.0892124
-0.149212
-0.225587
-0.848513
2.82541
-5.74354
3.76664
4.24903
0.921435
-0.944203
0.913515
-0.890747
1.92892
-2.06168
1.23933
-4.16929
-0.894916
0.717829
-0.530495
3.62632
1.66602
-6.14086
-0.529417
0.150688
-0.0565888
-1.64264
-5.49454
2.22452
-1.87497
4.37854
2.07319
5.07659
2.42083
-0.172836
0.0430443
0.295113
-0.165322
3.95503
1.96128
-2.35336
0.840666
-2.30006
2.63362
2.68499
-3.01855
6.51929
1.61315
-3.00859
-5.12384
-0.859274
0.601017
-3.84464
4.11048
4.77107
-4.71142
-0.694045
-0.703971
1.29517
4.4586
3.94979
-2.51719
1.92337
-2.27455
-4.41341
0.0515374
4.2347
-3.4498
2.61839
-1.95844
2.78984
-4.7025
-5.84123
-0.35258
-3.44776
0.483211
-0.517938
-0.922839
-0.000892097
0.0132902
-0.0108682
-0.00152989
-0.547749
0.576517
4.50854
-4.37085
1.52833
-1.86054
-3.02327
-2.47428
-0.689521
0.652693
-0.0896192
0.126448
-2.77319
0.0496041
-0.0229239
0.103968
-0.0283718
-5.42171
-0.374191
-3.49957
1.86274
0.101327
-0.0772837
-0.826697
-1.5767
2.81048
-3.41091
3.23117
3.96448
3.90647
3.74347
-2.87862
0.146952
0.0550602
-0.146778
-0.0708598
-0.00811057
1.18197
-2.58955
1.61796
-2.04648
2.4461
-2.90877
-0.508963
0.740384
-0.723145
-1.70054
0.0605037
2.20299
1.15282
0.1697
-0.00964326
-0.210111
-3.10896
2.63966
0.186697
-1.16136
1.46167
-2.77986
4.18671
-1.50949
-0.187161
0.0903073
0.0432574
-0.0444055
4.41876
-0.241838
0.00198665
-0.289566
2.73964
2.01791
4.46656
0.0347667
0.0019292
-0.940703
0.836988
-0.891
1.39518
0.131306
-0.131093
-0.166238
0.166024
-0.0603057
0.0578338
0.526928
0.0888418
-0.0571183
-0.0546475
0.678503
-0.199448
0.173637
0.242091
-0.162224
-0.169079
0.970936
-0.0859225
-1.43276
-0.025702
-0.094366
0.160995
-0.0409275
2.37465
0.0587175
-0.0634841
0.00476654
-0.460705
-1.44445
3.90383
-5.27642
1.14452
0.811879
0.483385
-0.460393
-0.112611
-2.40921
-0.00158829
1.35151
-5.2329
-0.0688767
0.0625526
0.0316364
-0.0253123
-0.429519
-5.00066
-0.0965595
-0.0184841
0.0893415
-3.93015
-0.770791
-2.8769
5.5596
-2.5519
-0.0279412
-0.141949
0.0755245
0.248157
-0.30215
0.1853
-0.0222071
-0.0336085
0.0348128
-2.17263
1.89673
-0.615126
2.16405
1.26367
-0.981618
-0.000164328
-0.0074892
0.00765348
-1.50772
-2.94899
0.0147285
-0.0269906
0.0122621
1.31874
-4.03294
0.882738
1.28964
-0.608735
1.33973
0.0104604
0.00426816
0.489912
-0.166517
-0.2077
0.348745
0.238863
-1.03089
1.60975
-0.293947
-0.673725
4.24062
0.17184
-0.0624449
0.0375568
-0.87972
0.21713
-1.01441
1.34874
-2.35966
-0.547734
2.37984
-0.821542
3.99046
0.0534695
0.00436426
0.764052
-4.18434
1.55214
-0.799193
-2.18608
1.33443
0.786377
0.358378
-2.31453
1.55993
-0.166289
-0.0307167
0.0659119
6.13378
-0.0803678
0.0490444
0.0647351
-0.0674757
-0.0875614
0.129291
-2.95247
0.101954
0.0923205
-0.104062
0.0215048
0.0270102
-0.0485151
-1.07623
-3.73253
4.51645
-0.408349
0.227629
0.273053
-2.07668
0.00486267
-0.00502701
-1.45789
-4.5458
0.248983
0.0479161
0.073312
-0.0721839
0.211513
-0.172346
-0.0308242
-2.80004
-0.155065
-3.17743
-1.68598
-0.00548581
0.131217
0.29914
-0.117471
-0.662892
-0.0313461
0.0389819
-0.0122148
0.0540931
0.159397
-0.15843
-0.357323
-2.34965
-3.38758
0.0502534
0.003216
0.213549
-2.08442
0.0451793
1.34636
-0.0525318
0.0604184
0.0602601
0.0641724
-0.0765164
0.640406
0.16145
-0.0385693
0.0197084
-0.0296535
-0.00543247
0.00840362
-0.132098
0.220925
-0.085611
0.00842717
0.00972569
0.0525078
-0.00225438
0.0065569
-0.0174251
0.177742
0.0379229
0.00651519
-0.0128017
-0.169873
1.80814
-1.32021
1.16745
0.00891955
-0.0807579
-0.0231311
0.304364
-0.405456
-0.610791
0.945964
0.618228
-1.46786
-1.12592
-0.022745
0.0345025
-0.0543603
0.0401109
-0.0684407
0.00205167
0.014029
0.0131463
-0.00175939
0.0542672
-0.110725
-0.0607425
1.81808
-0.012077
0.0461566
-1.82236
0.52855
-1.49363
-0.673312
-0.0905554
0.00362112
-0.0267522
-0.0548412
0.0177781
-0.0467435
0.0599239
-0.020237
0.627568
-0.853092
-1.03277
0.867114
-0.0982167
-1.54913
-0.341499
-0.0413392
-0.0258811
-1.53449
-0.900824
-0.0330387
-0.0337954
0.0335615
0.130725
-0.445765
0.0433552
0.0197847
-0.058351
1.16786
-0.0196417
0.0208613
0.0149605
0.0557565
3.16071
0.240883
-0.1974
-0.766302
-0.1942
-0.941884
-0.00393956
0.117382
-0.113443
-0.00844409
0.122263
-0.117758
-0.0129192
0.133349
-0.128874
-0.0177835
0.142719
-0.137855
-0.0227999
0.15248
-0.147464
-0.0281317
0.161318
-0.155986
-0.0336126
0.170014
-0.164533
-0.039278
0.178208
-0.172542
0.186055
-0.180529
-0.0448039
-0.00357012
0.120952
-0.00759323
0.126286
-0.0115829
0.137339
-0.0159196
0.147056
-0.0203381
0.156898
-0.0250187
0.165999
-0.0298283
0.174823
-0.034774
0.183153
0.191104
-0.0398235
-0.00341257
0.124365
-0.00680642
0.12968
-0.0102585
0.140791
-0.0139761
0.150773
-0.0177907
0.160713
-0.0217959
0.170004
-0.0259116
0.178939
-0.0301421
0.187384
0.195436
-0.0344737
-0.0030833
0.127448
-0.00595183
0.132548
-0.00886351
0.143702
-0.0119571
0.153867
-0.0151506
0.163906
-0.0184913
0.173345
-0.0219302
0.182378
-0.0254853
0.190939
0.199135
-0.0291845
-0.00264218
0.13009
-0.00499736
0.134904
-0.00736346
0.146069
-0.00985266
0.156356
-0.0124253
0.166479
-0.0151175
0.176037
-0.0179136
0.185174
-0.0208387
0.193864
0.202217
-0.0239204
-0.00207879
0.132169
-0.00392524
0.13675
-0.00576034
0.147904
-0.00766892
0.158265
-0.00963934
0.16845
-0.0117066
0.178104
-0.013865
0.187333
-0.0161459
0.196145
0.204659
-0.0185883
-0.00127854
0.133448
-0.00269278
0.138164
-0.00405144
0.149262
-0.00543624
0.159649
-0.00683681
0.16985
-0.00829871
0.179566
-0.00984609
0.18888
-0.0115066
0.197806
0.206477
-0.0133246
-0.000276344
0.133724
-0.00138121
0.139269
-0.00232227
0.150203
-0.0032151
0.160542
-0.0040805
0.170716
-0.0049803
0.180466
-0.00594469
0.189845
-0.00701692
0.198878
0.207646
-0.00818573
0.000544177
0.13318
-0.000233319
0.140047
-0.000727218
0.150697
-0.00113273
0.160948
-0.00148345
0.171066
-0.00184621
0.180829
-0.00227309
0.190271
-0.00279215
0.199397
0.208299
-0.00344516
0.000871376
0.132308
0.000549394
0.140369
0.000600023
0.150647
0.00071839
0.160829
0.000873842
0.170911
0.000988408
0.180714
0.0010292
0.190231
0.000955686
0.19947
0.208485
0.00076998
0.000809444
0.131499
0.00105918
0.140119
0.00169818
0.150008
0.00232449
0.160203
0.00293319
0.170302
0.00345473
0.180192
0.00387129
0.189814
0.0041401
0.199202
0.208389
0.00423604
0.000756392
0.130742
0.0016104
0.139265
0.00272317
0.148895
0.00375374
0.159172
0.00469813
0.169358
0.00553707
0.179354
0.0062377
0.189113
0.00679804
0.198641
0.208075
0.00711202
0.00113363
0.129609
0.00245133
0.137947
0.00380727
0.147539
0.00505295
0.157927
0.00619262
0.168218
0.00720421
0.178342
0.00807392
0.188244
0.00877722
0.197938
0.20752
0.00933168
0.00184042
0.127768
0.00344824
0.136339
0.00488849
0.146099
0.0062088
0.156606
0.00741376
0.167013
0.0084795
0.177276
0.00939553
0.187328
0.0101349
0.197198
0.206948
0.0107073
0.00254735
0.125221
0.00436655
0.13452
0.00583139
0.144634
0.00714565
0.155292
0.00833783
0.165821
0.00939925
0.176215
0.0103045
0.186422
0.0110221
0.196481
0.206405
0.0115654
0.00292349
0.122297
0.00495998
0.132483
0.00645767
0.143136
0.00777576
0.153974
0.008961
0.164635
0.0100086
0.175167
0.0108953
0.185536
0.0115968
0.195779
0.205881
0.0121203
0.00271298
0.119584
0.0049992
0.130197
0.00663827
0.141497
0.00805012
0.152562
0.00929331
0.163392
0.0103767
0.174084
0.0112739
0.184638
0.0119826
0.195071
0.205414
0.0124496
0.00216032
0.117424
0.004574
0.127783
0.00643786
0.139633
0.00803047
0.150969
0.00940562
0.162017
0.0105796
0.17291
0.0115409
0.183677
0.0122763
0.194335
0.20493
0.0127601
0.00169815
0.115726
0.00407106
0.12541
0.00610167
0.137602
0.00788828
0.149183
0.00944173
0.160464
0.0107718
0.17158
0.0118687
0.18258
0.0127307
0.193473
0.204301
0.0133597
0.00144845
0.114277
0.00372332
0.123136
0.00584475
0.135481
0.00780018
0.147227
0.00954126
0.158722
0.0110612
0.17006
0.012344
0.181297
0.0133757
0.192441
0.203535
0.014142
0.00134927
0.112928
0.00358274
0.120902
0.00577478
0.133289
0.00787941
0.145123
0.009816
0.156786
0.0115544
0.168321
0.0130656
0.179786
0.0143034
0.191203
0.202632
0.015206
0.00142899
0.111499
0.00368365
0.118647
0.00595071
0.131022
0.00819177
0.142882
0.0103337
0.154644
0.0123281
0.166327
0.0141293
0.177985
0.0156569
0.189676
0.201413
0.0168764
0.00179077
0.109708
0.00405453
0.116384
0.00638147
0.128695
0.008745
0.140518
0.0111026
0.152286
0.0133925
0.164037
0.0155666
0.175811
0.0174622
0.18778
0.199991
0.0188844
0.00244199
0.107266
0.00466301
0.114163
0.00701691
0.126341
0.0095102
0.138025
0.0120968
0.1497
0.0146993
0.161434
0.0173193
0.173191
0.0196582
0.185441
0.198694
0.0209545
0.00320379
0.00520528
0.00766255
0.0104092
0.0133311
0.0163351
0.0196527
0.0233334
0.0278274
-0.0893214
-0.00128658
0.0906079
-0.0878767
-0.00144463
-0.0862616
-0.00161513
-0.0844603
-0.00180128
-0.0824644
-0.00199595
-0.0802653
-0.00219907
-0.0778559
-0.00240943
-0.0752327
-0.00262313
-0.0723896
-0.00284311
-0.0693283
-0.0030613
-0.0660497
-0.00327865
-0.0625582
-0.0034915
-0.0588608
-0.00369736
-0.0549627
-0.00389806
-0.0508749
-0.00408776
-0.0466062
-0.00426872
-0.0421718
-0.00443441
-0.0375877
-0.00458404
-0.0328777
-0.00471003
-0.0280719
-0.0048057
-0.0232131
-0.00485884
-0.0183626
-0.00485048
-0.0135954
-0.00476709
-0.0089818
-0.00461361
-0.00451058
-0.00447118
-7.21488e-05
-0.00443842
0.00446682
-0.00453894
0.00925458
-0.00478775
0.0143573
-0.0051027
0.0196902
-0.00533289
0.025137
-0.00544682
0.0306159
-0.00547887
0.0360707
-0.00545473
0.0414499
-0.0053792
0.0467068
-0.00525681
0.0518025
-0.0050957
0.0567031
-0.00490057
0.0613793
-0.00467619
0.0658119
-0.00443261
0.0699875
-0.00417556
0.0739039
-0.00391637
0.0775673
-0.00366341
0.0809886
-0.00342127
0.0841866
-0.00319799
0.0871786
-0.00299194
0.0899876
-0.00280901
0.0926289
-0.0026412
0.0951194
-0.00249049
0.097467
-0.00234762
0.099676
-0.00220893
0.101749
-0.00207298
0.103683
-0.00193362
0.10548
-0.00179757
0.107139
-0.00165829
0.108659
-0.0015204
0.110045
-0.00138586
0.111298
-0.00125344
0.112431
-0.00113232
-0.00101202
-0.0883569
-0.00264971
0.08972
-0.0868845
-0.00291706
-0.085294
-0.0032056
-0.0835755
-0.00351979
-0.0817232
-0.00384827
-0.0797233
-0.00419896
-0.0775684
-0.00456426
-0.075244
-0.00494756
-0.0727412
-0.00534591
-0.0700496
-0.00575286
-0.0671599
-0.00616841
-0.064065
-0.00658636
-0.0607569
-0.00700541
-0.0572372
-0.00741785
-0.0535043
-0.0078206
-0.0495615
-0.00821149
-0.0454153
-0.00858062
-0.0410758
-0.00892359
-0.0365522
-0.0092336
-0.0318577
-0.00950019
-0.0270013
-0.00971518
-0.0219785
-0.0098733
-0.0167666
-0.00997903
-0.0113237
-0.0100564
-0.00565605
-0.0101388
0.000162459
-0.0102569
0.00604101
-0.0104175
0.0118728
-0.0106195
0.0176142
-0.0108441
0.0233046
-0.0110233
0.0289727
-0.0111149
0.0346076
-0.0111138
0.0401774
-0.0110245
0.0456519
-0.0108537
0.050998
-0.0106029
0.0561868
-0.0102845
0.0611918
-0.00990558
0.0659965
-0.00948088
0.0705839
-0.00902002
0.074945
-0.00853671
0.079072
-0.00804335
0.0829572
-0.00754858
0.0866028
-0.00706688
0.0900068
-0.00660197
0.0931719
-0.00615705
0.0961021
-0.00573917
0.0988051
-0.00534414
0.101284
-0.00496909
0.103552
-0.0046162
0.105622
-0.00427899
0.107508
-0.00395839
0.109224
-0.00365007
0.110786
-0.00335965
0.112214
-0.00308571
0.113517
-0.00282314
0.114713
-0.00258188
0.11581
-0.00235085
0.11682
-0.00214278
-0.00194993
-0.0964008
-0.00417054
0.0979216
-0.0947605
-0.00455728
-0.0929933
-0.00497285
-0.0910963
-0.0054168
-0.089053
-0.00589151
-0.0868543
-0.00639768
-0.084488
-0.00693055
-0.0819469
-0.00748866
-0.0792194
-0.0080734
-0.0762953
-0.00867698
-0.0731657
-0.00929805
-0.0698236
-0.00992847
-0.0662637
-0.0105653
-0.0624806
-0.011201
-0.0584707
-0.0118305
-0.0542381
-0.0124441
-0.04978
-0.0130388
-0.0451019
-0.0136017
-0.0402074
-0.014128
-0.0350999
-0.0146078
-0.0297786
-0.0150365
-0.0242432
-0.0154087
-0.0184936
-0.0157286
-0.0125429
-0.0160071
-0.00642351
-0.0162583
-0.000180999
-0.0164994
0.00613698
-0.0167354
0.0124783
-0.0169609
0.0187885
-0.0171543
0.0250469
-0.0172817
0.0312476
-0.0173156
0.0373763
-0.0172425
0.0434115
-0.0170597
0.0493254
-0.0167676
0.0550961
-0.0163735
0.060699
-0.0158874
0.0661122
-0.0153188
0.0713182
-0.0146869
0.0763034
-0.0140052
0.081053
-0.0132863
0.0855603
-0.0125506
0.0898198
-0.0118081
0.0938275
-0.0110745
0.0975795
-0.010354
0.101083
-0.00966055
0.104336
-0.00899168
0.107345
-0.00835379
0.110121
-0.00774526
0.112674
-0.00716846
0.115015
-0.00662037
0.117157
-0.0061001
0.119112
-0.00560563
0.1209
-0.0051478
0.122535
-0.00471987
0.124031
-0.00431976
0.1254
-0.00395101
0.126661
-0.00361115
0.127815
-0.0032972
-0.00300872
-0.103013
-0.00573351
0.104576
-0.101327
-0.00624384
-0.0995024
-0.00679703
-0.0975315
-0.00738768
-0.0954061
-0.00801687
-0.0931161
-0.00868774
-0.0906518
-0.00939483
-0.0879986
-0.0101418
-0.0851505
-0.0109216
-0.0820963
-0.0117311
-0.0788277
-0.0125666
-0.0753304
-0.0134258
-0.0716001
-0.0142957
-0.0676252
-0.0151758
-0.0634046
-0.0160511
-0.0589298
-0.0169189
-0.0542019
-0.0177666
-0.0492208
-0.0185828
-0.0439881
-0.0193607
-0.0385066
-0.0200893
-0.0327797
-0.0207634
-0.0268122
-0.0213762
-0.0206137
-0.0219271
-0.0142051
-0.0224157
-0.00761604
-0.0228473
-0.000888861
-0.0232266
0.00592481
-0.0235491
0.0127729
-0.023809
0.0196098
-0.0239912
0.0264039
-0.0240757
0.0331326
-0.0240443
0.0397756
-0.0238855
0.0463095
-0.0235936
0.0527123
-0.0231705
0.0589572
-0.0226184
0.0650236
-0.0219537
0.0708911
-0.0211863
0.0765337
-0.0203295
0.0819345
-0.019406
0.087082
-0.0184337
0.091963
-0.0174316
0.0965686
-0.0164138
0.100892
-0.0153981
0.104932
-0.014394
0.108684
-0.0134128
0.11216
-0.0124673
0.115361
-0.0115548
0.118304
-0.0106883
0.120996
-0.00986053
0.123459
-0.00908363
0.125709
-0.00834982
0.127762
-0.00765834
0.129627
-0.00701303
0.131328
-0.00642089
0.13288
-0.00587173
0.134298
-0.00536859
0.135591
-0.00490475
0.136772
-0.00447746
-0.00409173
-0.112007
-0.00744034
0.113714
-0.110154
-0.00809774
-0.108149
-0.00880142
-0.105984
-0.00955268
-0.103649
-0.0103524
-0.101134
-0.0112019
-0.0984278
-0.0121015
-0.0955239
-0.0130458
-0.0924102
-0.0140352
-0.0890766
-0.0150647
-0.0855135
-0.0161298
-0.0817121
-0.0172271
-0.0776634
-0.0183444
-0.0733625
-0.0194767
-0.0687995
-0.0206142
-0.0639722
-0.0217461
-0.0588784
-0.0228604
-0.0535149
-0.0239463
-0.0478865
-0.0249892
-0.0419933
-0.0259825
-0.0358454
-0.0269113
-0.0294516
-0.02777
-0.0228279
-0.0285508
-0.0159953
-0.0292483
-0.00898525
-0.0298574
-0.00183698
-0.0303749
0.00540759
-0.0307937
0.0127051
-0.0311065
0.0200137
-0.0312998
0.027297
-0.031359
0.0345236
-0.0312709
0.0416637
-0.0310256
0.048688
-0.0306179
0.0555712
-0.0300537
0.0622886
-0.0293358
0.0688099
-0.0284749
0.0751118
-0.0274883
0.0811742
-0.0263919
0.0869765
-0.0252082
0.0925053
-0.0239626
0.0977432
-0.0226695
0.102687
-0.0213575
0.107328
-0.0200387
0.111667
-0.0187331
0.115708
-0.0174536
0.119452
-0.0162113
0.122913
-0.0150161
0.126099
-0.0138742
0.129025
-0.0127865
0.131703
-0.011762
0.134154
-0.0108006
0.136396
-0.0099008
0.138449
-0.0090656
0.140318
-0.00828985
0.142023
-0.00757703
0.143577
-0.00692246
0.144994
-0.00632158
0.146288
-0.00577117
-0.00526773
-0.12048
-0.00923068
0.122271
-0.118537
-0.010041
-0.116435
-0.0109035
-0.11416
-0.0118274
-0.111699
-0.0128135
-0.109046
-0.0138549
-0.106188
-0.0149599
-0.103112
-0.0161216
-0.0998069
-0.0173403
-0.0962645
-0.0186072
-0.0924723
-0.0199219
-0.0884223
-0.0212772
-0.0841025
-0.0226641
-0.0795052
-0.0240741
-0.0746255
-0.0254939
-0.0694588
-0.0269129
-0.0640021
-0.0283171
-0.058261
-0.0296874
-0.052235
-0.0310152
-0.0459321
-0.0322854
-0.0393585
-0.0334849
-0.0325299
-0.0345987
-0.0254632
-0.0356176
-0.0181833
-0.0365281
-0.0107226
-0.0373181
-0.00311835
-0.0379792
0.00458897
-0.038501
0.0123595
-0.038877
0.0201532
-0.0390935
0.0279318
-0.0391375
0.0356609
-0.0390001
0.0433043
-0.038669
0.0508303
-0.0381439
0.0582104
-0.0374337
0.0654114
-0.0365369
0.0724083
-0.0354719
0.0791737
-0.0342536
0.0856745
-0.0328927
0.0918937
-0.0314275
0.0978111
-0.02988
0.103417
-0.0282754
0.108697
-0.026638
0.113652
-0.0249932
0.118276
-0.0233571
0.122575
-0.0217529
0.126555
-0.020191
0.130224
-0.0186848
0.133594
-0.0172448
0.136685
-0.0158769
0.13951
-0.0145878
0.142093
-0.0133828
0.144447
-0.0122555
0.146593
-0.0112112
0.148548
-0.010245
0.15033
-0.00935904
0.151949
-0.00854152
0.153422
-0.00779444
0.154766
-0.00711504
-0.00648835
-0.130086
-0.0111468
0.132002
-0.128003
-0.0121239
-0.125743
-0.0131635
-0.123296
-0.014275
-0.12065
-0.0154594
-0.117791
-0.0167141
-0.114708
-0.0180423
-0.111389
-0.019441
-0.107827
-0.0209025
-0.104005
-0.0224284
-0.099919
-0.0240082
-0.0955584
-0.0256379
-0.0909114
-0.0273111
-0.0859714
-0.029014
-0.0807332
-0.0307321
-0.075194
-0.032452
-0.0693486
-0.0341626
-0.0632096
-0.0358264
-0.0567759
-0.0374489
-0.0500581
-0.0390032
-0.0430607
-0.0404823
-0.0358019
-0.0418574
-0.028301
-0.0431185
-0.0205781
-0.044251
-0.0126734
-0.0452228
-0.00462111
-0.0460315
0.00353618
-0.0466583
0.0117649
-0.0471057
0.0200267
-0.0473554
0.0282812
-0.047392
0.0364956
-0.0472144
0.0446233
-0.0467967
0.052631
-0.0461517
0.0604897
-0.0452924
0.0681598
-0.044207
0.0756194
-0.0429315
0.0828375
-0.0414717
0.089765
-0.0398202
0.0963921
-0.0380546
0.102697
-0.0361846
0.10867
-0.0342487
0.114296
-0.0322643
0.119574
-0.0302707
0.124498
-0.028281
0.129077
-0.0263325
0.133316
-0.02443
0.137225
-0.022594
0.140814
-0.0208333
0.144102
-0.0191646
0.147107
-0.0175932
0.149845
-0.0161208
0.152345
-0.0147555
0.154619
-0.0134855
0.156689
-0.0123149
0.15857
-0.0112399
0.160281
-0.0102524
0.161837
-0.00935028
0.16325
-0.00852808
-0.00777159
-0.139747
-0.0131779
0.141778
-0.137548
-0.0143233
-0.135165
-0.015546
-0.132577
-0.016863
-0.129777
-0.0182591
-0.126744
-0.0197474
-0.123475
-0.0213108
-0.119945
-0.0229712
-0.116138
-0.0247102
-0.112067
-0.0264993
-0.107708
-0.0283668
-0.103053
-0.0302934
-0.0980933
-0.0322705
-0.0928182
-0.0342891
-0.0872261
-0.0363242
-0.0813072
-0.0383709
-0.0750574
-0.0404124
-0.0685124
-0.0423714
-0.0616694
-0.0442919
-0.0545323
-0.0461402
-0.0471
-0.0479147
-0.0394026
-0.0495548
-0.0314621
-0.051059
-0.0232698
-0.0524433
-0.014905
-0.0535876
-0.00638719
-0.0545493
0.0022236
-0.0552691
0.0109191
-0.0558012
0.0196555
-0.0560918
0.0283867
-0.0561233
0.0370951
-0.0559229
0.0457042
-0.0554057
0.0541853
-0.0546328
0.0625368
-0.0536439
0.0706708
-0.052341
0.0786002
-0.0508609
0.0863096
-0.0491811
0.0936692
-0.0471798
0.10071
-0.0450959
0.107414
-0.0428885
0.113765
-0.0405989
0.119756
-0.0382555
0.125357
-0.0358721
0.13058
-0.0335042
0.135456
-0.0312079
0.139947
-0.028921
0.144098
-0.0267448
0.147902
-0.0246375
0.15136
-0.0226227
0.154506
-0.0207395
0.157366
-0.0189808
0.159965
-0.0173544
0.162323
-0.0158437
0.164462
-0.0144536
0.166402
-0.0131799
0.168165
-0.0120148
0.169762
-0.010947
0.171217
-0.00998356
-0.00909691
-0.150266
0.152403
-0.0153153
-0.147931
-0.0166582
-0.145398
-0.0180787
-0.142634
-0.0196267
-0.139639
-0.0212547
-0.136375
-0.0230113
-0.132838
-0.024848
-0.129059
-0.0267495
-0.125004
-0.0287654
-0.120582
-0.0309217
-0.115897
-0.033051
-0.1109
-0.0352908
-0.105541
-0.0376298
-0.099904
-0.039926
-0.0939001
-0.0423281
-0.0876352
-0.0446358
-0.0810431
-0.0470045
-0.0740931
-0.0493214
-0.0667723
-0.0516126
-0.0591877
-0.0537248
-0.0513009
-0.0558015
-0.0432031
-0.0576527
-0.0348524
-0.0594096
-0.0261872
-0.0611085
-0.0173565
-0.0624183
-0.00838835
-0.0635175
0.000642672
-0.0643001
0.00981203
-0.0649706
0.019059
-0.0653387
0.0282299
-0.0652942
0.0374315
-0.0651244
0.046534
-0.0645083
0.0554469
-0.0635457
0.0642996
-0.0624967
0.0729448
-0.0609861
0.0813573
-0.0592734
0.0894248
-0.0572485
0.0971287
-0.0548837
0.104642
-0.0526091
0.111747
-0.0499939
0.118484
-0.0473355
0.124883
-0.0446544
0.130857
-0.0418464
0.136437
-0.0390844
0.141623
-0.0363937
0.146393
-0.0336911
0.150766
-0.0311175
0.154741
-0.028613
0.15844
-0.0263211
0.1618
-0.0240999
0.16483
-0.0220109
0.167561
-0.0200849
0.170015
-0.0182981
0.172257
-0.0166961
0.174285
-0.0152074
0.176109
-0.0138391
0.177757
-0.0125952
0.179186
-0.0114122
-0.0104397
-0.0596215
0.0111064
-0.0696282
0.0100066
-0.0785568
0.00892863
-0.086221
0.00766419
-0.0928179
0.00659687
-0.0988069
0.00598899
-0.104441
0.00563418
-0.109789
0.00534835
-0.114862
0.00507271
-0.11932
0.00445745
-0.122551
0.00323092
-0.12426
0.00170986
-0.124587
0.00032676
-0.12396
-0.000627185
-0.122949
-0.00101151
-0.121775
-0.00117336
-0.120217
-0.00155856
-0.117976
-0.00224042
-0.115095
-0.0028809
-0.111788
-0.00330735
-0.108165
-0.00362292
-0.104257
-0.00390756
-0.100061
-0.00419686
-0.095596
-0.00446462
-0.00498807
-0.0636158
0.0204635
-0.072843
0.0192338
-0.0815131
0.0175987
-0.0896567
0.0158077
-0.0972816
0.0142218
-0.104295
0.013002
-0.110653
0.011993
-0.11631
0.0110054
-0.121086
0.00984834
-0.124842
0.00821318
-0.12766
0.00604935
-0.129598
0.00364721
-0.130616
0.00134514
-0.130661
-0.000582598
-0.129709
-0.00196323
-0.127913
-0.00296894
-0.125533
-0.00393883
-0.122763
-0.00501087
-0.119598
-0.00604552
-0.115953
-0.00695229
-0.111813
-0.00776269
-0.107169
-0.00855175
-0.101991
-0.00937468
-0.0961624
-0.0102935
-0.0114305
-0.0692051
0.0308603
-0.0791526
0.0291813
-0.0885998
0.0270459
-0.097538
0.0247459
-0.105834
0.0225179
-0.113316
0.0204837
-0.119879
0.0185563
-0.125458
0.0165841
-0.129999
0.0143896
-0.133586
0.0118001
-0.136356
0.00881933
-0.138372
0.00566287
-0.139636
0.00260976
-0.140094
-0.000125224
-0.139639
-0.00241763
-0.138255
-0.00435357
-0.136077
-0.0061168
-0.133267
-0.0078204
-0.129884
-0.00942865
-0.12592
-0.0109163
-0.121379
-0.0123042
-0.116276
-0.0136542
-0.110641
-0.0150103
-0.104503
-0.0164312
-0.0180116
-0.0745383
0.0423416
-0.0853461
0.0399891
-0.0955546
0.0372543
-0.105133
0.0343238
-0.113963
0.0313483
-0.121895
0.0284158
-0.128819
0.0254799
-0.13468
0.0224453
-0.139479
0.0191885
-0.143304
0.0156251
-0.146274
0.0117895
-0.148452
0.00784135
-0.149831
0.00398801
-0.150367
0.0004108
-0.149981
-0.00280277
-0.148664
-0.00567111
-0.146481
-0.00829949
-0.14354
-0.010762
-0.13989
-0.0130782
-0.135562
-0.0152443
-0.130563
-0.0173029
-0.12492
-0.0192975
-0.118657
-0.0212729
-0.111825
-0.0232638
-0.0252605
-0.0798861
0.0547519
-0.091612
0.051715
-0.102626
0.0482681
-0.112884
0.0445816
-0.122279
0.0407435
-0.1307
0.036837
-0.138058
0.0328374
-0.144316
0.0287033
-0.14949
0.024363
-0.153651
0.0197859
-0.156889
0.015027
-0.159258
0.0102102
-0.160751
0.00548198
-0.161341
0.00100024
-0.160994
-0.00314976
-0.159691
-0.00697398
-0.157473
-0.0105172
-0.154417
-0.0138182
-0.150579
-0.0169168
-0.145999
-0.019824
-0.140718
-0.022584
-0.134783
-0.0252327
-0.128256
-0.0278
-0.121216
-0.0303035
-0.0327621
-0.0853455
0.0679134
-0.0979595
0.064329
-0.109776
0.0600849
-0.120738
0.0555429
-0.130742
0.0507482
-0.139712
0.045807
-0.147565
0.0406896
-0.154282
0.0354211
-0.159884
0.0299649
-0.164417
0.0243181
-0.167954
0.0185646
-0.170531
0.0127872
-0.172153
0.00710404
-0.172807
0.00165398
-0.172462
-0.00349436
-0.171131
-0.0083052
-0.168849
-0.012799
-0.165659
-0.0170085
-0.161624
-0.0209523
-0.156784
-0.0246636
-0.151193
-0.0281749
-0.144894
-0.0315316
-0.137935
-0.0347589
-0.130366
-0.0378725
-0.0408579
-0.0907743
0.0821712
-0.104386
0.0779412
-0.117041
0.072739
-0.128743
0.0672452
-0.139405
0.0614101
-0.148976
0.0553784
-0.15736
0.0490736
-0.164569
0.0426299
-0.170611
0.0360064
-0.175525
0.0292321
-0.179373
0.0224127
-0.182187
0.0156014
-0.183958
0.00887469
-0.184679
0.00237492
-0.184361
-0.00381251
-0.183008
-0.00965753
-0.180653
-0.015154
-0.177345
-0.0203167
-0.173134
-0.0251641
-0.168084
-0.029713
-0.162243
-0.0340163
-0.155669
-0.0381052
-0.148396
-0.0420314
-0.140485
-0.0457835
-0.0493411
-0.0963579
0.0977712
-0.111001
0.0925844
-0.124464
0.0862016
-0.136925
0.0797067
-0.148276
0.072761
-0.15849
0.0655926
-0.16743
0.0580136
-0.175139
0.0503386
-0.181644
0.0425109
-0.186941
0.034529
-0.191094
0.0265664
-0.194164
0.0186712
-0.196092
0.0108021
-0.196899
0.00318225
-0.196608
-0.00410391
-0.195228
-0.0110376
-0.192801
-0.0175806
-0.18937
-0.0237481
-0.184986
-0.0295478
-0.17972
-0.0349786
-0.173625
-0.0401114
-0.16677
-0.0449603
-0.159152
-0.0496498
-0.150809
-0.0541269
-0.0583714
-0.102482
0.114643
-0.117897
0.107999
-0.132033
0.100337
-0.145264
0.0929376
-0.157341
0.0848387
-0.168268
0.0765188
-0.177768
0.0675141
-0.185981
0.0585515
-0.19296
0.0494895
-0.198671
0.0402401
-0.203105
0.0310007
-0.206416
0.0219826
-0.208535
0.0129205
-0.209415
0.00406228
-0.209148
-0.00437072
-0.207744
-0.0124414
-0.205233
-0.0200922
-0.201696
-0.0272853
-0.197122
-0.034122
-0.191576
-0.0405245
-0.185204
-0.0464833
-0.178034
-0.0521304
-0.170046
-0.0576375
-0.161517
-0.0626558
-0.0674856
1.32899
2.96515
0.0349645
-3.0001
1.36474
-0.180701
-1.18405
0.265971
-0.3649
0.0989286
0.329506
-0.397994
0.0684881
-0.628688
-0.504749
1.13344
-0.484758
0.769115
-0.284357
2.77592
-3.38202
0.606109
-0.0370148
-0.192994
0.230009
5.23472
-3.56202
-1.67271
-0.885213
1.9076
-1.02239
-0.815597
0.262376
0.553221
1.25101
-2.02768
0.776674
-1.32852
0.387584
0.940934
0.110153
-0.111105
0.000951122
5.16477
-5.03262
-0.132148
0.0147021
1.35004
0.131173
-0.0254048
-0.105768
-0.130131
-0.142422
0.381121
0.240891
-0.622011
-0.335643
0.218266
0.117377
3.07116
2.15083
-5.222
-0.657718
0.916513
-0.258795
1.32781
-1.0934
-0.234409
-0.994218
0.381699
0.61252
1.18146
0.146352
-1.19771
0.802474
0.395237
-0.694937
0.0946523
0.600285
5.30556
-2.87083
-2.43474
-0.0287547
-0.140337
0.169092
0.131293
0.533855
-0.665148
-1.42248
0.568115
0.854359
0.869368
0.684638
-1.55401
3.08486
-5.45265
2.3678
-0.28438
-0.0717855
0.356166
0.00316014
1.63962
-1.64278
-0.911562
-0.416956
-2.99139
1.51539
1.47599
-0.306525