/*--------------------------------*- C++ -*----------------------------------*\
  =========                 |
  \\      /  F ield         | OpenFOAM: The Open Source CFD Toolbox
   \\    /   O peration     | Website:  https://openfoam.org
    \\  /    A nd           | Version:  10
     \\/     M anipulation  |
\*---------------------------------------------------------------------------*/
FoamFile
{
    format      ascii;
    class       volVectorField;
    location    "1350";
    object      U;
}
// * * * * * * * * * * * * * * * * * * * * * * * * * * * * * * * * * * * * * //

dimensions      [0 1 -1 0 0 0 0];

internalField   nonuniform List<vector> 
10435
(
(1.96707 0.792064 3.3234e-22)
(2.72164 1.74388 -2.60982e-20)
(4.55263 -0.409866 -3.19665e-20)
(3.23927 0.627565 6.98491e-20)
(4.16558 0.636711 -3.55026e-20)
(4.06891 -0.232085 2.53778e-19)
(4.54999 -0.373333 -1.14324e-19)
(4.17096 -0.364005 6.75717e-20)
(3.57805 -0.361569 2.28392e-19)
(4.29368 -0.455566 -7.36721e-20)
(3.22093 1.60769 -7.03627e-20)
(4.09371 -0.0199418 1.68416e-19)
(4.17129 -0.459522 8.00569e-20)
(0.877256 0.689557 -7.35177e-21)
(0.986657 0.749835 -8.74626e-21)
(4.44118 -0.395211 -8.57671e-21)
(0.778601 0.616284 2.35563e-21)
(3.90805 -0.470955 2.68911e-19)
(3.24487 -0.352707 -9.25155e-20)
(2.1815 0.743041 -8.91363e-21)
(4.3306 -0.376798 4.93187e-20)
(3.08296 0.365427 -1.09419e-19)
(4.54114 -0.406016 3.43676e-19)
(3.53133 -0.35681 -1.01584e-19)
(4.48868 -0.426335 8.64019e-20)
(0.245316 0.407935 -1.83771e-22)
(0.037779 0.16123 -2.71385e-22)
(4.4294 -0.41747 6.87854e-20)
(0.194992 0.0173988 -2.75516e-25)
(4.06921 -0.472802 3.64375e-19)
(4.59899 -0.36038 1.44504e-19)
(3.4464 1.48496 -6.47667e-21)
(4.0323 -0.362847 -1.42923e-19)
(0.441945 0.0474128 7.71677e-22)
(4.06053 -0.383495 7.92587e-20)
(1.88607 1.60742 4.30127e-21)
(4.24301 -0.385587 1.15538e-19)
(0.144783 0.340044 -4.28093e-23)
(0.381347 0.380889 -2.28016e-22)
(3.36281 -0.344182 2.81238e-20)
(3.91335 -0.476263 -3.96192e-19)
(4.56049 -0.394096 -9.31663e-20)
(0.591929 0.707966 -9.03898e-21)
(2.73539 0.844576 -9.21223e-20)
(4.43648 -0.379172 -2.46968e-19)
(3.46282 -0.351573 1.66476e-19)
(4.01278 -0.361711 -2.93421e-19)
(0.425151 0.567157 -2.60086e-20)
(3.51123 -0.391969 7.34733e-20)
(2.93356 0.113083 -3.7695e-20)
(4.2015 -0.3769 -1.04937e-20)
(4.53911 -0.202134 1.15912e-18)
(0.422148 0.401583 -5.59231e-22)
(0.284151 -0.0882313 7.38406e-23)
(0.339838 0.388553 6.21441e-23)
(0.144872 -0.023468 -7.15187e-24)
(4.06022 -0.367268 -3.43761e-19)
(0.147498 0.275435 5.8764e-22)
(0.648363 0.358508 -9.80603e-22)
(3.82608 -0.359911 2.2173e-19)
(0.380035 0.413331 4.38433e-22)
(2.44836 1.74461 1.36864e-20)
(0.158228 0.182729 -1.48596e-22)
(4.4915 -0.0377505 -9.73194e-20)
(4.50886 -0.402156 -4.71722e-19)
(4.55218 -0.43663 2.45194e-19)
(0.586336 0.241125 2.46291e-21)
(0.317316 0.341146 1.79365e-21)
(4.30044 -0.364497 -8.89453e-20)
(3.49842 -0.338872 7.76444e-21)
(0.234852 -0.118364 -3.72906e-22)
(0.184673 0.401102 1.15094e-22)
(0.700471 0.800141 3.79939e-20)
(4.58579 -0.420779 -3.12453e-19)
(1.10802 0.80386 -3.81097e-21)
(0.752626 0.880389 3.82353e-21)
(3.48705 -0.325089 4.21096e-19)
(4.52695 -0.354402 2.8e-19)
(3.90562 -0.365036 2.029e-20)
(1.17273 0.685484 2.11696e-20)
(3.23892 -0.119382 4.60651e-20)
(1.76788 0.648262 4.29875e-22)
(0.461559 0.422137 9.08936e-22)
(0.325422 -0.0642999 -6.63243e-23)
(3.35197 -0.207208 -9.0781e-20)
(1.6142 1.31821 4.7754e-20)
(1.81459 1.1863 3.96993e-21)
(2.85802 1.13235 1.95903e-20)
(1.25365 1.04414 -2.65178e-21)
(2.06145 1.21743 -4.57237e-22)
(3.12625 1.04805 -1.47569e-20)
(3.41593 0.930028 -1.76442e-20)
(1.95024 0.596285 3.02716e-21)
(1.40567 1.09287 1.68796e-20)
(2.32163 1.21934 7.97102e-21)
(1.62591 1.48908 2.278e-20)
(3.63517 0.747941 2.2892e-19)
(1.06371 0.903424 5.95394e-21)
(0.742512 0.458052 -2.75109e-21)
(3.96139 0.666628 -2.18205e-19)
(1.15059 0.969061 1.22111e-20)
(3.96878 0.581124 -1.393e-19)
(1.59174 1.14117 -1.10056e-20)
(2.58751 1.18948 -5.28594e-21)
(4.02438 0.347044 -8.77281e-21)
(2.99047 0.750912 2.2303e-22)
(2.1445 0.520655 2.1024e-21)
(3.10222 -0.0157083 5.09974e-20)
(3.44081 -0.255702 -1.20571e-19)
(1.29994 0.699716 -5.98288e-21)
(2.7492 0.225425 -1.42125e-20)
(3.89989 0.830911 -6.68146e-20)
(1.59786 0.677901 -7.49586e-21)
(1.44309 0.697389 -5.28246e-21)
(3.779 0.873102 -1.24744e-19)
(2.86403 0.486743 3.03214e-20)
(4.10089 0.458143 -1.23222e-19)
(1.85657 1.39788 -3.94406e-21)
(2.96215 1.42122 -9.94232e-20)
(3.95877 0.32865 -3.2276e-20)
(4.20321 0.279779 -3.807e-19)
(0.798027 0.950168 3.9725e-21)
(2.12469 1.45885 -5.34623e-21)
(1.16919 1.30255 -7.06981e-20)
(3.48687 1.54505 1.7429e-20)
(0.318679 0.416561 1.20219e-22)
(3.80959 0.519799 2.18727e-19)
(0.89446 1.05691 -8.24204e-21)
(4.20928 0.536485 -2.41981e-19)
(0.0755241 0.340857 8.4936e-23)
(1.01436 1.17365 2.15922e-20)
(3.30435 1.70461 -1.27316e-19)
(4.31176 -0.38471 -1.24278e-19)
(1.05501 0.654669 1.49664e-20)
(0.156733 0.374265 3.30317e-23)
(0.596964 0.507359 1.31077e-22)
(1.61182 1.62495 6.35892e-20)
(3.45448 0.461554 -1.14907e-20)
(2.68572 1.47206 2.74365e-20)
(2.63352 0.587177 2.39656e-20)
(2.40403 0.674116 2.25161e-21)
(4.5644 -0.37269 -5.19277e-19)
(0.516459 0.153532 7.95692e-21)
(4.50253 -0.102531 1.09474e-18)
(3.28115 0.225964 1.69295e-20)
(0.930848 0.958169 3.65612e-20)
(1.37213 1.46538 -2.00772e-20)
(4.39821 -0.0925688 -3.41622e-19)
(0.738169 0.707464 1.32716e-20)
(4.39319 -0.145641 6.74745e-20)
(0.376283 0.532354 6.40788e-22)
(4.3354 -0.35892 2.16554e-19)
(2.00533 0.991005 8.94334e-22)
(4.47972 -0.192237 4.77153e-19)
(4.42396 -0.293689 -3.00658e-19)
(0.323791 0.480468 4.51705e-22)
(3.64229 1.32648 1.99398e-19)
(2.40504 1.48475 7.37655e-21)
(4.33108 -0.374602 -2.57965e-19)
(2.89531 1.92739 -1.73307e-20)
(4.48087 -0.304982 -8.80651e-20)
(0.950329 0.606734 -3.07972e-21)
(3.50839 1.19371 1.50276e-19)
(3.73569 -0.0914847 1.11947e-19)
(1.24584 0.829941 1.22149e-20)
(4.35192 0.298972 8.68484e-19)
(3.93562 -0.371924 -2.21515e-19)
(3.79184 0.147967 -1.0322e-19)
(3.89941 -0.269229 1.62026e-19)
(4.49639 0.0436081 -1.55061e-18)
(4.52927 -0.384441 2.95854e-19)
(0.655297 0.712092 -1.16409e-20)
(0.0164368 0.0842103 -1.10787e-22)
(1.03002 1.00294 -7.11046e-23)
(4.24164 -0.226546 -2.49813e-19)
(2.66639 1.97117 -1.17084e-20)
(2.16608 1.69692 1.43871e-20)
(0.526042 0.550544 4.21113e-21)
(2.55236 0.330274 8.92693e-21)
(0.25036 0.0639551 -8.66526e-23)
(2.98054 1.69451 3.99129e-20)
(4.1009 -0.0770765 -4.26024e-20)
(4.29179 -0.075036 -5.88229e-19)
(0.364302 0.431557 1.47156e-22)
(4.52156 -0.345265 7.35021e-20)
(0.543508 0.671136 1.40939e-20)
(0.708413 0.841328 -3.41796e-20)
(4.48774 -0.353419 -2.20593e-19)
(4.2323 0.452615 8.63952e-20)
(4.58498 -0.160244 -7.61632e-19)
(4.20466 0.129233 8.60424e-20)
(0.496908 0.444279 9.46487e-22)
(0.105244 0.368815 8.33156e-23)
(1.88212 1.77808 -4.46218e-20)
(3.78297 1.08533 1.02612e-19)
(4.40452 -0.351648 1.29018e-20)
(0.716978 0.791972 3.50102e-20)
(1.40729 1.23345 -1.76679e-20)
(0.473125 0.574262 2.76505e-20)
(4.36474 -0.393964 1.78799e-19)
(1.24304 0.935209 -1.47143e-20)
(0.20948 0.392344 1.6684e-21)
(4.33132 -0.435649 -1.98762e-20)
(0.193811 0.349458 1.5772e-21)
(4.47693 -0.432946 -7.51425e-20)
(3.86914 0.963514 -2.19694e-21)
(3.22789 1.33485 1.22507e-19)
(3.63824 0.294742 -6.71888e-20)
(0.224926 0.167498 -5.21449e-22)
(3.45018 0.092514 -5.27333e-20)
(0.441378 0.56204 -4.38996e-21)
(4.57162 -0.403523 -4.46714e-19)
(4.36905 0.0679924 8.8544e-19)
(3.90713 -0.139341 6.62854e-20)
(0.0660932 0.144307 3.44088e-22)
(0.837172 0.784758 -3.69156e-20)
(1.41053 0.82881 3.93317e-21)
(0.465522 0.499804 -6.75899e-22)
(0.233182 0.392116 -8.53036e-23)
(0.852075 0.539863 2.79424e-21)
(0.298975 0.0281594 -9.35829e-23)
(0.586798 0.512336 7.59941e-21)
(0.424576 0.190086 -4.16276e-21)
(1.07077 1.11447 -6.98965e-20)
(0.268654 0.439159 -6.58991e-23)
(4.20987 -0.386571 -5.61475e-20)
(0.291325 0.384021 7.22366e-23)
(1.23643 1.14748 7.65116e-21)
(4.61426 -0.299879 8.46458e-19)
(0.85399 0.981378 -3.62129e-20)
(0.452602 0.425802 -2.43912e-20)
(4.07097 -0.37474 2.47172e-19)
(0.264745 0.389622 2.70986e-22)
(4.24144 -0.329655 2.56081e-19)
(0.0559113 0.274615 1.59502e-22)
(0.678631 0.542233 -1.29777e-20)
(3.91864 -0.357828 -3.09105e-19)
(0.235588 0.419837 -9.02585e-23)
(3.8551 -0.338124 -1.96495e-20)
(4.60761 -0.389738 4.76152e-21)
(2.48526 0.916014 2.71026e-20)
(0.320711 0.448039 4.93951e-23)
(0.496776 0.539073 1.37618e-22)
(0.195469 -0.0467581 -4.49428e-23)
(3.69719 1.12134 -2.64767e-19)
(3.78687 -0.37125 7.79365e-20)
(1.39948 1.36057 -7.68855e-20)
(4.37649 -0.338504 7.3453e-20)
(0.0513647 -0.0178025 -3.30475e-22)
(2.41845 1.95763 6.45385e-21)
(0.116544 -0.0758836 -6.47e-22)
(1.4051 0.954161 -1.30584e-20)
(4.17747 -0.464118 -1.39535e-19)
(3.59706 -0.022078 -9.99981e-20)
(4.44146 -0.324243 -1.90131e-19)
(4.38404 0.230533 3.7637e-19)
(0.0649434 -0.0478069 1.40147e-21)
(4.48262 -0.331879 2.70412e-19)
(0.402943 0.517468 3.41298e-22)
(0.292784 0.446887 -6.71062e-21)
(4.5184 -0.340318 1.38082e-20)
(4.57206 -0.341542 9.90338e-22)
(0.287709 0.426946 2.50671e-23)
(3.62285 -0.26805 -2.41875e-19)
(1.57641 0.827289 2.83699e-21)
(0.548198 0.399391 1.45148e-20)
(2.24076 0.965574 4.12178e-21)
(4.59263 -0.405517 2.80114e-19)
(0.444497 0.455478 -2.21205e-22)
(4.03257 0.775329 4.64612e-20)
(4.53509 -0.351338 1.30145e-24)
(4.22671 -0.335941 -3.8939e-20)
(4.38729 -0.324726 -2.77885e-20)
(4.51058 -0.447595 -3.1372e-19)
(0.198319 0.397918 3.67094e-22)
(4.06486 0.19137 -1.58638e-19)
(0.113256 0.336809 -1.92328e-22)
(3.98225 0.918627 3.58294e-20)
(4.44572 -0.37674 7.15805e-20)
(4.11366 -0.34899 1.55828e-20)
(4.31403 -0.476351 1.60611e-19)
(0.611981 0.67921 -4.52829e-20)
(4.53187 -0.364882 -8.33958e-21)
(1.12869 1.06859 -5.83692e-21)
(1.57741 0.975941 -6.48523e-21)
(0.520003 0.498847 -3.68568e-22)
(4.32201 0.227305 5.80467e-20)
(0.322776 0.371062 -2.46682e-22)
(0.370378 -0.0401055 -3.54861e-22)
(0.365011 0.0475336 1.83472e-22)
(1.20103 1.23029 7.53239e-20)
(3.10719 1.84057 1.30623e-19)
(0.29376 0.132034 2.2863e-22)
(4.3066 -0.326857 7.49663e-20)
(0.366224 0.354714 -7.89285e-23)
(0.191804 -0.121503 -1.50581e-21)
(0.829537 0.885724 -8.17603e-22)
(1.76404 0.818003 1.737e-21)
(3.8117 1.1544 -6.44848e-21)
(4.59812 -0.415012 1.86229e-19)
(0.38704 0.452707 3.65425e-20)
(3.81915 -0.329319 -8.11781e-20)
(4.50715 -0.374706 -2.86005e-21)
(0.0299633 0.0137447 -4.05099e-22)
(3.63738 1.34892 -7.16321e-20)
(0.942184 0.851805 2.10077e-20)
(0.644447 0.623761 1.758e-20)
(4.13565 -0.314902 -1.74993e-20)
(4.58256 -0.423017 -2.48886e-21)
(0.413983 -0.0220301 1.15872e-22)
(2.3451 0.432282 6.43641e-21)
(0.218344 0.412175 1.31028e-21)
(2.15503 1.89297 1.10967e-20)
(4.34048 0.0782332 -1.76542e-19)
(3.74564 -0.360337 -3.81904e-20)
(0.155299 -0.10079 -3.29116e-22)
(0.382941 0.456848 -3.70411e-22)
(4.57402 -0.255885 -9.41309e-19)
(0.390871 0.317067 3.21172e-22)
(3.9322 0.0463815 1.26196e-19)
(4.03808 0.116272 -6.7177e-20)
(0.138186 0.115707 -1.26941e-22)
(1.78133 0.991423 -1.45088e-21)
(0.532466 0.467654 6.24096e-22)
(3.97829 -0.350827 -8.8608e-21)
(4.3797 -0.452312 -7.02041e-20)
(0.171274 0.400433 2.54274e-22)
(4.46992 -0.385413 -3.84321e-22)
(0.479119 0.288679 -6.25879e-22)
(0.0977486 0.273753 -5.6716e-23)
(3.67493 -0.356704 1.82552e-21)
(0.448118 0.0982896 -4.06524e-22)
(0.452344 -0.0067915 2.13676e-22)
(4.54275 -0.38657 1.01688e-20)
(4.35879 -0.261901 2.24017e-19)
(0.205503 0.262251 -1.65973e-21)
(0.147935 -0.0823433 -5.13209e-22)
(0.0637556 -0.0373271 -2.96121e-22)
(0.50139 0.0338597 1.55332e-22)
(0.0430199 0.0563318 -2.46201e-23)
(0.147946 0.393391 -6.30215e-22)
(0.242661 0.434803 5.94052e-22)
(0.415899 0.430663 -4.24373e-23)
(0.0164625 0.0868253 4.4326e-22)
(0.0203818 0.0478196 -6.4102e-22)
(0.30309 0.473721 -8.33915e-22)
(0.266275 0.246371 5.54677e-22)
(0.00823613 0.235462 1.52863e-22)
(0.563426 0.487701 -8.16934e-22)
(3.8413 -0.370592 -5.0305e-20)
(0.481749 0.0105444 5.48157e-22)
(4.47645 -0.459031 8.40988e-21)
(0.0193419 0.130082 -1.85231e-22)
(4.41243 -0.399475 -1.56876e-21)
(3.87491 -0.362799 2.27005e-20)
(3.44668 -0.381506 -1.91802e-20)
(4.11686 -0.457502 -4.26373e-21)
(4.58709 -0.415852 -1.99627e-19)
(0.240174 -0.0671934 1.8583e-22)
(0.387459 0.00352461 -7.33682e-22)
(0.103653 -0.057414 -6.72904e-23)
(0.277796 0.401762 5.38974e-22)
(0.0711736 0.0282673 -1.02577e-23)
(0.484101 0.47747 3.76227e-22)
(0.0905685 0.108708 1.37603e-22)
(0.125273 0.38121 -3.6972e-22)
(0.256204 0.354496 -6.15608e-21)
(4.09994 -0.181803 -1.8656e-20)
(0.132228 0.386235 -3.2828e-22)
(3.70365 -0.37751 5.66196e-20)
(0.304076 0.393403 -2.69183e-22)
(0.103165 0.363122 5.28726e-22)
(3.98289 -0.49422 -3.48653e-20)
(3.25587 -0.402564 -5.96179e-20)
(0.550655 0.529714 3.60548e-21)
(0.0132233 0.177644 -7.1052e-22)
(0.108976 0.195661 -2.2027e-22)
(0.0244123 0.205287 8.32803e-23)
(0.33513 -0.0138552 1.56395e-22)
(0.207359 0.407573 -9.73173e-23)
(0.00616119 0.221902 9.61262e-22)
(0.344049 0.402479 -9.53375e-23)
(4.02102 -0.35672 -1.47805e-20)
(0.335673 0.219427 -1.22895e-21)
(4.27877 -0.343266 8.49316e-21)
(3.74477 -0.365734 7.87997e-20)
(4.3291 -0.416383 -7.84825e-22)
(4.22453 -0.439601 6.84203e-20)
(3.61474 -0.370025 -3.53248e-20)
(4.48035 -0.399143 -2.26609e-20)
(3.90686 -0.369234 -5.00047e-20)
(0.966468 1.07946 1.99821e-21)
(0.538734 0.631409 -5.98939e-21)
(0.241253 -0.0135489 1.16278e-22)
(0.187674 -0.0958121 -2.21329e-22)
(4.51561 -0.39101 3.15166e-20)
(0.283678 -0.0417125 -5.40968e-22)
(4.00919 -0.472342 -1.63692e-19)
(0.009867 0.245187 -4.99026e-23)
(0.189277 0.0939425 -4.33463e-23)
(0.0768665 0.334548 -1.50531e-22)
(0.36986 0.116656 -3.96112e-22)
(0.403069 0.488141 6.61015e-22)
(4.52391 -0.380665 3.90647e-19)
(0.07244 0.21114 1.95769e-22)
(4.15959 -0.348495 3.57542e-21)
(4.04107 -0.303195 -9.64565e-20)
(0.533175 0.583151 -4.92264e-22)
(0.176231 0.401418 4.76614e-23)
(0.0454454 0.276258 2.48033e-22)
(3.24249 -0.386806 7.65969e-20)
(0.0637354 0.309257 -5.15476e-22)
(0.152767 0.394282 7.80262e-23)
(0.332525 0.466522 -5.85632e-22)
(0.10733 0.00382288 -1.7854e-23)
(0.327448 0.453791 2.36327e-21)
(0.115729 0.0687736 2.06126e-23)
(4.51331 -0.410341 1.77491e-19)
(0.177372 -0.123249 -2.6772e-23)
(0.19684 0.404692 5.17297e-23)
(0.151569 0.0486909 -4.13447e-23)
(0.538149 0.0914693 -4.07116e-21)
(3.81072 -0.458919 -1.25026e-19)
(0.628267 0.60184 5.41794e-21)
(0.610352 0.53646 -1.0773e-20)
(2.9983 -0.382489 -1.09911e-19)
(0.436016 0.0144811 -2.46301e-22)
(0.433349 -0.379646 1.13787e-21)
(0.457075 -0.36907 -2.5475e-23)
(0.510153 -0.374346 -7.10183e-22)
(0.547593 -0.379076 3.69467e-22)
(0.587391 -0.383472 -4.16966e-22)
(0.619716 -0.386465 -1.30775e-21)
(0.650779 -0.388796 3.0653e-22)
(0.677297 -0.390721 3.9689e-22)
(0.702801 -0.391187 4.16148e-22)
(0.466744 -0.366895 -7.55541e-22)
(0.490105 -0.361046 -6.03871e-23)
(0.540214 -0.36524 5.98136e-22)
(0.577611 -0.370791 -1.14577e-21)
(0.615273 -0.375299 1.01908e-21)
(0.646809 -0.379054 1.76037e-21)
(0.676149 -0.381858 -1.11541e-21)
(0.7016 -0.384044 1.18194e-21)
(0.72427 -0.385072 -5.74676e-22)
(0.501433 -0.350144 2.14415e-21)
(0.521572 -0.347073 5.78856e-22)
(0.569174 -0.351496 -1.29408e-21)
(0.605812 -0.35802 6.65237e-22)
(0.641739 -0.363084 -1.70479e-21)
(0.672349 -0.367572 -2.62839e-22)
(0.700265 -0.371017 -3.03578e-23)
(0.724484 -0.373755 -5.86898e-22)
(0.74583 -0.375591 -9.65007e-22)
(0.533364 -0.331141 -1.03533e-21)
(0.550584 -0.329107 4.60725e-22)
(0.596174 -0.334089 1.02221e-21)
(0.632036 -0.3415 5.49262e-23)
(0.66653 -0.347258 7.64832e-22)
(0.696228 -0.352438 2.2754e-21)
(0.722963 -0.3565 -1.37928e-21)
(0.746198 -0.359747 2.23144e-22)
(0.766765 -0.362065 5.45522e-22)
(0.562478 -0.309491 1.39316e-22)
(0.576977 -0.30777 -2.17439e-22)
(0.620655 -0.313516 6.59435e-23)
(0.655822 -0.321563 -4.81277e-22)
(0.689191 -0.328041 2.30997e-22)
(0.71815 -0.333864 -5.18699e-22)
(0.744035 -0.338514 2.30076e-22)
(0.766645 -0.342257 9.50978e-22)
(0.786907 -0.344814 2.131e-22)
(0.588293 -0.28526 1.72658e-22)
(0.600372 -0.2835 -1.049e-21)
(0.642256 -0.290244 1.1111e-22)
(0.676918 -0.298597 1.157e-21)
(0.709453 -0.30571 -3.80605e-22)
(0.737874 -0.312076 -5.50503e-22)
(0.763192 -0.317289 -1.88057e-22)
(0.785448 -0.321551 -1.65357e-21)
(0.80544 -0.324785 8.7948e-22)
(0.609289 -0.259947 1.38604e-22)
(0.620495 -0.257026 7.90366e-22)
(0.660849 -0.264772 1.60567e-22)
(0.695245 -0.272922 -5.79582e-22)
(0.727176 -0.280463 1.24625e-22)
(0.755244 -0.287207 -2.18938e-22)
(0.780229 -0.292878 4.52968e-22)
(0.802312 -0.297583 -4.2767e-22)
(0.822234 -0.301345 -2.89714e-22)
(0.624123 -0.233526 -3.77521e-22)
(0.637854 -0.228574 7.39124e-22)
(0.676788 -0.237113 -1.53151e-22)
(0.710923 -0.244597 3.08933e-22)
(0.742332 -0.252344 -2.59336e-22)
(0.770176 -0.259284 7.94544e-22)
(0.795023 -0.265277 1.07417e-21)
(0.81712 -0.270372 -1.39788e-21)
(0.837252 -0.274114 4.15002e-22)
(0.633721 -0.202522 -5.29006e-23)
(0.653152 -0.196877 1.51345e-22)
(0.690386 -0.206345 8.19015e-23)
(0.723988 -0.21328 -3.62834e-22)
(0.754859 -0.221191 -1.07608e-22)
(0.782576 -0.228205 -3.13e-22)
(0.807451 -0.234361 -1.72944e-22)
(0.829762 -0.239579 1.47308e-21)
(0.850037 -0.24381 -1.56056e-22)
(0.640268 -0.164972 1.35914e-22)
(0.665878 -0.160731 -6.269e-22)
(0.70107 -0.171637 -3.19628e-22)
(0.734034 -0.178686 1.12255e-22)
(0.764515 -0.186869 -1.24894e-22)
(0.792295 -0.193863 5.22482e-22)
(0.817418 -0.199954 7.951e-23)
(0.840121 -0.205009 1.00447e-21)
(0.860827 -0.20889 -5.59986e-23)
(0.645056 -0.12282 -1.08351e-22)
(0.67454 -0.121064 -1.89346e-23)
(0.707668 -0.133632 2.06692e-22)
(0.74041 -0.141232 3.79327e-22)
(0.770965 -0.149599 -1.17569e-22)
(0.799162 -0.15636 -1.20701e-22)
(0.824859 -0.162081 -3.3411e-22)
(0.84829 -0.166594 -1.20968e-21)
(0.869727 -0.16991 -1.89469e-22)
(0.648343 -0.0798054 2.23281e-22)
(0.677947 -0.0810113 5.79415e-22)
(0.709621 -0.0943873 -4.29857e-22)
(0.742864 -0.102066 2.46763e-22)
(0.774076 -0.109999 -4.54256e-23)
(0.803059 -0.116056 7.7559e-22)
(0.829595 -0.120997 7.71982e-23)
(0.853915 -0.124623 -6.27287e-22)
(0.876341 -0.127822 -4.51482e-22)
(0.648041 -0.0396696 6.41045e-23)
(0.67574 -0.0432921 -1.23138e-22)
(0.707657 -0.0555949 2.55899e-23)
(0.741903 -0.0622143 1.6532e-22)
(0.774114 -0.068693 -1.1124e-22)
(0.804073 -0.0733383 -1.45632e-22)
(0.831556 -0.0768798 -2.68318e-22)
(0.85678 -0.0792804 4.9751e-22)
(0.880354 -0.0808409 -2.89187e-22)
(0.641663 -0.00279413 -9.61165e-23)
(0.669911 -0.00722465 -9.59149e-24)
(0.703015 -0.0172313 -9.23835e-23)
(0.738303 -0.0218201 2.66232e-22)
(0.771504 -0.0259726 -4.86458e-23)
(0.802409 -0.0285654 -2.83607e-23)
(0.830813 -0.0301635 -1.91855e-22)
(0.85694 -0.0308111 2.31e-23)
(0.881138 -0.0302197 1.76305e-22)
(0.63006 0.0331346 3.35771e-22)
(0.661129 0.0287011 -3.79181e-23)
(0.696151 0.0216178 5.22461e-22)
(0.732427 0.0195276 -7.65661e-22)
(0.766445 0.0181449 8.62456e-23)
(0.798131 0.0179598 2.79585e-22)
(0.82734 0.0186035 1.96748e-22)
(0.854334 0.0200714 2.82528e-22)
(0.879391 0.0225221 -9.94767e-22)
(0.612733 0.0703477 9.76359e-23)
(0.649333 0.0659417 -2.54123e-22)
(0.686917 0.0620467 -7.52063e-22)
(0.724118 0.062368 1.01519e-21)
(0.758767 0.063701 3.4595e-22)
(0.79105 0.0659272 -1.8334e-22)
(0.820898 0.0688431 -2.4867e-23)
(0.848521 0.0724751 7.6275e-22)
(0.873964 0.0765585 -3.26537e-22)
(0.59156 0.110125 6.58539e-22)
(0.63321 0.10585 -6.03356e-22)
(0.674323 0.104734 7.32777e-22)
(0.712644 0.106914 -4.93169e-22)
(0.747934 0.110507 -5.30825e-22)
(0.780759 0.114887 2.1049e-21)
(0.811165 0.119923 -1.39624e-21)
(0.839336 0.12568 -5.67015e-22)
(0.865636 0.131242 1.3511e-22)
(0.569996 0.150293 -8.45089e-22)
(0.612784 0.147057 8.28296e-22)
(0.657353 0.148635 -3.86239e-22)
(0.697162 0.15235 6.04241e-22)
(0.73334 0.157812 1.39947e-22)
(0.766836 0.164105 -1.66988e-21)
(0.797845 0.171126 1.51161e-22)
(0.826533 0.178849 -7.95529e-22)
(0.85331 0.186669 -1.01695e-21)
(0.548924 0.188089 -1.48166e-22)
(0.589493 0.186605 -1.84621e-22)
(0.636216 0.191485 -4.06529e-22)
(0.677516 0.197057 -1.72567e-21)
(0.714757 0.204379 4.32109e-22)
(0.74907 0.212507 7.20158e-22)
(0.780788 0.221391 8.36664e-22)
(0.810138 0.230864 1.04385e-21)
(0.837491 0.240696 -4.79136e-22)
(0.527402 0.222956 1.34491e-22)
(0.564393 0.223206 5.59191e-23)
(0.611915 0.231686 1.40579e-21)
(0.654197 0.23965 -1.17625e-22)
(0.692386 0.249049 6.98906e-22)
(0.727501 0.259118 -4.73111e-22)
(0.75992 0.269892 -3.3819e-21)
(0.789869 0.28117 -5.23686e-22)
(0.817728 0.292689 -5.70778e-23)
(0.504806 0.255391 2.94604e-22)
(0.537779 0.256831 -1.72889e-21)
(0.585254 0.268576 1.07315e-21)
(0.627841 0.279286 -1.33906e-21)
(0.666672 0.290957 1.01367e-21)
(0.70244 0.303112 -2.15549e-22)
(0.735507 0.315853 9.57589e-22)
(0.766111 0.328955 8.64913e-22)
(0.794362 0.342815 -2.79453e-22)
(0.481124 0.284798 5.7883e-22)
(0.509614 0.287316 1.64062e-21)
(0.556745 0.301757 -2.88265e-21)
(0.59898 0.315457 3.91343e-22)
(0.63804 0.329502 -2.71444e-21)
(0.674192 0.343831 7.95393e-22)
(0.707787 0.35856 3.09279e-22)
(0.739207 0.373426 -4.42395e-22)
(0.767635 0.390203 -2.34171e-22)
(0.456358 0.309268 -5.98325e-22)
(0.480249 0.314531 -1.37264e-21)
(0.527039 0.331254 1.51559e-21)
(0.568286 0.348155 1.63221e-21)
(0.607087 0.36455 1.83429e-21)
(0.643236 0.381022 -1.36105e-22)
(0.677082 0.397611 -5.93772e-22)
(0.709185 0.414285 1.79102e-21)
(0.738056 0.433287 -4.71249e-21)
(0.429977 0.328175 4.36903e-23)
(0.44965 0.338116 7.96175e-22)
(0.495496 0.356682 -4.14201e-22)
(0.535074 0.376666 7.76632e-22)
(0.5731 0.395247 -1.56767e-21)
(0.608928 0.413886 -4.6708e-22)
(0.642853 0.432298 2.49009e-21)
(0.676026 0.450881 -2.57643e-21)
(0.706083 0.474361 3.1301e-21)
(0.402151 0.343078 1.42347e-23)
(0.420441 0.361759 1.06373e-22)
(0.465429 0.383223 5.02543e-22)
(0.503388 0.404919 -8.9067e-22)
(0.540205 0.424808 2.30173e-22)
(0.574715 0.444538 -1.29771e-21)
(0.607797 0.463545 9.34191e-22)
(0.642721 0.481877 -7.81538e-22)
(0.674764 0.507098 -6.07617e-23)
(0.33752 0.296205 -2.78701e-22)
(0.330559 0.293984 -3.40507e-22)
(0.323246 0.291087 -1.06648e-21)
(0.315148 0.287726 1.50995e-21)
(0.306235 0.28384 -1.14517e-21)
(0.296475 0.279391 8.69565e-22)
(0.285855 0.274329 3.41856e-22)
(0.274383 0.26859 -9.08172e-23)
(0.262083 0.262102 -6.38547e-22)
(0.249006 0.254792 -2.74129e-22)
(0.23523 0.246586 3.01436e-22)
(0.220858 0.237408 -3.37432e-22)
(0.20602 0.227189 9.23147e-22)
(0.190868 0.215866 -2.33013e-21)
(0.175558 0.203379 4.05366e-21)
(0.160261 0.189692 -4.58532e-21)
(0.145149 0.174791 4.09063e-21)
(0.130378 0.158692 -1.84587e-21)
(0.11609 0.141456 -6.01062e-22)
(0.102392 0.123208 6.34035e-22)
(0.0893257 0.104142 -2.18985e-22)
(0.0767604 0.0844693 4.7624e-22)
(0.0645174 0.0647485 3.14015e-23)
(0.0524756 0.0453607 -6.61951e-22)
(0.0421674 0.0259383 5.21601e-22)
(0.0357849 0.00603214 -2.80905e-22)
(0.033812 -0.0148306 3.65016e-22)
(0.0365353 -0.0367828 2.90269e-22)
(0.0420398 -0.0600878 -3.51237e-22)
(0.0478322 -0.0845832 9.38995e-24)
(0.0538718 -0.109538 -3.1359e-22)
(0.0609222 -0.13445 2.85517e-22)
(0.0693695 -0.159065 5.40374e-22)
(0.0792524 -0.183075 -4.40336e-22)
(0.0904847 -0.206125 6.27331e-22)
(0.102943 -0.228 -1.04278e-21)
(0.116446 -0.248496 8.28012e-23)
(0.130793 -0.267457 2.2525e-22)
(0.145795 -0.284775 -3.40564e-22)
(0.161276 -0.300381 7.61414e-22)
(0.177095 -0.314257 -4.34295e-22)
(0.193139 -0.326425 -1.84081e-21)
(0.20931 -0.336938 3.75345e-21)
(0.225535 -0.34588 -3.99601e-21)
(0.241747 -0.353377 3.45143e-21)
(0.257866 -0.359563 -2.02473e-21)
(0.273796 -0.364584 1.03207e-21)
(0.289435 -0.368607 -3.57068e-22)
(0.304653 -0.371784 3.26523e-22)
(0.319319 -0.374259 -3.52786e-22)
(0.333312 -0.376169 -4.87402e-22)
(0.346529 -0.377625 -1.34015e-22)
(0.358895 -0.378721 2.64924e-22)
(0.370364 -0.379536 6.31706e-22)
(0.380917 -0.380122 -9.4063e-22)
(0.39056 -0.380524 1.20626e-21)
(0.399322 -0.380772 -8.13989e-22)
(0.407243 -0.380876 -2.7882e-22)
(0.414433 -0.380902 -1.95413e-22)
(0.353369 0.26172 -1.41763e-23)
(0.347119 0.259267 8.06547e-24)
(0.340403 0.256674 -4.44179e-23)
(0.333102 0.253854 9.73283e-23)
(0.325164 0.25082 -9.91686e-24)
(0.316548 0.247545 -2.13709e-22)
(0.307256 0.243923 3.77654e-23)
(0.297304 0.239849 1.96524e-23)
(0.286681 0.235261 1.19686e-22)
(0.275385 0.230068 -4.77278e-23)
(0.263436 0.224177 1.3261e-24)
(0.250879 0.217485 -9.19786e-23)
(0.237783 0.209889 1.31361e-22)
(0.224239 0.20129 -8.02217e-23)
(0.210364 0.191598 8.49133e-23)
(0.196286 0.18074 1.96458e-23)
(0.182146 0.168666 -4.00208e-23)
(0.168088 0.155347 1.16284e-22)
(0.154245 0.140783 9.94492e-23)
(0.140741 0.124992 3.00505e-23)
(0.127684 0.107997 6.81499e-24)
(0.115192 0.0897823 -2.54821e-22)
(0.10355 0.0702433 2.19099e-22)
(0.093304 0.0490086 -8.8451e-23)
(0.0851132 0.0259613 3.29573e-22)
(0.0794275 0.00138503 -1.35378e-22)
(0.0764343 -0.0241306 -1.44443e-23)
(0.0763134 -0.0498651 6.4104e-23)
(0.0790811 -0.0751707 1.4471e-23)
(0.0838142 -0.0999037 -3.59457e-24)
(0.0899364 -0.124223 -5.36983e-23)
(0.0974381 -0.148137 1.71458e-23)
(0.106391 -0.171465 -2.19756e-23)
(0.116687 -0.194017 -3.94985e-23)
(0.128193 -0.215602 -5.17e-23)
(0.140777 -0.236057 4.49356e-23)
(0.154288 -0.255243 7.13279e-23)
(0.168569 -0.273059 -1.68922e-22)
(0.183466 -0.289432 2.86601e-24)
(0.198837 -0.304318 -4.3485e-23)
(0.214552 -0.317691 1.08079e-23)
(0.230496 -0.329542 1.24114e-22)
(0.24656 -0.339878 -3.05892e-22)
(0.262635 -0.348722 -1.9123e-22)
(0.278601 -0.356117 3.45278e-22)
(0.294335 -0.362128 -2.94386e-22)
(0.309707 -0.366848 1.84517e-22)
(0.32458 -0.370396 -1.34823e-23)
(0.338835 -0.372915 -1.04039e-22)
(0.352366 -0.374561 2.12568e-23)
(0.36509 -0.375488 1.94368e-22)
(0.376976 -0.375844 -4.52751e-23)
(0.388009 -0.375767 6.85688e-23)
(0.398211 -0.375382 -2.90372e-22)
(0.407617 -0.37478 4.33447e-23)
(0.416282 -0.374038 1.14428e-22)
(0.424263 -0.373206 -9.03046e-23)
(0.431626 -0.372312 2.356e-23)
(0.43848 -0.371437 -1.8485e-23)
(0.410272 0.248122 -3.26373e-22)
(0.403963 0.245749 6.51083e-23)
(0.397194 0.243153 -2.82538e-22)
(0.389945 0.240325 -6.77204e-23)
(0.382183 0.237218 9.77925e-22)
(0.373882 0.233778 -3.0577e-22)
(0.365025 0.229945 -5.96183e-22)
(0.355591 0.225672 -4.08819e-24)
(0.345561 0.220906 3.58631e-22)
(0.334928 0.215583 -9.16921e-23)
(0.323702 0.209628 9.74519e-22)
(0.311908 0.20296 -1.15648e-21)
(0.29959 0.195493 1.04585e-21)
(0.286818 0.187135 -1.42925e-22)
(0.273677 0.177803 -9.23609e-22)
(0.260274 0.167414 2.81165e-22)
(0.24673 0.155898 1.09498e-21)
(0.233179 0.143196 -4.38702e-22)
(0.219764 0.129256 -1.05274e-22)
(0.206637 0.114032 2.05278e-23)
(0.193971 0.0974741 -2.95292e-22)
(0.18197 0.0795182 7.22268e-23)
(0.170922 0.0600921 -7.40344e-22)
(0.161204 0.0391638 8.90317e-22)
(0.15332 0.0168159 -3.4387e-22)
(0.147777 -0.0067171 4.8268e-24)
(0.144881 -0.0310858 4.82065e-23)
(0.144707 -0.0558757 -2.1885e-22)
(0.147034 -0.0806106 1.3714e-22)
(0.151407 -0.104951 7.29529e-23)
(0.157449 -0.12878 1.67181e-22)
(0.164958 -0.152023 -1.71633e-22)
(0.17381 -0.17456 7.66687e-23)
(0.183886 -0.196254 1.07005e-22)
(0.195064 -0.21698 -3.54529e-22)
(0.20722 -0.236624 9.9143e-22)
(0.220221 -0.255084 -6.45502e-22)
(0.233934 -0.272278 -1.44996e-22)
(0.24823 -0.288145 -1.57298e-22)
(0.262982 -0.302642 -5.15542e-23)
(0.278071 -0.315742 -2.50597e-22)
(0.293376 -0.327435 -4.21347e-22)
(0.308782 -0.337729 1.02944e-21)
(0.324164 -0.346649 4.74931e-22)
(0.339397 -0.354241 -9.78166e-22)
(0.354352 -0.360574 -3.10532e-22)
(0.368905 -0.365738 1.00265e-21)
(0.382943 -0.369843 -1.15545e-21)
(0.396369 -0.373012 8.08418e-22)
(0.409112 -0.375377 -3.24975e-23)
(0.421075 -0.377092 3.17405e-22)
(0.432301 -0.378221 5.50233e-23)
(0.442817 -0.378838 -5.28263e-22)
(0.452609 -0.379077 -2.58954e-22)
(0.461719 -0.379019 8.23471e-22)
(0.470188 -0.378728 -2.03375e-23)
(0.478059 -0.378253 -2.35037e-22)
(0.485382 -0.377645 7.17285e-23)
(0.4922 -0.376936 -2.67931e-22)
(0.449307 0.240489 -6.57902e-23)
(0.44301 0.238573 3.37145e-22)
(0.436286 0.236449 -1.61617e-22)
(0.429073 0.234046 1.22626e-22)
(0.421349 0.231336 -1.34765e-22)
(0.413095 0.22828 -4.20751e-24)
(0.404293 0.224834 -8.83309e-23)
(0.394932 0.220947 -2.27555e-22)
(0.385003 0.21656 1.51396e-22)
(0.374506 0.211605 1.99171e-22)
(0.363455 0.206006 1.48272e-22)
(0.351872 0.19968 -5.85268e-22)
(0.339799 0.192536 5.33129e-22)
(0.327295 0.184482 -1.21906e-22)
(0.314437 0.175423 7.05475e-23)
(0.301326 0.16527 -3.28331e-22)
(0.288078 0.153937 3.25479e-22)
(0.274834 0.141348 -1.39567e-22)
(0.261754 0.127434 -2.14968e-22)
(0.249018 0.112137 1.09875e-22)
(0.236833 0.0954084 -5.69356e-23)
(0.225436 0.0772111 -3.68506e-22)
(0.21511 0.0575333 2.32097e-22)
(0.206172 0.0364101 2.49484e-22)
(0.198959 0.0139605 -2.01459e-22)
(0.193769 -0.00958944 2.3376e-23)
(0.190803 -0.0339211 2.30392e-22)
(0.190148 -0.0586669 -2.70146e-22)
(0.191751 -0.0834582 8.9388e-23)
(0.19542 -0.107996 -2.41965e-23)
(0.200935 -0.13208 1.13488e-22)
(0.208103 -0.15556 -2.66336e-22)
(0.216759 -0.178301 2.01428e-22)
(0.226743 -0.200178 -6.31966e-24)
(0.237896 -0.221074 -2.53355e-22)
(0.250069 -0.240884 9.6026e-23)
(0.26311 -0.259515 2.80058e-22)
(0.276867 -0.276888 -1.23967e-22)
(0.291197 -0.292938 -1.12559e-22)
(0.305959 -0.307618 2.03045e-22)
(0.321016 -0.320898 -5.75463e-23)
(0.336233 -0.332765 -7.34142e-23)
(0.351476 -0.343223 4.41908e-22)
(0.366616 -0.352297 -4.08194e-22)
(0.381526 -0.360034 1.74321e-22)
(0.396089 -0.3665 -2.54697e-23)
(0.410199 -0.371784 5.35004e-22)
(0.423768 -0.375987 -4.91173e-22)
(0.436728 -0.379224 2.0692e-22)
(0.44903 -0.381605 1.69408e-22)
(0.460575 -0.383331 1.8139e-22)
(0.471326 -0.38452 -2.36836e-22)
(0.481413 -0.385173 -5.2043e-23)
(0.490912 -0.385346 -7.34851e-23)
(0.499799 -0.385151 -1.18077e-22)
(0.508068 -0.384685 8.40611e-23)
(0.515763 -0.384 -1.58385e-22)
(0.522926 -0.383141 3.2286e-22)
(0.529625 -0.382171 -9.05387e-23)
(0.499373 0.236213 -5.13383e-22)
(0.493158 0.23411 5.2965e-23)
(0.486447 0.231799 5.009e-22)
(0.479216 0.22924 -3.59594e-22)
(0.471446 0.226393 9.42291e-23)
(0.463124 0.223214 3.15923e-22)
(0.454242 0.219656 -4.00232e-22)
(0.444794 0.215666 1.50921e-22)
(0.434783 0.211183 4.82915e-22)
(0.424219 0.206141 -1.64928e-22)
(0.413122 0.200468 -4.9716e-22)
(0.401521 0.194082 -1.65289e-22)
(0.38946 0.186898 4.2631e-22)
(0.377001 0.178828 3.83786e-22)