/*--------------------------------*- C++ -*----------------------------------*\
  =========                 |
  \\      /  F ield         | OpenFOAM: The Open Source CFD Toolbox
   \\    /   O peration     | Website:  https://openfoam.org
    \\  /    A nd           | Version:  10
     \\/     M anipulation  |
\*---------------------------------------------------------------------------*/
FoamFile
{
    format      ascii;
    class       volScalarField;
    location    "250";
    object      epsilon;
}
// * * * * * * * * * * * * * * * * * * * * * * * * * * * * * * * * * * * * * //

dimensions      [0 2 -3 0 0 0 0];

internalField   nonuniform List<scalar> 
10435
(
6.49095e-06
7.38214e-06
6.96546e-05
6.43283e-05
0.000129027
0.000119402
8.18138e-05
0.000232424
0.000313396
9.52653e-05
1.72795e-05
0.000363364
5.21006e-05
0.00112243
0.00093805
0.000198157
0.00124466
6.4741e-05
0.000319424
7.28901e-06
0.000202042
7.99548e-05
0.000161954
0.000599358
0.000105184
0.000156722
0.000918348
4.83622e-05
0.000754904
8.08911e-05
0.000236468
2.77823e-05
0.000258447
0.000779115
0.000375382
2.57225e-05
0.000363588
0.000938338
5.77226e-05
0.000394231
8.47224e-05
9.20686e-05
0.0012496
1.92953e-05
0.000310912
0.000515246
9.98652e-05
0.00114518
0.000279898
8.86931e-05
0.000243833
0.000203655
5.87616e-05
0.000381845
7.32891e-05
0.000593639
0.000489358
0.00116894
0.00117818
0.000474914
7.86598e-05
7.03344e-06
0.00119389
0.000228658
0.000226082
7.16088e-05
0.00111872
0.0014414
0.000194979
0.000616639
0.000341368
0.000426931
0.000798406
9.64742e-05
0.000672465
0.00111391
0.000573102
9.85579e-05
0.000261305
0.000455742
0.000225989
5.33465e-06
6.15825e-05
0.000431977
0.000330371
6.86206e-05
1.94497e-05
1.59792e-05
0.000375466
9.95737e-06
2.83683e-05
5.09684e-05
4.42377e-06
0.000169395
8.14636e-06
8.40126e-05
8.59305e-05
0.000821444
0.0011383
0.000121685
0.000604145
0.000103648
5.49698e-05
1.00424e-05
0.000114419
3.60237e-05
6.06115e-06
0.00014528
0.000439982
0.000186209
4.94498e-05
8.78967e-05
1.1893e-05
4.55581e-05
7.80894e-05
4.43918e-05
0.00017494
2.31909e-05
1.3161e-05
0.000196342
0.000227803
0.000873235
1.07976e-05
0.000565497
3.2641e-05
0.000117875
0.00013898
0.000850737
0.000163272
0.000663815
0.000766899
2.1756e-05
0.000232464
0.000712321
0.0006217
9.9374e-05
8.8406e-05
0.000108009
8.8449e-06
2.28684e-05
1.1865e-05
0.000248399
0.00105306
0.000325043
0.000133146
0.00106445
0.000283631
0.000180632
0.00133437
0.000387356
0.000860065
0.000413091
8.51016e-06
0.000373095
0.000153396
0.000469049
4.74208e-05
7.88054e-06
0.000118094
8.16039e-06
0.000396343
0.000903411
3.74033e-05
0.000385804
0.000339513
0.000225286
0.000296525
0.000239066
0.000534764
0.000275284
0.000132051
0.000557199
0.000817661
0.000898019
0.000469272
5.60943e-06
1.06997e-05
0.0014548
2.46472e-05
0.000960444
1.0642e-05
0.000128988
0.000388327
0.000108138
0.000327263
0.00100461
0.00101219
0.000125423
0.0001527
0.000270613
0.000290165
6.80264e-05
0.000542686
2.43228e-05
6.70774e-05
0.000159371
0.00130673
0.000213273
0.00136765
0.000267793
0.000361635
0.000945513
4.9852e-05
0.00112564
5.56759e-05
7.26684e-05
2.2156e-05
0.000168107
0.00123795
0.000205809
0.000640246
0.000115765
0.000307275
0.000449917
0.000954181
0.00122748
0.000101379
0.000176576
0.000155773
0.00103997
0.000803384
0.00141072
0.00126075
0.000789568
0.000295263
0.000292685
9.34466e-05
0.00046198
0.000235523
0.00104687
0.00148136
0.000297108
0.000119267
0.000498156
0.000875346
0.0013177
0.000584474
0.000246885
0.000605873
0.00016722
1.11077e-05
0.000200572
0.000270368
0.000524028
5.30595e-05
0.000287408
0.000267835
0.000163912
0.000528068
5.50267e-06
0.000385928
0.000138278
6.03878e-05
0.00029616
0.000130969
0.000210591
0.000400103
0.00010973
0.000403377
0.000991685
9.11022e-05
0.000170282
0.000168489
0.000531295
2.68508e-05
0.00139403
7.968e-06
0.000180717
0.000101527
0.000109249
7.58737e-05
0.000197617
0.000152628
8.62062e-05
0.000204326
0.000249945
0.000774541
9.05121e-05
0.000166634
0.000220854
7.32028e-05
0.0013845
6.22503e-05
0.000688635
4.18769e-05
0.000129855
0.00016531
7.44582e-05
0.000479919
0.000852447
0.000560535
1.34692e-05
0.00119277
0.000175339
5.8984e-05
0.000323249
0.00120142
1.00071e-05
6.08197e-05
0.000137278
0.00143044
0.000582995
5.2311e-05
0.000659032
4.16561e-05
0.00106053
0.00138458
0.000534829
0.000105159
0.000509427
1.16218e-05
0.000683602
9.07145e-06
0.000176067
0.000343137
0.000360834
0.000147335
0.000318533
0.00145608
0.000309921
0.000123488
0.00101648
1.51174e-05
7.64685e-05
0.000238457
5.72511e-05
0.000264987
4.71107e-05
0.00135389
0.00100638
0.000395816
0.000958258
0.000519756
6.42987e-05
0.000450347
0.00131248
0.00042736
0.000500361
0.000637058
0.00076861
0.000336548
0.000446802
8.35119e-05
0.000820037
0.000775807
0.000698779
0.00138122
0.000885694
8.72875e-05
0.0002574
0.000555394
6.91372e-05
0.00087176
4.57453e-05
0.000247804
0.000261062
4.71091e-05
0.000134417
0.000448441
0.000643976
0.000475242
0.000116681
0.000704308
0.000112257
0.000922577
0.000423765
0.00131914
0.000470548
0.000418348
0.000271391
9.16736e-05
0.000531291
4.68888e-05
0.000257248
0.000169569
0.000859218
0.00110301
0.000903959
0.000610115
0.000208814
0.00096358
8.56786e-05
0.000242834
0.00136971
0.000193359
0.000254271
4.63371e-05
4.74066e-05
0.000259714
4.88236e-05
0.000354327
0.000916415
0.000686127
0.000649035
0.000384817
5.3535e-05
0.000531933
4.98398e-05
0.000910729
0.00102532
0.000632779
0.00109467
0.000227661
0.000125937
0.000994299
0.000222038
0.000537013
0.00042007
0.000263263
0.000828953
0.00027966
0.000759352
0.00032839
0.000290775
0.000653466
0.00125212
0.00085123
5.52915e-05
0.000342166
0.000310374
0.000822196
0.00082395
5.06332e-05
0.000274741
0.000138235
0.000253665
0.000626685
1.26035e-06
1.21737e-06
1.12519e-06
9.38984e-07
7.55077e-07
6.19614e-07
5.26828e-07
4.45627e-07
3.35975e-07
1.24475e-06
1.1294e-06
1.00972e-06
8.52865e-07
7.01235e-07
5.77564e-07
4.80261e-07
3.94797e-07
3.02566e-07
1.15876e-06
1.01809e-06
8.88321e-07
7.51178e-07
6.25327e-07
5.18775e-07
4.30351e-07
3.52545e-07
2.7604e-07
1.0506e-06
9.06981e-07
7.76954e-07
6.55696e-07
5.50088e-07
4.60376e-07
3.84205e-07
3.16574e-07
2.51543e-07
9.47062e-07
8.08683e-07
6.83067e-07
5.75006e-07
4.84939e-07
4.09275e-07
3.44313e-07
2.8565e-07
2.2832e-07
8.63979e-07
7.31372e-07
6.10943e-07
5.12997e-07
4.34038e-07
3.68642e-07
3.12112e-07
2.60067e-07
2.08049e-07
8.12032e-07
6.80926e-07
5.63737e-07
4.72122e-07
3.99861e-07
3.40669e-07
2.89258e-07
2.4121e-07
1.92553e-07
7.96673e-07
6.62354e-07
5.44859e-07
4.5518e-07
3.85096e-07
3.27918e-07
2.78029e-07
2.30974e-07
1.8312e-07
8.24053e-07
6.82308e-07
5.59783e-07
4.66951e-07
3.94162e-07
3.34491e-07
2.82068e-07
2.32221e-07
1.8123e-07
9.07954e-07
7.51828e-07
6.18329e-07
5.16268e-07
4.35093e-07
3.67657e-07
3.07777e-07
2.50274e-07
1.9081e-07
1.07034e-06
8.88748e-07
7.37613e-07
6.18812e-07
5.22183e-07
4.40341e-07
3.66673e-07
2.9516e-07
2.20505e-07
1.33254e-06
1.1197e-06
9.45433e-07
8.00396e-07
6.79176e-07
5.74299e-07
4.78515e-07
3.84406e-07
2.85238e-07
1.69507e-06
1.48434e-06
1.28313e-06
1.09918e-06
9.41301e-07
8.02252e-07
6.73626e-07
5.45581e-07
4.08844e-07
2.24115e-06
2.05186e-06
1.80671e-06
1.56382e-06
1.35276e-06
1.16538e-06
9.90664e-07
8.14945e-07
6.24973e-07
3.15539e-06
2.91486e-06
2.57789e-06
2.2443e-06
1.9578e-06
1.70439e-06
1.46749e-06
1.22707e-06
9.62492e-07
4.59337e-06
4.14572e-06
3.64323e-06
3.17967e-06
2.79179e-06
2.45222e-06
2.13498e-06
1.81188e-06
1.45475e-06
6.58458e-06
5.75625e-06
5.02192e-06
4.39614e-06
3.88444e-06
3.44011e-06
3.02432e-06
2.59877e-06
2.1285e-06
8.89311e-06
7.68494e-06
6.71433e-06
5.92051e-06
5.27691e-06
4.7184e-06
4.19161e-06
3.64451e-06
3.02999e-06
1.1391e-05
9.89516e-06
8.74161e-06
7.80838e-06
7.04867e-06
6.38568e-06
5.75162e-06
5.07721e-06
4.29587e-06
1.41152e-05
1.24582e-05
1.11991e-05
1.01832e-05
9.35278e-06
8.62521e-06
7.91748e-06
7.13826e-06
6.19606e-06
1.72756e-05
1.5576e-05
1.42954e-05
1.32765e-05
1.24606e-05
1.17589e-05
1.10676e-05
1.02582e-05
9.18787e-06
2.12401e-05
1.95883e-05
1.83765e-05
1.74708e-05
1.68241e-05
1.63348e-05
1.58704e-05
1.52457e-05
1.42368e-05
2.65888e-05
2.49985e-05
2.39678e-05
2.33689e-05
2.31809e-05
2.32753e-05
2.34884e-05
2.35658e-05
2.31841e-05
3.42608e-05
3.25335e-05
3.18402e-05
3.19031e-05
3.27185e-05
3.4114e-05
3.59196e-05
3.78179e-05
3.94108e-05
4.56564e-05
4.31675e-05
4.31435e-05
4.45312e-05
4.73493e-05
5.13481e-05
5.64564e-05
6.24923e-05
6.84979e-05
6.66968e-05
6.19809e-05
5.95785e-05
5.96746e-05
6.24985e-05
6.81811e-05
7.65608e-05
8.69836e-05
9.83583e-05
0.00010949
0.000119452
0.000127605
0.000133463
0.000136829
0.000137752
0.000136508
0.000133525
0.000129334
0.000124487
0.000119489
0.000114735
0.000110473
0.000106746
0.000103284
9.97564e-05
9.5563e-05
8.93263e-05
8.15495e-05
7.33214e-05
6.50633e-05
5.67588e-05
4.83831e-05
4.04228e-05
3.30452e-05
2.6391e-05
2.06356e-05
1.58251e-05
1.19139e-05
8.8387e-06
6.50787e-06
4.80486e-06
3.60144e-06
2.77404e-06
2.21698e-06
1.84811e-06
1.60765e-06
1.45364e-06
1.35675e-06
1.29603e-06
1.2566e-06
1.22829e-06
1.20492e-06
1.18408e-06
1.16612e-06
1.15286e-06
1.14645e-06
1.14899e-06
1.16229e-06
1.1871e-06
8.05153e-05
7.9035e-05
8.12541e-05
8.77584e-05
9.90548e-05
0.000115079
0.000134704
0.000155802
0.000175939
0.00019336
0.000207288
0.000216393
0.000219989
0.000218037
0.000211065
0.000200074
0.000186357
0.000171303
0.000156215
0.000142173
0.000129928
0.000119876
0.000111411
0.00010386
9.68008e-05
8.99615e-05
8.2912e-05
7.53967e-05
6.7447e-05
5.92275e-05
5.09696e-05
4.29776e-05
3.55314e-05
2.87993e-05
2.28886e-05
1.786e-05
1.37167e-05
1.04163e-05
7.88062e-06
6.0005e-06
4.65062e-06
3.70756e-06
3.06361e-06
2.63271e-06
2.34974e-06
2.16636e-06
2.04621e-06
1.96147e-06
1.89129e-06
1.82155e-06
1.74499e-06
1.66047e-06
1.5714e-06
1.48366e-06
1.40338e-06
1.33558e-06
1.28364e-06
1.24972e-06
1.2339e-06
8.238e-05
8.07826e-05
8.28489e-05
8.91839e-05
0.000100418
0.000116828
0.00013788
0.000161929
0.000186436
0.0002086
0.000226056
0.000237228
0.00024144
0.000238843
0.000230238
0.000216931
0.000200481
0.000182472
0.000164322
0.000147152
0.000131702
0.000118317
0.000106922
9.71475e-05
8.85145e-05
8.05458e-05
7.28338e-05
6.51526e-05
5.74649e-05
4.98456e-05
4.24372e-05
3.54264e-05
2.89989e-05
2.32927e-05
1.83915e-05
1.43249e-05
1.10672e-05
8.54637e-06
6.65867e-06
5.28606e-06
4.3127e-06
3.63723e-06
3.17766e-06
2.87077e-06
2.66832e-06
2.53282e-06
2.43416e-06
2.34813e-06
2.25645e-06
2.14799e-06
2.01961e-06
1.87568e-06
1.72569e-06
1.58089e-06
1.45113e-06
1.34319e-06
1.26053e-06
1.20418e-06
1.17286e-06
8.00796e-05
7.68359e-05
7.64632e-05
7.93255e-05
8.57845e-05
9.60109e-05
0.000109721
0.000125976
0.000143237
0.000159677
0.000173567
0.000183556
0.000188829
0.000189203
0.000184957
0.000176815
0.000165786
0.000152986
0.000139475
0.000126142
0.00011362
0.000102252
9.21058e-05
8.30438e-05
7.48281e-05
6.7197e-05
5.99241e-05
5.28725e-05
4.60094e-05
3.93862e-05
3.31115e-05
2.73219e-05
2.2146e-05
1.7674e-05
1.39453e-05
1.09451e-05
8.61188e-06
6.85262e-06
5.56111e-06
4.63412e-06
3.9814e-06
3.52953e-06
3.22094e-06
3.01073e-06
2.86305e-06
2.74837e-06
2.64205e-06
2.5244e-06
2.382e-06
2.20947e-06
2.01065e-06
1.79766e-06
1.58738e-06
1.3963e-06
1.23621e-06
1.11268e-06
1.02616e-06
9.74342e-07
9.53027e-07
7.34149e-05
6.85259e-05
6.56804e-05
6.50505e-05
6.68049e-05
7.10126e-05
7.7556e-05
8.60253e-05
9.57003e-05
0.000105644
0.000114867
0.000122484
0.000127828
0.000130524
0.000130501
0.000127911
0.000123128
0.000116668
0.000109092
0.000100934
9.26331e-05
8.44977e-05
7.66978e-05
6.92862e-05
6.22382e-05
5.5494e-05
4.89971e-05
4.27271e-05
3.67123e-05
3.10242e-05
2.57626e-05
2.10332e-05
1.69226e-05
1.34768e-05
1.06922e-05
8.51898e-06
6.87509e-06
5.66463e-06
4.79377e-06
4.1802e-06
3.75664e-06
3.46986e-06
3.27763e-06
3.14541e-06
3.0437e-06
2.9467e-06
2.83235e-06
2.68372e-06
2.49121e-06
2.25499e-06
1.98629e-06
1.70594e-06
1.43916e-06
1.2079e-06
1.02474e-06
8.92114e-07
8.05772e-07
7.5929e-07
7.45707e-07
6.49342e-05
5.87719e-05
5.40509e-05
5.08542e-05
4.92766e-05
4.93415e-05
5.10097e-05
5.41264e-05
5.84167e-05
6.3488e-05
6.8867e-05
7.406e-05
7.86103e-05
8.21485e-05
8.44228e-05
8.53202e-05
8.48357e-05
8.30656e-05
8.01902e-05
7.64277e-05
7.19997e-05
6.71041e-05
6.19e-05
5.65045e-05
5.10025e-05
4.54634e-05
3.99556e-05
3.45614e-05
2.93816e-05
2.45305e-05
2.01234e-05
1.62578e-05
1.29956e-05
1.03481e-05
8.27807e-06
6.71281e-06
5.56267e-06
4.73882e-06
4.16371e-06
3.77386e-06
3.51938e-06
3.361e-06
3.26661e-06
3.20821e-06
3.16001e-06
3.09777e-06
2.99986e-06
2.84942e-06
2.63755e-06
2.36644e-06
2.05126e-06
1.71913e-06
1.40319e-06
1.13244e-06
9.2259e-07
7.74643e-07
6.80604e-07
6.30414e-07
6.14706e-07
5.51657e-05
4.86017e-05
4.31238e-05
3.8787e-05
3.56466e-05
3.37425e-05
3.30773e-05
3.35828e-05
3.51382e-05
3.75678e-05
4.06401e-05
4.40839e-05
4.7612e-05
5.09479e-05
5.38484e-05
5.61205e-05
5.76276e-05
5.82958e-05
5.81032e-05
5.70696e-05
5.52509e-05
5.27216e-05
4.95713e-05
4.58955e-05
4.17954e-05
3.73919e-05
3.28184e-05
2.82262e-05
2.37735e-05
1.96175e-05
1.58958e-05
1.27049e-05
1.00915e-05
8.04116e-06
6.4917e-06
5.35843e-06
4.55185e-06
3.99378e-06
3.62215e-06
3.38805e-06
3.25437e-06
3.19198e-06
3.1764e-06
3.18495e-06
3.1946e-06
3.18168e-06
3.12351e-06
3.0008e-06
2.80211e-06
2.52774e-06
2.19278e-06
1.82719e-06
1.47032e-06
1.15933e-06
9.16361e-07
7.44437e-07
6.33889e-07
5.71746e-07
5.46227e-07
4.40426e-05
3.78121e-05
3.24467e-05
2.80029e-05
2.45405e-05
2.21031e-05
2.06951e-05
2.02662e-05
2.07168e-05
2.19231e-05
2.37471e-05
2.60279e-05
2.85971e-05
3.12819e-05
3.39141e-05
3.63402e-05
3.84192e-05
4.00242e-05
4.10693e-05
4.14817e-05
4.12174e-05
4.02515e-05
3.8601e-05
3.63036e-05
3.34128e-05
3.00553e-05
2.63822e-05
2.25841e-05
1.88481e-05
1.53687e-05
1.2297e-05
9.7261e-06
7.69118e-06
6.15438e-06
5.03211e-06
4.23771e-06
3.68967e-06
3.32456e-06
3.09668e-06
2.96839e-06
2.91387e-06
2.91243e-06
2.94657e-06
2.99889e-06
3.05042e-06
3.07806e-06
3.06015e-06
2.97451e-06
2.80639e-06
2.55322e-06
2.2283e-06
1.86096e-06
1.49215e-06
1.16366e-06
9.02909e-07
7.16088e-07
5.93967e-07
5.22337e-07
4.87942e-07
2.9252e-05
2.43083e-05
2.0034e-05
1.65062e-05
1.38023e-05
1.19536e-05
1.0906e-05
1.05423e-05
1.07753e-05
1.15335e-05
1.26803e-05
1.41397e-05
1.5825e-05
1.76475e-05
1.95576e-05
2.14574e-05
2.33234e-05
2.50931e-05
2.65505e-05
2.75628e-05
2.80696e-05
2.80251e-05
2.7429e-05
2.62108e-05
2.43922e-05
2.20361e-05
1.93091e-05
1.64109e-05
1.35155e-05
1.08276e-05
8.53873e-06
6.70426e-06
5.33529e-06
4.35306e-06
3.66418e-06
3.17283e-06
2.83381e-06
2.63226e-06
2.51597e-06
2.4536e-06
2.43989e-06
2.46396e-06
2.51502e-06
2.57992e-06
2.63745e-06
2.67561e-06
2.67191e-06
2.60931e-06
2.48056e-06
2.27079e-06
1.98538e-06
1.65063e-06
1.30861e-06
1.00113e-06
7.55341e-07
5.81105e-07
4.69683e-07
4.05712e-07
3.74297e-07
0.000313231
0.00027141
0.000240016
0.000215589
0.00019547
0.000177962
0.000162055
0.000147234
0.00013282
0.000118861
0.000109395
0.00010616
0.00010885
0.00011561
0.000122234
0.000127311
0.00013019
0.000130221
0.000127549
0.00012317
0.000118504
0.000114295
0.000109233
0.000100184
8.33431e-05
0.00030406
0.000266141
0.000234874
0.000209524
0.000188488
0.000170519
0.000154623
0.000139993
0.000126242
0.000114033
0.000104856
9.9452e-05
9.7609e-05
9.82943e-05
0.000100154
0.000102368
0.000104389
0.000105824
0.00010654
0.000106657
0.000106381
0.000105692
0.00010398
9.9845e-05
9.05972e-05
0.000324687
0.000275333
0.000237124
0.000207016
0.000182683
0.000162422
0.000144979
0.000129525
0.000115823
0.000104232
9.525e-05
8.90698e-05
8.54972e-05
8.40087e-05
8.40072e-05
8.50974e-05
8.69971e-05
8.94601e-05
9.22882e-05
9.53205e-05
9.83488e-05
0.000100943
0.000102193
0.000100377
9.26826e-05
0.000352929
0.000289374
0.000241852
0.000205531
0.000177014
0.000153935
0.000134704
0.000118341
0.000104447
9.30251e-05
8.41532e-05
7.77728e-05
7.36692e-05
7.15251e-05
7.10552e-05
7.20798e-05
7.448e-05
7.81219e-05
8.28169e-05
8.82944e-05
9.41243e-05
9.95496e-05
0.000103166
0.000102676
9.36794e-05
0.000382411
0.000305945
0.000248824
0.000205739
0.000172642
0.000146564
0.000125496
0.000108179
9.3945e-05
8.24951e-05
7.36483e-05
6.72079e-05
6.29493e-05
6.06578e-05
6.01842e-05
6.14519e-05
6.44155e-05
6.90013e-05
7.50534e-05
8.22704e-05
9.00785e-05
9.73973e-05
0.000102235
0.000101563
9.02426e-05
0.000407749
0.000321478
0.000255709
0.000206154
0.00016863
0.000139707
0.000116947
9.87594e-05
8.41896e-05
7.26834e-05
6.38807e-05
5.74921e-05
5.32772e-05
5.10598e-05
5.07332e-05
5.22586e-05
5.56177e-05
6.07705e-05
6.75936e-05
7.57876e-05
8.47095e-05
9.30809e-05
9.85284e-05
9.75664e-05
8.43212e-05
0.000429883
0.000334861
0.000260879
0.000205313
0.000163823
0.000132475
0.00010836
8.95447e-05
7.47949e-05
6.33447e-05
5.46964e-05
4.84877e-05
4.44541e-05
4.241e-05
4.22376e-05
4.3893e-05
4.73506e-05
5.25809e-05
5.94839e-05
6.77785e-05
7.68125e-05
8.52396e-05
9.05434e-05
8.91104e-05
7.51118e-05
0.000451307
0.000344122
0.000261765
0.00020103
0.000156493
0.000123499
9.86249e-05
7.96282e-05
6.50253e-05
5.38857e-05
4.56001e-05
3.97493e-05
3.60543e-05
3.42634e-05
3.42202e-05
3.58482e-05
3.90912e-05
4.3912e-05
5.02275e-05
5.77894e-05
6.59836e-05
7.35322e-05
7.80814e-05
7.62604e-05
6.27626e-05
0.000465878
0.000344316
0.000254647
0.00019057
0.000144608
0.000111208
8.6501e-05
6.79642e-05
5.39542e-05
4.35102e-05
3.58759e-05
3.06244e-05
2.75176e-05
2.60951e-05
2.61673e-05
2.76288e-05
3.03584e-05
3.43162e-05
3.94294e-05
4.54795e-05
5.18528e-05
5.74564e-05
6.02228e-05
5.70124e-05
4.43661e-05
4.69501e-05
4.62277e-05
0.000331956
5.86425e-06
1.48856e-06
2.65743e-06
0.000365977
1.10853e-06
0.000907403
5.09608e-07
11.2511
1.01344e-06
5.12894e-05
5.69773e-07
0.000580399
2.08621e-06
0.0806044
5.70314e-06
1.90157e-07
0.0612098
7.08313e-06
2.55e-06
0.00371123
2.13542e-06
1.12548e-06
5.61252e-07
1.21899e-06
3.12121e-05
2.0282e-05
0.0475247
1.66984e-07
1.99298e-07
0.000470465
7.24558e-05
0.0206256
6.38158e-07
0.000209294
0.000665592
0.000228647
1.10617e-06
0.00420516
7.11969e-07
6.84046e-07
0.000404027
5.01379e-05
2.3165e-06
9.02361
1.61622
3.10783e-05
6.96517e-05
9.06242
0.00370766
6.19436e-06
5.51878e-06
0.000313253
0.00056155
3.28432e-07
5.08559e-06
1.0009e-06
0.000861727
7.4773e-06
0.000206591
1.09675e-06
1.60406e-06
9.98269e-07
0.000563787
1.86854e-07
6.24199e-06
6.52777e-05
7.78836e-05
0.000422065
4.205e-06
1.14647e-06
0.0217815
4.40475e-07
6.07153e-06
0.00354981
0.954715
2.37797e-06
5.11556e-06
5.75594e-05
3.74495e-05
8.02447e-07
10.0215
3.02007e-06
1.10943e-05
1.0618e-06
0.334721
0.000523088
2.01868e-06
6.50947e-06
3.80097e-07
2.14323e-06
1.13161e-06
7.47274e-07
10.3594
5.07106e-07
9.5869
1.28429e-06
0.000857981
9.53324e-06
0.00329134
1.47968e-05
5.23792e-06
9.15172e-07
4.90517e-05
0.00357647
4.9647e-05
9.433e-07
0.0567353
2.34036e-06
3.33535e-07
0.0142626
5.85485e-06
5.34396e-06
3.0127e-05
0.000700817
1.05006e-06
1.31214e-05
4.18268e-07
2.05551e-07
3.35988e-07
1.86168e-06
1.04286e-06
0.000518009
5.80359e-07
0.00394473
4.68084e-05
9.10634e-08
1.95111
7.81803e-07
0.013016
8.20559e-05
0.000149125
0.000163233
1.17133e-06
4.30372e-05
2.03623e-06
2.56732e-06
0.337768
9.95052e-06
0.000160671
0.00147245
2.61061e-07
2.25001e-05
4.64006e-06
5.70284e-06
5.42004e-05
2.10787e-06
0.0374189
1.69383e-06
1.14195e-07
5.87019e-06
0.00211964
4.81952e-07
8.92571
1.93988e-06
9.16377e-07
0.00632901
2.50903e-07
4.59709e-07
0.000721746
2.04687e-06
9.62489
2.3315e-06
11.5569
2.86997e-07
1.32555e-06
7.03499e-06
1.78327e-06
6.52754e-07
1.77312e-06
7.67759e-06
10.6144
1.40434e-07
6.18985e-05
9.67923e-05
4.50581e-05
0.000166094
9.47932e-06
0.000183444
1.7176e-07
6.72665e-06
0.000183468
0.000514074
1.07992e-07
11.8414
9.71994e-07
9.57188e-05
1.87475e-06
0.0192009
0.0013415
1.66901e-05
0.000122573
0.000872196
0.000199848
4.36341e-07
2.2585e-06
2.61418e-05
2.56548e-05
0.000129541
1.16376e-05
2.84287e-05
2.12132e-06
5.63068e-06
1.03509e-06
2.0796e-07
1.28371e-05
5.26052e-05
9.19131e-07
8.71223e-07
7.21703e-07
0.000172594
5.42284e-06
2.26934e-06
0.00435172
7.26565e-07
6.88252e-08
4.48263e-06
5.63388e-06
5.04817e-06
6.7244e-07
5.19983e-07
5.07943e-05
9.82443e-07
0.00125213
1.78031e-06
0.0696112
9.81039e-07
8.81277e-07
8.44529
7.06861e-07
1.77883e-07
4.58182e-07
0.000226651
9.73624e-07
0.0026601
1.09316e-05
0.000185458
0.00345448
1.16212e-07
7.68585e-06
1.78949e-06
0.000281502
1.23503e-06
7.3679e-07
3.05213e-07
0.000108386
1.88666e-06
7.22839e-07
9.80958e-07
7.55925e-05
2.39441e-07
3.503e-05
6.49037e-07
1.36539e-06
0.0157862
0.00252818
0.00502753
1.86059e-07
1.36538e-05
6.90694e-08
1.21414e-06
4.90565e-07
0.00947743
9.36187e-07
1.07269e-06
5.36818e-06
0.0003297
1.36921e-06
1.67774e-05
2.30124e-05
2.10572e-06
6.57042e-08
3.39306e-07
5.12898e-06
3.30263e-07
0.00617435
1.78154e-07
0.0107006
0.000841556
1.77535e-06
4.66663e-06
2.43405e-06
0.000177891
6.05968e-06
5.51707e-05
2.08978e-06
4.11787
0.0520853
0.00300902
1.95504e-06
6.71719e-07
6.2862
0.000175286
0.00341548
0.00151014
2.41272e-07
2.76891e-07
0.000455426
0.00420508
4.97077e-07
2.64618e-07
2.65944e-06
0.0051689
1.45723e-06
6.62496e-06
8.32911e-08
0.297268
3.41525e-05
4.52201e-06
3.56336e-06
0.000258119
1.36896e-07
1.91432e-06
9.35912e-05
8.58246
3.49494e-07
1.15284e-06
0.000310266
0.00363336
1.77244e-06
2.68349e-07
1.63425e-07
8.84758e-07
9.2291e-07
0.000588443
5.60684e-05
2.34415e-07
6.14566e-06
2.20643e-06
0.00078604
4.17185e-06
6.73838e-07
0.051869
1.57752e-05
8.13563e-07
9.26143e-07
1.38982e-07
9.43572e-06
8.15232e-07
1.66014e-06
0.000545911
2.11003e-06
0.00550978
7.80853e-07
9.24974e-07
8.1548e-07
1.51889e-06
10.9741
1.33082e-06
2.02119e-06
1.07059e-06
0.00294383
5.33498
9.24687e-07
0.00045218
0.00023363
1.54574e-06
12.0574
6.13808e-05
0.004079
2.5818e-07
0.00101374
5.40376e-07
1.55676e-06
3.09237e-06
7.28986
1.07901e-06
7.78266e-05
3.49257e-06
0.00200889
2.37445e-05
0.00517223
4.82777e-05
7.21392e-07
5.11606e-07
4.80118e-06
1.48956e-07
7.91091e-07
0.00150671
1.48311e-06
0.000461691
0.000520574
0.000320579
0.000333249
2.77706e-06
0.0401634
10.2835
0.0154031
2.60379e-05
1.02104e-06
1.53028e-05
0.000386296
0.000178267
2.68317e-07
1.39087e-06
0.000379156
7.47193e-07
2.15561e-05
1.17375e-06
1.26963e-06
2.48836e-06
6.2283e-05
1.86004e-06
1.90641e-08
0.0006286
2.15044e-05
7.82117e-07
1.1462e-07
0.000159413
1.13482e-06
0.000405825
2.08551e-06
1.55223e-06
8.02587e-07
3.53932e-05
10.6934
2.06981e-07
3.39207e-07
2.8737e-06
1.78959e-07
2.62903e-06
2.16267e-05
3.51036e-06
0.0552503
1.08792e-07
6.12344e-07
9.9103e-08
1.9446e-07
1.913e-06
1.4249e-06
2.21647e-06
3.29317e-06
0.00185369
2.31579e-06
2.37497e-06
3.76469e-07
4.90721e-07
3.09582e-07
2.95371e-07
0.00342422
1.85223
6.81925e-06
7.03668e-05
5.09765e-06
1.59655e-05
0.00015228
8.60375e-07
1.76979e-06
0.00343205
4.03566e-07
1.94178e-06
0.000321641
2.3386e-06
6.94611e-05
12.2843
1.03744e-05
6.57359e-06
0.000107872
1.99726e-06
0.000446564
0.000112253
0.000158998
0.016196
1.7279e-06
1.37288e-06
9.88815e-05
2.77049e-07
9.31858
6.73201e-05
1.96208e-06
0.00435659
3.56935e-07
1.05332e-06
5.04915e-05
1.67281e-06
2.13825e-06
6.93037e-05
4.56686e-05
3.65944e-06
0.000297881
3.38007e-07
1.18995e-06
9.24152
6.95194e-07
3.32841e-05
3.27225e-06
4.50956e-05
7.77042e-06
0.000636699
1.39704e-06
5.48034e-07
0.000373185
9.98546e-07
1.13011e-06
0.000515876
2.81816e-06
1.77745e-06
7.30919e-05
5.2514e-07
0.00217155
1.30647e-06
0.00016951
8.2763e-05
9.87742e-05
2.06395e-06
1.79067e-06
0.00059632
2.91068e-07
1.64764e-06
8.12921e-05
1.22339e-07
1.30623e-06
1.38424e-07
7.34461
0.00401583
4.56122e-05
6.89814e-07
2.39496e-05
2.393e-06
0.0710527
0.0821293
4.77813e-06
7.07068e-05
3.56165e-06
0.0297237
0.00174141
9.62337e-07
2.58502e-06
6.72808e-05
8.11807e-06
4.41098e-06
7.42154e-05
4.03211e-07
3.18831e-06
1.65138e-06
0.000240789
3.26436e-05
1.33735e-06
0.000289536
0.0774716
2.10806e-06
0.00322033
1.43435e-06
2.05815e-05
1.58951e-06
4.59589e-06
2.28252e-06
0.00892114
0.00028181
0.000357534
9.26429e-08
4.2324e-05
4.27039e-05
8.09517
5.39177e-07
4.43237e-06
3.17157e-05
9.31154e-05
1.03527e-07
0.000153133
1.51555e-06
4.27289e-05
0.0566578
2.87198e-07
1.99761e-05
9.3154e-07
2.07653e-07
2.50298e-05
0.000352319
3.93175e-06
0.000332937
1.24103e-06
6.74429e-07
0.0232058
10.333
0.000114807
4.30106e-06
3.76771e-05
0.618269
6.20411e-06
1.03832e-05
2.99118e-06
9.1858e-07
0.000348359
1.63628e-06
2.03071e-06
0.00017104
6.54287e-06
8.63306e-06
1.30799e-05
1.69452e-06
0.00148438
4.87158e-06
9.61008e-07
5.35449e-05
5.50156e-05
7.64734e-07
1.67853e-07
0.000613538
2.12916e-05
5.57232e-07
5.00226e-07
3.2525e-05
6.56322e-07
9.67433e-06
1.55336e-07
1.69828e-06
3.39903e-07
6.25495e-07
0.000271541
7.80621e-07
5.42193e-06
3.16493e-05
7.73503e-06
6.51066e-08
1.16598e-06
1.33559e-05
1.92115e-06
1.78552e-06
1.84856e-06
1.85802e-06
2.20507e-07
3.25559e-06
0.000724665
10.4187
2.56748e-05
0.000304527
4.58626e-06
1.39403e-06
2.1773e-06
8.9772e-07
4.3806e-06
4.0874e-07
1.4049e-05
2.08749e-06
5.3215e-07
9.06218e-08
0.00058893
1.83575e-05
2.45579e-06
0.000512171
1.74381e-06
2.19654e-06
7.25254e-08
9.40816e-06
5.39159e-06
0.000722764
0.00142115
0.00306229
3.87418e-07
4.81022e-07
9.65445e-07
3.47906e-06
1.47171e-07
10.137
2.3916e-07
8.45658e-06
2.98232e-07
0.00017943
4.12011e-06
10.9576
1.86848e-07
2.09035e-06
9.76567e-07
0.00113229
0.000156245
0.000351124
5.74823e-06
3.70854e-06
4.75656e-07
1.50281e-06
0.0026228
4.25353e-07
1.37418e-06
0.000163395
5.59394e-07
2.67854e-06
8.512e-07
1.77072e-06
7.50275e-06
3.88486e-07
8.61126e-07
9.40102e-07
3.32931e-06
4.0452e-06
2.59668e-05
0.00285042
2.24103e-07
0.000741243
1.77342e-07
6.76049
8.28576e-07
3.42457e-06
7.3064e-07
4.5657e-07
0.000171106
2.71997e-06
2.05224e-06
1.03106e-06
5.60647e-06
4.63387e-07
3.35113e-06
6.32006e-06
0.00217652
0.000346447
7.31221e-07
0.981097
0.00101247
4.71307e-05
0.0122414
2.79716e-07
2.06406e-06
1.88114e-06
6.24543e-08
1.35258e-06
0.00074668
3.87597e-06
5.52021e-07
3.61313e-05
1.30847e-06
1.0848e-07
0.000364147
5.52115e-07
8.78091e-08
1.00455e-06
5.67955e-07
8.10007e-05
0.00133463
3.43707e-07
0.000265631
0.000150084
3.903e-05
1.03828e-05
0.00204579
5.44918
4.68428e-06
6.23424e-08
1.97669e-06
2.47276e-07
4.00806e-06
1.92859e-06
0.000209244
5.24465e-05
2.2862e-06
0.00989573
3.84974e-06
6.37631e-08
1.05017e-06
1.16413e-06
11.49
8.46926e-06
7.68836e-07
0.00040206
0.00220626
1.18636e-05
0.000453097
7.71002e-10
5.98565e-07
0.000399001
4.7761e-07
5.46532e-05
7.95328e-07
0.00425307
0.00169579
1.22161e-06
0.00177499
4.53075e-07
4.13454e-07
0.00035112
7.28716e-06
3.8771e-06
2.02934e-07
1.13328e-06
0.00018687
2.09182e-06
4.47499e-07
5.35576e-07
1.24407e-06
1.90345e-05
6.79979e-07
0.00366464
0.000919341
2.01699e-06
1.38188e-06
1.71116e-06
0.233948
1.0562e-05
1.74677e-06
4.71887e-06
3.27589e-05
1.31054e-06
4.71168e-07
7.37487e-06
10.1141
6.57242e-06
0.000306397
3.87234e-06
7.19568e-05
0.00014465
0.00286121
6.86065e-06
0.000156881
2.68187e-07
2.11937e-06
0.00371036
1.10138e-06
1.30043e-06
1.91349e-05
0.000209947
0.000324821
2.19807e-07
7.61827e-07
7.49168e-05
2.17856e-06
2.19419e-05
0.00025625
8.52474e-06
1.97855e-07
0.00530701
3.30109e-05
7.2649e-05
1.88674e-06
1.5719e-07
7.59908e-07
5.95032e-05
0.000268532
5.50482e-07
1.80674e-06
9.89412e-07
0.000262933
1.16777e-07
0.000330603
6.74264e-05
3.56343e-07
1.70541e-06
3.93903e-06
4.57426e-07
2.24487e-05
3.25281e-07
2.49453e-05
7.32919e-07
5.22701e-07
0.000166659
4.22522e-06
2.01091e-06
1.69242e-06
9.66202e-05
2.33687e-05
0.1305
7.13618e-08
7.76348e-07
1.76909e-06
0.000371118
0.313093
4.49964e-05
4.04601e-07
8.68085e-05
0.000803021
5.67734e-08
5.51285e-07
1.08981e-06
8.72193
7.08535e-07
0.30446
2.52506e-06
1.11367e-07
0.000185102
1.80812e-06
4.62088e-06
3.84239e-06
4.34037e-05
0.00347523
0.00189057
10.9754
4.82594e-07
0.000279251
0.000234082
2.44958e-06
0.000353914
5.83493e-07
1.34853e-06
0.000380161
2.18023e-06
4.41587e-06
1.21858e-05
8.20431e-06
7.5431e-07
4.5629e-07
0.00026924
1.76976e-07
3.29323e-06
0.000501846
3.93293e-05
0.000415109
2.49792e-06
4.10973e-05
0.88323
0.00546372
0.000156227
1.6739e-05
6.1405e-05
2.49609e-07
1.1777e-07
2.50137e-05
0.000112727
2.3498e-07
5.42122e-06
1.47511e-07
0.000230693
3.2732e-06
0.000149582
8.41121e-05
4.33424e-07
5.62047e-07
3.14097e-06
0.000326307
6.93992e-05
0.000332855
2.54839e-05
5.66166e-06
2.94958e-05
2.475e-05
7.59147e-06
5.1387e-05
4.59166e-06
3.00468e-07
2.35404e-06
1.67252e-06
2.54873e-07
9.01567e-05
5.75731
6.78706e-07
0.000364439
2.5468e-06
0.00226162
1.39608e-06
5.3903e-07
1.16196e-06
0.000109772
0.000184683
2.16749e-05
2.15168e-05
4.13267e-07
1.25227e-06
0.00217595
1.10218e-07
0.000374768
0.000154804
0.00322141
3.24598e-07
4.79686e-06
0.00270959
2.40001e-06
6.35853e-06
2.48698e-05
0.00337766
3.47339e-07
4.78021e-06
0.00179778
0.000729022
1.32028e-06
8.53759e-06
8.55189e-08
5.31506e-06
1.26667e-06
7.23422e-07
1.02985e-05
1.09169e-07
7.20348e-05
0.000249367
0.101425
0.000129565
2.19553e-06
2.73072e-05
4.23366e-05
4.63234e-07
2.11748e-05
9.8331e-07
6.20616e-07
0.0192638
2.74268e-06
0.000224961
2.05088e-07
1.49188e-06
4.36791e-05
1.09298e-06
4.67019e-06
1.93368e-06
0.000233866
0.000536133
0.000599403
5.59459e-07
0.000637795
3.23842e-07
7.89725e-06
1.94316e-06
0.000766123
0.00018492
5.04726e-06
0.0774312
9.06058e-08
9.88184
1.28611e-06
3.4869e-05
2.43641e-05
1.50991e-06
5.01748e-07
0.000186002
0.000866975
3.98505e-07
3.54817e-06
0.00142112
1.47644e-07
1.84062e-06
5.5379e-07
1.45291e-06
1.31656e-06
2.25551
4.91213e-06
1.36281e-06
0.00220115
9.27144e-05
11.1747
3.07625e-07
3.11645e-06
2.54314e-07
8.74963e-07
1.02546e-05
5.54797e-07
0.00106918
9.03382e-07
0.000323739
1.4023e-07
1.03967e-05
2.41917e-05
0.00043544
1.79256e-06
3.01328e-06
6.62838e-07
8.47329e-06
1.43966e-07
5.40656e-06
0.0302403
5.38719e-06
1.6119e-05
4.7528e-07
0.00274228
0.00194189
5.01995e-05
0.000150649
2.70025e-06
4.15006e-05
0.00487788
11.034
1.54118e-06
1.6682e-06
3.14295e-05
0.00028456
6.7886e-06
1.4641e-05
1.98381e-06
0.000167951
0.000103171
5.24023e-06
1.20554e-06
1.32353e-06
7.37099e-07
1.79638e-07
8.13908e-07
3.92414e-05
2.87415e-07
0.000277199
8.00475e-07
2.02041e-07
9.40053e-08
6.92006e-07
9.56189e-06
8.9996e-08
0.208887
0.000116828
9.56815e-07
2.79854e-06
3.02156e-05
8.84385
2.39305e-07
1.38206e-07
5.55189e-06
5.22615e-06
4.71799e-06
4.24344e-05
0.00575625