/*--------------------------------*- C++ -*----------------------------------*\
  =========                 |
  \\      /  F ield         | OpenFOAM: The Open Source CFD Toolbox
   \\    /   O peration     | Website:  https://openfoam.org
    \\  /    A nd           | Version:  10
     \\/     M anipulation  |
\*---------------------------------------------------------------------------*/
FoamFile
{
    format      ascii;
    class       volScalarField;
    location    "250";
    object      k;
}
// * * * * * * * * * * * * * * * * * * * * * * * * * * * * * * * * * * * * * //

dimensions      [0 2 -2 0 0 0 0];

internalField   nonuniform List<scalar> 
10435
(
0.0498065
0.0619636
0.146552
0.16051
0.262045
0.250139
0.146211
0.230103
0.272245
0.212041
0.0947919
0.412155
0.152616
0.153297
0.131275
0.229091
0.171435
0.174793
0.274745
0.0566069
0.219341
0.172261
0.215251
0.464603
0.21156
0.161784
0.210473
0.136739
0.178238
0.197357
0.304663
0.119665
0.242624
0.163224
0.330547
0.0474558
0.336564
0.231533
0.147797
0.328836
0.207953
0.158339
0.201938
0.0886897
0.320921
0.405623
0.228105
0.220492
0.246613
0.176121
0.242519
0.312969
0.141475
0.1436
0.152062
0.160023
0.408806
0.242293
0.176467
0.385471
0.146704
0.0537843
0.232238
0.339746
0.263227
0.157452
0.177917
0.245995
0.209586
0.490488
0.141626
0.191107
0.151972
0.176292
0.104057
0.167165
0.484107
0.15351
0.24037
0.0800124
0.297239
0.040493
0.135018
0.145321
0.366772
0.0539766
0.0529451
0.085355
0.0793259
0.0549526
0.11121
0.149592
0.0443602
0.0626468
0.059989
0.0505813
0.196838
0.120167
0.164199
0.244094
0.0996989
0.23727
0.0543331
0.0693114
0.249139
0.118847
0.0514364
0.232315
0.428441
0.0540927
0.127812
0.218203
0.0388164
0.0410635
0.194367
0.125768
0.294681
0.0519088
0.081118
0.304649
0.336146
0.141208
0.0535953
0.0906252
0.131969
0.155095
0.25328
0.13023
0.290097
0.212306
0.114447
0.107337
0.242875
0.106505
0.209106
0.111569
0.0435495
0.212351
0.0667947
0.0911599
0.0690898
0.296907
0.17944
0.394354
0.228512
0.147468
0.0617199
0.303576
0.18446
0.425119
0.208688
0.385648
0.0535691
0.411144
0.272388
0.185711
0.159813
0.0582261
0.238376
0.0671001
0.402978
0.12856
0.134361
0.412163
0.0731146
0.338891
0.267243
0.327533
0.482115
0.371588
0.240783
0.139809
0.187685
0.128666
0.457749
0.0544845
0.0491743
0.221609
0.0900409
0.197417
0.0752993
0.261315
0.428389
0.149918
0.352884
0.192462
0.167238
0.170287
0.285259
0.359255
0.374917
0.129096
0.202107
0.0396392
0.190457
0.189543
0.185928
0.0648749
0.226077
0.277043
0.0773924
0.22982
0.144417
0.241262
0.14401
0.192498
0.10339
0.270398
0.229115
0.29111
0.184345
0.180396
0.389048
0.449222
0.20894
0.166653
0.0518859
0.141594
0.161805
0.147096
0.179607
0.206385
0.209801
0.116874
0.174766
0.281362
0.155481
0.0860607
0.319939
0.151479
0.23103
0.274706
0.157359
0.440454
0.227412
0.186879
0.466798
0.17203
0.492437
0.259219
0.0700749
0.162275
0.145622
0.155349
0.162378
0.256328
0.0657973
0.188087
0.139445
0.0464973
0.13379
0.0588587
0.164306
0.356089
0.169804
0.3306
0.122296
0.157893
0.170667
0.227188
0.147856
0.274122
0.161663
0.475875
0.0459173
0.208756
0.0593817
0.246727
0.139313
0.236495
0.140299
0.204785
0.180763
0.186527
0.168529
0.345513
0.221281
0.218928
0.20168
0.217109
0.179327
0.205179
0.133633
0.107533
0.0515725
0.12857
0.29651
0.153776
0.145682
0.178295
0.0928315
0.085014
0.217045
0.192713
0.152965
0.140565
0.166319
0.046358
0.179097
0.22715
0.240279
0.493792
0.129502
0.159602
0.147357
0.145522
0.197839
0.470016
0.19398
0.143229
0.065271
0.211314
0.0416824
0.303994
0.295572
0.140487
0.151174
0.374404
0.234277
0.377304
0.257613
0.209905
0.0509296
0.123126
0.225996
0.153324
0.177285
0.129583
0.212257
0.234061
0.331411
0.178217
0.138763
0.137194
0.441074
0.246555
0.143257
0.141168
0.142095
0.178346
0.184178
0.190368
0.142279
0.188991
0.180786
0.205816
0.242496
0.224372
0.117273
0.235786
0.137624
0.165412
0.202018
0.133449
0.230004
0.232808
0.145983
0.207048
0.149515
0.157542
0.142344
0.156833
0.16928
0.133482
0.200587
0.191107
0.24846
0.46117
0.190368
0.243098
0.154425
0.201266
0.146892
0.227395
0.126871
0.205742
0.229996
0.217305
0.159737
0.168544
0.240318
0.151547
0.230256
0.230715
0.20444
0.232416
0.139158
0.144509
0.234233
0.13186
0.309559
0.131645
0.171905
0.167564
0.14334
0.131762
0.155826
0.150943
0.235007
0.207515
0.209241
0.199458
0.156175
0.177834
0.22539
0.219805
0.479703
0.152694
0.1753
0.225401
0.242985
0.225762
0.181895
0.16959
0.164665
0.23897
0.189618
0.137234
0.14136
0.179638
0.185615
0.154465
0.152461
0.122565
0.112294
0.221038
0.149994
0.0519947
0.0491464
0.0455469
0.0406315
0.035632
0.0311664
0.0271762
0.0231605
0.0182697
0.0576619
0.0535107
0.0491538
0.0441307
0.0391123
0.0344089
0.0299815
0.025556
0.0206725
0.0605162
0.0556607
0.0507754
0.045668
0.0407296
0.0360292
0.0315131
0.0270086
0.0222575
0.0616821
0.056487
0.0512504
0.046122
0.0413117
0.0367407
0.0323098
0.0278718
0.0232355
0.0618672
0.0565102
0.0510536
0.0459582
0.0412942
0.0368968
0.0326138
0.0282859
0.0237256
0.0615775
0.0561101
0.0505145
0.0454756
0.0409447
0.0367085
0.0325702
0.0283513
0.0238676
0.0612179
0.0555874
0.0498912
0.0448992
0.0404606
0.0363378
0.0323061
0.0281761
0.0237806
0.060983
0.0551736
0.0493967
0.0444193
0.0400134
0.0359356
0.0319499
0.0278646
0.0235307
0.0609899
0.0550658
0.0492211
0.0442125
0.0397707
0.0356597
0.0316439
0.0275287
0.023166
0.0614745
0.0554516
0.0495482
0.0444582
0.0399114
0.0356873
0.0315586
0.0273245
0.0228196
0.0627044
0.0565057
0.050571
0.0453545
0.0406404
0.0362293
0.0319096
0.0274756
0.0227458
0.0646247
0.0583678
0.0525025
0.0471312
0.0421996
0.0375393
0.0329621
0.0282616
0.0232529
0.0664558
0.0611842
0.0555776
0.0500445
0.0448547
0.039893
0.0350008
0.029972
0.0246151
0.0692363
0.0654336
0.0600786
0.0543345
0.0488311
0.0435126
0.0382485
0.032836
0.0270743
0.0750656
0.071717
0.0662228
0.0601084
0.0541923
0.0484406
0.042732
0.0368579
0.0305858
0.0845717
0.0801214
0.073907
0.0672014
0.060745
0.0544675
0.048237
0.0418451
0.0350602
0.0966296
0.0899431
0.082614
0.0751698
0.0680784
0.0612017
0.0543843
0.0474234
0.040126
0.108223
0.0998318
0.091544
0.0834182
0.0757038
0.0682226
0.0608023
0.0532406
0.0453674
0.117866
0.108722
0.0999588
0.0913988
0.0831994
0.0752026
0.0672432
0.0591267
0.0506917
0.125228
0.116213
0.10746
0.0987751
0.0903036
0.081952
0.073585
0.0650313
0.0561564
0.130674
0.12239
0.114001
0.10545
0.0969296
0.0884184
0.0798158
0.0709659
0.0617552
0.134842
0.127578
0.11974
0.111495
0.103128
0.0946659
0.0860342
0.0770798
0.0676998
0.138563
0.132202
0.124941
0.117099
0.109067
0.10087
0.092444
0.0836276
0.0743466
0.143003
0.136793
0.129922
0.122538
0.115013
0.107321
0.099385
0.0909989
0.0821352
0.149786
0.141963
0.135177
0.128314
0.121456
0.114527
0.10747
0.100015
0.0918191
0.0306089
0.0285949
0.0270556
0.0260475
0.0256493
0.0259526
0.0270441
0.0289609
0.0316701
0.0350862
0.0391185
0.0436779
0.0486604
0.0539778
0.0595504
0.065314
0.0712161
0.0772162
0.0832854
0.0894018
0.0955366
0.101641
0.107609
0.113188
0.118082
0.121804
0.123279
0.122662
0.12063
0.117436
0.112986
0.107182
0.100518
0.093198
0.0854496
0.0776469
0.070044
0.0627861
0.0560426
0.049967
0.0446666
0.0401874
0.036515
0.0335985
0.0313775
0.0298031
0.0288439
0.0284783
0.0286724
0.0293681
0.0304793
0.0319063
0.0335612
0.0353797
0.0373227
0.0393669
0.0415017
0.0437221
0.0460121
0.0329107
0.0315288
0.030758
0.0306882
0.0314205
0.0330147
0.0354438
0.0385932
0.0423147
0.0465099
0.0511476
0.0560668
0.0611241
0.0661979
0.0711937
0.0760452
0.0807191
0.0852216
0.0895983
0.0939338
0.0983299
0.102874
0.107288
0.111229
0.114444
0.116752
0.117843
0.117482
0.115614
0.112294
0.107665
0.102004
0.0956393
0.088834
0.0818356
0.0748865
0.0681939
0.0619383
0.0562736
0.0512998
0.0470507
0.0435024
0.0405942
0.0382528
0.0364106
0.0350152
0.0340311
0.0334345
0.0332055
0.0333177
0.0337338
0.0344084
0.0352977
0.0363687
0.0376016
0.0389869
0.0405207
0.0422051
0.0440209
0.0326342
0.0313337
0.0306494
0.030677
0.0315363
0.033327
0.0360787
0.039707
0.0440224
0.0487888
0.0537874
0.058843
0.0638235
0.0686364
0.073222
0.0775481
0.0816065
0.0854125
0.0890012
0.0924224
0.0957246
0.0989311
0.101984
0.104732
0.106964
0.108433
0.108885
0.108153
0.106191
0.103043
0.0988386
0.093786
0.088149
0.0821918
0.0761673
0.0703075
0.0648038
0.0597958
0.0553652
0.0515351
0.0482787
0.0455377
0.0432397
0.0413128
0.0396933
0.0383309
0.0371909
0.0362556
0.0355229
0.0350023
0.0347083
0.0346531
0.0348432
0.0352794
0.0359584
0.0368752
0.0380229
0.0393959
0.0409698
0.0313336
0.0298758
0.0289582
0.0286602
0.0290722
0.0302766
0.0323151
0.0351538
0.0386778
0.0427193
0.0470979
0.051648
0.0562319
0.0607439
0.0651076
0.0692723
0.0732105
0.0769139
0.0803896
0.0836525
0.0867133
0.0895583
0.0921262
0.0943051
0.0959458
0.0968818
0.0969543
0.0960532
0.0941447
0.0912766
0.0875765
0.0832429
0.0785173
0.0736493
0.0688693
0.0643651
0.060265
0.0566335
0.0534776
0.0507622
0.0484267
0.0464
0.0446099
0.0429889
0.041478
0.0400303
0.0386159
0.0372268
0.0358812
0.0346241
0.0335229
0.032654
0.0320871
0.0318699
0.032023
0.0325438
0.0334156
0.0346193
0.0361161
0.0287405
0.0271026
0.0259174
0.0252496
0.025167
0.025733
0.0269891
0.0289382
0.0315315
0.0346757
0.0382529
0.0421411
0.0462273
0.0504123
0.0546121
0.058756
0.0627847
0.0666482
0.0703053
0.0737185
0.0768492
0.0796475
0.0820457
0.0839556
0.0852747
0.0858985
0.0857364
0.0847372
0.0829067
0.0803164
0.0771036
0.0734609
0.0696128
0.065781
0.0621524
0.0588567
0.0559571
0.0534584
0.051324
0.0494923
0.0478909
0.046445
0.0450815
0.0437316
0.0423332
0.0408355
0.0392065
0.0374412
0.0355706
0.033668
0.0318482
0.0302527
0.0290191
0.0282452
0.0279686
0.0281752
0.0288249
0.0298771
0.0312787
0.0254345
0.0236392
0.0222258
0.0212478
0.0207635
0.0208157
0.0214388
0.0226457
0.0244236
0.026733
0.0295128
0.0326894
0.036184
0.0399173
0.0438116
0.0477907
0.0517792
0.0557017
0.0594827
0.0630468
0.0663161
0.0692091
0.0716403
0.0735213
0.0747658
0.0753015
0.0750792
0.0740902
0.0723775
0.0700427
0.0672438
0.0641802
0.0610678
0.0580992
0.0554132
0.0530836
0.0511202
0.0494891
0.048133
0.0469809
0.0459589
0.0449942
0.0440161
0.0429567
0.0417523
0.0403477
0.0387051
0.0368144
0.0347058
0.0324603
0.0302143
0.0281496
0.0264573
0.0252835
0.0246869
0.0246446
0.0250932
0.025972
0.0272169
0.0216853
0.0198754
0.0183932
0.0172864
0.0166021
0.0163761
0.0166274
0.0173638
0.0185832
0.0202714
0.0224025
0.0249391
0.0278345
0.0310352
0.0344815
0.0381081
0.0418424
0.045604
0.0493059
0.0528548
0.0561509
0.05909
0.0615686
0.0634864
0.0647524
0.0653045
0.0651115
0.0641912
0.0626137
0.0605093
0.0580584
0.0554676
0.0529479
0.0506621
0.0487013
0.0470941
0.0458108
0.044796
0.0439885
0.0433157
0.042709
0.0421037
0.0414386
0.0406546
0.0396911
0.0384908
0.0370095
0.0352256
0.0331571
0.0308745
0.0285099
0.026254
0.0243252
0.0229069
0.0220854
0.021842
0.0221011
0.0227859
0.0238236
0.0175359
0.015835
0.0144139
0.0133162
0.0125813
0.0122407
0.0122978
0.0127519
0.0135977
0.0148272
0.0164291
0.0183854
0.0206739
0.0232669
0.0261301
0.0292222
0.0324891
0.0358593
0.0392537
0.0425743
0.0457179
0.0485701
0.0510197
0.0529535
0.0542575
0.0548714
0.0547656
0.0539759
0.0525819
0.0507456
0.0486645
0.046546
0.0445981
0.0429426
0.0416025
0.0405707
0.0397905
0.0391988
0.0387464
0.0383581
0.0379815
0.0375659
0.037069
0.0364484
0.0356601
0.0346461
0.0333701
0.0317974
0.0299311
0.0278259
0.0255998
0.0234301
0.0215282
0.0200858
0.0192024
0.0188664
0.0190026
0.0195316
0.020379
0.01238
0.0109422
0.00973745
0.00880919
0.00819457
0.00791469
0.00794832
0.00826763
0.00886956
0.00975655
0.0108956
0.0122824
0.0139104
0.0157728
0.0178817
0.0202204
0.0228053
0.025609
0.0284916
0.0313438
0.0340841
0.0366243
0.0388847
0.0407179
0.0420148
0.0426783
0.0426943
0.0421081
0.0409779
0.0394751
0.0378981
0.0364215
0.0352347
0.0343414
0.0336779
0.0331138
0.0326476
0.0323705
0.0321269
0.0318101
0.0314511
0.0310307
0.0305281
0.0299171
0.0291304
0.0281764
0.0270135
0.0256376
0.0240854
0.0223301
0.0204335
0.0185457
0.0168731
0.0155927
0.0147873
0.0144747
0.0145945
0.0150717
0.0158089
0.148551
0.140814
0.135033
0.130003
0.124961
0.119501
0.113456
0.106825
0.0995255
0.0917319
0.0852493
0.080928
0.0786496
0.0776482
0.0764315
0.0746709
0.0723011
0.0692287
0.0655404
0.0615089
0.0574755
0.0535832
0.0494321
0.0441817
0.0368185
0.140078
0.135677
0.130913
0.126069
0.120968
0.115477
0.109504
0.102984
0.095975
0.0889336
0.0826442
0.0775561
0.0736787
0.0706751
0.0681034
0.0657344
0.0634262
0.061066
0.0585961
0.056015
0.053335
0.0505029
0.0473025
0.0433087
0.0377585
0.138009
0.132234
0.126703
0.121214
0.115567
0.109629
0.103321
0.0966459
0.0897814
0.0831114
0.0770452
0.0718248
0.0674905
0.0639174
0.0609361
0.0584373
0.0563283
0.0545023
0.0528496
0.0512652
0.0496343
0.0477934
0.0454671
0.0421897
0.037253
0.136434
0.128603
0.121737
0.115307
0.108975
0.102539
0.0959153
0.0891394
0.0823936
0.0759677
0.0701296
0.0650361
0.0607268
0.057156
0.0542567
0.0519772
0.0502558
0.048996
0.0480669
0.0473132
0.0465506
0.0455363
0.0439122
0.0411315
0.0362585
0.134413
0.124772
0.116526
0.109093
0.102061
0.0951666
0.0882973
0.0814738
0.0748427
0.0686188
0.0629956
0.0580916
0.0539512
0.0505681
0.0479173
0.0459666
0.0446585
0.0438952
0.0435385
0.0434122
0.0432904
0.0428615
0.0416702
0.039059
0.0340257
0.131352
0.120342
0.110883
0.102539
0.0948932
0.0876354
0.0806076
0.0737954
0.0672989
0.0612764
0.0558793
0.0512086
0.0473128
0.0442003
0.0418563
0.0402462
0.0393048
0.0389311
0.0389858
0.0392867
0.0395901
0.0395525
0.0386583
0.0361835
0.0310296
0.127636
0.115344
0.104726
0.095564
0.087418
0.0799118
0.0728238
0.0660935
0.0597743
0.0539821
0.0488424
0.044447
0.0408464
0.038043
0.0360125
0.0347053
0.0340418
0.0339211
0.0342092
0.0347304
0.0352392
0.0353925
0.034659
0.0322955
0.0272346
0.123716
0.109606
0.0977582
0.087884
0.079384
0.071768
0.0647304
0.0581662
0.052085
0.0465737
0.0417391
0.0376698
0.0344232
0.0319647
0.0302478
0.0292007
0.0287283
0.0287297
0.0290874
0.029645
0.0301739
0.0303538
0.0296838
0.027461
0.0227197
0.118882
0.102559
0.0894983
0.0790978
0.0704452
0.0628903
0.056037
0.0497206
0.0439241
0.0387488
0.0342646
0.0305799
0.0277907
0.0257378
0.0243461
0.0235306
0.0231677
0.0231777
0.0234671
0.0239032
0.0242719
0.0243066
0.0235244
0.0212498
0.0168285
0.147482
0.146367
0.0627423
0.0226754
0.00344731
0.00519973
0.105982
0.00733348
0.0825893
0.00887159
5.2917
0.00673128
0.0945744
0.00540105
0.176149
0.00441818
0.553687
0.0217868
0.00857782
0.407335
0.0421928
0.0116585
0.423588
0.011233
0.00806209
0.00386567
0.00825645
0.0165957
0.0813051
0.493548
0.015424
0.00353997
0.218765
0.148374
0.418954
0.00355126
0.14644
0.18495
0.191102
0.00671029
0.608523
0.000895211
0.00573081
0.073019
0.0441434
0.0237884
4.3626
1.45366
0.0829324
0.156619
4.44485
0.723625
0.0476458
0.0212416
0.102958
0.0707861
0.00506383
0.0416246
0.00572925
0.413299
0.00588949
0.0565687
0.00325961
0.00712562
0.00689174
0.102126
0.00786211
0.018736
0.102156
0.15944
0.0652409
0.0162195
0.00507406
0.416761
0.0060508
0.0400969
0.46508
1.46069
0.00646079
0.0200265
0.132081
0.0167068
0.00544044
4.42276
0.00385496
0.00740538
0.00545101
1.21666
0.235002
0.0244443
0.0179252
0.0157301
0.0066422
0.00694081
0.00375403
4.94686
0.00373044
4.78677
0.0015295
0.420831
0.00739796
0.565266
0.00905355
0.0196854
0.00576273
0.0350704
0.418106
0.122456
0.00221192
0.510045
0.0102588
0.00389709
0.341106
0.0201845
0.0447798
0.0831533
0.351414
0.00672028
0.0647079
0.00385299
0.000457378
0.00417355
0.0105872
0.0076975
0.220507
0.00533582
0.721046
0.0813794
0.00556624
1.62048
0.00550295
0.377718
0.159988
0.191953
0.0399689
0.00562369
0.0388731
0.00403953
0.0045153
0.774176
0.0198398
0.142067
0.493964
0.000464171
0.0796116
0.00617988
0.0228211
0.10781
0.00432299
0.485268
0.0107073
0.00853788
0.023234
0.431729
0.00658522
4.1759
0.00769151
0.00547141
0.871889
0.00353364
0.00514373
0.0765119
0.00769191
4.80937
0.00794198
4.76349
0.00532268
0.0084119
0.0094645
0.00703778
0.00526119
0.00786075
0.0185292
4.56245
0.0146229
0.0299084
0.147856
0.118015
0.171317
0.0199223
0.20814
0.00327398
0.0500544
0.193016
0.112838
0.00203482
4.81479
0.00217956
0.153367
0.00410207
0.567964
0.495195
0.0587081
0.121127
0.220626
0.180755
0.00603896
0.0108581
0.0816054
0.100262
0.133644
0.0197581
0.0135646
0.00376426
0.0187135
0.00611351
0.00816806
0.00768034
0.111104
0.00550199
0.00573387
0.00491563
0.209122
0.0187119
0.012777
0.614334
0.00364256
0.00279019
0.0231135
0.041413
0.0086174
0.000932396
0.00666379
0.0411083
0.00866859
0.444147
0.0134074
0.514867
0.00198861
0.00423195
4.05549
0.00371324
0.0031767
0.00378856
0.180174
0.00851884
0.724968
0.0118496
0.190629
0.373541
0.0144272
0.00596405
0.00720838
0.0614582
0.0054941
0.00514453
0.00391468
0.0817169
0.00446269
0.00515726
0.00161035
0.0358023
0.00786088
0.0917845
0.00279018
0.00799268
0.361368
0.462786
0.851528
0.00953994
0.0184646
0.00571512
0.00506603
0.00655417
0.398575
0.0071092
0.00603374
0.0231021
0.0969905
0.00848069
0.0628263
0.0679279
0.00197151
0.00268778
0.00708654
0.0225556
0.00828713
0.174641
0.00519918
0.8742
0.141589
0.0108771
0.0175174
0.0227939
0.179012
0.00509283
0.0358963
0.0120763
2.23046
0.630114
0.237387
0.00761479
0.00061012
3.18281
0.204834
0.571821
0.286677
0.0152916
0.00354402
0.322684
0.742667
0.00523074
0.00341993
0.00377705
0.216542
0.00667717
0.0400517
0.0116934
0.737155
0.0147484
0.0172168
0.0166093
0.197014
0.00558416
0.00175911
0.116997
4.12905
0.00751068
0.00805594
0.311875
0.685378
0.00675543
0.00350762
0.0138629
0.00486006
0.00690255
0.333534
0.129683
0.0165196
0.0444519
0.00774058
0.204346
0.00856123
0.00872175
1.05404
0.00935095
0.00539661
0.00530281
0.000462598
0.0183548
0.00482801
0.00855658
0.361549
0.0165337
0.363476
0.00377769
0.00364118
0.00276233
0.00641525
4.5745
0.0233484
0.00672919
0.00132865
0.689235
2.74153
0.00843597
0.411143
0.0494075
0.00684348
4.7918
0.123382
0.427171
0.0037399
0.416202
0.000673668
0.00675505
0.0064382
3.66055
0.0052256
0.150892
0.0203864
0.460346
0.0902985
0.153416
0.0948802
0.00594056
0.00519417
0.0102188
0.00323734
0.0086217
0.260121
0.00663949
0.200982
0.08781
0.061177
0.311349
0.00850693
0.348956
4.67114
0.52518
0.0376215
0.00598858
0.0526164
0.143547
0.203195
0.00879893
0.00654695
0.185313
0.00478955
0.0832297
0.00749396
0.00698547
0.00362679
0.171509
0.00908038
0.000142336
0.159307
0.0539018
0.024333
0.0131719
0.129364
0.00509096
0.304149
0.00442418
0.00620792
0.00797727
0.082153
4.52192
0.00311338
0.0140052
0.0086996
0.00329425
0.0235095
0.0101891
0.00733616
1.04335
0.000368444
0.00519369
0.0147204
0.00358133
0.00399704
0.00786315
0.0279364
0.00738484
0.186056
0.00571566
0.0105815
0.000354578
0.00254846
0.00406828
0.0037213
0.388911
1.39979
0.0217405
0.107844
0.0277352
0.012681
0.0883869
0.00562508
0.00602264
0.131733
0.00470204
0.00745842
0.261613
0.0166516
0.152949
4.87427
0.00694436
0.0170464
0.123231
0.00781832
0.109567
0.121056
0.20561
0.932572
0.00801423
0.00594638
0.0478084
0.00371085
4.30773
0.0774662
0.00803839
0.406035
0.0044566
0.00760275
0.119659
0.0290667
0.00849816
0.120754
0.0973782
0.0137892
0.201716
0.000415465
0.00738508
4.24503
0.00280629
0.0141108
0.01457
0.137862
0.0193352
0.215202
0.00604585
0.00552228
0.150448
0.00519303
0.00495584
0.196553
0.00416067
0.00713914
0.152896
0.00539385
0.204443
0.00471563
0.0403741
0.139133
0.173095
0.00381902
0.00428751
0.149664
0.003759
0.00812236
0.156272
0.0129745
0.0254739
0.0020029
3.71524
0.201836
0.0891982
0.00592194
0.0372646
0.0098773
0.697258
0.462961
0.0249795
0.145381
0.0196798
0.968068
0.445042
0.00584801
0.00925091
0.028554
0.0208746
0.0217985
0.0485027
0.00374575
0.024848
0.00757942
0.215433
0.0897685
0.00580193
0.296052
0.572069
0.0104513
0.44611
0.0015271
0.0337602
0.00676465
0.00924761
0.00410221
0.206046
0.175579
0.200618
0.00568998
0.101735
0.0890246
3.93212
0.00676393
0.014538
0.0838108
0.143877
0.0154941
0.18808
0.0075092
0.101407
0.53901
0.00901964
0.0333644
0.00520337
0.00362635
0.0189218
0.219348
0.0210874
0.163578
0.00536495
0.00305751
0.36353
4.37557
0.160887
0.00766664
0.0205263
0.958684
0.0491426
0.0175976
0.00992639
0.00652527
0.171137
0.00902381
0.0047289
0.243077
0.0139172
0.0115834
0.00978268
0.00745421
0.456715
0.0167567
0.00521407
0.125149
0.0965311
0.00284403
0.00328966
0.382741
0.0159223
0.000795548
0.00469863
0.079257
0.00296078
0.00627515
0.00893373
0.010886
0.00449712
0.00574662
0.193381
0.00545667
0.00806022
0.0236908
0.0494519
0.00287843
0.00402361
0.0318792
0.00824218
0.00872347
0.00683809
0.0165345
0.00971048
0.0114798
0.398765
4.26926
0.0148781
0.163842
0.0121544
0.00834377
0.00876111
0.00207025
0.00613254
0.00360521
0.0616608
0.0145922
0.0065008
0.00792808
0.307885
0.0313868
0.00808635
0.0934486
0.00941406
0.00450231
0.00259576
0.0176738
0.0244388
0.403155
0.420386
0.722536
0.00199344
0.0086788
0.00122283
0.0206078
0.00950139
4.33643
0.0105394
0.0416739
0.00404307
0.197401
0.0174966
5.30048
0.000339066
0.00864135
0.00679964
0.292881
0.0872314
0.0716577
0.0470623
0.0119926
0.00647442
0.00309266
0.653661
0.000532135
0.00585431
0.182795
0.00368827
0.0208635
0.00833475
0.00184313
0.0496709
0.00423453
0.0051313
0.00566838
0.00950765
0.00958305
0.0852711
0.423816
0.00364221
0.179857
0.00301427
3.33554
0.00601998
0.0151229
0.00520915
0.00343481
0.24707
0.00431201
0.00889322
0.00581692
0.01804
0.00287988
0.0153895
0.0201115
0.44497
0.180511
0.00921436
1.31077
0.20378
0.135989
0.396582
0.00706022
0.00799175
0.00861624
0.000287524
0.00587229
0.126834
0.00515612
0.00392447
0.0877755
0.0114944
0.0152611
0.0949354
0.00494909
0.012912
0.00672583
0.00911259
0.154804
0.323456
0.00614264
0.229742
0.0568894
0.109373
0.0461597
0.476639
2.8034
0.0225521
0.00267146
0.00424994
0.000256435
0.0161744
0.00739046
0.207591
0.155177
0.0143515
0.830592
0.022015
0.00289304
0.00698623
0.00472675
4.58774
0.0284904
0.00540662
0.0855827
0.599568
0.0623681
0.321802
2.65749e-05
0.00482761
0.111783
0.000698842
0.160054
0.0253115
0.401343
0.446256
0.00734218
0.456263
0.0026659
0.000854704
0.0755218
0.0100169
0.00506711
0.00341072
0.00652852
0.0415557
0.00413006
0.00371815
0.00545708
0.00529297
0.0171571
0.00463365
0.736388
0.202442
0.0100254
0.0211011
0.0074251
0.707435
0.00865483
0.0151096
0.020657
0.0839734
0.0111003
0.00087317
0.020424
4.38137
0.0268788
0.251807
0.004786
0.121967
0.176627
0.827565
0.029193
0.182377
0.00606664
0.0178112
0.460867
0.00138078
0.00790154
0.0290807
0.181302
0.0611638
0.00332981
0.0030486
0.158406
0.00905589
0.0334163
0.13676
0.0205158
0.00320311
0.163309
0.110145
0.202994
0.00731459
0.00333745
0.0016583
0.110865
0.161817
0.00503722
0.00899914
0.00445154
0.233106
0.00279909
0.0700701
0.189575
0.00604195
0.00694205
0.0257586
0.00575003
0.0757352
0.00334149
0.0730761
0.00470901
0.00611619
0.184667
0.015906
0.0155579
0.00718595
0.0481608
0.0757625
1.14705
0.00254803
0.00511447
0.0070978
0.162463
0.764731
0.0391337
0.00287869
0.127405
0.194066
0.000199977
0.00585131
0.00446858
4.11008
0.00456024
0.831753
0.0050992
0.000350651
0.165752
0.00432716
0.0252375
0.0207029
0.0963435
0.69363
0.451745
4.45748
0.0058832
0.16684
0.157748
0.0191342
0.112811
0.00397603
0.00509689
0.153271
0.00433383
0.0372133
0.0498421
0.0294261
0.00812769
0.00578516
0.189736
0.00578479
0.0039603
0.271184
0.117859
0.358589
0.0124942
0.0316542
1.22196
0.386849
0.199112
0.067829
0.154793
0.00980344
0.00202063
0.0362318
0.136577
0.00753533
0.0202188
0.00905926
0.128619
0.00569513
0.0740184
0.215957
0.000593925
0.00313797
0.0123619
0.266682
0.149204
0.269409
0.0795134
0.0175846
0.0177228
0.0376319
0.0339528
0.153619
0.0395231
0.00388088
0.00377483
0.00445874
0.00186109
0.135675
2.91782
0.00210125
0.280113
0.0213615
0.693049
0.0115125
0.0036273
0.00758407
0.0546851
0.204942
0.0153
0.069879
0.00389701
0.00280368
0.215492
0.0160882
0.364813
0.197907
0.147641
0.00364954
0.0183472
0.222053
0.00421324
0.0116177
0.0126519
0.156794
0.00878447
0.00514278
0.630425
0.171895
0.00593701
0.0274417
0.0115882
0.0177481
0.0056208
0.00290088
0.053391
0.00208975
0.0348602
0.221329
0.526135
0.0619953
0.00800759
0.0222074
0.0378628
0.00574829
0.0782454
0.00341926
0.00294668
0.331354
0.00495447
0.0537005
0.00929411
0.0085902
0.100956
0.00833082
0.0185796
0.00254861
0.0751558
0.0982409
0.318495
0.00671835
0.364103
0.00376826
0.0182861
0.00459203
0.428603
0.19375
0.0162431
0.559435
0.00265514
4.34247
0.00492651
0.094758
0.0167097
0.00831152
0.0082817
0.0839857
0.199127
0.00338399
0.0112952
0.207504
0.00332956
0.0159671
0.00643742
0.00199051
0.00582446
1.79741
0.00789354
0.0060126
0.63095
0.033345
4.51762
0.0016096
0.0160066
0.0031778
0.00830838
0.0146578
0.00307
0.300777
0.00847532
0.0619457
0.00326266
0.0321111
0.0372338
0.312111
0.00717904
0.00873673
0.0160548
0.012435
0.00310304
0.0201254
0.67845
0.0210829
0.0575344
0.00385373
0.23446
0.147485
0.0225585
0.143021
0.00448498
0.118822
0.446373
4.5407
0.00443035
0.00451678
0.0254257
0.24899
0.0187331
0.0309232
0.0130416
0.0417196
0.126198
0.0100554
0.00735239
0.00409173
0.00805742
0.015945
0.00813625
0.123122
0.00632541
0.195688
0.00505066
0.0033635
0.00209239
0.00851955
0.0552874
0.00274316
0.712057
0.162533
0.00283032
0.006761
0.0885657
4.41846
0.00366577
0.00294321
0.0185826
0.019665
0.0190568
0.0272549
0.785627
0.00373061
0.00572676
0.0708413
0.00447909
0.0157647
0.229337
0.00377245
0.00638717
0.000843817
0.0088966
0.196296
0.0255793
0.336903
0.00567693
0.0205397
0.0164096
0.438664
0.516488
0.00678343
0.0064138
0.867044
0.0043842
0.00577224
0.144509
0.103092
0.00492387
0.00789115
0.00298683
0.0476639
0.169206
0.0119103
0.00870661
0.199995
0.265635
0.000611757
0.00313958
0.0133346
0.0214473
0.0196412
0.0587334
0.00561462
0.82799
0.00444553
0.0182372
0.00335329
0.0541469
0.0030677
0.782781
0.121108
0.160871
0.196314
0.284266
0.024175
0.00365788
0.513759
0.0692607
0.00584035
0.0128722
0.00248229
0.0188665
0.00479407
0.00453996
0.00455801
0.11853
0.00589586
0.0256203
0.211848
0.0033432
0.0296277
0.017712
4.594
0.0015956
0.94154
5.2857
0.00311372
0.00275621
0.0278065
0.017511
0.0260433
0.299061
0.0281807
0.0191279
0.00600096
0.00579905
0.182148
0.497474
0.00546252
0.0182388
0.00713546
0.00349651
0.0116891
0.0292111
0.00731139
0.0031904
0.00682235
0.124317
0.00766705
0.0177519
0.321859
0.00446032
0.0510423
0.0162281
0.0215837
0.0315561
0.019554
0.0687183
0.00806775
0.0251955
0.186722
0.00295084
0.0420957
0.202817
0.00668668
0.017959
0.019713
0.155844
0.00403288
0.106106
0.00914282
0.218429
0.16156
0.0893962
0.114529
0.00604321
0.0100353
0.230715
0.282395
0.011768
0.0133202
0.00360215
0.545735
0.0197884
0.0178207
0.00270698
0.018596
0.0357911
0.00266679
0.00552587
0.00347347
0.322331
0.168207
0.00879008
0.0214089
0.0119992
0.00440701
0.00436987
0.134112
0.0212716
0.0252574
0.172731
0.0810681
0.000281106
0.430911
0.0932342
0.634249
0.136648
0.00645919
0.182375
0.496272
0.436513
0.00126489
0.131825
0.00691377
0.104134
0.012684
0.0063017
0.108047
0.16591
1.21408
0.193666
0.0211891
0.00502312
0.0832924
0.182295
0.0116616
0.537553
0.013778
0.574508
0.0064083
0.20515
0.0154769
0.00582004
0.0045688
0.147675
0.00534988
0.0102337
0.96582
0.00429828
0.0783114
0.00217697
0.00759348
0.425224
0.0649057
0.0214479
0.0563519
0.207388
0.0155018
0.0841024
0.0141347
0.0137188
0.0402637
0.0113846
0.165364
0.140784
0.00249039
0.502152
0.0134186
0.0490163
0.0128183
0.0177074
0.00300438
0.0409026
0.056201
0.286918
0.00302836
0.745277
0.0131102
0.0797065
0.989843
0.0101105
0.0129652
0.280628
0.00869073
0.00579454
0.000160949
0.662297
0.184537
0.00438997
0.237205
0.0194645
0.00441426
0.0893886
0.00980933
0.00548096
0.118584
0.021526
0.00490994
0.00876706
0.00439744
0.00939856
0.0223294
0.157382
0.189117
0.026384
0.00757585
0.00277714
0.130735
1.16061
0.00437707
0.00602182
0.0255864
0.273819
0.0062665
0.0421437
0.112538
0.00779352
0.0629112
0.54484
0.00442803
0.0416362
0.0062314
0.0151868
0.00331703
0.00445233
0.0138618
0.0366199
0.195783
0.00173972
0.250073
0.00646931
5.44159
0.00841544
0.163716
0.0101577
0.944613
0.113182
0.00372087
0.0165431
0.0135392
0.0120778
0.00665597
0.165178
0.232445
0.0114658
0.00760829
0.0170311
0.0151796
0.00609635
0.00194674
0.548263
0.46952
0.11864
0.318818
0.0166649
0.00773283
0.149871
0.0108151
0.10543
0.00236473
0.0188842
0.00584252
0.0125723
0.00434422
0.0122924
0.00482141
0.00855441
0.271311
0.216352
0.00617668
0.0384063
0.0923467
0.0688022
0.00586103
0.181585
0.161815
0.458337
0.0185417
0.129773
0.00506042
0.0207117
0.0181719
0.0172851
0.0108978
0.13366
0.150147
0.0212309
0.0190165
0.971181
0.0241869
0.166294
1.37975
0.0108008
0.00486869
0.00635708
0.0189722
0.189296
0.00620922
0.135633
0.126204
0.0116278
0.00319858
0.0100729
0.065055
0.0125
0.00291501
0.00833392
0.00309531
0.0200615
0.0878392
0.021747
0.146573
0.00504232
0.00821509
0.0152028
0.00369727
0.00576154
0.0667106
0.174706
0.00552617
0.211831
0.00760985
0.410005
0.0177376
0.0153791
0.00460526
0.00688556
0.211025
0.00951643
0.00843138
0.0518443
0.116915
0.0126288
0.00788866
0.00542295
0.0144006
0.15028
0.00165649
0.00782143
0.283703
0.00476922
0.00656
0.0165379
0.161706
0.00462866
0.230982
0.126712
0.00900954
0.0245567
0.0131333
0.00243801
0.430911
0.0187048
0.00642209
3.80528e-05
0.0533409
0.00434635
0.0178728
0.00622095
0.20579
0.551528
0.00312625
0.00346822
0.237388
0.014097
0.0261192
0.182386
0.00832966
0.041633
1.1796
0.0114208
0.167452
0.00893701
0.0050174
0.0179238
0.00490802
0.109461
0.147174
0.00787514
0.00821314
0.40766
0.0098287
0.0127787
0.00437319
0.0438152
0.102876
0.00831809
0.00291274
0.00757556
0.00635442
0.00888897
0.000153359
0.00461957
0.0210909
0.39742
0.0589008
0.00338926
0.235318
0.0114916
0.193629
1.24811
0.868733
0.384665
0.00831585
9.14699e-05
0.0648544
0.0198588
0.00727207
0.0910396
0.00462968
0.0276887
0.169667
0.0729728
0.018409
4.24406
0.00834213
0.428959
0.00310251
0.00281497
0.053357
0.0319556
0.193498
0.00830759
0.00301079
0.00500684
0.0195223
0.223621
0.0285149
0.0109511
0.173674
0.0578022
0.16867
0.0091103
0.424957
0.00870127
0.00470178
0.0367528
0.00693129
0.0505886
0.382019
0.0922044
0.00686138
0.177779
0.705855
0.00959711
0.677985
0.0193714
0.00130685
0.0602999
0.48631
0.0128897
0.00537867
0.00298215
0.270062
0.00793556
0.00510651
0.624247
0.0843486
0.0136135
0.54469
0.180965
0.0341164