/*--------------------------------*- C++ -*----------------------------------*\
  =========                 |
  \\      /  F ield         | OpenFOAM: The Open Source CFD Toolbox
   \\    /   O peration     | Website:  https://openfoam.org
    \\  /    A nd           | Version:  10
     \\/     M anipulation  |
\*---------------------------------------------------------------------------*/
FoamFile
{
    format      ascii;
    class       volScalarField;
    location    "250";
    object      nut;
}
// * * * * * * * * * * * * * * * * * * * * * * * * * * * * * * * * * * * * * //

dimensions      [0 2 -1 0 0 0 0];

internalField   nonuniform List<scalar> 
10435
(
34.3959
46.8094
27.7509
36.0448
47.8973
47.1622
23.5167
20.5025
21.2847
42.4762
46.801
42.0747
40.2347
1.8843
1.65342
23.8368
2.12515
42.473
21.2683
39.5651
21.4309
33.4018
25.7477
32.4131
38.2965
15.0309
4.3414
34.7952
3.78747
43.336
35.3272
46.3887
20.4994
3.07759
26.1961
7.87968
28.0394
5.14172
34.0585
24.686
45.9382
24.5079
2.93704
36.6891
29.8127
28.7391
46.8919
3.82079
19.5558
31.4755
21.709
43.2862
30.6554
4.86029
28.3951
3.88228
30.7362
4.51995
2.37881
28.1586
24.6249
37.0157
4.06578
45.4324
27.5827
31.1583
2.54658
3.77841
20.2759
35.113
5.28814
7.69904
2.60344
28.9933
1.44917
2.25778
36.8039
21.519
19.9
1.26426
35.1856
27.6629
26.6423
4.39987
36.6466
3.8212
12.9712
41.0342
1.50835
27.2944
39.2369
39.5147
40.0347
2.08517
39.7577
2.7408
40.5802
1.5821
2.13171
44.0677
1.48075
48.8838
4.83334
43.0542
48.8235
35.2883
39.2852
33.4342
37.5483
1.41422
29.732
48.7521
11.402
3.33111
43.5405
32.0684
44.6744
10.457
44.9976
42.543
44.6416
2.05508
23.9425
1.3071
48.0204
18.3661
41.5423
1.79419
46.3894
6.11111
1.53715
47.6609
22.8378
1.43319
6.32983
11.2734
1.93075
37.5746
45.3977
32.7051
36.2078
31.9398
2.75186
43.0601
35.2968
1.83871
1.20876
45.9179
2.29494
41.9908
4.55727
32.4025
30.3483
40.7766
43.5318
6.61756
48.4725
38.7188
43.305
49.6567
36.8751
1.64653
43.4386
39.6291
1.41708
45.8806
21.6768
40.3864
39.1184
45.1425
39.5139
3.15719
3.87731
1.65914
40.1857
47.6289
20.3399
3.03819
29.6043
3.65208
47.9516
47.6457
42.5326
18.7057
34.2459
3.31845
2.48686
20.8079
47.9601
42.924
43.5982
22.049
6.77417
5.81405
48.6698
20.2884
2.38093
1.77607
3.36341
25.7951
1.49063
5.02748
37.6527
4.65392
33.5242
45.8934
43.4215
39.144
3.81634
37.0589
4.77701
25.3
44.3326
40.3674
4.11769
2.03636
2.38998
10.2188
15.1264
1.87251
3.6138
2.71742
3.14214
1.55701
9.3099
24.343
23.2826
1.44288
39.1149
1.97268
3.24277
22.8593
18.6855
35.0493
5.31727
2.38532
33.5533
10.7884
36.0215
36.1648
39.7874
11.8162
7.05901
4.14481
44.7234
20.5748
1.45476
19.4245
3.31403
35.3611
4.17431
2.25481
40.2348
38.533
19.814
46.7098
3.36432
20.4477
6.49877
4.68425
21.5968
39.7155
13.9602
38.3612
7.06703
2.8135
39.8289
30.3164
17.2045
46.0753
23.3486
19.0992
19.2676
36.3236
12.5103
42.986
5.68964
47.6585
21.9686
19.2084
39.5372
2.73664
25.8184
1.51125
5.71617
11.4568
47.8654
28.5829
3.98006
3.35623
1.38366
48.2928
3.55456
19.0628
35.702
5.50125
2.07219
19.3278
47.4653
33.8274
3.63248
37.6414
28.8537
3.47865
46.9142
1.7971
2.5442
37.1751
32.2038
3.62428
32.9922
5.87891
17.2374
47.2384
22.9141
4.92275
13.9602
39.6067
3.39247
41.3403
48.3675
3.90112
15.4421
17.8427
19.2767
36.9555
10.6749
32.0789
2.99492
4.89936
24.9737
2.98302
3.33419
26.3456
38.8794
4.16849
4.32194
3.58451
2.85247
3.72446
9.07134
7.29986
21.816
3.92005
3.79157
5.45584
3.83167
5.11561
14.1803
19.4388
3.06921
35.6177
4.21334
35.0368
19.2134
18.6851
40.7139
28.7031
4.48651
3.4687
3.83713
18.972
3.66178
14.2848
3.92505
7.75658
4.21178
40.6781
7.79637
19.5979
23.4118
6.86197
41.4163
18.0905
8.54317
4.43387
4.3162
4.70147
3.76392
12.2437
5.39422
24.1249
19.6497
3.49758
19.454
19.1196
37.6126
39.6454
19.0128
32.0507
24.3402
1.702
3.8763
3.89344
4.80533
29.1868
4.1083
41.1426
5.45775
3.77991
6.22707
3.27087
9.64223
22.6005
4.59827
19.5835
38.5658
4.9953
10.5055
5.51598
19.0008
6.04091
9.06761
8.90196
3.7344
4.10471
3.80151
30.6553
5.25607
9.35734
3.77132
2.60618
41.3168
4.92102
8.20985
17.3347
3.23103
193.051
178.568
165.934
158.238
151.332
141.089
126.169
108.335
89.4128
240.401
228.18
215.356
205.515
196.338
184.495
168.45
148.887
127.119
284.442
273.875
261.204
249.875
238.757
225.203
207.683
186.222
161.519
325.93
316.623
304.257
291.983
279.226
263.892
244.538
220.85
193.168
363.735
355.4
343.425
330.595
316.47
299.368
278.03
252.086
221.887
394.987
387.424
375.902
362.815
347.625
328.982
305.895
278.165
246.43
415.362
408.41
397.387
384.296
368.467
348.841
324.733
296.215
264.326
420.127
413.634
403.045
390.124
374.183
354.427
330.438
302.542
272.131
406.259
399.968
389.515
376.757
361.155
342.147
319.498
293.706
266.509
374.601
368.088
357.337
344.565
329.499
311.764
291.234
268.491
245.617
330.61
323.332
312.046
299.174
284.666
268.271
249.923
230.186
211.168
282.073
273.835
262.405
249.779
235.981
220.84
204.351
187.002
170.604
234.489
226.98
216.656
205.063
192.366
178.536
163.674
148.189
133.379
192.504
187.8
179.801
169.906
158.64
146.22
132.906
119.073
105.559
160.721
158.807
153.106
144.888
135.005
123.906
111.989
99.6405
87.475
140.14
139.36
134.936
127.826
118.954
108.883
98.0866
86.9763
76.0471
127.625
126.485
122.315
115.68
107.382
97.9936
88.0161
77.886
68.0803
118.53
116.719
112.331
105.78
97.7458
88.7778
79.3783
69.9985
61.1349
109.764
107.51
102.871
96.2858
88.3843
79.7078
70.7537
61.9705
53.8352
99.9901
97.5646
92.801
86.229
78.4714
70.0796
61.5508
53.3207
45.8064
88.9584
86.553
81.8216
75.3795
67.8606
59.8359
51.8042
44.1845
37.3572
77.0439
74.7819
70.2198
64.0383
56.8934
49.376
41.9757
35.0733
28.9737
64.9892
62.9228
58.617
52.8091
46.1844
39.3436
32.7451
26.7091
21.4573
53.72
51.7654
47.7125
42.3594
36.3866
30.3861
24.7487
19.7069
15.4058
44.2263
42.0182
38.1179
33.2758
28.0391
22.9898
18.4121
14.4061
11.0772
1.26425
1.1873
1.10578
1.02325
0.947381
0.889082
0.859766
0.867821
0.917765
1.01191
1.15296
1.34554
1.59673
1.91643
2.31693
2.81253
3.41851
4.14904
5.01484
6.02014
7.15953
8.41636
9.76303
11.1637
12.5798
13.9726
15.3123
16.6051
17.8618
19.0769
20.2424
21.3694
22.4961
23.6563
24.9004
26.295
27.9023
29.7795
31.9809
34.5279
37.3704
40.3596
43.2588
45.827
47.9461
49.7249
51.5101
53.7984
57.0895
61.7728
68.0696
76.0391
85.612
96.6063
108.746
121.661
134.915
148.024
160.509
1.21071
1.13198
1.04788
0.965823
0.897
0.852436
0.839345
0.860382
0.915929
1.00686
1.13584
1.3074
1.5285
1.80884
2.16127
2.60133
3.14667
3.81571
4.62507
5.58561
6.69749
7.94549
9.29864
10.7208
12.1773
13.6369
15.0742
16.4752
17.8363
19.1618
20.4683
21.789
23.1688
24.6615
26.3335
28.2597
30.5129
33.1472
36.1652
39.4717
42.8415
45.9389
48.4101
50.0226
50.7783
50.936
50.9381
51.2922
52.4694
54.8468
58.6921
64.1713
71.3587
80.2346
90.6733
102.426
115.121
128.28
141.345
1.1635
1.09383
1.02047
0.949692
0.891364
0.855631
0.849658
0.876297
0.935535
1.027
1.15183
1.31361
1.51843
1.77517
2.09579
2.49495
2.98964
3.59823
4.33848
5.22434
6.26179
7.44496
8.75468
10.1619
11.6334
13.1377
14.6503
16.1581
17.6609
19.1715
20.718
22.3456
24.1155
26.1024
28.3898
31.0566
34.1511
37.6533
41.4314
45.2186
48.6413
51.3115
52.9544
53.5074
53.1421
52.2079
51.1407
50.3814
50.3307
51.334
53.6837
57.6195
63.3165
70.8573
80.1933
91.1118
103.224
115.999
128.803
1.10342
1.04548
0.987037
0.931938
0.886727
0.859285
0.856572
0.882873
0.939958
1.0286
1.15021
1.30792
1.50709
1.75517
2.06269
2.44254
2.90965
3.48018
4.17009
4.99276
5.95609
7.05961
8.2932
9.63842
11.0721
12.5712
14.1181
15.7049
17.3375
19.0378
20.8468
22.8258
25.0541
27.6213
30.6102
34.0662
37.9556
42.1243
46.2833
50.0444
53.0123
54.8987
55.6061
55.2438
54.0815
52.4742
50.7967
49.408
48.6446
48.8329
50.3022
53.3835
58.3743
65.4676
74.6579
85.6659
97.9324
110.705
123.18
1.01262
0.964741
0.920431
0.882066
0.853291
0.839245
0.845289
0.876113
0.935017
1.02435
1.1465
1.3049
1.50457
1.75236
2.05686
2.42907
2.88132
3.42665
4.07778
4.84571
5.73792
6.75682
7.89898
9.15577
10.5154
11.9665
13.5022
15.1247
16.8504
18.7133
20.7683
23.0914
25.7724
28.8972
32.5156
36.5971
40.9897
45.4049
49.4546
52.7377
54.9476
55.951
55.8059
54.7213
52.991
50.9311
48.8441
47.0116
45.7103
45.2409
45.9589
48.2844
52.6624
59.4431
68.702
80.0862
92.8038
105.806
118.079
0.896635
0.85573
0.822535
0.798995
0.787413
0.790338
0.810944
0.85272
0.919021
1.01308
1.13828
1.29859
1.49898
1.74568
2.04626
2.40923
2.8443
3.36169
3.97103
4.68078
5.4973
6.42421
7.46221
8.60965
9.86409
11.225
12.6971
14.2946
16.0463
17.9996
20.223
22.8025
25.8269
29.3576
33.3841
37.7798
42.281
46.5148
50.078
52.638
54.0152
54.2109
53.3788
51.7657
49.6495
47.2966
44.9446
42.8077
41.1003
40.0729
40.0542
41.4839
44.897
50.8044
59.452
70.5642
83.2648
96.3002
108.455
0.767194
0.731514
0.70606
0.693374
0.695905
0.715301
0.752251
0.808011
0.884508
0.984453
1.11143
1.26977
1.46451
1.70147
1.9872
2.32892
2.7343
3.21078
3.76565
4.40562
5.13591
5.96049
6.88226
7.90375
9.02873
10.2648
11.6263
13.1383
14.8419
16.7974
19.0849
21.7946
25.0025
28.7271
32.8826
37.2511
41.4944
45.2207
48.0788
49.8407
50.4447
49.983
48.6539
46.7045
44.3826
41.9084
39.4663
37.2153
35.3112
33.9399
33.3609
33.9509
36.2196
40.735
47.9055
57.6766
69.3516
81.7284
93.5155
0.628387
0.596824
0.576279
0.569899
0.580514
0.610103
0.657707
0.722138
0.803249
0.902522
1.02296
1.16882
1.34514
1.55749
1.81195
2.11486
2.4727
2.89151
3.37666
3.93261
4.56388
5.2747
6.06902
6.95156
7.92955
9.016
10.2317
11.6102
13.2022
15.0801
17.3327
20.0479
23.2746
26.9672
30.955
34.9572
38.6202
41.5961
43.6324
44.6105
44.5571
43.609
41.9709
39.8694
37.5186
35.0973
32.7503
30.5922
28.7302
27.2931
26.4694
26.5494
27.9541
31.2029
36.7546
44.7355
54.7149
65.7308
76.6022
0.471546
0.443297
0.425957
0.423124
0.437867
0.471641
0.521349
0.583536
0.65708
0.742801
0.842587
0.96022
1.10047
1.26875
1.47145
1.71492
2.00689
2.35219
2.75172
3.20791
3.72485
4.3076
4.96125
5.69289
6.51323
7.43914
8.4961
9.72392
11.1817
12.9526
15.1386
17.8077
20.9424
24.3829
27.8583
31.1039
33.8512
35.8272
36.9212
37.1166
36.4876
35.1717
33.3504
31.2231
28.9569
26.7048
24.5801
22.6711
21.0475
19.7627
18.9271
18.7534
19.5806
21.8574
26.0542
32.4492
40.8148
50.3904
60.0939
6.34059
6.57516
6.83728
7.05539
7.18966
7.22203
7.14886
6.97561
6.71197
6.37151
5.97898
5.5524
5.11457
4.69365
4.30127
3.94167
3.61374
3.31232
3.03099
2.76448
2.50886
2.26085
2.01328
1.7536
1.46388
5.80795
6.22505
6.56706
6.82687
6.98714
7.03818
6.97956
6.81825
6.56683
6.2423
5.86238
5.44328
5.00538
4.57348
4.16783
3.79893
3.46836
3.17145
2.90047
2.64766
2.4066
2.17187
1.93669
1.6907
1.41631
5.27949
5.71568
6.09316
6.38764
6.57981
6.65966
6.62703
6.49016
6.26355
5.96435
5.60878
5.21268
4.79486
4.3768
3.97809
3.61166
3.28239
2.98842
2.72383
2.48142
2.25443
2.03659
1.8206
1.59597
1.34762
4.74677
5.14386
5.51487
5.82211
6.038
6.14727
6.14664
6.0429
5.84971
5.58342
5.25987
4.89468
4.50523
4.11062
3.72867
3.3733
3.05194
2.76561
2.51082
2.28178
2.07201
1.87464
1.68219
1.48294
1.26304
4.252
4.57963
4.91128
5.20617
5.43016
5.5614
5.59121
5.5225
5.36621
5.1369
4.84954
4.51908
4.16154
3.79411
3.43357
3.09452
2.78651
2.51315
2.2731
2.06169
1.87242
1.69758
1.52861
1.35192
1.15463
3.80822
4.05436
4.32741
4.59021
4.80595
4.94749
5.00041
4.96275
4.84172
4.64937
4.39922
4.10506
3.78145
3.44362
3.10794
2.78956
2.4999
2.24462
2.02372
1.83289
1.66527
1.51262
1.36511
1.20771
1.02768
3.41065
3.57573
3.78368
4.00327
4.19826
4.33842
4.40472
4.39056
4.29931
4.1403
3.92535
3.66687
3.37783
3.0713
2.76343
2.46966
2.20264
1.9695
1.77064
1.60166
1.455
1.32258
1.19404
1.05341
0.888743
3.05225
3.14193
3.28578
3.45781
3.6242
3.75355
3.8236
3.824
3.75479
3.62285
3.43846
3.21292
2.95793
2.68381
2.40628
2.14073
1.90013
1.69169
1.51605
1.36866
1.24185
1.1277
1.01563
0.889971
0.740194
2.73025
2.74935
2.83095
2.95471
3.08854
3.2009
3.26717
3.27367
3.21827
3.10576
2.94532
2.74819
2.52598
2.28469
2.03865
1.80362
1.59122
1.40891
1.25702
1.13068
1.02254
0.925449
0.827022
0.712822
0.574486
41.6953
41.7089
1.06729
7.89117
0.718518
0.915678
2.76221
4.36632
0.676535
13.8998
0.223995
4.02382
15.695
4.60783
4.81144
0.842112
0.342305
7.49059
34.8246
0.243964
22.62
4.79717
4.35122
5.31803
5.19759
2.39626
5.03302
0.794165
29.3338
0.461297
128.222
5.65899
9.15526
27.3453
0.765891
1.7786
9.22152
4.62536
14.3751
3.66355
7.92526
0.101305
4.32104
1.18769
3.4979
21.9857
0.189825
0.117672
19.9175
31.6958
0.196206
12.7107
32.9834
7.35821
3.04556
0.803064
7.02676
30.6621
2.95153
17.8403
0.417497
1.39407
0.871898
2.84883
4.28206
1.66493
29.7727
5.06142
14.3881
29.3759
0.907618
5.63056
2.02112
0.717676
7.48079
23.8323
5.48394
0.201134
1.57982
7.05598
27.2777
0.670781
3.31967
0.175669
0.442859
0.444875
2.51856
0.398011
9.50192
26.6398
4.44249
58.5879
1.85267
3.83148
1.69729
0.212602
2.46982
0.215105
0.163936
18.5772
0.516685
8.73725
0.498555
6.65845
3.26585
2.25668
4.39908
27.1838
0.466802
0.412674
4.04716
4.0981
0.734217
6.26269
33.7709
20.656
15.859
3.87083
28.7194
3.19435
0.0915957
4.66584
5.41871
5.11348
8.44794
4.41517
11.8618
12.7335
30.6212
0.121129
3.48608
0.986506
28.0743
22.2372
0.880803
2.43
3.16007
0.721236
0.714718
0.159699
3.56018
11.3056
14.914
0.0742774
25.352
0.740764
8.21907
19.3002
0.797933
0.566389
6.09156
57.4509
8.27635
7.91414
8.09803
0.175833
2.74468
2.94013
10.8101
4.47901
5.17982
0.729988
2.60148
0.216283
2.43481
0.176706
8.88434
4.80436
1.14597
2.49974
3.81646
3.13641
4.02466
0.176499
137.036
1.30061
20.3273
27.819
15.9033
3.76828
21.2546
5.61657
33.5218
18.2754
2.22909
3.45067
0.176195
0.439861
22.1162
0.807801
1.51203
16.4515
18.5857
10.7728
5.02277
14.7138
7.52214
4.69816
22.9269
35.2651
12.409
3.01905
0.582506
0.601168
5.59745
3.24972
28.8736
0.413559
21.1191
2.96418
3.39632
3.0133
22.8043
5.81103
6.47438
7.80532
1.64355
10.1803
10.726
27.3974
1.32392
0.116356
7.68592
2.99424
6.88387
14.1791
9.08731
0.342731
0.362791
1.82899
0.175273
1.75555
5.10577
2.81938
12.8905
6.70829
17.7821
1.15602
17.635
3.63527
161.197
0.416517
2.6133
1.2076
2.19968
3.23288
4.51891
5.54491
0.950041
3.31161
0.237922
1.52611
23.2266
21.6442
1.07954
4.21084
0.7445
7.62421
12.9803
44.0235
2.24734
42.5606
1.90243
7.88101
1.5086
4.85871
3.05452
8.94782
2.56792
4.72754
21.1738
18.0458
0.166126
9.8955
13.3205
8.92729
18.7151
0.444572
13.6558
6.42771
2.14398
5.99771
5.91804
19.2109
16.2126
0.385222
2.10201
6.28069
0.108733
0.686065
1.68552
2.66933
0.0498753
0.145036
21.5427
8.6161
4.89792
87.2249
4.08251
20.5768
11.8047
4.95388
3.97794
0.482788
0.816448
2.75359
21.7922
147.749
0.164517
0.573207
5.8995
6.96762
13.5337
20.5006
0.145483
13.163
0.178785
14.5265
5.06647
28.2142
11.6358
2.31727
4.12637
105.836
2.40271
4.64625
17.0144
26.9956
104.774
28.9371
2.44399
4.78114
1.5812
10.16
1.92772
0.498861
3.22176
2.73261
0.138577
3.21342
2.57335
3.96915
21.5505
11.6598
2.15804
1.64485
1.29002
0.842131
2.43862
0.171618
36.8669
2.01632
0.148403
14.5233
0.126793
6.92656
33.6448
0.940371
2.72684
0.17139
22.321
4.02617
4.87573
15.3789
0.0755854
2.63801
1.20637
0.165431
2.27765
26.3299
10.7097
9.49414
30.9059
0.409547
16.7821
4.40278
4.74613
1.95748
6.3323
8.45671
4.0417
2.67508
7.87415
1.33306
1.05071
26.18
2.34533
0.272869
0.190962
1.61158
4.89225
3.16117
16.2822
4.80075
20.8449
25.9689
2.77355
8.15147
2.76311
28.9221
4.30614
3.45903
0.475744
42.5058
3.98959
0.0956432
3.63363
12.1597
68.1338
136.231
9.44812
2.05549
20.5152
0.844687
2.23449
7.13606
17.1621
0.172097
4.2148
52.0426
2.37028
5.45763
18.9205
0.432035
1.37984
1.77326
0.112302
3.9646
196.788
5.93609
0.751633
3.90527
31.69
1.49043
1.68071
1.26963
4.24302
0.0300564
1.19115
4.81159
4.21953
3.9754
0.0952077
6.23797
14.8752
13.5811
0.906497
4.61718
3.30988
1.84457
0.455072
4.93061
2.57832
19.1509
10.6709
30.3105
0.174065
0.418355
3.97839
12.6699
2.75445
2.41944
11.7495
23.9298
4.83279
3.3454
2.31802
2.08035
4.47335
0.179221
8.02274
2.9639
3.40583
5.00796
4.93881
25.5221
45.4554
3.03972
18.9361
18.6874
4.67634
12.2937
0.0459605
4.12501
0.175494
1.01954
0.538403
5.83869
37.9314
4.33007
6.54636
2.35477
5.00809
5.45869
2.43062
1.95594
6.73993
0.552846
2.5807
28.7848
4.98614
1.73228
1.53187
0.865468
21.0506
27.3002
0.635986
0.923927
3.38065
4.3691
3.60368
27.0369
123.84
44.7106
2.60827
0.16914
0.912989
15.6991
4.5755
5.21841
3.66924
0.615812
0.234873
11.7531
26.9028
9.78662
2.8376
10.2363
3.19839
2.97953
1.09065
4.83088
9.69528
2.85286
3.13175
17.4286
3.13089
17.3472
22.2174
2.26539
27.2443
0.380186
4.66335
5.56192
0.146325
4.98396
2.59102
1.67468
0.663537
0.428302
9.84539
10.1313
31.4523
22.0088
16.703
0.171898
7.63675
4.29155
19.9328
20.0081
208.699
20.7903
3.34857
21.6597
0.461505
25.4941
5.01532
2.61584
5.69958
1.28739
12.2907
10.179
7.2332
2.08733
1.24751
0.51254
0.166758
20.2914
1.22992
1.00644
0.133788
35.0331
2.6842
2.96471
4.17178
7.56662
4.47884
0.991097
31.0908
2.66427
1.39879
0.658496
2.9512
12.647
5.1874
2.54607
26.3256
15.2437
0.951917
5.80253
21.4887
1.07163
0.102221
3.97209
17.382
1.2021
0.366327
46.2418
6.28016
5.35496
4.75164
12.3947
3.43288
1.07841
1.59602
28.4542
11.4533
1.24963
6.84832
3.18248
3.8358
2.27655
13.2426
38.4858
3.6432
19.7487
0.157447
0.775948
7.93351
2.89899
4.49464
3.17281
0.429681
0.772662
2.86191
24.3564
9.18032
7.1473
62.4232
14.4863
4.82973
2.39639
1.53452
4.57401
0.830566
8.36144
2.98813
9.96975
20.2391
11.1917
15.3432
0.923139
14.0928
0.139396
10.9861
55.207
0.166955
41.8009
18.4831
4.93299
19.5455
6.68713
0.230759
0.055376
3.21504
4.26101
6.81816
4.38312
1.31616
34.6781
3.49035
7.93143
0.572803
14.6616
0.0599151
2.24465
18.4049
2.18862
14.6258
7.34507
0.172665
29.5956
4.15411
2.75189
3.07599
2.44362
2.0432
25.2016
5.67139
5.32752
3.92769
4.61099
0.148114
3.93641
6.01046
3.34251
2.32563
32.1082
0.615229
3.46842
2.95354
5.22426
1.61082
6.36063
5.75983
8.18733
8.46471
10.4502
0.15761
3.69132
35.3137
1.15632
16.0384
2.78486
3.55186
0.119132
2.29453
1.93902
0.617317
2.511
19.1913
9.08763
193.226
2.22752
3.99267
170.878
4.05289
13.1587
26.6269
7.05525
9.88015
17.8831
1.94076
27.5846
18.4694
9.99451
0.129802
9.77175
10.3028
0.822375
0.0239341
5.8744
2.54886
18.5356
41.322
8.10815
6.27437
11.3304
11.8136
4.18281
1.7273
0.164862
8.62572
3.42184
1.63955
14.6643
29.5087
20.5698
0.0824383
3.50426
2.81852
0.0920295
42.1852
72.4989
3.40857
10.5691
3.97154
10.5554
1.41175
0.159018
1.46195
1.23923
0.596015
5.15917
3.38483
0.831693
0.733893
2.78038
5.00429
2.02673
1.39184
2.8418
13.3175
4.01205
4.48479
28.9992
2.89973
0.19253
0.638284
11.7628
8.1384
19.373
8.46169
0.145634
5.09059
0.170818
9.89318
18.6249
0.532371
18.6063
19.4105
21.5425
11.1798
19.0815
12.351
13.4717
5.15202
0.155795
4.32095
3.97764
14.0909
1.03655
4.53984
1.09796
30.1443
3.38793
4.5802
6.56897
4.44363
4.66702
0.452285
33.0763
51.048
2.55218
6.37743
0.325693
18.5904
8.77598
4.14839
4.03411
1.80255
18.5996
6.03837
1.3366
47.9703
9.21994
2.54325
15.1599
6.50522
22.9957
3.08933
19.2665
2.72298
6.44097
18.4159
5.38909
10.8331
2.74601
2.16054
22.1063
0.907398
8.18813
3.03241
2.56295
6.40089
0.168108
3.06313
1.84334
16.8288
4.22098
0.0633952
5.58949
1.64904
0.174313
2.64153
0.204503
0.926776
0.0993656
13.3583
0.932014
12.4054
10.0393
19.2469
12.4599
9.71486
0.16293
6.45486
8.97116
9.56761
13.4515
3.2363
2.43841
1.73377
5.56153
0.775325
28.2243
18.3477
9.49877
7.88182
6.60136
12.0338
17.0178
0.428625
13.1887
31.787
27.8789
5.6245
2.19427
0.152155
2.46511
22.8391
24.7368
35.1192
34.6529
3.12019
4.72331
14.8924
21.7478
6.78666
50.073
6.45388
0.89182
3.29642
49.9021
0.0732475
1.57677
4.37873
19.6157
28.8702
19.6251
22.3284
4.91546
0.958401
5.14967
13.6668
41.3313
30.6178
4.51134
0.544784
1.06978
1.22307
18.3758
0.133088
0.585483
19.3769
16.1254
19.1139
8.54412
2.19682
4.45508
2.45183
20.468
0.97201
20.4249
3.30731
0.564939
1.92068
211.352
31.9611
22.7712
0.608992
3.69294
6.31579
1.63776
0.665675
1.9104
0.579275
0.655062
19.9949
0.497956
19.8963
3.64779
2.40278
7.93832
141.323
5.33379
2.24479
1.04691
24.9119
3.60024
1.5183
17.6799
0.245636
2.66976
2.62849
1.62541
3.04756
6.41977
26.022
1.07008
1.25917
0.512961
0.805493
1.1537
37.9069
4.45159
21.0005
5.71485
6.65247
0.302319
2.17371
1.62015
15.231
7.26105
18.7073
3.9463
3.81073
0.976658
21.5801
18.2701
4.70462
0.363768
7.00263
0.171742
1.69841
23.1758
1.03141
4.11769
12.3026
3.413
4.1162
2.58623
3.23615
2.72686
6.75773
12.4661
6.73475
0.245434
2.31906
0.128912
1.14161
2.38743
16.2773
1.07934
0.164372
0.757978
7.39913
3.57375
7.10043
1.88565
1.52892
7.6152
7.15621
1.06677
6.83195
8.92601
5.15762
20.1341
2.58763
2.27983
34.9981
1.64241
6.01945
6.74233
1.36991
7.42578
18.4824
2.81226
1.80413
1.00812
0.912357
12.2201
0.67044
30.6181
3.67626
0.168173
1.14621
1.10066
1.85118
19.608
4.65247
5.87814
7.71621
0.932696
13.8929
1.73657
4.03568
1.13848
7.92699
127.378
7.32008
34.7672
12.5288
12.4331
2.86808
5.03947
4.19156
9.43987
28.7708
7.52526
0.218455
20.3507
0.753504
1.47005
23.3637
0.198675
5.05383
5.64102
5.59779
6.65964
6.92765
1.57548
9.65018
2.34421
4.29792
27.5112
1.64368
6.53428
2.37412
5.17794
2.63135
0.135104
1.8381
19.5199
12.1844
18.2401
2.40083
1.10896
204.643
10.8857
9.71236
2.78567
6.29023
7.39798
2.63464
2.31031
47.1999
31.3098
4.80201
5.11676
8.85068
0.947506
43.5625
3.64143
8.13575
48.5432
18.8451
0.149599
5.52354
3.18012
14.3461
0.983445
30.7413
2.40438
21.32
0.861748
9.74718
1.82053
26.6915
2.99743
0.617983
14.5344
0.463438
47.0156
23.6583
8.80609
5.03148
13.4514
26.1624
3.81174
6.0263
0.642897
1.34361
4.56794
2.13644
4.00653
5.01431
5.72928
0.794468
2.05109
1.24557
1.75427
2.62785
0.168701
0.366152
0.18314
0.234642
1.25065
1.37469
2.85855
4.48593
5.41931
19.0309
10.4554
7.57417
6.06543
3.55162
15.3282
10.1549
0.705047
24.2902
3.65535
5.58552
0.684144
0.690271
7.50456
0.852286
10.9145
23.6057
2.10764
2.25845
0.388044
1.05752
3.16954
3.19684
10.398
1.31056
6.74463
26.6685
2.61904
14.2422
16.4211
0.991016
3.22705
4.3832
2.72681
0.676481
10.271
8.25078
3.64522
23.0435
1.96619
2.24639
36.6105
8.50524
24.4326
4.45864
0.500702
3.66436
18.7867
1.46954
5.20693
5.92323
0.975407
13.7634
2.22393
10.8311
8.60858
4.9914
8.52878
1.97481
5.85496
20.5052
3.32474
17.9167
14.109
83.681
5.10817
1.00394
39.6737
11.2069
59.632
13.1358
22.9976
0.0307723
16.3091
31.7758
0.195694
32.5185
13.7888
25.2573
16.1646
20.497
0.507402
15.3716
2.68133
0.552172
6.33833
5.76458
20.0948
7.77891
0.43622
26.0088
0.768713
4.96056
2.23873
26.0609
5.61027
15.0379
4.29633
0.211928
1.9576
18.2548
6.22552
3.12624
1.17722
1.09405
5.55699
33.4729
0.131228
4.56079
20.7462
1.02385
3.45563
35.0379
1.77543
29.2992
30.7311
4.23457
3.78389
23.3081
5.84432
7.67648
1.24248
2.76237
39.4421
18.3498
9.78155
9.68555
9.66418
24.294
5.77689
5.39176
1.8086
24.8268
3.16545
16.0853
0.623031
1.32013
3.56243
24.2934
2.19153
7.40003
4.87242
24.5234
3.57149
2.86631
0.0160903
18.7558
24.5885
0.726655
12.0948
1.97011
1.03006
12.641
3.77047
3.44927
17.5601
10.3516
3.62582
5.97439
5.10057
3.97673
17.6589
38.7671
21.5227
15.5356
3.90726
1.91255
21.4447
1.17766
1.85993
55.1231
1.31514
12.0322
63.1793
19.5198
14.2593
4.13611
25.8775
12.071
2.36341
22.1173
3.10711
5.99812
1.81777
3.93213
1.68372
0.793723
24.0694
0.130662
15.092
8.04189
0.236273
2.97506
13.4745
7.98917
0.135746
23.3487
1.06484
40.5981
2.13372
4.7657
1.10652
16.7109
17.8832
2.67265
2.52503
2.32753
5.5683
3.51578
0.612062
8.77794
20.4133
10.0787
13.6339
6.92706
3.66975
25.2745
5.54366
24.1891
0.354288
0.764053
3.19049
60.4255
1.3389
95.8553
0.479458
15.1694
7.3954
19.0584
2.92469
2.32558
18.974
0.857701
2.45175
0.679685
42.1309
17.9508
4.56359
6.95746
3.02244
10.0723
3.08338
0.75124
56.8299
42.1258
2.11815
8.20646
0.58867
0.133699
1.37133
26.9817
0.106946
81.0025
8.27541
3.64873
0.913377
26.9
6.3823
22.1242
1.88221
1.8415
0.76359
2.81491
1.29792
2.7118
1.68112
1.76574
1.51816
15.8641
24.8168
13.477
0.477016
0.646445
2.76853
6.08499
1.0426
2.2748
2.24418
26.5583
2.12474
22.0728
11.1494
17.9653
5.0464
4.79365
2.59937
3.21168
17.5667
9.8322
2.90628
4.13825
39.2697
132.252
4.6326
3.0764
5.65433
1.71518
0.478977
2.50693
11.7094
0.524232
8.98566
5.29408
9.51239
0.443284
20.5205
29.2777
8.18593
12.5583
5.08359
0.424422
10.0334
6.41403
11.3032
0.00312338
30.3446
0.869489
4.21185
8.9447
4.71473
0.346251
1.46664
2.62409
18.3884
6.44503
39.3486
20.7482
4.34505
4.14296
1.32412
61.6466
27.5596
1.84805
1.03621
7.67484
1.98842
4.90631
15.0998
3.93559
6.70604
19.8249
4.18508
2.33988
4.25388
0.916967
14.2147
3.88137
1.17032
6.47897
2.31527
3.49147
0.0969261
1.35057
11.385
0.358745
29.4892
0.470144
20.2416
1.51155
18.511
0.505238
0.157596
21.5196
7.26062
0.0623703
27.2339
9.61738
3.08726
19.9588
1.113
14.6107
21.6227
25.2999
3.95497
0.156824
2.90089
21.3679
1.4614
6.05119
3.94379
0.939455
18.3906
2.90022
6.3632
6.50791
5.49848
5.75159
39.592
1.9882
43.7686
1.58793
24.4536
1.6153
10.5332
4.53832
2.76562
1.21741
1.71189
26.1882
20.8757
18.9833
2.46972
45.1467
20.9194
5.98341
0.177278
3.1779
0.820238
18.6597
21.2987
163.56
1.91435
1.44154
15.7303
3.84872
5.76809
20.5657
21.3585
1.89576
8.97446
25.5223
4.20646
0.539001
3.1893
0.80218
18.7063
2.02925
2.05952
2.58461
0.418766
0.889372
15.0082
22.5075
5.46913
4.43747
0.384141
1.77873
0.22241
4.10189
18.7008
2.1438
4.46415
0.676277
6.17398
2.54568
26.3306
2.86777
1.49445
5.1363
29.6823
19.936
0.770733
19.3208
1.2869
1.19072
4.21342
3.15896
0.893207
3.2645
5.60456
30.6646
27.2587
2.62095
3.70264
6.25548
5.26895
0.161454
4.39646
0.992407
4.46398
5.82355
10.4455
0.175867
3.63645
2.97892
1.48037
1.1131
1.84506
2.41547
5.18678
25.0575
46.4588
2.44627
3.4308
7.86959
116.682
0.79251
3.62726
0.462763
3.34007
106.783
4.92698
5.56748
3.3266
24.5512
21.682
0.777322
5.91136
3.25939
18.9994
16.1228
2.67916
2.49256
0.889363
4.56169
4.30221
1.10916
20.113
4.48436
2.82508
2.49581
3.16488
3.51805
23.9975
3.31132
4.10121
0.497844
51.0404
17.6044
2.72946
7.10825
7.9652
1.18284
2.39401
4.0428
21.1572
6.99099
2.89874
11.862
18.6611
14.7216
10.6921
3.38563
14.7705
10.6328
8.2908
3.76017
2.52314
3.08623
8.10866
0.375421
15.3586
5.48843
0.235808
3.38525
1.58029
7.27399
3.6565
18.7699
2.40727
7.33965
6.12676
3.24501
8.35499
3.62116
2.62807
3.05153
45.7209
28.0549
3.41483
1.27614
9.63825
8.9458
1.40687
27.2701
2.93644
5.2565
2.85843
2.2057
143.071
8.19435
4.15946
1.25804
20.5556
2.66571
1.20371
5.63196
18.1926
2.41816
5.8305
3.29904
1.95015
0.520555
18.5816
0.143946
2.97335
0.0436417
4.40586
2.12748
2.08358
4.65851
2.03469
6.76136
9.17613
20.5611
1.12461
3.8511
8.89538
21.9937
4.27025
18.2416
3.16792
18.4374
0.00758521
38.7378
11.1102
27.5097
2.49276
20.7929
1.05388
14.9418
0.174595
0.137609
51.4938
14.0979
4.90497
7.67645
1.12197
21.1093
5.15813
2.49741
22.1831
0.180069
34.0582
8.33856
11.0142
2.46772
1.9121
1.44883
4.60197
4.22413
2.01907
4.08997
39.0284
5.05175
6.58808
4.36756
39.7368
4.89989
4.33792
0.13543
4.61082
3.33771
18.0792
20.915
2.51639
2.87042
18.2742
3.37432
3.25006
3.39466
4.56009
1.66434
1.55531
0.602997
4.86367
6.50015
4.47434
3.79041
18.1194
26.2885
3.08368
25.1865
2.12983
1.87876
20.7913
31.2745
17.6117
2.81879
4.92685
1.73985
3.71521
13.7164
36.9686
4.57705
5.09617
2.4732
14.4526
1.09419
3.0561
1.04791
2.07805
5.84577
10.7953
26.7554
1.0746
25.6217
17.5104
0.00414915
8.04436
17.4255
18.341
4.75138
1.55603
5.64704
1.78307
1.22907
3.94131
12.54
0.447105
7.76512
16.6985
21.7042
0.0191052
3.97801
4.40471
3.26097
1.549
0.413284
3.17593
0.178843
18.9156
0.174625
3.06603
2.95362
2.5468
9.47625
42.5145
4.8757
22.6988
6.15057
4.47291
2.84231
0.174618
15.7982
0.543767
10.5444
6.40091
4.1839
5.41268
5.29877
18.7009
1.29849
6.50846
0.204678
3.08118
18.6175
7.3473
2.57303
10.8587
20.7532
0.0275294
0.850229
4.83221
6.12251
1.31815
1.30963
20.2222
0.71184
0.62224
4.63129
5.07463
20.5107
15.9381
4.15211
3.10576
21.5476
1.63713
18.0615
2.88782
16.9724
19.1427
4.70851
1.59354
4.81449
0.92132
2.21354
28.0221
3.79979
173.7
6.8654
6.06157
5.69362
30.1818
3.75759
26.19
9.5922
4.77784
1.4395
2.18275
3.41158
1.93731
0.228871
9.10995
4.128
18.3159
3.51635
18.7528
0.504038
21.5537
17.4947
21.0914
8.48838
1.89228
4.45002
1.42206
18.9642
2.78437
11.3195
4.15773
2.70458
0.206035
2.7306
4.55881
2.69918
19.6619
1.93461
16.8041
1.41505
7.21256
21.3492
3.21716
6.44356
3.33431
4.87799
2.36581
4.25799
4.00798
0.0569775
17.7229
2.24326
46.9221
1.32999
1.74577
12.9551
18.3409
10.0407
1.75732
14.7604
2.95865
2.78611
4.28218
21.0157
15.4017
21.1231
2.67494
4.96716
4.49345
19.2026
1.10329
4.53902
2.45242
8.51092
0.930783
12.3824
30.7434
0.0257855
5.56911
1.44515
8.48467
2.58512
16.8008
0.652871
1.44577
5.12587
0.22583
3.62844
12.2678
13.812
4.01705
2.57566
5.87012
0.176729
3.05789
19.9486
2.08992
0.161431
3.10591
3.49851
3.93401
34.254
6.40217
18.7805
0.434578
4.3252
2.69632
11.4871
3.04609
5.54876
0.863258
10.8934
2.24197
11.1091
48.6539
21.4032
7.64765
3.06052
18.2245
0.331756
27.7955
4.15795
1.6799
6.9675
0.228051
0.174106
15.2742
5.32855
1.78212
1.93274
1.76504
6.75988
3.58372
5.33246
1.25813
2.76283
0.383553
11.3045
10.3993
80.0222
1.70978
0.391025
0.361378
18.8271
1.52529
4.18864
0.606399
2.51987
10.6719
3.20414
1.49342
34.7062
2.07547
1.7293
10.7696
20.5298
9.45735
17.1422
20.8526
11.8623
33.121
31.1087
21.1685
9.87012
0.0516867
3.65111
0.831009
18.6947
9.60709
0.908609
11.626
1.56179
2.87348
16.9496
4.0761
18.9656
2.35435
5.52003
0.630709
20.6173
1.1978
0.658153
0.216927
1.69067
1.98237
37.6409
4.05144
2.15981
7.81917
4.13842
2.30235
3.54456
2.42336
4.57098
2.00202
20.4247
2.99176
39.5375
6.12261
9.69695
31.9598
1.80259
9.04351
10.8245
5.83586
0.727542
22.134
1.98168
4.79112
5.51961
0.419933
8.05908
1.66185
61.2229
3.75211
6.60489
2.81851
10.0062
15.7806
0.145877
35.2603
16.2145
18.3249
9.08181
13.8771
16.2268
3.54484
0.149703
21.4472
9.71589
124.951
11.0311
44.0404
11.4452
2.29385
0.216267
0.850029
4.772
25.1543
12.1892
30.4891
19.9828
26.8128
73.1413
4.03063
8.83589
2.65791
1.69324
5.42268
4.41859
1.91703
4.95537
3.27188
2.79616
158.375
3.05466
48.0425
3.80767
36.2269
7.06225
4.29617
3.03614
2.18693
18.2962
16.6832
8.9808
12.6622
21.3446
9.56647
34.689
107.085
2.95867
8.91536
2.42685
5.22134
3.57628
2.32186
20.1741
1.50092
12.5776
5.77062
11.8948
3.82124
3.27524
4.6369
1.89897
6.21635
3.2949
10.8473
2.81294
2.2107
0.360241
10.814
13.3974
5.89821
4.99043
1.77808
3.07607
21.2046
6.81718
11.7489
4.17867
107.759
0.412506
10.8523
4.97771
5.93173