/*--------------------------------*- C++ -*----------------------------------*\
  =========                 |
  \\      /  F ield         | OpenFOAM: The Open Source CFD Toolbox
   \\    /   O peration     | Website:  https://openfoam.org
    \\  /    A nd           | Version:  10
     \\/     M anipulation  |
\*---------------------------------------------------------------------------*/
FoamFile
{
    format      ascii;
    class       volScalarField;
    location    "250";
    object      p;
}
// * * * * * * * * * * * * * * * * * * * * * * * * * * * * * * * * * * * * * //

dimensions      [0 2 -2 0 0 0 0];

internalField   nonuniform List<scalar> 
10435
(
0.432028
-3.33835
-128.381
-18.2404
-28.0678
-72.5566
-140.751
-140.584
-136.979
-104.963
-12.0059
-39.682
-136.184
-0.624217
-0.755975
-120.01
-0.541783
-122.251
-131.002
-2.9171
-127.013
-17.6515
-114.57
-73.9442
-100.157
-1.00745
0.321157
-141.105
0.699708
-116.681
-80.7152
-14.2395
-137.869
0.728313
-109.384
0.202095
-104.326
-3.49475
-9.51209
-112.182
-91.9283
-125.624
-0.0995061
-11.7902
-98.6576
-93.5732
-79.771
-0.820857
-153.499
-22.3558
-128.798
-75.1781
-18.5472
-0.691828
3.31878
1.04876
-98.9097
0.481684
-0.378183
-95.4192
-8.67991
0.299248
1.19703
-43.3923
-106.182
-119.95
-0.298554
-0.148122
-137.005
-55.8863
0.547525
-1.17302
0.0449277
-117.619
-0.955449
-0.0951774
-35.9012
-143.996
-148.142
-0.927475
-29.0921
0.288435
-14.464
0.350226
-33.9572
-0.559963
0.909241
-10.0477
-0.966805
1.68214
-14.2898
-17.9719
-1.683
-0.96206
-0.218734
-0.622526
-19.8707
-0.805609
-0.253727
-24.5575
-1.14536
-29.6451
-0.379107
-4.92942
-36.2005
-15.535
-6.4324
-24.731
-34.1217
-0.940675
-19.6164
-22.5949
-0.0252402
-0.728701
-16.3718
-15.4692
-26.9441
0.490974
-8.8909
-27.3427
-27.3117
-0.237988
1.46487
-0.602405
-14.1751
-3.74368
-24.0106
-0.31728
-27.3712
-0.0751799
-0.413495
-12.099
-122.235
-0.764
0.971542
2.01917
-0.802028
-20.1603
-3.91886
-12.5481
-8.16371
-98.5551
0.360395
-46.8069
-19.0407
-0.632891
-0.741832
-59.1613
-0.481151
-50.4986
0.0855651
-89.125
1.31981
-67.4496
-70.6404
0.734773
-16.3803
0.251029
-86.2994
-8.15577
-77.5834
-0.606275
-14.4215
-30.12
-1.01389
-38.7871
-132.117
-27.2798
-57.5693
-57.7344
-87.8045
-0.244526
-0.215393
-0.812881
-52.2686
-4.54996
1.15526
-0.449573
-16.6256
1.49968
-8.02633
-58.9462
-51.1273
-6.20485
-82.5269
0.147778
-0.879319
-137.6
-41.5251
-58.9243
-41.9487
-10.3748
3.82169
-0.509773
-19.7199
-138.887
-0.391446
-0.954895
-0.439748
-111.212
-0.874187
2.84458
-141.527
1.50356
-125.378
-20.9613
-13.2019
-23.7931
0.337354
-22.3316
0.696769
-122.167
-39.2056
-39.682
2.66139
-0.589186
-0.871603
0.243756
-21.8678
-0.506249
1.25032
-0.771577
0.510007
-0.659123
-0.732355
-116.005
-36.1067
-0.951238
-80.3492
-0.403836
-0.180638
-125.975
-25.2853
-76.7128
-0.0497251
-0.289292
-76.1015
-4.60861
-68.6274
-88.6387
-6.88341
-0.442409
0.321311
0.59973
-23.7409
-138.893
-0.830984
-144.224
-6.25311
-1.41101
-6.76263
-0.935212
-115.55
-26.717
-150.12
-27.3985
-10.3316
-152.475
-1.16133
0.0496834
-149.16
-80.8171
-6.01775
-52.3139
-0.015798
0.0546741
-1.61009
-100.486
-4.98947
-26.4859
-150.404
-148.859
-148.92
-111.821
-21.0059
-30.1403
3.38335
-25.3095
-126.38
-152.738
-112.786
-0.501846
-153.557
-1.00412
-0.198249
-4.05622
-42.6089
-45.8356
0.672972
0.0594274
-0.6988
-10.8347
-0.192996
-151.003
-56.8225
-9.89965
-0.556745
1.16838
-19.8294
-100.798
-0.13162
-51.6659
-155.256
-11.8221
-17.3067
-0.713525
-0.153279
-67.9683
-111.173
0.630565
-12.3228
-0.47437
-0.245435
-52.095
-134.215
-10.8888
1.96937
-65.8887
-0.0398889
-31.1066
-48.0539
-0.911188
1.13639
-5.91362
-158.924
-124.49
-21.8537
-155.664
-0.00971553
0.200451
-109.166
-0.0885567
0.679782
-142.149
-64.573
0.258923
0.820971
-0.154657
1.01956
1.17635
-21.0175
1.3113
-7.19542
-8.70556
-15.8993
-1.56457
0.169286
5.87634
-3.54868
-153.986
0.818793
-116.807
-6.77291
-154.426
-158.209
-165.994
-159.255
-111.032
0.0205735
0.86149
-1.75938
-1.60974
2.35392
-6.07145
-0.597559
-18.2377
-0.879413
-46.776
2.70926
-152.656
-6.95871
-16.929
-151.872
-169.409
-2.37669
-8.64758
-1.69229
-1.91664
1.1512
0.411756
-10.1715
-28.5461
-144.666
0.287172
-145.147
-164.563
-153.562
-151.299
-163.855
-144.657
-119.731
-0.327847
-0.793588
0.815698
2.04121
-146.063
0.867575
-160.539
-12.9052
0.685252
-22.9
1.32981
-3.92426
-133.593
-3.59114
-145.767
-54.2227
0.41564
1.11245
-8.74515
-155.616
-9.18489
2.34111
-3.83677
1.85907
0.462729
2.30921
-128.973
-6.38075
-2.38629
0.945925
0.623123
-169.881
-0.329955
-1.78328
-175.49
1.25593
593.045
268.455
302.307
206.389
167.809
111.265
79.3412
52.7909
22.2676
656.999
254.542
319.008
228.629
188.137
133.536
99.268
71.2329
43.8526
721.777
228.274
313.318
231.655
193.494
142.417
106.438
75.6633
46.9278
756.056
194.882
288.111
218.195
185.74
140.448
106.378
76.5991
49.6522
741.218
146.994
244.17
190.538
166.159
129.17
100.119
74.7534
51.773
674.256
85.5789
183.42
150.808
136.14
109.591
87.7104
68.1828
51.7234
553.914
15.7898
110.911
102.644
98.2478
83.4962
70.2664
58.148
49.1129
383.99
-50.5179
35.5962
52.0701
56.5736
53.2571
48.5958
44.0885
37.3385
182.937
-82.0557
-27.8604
7.78079
17.2302
22.9133
25.3283
26.9434
30.1043
-18.9278
-65.9469
-68.6163
-22.8779
-13.6038
-2.94486
3.6489
9.52911
16.5723
-206.607
-36.8443
-88.8121
-38.3607
-32.3468
-20.6658
-13.1415
-6.06132
3.11631
-345.478
-11.1098
-90.5759
-40.6332
-39.0146
-29.2447
-23.3733
-17.9001
-7.92258
-387.449
25.2305
-72.0582
-32.9911
-36.5601
-30.2631
-26.7487
-22.5376
-17.7656
-356.873
59.1049
-45.2268
-22.312
-30.4031
-27.6638
-26.1921
-23.2589
-21.6
-312.092
73.6136
-24.2354
-14.797
-25.1368
-24.8369
-24.4733
-22.4085
-20.604
-265.281
72.3312
-12.4986
-12.3953
-22.706
-23.4558
-23.2522
-21.433
-18.9929
-229.728
54.2312
-11.2685
-15.1353
-23.3161
-23.8067
-23.0637
-21.1021
-16.7874
-214.97
17.8239
-21.3774
-21.9539
-26.1288
-25.2733
-23.5302
-20.9267
-16.6149
-196.977
-17.6404
-32.5378
-28.7984
-29.0462
-26.7022
-24.0488
-20.909
-17.347
-166.589
-37.0253
-38.7522
-32.6727
-30.2557
-26.7854
-23.4136
-19.7687
-15.8217
-137.718
-43.8375
-39.9444
-32.805
-29.0974
-25.129
-21.5572
-17.8265
-14.6495
-117.112
-41.6212
-37.1383
-29.5639
-25.6546
-21.686
-18.224
-14.5418
-13.1332
-103.675
-29.8218
-30.8441
-23.6986
-20.4339
-16.9665
-13.983
-10.8005
-9.97146
-90.2185
-11.7943
-24.2525
-18.6612
-15.96
-12.7072
-9.77944
-6.77813
-6.49593
-67.51
9.59453
-8.58859
-6.70082
-6.84076
-6.38717
-5.49262
-4.02826
-9.38269
6.7857
6.09669
5.42104
4.91808
4.51107
4.20948
4.01809
3.93935
3.94828
4.02143
4.22118
4.68043
5.45789
6.60693
8.22455
10.4078
13.2585
16.8412
21.1808
26.2125
31.7866
38.0047
45.1455
52.8834
61.2043
69.7897
76.7032
81.3839
86.5634
93.9772
102.905
112.477
122.712
132.896
142.401
151.903
161.388
170.352
178.366
185.238
190.4
193.441
193.94
192.318
189.415
186.629
185.569
187.762
194.099
205.785
223.219
245.561
272.637
304.925
342.724
385.241
431.865
484.451
535.735
3.17953
2.30286
1.42444
0.708779
0.101731
-0.400915
-0.818301
-1.17882
-1.52634
-1.8657
-2.1769
-2.49949
-2.89597
-3.38807
-3.99267
-4.72956
-5.61023
-6.63842
-7.79213
-9.0231
-9.96413
-10.0061
-8.9878
-7.22396
-4.53407
-0.519945
3.69219
6.90269
9.18998
10.0002
8.99335
7.26487
5.98922
5.15808
4.83994
5.24521
5.99576
6.57613
6.87596
6.88582
6.55119
6.01464
5.40365
5.0372
5.11577
5.94914
7.77435
10.9839
16.0246
23.4165
33.7019
47.0014
63.2586
82.3198
104.466
129.144
155.926
187.259
222.64
3.90099
3.37019
2.76791
2.28274
1.87411
1.55427
1.33658
1.22868
1.22918
1.3352
1.54091
1.84515
2.25758
2.79412
3.4755
4.32584
5.3719
6.64089
8.16105
9.95619
12.075
14.5307
17.2817
20.3073
23.6852
27.3789
30.9951
34.358
37.5689
40.633
43.5138
46.2575
49.1284
52.1747
55.4427
59.0021
62.7692
66.528
69.9971
72.8929
74.8945
75.8372
75.6151
74.3864
72.3864
70.1099
68.1045
67.084
67.7873
71.0003
77.499
87.898
102.74
122.137
146.097
173.958
205.083
239.747
272.171
2.12302
1.61595
1.08857
0.638516
0.238885
-0.101713
-0.375655
-0.579718
-0.717889
-0.795281
-0.817212
-0.787369
-0.707113
-0.573396
-0.379552
-0.116159
0.229497
0.670851
1.22701
1.91867
2.78047
3.84344
5.10385
6.52207
8.06683
9.68933
11.2799
12.7212
13.9557
14.9326
15.6664
16.2351
16.7823
17.4031
18.1749
19.1194
20.1533
21.1037
21.7042
21.6908
20.7749
18.8335
15.8148
11.9151
7.38662
2.67552
-1.77342
-5.37724
-7.55256
-7.59994
-4.77943
1.63593
12.3119
27.5413
47.3841
71.2057
98.2931
128.659
159.322
2.42474
2.1529
1.85372
1.60766
1.39562
1.22239
1.09498
1.02029
1.00138
1.04011
1.13658
1.29316
1.5141
1.80727
2.18283
2.6539
3.23465
3.93718
4.77236
5.74411
6.85193
8.08391
9.41942
10.8271
12.2769
13.7325
15.1531
16.506
17.7896
19.0132
20.2186
21.4574
22.8123
24.3374
26.0443
27.8866
29.7033
31.2499
32.2254
32.3481
31.3749
29.25
26.0074
21.8853
17.1476
12.1896
7.37912
3.19277
0.114803
-1.2307
-0.128481
4.20354
12.5303
25.2677
42.4342
63.2618
86.7381
112.475
136.404
1.79702
1.58049
1.37135
1.19624
1.04404
0.915279
0.81108
0.734462
0.687293
0.672193
0.690494
0.745137
0.839554
0.979917
1.17364
1.43007
1.75959
2.17111
2.67378
3.27084
3.96189
4.73616
5.5767
6.45908
7.35057
8.22577
9.05075
9.80623
10.4842
11.0866
11.6421
12.1643
12.705
13.2837
13.8451
14.3388
14.572
14.3032
13.389
11.6618
9.03467
5.56107
1.34258
-3.38823
-8.41217
-13.4794
-18.3414
-22.7032
-26.2438
-28.4995
-28.8972
-26.72
-21.1963
-11.7654
1.74454
18.7251
38.1212
59.1587
79.085
2.01861
1.90802
1.80662
1.72923
1.67043
1.62869
1.60115
1.58733
1.58787
1.60578
1.64423
1.70766
1.80092
1.93025
2.1021
2.32491
2.60763
2.9532
3.37042
3.85939
4.42149
5.04524
5.71876
6.43416
7.15127
7.87825
8.57191
9.23939
9.86876
10.4587
11.0454
11.5595
12.0446
12.5016
12.7548
12.8979
12.7242
11.9549
10.8131
9.10654
6.8499
4.11028
0.973479
-2.39881
-5.83118
-9.29437
-12.5796
-15.6074
-18.1808
-20.0224
-20.7462
-19.7781
-16.4319
-10.0851
-0.45691
12.0765
26.6022
42.2295
56.5582
2.08916
2.01441
1.9567
1.91503
1.88545
1.86747
1.85418
1.8455
1.84039
1.8406
1.85471
1.88361
1.93362
2.01159
2.12024
2.27157
2.46882
2.6928
2.9844
3.33762
3.76248
4.23348
4.74096
5.32284
5.86352
6.47636
7.0355
7.61694
8.16483
8.67804
9.13295
9.20405
9.02303
8.70838
7.72443
6.93327
5.90584
3.53859
1.53729
-0.625877
-2.89825
-5.30434
-7.76624
-10.2047
-11.9628
-14.0601
-15.622
-17.2983
-19.0379
-20.3632
-20.9651
-20.5102
-18.666
-14.7001
-8.11411
0.825316
11.4216
22.8118
33.9126
2.27369
2.25581
2.24092
2.23465
2.23302
2.24309
2.25394
2.25771
2.26654
2.3012
2.33198
2.38668
2.46561
2.55894
2.69874
2.83506
3.05892
3.3346
3.62528
3.95183
4.35606
4.77371
5.27288
5.86046
6.39208
7.08009
7.63972
8.25002
8.87657
8.89846
9.46953
9.03263
8.35027
7.50429
5.58901
4.36963
2.54532
0.228573
-0.0517704
-1.33611
-2.2965
-2.93783
-4.13787
-4.44944
-4.9782
-5.56672
-5.66918
-6.43396
-5.32515
-4.39538
-3.88674
-3.40419
-2.42852
-0.0267018
2.76379
7.373
12.277
19.4167
20.1822
-11.7345
-13.2249
-13.4118
-13.0815
-12.8139
-12.7531
-12.4297
-11.0967
-9.32519
-8.21063
-6.99176
-4.88936
-2.699
-0.84511
0.856695
2.19327
2.98416
3.48347
3.94354
4.45563
4.97116
5.45308
5.90126
6.45114
6.95971
2.46037
2.09436
1.24736
1.11372
1.81096
2.78237
3.82604
5.19788
6.3939
6.57935
5.87759
4.55526
2.91501
1.78458
1.70956
2.3967
3.24411
3.92181
4.31113
4.39539
4.22833
4.02558
4.01278
4.11468
4.18383
-0.247423
-0.7204
-0.829379
-0.652692
-0.164845
0.467539
1.16523
1.91941
2.51584
2.5832
2.31635
1.92745
1.55049
1.38107
1.56131
1.96458
2.40865
2.80121
3.11219
3.34269
3.50591
3.64645
3.78948
3.91201
4.11994
0.716365
0.364672
0.354146
0.417517
0.651376
1.00537
1.43168
1.88452
2.26366
2.44774
2.46945
2.39849
2.31057
2.29776
2.41174
2.61014
2.8216
2.99849
3.11992
3.18322
3.19405
3.16309
3.08167
2.92509
2.75913
0.764165
0.507143
0.46841
0.469843
0.584111
0.789082
1.05949
1.36146
1.63587
1.83305
1.95742
2.04117
2.11683
2.21606
2.35183
2.50311
2.64168
2.75099
2.82726
2.87275
2.89201
2.88695
2.85147
2.75457
2.66047
0.842964
0.726578
0.692136
0.654419
0.687727
0.789577
0.954661
1.16638
1.38343
1.587
1.7625
1.91907
2.06711
2.20923
2.34785
2.46962
2.56466
2.62924
2.66603
2.67762
2.66637
2.62597
2.54257
2.37766
2.16951
0.954048
0.81773
0.79957
0.729344
0.706557
0.734603
0.821762
0.970964
1.14133
1.34161
1.5369
1.73169
1.92324
2.09524
2.24696
2.36538
2.4503
2.50555
2.53887
2.55286
2.55397
2.5339
2.4832
2.37172
2.2198
1.01154
0.837534
0.853552
0.764783
0.718787
0.708733
0.749302
0.85409
0.96934
1.15765
1.35196
1.56434
1.79479
1.99229
2.16092
2.28635
2.37417
2.43188
2.46985
2.49182
2.51109
2.51072
2.48663
2.41111
2.27723
0.797698
0.732829
0.881319
0.780942
0.672117
0.58126
0.515346
0.590438
0.730441
0.919453
1.14824
1.38685
1.62893
1.8372
2.05226
2.18934
2.28944
2.36011
2.43409
2.47286
2.50575
2.53101
2.52498
2.46251
2.34715
-141.299
-153.375
27.3858
10.8619
2.08957
1.82698
10.445
3.30233
28.0255
4.93321
79.0138
3.31439
-172.717
1.2619
16.2669
3.05002
30.978
10.0415
-7.39758
200.433
34.3269
5.67779
37.6779
3.93013
3.0204
3.27865
3.0148
0.334495
-167.84
31.4364
13.4101
3.48325
29.7989
-48.2636
32.1781
2.53946
5.48954
15.7267
3.75111
5.56636
51.8503
3.86212
4.29858
-0.131655
0.33747
-1.61876
76.2378
75.3242
-87.5217
-18.8555
76.9934
33.6158
-38.9826
10.2292
9.78475
27.6685
1.37868
-11.6045
1.43801
63.8458
2.7218
27.37
2.0592
3.51249
3.14264
0.138821
1.32508
2.9325
-167.614
-55.3882
27.2523
7.28443
2.19199
196.022
2.1078
30.3565
173.887
76.5987
1.97498
9.64715
-53.1625
2.61551
3.4645
81.4353
2.4274
2.68909
2.31285
76.8659
28.5105
-3.5491
1.19174
-11.6624
3.91517
3.45609
2.02574
79.4097
3.32291
77.9655
3.84572
56.9056
0.647201
46.7695
0.60182
7.58476
1.5337
0.897883
36.9308
-39.1772
3.43065
31.5345
4.34633
3.35018
31.3279
7.24201
-39.5877
-94.8948
15.0545
5.85861
-98.3352
3.48845
3.57335
3.25563
4.19722
3.17061
30.161
4.17167
37.5635
180.722
2.71499
74.5249
3.40606
194.669
-56.1192
-7.94103
0.273032
2.3667
0.510471
0.778185
2.82576
200.031
5.91454
1.92454
55.6814
3.59197
-129.035
2.76761
10.3885
73.563
2.80799
31.7669
5.47978
2.78766
10.6548
22.1574
2.73843
78.1176
1.94821
5.39535
175.314
5.2848
4.45027
27.8212
3.22457
78.1156
4.48054
81.2389
1.58345
2.59903
3.30083
1.8243
1.32639
3.70233
2.4617
80.873
-10.5231
0.566471
20.3929
-96.482
-32.8578
7.13318
-2.01859
3.87789
-49.2924
14.6288
1.32927
4.10135
80.4198
3.40467
4.0904
2.93743
74.0672
49.8138
5.84349
1.75056
19.3823
20.1081
2.12817
5.47683
-112.019
-205.98
-197.3
4.50614
2.74981
2.81327
6.79375
5.38436
5.19279
0.627669
-65.9063
5.41993
1.55603
3.37388
-4.2206
6.28167
4.90668
57.9466
1.69498
4.45851
9.09834
-6.21157
0.689089
3.87795
2.89373
25.8882
7.43913
28.8351
1.86233
30.7199
3.43052
2.20335
78.8189
2.59152
3.56083
3.3923
1.98866
5.27029
127.821
0.51114
6.51366
16.7899
22.3903
2.66565
4.55042
0.315257
2.25893
2.78117
3.75599
0.737809
3.0409
4.35788
3.44322
0.70722
5.04281
-85.9478
3.5767
2.10937
31.1866
169.032
167.935
0.710983
1.45202
2.53317
2.98745
2.58225
191.001
3.26714
5.20349
11.2541
9.81862
2.66963
31.0277
7.76984
3.80649
4.45328
-4.62817
11.1652
4.24023
29.0764
1.3605
60.0152
0.389363
5.11649
3.94039
-0.261669
-34.9362
2.82197
0.981171
8.05615
79.9425
76.0205
14.6063
3.31244
3.7739
79.2014
-94.9965
56.7983
34.8255
-3.21383
5.34079
-1.84667
49.9878
4.43188
4.98121
2.70188
30.4387
4.69499
39.4978
2.6967
200.06
2.63438
7.20069
2.7466
20.0151
3.21603
3.79526
1.43955
75.8715
4.9078
3.1244
-39.2546
158.45
3.41576
4.9988
9.97201
2.54913
3.25772
14.4786
-40.3816
1.55346
-9.45209
4.27381
18.8633
0.830676
5.27545
71.5409
2.65209
3.26601
3.35948
3.37131
2.04701
3.38406
3.28706
35.802
-3.33113
188.408
1.72973
1.16176
3.81383
2.33906
76.8311
0.574885
3.81523
3.66622
143.689
79.4603
7.1036
-37.0938
-0.396961
4.41591
80.4367
-64.1523
46.84
4.54008
20.6441
3.89439
2.31487
3.47104
76.0703
2.9125
3.41102
3.4222
21.8919
-165.057
29.0634
-153.295
3.48198
3.41216
4.5015
5.16028
5.20046
34.1677
3.13739
31.1776
-0.275105
-0.285888
-74.3219
4.43286
200.179
79.0498
75.3861
8.31996
5.37822
-4.0906
26.6709
4.02729
3.38392
4.51461
29.2313
5.28231
-158.575
3.12861
4.33685
2.36918
-60.2262
3.14421
4.09699
10.4796
-2.62067
-2.5235
5.49814
17.8782
2.80521
0.265738
2.74506
3.47198
6.14997
-76.47
76.7966
5.29233
-4.39226
4.52329
5.07637
-1.36127
0.564991
3.83087
70.4141
3.38464
4.86572
13.0027
3.60012
2.79671
2.09997
-11.153
1.97098
13.9506
3.45358
4.00644
3.76245
3.7684
5.50589
5.21274
16.1337
79.8486
-1.05395
-165.891
19.8796
0.426252
18.7266
1.41911
2.00121
28.8678
4.16
3.12068
-8.80194
0.467648
-61.2149
81.0369
2.79653
1.26316
144.905
3.21669
0.347587
15.8976
-7.65351
61.7823
2.79002
1.57736
27.0576
5.09274
79.7931
-2.39787
2.53611
41.7322
5.71778
3.26065
-85.4326
-12.0546
2.11873
67.5698
57.7378
4.96727
6.59184
3.9812
3.26547
79.1354
2.25171
2.59275
6.55442
0.460718
7.23562
19.634
3.19702
3.37538
25.1273
2.87926
1.377
20.8742
2.78831
4.42063
-10.0173
4.44637
13.8194
2.90761
0.327231
20.6977
-38.5307
2.91007
2.96332
10.546
3.4508
5.06006
-26.1031
-3.16426
-10.9645
4.08611
76.1686
30.3969
-69.0757
3.39709
7.32815
1.43131
74.2325
200.219
13.7665
-60.1851
7.11565
67.7414
40.3278
5.22577
4.6737
0.728361
6.82413
11.9858
23.9182
3.46441
-1.43966
3.78879
-26.2526
-97.3879
3.14578
-48.2518
31.4054
4.99289
38.9635
3.6686
24.6262
3.28309
0.79626
2.79412
29.2428
4.66563
6.81086
2.63858
-80.3164
-68.0687
75.887
2.85179
3.70907
-146.656
-40.1426
3.65413
-11.0135
3.75167
-110.716
31.4351
2.18846
7.16802
1.48818
3.57855
0.899766
22.5129
7.59899
15.2846
1.57421
1.82846
30.9823
76.0481
-41.3396
0.709702
0.88903
199.89
-66.9101
4.19937
2.69914
3.46007
29.3064
5.36221
1.75826
-15.1358
5.20218
1.60666
2.4353
3.60863
26.9619
4.43489
1.46967
-68.6601
-61.8451
2.13199
3.65946
33.1282
0.3194
3.91299
5.00199
171.34
3.58791
2.80599
5.628
7.93791
4.09864
4.49105
6.21071
3.01306
3.39182
0.676628
-10.5523
5.0577
1.2438
23.8692
4.03767
2.80641
3.23206
-2.69816
3.11184
2.67924
60.8228
79.813
0.373074
28.4855
2.35769
2.35742
2.37409
3.99302
2.88216
3.47976
8.59398
0.967054
3.0853
2.18513
32.245
6.84915
0.99119
0.113398
5.28764
1.94642
4.09771
1.62639
-1.05607
51.4149
27.9756
140.13
4.20021
4.11894
3.64514
6.61007
3.60394
75.7715
13.7049
66.6589
3.99559
-32.2931
9.23249
78.7807
3.61564
2.45899
3.32516
33.6898
19.7898
0.244707
-52.0996
2.65533
-1.06311
2.37824
50.1575
3.9435
3.31579
1.35945
2.55855
0.234792
5.26941
3.82311
-22.5726
4.90305
3.33461
5.19709
1.00055
4.58817
-125.217
36.9921
3.35225
10.9388
5.2766
79.6719
3.38676
2.85904
4.36209
3.3823
-14.7676
3.01053
5.13479
1.39558
3.28398
3.49918
6.1697
9.39199
73.199
20.8381
4.51695
73.8732
14.9277
2.18027
33.2429
-3.97655
2.00463
2.64915
4.095
3.08803
-0.299719
2.70246
2.71788
-138.4
-3.61163
18.9922
-0.597346
4.23418
0.46913
3.13542
4.57959
-32.9249
34.9942
1.2039
-22.5109
10.3576
-106.628
65.0474
44.2359
79.5058
12.0825
4.34535
2.98121
3.94293
4.50803
3.22612
-135.421
-104.05
-0.99495
183.765
-1.01779
4.88827
3.31988
2.87172
80.4523
22.1528
3.17777
11.1951
35.4523
-52.4213
-16.584
4.09968
4.45479
0.29009
3.97834
-128.203
-4.49924
36.561
23.4482
1.99571
17.5503
3.51776
4.13624
0.4936
1.66329
0.728963
5.23811
4.11598
0.11585
2.84494
3.40654
4.50793
2.89528
0.913464
5.28337
42.9517
13.8517
5.40144
-0.492234
3.57286
199.634
2.39295
0.521274
3.51798
44.2231
4.51758
4.00116
5.8839
75.7578
20.7409
82.0787
2.88389
61.2434
-119.619
86.9535
21.569
2.38602
1.46738
-2.29282
42.957
3.83528
3.1472
0.23685
17.071
27.3867
3.49985
2.43311
-22.4637
2.42551
24.3373
18.9313
7.95745
3.51619
28.8821
-136.328
-60.4196
4.58653
5.0877
3.97343
58.9505
2.72742
4.39743
2.83859
1.30816
76.5902
5.33262
0.334218
-71.8589
1.31507
3.1785
16.5295
2.63793
11.919
3.35341
48.0905
5.44623
3.29136
-123.816
6.71693
-1.85245
4.36863
0.673149
26.1293
74.6512
4.06887
5.44344
2.93471
13.3552
199.903
25.4343
3.4626
-136.471
15.8835
3.41417
1.77313
1.13458
78.5821
5.39682
199.298
3.09959
3.4192
18.7496
2.9779
13.1424
13.4875
77.9323
49.9667
68.9693
77.7477
3.00345
27.5166
14.0856
-1.98867
9.5968
2.5747
1.1417
171.203
2.90037
-10.0309
67.3946
21.6864
5.38048
4.6868
23.1372
1.77857
2.71032
34.1462
-119.878
-70.8851
0.56697
0.831992
74.865
35.0955
-87.7793
5.39854
-15.1063
3.39396
4.03062
7.24253
-44.8931
5.69304
5.05206
2.54227
18.8432
3.1214
6.45742
-63.4037
3.63382
1.30281
2.40759
-12.7887
-15.827
-24.3191
-115.351
6.26939
0.246526
7.64017
-1.76637
-105.248
-6.95302
4.61586
2.82648
2.89624
4.1774
57.2697
79.3735
3.30582
-6.39173
-4.45872
116.404
-1.91864
2.52415
3.32219
24.7246
-30.2538
0.30381
36.6683
3.38058
3.61345
14.6543
16.6918
-22.8403
-13.5957
29.3532
3.34869
4.21513
14.5191
2.86894
4.11965
2.65005
29.7175
2.04303
0.661839
103.498
10.9699
1.5845
-0.473679
9.42799
7.46635
1.38583
3.75764
9.70717
3.87135
0.786066
-21.5062
199.784
24.7385
3.28297
1.23509
5.88851
4.90498
-147.857
1.82262
0.933773
30.8071
2.92304
0.671882
3.14197
2.49247
-76.4101
5.38494
4.9909
3.92995
10.1445
11.2495
15.3396
3.0414
87.5428
3.41077
2.13411
3.02121
-1.07351
3.79088
3.21082
31.3776
5.32416
76.0267
3.08295
-92.9131
2.35363
2.9649
5.61897
6.77951
15.413
3.46357
2.76243
184.868
4.84504
-4.73484
3.1554
3.92302
2.96521
74.3001
3.3181
3.06847
33.9294
0.621583
78.3608
4.19515
-0.20365
3.58596
6.64169
3.88531
1.15222
34.2511
6.96139
-0.238955
4.95354
-0.631938
8.23093
-7.40476
4.29348
2.9346
-3.83688
3.67906
5.2981
4.82914
73.6572
10.164
66.323
3.35282
14.7974
29.8621
0.548561
143.277
2.84444
-105.314
49.1626
77.0157
2.77914
2.90253
0.791584
-26.3277
5.27003
23.4863
3.21744
0.567857
16.965
2.00091
5.18648
1.01577
5.28401
14.9691
6.12273
-130.833
1.42686
21.0585
5.61287
3.5748
3.85942
5.19851
-19.1205
5.40191
199.249
14.1241
2.31635
3.73914
-104.921
78.2219
4.72292
5.15137
7.67723
4.8096
9.63243
0.55896
56.0206
3.35708
3.69207
-86.7326
2.74504
6.47678
15.6143
3.81532
2.41391
3.98931
0.881605
2.78324
19.3594
93.4639
2.20312
0.542131
25.4433
37.7484
42.0098
4.42521
4.67783
182.466
5.2941
1.41343
-11.2082
-137.936
5.62462
4.7876
5.23744
0.202186
-101.29
3.04308
5.59253
-82.7283
-17.568
4.13028
3.61165
2.46959
5.08622
0.872566
-62.2919
2.75951
89.6518
2.8239
1.72651
2.50148
-3.29255
3.58855
77.416
13.3682
29.292
-103.921
-96.8866
12.0126
3.2763
24.6331
-10.8216
3.38073
4.83529
3.30941
0.58921
4.15522
2.7088
3.43257
21.0335
1.79994
0.495654
13.9048
0.894178
0.832008
1.49861
77.4781
4.17811
79.7155
78.9573
0.978111
3.77673
0.821033
2.76413
-0.0374901
67.4922
20.8828
3.96581
3.28946
5.23931
23.8348
36.3708
2.84439
-2.33326
1.84139
4.41925
2.40201
0.351869
4.77057
0.837057
1.51926
-67.7739
4.07267
1.6243
29.8853
2.96684
1.08359
2.15118
13.326
0.896736
4.69595
-116.402
3.46505
15.5077
-25.983
2.38543
6.43021
13.7943
4.54288
2.72722
1.94468
13.9414
3.54206
-103.776
3.43607
15.9548
-29.4752
179.731
-82.6396
5.58869
2.68471
178.899
79.3033
1.59143
5.42381
5.59077
75.1422
-0.582988
1.72506
5.0249
6.76187
6.76656
5.24544
1.95498
4.68683
-18.8315
180.749
5.28684
6.63002
1.63733
4.02114
2.9107
-4.56429
6.92662
-1.5911
22.4887
115.939
3.99587
122.411
-166.976
199.893
-96.5357
1.86866
-70.4531
22.9564
38.3622
4.11501
-43.9507
4.73846
28.3104
8.18546
-0.930799
-123.693
20.1619
73.8837
-24.9476
0.589434
4.22547
10.5302
-29.2424
6.84867
30.9309
4.91103
199.983
2.81902
-30.3811
6.35405
1.5179
2.95342
195.041
3.34621
2.90167
200.371
4.07552
-97.7212
3.49367
4.67165
-38.09
10.4262
-1.17146
-47.8492
17.9515
5.89936
11.9118
6.98801
-0.352794
0.609114
2.29159
-59.1863
-135.709
4.48624
38.7227
-3.36963
19.7313
6.86962
4.46791
3.69037
22.1212
6.40418
42.074
3.63916
72.5297
2.94422
4.03076
69.6911
5.49977
5.47303
-97.5445
4.07424
3.6242
3.91445
117.218
-18.8054
2.72535
25.7173
1.28841
2.91663
-2.95966
4.31821
3.45354
-139.815
4.80475
4.36617
6.96618
3.32859
5.34017
3.20658
-15.5905
-32.3244
-2.61919
4.87055
3.41639
-110.131
72.1481
2.76971
2.72499
0.695805
22.3025
2.63644
-4.5119
-161.822
2.94422
-6.17243
34.8797
2.75152
-1.59695
5.27587
7.03913
2.42801
3.65625
1.14628
0.310536
-28.3903
3.69649
14.9359
2.94513
77.7256
4.92096
15.5861
5.12844
199.814
-79.1225
0.995665
0.55404
3.98642
5.13262
3.34031
-36.708
-19.6269
3.53305
4.53131
1.33126
6.50179
3.4738
3.50659
42.7889
37.662
157.857
20.8953
6.85919
2.95091
-85.5751
4.72577
-87.6411
3.95164
2.63477
1.59495
-1.10484
2.74712
2.82429
2.73889
3.84645
33.352
-28.7047
1.72019
0.831153
59.5817
27.3921
3.02035
30.1412
-111.221
56.644
6.60252
168.511
3.27081
7.69634
6.8541
2.53127
9.90411
-5.16621
30.8823
4.59368
0.508682
200.373
1.20469
-40.7037
77.8813
0.433706
2.01763
5.40704
0.668875
-28.9401
1.98328
-53.1292
0.157221
4.74444
0.746844
4.86244
0.184271
4.98056
3.56916
4.15055
2.34067
-1.24962
-1.48996
2.6607
29.0641
2.70448
3.77197
3.88149
0.824303
3.29206
25.4479
-38.8201
3.09101
-27.739
4.2952
117.019
7.2826
5.97678
2.82016
2.81274
-28.8683
4.61349
3.82703
16.5321
-5.20556
2.87951
5.09716
5.67642
5.94119
12.41
3.29468
3.38619
23.8784
2.78537
4.0946
6.18433
25.5595
2.96278
-26.3133
-91.7922
5.55751
18.251
5.78626
3.94126
35.8423
4.37604
-2.25215
3.79547
-33.6093
0.824392
5.43041
2.48925
12.5398
31.0282
1.20212
3.29314
-13.3057
1.59475
-0.564821
-109.092
4.84103
7.18896
71.968
2.47922
-45.1539
4.12465
3.15052
7.54441
2.77082
20.2312
-40.2419
4.93752
4.93322
4.63171
4.67086
4.53924
5.06361
-0.460391
-3.37781
2.88208
2.19098
4.80491
3.55016
2.50162
3.53265
0.923749
6.02813
30.5774
-35.0005
2.419
-129.763
1.27121
80.4854
73.5812
199.461
17.3604
6.41008
3.91733
-19.3689
6.49987
4.64026
-78.4089
3.06823
18.9328
-42.1523
-109.514
6.61095
78.2879
2.24872
-1.66649
1.57105
5.1581
17.4378
0.532538
71.1356
3.92331
5.11535
2.08574
6.53749
21.6159
-1.29755
4.46868
-113.948
0.716766
-42.8228
2.0121
36.8145
4.97519
5.53262
0.93242
3.29556
2.94963
54.7657
47.0629
2.27034
-51.9893
77.5475
7.03839
200.281
5.37086
4.13516
58.4189
15.0318
8.08499
1.15905
1.77126
17.8282
3.36165
4.66651
84.5827
27.2766
0.598225
47.0927
-17.9622
0.383618
0.555287
10.0796
0.821949
57.8397
1.35794
4.23919
2.94992
30.689
2.39545
-3.99273
-32.561
2.90652
8.30756
29.6846
4.39708
78.5877
4.09669
68.7576
4.33385
3.2789
2.7086
5.21538
3.45034
-0.197837
5.16801
1.2027
5.60623
-63.0364
37.5447
2.88577
80.6597
2.2915
2.86383
3.46899
4.74071
3.04898
18.2541
4.67691
-16.0946
-37.0638
16.0267
183.32
6.80801
6.03577
79.5006
4.08523
0.128858
4.71456
3.26994
-0.383515
77.287
4.99973
5.45736
2.455
0.680408
0.837885
14.2792
6.73064
-13.0567
-7.13784
3.1371
3.29076
10.1228
-2.39694
2.54513
3.46064
0.672269
3.22416
6.91122
7.67963
4.55521
8.6265
-25.3234
-109.528
0.754397
4.72739
6.37081
45.7735
-41.3484
2.23816
3.04248
-0.442021
4.39277
3.03758
0.807403
7.72586
7.08779
2.88548
3.56609
3.67123
1.45733
-34.8844
2.67949
5.18633
2.77917
-1.85965
-33.8188
4.31754
19.9436
6.32528
0.967759
2.26383
3.78093
-1.93635
5.76179
3.54619
30.6199
48.6168
-0.420642
4.42215
3.68049
37.6311
35.7031
49.3361
3.35127
187.482
4.52344
-1.78008
30.6195
-38.0683
3.11384
3.30924
8.26871
12.0597
5.1527
2.49396
-20.6673
2.83692
6.79367
2.18428
5.18313
10.8746
4.64368
4.54196
5.17118
-99.04
3.35938
2.7239
1.98395
0.5241
6.06993
1.405
-0.281947
5.90836
7.28547
6.35761
5.08016
6.37753
5.70246
4.57411
2.79762
32.3269
5.39037
1.85885
6.73818
8.11516
3.35763
1.82339
5.10704
71.7207
2.50674
74.2946
3.69138
3.08761
3.85745
5.00666
4.0338
69.9395
5.84392
2.10231
5.17612
4.81597
67.8869
2.93288
4.37589
24.3045
-6.16702
2.9219
-26.0325
5.1551
67.2523
4.10221
-24.4728
4.78093
-15.7554
3.23471
-9.06812
0.2378
13.1653
77.7924
74.8786
3.42487
22.5389
3.3698
2.12366
3.32414
-2.84185
4.76018
1.80938
104.113
77.3238
-109.947
6.53321
33.6029
2.29286
3.89798
2.59869
6.92545
5.02098
17.1533
4.17967
-0.970045
5.00743
4.78505
5.40628
-9.30823
4.02301
3.59087
73.8996
7.05263
2.28077
-1.48536
27.6306
5.51552
4.5418
15.4695
5.16599
22.4908
9.97777
3.9418
0.859377
193.97
3.35485
5.44297
4.62687
3.03668
5.49128
0.993856
-22.5
2.58263
-15.2707
0.687056
1.05396
-3.72118
-1.44688
2.29044
5.39611
2.49031
3.43293
2.61548
-178.395
-183.694
4.20123
4.30176
3.09323
24.7212
0.951603
5.77401
2.4643
1.1147
4.92224
3.71805
-16.1244
0.873721
-10.702
53.6621
4.02662
22.3518
-0.441943
61.4113
7.10146
2.74944
4.04926
1.35371
3.71743
3.87291
23.0834
28.6244
24.9113
-31.8077
120.257
3.79819
2.69413
9.7668
2.75218
12.1918
76.0186
4.0647
77.193
91.4174
79.4986
5.15915
2.52474
3.10641
5.38685
-53.0609
4.92771
-24.7683
4.76534
5.6803
1.61456
76.2519
40.8864
2.85238
5.06444
7.22439
4.80163
4.16152
7.36312
108.702
3.67372
3.21341
77.4473
5.27027
70.6121
3.44369
3.36955
6.81059
-56.5231
3.83649
3.35767
4.18597
4.39718
0.561053
3.51225
26.3558
0.522846
3.3811
5.51741
3.34778
104.855
-6.03003
2.30627
18.0044
16.6853
0.99366
60.3735
5.50371
-18.8767
74.8058
4.74742
0.670088
3.98853
3.51348
2.10073
-67.4624
5.12656
23.2426
-0.628686
12.5996
18.6805
-32.1852
183.61
4.10037
-1.65945
47.0758
0.889175
2.80515
3.35459
4.16251
199.046
41.5986
4.57109
49.7511
3.94898
53.9316
28.6181
17.0938
6.44483
6.0888
11.2613
0.796672
4.91575
1.01172
56.6929
15.7771
4.81651
6.88076
2.26861
77.6012
4.58479
8.89557
25.2126
35.9993
1.08071
45.1129
0.1784
26.6347
4.12219
4.11151
1.93053
3.53506
4.84781
3.38462
11.3889
5.0697
3.51478
55.3561
2.15883
3.62822
0.25412
3.76742
-0.0456898
67.3816
36.1162
0.312487
33.8566
3.29203
5.39723
3.50999
-2.6836
126.316
-24.3006
3.47185
3.94533
4.91705
-14.1351
0.116943
7.03602
3.38575
47.4926
3.53233
2.34144
-95.6445
3.89606
5.54958
1.0186
10.8787
3.38224
0.128465
27.8287
3.34156
3.85303
78.3699
3.5261
19.9431
31.8857
2.07745
17.1079
3.67986
77.1852
2.05273
3.87515
2.85844
3.8475
5.43869
4.6825
4.0691
3.57333
1.18886
64.4676
3.62359
3.91341
5.24536
35.4597
4.5361
4.48808
2.91706
32.301
3.5303
59.8322
-15.7674
-0.897922
9.98605
8.94032
65.3169
198.425
-15.7733
4.38876
1.21938
175.452
78.5965
76.0183
10.206
4.80808
3.64194
1.43558
2.02858
7.51853
3.94319
6.06479
2.32806
5.30312
198.244
5.26386
25.0202
3.85079
3.42089
29.7034
3.55226
55.0353
2.0066
2.53353
3.30066
3.302
4.99263
2.62955
14.8017
1.46897
3.43355
11.6026
38.4226
65.3871
5.0604
3.94174
28.5
32.119
-77.8635
-34.3721
44.7981
4.1654
3.72738
3.8857
0.679446
84.2241
45.02
2.30842
4.65677
0.720694
3.00524
9.23558
4.56082
46.0403
2.88522
2.01798
3.5386
19.1296
3.50568
197.167
78.3229
0.201397
0.692928
-0.455445
4.15388
1.21224
2.97385
9.95337
4.24025
5.10923
1.12928
4.75896
0.770846
-17.1676
5.3696
-4.59903
17.8799
23.4454
-80.1306
0.482393
-4.6235
54.3354