/*--------------------------------*- C++ -*----------------------------------*\
  =========                 |
  \\      /  F ield         | OpenFOAM: The Open Source CFD Toolbox
   \\    /   O peration     | Website:  https://openfoam.org
    \\  /    A nd           | Version:  10
     \\/     M anipulation  |
\*---------------------------------------------------------------------------*/
FoamFile
{
    format      ascii;
    class       surfaceScalarField;
    location    "250";
    object      phi;
}
// * * * * * * * * * * * * * * * * * * * * * * * * * * * * * * * * * * * * * //

dimensions      [0 3 -1 0 0 0 0];

internalField   nonuniform List<scalar> 
16133
(
1.35795
-0.0707007
-0.0107804
-1.27792
-1.27481
0.231723
-0.275951
1.31903
-0.545384
-1.66925
1.31829
0.896344
-0.134836
0.021226
-1.7977
1.91129
-0.621637
0.173509
2.3067
-1.85857
2.80405
1.21855
-3.44564
-0.576968
-1.90066
0.497477
1.13009
0.273094
-0.0442827
-2.02726
0.538559
1.53298
-1.38033
2.0399
1.33603
-1.99559
0.35561
2.26469
-0.130729
-2.48957
1.4266
-1.36769
0.338581
-0.397507
2.12874
-0.717625
0.603437
-2.01454
-0.270504
-2.35847
1.37683
1.25215
0.994619
-0.875956
-0.00539885
-0.113275
1.10726
-0.0144134
-0.0982384
-0.845833
0.648594
-2.18776
2.38499
-0.118957
-0.0267082
-0.730298
-3.33387
0.541375
2.55606
0.236444
-3.52668
2.99998
-0.853634
-0.0887514
1.44221
0.00451822
-0.456749
1.64737
-1.40603
0.215408
-0.255878
-1.75737
1.8784
-2.29684
2.30598
-0.854969
3.99479
-3.03042
0.47202
-1.43641
-2.34162
2.84696
-0.149723
-0.0033567
0.00570366
-0.0661465
0.0637999
0.00323126
-0.00899914
-0.00402359
0.00979102
0.00405268
-1.27729
1.13832
0.134913
-0.0386377
0.0672548
-0.0777045
0.0490866
-2.64348
1.5743
1.73285
-0.542154
-2.66308
1.47238
-0.450064
0.476058
1.40059
0.684476
-1.95075
1.22199
0.00879285
0.204439
-0.0655168
-0.147715
-1.77906
-2.04405
1.97537
1.84772
-1.06473
0.269922
1.11731
-0.32251
-1.33841
-2.81982
2.37917
-0.00532942
0.0715863
-0.0854719
0.0192158
0.0478386
0.0863737
-0.024793
-0.10942
-3.17431
0.857267
-1.20964
-2.63902
-0.135198
-1.90973
-0.536311
-0.656715
0.159127
-0.191721
0.689303
-0.107979
1.65252
0.00846975
-1.55301
2.52734
-0.99183
-2.87393
2.24553
-1.42506
0.55815
-0.393121
-0.381734
-0.0485173
0.44561
-0.0153622
1.62319
0.859945
-0.443233
1.90971
-1.75437
-0.411221
-1.00673
-1.47728
-2.73255
2.59979
-1.83492
1.96768
0.120349
0.0488133
-0.121324
-0.0229441
0.0355996
0.0826013
-0.0952571
-0.016746
0.0477078
0.0554119
-0.0615434
-0.0308822
0.0537879
2.4095
-1.14996
-4.07937
-0.00299582
-0.0613744
0.0880299
-0.0236599
-0.623477
0.895815
-0.151785
-0.12056
2.61098
0.0735126
0.0211578
0.025679
0.209688
-1.1905
-0.294005
0.0372836
-0.062759
0.0649072
-0.0394332
1.03963
-1.97126
2.04002
-1.10838
1.12199
-0.891502
-2.19981
1.44556
-0.914995
-0.491962
0.00700892
-0.138528
0.151941
0.16571
-0.137303
-0.180352
0.686985
1.49895
-2.32011
0.658779
-1.3691
0.0477058
0.0161328
-0.0867827
0.0852274
-0.0121214
0.00368492
-0.076791
-0.734821
0.0819577
1.12381
-0.470955
1.04804
-1.75755
-1.49029
-0.0625717
-0.159051
1.32887
-0.300286
-0.7879
0.348047
0.740134
-2.37059
1.26838
-1.21791
-1.24751
0.706904
1.03808
-1.29226
1.21452
0.762206
1.21771
-1.17109
-0.109204
2.28824
-2.06899
0.466185
-0.685435
1.26354
-1.2036
0.067389
-0.127338
0.0640123
0.117034
-0.132233
0.0408855
0.0977214
-0.103007
2.69824
0.444846
-0.854841
-0.290762
0.170548
1.17383
-1.05362
1.30373
-1.19998
-0.19765
0.0939203
1.62199
-1.52278
-0.207204
0.924636
-0.622316
-0.0370941
-0.265229
1.37931
-0.184582
0.109019
1.75727
0.129573
-0.26487
2.154
-0.375516
1.32676
-0.133919
1.09509
-0.173897
0.0034337
1.45811
-0.138735
0.0599349
-0.384135
-0.971375
0.590168
1.81486
-0.251028
1.02048
-0.165485
-1.01406
0.859459
0.152043
-0.115696
-1.6275
1.82378
-0.320771
0.124499
0.681083
-0.282916
1.95736
-1.85373
0.694159
-0.797767
0.0656481
-0.144256
0.0795932
0.602201
2.15422
-0.799052
-0.0156006
1.38568
-0.14766
0.383375
-0.542659
0.0321462
3.70163
-1.03555
1.19036
0.138669
-0.111335
0.152123
-1.60179
-0.304705
-1.7037
-0.771655
-1.17614
0.0978905
-0.125365
0.135576
-0.121361
0.108147
-1.14549
-1.62084
-0.322475
1.77658
0.369672
1.2461
-1.45717
-0.269774
1.51973
-1.81637
-0.232663
1.72656
0.952402
1.11159
-0.287396
0.674681
-0.495037
-0.479935
1.29875
-0.237234
-0.999706
0.855376
0.652877
-0.508578
-1.31819
1.37594
0.514409
-0.572166
-0.0429504
0.110066
0.00442424
-0.0715392
-0.322276
0.781664
0.391679
-0.498667
2.42272
-1.87953
-0.0424413
0.0418293
-0.0103756
0.0109876
0.290911
-0.508961
-1.27616
-0.49209
-1.76417
-1.06995
-0.115551
-0.0195777
0.0751269
0.0296783
-0.0771665
0.130774
0.112926
-0.166534
-0.902238
0.952498
-0.434422
-0.271199
1.93146
-1.3697
-1.50317
-0.109183
0.013287
-0.0742405
-2.03017
2.77119
0.0705725
-0.167825
-0.394712
-0.425738
1.31916
-2.57094
1.67753
1.99058
1.01556
-0.99894
0.164366
-0.180996
0.432508
-0.479387
0.192811
-1.88574
-0.288961
0.833285
-0.663287
1.74454
0.699546
-2.8698
-0.344194
0.0564603
-0.0940012
-0.8401
-3.1838
1.39568
-1.29743
2.11198
0.951712
2.48844
1.32989
-0.10821
0.015091
0.242364
-0.149246
1.5145
0.509609
-0.64819
0.557021
-1.20671
0.318435
1.25463
-0.366364
3.41242
0.754523
-1.48793
-2.67901
-0.954972
-0.120387
-1.59344
1.69396
2.47661
-2.35502
-0.0894399
0.341062
1.12647
1.82941
1.54572
-1.72732
1.41694
-1.64037
-1.94117
-0.214611
1.92313
-2.08405
1.28996
-0.793831
1.58793
-2.01457
-2.52762
-0.112932
-1.67167
0.228723
-0.461748
-0.501797
0.0203704
-0.0140858
0.00128494
-0.00757
0.188163
0.66191
2.34594
-2.25926
0.612883
-1.13732
-0.345343
-0.310421
-0.420523
0.350228
-0.329454
0.399742
-1.48589
-0.225079
-0.115455
0.147955
0.0347541
-2.55147
-0.701349
-1.46711
0.72606
0.100664
-0.0701013
-0.623276
-0.956247
1.55548
-1.84674
1.39434
1.60652
1.88262
1.65228
-1.25831
0.138971
0.0672745
-0.142233
-0.0531566
-0.00886261
1.02678
-0.396801
0.532405
-0.721614
1.39238
-1.66165
-0.737661
0.796743
-0.881286
-0.346235
-0.166636
1.3134
0.985047
0.0968145
0.0572134
-0.159357
-1.63882
1.37237
0.165404
-0.506511
0.674789
-1.05549
1.52957
-0.365947
-0.331984
0.0125789
0.117005
-0.092302
2.12478
-0.238967
0.0916196
-0.196849
1.44429
0.753014
2.32703
-0.0123163
0.0359179
-0.227922
0.947928
0.108712
1.15332
0.138922
-0.110294
-0.159032
0.130404
-0.0531594
0.0498029
-0.122223
0.0554981
-0.116228
-0.0547258
0.511657
-0.539937
0.378503
0.338727
-0.0305288
-0.237629
0.36932
0.630439
-0.811607
-0.0309108
-0.0813952
0.137944
-0.0256381
1.5246
0.0525191
-0.0576219
0.00510288
-0.748314
-0.398208
1.81127
-2.50668
0.430119
0.701691
0.239428
-0.281982
-0.286905
-1.68
-0.000640277
0.565422
-2.99468
-0.0314843
0.0448077
0.00672124
-0.0200447
-0.0665995
-3.04193
-0.0833301
-0.0193345
0.0717537
-2.16212
-0.221017
-1.4695
2.82896
-1.46013
-0.0324393
-0.122725
0.0737688
0.185
-0.254916
0.208837
-0.0273361
-0.0734132
0.0392057
-0.507025
1.46071
-0.885108
1.25883
0.732712
-0.59915
0.0281785
-0.0453893
0.0172106
-1.08338
-0.347951
0.0403061
-0.054693
0.0143866
1.09719
-2.18152
0.364438
0.765908
-0.395267
0.412441
0.0358551
0.00445096
0.308569
-0.162177
-0.159597
0.27327
0.201788
0.0341299
1.21708
-0.452296
-0.360432
2.24013
0.15495
-0.0680902
0.0521112
-0.225463
0.20226
-0.628776
0.822134
-1.43114
-0.336662
1.26065
-0.456134
2.04245
0.0444919
0.00531099
0.180856
-1.55163
0.938757
-0.496802
-1.39564
0.653433
0.351383
0.27375
-1.18346
1.19697
-0.151666
-0.0420732
0.0834454
2.62116
-0.0743681
0.036885
0.114003
-0.110003
-0.144006
0.208296
-0.419025
0.179368
-0.0188358
-0.0991611
0.038181
0.0399713
-0.0781526
0.00654436
-1.40798
2.31881
-0.296678
0.39623
0.229966
-1.0508
0.0123192
0.0158591
-0.618643
-2.59705
0.105132
0.0349191
0.118453
-0.116487
-0.174444
-0.140914
0.0112345
-0.367018
-0.372957
-2.42354
-1.21243
-0.0165121
0.132889
0.10656
-0.227757
-0.77022
-0.0248864
-0.00308405
-0.0347889
0.0695416
0.148994
-0.151262
-0.196829
-1.5902
-1.78089
0.0403546
0.00413709
0.210394
-1.06317
0.00264908
1.04471
0.0481683
-0.0115548
0.0616229
0.0950686
-0.121772
0.407922
0.0992166
0.0537191
0.0502714
-0.063221
-0.0238401
0.0143058
-0.145204
0.210327
-0.13064
-0.0235655
0.0217989
0.0406034
-0.000248955
-0.00828913
0.00957383
0.0789176
0.0129237
3.94518e-05
-0.00624206
-0.159291
1.2569
-0.910251
0.867868
0.0426636
-0.126245
0.000574647
0.273868
-0.247222
-0.341288
0.626425
0.414498
-0.90081
-0.553474
-0.0240767
0.0332647
-0.0355358
0.0099831
-0.0623624
-0.0333633
0.0270083
-0.0154039
0.000844722
0.0397586
0.0387705
-0.048627
1.4104
-0.00955168
0.030896
-1.00466
0.392276
-1.27864
-0.393982
-0.0406965
0.00583504
-0.00526057
-0.0271752
0.0147351
-0.0377612
0.0497763
-0.00522114
0.394004
-0.531344
-0.701829
0.579367
-0.111574
-0.816681
-0.302934
-0.0932248
-0.039592
-0.754452
-0.305988
-0.0114632
-0.0606321
0.0205203
0.101115
-0.290944
0.0353518
0.0185615
-0.031508
1.27811
-0.0135242
0.0347302
-0.0231847
-0.195941
1.65301
0.597054
-0.245943
-0.506747
-0.173713
-0.431192
-0.00518244
0.139038
-0.133855
-0.01163
0.150839
-0.144391
-0.0189908
0.164051
-0.15669
-0.0269091
0.174091
-0.166172
-0.0349113
0.182517
-0.174515
-0.0430807
0.18944
-0.18127
-0.0513569
0.195579
-0.187302
-0.0598762
0.20085
-0.19233
0.205328
-0.196943
-0.0682606
-0.0054213
0.144459
-0.0111113
0.156528
-0.0173298
0.170269
-0.0239973
0.180758
-0.0308026
0.189323
-0.0377701
0.196407
-0.0447964
0.202605
-0.0519403
0.207994
0.212604
-0.0592161
-0.00539094
0.149849
-0.0105003
0.161637
-0.0158861
0.175655
-0.0215246
0.186396
-0.027297
0.195095
-0.0331766
0.202287
-0.0390909
0.208519
-0.0450565
0.213959
0.218692
-0.0511449
-0.00514883
0.154997
-0.00980355
0.166292
-0.0144837
0.180335
-0.0192353
0.191148
-0.0240779
0.199938
-0.0289959
0.207205
-0.0339436
0.213467
-0.0389382
0.218954
0.223815
-0.0440614
-0.00486875
0.159866
-0.00903701
0.17046
-0.0130169
0.184315
-0.0169489
0.19508
-0.0209232
0.203912
-0.0249635
0.211245
-0.0290607
0.217564
-0.0332317
0.223125
0.228123
-0.0375396
-0.00452486
0.16439
-0.00814997
0.174085
-0.0113975
0.187562
-0.0145145
0.198197
-0.0176535
0.207051
-0.0208695
0.214461
-0.0241606
0.220856
-0.0275415
0.226506
0.231636
-0.0310546
-0.00407337
0.168463
-0.00704537
0.177057
-0.00950702
0.190024
-0.0118067
0.200497
-0.0141208
0.209365
-0.0165243
0.216865
-0.0190419
0.223373
-0.0216682
0.229132
0.234393
-0.0244245
-0.00345381
0.171917
-0.00563774
0.179241
-0.00726216
0.191648
-0.00871489
0.20195
-0.0102053
0.210856
-0.011814
0.218474
-0.0135597
0.225119
-0.0154395
0.231012
0.236347
-0.0173936
-0.00243191
0.174349
-0.00378686
0.180596
-0.00457599
0.192437
-0.00519995
0.202574
-0.00587149
0.211527
-0.00667277
0.219275
-0.00765038
0.226096
-0.00879015
0.232152
0.237637
-0.0100801
-0.00089513
0.175244
-0.00147357
0.181174
-0.00146018
0.192424
-0.00127414
0.202388
-0.00112514
0.211378
-0.00113026
0.21928
-0.00132879
0.226295
-0.00173621
0.232559
0.23822
-0.00231987
0.00083707
0.174407
0.00109839
0.180913
0.00195719
0.191565
0.00294615
0.201399
0.00390564
0.210419
0.00470025
0.218486
0.00529308
0.225702
0.00565378
0.232198
0.238084
0.00579046
0.00238487
0.172022
0.00369715
0.179601
0.00548513
0.189777
0.00728876
0.199595
0.00902215
0.208686
0.0106076
0.2169
0.0119842
0.224325
0.0131482
0.231034
0.237202
0.0140301
0.00382612
0.168196
0.00635277
0.177074
0.00901754
0.187113
0.0115527
0.19706
0.0139882
0.20625
0.0162678
0.214621
0.0183661
0.222227
0.0202529
0.229147
0.235514
0.0219406
0.00527232
0.162924
0.00896531
0.173381
0.0123569
0.183721
0.015509
0.193908
0.0185221
0.203237
0.0213715
0.211771
0.0240565
0.219542
0.0265509
0.226653
0.233225
0.02884
0.00651718
0.156407
0.0111904
0.168708
0.0152064
0.179706
0.0188713
0.190244
0.0223501
0.199759
0.0256677
0.208454
0.0288231
0.216386
0.0317858
0.22369
0.230484
0.0345266
0.0073108
0.149096
0.0127451
0.163274
0.0172872
0.175164
0.0214187
0.186112
0.0253253
0.195852
0.0290545
0.204725
0.0326177
0.212823
0.0359997
0.220308
0.227285
0.039199
0.00729087
0.141806
0.0133805
0.157185
0.0184278
0.170117
0.0230535
0.181487
0.0274196
0.191486
0.0315889
0.200555
0.0355686
0.208844
0.0393685
0.216508
0.223719
0.042935
0.00648484
0.135321
0.0130056
0.150664
0.0186379
0.164485
0.0238288
0.176296
0.0287209
0.186594
0.0333877
0.195888
0.0378591
0.204372
0.0421441
0.212223
0.219649
0.0462137
0.005644
0.129677
0.0122036
0.144104
0.0182763
0.158412
0.0239974
0.170575
0.0294307
0.18116
0.0346395
0.190679
0.0396596
0.199352
0.0445286
0.207354
0.214896
0.0492825
0.00507366
0.124604
0.011439
0.137739
0.0177298
0.152121
0.0238544
0.16445
0.029763
0.175252
0.035487
0.184955
0.0410527
0.193787
0.046484
0.201923
0.209582
0.0517979
0.00468395
0.11992
0.010831
0.131592
0.0172016
0.145751
0.0235984
0.158053
0.0298895
0.16896
0.0360703
0.178775
0.0421567
0.1877
0.048165
0.195915
0.203664
0.0540835
0.00443438
0.115486
0.0104303
0.125597
0.0168148
0.139366
0.0233587
0.151509
0.029917
0.162402
0.0364615
0.17223
0.0429918
0.18117
0.0495184
0.189389
0.197097
0.0560857
0.00457572
0.11091
0.0103982
0.119774
0.0166893
0.133075
0.0232332
0.144965
0.0299267
0.155709
0.0367296
0.165427
0.0436292
0.174271
0.0505923
0.182426
0.190099
0.0575898
0.00543157
0.105479
0.0108675
0.114338
0.0168603
0.127082
0.0232541
0.138572
0.0299601
0.149002
0.0369203
0.158467
0.0441327
0.167058
0.0514543
0.175105
0.18339
0.0581638
0.00631764
0.0112364
0.0169946
0.0233335
0.0301027
0.037308
0.0450751
0.0536457
0.0633226
-0.146409
-0.000979686
0.147389
-0.145263
-0.00114565
-0.143966
-0.00129786
-0.142525
-0.00144047
-0.140972
-0.00155287
-0.139338
-0.0016336
-0.137645
-0.00169431
-0.135873
-0.00177088
-0.13394
-0.00193365
-0.131709
-0.00223097
-0.129022
-0.00268707
-0.125746
-0.00327501
-0.121783
-0.00396356
-0.117055
-0.00472821
-0.111528
-0.00552659
-0.105195
-0.00633279
-0.0980842
-0.00711015
-0.090245
-0.00783938
-0.0817488
-0.00849546
-0.0726883
-0.00906076
-0.0631757
-0.00951173
-0.0533886
-0.00978748
-0.0435821
-0.00980566
-0.0340474
-0.00953519
-0.0250541
-0.00899269
-0.0168429
-0.00821168
-0.00938343
-0.0074589
-0.00241274
-0.00697115
0.00432199
-0.00673423
0.0110553
-0.00673384
0.0180081
-0.00695246
0.0252165
-0.00720896
0.0325743
-0.00735764
0.0399905
-0.00741671
0.0473851
-0.00739473
0.054673
-0.00728825
0.0618104
-0.00713794
0.0687785
-0.00696813
0.0755398
-0.00676194
0.0820357
-0.00649553
0.0881931
-0.00615812
0.0939402
-0.0057465
0.0992052
-0.00526562
0.103943
-0.00473705
0.108123
-0.00418052
0.111755
-0.00363167
0.114866
-0.00311166
0.117518
-0.00265138
0.119779
-0.00226144
0.121728
-0.001949
0.123442
-0.0017131
0.124984
-0.00154181
0.126417
-0.00143331
0.127778
-0.00136063
0.129086
-0.00130828
0.130349
-0.00126334
0.131565
-0.00121583
0.132738
-0.00117282
-0.00111718
-0.147029
-0.00241784
0.148467
-0.145414
-0.00276085
-0.143568
-0.00314372
-0.141437
-0.00357177
-0.138965
-0.00402466
-0.136086
-0.00451302
-0.132751
-0.00502963
-0.128924
-0.00559799
-0.124614
-0.00624434
-0.119857
-0.00698746
-0.114716
-0.00782915
-0.109246
-0.00874426
-0.10349
-0.00972009
-0.09749
-0.0107286
-0.09127
-0.0117466
-0.08485
-0.0127531
-0.0782432
-0.0137168
-0.0714655
-0.0146173
-0.0645291
-0.0154313
-0.0574641
-0.0161261
-0.0503163
-0.0166588
-0.0431458
-0.0169584
-0.0359656
-0.0169852
-0.0287271
-0.0167741
-0.0213385
-0.0163808
-0.0136565
-0.0158941
-0.00564805
-0.015467
0.00255874
-0.0151784
0.0108417
-0.0150169
0.0190694
-0.014962
0.0271035
-0.0149864
0.0349181
-0.0150241
0.0425503
-0.0149897
0.0499904
-0.0148573
0.0572062
-0.0146107
0.064165
-0.0142473
0.0707995
-0.0137728
0.0770381
-0.0132067
0.082831
-0.0125553
0.0881671
-0.0118313
0.0930598
-0.0110512
0.0975468
-0.0102331
0.101687
-0.00940619
0.10554
-0.00858987
0.109163
-0.00780362
0.112603
-0.00707166
0.115895
-0.00640378
0.119053
-0.00580875
0.122088
-0.00529692
0.125002
-0.00486246
0.127792
-0.00450272
0.130448
-0.00419801
0.132952
-0.00393754
0.135295
-0.00370343
0.137462
-0.00347519
0.139454
-0.0032558
0.141268
-0.00302971
0.142909
-0.0028141
-0.0025993
-0.155778
-0.00412833
0.157488
-0.153851
-0.0046874
-0.151666
-0.00532909
-0.149181
-0.00605676
-0.146331
-0.00687446
-0.143062
-0.0077821
-0.139322
-0.00876941
-0.135088
-0.00983182
-0.130362
-0.0109705
-0.12518
-0.0121694
-0.11959
-0.0134191
-0.113634
-0.0147005
-0.107353
-0.0160003
-0.100787
-0.0172948
-0.0939718
-0.0185616
-0.086954
-0.0197707
-0.0797681
-0.0209024
-0.0724623
-0.0219231
-0.0650814
-0.0228119
-0.0576688
-0.0235389
-0.0502489
-0.0240784
-0.0428025
-0.0244051
-0.0352552
-0.0245323
-0.0275331
-0.0244964
-0.0195771
-0.0243366
-0.0113642
-0.0241072
-0.00295526
-0.0238757
0.00555373
-0.0236876
0.014085
-0.0235479
0.0225638
-0.0234411
0.0309101
-0.0233326
0.0390553
-0.0231696
0.0469644
-0.0228989
0.0545923
-0.0224855
0.0618946
-0.0219133
0.0688281
-0.021181
0.0753544
-0.0202994
0.0814484
-0.0193007
0.0871085
-0.0182157
0.0923558
-0.0170785
0.0972371
-0.0159328
0.101812
-0.0148078
0.10614
-0.0137347
0.110277
-0.0127261
0.114274
-0.0118009
0.118158
-0.0109557
0.12195
-0.0101952
0.125654
-0.00951348
0.129265
-0.00890769
0.132769
-0.00836628
0.136148
-0.00788145
0.139383
-0.00743293
0.142456
-0.00701052
0.145344
-0.00659147
0.148034
-0.00616544
0.150514
-0.0057356
0.152787
-0.00530273
0.154843
-0.00487012
-0.00444645
-0.158518
-0.00611451
0.160505
-0.156316
-0.00688956
-0.153854
-0.00779094
-0.151094
-0.00881747
-0.147994
-0.00997416
-0.144513
-0.0112627
-0.140619
-0.0126637
-0.136286
-0.0141652
-0.131519
-0.0157375
-0.12633
-0.0173582
-0.120743
-0.0190064
-0.114778
-0.020665
-0.108477
-0.0223017
-0.101869
-0.023902
-0.095002
-0.0254288
-0.0879079
-0.0268648
-0.080631
-0.0281791
-0.0732079
-0.0293463
-0.0656685
-0.0303511
-0.058031
-0.0311765
-0.0502914
-0.0318178
-0.0424224
-0.0322742
-0.0343918
-0.0325627
-0.0261824
-0.0327061
-0.0177813
-0.0327375
-0.00919484
-0.0326938
-0.000466493
-0.0326039
0.00833403
-0.0324883
0.0171286
-0.0323424
0.0258332
-0.0321458
0.0343654
-0.0318648
0.0426545
-0.031459
0.0506447
-0.0308892
0.0582914
-0.0301325
0.0655557
-0.0291779
0.0724195
-0.028045
0.0788803
-0.0267605
0.0849451
-0.0253655
0.0906459
-0.0239169
0.0960315
-0.022464
0.101151
-0.0210524
0.106055
-0.0197122
0.110789
-0.0184685
0.11539
-0.0173267
0.119876
-0.0162879
0.12427
-0.0153493
0.128564
-0.0144895
0.132756
-0.0137046
0.136818
-0.0129696
0.140733
-0.012282
0.144474
-0.0116218
0.148015
-0.0109737
0.151327
-0.0103227
0.154402
-0.00966677
0.157233
-0.0089953
0.159817
-0.00832031
0.16216
-0.00764575
0.164272
-0.00698182
-0.00634679
-0.16313
-0.00828258
0.165298
-0.160737
-0.00928234
-0.158103
-0.0104252
-0.155197
-0.0117232
-0.15199
-0.0131822
-0.148452
-0.0147998
-0.144554
-0.0165624
-0.140281
-0.0184383
-0.135618
-0.0204006
-0.130561
-0.0224151
-0.125115
-0.0244521
-0.119292
-0.0264879
-0.113106
-0.0284877
-0.106579
-0.0304289
-0.099726
-0.0322816
-0.0925742
-0.0340165
-0.0851487
-0.0356044
-0.0774718
-0.0370232
-0.0695726
-0.0382501
-0.061468
-0.0392812
-0.0531779
-0.0401077
-0.0447102
-0.040742
-0.036073
-0.0411998
-0.0272752
-0.0415039
-0.0183338
-0.0416788
-0.00928007
-0.0417477
-0.000158596
-0.0417252
0.00896989
-0.0416168
0.0180357
-0.0414081
0.0269633
-0.0410735
0.035678
-0.0405794
0.0441098
-0.039891
0.0522021
-0.0389816
0.0599178
-0.0378484
0.0672402
-0.0365004
0.0741664
-0.0349713
0.0807191
-0.0333135
0.0869377
-0.0315842
0.0928659
-0.0298454
0.0985556
-0.0281536
0.104046
-0.026543
0.109383
-0.0250493
0.114593
-0.0236781
0.119699
-0.0224325
0.12471
-0.0212995
0.129621
-0.0202596
0.134421
-0.0192905
0.139085
-0.0183683
0.143583
-0.0174669
0.147877
-0.0165757
0.151934
-0.0156789
0.155726
-0.0147656
0.159237
-0.013834
0.162452
-0.0128813
0.165379
-0.0119226
0.168029
-0.0109701
0.170421
-0.0100378
0.172578
-0.009139
-0.00828385
-0.165811
-0.0105811
0.16811
-0.163304
-0.0117899
-0.160574
-0.0131547
-0.157601
-0.0146965
-0.154363
-0.0164204
-0.150851
-0.0183121
-0.147046
-0.0203668
-0.142933
-0.0225517
-0.138493
-0.0248402
-0.133715
-0.0271933
-0.128582
-0.0295856
-0.123084
-0.0319858
-0.11721
-0.0343611
-0.110958
-0.0366812
-0.10433
-0.0389098
-0.0973299
-0.0410161
-0.0899674
-0.0429668
-0.0822621
-0.0447285
-0.0742268
-0.0462851
-0.0658866
-0.0476214
-0.0572612
-0.0487329
-0.0483799
-0.0496233
-0.0392696
-0.05031
-0.029967
-0.0508066
-0.020513
-0.0511326
-0.0109586
-0.0513021
-0.00136386
-0.0513198
0.00820135
-0.0511821
0.0176597
-0.0508663
0.0269288
-0.0503427
0.0359294
-0.04958
0.0445875
-0.0485493
0.0528526
-0.0472469
0.0607012
-0.0456971
0.068133
-0.0439324
0.0751785
-0.0420169
0.0818807
-0.0400159
0.0882848
-0.0379883
0.0944485
-0.0360094
0.100418
-0.0341234
0.106238
-0.0323633
0.111936
-0.0307465
0.117536
-0.0292787
0.123048
-0.0279441
0.128474
-0.026726
0.133805
-0.0255904
0.139017
-0.0245031
0.14408
-0.0234309
0.148956
-0.0223423
0.153596
-0.0212162
0.157959
-0.0200413
0.162
-0.0188074
0.165697
-0.0175305
0.169043
-0.0162275
0.172054
-0.014933
0.174747
-0.0136635
0.177159
-0.0124497
0.179326
-0.0113062
-0.0102281
-0.170281
-0.0129703
0.17267
-0.167692
-0.0143787
-0.164893
-0.0159533
-0.161876
-0.0177135
-0.158635
-0.0196617
-0.15516
-0.0217869
-0.151448
-0.0240793
-0.147484
-0.0265158
-0.143256
-0.0290684
-0.138726
-0.0317225
-0.13387
-0.0344417
-0.128657
-0.037199
-0.123057
-0.0399613
-0.117049
-0.0426886
-0.110619
-0.0453399
-0.103759
-0.0478762
-0.0964613
-0.0502644
-0.0887399
-0.0524498
-0.0806001
-0.0544248
-0.0720666
-0.0561549
-0.0631596
-0.0576397
-0.0539164
-0.0588665
-0.0443774
-0.0598488
-0.0345906
-0.0605934
-0.0246196
-0.0611036
-0.0145293
-0.0613924
-0.00439931
-0.0614497
0.00568689
-0.0612683
0.0156373
-0.0608166
0.0253559
-0.0600613
0.0347538
-0.0589779
0.0437418
-0.0575373
0.0522732
-0.0557784
0.0603396
-0.0537636
0.067959
-0.051552
0.0751918
-0.0492498
0.0820969
-0.0469211
0.0887183
-0.0446098
0.0951263
-0.0424175
0.101365
-0.0403621
0.107475
-0.038473
0.113474
-0.0367458
0.119383
-0.0351877
0.125206
-0.0337677
0.130952
-0.0324721
0.13661
-0.0312481
0.142162
-0.0300551
0.147574
-0.0288432
0.152809
-0.0275768
0.157814
-0.0262215
0.162527
-0.0247545
0.166904
-0.0231837
0.170894
-0.0215206
0.174483
-0.019817
0.17768
-0.0181301
0.180521
-0.0165038
0.183045
-0.0149739
0.185293
-0.0135544
-0.0122376
-0.174963
-0.0154145
0.177408
-0.172347
-0.0169953
-0.169548
-0.018752
-0.166558
-0.0207033
-0.163389
-0.0228313
-0.16004
-0.0251359
-0.156521
-0.027598
-0.152815
-0.030222
-0.148883
-0.033001
-0.144686
-0.0359191
-0.140171
-0.0389564
-0.135287
-0.0420832
-0.130003
-0.0452455
-0.124279
-0.0484118
-0.118091
-0.0515285
-0.111415
-0.0545524
-0.104241
-0.0574381
-0.0965774
-0.0601132
-0.088428
-0.0625741
-0.0797998
-0.064783
-0.0707067
-0.0667327
-0.061189
-0.0683841
-0.051295
-0.0697427
-0.041061
-0.0708274
-0.0305916
-0.0715729
-0.0199489
-0.072035
-0.00924721
-0.0721514
0.00142991
-0.0719455
0.0119608
-0.0713475
0.0222384
-0.070339
0.0321654
-0.068905
0.0416014
-0.0669734
0.0505051
-0.0646823
0.0589115
-0.0621701
0.0668204
-0.059461
0.07436
-0.0567894
0.0816087
-0.05417
0.0885448
-0.0515458
0.0952832
-0.049156
0.101866
-0.0469454
0.108319
-0.0449255
0.114659
-0.0430858
0.120874
-0.041403
0.126981
-0.0398743
0.133014
-0.0385059
0.13893
-0.0371635
0.14475
-0.0358748
0.150433
-0.0345268
0.155921
-0.0330643
0.161181
-0.0314811
0.166159
-0.0297331
0.170794
-0.0278184
0.175029
-0.0257555
0.17884
-0.0236276
0.182232
-0.0215225
0.185234
-0.0195059
0.187883
-0.0176229
0.19023
-0.0159017
-0.0143372
-0.181418
0.183845
-0.0178419
-0.178806
-0.0196064
-0.176045
-0.0215138
-0.173135
-0.0236131
-0.17011
-0.0258564
-0.166946
-0.0283002
-0.163625
-0.0309193
-0.160171
-0.0336753
-0.156544
-0.0366286
-0.152592
-0.0398709
-0.148321
-0.0432272
-0.143682
-0.0467227
-0.138608
-0.0503193
-0.133121
-0.0538987
-0.127129
-0.0575205
-0.120678
-0.0610031
-0.113679
-0.0644372
-0.10609
-0.0677024
-0.0979428
-0.0707211
-0.0892782
-0.0734476
-0.080071
-0.0759397
-0.0704063
-0.0780489
-0.0602508
-0.079898
-0.0496163
-0.081462
-0.0386726
-0.0825165
-0.0274836
-0.0832241
-0.0162338
-0.083401
-0.00493843
-0.0832409
0.00620956
-0.0824953
0.0169773
-0.0811068
0.0274603
-0.0793879
0.0373702
-0.0768835
0.0467254
-0.0740375
0.0556397
-0.0710844
0.0640464
-0.0678678
0.07209
-0.064833
0.0798092
-0.0618893
0.087241
-0.0589776
0.0946126
-0.0565278
0.101758
-0.0540911
0.108749
-0.0519164
0.115632
-0.0499683
0.122313
-0.0480849
0.128884
-0.0464448
0.135282
-0.0449042
0.141488
-0.0433693
0.147525
-0.0419117
0.153249
-0.0402509
0.158891
-0.0387062
0.164356
-0.0369458
0.169548
-0.0349251
0.17439
-0.0326598
0.178807
-0.0301725
0.182827
-0.0276472
0.186371
-0.0250665
0.189527
-0.0226613
0.192281
-0.0203771
0.194786
-0.0184069
-0.0164942
-0.0860781
0.00792538
-0.0931161
0.0070378
-0.0995063
0.00639003
-0.105783
0.00627652
-0.112408
0.00662485
-0.119409
0.00700052
-0.126648
0.00723894
-0.134146
0.00749804
-0.141908
0.00776172
-0.149284
0.00737591
-0.1554
0.00611605
-0.159591
0.00419001
-0.161504
0.00191315
-0.161635
0.000130221
-0.161026
-0.000608378
-0.160405
-0.000621225
-0.16003
-0.000375185
-0.15985
-0.000180681
-0.159642
-0.000208042
-0.159078
-0.000564711
-0.157821
-0.00125703
-0.155787
-0.00203445
-0.153251
-0.00253672
-0.150565
-0.00268585
-0.00317615
-0.0935041
0.0146467
-0.100468
0.0140012
-0.107567
0.0134895
-0.11477
0.0134795
-0.12199
0.013845
-0.129251
0.014261
-0.136562
0.0145494
-0.143726
0.0146621
-0.150305
0.0143404
-0.156013
0.0130846
-0.160831
0.0109336
-0.164794
0.00815331
-0.168007
0.00512608
-0.170341
0.00246385
-0.171623
0.000673137
-0.171942
-0.00030214
-0.171517
-0.000800093
-0.170529
-0.00116883
-0.169092
-0.00164563
-0.16727
-0.00238648
-0.165111
-0.00341683
-0.162513
-0.00463235
-0.159157
-0.00589315
-0.154561
-0.00728203
-0.0092698
-0.103375
0.0227651
-0.111255
0.0218806
-0.119078
0.0213123
-0.126782
0.0211834
-0.134286
0.0213491
-0.141563
0.021538
-0.148541
0.0215273
-0.155033
0.021154
-0.160858
0.0201659
-0.166072
0.0182987
-0.170727
0.0155878
-0.174845
0.0122712
-0.178445
0.0087266
-0.181402
0.00542048
-0.183475
0.00274608
-0.184538
0.000760647
-0.184628
-0.000710071
-0.183856
-0.00194114
-0.182336
-0.00316487
-0.180162
-0.00456082
-0.177379
-0.00620003
-0.173922
-0.00808928
-0.169598
-0.0102176
-0.164174
-0.0127065
-0.0159555
-0.112324
0.0320815
-0.121051
0.0306079
-0.129454
0.0297152
-0.137567
0.0292959
-0.145346
0.0291283
-0.152743
0.0289349
-0.159686
0.0284701
-0.166063
0.0275313
-0.171803
0.0259062
-0.176949
0.0234441
-0.18156
0.0201993
-0.185672
0.0163829
-0.189263
0.0123172
-0.192226
0.00838346
-0.194357
0.00487722
-0.195511
0.00191489
-0.195629
-0.000592049
-0.19474
-0.00282986
-0.192893
-0.00501254
-0.19015
-0.00730391
-0.186506
-0.00984395
-0.181888
-0.0127068
-0.176129
-0.0159768
-0.16903
-0.0198054
-0.0244815
-0.120301
0.0423796
-0.129862
0.0401693
-0.138877
0.0387297
-0.147426
0.0378447
-0.155513
0.0372155
-0.163116
0.0365381
-0.170189
0.0355433
-0.176665
0.0340069
-0.182512
0.0317537
-0.187752
0.0286836
-0.192416
0.0248632
-0.196514
0.0204815
-0.200002
0.0158047
-0.20278
0.0111616
-0.204716
0.00681338
-0.205672
0.00287085
-0.205573
-0.000691039
-0.204409
-0.00399411
-0.202182
-0.0072391
-0.198895
-0.010591
-0.194528
-0.0142114
-0.189028
-0.0182064
-0.182337
-0.0226685
-0.174422
-0.0277203
-0.0336052
-0.127449
0.0533412
-0.137742
0.0504623
-0.147355
0.048342
-0.156368
0.0468586
-0.164819
0.0456659
-0.17271
0.04443
-0.180019
0.0428518
-0.186702
0.0406904
-0.192747
0.0377983
-0.19814
0.0340768
-0.202888
0.0296115
-0.206963
0.0245565
-0.210322
0.0191637
-0.212883
0.0137221
-0.214524
0.00845504
-0.215165
0.00351169
-0.21474
-0.00111594
-0.213193
-0.00554184
-0.210502
-0.00993024
-0.206622
-0.0144705
-0.201517
-0.0193165
-0.195128
-0.0245957
-0.187412
-0.0303846
-0.178361
-0.0367715
-0.0438565
-0.13362
0.065189
-0.144685
0.0615269
-0.154903
0.0585594
-0.164401
0.0563573
-0.173251
0.0545161
-0.181479
0.0526579
-0.189077
0.0504497
-0.196022
0.0476358
-0.202301
0.0440773
-0.207887
0.0396626
-0.212752
0.0344766
-0.216844
0.0286487
-0.2201
0.0224199
-0.222446
0.016068
-0.223815
0.00982339
-0.22414
0.00383658
-0.223366
-0.00188985
-0.221447
-0.0074611
-0.218328
-0.0130494
-0.213965
-0.0188334
-0.208293
-0.0249877
-0.201284
-0.031605
-0.192927
-0.0387418
-0.183306
-0.0463933
-0.0544922
-0.13906
0.0780046
-0.15086
0.0733262
-0.161618
0.0693173
-0.17158
0.0663191
-0.18082
0.0637568
-0.189388
0.0612256
-0.19729
0.0583517
-0.204503
0.054849
-0.211049
0.0506236
-0.216844
0.0454579
-0.221856
0.0394885
-0.22601
0.0328023
-0.229202
0.0256122
-0.231403
0.0182688
-0.232539
0.0109593
-0.23259
0.00388735
-0.231525
-0.00295459
-0.229295
-0.00969203
-0.225835
-0.0165096
-0.221098
-0.0235703
-0.215005
-0.0310812
-0.207534
-0.0390756
-0.19868
-0.0475968
-0.188538
-0.0565351
-0.0656227
-0.144237
0.0916006
-0.156509
0.085599
-0.167619
0.0804272
-0.177952
0.0766525
-0.187541
0.0733453
-0.196433
0.0701177
-0.204622
0.0665412
-0.212095
0.0623215
-0.218883
0.0574124
-0.224886
0.0514607
-0.23008
0.0446818
-0.234292
0.0370144
-0.23749
0.0288103
-0.239636
0.0204144
-0.240598
0.0119216
-0.240477
0.00376569
-0.239215
-0.00421661
-0.236806
-0.0121013
-0.233103
-0.0202127
-0.228102
-0.0285711
-0.221774
-0.0374098
-0.214059
-0.0467904
-0.20497
-0.0566857
-0.194748
-0.0667579
-0.0765258
0.62832
-0.542719
0.211403
0.331366
-1.10078
0.885347
0.215432
0.283895
-0.35764
0.0737441
0.343002
-0.38872
0.0457165
-0.147871
-0.461163
0.609029
-0.406903
0.682758
-0.275855
-0.038621
0.373679
-0.335073
-0.0677514
-0.185687
0.253438
2.51775
-1.50779
-1.00996
-0.727669
1.50999
-0.782324
-0.518845
0.0767154
0.442129
0.823855
-1.47967
0.655813
-0.504162
-0.457286
0.961442
0.136743
-0.137006
0.000262807
0.466915
-0.355724
-0.111321
-0.788013
-0.312766
0.134402
-0.0130352
-0.121366
-0.0618394
0.187505
-0.0507335
0.228582
-0.17785
-0.392372
0.229891
0.16248
0.890602
0.183462
-1.07405
-0.354951
0.740234
-0.385283
1.10603
-0.870748
-0.235284
-0.84203
0.201693
0.640337
0.967493
0.138539
-1.02356
0.420307
0.60325
-0.445273
-0.0552935
0.500566
0.808124
-0.623673
-0.184531
-0.046489
-0.14403
0.190519
0.371264
0.376405
-0.747668
0.655026
-1.25672
0.601705
0.514844
0.417039
-0.931891
0.37804
-1.02485
0.646767
-0.306592
-0.0571466
0.363739
0.514198
0.886589
-1.40078
-0.95004
0.445878
-2.20096
0.556465
1.6445
-0.334345
0.646462
-0.312118
0.320355
0.306945
-0.627238
0.824571
-1.46562