/*--------------------------------*- C++ -*----------------------------------*\
  =========                 |
  \\      /  F ield         | OpenFOAM: The Open Source CFD Toolbox
   \\    /   O peration     | Website:  https://openfoam.org
    \\  /    A nd           | Version:  10
     \\/     M anipulation  |
\*---------------------------------------------------------------------------*/
FoamFile
{
    format      ascii;
    class       volVectorField;
    location    "250";
    object      U;
}
// * * * * * * * * * * * * * * * * * * * * * * * * * * * * * * * * * * * * * //

dimensions      [0 1 -1 0 0 0 0];

internalField   nonuniform List<vector> 
10435
(
(1.16958 0.0296976 2.36297e-23)
(1.16314 0.137332 -1.04504e-21)
(2.34581 -0.347219 -9.88232e-21)
(1.36618 0.0355182 9.82212e-21)
(1.60241 0.276474 -3.95599e-21)
(2.06907 0.173209 2.62813e-20)
(2.39114 -0.349597 -4.35238e-20)
(2.66056 -0.229471 3.48517e-20)
(2.83896 -0.234444 1.40007e-19)
(2.26304 -0.141711 -1.1977e-20)
(1.22152 0.173547 -4.07103e-21)
(1.86401 -0.158416 2.2874e-20)
(2.22394 -0.462397 1.86046e-20)
(0.834266 0.0577784 2.30813e-21)
(0.897207 0.0629731 4.43063e-21)
(2.55994 -0.280598 -4.38889e-21)
(0.772835 0.0514184 -7.7285e-22)
(2.24161 -0.375988 5.31714e-20)
(2.84764 -0.297485 -6.03998e-20)
(1.19851 0.0310829 -1.47917e-21)
(2.59716 -0.266939 2.20549e-20)
(1.37914 -0.0364718 -1.68278e-20)
(2.4888 -0.276465 1.20462e-19)
(2.48292 -0.663098 -3.21375e-20)
(2.29921 -0.175985 1.57758e-20)
(0.226854 0.350399 1.53654e-22)
(0.0732739 -0.0109919 2.6842e-23)
(2.26221 -0.417036 1.52712e-20)
(0.292723 -0.165657 4.00144e-23)
(2.25411 -0.241187 6.70468e-20)
(2.33492 -0.13952 3.08147e-20)
(1.26667 0.205577 -3.44817e-22)
(2.71427 -0.211684 -7.61752e-20)
(0.531653 -0.154862 2.55447e-22)
(2.69529 -0.353714 3.37389e-20)
(1.08457 0.168203 -1.89111e-21)
(2.60601 -0.331927 4.48497e-20)
(0.18551 0.189296 -3.04868e-22)
(0.382293 0.351672 6.30015e-23)
(2.77371 -0.484801 1.74062e-20)
(2.2042 -0.0993444 -5.09631e-20)
(2.40805 -0.327264 -3.28717e-20)
(0.600831 0.236903 3.53602e-22)
(1.26636 0.0571314 -1.42363e-20)
(2.51199 -0.275722 -7.45417e-20)
(2.63882 -0.630541 6.79862e-20)
(2.14611 0.0529773 -3.08251e-20)
(0.464898 0.256884 3.71843e-21)
(2.83649 -0.124514 5.26839e-20)
(1.38619 -0.136596 -7.47141e-21)
(2.66081 -0.254323 -6.20734e-21)
(2.12624 0.0596328 1.69592e-19)
(0.434594 0.363724 3.32656e-22)
(0.377095 -0.245893 7.48944e-24)
(0.328766 0.355247 -1.40172e-22)
(0.237215 -0.191464 -1.2897e-22)
(2.59358 -0.41831 -1.30217e-19)
(0.20551 0.102104 1.13125e-22)
(0.687257 -0.0172875 3.54197e-22)
(2.68741 -0.471087 8.62486e-20)
(0.381538 0.369759 -2.50104e-22)
(1.13934 0.139174 1.65086e-22)
(0.237614 -0.00910028 8.1844e-23)
(1.97645 0.121338 -9.70995e-21)
(2.50903 -0.261475 -1.55266e-19)
(2.3257 -0.327013 6.48737e-20)
(0.640248 -0.04719 -3.13591e-22)
(0.406138 0.0865611 -1.34953e-21)
(2.59622 -0.249856 -4.46274e-20)
(2.28895 -0.664161 2.89767e-21)
(0.326593 -0.256225 -1.16969e-22)
(0.185379 0.303327 1.28392e-22)
(0.658479 0.329005 -3.42904e-21)
(2.37386 -0.290476 -9.52863e-20)
(0.956906 0.0683597 3.73288e-21)
(0.709535 0.254735 -5.87717e-23)
(2.09651 -0.60879 7.9987e-20)
(2.418 -0.333307 1.18774e-19)
(2.74518 -0.173206 1.04492e-20)
(0.994313 0.0137282 -1.56682e-20)
(1.58486 -0.29507 7.56313e-21)
(1.13032 0.0027429 8.29002e-23)
(0.483818 0.37293 -3.81871e-22)
(0.422071 -0.236268 -1.40082e-24)
(1.70963 -0.385458 -1.63109e-20)
(1.07377 0.146879 -4.49773e-21)
(1.13285 0.0911452 6.49797e-22)
(1.25241 0.09306 2.13214e-21)
(0.995951 0.136317 1.67581e-21)
(1.16622 0.086798 -4.60152e-22)
(1.29037 0.100933 -1.70791e-21)
(1.34496 0.107226 -1.95073e-21)
(1.1548 0.00248059 6.85369e-22)
(1.04542 0.121459 -5.11345e-21)
(1.19507 0.0858933 8.18255e-22)
(1.04853 0.192598 -3.72848e-21)
(1.41871 0.0923457 1.79252e-20)
(0.922569 0.122507 -2.79451e-21)
(0.752261 -0.00743396 4.83993e-22)
(1.50539 0.123495 -1.56573e-20)
(0.958095 0.130787 -6.50102e-21)
(1.64345 0.385491 -4.34854e-21)
(1.09194 0.102619 1.16185e-21)
(1.22266 0.0877302 -1.54256e-22)
(1.74946 0.37176 4.69697e-22)
(1.30877 0.0509472 1.11998e-21)
(1.18277 -0.00183998 3.7289e-22)
(1.47788 -0.216041 9.87544e-21)
(1.86765 -0.472314 -2.63123e-20)
(1.041 0.0130778 3.05527e-21)
(1.31357 -0.0796875 -4.0428e-21)
(1.54336 0.380174 -2.41763e-21)
(1.10715 0.00134983 9.72248e-23)
(1.0798 0.00445166 1.33845e-21)
(1.41019 0.146501 -7.81618e-21)
(1.31558 -0.0026226 4.51909e-21)
(1.6044 0.0899618 -8.74352e-21)
(1.11322 0.129322 1.52317e-21)
(1.22595 0.122723 -7.41007e-21)
(1.61258 0.00319894 -2.88241e-21)
(1.70942 0.039968 -3.21062e-20)
(0.727609 0.317273 5.0469e-22)
(1.14542 0.11859 -1.38197e-21)
(0.931386 0.301854 1.19004e-20)
(1.28517 0.288077 1.10241e-21)
(0.305644 0.363961 -3.91738e-22)
(1.51581 0.0470242 1.92989e-20)
(0.794383 0.31943 4.04479e-22)
(1.61846 0.177963 -1.66465e-20)
(0.0788215 0.213896 2.31357e-23)
(0.864367 0.310082 -3.19535e-21)
(1.22469 0.242508 -5.28713e-21)
(2.61744 -0.275676 -5.4271e-20)
(0.941587 0.00689667 -7.30489e-21)
(0.17263 0.253865 4.68715e-23)
(0.621209 0.385072 6.9514e-23)
(1.02394 0.242663 -7.01142e-21)
(1.44232 0.00312155 -1.20073e-21)
(1.19879 0.113772 2.17257e-21)
(1.26752 0.018349 4.69901e-21)
(1.23022 0.0285698 2.93917e-22)
(2.42242 -0.204812 -1.38878e-19)
(0.591042 -0.0807594 1.54817e-21)
(2.04829 -0.034638 1.25061e-19)
(1.46294 -0.0874986 2.57474e-21)
(0.83698 0.200542 -8.58462e-21)
(0.986595 0.277745 4.48761e-21)
(2.01871 0.164157 -4.04432e-20)
(0.73546 0.118155 -2.91614e-21)
(2.05853 -0.13579 8.99122e-21)
(0.403041 0.305491 4.30405e-22)
(2.48706 -0.305908 7.03984e-20)
(1.17463 0.0566672 8.04688e-23)
(2.15507 -0.12953 7.69419e-20)
(2.15633 0.0562542 -3.60304e-20)
(0.33121 0.350272 -1.91171e-22)
(1.35632 0.328606 7.05839e-21)
(1.17302 0.113042 9.79873e-22)
(2.22184 -0.0281878 -3.43525e-20)
(1.14226 0.171155 -5.83192e-22)
(2.31557 -0.216272 -1.76529e-20)
(0.883629 -0.000762787 1.57444e-21)
(1.3132 0.160114 1.13999e-20)
(1.81458 -0.277702 1.34596e-20)
(1.01379 0.0612167 -6.29547e-21)
(1.74357 0.113035 7.70231e-20)
(2.76264 -0.23214 -1.23882e-19)
(1.64237 -0.0970973 -1.06394e-20)
(2.08802 -0.401888 3.04443e-20)
(1.92908 0.0753642 -1.85134e-19)
(2.26539 -0.0945024 4.30404e-20)
(0.620608 0.368996 -1.7723e-22)
(0.0748477 -0.0870073 -1.59094e-22)
(0.888682 0.19204 -4.06735e-22)
(2.13235 -0.265662 -3.95487e-20)
(1.1165 0.161428 -5.82834e-22)
(1.11425 0.150283 8.50942e-22)
(0.579135 0.129763 -1.2355e-21)
(1.25927 -0.0381815 1.89276e-21)
(0.348773 -0.131865 -4.72557e-23)
(1.18892 0.148234 2.10834e-21)
(1.97307 0.261304 -3.46581e-21)
(1.95889 -0.135708 -7.90028e-20)
(0.36255 0.377324 -8.7292e-23)
(2.38358 -0.211554 1.77789e-20)
(0.546937 0.295258 -8.43128e-22)
(0.670027 0.289995 3.65762e-21)
(2.47736 -0.307774 -1.0744e-19)
(1.70006 0.270482 6.22139e-21)
(2.10291 0.00897515 -1.0254e-19)
(1.79707 -0.0399517 7.5914e-21)
(0.523815 0.381599 -3.15069e-22)
(0.104224 0.257285 5.74817e-23)
(1.05151 0.210916 1.80446e-21)
(1.44295 0.363282 3.51198e-21)
(2.53771 -0.275892 5.77878e-21)
(0.704926 0.191257 -5.2087e-21)
(1.02724 0.170073 5.07745e-21)
(0.520074 0.191019 -4.95422e-21)
(2.59118 -0.291201 6.7347e-20)
(1.003 0.0992771 7.57388e-21)
(0.253865 0.226616 4.914e-22)
(2.25032 -0.429855 -4.30973e-21)
(0.250719 0.171687 9.77645e-22)
(2.28546 -0.381895 -1.84532e-20)
(1.4101 0.205992 2.78358e-22)
(1.25951 0.140149 9.8152e-21)
(1.53856 -0.0456819 -7.13179e-21)
(0.319299 -0.0350221 -8.4114e-23)
(1.56572 -0.150445 -6.85302e-21)
(0.448971 0.352428 -2.17605e-22)
(2.44044 -0.291901 -1.7017e-19)
(1.87051 -0.00280474 1.10586e-19)
(1.9349 -0.290782 1.22505e-20)
(0.122917 -0.036959 1.32353e-22)
(0.798254 0.123569 8.89461e-21)
(1.06806 0.0393793 -1.07458e-21)
(0.475985 0.395935 1.68912e-22)
(0.208388 0.339337 -5.52576e-22)
(0.824033 -0.00666088 -1.96142e-22)
(0.395408 -0.165871 -7.2353e-23)
(0.637421 0.0699289 -1.73721e-21)
(0.515659 -0.0487647 -5.03099e-22)
(0.901328 0.239587 1.72436e-20)
(0.268227 0.353732 -2.84436e-22)
(2.6628 -0.296109 -2.30192e-20)
(0.263244 0.345312 1.39729e-21)
(0.975822 0.185768 -3.80426e-21)
(2.23322 -0.0650781 1.48919e-19)
(0.779313 0.262159 4.83623e-21)
(0.531293 0.0848734 8.707e-22)
(2.72 -0.271123 1.2192e-19)
(0.236377 0.345021 1.57125e-21)
(2.41099 -0.351576 6.42608e-20)
(0.0783833 0.124999 1.66343e-22)
(0.703345 0.0506197 3.1226e-21)
(2.4923 -0.502314 -8.68109e-20)
(0.227889 0.343234 1.60002e-22)
(2.34054 -0.520197 -3.70135e-21)
(2.31309 -0.128936 1.26641e-21)
(1.2334 0.0586261 4.01949e-21)
(0.316996 0.376203 -3.93871e-23)
(0.501113 0.398115 2.35827e-22)
(0.286225 -0.215418 2.74111e-23)
(1.35468 0.184295 -2.04922e-20)
(2.79915 -0.188091 4.66168e-20)
(1.00551 0.221722 1.82621e-20)
(2.53219 -0.259657 3.86219e-20)
(0.156103 -0.179286 -3.2984e-22)
(1.09483 0.167481 4.46596e-22)
(0.215448 -0.232229 -5.41125e-22)
(1.05834 0.0791046 4.39373e-21)
(2.25562 -0.384526 -2.77493e-20)
(1.6813 -0.217117 -1.19299e-20)
(2.47583 -0.298126 -1.0225e-19)
(1.79919 0.175179 3.30442e-20)
(0.166091 -0.210891 1.22448e-21)
(2.43063 -0.319245 1.36524e-19)
(0.407715 0.376619 9.59731e-23)
(0.340953 0.246096 -2.51528e-21)
(2.3894 -0.34455 6.03408e-21)
(2.23317 -0.0443671 1.82439e-21)
(0.276289 0.364684 -5.991e-23)
(2.00104 -0.479525 -4.79046e-20)
(1.10806 0.0284661 6.23821e-23)
(0.61408 0.0301569 -5.39594e-22)
(1.20394 0.0578557 5.43503e-22)
(2.4197 -0.219915 7.46221e-20)
(0.458975 0.389448 2.56548e-22)
(1.49707 0.20268 2.80414e-21)
(2.35885 -0.366171 9.25115e-24)
(2.5833 -0.217033 -2.23771e-20)
(2.50505 -0.270873 -1.44039e-20)
(2.30569 -0.260442 -6.77475e-20)
(0.17792 0.332285 7.99401e-22)
(1.71002 -0.0373782 -1.48751e-20)
(0.136954 0.20387 -4.85029e-24)
(1.47902 0.284425 1.64425e-21)
(2.54385 -0.28674 3.13202e-20)
(2.63738 -0.185321 9.19487e-21)
(2.27137 -0.29658 3.10716e-20)
(0.635883 0.172399 6.61524e-21)
(2.32254 -0.386336 -3.02825e-21)
(0.934475 0.189402 2.67244e-21)
(1.10313 0.0636344 5.79987e-22)
(0.538058 0.392906 1.34177e-22)
(1.80997 0.251253 4.68473e-21)
(0.299169 0.336234 3.25651e-22)
(0.468267 -0.222082 -1.54533e-22)
(0.461563 -0.153683 1.08954e-22)
(0.95084 0.241341 -1.77238e-20)
(1.17673 0.201286 6.00592e-21)
(0.393502 -0.0758219 5.39651e-23)
(2.54299 -0.241437 4.26303e-20)
(0.353181 0.324132 3.01569e-22)
(0.286288 -0.244568 -1.19703e-21)
(0.778333 0.197528 8.79275e-22)
(1.14077 0.0272408 2.15843e-22)
(1.38912 0.267774 -1.52803e-22)
(2.35712 -0.183852 3.90744e-20)
(0.462292 0.144616 -1.18495e-21)
(2.19912 -0.495882 -1.23025e-20)
(2.28558 -0.402211 -8.65517e-22)
(0.120957 -0.14278 -6.37389e-22)
(1.32046 0.242599 -3.49667e-21)
(0.859673 0.126266 -5.67798e-21)
(0.673401 0.107419 -1.61705e-21)
(2.3103 -0.375137 -4.95254e-21)
(2.35577 -0.248597 -6.48146e-22)
(0.511672 -0.209814 6.01863e-23)
(1.2166 -0.0131982 1.4872e-21)
(0.24431 0.27954 9.04583e-22)
(1.0747 0.18517 -1.6136e-22)
(1.90241 0.223061 -1.42094e-20)
(2.8167 -0.285711 -2.49211e-20)
(0.249502 -0.242039 -2.54406e-22)
(0.384968 0.389561 3.93805e-23)
(2.21092 -0.0987882 -1.6827e-19)
(0.482457 0.0392064 1.8092e-22)
(1.75524 -0.141265 1.39136e-20)
(1.85278 0.33266 -3.59724e-21)
(0.224114 -0.0750954 -1.68534e-22)
(1.14214 0.0569112 -1.91903e-22)
(0.560242 0.38704 3.70666e-23)
(2.69613 -0.16098 -5.4015e-21)
(2.27317 -0.378903 -1.44408e-20)
(0.150214 0.322632 3.33905e-22)
(2.261 -0.417012 -8.12702e-23)
(0.560767 -0.00347054 3.58213e-22)
(0.137546 0.117709 -4.68594e-24)
(2.79519 -0.398632 -3.82774e-21)
(0.535116 -0.112227 -1.02144e-22)
(0.547732 -0.197143 1.07057e-22)
(2.33726 -0.373886 2.83256e-21)
(2.23454 -0.251055 3.93348e-20)
(0.286155 0.0639994 -4.46058e-23)
(0.241024 -0.236909 -4.28107e-22)
(0.167617 -0.201134 -2.87563e-22)
(0.586463 -0.161738 7.14457e-23)
(0.114101 -0.117033 2.5029e-23)
(0.125173 0.305882 -1.00755e-21)
(0.249083 0.328832 1.72995e-23)
(0.426802 0.377492 1.51419e-22)
(0.0637754 -0.0681305 5.65353e-22)
(0.0898063 -0.106919 -1.08666e-21)
(0.326981 0.312658 -2.10058e-23)
(0.360134 0.0270003 7.71632e-23)
(0.0286009 0.0756636 1.44734e-22)
(0.591317 0.387772 1.96578e-22)
(2.75829 -0.141533 -3.2852e-20)
(0.572582 -0.181352 2.57061e-22)
(2.29301 -0.319632 2.3208e-21)
(0.0432223 -0.0348121 -1.49551e-22)
(2.24466 -0.430364 -2.92256e-22)
(2.72811 -0.138089 1.44177e-20)
(2.79463 -0.0778745 -1.37022e-20)
(2.16947 -0.49636 -8.09961e-22)
(2.41472 -0.258317 -5.69822e-20)
(0.330774 -0.232192 1.21779e-22)
(0.483508 -0.190808 -2.62102e-22)
(0.199492 -0.216953 -5.78194e-23)
(0.258311 0.354118 -3.56217e-22)
(0.160544 -0.142524 -1.11692e-24)
(0.501402 0.394943 -1.10552e-22)
(0.167858 -0.0756669 1.54626e-22)
(0.106165 0.283348 -4.14583e-22)
(0.334 0.138687 7.05805e-22)
(2.03289 -0.275119 -4.03197e-21)
(0.124378 0.289694 -1.59502e-22)
(2.80424 -0.13174 3.92358e-20)
(0.287714 0.3534 -1.71007e-22)
(0.0912071 0.25155 7.55973e-22)
(2.14115 -0.513766 -7.6786e-21)
(2.78008 -0.0580682 -4.7393e-20)
(0.564297 0.39539 -5.38088e-22)
(0.0311687 0.00794864 -4.53088e-22)
(0.166175 0.0152142 -4.43944e-22)
(0.0525695 0.0437658 1.0855e-22)
(0.430845 -0.20259 1.55669e-22)
(0.190374 0.339931 -7.02325e-23)
(0.023392 0.0453045 6.08111e-22)
(0.335715 0.361694 2.073e-22)
(2.69879 -0.185727 -8.34044e-21)
(0.43376 -0.0132015 -6.29711e-24)
(2.58233 -0.233371 4.64181e-21)
(2.76105 -0.112795 5.40645e-20)
(2.22769 -0.446661 -3.04294e-22)
(2.20457 -0.472015 1.62578e-20)
(2.78807 -0.0979696 -2.49274e-20)
(2.27218 -0.408375 -5.46994e-21)
(2.76505 -0.321915 -2.68913e-20)
(0.846997 0.264273 -3.77603e-22)
(0.535721 0.351922 8.93113e-22)
(0.336741 -0.196304 1.31419e-22)
(0.279293 -0.245169 -1.03969e-22)
(2.29611 -0.392357 8.52802e-21)
(0.378114 -0.220673 -3.24889e-22)
(2.17234 -0.514937 -3.34174e-20)
(0.0312297 0.0742466 -6.26376e-23)
(0.284711 -0.0993917 -3.63465e-23)
(0.0692998 0.207125 -1.54271e-22)
(0.466561 -0.0967497 -1.54075e-22)
(0.409401 0.393795 -2.55409e-22)
(2.47504 -0.295931 1.56739e-19)
(0.109407 0.0440947 2.26289e-22)
(2.6398 -0.208885 2.00651e-21)
(2.19597 -0.389443 -1.6696e-20)
(0.531251 0.384533 -9.08019e-23)
(0.159643 0.325444 1.39607e-23)
(0.0627866 0.121101 2.94723e-22)
(2.83191 -0.114562 6.86198e-20)
(0.069603 0.168995 -4.88119e-22)
(0.138978 0.308989 9.06835e-23)
(0.335165 0.370723 3.9405e-22)
(0.201945 -0.165109 3.88273e-23)
(0.392617 0.20056 -3.47108e-22)
(0.207972 -0.114724 4.2555e-23)
(2.29889 -0.382488 4.365e-20)
(0.27304 -0.254916 -2.47412e-23)
(0.189174 0.320744 -6.97344e-23)
(0.249644 -0.134319 -8.88471e-23)
(0.608225 -0.117755 -8.43808e-22)
(2.1727 -0.542684 -2.00585e-20)
(0.611243 0.388739 -1.05771e-21)
(0.624447 0.386522 1.45761e-21)
(2.74766 -0.0553174 -9.63883e-20)
(0.529265 -0.181496 -1.23669e-22)
(0.512282 -0.446079 1.02401e-21)
(0.565769 -0.451259 -6.45511e-23)
(0.635273 -0.447416 -9.11531e-22)
(0.685083 -0.438969 5.42283e-22)
(0.728343 -0.426455 -5.78332e-22)
(0.760946 -0.413228 -1.01349e-21)
(0.788782 -0.399317 1.79421e-22)
(0.810422 -0.385061 1.48245e-22)
(0.830517 -0.367889 1.57849e-22)
(0.560267 -0.430606 -1.3249e-21)
(0.612133 -0.439185 -1.38585e-22)
(0.678059 -0.438673 6.81773e-22)
(0.724033 -0.434806 -1.24132e-21)
(0.761823 -0.425108 7.58836e-22)
(0.79044 -0.414142 1.04399e-21)
(0.81377 -0.402231 -5.54166e-22)
(0.831603 -0.390113 6.70559e-22)
(0.845673 -0.376075 -2.61601e-22)
(0.606157 -0.413671 2.34104e-21)
(0.655286 -0.421798 5.98486e-22)
(0.718882 -0.422753 -1.23737e-21)
(0.761897 -0.421682 4.92602e-22)
(0.795741 -0.414604 -1.27981e-21)
(0.820833 -0.405896 -1.50539e-22)
(0.840474 -0.396082 -2.43118e-23)
(0.85508 -0.386025 -2.80332e-22)
(0.865752 -0.374949 -3.7357e-22)
(0.649884 -0.394078 -1.31541e-21)
(0.696157 -0.399815 2.39604e-22)
(0.757261 -0.401249 8.01783e-22)
(0.797683 -0.401859 -1.36893e-23)
(0.828351 -0.397019 4.34211e-22)
(0.850479 -0.390409 1.17617e-21)
(0.867088 -0.382498 -6.42612e-22)
(0.879032 -0.37414 1.17487e-22)
(0.8874 -0.365056 9.08868e-23)
(0.692094 -0.370228 -4.35228e-25)
(0.734763 -0.373202 -1.2572e-22)
(0.792632 -0.37492 3.08086e-23)
(0.830494 -0.37672 -2.88597e-22)
(0.858459 -0.37393 1.1515e-22)
(0.878167 -0.369294 -2.29192e-22)
(0.89244 -0.363191 7.61275e-23)
(0.902418 -0.356404 3.09843e-22)
(0.909339 -0.348821 7.26324e-23)
(0.732383 -0.342039 1.14562e-22)
(0.770297 -0.34235 -2.82594e-22)
(0.824189 -0.344579 7.17849e-23)
(0.859484 -0.347508 4.84825e-22)
(0.885153 -0.346732 -1.35307e-22)
(0.902968 -0.344026 -1.68719e-22)
(0.915504 -0.339714 -7.0294e-23)
(0.924042 -0.334489 -4.36912e-22)
(0.929749 -0.328614 2.41008e-22)
(0.769832 -0.309589 2.31774e-22)
(0.801734 -0.307992 2.63851e-22)
(0.851103 -0.311211 6.12153e-23)
(0.883942 -0.315408 -2.02799e-22)
(0.907766 -0.316692 3.70682e-23)
(0.924218 -0.315902 -1.2403e-23)
(0.935567 -0.313358 1.02411e-22)
(0.943102 -0.30966 -1.17635e-22)
(0.947957 -0.305312 -8.37114e-23)
(0.803374 -0.273393 -2.02325e-22)
(0.82798 -0.271042 4.67718e-24)
(0.872659 -0.27594 1.25814e-23)
(0.903371 -0.281543 -7.63108e-24)
(0.925877 -0.284923 -4.14887e-23)
(0.941512 -0.286027 1.4895e-22)
(0.952193 -0.285234 1.626e-22)
(0.959125 -0.283072 -1.73691e-22)
(0.96342 -0.279869 5.24933e-23)
(0.83086 -0.236057 -2.24238e-24)
(0.848139 -0.232901 -3.45836e-23)
(0.888466 -0.240057 -6.89426e-24)
(0.917585 -0.246919 -2.1159e-24)
(0.939343 -0.252303 -1.16447e-23)
(0.954697 -0.255207 -1.13563e-24)
(0.965212 -0.256103 1.21746e-25)
(0.971995 -0.255331 1.44088e-22)
(0.975916 -0.253538 -1.27876e-23)
(0.849409 -0.19918 -2.13577e-23)
(0.862286 -0.194543 7.29203e-23)
(0.898803 -0.204408 3.89705e-23)
(0.926801 -0.212158 3.05375e-23)
(0.94829 -0.219335 -9.32266e-24)
(0.963839 -0.223873 3.25116e-24)
(0.974664 -0.226359 6.89035e-24)
(0.981737 -0.226944 2.35282e-23)
(0.985866 -0.226197 -2.15024e-23)
(0.857497 -0.160432 1.12625e-22)
(0.870985 -0.155129 3.21438e-25)
(0.904152 -0.168651 -5.01298e-23)
(0.931378 -0.177211 -2.45969e-23)
(0.952968 -0.186001 6.10044e-26)
(0.969106 -0.191973 1.78875e-23)
(0.980655 -0.195929 8.30029e-24)
(0.988456 -0.197832 6.28025e-24)
(0.993188 -0.198246 -2.6912e-23)
(0.85626 -0.117488 -2.25779e-22)
(0.873962 -0.113828 -3.88913e-23)
(0.904347 -0.132175 8.16276e-23)
(0.931432 -0.141719 -2.17799e-23)
(0.953563 -0.151895 3.74111e-24)
(0.970638 -0.159012 -4.86979e-23)
(0.983225 -0.164215 1.6067e-24)
(0.99203 -0.167336 3.28221e-23)
(0.997686 -0.169294 8.5867e-24)
(0.846537 -0.0717571 -7.30713e-23)
(0.869558 -0.0723197 1.25129e-23)
(0.899114 -0.0951472 4.21286e-24)
(0.927079 -0.105454 -1.27948e-23)
(0.95028 -0.116422 1.01551e-23)
(0.968595 -0.124157 1.27401e-23)
(0.98244 -0.130125 2.16273e-23)
(0.992456 -0.134186 -3.62899e-23)
(0.999498 -0.136823 2.16662e-23)
(0.826725 -0.0261956 1.03552e-22)
(0.857092 -0.0317141 -1.12289e-23)
(0.888923 -0.0572778 3.6608e-24)
(0.918725 -0.0678206 -1.33101e-23)
(0.943413 -0.0787692 2.90285e-24)
(0.963153 -0.0864882 2.31005e-24)
(0.978363 -0.0926176 1.6525e-23)
(0.989672 -0.0970552 -2.79939e-24)
(0.997694 -0.0998103 -1.49926e-23)
(0.797137 0.0184159 -2.91022e-22)
(0.83774 0.00911967 7.83597e-23)
(0.874192 -0.0172984 -3.2793e-23)
(0.906546 -0.0277166 3.81503e-23)
(0.933022 -0.0380496 -7.3042e-24)
(0.954287 -0.0452954 -2.42044e-23)
(0.970916 -0.0511082 -1.82274e-23)
(0.983649 -0.0553812 -2.65554e-23)
(0.993247 -0.0581659 8.8458e-23)
(0.760355 0.0625567 -2.7464e-22)
(0.812064 0.0510447 -1.42698e-22)
(0.85469 0.0257676 5.01859e-23)
(0.890163 0.0156484 -4.39681e-23)
(0.918701 0.00614593 -2.71296e-23)
(0.941606 -0.000516837 1.70063e-23)
(0.959702 -0.00585221 1.59099e-24)
(0.973815 -0.00976521 -7.39621e-23)
(0.984652 -0.0125605 4.11393e-23)
(0.716615 0.108129 -5.62134e-22)
(0.78013 0.0951894 5.05524e-23)
(0.829805 0.0723287 5.77806e-24)
(0.868759 0.0623301 2.74723e-23)
(0.899656 0.0534461 4.44003e-23)
(0.924409 0.0471485 -2.19468e-22)
(0.944128 0.0421422 1.54265e-22)
(0.959721 0.0385349 5.30734e-23)
(0.972156 0.0355569 -2.18731e-23)
(0.671949 0.153939 9.00869e-22)
(0.740857 0.141397 -3.95917e-23)
(0.798244 0.121235 5.0745e-23)
(0.841219 0.111191 -6.80419e-23)
(0.874952 0.102582 -1.32581e-23)
(0.901922 0.0963695 2.10767e-22)
(0.923546 0.0914559 -2.42043e-23)
(0.94085 0.0878575 1.01511e-22)
(0.955029 0.0850161 1.10644e-22)
(0.630062 0.195348 2.13273e-22)
(0.697656 0.184971 -4.47127e-24)
(0.760267 0.168971 7.57837e-23)
(0.807281 0.159564 2.41058e-22)
(0.844178 0.151448 -5.82297e-23)
(0.873696 0.145365 -1.19342e-22)
(0.897488 0.140464 -1.34395e-22)
(0.916717 0.136648 -1.63993e-22)
(0.932687 0.133603 5.26303e-23)
(0.58946 0.230791 -1.61245e-22)
(0.65269 0.223204 2.50776e-23)
(0.717786 0.212512 -3.08334e-22)
(0.76793 0.204945 3.41522e-23)
(0.807782 0.198007 -1.42833e-22)
(0.839871 0.192477 9.79369e-23)
(0.865904 0.187832 6.59466e-22)
(0.887066 0.183996 1.04866e-22)
(0.904574 0.180753 4.2043e-23)
(0.549718 0.261534 -2.91479e-22)
(0.607256 0.25621 6.53257e-22)
(0.672638 0.250704 -3.55886e-22)
(0.72455 0.245853 3.21366e-22)
(0.766711 0.240781 -2.45519e-22)
(0.801062 0.236351 3.7115e-23)
(0.829221 0.23232 -2.52812e-22)
(0.85239 0.228638 -2.29718e-22)
(0.871813 0.225578 4.82776e-23)
(0.510498 0.28786 -7.20977e-22)
(0.561531 0.284137 -4.23557e-22)
(0.626053 0.282973 1.03284e-21)
(0.678436 0.281462 -1.3625e-22)
(0.722055 0.278839 7.50923e-22)
(0.758073 0.276078 -2.46629e-22)
(0.787949 0.273101 -7.21827e-23)
(0.812899 0.269826 9.92191e-23)
(0.833454 0.267635 -4.37628e-23)
(0.473211 0.307514 6.18889e-22)
(0.516369 0.306392 2.81369e-22)
(0.579485 0.308854 -6.48638e-22)
(0.631065 0.311445 -5.74073e-22)
(0.675129 0.311768 -5.62977e-22)
(0.712006 0.311126 8.59011e-23)
(0.742993 0.309522 1.06134e-22)
(0.769286 0.306992 -3.79705e-22)
(0.790875 0.305516 1.03077e-21)
(0.437998 0.31687 1.55224e-22)
(0.473183 0.322434 1.40084e-23)
(0.533862 0.328396 2.4391e-22)
(0.583177 0.335657 -2.98465e-22)
(0.626537 0.339218 4.95735e-22)
(0.663477 0.341008 1.45928e-22)
(0.695102 0.341025 -6.52939e-22)
(0.722723 0.3395 7.15124e-22)
(0.745099 0.340521 -3.97121e-22)
(0.400523 0.31993 -2.67982e-22)
(0.433471 0.33792 3.94077e-23)
(0.491368 0.34768 6.17114e-23)
(0.537935 0.357797 1.93872e-22)
(0.579426 0.363396 -1.13199e-22)
(0.615137 0.36636 2.59968e-22)
(0.64637 0.36647 -1.64545e-22)
(0.675494 0.36349 4.1715e-22)
(0.701601 0.366023 -3.50977e-23)
(0.526705 0.507974 -5.41489e-22)
(0.518582 0.508633 -5.83676e-22)
(0.508764 0.509745 -1.46981e-21)
(0.497176 0.511602 2.12298e-21)
(0.483618 0.514166 -1.55927e-21)
(0.468252 0.517406 1.16041e-21)
(0.451633 0.520945 3.86291e-22)
(0.434817 0.523897 -1.47565e-22)
(0.419025 0.525046 -7.24864e-22)
(0.404873 0.523366 -2.97919e-22)
(0.392115 0.518106 2.89727e-22)
(0.379942 0.509301 -3.33033e-22)
(0.367444 0.497146 8.02651e-22)
(0.353903 0.481591 -2.01163e-21)
(0.338799 0.462718 3.4871e-21)
(0.321859 0.440599 -4.00167e-21)
(0.303041 0.415285 3.73408e-21)
(0.282508 0.386829 -1.55456e-21)
(0.2606 0.355323 -6.20631e-22)
(0.237783 0.320938 6.24959e-22)
(0.214586 0.283981 -2.33891e-22)
(0.191254 0.244737 5.01446e-22)
(0.167621 0.204462 8.99998e-23)
(0.143672 0.164591 -8.22113e-22)
(0.11941 0.125872 6.07743e-22)
(0.0946571 0.0897967 -3.98816e-22)
(0.0732706 0.0566254 4.46378e-22)
(0.0593665 0.0246198 3.64241e-22)
(0.0527447 -0.00695232 -4.09735e-22)
(0.0533445 -0.0381708 1.12339e-23)
(0.06078 -0.0696914 -3.94676e-22)
(0.0713972 -0.102109 3.35066e-22)
(0.0827874 -0.135095 7.06161e-22)
(0.0955108 -0.16787 -5.45784e-22)
(0.109689 -0.200282 8.58782e-22)
(0.125126 -0.231857 -1.38671e-21)
(0.142487 -0.261931 8.98964e-23)
(0.162123 -0.290272 3.08666e-22)
(0.183378 -0.31682 -4.54885e-22)
(0.205509 -0.341483 9.97578e-22)
(0.227764 -0.364172 -5.40312e-22)
(0.249451 -0.384806 -2.21653e-21)
(0.269994 -0.403299 4.26618e-21)
(0.289013 -0.419591 -4.33893e-21)
(0.30635 -0.433655 3.60841e-21)
(0.322051 -0.445469 -2.0633e-21)
(0.336344 -0.455034 1.02809e-21)
(0.349582 -0.462409 -3.48961e-22)
(0.36214 -0.46769 3.32733e-22)
(0.374355 -0.471058 -3.43338e-22)
(0.386445 -0.472756 -5.21033e-22)
(0.398651 -0.472952 -1.94374e-22)
(0.411215 -0.471826 2.36488e-22)
(0.424045 -0.469712 7.04656e-22)
(0.436848 -0.466992 -1.06567e-21)
(0.449366 -0.463968 1.41458e-21)
(0.46141 -0.460841 -9.31151e-22)
(0.472895 -0.45779 -3.86001e-22)
(0.483718 -0.454854 -3.26621e-22)
(0.548542 0.471981 -7.79412e-23)
(0.540313 0.470534 -1.67164e-23)
(0.530921 0.468856 -1.82098e-22)
(0.520153 0.467023 8.49666e-23)
(0.507552 0.464762 -1.91714e-22)
(0.49293 0.461812 2.09766e-22)
(0.476384 0.457625 -2.02546e-23)
(0.458439 0.451437 2.20606e-22)
(0.439978 0.442564 -7.28802e-22)
(0.421844 0.430458 -4.41767e-23)
(0.404258 0.415539 3.41417e-22)
(0.38695 0.398623 3.72013e-22)
(0.369734 0.380069 -1.0894e-21)
(0.352517 0.360279 1.24811e-21)
(0.335213 0.339516 -1.36549e-21)
(0.317789 0.317923 4.55156e-22)
(0.300287 0.295547 9.50194e-22)
(0.282812 0.272379 -5.21767e-22)
(0.265485 0.248407 -1.93192e-22)
(0.248403 0.223716 3.20202e-23)
(0.23144 0.19829 -1.43368e-23)
(0.213947 0.172689 4.71908e-22)
(0.195315 0.147311 -2.3918e-22)
(0.175883 0.121537 -4.3701e-23)
(0.156552 0.0945275 7.35232e-23)
(0.13873 0.0653735 -1.44848e-23)
(0.124905 0.0333326 -1.69304e-24)
(0.116185 -0.00125815 3.78754e-23)
(0.112357 -0.037054 2.61257e-23)
(0.113112 -0.0731385 -2.59197e-24)
(0.118272 -0.108427 -4.98195e-23)
(0.127125 -0.142197 4.05893e-24)
(0.1385 -0.174461 -1.44202e-23)
(0.151974 -0.205253 1.41118e-23)
(0.167268 -0.234388 -1.26419e-22)
(0.183974 -0.261752 6.34446e-23)
(0.201794 -0.287105 -9.75731e-24)
(0.220378 -0.310125 -5.23854e-23)
(0.239175 -0.330623 3.61605e-24)
(0.257634 -0.34865 -3.42234e-23)
(0.275339 -0.364416 -3.27228e-23)
(0.29207 -0.37824 1.62377e-23)
(0.307809 -0.390473 -1.31747e-22)
(0.322693 -0.40144 -8.75098e-23)
(0.336965 -0.41139 1.16978e-22)
(0.35092 -0.420471 -1.10062e-22)
(0.364857 -0.428723 5.06923e-23)
(0.379033 -0.436092 1.94213e-23)
(0.393636 -0.44247 -1.00428e-22)
(0.408739 -0.44775 2.59791e-25)
(0.424303 -0.451881 2.71242e-22)
(0.440171 -0.454869 -3.38791e-23)
(0.456058 -0.456806 1.56246e-22)
(0.471614 -0.457849 -5.91066e-22)
(0.486519 -0.458193 3.63905e-23)
(0.500532 -0.458017 2.21174e-22)
(0.513572 -0.457407 -1.82539e-22)
(0.525708 -0.456428 3.23319e-23)
(0.536844 -0.455256 -4.03705e-23)
(0.605341 0.455687 -5.43149e-22)
(0.598927 0.451713 1.77937e-22)
(0.592021 0.446772 -3.09605e-22)
(0.5846 0.441019 6.38343e-23)
(0.576283 0.434214 1.12977e-21)
(0.566843 0.426236 -3.47597e-22)
(0.556125 0.41689 -4.85525e-22)
(0.544104 0.405976 4.22912e-23)
(0.53088 0.393365 2.60107e-22)
(0.516588 0.379109 -5.93674e-23)
(0.501353 0.363479 6.89254e-22)
(0.485324 0.346598 -8.57371e-22)
(0.468654 0.328611 8.18967e-22)
(0.451451 0.309674 -7.56578e-23)
(0.433788 0.28994 -8.30685e-22)
(0.415738 0.269546 2.28707e-22)
(0.39738 0.248615 1.07561e-21)
(0.378796 0.227267 -3.02842e-22)
(0.360049 0.205629 -7.11592e-23)
(0.341143 0.183835 6.61153e-23)
(0.321952 0.161982 -2.38022e-22)
(0.302344 0.140079 5.50336e-23)
(0.282621 0.117528 -7.39939e-22)
(0.263464 0.0936192 8.15913e-22)
(0.245625 0.0678046 -3.07313e-22)
(0.229949 0.0397594 1.08293e-23)
(0.217619 0.00951975 4.78531e-23)
(0.209526 -0.0223076 -2.24635e-22)
(0.205908 -0.0549635 1.30091e-22)
(0.20667 -0.0877743 7.41461e-23)
(0.211387 -0.120054 1.76697e-22)
(0.21925 -0.151202 -1.69972e-22)
(0.22938 -0.180896 7.66703e-23)
(0.241138 -0.208966 1.0523e-22)
(0.254006 -0.23524 -3.45976e-22)
(0.267551 -0.259586 9.48726e-22)
(0.281459 -0.281905 -5.78906e-22)
(0.295488 -0.302124 -1.16641e-22)
(0.309453 -0.32025 -1.47179e-22)
(0.323275 -0.336395 -4.54393e-23)
(0.336989 -0.350743 -1.95752e-22)
(0.350712 -0.363524 -3.24308e-22)
(0.364598 -0.374967 7.72444e-22)
(0.378799 -0.385281 3.2664e-22)
(0.393443 -0.394631 -7.0546e-22)
(0.408619 -0.403122 -1.95775e-22)
(0.424378 -0.410802 7.31424e-22)
(0.440725 -0.41766 -8.51237e-22)
(0.457622 -0.423649 6.29436e-22)
(0.47497 -0.428715 -2.4613e-23)
(0.492592 -0.432841 2.96568e-22)
(0.510222 -0.436069 1.08777e-22)
(0.527521 -0.438522 -4.99949e-22)
(0.54413 -0.440373 -3.20144e-22)
(0.55973 -0.441813 9.53912e-22)
(0.5741 -0.443001 6.34566e-23)
(0.58712 -0.444041 -2.35869e-22)
(0.598796 -0.445038 1.2732e-22)
(0.609162 -0.445982 -3.32213e-22)
(0.636544 0.423103 -5.99766e-23)
(0.630727 0.417761 5.32097e-22)
(0.624816 0.41127 -2.26373e-22)
(0.618763 0.403712 7.84606e-23)
(0.612273 0.394976 -6.52429e-23)
(0.605098 0.385096 4.40521e-23)
(0.596951 0.374139 6.05597e-23)
(0.587583 0.362187 2.33309e-22)
(0.576842 0.349318 -9.84852e-23)
(0.564684 0.335603 -1.48699e-22)
(0.551148 0.321093 -1.55191e-22)
(0.536315 0.305834 3.53126e-22)
(0.520292 0.289885 -2.97362e-22)
(0.503192 0.273309 5.28437e-24)
(0.48514 0.256167 -3.93594e-23)
(0.466285 0.238505 4.36153e-23)
(0.446793 0.22035 -1.10444e-23)
(0.426855 0.20171 -2.05848e-23)
(0.406679 0.182566 -9.42891e-23)
(0.386477 0.162859 1.97022e-23)
(0.36646 0.142457 -3.66459e-24)
(0.346887 0.121116 -2.31529e-22)
(0.32813 0.0985019 1.06996e-22)
(0.310683 0.0743313 1.73645e-22)
(0.295104 0.048434 -1.21534e-22)
(0.28201 0.0207641 1.31295e-23)
(0.272039 -0.00851109 1.52502e-22)
(0.265618 -0.0389446 -1.67605e-22)
(0.262854 -0.0699483 5.44683e-23)
(0.263609 -0.100903 -1.52416e-23)
(0.267528 -0.131202 7.12966e-23)
(0.274068 -0.160332 -1.6038e-22)
(0.282591 -0.187941 1.10315e-22)
(0.292509 -0.213812 -4.35007e-24)
(0.303316 -0.237817 -1.22101e-22)
(0.31462 -0.259915 2.51859e-23)
(0.326183 -0.280133 1.38064e-22)
(0.337924 -0.298551 -2.94784e-23)
(0.349896 -0.315285 -6.24267e-23)
(0.362251 -0.330474 9.78445e-23)
(0.375183 -0.344256 -1.04052e-23)
(0.388883 -0.356755 -2.55433e-23)
(0.403495 -0.368074 1.47301e-22)
(0.419097 -0.378293 -1.19512e-22)
(0.43569 -0.387477 4.80847e-23)
(0.453211 -0.395665 3.8063e-23)
(0.471536 -0.402877 -4.12269e-23)
(0.4905 -0.409113 6.48364e-23)
(0.509903 -0.41436 -9.90915e-24)
(0.529499 -0.418615 -3.33282e-23)
(0.548983 -0.421919 2.69713e-23)
(0.567987 -0.424387 3.71705e-23)
(0.586106 -0.426212 1.58576e-23)
(0.602955 -0.427635 -2.40015e-23)
(0.61825 -0.428888 -9.2261e-23)
(0.631843 -0.430141 6.10866e-23)
(0.643723 -0.431492 -1.78422e-22)
(0.654015 -0.433008 3.68236e-22)
(0.662859 -0.434689 -7.47568e-23)
(0.678113 0.391716 -8.35165e-22)
(0.673604 0.385104 1.25889e-22)
(0.669286 0.377244 6.86809e-22)
(0.665174 0.368282 -4.92422e-22)
(0.661021 0.358209 9.9727e-23)
(0.656555 0.347185 2.97735e-22)
(0.651402 0.335439 -3.9966e-22)
(0.645153 0.323215 1.25208e-22)
(0.637453 0.310709 3.65676e-22)