/*--------------------------------*- C++ -*----------------------------------*\
  =========                 |
  \\      /  F ield         | OpenFOAM: The Open Source CFD Toolbox
   \\    /   O peration     | Website:  https://openfoam.org
    \\  /    A nd           | Version:  10
     \\/     M anipulation  |
\*---------------------------------------------------------------------------*/
FoamFile
{
    format      ascii;
    class       volScalarField;
    location    "1600";
    object      epsilon;
}
// * * * * * * * * * * * * * * * * * * * * * * * * * * * * * * * * * * * * * //

dimensions      [0 2 -3 0 0 0 0];

internalField   nonuniform List<scalar> 
10435
(
0.619851
1.1258
0.70137
0.889085
1.04036
1.05754
0.645649
0.55133
0.499233
0.943171
1.19062
0.808893
0.94444
0.169727
0.209273
0.61183
0.139595
1.09373
0.449122
0.683899
0.578322
0.819993
0.642045
0.533307
0.837768
0.0304383
0.0492084
0.80354
0.0471484
1.03114
0.731292
1.18979
0.535749
0.0493946
0.578913
0.810003
0.614408
0.0508084
0.0212934
0.474347
1.12878
0.650794
0.0798261
0.850991
0.652435
0.499751
1.07084
0.0604007
0.479922
0.716426
0.565682
0.863091
0.0206513
0.0396881
0.0234031
0.0429697
0.610943
0.0546662
0.0901644
0.559865
0.02303
1.04962
0.0549948
0.880283
0.647848
0.744239
0.0728412
0.0685011
0.564413
0.55532
0.0389363
0.0401018
0.0525528
0.702561
0.259831
0.107426
0.594282
0.616718
0.518411
0.23579
0.695094
0.470935
0.0200509
0.0405869
0.667973
0.615618
0.668104
0.927494
0.390904
0.757255
0.953817
0.96784
0.535896
0.4727
0.830297
0.66543
0.938041
0.26645
0.109551
0.964659
0.318442
1.13391
0.569762
0.886238
1.10853
0.879541
0.5937
0.710599
0.636664
0.285245
0.707103
1.16285
0.404589
0.341684
1.00978
0.808502
0.921658
0.730327
1.03344
0.882018
0.879899
0.0938269
0.835448
0.358109
1.28958
0.0268354
0.909895
0.138168
0.973404
0.0470221
0.230151
1.31836
0.587143
0.193736
0.0447158
0.0190762
0.731493
0.882511
0.98897
0.779028
0.737164
0.690669
0.0625476
0.803505
0.816588
0.209121
0.546018
0.942509
0.138111
0.775585
0.0484712
0.659289
0.690752
0.7628
0.906194
0.0380693
1.24879
0.922969
0.928473
1.32433
0.717865
0.159432
1.05678
0.764748
0.322779
0.906417
0.536097
0.843405
0.700539
0.859758
0.828566
0.036027
0.045382
0.260552
0.744474
1.28363
0.941517
0.0921937
0.682298
0.0520124
1.17198
1.05444
0.801559
0.0252124
0.695865
0.0566821
0.0782488
0.598807
1.03097
0.816228
0.843264
0.0197499
0.0442159
0.913739
1.20345
0.578615
0.124509
0.500029
0.0769893
0.614153
0.3567
0.0508137
0.865481
0.0547114
0.78957
1.06442
1.05969
0.866595
0.0575448
0.803563
0.0407526
0.657638
0.837743
0.7628
0.0490963
0.170547
0.391228
0.0257077
0.0309177
0.132033
0.0490079
0.10322
0.0664715
0.280473
0.0345417
0.584622
0.0257207
0.3905
0.77681
0.144185
0.0835686
0.55917
0.0281441
0.672416
0.0508178
0.116264
0.609556
0.034087
0.629232
0.763935
0.81071
0.0303204
0.0282376
0.0424922
1.07655
0.51425
0.518713
0.561983
0.0365582
1.20094
0.0370868
0.434942
0.96668
0.782356
0.577068
0.93683
0.0331224
0.593844
0.0344629
0.0523765
0.614071
0.815936
0.0300172
0.665292
0.467036
0.0909957
0.757546
0.689228
0.0229675
1.02415
0.639888
0.537482
0.559725
0.80355
0.0339299
0.85368
0.0481622
1.10733
0.598538
0.527017
0.920951
0.102491
0.67339
0.312189
0.521466
0.0223707
0.986019
0.0234676
0.0414197
0.0507764
0.377728
1.3306
0.0583432
0.547256
0.021736
0.0381934
0.160753
0.545622
1.15086
0.748982
0.0732752
0.652485
0.710981
0.0395962
1.1813
0.213903
0.116428
0.685582
0.744248
0.0419037
0.644236
0.0449885
1.07333
0.977411
0.525357
0.038836
0.0266851
0.757431
0.074623
0.822179
1.09418
0.0511443
0.610154
0.0194872
0.516036
0.85954
0.0371596
0.752063
0.0771943
0.0518823
0.524678
0.0553077
0.042005
0.684176
0.728708
0.0587455
0.0396219
0.037908
0.0454117
0.0441207
0.0397967
0.0391461
0.0225716
0.0452839
0.0436374
0.0444944
0.0630649
0.051849
0.0192717
0.505142
0.0428982
0.822134
0.048121
0.798874
0.504322
0.464516
0.954328
0.685992
0.0413173
0.0455432
0.0388261
0.0275725
0.0432265
0.0225346
0.0484503
0.0421244
0.0609155
0.759029
0.0411188
0.496559
0.0254003
0.0447043
1.00968
0.440353
0.02316
0.0487923
0.0526128
0.0504696
0.0447586
0.0335219
0.0565405
0.0243492
0.525479
0.0661398
0.550083
0.4935
0.849788
0.904348
0.481983
0.756979
0.551997
0.207586
0.0417411
0.0455003
0.039753
0.721072
0.0431381
1.01246
0.054074
0.0523273
0.0464801
0.0577342
0.0292588
0.624009
0.0512286
0.537981
0.694045
0.0320617
0.0362854
0.050671
0.445368
0.0504964
0.0386596
0.0329243
0.0432095
0.0615637
0.0474768
0.743492
0.0389954
0.0370388
0.0477143
0.0524211
1.12211
0.0249857
0.0203922
0.407817
0.0450998
0.000290679
0.000281814
0.000266199
0.00024644
0.000224007
0.000199336
0.000173192
0.00014628
0.000119481
0.000323581
0.00031045
0.000291219
0.000268323
0.00024304
0.00021616
0.000188394
0.000160647
0.000134064
0.000363361
0.000346277
0.000323178
0.000296716
0.000268327
0.000238865
0.000209107
0.000179964
0.000152513
0.000413982
0.00039276
0.000365117
0.000334459
0.000302374
0.000269736
0.000237331
0.000205979
0.000176578
0.000480397
0.000454307
0.000421062
0.000385257
0.000348562
0.000311869
0.000275897
0.000241303
0.000208668
0.000568961
0.000536707
0.000496345
0.000454036
0.00041145
0.000369496
0.000328781
0.000289788
0.000252853
0.000688115
0.000647588
0.000597944
0.00054727
0.000497088
0.000448297
0.000401372
0.000356679
0.000314489
0.000849325
0.000796487
0.000734625
0.000673192
0.000613261
0.000555638
0.000500642
0.000448575
0.000399785
0.0010655
0.000994049
0.000916696
0.000841759
0.000769534
0.000700638
0.000635231
0.000573482
0.000515669
0.00134571
0.00125063
0.00115543
0.00106427
0.000976926
0.000893916
0.000815301
0.000741049
0.000671001
0.00169196
0.00157577
0.00146254
0.00135273
0.00124725
0.00114692
0.00105194
0.000962158
0.000877063
0.00210128
0.00198014
0.00185021
0.00171931
0.00159226
0.00147101
0.00135621
0.00124775
0.00114518
0.00259765
0.00248055
0.00233176
0.0021758
0.00202287
0.0018765
0.00173802
0.00160753
0.00148488
0.00322911
0.00309768
0.00292028
0.0027326
0.00254826
0.0023719
0.00220536
0.00204903
0.00190294
0.00402602
0.00384597
0.00362508
0.00339727
0.00317537
0.00296383
0.00276456
0.00257788
0.00240304
0.00499135
0.0047274
0.00444942
0.00417405
0.00390908
0.00365769
0.00342158
0.00320122
0.00299605
0.00607765
0.00573006
0.00539131
0.00506493
0.00475348
0.00445892
0.00418278
0.00392589
0.00368911
0.00724902
0.00684238
0.0064492
0.00607295
0.00571431
0.00537503
0.00505671
0.00476039
0.00448715
0.0085087
0.00806521
0.0076276
0.00720568
0.00680161
0.00641813
0.00605711
0.00571979
0.00540707
0.00987381
0.00941106
0.00893847
0.00847648
0.00803105
0.00760648
0.00720495
0.00682794
0.00647716
0.0113702
0.0109007
0.0103998
0.00990373
0.00942355
0.00896445
0.00852819
0.0081156
0.00772738
0.0130342
0.0125604
0.0120327
0.0115089
0.0110043
0.0105226
0.0100634
0.0096259
0.00920873
0.0149266
0.0144199
0.0138582
0.0133141
0.0128012
0.0123167
0.011856
0.0114153
0.010992
0.0171304
0.0165024
0.01589
0.0153384
0.014843
0.014387
0.0139588
0.0135504
0.0131567
0.0197153
0.0187968
0.0181289
0.0175974
0.0171604
0.0167777
0.0164302
0.0161102
0.0157511
0.00149521
0.00146066
0.00143201
0.00140915
0.00139206
0.0013806
0.00137467
0.00137401
0.00137845
0.00138764
0.00140125
0.00141886
0.00143994
0.00146399
0.00149033
0.00151828
0.0015471
0.00157599
0.00160412
0.00163066
0.00165467
0.00167516
0.00169093
0.0017002
0.00170142
0.00169329
0.00167731
0.00165365
0.00162123
0.00157942
0.00153039
0.00147489
0.00141322
0.00134663
0.00127621
0.00120304
0.00112814
0.00105254
0.000977221
0.000903107
0.000831059
0.000761868
0.000696203
0.000634637
0.000577639
0.000525551
0.000478586
0.00043686
0.000400343
0.000368933
0.000342433
0.000320587
0.000303128
0.000289756
0.00028021
0.000274248
0.000271678
0.000272355
0.000276118
0.00149656
0.00146525
0.0014394
0.00141893
0.00140374
0.00139368
0.00138863
0.00138844
0.00139289
0.00140172
0.00141461
0.00143117
0.00145095
0.0014734
0.00149793
0.00152389
0.00155055
0.00157713
0.00160285
0.00162687
0.00164832
0.00166634
0.00167996
0.00168814
0.00168961
0.00168306
0.00166764
0.00164308
0.00160965
0.00156825
0.00151995
0.00146545
0.00140535
0.00134042
0.00127155
0.00119968
0.00112582
0.00105098
0.000976165
0.000902321
0.000830351
0.000761076
0.000695217
0.00063339
0.000576092
0.000523693
0.000476423
0.000434389
0.000397568
0.000365835
0.000338978
0.000316744
0.000298866
0.000285049
0.000275002
0.000268466
0.00026523
0.000265143
0.000268017
0.0014697
0.00144023
0.00141589
0.00139665
0.00138243
0.00137314
0.00136863
0.00136874
0.00137325
0.00138191
0.0013944
0.00141034
0.00142931
0.0014508
0.00147424
0.00149901
0.00152441
0.00154973
0.00157417
0.00159692
0.00161715
0.00163394
0.00164633
0.00165324
0.00165358
0.00164637
0.00163093
0.00160698
0.00157466
0.00153453
0.00148738
0.001434
0.00137513
0.00131158
0.00124419
0.00117388
0.0011016
0.00102831
0.000954971
0.000882522
0.000811845
0.000743753
0.000678968
0.000618109
0.000561674
0.000510033
0.000463421
0.000421939
0.000385569
0.000354184
0.000327574
0.000305475
0.000287596
0.000273652
0.00026336
0.000256474
0.000252786
0.000252146
0.00025437
0.00141506
0.0013875
0.00136483
0.001347
0.00133392
0.00132548
0.00132155
0.00132196
0.0013265
0.00133492
0.00134692
0.00136215
0.00138021
0.00140063
0.00142286
0.00144632
0.00147036
0.00149426
0.00151727
0.00153859
0.00155737
0.00157273
0.00158373
0.00158941
0.00158883
0.00158114
0.00156575
0.0015424
0.00151118
0.00147252
0.00142706
0.00137553
0.0013187
0.00125736
0.00119236
0.00112458
0.00105491
0.000984297
0.000913642
0.000843844
0.000775749
0.00071014
0.000647712
0.000589064
0.000534675
0.000484897
0.000439955
0.000399945
0.000364842
0.000334521
0.000308779
0.00028736
0.00026999
0.000256375
0.00024624
0.000239343
0.000235484
0.000234513
0.000236253
0.00134302
0.00131772
0.00129699
0.00128077
0.00126898
0.00126153
0.00125828
0.00125907
0.00126371
0.00127195
0.00128351
0.00129806
0.00131521
0.00133452
0.00135548
0.00137754
0.00140005
0.00142235
0.00144371
0.00146334
0.00148044
0.00149414
0.00150359
0.00150791
0.0015063
0.00149808
0.00148276
0.00146011
0.00143018
0.00139328
0.00134992
0.00130075
0.00124648
0.0011879
0.00112583
0.00106113
0.000994671
0.000927332
0.000859999
0.000793525
0.000728718
0.000666317
0.000606982
0.000551273
0.000499638
0.000452405
0.000409775
0.000371832
0.000338548
0.000309795
0.000285374
0.000265038
0.000248509
0.000235509
0.000225771
0.000219063
0.000215188
0.000213998
0.000215324
0.00125382
0.00123065
0.00121174
0.00119706
0.00118651
0.00118002
0.00117745
0.00117865
0.00118341
0.00119151
0.00120267
0.00121658
0.00123286
0.00125109
0.00127078
0.0012914
0.00131234
0.00133295
0.00135255
0.0013704
0.00138573
0.00139775
0.00140567
0.00140874
0.00140623
0.00139759
0.00138241
0.00136052
0.00133194
0.00129691
0.00125586
0.00120936
0.00115808
0.00110278
0.00104422
0.00098322
0.00092061
0.000857222
0.000793908
0.000731475
0.000670682
0.000612218
0.000556694
0.000504628
0.00045643
0.000412395
0.000372701
0.000337415
0.000306496
0.000279818
0.000257182
0.000238344
0.000223036
0.000210987
0.000201945
0.000195682
0.000192005
0.000190774
0.000191827
0.00114991
0.00112889
0.00111181
0.00109864
0.00108932
0.00108377
0.00108187
0.00108347
0.00108839
0.0010964
0.00110722
0.00112055
0.00113602
0.00115323
0.00117171
0.00119095
0.00121039
0.00122939
0.0012473
0.00126344
0.0012771
0.00128754
0.00129406
0.00129602
0.00129278
0.00128386
0.00126895
0.00124792
0.00122076
0.00118767
0.00114904
0.00110537
0.00105733
0.00100562
0.00095095
0.000894099
0.000835823
0.000776902
0.000718165
0.000660354
0.000604157
0.000550206
0.000499052
0.000451173
0.00040694
0.00036661
0.000330339
0.000298172
0.000270056
0.000245857
0.000225377
0.000208377
0.000194597
0.000183775
0.000175668
0.000170056
0.000166759
0.000165638
0.000166542
0.00103018
0.001011
0.000995487
0.000983633
0.000975408
0.000970754
0.000969559
0.000971679
0.000976919
0.000985032
0.000995768
0.00100877
0.00102369
0.00104009
0.00105757
0.00107569
0.00109392
0.00111163
0.00112823
0.00114299
0.00115526
0.00116435
0.00116974
0.0011709
0.00116719
0.00115827
0.00114385
0.00112388
0.00109826
0.00106715
0.00103098
0.000990198
0.000945542
0.000897703
0.000847216
0.000794864
0.000741352
0.000687357
0.000633737
0.000581091
0.000530036
0.000481127
0.000434854
0.000391648
0.000351857
0.000315688
0.0002833
0.000254695
0.000229797
0.000208452
0.000190461
0.000175598
0.000163614
0.000154267
0.000147328
0.000142592
0.000139883
0.000139068
0.000140005
0.000892752
0.000874968
0.000860696
0.00085006
0.000843081
0.000839661
0.000839576
0.000842494
0.000848459
0.000857504
0.000868904
0.000882242
0.000897049
0.00091284
0.000929488
0.000946562
0.000963928
0.000981331
0.000997536
0.00101147
0.00102263
0.00103056
0.00103506
0.00103564
0.00103185
0.0010233
0.00100984
0.000991335
0.000967463
0.000938238
0.000904379
0.000866489
0.000825278
0.000781516
0.000735657
0.000687825
0.000638987
0.000590665
0.000542913
0.000495926
0.000450487
0.000407119
0.000366192
0.00032803
0.00029291
0.000261202
0.000232995
0.000208428
0.000187264
0.000169128
0.000153808
0.000141178
0.000131087
0.000123319
0.000117651
0.000113924
0.000111986
0.000111694
0.000112916
0.0394797
0.0359729
0.032721
0.0296112
0.0266196
0.0237352
0.0209781
0.0183736
0.0159412
0.0136963
0.0116871
0.00994393
0.0084627
0.00721308
0.0061366
0.0052107
0.00443792
0.00380751
0.00329708
0.00288131
0.00253887
0.00225224
0.00200707
0.00179147
0.00159487
0.0376806
0.0351812
0.0323293
0.0293771
0.0264343
0.0235546
0.0207823
0.0181575
0.015713
0.0134795
0.0114857
0.00974347
0.00824734
0.0069794
0.00591275
0.00502256
0.00428816
0.00368892
0.00320293
0.00280796
0.00248369
0.002213
0.00198209
0.00177989
0.00159725
0.0375988
0.0349501
0.0320766
0.0291101
0.0261382
0.0232236
0.0204218
0.0177806
0.015338
0.0131228
0.0111519
0.00942889
0.00794761
0.0066942
0.0056489
0.00478848
0.0040877
0.00352101
0.003064
0.00269415
0.00239151
0.00213933
0.00192408
0.0017352
0.0015647
0.0378677
0.0348856
0.0318295
0.0287536
0.0257129
0.0227575
0.0199369
0.0172955
0.0148687
0.0126798
0.0107393
0.00904695
0.00759522
0.00637119
0.00535675
0.00452882
0.00386085
0.00332546
0.00289687
0.002552
0.002271
0.00203744
0.00183819
0.0016631
0.00150431
0.0382251
0.0349125
0.031625
0.028392
0.0252506
0.0222382
0.0193936
0.0167526
0.0143429
0.0121814
0.010274
0.00861747
0.0072029
0.00601641
0.00503919
0.00424748
0.00361395
0.0031104
0.00271035
0.00239043
0.00213093
0.00191584
0.00173249
0.00157134
0.00142536
0.0385428
0.0349239
0.0313952
0.0279907
0.024739
0.0216656
0.0187963
0.0161563
0.013765
0.0116328
0.00976181
0.00814632
0.00677522
0.00563269
0.00469819
0.0039466
0.00334979
0.00287912
0.00250794
0.00221294
0.00197481
0.00177803
0.00161057
0.00146332
0.00132966
0.0388481
0.0349033
0.0311158
0.0275325
0.0241704
0.0210377
0.0181453
0.0155075
0.013136
0.0110357
0.00920496
0.00763574
0.00631424
0.00522164
0.00433499
0.00362748
0.00307002
0.00263377
0.00229223
0.00202246
0.00180565
0.00162695
0.00147495
0.00134086
0.00121917
0.0391883
0.0348254
0.0307504
0.0269901
0.0235275
0.0203446
0.0174348
0.0148021
0.0124531
0.0103881
0.00860209
0.007085
0.00582024
0.004784
0.00395064
0.00329134
0.00277599
0.00237585
0.00206494
0.00182089
0.00162549
0.00146463
0.00132738
0.00120508
0.00109381
0.0394868
0.034618
0.0302502
0.0263348
0.0227956
0.0195787
0.0166619
0.0140367
0.0117124
0.00968714
0.00794999
0.00649179
0.00529328
0.00432072
0.00354648
0.0029399
0.00246931
0.00210687
0.00182786
0.0016104
0.00143656
0.00129371
0.00117024
0.0010568
0.000952183
1.09999
1.06507
3.13261
4.0541
0.00127879
0.00196408
0.038846
0.000402835
2.69758
0.000141524
2.41483
0.00315229
0.0569462
0.00441119
0.042414
0.000674591
2.35966
3.87441
9.05378e-05
0.0697558
0.0150307
0.000439803
2.848
0.0130567
0.000596369
0.000570003
0.000546529
0.023364
1.38587
2.41119
0.000139795
0.000590207
2.88993
0.0533949
2.40862
0.00058206
0.0840057
0.0428058
0.104803
0.00201354
3.89311
0.00063228
0.000440999
0.0760558
0.012357
0.000573105
3.66605
4.62346
1.75541
1.98593
3.37394
3.58252
0.0131333
3.93721
0.0373732
2.71681
0.00377746
0.012333
0.00121504
3.69661
0.000803607
3.4368
0.00133247
0.000598923
0.000398004
0.0549369
0.000999605
0.256146
0.0752515
1.89662
2.77142
0.000546532
0.000710142
0.0659068
0.00104196
0.014194
0.0575626
4.33499
0.000956906
3.70808
0.0413844
0.00106724
0.000411099
2.36214
0.000967998
0.000917072
0.000517679
4.28114
2.94387
0.00437482
0.00863843
0.00204607
0.000148388
0.0033458
0.000896033
2.4371
0.000600653
2.69101
0.00112377
3.64841
0.00900993
3.85171
0.0104097
0.000540447
0.00103791
0.0134765
3.08048
0.0344434
0.000810338
2.41787
0.000498082
0.00166444
3.18644
0.000513752
0.0125107
1.72331
2.97615
0.00169026
0.0188691
0.00160307
0.000120029
0.0018008
0.013933
0.000626014
3.04013
0.000453751
3.58892
0.0493271
0.00101868
4.60815
0.000421095
0.064031
1.92287
0.101145
0.0279236
0.000545399
0.0120584
0.00570178
0.000665051
0.0760827
0.000350196
0.0995478
3.75152
0.000168209
1.50955
0.000755742
3.87244
0.031897
0.000675004
2.30509
0.0159921
0.00257223
4.02823
0.0478523
0.00132816
2.30298
0.000669578
0.0016526
0.0554157
0.000504436
0.000407063
2.73284
0.000498656
2.87049
0.000235471
2.86759
0.00453837
0.000569085
0.000806778
0.000762749
0.00389279
0.000615641
0.239015
2.56441
0.00105745
0.0163642
0.0274385
1.64964
2.29599
0.000365058
0.0454257
0.000590166
0.0137138
0.0380611
0.0417223
0.000555369
3.11156
0.000572092
2.17765
0.000652511
4.31203
3.69426
1.80874
0.100181
0.0428621
2.36846
0.000985175
0.000431939
1.61391
1.22353
0.190748
0.000867114
0.000999259
0.000680229
0.00937056
0.000291901
0.00117519
0.0104079
1.84659
0.00130532
0.00101986
0.00262389
0.0503972
0.00874293
0.0240297
4.1574
0.00124838
0.0004579
0.000765146
0.00658468
0.00868249
0.00071261
0.00141567
3.60433
1.12455
3.21976
0.00426795
2.37163
0.000887947
0.000782683
2.14169
0.000575157
0.000636616
0.000621657
0.100805
0.000182544
0.052861
0.0143103
0.0402273
0.0484534
0.000228074
0.000836558
0.00025282
0.0358862
0.000631208
0.000433231
0.000558746
0.0166427
0.000660811
0.000289948
0.000815322
0.017835
0.000488708
1.72349
0.000886833
0.000593025
3.00128
0.0559634
0.0547439
9.24499e-05
0.128574
0.00115277
0.000546976
0.00118801
0.0624888
0.000666793
0.000257162
3.86752
0.0389443
0.000534411
0.0182549
1.77888
0.00112002
0.000467713
9.349e-05
3.72931
0.00146217
2.59773
0.00397955
3.91448
0.0632505
0.0178419
0.175362
0.000569135
2.34324
0.00071629
0.0146559
2.29567
3.43182
4.40732
0.04739
0.000517525
0.000398948
3.61841
0.281219
4.10841
3.89235
0.00156002
0.000540632
2.91726
3.7593
0.000388073
0.00455169
0.000708445
3.70147
0.000236275
0.0155229
0.000606984
0.076014
0.000960095
0.00054982
0.000267659
2.50701
0.000929547
0.00120394
0.119803
4.08923
0.000527263
0.000568745
0.277339
0.0557532
0.000442346
0.00558242
0.000136206
0.000532712
0.000638331
2.90071
0.0342958
0.00143553
0.0129373
0.000227507
0.0424947
0.00702363
0.000151932
4.12792
0.000972263
0.000412833
0.00042477
1.22397e-05
0.154735
0.00255749
0.0032955
3.24163
0.000249554
0.0605158
0.0013004
0.00309249
0.000806851
0.000579008
3.43823
1.7228
0.0001526
0.00139055
0.0543328
3.67931
0.914342
0.422968
0.0813745
0.000265974
3.73675
1.8678
2.44564
0.000337647
3.124
0.000493583
0.000528143
0.000728397
4.29763
0.000516611
2.0755
0.000386097
0.0478464
1.37845
3.26344
0.0552337
0.000816852
0.00146207
0.00020573
0.000652698
0.000178174
3.85058
0.000600632
3.01737
0.0886446
0.0861676
0.365067
0.000232091
0.0683393
2.21963
4.32811
0.0279248
0.000285401
0.00926731
2.7056
0.0398418
0.000109348
0.000247316
2.82729
0.0016667
1.40991
0.000394408
0.000442033
0.00101373
1.63705
0.00314136
6.83066e-07
0.0401065
0.0102009
0.177764
0.00023099
1.91243
0.000535221
2.92624
0.000651995
0.000440992
0.161449
1.86295
3.43976
0.00125625
0.00198601
0.000240491
0.000637733
0.00486038
0.0123127
0.000739967
4.1354
9.63309e-06
0.00579242
0.000442762
0.000554703
0.00065533
0.000596537
0.00454468
0.00100704
0.0458927
0.000700359
0.000488326
0.000272753
0.000759026
0.0183392
0.000434916
0.0485062
3.68524
0.126654
0.0879459
4.43405
0.016734
2.38288
0.00104731
0.000929131
3.21488
0.00038074
0.000497529
2.68899
0.000260125
1.82737
3.49282
0.00082785
0.00990575
0.0470051
0.000518376
0.0389773
1.8318
0.0473784
3.9605
0.000440489
0.00107346
3.6986
0.000406226
2.25963
0.0147174
0.000501488
2.42304
0.0235342
0.000600285
0.0527664
0.00383634
0.000565354
0.032027
0.0273932
0.0225735
0.0816691
6.97178e-05
0.00314213
2.29064
0.000903569
0.000926795
0.000656771
1.57825
0.000404198
0.0420914
0.000559631
0.00132329
2.57677
0.000502274
0.00164431
0.0414919
0.000672017
0.000175759
2.05466
0.000422968
0.046223
0.000579031
0.0293247
0.0263723
0.0516811
0.000670728
0.000640053
0.0400047
0.00059045
0.000330433
0.0409399
0.0010444
0.0034531
0.000590559
4.25712
3.66353
1.94497
0.000903722
0.0192134
0.000148338
4.38752
0.0709604
5.50805
0.0627382
0.000662485
4.06723
3.80155
0.000321863
0.000681254
0.0172122
0.000431074
3.50893
2.82424
0.00169864
0.186908
0.000443265
2.40131
1.68817
0.000578988
0.272607
2.35529
0.000416192
3.37387
0.00165855
3.28699
0.000452845
0.00722066
0.000658291
2.58206
0.0815284
0.0705511
0.000992865
1.76304
1.90544
4.2387
0.00128241
0.000221208
0.0339242
2.01342
0.000517606
0.084914
0.000441288
0.0517651
2.29998
0.000114254
0.0186141
0.00112752
0.000573124
0.1969
2.6523
0.000729025
0.0456365
0.00127524
0.0015184
3.16426
3.7594
2.06507
0.00824927
0.213023
0.0749778
0.0134109
0.000849978
0.000153876
0.000422516
2.80376
0.00038653
0.00207522
0.365186
0.000789784
0.0031967
0.00129119
0.000576978
0.0464496
0.000266823
0.001298
0.0506898
1.98947
0.00100515
0.000542619
3.25993
0.0238686
0.00057025
0.00599323
0.047192
0.000884212
0.000749084
0.000379075
1.9393
0.000404493
0.000420298
0.0898312
0.000417633
0.000781072
0.0114063
0.0136959
0.00100467
0.00290242
3.54818
0.000634418
0.000418895
0.000438773
0.000212586
0.00390528
0.00270629
3.58784
4.27913
0.020438
2.64775
0.00190824
0.000576038
0.000496837
0.00071528
0.000752201
0.00154481
0.0161522
0.00469249
0.00150207
0.00230034
0.042378
0.0177473
0.00663928
0.0550784
0.000412592
0.00169038
0.000422428
0.0126418
0.173961
3.53505
0.0459242
0.0540545
0.0013884
0.000132564
0.00122472
0.000695376
0.000320146
3.7918
9.48547e-05
0.0202717
0.000388525
2.20582
3.38386
2.33895
8.48189e-05
0.000478899
0.000440338
3.82954
2.46336
0.0411391
0.0129314
0.0025494
0.000100325
0.000985714
3.69123
0.000292768
0.000453004
0.0816895
0.000549376
0.000413031
0.000232762
0.00109887
0.013642
0.00731734
0.000440596
0.000274869
0.0084582
0.00020714
1.5412
3.56288
0.000574207
0.0412564
0.00149094
2.34834
0.000428631
0.000232303
0.000295382
0.000597371
0.431913
0.000666814
0.000323673
0.00121966
0.167169
0.000835956
0.000668358
0.000491265
4.01976
0.0403485
0.0170211
4.50434
0.0431177
1.63314
2.42731
9.16458e-05
0.000626647
0.000434709
2.62836e-06
0.000552669
0.0640123
0.00073913
0.000516066
0.0400416
0.000127585
0.000321545
0.0323993
0.000338788
0.00063022
0.000385323
0.0186592
0.037049
3.91026
0.000101567
2.41121
0.0379254
1.60317
0.0207474
3.90756
3.40129
3.64725
0.000488524
0.000663836
0.000141715
0.112866
0.000480201
0.337415
1.40999
0.000200716
0.0585762
0.136544
0.000923426
0.00038737
0.000563424
4.09175
3.19216
0.00040433
0.0412688
0.0487923
0.0171392
2.60175
2.05384e-08
0.000297798
0.0296687
0.000192377
1.26787
0.192708
2.62031
0.0468748
0.000629994
0.0472097
0.00164587
1.93411e-05
0.0382626
0.00278591
0.006837
0.000539314
0.000447517
0.50647
0.000674218
0.000677007
0.000406901
0.000560288
0.463578
0.00206
3.69951
0.0429882
0.000387033
1.66111
0.000620215
0.0737197
0.00130732
0.000165272
0.000382515
0.0227058
0.0220917
0.000224307
0.000450022
3.49144
3.15154
0.0426171
0.000696037
0.0302897
0.254088
0.0511912
4.23595
0.0778537
0.00669513
0.000281058
2.89339
0.00116837
0.000398225
0.0097828
2.35742
2.91973
0.000688626
0.000673433
2.02986
0.000481418
3.09744
2.14124
0.000409364
0.000674495
2.76751
1.42705
1.29085
0.000232237
0.000499928
0.000706666
0.0282403
0.0773916
0.000348003
0.000421255
0.00188903
0.0410833
0.00641393
0.0799113
1.41025
9.98983e-05
0.000444583
5.01694
0.00010779
0.0184353
0.00127606
0.0218159
0.000713855
0.00157314
0.284344
0.000521178
0.000213559
0.000183007
0.0196135
0.0188936
4.20786
0.0004311
0.000374678
0.000478683
0.0439419
0.0750561
3.28538
0.00151835
0.129978
0.0428059
3.63993e-06
0.000863237
0.00288616
2.17417
0.00106022
0.0665433
0.000703682
1.36227e-05
0.0382621
0.000645167
5.8888
3.24551
0.0301772
3.75417
3.95379
4.03693
0.000110869
2.50433
0.0475929
0.000338053
0.0374585
0.000516847
0.00298278
0.0525491
0.000648898
0.00599701
0.0225147
3.69005
0.0033046
0.00179299
2.46356
0.00524839
0.000724228
0.0414798
1.52973
0.410643
0.000173114
0.0136199
4.52764
2.57404
0.246079
0.0168412
1.86634
0.0044326
0.000555634
0.0219606
2.17292
0.00095473
0.951572
0.00300653
2.12328
0.000730257
0.0315507
1.22311
0.000195688
0.0022121
0.000178704
2.77157
0.402517
2.45667
1.63109
0.000774812
0.0283168
0.0176778
0.00712211
1.35473
0.0120981
0.000328169
0.000679915
0.000617192
0.00126611
0.0308076
2.41834
9.2652e-05
2.70296
0.00043937
0.0519083
0.000132267
0.00055637
0.000419802
2.85987
2.21929
0.0217794
0.0196799
0.000607678
0.000974536
0.0460754
0.000383814
0.347968
0.120511
3.31904
0.00150396
0.256438
0.0471232
0.000693427
0.000792004
0.00101794
3.3775
0.00166816
0.00767496
0.0507498
0.0410616
0.00112024
0.00738237
0.000510144
0.00048708
0.00143674
0.000836856
0.0149344
0.000553734
0.0203192
2.49052
0.0717731
2.86172
0.000485593
0.0205283
0.0245402
0.00184398
1.48263
0.00165066
0.00411844
3.35552
0.000708073
0.0836575
0.00438338
0.000547029
1.80005
0.000202803
0.399166
0.000820265
0.0387833
0.0423127
2.93592
0.00136209
0.0471205
0.000608957
0.364912
0.000668929
3.06566
0.0443835
0.0735228
2.36603
0.00481133
3.53011
0.000562321
1.67391
0.00168497
0.000402143
0.00156602
0.0325805
0.0429951
0.00168718
0.000169078
0.0568415
0.000456661
0.000198074
0.00144113
0.000858981
0.000586445
4.55149
0.000771236
0.00053373
0.0488025
0.0199499
4.01823
0.00101827
0.000251861
0.000747465
0.56087
0.000847386
0.00274625
3.76115
0.696347
0.074483
0.000570675
0.00776628
0.0260334
2.81544
0.000224979
0.000147233
0.00267488
0.000825094
0.000925128
0.947341
4.27213
4.29268
0.0231302
0.000606329
0.0469286
3.32922
0.0153233
0.0468987
0.00070473
1.57447
2.32173
3.75123
0.000617487
0.000617818
0.0110563
2.37795
0.000800639
3.05469
0.00461485
0.168538
1.79012
0.00122856
0.0025105
0.00387246
0.000137401
0.000132252
0.0964814
1.45926
9.5148e-05
2.48335
0.000717278
0.000652368
0.000530641
0.000212375
0.0147184
0.00406659
0.0724383
0.0292641
0.000903431
0.000718741
1.63091
2.26196
0.000353135
0.00140119
0.00050287
1.18386
3.68181
0.0132712
3.82393
0.000571552
0.000118687
0.0215579
0.000571852
0.00900263
0.0455778
0.000403909
0.000515829
0.000259093
0.00571233
0.0377416
3.31875
0.0468651
0.000123003
0.0125586
0.000288119
3.49356
3.72855
0.00027553
0.000119316
0.0581602
0.000865476
0.00149157
1.36301
1.44645
0.0376554
0.000156462
0.0016068
0.0356571
1.45104
0.00291223
0.00392993
1.29062
2.59734
9.6769e-06
0.00056836
0.00231286
0.000450636
0.341477
0.0162911
0.000511452
0.0512866
0.000642963
0.000312418
0.000601409
0.0145664
0.000771538
3.43929
1.75825
3.35206
1.24486
0.383025
5.49556
0.000578712
3.35082
0.0170816
0.000415692
0.0830033
0.000175849
0.0102206
0.000366044
0.000529529
0.00154593
2.42685
0.000828701
0.0185468
0.0457606
0.00428226
0.0163853
0.331986
3.72952
0.000848679
3.69094
2.68829
0.00372153
0.000792283
0.0113082
0.109593
0.00826651
0.0431053
3.49784
0.000334185
0.0014836
0.000879739
0.0355681
3.62247
0.000736934
0.00354508
0.000650272
0.000354799
0.00124745
0.0258469
0.00012593
0.00503925
0.00993621
1.83297
0.000177813
0.0221231
2.46013
0.000632929
0.0139634
0.0141504
3.3755
0.0258851
0.552987
0.0206672
0.000475553
5.1479
2.31592
0.000703187
0.024821
0.043249
0.000251437
0.00105223
0.000359563
0.0452621
0.000587158
0.0522098
0.000155225
0.0455532
1.86107
0.0511234
1.74736
0.0710253
0.00094962
0.0558909
0.0436527
0.00355777
0.000615897
0.00796052
2.36101
0.000362184
0.0307355
0.00158413
0.000662198
0.0216535
0.00311303
0.000844053
0.000370429
2.60904
0.0552834
0.000213885
0.00060761
0.000163195
0.000396989
0.000624639
1.48772
0.00053289
0.199664
2.32382
0.0378342
3.8364e-05
0.0504007
1.36173
0.0739643
1.64086
0.00792742
0.161162
3.25012
3.47535
0.000459509
2.11568
0.000226805
2.65533
2.58603
0.000106207
0.0648563
0.0403625
4.31262
0.0499628
0.0159316
0.000382697
0.0391283
2.13839
1.14772
3.34279
0.000720395
0.0730724
0.000131872
2.26641
0.00978065
0.00101639
0.000611227
0.0592864
0.00181266
0.00409684
0.0786201
0.000365074
1.69689
0.00122451
0.00032283
0.476559
0.0390776
0.00372933
0.0153404
0.0428539
0.000773431
0.019324
1.48869
0.000184988
0.0221092
0.00173572
1.70709
0.15362
0.000497188
3.98986
0.000155734
0.0147142
1.42569
0.000288902
0.00083417
0.0137729
0.0281274
0.04115
0.000965387
4.25335
0.00305552
0.0185872
4.12554
0.014392
0.000666182
0.347013
0.000586061
0.000470011
0.00012942
0.0518833
2.23721
0.000671842
2.77992
0.0192065
0.00062523
0.116889
0.000491168
0.002888
0.0992376
0.00045624
0.000311783
0.922527
0.00191608
0.000352036
0.000506418
1.78491
2.15022
0.00569938
0.000175573
0.000744708
0.0991877
4.18512
0.000553781
0.00123203
0.0139348
2.9919
0.00141165
0.143742
0.105381
0.000394332
0.0159927
3.43842
0.000511632
0.00714161
0.000251573
1.78392
0.000616368
0.000526889
0.00464726
0.0306567
2.19371
0.0015526
2.7797
0.00159822
2.5598
0.000294628
0.0396624
0.0186424
0.0730583
1.77842
0.00422791
0.0621838
0.000812967
0.000580801
0.000741794
2.18124
2.48875
0.00017582
0.000247927
0.483436
0.000571049
0.0031562
0.00112452
4.09742
3.46517
0.048966
3.02963
0.000632195
0.000408965
0.0968241
0.0184649
1.69836
0.000777119
0.00116295
0.000943012
0.00166833
0.000600248
0.0012193
0.000741372
0.0172291
3.64437
2.28035
0.000120056
0.0138625
0.0283354
2.83105
0.000511053
3.53548
1.44386
3.64545
0.000420665
0.0512505
0.000449775
0.000587238
0.000319715
0.00117998
9.47323e-05
1.44505
3.306
0.000405518
0.0169645
0.0783896
0.0267029
1.98821
4.6879