/*--------------------------------*- C++ -*----------------------------------*\
  =========                 |
  \\      /  F ield         | OpenFOAM: The Open Source CFD Toolbox
   \\    /   O peration     | Website:  https://openfoam.org
    \\  /    A nd           | Version:  10
     \\/     M anipulation  |
\*---------------------------------------------------------------------------*/
FoamFile
{
    format      ascii;
    class       volScalarField;
    location    "1600";
    object      k;
}
// * * * * * * * * * * * * * * * * * * * * * * * * * * * * * * * * * * * * * //

dimensions      [0 2 -2 0 0 0 0];

internalField   nonuniform List<scalar> 
10435
(
1.90547
2.32963
2.04927
2.22363
2.35751
2.48293
1.98708
2.01509
2.10997
2.37223
2.46555
2.19145
2.40385
1.23684
1.31374
1.9867
1.16899
2.61842
2.0954
1.99452
1.99029
2.22659
1.98626
2.15122
2.20592
0.66649
0.844197
2.19463
0.795755
2.5069
2.04884
2.4865
2.04574
0.811378
2.07783
1.84602
2.04791
0.864768
0.542304
2.12596
2.6376
1.99152
0.883155
2.14567
2.02457
2.13752
2.53088
0.834665
2.0999
2.18059
2.01723
2.18432
0.526353
0.739435
0.572986
0.747066
2.1
0.885422
1.01997
2.12139
0.56085
2.20448
0.876189
2.19033
2.00078
2.09917
0.943733
0.941552
1.98638
2.16453
0.733882
0.774757
0.670997
2.03732
1.39972
0.909823
2.18191
1.96507
2.06466
1.37431
2.20977
1.75008
0.510738
0.746388
2.20643
1.65885
1.80745
2.16541
1.48595
1.91713
2.21397
2.24291
1.84724
1.58317
2.01644
1.64515
2.23458
1.36013
1.08686
2.25577
1.41437
2.49589
1.69077
2.09941
2.48236
2.19283
1.93733
2.20382
2.20196
1.46216
2.13997
2.51489
1.65122
1.55459
2.29364
2.18967
2.22182
1.80263
2.25467
2.21644
2.19048
0.788539
1.945
1.16768
2.62545
0.614298
2.22801
0.865844
2.2686
0.864054
1.00856
2.64124
2.00339
1.29325
0.820044
0.469268
1.68107
2.23943
2.17728
2.13874
2.07273
2.01967
0.892117
2.11148
2.25051
1.18185
1.42168
2.28788
1.13523
2.11965
0.768846
2.05808
1.91839
2.0912
2.26474
0.710572
2.58971
2.07311
2.31911
2.60488
2.06638
1.21877
2.32869
2.24086
1.49944
2.20165
2.07253
2.2382
2.19357
2.15617
2.17461
0.58634
0.777308
1.26903
2.14268
2.52394
2.03909
1.00855
2.08752
0.840315
2.41531
2.45581
2.1534
0.586951
2.04021
0.761772
0.802298
1.95974
2.35494
2.12111
2.17802
0.499441
0.832468
1.94843
2.54879
1.96621
1.03979
1.52075
0.926652
2.01129
1.49853
0.841726
2.28625
0.875539
2.17081
2.3574
2.30963
2.24284
0.887224
2.25722
0.691916
1.99108
2.14859
2.21789
0.828864
1.20005
1.60059
0.564783
0.674183
1.15135
0.815909
1.06459
0.926662
1.20995
0.699311
2.03324
0.603632
1.4079
2.08639
0.973111
0.998205
2.05455
0.636533
2.098
0.89613
1.10672
2.14208
0.706672
2.16444
2.08403
2.08402
0.647775
0.578627
0.752293
2.36071
2.08928
1.4537
1.9679
0.63735
2.38576
0.67227
1.60902
2.43215
2.25234
1.95442
2.24025
0.589556
1.95509
0.655585
0.827415
1.96405
2.14036
0.654197
2.20587
1.70397
1.03078
2.00803
2.01515
0.544889
2.31944
1.98487
1.99468
1.96243
2.17222
0.715955
2.19983
0.859315
2.42366
1.97334
2.01869
2.35623
1.00521
2.02149
1.33214
1.71518
0.519737
2.31604
0.571024
0.752184
0.827017
1.29356
2.64212
0.886705
1.97653
0.550852
0.723448
1.10326
1.80744
2.46534
2.07716
0.944706
2.18146
2.06844
0.684462
2.48705
1.27765
1.08637
2.13624
2.08021
0.754154
2.01892
0.798302
2.18931
2.31598
2.10541
0.719142
0.596677
2.07052
0.970701
2.22143
2.48339
0.837522
1.82052
0.488744
2.04361
2.27328
0.76271
2.12428
0.977782
0.882384
2.12269
0.852859
0.752348
2.03139
2.10298
0.901455
0.715444
0.666641
0.774454
0.753727
0.794901
0.745624
0.547887
0.778619
0.751435
0.766271
0.920904
0.913291
0.478751
2.07264
0.756914
2.20765
0.828363
2.19156
2.06426
2.08447
2.41735
2.01546
0.749492
0.785589
0.688079
0.628465
0.739864
0.530556
0.812597
0.818281
0.903368
2.18067
0.799235
2.09089
0.599954
0.846022
2.49041
2.05846
0.51937
0.847549
0.868202
0.877443
0.781176
0.707932
0.993878
0.583317
2.04112
0.932825
1.98714
2.07937
2.26749
2.34809
2.08766
2.12852
2.09412
1.06331
0.666158
0.784822
0.732383
2.07894
0.767371
2.4951
0.95964
0.844695
0.861514
0.876393
0.614952
1.97277
0.872623
2.01386
2.16721
0.598488
0.745724
0.908227
2.07332
0.919624
0.774087
0.666936
0.743366
0.881211
0.7966
2.10747
0.731502
0.746527
0.798891
0.822849
2.63935
0.5149
0.478535
1.99991
0.77888
0.144978
0.142985
0.138865
0.133439
0.127173
0.120232
0.112889
0.105396
0.0980583
0.144716
0.14201
0.137627
0.132145
0.125917
0.11919
0.112206
0.105266
0.0987326
0.144146
0.14099
0.136412
0.130896
0.124774
0.118287
0.111683
0.10525
0.0993215
0.143625
0.140175
0.13543
0.129909
0.123918
0.117683
0.111438
0.105441
0.0999547
0.143456
0.139786
0.134893
0.129381
0.123524
0.117531
0.111609
0.105967
0.100785
0.143915
0.140053
0.135017
0.129513
0.123777
0.118001
0.112359
0.107011
0.102078
0.145308
0.141236
0.136038
0.130523
0.124883
0.11929
0.113884
0.10879
0.104099
0.148048
0.143615
0.138206
0.132645
0.127064
0.121611
0.116395
0.111515
0.107049
0.152474
0.147427
0.141763
0.136121
0.130563
0.125204
0.120124
0.115395
0.111075
0.158553
0.15282
0.146935
0.141199
0.13563
0.130315
0.125311
0.120662
0.116385
0.165931
0.159885
0.153927
0.148115
0.142509
0.137186
0.132196
0.127562
0.123271
0.17424
0.168791
0.16296
0.157099
0.15142
0.14603
0.140988
0.136312
0.131993
0.184452
0.179987
0.174313
0.168364
0.162541
0.157003
0.15183
0.147047
0.14266
0.198188
0.194021
0.188245
0.182065
0.175978
0.170181
0.164774
0.159795
0.155257
0.216059
0.211149
0.204862
0.198239
0.191738
0.185554
0.179793
0.174494
0.169648
0.237714
0.231195
0.224049
0.216793
0.209736
0.203043
0.196818
0.19111
0.185916
0.261589
0.253604
0.245525
0.23754
0.229829
0.222532
0.215756
0.209558
0.203977
0.286664
0.277867
0.269002
0.260291
0.251881
0.24392
0.236519
0.22975
0.223661
0.312923
0.303787
0.294327
0.284936
0.275821
0.267161
0.259087
0.251682
0.244997
0.340591
0.331414
0.321485
0.31146
0.301651
0.292291
0.283528
0.275463
0.268163
0.370039
0.36094
0.350559
0.339907
0.329428
0.319393
0.309961
0.301238
0.293297
0.4018
0.392633
0.381657
0.370337
0.359227
0.348587
0.338557
0.329233
0.320681
0.436816
0.426787
0.414839
0.402768
0.391103
0.38
0.369526
0.359745
0.350746
0.476432
0.463524
0.449971
0.437103
0.425054
0.413734
0.403075
0.393068
0.383802
0.522088
0.502258
0.486617
0.473142
0.461052
0.449903
0.439431
0.429546
0.419482
0.245645
0.245584
0.24606
0.247069
0.248625
0.250722
0.253359
0.256516
0.260182
0.264319
0.268894
0.273865
0.279171
0.284756
0.290537
0.296438
0.302371
0.308239
0.313945
0.319387
0.324452
0.329021
0.332952
0.336043
0.338111
0.338998
0.338845
0.337646
0.335266
0.331611
0.326901
0.321196
0.314513
0.306977
0.298705
0.289815
0.280432
0.27068
0.260689
0.25059
0.240511
0.23058
0.22091
0.211608
0.202773
0.194485
0.18681
0.179801
0.173484
0.167878
0.162978
0.158766
0.155221
0.152304
0.149985
0.148224
0.146991
0.146254
0.145985
0.244661
0.244929
0.245686
0.246939
0.24869
0.250934
0.253667
0.256878
0.260551
0.26466
0.269172
0.274045
0.279227
0.284658
0.290268
0.295979
0.301705
0.307355
0.312832
0.318035
0.32286
0.327198
0.330934
0.333938
0.336062
0.337146
0.337078
0.335806
0.333339
0.329752
0.325141
0.319566
0.31308
0.305754
0.29768
0.288963
0.279719
0.270071
0.26015
0.250087
0.240014
0.230059
0.220345
0.210984
0.202077
0.193712
0.185957
0.178863
0.172459
0.166758
0.161755
0.157431
0.153768
0.150729
0.148275
0.146367
0.144966
0.144045
0.143565
0.240633
0.240952
0.241746
0.243023
0.244785
0.247032
0.249757
0.252948
0.256585
0.260645
0.265094
0.26989
0.274984
0.280318
0.285825
0.291429
0.297047
0.302592
0.307968
0.313075
0.317809
0.322059
0.325704
0.328614
0.330655
0.3317
0.331658
0.330476
0.328146
0.324706
0.320224
0.31477
0.308409
0.301218
0.293287
0.284714
0.27561
0.266094
0.256291
0.246332
0.236346
0.226461
0.216801
0.207479
0.198599
0.190248
0.182498
0.1754
0.168986
0.163267
0.158239
0.153885
0.150176
0.147081
0.144563
0.142587
0.141119
0.140131
0.139588
0.23333
0.233665
0.234467
0.235741
0.237491
0.239713
0.2424
0.24554
0.249114
0.253097
0.257457
0.262155
0.267142
0.272363
0.277753
0.28324
0.288743
0.294174
0.29944
0.304439
0.309067
0.313212
0.316756
0.319577
0.321555
0.322578
0.322562
0.321453
0.31924
0.315947
0.311625
0.306335
0.300148
0.293142
0.285405
0.277035
0.268137
0.258827
0.249228
0.239464
0.229665
0.219957
0.21046
0.201289
0.192546
0.184319
0.176678
0.169675
0.163342
0.15769
0.152718
0.148408
0.144736
0.141668
0.139167
0.1372
0.135733
0.134741
0.134188
0.223759
0.224113
0.224922
0.226191
0.227924
0.230116
0.232762
0.235849
0.239358
0.243265
0.247539
0.252139
0.257021
0.26213
0.267403
0.272768
0.278147
0.283453
0.288592
0.293467
0.29797
0.301993
0.305423
0.308146
0.310053
0.311049
0.311057
0.31003
0.307949
0.304825
0.300696
0.295614
0.289645
0.282866
0.275365
0.267237
0.258587
0.249527
0.240178
0.230664
0.22111
0.21164
0.202375
0.193425
0.184891
0.17686
0.1694
0.162563
0.156379
0.150861
0.146008
0.141801
0.138216
0.13522
0.132778
0.130855
0.129421
0.128449
0.127905
0.212015
0.212348
0.21313
0.214366
0.216058
0.218205
0.220798
0.223824
0.227266
0.231097
0.235287
0.239797
0.244581
0.249584
0.254744
0.259991
0.265247
0.270426
0.275436
0.280181
0.284558
0.28846
0.291781
0.294416
0.296264
0.297241
0.297277
0.29633
0.294377
0.291423
0.287496
0.28264
0.276919
0.270405
0.263183
0.255346
0.246994
0.238237
0.229195
0.219988
0.210741
0.201573
0.192603
0.183938
0.175679
0.167909
0.160695
0.154087
0.148117
0.142797
0.138124
0.13408
0.130641
0.127774
0.125444
0.123618
0.122263
0.121352
0.120853
0.198401
0.198691
0.199424
0.200607
0.202243
0.20433
0.206861
0.209824
0.213199
0.216961
0.221077
0.225507
0.230205
0.235117
0.240179
0.245323
0.250471
0.255538
0.260434
0.265063
0.269327
0.273123
0.276351
0.278915
0.280721
0.281691
0.281764
0.280902
0.279079
0.276294
0.272571
0.267949
0.262491
0.256267
0.249354
0.241845
0.233834
0.225426
0.216743
0.207901
0.199017
0.190208
0.181588
0.173264
0.165334
0.157878
0.150965
0.144641
0.138939
0.133869
0.129427
0.125598
0.122354
0.119663
0.117489
0.115799
0.11456
0.113745
0.113321
0.182884
0.18307
0.183701
0.184788
0.186336
0.188346
0.190809
0.193713
0.197038
0.200753
0.204825
0.20921
0.213856
0.218706
0.223701
0.228776
0.233857
0.238854
0.243681
0.248234
0.252418
0.256133
0.259296
0.261822
0.26361
0.264598
0.264728
0.263967
0.262279
0.259659
0.256134
0.251739
0.246547
0.240632
0.234051
0.2269
0.21927
0.211255
0.202986
0.194565
0.186102
0.177708
0.169491
0.161559
0.154009
0.146919
0.140361
0.134379
0.128999
0.12423
0.120069
0.116499
0.113495
0.111026
0.109057
0.107553
0.106481
0.10581
0.105509
0.165357
0.165347
0.165803
0.166751
0.168201
0.17015
0.172575
0.175441
0.178754
0.182518
0.186639
0.191059
0.195712
0.200528
0.205479
0.210498
0.215555
0.220601
0.225466
0.230007
0.234142
0.237793
0.240915
0.243423
0.245232
0.246276
0.24651
0.245891
0.244356
0.241877
0.238524
0.234347
0.229418
0.223827
0.217623
0.210819
0.203544
0.196018
0.188267
0.180329
0.17235
0.164441
0.156691
0.149196
0.142047
0.135358
0.129195
0.123637
0.118681
0.11428
0.110424
0.107124
0.104374
0.102147
0.100405
0.0991205
0.0982616
0.0977932
0.0976823
0.764981
0.717606
0.675091
0.634291
0.59423
0.554585
0.515622
0.477804
0.441603
0.40749
0.376501
0.349478
0.326716
0.307942
0.292125
0.278871
0.268397
0.260663
0.255287
0.251715
0.249449
0.248052
0.24712
0.246255
0.24499
0.728675
0.701663
0.667244
0.629739
0.590873
0.551503
0.512358
0.474163
0.437606
0.403419
0.372367
0.34498
0.321493
0.301863
0.2858
0.27299
0.263155
0.255981
0.251078
0.247988
0.246245
0.245419
0.245133
0.245046
0.244823
0.721686
0.694141
0.660852
0.624088
0.585348
0.545705
0.50612
0.467491
0.430642
0.396327
0.365165
0.337575
0.313789
0.293864
0.277692
0.265037
0.255549
0.248804
0.244343
0.241695
0.240395
0.240008
0.240145
0.240459
0.240656
0.720978
0.689855
0.654962
0.617314
0.577933
0.537758
0.497729
0.458762
0.421698
0.387259
0.355999
0.3283
0.304396
0.284384
0.26821
0.255662
0.246376
0.239887
0.235699
0.233318
0.232271
0.23212
0.23247
0.232976
0.233322
0.721723
0.687108
0.64984
0.610534
0.569954
0.528909
0.488254
0.44885
0.411489
0.376846
0.345439
0.317636
0.293671
0.273648
0.257518
0.245066
0.235916
0.229587
0.225559
0.223318
0.222382
0.222311
0.222718
0.223272
0.223704
0.722075
0.684385
0.644626
0.603407
0.561399
0.51931
0.4779
0.437955
0.400207
0.365286
0.333692
0.305784
0.281789
0.261799
0.245747
0.233395
0.224349
0.218115
0.214156
0.211947
0.211001
0.210884
0.211218
0.211688
0.212032
0.722063
0.681358
0.639038
0.595813
0.552286
0.509058
0.466789
0.426198
0.38797
0.352701
0.32088
0.292864
0.268868
0.24895
0.233008
0.220773
0.211823
0.205649
0.201705
0.199454
0.198406
0.198129
0.198254
0.198463
0.198562
0.721811
0.67776
0.63279
0.587568
0.542534
0.498141
0.454948
0.413618
0.374827
0.339145
0.307059
0.278936
0.254983
0.235185
0.219401
0.207315
0.198471
0.192346
0.188389
0.186054
0.184838
0.184306
0.184077
0.183799
0.183374
0.720817
0.673176
0.625627
0.57854
0.532102
0.486568
0.442427
0.400256
0.360806
0.324653
0.292246
0.264024
0.2402
0.220594
0.205032
0.19315
0.184433
0.178359
0.174395
0.171977
0.170564
0.169744
0.169022
0.167929
0.166468
2.60018
2.5568
3.71232
5.06632
0.122768
0.143371
1.33038
0.0817843
3.36182
0.0962967
2.65935
0.157268
0.916169
0.180081
1.43412
0.159048
2.84689
4.92131
0.0912469
1.04363
0.736833
0.154391
3.07628
0.302466
0.0691266
0.107786
0.0686014
0.47514
2.7373
2.82341
0.0935084
0.119389
4.0797
1.0144
2.80214
0.108989
1.38739
1.44007
1.50696
0.162778
4.12989
0.0342957
0.133922
0.905566
0.345214
0.193203
3.40689
4.0169
2.94619
3.53104
3.22777
3.87292
0.714921
4.9381
1.29189
3.39648
0.167187
0.707441
0.0915498
3.74134
0.129677
3.94569
0.122064
0.168292
0.0840799
0.808828
0.128789
0.844396
0.992205
3.30289
3.46367
0.179131
0.090673
1.07696
0.0848161
0.725992
1.15888
4.02378
0.0850656
4.74017
0.939894
0.154262
0.0963732
2.5452
0.120926
0.132573
0.0870783
4.03274
4.09814
0.219541
0.274018
0.160061
0.107273
0.162628
0.0990998
2.68602
0.10888
2.80777
0.0698242
3.72752
0.289747
4.14948
0.314723
0.182984
0.0851336
0.389125
3.25618
0.906207
0.0412156
2.84184
0.158305
0.0917044
3.42594
0.179011
0.70837
2.93409
3.8457
0.154068
0.741105
0.0741089
0.0107746
0.0971326
0.307467
0.0699091
4.13817
0.131751
3.89549
0.973742
0.0967008
4.015
0.093744
1.07956
3.28892
1.46272
0.558575
0.0866716
0.334726
0.222551
0.129685
1.05076
0.151561
1.41515
3.76139
0.0138472
2.81637
0.174047
4.96466
0.953178
0.157473
2.73261
0.598552
0.188365
5.06568
1.54977
0.0906603
2.51403
0.0760656
0.153682
1.25579
0.114346
0.131298
3.40517
0.141555
2.92694
0.11884
2.86638
0.187275
0.0677418
0.191099
0.0796162
0.166956
0.175047
0.822573
2.677
0.12826
0.428214
0.988885
3.03621
3.17551
0.153766
1.18992
0.116532
0.716628
1.18476
0.732977
0.0724207
3.00986
0.0344533
3.6826
0.146825
3.94062
3.7462
3.19029
1.37952
1.47428
3.81469
0.0821011
0.151455
2.88105
2.64718
1.3991
0.216394
0.147797
0.149175
0.474896
0.109586
0.134685
0.311392
3.04958
0.143754
0.0847469
0.134657
1.19246
0.453861
0.689057
4.17725
0.104125
0.0818806
0.217585
0.269423
0.262162
0.0397073
0.0914072
4.14178
1.99256
3.91125
0.211465
2.86994
0.0425333
0.0953557
2.40461
0.111163
0.115071
0.0860513
1.4781
0.101092
1.31894
0.352723
1.21699
1.59245
0.0964756
0.128866
0.118503
0.649781
0.0881288
0.0899699
0.121871
0.41876
0.157483
0.112752
0.039392
0.454164
0.110428
2.96036
0.100604
0.0683588
3.26434
1.17373
1.27395
0.0912558
0.628432
0.1042
0.127977
0.0862745
1.09603
0.0705247
0.110002
4.95775
1.32864
0.0674674
0.79525
3.15837
0.0769606
0.0784131
0.09338
4.8611
0.144372
3.19467
0.176879
3.86153
0.877323
0.619757
0.704524
0.192409
3.19173
0.139324
0.408076
3.34248
3.36512
3.97098
1.56906
0.147197
0.0232667
3.45907
1.81515
4.19652
4.12141
0.144988
0.116254
3.45951
3.80429
0.130732
0.198771
0.153377
4.08701
0.113276
0.738601
0.112161
1.048
0.152213
0.181166
0.137848
3.88621
0.0916755
0.0744056
1.4112
3.67926
0.112914
0.0696011
1.87742
1.26266
0.123205
0.209858
0.09285
0.0895957
0.0710491
3.80535
0.920935
0.140851
0.716916
0.117164
1.46476
0.229515
0.09795
4.03039
0.137749
0.10474
0.101819
0.00410545
0.674995
0.130523
0.163021
3.57247
0.133792
1.09901
0.104277
0.164588
0.097075
0.0843256
3.20983
3.01636
0.107673
0.051894
1.28441
3.51198
1.71768
2.05286
0.918686
0.118931
3.36862
3.09363
2.78424
0.108108
3.87009
0.0310305
0.0826288
0.181143
3.8505
0.123626
3.61422
0.161493
1.53741
2.76685
3.87452
0.910296
0.0708592
0.0792416
0.119416
0.115646
0.0995678
4.13539
0.166782
4.12846
0.972519
0.946803
2.00471
0.119925
1.04208
2.56103
3.94332
1.01722
0.109916
0.318753
3.87894
1.15005
0.0928983
0.114133
4.0445
0.153797
2.76431
0.0815017
0.136108
0.120425
3.22279
0.159045
0.000891585
1.36618
0.332834
1.2168
0.0965211
3.26264
0.124612
3.45397
0.126664
0.115436
0.51778
2.98339
3.2145
0.137494
0.158427
0.12172
0.117028
0.228709
0.343395
0.186508
3.9323
0.00328919
0.223479
0.105725
0.119613
0.144828
0.0689147
0.224486
0.0866644
1.52089
0.175778
0.157901
0.0186275
0.0980082
0.238755
0.112409
1.5905
3.55158
1.07575
1.04623
4.88681
0.389691
3.56136
0.0862638
0.0840894
3.855
0.124477
0.139386
3.35069
0.136161
3.25832
3.22494
0.133216
0.284464
1.01609
0.149535
0.712623
3.19331
1.14439
3.88086
0.0786443
0.0887545
4.16214
0.110959
2.60738
0.399055
0.0785117
2.7751
0.247999
0.0704189
0.95426
0.208298
0.0731714
0.97556
0.916198
0.701411
1.48005
0.0101973
0.157977
2.50041
0.109398
0.152663
0.195908
3.03962
0.15925
1.44406
0.148678
0.0779382
3.79779
0.120247
0.107107
1.4267
0.138471
0.109597
3.5874
0.133263
1.53509
0.125998
0.569284
0.96318
1.05765
0.146454
0.146038
1.36821
0.120157
0.134907
0.986473
0.127952
0.198524
0.0692947
3.8285
4.14023
3.02058
0.0714129
0.782426
0.109371
3.96829
1.04669
5.87044
1.04135
0.202613
3.90717
4.24876
0.110421
0.18914
0.437626
0.165523
4.67234
3.68874
0.074636
1.24364
0.136637
3.24115
2.94166
0.153489
1.86881
2.80881
0.149109
3.46574
0.0622943
3.9827
0.12309
0.232227
0.138738
3.15962
1.42569
1.45124
0.0962909
3.00288
3.00958
3.78795
0.0878315
0.127438
0.812424
3.1566
0.108762
1.41768
0.137558
0.913874
2.7421
0.0932031
0.767733
0.0899596
0.120509
0.751102
3.95322
0.212131
1.39532
0.0959112
0.123282
3.42565
3.40834
3.2027
0.255727
0.782143
1.07669
0.710975
0.212555
0.11079
0.0846682
4.02496
0.143536
0.144495
1.89662
0.205796
0.183377
0.141735
0.16431
1.47743
0.137615
0.0951359
0.958696
3.04272
0.112113
0.115261
3.58556
0.477836
0.0360128
0.223118
0.96418
0.103547
0.140754
0.10459
2.96531
0.123995
0.134827
1.48183
0.0891131
0.187017
0.348678
0.728597
0.10546
0.161609
4.19541
0.179906
0.0758728
0.121998
0.125191
0.247404
0.146443
3.70577
3.68162
0.440176
3.93857
0.119701
0.0678011
0.0749099
0.0595608
0.174824
0.0723549
0.769775
0.219864
0.0913294
0.171882
1.36501
0.741847
0.221592
0.803909
0.146233
0.135241
0.0906112
0.307195
1.21222
3.68812
1.48189
1.29587
0.0703395
0.0958665
0.0464215
0.207996
0.101651
3.43225
0.0929185
0.780773
0.114777
3.27052
4.41749
2.59034
0.00783987
0.0760874
0.0818221
4.25498
3.59747
0.696297
0.710216
0.141265
0.0955099
0.116694
3.76759
0.023072
0.114132
1.44034
0.10525
0.166503
0.102417
0.0748781
0.726156
0.231283
0.100645
0.110236
0.255183
0.118641
2.85759
3.63391
0.120912
1.39
0.142372
2.659
0.0873967
0.130012
0.113819
0.100858
1.96641
0.134444
0.135877
0.0913973
0.697989
0.10458
0.198919
0.174865
3.83917
1.38429
0.557836
4.00573
1.46825
3.11477
2.80436
0.0926692
0.0755996
0.0765526
0.0018736
0.144578
0.875093
0.166388
0.104174
0.842911
0.103645
0.100755
0.511957
0.119999
0.11289
0.0840521
0.555308
0.977014
4.22897
0.0950646
3.26377
1.27543
2.98441
0.791117
4.24669
3.3338
4.77393
0.0769396
0.153741
0.0137508
0.593859
0.133767
1.88437
2.96047
0.122573
1.24236
1.10394
0.0999092
0.0838743
0.122961
3.56328
4.01224
0.101279
1.36885
1.51716
0.747116
3.46161
9.10457e-05
0.111741
0.521032
0.0185971
2.81486
1.26077
2.92002
1.50798
0.0697501
1.51502
0.0698414
0.0055245
0.683167
0.171936
0.246946
0.114345
0.133558
1.26872
0.153895
0.0826363
0.133119
0.142468
1.17878
0.163263
3.79579
1.45048
0.145876
2.92046
0.174014
1.06585
0.139402
0.113605
0.160663
0.864937
0.641862
0.0215019
0.168246
3.25513
4.02223
1.15776
0.131679
0.971612
1.70209
1.42724
4.69862
1.41126
0.242058
0.140621
3.09514
0.0643665
0.0792499
0.300578
3.81269
3.57003
0.116459
0.11019
3.54763
0.0727035
3.84995
3.42602
0.161273
0.114947
3.33578
2.87472
2.79281
0.116107
0.110576
0.0551038
0.943405
1.39287
0.123284
0.0738715
0.114926
1.14608
0.181996
0.596668
2.98283
0.0949097
0.12194
5.36709
0.0968994
0.810072
0.074033
0.841068
0.124643
0.0898322
1.7627
0.174116
0.125544
0.109751
0.485937
0.816929
4.02966
0.0875838
0.112734
0.131756
1.40155
1.05911
3.93941
0.0705667
1.22557
1.45568
0.00189397
0.0787808
0.141901
2.41841
0.13638
1.12857
0.169694
0.00395663
1.27346
0.149741
6.06483
4.42404
0.927501
3.79044
3.81797
3.54992
0.0973537
3.86315
1.37462
0.152358
1.29613
0.106654
0.143324
1.04009
0.133238
0.25693
0.809093
4.34078
0.110219
0.0928534
3.8756
0.213022
0.154803
1.36302
2.97878
2.06378
0.115812
0.334494
4.00759
2.8905
1.75051
0.780718
3.44356
0.265384
0.0743599
0.863756
3.1221
0.127725
1.84254
0.209449
3.4051
0.174754
1.06424
2.71274
0.0148592
0.127805
0.117225
3.38263
1.85007
3.35413
2.88193
0.21195
0.528452
0.739154
0.274212
2.90159
0.703022
0.108544
0.145404
0.133945
0.0688089
0.998919
2.71111
0.0143741
3.36843
0.171196
1.33236
0.104969
0.103016
0.0794408
3.70231
3.31336
0.453564
0.818255
0.117037
0.0952281
1.54354
0.103541
1.96863
1.53225
4.06892
0.0827945
0.837787
1.55721
0.157869
0.200245
0.145534
4.11125
0.15041
0.262353
1.3333
1.39472
0.0895399
0.27153
0.108489
0.170742
0.0994246
0.100304
0.748556
0.0909075
0.375919
3.26195
1.05549
3.73418
0.141609
0.360408
0.888975
0.0943724
2.79394
0.12934
0.177239
3.60772
0.167488
0.579541
0.255687
0.0675402
3.01032
0.102778
1.04999
0.0725633
1.31173
1.39931
3.86918
0.0882123
1.21781
0.118922
1.01855
0.16105
3.55195
1.23924
0.515435
2.8248
0.164929
3.28395
0.129157
2.95268
0.160849
0.0772754
0.148216
1.10245
1.45745
0.0713819
0.114753
1.0588
0.10819
0.121746
0.0878341
0.0678227
0.157221
4.00835
0.186971
0.139652
1.49643
0.476977
3.53559
0.0608805
0.134392
0.113123
1.21137
0.205417
0.141942
4.28302
1.41297
0.891468
0.111885
0.281591
0.967517
3.42322
0.114637
0.108901
0.17784
0.200576
0.124363
1.84181
3.93425
5.16045
0.825244
0.11351
1.56317
4.13342
0.405184
1.03615
0.161542
3.01081
2.69634
3.3918
0.124978
0.12949
0.34456
3.34054
0.214924
3.85221
0.216585
0.721203
3.17804
0.0943445
0.174594
0.184172
0.0987422
0.0936292
0.378413
2.94096
0.0934824
3.88441
0.124532
0.117195
0.0896223
0.100456
0.739085
0.150341
1.07788
1.0222
0.112358
0.183572
2.91406
2.52336
0.108072
0.137419
0.174629
2.15556
4.68553
0.380858
3.82647
0.104526
0.0995358
0.762143
0.120548
0.457836
1.54406
0.113014
0.0837551
0.0233895
0.2015
1.15706
4.20919
1.19952
0.101824
0.36336
0.0995545
4.11116
4.14719
0.120605
0.0984548
1.25552
0.129985
0.100583
2.73349
2.86777
0.290732
0.102335
0.101557
0.628835
3.02292
0.15246
0.115904
2.83715
3.32851
0.00374545
0.113333
0.133143
0.173085
0.984867
0.734738
0.129281
1.39764
0.130728
0.147231
0.104696
0.742738
0.110597
3.41319
3.1368
4.03735
2.78977
2.02595
5.95275
0.120728
3.9238
0.776864
0.0903714
0.513211
0.0213074
0.324734
0.123085
0.116058
0.0771351
3.59525
0.0770454
0.449067
1.54042
0.179498
0.34858
0.972518
3.37519
0.0534307
3.5692
2.82405
0.176581
0.101257
0.312076
0.591303
0.280737
1.20679
4.24476
0.151517
0.0857083
0.129278
1.21056
4.1151
0.16977
0.199474
0.0709585
0.106864
0.14517
0.521749
0.0983724
0.205551
0.307671
3.09478
0.111935
0.360433
3.00494
0.149137
0.366596
0.31533
4.52845
0.395382
1.27977
0.747126
0.14021
5.51748
3.19704
0.110141
0.915746
1.44026
0.115615
0.157492
0.15651
1.38001
0.119562
0.925089
0.110908
1.54077
3.43697
0.988162
3.04622
0.385747
0.1397
1.07417
1.18302
0.19146
0.187223
0.174888
2.70258
0.15705
0.395984
0.110283
0.20142
0.854836
0.137678
0.0897385
0.106986
3.43666
1.04355
0.0985634
0.19725
0.093729
0.120912
0.139365
2.88311
0.185775
1.27001
3.78731
0.932961
0.00685534
1.22081
2.76322
1.05449
3.114
0.272218
1.52028
3.84823
3.67287
0.0404958
3.11317
0.113451
3.29576
3.62153
0.0972798
0.968749
1.38468
3.97841
1.10481
0.410879
0.128951
1.32485
3.47829
2.05943
3.87779
0.201876
1.05224
0.104401
3.2482
0.482992
0.0842264
0.141821
1.02517
0.0917337
0.260535
1.04541
0.115251
2.90844
0.0732069
0.132217
2.09327
1.30671
0.204478
0.734172
1.47624
0.208565
0.825655
2.49461
0.118739
0.510394
0.113573
3.27681
1.33203
0.0732273
4.24333
0.111229
0.741989
2.41143
0.142277
0.106159
0.722792
0.991696
1.31004
0.0979894
3.93294
0.155962
0.809573
4.05086
0.561049
0.194494
1.97567
0.172028
0.125674
0.0126902
1.3213
3.57645
0.125343
3.99546
0.349022
0.142373
1.34619
0.154819
0.14538
1.10614
0.173692
0.113935
1.74724
0.103598
0.140802
0.182495
3.36424
3.30287
0.245378
0.105341
0.098751
1.13783
3.96136
0.11723
0.110916
0.38916
4.0388
0.120973
1.26261
1.11307
0.0791342
0.764533
3.95825
0.112534
0.279663
0.10952
2.84733
0.10279
0.123785
0.21695
0.57434
3.44272
0.0696436
3.86896
0.0981334
2.73868
0.130181
1.28157
0.603066
1.08139
3.04642
0.190779
0.799909
0.204615
0.17892
0.181738
3.1718
3.27291
0.116397
0.119576
1.20352
0.182078
0.15437
0.0775651
4.17635
3.67492
1.01371
3.94709
0.194895
0.0795512
1.17884
0.335131
2.9998
0.0673479
0.158461
0.0816756
0.148857
0.12183
0.134138
0.126368
0.517509
4.28357
3.2857
0.101339
0.346013
0.912673
3.51699
0.131494
4.14568
3.0038
3.72946
0.161098
1.02346
0.0967037
0.192866
0.145375
0.155325
0.0915296
2.82893
4.17147
0.164771
0.418608
1.04373
0.389245
3.32244
4.02272
0.133053
0.0910685
0.146486
0.369921
1.12086
0.0891613
3.13833
0.90702
0.121192
0.220133
0.193791
0.653531
0.202221
0.105471
0.11273
0.103139
0.222807
0.824315
0.179661
3.9862
0.166135
0.143628
0.564299
0.203501
0.116141
3.75887
3.37493
0.145626
3.40223
0.0960867
1.22839
0.166183
0.205932
0.111433
0.0822079
3.23886
0.168516
0.184427
3.66758
2.85548
0.0982775
0.103538
0.111915
0.190419
1.482
0.00830324
0.133655
4.06884
0.127517
0.0964204
0.170554
3.75767
0.137217
3.36891
3.07969
0.130651
4.22427
0.182026
0.0675252
4.26767
2.1485
0.093765
0.00683924
0.731201
0.212858
0.213588
0.0958262
1.42589
2.85436
0.153004
0.0884505
3.30331
0.123869
2.93344
1.71183
0.140741
0.936055
3.96847
0.0928916
1.08141
0.114883
0.168567
0.196024
0.122147
3.57291
3.14032
0.136641
0.100192
3.68746
0.149787
0.202823
0.243876
0.998921
1.39771
0.0775175
0.110464
0.09973
0.121698
0.0751735
0.00208593
0.184791
0.192417
3.43075
0.743464
0.117817
1.98285
0.205793
1.10115
3.98172
1.11225
3.56072
0.631883
0.00518537
0.763546
0.197922
0.127857
2.97981
0.159852
5.28693
3.24684
0.764408
0.154575
3.687
0.0765566
3.55247
0.135172
0.142356
3.66411
0.482753
1.10346
0.147489
0.128542
0.0877799
0.17274
1.46419
1.42044
0.12169
2.78971
0.580811
3.2904
0.0911093
4.23823
0.143697
0.121026
0.428472
0.106535
0.737558
3.66458
0.8902
0.083098
3.20014
1.39235
2.09925
1.04959
0.768695
0.0467758
0.821918
3.63015
0.105404
0.126454
0.125103
3.84156
0.173749
0.0983644
1.35652
0.841841
0.374389
4.18693
1.04473
0.311386
0.380514
1.33529
0.21087
0.865668
0.110217
0.116107
0.119592
3.60735
0.153365
1.21892
3.34955
0.0693557
1.06367
3.15225
0.118404
2.64305
0.111643
0.846897
0.196469
0.0709779
0.170218
0.101361
0.0691547
0.186506
0.161798
0.158213
0.212657
3.20598
0.866163
0.142035
0.841031
0.105334
0.131268
0.116572
0.130211
0.165955
1.55393
0.0815552
1.96121
3.42044
1.53164
1.16668
1.62373
0.17964
3.39671
0.119736
1.07864
0.145438
0.133536
0.254199
2.84988
0.186082
0.114838
0.104717
0.331068
0.232071
1.51488
0.783127
1.61664
2.98165
0.125997
0.100255
4.61296
0.121321
0.150458
0.0746038
0.257233
0.0936899
0.0953484
0.165459
0.0920454
1.20454
3.48829
1.95186
0.225703
0.103337
1.0375
3.71321
3.13055
0.0793172
0.138413
0.937699
0.109078
0.0752375
0.207393
3.42362
0.920713
0.105602
0.122992
0.165802
0.0811735
3.34286
0.139956
0.139606
0.145784
0.147305
3.19971
0.107848
1.55332
0.471573
0.182233
0.112152
0.0965246
3.4983
0.541579
0.111389
3.98851
0.943728
0.831131
0.0841433
0.12854
1.31333
4.23094
4.1653
0.0928967
1.03116
0.108265
0.0958801
3.42637
3.13578
0.0700567
0.00225335
1.15727
1.49185
0.10403
0.071756
3.31294
0.117596
1.3889
0.246374
0.163362
4.6973
0.105275
0.116626
0.171185
2.86091
0.106327
0.0800078
0.115634
0.142954
0.368177
0.191266
0.722439
0.916335
0.871723
0.141101
0.128322
0.102618
0.125059
0.14529
0.126708
0.841555
0.144028
0.16836
1.96241
3.68353
0.107247
0.0818738
0.168434
3.58534
0.134643
1.05403
0.0640466
0.100562
0.0195032
0.147166
0.109901
3.93641
0.151419
0.0895085
1.5548
0.106433
1.40368
0.136218
0.111285
3.72198
3.67334
0.0735665
3.26649
0.109321
1.15385
3.60422e-05
3.39695
0.102159
1.79404
0.125321
3.51977
0.684329
1.26521
3.01129
3.9168
0.164221
3.92142
0.0834291
0.0908652
0.0803748
3.52209
0.29932
0.0821091
0.926944
2.5103
2.99634
0.20511
4.13887
0.109963
0.193087
0.110002
0.654473
0.24001
1.61921
0.12621
0.166418
0.103
0.0986005
0.195951
3.30074
0.110226
0.100146
4.00632
0.766358
0.0719216
0.255204
3.65257
0.136313
0.123967
3.77426
0.20859
3.68853
1.33321
0.118008
0.553743
1.01414
0.0250767
0.189214
0.106482
0.0751317
0.203
0.20861
3.5214
0.0796769
1.15822
0.363793
0.147803
3.45818
1.53381
0.187369
0.119809
0.0688034
0.0998355
0.0729772
1.55658
2.6861
0.110378
0.131388
0.147087
1.23945
0.196299
0.995731
0.163145
0.130356
0.150999
0.170547
1.75235
0.191782
0.808467
1.23527
0.000618095
1.40417
0.132592
1.02628
0.683049
0.128285
0.125035
0.21598
0.102704
0.178188
1.29164
3.76595
3.79163
3.1926
0.954208
0.014112
0.0724217
1.36326
0.0840179
1.45886
4.04458
0.106045
2.61886
1.03141
2.48345
0.174369
0.0829948
0.130277
0.10389
3.26522
0.108847
3.44865
0.519472
0.318706
0.0845223
3.13556
1.26207
0.143254
0.104309
2.18917
0.176671
0.129686
0.893671
1.01159
0.104109
0.0955491
2.85801
0.111938
1.20686
0.14696
0.138899
0.198027
3.13152
0.0153928
0.0332242
0.10897
0.106084
0.353883
0.100573
3.68764
0.454471
0.0327391
0.149013
0.0909682
0.967753
0.283576
0.0678982
1.54443
3.57194
0.16606
1.07885
0.116565
3.22827
0.852715
0.245469
0.307038
0.130675
0.0911451
0.0854556
0.763611
0.751219
0.0959882
0.315051
1.41589
3.45969
1.95647
1.15575
0.329934
0.118178
2.94368
0.187894
0.118491
0.0890355
0.204878
1.0954
4.22201
0.186486
0.998047
0.128906
0.890279
3.2633
3.56979
3.78529
3.49905