/*--------------------------------*- C++ -*----------------------------------*\
  =========                 |
  \\      /  F ield         | OpenFOAM: The Open Source CFD Toolbox
   \\    /   O peration     | Website:  https://openfoam.org
    \\  /    A nd           | Version:  10
     \\/     M anipulation  |
\*---------------------------------------------------------------------------*/
FoamFile
{
    format      ascii;
    class       volScalarField;
    location    "1600";
    object      nut;
}
// * * * * * * * * * * * * * * * * * * * * * * * * * * * * * * * * * * * * * //

dimensions      [0 2 -1 0 0 0 0];

internalField   nonuniform List<scalar> 
10435
(
0.527178
0.433864
0.538883
0.500525
0.480804
0.524657
0.5504
0.662856
0.802586
0.536991
0.45951
0.534337
0.550661
0.811189
0.742243
0.580598
0.88103
0.564168
0.879854
0.523514
0.616463
0.544141
0.553033
0.780972
0.522755
1.31344
1.30344
0.539458
1.20874
0.54853
0.516614
0.467682
0.703041
1.19952
0.671195
0.378643
0.614338
1.32466
1.24303
0.857546
0.55469
0.548492
0.879369
0.486904
0.565418
0.822826
0.538346
1.03807
0.826935
0.597338
0.647415
0.497531
1.20739
1.23989
1.26257
1.16896
0.64965
1.2907
1.03843
0.723436
1.22925
0.416699
1.25637
0.4905
0.556118
0.532876
1.10043
1.16475
0.629173
0.759322
1.24492
1.34713
0.77106
0.531715
0.678633
0.693499
0.720979
0.563526
0.740057
0.720924
0.632255
0.585325
1.17086
1.23534
0.65594
0.402296
0.440081
0.454999
0.508373
0.43682
0.462508
0.467801
0.57307
0.477216
0.440735
0.366057
0.479084
0.624864
0.970458
0.474742
0.56538
0.494441
0.451561
0.447598
0.500294
0.492038
0.56896
0.615133
0.685412
0.674548
0.582874
0.489507
0.606512
0.636579
0.468885
0.533725
0.482049
0.400439
0.442713
0.501276
0.490781
0.596433
0.407535
0.342668
0.481064
1.26559
0.491006
0.488331
0.475845
1.42897
0.397771
0.47624
0.615216
0.776955
1.35349
1.03895
0.347699
0.511443
0.43141
0.528452
0.524524
0.531537
1.14519
0.499374
0.558215
0.601136
0.333149
0.499833
0.839807
0.521365
1.09758
0.578215
0.479506
0.515968
0.509399
1.19367
0.483346
0.419082
0.521332
0.46113
0.535327
0.83851
0.461828
0.590955
0.626894
0.481294
0.721109
0.53457
0.618176
0.486666
0.513661
0.858843
1.19824
0.55628
0.55502
0.446642
0.397453
0.992973
0.574819
1.22185
0.447988
0.514768
0.520661
1.22979
0.538355
0.921398
0.740349
0.577236
0.484121
0.496088
0.506292
1.1367
1.41058
0.373932
0.485827
0.60133
0.781511
0.416257
1.0038
0.592808
0.566589
1.25488
0.543539
1.261
0.53715
0.469888
0.453056
0.522424
1.23113
0.570648
1.05729
0.542539
0.49595
0.580379
1.25939
0.759972
0.58935
1.11671
1.32309
0.903605
1.22253
0.988193
1.16265
0.469772
1.27421
0.636422
1.27498
0.45684
0.504337
0.591082
1.0731
0.679413
1.29568
0.589134
1.42223
0.94814
0.677488
1.31853
0.670072
0.511677
0.482151
1.24554
1.06712
1.19869
0.465902
0.763944
0.366659
0.620189
1.00003
0.426554
1.09676
0.535718
0.550732
0.583585
0.595733
0.48214
0.944432
0.579298
1.1224
1.17639
0.565364
0.50531
1.28319
0.65825
0.559518
1.05089
0.479041
0.530268
1.16344
0.472765
0.554118
0.666234
0.619237
0.528492
1.35967
0.510185
1.37988
0.477428
0.585537
0.695914
0.542552
0.887296
0.54616
0.51159
0.507733
1.08675
0.489609
1.2505
1.22937
1.2123
0.39869
0.472173
1.21286
0.642477
1.25642
1.2333
0.681462
0.538864
0.475309
0.518457
1.09617
0.656397
0.541589
1.06485
0.47125
0.686825
0.912315
0.599078
0.523287
1.22155
0.569423
1.2749
0.401906
0.493894
0.759384
1.1985
1.20075
0.509402
1.13642
0.540183
0.507277
1.23435
0.488873
1.10321
0.72838
0.541106
1.40893
0.540024
1.11466
1.35064
0.7729
1.18362
1.21277
0.542826
0.546208
1.24496
1.16267
1.05511
1.18868
1.15885
1.42896
1.27818
1.19691
1.20489
1.16457
1.18769
1.21027
1.44784
1.07039
0.765381
1.20198
0.533531
1.28336
0.541092
0.760436
0.841848
0.551091
0.532934
1.22362
1.21958
1.09748
1.28922
1.13972
1.12423
1.22658
1.43058
1.20571
0.563852
1.39814
0.792384
1.27538
1.44098
0.552846
0.866014
1.04823
1.32502
1.28942
1.37294
1.22706
1.34554
1.57235
1.25767
0.713547
1.18408
0.646058
0.788533
0.544529
0.548702
0.813824
0.538658
0.715004
0.490187
0.956827
1.21835
1.21436
0.539448
1.22855
0.553398
1.53275
1.2272
1.43714
1.19731
1.16324
0.561312
1.33777
0.678475
0.609056
1.00546
1.37933
1.46511
0.86867
1.50731
1.39497
1.21589
1.15098
1.13521
1.20293
0.537635
1.23498
1.35418
1.20384
1.16246
0.558729
0.954987
1.01066
0.882666
1.21062
6.50773
6.5292
6.51961
6.50275
6.49789
6.52679
6.62242
6.83442
7.2429
5.82495
5.84639
5.85369
5.85712
5.87128
5.91486
6.01459
6.2079
6.54412
5.14649
5.16652
5.18209
5.19705
5.22191
5.2719
5.3684
5.53994
5.82132
4.4846
4.50252
4.52109
4.54128
4.57056
4.62093
4.70932
4.85779
5.09227
3.8555
3.87098
3.88934
3.91048
3.93972
3.98633
4.06344
4.18812
4.38102
3.27622
3.28918
3.3055
3.32491
3.35126
3.39161
3.45585
3.55647
3.70882
2.76161
2.77224
2.78549
2.80166
2.82368
2.85681
2.90817
2.98636
3.10121
2.32259
2.33057
2.34007
2.35224
2.36941
2.39551
2.43549
2.49502
2.57977
1.96374
1.96785
1.97308
1.9811
1.99368
2.01365
2.04441
2.08975
2.15329
1.68127
1.68064
1.6817
1.68598
1.69471
1.70977
1.73342
1.76823
1.81683
1.46456
1.46003
1.45801
1.45958
1.46546
1.47683
1.49516
1.52209
1.55932
1.30034
1.29492
1.29177
1.29192
1.29596
1.30469
1.3191
1.34024
1.36921
1.17877
1.17537
1.17278
1.17253
1.17544
1.18225
1.19372
1.21059
1.23355
1.09475
1.09372
1.09211
1.09174
1.09374
1.09893
1.10801
1.12156
1.14004
1.04354
1.04331
1.04195
1.0411
1.04199
1.04552
1.05236
1.06302
1.0779
1.0189
1.0176
1.01537
1.01339
1.01277
1.01441
1.01894
1.02682
1.03831
1.01332
1.01017
1.00633
1.00263
1.00009
0.999539
1.00162
1.00673
1.01504
1.02026
1.01557
1.00983
1.00406
0.999241
0.996219
0.995647
0.997957
1.00335
1.03574
1.02983
1.02215
1.01406
1.00666
1.00088
0.997398
0.996708
0.999081
1.05736
1.05038
1.04064
1.02998
1.01972
1.01085
1.00416
1.00018
0.999211
1.08385
1.07562
1.06351
1.04994
1.03645
1.02416
1.01391
1.00633
1.0019
1.11475
1.10462
1.08949
1.07251
1.0554
1.03931
1.02509
1.01346
1.00505
1.15048
1.13685
1.11762
1.09658
1.07541
1.05515
1.03656
1.02034
1.00728
1.19255
1.17177
1.1468
1.12106
1.09549
1.07082
1.04753
1.02618
1.00765
1.24431
1.20784
1.17556
1.14492
1.11485
1.08579
1.05775
1.03076
1.00545
3.63209
3.71615
3.8052
3.89871
3.99643
4.09786
4.2026
4.31004
4.41981
4.53127
4.64398
4.75749
4.87122
4.9848
5.09758
5.20907
5.3187
5.42583
5.52982
5.63006
5.72574
5.81612
5.9004
5.97766
6.04713
6.10812
6.16069
6.20471
6.23988
6.26619
6.2845
6.29539
6.29954
6.29806
6.29221
6.28355
6.27383
6.2649
6.25887
6.25795
6.26443
6.28067
6.30866
6.35013
6.40627
6.47741
6.56268
6.66014
6.76598
6.87514
6.98109
7.07634
7.15345
7.20499
7.22525
7.21001
7.15764
7.06839
6.94646
3.59979
3.68476
3.77416
3.86777
3.96526
4.06628
4.17044
4.2773
4.38642
4.49734
4.6096
4.72272
4.83621
4.94958
5.06229
5.1738
5.28351
5.39081
5.49504
5.59552
5.69152
5.7823
5.86712
5.94522
6.01583
6.07824
6.13197
6.17679
6.21275
6.24022
6.25973
6.27182
6.27723
6.27692
6.27208
6.26416
6.25484
6.246
6.23973
6.23825
6.24385
6.25884
6.28533
6.32514
6.37949
6.44881
6.53243
6.62831
6.73292
6.8412
6.94678
7.04233
7.12026
7.17326
7.19523
7.18185
7.13106
7.04299
6.92114
3.54589
3.62806
3.71477
3.80582
3.90093
3.99977
4.10196
4.20709
4.31475
4.42447
4.5358
4.64826
4.76136
4.87458
4.98738
5.09921
5.20944
5.31745
5.42255
5.52403
5.62115
5.71315
5.79925
5.87867
5.95067
6.01459
6.06999
6.11661
6.15444
6.1837
6.20484
6.21842
6.22517
6.22602
6.22213
6.2149
6.20594
6.19709
6.19042
6.18811
6.19249
6.20584
6.23037
6.26794
6.31991
6.38684
6.46822
6.56224
6.66559
6.77344
6.87957
6.97683
7.05763
7.11469
7.1418
7.13442
7.09021
7.00902
6.89402
3.46266
3.54158
3.62514
3.71318
3.80546
3.90168
4.00151
4.10457
4.21048
4.31879
4.42905
4.54079
4.65351
4.76669
4.87977
4.99215
5.10321
5.21227
5.31863
5.42154
5.52023
5.6139
5.70177
5.78305
5.85701
5.92302
5.98061
6.02949
6.06962
6.10114
6.1244
6.13995
6.14849
6.15092
6.14837
6.14217
6.13392
6.12542
6.11869
6.11593
6.11944
6.13158
6.15458
6.19042
6.24055
6.30571
6.38559
6.47858
6.58161
6.69005
6.7979
6.89809
6.98306
7.04542
7.07875
7.07827
7.04132
6.96744
6.85953
3.35523
3.43046
3.51049
3.5952
3.68439
3.77781
3.87516
3.97612
4.0803
4.18729
4.29665
4.40788
4.5205
4.63396
4.74766
4.861
4.97331
5.08389
5.19198
5.29681
5.39757
5.49345
5.58364
5.66734
5.74383
5.8125
5.87288
5.92465
5.96771
6.00213
6.02821
6.04643
6.05745
6.06214
6.0616
6.05713
6.05029
6.04287
6.03687
6.0345
6.03809
6.05004
6.07266
6.10801
6.15771
6.22264
6.30268
6.39641
6.50097
6.61188
6.72325
6.82804
6.9186
6.98743
7.02788
7.03488
7.00548
6.93894
6.83791
3.22656
3.29765
3.37381
3.45493
3.54089
3.63147
3.7264
3.82538
3.92804
4.034
4.14278
4.25393
4.3669
4.48112
4.59599
4.71085
4.825
4.93769
5.04813
5.15551
5.259
5.35776
5.45095
5.53778
5.61753
5.68957
5.75344
5.80881
5.85552
5.8936
5.9233
5.94505
5.95947
5.96741
5.96991
5.96828
5.96402
5.95892
5.95499
5.95445
5.95969
5.97314
5.99723
6.03416
6.08567
6.15284
6.23571
6.33305
6.44211
6.5585
6.67632
6.78842
6.88697
6.96418
7.01313
7.0284
7.00679
6.94733
6.85251
3.08082
3.14737
3.21933
3.29669
3.37935
3.46714
3.55981
3.65709
3.75863
3.86401
3.97279
4.08445
4.19843
4.31414
4.43091
4.54805
4.66482
4.78042
4.89403
5.0048
5.11185
5.21433
5.3114
5.40226
5.48615
5.56249
5.63078
5.6907
5.74205
5.78483
5.81927
5.84574
5.86488
5.87749
5.88461
5.8875
5.88767
5.88688
5.88719
5.89084
5.90027
5.91801
5.94662
5.98848
6.04553
6.11901
6.20915
6.31483
6.43332
6.56019
6.68933
6.81327
6.92374
7.01248
7.07208
7.09677
7.08305
7.02984
6.93965
2.922
2.98348
3.05091
3.12433
3.20369
3.28886
3.37961
3.47568
3.5767
3.68226
3.79186
3.90493
4.02086
4.13898
4.25862
4.37903
4.49944
4.619
4.73684
4.85203
4.9637
5.07098
5.17303
5.26906
5.35827
5.44011
5.51408
5.57986
5.63723
5.6862
5.72699
5.75998
5.78578
5.80521
5.81927
5.82931
5.83683
5.84349
5.85148
5.86308
5.88082
5.90741
5.94558
5.998
6.06692
6.15372
6.2588
6.38095
6.51734
6.66331
6.81231
6.95615
7.08564
7.19153
7.26552
7.30124
7.29491
7.24558
7.15617
2.7565
2.81218
2.87461
2.94395
3.02018
3.10314
3.19257
3.28804
3.3894
3.49637
3.60806
3.72382
3.84291
3.96458
4.08822
4.213
4.33826
4.46314
4.58644
4.70729
4.82484
4.93821
5.04667
5.14939
5.24543
5.33437
5.41571
5.48919
5.5546
5.61202
5.6618
5.70425
5.73979
5.76936
5.79396
5.81548
5.83537
5.85454
5.87574
5.90144
5.93451
5.97782
6.03422
6.10725
6.19974
6.313
6.44745
6.60065
6.76942
6.94971
7.13502
7.31555
7.47941
7.61497
7.71189
7.76165
7.75973
7.70602
7.60534
1.33404
1.28837
1.25355
1.22282
1.19385
1.16624
1.14062
1.11827
1.10099
1.09113
1.09161
1.10541
1.13521
1.1832
1.25156
1.34324
1.46089
1.60606
1.77898
1.97911
2.20579
2.45874
2.73839
3.04652
3.38701
1.26821
1.25947
1.23941
1.21494
1.18868
1.16215
1.13683
1.1144
1.09686
1.08663
1.08649
1.0993
1.1279
1.17501
1.24331
1.3354
1.45343
1.59867
1.77138
1.97112
2.19725
2.4495
2.72849
3.0363
3.37732
1.24671
1.24076
1.22536
1.20418
1.17977
1.15406
1.1289
1.10623
1.0882
1.07727
1.07615
1.08773
1.11502
1.16101
1.22858
1.32025
1.43784
1.5823
1.7537
1.95145
2.17481
2.42336
2.69752
2.99898
3.33123
1.23543
1.22776
1.21295
1.19279
1.16908
1.14364
1.11833
1.09517
1.0764
1.06447
1.06209
1.07222
1.09795
1.14243
1.20863
1.29895
1.41499
1.55741
1.72595
1.91982
2.13803
2.38002
2.64598
2.93729
3.25697
1.22641
1.21706
1.20178
1.18159
1.15785
1.13215
1.10631
1.08234
1.06249
1.04923
1.04532
1.05371
1.0776
1.12018
1.1844
1.27255
1.38604
1.52518
1.68942
1.87766
2.08868
2.32171
2.57679
2.85524
3.15984
1.21749
1.20704
1.19123
1.17071
1.14658
1.12028
1.09356
1.06846
1.04722
1.03234
1.0266
1.03302
1.0548
1.09513
1.15688
1.24223
1.35231
1.48714
1.64583
1.82695
2.02903
2.25108
2.49302
2.75611
3.04302
1.20788
1.19709
1.18118
1.16042
1.13576
1.10861
1.08074
1.0542
1.03128
1.01451
1.00671
1.01094
1.03039
1.06822
1.12719
1.20928
1.31537
1.44517
1.59741
1.77031
1.9621
2.17152
2.39834
2.64373
2.91052
1.19656
1.18713
1.17195
1.15121
1.12595
1.09774
1.06844
1.0402
1.01537
0.996503
0.986463
0.988355
1.00537
1.04057
1.09661
1.17525
1.27708
1.40149
1.54684
1.71095
1.89165
2.08735
2.29745
2.52298
2.76678
1.18424
1.17814
1.16451
1.14388
1.11784
1.08829
1.05731
1.0272
1.00033
0.979235
0.966881
0.966415
0.980991
1.01361
1.06681
1.14209
1.23978
1.35893
1.4975
1.65291
1.82261
2.00444
2.19712
2.40161
2.61928
0.553173
0.552405
0.395937
0.569815
1.06075
0.941903
4.10063
1.49436
0.377065
5.89705
0.263577
0.706152
1.32657
0.661639
4.36417
3.37486
0.309126
0.5626
8.27654
1.40524
3.25089
4.87784
0.299058
0.630611
0.721138
1.83439
0.77499
0.869639
0.486594
0.29755
5.62928
2.17353
0.518336
1.73444
0.293397
1.83672
2.06221
4.36022
1.95017
1.18433
0.394297
0.167422
3.66023
0.970398
0.867971
5.86187
0.284945
0.314093
0.445026
0.565046
0.277914
0.376818
3.50254
0.557408
4.01914
0.382157
0.665956
3.6522
0.620824
0.340795
1.88332
0.407694
1.00638
4.25598
1.5986
1.07174
1.49338
0.250522
1.17742
0.517667
0.389594
5.28405
1.04196
1.58383
0.621367
3.34196
2.0998
0.336143
0.680583
0.545357
1.92116
2.00676
2.03333
0.246819
1.35958
1.72484
1.31826
0.341889
0.513448
0.991548
0.782287
1.12691
6.97954
0.711431
0.986425
0.266432
1.77629
0.263664
0.390461
0.342751
0.838609
0.402323
0.856364
5.57593
0.628469
1.01122
0.309772
2.14581
0.188669
0.300614
4.52827
0.45473
0.33151
5.61368
3.60979
0.4496
0.447239
1.2639
2.6197
0.308341
0.0870482
0.471527
0.610654
0.702629
0.506952
3.44296
0.380542
1.72999
0.826161
0.314838
1.87823
1.63813
0.50629
1.9038
1.00562
1.2396
0.836238
0.78179
2.27597
1.30606
5.90342
1.81057
0.339416
0.102592
0.472908
3.60747
0.572845
2.56354
3.30634
0.291548
2.01623
1.24146
0.573328
4.51726
0.556962
0.246997
0.77771
1.28624
2.56119
2.33281
3.81153
0.381862
3.61651
0.268605
5.39801
0.257865
0.69551
0.725736
4.07387
0.747936
0.644446
4.47943
0.254781
0.251509
1.40013
1.00848
3.20755
0.502942
0.395276
5.8291
2.80527
2.07088
3.37033
3.3191
1.15892
0.849936
0.262034
0.18674
0.560484
2.97341
0.324108
0.341898
0.506439
1.70968
4.56382
0.552961
0.615782
4.77958
0.462875
0.515458
0.923594
4.86021
1.96742
2.9443
2.16607
3.70269
1.38921
0.838485
0.453265
1.42484
0.633793
0.621946
2.53934
2.12047
1.7783
0.377749
0.781637
1.31775
5.56873
0.992151
0.712421
0.199128
0.53118
0.428344
0.317752
0.427613
0.942977
0.312566
0.183364
1.04556
0.242983
1.93366
1.87195
1.07203
1.95061
5.0386
2.96181
0.782462
3.31358
4.71032
3.67284
1.78658
4.99912
1.05889
1.1074
1.68158
2.39237
0.948307
3.37777
3.94614
0.171289
1.04086
2.24569
0.457638
1.02715
0.709182
0.319541
2.2155
2.66814
8.10695
0.276443
0.84769
2.69488
0.563882
1.73015
0.671327
4.23482
0.571979
4.07956
0.766576
3.11796
0.504686
0.475941
1.18315
8.39431
0.570272
1.28295
0.35359
0.707558
0.342836
1.09521
1.93752
0.254741
5.85432
0.391271
2.43897
1.02262
0.437996
0.296975
0.322005
4.67559
3.76796
0.122123
0.297606
1.05444
0.385787
0.392755
1.21276
2.24985
0.36923
0.346483
3.96361
0.781225
2.98852
0.406144
4.88768
3.16294
1.86529
1.30037
2.17186
5.37248
6.38937
0.542174
0.813726
0.413854
1.49607
0.297935
2.17625
0.766578
1.14382
2.57364
3.08842
0.710023
5.69655
1.3562
0.711728
0.44929
2.22567
1.24379
3.5755
5.43049
4.54405
0.675
5.68332
0.354166
1.75644
2.39161
2.19658
0.123935
0.265006
0.599519
0.725789
0.354336
6.45565
1.79628
0.75257
0.788369
1.05115
1.10529
0.269694
0.475307
6.83758
0.174297
2.73269
0.301704
0.290414
0.896716
0.933444
4.78624
0.273309
0.461157
0.285274
3.11528
0.431493
0.175573
1.16347
4.05433
0.31049
2.66253
0.566434
6.07933
4.44601
0.49983
0.414003
1.35022
0.553213
0.386528
6.23834
1.84412
5.00768
0.399714
4.16805
0.508382
0.960255
0.936305
0.990775
5.57701
1.43013
0.265945
0.323346
3.33492
3.80983
0.986726
0.500501
2.98769
7.10308
4.74038
0.520718
1.27727
0.487782
1.51576
3.77186
1.28752
0.571012
0.724712
0.104738
4.18833
0.977369
0.749605
3.6299
0.500952
2.61115
0.366918
2.21466
2.71952
0.149451
0.429994
0.270359
1.35435
1.13742
5.54455
1.93279
0.968585
0.861939
4.23084
0.336526
0.101077
0.775988
2.27211
2.32135
2.88064
0.716522
0.997971
0.671238
4.53621
3.97055
4.59519
0.114494
1.13897
0.279747
2.6148
4.69368
0.308048
0.822335
1.12017
0.484723
0.816736
0.479041
0.639475
0.684932
0.416032
3.6626
3.51449
0.37577
6.41456
0.52288
0.267984
1.92931
0.735206
1.97678
3.88223
1.1726
0.501011
2.48775
0.342254
1.2637
0.660446
0.421539
2.72771
0.270777
0.973818
1.10624
0.286048
0.235204
0.74347
1.55317
1.01787
0.852324
2.67445
2.7579
1.9615
2.414
0.134237
0.714838
0.245645
1.19207
2.2632
5.25934
0.526873
5.64689
4.45878
3.55495
0.41313
0.503768
2.59092
0.627902
4.41513
2.56792
6.15064
0.563719
3.7788
4.58829
2.46757
0.994645
3.16599
1.94802
2.87806
2.99887
4.21153
2.20067
4.95707
2.13928
1.41081
1.02721
0.731777
0.309873
0.421105
0.422191
0.507879
2.86763
7.25758
0.323021
1.38951
0.5631
1.55563
5.57703
0.337807
0.427373
3.40941
4.72605
1.00141
5.72014
0.559934
0.433608
0.295147
0.744732
3.7907
0.393725
0.461328
3.6621
1.15302
0.301469
4.80789
0.32041
0.210576
0.434311
3.0112
0.672189
2.63157
0.347973
2.2438
2.68669
0.840471
0.460318
0.427818
0.304662
0.541397
6.60751
1.75105
0.445396
2.05682
2.13019
3.85913
1.45204
0.294229
6.84277
2.84984
0.64597
2.2805
0.257866
0.530302
5.5553
3.8395
0.649217
0.900864
0.333777
0.278106
0.447033
0.713475
0.258457
1.39153
3.39228
4.78383
7.17907
1.527
0.520027
4.79715
0.905493
0.886523
4.82624
0.946743
1.40025
4.21127
4.22936
6.38776
0.627564
1.63186
0.418822
1.12544
2.2035
0.354933
0.860941
0.204688
0.747568
1.77292
1.09134
2.38033
2.59715
0.408074
3.42088
3.89259
2.19995
1.71132
4.03007
0.959286
3.48841
0.996307
0.809869
0.446462
4.59152
1.23683
3.05289
6.63524
1.4106
0.713195
0.344481
0.285078
0.853212
0.527283
0.675783
0.718231
1.0165
0.446363
3.65689
0.305001
3.30171
0.927142
0.499776
1.15587
3.95708
2.79086
0.665622
1.05603
4.66461
0.973813
1.74926
0.671831
0.760247
0.346303
4.30363
2.79596
0.32072
6.23951
0.158359
5.59928
2.9048
0.279612
8.19196
2.70646
3.05166
0.43642
0.519017
0.258188
0.065218
1.08799
1.36835
0.425491
0.472835
1.06066
3.51057
0.704494
8.1833
1.24334
0.346098
0.16364
2.58793
2.28563
1.81476
6.04091
4.05578
0.459205
3.47877
0.657928
2.06914
3.97894
0.692896
6.11576
0.476852
0.333572
2.29145
4.21485
1.22358
0.270969
1.6038
6.54865
3.94721
1.53256
0.805736
2.4396
5.13364
0.616409
0.262291
1.17749
5.32827
5.60184
0.330002
4.27437
1.64539
0.320609
4.49972
0.534651
0.291598
8.43337
0.82084
1.21329
0.120202
3.40393
1.07668
3.37106
1.89258
1.59696
7.57779
2.84143
0.72807
3.82532
1.81994
1.65012
1.48737
2.31882
0.41163
8.00806
0.397599
3.86034
0.500011
2.71493
0.415373
0.294088
0.562379
1.09058
3.2045
0.120084
0.28122
3.35364
0.94713
0.559433
6.73677
2.37147
0.803269
0.972863
1.63446
2.41512
0.279276
0.453871
2.28319
4.08629
4.24576
2.93108
0.414509
0.0363241
3.77353
0.823516
0.161801
0.562448
0.742358
0.292861
4.36613
0.695018
4.37568
0.266731
0.142019
1.0978
0.955011
0.802748
2.18189
3.58732
0.286036
3.1615
0.907801
3.91952
3.26035
0.269764
1.16452
0.350512
4.40474
4.94839
0.46211
4.39407
1.38691
1.33782
7.02807
6.07331
2.96534
1.6784
0.185504
5.66104
0.273133
0.462012
2.83074
2.24203
2.805
1.02618
3.58129
0.469064
2.3024
0.787628
6.3321
0.297986
0.319141
1.41942
0.831178
0.55497
0.392866
1.77256
1.62269
0.558025
0.988168
0.430675
0.49335
5.71819
1.76302
0.361866
0.521186
0.543815
5.22432
2.20117
0.386716
2.83642
2.25617
3.93076
1.16587
0.629273
2.87744
0.464774
0.400959
0.56781
8.11532
3.01009
0.516752
7.83982
3.20361
0.386565
2.91832
1.9587
0.461677
0.983459
5.23521
6.64226
5.92369
1.08355
3.17905
0.347311
1.60144
3.05278
3.26389
4.02328
1.34506
0.425128
0.295168
1.04004
4.45522
0.0886945
0.647074
0.627904
0.242107
1.57887
1.72265
3.68296
0.103426
3.81458
3.12787
0.56215
0.542749
2.56562
0.344435
0.331813
0.280949
7.6937
0.536334
3.57328
6.17997
4.03635
1.98078
0.619813
1.85275
2.46218
0.990689
2.61682
0.459565
0.330854
0.432774
0.548726
0.778155
2.97801
4.03099
0.522042
0.933479
6.9729
0.739342
0.319255
0.292127
1.12072
3.2573
0.571828
1.42999
0.895635
3.0576
0.403732
1.53786
0.321095
1.31321
0.49147
3.76377
3.23083
0.54149
0.101547
0.664561
6.92074
0.371558
0.765306
0.412149
0.45828
5.21812
0.887583
2.78154
0.950183
0.559324
3.67676
3.23115
2.79861
2.61623
0.336558
2.91505
0.27354
0.200701
0.377796
6.00346
3.07785
7.49743
1.71668
1.35296
0.431363
0.445209
0.850107
3.06194
2.0287
0.837481
4.65385
2.51389
1.00238
1.75336
0.448941
0.410213
0.246336
4.63129
3.23471
4.55658
1.87263
0.450396
1.22056
0.807124
3.15257
4.26361
0.644116
0.898841
2.07643
5.38667
0.61923
1.082
3.37677
1.3432
0.625928
0.38451
1.39696
0.438536
3.71666
0.569479
2.8983
0.434686
0.473851
0.912117
0.686481
0.349099
3.56559
0.361331
1.3423
0.750511
0.453089
4.68775
0.248578
0.577726
3.9929
4.16484
0.458919
0.514154
2.83262
2.09017
0.255868
3.48967
0.370384
3.11409
0.325213
0.303527
0.508829
0.274946
2.66988
0.468751
1.38193
1.33643
1.26252
3.35737
4.4464
0.271804
7.0094
1.77503
2.30685
6.73481
0.4818
0.481957
3.79347
0.317702
4.07949
3.28864
4.12963
1.02636
0.279983
0.327593
6.45399
1.54081
0.235469
4.48163
0.660275
0.438958
0.258039
0.960277
1.97422
0.9189
3.23615
0.374599
5.25713
7.24944
1.06413
4.38829
1.50462
0.322274
0.326078
0.558329
2.6499
1.91249
4.68613
0.461869
0.964258
2.0603
3.33265
0.518172
0.281825
0.276013
2.27658
2.44261
0.966409
0.422351
5.19248
0.437215
0.914832
0.277754
0.507784
0.652045
1.0928
0.788324
6.38642
5.96573
0.133576
0.533446
8.26614
0.546832
1.94587
1.89482
1.3623
4.27654
3.34018
0.500228
1.4435
3.21353
1.25763
4.21971
0.468606
0.253348
2.97665
1.21294
5.45781
0.353234
0.536659
0.983696
0.344611
1.72043
7.51275
2.42498
2.28708
2.09552
4.7078
2.84593
1.22394
0.190033
0.639702
3.19252
0.480468
2.76317
7.58618
0.946181
3.09594
0.435414
0.415154
4.75118
7.31166
2.43929
1.75702
0.61045
0.493375
0.511714
0.202023
6.02392
0.577693
0.998091
0.566784
0.718341
0.307649
0.56132
0.383897
0.130471
2.0339
0.689805
5.98319
0.255644
2.98233
2.94109
3.42792
2.39219
6.2446
1.64033
3.4085
1.42684
0.304856
0.503657
0.437646
0.562676
0.964434
0.580318
2.26671
0.413529
3.17984
1.76821
0.285587
0.232361
0.928586
3.72496
2.28929
0.346384
0.479357
0.644672
0.978576
4.66687
0.67716
0.667409
0.2564
0.274908
0.302748
0.310632
0.266999
0.754064
1.1647
0.775118
0.28713
0.858063
3.04072
0.463605
6.18272
0.445629
1.70976
3.70812
0.420726
3.51995
1.01016
0.696877
2.89685
1.52045
0.947888
6.91608
0.754601
0.857423
0.470267
6.34181
0.528501
0.330338
3.16269
0.866216
0.63242
0.546769
0.543533
0.266558
2.4308
3.7205
0.532223
0.397205
1.55263
3.04069
4.31668
4.78456
2.12155
6.13132
3.78681
2.19118
1.47522
7.13187
4.69031
0.571254
1.71901
0.477951
0.188554
1.84964
1.85799
2.88547
0.927299
5.12217
0.345795
0.27842
6.12899
0.459153
0.690981
5.51394
3.03724
0.548006
0.858679
2.78093
0.407412
1.77286
4.08784
5.76305
4.84489
3.31437
2.79846
0.502857
5.82882
0.727043
0.555523
2.07055
0.110249
2.66134
0.504642
1.35301
0.531876
0.841286
1.29071
0.410078
0.349347
0.321195
0.412285
5.10751
0.368158
0.456452
8.01926
1.30231
4.27526
0.330309
2.19873
0.953698
3.91055
4.03725
0.509198
0.332583
0.404857
5.09142
1.36371
7.4387
0.418978
2.14662
0.628169
2.96157
1.59543
0.417814
1.49117
1.25107
3.27456
0.44865
0.393899
4.87355
0.82752
3.93255
1.00903
3.1623
4.57685
5.06179
3.17499
0.376222
6.85942
1.06042
0.668824
0.566096
1.03949
0.970663
0.406161
7.14985
3.36745
0.367087
6.30608
1.21591
3.41384
3.14681
3.75352
0.895158
0.3273
0.716462
3.17352
0.357978
1.96845
5.11048
1.01234
4.54465
3.02431
0.11199
3.02845
0.514565
2.10464
0.516824
0.57082
2.9178
1.39534
4.39198
0.658648
1.10964
5.95123
3.74719
0.29783
0.504121
5.0684
5.91881
0.570689
0.456606
0.950791
5.68829
1.17853
1.17474
0.33746
2.2335
0.898687
0.978131
0.490683
0.933022
0.998147
1.0581
1.42925
3.28938
0.410101
2.22769
0.985633
4.29105
0.409017
1.54277
2.61733
0.911518
0.968402
0.486258
0.281154
0.484654
0.5423
0.263706
5.17683
3.72688
1.75578
1.44057
0.469663
0.774777
0.926075
4.63495
4.96058
4.0073
0.415097
0.387373
6.93521
5.19046
0.269655
5.22496
0.679524
0.481512
0.383113
0.350762
1.88876
0.462815
5.40747
1.39267
1.29172
0.547425
0.476868
0.525295
1.94324
0.636664
1.19537
2.22546
1.32811
1.93858
1.39899
0.453139
0.426086
7.69857
0.777297
2.64572
0.393223
3.04499
0.437509
0.56242
0.343387
5.55247
1.83946
1.87126
5.70084
5.9492
1.84016
7.95917
0.498432
0.473717
6.02553
0.929645
1.25073
0.510658
0.499684
0.310674
1.35405
0.725713
1.36165
0.938136
1.97298
0.636159
0.459475
1.054
6.42055
0.730165
4.76816
1.07913
4.82994
1.20018
6.61711
1.37499
0.961822
3.08263
5.92005
0.434411
3.40099
3.87358
0.282796
0.696364
2.62648
0.436897
0.500875
3.38261
0.463531
7.00875
2.7819
5.42087
5.18082
2.27662
1.39828
0.405027
1.11061
4.6198
0.498059
0.495002
3.23032
5.72788
3.13736
5.22417
4.42414
0.175195
3.4265
0.491103
2.04212
7.48657
5.28324
0.539387
2.43344
0.442291
0.512927
0.234261
0.488968
5.07098
0.550967
0.432684
0.354536
8.30553
0.0907214
3.33941
0.789247
5.13482
0.593362
4.18017
0.307738
0.773706
1.1271
0.379216
6.70559
0.46895
1.05554
4.76179
3.21275
0.340129
5.67265
1.73512
6.44643
3.70663
5.48228
2.48128
0.477828
0.399287
4.82556
6.06187
0.417
4.46496
4.71792
0.595217
0.894779
1.371
1.32577
1.06625
6.61479
2.97562
1.13065
0.0533636
0.662497
5.75222
0.342793
3.15656
1.4134
0.945615
0.896508
2.75987
0.332592
1.64844
0.358441
0.163075
0.115207
3.17938
5.61229
4.86643
0.446126
3.50954
0.496167
0.457436
2.23368
5.66737
0.28565
0.971445
0.385377
0.822303
1.08315
0.487997
1.01352
2.89048
3.98459
1.33294
0.732088
5.54456
4.52373
0.680231
6.2118
0.566339
1.1171
0.479212
0.656906
0.437999
4.64816
2.15828
0.496483
7.28295
3.43948
0.347735
2.92208
1.04352
0.57301
3.47165
0.333715
1.31998
2.25629
0.361893
2.76667
0.360862
2.29434
0.608115
0.853955
0.474575
0.735298
0.440618
3.31829
3.14476
0.784161
0.402393
2.41306
0.857065
0.903233
4.1332
0.745316
2.75389
0.615039
6.14858
2.64329
0.351432
1.36092
1.12616
0.466346
0.655415
3.43323
0.339946
6.48269
0.258987
3.42317
2.58267
4.62345
0.650355
3.48775
5.42405
0.27186
1.03854
1.15347
0.752488
0.318457
0.516633
3.05294
2.79427
2.41164
1.22872
2.55532
1.77179
4.98085
3.57822
4.73503
0.463002
0.715628
0.511373
4.68896
2.04105
0.284092
5.12504
0.302443
3.59852
0.278759
4.51693
0.655137
0.919167
0.258535
1.0153
2.72377
1.46769
0.920741
0.663795
4.61871
2.8759
0.78437
0.532245
2.83324
2.2784
0.567487
1.56163
1.48598
0.337021
0.790911
1.79156
4.01932
5.52237
0.44
3.81863
0.496172
0.989749
0.725147
4.25533
3.26565
0.345745
0.416933
0.979963
3.30946
0.917252
3.21966
1.24083
0.690689
0.36846
3.18105
2.09277
2.95943
4.31569
0.639123
0.478514
0.695369
4.8937
2.11871
1.21445
0.421141
6.32263
4.55485
0.140945
0.740781
0.648594
1.49989
0.381903
2.09264
1.42678
0.418461
2.9562
0.897118
1.36475
3.1631
3.85578
0.452769
0.396987
0.473766
1.70101
5.80996
8.1767
0.340075
0.406413
0.636869
0.122569
3.7086
4.4274
3.58766
1.01066
0.394266
2.46605
0.255047
0.827656
1.18301
0.56921
6.17515
4.99926
1.05311
0.566866
2.55431
1.35405
0.947851
6.30515
1.89133
0.903826
3.52309
2.85916
3.05977
5.89051
6.06436
2.57606
0.253166
4.35495
2.38865
3.08917
1.4159
0.99424
0.321901
0.526241
1.5097
0.64222
1.03687
0.316136
1.49501
2.7696
0.230145
7.6149
0.115781
4.51116
6.51542
0.339579
5.06821
0.976236
0.292135
2.9465
3.57895
2.72952
3.55495
0.534963
0.517695
1.16089
0.410234
4.12771
3.01713
0.00624243
0.573694
1.21637
0.758033
3.13671
0.411151
1.00883
3.54961
0.263178
0.302437
0.929411
0.453565
0.381455
0.624246
0.421718
0.394434
0.581566
0.696431
2.16183
0.249318
0.533536
5.48043
0.442488
0.660181
4.51902
1.76597
2.58205
0.67647
4.79489
4.15104
1.10407
5.43082
0.42654
5.0497
0.56462
3.00213
7.34011
0.319134
2.83707
0.930363
0.962665
0.353835
6.044
4.82721
0.408097
4.99534
0.441981
4.12462
3.41884
1.11129
1.60745
0.211436
5.06645
2.57616
1.21874
5.03094
0.985453
0.518908
1.23204
2.23787
0.776324
0.607654
0.387252
0.647571
0.745547
2.24257
0.671172
1.14563
1.0786
0.908668
0.528629
3.17124
3.51835
3.56877
3.78326
0.808493
2.91333
1.46047
0.591388
6.17518
5.98771
0.718562
0.719392
3.04868
3.45555
0.0269968
4.3312
6.44462
2.90275
2.65912
2.57556
3.33683
0.929061
1.10673
4.74182
3.9507
0.404714
0.527664
0.407805
2.0425
0.097012
1.0903
3.99893
1.49403
4.32175
0.344792
6.33862
0.252895
2.5237
0.243924
1.07661
1.34411
3.06163
3.3452
0.573083
2.92132
0.473041
0.29304
0.213758
0.66745
0.270544
3.69482
2.72968
0.667794
0.340078
4.78003
3.39933
3.09619
2.29552
1.11564
0.46565
0.264347
3.24914
3.17502
6.24432
3.5872
5.66978
0.450322
0.100655
0.230545
3.09422
2.75521
0.778318
1.06382
0.355064
0.966369
0.205295
4.94285
0.400494
2.21604
0.967647
0.737175
4.72736
0.373387
0.632054
3.01697
2.52348
0.386767
2.47072
0.760152
0.734327
3.3644
0.82256
0.919232
2.52541
2.06417
5.02432
0.9223
3.88965
0.486507
1.04431
2.01424
1.46885
6.86864
0.290383
0.657069
2.40831
1.47252
4.5276
1.52072
0.39717
4.90059
3.028
6.5609
2.81444
0.36396
0.359983
0.505712
0.366101
0.560711
0.687793
0.54782
0.65469
2.84048
4.64112
1.26646
2.99428
1.04143
0.275896
4.91195
3.82949
0.450831
0.349496
0.603689
3.59377
0.878551
0.522967
0.382468
0.7045
0.634796
1.53195
6.51865
1.5456
4.20248
0.926437
0.0948214
3.29646
0.979216
0.946442
1.04368
4.32408
6.28679
2.89273
0.448535
0.885386
3.81869
1.7256
1.57783
1.88297
0.400716
2.63388
0.450985
3.06416
3.18419
4.95543
0.387189
0.894467
2.96459
3.36993
0.378874
0.920546
0.785151
2.85059
0.134875
0.306583
0.720508
0.563942
3.12041
6.17353
0.396316
3.9945
2.85084
0.266485
2.44394
3.93207
3.8894
0.724017
4.74666
7.05954
0.255372
7.73659
2.86108
3.16791
0.274902
3.59136
5.91136
4.1346
1.35309
7.18729
2.63967
0.781538
3.37712
5.98815
0.434515
4.61568
0.54267
3.79454
0.461959
2.90572
0.334806
0.492326
8.1331
0.56501
3.86339
3.02337
1.58924
0.678626
0.418355
0.738006
2.32523
0.272536
0.268887
3.39023
0.5922
1.21407
0.268379
0.673852
0.382426
1.22095
5.20012
1.31217
1.40113
1.57632
1.58447
0.540597
3.97442
1.02266
0.332485
0.383436
2.8116
0.664288
0.680466
0.224235
1.97338
0.703387
0.688516
4.71667
0.961612
1.30317
4.27265
0.413257
3.68317
0.626787
1.28263
0.35636
0.457137
0.538493
0.549602
0.349894
1.55517
0.124421
4.50425
0.261625
2.64039
0.394342
1.33064
1.24033
0.705436
7.48267
3.15453
4.45451
2.98378
3.15803
0.643308
0.329942
0.362745
0.962523
1.55001
0.256099
0.902932
1.09588
1.02719
6.67074
0.59772
0.5346
4.08236
6.16626
0.94465
0.650264
0.624348
0.712523
0.426109
2.7065
0.493447
0.490447
0.534838
0.530701
1.01319