/*--------------------------------*- C++ -*----------------------------------*\
  =========                 |
  \\      /  F ield         | OpenFOAM: The Open Source CFD Toolbox
   \\    /   O peration     | Website:  https://openfoam.org
    \\  /    A nd           | Version:  10
     \\/     M anipulation  |
\*---------------------------------------------------------------------------*/
FoamFile
{
    format      ascii;
    class       volScalarField;
    location    "1600";
    object      p;
}
// * * * * * * * * * * * * * * * * * * * * * * * * * * * * * * * * * * * * * //

dimensions      [0 2 -2 0 0 0 0];

internalField   nonuniform List<scalar> 
10435
(
-0.00069368
-2.44559
-12.628
-4.08502
-9.96143
-13.1506
-12.6045
-12.772
-12.9941
-12.1568
-4.73173
-8.28705
-12.0471
2.26793
2.15227
-12.372
2.30104
-11.9967
-13.0424
-0.581483
-12.6527
-3.60164
-12.229
-10.2902
-12.741
2.12469
2.07565
-12.2106
1.53157
-12.822
-11.8737
-5.85818
-13.0223
1.9669
-11.9706
0.365886
-11.8251
0.933708
2.55446
-11.6295
-13.5941
-12.1463
2.67905
-2.29442
-11.7704
-11.4269
-12.8314
2.35626
-13.1066
-3.57481
-12.6881
-12.0684
2.12467
1.27734
2.83829
1.25601
-11.3035
1.75578
2.13236
-11.5418
2.26786
-1.41754
1.93665
-11.3088
-12.1069
-12.4568
2.06531
2.04202
-12.8357
-9.4774
1.91941
1.5345
3.05334
-12.2753
1.92706
2.71149
-8.1849
-12.6794
-13.3236
1.92404
-5.45932
0.473403
2.26051
1.65516
-6.42796
0.97821
0.413085
-2.66891
1.82184
-0.252824
-3.62615
-4.69932
-0.0381777
1.38411
-0.987853
1.07146
-5.70012
2.16955
2.47797
-7.28595
1.63126
-11.6867
0.965259
-1.79163
-12.0935
-3.16787
-0.599508
-4.45719
-7.54508
1.67555
-2.73871
-10.8079
0.946091
1.29702
-6.26152
-2.7408
-7.93925
0.360548
-3.1359
-7.15552
-8.26692
2.96621
-0.388055
2.36794
-7.75363
2.20594
-6.41156
2.854
-9.07928
1.12333
2.73036
-6.4699
-12.4487
2.10839
1.68428
2.88531
1.37766
-4.9447
-2.1413
-1.94837
-1.23428
-11.8371
2.22058
-10.5013
-4.45463
2.51135
2.04106
-12.1011
2.44
-9.98404
2.25358
-11.2952
-0.127328
-10.5604
-12.4257
2.22057
-8.91915
-1.21993
-12.4513
-3.90267
-11.0903
2.23744
-5.34073
-7.2001
1.74564
-9.57754
-12.834
-6.63439
-9.1348
-10.7116
-12.1283
2.38036
1.07894
2.27982
-9.65529
-2.62995
-0.479158
2.30397
-1.93008
1.95529
-3.55382
-12.5054
-9.38971
2.07586
-11.3715
2.78957
2.28125
-12.6298
-11.0061
-11.2579
-8.57141
2.35172
2.04624
0.581516
-9.96245
-12.7508
2.65891
1.4768
2.39113
-12.1581
1.97165
2.57576
-12.17
1.93084
-12.3755
-7.47766
-4.25292
-5.79251
1.75158
-5.36078
2.61553
-12.5998
-9.42196
-8.0327
2.32478
2.38065
1.31532
2.4448
0.636689
2.30728
1.84641
2.08762
2.26312
2.21043
1.93388
-12.3097
0.878078
1.85325
-11.8248
2.55219
2.26739
-12.5189
0.804367
-10.8567
1.15491
2.36999
-10.9803
1.33757
-10.0632
-12.1509
-1.51195
2.2166
2.43478
1.25999
-6.68225
-13.2217
1.69929
-12.8886
-0.583405
-1.45451
-0.830389
1.34527
-12.5322
-6.27184
-12.9106
-10.5643
-1.60467
-12.8457
2.18697
2.04182
-12.4655
-12.2799
1.66667
-8.17842
0.9907
2.5295
-0.788661
-12.0322
2.55673
-8.22843
-12.5003
-13.6075
-13.0663
-11.8662
0.418877
-7.80225
1.93165
-9.16468
-12.4535
-13.7284
-12.7966
2.34591
-12.455
1.80373
0.982552
2.6959
-11.3277
1.15244
1.74463
1.6407
2.28353
-5.20554
1.59268
-13.4529
1.44632
-1.78395
2.51304
0.526667
-8.1163
-12.3923
2.24469
-9.26677
-12.3245
-0.890066
-7.13742
2.27117
2.63719
-10.2638
-12.4475
1.79934
-1.24249
1.63131
-0.392292
-12.0199
-12.2959
-1.96502
2.48579
-11.1719
2.15274
-7.45245
-12.7438
1.09035
0.473122
2.52277
-13.6628
-12.449
-0.128132
-12.1645
2.2751
1.69701
-12.2551
1.67516
1.81876
-12.5268
-10.3153
1.84442
1.61068
0.72465
2.11257
0.957141
-0.771986
2.16742
2.45403
-0.76369
-1.58584
1.62546
1.92956
2.75402
2.63022
-13.4347
1.95609
-12.8399
-0.847324
-12.0658
-14.2533
-14.551
-11.9862
-12.0739
1.27396
1.87945
0.825467
2.5132
1.06528
2.21989
1.34082
-1.14082
1.77242
-8.96533
1.9792
-13.3841
2.44751
-1.50564
-11.605
-14.925
2.6265
-2.44397
1.17298
1.56812
1.82988
1.85032
-3.64577
1.39616
-13.4255
2.0507
-13.0391
-14.3545
-11.9183
-11.8342
-14.5737
-12.1701
-12.1833
2.53933
2.42373
1.61488
2.14188
-12.5883
1.6799
-12.5078
-1.90646
1.62155
-2.93046
2.29999
2.06257
-12.7437
0.912335
-13.1684
-9.84982
2.56464
1.79054
-0.671272
-12.4092
-0.819695
1.98377
1.71048
1.11942
2.33283
1.90153
-12.4122
-0.549053
1.33142
1.52962
2.44036
-12.7622
2.64799
2.87815
-13.4704
2.0999
19.2295
9.57756
12.2957
9.96147
10.7052
9.9011
9.94806
9.68645
8.89486
16.3975
8.32778
10.4903
8.9252
9.37773
8.87792
8.88439
8.68281
8.521
13.697
7.06532
9.02605
8.02207
8.30943
8.01183
7.99196
7.84624
7.67249
11.5809
6.2179
7.80656
7.17971
7.38959
7.22597
7.21514
7.13146
6.9974
9.66587
5.63003
6.80853
6.4555
6.61782
6.54688
6.559
6.53677
6.43983
7.9645
5.24066
6.01562
5.866
5.99323
5.98423
6.01582
6.02979
5.99591
6.58634
5.08447
5.42023
5.40777
5.50437
5.53644
5.58523
5.62925
5.64756
5.55879
5.04091
4.98091
5.0556
5.12845
5.18666
5.24733
5.3123
5.29964
4.80107
4.86048
4.62509
4.7736
4.83901
4.91503
4.98382
5.05391
5.10116
4.20597
4.50802
4.32753
4.5432
4.61527
4.70353
4.7788
4.85458
4.90831
3.77803
4.17753
4.11574
4.36507
4.44444
4.53714
4.61541
4.69263
4.7716
3.60273
4.0322
4.01908
4.24107
4.31543
4.40127
4.47405
4.5404
4.65193
3.58778
4.03573
4.00559
4.15693
4.21588
4.28889
4.35578
4.42611
4.49851
3.55182
4.07476
4.01371
4.08832
4.12911
4.18641
4.24481
4.31164
4.35806
3.51296
4.10254
4.01417
4.01915
4.04419
4.08758
4.13984
4.20163
4.26041
3.47433
4.07415
3.98298
3.93589
3.95134
3.9843
4.03109
4.08563
4.15196
3.34198
3.91506
3.88364
3.82529
3.84325
3.87228
3.91589
3.96235
4.0461
3.16288
3.6545
3.72919
3.69072
3.7209
3.75321
3.79937
3.84991
3.93394
3.03153
3.40354
3.55984
3.54528
3.58773
3.62407
3.6701
3.72048
3.77862
2.93516
3.20116
3.39201
3.39798
3.44886
3.4891
3.53458
3.58417
3.64079
2.80231
3.03375
3.22499
3.25318
3.3082
3.35205
3.39807
3.45241
3.49305
2.59177
2.91374
3.05835
3.11171
3.16467
3.20877
3.25178
3.30594
3.27747
2.2568
2.89781
2.91226
2.98994
3.03555
3.07634
3.11578
3.16247
3.11406
1.85506
2.93337
2.71038
2.80521
2.84622
2.89004
2.94522
3.00306
2.93707
1.72487
3.23319
2.88083
2.96273
2.96721
2.93689
2.96443
3.01526
2.51545
13.1347
13.3879
13.8831
14.4345
15.0363
15.6956
16.3981
17.1426
17.9205
18.7174
19.5241
20.3289
21.1127
21.8702
22.589
23.2523
23.8559
24.3887
24.8396
25.2046
25.4908
25.7635
26.0138
26.0584
25.7768
25.487
25.5812
26.0811
26.7155
27.2588
27.8225
28.333
28.5583
28.6101
28.5869
28.4801
28.2932
28.062
27.7923
27.5111
27.2288
26.9552
26.6897
26.4386
26.2011
25.9561
25.7047
25.4382
25.1312
24.7901
24.4099
23.9931
23.5631
23.1235
22.6579
22.1961
21.7311
21.2693
20.9958
3.69503
3.45969
3.35044
3.2391
3.12027
2.98627
2.86143
2.76507
2.69811
2.66359
2.66406
2.7005
2.77251
2.8787
3.01756
3.1879
3.38892
3.62273
3.89458
4.21316
4.5924
5.05272
5.60388
6.25514
6.99973
7.59374
7.81045
7.65605
7.14888
6.56876
6.14441
5.8458
5.61858
5.44177
5.30743
5.19857
5.10557
5.02412
4.95096
4.88471
4.82454
4.77038
4.72424
4.68899
4.66914
4.67222
4.70607
4.77951
4.90363
5.07972
5.27141
5.47164
5.73667
6.10214
6.5336
6.9818
7.41587
7.85677
8.47613
7.63805
7.8559
8.05413
8.27242
8.50377
8.74845
9.00667
9.27785
9.5609
9.85385
10.1554
10.4631
10.7752
11.0888
11.4022
11.7139
12.0228
12.3289
12.6334
12.9379
13.2447
13.555
13.8637
14.1545
14.4098
14.5961
14.7241
14.7972
14.7963
14.7339
14.6641
14.5926
14.5121
14.4288
14.3467
14.2665
14.1892
14.1162
14.0489
13.9885
13.9366
13.8937
13.8615
13.8401
13.8301
13.8319
13.8451
13.8677
13.8989
13.9348
13.9748
14.0011
13.9977
13.9695
13.9262
13.8652
13.7842
13.7077
13.5815
4.81414
4.76264
4.78203
4.80709
4.84112
4.88763
4.94754
5.02299
5.1157
5.22737
5.35976
5.51422
5.69123
5.89136
6.11399
6.3582
6.62254
6.9047
7.20267
7.5133
7.83321
8.1572
8.47779
8.78389
9.06008
9.285
9.4426
9.52734
9.54235
9.50372
9.4321
9.33775
9.22631
9.10224
8.96821
8.82655
8.67907
8.52825
8.37772
8.23138
8.0941
7.97064
7.86677
7.7874
7.73796
7.72219
7.74292
7.80128
7.89617
8.02518
8.17953
8.35825
8.57324
8.79161
8.99864
9.21075
9.4167
9.62633
9.88332
5.96048
6.07778
6.20631
6.34722
6.49787
6.65758
6.82532
7.0006
7.18266
7.37059
7.56401
7.76246
7.96508
8.172
8.38245
8.59621
8.81287
9.03132
9.25129
9.47151
9.69027
9.90475
10.1108
10.3038
10.4768
10.6243
10.7412
10.8262
10.8789
10.9025
10.9033
10.8846
10.8509
10.8064
10.7531
10.6954
10.6354
10.5746
10.5182
10.4688
10.4295
10.403
10.3921
10.3985
10.4241
10.4686
10.5315
10.6108
10.7029
10.8034
10.9053
11.0137
11.1283
11.2187
11.284
11.3385
11.3786
11.4261
11.4463
4.97014
4.97533
5.02342
5.08188
5.15105
5.23281
5.32782
5.43649
5.55941
5.6963
5.84843
6.0155
6.19763
6.39424
6.60411
6.82576
7.05741
7.29413
7.53623
7.78046
8.02426
8.26201
8.48884
8.70176
8.89015
9.05359
9.18434
9.28418
9.35143
9.38726
9.39714
9.37921
9.34026
9.2853
9.21132
9.12883
9.03678
8.93081
8.82604
8.72361
8.62907
8.54708
8.48218
8.43887
8.42234
8.43106
8.46909
8.53367
8.62401
8.73766
8.87102
9.01832
9.17391
9.33228
9.49106
9.64487
9.78986
9.94393
10.1085
5.18268
5.23835
5.31839
5.41097
5.5137
5.62711
5.74927
5.88172
6.02357
6.17214
6.32874
6.49194
6.66344
6.84141
7.0242
7.21195
7.40753
7.59755
7.79243
7.98549
8.18032
8.36739
8.54433
8.7185
8.86474
9.00132
9.10904
9.2018
9.27257
9.31873
9.35356
9.3572
9.34586
9.33019
9.28698
9.25016
9.20862
9.13792
9.08815
9.03981
9.00085
8.97357
8.95997
8.96354
8.99484
9.03779
9.10872
9.19488
9.29888
9.41632
9.54215
9.67166
9.79757
9.92183
10.0366
10.1355
10.2228
10.3184
10.3991
4.92038
4.9195
4.9483
4.99738
5.05059
5.12715
5.20493
5.31703
5.43698
5.53736
5.67758
5.81979
5.98267
6.16353
6.34744
6.55402
6.77692
6.9372
7.12603
7.32107
7.53576
7.7303
7.90455
8.1096
8.23666
8.38417
8.47209
8.56679
8.63893
8.68479
8.74124
8.73026
8.71886
8.73017
8.65306
8.64927
8.66955
8.5182
8.43787
8.35656
8.28993
8.23371
8.18911
8.16178
8.22581
8.23825
8.33934
8.41127
8.47861
8.57783
8.71248
8.88027
9.03038
9.18294
9.34469
9.51226
9.66729
9.85376
9.99567
4.72703
4.79141
4.83105
4.92416
5.00922
5.12439
5.20728
5.27736
5.41141
5.62216
5.67563
5.81908
6.01053
6.14953
6.35814
6.43605
6.66474
6.83529
7.03239
7.16432
7.36064
7.50879
7.65162
7.84711
7.92833
8.07108
8.12847
8.22117
8.33925
8.29485
8.45694
8.44149
8.37371
8.43716
8.34316
8.40605
8.28761
8.10418
8.21125
8.145
8.10606
8.10962
8.04444
8.03914
8.07353
8.0532
8.10381
8.12252
8.30272
8.44435
8.54862
8.65877
8.78732
8.97684
9.15078
9.27516
9.40764
9.2618
9.50378
-1.8859
-2.00611
-1.81267
-1.52237
-1.10619
-0.606034
-0.153554
0.262241
0.665849
0.993798
1.28167
1.59506
1.87163
2.13081
2.52707
3.07376
3.66048
4.2781
4.98114
5.80179
6.74899
7.84232
9.14117
10.7726
12.2218
2.35403
2.42012
2.34744
2.22169
2.12396
2.17212
2.32455
2.51501
2.69468
2.76194
2.67861
2.52919
2.39334
2.31656
2.37564
2.55452
2.7049
2.78205
2.89031
3.08931
3.35182
3.64801
3.96791
4.33034
4.53531
1.41996
1.45383
1.50745
1.56382
1.65611
1.80819
1.98722
2.16147
2.30872
2.38842
2.39993
2.37907
2.35616
2.36019
2.4372
2.59302
2.79045
3.02074
3.30883
3.67129
4.11008
4.62829
5.2328
5.93123
6.78664
1.77312
1.78187
1.8407
1.89311
1.96333
2.05767
2.1666
2.27422
2.36788
2.43192
2.46524
2.48198
2.49818
2.52878
2.59098
2.68949
2.81679
2.97263
3.16593
3.40171
3.67759
3.98557
4.31201
4.62575
4.95239
1.81349
1.81491
1.8736
1.93115
2.00617
2.09304
2.18787
2.27857
2.35885
2.4213
2.46577
2.50021
2.53469
2.57857
2.64323
2.73521
2.85664
3.01134
3.20564
3.44359
3.72871
4.06334
4.45339
4.89571
5.47165
1.89949
1.90878
1.96768
2.02032
2.09047
2.16431
2.24546
2.32114
2.39058
2.44926
2.49608
2.53658
2.57803
2.62511
2.68614
2.76713
2.87227
3.00609
3.17276
3.37332
3.60995
3.88031
4.18061
4.49069
4.87475
2.00092
1.96876
2.0348
2.07913
2.14694
2.21092
2.28624
2.35274
2.41668
2.47384
2.52039
2.56239
2.6073
2.65512
2.71409
2.79004
2.88769
3.01257
3.16875
3.35542
3.57922
3.83855
4.13545
4.47159
4.91213
2.09663
2.01122
2.09626
2.13044
2.19999
2.25496
2.33022
2.38824
2.44713
2.50329
2.54641
2.586
2.6343
2.68189
2.73808
2.80959
2.90005
3.01498
3.15747
3.32471
3.53158
3.76756
4.06374
4.39533
4.78422
2.08439
2.03497
2.16375
2.17877
2.24912
2.28021
2.36151
2.40553
2.47699
2.53196
2.57627
2.60818
2.65159
2.69281
2.74734
2.81202
2.894
2.99971
3.15569
3.31635
3.50162
3.73476
3.97881
4.1058
4.33777
-14.0123
-13.1416
-0.70573
7.21801
2.8914
2.81557
-2.51822
3.58901
-2.33718
7.6206
-12.299
3.78588
-15.9044
2.09161
-7.46852
5.35747
-9.24343
7.098
7.82784
-17.1998
-17.4246
6.01447
-12.0301
5.91676
3.52763
4.78475
3.48934
2.30456
-11.851
-10.9841
7.08995
5.72889
-14.2088
-12.217
-11.3154
3.29833
-3.75939
-7.0957
-5.83934
6.31884
-12.9288
6.53664
5.45786
2.24234
3.77374
7.3976
-11.9898
-10.4893
-11.0605
-13.7895
-11.9828
-12.4695
-16.5012
7.2611
-2.38553
-2.06742
2.06309
-17.3756
2.66738
-9.66115
3.51065
0.183093
2.91055
5.40985
3.52712
2.30649
5.22656
5.78965
-14.4227
-12.7337
-2.66239
6.49966
3.02733
-15.8172
3.14782
-18.0405
-14.3347
-11.9466
2.41428
7.5998
-12.177
3.7026
3.95993
-9.44273
3.08317
3.54346
2.96262
-12.1278
-14.3038
4.30909
4.83291
4.54363
7.71078
3.84343
2.91736
-12.1575
4.6493
-11.6944
6.38766
-9.76348
2.56923
-13.4173
2.55754
6.01113
2.74198
2.57545
-12.0816
-13.0867
4.54738
-10.6247
5.24523
4.12927
-11.2747
6.00022
-16.9699
-10.964
-13.4025
6.60496
-15.5871
4.268
5.20058
4.04723
6.21504
3.65475
-14.0754
5.46538
-12.6582
-17.5184
2.06187
-10.7574
4.16908
-15.9486
-12.2533
-9.60743
2.17302
2.99229
3.77699
2.69453
3.89506
-16.5034
5.07978
-4.47636
-10.2945
5.25734
-11.4463
4.87468
5.95346
-15.3322
4.01554
-11.5125
0.503091
1.60048
5.64179
-7.85692
3.54307
-10.4407
2.93015
6.5236
-12.3591
7.36676
5.86458
-2.77263
4.53663
-11.723
6.77168
-9.33693
2.01098
3.28524
6.30595
2.94933
2.09399
5.54639
5.4726
-9.60362
4.81958
2.36029
-12.8622
-12.1062
-10.4589
6.76453
-10.9212
6.18349
-16.0822
-10.4933
2.69943
7.32429
-9.67662
4.49557
-14.3481
4.558
-10.3411
-10.4934
-5.60288
-3.32545
-7.78033
-14.1993
3.16913
5.91912
-11.1144
-11.7492
-14.8108
5.98158
3.88163
4.307
0.803064
7.01937
5.52303
2.62299
-11.6053
6.56441
2.74632
3.96479
-10.9014
0.685243
0.313639
-12.6146
2.81197
7.55853
8.22063
3.63856
2.53042
6.61022
3.64907
0.797234
8.39218
-13.2275
4.89872
-8.97223
4.53047
2.989
-10.1749
3.45952
5.96689
4.23331
-5.2283
7.16522
-11.875
2.35347
-10.6926
-7.23444
6.41112
3.37699
6.81112
2.33661
3.03049
3.3236
5.38671
2.64044
5.00913
6.95594
4.61515
2.42934
5.98196
-11.5573
5.13542
3.0928
-11.0781
-13.9167
-12.3202
9.41622
4.94543
2.03743
4.12656
3.43131
-15.6159
3.75696
7.54035
5.26054
-3.15065
3.30078
-15.6684
-6.2787
6.15379
7.60784
8.28427
5.07097
5.43073
-4.05208
1.9661
-12.0407
2.45569
0.493228
6.36682
7.13858
-10.1596
4.33306
2.46912
8.08186
-12.5226
-10.2518
-4.85357
4.72502
6.1136
-12.5255
-12.028
-12.754
-12.0881
4.73175
7.17494
-10.7598
-11.3576
5.62336
7.20434
4.44439
-11.7025
7.19282
-17.7864
5.3395
-16.7872
3.89229
5.96105
6.9911
-14.2914
2.19803
6.10726
-3.05188
-11.9792
6.04044
3.55022
-9.51668
-12.7061
4.64405
7.21512
7.08802
3.16299
3.78466
-13.6199
-12.9711
4.92212
-16.7669
6.58351
-7.89004
2.54671
7.34782
-12.5098
3.48467
3.7166
4.16878
4.5128
5.37697
3.98204
3.68583
-10.5853
6.31503
-15.5479
2.83902
2.73886
6.31467
3.11907
-10.6109
-0.594563
7.78246
5.55914
-12.4239
-12.5508
8.39622
-8.52586
1.91583
6.73573
-9.49398
-11.7683
-12.0359
7.42959
-13.4539
6.68328
2.99885
5.54383
-12.3997
3.91292
-14.0779
7.43392
-8.22615
-11.8601
-7.96381
-14.6847
3.95461
4.06147
7.17832
7.46187
7.01725
-11.9788
4.7026
-13.8822
2.11466
2.19141
-10.521
6.95631
-17.1565
-12.6067
-10.1262
-0.513243
7.32126
3.38091
-12.0922
-10.7517
8.32257
6.89922
-13.9587
6.70399
-11.5018
3.50131
5.53442
2.99246
-13.6907
3.58631
7.38621
-3.54984
3.36076
0.530853
5.99325
-10.5344
3.77985
-10.5293
3.71464
4.6432
8.33977
-10.8661
-10.4291
7.31037
4.71877
6.41916
7.22707
4.24336
2.48682
6.61768
-11.589
4.56024
6.81655
5.38076
5.71374
3.67499
3.07448
4.02499
2.45953
-3.46093
5.79902
4.80529
6.05954
6.24124
8.01243
7.2975
-7.34399
-12.8006
1.30391
-14.5773
4.08238
2.43729
-6.24581
2.70414
2.39114
-8.02701
6.16519
4.3252
-10.7481
7.44562
-12.7533
-9.24294
3.81994
4.85771
-15.9586
4.4861
1.88317
-10.6586
-11.1874
-11.6297
3.16165
2.8176
0.97636
7.30666
-12.1503
2.43388
3.1034
-11.8978
8.11578
3.6875
-13.2729
3.9728
3.0052
-14.9176
-15.0602
0.199979
-6.62148
7.01395
3.69763
-10.0318
3.01708
3.7093
7.09688
-13.017
5.97886
-9.12971
4.95592
3.95891
-11.9665
3.85046
2.74081
-8.43423
3.7422
7.65117
-14.0842
5.56309
-4.28987
4.04319
2.32998
-13.4061
-11.9776
4.86
4.50751
-3.39784
4.94665
6.134
-11.5615
4.96223
4.1797
7.37079
-12.4175
-12.0386
-10.6374
3.91231
-0.172811
7.50142
-10.5898
-17.1478
6.20438
-12.0771
7.3551
-11.7451
-13.6062
6.91911
6.39828
2.46219
5.9245
4.13163
-4.11737
4.24109
0.969621
4.76196
-10.9056
-11.1711
4.74621
-10.4148
-10.6122
5.21374
-12.3255
5.55612
1.70456
4.45087
2.52067
3.76916
-4.5222
-5.32387
-6.9622
2.09092
-11.4999
-10.7848
-11.848
3.55588
7.32382
-15.2189
-12.148
5.01156
-10.3969
4.63213
-13.8551
-10.8793
7.97168
0.0102555
2.59124
5.96413
4.28297
-14.3817
7.76658
-7.84407
2.83067
2.82833
-11.0313
-10.7427
-11.9484
2.49171
4.33457
-15.5968
-17.0819
5.74609
7.44821
3.74595
-13.8659
5.95743
2.81892
-5.14154
7.01793
2.81183
3.01246
5.43203
-9.27029
7.33447
2.57525
-12.7179
-10.984
2.89434
6.29301
-10.5046
2.35525
6.79654
7.06031
-17.0567
5.33101
4.02239
6.0704
8.25693
6.06339
5.9212
-5.68641
3.42764
6.23969
2.54171
-16.224
7.69351
2.72922
2.4167
5.70856
3.23506
4.35539
7.09591
1.44143
3.30595
-9.8901
-9.61821
2.28057
-13.6667
3.03427
3.19857
3.0493
7.18431
5.04822
4.29315
-15.3695
4.6285
3.77377
1.6789
-10.4126
-0.207901
2.19111
2.31667
5.66209
2.91866
7.32687
4.6433
1.19657
-10.0755
-9.03897
-12.377
7.6504
7.49866
5.47178
7.63111
6.1519
-10.7702
10.3628
-17.6289
6.81142
-11.9102
7.8971
-11.966
5.3565
3.11736
3.72051
-13.0819
-6.36641
2.26353
-16.9554
3.25571
8.51819
3.18411
-11.2554
6.90088
4.50202
-9.26057
3.38095
7.42067
6.91552
6.25243
-15.6564
7.19749
4.09085
7.54138
2.13334
7.03972
-11.2627
-12.4213
5.36375
-4.18594
7.25784
-12.3135
3.97483
7.42538
6.8166
4.58415
-5.05939
4.89522
6.31213
2.70387
5.92464
5.0303
6.48999
7.28574
-9.62507
-9.48482
0.68434
-11.0662
-5.79971
-13.1969
-11.4262
8.98005
2.94402
3.16659
7.38038
4.58981
1.92634
5.16129
3.52906
-14.9233
6.85021
5.73534
2.85776
6.45752
5.08391
3.42293
0.811127
-12.5051
-12.8673
7.83979
-11.1684
-1.40432
-12.2061
-17.2815
-13.1988
-12.7294
4.48757
7.57785
4.92941
6.9024
6.37938
4.32878
-11.9832
-12.9977
6.63392
-12.9703
1.32432
7.68205
3.48249
3.92738
-9.40487
2.20856
3.58043
-2.04802
-8.81366
-14.884
-12.0377
7.39171
7.38707
3.07188
7.03107
-11.9565
0.204139
-12.2153
-8.46752
2.99281
-9.31805
4.44324
7.49241
2.57173
2.78913
2.72076
7.44773
4.94996
2.88237
4.4036
4.23411
5.60525
4.21615
4.35345
6.73381
-11.467
-5.68703
5.94793
-0.022708
5.28647
-16.1478
3.14221
8.7249
6.51822
-15.1902
0.50352
7.12022
4.95094
-11.0805
2.15015
-13.8701
4.23352
-14.7718
-12.7187
-10.5567
3.80816
-9.3438
1.79447
6.96084
-12.3162
6.34319
3.49876
4.08569
-14.5781
-0.91099
5.70054
3.04579
-13.525
3.08937
1.29617
-9.88806
6.91149
5.95768
-3.89764
-12.2295
-13.8455
7.12306
7.51788
7.10751
-15.0146
-4.81876
6.43481
3.28681
2.78368
-12.8872
7.82808
3.36456
-13.3947
8.34703
4.12555
4.95413
7.81322
-14.3136
4.1966
-15.5668
6.68311
3.88918
-12.5794
6.24935
7.237
7.25801
2.38978
-15.2388
-12.2024
7.37124
7.02295
4.07887
-8.40075
-16.078
0.32779
4.36406
-13.0022
-6.83501
4.64277
2.93807
2.68545
-10.2866
6.8561
-14.5992
5.22385
4.65916
-10.2305
4.85364
5.86881
2.8808
-15.997
-11.2214
-9.86314
-10.0313
7.56548
-13.8357
-8.60031
6.79922
-2.58646
3.25388
2.72035
-16.1475
4.15029
3.67775
-16.9089
2.49237
8.06025
7.9319
-14.4403
1.88868
5.12075
-10.4907
-12.0429
-11.0552
6.93329
4.11771
-10.6441
-11.8061
-11.7776
-15.0198
-13.8478
1.43033
7.25447
-0.362003
-10.5357
5.76135
6.51123
1.55479
-9.1158
5.31851
-1.31034
-13.3765
5.4266
2.77085
7.2451
-9.97987
-3.59235
-11.5551
-10.9652
7.38523
2.3121
0.134666
3.95705
-12.457
-17.0568
7.19076
4.26103
4.11472
7.61275
-14.412
-12.4025
4.24916
-10.8946
6.11359
-11.7709
7.32494
3.28267
3.65683
-4.81418
-12.1051
2.17773
-15.2569
5.00226
5.18622
-4.70827
5.49965
-8.45538
-9.94505
-10.6717
4.16412
6.44195
-4.07626
4.83404
6.06525
3.55247
-11.2148
5.00108
2.5006
-11.7824
-4.03453
2.80491
4.191
5.4439
6.03708
2.77953
6.10736
-16.0219
7.02294
4.02349
-10.691
-16.4949
-5.80787
4.60594
4.3834
-0.721593
7.84974
-11.1394
2.83592
2.67991
-11.1726
4.74788
3.84718
1.45181
3.20604
-11.5349
7.23412
6.86166
6.88046
-2.73648
-2.57802
-13.4051
3.66935
-13.5831
5.20403
5.29565
4.99059
-10.9994
-10.6145
5.80366
-10.0639
7.81679
-10.8734
4.43791
-11.3895
3.04269
3.30273
5.58503
-1.51795
-6.47417
4.31373
7.12081
-16.1004
7.42784
6.86335
3.78006
6.83573
4.40144
-10.9853
5.45634
4.58547
-9.46566
2.44648
-10.0714
7.63338
5.82177
5.70522
8.37819
6.20274
2.73668
-13.4257
8.33101
2.01891
7.36526
3.86981
-0.384709
-10.7714
6.43455
7.27932
4.60675
6.08347
7.48903
6.24308
-10.5473
7.52428
-16.7086
4.90338
-5.02351
-11.7378
2.43842
-15.7529
4.98206
-12.5693
-11.9845
-10.2848
3.80306
4.12061
2.36811
-11.8389
6.34702
1.60021
5.26661
3.62896
-11.3893
2.62025
6.21983
2.69863
7.72204
7.35949
8.35765
-12.3206
9.1146
-14.6561
6.68375
5.86679
6.98636
6.98928
-15.3109
7.86044
-15.829
-12.5142
3.08992
5.99825
-11.4281
-11.418
7.44924
7.29522
6.65696
5.98258
7.47315
2.45944
-11.6713
4.42583
8.12382
-14.7497
3.71253
0.788996
-5.8982
6.75933
3.03161
7.06913
2.54482
-11.5053
3.00602
-13.947
6.52086
2.50116
5.95532
-13.6284
-13.8202
6.58257
8.10967
-12.9986
6.60667
2.76327
-10.2902
-12.0411
8.11951
7.42758
7.87235
2.26064
-13.0023
3.43378
8.08664
-13.1829
-10.8357
7.47508
6.27994
3.13517
8.35826
4.3783
-15.7391
3.71015
-11.0218
3.86314
7.04034
3.30211
-15.3815
5.78483
-12.5969
-10.7739
-10.3707
-13.11
-11.9
7.46772
5.29616
-13.1441
-14.8096
3.94731
7.08605
4.23268
2.5213
6.13894
3.61399
4.15946
-8.60033
2.9656
2.40268
-5.65814
2.69323
4.07018
4.90475
-10.3367
7.61417
-12.7257
-11.9443
2.68593
6.16035
4.09144
5.79271
4.09857
-12.951
2.52729
7.05293
3.92987
6.09277
-11.0256
-13.551
5.43603
4.53455
2.99374
7.369
3.06153
2.3321
7.58939
2.66813
1.6811
-11.7942
7.19837
4.92234
-6.4896
4.47288
3.38287
5.05911
3.38821
4.04077
6.66008
-15.5493
4.88301
5.66293
-11.0196
3.00295
-0.660419
-5.99926
7.00816
4.05814
6.99689
-8.54139
5.0967
-13.2365
7.48755
-5.41057
-13.8318
-17.1911
-11.8708
8.08684
3.54494
-15.6641
-13.0696
2.63332
6.13774
8.03114
-12.2421
7.01121
4.86207
7.77218
7.00494
-0.69684
7.88608
2.87623
7.39208
-11.7572
-16.2259
6.83594
7.83889
6.60855
6.2247
4.1685
-11.601
7.66605
0.811333
-14.4279
-16.6135
7.06821
-13.097
-11.6475
-16.5155
-12.4351
1.75749
-11.9746
-12.7623
-10.3799
7.45142
-10.9822
7.62657
-3.18307
8.02808
7.43262
-13.0651
-9.0964
-11.4999
-11.7016
2.46401
5.8834
-2.36965
-13.0122
8.01444
-13.286
6.24407
-16.6056
7.37693
-11.5932
0.710409
2.75864
4.36568
-16.9773
4.01708
1.41605
-16.2597
6.69209
-11.1009
4.50835
5.93707
-8.17266
-2.01292
4.426
-15.543
-7.43956
7.71475
-14.2363
7.78771
7.25709
2.4142
2.98347
-13.3175
-12.9293
7.6165
-13.9128
6.4248
-16.4547
7.85312
6.92014
5.81084
-17.1426
-0.98373
-10.8822
5.31347
-10.7651
3.41953
-14.2961
-12.9867
0.5944
6.57981
-12.061
5.85694
4.90339
6.76886
-11.8418
-13.2375
3.55158
-14.1192
4.70723
4.38444
-2.97961
5.25688
3.94669
-13.4693
7.07813
7.11419
8.25725
4.06786
6.0589
7.91543
-13.9584
-12.1041
4.16757
7.37422
4.69743
-12.5373
-11.7915
3.74717
1.96818
2.5528
-14.3297
1.922
-1.01986
-13.9441
3.39643
-14.8688
-13.1269
3.60597
3.75075
7.32697
7.58594
3.19821
5.15152
2.69549
2.35076
-12.7766
5.65185
-13.6605
3.65079
-12.5762
6.4349
-10.0686
0.58462
-15.376
-11.6821
2.75876
0.916786
5.63039
5.82449
5.47928
-11.2978
-10.8298
7.21945
7.16326
4.71723
6.14727
3.95324
4.62342
-13.3323
-10.7438
-15.7214
-13.5666
6.99668
3.22858
-12.1995
6.33581
-11.8035
7.04543
3.62663
2.74966
4.87888
3.74044
5.03116
3.59027
0.910068
-13.45
-11.8898
8.05143
3.77968
-14.8991
-3.42124
4.24639
-11.5376
-12.9604
-10.3414
5.782
-16.5952
4.06856
7.14016
7.11841
3.41298
8.82942
-10.6184
-12.4857
6.67605
2.47141
-16.2893
4.54331
-12.9896
-10.0147
5.08554
2.21374
6.20907
2.55948
-11.608
3.05932
-11.7983
2.58974
6.80362
2.61923
7.1731
2.16212
6.83724
5.37391
7.05445
3.10947
4.46911
-14.0381
7.34806
-9.35339
4.77155
5.13868
6.4376
2.65676
4.26576
-5.88802
-12.7745
4.77415
-12.4306
7.83419
-12.796
6.33358
6.64296
3.64199
3.19379
-11.2929
5.34769
5.41559
-3.51324
-9.53914
5.83963
7.48355
7.30363
6.25729
-3.67405
4.2467
4.62311
-14.4736
3.76923
7.68704
5.41121
-13.7292
5.03151
-12.1438
-12.2357
8.17821
2.88956
6.25161
7.02859
-13.8299
5.62851
7.54185
6.21464
-15.649
2.62752
6.48221
3.41069
-5.81696
-9.66012
2.7188
4.2972
-10.5968
7.3243
-0.897081
-11.6963
5.56156
-0.71231
-11.8932
7.3049
-11.9102
7.12966
5.07563
7.06869
3.74181
-7.80742
-10.3833
5.96346
7.54463
-12.5276
5.62409
6.48745
7.30036
2.02493
-3.37767
3.31964
2.97737
7.75706
4.83544
3.12652
5.02816
2.65394
7.03888
-9.96425
-15.0918
3.04389
-12.792
2.68589
-14.1142
-11.6558
-14.6027
-10.5581
8.35122
6.78865
-15.0436
6.64629
6.39035
-11.1253
4.92631
4.0276
-12.1208
-15.335
6.07118
-10.1513
3.00365
-11.6325
2.78005
7.36163
-3.71429
2.39339
-13.974
5.22936
7.33191
2.2534
5.09777
-7.75828
0.880603
6.08411
-12.6899
2.32067
-12.5057
2.5897
-13.7595
5.5279
6.97943
4.06795
7.78629
-16.2627
-9.93379
-14.993
2.94426
-13.677
-10.9525
8.13411
-16.4129
-0.114553
7.48176
-16.2643
-11.2129
5.51777
2.73238
2.84884
-13.5296
3.79955
7.78533
-11.4969
-14.7771
2.22066
-13.303
-11.6487
3.90716
2.49693
-2.96953
2.65592
-15.8136
2.75762
7.0799
3.84772
-10.6813
3.06732
-1.08867
-12.417
3.44638
-1.00065
-7.34691
7.07789
-11.9656
6.86919
-16.5315
6.10535
3.85202
4.96216
7.23655
4.32421
4.64901
6.82994
2.76491
8.00967
-12.8361
-14.8651
4.31901
-16.8831
3.11227
3.96439
5.5252
6.10755
5.06702
-6.69699
7.81806
-3.58334
-12.9486
-5.63177
-14.5038
8.21648
6.04331
-12.7578
6.47134
3.03564
5.31494
3.81245
4.22965
-10.4719
6.33695
7.07552
3.28901
2.5532
2.48674
-4.91499
-0.455598
-1.76829
-13.3876
4.26952
3.69969
4.61658
5.15372
3.29454
4.16662
2.56681
3.89217
6.36077
6.39733
7.80418
-2.10198
-12.9121
-11.8061
2.66461
6.69788
-1.33371
-10.3747
-11.2521
2.98548
4.33162
1.98958
7.14012
3.40366
2.66032
-10.7262
-0.756359
3.59436
4.65828
5.32988
2.79917
-12.4207
3.25883
5.77476
3.96397
4.90574
-11.5737
7.60958
-7.74986
8.34177
2.73451
2.89266
6.83756
-11.434
0.525762
5.65337
-13.2847
-14.5304
1.46475
7.5571
5.04135
-10.7727
-13.938
-13.4899
4.12105
-16.4263
7.1011
9.13529
-10.4031
-11.1266
3.58995
4.34025
-1.68329
-4.20215
6.70027
3.13661
-11.1778
3.75717
8.35538
5.06947
6.37205
4.75291
7.76268
7.24783
6.86496
-12.9652
5.94912
3.24149
2.87135
6.83896
1.07562
2.72467
-16.3419
-0.765159
-0.53127
7.08284
6.55847
5.59437
8.13619
5.31176
3.77566
-14.9968
6.80916
2.7638
8.04407
0.586969
4.79546
2.96922
7.01517
-12.8004
3.26211
-14.389
5.64545
8.8486
6.5472
5.58583
7.25517
-11.7143
6.12122
2.88628
6.77256
6.35632
-10.8145
4.26024
6.91256
-13.676
-13.5333
3.33576
-11.4964
7.2089
-13.1107
7.40132
-13.8514
7.56546
-2.87297
4.15769
-12.0188
2.3575
-10.1746
-10.1955
-10.7499
1.78898
-13.5682
4.03528
3.16131
4.13207
-11.8573
6.78311
2.88451
-16.3794
-11.0757
-12.3817
7.01028
-13.7007
2.93829
5.4555
3.48968
0.175826
7.0362
-5.67231
5.90592
4.72887
7.24533
7.87613
6.36835
-14.2421
6.99126
7.69648
-11.1723
-0.107849
3.06545
4.08827
-10.7656
6.39416
6.56892
-12.6041
6.63192
-4.15058
-3.19704
6.48437
2.5214
-17.2065
4.37777
6.31963
7.39524
3.4505
6.65213
4.59936
-13.2369
3.18004
-11.1154
2.16925
2.67202
-11.3475
0.654008
1.88111
6.87349
3.24161
4.77419
3.19518
-13.6756
-12.095
7.10886
5.6046
4.57385
-10.8432
2.70132
-1.13413
3.15199
2.68047
6.75282
7.45417
-2.07755
2.67785
-14.1351
-12.0351
7.1817
-9.15943
8.40699
-14.3278
0.183527
3.58889
5.96962
2.69045
5.91852
5.32721
-10.431
-7.37784
-13.6121
-11.2174
-16.3939
6.23611
3.23285
-4.25274
3.30622
-2.66733
-13.2005
7.01085
-10.8306
-14.9563
-9.99661
6.65248
3.13249
4.26873
6.64298
-13.4657
7.42724
-12.6464
6.82544
8.09423
2.67649
-11.127
-11.5552
4.5442
7.81632
8.19355
6.32221
5.55099
-0.517595
-15.4729
5.73772
3.87102
-11.9733
7.09595
-12.6397
7.07507
4.55243
7.17134
-11.5583
6.42709
4.37141
7.08191
7.2441
2.3389
4.99104
-11.1098
2.45745
4.43587
5.57158
4.09132
-15.8796
3.68697
3.10853
-6.39392
-11.7052
2.65934
-13.8091
6.9903
-10.8354
-16.4512
6.46301
2.39619
5.31805
4.77461
2.93966
-14.4394
-0.0074047
6.50338
3.68583
-7.33921
-8.20261
-9.34683
-14.4519
1.30168
7.53795
-12.0889
2.66034
3.763
4.04169
6.74375
-15.4103
-13.2219
5.75687
-14.0626
6.45825
-15.3125
-3.31136
-10.8759
-13.5917
-10.7542
3.01301
2.40461
7.23869
2.68312
-16.7233
-5.27126
7.59523
-0.358301
3.00792
-11.973
6.87799
-4.16307
-7.39256
-10.7706
2.66043
-11.8236
2.04144
-13.6183
-11.7189
7.36904
3.04233
5.51234
7.77255
4.80489
-4.81547
7.19959
4.97659
-12.6491
2.96915
1.76066
2.37014
5.75487
7.48345
-14.0244
-13.8327
2.10434
-11.1387
4.167
6.54394
5.48777
-11.999
-13.2073
-12.3911
5.0353
6.52954
6.19414
-11.1326
2.10418
-0.269682
4.58077
-13.2546
4.89924
2.20597
-16.0768
6.70701
8.02443
2.71652
3.56596
4.34441
8.01407
-5.04545
5.14459
6.7068
-12.4124
5.06323
-10.1938
-10.8127
2.30826
-6.04755
7.56587
-10.6839
7.72264
-10.6049
3.94573
6.44389
7.38821
7.52538
5.83552
1.42341
8.2934
-15.9815
5.2461
6.68111
5.43716
-13.5493
6.48347
6.50959
5.15554
-14.0492
4.48571
-10.2653
-10.339
7.85971
7.43392
-2.23246
-13.3351
-15.3414
-1.75225
7.69963
2.73801
-13.4561
-12.1356
-11.2293
-10.0624
6.56529
5.63648
4.76328
2.4101
8.2436
7.13705
6.5637
3.08667
6.86297
-15.4243
5.80062
-14.5204
6.32942
4.61941
-6.98834
4.71858
-15.9812
2.52424
3.22367
4.22049
4.23534
7.80466
3.1894
-4.98938
1.05001
4.91672
-2.95345
-13.3423
-10.4961
7.84745
1.01332
-10.9951
-13.7111
-12.8138
-13.2791
-10.1116
7.41314
5.86018
5.36196
4.0074
-14.5726
-13.1193
2.99299
7.64032
2.4847
7.79029
-10.0336
4.93995
-14.7546
3.99231
3.03774
4.60749
-11.4449
4.85303
-17.0771
-11.6406
2.08483
2.23917
4.57758
7.4571
2.72609
3.74924
-4.04352
7.24337
7.02935
4.49951
6.93285
2.31756
-12.1643
-1.11064
-5.30662
-7.87952
-13.4548
-12.6728
2.51882
6.1618
-10.8856
8.1251
4.25369
-16.6698
7.06269
6.8268
5.68913
-5.13462
-12.8766
5.46929
6.57979
6.24084
-13.2766
4.93311
-14.9762
-13.7736