/*--------------------------------*- C++ -*----------------------------------*\
  =========                 |
  \\      /  F ield         | OpenFOAM: The Open Source CFD Toolbox
   \\    /   O peration     | Website:  https://openfoam.org
    \\  /    A nd           | Version:  10
     \\/     M anipulation  |
\*---------------------------------------------------------------------------*/
FoamFile
{
    format      ascii;
    class       surfaceScalarField;
    location    "1600";
    object      phi;
}
// * * * * * * * * * * * * * * * * * * * * * * * * * * * * * * * * * * * * * //

dimensions      [0 3 -1 0 0 0 0];

internalField   nonuniform List<scalar> 
16133
(
2.81222
1.23493
-1.61576
-2.43116
-2.70637
2.68271
-3.01367
3.03736
-0.889253
-3.43182
2.68279
1.6383
0.6803
-1.09756
-4.80094
5.21825
-1.384
0.513774
5.71125
-4.84097
4.78895
1.56357
-6.24481
-0.107709
-3.82047
1.17295
2.27876
0.368783
-0.0590986
-3.73778
0.968446
2.82843
-2.05839
3.10819
2.18203
-3.23183
0.532333
3.87211
0.0122667
-4.41671
3.67281
-3.38388
2.61324
-2.90212
5.03482
-2.22774
2.09313
-4.90015
-0.250406
-4.03973
2.42181
1.86832
1.04157
-0.865845
0.873431
-1.04916
1.18594
1.02853
-1.17291
-1.79012
1.32442
-4.17135
4.63706
-0.87517
0.736563
-0.727244
-5.18176
1.14367
3.77273
0.265322
-5.32125
4.30395
-1.04111
1.08922
3.21228
-1.48928
-0.814303
3.1501
-2.6604
0.324605
0.352668
-4.49885
4.82647
-4.50839
4.51441
-1.79612
7.24657
-5.93701
-0.22077
-1.0888
-4.48346
5.356
-0.340191
-0.00272366
0.00302875
-0.0798796
0.0795741
0.0434073
-0.00513464
-0.0273172
-0.0109556
-0.197978
-2.38128
2.14702
0.432237
-0.0275366
0.0506127
-0.0137186
-0.00935782
-4.06534
2.75568
3.52514
-1.11398
-5.48312
3.07197
-2.66733
2.62693
3.71326
1.17968
-3.40624
2.16746
-0.053834
0.150966
0.0113018
-0.108435
-3.44289
-3.38293
3.50617
3.31966
-1.61028
2.75575
1.87886
-3.02431
-2.75209
-5.13779
4.44697
-0.0586235
0.0924016
-0.10784
0.0740612
0.0470233
0.0988415
-0.0254186
-0.120446
-5.25053
0.977117
-1.04784
-4.21277
0.159691
-3.78731
-0.922413
-1.10367
-0.482234
0.169079
1.41682
-1.74071
4.25126
1.28351
-3.79404
4.95275
-2.07908
-5.62574
3.09496
-1.09892
0.525473
0.0507132
-0.489307
-0.441435
0.723834
0.206902
2.47536
1.46762
-0.834785
4.61925
-4.24446
-0.0221377
-1.9168
-2.63528
-5.29124
5.51213
-4.13122
3.91032
0.134872
0.0455724
-0.133421
-0.0229148
0.0363412
0.0400045
-0.0534311
-0.0181123
0.0553737
0.06158
-0.0152237
-0.0165006
0.00418752
4.81051
-2.52729
-7.42102
-0.0807121
-0.0889705
0.1353
0.0343826
-0.5166
0.796171
-0.653811
0.374232
4.52254
0.0824621
0.0183977
0.0340117
2.69354
-2.25456
-3.14534
0.0993973
0.00342632
-0.0103257
-0.0924982
2.48208
-4.76322
4.33579
-2.05465
2.29013
-1.84575
-4.22205
2.70942
-1.91918
-0.464893
-0.283172
0.231461
-0.0280009
0.32749
-0.0138871
-0.285602
1.24655
2.872
-5.18947
0.299196
-1.04675
0.023291
0.00283184
-0.0490378
0.118917
-0.0356732
0.0132812
-0.0965246
-1.14909
0.580825
1.95815
-1.3899
2.23423
-3.52082
-2.93545
1.08202
-1.58565
1.68956
-1.09948
-1.29321
1.46353
0.92915
-6.01994
1.78992
-0.959447
-2.35692
1.47066
2.05921
-2.20273
2.03205
1.35035
1.4684
-1.2861
0.899726
5.19116
-4.88437
0.17492
-0.481716
2.35918
-2.01147
-1.31378
0.966061
0.0592674
0.132557
-0.146252
0.0463501
0.0475087
-0.0575177
5.79664
0.0768489
-0.682327
-2.67305
2.25072
2.00464
-1.5823
2.57375
-2.19655
-2.42024
2.04304
4.28127
-3.78456
-2.23739
1.41113
-0.641629
0.947599
-1.7171
2.95749
-2.426
2.04226
4.84414
1.68572
-2.24855
6.25057
-2.50396
2.70032
0.893778
1.82491
-1.96895
1.55518
3.38727
-2.27955
1.84979
-3.0346
-1.24874
0.78641
5.22593
0.238291
0.760877
-1.24111
-1.10542
0.838304
-0.553251
0.511115
-4.79675
5.19574
-0.2661
-0.132817
1.66488
-1.54563
4.27374
-4.27844
1.2354
-1.2307
1.87907
-2.2013
1.80401
0.784948
4.39194
-0.903154
1.13605
3.01474
0.774798
0.00808748
-0.273208
-0.922215
7.56472
-0.845852
1.57365
-1.06283
0.957575
-0.64227
-3.81796
0.215761
-4.10361
-1.55883
-1.75478
-1.24668
0.989974
-1.17146
0.990335
-0.164015
-3.84629
-4.00506
-0.420336
4.90709
0.709021
2.34015
-3.57581
-2.62648
3.96493
-5.0641
-0.0088071
4.65262
2.30912
3.08329
-0.485273
0.78441
-0.182698
-1.7012
2.6804
-2.76623
-1.27082
0.805852
3.18407
-2.7191
-3.29609
3.48837
2.42399
-2.61622
-0.0566402
0.131207
0.00806103
-0.082628
-0.104263
1.08843
1.71518
-2.01922
6.41355
-5.19072
-0.0696749
0.0555163
-0.0134411
0.0275997
2.18234
-2.36474
-3.0779
-2.88549
-3.25278
-1.08432
0.826746
-0.0155387
0.12933
0.00512496
-0.0608742
0.161584
0.100333
-0.201042
-0.976971
1.16071
-3.21832
0.227441
5.22911
-3.09439
-3.54305
0.821498
-1.35038
1.01961
-4.14368
5.58975
-0.110419
-0.14751
-0.206967
-0.872613
3.03766
-6.0165
3.85143
5.062
1.24489
-1.2322
1.23895
-1.25167
2.83903
-3.01013
1.10809
-3.91725
-1.12763
0.855595
-0.603144
3.94669
1.93243
-6.75172
-0.605578
0.17452
-0.0582497
-1.86578
-6.28726
2.97989
-2.55339
4.6627
2.32164
4.71147
2.36423
-0.194625
0.0490029
0.326323
-0.180702
3.78342
1.98101
-2.27602
0.820246
-2.52172
2.97299
2.8532
-3.30442
7.12344
1.84931
-3.28635
-5.68645
-0.948109
0.737216
-4.32962
4.45263
5.58685
-5.5546
-0.954427
-1.04913
1.67586
4.7482
3.9745
-3.04412
2.3651
-2.72722
-5.12966
0.245622
4.87527
-4.06598
3.17559
-2.378
3.2684
-4.87667
-5.90301
-0.318383
-3.34483
0.583638
-0.593689
-1.13904
-0.00366331
0.0175237
-0.0130233
-0.000837142
-0.790835
0.794612
5.07992
-4.97905
1.83155
-2.11561
-3.41976
-3.14192
-0.802761
0.755845
-0.0731887
0.120101
-3.41647
0.42
-0.0103761
0.0987713
-0.0377833
-4.81023
-0.32649
-3.91515
2.19827
0.109498
-0.0836766
-0.964281
-1.73727
3.11243
-3.73206
3.17968
3.76697
4.05598
4.04361
-3.18804
0.159866
0.0588741
-0.159473
-0.0766978
-0.00851569
1.50247
-3.36607
1.60383
-1.924
2.77781
-3.26853
-0.590087
0.925987
-1.04467
-2.50658
0.0901518
2.56575
1.56335
0.18998
-0.0175066
-0.231098
-2.94882
2.50043
0.20167
-1.13158
1.45972
-2.9417
4.38078
-1.60305
-0.00480714
0.103446
0.0344622
-0.038511
5.23213
-0.266583
-0.00684305
-0.332153
2.96134
2.5212
5.15878
0.0423064
-0.00256288
-1.23295
1.03937
-1.31759
1.82198
0.143264
-0.145369
-0.181951
0.184056
-0.0646166
0.0618928
0.626757
0.0928196
-0.049168
-0.0540282
0.762755
-0.180972
0.174058
0.235864
-0.184121
-0.162164
1.3902
-0.145194
-2.03585
-0.0273487
-0.102579
0.175215
-0.0452877
2.81914
0.0629723
-0.0680979
0.00512561
-0.639182
-2.1226
3.85952
-5.43234
1.53915
1.10518
0.545878
-0.520239
-0.0988296
-2.86026
-0.0016444
1.62154
-6.0595
-0.0770064
0.0677747
0.0361837
-0.0269524
-0.51774
-6.02025
-0.104285
-0.0197792
0.096715
-4.76551
-0.955548
-2.87892
5.63251
-3.34041
-0.0299507
-0.15445
0.0818211
0.278972
-0.337797
0.202089
-0.0207597
-0.027965
0.0335012
-2.33535
2.3444
-0.916278
2.43555
1.44541
-1.10316
-0.00407142
-0.0023506
0.00642142
-1.80018
-3.46077
0.0112467
-0.0224528
0.0112064
1.80094
-3.72963
0.833565
1.41134
-0.669614
1.25117
0.00712902
0.00411751
0.525434
-0.182235
-0.230646
0.387659
0.251889
-1.5424
2.11769
-0.288908
-0.721264
4.46528
0.187299
-0.0672778
0.0398449
-0.942739
0.22591
-1.15474
1.533
-2.7333
-0.609328
2.25961
-0.783958
3.88036
0.057234
0.00465858
0.979315
-4.17987
1.69314
-0.907594
-2.57178
1.28566
0.946827
0.366298
-2.39945
2.13761
-0.183224
-0.0324023
0.0702583
5.80308
-0.0862103
0.0500109
0.0581485
-0.0618096
-0.0800899
0.119075
-3.12681
0.0935907
0.108625
-0.111629
0.0185051
0.0244447
-0.04295
-1.62725
-3.8019
4.57107
-0.458089
0.199996
0.273478
-2.10794
0.00418207
-0.00825365
-1.71511
-5.29995
0.266291
0.0490806
0.0673692
-0.0664391
0.617882
-0.188545
-0.0374279
-3.43962
-0.168817
-3.88724
-2.07181
-0.00394772
0.142348
0.336216
-0.107558
-0.587111
-0.0332162
0.0459431
-0.00930104
0.0574609
0.174509
-0.173095
-0.381509
-2.80999
-3.24684
0.0538914
0.00334258
0.211355
-2.07444
0.0528653
1.61242
-0.0655361
0.0689917
0.0597148
0.060112
-0.0707462
0.652124
0.177513
-0.0525391
0.0152108
-0.0247642
-0.00282775
0.00760612
-0.129822
0.221081
-0.0799568
0.0132448
0.00846058
0.0564332
-0.00254194
0.00909079
-0.0221143
0.198088
0.0428232
0.00761158
-0.0142511
-0.186637
2.16662
-1.56706
1.43248
0.00490526
-0.0750128
-0.0272489
0.297367
-0.46047
-0.690615
1.1101
0.574175
-1.365
-1.01128
-0.0218556
0.0338951
-0.0561386
0.0434178
-0.073463
0.00718145
0.0124845
0.0175507
-0.00202777
0.0584611
-0.136472
-0.0654444
2.24497
-0.0129637
0.0499454
-1.63506
0.495296
-1.88025
-0.773643
-0.105954
0.00326291
-0.0305118
-0.0606786
0.0187689
-0.0471581
0.0644533
-0.0229003
0.707817
-0.964466
-1.22071
0.824283
-0.0956004
-1.54661
-0.387486
-0.0342457
-0.0233289
-1.55142
-0.778019
-0.0371515
-0.0303513
0.0365042
0.144168
-0.51755
0.0466422
0.0211537
-0.0641039
1.58892
-0.0213441
0.018975
0.020734
0.0831044
2.75624
0.238459
-0.210594
-0.900645
-0.216216
-1.02781
-0.00379078
0.114553
-0.110762
-0.0084371
0.118755
-0.114108
-0.0130589
0.129272
-0.12465
-0.0181119
0.138215
-0.133161
-0.0232912
0.147701
-0.142522
-0.0287785
0.156299
-0.150812
-0.0343891
0.164816
-0.159206
-0.0401386
0.1728
-0.16705
0.180382
-0.174834
-0.0456864
-0.00349009
0.118043
-0.00762128
0.122886
-0.0117819
0.133432
-0.0163226
0.142755
-0.0209347
0.152313
-0.0258039
0.161169
-0.0307643
0.169777
-0.0358116
0.177847
0.185463
-0.0408933
-0.00340032
0.121444
-0.00689896
0.126385
-0.0105381
0.137071
-0.0144787
0.146696
-0.0185161
0.156351
-0.02273
0.165383
-0.0270178
0.174065
-0.0313729
0.182203
0.189857
-0.0357665
-0.00310777
0.124551
-0.00611582
0.129393
-0.00924561
0.140201
-0.0125913
0.150042
-0.0160369
0.159796
-0.0196136
0.168959
-0.0232537
0.177705
-0.0269667
0.185916
0.193664
-0.0307734
-0.00269933
0.127251
-0.00525137
0.131945
-0.00788303
0.142833
-0.0106665
0.152825
-0.0135325
0.162662
-0.0165017
0.171929
-0.0195443
0.180747
-0.0226802
0.189052
0.196921
-0.0259374
-0.00219133
0.129442
-0.00430733
0.134061
-0.00646934
0.144995
-0.00872911
0.155085
-0.01105
0.164983
-0.0134553
0.174334
-0.0159295
0.183222
-0.0185017
0.191624
0.19963
-0.0212106
-0.00149208
0.130934
-0.00326024
0.135829
-0.00501754
0.146752
-0.00682347
0.156891
-0.00864965
0.166809
-0.0105346
0.176219
-0.012498
0.185185
-0.0145686
0.193694
0.201856
-0.0167947
-0.000651456
0.131586
-0.00220128
0.137379
-0.00361865
0.148169
-0.0050131
0.158285
-0.00639629
0.168192
-0.00782719
0.17765
-0.00933498
0.186693
-0.0109679
0.195327
0.203607
-0.0127189
-3.72281e-05
0.131623
-0.00135793
0.138699
-0.00241053
0.149222
-0.00340761
0.159282
-0.00438419
0.169169
-0.00540699
0.178672
-0.00652858
0.187814
-0.00778111
0.19658
0.20504
-0.00921403
7.94799e-05
0.131543
-0.00088477
0.139664
-0.00148166
0.149819
-0.00205647
0.159857
-0.00264996
0.169762
-0.00334083
0.179363
-0.00416379
0.188637
-0.00516309
0.197579
0.206214
-0.00633709
-0.000135315
0.131679
-0.000614485
0.140143
-0.000727243
0.149931
-0.00091162
0.160041
-0.00118635
0.170037
-0.00162364
0.179801
-0.00224418
0.189258
-0.00309441
0.198429
0.207325
-0.00420557
-0.000207586
0.131886
-0.000179957
0.140115
5.6303e-05
0.149695
0.0001502
0.159947
7.66781e-05
0.17011
-0.000189435
0.180067
-0.000684895
0.189753
-0.00141181
0.199156
0.208393
-0.00248019
0.000216809
0.13167
0.000614862
0.139717
0.00099746
0.149312
0.00120054
0.159744
0.0012079
0.170103
0.000988275
0.180286
0.000519502
0.190222
-0.000230031
0.199906
0.209409
-0.00124583
0.000968262
0.130701
0.00161838
0.139067
0.00203021
0.1489
0.00223943
0.159535
0.0022356
0.170107
0.00198534
0.180536
0.00147018
0.190737
0.000656661
0.200719
0.210519
-0.000452787
0.00173605
0.128965
0.0025975
0.138205
0.00301558
0.148482
0.00319043
0.15936
0.003137
0.17016
0.00283507
0.180838
0.00224771
0.191325
0.00133154
0.201636
0.211763
8.71324e-05
0.00213791
0.126828
0.00327685
0.137066
0.00375825
0.148001
0.0039536
0.159164
0.00389883
0.170215
0.0035774
0.18116
0.00295461
0.191947
0.00199369
0.202596
0.213074
0.000682717
0.00194593
0.124882
0.00341671
0.135595
0.00411703
0.147301
0.00446274
0.158819
0.0045069
0.170171
0.00424794
0.181419
0.00364867
0.192547
0.00269548
0.20355
0.214451
0.00131845
0.00148258
0.123399
0.0031567
0.133921
0.00416552
0.146292
0.00476801
0.158216
0.00500676
0.169932
0.00488244
0.181543
0.00436601
0.193063
0.00342436
0.204491
0.21586
0.00201518
0.00114313
0.122256
0.0028681
0.132196
0.00413547
0.145024
0.0050236
0.157328
0.00552519
0.16943
0.00562903
0.181439
0.00530257
0.193389
0.00451874
0.205275
0.217129
0.00324962
0.00101015
0.121246
0.00274612
0.13046
0.00421304
0.143557
0.00538038
0.156161
0.00617588
0.168635
0.00656875
0.181046
0.0065197
0.193439
0.00599147
0.205803
0.218167
0.00495302
0.000996935
0.120249
0.00281916
0.128638
0.00448386
0.141893
0.00592733
0.154717
0.00704054
0.167522
0.00776472
0.180322
0.00804013
0.193163
0.00778323
0.20606
0.219042
0.00690853
0.00114078
0.119108
0.00312489
0.126654
0.00500275
0.140015
0.00672003
0.153
0.0081762
0.166065
0.00929433
0.179204
0.0099968
0.192461
0.0101522
0.205905
0.219512
0.00968184
0.0016282
0.11748
0.00373115
0.124551
0.00578749
0.137958
0.0077548
0.151033
0.00956354
0.164257
0.0111236
0.177644
0.01236
0.191224
0.0130367
0.205228
0.219682
0.0128667
0.00247136
0.115008
0.00460253
0.12242
0.00677695
0.135784
0.00898628
0.148823
0.0111514
0.162092
0.0131665
0.175629
0.0150262
0.189365
0.0163383
0.203916
0.219755
0.0162647
0.00337949
0.00535314
0.00771631
0.0102878
0.0129064
0.0154403
0.0181678
0.021041
0.0245795
-0.087232
-0.00126039
0.0884924
-0.0858243
-0.00140778
-0.0842599
-0.00156435
-0.0825259
-0.00173401
-0.0806158
-0.00191007
-0.0785219
-0.00209391
-0.0762372
-0.00228467
-0.0737593
-0.0024779
-0.0710823
-0.00267704
-0.0682074
-0.00287484
-0.0651344
-0.003073
-0.0618657
-0.00326869
-0.0584054
-0.00346027
-0.0547551
-0.00365019
-0.0509218
-0.0038333
-0.0469094
-0.00401232
-0.0427281
-0.0041812
-0.0383885
-0.00433955
-0.0339081
-0.00448035
-0.0293104
-0.00459765
-0.0246299
-0.00468044
-0.0199176
-0.0047122
-0.0152399
-0.00467768
-0.0106704
-0.00456953
-0.00625423
-0.00441603
-0.00192994
-0.00432423
0.00243569
-0.00436554
0.0069738
-0.00453803
0.0118012
-0.00482727
0.0169035
-0.00510222
0.0221603
-0.00525678
0.0274795
-0.00531911
0.0328007
-0.00532107
0.0380708
-0.00527001
0.0432424
-0.00517155
0.048278
-0.00503549
0.0531456
-0.00486755
0.0578183
-0.00467265
0.0622784
-0.00445999
0.0665124
-0.00423398
0.0705163
-0.00400379
0.0742918
-0.00377551
0.0778434
-0.0035516
0.0811817
-0.00333824
0.0843147
-0.00313296
0.0872563
-0.00294155
0.0900136
-0.0027572
0.0925973
-0.0025836
0.0950112
-0.0024139
0.097258
-0.00224673
0.0993413
-0.00208322
0.101263
-0.00192135
0.103033
-0.00177026
0.104656
-0.0016225
0.106136
-0.00148011
0.10748
-0.00134378
0.108692
-0.00121201
0.109785
-0.00109354
-0.000976569
-0.0868088
-0.00255984
0.0881083
-0.0854084
-0.00280821
-0.0838979
-0.00307481
-0.0822677
-0.00336424
-0.0805117
-0.00366609
-0.078616
-0.0039896
-0.0765736
-0.00432706
-0.0743705
-0.00468105
-0.071998
-0.00504949
-0.0694461
-0.00542678
-0.0667052
-0.00581391
-0.0637682
-0.00620573
-0.0606265
-0.00660201
-0.0572805
-0.00699614
-0.0537279
-0.00738595
-0.0499702
-0.00777003
-0.0460121
-0.00813927
-0.0418621
-0.00848959
-0.0375279
-0.00881456
-0.0330221
-0.00910346
-0.0283551
-0.00934736
-0.0235288
-0.00953852
-0.018532
-0.00967438
-0.0133332
-0.00976827
-0.00790565
-0.00984359
-0.0022865
-0.00994333
0.00342889
-0.0100809
0.00914811
-0.0102572
0.014785
-0.0104641
0.0203418
-0.010659
0.0258664
-0.0107814
0.0313627
-0.0108153
0.0368053
-0.0107636
0.0421671
-0.0106318
0.0474165
-0.0104209
0.0525247
-0.0101437
0.0574643
-0.00980708
0.0622169
-0.00942524
0.0667637
-0.00900675
0.0710934
-0.00856364
0.0751958
-0.0081062
0.0790615
-0.00764123
0.082691
-0.00718113
0.0860815
-0.00672873
0.0892354
-0.00628689
0.092157
-0.0058632
0.0948549
-0.00545509
0.097333
-0.00506173
0.0996066
-0.00468746
0.101688
-0.00432817
0.103593
-0.00398861
0.105338
-0.00366579
0.106932
-0.00336439
0.108393
-0.00308389
0.109731
-0.00281797
0.110962
-0.00257483
0.112094
-0.00234391
0.113138
-0.00213755
-0.00194662
-0.0949092
-0.00401272
0.0963621
-0.0933431
-0.00437438
-0.0916557
-0.00476214
-0.0898442
-0.00517572
-0.0878925
-0.00561776
-0.085793
-0.00608918
-0.0835347
-0.00658531
-0.0811106
-0.00710515
-0.0785092
-0.00765088
-0.0757203
-0.00821564
-0.0727351
-0.00879912
-0.0695464
-0.00939445
-0.0661486
-0.0099998
-0.062536
-0.0106088
-0.0587043
-0.0112176
-0.054657
-0.0118174
-0.0503906
-0.0124057
-0.0459099
-0.0129703
-0.0412186
-0.0135059
-0.03632
-0.0140021
-0.0312147
-0.0144527
-0.0259037
-0.0148496
-0.0203852
-0.0151929
-0.0146649
-0.0154886
-0.00876212
-0.0157464
-0.00272013
-0.0159853
0.00341427
-0.0162153
0.00959286
-0.0164358
0.0157619
-0.0166332
0.0218829
-0.0167799
0.0279464
-0.016845
0.033942
-0.0168109
0.0398508
-0.0166725
0.0456477
-0.0164287
0.0513121
-0.0160853
0.05682
-0.0156516
0.0621493
-0.0151364
0.0672814
-0.0145573
0.072201
-0.0139264
0.0768918
-0.0132545
0.0813459
-0.0125602
0.0855564
-0.0118518
0.089519
-0.0111437
0.09323
-0.0104397
0.0966969
-0.00975386
0.0999187
-0.009085
0.102905
-0.00844097
0.105665
-0.00782226
0.108211
-0.00723321
0.110555
-0.00667272
0.112712
-0.00614549
0.114694
-0.00564705
0.116511
-0.00518189
0.118174
-0.00474704
0.119699
-0.00434308
0.121097
-0.0039723
0.122385
-0.00363177
0.123565
-0.00331821
-0.00303087
-0.101516
-0.00550866
0.103012
-0.0999024
-0.00598759
-0.0981585
-0.0065061
-0.0962751
-0.00705908
-0.0942451
-0.00764778
-0.0920587
-0.00827562
-0.0897063
-0.00893768
-0.0871733
-0.00963814
-0.0844535
-0.0103707
-0.0815359
-0.0111333
-0.0784119
-0.0119231
-0.0750673
-0.0127391
-0.0714975
-0.0135695
-0.0676914
-0.014415
-0.0636473
-0.0152617
-0.0593567
-0.0161079
-0.0548208
-0.0169416
-0.0500391
-0.017752
-0.0450134
-0.0185317
-0.0397462
-0.0192692
-0.034241
-0.0199579
-0.0285016
-0.020589
-0.0225352
-0.0211592
-0.0163584
-0.0216654
-0.00999357
-0.0221112
-0.00347709
-0.0225018
0.00314242
-0.0228349
0.00981392
-0.0231073
0.0164886
-0.0233079
0.0231283
-0.0234197
0.0297076
-0.0234243
0.0362056
-0.023309
0.0425997
-0.0230666
0.0488685
-0.0226975
0.054986
-0.0222029
0.0609318
-0.0215974
0.0666853
-0.0208899
0.0722202
-0.0200923
0.0775194
-0.0192256
0.0825709
-0.018306
0.0873619
-0.0173512
0.091884
-0.016374
0.096132
-0.0153916
0.100105
-0.0144132
0.103802
-0.0134505
0.107234
-0.0125169
0.110404
-0.0116112
0.113329
-0.0107474
0.116016
-0.00991981
0.118485
-0.00914129
0.120747
-0.00840839
0.122821
-0.00772027
0.124714
-0.0070752
0.126448
-0.00648101
0.128036
-0.00593088
0.129491
-0.00542744
0.130823
-0.00496365
0.132041
-0.00453664
-0.00415108
-0.110287
-0.00714433
0.111923
-0.108512
-0.00776275
-0.106594
-0.00842403
-0.104524
-0.00912959
-0.102291
-0.00988057
-0.0998879
-0.0106785
-0.0973011
-0.0115245
-0.0945256
-0.0124136
-0.0915491
-0.0133472
-0.0883612
-0.0143212
-0.0849523
-0.0153321
-0.0813136
-0.0163778
-0.0774359
-0.0174472
-0.0733141
-0.0185368
-0.0689381
-0.0196377
-0.0643057
-0.0207404
-0.0594141
-0.0218333
-0.0542601
-0.022906
-0.0488479
-0.0239439
-0.0431772
-0.0249399
-0.0372571
-0.025878
-0.031095
-0.0267511
-0.0247046
-0.0275496
-0.0181037
-0.0282664
-0.0113194
-0.0288955
-0.00438802
-0.0294332
0.00265073
-0.0298736
0.00975446
-0.0302111
0.0168804
-0.0304339
0.0239898
-0.0305291
0.0310495
-0.030484
0.0380287
-0.0302882
0.044898
-0.0299359
0.051632
-0.0294315
0.058206
-0.0287769
0.0645901
-0.0279815
0.0707614
-0.0270612
0.0766995
-0.0260304
0.0823844
-0.0249104
0.0878032
-0.0237248
0.0929393
-0.0224874
0.0977905
-0.0212252
0.102349
-0.0199502
0.106618
-0.018682
0.110601
-0.0174336
0.114301
-0.0162167
0.117731
-0.0150419
0.1209
-0.0139162
0.123822
-0.0128414
0.126508
-0.0118272
0.128974
-0.0108742
0.131235
-0.00998165
0.133311
-0.00915158
0.135209
-0.00837909
0.136947
-0.00766833
0.138534
-0.00701497
0.139985
-0.00641457
0.141313
-0.00586401
-0.00535987
-0.118503
-0.00886242
0.120222
-0.11664
-0.00962612
-0.114626
-0.0104383
-0.112447
-0.011308
-0.110092
-0.0122364
-0.107553
-0.0132174
-0.104818
-0.0142593
-0.101875
-0.0153564
-0.0987127
-0.0165098
-0.0953222
-0.0177116
-0.0916915
-0.0189628
-0.087812
-0.0202572
-0.083672
-0.0215873
-0.0792631
-0.0229457
-0.0745801
-0.0243207
-0.0696182
-0.0257024
-0.0643737
-0.0270778
-0.0588515
-0.0284282
-0.0530506
-0.0297448
-0.0469783
-0.0310122
-0.0406397
-0.0322166
-0.034049
-0.0333419
-0.027221
-0.0343776
-0.0201782
-0.0353092
-0.0129502
-0.0361235
-0.00557175
-0.0368117
0.0019182
-0.0373636
0.00948056
-0.0377735
0.017075
-0.0380283
0.0246622
-0.0381163
0.032207
-0.0380287
0.0396721
-0.0377534
0.0470258
-0.0372895
0.054239
-0.0366447
0.061279
-0.035817
0.0681208
-0.0348233
0.0747373
-0.0336776
0.0810962
-0.0323894
0.0871813
-0.0309955
0.0929734
-0.0295169
0.0984638
-0.0279778
0.10364
-0.0264017
0.108504
-0.0248134
0.11305
-0.0232285
0.117286
-0.0216699
0.121218
-0.0201484
0.124853
-0.0186772
0.128204
-0.017267
0.131287
-0.0159242
0.134115
-0.0146557
0.136709
-0.0134673
0.13908
-0.0123532
0.141247
-0.0113188
0.143228
-0.0103596
0.145038
-0.00947818
0.146686
-0.00866328
0.148189
-0.00791726
0.149562
-0.00723747
-0.00660963
-0.127697
-0.0107025
0.129537
-0.125698
-0.0116245
-0.123532
-0.0126048
-0.121187
-0.0136528
-0.118654
-0.0147698
-0.115917
-0.015954
-0.112967
-0.0172089
-0.109791
-0.0185326
-0.106383
-0.0199185
-0.102725
-0.0213691
-0.0988128
-0.0228752
-0.094636
-0.0244341
-0.0901823
-0.026041
-0.0854447
-0.0276833
-0.0804175
-0.0293479
-0.0750968
-0.031023
-0.0694768
-0.0326979
-0.063569
-0.034336
-0.0573717
-0.0359421
-0.0508947
-0.0374893
-0.0441413
-0.03897
-0.0371287
-0.0403546
-0.0298741
-0.0416322
-0.0223958
-0.0427874
-0.0147319
-0.0437875
-0.00691462
-0.044629
0.00101452
-0.0452927
0.00902248
-0.0457814
0.0170711
-0.046077
0.0251193
-0.0461646
0.0331339
-0.0460433
0.0410681
-0.0456876
0.0488884
-0.0451098
0.0565658
-0.0443221
0.0640607
-0.0433119
0.0713512
-0.0421139
0.078407
-0.0407334
0.0851802
-0.0391626
0.0916616
-0.037477
0.0978304
-0.0356857
0.103679
-0.0338263
0.109193
-0.0319157
0.114372
-0.0299921
0.119211
-0.0280682
0.123722
-0.0261805
0.127907
-0.0243334
0.131777
-0.0225471
0.13534
-0.02083
0.138614
-0.0191984
0.141616
-0.0176577
0.144359
-0.01621
0.146869
-0.0148638
0.149159
-0.0136084
0.151248
-0.0124482
0.153149
-0.0113801
0.154883
-0.0103968
0.156462
-0.00949642
0.157899
-0.00867415
-0.00791654
-0.136864
-0.012655
0.138817
-0.134752
-0.0137368
-0.132466
-0.0148908
-0.129985
-0.0161339
-0.127303
-0.0174518
-0.124399
-0.018858
-0.121271
-0.0203366
-0.117894
-0.0219098
-0.114251
-0.023561
-0.110356
-0.0252641
-0.106185
-0.0270466
-0.101728
-0.0288914
-0.0969771
-0.0307915
-0.0919208
-0.0327396
-0.0865562
-0.0347125
-0.0808727
-0.0367066
-0.0748645
-0.038706
-0.0685652
-0.0406353
-0.0619719
-0.0425354
-0.055088
-0.0443732
-0.0479115
-0.0461465
-0.0404708
-0.0477952
-0.0327871
-0.0493159
-0.0248496
-0.0507249
-0.0167352
-0.0519019
-0.00846242
-0.0529018
-9.00941e-05
-0.0536651
0.00837356
-0.0542451
0.016885
-0.0545884
0.0253974
-0.054677
0.0338926
-0.0545385
0.0422946
-0.0540897
0.050575
-0.0533902
0.0587313
-0.0524784
0.0666772
-0.0512577
0.074424
-0.0498607
0.081957
-0.0482663
0.0891498
-0.0463554
0.0960328
-0.04436
0.102588
-0.0422409
0.108801
-0.0400388
0.114666
-0.0377816
0.120157
-0.0354825
0.125283
-0.0331947
0.130076
-0.0309736
0.134501
-0.0287584
0.138601
-0.0266466
0.142369
-0.0245978
0.145803
-0.0226331
0.148936
-0.0207907
0.151791
-0.0190646
0.154391
-0.0174636
0.156754
-0.0159722
0.158902
-0.0145958
0.160853
-0.0133315
0.162629
-0.0121723
0.16424
-0.0111077
0.165711
-0.0101444
-0.0092564
-0.146702
0.148764
-0.0147169
-0.144457
-0.0159813
-0.142029
-0.0173192
-0.139384
-0.0187791
-0.13652
-0.0203155
-0.133402
-0.0219762
-0.130026
-0.0237127
-0.126423
-0.0255121
-0.122555
-0.0274289
-0.118333
-0.029486
-0.113859
-0.0315209
-0.109083
-0.0336678
-0.103956
-0.0359181
-0.0985585
-0.0381372
-0.0928044
-0.0404666
-0.0867925
-0.0427185
-0.0804603
-0.0450382
-0.0737763
-0.0473193
-0.0667247
-0.0495869
-0.0594088
-0.0516891
-0.0517909
-0.0537644
-0.0439595
-0.0556267
-0.0358753
-0.0574001
-0.0274755
-0.0591247
-0.018905
-0.0604724
-0.0101914
-0.0616154
-0.0014076
-0.0624489
0.00752059
-0.0631733
0.0165337
-0.0636014
0.0254787
-0.0636221
0.0344572
-0.063517
0.0433431
-0.0629756
0.0520452
-0.0620923
0.0606915
-0.0611247
0.0691384
-0.0597047
0.0773581
-0.0580804
0.0852417
-0.0561499
0.0927704
-0.0538842
0.100113
-0.0517023
0.107058
-0.049186
0.113644
-0.0466245
0.119902
-0.0440403
0.12575
-0.0413301
0.131217
-0.0386623
0.136303
-0.0360595
0.140988
-0.0334433
0.145289
-0.0309473
0.149205
-0.0285136
0.152855
-0.0262837
0.156182
-0.0241177
0.159189
-0.022071
0.161902
-0.020177
0.164345
-0.0184149
0.166578
-0.0168289
0.168599
-0.0153527
0.170418
-0.0139917
0.172063
-0.0127523
0.173491
-0.0115723
-0.0105992
-0.0543418
0.0113914
-0.0647171
0.0103753
-0.0740939
0.00937651
-0.082238
0.00814421
-0.0892175
0.00697948
-0.0954969
0.00627951
-0.101395
0.00589797
-0.107001
0.00560629
-0.11233
0.00532874
-0.117038
0.00470804
-0.120485
0.00344719
-0.122348
0.00186356
-0.122781
0.000432903
-0.122239
-0.000542706
-0.121282
-0.000956615
-0.120088
-0.00119426
-0.118418
-0.00166958
-0.116071
-0.00234671
-0.113142
-0.00292961
-0.109801
-0.00334071
-0.106136
-0.00366549
-0.102177
-0.00395877
-0.0979331
-0.00424381
-0.0934475
-0.00448563
-0.00495502
-0.058585
0.0209385
-0.0680665
0.0198566
-0.0770288
0.0183387
-0.0854757
0.016591
-0.0934303
0.0149341
-0.100786
0.0136351
-0.107465
0.0125772
-0.113407
0.0115477
-0.118417
0.0103393
-0.122348
0.00863865
-0.125302
0.0064016
-0.127354
0.00391545
-0.128455
0.0015342
-0.128538
-0.000459551
-0.127593
-0.00190243
-0.1258
-0.00298651
-0.123439
-0.00403076
-0.120667
-0.00511879
-0.117469
-0.00612765
-0.113799
-0.00701097
-0.109663
-0.00780154
-0.105061
-0.00855994
-0.099977
-0.00932821
-0.0943058
-0.0101568
-0.0111525
-0.0640065
0.0315138
-0.0741812
0.0300312
-0.083895
0.0280523
-0.0931233
0.0258191
-0.101753
0.0235635
-0.109582
0.0214646
-0.116471
0.0194653
-0.122334
0.0174107
-0.127112
0.0151183
-0.130891
0.0124171
-0.133806
0.0093171
-0.135928
0.00603741
-0.137262
0.00286769
-0.137751
2.94021e-05
-0.137299
-0.00235467
-0.13591
-0.0043746
-0.13374
-0.00620128
-0.130935
-0.00792348
-0.127551
-0.00951228
-0.123598
-0.010963
-0.119101
-0.012299
-0.114087
-0.0135737
-0.108595
-0.0148199
-0.102666
-0.0160862
-0.0174564
-0.0692088
0.0432047
-0.080254
0.0410763
-0.0907192
0.0385173
-0.10058
0.0356796
-0.109726
0.0327098
-0.117987
0.0297259
-0.125224
0.0267023
-0.131364
0.0235502
-0.136396
0.0201505
-0.140406
0.0164268
-0.143512
0.0124236
-0.145784
0.00830939
-0.147218
0.00430169
-0.147778
0.000589302
-0.147396
-0.00273674
-0.146078
-0.0056932
-0.143902
-0.00837721
-0.140973
-0.0108522
-0.137344
-0.0131406
-0.13306
-0.0152479
-0.128141
-0.0172178
-0.122626
-0.0190887
-0.116548
-0.0208976
-0.109961
-0.0226728
-0.0244062
-0.0744449
0.0558399
-0.0864127
0.0530441
-0.0976871
0.0497915
-0.108228
0.0462204
-0.117928
0.0424102
-0.126662
0.038459
-0.134316
0.0343564
-0.140839
0.0300731
-0.146235
0.0255468
-0.150569
0.020761
-0.153931
0.0157854
-0.156379
0.0107572
-0.157913
0.00583626
-0.158514
0.00119016
-0.158162
-0.00308954
-0.15685
-0.00700497
-0.154631
-0.010596
-0.151586
-0.0138972
-0.147776
-0.0169502
-0.143254
-0.0197707
-0.138067
-0.022404
-0.132272
-0.0248844
-0.125933
-0.0272365
-0.119134
-0.0294718
-0.031617
-0.0798326
0.0692333
-0.0926934
0.0659049
-0.104773
0.0618707
-0.116014
0.0574615
-0.126312
0.052708
-0.135576
0.0477229
-0.143705
0.0424861
-0.15067
0.0370376
-0.156476
0.0313524
-0.161162
0.0254478
-0.164804
0.0194267
-0.167437
0.013391
-0.169077
0.007476
-0.169721
0.00183376
-0.169352
-0.00345836
-0.167995
-0.00836146
-0.165698
-0.0128932
-0.16251
-0.0170854
-0.158501
-0.0209588
-0.153723
-0.0245495
-0.148235
-0.0278921
-0.142086
-0.031033
-0.135325
-0.0339978
-0.128009
-0.0367879
-0.039404
-0.0852403
0.0837274
-0.0990975
0.079762
-0.112009
0.0747821
-0.123982
0.0694346
-0.134922
0.0636474
-0.144767
0.0575685
-0.153407
0.0511256
-0.160841
0.0444715
-0.167063
0.0375748
-0.172107
0.0304918
-0.176032
0.0233514
-0.178873
0.0162323
-0.18063
0.00923295
-0.18131
0.00251357
-0.180938
-0.00382971
-0.179534
-0.00976572
-0.17714
-0.0152875
-0.173814
-0.0204111
-0.169615
-0.0251582
-0.164616
-0.0295485
-0.15887
-0.0336378
-0.152445
-0.0374577
-0.145372
-0.041071
-0.13771
-0.0444495
-0.0475777
-0.0908531
0.0995678
-0.105731
0.0946404
-0.119438
0.0884892
-0.132155
0.0821514
-0.143764
0.075256
-0.154229
0.0680337
-0.163399
0.0602955
-0.171308
0.0523809
-0.177967
0.044233
-0.183364
0.0358891
-0.187561
0.0275483
-0.190621
0.0192924
-0.192496
0.0111076
-0.193222
0.00323957
-0.192839
-0.00421215
-0.191371
-0.0112334
-0.188873
-0.0177863
-0.185395
-0.0238889
-0.180999
-0.0295542
-0.175763
-0.0347843
-0.169745
-0.0396556
-0.163024
-0.0441793
-0.155604
-0.0484907
-0.147521
-0.0525324
-0.0562821
-0.0970473
0.116658
-0.112676
0.110269
-0.127037
0.10285
-0.140506
0.0956203
-0.152819
0.0875694
-0.163971
0.0791853
-0.173671
0.0699959
-0.182056
0.0607657
-0.189159
0.0513355
-0.194937
0.0416673
-0.199375
0.0319865
-0.202638
0.022556
-0.204658
0.0131273
-0.205408
0.00398941
-0.205007
-0.00461293
-0.203473
-0.0127681
-0.200849
-0.0204099
-0.197231
-0.0275069
-0.192615
-0.0341701
-0.187075
-0.0403247
-0.18076
-0.0459708
-0.173701
-0.0512374
-0.165882
-0.0563103
-0.157589
-0.0608255
-0.0651072
1.14802
3.77057
-0.183878
-3.58668
2.47098
-0.802455
-1.66854
0.260989
-0.360002
0.0990133
0.323652
-0.392313
0.0686607
-0.797729
-0.508616
1.30634
-0.534361
0.796822
-0.262461
3.06079
-4.04324
0.982465
-0.0396653
-0.182984
0.222649
5.37679
-3.66325
-1.71354
-0.917675
2.02307
-1.10539
-0.978513
0.301839
0.676674
1.32312
-2.18475
0.861628
-1.50416
0.497273
1.00689
0.107169
-0.107074
-9.45441e-05
5.50519
-5.40003
-0.105162
0.486316
1.98468
0.126526
-0.0234278
-0.103098
-0.188526
-0.195605
0.410749
0.280698
-0.691446
-0.330005
0.209382
0.120623
3.17227
2.27976
-5.45203
-0.91391
1.0825
-0.168589
1.41542
-1.2051
-0.210319
-1.06032
0.45004
0.610285
1.2885
0.126914
-1.23721
0.818872
0.41834
-0.490745
0.0576341
0.433112
5.58432
-2.9868
-2.59753
-0.0308116
-0.134334
0.165145
0.0452024
0.596573
-0.641777
-2.0268
1.05057
0.976226
1.00948
0.767064
-1.77654
3.2564
-5.70581
2.44942
-0.282839
-0.0687179
0.351557
-0.166418
1.99735
-1.83094
-0.969865
-0.534294
-3.5393
1.89613