/*--------------------------------*- C++ -*----------------------------------*\
  =========                 |
  \\      /  F ield         | OpenFOAM: The Open Source CFD Toolbox
   \\    /   O peration     | Website:  https://openfoam.org
    \\  /    A nd           | Version:  10
     \\/     M anipulation  |
\*---------------------------------------------------------------------------*/
FoamFile
{
    format      ascii;
    class       volVectorField;
    location    "1600";
    object      U;
}
// * * * * * * * * * * * * * * * * * * * * * * * * * * * * * * * * * * * * * //

dimensions      [0 1 -1 0 0 0 0];

internalField   nonuniform List<vector> 
10435
(
(2.62656 1.22125 6.56044e-22)
(3.20442 2.07533 -4.51579e-20)
(4.68302 -0.414025 -3.32576e-20)
(3.93183 0.904627 9.02907e-20)
(4.076 0.648462 -3.75893e-20)
(3.59559 -0.198422 2.54927e-19)
(4.82651 -0.380687 -1.18529e-19)
(4.88651 -0.373208 7.62247e-20)
(4.42276 -0.371174 2.59542e-19)
(3.94989 -0.41805 -7.19839e-20)
(3.53025 1.79683 -9.56335e-20)
(4.67418 0.0691452 1.91036e-19)
(3.82052 -0.436651 7.66809e-20)
(1.03626 0.868361 -1.70836e-20)
(1.20675 0.976229 -1.96734e-20)
(4.96843 -0.408277 -8.86059e-21)
(0.886987 0.753709 5.29913e-21)
(3.42172 -0.406375 2.56584e-19)
(4.09267 -0.368015 -1.0553e-19)
(2.88064 1.16461 -1.36946e-20)
(4.95114 -0.388893 5.41665e-20)
(3.79909 0.655993 -1.39951e-19)
(4.93935 -0.410167 3.63873e-19)
(4.37383 -0.401225 -1.20627e-19)
(4.31357 -0.383271 8.57138e-20)
(0.263808 0.43811 -5.64695e-22)
(0.033252 0.190178 -1.25824e-21)
(4.30884 -0.405916 6.62964e-20)
(0.180409 0.042897 2.025e-22)
(3.63836 -0.417851 3.67209e-19)
(4.8146 -0.352038 1.55657e-19)
(3.66312 1.61178 -6.90069e-21)
(4.80247 -0.368906 -1.61636e-19)
(0.42921 0.0716053 2.65625e-21)
(4.82696 -0.417785 8.7713e-20)
(2.59598 2.18994 1.74902e-20)
(4.92397 -0.412784 1.27524e-19)
(0.148475 0.378611 3.79702e-21)
(0.409516 0.409341 -4.83001e-22)
(4.21799 -0.384701 3.26841e-20)
(3.41653 -0.411011 -3.82863e-19)
(4.83094 -0.391658 -9.5741e-20)
(0.70084 0.872536 -2.24119e-20)
(3.49339 1.2199 -1.30922e-19)
(4.97038 -0.396889 -2.68813e-19)
(4.31308 -0.405355 1.92283e-19)
(3.51953 -0.308856 -2.86989e-19)
(0.473829 0.665823 -6.43107e-20)
(4.35572 -0.383752 8.43145e-20)
(3.63383 0.381477 -4.82527e-20)
(4.90354 -0.393101 -1.18956e-20)
(4.40174 -0.173946 1.21488e-18)
(0.454125 0.433392 -1.48146e-21)
(0.267681 -0.0680028 2.78556e-22)
(0.364779 0.417084 2.3442e-22)
(0.129897 -6.86421e-06 -5.73351e-22)
(4.82038 -0.40097 -3.80698e-19)
(0.147653 0.312098 2.66051e-21)
(0.670287 0.4105 -3.15508e-21)
(4.64994 -0.406204 2.50716e-19)
(0.40905 0.445873 1.03592e-21)
(3.01458 2.15697 3.68183e-20)
(0.153131 0.216078 -2.06333e-21)
(4.41731 -0.0149069 -1.0329e-19)
(4.96136 -0.407577 -5.05121e-19)
(4.57354 -0.422862 2.46522e-19)
(0.588617 0.27521 6.66285e-21)
(0.326439 0.394536 9.33365e-21)
(4.94253 -0.371943 -9.76799e-20)
(4.32947 -0.360772 9.47743e-21)
(0.217983 -0.0990503 -1.12657e-21)
(0.197157 0.437042 4.17047e-22)
(0.844969 1.01632 8.18268e-20)
(4.72702 -0.413456 -3.19897e-19)
(1.40347 1.08571 -8.40211e-21)
(0.947455 1.16165 7.92267e-21)
(4.30735 -0.316207 5.1593e-19)
(4.88244 -0.366273 2.95678e-19)
(4.70652 -0.358681 2.26757e-20)
(1.41506 0.908261 4.95455e-20)
(3.98006 0.0442275 6.02063e-20)
(2.27947 1.01416 1.46312e-22)
(0.49746 0.458369 2.09163e-21)
(0.3093 -0.0432229 -2.21015e-22)
(4.11434 -0.0948063 -1.16455e-19)
(2.34804 1.9175 5.92245e-20)
(2.56602 1.72458 2.36017e-21)
(3.56269 1.48866 2.74094e-20)
(1.76222 1.51314 -5.79611e-21)
(2.84314 1.72956 5.50784e-21)
(3.77461 1.34411 -2.24492e-20)
(3.98424 1.16785 -2.33321e-20)
(2.51751 0.976926 3.92683e-21)
(2.00244 1.60415 2.84637e-20)
(3.09914 1.68696 1.23374e-20)
(2.35346 2.12668 3.15115e-20)
(4.17634 0.941893 2.91073e-19)
(1.40744 1.2446 1.28238e-20)
(0.79131 0.532945 -6.22462e-21)
(4.31119 0.785966 -2.59814e-19)
(1.57093 1.37389 2.55023e-20)
(3.61859 0.548792 -1.48963e-19)
(2.27679 1.67901 -1.64508e-20)
(3.33764 1.6034 -1.14392e-20)
(3.61817 0.318949 -8.31615e-21)
(3.72111 1.07831 4.4195e-21)
(2.75506 0.901904 4.12537e-21)
(3.82108 0.200561 6.79737e-20)
(4.22567 -0.190621 -1.47923e-19)
(1.6079 0.965484 -1.37711e-20)
(3.43412 0.533976 -1.8521e-20)
(3.62186 0.786016 -7.83303e-20)
(2.04386 1.01726 -1.65081e-20)
(1.81982 1.00254 -1.19505e-20)
(4.13924 1.01233 -1.54832e-19)
(3.59019 0.819924 3.83824e-20)
(4.44566 0.557612 -1.40248e-19)
(2.62198 1.97294 -1.21172e-20)
(3.52807 1.7324 -1.47034e-19)
(4.47277 0.467339 -3.85803e-20)
(4.56574 0.362757 -4.33042e-19)
(1.03036 1.29056 8.4347e-21)
(2.8749 1.97872 2.1833e-20)
(1.7502 1.94165 -1.23079e-19)
(3.46762 1.57348 2.57849e-20)
(0.343154 0.448806 5.0121e-22)
(4.33824 0.684922 2.67895e-19)
(1.22496 1.49032 -1.89647e-20)
(4.32888 0.593402 -2.68694e-19)
(0.0788673 0.3723 -2.74112e-22)
(1.46811 1.71547 4.46923e-20)
(3.37853 1.78435 -1.61887e-19)
(4.94952 -0.404628 -1.37688e-19)
(1.23634 0.833206 3.59633e-20)
(0.165295 0.411337 8.13149e-23)
(0.651113 0.571422 2.3397e-22)
(2.27922 2.28027 5.58943e-20)
(4.11801 0.696888 -1.67587e-20)
(3.32508 1.85179 3.93641e-20)
(3.36179 0.957938 3.22971e-20)
(3.12455 1.07561 3.85374e-21)
(4.91673 -0.379141 -5.57636e-19)
(0.511362 0.181516 1.90219e-20)
(4.73631 -0.0713752 1.22219e-18)
(3.98814 0.473607 2.24684e-20)
(1.2469 1.31533 7.87312e-20)
(2.03682 2.15402 -2.17689e-20)
(4.13415 -0.0661547 -3.52447e-19)
(0.872324 0.888607 2.96927e-20)
(4.8345 -0.105147 7.5323e-20)
(0.412943 0.610833 2.57547e-22)
(4.94222 -0.373348 2.3844e-19)
(2.74667 1.4676 1.76529e-21)
(4.84967 -0.172525 5.24366e-19)
(4.14814 -0.255764 -3.10617e-19)
(0.351576 0.534477 1.67353e-21)
(3.53049 1.31689 2.32447e-19)
(3.10776 1.93562 1.35427e-21)
(3.99103 -0.3329 -2.56548e-19)
(3.14874 2.14748 -2.15633e-20)
(4.9264 -0.30188 -9.74221e-20)
(1.07963 0.744829 -7.14754e-21)
(3.90308 1.37606 1.82552e-19)
(4.45135 0.0190843 1.34338e-19)
(1.61554 1.16063 2.55495e-20)
(4.51703 0.347875 9.70389e-19)
(4.73606 -0.386212 -2.47611e-19)
(4.42625 0.304796 -1.25813e-19)
(4.63403 -0.237393 1.87664e-19)
(4.59658 0.0852688 -1.70674e-18)
(4.38119 -0.338867 2.96927e-19)
(0.754573 0.87305 -2.40235e-20)
(0.00993958 0.11021 4.45936e-22)
(1.41617 1.40458 -1.64067e-21)
(4.83461 -0.190099 -2.81694e-19)
(3.00314 2.26762 -2.34868e-20)
(2.81435 2.19651 -1.24668e-20)
(0.58526 0.659395 9.34607e-21)
(3.21828 0.673592 1.15171e-20)
(0.237752 0.0916585 -3.40647e-22)
(3.37843 1.95254 5.78458e-20)
(3.64496 -0.0558949 -4.37733e-20)
(4.77136 -0.00640584 -6.64649e-19)
(0.393118 0.46713 4.05952e-22)
(4.94107 -0.353394 7.87203e-20)
(0.628695 0.81128 3.17131e-20)
(0.876179 1.08506 -7.68527e-20)
(4.93241 -0.370503 -2.32555e-19)
(4.05675 0.461078 9.81841e-20)
(4.6365 -0.134219 -8.13464e-19)
(4.6555 0.215343 1.00993e-19)
(0.537129 0.486137 2.13707e-21)
(0.11177 0.40099 6.30721e-22)
(2.48725 2.35333 -2.58554e-20)
(3.58205 1.05302 1.11343e-19)
(4.96019 -0.365622 1.40401e-20)
(0.877759 1.01647 8.00128e-20)
(2.06366 1.8178 -2.49758e-20)
(0.531094 0.685164 6.69158e-20)
(4.96489 -0.414059 1.95699e-19)
(1.68286 1.33526 -3.05182e-20)
(0.219611 0.439502 4.57526e-21)
(4.0949 -0.415644 -1.88821e-20)
(0.199183 0.393694 4.61336e-21)
(4.39852 -0.415509 -7.32436e-20)
(4.06222 1.062 -1.84442e-21)
(3.70965 1.57987 1.68366e-19)
(4.28387 0.489713 -8.63501e-20)
(0.217938 0.201166 -2.33121e-21)
(4.15702 0.294759 -6.42194e-20)
(0.488957 0.645638 -1.04122e-20)
(4.86722 -0.399113 -4.69945e-19)
(4.69117 0.131207 9.75554e-19)
(4.60418 -0.061553 7.18296e-20)
(0.0603536 0.17313 8.76769e-22)
(1.03141 1.01628 -8.23592e-20)
(1.85725 1.19534 7.784e-21)
(0.507928 0.555352 -1.61927e-21)
(0.250331 0.419412 3.45945e-22)
(0.937565 0.642995 6.82259e-21)
(0.284608 0.0534238 -2.54244e-22)
(0.640177 0.608162 1.92102e-20)
(0.420604 0.225038 -1.07453e-20)
(1.52115 1.61008 -1.44388e-19)
(0.289619 0.478994 2.20533e-22)
(4.91415 -0.414138 -6.25985e-20)
(0.312593 0.41184 -8.56658e-22)
(1.78459 1.68123 1.58553e-20)
(4.69651 -0.271011 8.91168e-19)
(1.13156 1.34543 -7.87041e-20)
(0.480545 0.498703 -6.37686e-20)
(4.83384 -0.399243 2.75283e-19)
(0.28436 0.417359 -1.09463e-21)
(4.89159 -0.348504 2.8358e-19)
(0.0556181 0.306425 2.76351e-21)
(0.745137 0.646606 -3.37092e-20)
(4.70588 -0.394806 -3.52423e-19)
(0.253252 0.454431 -6.21598e-22)
(4.64385 -0.359353 -2.261e-20)
(4.64863 -0.351107 5.20852e-21)
(3.2571 1.33433 4.03677e-20)
(0.346519 0.487421 1.60819e-22)
(0.546791 0.608819 2.63219e-22)
(0.17873 -0.024751 -8.40457e-23)
(3.98119 1.25422 -3.26479e-19)
(4.61128 -0.372086 8.72075e-20)
(2.08022 2.00457 -1.10523e-19)
(4.95888 -0.343716 7.94002e-20)
(0.0374805 0.00330439 -7.96649e-23)
(2.83888 2.33837 1.63467e-20)
(0.0975153 -0.056183 -6.03994e-22)
(1.92969 1.38919 -2.43375e-20)
(3.82452 -0.422195 -1.33346e-19)
(4.30887 0.133978 -1.20934e-19)
(4.93974 -0.341525 -1.98855e-19)
(4.35076 0.256434 4.06191e-19)
(0.05148 -0.0284995 4.94105e-22)
(4.90897 -0.341935 2.81484e-19)
(0.441184 0.580454 7.91149e-22)
(0.313341 0.506226 -1.70837e-20)
(4.85753 -0.351834 1.4199e-20)
(4.48512 -0.301176 2.03265e-21)
(0.310104 0.46105 1.56803e-22)
(4.41038 -0.224791 -2.84624e-19)
(2.10161 1.22643 5.8748e-21)
(0.575619 0.464905 3.63171e-20)
(3.009 1.41901 6.62076e-21)
(4.8629 -0.403407 2.94284e-19)
(0.481412 0.497942 -5.39414e-22)
(4.19133 0.851488 5.3507e-20)
(4.80028 -0.367883 -9.6229e-23)
(4.9083 -0.328732 -4.15172e-20)
(4.94819 -0.329576 -2.9536e-20)
(4.38219 -0.409173 -3.12651e-19)
(0.212077 0.42574 -1.53689e-22)
(4.57502 0.304539 -1.83083e-19)
(0.116648 0.371504 -2.47028e-21)
(3.94129 0.937969 4.06268e-20)
(4.96494 -0.394661 7.75376e-20)
(4.84573 -0.333166 1.66084e-20)
(4.03444 -0.434831 1.56603e-19)
(0.716175 0.839287 -1.05032e-19)
(4.70518 -0.376025 -8.41092e-21)
(1.58658 1.53535 -1.16141e-20)
(2.18693 1.44243 -1.09788e-20)
(0.566466 0.556436 -8.13197e-22)
(4.0979 0.245693 6.24327e-20)
(0.346176 0.398059 -4.9504e-22)
(0.354854 -0.0182963 -1.18913e-21)
(0.351677 0.0730309 6.53348e-22)
(1.77119 1.81945 1.39145e-19)
(3.27463 1.98579 1.749e-19)
(0.284454 0.163465 1.23359e-21)
(4.93627 -0.322376 7.96221e-20)
(0.392857 0.380541 -8.99491e-23)
(0.17269 -0.100574 -9.01532e-22)
(1.06509 1.17929 -2.32282e-21)
(2.36337 1.23963 2.95484e-21)
(3.84597 1.19517 -6.10787e-21)
(4.6633 -0.398489 1.91472e-19)
(0.414791 0.528015 9.75756e-20)
(4.59791 -0.326227 -9.73391e-20)
(4.582 -0.376742 -2.90188e-21)
(0.0211518 0.0358955 -1.53288e-22)
(3.7587 1.42475 -8.63146e-20)
(1.20567 1.13847 4.65531e-20)
(0.732768 0.760485 3.92953e-20)
(4.82365 -0.32078 -2.10009e-20)
(4.62672 -0.406228 -2.59737e-21)
(0.399136 0.000162974 4.45886e-22)
(2.98694 0.801398 9.33474e-21)
(0.232351 0.456821 2.56527e-21)
(2.67106 2.36791 -1.79392e-21)
(4.08364 0.0921939 -1.8516e-19)
(4.58225 -0.3867 -4.42516e-20)
(0.136264 -0.0796009 -1.6732e-22)
(0.414628 0.498499 -8.26375e-22)
(4.82232 -0.23358 -1.00322e-18)
(0.399205 0.368639 8.94539e-22)
(4.55143 0.167644 1.49748e-19)
(3.58567 0.117323 -6.77714e-20)
(0.130212 0.14602 1.47358e-21)
(2.46795 1.47325 -2.12016e-21)
(0.577381 0.516533 1.09455e-21)
(4.75907 -0.332289 -9.79405e-21)
(4.16982 -0.419324 -6.8808e-20)
(0.182292 0.429461 9.01993e-23)
(4.45054 -0.3825 -3.77739e-22)
(0.485362 0.334107 -7.51116e-22)
(0.097171 0.307099 -3.27851e-21)
(4.51776 -0.39822 1.98132e-21)
(0.437788 0.124428 -1.43233e-21)
(0.438149 0.0154299 6.37015e-22)
(4.70411 -0.39429 1.04791e-20)
(4.89878 -0.248917 2.46084e-19)
(0.205433 0.301857 -7.4165e-21)
(0.130637 -0.0614612 -2.06174e-22)
(0.0495682 -0.0142176 -1.4828e-22)
(0.488944 0.0560724 4.0984e-22)
(0.0351435 0.082581 1.05471e-22)
(0.15767 0.422947 -1.90509e-22)
(0.260894 0.477609 1.90486e-21)
(0.448642 0.467165 -1.62267e-22)
(0.0099943 0.113666 6.69474e-23)
(0.0130966 0.0731983 -3.53936e-22)
(0.327763 0.531595 -2.26926e-21)
(0.265197 0.287087 2.15692e-21)
(0.00677308 0.266043 6.20749e-23)
(0.612594 0.543472 -1.70345e-21)
(4.65718 -0.357842 -5.69362e-20)
(0.468329 0.0327404 1.4808e-21)
(4.34224 -0.428048 8.15257e-21)
(0.0138964 0.158806 -8.41447e-23)
(4.29203 -0.394264 -1.55753e-21)
(4.68169 -0.34198 2.5548e-20)
(4.28963 -0.366515 -2.1481e-20)
(3.75145 -0.456537 -3.6927e-21)
(4.81907 -0.419896 -2.05538e-19)
(0.223359 -0.0463892 7.67006e-22)
(0.372917 0.0268996 -2.51688e-21)
(0.0884198 -0.0349195 -2.10105e-22)
(0.298541 0.431165 1.59644e-21)
(0.0598877 0.0532636 -9.01937e-24)
(0.525988 0.526972 8.47801e-22)
(0.0828959 0.1377 -5.92584e-22)
(0.133887 0.410515 -1.05459e-22)
(0.264794 0.404701 -2.20872e-20)
(4.73978 -0.128789 -2.10004e-20)
(0.141487 0.417783 -1.46068e-21)
(4.53595 -0.368577 6.37633e-20)
(0.326395 0.422058 -4.38139e-22)
(0.109666 0.392225 1.59058e-22)
(3.56665 -0.501976 -3.19128e-20)
(4.10125 -0.387075 -6.84049e-20)
(0.603276 0.597907 7.5588e-21)
(0.00841998 0.207712 -4.99024e-22)
(0.105654 0.227607 5.34708e-22)
(0.0211782 0.235512 7.5079e-23)
(0.319772 0.00920262 7.00056e-22)
(0.222612 0.438362 -2.09884e-22)
(0.00267607 0.252655 7.26253e-22)
(0.369752 0.432722 -4.27728e-22)
(4.79058 -0.349668 -1.66277e-20)
(0.332956 0.258347 -3.80399e-21)
(4.93556 -0.346056 9.2555e-21)
(4.5707 -0.345716 8.82551e-20)
(4.10864 -0.408703 -6.50603e-22)
(3.91747 -0.432622 6.44287e-20)
(4.45147 -0.353882 -3.94632e-20)
(4.4575 -0.389858 -2.20981e-20)
(4.7141 -0.403472 -5.65793e-20)
(1.34704 1.5384 4.1244e-21)
(0.611072 0.744677 -1.36282e-20)
(0.225261 0.0100727 8.98344e-22)
(0.170458 -0.0759352 -7.34629e-22)
(4.58089 -0.387149 3.16248e-20)
(0.267429 -0.0196468 -2.16452e-21)
(3.59212 -0.457417 -1.53204e-19)
(0.00813787 0.276836 2.6973e-23)
(0.178886 0.123641 -2.21672e-22)
(0.0812399 0.363563 -1.22222e-22)
(0.359449 0.145782 -9.89887e-22)
(0.438646 0.53864 1.81577e-21)
(4.91419 -0.388299 4.22126e-19)
(0.0695453 0.242166 -7.78095e-23)
(4.87808 -0.347563 3.91123e-21)
(4.74708 -0.290146 -1.12408e-19)
(0.59301 0.672827 -1.08431e-21)
(0.188685 0.43197 1.73241e-22)
(0.0440004 0.307716 1.65653e-22)
(4.09485 -0.378144 8.89796e-20)
(0.0647005 0.33922 -3.80414e-23)
(0.163541 0.424925 1.1387e-22)
(0.360353 0.512703 -2.13053e-21)
(0.0938897 0.028199 1.11584e-22)
(0.350856 0.52217 8.47982e-21)
(0.105017 0.0966767 9.96176e-23)
(4.53359 -0.401538 1.766e-19)
(0.159497 -0.103015 2.79893e-24)
(0.210558 0.438097 5.23308e-22)
(0.138723 0.0757422 -3.68471e-22)
(0.528845 0.114487 -9.40103e-21)
(3.33521 -0.419649 -1.20361e-19)
(0.701689 0.70611 1.10981e-20)
(0.669735 0.611372 -2.15602e-20)
(3.84346 -0.368652 -1.3379e-19)
(0.422079 0.0375898 -6.88346e-22)
(0.421931 -0.371711 1.31574e-21)
(0.444169 -0.357346 -6.3319e-25)
(0.495936 -0.360441 -9.14052e-22)
(0.533016 -0.363083 4.74991e-22)
(0.572916 -0.366227 -5.6177e-22)
(0.60522 -0.368276 -1.76747e-21)
(0.636512 -0.369977 4.30328e-22)
(0.662962 -0.371462 5.47128e-22)
(0.688101 -0.371536 5.88735e-22)
(0.455082 -0.358353 -9.3069e-22)
(0.477052 -0.350369 -1.06615e-22)
(0.526077 -0.352334 7.96756e-22)
(0.563117 -0.355905 -1.62554e-21)
(0.600766 -0.35902 1.39222e-21)
(0.632387 -0.361698 2.4713e-21)
(0.661827 -0.363712 -1.56294e-21)
(0.68705 -0.365286 1.74544e-21)
(0.709134 -0.365739 -8.2654e-22)
(0.489681 -0.341564 2.61526e-21)
(0.508561 -0.337176 7.95556e-22)
(0.555349 -0.339501 -1.82983e-21)
(0.591633 -0.344156 9.41556e-22)
(0.627537 -0.347722 -2.52769e-21)
(0.658135 -0.350999 -4.21394e-22)
(0.685979 -0.353506 -1.55503e-23)
(0.709781 -0.355464 -8.48494e-22)
(0.730313 -0.356515 -1.52335e-21)
(0.521303 -0.323063 -1.34473e-21)
(0.537707 -0.319957 8.85284e-22)
(0.582818 -0.32291 1.52073e-21)
(0.618404 -0.328477 6.2782e-23)
(0.652836 -0.332626 1.14016e-21)
(0.682432 -0.336486 3.62256e-21)
(0.708932 -0.33946 -2.22161e-21)
(0.731573 -0.341771 3.84647e-22)
(0.751128 -0.343124 9.25851e-22)
(0.550167 -0.302157 9.98798e-23)
(0.564529 -0.299365 -3.56749e-22)
(0.608061 -0.303024 1.35068e-22)
(0.643056 -0.309142 -8.51776e-22)
(0.676329 -0.31387 3.79075e-22)
(0.705087 -0.318219 -8.18717e-22)
(0.730589 -0.321607 4.15826e-22)
(0.752453 -0.324237 1.66892e-21)
(0.771567 -0.325643 4.03306e-22)
(0.576017 -0.278651 2.41271e-22)
(0.588776 -0.275717 -2.05946e-21)
(0.630817 -0.280184 1.60397e-22)
(0.6654 -0.286431 2.05361e-21)
(0.6978 -0.291599 -6.78082e-22)
(0.725935 -0.296291 -9.95787e-22)
(0.750755 -0.300023 -3.24067e-22)
(0.772161 -0.302952 -2.9946e-21)
(0.790931 -0.304814 1.69541e-21)
(0.597574 -0.253824 2.37014e-22)
(0.610263 -0.249596 1.53013e-21)
(0.651021 -0.254741 2.82826e-22)
(0.685395 -0.260561 -1.03471e-21)
(0.717152 -0.265915 2.24215e-22)
(0.744876 -0.270732 -4.82494e-22)
(0.7693 -0.274646 8.19228e-22)
(0.790495 -0.277723 -7.88681e-22)
(0.809176 -0.27979 -5.31123e-22)
(0.613777 -0.227508 -7.18744e-22)
(0.629519 -0.221102 1.41214e-21)
(0.669017 -0.226597 -3.1535e-22)
(0.703148 -0.231526 6.35075e-22)
(0.734358 -0.236811 -4.91742e-22)
(0.761837 -0.241531 1.47888e-21)
(0.786118 -0.245442 2.05654e-21)
(0.807361 -0.248567 -2.78653e-21)
(0.826322 -0.250229 8.35957e-22)
(0.625735 -0.196345 -1.63644e-22)
(0.647188 -0.188988 2.9355e-22)
(0.685027 -0.194861 1.83483e-22)
(0.718623 -0.199029 -7.05305e-22)
(0.749308 -0.204174 -2.00058e-22)
(0.776691 -0.208634 -6.27641e-22)
(0.801054 -0.212334 -3.50385e-22)
(0.822609 -0.215182 2.87257e-21)
(0.841838 -0.216987 -3.19646e-22)
(0.635563 -0.158581 3.38334e-22)
(0.662644 -0.152247 -1.13903e-21)
(0.698346 -0.158949 -6.19617e-22)
(0.731325 -0.162984 1.84746e-22)
(0.761697 -0.168044 -2.29585e-22)
(0.789235 -0.1721 9.99692e-22)
(0.813955 -0.175311 1.45782e-22)
(0.83603 -0.177549 1.95554e-21)
(0.855813 -0.178556 -9.28707e-23)
(0.644603 -0.116428 -3.24476e-22)
(0.674345 -0.112237 -8.21531e-23)
(0.707756 -0.119912 4.19448e-22)
(0.740583 -0.12412 7.06407e-22)
(0.77116 -0.128914 -2.14341e-22)
(0.799252 -0.1323 -2.3498e-22)
(0.824691 -0.134689 -6.23908e-22)
(0.847656 -0.135924 -2.27422e-21)
(0.868331 -0.135934 -3.47023e-22)
(0.652443 -0.0739665 6.03404e-22)
(0.680907 -0.0724177 1.06513e-21)
(0.712838 -0.0800328 -8.22184e-22)
(0.74623 -0.0838132 4.47994e-22)
(0.777585 -0.0876494 -8.208e-23)
(0.806595 -0.0898711 1.39939e-21)
(0.833005 -0.0910317 1.35792e-22)
(0.856988 -0.0909582 -1.13944e-21)
(0.878796 -0.0905533 -8.22938e-22)
(0.656235 -0.0344963 1.50509e-22)
(0.68248 -0.0348449 -2.24122e-22)
(0.714466 -0.0408052 4.33204e-23)
(0.748842 -0.0430538 2.90501e-22)
(0.781261 -0.0449674 -1.96332e-22)
(0.81135 -0.0453532 -2.54202e-22)
(0.838828 -0.0446957 -4.69466e-22)
(0.863838 -0.0429785 8.70795e-22)
(0.886898 -0.0404046 -5.14074e-22)
(0.654108 0.00239346 -2.11401e-22)
(0.680753 0.00143383 -1.23008e-23)
(0.713714 -0.00200387 -1.59796e-22)
(0.74911 -0.00190349 4.55926e-22)
(0.782556 -0.00116911 -8.33124e-23)
(0.813676 0.000804044 -4.8567e-23)
(0.842186 0.0036975 -3.25733e-22)
(0.86823 0.0074348 4.01255e-23)
(0.892055 0.0123701 2.99856e-22)
(0.646432 0.0389282 6.83415e-22)
(0.676156 0.0378931 -9.42556e-23)
(0.710895 0.0373945 8.8691e-22)
(0.74728 0.0401446 -1.28929e-21)
(0.78158 0.0438148 1.4534e-22)
(0.813567 0.0483915 4.67868e-22)
(0.842997 0.0537448 3.29505e-22)
(0.870045 0.0598517 4.71973e-22)
(0.894909 0.0669553 -1.65375e-21)
(0.632458 0.0776678 2.6985e-22)
(0.668369 0.0762444 -3.7618e-22)
(0.70568 0.0786422 -1.26248e-21)
(0.743047 0.0837501 1.69319e-21)
(0.778058 0.0901404 5.78113e-22)
(0.810771 0.0972085 -3.05304e-22)
(0.841 0.104955 -3.71339e-23)
(0.86887 0.113379 1.25905e-21)
(0.894318 0.122273 -5.42733e-22)
(0.614649 0.119448 1.3329e-21)
(0.655649 0.117825 -1.03288e-21)
(0.696785 0.122435 1.21445e-21)
(0.735478 0.129202 -8.23703e-22)
(0.771308 0.137743 -8.78773e-22)
(0.804757 0.146976 3.50666e-21)
(0.835748 0.156925 -2.31291e-21)
(0.86439 0.167605 -9.31271e-22)
(0.891003 0.178145 2.27019e-22)
(0.596194 0.161544 -1.73991e-21)
(0.638323 0.160712 1.42866e-21)
(0.683127 0.16756 -6.61241e-22)
(0.723625 0.175665 1.03535e-21)
(0.760631 0.185961 2.36629e-22)
(0.795037 0.197128 -2.80691e-21)
(0.826917 0.209197 2.56706e-22)
(0.85636 0.222108 -1.33102e-21)
(0.883724 0.235325 -1.69034e-21)
(0.577425 0.201329 -3.44157e-22)
(0.617638 0.202009 -3.24569e-22)
(0.66491 0.211759 -7.30688e-22)
(0.707273 0.221561 -2.97132e-21)
(0.745715 0.23362 7.31385e-22)
(0.78133 0.24665 1.24217e-21)
(0.81433 0.260714 1.42563e-21)
(0.844869 0.275612 1.77102e-21)
(0.873178 0.291212 -8.09418e-22)
(0.557484 0.238449 2.8416e-22)
(0.594565 0.240591 8.82776e-23)
(0.643033 0.253538 2.51093e-21)
(0.6868 0.265568 -2.13251e-22)
(0.726631 0.279616 1.23319e-21)
(0.763508 0.294625 -8.39496e-22)
(0.797686 0.31071 -5.87542e-21)
(0.829343 0.327631 -9.00889e-22)
(0.858839 0.345151 -1.18351e-22)
(0.535619 0.273452 6.57421e-22)
(0.569228 0.27641 -3.33389e-21)
(0.618154 0.292227 2.04953e-21)
(0.662717 0.306845 -2.45056e-21)
(0.703701 0.323117 1.85558e-21)
(0.741753 0.340308 -4.20287e-22)
(0.777108 0.358581 1.70532e-21)
(0.809921 0.377688 1.52116e-21)
(0.840115 0.398056 -5.12116e-22)
(0.512082 0.305633 1.45865e-21)
(0.541512 0.309109 3.11355e-21)
(0.590706 0.327263 -5.53518e-21)
(0.635462 0.344788 6.82231e-22)
(0.677243 0.363448 -5.0238e-21)
(0.716264 0.382965 1.45273e-21)
(0.752772 0.403473 5.63439e-22)
(0.787104 0.42473 -8.17622e-22)
(0.818202 0.448593 -4.02211e-22)
(0.48729 0.332191 -1.1156e-21)
(0.511994 0.338229 -2.62306e-21)
(0.561468 0.358468 3.00228e-21)
(0.605738 0.379307 3.16662e-21)
(0.647814 0.400458 3.45964e-21)
(0.687394 0.422369 -2.41048e-22)
(0.724768 0.445038 -1.13406e-21)
(0.760506 0.468554 3.32391e-21)
(0.792807 0.495229 -8.71625e-21)
(0.46048 0.352177 2.77852e-22)
(0.480817 0.363385 1.44564e-21)
(0.529833 0.385393 -8.56206e-22)
(0.572763 0.409564 1.61224e-21)
(0.614506 0.433138 -3.13307e-21)
(0.654222 0.457567 -8.74733e-22)
(0.692185 0.482389 4.74308e-21)
(0.729729 0.508327 -4.90469e-21)
(0.764328 0.540371 5.57153e-21)
(0.431311 0.368043 4.67754e-22)
(0.450768 0.388834 2.15841e-22)
(0.49944 0.413979 9.25212e-22)
(0.541068 0.440142 -1.857e-21)
(0.582014 0.465361 4.97485e-22)
(0.620718 0.491331 -2.60472e-21)
(0.65816 0.517147 1.79917e-21)
(0.698255 0.543464 -1.61361e-21)
(0.735294 0.577446 -1.51759e-22)
(0.330048 0.288848 -2.92816e-22)
(0.323129 0.2868 -3.58984e-22)
(0.31583 0.284199 -1.13818e-21)
(0.30776 0.281186 1.61038e-21)
(0.298914 0.277725 -1.22006e-21)
(0.289272 0.273772 9.27922e-22)
(0.278829 0.269266 3.62529e-22)
(0.267596 0.264142 -1.00239e-22)
(0.255605 0.258332 -6.78998e-22)
(0.242908 0.251759 -2.84614e-22)
(0.229583 0.244348 3.1621e-22)
(0.215728 0.236019 -3.49309e-22)
(0.201464 0.226696 9.65441e-22)
(0.186928 0.21631 -2.44248e-21)
(0.172262 0.20479 4.24508e-21)
(0.15762 0.192089 -4.80138e-21)
(0.143156 0.178178 4.27747e-21)
(0.129015 0.163052 -1.93815e-21)
(0.11533 0.146748 -6.34448e-22)
(0.10221 0.129358 6.64999e-22)
(0.0897145 0.111035 -2.29467e-22)
(0.0777934 0.0919791 5.02476e-22)
(0.066301 0.0725773 3.04231e-23)
(0.0550666 0.0532436 -7.00684e-22)
(0.0444583 0.0341732 5.51458e-22)
(0.0365958 0.0149243 -2.93151e-22)
(0.0331751 -0.00504689 3.87199e-22)
(0.034096 -0.0259326 3.0471e-22)
(0.038991 -0.0479324 -3.713e-22)
(0.0452568 -0.0711842 9.89973e-24)
(0.0513814 -0.0952526 -3.29127e-22)
(0.0582187 -0.119376 3.01636e-22)
(0.0663016 -0.143333 5.72565e-22)
(0.0757489 -0.166845 -4.7157e-22)
(0.0865191 -0.189516 6.75759e-22)
(0.0985392 -0.211135 -1.11823e-21)
(0.111663 -0.231497 9.22904e-23)
(0.125716 -0.250447 2.40571e-22)
(0.140522 -0.267877 -3.68145e-22)
(0.155909 -0.283719 8.24109e-22)
(0.171724 -0.297951 -4.67339e-22)
(0.187828 -0.310588 -1.98792e-21)
(0.204088 -0.321671 4.07139e-21)
(0.220389 -0.331272 -4.32761e-21)
(0.23662 -0.339496 3.739e-21)
(0.252665 -0.346453 -2.19574e-21)
(0.268404 -0.352265 1.11951e-21)
(0.283725 -0.357072 -3.93027e-22)
(0.298502 -0.360999 3.51758e-22)
(0.312621 -0.364166 -3.8861e-22)
(0.325983 -0.36669 -5.24608e-22)
(0.338532 -0.368662 -1.38719e-22)
(0.350265 -0.370159 2.95641e-22)
(0.361173 -0.371267 6.95542e-22)
(0.37124 -0.372057 -1.04662e-21)
(0.380468 -0.372594 1.35048e-21)
(0.388881 -0.372922 -9.18358e-22)
(0.396515 -0.373061 -3.15976e-22)
(0.403478 -0.373089 -2.22439e-22)
(0.346574 0.25758 -1.42455e-23)
(0.340321 0.255567 2.27438e-23)
(0.333588 0.253456 -7.90057e-23)
(0.326266 0.251157 1.81512e-22)
(0.318332 0.248665 1.47106e-23)
(0.309783 0.245893 -4.4086e-22)
(0.300619 0.242753 7.90116e-23)
(0.290824 0.239186 -1.25076e-23)
(0.280387 0.235114 3.11871e-22)
(0.269317 0.230448 -6.00294e-23)
(0.257639 0.225091 -7.02207e-23)
(0.245402 0.218941 -1.83689e-22)
(0.232677 0.211895 3.73316e-22)
(0.219552 0.203855 -3.49813e-22)
(0.20614 0.194734 3.64871e-22)
(0.192564 0.184458 -8.14423e-23)
(0.178954 0.172978 -2.16216e-22)
(0.165446 0.160267 2.48386e-22)
(0.152168 0.146321 1.51031e-22)
(0.139234 0.131161 2.61636e-23)
(0.126745 0.114818 6.74053e-24)
(0.114797 0.0973051 -3.86948e-22)
(0.103572 0.0785761 3.13375e-22)
(0.0934486 0.0584322 -1.03475e-22)
(0.0849693 0.036599 4.09919e-22)
(0.078853 0.0131265 -1.72844e-22)
(0.0752861 -0.0115076 -2.16961e-23)
(0.0744301 -0.036618 8.76256e-23)
(0.0763829 -0.0615212 1.05525e-23)
(0.0807303 -0.0857939 -5.52188e-24)
(0.086607 -0.109534 -7.04451e-23)
(0.0938175 -0.132865 3.3415e-23)
(0.102442 -0.155654 -3.30125e-23)
(0.112384 -0.177735 -8.67615e-23)
(0.123523 -0.198926 -9.98737e-24)
(0.135753 -0.219061 4.37057e-23)
(0.148945 -0.237995 1.57614e-22)
(0.162951 -0.25561 -3.0631e-22)
(0.177619 -0.271824 2.68675e-24)
(0.192796 -0.28658 -5.91295e-23)
(0.208332 -0.299848 5.08084e-23)
(0.224083 -0.311622 2.34303e-22)
(0.239911 -0.321916 -4.91915e-22)
(0.255677 -0.330768 -2.99173e-22)
(0.271245 -0.338237 5.88566e-22)
(0.286484 -0.344406 -5.12912e-22)
(0.301268 -0.349379 3.6287e-22)
(0.315479 -0.353281 -6.42562e-23)
(0.329023 -0.356251 -1.69745e-22)
(0.34182 -0.358438 1.83204e-23)
(0.353836 -0.359963 3.47837e-22)
(0.365151 -0.360909 -8.44823e-23)
(0.375805 -0.361342 1.05307e-22)
(0.385767 -0.361381 -4.78577e-22)
(0.395 -0.361162 7.13619e-23)
(0.403538 -0.360774 1.85307e-22)
(0.411447 -0.360246 -1.31012e-22)
(0.418806 -0.359595 3.73331e-23)
(0.425661 -0.358956 -2.24769e-23)
(0.402041 0.245989 -3.7975e-22)
(0.395689 0.244056 7.44519e-23)
(0.38888 0.241921 -3.30421e-22)
(0.381597 0.239559 -8.08208e-23)
(0.373818 0.236917 1.14299e-21)
(0.36552 0.233942 -3.57762e-22)
(0.356686 0.230591 -6.9513e-22)
(0.347296 0.226811 -7.30038e-24)
(0.337343 0.222544 4.17287e-22)
(0.326827 0.21772 -1.08359e-22)
(0.315765 0.212262 1.13514e-21)
(0.304188 0.206086 -1.33815e-21)
(0.292146 0.199106 1.20953e-21)
(0.279709 0.191234 -1.62013e-22)
(0.266964 0.182388 -1.0571e-21)
(0.254012 0.172492 3.16182e-22)
(0.24097 0.161481 1.24814e-21)
(0.227961 0.149304 -5.05937e-22)
(0.215116 0.13592 -1.16627e-22)
(0.20257 0.121294 2.20336e-23)
(0.190469 0.105393 -3.40146e-22)
(0.178984 0.0881745 8.69549e-23)
(0.168338 0.0695817 -8.36367e-22)
(0.15884 0.049574 1.0035e-21)
(0.150902 0.0281701 -3.8952e-22)
(0.145043 0.00553478 2.04868e-24)
(0.141668 -0.0180159 5.3795e-23)
(0.140932 -0.042099 -2.51015e-22)
(0.142754 -0.0662773 1.54896e-22)
(0.146767 -0.0901422 8.37066e-23)
(0.15253 -0.113492 1.94061e-22)
(0.159785 -0.136257 -1.96237e-22)
(0.168388 -0.158335 8.96958e-23)
(0.178213 -0.1796 1.28625e-22)
(0.189141 -0.199933 -4.09112e-22)
(0.201053 -0.219224 1.15489e-21)
(0.213825 -0.23737 -7.50227e-22)
(0.227322 -0.254283 -1.73948e-22)
(0.241409 -0.269897 -1.78853e-22)
(0.255946 -0.284166 -5.98119e-23)
(0.270792 -0.297067 -2.95514e-22)
(0.285808 -0.308597 -4.86579e-22)
(0.300859 -0.318773 1.20422e-21)
(0.31581 -0.327635 5.57534e-22)
(0.330536 -0.335242 -1.14604e-21)
(0.344916 -0.341671 -3.6221e-22)
(0.358847 -0.347017 1.17349e-21)
(0.372245 -0.351382 -1.35551e-21)
(0.385045 -0.354879 9.51664e-22)
(0.39721 -0.357616 -3.92144e-23)
(0.408728 -0.359702 3.70769e-22)
(0.419582 -0.361234 6.17917e-23)
(0.429717 -0.362323 -6.4005e-22)
(0.439186 -0.363012 -3.09202e-22)
(0.448052 -0.363346 9.97729e-22)
(0.456328 -0.363409 -3.02259e-23)
(0.464058 -0.363247 -2.89937e-22)
(0.471284 -0.362905 8.60231e-23)
(0.478046 -0.36242 -3.27034e-22)
(0.440133 0.239452 -9.35932e-23)
(0.433783 0.237947 4.56165e-22)
(0.427011 0.236253 -2.20448e-22)
(0.419755 0.234292 1.69081e-22)
(0.412004 0.232036 -1.87989e-22)
(0.40374 0.229445 -1.10344e-23)
(0.394952 0.226469 -1.24144e-22)
(0.385632 0.223053 -3.27416e-22)
(0.375777 0.219135 2.1944e-22)
(0.365392 0.214644 2.82817e-22)
(0.354495 0.209501 2.18942e-22)
(0.343113 0.203622 -8.24638e-22)
(0.331293 0.19692 7.55644e-22)
(0.319093 0.189304 -1.60574e-22)
(0.306592 0.180685 1.03948e-22)
(0.293886 0.170981 -4.58808e-22)
(0.281088 0.160113 4.50899e-22)
(0.268327 0.148017 -1.88428e-22)
(0.255748 0.134635 -2.75332e-22)
(0.243514 0.11992 1.49644e-22)
(0.231806 0.103833 -7.9358e-23)
(0.22083 0.086348 -4.55707e-22)
(0.210828 0.0674524 2.95249e-22)
(0.20208 0.047168 3.04503e-22)
(0.194897 0.0255777 -2.49385e-22)
(0.189586 0.00285803 2.85027e-23)
(0.18638 -0.0207085 2.8681e-22)
(0.185401 -0.0447754 -3.38376e-22)
(0.186651 -0.0689779 1.12539e-22)
(0.189992 -0.0929877 -3.04962e-23)
(0.195207 -0.116571 1.43321e-22)
(0.202091 -0.139566 -3.38344e-22)
(0.210471 -0.161838 2.5777e-22)
(0.220182 -0.18326 -7.03524e-24)
(0.231066 -0.20372 -3.29949e-22)
(0.24297 -0.223111 1.31797e-22)
(0.255741 -0.241342 3.67112e-22)
(0.269226 -0.258331 -1.74982e-22)
(0.283273 -0.274015 -1.45105e-22)
(0.29773 -0.288351 2.66034e-22)
(0.312451 -0.301315 -8.60191e-23)
(0.327289 -0.312905 -1.01255e-22)
(0.342106 -0.323141 5.9875e-22)
(0.356771 -0.332061 -5.56523e-22)
(0.371163 -0.339724 2.36404e-22)
(0.385179 -0.346206 -4.51505e-23)
(0.398728 -0.351596 7.4742e-22)
(0.411742 -0.355992 -6.97223e-22)
(0.42417 -0.359496 2.84504e-22)
(0.43598 -0.362213 2.32999e-22)
(0.447155 -0.364238 2.36327e-22)
(0.457661 -0.365696 -3.34124e-22)
(0.467494 -0.366689 -7.5559e-23)
(0.476734 -0.367238 -9.9051e-23)
(0.485437 -0.367398 -1.59549e-22)
(0.493587 -0.367253 1.15664e-22)
(0.501206 -0.366861 -2.11519e-22)
(0.508331 -0.366265 4.3137e-22)
(0.51502 -0.36553 -1.21963e-22)
(0.488339 0.235757 -6.31869e-22)
(0.48204 0.234087 6.32983e-23)
(0.475258 0.232223 6.17777e-22)
(0.467968 0.230118 -4.43661e-22)
(0.460159 0.22773 1.16936e-22)
(0.451822 0.225014 3.86905e-22)
(0.442952 0.221918 -4.95496e-22)
(0.433549 0.218386 1.85808e-22)
(0.42362 0.214355 5.9303e-22)
(0.413178 0.209757 -2.06829e-22)
(0.402247 0.204518 -6.15144e-22)
(0.39086 0.198558 -2.01171e-22)
(0.379063 0.191793 5.22472e-22)
(0.366917 0.184138 4.64763e-22)
(0.3545 0.175507 -1.08825e-22)