/*--------------------------------*- C++ -*----------------------------------*\
  =========                 |
  \\      /  F ield         | OpenFOAM: The Open Source CFD Toolbox
   \\    /   O peration     | Website:  https://openfoam.org
    \\  /    A nd           | Version:  10
     \\/     M anipulation  |
\*---------------------------------------------------------------------------*/
FoamFile
{
    format      ascii;
    class       volScalarField;
    location    "900";
    object      epsilon;
}
// * * * * * * * * * * * * * * * * * * * * * * * * * * * * * * * * * * * * * //

dimensions      [0 2 -3 0 0 0 0];

internalField   nonuniform List<scalar> 
10435
(
0.0258057
0.0700662
0.119247
0.0594999
0.333815
0.500044
0.0782452
0.0239875
0.0132612
0.345615
0.129132
0.0743207
0.282272
0.021173
0.0207945
0.0559718
0.0216017
0.399979
0.010491
0.0283397
0.0362752
0.0405107
0.0837543
0.0221514
0.261323
0.00794157
0.0137765
0.176182
0.0125726
0.396611
0.151497
0.171529
0.0192247
0.0130495
0.0322618
0.0305722
0.0471503
0.0145719
0.00505072
0.0142576
0.474549
0.0874287
0.0165168
0.0463497
0.072471
0.0186754
0.481821
0.0157337
0.0103966
0.0277079
0.0291026
0.287559
0.00494374
0.00959351
0.0056922
0.0112118
0.0391118
0.0157501
0.020717
0.026402
0.00568183
0.0519705
0.015703
0.280295
0.0799308
0.159709
0.0187797
0.0189795
0.0302289
0.0237177
0.00929936
0.0111721
0.0107153
0.134803
0.0206446
0.0153628
0.0259121
0.060043
0.015333
0.0191402
0.0283051
0.0197917
0.00486039
0.00994064
0.0283035
0.0260797
0.0297725
0.060992
0.0214767
0.035116
0.0740251
0.0892591
0.02078
0.0231321
0.0419948
0.0247871
0.0949185
0.0204725
0.0211728
0.140872
0.0207624
0.536848
0.0258358
0.0504784
0.549956
0.0533065
0.0219869
0.0281033
0.0284573
0.0188381
0.0265503
0.496148
0.0191059
0.0188179
0.139552
0.0378206
0.139054
0.031099
0.077753
0.0926872
0.12834
0.0120179
0.0382125
0.0158137
0.299165
0.00686759
0.0941375
0.0127962
0.2185
0.013281
0.0141408
0.225797
0.0391995
0.019632
0.0126705
0.00486508
0.0220675
0.0627665
0.0608731
0.0344484
0.0312292
0.110681
0.0167911
0.15415
0.0419893
0.0185855
0.0182285
0.371039
0.0208746
0.101185
0.0134076
0.0638426
0.0307352
0.114845
0.348977
0.010699
0.374504
0.0479527
0.359048
0.112455
0.0945776
0.0202236
0.126911
0.044626
0.0207696
0.188082
0.0191519
0.0631322
0.0431781
0.202572
0.266811
0.00879734
0.0124715
0.0191094
0.0689589
0.0772018
0.0392115
0.0205588
0.0250141
0.0142319
0.0952843
0.509781
0.0922533
0.00642806
0.0993271
0.013588
0.0134016
0.0498622
0.378276
0.209973
0.103472
0.00486735
0.0124036
0.0281989
0.442149
0.0383862
0.0186289
0.0226893
0.0184246
0.0533068
0.0213566
0.0145583
0.222622
0.015733
0.176036
0.19712
0.0997525
0.0632421
0.0163192
0.042292
0.0112316
0.0932894
0.137236
0.0506761
0.0137517
0.0205424
0.0211783
0.00687979
0.00804239
0.0208118
0.0130515
0.0217429
0.018191
0.0179352
0.00946882
0.0365723
0.00641292
0.0206232
0.195222
0.0155228
0.0208546
0.0260257
0.0071761
0.0577951
0.0144408
0.0218025
0.0350586
0.00920608
0.0344167
0.198299
0.0403392
0.00812267
0.00771697
0.0108251
0.162546
0.0145975
0.0209926
0.0309984
0.00969595
0.0533677
0.00926419
0.0225738
0.309768
0.0426421
0.0405706
0.274704
0.00854075
0.0494663
0.00958872
0.0148081
0.0604217
0.252137
0.00791028
0.0327849
0.0221579
0.0215539
0.0351476
0.121179
0.00587329
0.210879
0.0749257
0.0223811
0.0321672
0.228611
0.00898539
0.091166
0.0137232
0.310594
0.0493586
0.0187919
0.297717
0.0193497
0.0931855
0.0197394
0.024431
0.0058558
0.388155
0.00571513
0.0102627
0.0135857
0.018589
0.162416
0.0163181
0.0264352
0.00514786
0.00908266
0.0184193
0.0237201
0.270443
0.182379
0.0192253
0.0359085
0.114162
0.0107341
0.221465
0.020408
0.0211718
0.052432
0.171572
0.0104531
0.0234518
0.0128137
0.0379288
0.39751
0.0176302
0.00946306
0.00701653
0.145928
0.0200602
0.0657591
0.554054
0.0143165
0.0271427
0.00487436
0.0157566
0.230812
0.0100005
0.139199
0.0201973
0.014858
0.0193363
0.0149569
0.0105028
0.100772
0.0792695
0.0168858
0.00991692
0.00989878
0.0116855
0.012053
0.0108718
0.0109753
0.00563426
0.0123812
0.0118914
0.0125955
0.0179032
0.0146035
0.004881
0.0131617
0.0108259
0.222414
0.0132802
0.170298
0.0134813
0.00909193
0.277437
0.121825
0.0102496
0.0117346
0.00997314
0.00702483
0.0116625
0.00582708
0.013472
0.011658
0.017325
0.0600837
0.011395
0.0119192
0.00632205
0.0125074
0.312313
0.00770026
0.00616321
0.0136025
0.0150127
0.0141928
0.0114672
0.00891625
0.0158389
0.006034
0.0172503
0.018452
0.0253952
0.0117925
0.207176
0.24692
0.0105021
0.143679
0.023864
0.0161906
0.010853
0.0118337
0.00971727
0.120644
0.0108893
0.320075
0.0152592
0.0145487
0.0131104
0.0158855
0.00794265
0.0657411
0.0145388
0.0207936
0.0488411
0.00874413
0.00978301
0.0143813
0.00839205
0.0142921
0.0105637
0.00904251
0.0114856
0.0169922
0.0130217
0.13995
0.00935994
0.0101196
0.0129491
0.0139288
0.391008
0.00664647
0.00529111
0.00636016
0.0115732
2.61536e-05
2.47033e-05
2.29348e-05
2.10653e-05
1.92538e-05
1.74517e-05
1.56305e-05
1.37454e-05
1.17477e-05
2.74325e-05
2.57061e-05
2.36492e-05
2.15593e-05
1.95466e-05
1.75972e-05
1.56811e-05
1.37837e-05
1.19175e-05
2.92037e-05
2.71423e-05
2.47667e-05
2.24132e-05
2.01745e-05
1.80427e-05
1.59958e-05
1.40294e-05
1.21705e-05
3.17134e-05
2.92419e-05
2.64763e-05
2.37955e-05
2.12739e-05
1.89037e-05
1.66657e-05
1.45547e-05
1.25885e-05
3.5279e-05
3.23012e-05
2.90339e-05
2.59247e-05
2.30283e-05
2.03342e-05
1.78205e-05
1.54729e-05
1.32862e-05
4.03604e-05
3.67374e-05
3.2801e-05
2.91105e-05
2.57012e-05
2.25587e-05
1.96539e-05
1.69641e-05
1.44712e-05
4.76721e-05
4.31608e-05
3.82999e-05
3.38038e-05
2.96822e-05
2.59128e-05
2.24579e-05
1.92908e-05
1.63957e-05
5.83695e-05
5.2462e-05
4.62943e-05
4.06725e-05
3.55567e-05
3.0906e-05
2.66717e-05
2.28261e-05
1.93648e-05
7.40527e-05
6.58874e-05
5.78982e-05
5.07171e-05
4.42162e-05
3.83222e-05
3.29722e-05
2.81321e-05
2.37996e-05
9.65126e-05
8.5119e-05
7.47359e-05
6.54404e-05
5.70231e-05
4.93757e-05
4.24243e-05
3.61217e-05
3.04427e-05
0.000127566
0.000112438
9.91691e-05
8.70849e-05
7.60435e-05
6.59367e-05
5.67005e-05
4.82824e-05
4.0644e-05
0.000169223
0.000151123
0.000134635
0.000118943
0.000104343
9.08212e-05
7.83626e-05
6.69285e-05
5.64967e-05
0.000224278
0.000206293
0.000186125
0.00016571
0.000146302
0.000128096
0.000111163
9.5492e-05
8.11192e-05
0.000306198
0.000286437
0.000260647
0.000233702
0.00020779
0.000183265
0.000160249
0.00013876
0.000118904
0.000429693
0.000401736
0.000366537
0.00033045
0.000295897
0.0002631
0.000232096
0.000202844
0.000175361
0.000607079
0.000560942
0.000511574
0.000463474
0.000418051
0.000374985
0.00033405
0.00029512
0.0002582
0.000839845
0.000767646
0.000700869
0.00063882
0.000580882
0.000525965
0.000473453
0.000423122
0.000375183
0.001113
0.0010193
0.000936268
0.000860449
0.000789675
0.000722282
0.000657232
0.000594067
0.000532931
0.00142016
0.00131373
0.00121867
0.00113134
0.00104904
0.000969913
0.000892548
0.000816136
0.000740514
0.00176446
0.00165344
0.001551
0.00145543
0.0013643
0.00127567
0.00118771
0.00109922
0.00101004
0.0021558
0.00204544
0.00193904
0.00183865
0.00174244
0.00164803
0.00155282
0.00145475
0.00135294
0.00260789
0.00249905
0.0023903
0.00228843
0.00219203
0.00209737
0.00200049
0.00189796
0.00178793
0.00313929
0.00302389
0.00291219
0.00281262
0.00272259
0.00263541
0.00254516
0.00244664
0.0023373
0.00377116
0.00362676
0.00350963
0.00341789
0.00334331
0.0032741
0.0032018
0.00311886
0.00302203
0.00451699
0.00430485
0.00418437
0.00411026
0.00406417
0.00402602
0.00398564
0.00393423
0.00384906
0.000611516
0.000599072
0.000590214
0.000584932
0.000583219
0.000584989
0.000590126
0.00059843
0.000609686
0.000623587
0.000639811
0.000657993
0.000677703
0.000698493
0.00071982
0.000741126
0.000761804
0.000781226
0.00079876
0.000813786
0.000825645
0.000833592
0.000836504
0.000832761
0.000822225
0.0008064
0.00078575
0.000759795
0.000728518
0.000693726
0.000656161
0.000616143
0.000574147
0.000530982
0.000487369
0.000443969
0.000401389
0.000360172
0.000320786
0.00028362
0.000248961
0.000217004
0.000187833
0.000161428
0.000137758
0.000116806
9.85356e-05
8.2874e-05
6.96939e-05
5.88198e-05
5.00224e-05
4.30385e-05
3.76017e-05
3.34596e-05
3.03939e-05
2.82242e-05
2.68105e-05
2.6051e-05
2.58645e-05
0.000637574
0.000627024
0.000619819
0.000615989
0.000615503
0.00061828
0.000624169
0.000632947
0.000644297
0.000657796
0.0006729
0.000689303
0.000706672
0.000724631
0.000742752
0.00076057
0.000777585
0.000793279
0.000807124
0.000818594
0.000827158
0.000832262
0.000833271
0.000829389
0.000819888
0.000804458
0.000783217
0.000756682
0.000725766
0.00069142
0.000654274
0.000614811
0.000573544
0.000531066
0.000488
0.000444967
0.000402555
0.000361306
0.000321693
0.000284115
0.000248887
0.000216243
0.000186337
0.000159253
0.000135046
0.000113745
9.53278e-05
7.97181e-05
6.67429e-05
5.61424e-05
4.76245e-05
4.0896e-05
3.56761e-05
3.17117e-05
2.87813e-05
2.67038e-05
2.53404e-05
2.45917e-05
2.43773e-05
0.000651511
0.000642495
0.000636244
0.000632751
0.000631982
0.000633874
0.000638325
0.000645196
0.000654302
0.000665406
0.000678211
0.000692384
0.000707564
0.000723364
0.000739365
0.000755121
0.000770161
0.000783997
0.000796124
0.000806025
0.000813158
0.000816942
0.000816745
0.000811924
0.000801977
0.000786684
0.000766105
0.000740589
0.000710759
0.000677368
0.000641095
0.000602524
0.000562216
0.000520751
0.000478712
0.000436675
0.000395185
0.000354745
0.000315801
0.000278734
0.000243863
0.000211444
0.000181678
0.000154718
0.000130673
0.000109595
9.14663e-05
7.61779e-05
6.35328e-05
5.32625e-05
4.50626e-05
3.86165e-05
3.36321e-05
2.98493e-05
2.70493e-05
2.50565e-05
2.37365e-05
2.29934e-05
2.275e-05
0.000640589
0.000632208
0.000626404
0.000623135
0.000622331
0.000623894
0.000627702
0.000633608
0.000641435
0.000650975
0.00066199
0.000674211
0.000687344
0.000701059
0.000714996
0.000728758
0.00074192
0.000754024
0.000764584
0.000773091
0.00077901
0.000781786
0.000780855
0.000775687
0.00076586
0.00075115
0.00073158
0.000707425
0.000679179
0.000647453
0.000612877
0.000576054
0.000537564
0.000497975
0.000457842
0.000417696
0.000378036
0.000339325
0.000301977
0.000266356
0.000232779
0.000201517
0.000172796
0.000146799
0.000123652
0.000103416
8.60645e-05
7.14813e-05
5.94625e-05
4.97388e-05
4.20075e-05
3.59513e-05
3.1275e-05
2.77252e-05
2.50927e-05
2.32123e-05
2.19581e-05
2.12394e-05
2.09833e-05
0.000615091
0.000607391
0.000602062
0.000599055
0.000598292
0.000599666
0.000603047
0.000608285
0.00061521
0.000623627
0.000633323
0.000644062
0.000655584
0.000667598
0.000679785
0.00069179
0.000703228
0.000713677
0.000722688
0.000729783
0.000734465
0.000736228
0.00073458
0.000729076
0.000719378
0.000705304
0.000686863
0.000664262
0.000637874
0.000608192
0.000575768
0.000541167
0.000504955
0.000467684
0.000429884
0.000392058
0.000354672
0.000318159
0.000282913
0.000249288
0.000217595
0.000188104
0.000161044
0.000136596
0.000114881
9.59435e-05
7.97471e-05
6.61661e-05
5.49961e-05
4.59741e-05
3.88064e-05
3.31962e-05
2.88679e-05
2.55825e-05
2.31432e-05
2.13948e-05
2.02194e-05
1.95329e-05
1.9268e-05
0.000575167
0.000567794
0.000562659
0.000559712
0.000558869
0.00056002
0.000563026
0.000567733
0.000573966
0.000581533
0.000590227
0.000599824
0.000610081
0.000620729
0.000631478
0.000642003
0.000651953
0.000660946
0.000668576
0.000674417
0.000678025
0.000678954
0.000676781
0.000671131
0.000661721
0.000648408
0.000631198
0.000610259
0.000585892
0.000558504
0.000528569
0.000496602
0.000463136
0.000428693
0.00039377
0.000358839
0.000324333
0.000290652
0.000258175
0.000227232
0.000198115
0.000171075
0.000146318
0.000124006
0.000104235
8.70331e-05
7.23489e-05
6.00536e-05
4.99497e-05
4.17908e-05
3.53063e-05
3.0227e-05
2.63042e-05
2.33228e-05
2.11059e-05
1.95115e-05
1.8432e-05
1.77918e-05
1.75298e-05
0.000523599
0.000516529
0.000511532
0.000508567
0.000507565
0.000508419
0.000510999
0.000515154
0.000520714
0.000527487
0.000535275
0.000543862
0.000553017
0.000562485
0.000571994
0.000581252
0.000589935
0.000597688
0.00060415
0.000608939
0.000611664
0.000611938
0.000609409
0.000603771
0.000594777
0.000582324
0.00056643
0.000547248
0.000525017
0.000500076
0.000472849
0.000443792
0.000413418
0.000382217
0.000350635
0.000319116
0.000288046
0.00025779
0.00022871
0.000201092
0.000175185
0.000151197
0.000129297
0.00010961
9.22027e-05
7.70794e-05
6.41798e-05
5.33779e-05
4.44936e-05
3.73082e-05
3.15853e-05
2.70916e-05
2.36119e-05
2.09598e-05
1.89808e-05
1.7552e-05
1.65801e-05
1.59968e-05
1.57477e-05
0.00045851
0.000451486
0.000446389
0.000443207
0.00044189
0.000442348
0.000444457
0.000448078
0.000453035
0.000459128
0.000466185
0.000473967
0.000482249
0.000490783
0.000499323
0.000507632
0.000515421
0.000522325
0.000528032
0.000532148
0.000534331
0.000534234
0.000531623
0.000526287
0.000517949
0.000506588
0.000492222
0.000475012
0.000455099
0.000432784
0.000408472
0.000382583
0.000355656
0.000328152
0.0003004
0.000272833
0.000245795
0.000219589
0.000194571
0.000170931
0.000148859
0.000128502
0.000109975
9.33616e-05
7.8702e-05
6.59693e-05
5.51103e-05
4.60021e-05
3.84886e-05
3.23869e-05
2.75045e-05
2.36533e-05
2.06588e-05
1.83691e-05
1.66566e-05
1.54184e-05
1.45748e-05
1.40678e-05
1.38493e-05
0.000376508
0.000369283
0.000363892
0.0003604
0.000358807
0.000359006
0.000360832
0.000364026
0.000368612
0.000374607
0.000381452
0.000388932
0.000396743
0.000404564
0.000412402
0.000419991
0.000427358
0.000434397
0.000440244
0.000444251
0.000446227
0.00044601
0.000443623
0.000438856
0.000431579
0.000421703
0.000409305
0.000394473
0.000377165
0.000357565
0.000336295
0.000313828
0.000290714
0.000267383
0.000244089
0.000220852
0.00019816
0.000176799
0.000156608
0.000137534
0.000119831
0.000103595
8.88659e-05
7.56501e-05
6.39521e-05
5.3811e-05
4.51573e-05
3.79289e-05
3.19532e-05
2.70318e-05
2.30296e-05
1.98368e-05
1.73422e-05
1.54314e-05
1.40011e-05
1.29746e-05
1.22881e-05
1.18907e-05
1.1739e-05
0.00920139
0.00820491
0.00731313
0.00649631
0.0057397
0.00503983
0.00439631
0.00381004
0.00327975
0.00280245
0.00239156
0.00205767
0.0017968
0.00159494
0.00142722
0.00128087
0.00115542
0.00105115
0.00096865
0.000905144
0.000853084
0.000806215
0.000759536
0.000708624
0.000648882
0.00879907
0.00802361
0.00721473
0.00642321
0.00567009
0.0049658
0.00431704
0.00372676
0.00319626
0.00272836
0.00232773
0.00199521
0.001726
0.00151101
0.00133889
0.00120035
0.00108928
0.00100114
0.000932227
0.000878726
0.000835922
0.000798769
0.000762526
0.00072256
0.000673818
0.00885604
0.00801494
0.00717393
0.00635858
0.00558493
0.00486432
0.00420426
0.00360867
0.00307995
0.00261983
0.00222819
0.00190192
0.00163541
0.00142144
0.00125219
0.00112031
0.00101916
0.000942701
0.00088556
0.000842912
0.000810054
0.000782186
0.000754556
0.00072263
0.000682153
0.00900496
0.0080511
0.00714034
0.00627939
0.00547595
0.0047368
0.00406704
0.00346943
0.00294502
0.00249321
0.00211108
0.00179357
0.00153444
0.00132701
0.00116454
0.00104041
0.000948026
0.000880933
0.000833158
0.000799341
0.000774514
0.000753796
0.000732363
0.000705645
0.000669249
0.0091717
0.00810785
0.00711591
0.00619817
0.00535781
0.00459714
0.00391743
0.00331855
0.00279894
0.00235545
0.00198314
0.00167565
0.00142614
0.00122783
0.00107412
0.000958499
0.00087443
0.000815439
0.000775396
0.000748675
0.000730066
0.00071458
0.000697427
0.000674297
0.000641587
0.00931623
0.00815262
0.00707869
0.00610173
0.0052233
0.00444148
0.00375303
0.00315421
0.00264046
0.0022062
0.00184479
0.00154882
0.00131075
0.00112336
0.000979766
0.000873313
0.000797437
0.000745738
0.000712146
0.00069102
0.000677115
0.000665483
0.000651477
0.000631013
0.000600604
0.00944994
0.00818029
0.00701882
0.00598122
0.00506608
0.00426548
0.00357062
0.00297383
0.00246761
0.00204413
0.00169527
0.00141262
0.00118783
0.00101293
0.000880589
0.000783873
0.000716171
0.000671236
0.00064319
0.000626536
0.000616137
0.000607211
0.000595312
0.000576601
0.000548008
0.00959361
0.00818126
0.00692128
0.00582422
0.00487733
0.00406305
0.00336582
0.0027739
0.0022776
0.0018671
0.0015329
0.00126573
0.00105643
0.000895755
0.000775836
0.000689464
0.00062999
0.000591423
0.000568223
0.000555154
0.000547232
0.000539947
0.000529023
0.000510811
0.0004827
0.00971307
0.00812498
0.00676357
0.00561636
0.00464862
0.00382918
0.00313576
0.00255177
0.00206775
0.00167301
0.00135567
0.00110655
0.000915838
0.000771338
0.000665087
0.000589766
0.000538528
0.000505926
0.000487037
0.000476961
0.000470619
0.000464118
0.00045273
0.000432172
0.000401304
0.369844
0.346082
5.54355
0.103384
0.000195078
0.000278912
0.0290148
2.45765e-05
5.30443
1.76797e-05
3.44151
8.90583e-05
0.00166062
0.000453384
0.0212934
0.000232816
4.68383
0.0679772
1.09896e-05
0.135757
0.00177636
0.000104125
3.61884
0.000909527
1.72066e-05
3.96807e-05
1.71805e-05
0.0046912
0.621623
3.60256
1.0502e-05
6.66559e-05
2.50777
0.00310889
3.41609
0.000124409
0.0108733
0.0217316
0.0113507
0.00012802
3.80117
2.91533e-05
7.41305e-05
0.0140602
0.00254855
0.000164386
5.55454
6.25899
1.1516
1.26089
5.09374
2.9452
0.00132272
0.053586
0.0264011
4.93147
0.000362633
0.00125415
6.30668e-05
2.75583
0.000236473
5.47813
0.0001905
0.000163278
2.5768e-05
0.0135439
4.82372e-05
0.00365768
0.00180861
1.16704
4.42134
0.000147715
7.94544e-05
0.117583
1.83026e-05
0.00156906
0.0750124
5.39941
1.51433e-05
0.0364986
0.00275452
0.000375408
3.20878e-05
3.52184
0.000196499
0.000257617
6.20959e-05
5.14111
2.56099
0.000512704
0.00113564
0.000127885
4.01055e-05
9.83076e-05
0.000106759
3.45457
4.18829e-05
3.97268
7.79856e-05
2.63393
0.00145715
3.72438
0.00176699
0.000148228
5.2369e-05
0.00233337
3.7924
0.00268821
0.000126279
3.60507
0.000114105
0.000103216
3.62493
0.000138671
0.00126633
1.10551
2.45951
0.000104981
0.00136556
7.2474e-05
1.53488e-05
9.10842e-05
0.000877287
1.79651e-05
2.68155
7.0996e-05
2.98765
0.0567685
2.99385e-05
6.22819
2.95159e-05
0.108701
1.2225
0.00806947
0.0063181
6.32044e-05
0.00234635
0.000807003
0.000201934
0.163479
9.53701e-05
0.0105835
2.97588
1.64286e-05
0.785431
0.000293307
0.158586
0.0144872
0.000234385
3.60074
0.00330467
0.00019562
0.158126
0.0326769
2.07609e-05
3.40994
4.16472e-05
0.000103554
0.0652952
3.98464e-05
7.74395e-05
4.73712
0.000103208
4.25055
6.68128e-05
4.42217
0.00047426
1.76996e-05
0.000316979
5.02358e-05
0.000376453
0.000172791
0.00388364
3.87604
4.66772e-05
0.00303799
0.00605722
0.888
1.6054
9.89906e-05
0.00732275
6.60659e-05
0.00131935
0.00904412
0.0104525
3.86838e-05
4.87365
0.000125488
1.54917
0.000218031
4.91257
2.80819
0.436131
0.0100727
0.0265248
1.82606
1.78337e-05
0.00010023
0.934171
0.45307
0.00273931
0.000331318
0.000339076
0.00024059
0.00249106
3.4727e-05
5.90131e-05
0.00178463
1.26201
8.16531e-05
4.84501e-05
0.000117475
0.00661174
0.00224907
0.00397775
4.59267
0.000122961
2.42635e-05
0.000254875
0.00103904
0.00140447
3.50847e-05
2.3447e-05
4.52411
0.0021259
2.69242
0.000428325
4.59838
0.0001174
9.44106e-05
3.13858
0.000127638
6.78042e-05
2.73915e-05
0.0113036
2.37237e-05
0.0508399
0.00265072
0.00949244
0.0360341
1.20462e-05
0.000235792
6.48764e-05
0.00854996
7.07306e-05
5.36976e-05
5.97113e-05
0.00413917
0.000221305
4.78112e-05
0.000104949
0.00335927
2.52522e-05
1.09684
6.21326e-05
2.08624e-05
3.55755
0.0678646
0.0610623
1.08202e-05
0.00366341
3.96891e-05
0.000134177
1.889e-05
0.100441
1.94139e-05
3.94588e-05
0.280441
0.0299136
1.77298e-05
0.00287901
0.534612
8.40211e-05
2.46202e-05
1.21013e-05
0.287576
8.10102e-05
6.45987
0.00039012
3.63111
0.0161611
0.00346359
0.00288055
0.000161869
1.60686
0.000247182
0.00258939
0.00706536
4.74937
5.26746
0.0402453
0.000114523
2.44772e-05
5.11219
0.00672363
4.43096
4.02606
8.1716e-05
4.19851e-05
1.91147
3.12227
7.83233e-05
0.000227096
0.000263343
3.61027
5.15189e-05
0.00188227
2.47255e-05
0.162861
0.00035508
0.000150019
6.49629e-05
1.98657
2.35857e-05
8.92741e-05
0.00994346
6.08885
2.85661e-05
1.75666e-05
0.0113051
0.0641156
5.65745e-05
0.000261597
1.05772e-05
6.91866e-05
1.9823e-05
2.37693
0.00291471
7.21611e-05
0.00135939
6.31881e-05
0.025443
0.00104797
1.99892e-05
4.48118
0.000285707
5.46106e-05
3.53994e-05
3.0137e-05
0.00353104
0.000128788
7.51373e-05
2.01457
5.62022e-05
0.091357
0.00012362
0.000387423
7.0026e-05
5.91952e-05
5.41211
0.0486026
4.17812e-05
9.02358e-05
0.0576012
5.13742
0.00163011
0.0167067
0.0124727
6.51435e-05
6.01325
1.27226
3.33096
3.67989e-05
2.58735
2.43782e-05
5.28836e-05
0.000256988
6.12191
0.000113936
1.42277
9.82638e-05
0.0323032
0.598364
3.55497
0.00167886
2.42024e-05
4.22398e-05
6.55841e-05
4.31935e-05
2.1006e-05
3.9173
0.000164785
2.66035
0.0157658
0.0136415
0.0114474
6.92198e-05
0.129787
3.14082
4.95466
0.0180732
3.62191e-05
0.00181193
2.57772
0.00733058
1.40531e-05
5.31272e-05
2.46574
0.000104054
0.647371
2.6199e-05
7.4463e-05
0.000192537
0.854979
6.46606e-05
4.74653e-08
0.0252107
0.00209815
0.00872432
1.23089e-05
1.51632
0.000125288
1.8644
0.000189495
4.78573e-05
0.000373405
1.27648
5.40335
7.57246e-05
0.000122834
7.25575e-05
4.40863e-05
0.000617253
0.00223206
0.000260348
4.4319
1.61739e-05
0.000319772
1.87079e-05
6.60928e-05
0.00021963
2.32545e-05
0.000546066
1.44333e-05
0.0392214
0.000238077
0.000111701
1.37708e-05
6.6623e-05
0.000313031
3.76359e-05
0.0358102
4.99206
0.0105501
0.00196424
2.398
0.00322991
1.79033
4.5959e-05
1.4994e-05
3.58468
7.1073e-05
0.000102523
1.77059
5.99851e-05
1.07096
5.59889
0.000254924
0.00121718
0.0467046
0.000115461
0.00954185
1.37951
0.00587657
3.80847
3.71728e-05
7.31404e-05
5.07167
3.62481e-05
3.18833
0.00353154
4.24525e-05
3.32356
0.000321228
1.83778e-05
0.00233883
0.000398207
3.45471e-05
0.0142675
0.00907882
0.00423779
0.01173
3.82847e-06
7.89344e-05
3.39497
0.000144843
0.000351276
0.000196577
1.21725
0.000107786
0.0248443
0.000141869
3.45002e-05
2.48568
0.000104582
0.000133349
0.02339
0.000223745
4.67858e-05
1.36171
7.72201e-05
0.0391557
0.000152252
0.00669496
0.00530486
0.00385197
0.00023211
0.000207708
0.0267342
5.90628e-05
8.84281e-05
0.00347718
4.58212e-05
0.000329356
4.08235e-05
6.06159
3.49581
1.35676
2.53607e-05
0.00969185
3.15575e-05
5.21692
0.14107
0.700024
0.00298849
0.000201208
4.17427
3.67737
3.46925e-05
0.000210984
0.0032862
0.000113782
0.480104
3.02969
8.6665e-05
0.0116231
7.50381e-05
1.71911
1.03885
0.000154286
0.0106785
3.9928
9.81337e-05
4.08264
0.000121098
3.65024
7.66555e-05
0.00108379
0.000216067
6.496
0.0115818
0.0123114
2.8233e-05
1.14376
1.329
6.17531
2.09005e-05
5.42891e-05
0.0014654
1.47167
2.1424e-05
0.00830428
7.65844e-05
0.00188962
3.73739
1.42301e-05
0.00855654
4.64446e-05
6.55937e-05
0.0045862
2.1716
0.000235095
0.0154928
9.47368e-05
0.000192644
3.57909
5.91752
1.53052
0.00130918
0.00499634
0.159565
0.00126509
0.000321949
3.48244e-05
2.42794e-05
2.45855
9.37084e-05
0.000281928
0.014507
0.000279176
0.000486602
0.00029851
0.000150127
0.0307595
6.68795e-05
6.3576e-05
0.00250346
1.4025
0.000154495
6.32935e-05
2.06131
0.00454133
2.99158e-05
0.000312753
0.0501226
6.95185e-05
0.000264023
1.92437e-05
0.00512415
6.98442e-05
7.85377e-05
0.0116049
4.83865e-05
0.00029859
0.00189766
0.00148372
4.25429e-05
0.000366653
3.38838
0.000183601
2.88671e-05
5.59825e-05
4.40109e-05
0.000454607
4.17235e-05
2.48359
6.84834
0.00408601
2.32679
2.27027e-05
1.89864e-05
3.53895e-05
4.65357e-05
0.000288904
7.21851e-05
0.00206412
0.000510492
2.74123e-05
0.000158131
0.0254909
0.00761014
0.000832361
0.0132777
9.44701e-05
0.000244201
2.92472e-05
0.00151206
0.0118287
2.3866
0.0302044
0.0561695
6.34312e-05
1.76546e-05
7.14735e-05
0.000217563
1.68421e-05
5.95782
1.03226e-05
0.00374635
5.49626e-05
1.68603
0.0210562
3.37465
9.88588e-06
3.63396e-05
2.25189e-05
3.76784
2.03559
0.00998577
0.00127517
3.65593e-05
1.51508e-05
0.000175339
2.89239
1.49322e-05
4.5377e-05
0.00935026
0.000107536
0.000105827
2.25687e-05
7.9712e-05
0.00144679
0.000335349
3.3573e-05
3.87983e-05
0.00114707
6.53936e-05
0.81668
4.18084
6.32484e-05
0.0242543
8.58849e-05
3.28453
2.54e-05
5.51739e-05
5.06198e-05
3.48754e-05
0.0161511
0.000213208
8.94442e-05
6.59848e-05
0.00313291
6.1103e-05
0.000202469
0.000130941
3.88078
0.0208701
0.0028003
5.78954
0.0266716
1.27457
3.40057
1.17535e-05
4.04976e-05
3.26712e-05
1.921e-07
0.00013817
0.0158443
0.000285894
9.61261e-05
0.00154989
2.05065e-05
1.48102e-05
0.00646146
6.47204e-05
2.54596e-05
3.16767e-05
0.00274288
0.00361853
3.95685
1.69779e-05
1.76426
0.0300663
0.83947
0.00405902
3.87636
4.75271
0.46183
2.3928e-05
0.000226483
6.84084e-06
0.0024622
9.21367e-05
0.00612189
0.614559
4.34056e-05
0.0781694
0.0103449
3.75118e-05
2.929e-05
0.000140436
6.62297
2.77751
4.94048e-05
0.0348064
0.0330534
0.00153309
2.01904
3.68432e-09
4.50525e-05
0.00695588
1.06554e-05
0.510989
0.00881505
3.42244
0.0312522
2.3776e-05
0.0315567
9.43933e-05
2.08138e-06
0.00927684
0.00042371
0.00101862
4.02252e-05
7.05286e-05
0.00996607
0.000235629
2.83333e-05
7.90723e-05
0.000144722
0.00584461
0.000126795
2.9804
0.0248558
9.62095e-05
0.0359446
0.000175787
0.154543
0.000283908
3.01367e-05
9.81782e-05
0.00516248
0.00351582
1.30942e-05
0.000118732
5.44855
2.44747
0.029475
0.000219134
0.0118529
0.00506261
0.0399213
2.80732
0.00888522
0.000774992
6.51538e-05
3.70155
7.89139e-05
2.52433e-05
0.00168717
1.84607
5.24647
6.8904e-05
0.000143572
1.29775
3.06071e-05
3.56619
1.85167
0.000108798
6.93823e-05
6.99218
0.626009
0.712923
6.00331e-05
3.65152e-05
4.52133e-05
0.00968174
0.011354
7.04463e-05
2.54973e-05
0.000164313
0.0266126
0.000180908
0.00677757
0.700102
1.61124e-05
7.14164e-05
1.59151
1.9958e-05
0.00272924
0.000121032
0.00470613
5.01095e-05
3.30904e-05
0.00520796
0.000137527
4.55729e-05
4.65669e-05
0.00375904
0.00298922
4.78328
2.90533e-05
3.73773e-05
9.16386e-05
0.0169095
0.160018
4.242
7.93795e-05
0.00256806
0.0237791
2.87287e-07
2.16754e-05
0.000298598
3.20584
6.91477e-05
0.124845
0.000248879
8.03544e-06
0.0135397
0.00021157
0.823986
0.726328
0.0124294
3.08493
3.65869
6.46584
2.12447e-05
2.17884
0.0133795
8.2605e-05
0.0253352
0.000100278
0.000308673
0.0638995
0.000201717
0.000887534
0.00519752
2.94019
2.72917e-05
1.77839e-05
1.99421
0.000575211
0.000275197
0.0240008
0.721378
0.0137972
3.71093e-05
0.00230132
5.85768
3.39804
0.00664899
0.00214569
1.20207
0.00056965
3.92018e-05
0.0109671
1.53715
4.69314e-05
0.00494212
0.000269614
1.73796
0.000267724
0.0119088
0.642764
1.2434e-05
0.000220389
4.0514e-05
1.77444
0.0143342
1.8792
0.963421
0.000262407
0.00537918
0.00847552
0.0011822
0.564438
0.00120458
3.66631e-05
0.000237762
0.000184104
5.63445e-05
0.0120436
3.35991
0.000123876
1.82972
0.000114258
0.0470986
2.21791e-05
0.000104122
2.24402e-05
3.20322
1.69438
0.00423731
0.00349518
5.26701e-05
6.90312e-05
0.0376518
1.68779e-05
0.0142385
0.00846937
3.15343
0.000110475
0.00314152
0.0404634
0.000250883
0.000288292
0.000328232
3.14535
9.76558e-05
0.00118334
0.0436338
0.0259865
7.48972e-05
0.00119198
2.12384e-05
0.000128083
0.000105534
7.44917e-05
0.00178242
4.48292e-05
0.00300634
1.69516
0.14514
3.11948
9.63062e-05
0.00237796
0.00850719
1.84674e-05
0.749083
0.000216755
0.000513658
3.62221
0.000255828
0.00580878
0.000547006
1.89981e-05
1.20421
2.56017e-05
0.00319939
5.63655e-05
0.0309387
0.036144
2.43723
2.36423e-05
0.038022
5.72853e-05
0.00449281
0.000225697
2.1141
0.00901987
0.00242206
3.94835
0.000143949
5.49831
0.000144672
1.00343
0.000401975
2.66337e-05
9.12898e-05
0.0130927
0.0242364
0.000104129
3.94809e-05
0.0791287
3.41631e-05
3.98558e-05
2.77079e-05
5.73991e-05
0.000158278
6.07288
0.000289112
0.000126072
0.0333361
0.00399315
6.44672
5.17505e-05
5.97659e-05
7.09637e-05
0.000942197
0.000331594
0.000293078
3.62377
0.00118302
0.0131375
3.86938e-05
0.00133484
0.016105
1.89894
5.65896e-05
3.43374e-05
0.00020992
0.000318605
5.61245e-05
0.0052903
4.81893
0.0543124
0.00568247
4.7416e-05
0.0389979
3.06253
0.0028552
0.0452763
0.000258667
0.773688
3.28816
5.96718
0.000170974
0.000178622
0.00181875
1.83617
0.000278502
3.19998
0.000452181
0.00625163
1.43108
1.4041e-05
0.000165502
0.000503096
2.30982e-05
1.04924e-05
0.000273242
0.644665
1.4005e-05
2.00553
4.91694e-05
6.8501e-05
4.20863e-05
2.02003e-05
0.00156467
0.000114276
0.149249
0.00646288
0.000157486
0.000245044
0.946159
3.28002
3.46014e-05
7.8634e-05
0.000133981
0.00633699
0.0297139
0.00230061
3.32201
3.67426e-05
2.50452e-05
0.00149113
0.000142194
0.00219375
0.0349984
5.25826e-05
5.45705e-05
1.48044e-05
0.000777706
0.00814309
2.06731
0.0379507
2.66193e-05
0.00217866
1.38409e-05
3.13186
3.50015
6.86701e-05
2.37754e-05
0.0752582
5.88214e-05
0.000108983
0.61972
0.653126
0.000413641
2.94761e-05
4.11829e-05
0.0082422
0.666409
4.70754e-05
2.94376e-05
0.610864
1.80986
9.5938e-07
6.32857e-05
2.93498e-05
0.000118141
0.00560638
0.00141985
0.000112113
0.0417104
0.000193945
7.63919e-05
0.000116544
0.00165153
7.27817e-05
4.57097
1.31579
3.25068
0.553092
0.010468
0.199751
6.18301e-05
2.79985
0.0019898
2.7692e-05
0.00166447
0.000137492
0.00166119
6.94939e-05
0.000116548
5.57554e-05
2.24815
2.13571e-05
0.00371254
0.0365999
0.000537055
0.00248473
0.00473288
5.9421
5.01813e-05
4.93866
3.91582
0.00047189
7.14467e-05
0.00187522
0.00286421
0.0013447
0.0294134
2.65554
8.4229e-05
3.24985e-05
5.42343e-05
0.0131568
3.30181
0.000280659
0.000350764
2.73613e-05
3.53464e-05
0.000321425
0.00570671
2.33818e-05
0.00068717
0.00118494
1.20756
5.19356e-05
0.00204126
6.33458
0.000201202
0.00301574
0.00148761
0.697603
0.00316213
0.00378368
0.00134276
9.08823e-05
1.24551
1.65777
0.000145719
0.00968506
0.0228125
5.71031e-05
0.000389562
9.03737e-05
0.0146931
5.54534e-05
0.00200541
3.8605e-05
0.0354986
1.11962
0.0623211
1.07573
0.000643807
0.000295295
0.0740305
0.0310764
0.000530294
0.000175927
0.000157426
3.24779
8.99998e-05
0.00230644
5.1787e-05
0.000200592
0.0110563
9.23558e-05
7.74175e-05
3.3628e-05
1.99701
0.0741273
1.68156e-05
0.000176951
1.13888e-05
6.56656e-05
0.000193693
0.942656
0.000146327
0.00977992
1.85633
0.0260278
2.38296e-06
0.0467703
0.576708
0.154773
0.828463
0.000936992
0.00553009
2.63934
2.3223
3.2564e-05
1.53506
5.29941e-05
5.43634
0.00891371
1.77094e-05
0.00198928
0.0199098
5.11241
0.00479369
0.00304181
7.6519e-05
0.0311221
1.48559
0.00294433
2.73374
0.000231535
0.150672
3.02815e-05
1.72543
0.00244917
5.41645e-05
0.000184247
0.0919079
5.20323e-05
0.000499284
0.169664
5.49379e-05
1.06715
6.14006e-05
8.58048e-05
0.0192096
0.0317722
0.000385147
0.0014608
0.0262568
0.000263712