/*--------------------------------*- C++ -*----------------------------------*\
  =========                 |
  \\      /  F ield         | OpenFOAM: The Open Source CFD Toolbox
   \\    /   O peration     | Website:  https://openfoam.org
    \\  /    A nd           | Version:  10
     \\/     M anipulation  |
\*---------------------------------------------------------------------------*/
FoamFile
{
    format      ascii;
    class       volScalarField;
    location    "900";
    object      k;
}
// * * * * * * * * * * * * * * * * * * * * * * * * * * * * * * * * * * * * * //

dimensions      [0 2 -2 0 0 0 0];

internalField   nonuniform List<scalar> 
10435
(
1.02994
1.18974
1.24214
1.35878
1.84339
1.83712
1.13973
0.961625
0.869857
1.66934
1.4087
1.4671
1.4823
0.787279
0.807176
1.11872
0.770614
1.634
0.835328
1.0794
1.02659
1.28222
1.21227
1.1249
1.58036
0.444545
0.584558
1.333
0.528526
1.6692
1.47499
1.52053
0.930238
0.530339
1.05653
0.929573
1.1458
0.613443
0.343339
0.929289
1.73538
1.17687
0.628653
1.24067
1.25041
1.03756
1.78633
0.605133
0.821574
1.21662
0.996347
1.73127
0.334059
0.459647
0.367645
0.489548
1.15336
0.629473
0.704151
1.05529
0.361787
1.09276
0.616101
1.76652
1.23595
1.33921
0.651542
0.678199
0.992481
1.19248
0.454209
0.537769
0.482776
1.31637
0.833216
0.626185
1.24351
1.08929
0.894905
0.810053
1.27987
0.938461
0.325275
0.466043
1.29296
0.920991
1.00983
1.28689
0.859775
1.07349
1.3648
1.44439
0.980389
0.899971
1.14131
0.863262
1.49284
0.816294
0.73336
1.61248
0.836769
1.92674
0.951225
1.21245
1.9302
1.30273
1.02442
1.25371
1.29245
0.83557
1.17043
1.89098
0.899701
0.865408
1.58286
1.23468
1.62127
0.984316
1.30787
1.52383
1.60469
0.540561
1.05474
0.677466
1.62654
0.40468
1.51593
0.577355
1.73817
0.604318
0.627748
1.50478
1.05085
0.788012
0.575739
0.305572
0.785153
1.40034
1.21776
1.1824
1.13024
1.36283
0.608951
1.59854
1.32033
0.742258
0.727211
1.82225
0.754872
1.49966
0.555112
1.26388
1.06298
1.50204
1.74963
0.49995
1.73613
1.13295
1.72146
1.24647
1.40325
0.768881
1.5028
1.36961
0.863678
1.70226
0.932804
1.43765
1.3239
1.69764
1.62473
0.422085
0.53043
0.770749
1.40183
1.12855
1.0056
0.714691
1.12089
0.568657
1.29543
1.88024
1.49743
0.385324
1.37824
0.551657
0.56304
1.06217
1.87384
1.66378
1.54785
0.319934
0.580043
0.85235
1.82736
1.02428
0.702157
0.865969
0.665973
1.13722
0.868699
0.601684
1.40602
0.626929
1.34598
1.66512
1.404
1.42534
0.621893
1.34558
0.496447
1.21125
1.60873
1.38224
0.573363
0.770345
0.89822
0.381533
0.449156
0.751714
0.539154
0.742128
0.646935
0.739943
0.480327
1.05529
0.392683
0.823663
1.58689
0.647936
0.713688
0.987006
0.41923
1.28516
0.628498
0.753694
1.18629
0.480877
1.23117
1.53349
1.18009
0.43811
0.400181
0.484498
1.59162
0.885565
0.80623
0.991239
0.423116
1.02308
0.428826
0.909283
1.53845
1.36043
1.02698
1.79127
0.383658
1.05582
0.460489
0.596389
1.08839
1.63465
0.438387
1.29821
0.937766
0.725642
1.12072
1.35356
0.357122
1.71105
1.12667
0.948278
0.995064
1.50286
0.482018
1.5228
0.604844
1.7941
1.07604
0.924771
1.55561
0.700726
1.16929
0.798944
0.955146
0.345087
1.87357
0.366846
0.471293
0.547732
0.758305
1.37481
0.614723
0.969208
0.34887
0.44753
0.719209
0.982185
1.7198
1.47112
0.682204
1.27085
1.21299
0.461107
1.62613
0.7913
0.743687
1.30562
1.41419
0.472878
1.07176
0.565356
0.931058
1.86237
0.927242
0.451664
0.39844
1.53474
0.69407
1.44859
1.91849
0.5784
1.0071
0.314922
0.899428
1.43781
0.518432
1.26139
0.690128
0.622682
0.966178
0.572384
0.470915
1.19068
1.40211
0.643621
0.45647
0.437843
0.493316
0.511522
0.545106
0.5206
0.354926
0.529763
0.508956
0.54683
0.65656
0.636236
0.3103
0.870545
0.475582
1.4504
0.567789
1.31653
0.875018
0.797206
1.45776
1.31825
0.473974
0.504458
0.446677
0.413515
0.497276
0.349652
0.558435
0.565467
0.651331
1.39639
0.552775
0.850264
0.389769
0.588367
1.48979
0.763062
0.349814
0.585466
0.609699
0.610173
0.501188
0.477658
0.689368
0.377707
0.913382
0.6602
0.965712
0.850866
1.3744
1.42724
0.827529
1.27368
0.987073
0.682749
0.480494
0.511213
0.460076
1.22936
0.489158
1.50722
0.669111
0.579836
0.601821
0.598817
0.419994
1.12082
0.61064
0.939384
1.32197
0.423706
0.507331
0.636016
0.779
0.643425
0.53086
0.459157
0.493966
0.638659
0.541579
1.2737
0.454895
0.511767
0.538323
0.541467
1.56051
0.357092
0.317172
0.724945
0.497201
0.0917923
0.0892543
0.0857219
0.0816792
0.0774763
0.0730515
0.0684028
0.0635162
0.0583758
0.0922986
0.089443
0.0856739
0.0815299
0.0772498
0.0728483
0.0683235
0.0637169
0.0591187
0.0925161
0.0893498
0.0853769
0.0811362
0.0768146
0.0724409
0.0680325
0.0636506
0.0594161
0.0925937
0.0891329
0.0849687
0.0806419
0.0762895
0.0719421
0.0676276
0.0634086
0.0593906
0.0926458
0.0889275
0.0845797
0.0801669
0.0757798
0.0714471
0.0671977
0.0630853
0.0591817
0.0927928
0.0888629
0.0843336
0.0798234
0.0753855
0.071047
0.0668337
0.0627902
0.0589728
0.0932048
0.0890734
0.0843472
0.0797158
0.0752031
0.0708345
0.0666322
0.062638
0.0589088
0.0941646
0.089697
0.0847303
0.0799441
0.0753289
0.0709037
0.0666874
0.0627236
0.0590747
0.0958954
0.0908411
0.0855851
0.0806104
0.0758657
0.0713555
0.067096
0.0631293
0.0595189
0.0983183
0.0925521
0.0870102
0.0818292
0.0769327
0.0723087
0.0679723
0.063961
0.0603267
0.10109
0.0948314
0.0891097
0.0837389
0.0786784
0.0739137
0.0694659
0.0653711
0.0616734
0.103826
0.0977237
0.0920284
0.086521
0.0812966
0.0763685
0.0717769
0.0675646
0.0637832
0.106291
0.101481
0.0960238
0.0904367
0.0850461
0.0799296
0.0751576
0.0707868
0.0668858
0.110748
0.10686
0.101555
0.0958537
0.0902591
0.0849099
0.0799058
0.0753202
0.0712381
0.11857
0.114634
0.109139
0.103182
0.0972977
0.0916452
0.0863372
0.0814554
0.0770764
0.130282
0.125227
0.119132
0.112742
0.10646
0.100422
0.094736
0.0894899
0.0847616
0.145153
0.138473
0.131572
0.124643
0.117889
0.111403
0.105278
0.0996099
0.0945001
0.161359
0.153731
0.146202
0.138783
0.131564
0.124618
0.118027
0.111886
0.106304
0.178366
0.170554
0.162736
0.154987
0.147392
0.14004
0.133011
0.126393
0.120289
0.196412
0.188914
0.181074
0.173163
0.165323
0.157672
0.150291
0.143266
0.136708
0.216063
0.209063
0.201309
0.193345
0.185394
0.177585
0.169986
0.162661
0.155705
0.237978
0.231337
0.223605
0.215629
0.207699
0.199909
0.192287
0.184851
0.177672
0.262965
0.256037
0.248081
0.240092
0.23233
0.224782
0.217399
0.210138
0.203058
0.291902
0.283261
0.274674
0.266698
0.259309
0.252287
0.245475
0.238734
0.232106
0.325494
0.312571
0.303107
0.29534
0.288636
0.282491
0.276635
0.270851
0.264406
0.151508
0.151457
0.152174
0.153666
0.155941
0.158986
0.162784
0.167293
0.172474
0.178262
0.184593
0.191392
0.198567
0.20603
0.213665
0.221358
0.228984
0.236412
0.243506
0.250134
0.256151
0.261395
0.265639
0.268563
0.270096
0.270445
0.269645
0.267556
0.264121
0.259634
0.254194
0.247824
0.240585
0.232619
0.224066
0.215068
0.20577
0.196316
0.18685
0.177505
0.1684
0.159634
0.151275
0.143354
0.135898
0.128949
0.122555
0.116763
0.11161
0.107123
0.103307
0.100137
0.0975749
0.095563
0.0940471
0.0929711
0.0922888
0.0919588
0.0919478
0.153661
0.153929
0.154927
0.156669
0.15916
0.162387
0.166326
0.170937
0.176159
0.181915
0.188105
0.194659
0.201504
0.208555
0.215719
0.222895
0.229973
0.236839
0.243376
0.249463
0.254979
0.259794
0.263764
0.266712
0.26847
0.268934
0.268073
0.265925
0.262607
0.258253
0.252942
0.24673
0.239689
0.231915
0.223521
0.214634
0.205388
0.195918
0.186358
0.176835
0.167466
0.158353
0.149586
0.141237
0.133379
0.126092
0.11945
0.113524
0.108347
0.103905
0.100161
0.0970705
0.09458
0.0926323
0.0911628
0.09011
0.0894221
0.0890588
0.0889816
0.153428
0.153861
0.154948
0.156699
0.159114
0.162183
0.165886
0.170191
0.175059
0.180435
0.186258
0.192454
0.198946
0.205649
0.212471
0.219314
0.226074
0.232643
0.238907
0.244748
0.250042
0.254655
0.258441
0.261252
0.262956
0.263466
0.262744
0.260801
0.257701
0.25354
0.248404
0.242371
0.235519
0.227941
0.219743
0.211039
0.201949
0.192596
0.183104
0.173591
0.164172
0.154957
0.146049
0.137553
0.129571
0.122201
0.115529
0.109613
0.104478
0.100107
0.0964597
0.0934699
0.0910707
0.0891917
0.087766
0.0867342
0.0860467
0.0856658
0.0855556
0.149112
0.149553
0.15062
0.152319
0.154643
0.157579
0.161104
0.165186
0.169785
0.174853
0.180334
0.186167
0.192281
0.198603
0.205048
0.211528
0.217945
0.224197
0.230172
0.235754
0.24082
0.24524
0.24888
0.251609
0.25331
0.253896
0.253323
0.251591
0.248742
0.244846
0.23998
0.234225
0.227667
0.220396
0.212512
0.204119
0.195326
0.186247
0.176995
0.167684
0.15843
0.149346
0.14055
0.132159
0.124288
0.117042
0.110506
0.104735
0.0997472
0.0955253
0.0920247
0.0891718
0.086885
0.08509
0.0837214
0.0827243
0.0820545
0.0816765
0.081557
0.1422
0.142633
0.14366
0.145286
0.147506
0.150303
0.153654
0.157527
0.161883
0.166676
0.171856
0.177364
0.183138
0.189107
0.195197
0.201324
0.207396
0.213318
0.218983
0.22428
0.229091
0.233294
0.236767
0.239392
0.241067
0.241713
0.241286
0.239775
0.237202
0.233615
0.229081
0.223674
0.217477
0.210579
0.203074
0.195061
0.186644
0.177927
0.169021
0.16004
0.151098
0.142315
0.133813
0.125714
0.118134
0.111176
0.104918
0.0994076
0.0946578
0.0906461
0.087322
0.0846165
0.0824533
0.0807587
0.0794673
0.0785241
0.0778855
0.0775188
0.0773934
0.1328
0.133154
0.134081
0.135584
0.137657
0.140284
0.143441
0.147096
0.15121
0.15574
0.160634
0.165839
0.171295
0.176935
0.182689
0.188478
0.194216
0.199813
0.20517
0.210181
0.214738
0.218728
0.222038
0.224562
0.226208
0.226906
0.226609
0.225304
0.223001
0.219736
0.215561
0.210545
0.204766
0.19831
0.191267
0.18373
0.175796
0.167565
0.159147
0.150651
0.142191
0.133885
0.125851
0.118209
0.11107
0.104528
0.0986547
0.0934916
0.0890459
0.0852933
0.0821846
0.0796549
0.0776337
0.076053
0.0748531
0.0739795
0.0733892
0.0730526
0.0729423
0.121289
0.121536
0.12233
0.123676
0.125568
0.127993
0.130928
0.134343
0.1382
0.142456
0.147063
0.151968
0.157114
0.162438
0.167871
0.17334
0.178765
0.184058
0.189124
0.193868
0.198185
0.201971
0.205126
0.207556
0.209172
0.209912
0.209736
0.208626
0.206585
0.203638
0.199834
0.195232
0.189911
0.183956
0.177449
0.17048
0.16314
0.155522
0.147736
0.139884
0.132071
0.124405
0.116995
0.109952
0.103375
0.097348
0.0919356
0.0871729
0.0830662
0.079594
0.0767129
0.0743656
0.0724896
0.071024
0.0699136
0.0691109
0.0685793
0.0682884
0.0682122
0.107376
0.107442
0.108032
0.109157
0.110816
0.112998
0.115682
0.118839
0.122434
0.126421
0.130757
0.135384
0.140246
0.145281
0.150426
0.155618
0.160782
0.165827
0.170665
0.175191
0.17931
0.182924
0.185951
0.188314
0.189918
0.190717
0.19067
0.189764
0.187985
0.185353
0.18192
0.177743
0.172917
0.167526
0.161628
0.155323
0.148693
0.14182
0.134821
0.127772
0.120766
0.113892
0.107244
0.100918
0.0950054
0.0895717
0.0846808
0.0803589
0.0766138
0.0734307
0.070778
0.0686118
0.0668809
0.0655352
0.0645275
0.0638156
0.0633647
0.0631478
0.0631387
0.0904492
0.0902148
0.0905016
0.0913357
0.0927251
0.0946565
0.0970987
0.1
0.103362
0.107181
0.111341
0.115781
0.120428
0.12521
0.13011
0.135061
0.140051
0.14503
0.1498
0.154206
0.158177
0.161646
0.164582
0.166907
0.168552
0.169461
0.169602
0.168951
0.167456
0.165115
0.162034
0.158293
0.153997
0.149238
0.144066
0.138478
0.1326
0.126671
0.120663
0.114572
0.108521
0.102584
0.0968221
0.0913026
0.0860944
0.0812933
0.0769477
0.073115
0.0697782
0.0668841
0.0644195
0.0623834
0.0607592
0.0595114
0.058595
0.0579809
0.0576384
0.0575385
0.0576527
0.467239
0.432463
0.401836
0.373384
0.346283
0.320341
0.295596
0.272206
0.250295
0.229941
0.211954
0.197128
0.185613
0.176976
0.170018
0.164087
0.159254
0.155648
0.153462
0.152633
0.152647
0.153031
0.153351
0.153161
0.151899
0.444737
0.422074
0.396137
0.36938
0.342767
0.3168
0.29186
0.26823
0.246167
0.226021
0.20826
0.193214
0.180935
0.171216
0.163661
0.157929
0.153811
0.151156
0.149837
0.149678
0.150396
0.151629
0.152992
0.154047
0.154232
0.441224
0.417437
0.391465
0.364595
0.337663
0.311284
0.285937
0.261998
0.239818
0.219749
0.202086
0.186991
0.17448
0.164452
0.156727
0.151107
0.147381
0.145318
0.144675
0.145195
0.146592
0.148522
0.150593
0.152377
0.153393
0.441503
0.414562
0.386849
0.358873
0.331162
0.304209
0.278456
0.254288
0.232052
0.212046
0.194475
0.17943
0.166914
0.156865
0.149179
0.143712
0.140262
0.138578
0.138365
0.139324
0.141135
0.143439
0.145829
0.147864
0.149035
0.44243
0.412371
0.382403
0.352824
0.324
0.296299
0.270078
0.245665
0.223354
0.203378
0.185884
0.170928
0.1585
0.148549
0.140986
0.135679
0.132429
0.130978
0.131006
0.132186
0.134166
0.136565
0.138969
0.140961
0.142126
0.442712
0.40983
0.377525
0.346184
0.316123
0.287607
0.260888
0.236216
0.213814
0.193854
0.176442
0.161608
0.149328
0.139538
0.132143
0.126996
0.123888
0.122556
0.122667
0.123877
0.125816
0.128092
0.1303
0.132042
0.132931
0.442556
0.406768
0.371991
0.338807
0.307475
0.278134
0.25091
0.225967
0.203464
0.183517
0.1662
0.151522
0.139437
0.129854
0.122651
0.117656
0.114643
0.11334
0.113411
0.1145
0.116223
0.118187
0.119995
0.121275
0.121706
0.442328
0.402968
0.365493
0.330456
0.297913
0.267803
0.240102
0.214891
0.192286
0.172359
0.155153
0.140666
0.128833
0.1195
0.112511
0.107664
0.104707
0.103357
0.103288
0.104132
0.105488
0.106962
0.108146
0.108685
0.108308
0.441374
0.397848
0.357609
0.320876
0.287309
0.256562
0.228467
0.20298
0.18026
0.160364
0.143271
0.129014
0.117526
0.108496
0.101748
0.0970506
0.0941064
0.0926414
0.0923508
0.0928613
0.0937221
0.0945629
0.0948802
0.0941654
0.0922713
1.53438
1.51421
4.87049
0.450623
0.0495869
0.0588673
1.08889
0.0247713
4.80217
0.05408
2.88479
0.0447651
0.47741
0.0560893
1.25991
0.0791905
3.99275
0.394547
0.0523249
0.692684
0.339075
0.0779575
3.1324
0.142703
0.0211465
0.0312369
0.0212387
0.242811
1.53824
3.26947
0.0540244
0.0407738
3.06204
0.596262
3.10275
0.0428523
1.06411
1.26765
1.13224
0.0706796
3.50649
0.00670016
0.0557727
0.566591
0.209294
0.119352
3.80363
4.07921
1.90585
2.19499
3.60459
2.93461
0.390427
0.365299
1.0398
4.61645
0.0500639
0.357034
0.0244454
2.47474
0.0588678
4.83422
0.0483799
0.084783
0.0254557
0.520171
0.0574809
0.27515
0.494636
2.08609
4.36504
0.0991893
0.0325976
0.756828
0.0221181
0.334171
0.892571
3.90616
0.0169085
0.331054
0.560044
0.0809527
0.0294292
2.85088
0.0513905
0.0614902
0.0311669
3.82111
3.09501
0.102834
0.147688
0.0695513
0.0649125
0.0471504
0.0362481
2.90412
0.031497
3.10478
0.0168688
2.41646
0.125776
3.50692
0.140209
0.105083
0.0238101
0.189072
3.23798
0.547446
0.0266072
3.29492
0.0767115
0.0391807
3.26448
0.102413
0.379258
1.88012
2.97406
0.0672969
0.425719
0.0261355
0.00311611
0.0373902
0.140684
0.0210691
3.1445
0.0530512
2.98926
0.589162
0.0185955
4.07671
0.0279439
0.763149
2.12177
0.971841
0.308562
0.0310419
0.201642
0.0897051
0.056276
0.686077
0.0880835
1.06634
2.5993
0.00377744
1.6515
0.0953604
0.536781
0.564114
0.0778879
3.21611
0.350823
0.043411
0.532185
1.47955
0.0232689
2.79416
0.0246199
0.0664622
1.09426
0.0459107
0.0574981
4.53746
0.0610526
3.24067
0.0656128
3.25562
0.0616762
0.0213855
0.111668
0.0255044
0.0489166
0.0912067
0.285655
3.01414
0.0592351
0.210605
0.639353
1.81925
2.09036
0.0886986
0.83848
0.0391294
0.399814
0.867514
0.452994
0.0190246
3.4403
0.0270234
2.44021
0.0681668
3.50884
2.51982
1.14336
1.03284
1.3506
2.65549
0.0219055
0.0753664
1.76346
1.48106
0.581033
0.135549
0.0750098
0.0708726
0.203047
0.0549851
0.0593268
0.137944
2.04717
0.0632031
0.0234443
0.0486291
0.818987
0.186054
0.449968
3.79961
0.0356735
0.0219739
0.137202
0.136756
0.105077
0.0079543
0.0237883
4.27679
0.128242
3.06179
0.0993468
3.99657
0.0237826
0.0348815
2.65862
0.0438579
0.0377766
0.0225644
1.11776
0.0557154
1.16597
0.160213
0.903068
1.54919
0.0528634
0.0584159
0.0617051
0.381568
0.0316273
0.0311845
0.0413845
0.270192
0.0773804
0.0481848
0.0206503
0.227161
0.0533015
1.90427
0.0281873
0.0216373
3.21008
0.915342
1.11759
0.0525753
0.281386
0.0201621
0.051964
0.0225879
0.790555
0.0209666
0.0541525
0.70213
1.0794
0.0213999
0.400715
1.25066
0.0199532
0.0208613
0.0531535
0.716452
0.0628483
5.30448
0.0557998
3.01501
0.58734
0.377118
0.244187
0.117858
2.06847
0.0640723
0.199708
0.206172
3.56304
3.66502
1.46506
0.0657674
0.00475076
3.7042
0.803436
3.75855
3.56953
0.0641328
0.0476339
2.17921
2.76177
0.0587401
0.0757715
0.0753862
3.40417
0.0578505
0.331937
0.0542816
0.682946
0.0790347
0.101605
0.0829668
2.76926
0.017714
0.0190279
1.03528
4.04968
0.0540275
0.0211883
1.08054
1.0802
0.0446767
0.0788679
0.0531717
0.0324643
0.0209283
2.92154
0.563132
0.0633
0.364518
0.0647848
1.33185
0.0863664
0.0548985
3.58173
0.0658374
0.0361908
0.0315328
0.00881445
0.27472
0.05039
0.0418702
2.12797
0.0798819
0.795738
0.0351203
0.0635861
0.0281147
0.0297689
3.67102
0.689476
0.065101
0.0116712
1.11232
3.73088
0.116114
1.18487
0.555697
0.0599132
3.89135
2.08191
2.97926
0.0398097
3.00791
0.00635679
0.0289922
0.0996277
4.10726
0.0487598
2.33339
0.0969754
1.461
1.55855
3.76006
0.477654
0.0210022
0.0244102
0.0722964
0.0426899
0.0546337
3.53258
0.0833947
3.12717
0.618078
0.58198
0.983685
0.0679206
0.693051
2.77488
3.52175
0.66207
0.0545497
0.176615
3.19078
0.810757
0.0530972
0.0567811
3.02951
0.0656459
1.56709
0.0252211
0.0566539
0.0505615
1.8637
0.0391059
0.000245942
1.15865
0.189462
0.717206
0.0523028
2.31305
0.0497515
2.12212
0.0541671
0.0391104
0.0642753
1.95441
3.67359
0.0537957
0.0686321
0.0688
0.0447796
0.110127
0.157402
0.104499
3.38775
0.0052314
0.0905991
0.0542742
0.041674
0.0665597
0.0218641
0.105451
0.0171754
1.37347
0.0939989
0.0768888
0.00251934
0.0284381
0.0715365
0.0457676
1.55058
3.70207
0.629765
0.508942
2.78625
0.184665
2.49857
0.0230308
0.0165661
3.82469
0.053183
0.0594231
2.11427
0.081513
2.00571
3.72121
0.0618062
0.154338
0.661221
0.0676938
0.433086
2.17157
0.770945
3.10896
0.0266252
0.0270352
4.59926
0.0443232
2.82047
0.24906
0.0269478
2.98602
0.0708489
0.0210796
0.533485
0.0948959
0.0241462
0.597266
0.518885
0.454594
1.13738
0.00228779
0.0425165
2.78567
0.0431717
0.0792568
0.113181
2.13547
0.0900077
1.30392
0.0675862
0.0233552
3.1527
0.0465572
0.032349
1.27307
0.0620703
0.0645413
2.2814
0.0575213
1.40364
0.0516475
0.318034
0.612031
0.650878
0.0682916
0.0672111
1.15963
0.0396556
0.0708631
0.611898
0.0585099
0.0891235
0.0181577
4.08931
3.38119
1.99233
0.021309
0.440119
0.0644989
3.65175
0.695545
1.20117
0.590506
0.122172
3.26373
3.55988
0.0546856
0.105226
0.216987
0.0943476
0.969604
3.50064
0.02838
0.716418
0.056756
2.18514
1.86078
0.0717663
1.04672
3.53566
0.0747947
3.38942
0.0149692
3.74448
0.0472801
0.0875537
0.0618748
5.28793
1.10411
1.13934
0.0184664
1.95979
1.9971
4.11066
0.0230734
0.0769284
0.450357
2.21042
0.055226
0.976898
0.0579758
0.494022
3.34433
0.0531051
0.435395
0.0224711
0.0415764
0.318098
2.88824
0.131337
1.15634
0.0291777
0.0470913
3.26692
3.89091
2.26812
0.101417
0.333746
0.713537
0.397156
0.131468
0.0659156
0.0248275
3.02477
0.0725615
0.0583257
1.19159
0.123207
0.0814389
0.0663969
0.0810281
1.36795
0.0831035
0.0239664
0.54612
2.01877
0.0442272
0.0391519
2.16698
0.241282
0.00754242
0.0884697
0.573972
0.0302578
0.0661383
0.0521792
0.185285
0.0510724
0.0589587
1.13354
0.0303792
0.107015
0.16305
0.383629
0.0313904
0.0631563
3.54664
0.0959402
0.0249022
0.0440454
0.0740374
0.074005
0.0321762
2.33701
4.22187
0.219032
2.96682
0.0243258
0.0215208
0.0252551
0.0143012
0.0957855
0.025145
0.405489
0.105393
0.02437
0.0384801
1.18977
0.417994
0.0770671
0.513079
0.0718615
0.0551369
0.0253705
0.171921
0.702274
2.29257
1.37306
1.13366
0.016334
0.0542695
0.00975037
0.127616
0.0518094
3.91329
0.0537732
0.343171
0.0428031
2.36461
0.285226
2.82995
0.00230516
0.0257712
0.0237377
3.54684
2.73025
0.421885
0.390326
0.0302737
0.054534
0.0478756
2.62141
0.0048781
0.0376524
1.03209
0.0403784
0.10035
0.0542575
0.0189357
0.388949
0.0880655
0.0303873
0.052586
0.0957818
0.0710946
1.69633
3.47423
0.0412601
1.19441
0.0545261
2.85921
0.0254579
0.0781354
0.0487099
0.0276115
1.20277
0.0591177
0.0730136
0.0247895
0.255985
0.0299209
0.116365
0.0992325
3.03108
1.20185
0.334346
3.91872
1.322
2.18776
3.07683
0.0527661
0.0248197
0.0255897
0.000478864
0.0642304
0.580366
0.0881609
0.0391585
0.460669
0.0596317
0.0536905
0.358313
0.0516694
0.054956
0.0268517
0.337048
0.614698
3.60218
0.054726
2.24732
0.964005
1.77115
0.356988
3.6174
3.55232
0.940648
0.0203389
0.0743569
0.00285195
0.227511
0.0549771
0.733785
1.70324
0.072767
1.05823
0.644688
0.0288056
0.0263423
0.0495804
4.11874
3.14718
0.0342988
1.11017
1.4311
0.429259
2.54411
4.82441e-05
0.0461917
0.367481
0.00415556
1.66594
0.743582
3.04302
1.4134
0.021787
1.4245
0.0239287
0.00183177
0.408246
0.0754605
0.102446
0.0443686
0.0538958
0.501081
0.0748273
0.0216125
0.0590933
0.062544
0.354453
0.0685863
2.71911
1.28865
0.075192
0.645877
0.090257
0.719699
0.0639944
0.0662062
0.0961406
0.467997
0.409813
0.00498651
0.0953997
3.70412
2.90071
0.872409
0.0583462
0.593683
0.715308
1.30567
3.0999
1.00336
0.0960264
0.0842886
3.1574
0.0150359
0.0246647
0.17216
2.66588
4.73459
0.0377778
0.0444817
2.22884
0.0242656
3.70947
2.62325
0.0918742
0.0373534
5.54366
1.63399
1.87818
0.0622941
0.0405016
0.0130015
0.557189
1.08115
0.0546865
0.0239704
0.0352081
0.852782
0.0569284
0.392073
1.80394
0.0544334
0.0462748
2.10109
0.0561937
0.441926
0.0398714
0.435194
0.0568362
0.024994
0.709559
0.0949511
0.0744579
0.0636289
0.249429
0.440866
3.68102
0.0240612
0.0533455
0.0535869
1.18102
0.703091
4.13023
0.0232043
0.559097
1.30011
0.000402789
0.0215893
0.0452049
2.68245
0.0598941
0.857191
0.0892134
0.0029561
1.00835
0.0704225
1.33473
1.27579
0.527953
2.71883
2.92556
4.08214
0.0566903
2.88722
1.10586
0.0916752
1.05017
0.0403036
0.0452547
0.70111
0.0578685
0.127739
0.372635
3.22392
0.0193072
0.0149074
2.76679
0.0780632
0.0771427
1.18414
1.70908
1.02331
0.0685843
0.203647
3.93525
3.04038
0.826519
0.426219
2.14028
0.0875062
0.0194342
0.531087
2.06939
0.0572545
0.282546
0.0525802
2.50428
0.0945745
0.780221
1.85394
0.00313797
0.0418215
0.0699586
2.08537
1.12638
2.42261
1.77306
0.129294
0.275837
0.400916
0.143805
1.67902
0.346904
0.0412864
0.0676339
0.0574601
0.0158241
0.632233
2.90414
0.0372854
2.17716
0.103378
1.18014
0.0605426
0.0393875
0.0237384
3.64116
2.40163
0.226225
0.422275
0.036642
0.0264888
1.42683
0.0545158
1.16659
0.999859
3.41114
0.0388257
0.251253
1.43989
0.0789163
0.118347
0.072822
3.34473
0.0651823
0.110057
1.17207
1.20224
0.026886
0.145174
0.0534845
0.0942025
0.029401
0.0298242
0.381773
0.0250388
0.238479
2.10707
0.709158
3.59858
0.0608149
0.215515
0.596353
0.0145575
1.61806
0.0504613
0.0633873
3.31749
0.0876298
0.360066
0.0867932
0.0215919
1.99185
0.0559337
0.244985
0.017647
1.03762
1.15809
2.98968
0.0235105
0.971907
0.0383334
0.30525
0.0806465
2.35382
0.912644
0.227431
3.54554
0.0509867
3.73225
0.0530139
1.85262
0.0802362
0.0247141
0.0646072
0.820774
1.30147
0.0297967
0.0686905
0.732084
0.0386562
0.0717234
0.0240177
0.016067
0.0749209
4.03645
0.106468
0.0601912
1.40319
0.243513
4.07056
0.0150331
0.0807189
0.0357571
0.0927971
0.125365
0.0472563
3.51963
0.100992
0.549036
0.0403849
0.152111
0.613447
2.21066
0.0617095
0.0649737
0.0778037
0.120256
0.0462075
0.295971
3.48244
0.362161
0.396005
0.0342001
1.45895
3.30527
0.196242
0.69225
0.0825215
1.74461
2.95406
3.89383
0.0522427
0.0547494
0.161524
2.43484
0.13253
3.46674
0.102388
0.381882
2.25586
0.0182657
0.0758599
0.0725395
0.0567591
0.0545813
0.0557503
1.67143
0.0533481
2.77516
0.0572121
0.0386971
0.0245506
0.0536535
0.407262
0.0445513
0.743749
0.679337
0.0453126
0.101147
1.79666
2.76602
0.0405479
0.0509732
0.097635
0.311977
0.310639
0.181853
2.85712
0.0295406
0.0585261
0.439626
0.0485707
0.196685
1.44037
0.040527
0.02954
0.00530693
0.0708152
0.829726
2.57792
0.942449
0.0599601
0.170483
0.054102
3.33773
3.45209
0.06063
0.05762
1.07711
0.0577426
0.0293835
1.77189
1.63569
0.0802776
0.0589094
0.0261386
0.364941
1.75161
0.0339507
0.0199073
1.78601
2.20386
0.00116305
0.0375521
0.0273454
0.104262
0.352801
0.420325
0.0522753
1.27162
0.0562167
0.0885413
0.0407994
0.392893
0.0346195
3.52772
2.12845
3.46629
1.75091
0.900728
0.581403
0.0407643
3.06993
0.43746
0.0268367
0.184611
0.0411177
0.14865
0.0528997
0.0451031
0.0253923
2.95694
0.0215736
0.225774
1.42404
0.0636704
0.214971
0.31686
3.87846
0.0142466
3.6951
3.09951
0.0673072
0.0301681
0.183269
0.246624
0.154514
0.950721
3.03213
0.0910419
0.0243615
0.0587622
0.928714
3.37799
0.0909135
0.090447
0.0221025
0.037769
0.0702627
0.281464
0.0572053
0.0802653
0.138254
2.04693
0.0671874
0.203036
5.05493
0.0695665
0.228449
0.1728
1.23481
0.248986
0.262598
0.4278
0.0595288
1.77253
2.14803
0.04454
0.61553
1.26603
0.0579017
0.0841105
0.0940695
1.13135
0.0387427
0.504296
0.0668005
1.43027
2.07209
0.614189
1.94392
0.101912
0.0676484
0.755788
0.91366
0.0846422
0.104548
0.0497605
2.89451
0.0945708
0.218112
0.0310928
0.120338
0.51631
0.0403969
0.0306923
0.0384319
2.49382
0.707415
0.0523006
0.119827
0.0520358
0.0485404
0.0615182
1.89253
0.110742
0.733776
2.67168
0.529376
0.00166024
0.982775
1.5532
0.70112
1.80763
0.116155
0.79266
2.94961
2.28363
0.0113528
2.11538
0.0598278
4.87525
0.2192
0.0558715
0.505379
1.19537
3.6808
0.712256
0.20024
0.0574411
1.06161
2.35504
0.178119
2.98157
0.118503
0.700151
0.0619923
2.32619
0.217172
0.0240568
0.0630993
0.674774
0.0280535
0.0769827
0.648324
0.0444233
1.8357
0.0196454
0.0687561
1.21632
1.01286
0.0932046
0.415877
1.34827
0.125597
0.466157
0.211526
0.0702089
0.266111
0.0232095
1.89822
0.594987
0.0191993
3.67094
0.0646985
0.364776
0.196216
0.0858045
0.0324984
0.338592
0.698962
1.10383
0.028227
3.47142
0.034361
0.456985
3.60334
0.317265
0.111174
0.931766
0.0883969
0.0455542
0.00262513
1.1601
2.45191
0.05391
2.9864
0.202684
0.0638854
0.97845
0.0732208
0.0477895
0.53281
0.103633
0.0470585
0.136301
0.0368849
0.0745027
0.110787
2.08955
2.36396
0.122555
0.0600202
0.0262267
0.563164
3.50492
0.0463642
0.0213085
0.186406
3.11963
0.0236132
0.855847
0.522813
0.0251238
0.417301
3.12777
0.0428834
0.144963
0.0551519
0.230261
0.039849
0.043053
0.0965885
0.321551
2.41839
0.0177447
2.93049
0.0249709
2.99548
0.0705536
1.00851
0.37129
0.73722
1.98294
0.0747962
0.490822
0.123002
0.0962893
0.100771
2.21769
2.16448
0.070214
0.0641694
0.337817
0.100988
0.0485022
0.0197283
3.77369
2.31454
0.657826
3.07718
0.113331
0.0263195
0.614191
0.150933
1.88609
0.0161395
0.0844634
0.0236671
0.0647572
0.0500539
0.059953
0.055832
0.305495
3.45306
2.38035
0.059083
0.213996
0.510223
4.29411
0.0538644
3.33724
1.73308
2.43588
0.0900363
0.674008
0.0283398
0.114887
0.085211
0.081174
0.0530627
1.79124
3.25102
0.0983294
0.206117
0.651065
0.234969
2.20346
4.15265
0.0591663
0.0182941
0.0644501
0.174207
0.701256
0.0222727
2.14778
0.603623
0.0742259
0.0851794
0.110057
0.383101
0.119124
0.0306924
0.0687576
0.0401641
0.106558
0.479061
0.107932
3.57575
0.0875603
0.0624076
0.215489
0.0753828
0.0385855
3.70114
2.26645
0.0651699
2.45595
0.0553357
0.991756
0.0915853
0.122853
0.0417811
0.0281104
2.26326
0.0737667
0.100503
1.8511
1.65041
0.0522281
0.0590122
0.0541638
0.108032
1.30225
0.0330177
0.0545211
3.15398
0.0562228
0.0559538
0.0929311
2.82894
0.0619294
2.46607
1.83064
0.0246793
2.35716
0.0997067
0.01634
3.56138
0.32433
0.0534347
0.000574339
0.405691
0.0855782
0.131068
0.0236394
1.23575
3.73568
0.0576205
0.0231128
2.09139
0.0739459
0.74892
0.746807
0.0711688
0.610603
3.49877
0.052294
0.64255
0.0699225
0.0876792
0.115073
0.0485541
2.82925
2.0598
0.0702842
0.0573554
2.77929
0.0705306
0.120374
0.0913488
0.6019
1.01171
0.0252917
0.0427893
0.0579681
0.0431189
0.0251781
0.00162786
0.0648366
0.115265
3.37307
0.421164
0.0495535
0.792339
0.0898252
0.782225
3.66418
0.827028
2.18321
0.0674227
0.000847316
0.430502
0.118243
0.0663177
1.96012
0.0791282
2.66396
2.29517
0.436792
0.0876723
4.22593
0.0259104
2.50243
0.0509589
0.0517621
2.09717
0.248482
0.784546
0.0657881
0.0469362
0.0174055
0.097173
1.33583
0.795347
0.0736715
1.6848
0.317741
2.26388
0.0178541
3.5005
0.0707809
0.0557586
0.273366
0.0639158
0.377765
2.23252
0.494832
0.0290236
1.8878
1.26271
0.153562
0.689334
0.506771
0.012873
0.399813
2.35619
0.0534095
0.0383747
0.0469467
2.92364
0.0487796
0.0147787
1.20438
0.464794
0.169242
3.58416
0.67762
0.180534
0.181035
1.10659
0.0820097
0.454027
0.0329343
0.0694374
0.0458842
3.32431
0.0743839
0.850733
2.38746
0.0211711
0.713286
4.29658
0.0725583
2.89987
0.0432094
0.420086
0.113587
0.02084
0.0918129
0.056797
0.0318197
0.0827235
0.0667942
0.059019
0.06365
1.96938
0.478138
0.064166
0.402014
0.0410532
0.0554738
0.0372353
0.0687647
0.0856764
1.47021
0.0142985
1.1613
2.26987
1.42554
0.910399
0.124142
0.0981441
3.53675
0.0497935
0.511663
0.0695672
0.0374694
0.130739
3.21711
0.079756
0.0530083
0.0411418
0.151554
0.0868643
1.39006
0.442334
0.999962
2.05727
0.0500078
0.0333696
0.548588
0.0560692
0.0739825
0.0248438
0.106683
0.0273581
0.0519333
0.0922536
0.0144254
0.926607
2.42903
0.832961
0.0874939
0.0552119
0.746747
2.38324
2.16371
0.0271124
0.0591179
0.563219
0.0406366
0.0237935
0.0766596
2.09104
0.588811
0.0388079
0.0435722
0.0824164
0.0231329
2.3326
0.0292706
0.0722185
0.0729516
0.0639183
2.27065
0.0638598
1.48291
0.0538288
0.0690778
0.0212924
0.0276165
2.40236
0.286923
0.0345857
3.17525
0.562077
0.478415
0.0227534
0.0483555
1.10554
3.43952
3.57655
0.041229
0.686893
0.0621911
0.0546683
3.32177
2.11791
0.0211589
0.0194669
0.866637
1.31137
0.0540021
0.0237476
2.28403
0.0452055
0.0989041
0.123573
0.0704256
0.635536
0.0614694
0.0605524
0.0695773
1.73191
0.052595
0.0269783
0.0440337
0.0859259
0.128632
0.0830574
0.361099
0.630136
0.524234
0.0826624
0.0770002
0.052704
0.0224407
0.0672054
0.0528066
0.454397
0.0618272
0.0750723
0.163454
0.525887
0.0302512
0.021673
0.0670169
3.64265
0.0620643
0.71036
0.0159097
0.0591152
0.00396091
0.0700483
0.0661895
3.36624
0.0789435
0.0316484
0.26573
0.0535524
1.27493
0.058892
0.0441072
2.86151
2.56036
0.0234567
2.32075
0.0552125
0.863542
2.81509e-05
2.04681
0.0307928
1.08996
0.048479
2.59552
0.408936
0.974794
3.42814
4.27797
0.0440733
3.06179
0.0260948
0.0226842
0.0514431
2.52719
0.124187
0.0255538
0.521171
2.77169
1.70853
0.1235
3.35873
0.0218159
0.110246
0.0439066
0.348499
0.0941787
1.58113
0.0582568
0.0721245
0.0578661
0.014665
0.112415
2.10784
0.0395458
0.0590895
4.01296
0.44601
0.023908
0.128736
2.3018
0.0812814
0.0635197
2.85441
0.12572
3.29496
1.10703
0.047323
0.296509
0.655972
0.0319355
0.106031
0.0375906
0.023324
0.119629
0.0967445
2.3616
0.0273675
0.760269
0.161244
0.046188
2.40035
0.843965
0.0622241