/*--------------------------------*- C++ -*----------------------------------*\
  =========                 |
  \\      /  F ield         | OpenFOAM: The Open Source CFD Toolbox
   \\    /   O peration     | Website:  https://openfoam.org
    \\  /    A nd           | Version:  10
     \\/     M anipulation  |
\*---------------------------------------------------------------------------*/
FoamFile
{
    format      ascii;
    class       volScalarField;
    location    "900";
    object      nut;
}
// * * * * * * * * * * * * * * * * * * * * * * * * * * * * * * * * * * * * * //

dimensions      [0 2 -1 0 0 0 0];

internalField   nonuniform List<scalar> 
10435
(
3.69957
1.81818
1.16449
2.79269
0.916158
0.60745
1.49414
3.46952
5.13518
0.725671
1.38307
2.60648
0.700564
2.63462
2.81988
2.0124
2.47416
0.600774
5.98603
3.70012
2.61472
3.65254
1.57919
5.14121
0.860149
2.23958
2.23233
0.907705
1.99963
0.632255
1.29245
1.21309
4.05108
1.9398
3.11399
2.54379
2.50596
2.32422
2.10056
5.45125
0.571149
1.42576
2.15346
2.98887
1.94169
5.18797
0.596043
2.09466
5.84309
4.80786
3.06996
0.938097
2.03158
1.98204
2.13708
1.9238
3.06102
2.26419
2.15401
3.79622
2.07329
2.06794
2.17552
1.00199
1.72001
1.01068
2.03441
2.18108
2.93268
5.39603
1.99664
2.32969
1.95763
1.15691
3.02657
2.29709
5.37076
1.77856
4.70078
3.08548
5.20845
4.0049
1.95917
1.96644
5.31587
2.92719
3.08265
2.44373
3.09774
2.95348
2.26464
2.10359
4.16288
3.15127
2.7916
2.70584
2.11309
2.9293
2.28612
1.66113
3.03512
0.622356
3.152
2.62097
0.609704
2.86532
4.2957
5.0336
5.28294
3.33559
4.64366
0.648643
3.81305
3.5819
1.61582
3.62764
1.70126
2.80392
1.97995
2.25475
1.80577
2.18828
2.62014
2.61206
0.795905
2.14616
2.19703
2.34448
1.24445
2.47481
2.50807
0.902552
2.53537
2.84671
2.35451
1.72735
2.51418
2.81178
2.1925
3.65263
3.68148
1.51026
1.98759
1.49192
3.7365
2.66796
2.61103
0.805452
2.45681
2.00037
2.06848
2.25188
3.30871
1.76806
0.789477
2.10258
0.724354
2.4091
0.742819
1.24345
1.8738
2.63088
1.60156
3.78313
3.23234
1.38658
4.08895
2.94645
3.65334
1.28043
0.890435
1.8226
2.03039
2.79784
2.56474
1.48475
2.32103
2.23605
4.52045
2.04493
1.58508
0.624147
2.18753
2.07881
1.72118
2.01569
2.12895
2.0364
0.835404
1.18651
2.08389
1.89265
2.44128
2.31871
0.679709
2.45981
2.3819
2.97458
2.1665
2.18349
3.18016
2.23805
0.799208
2.24837
0.926222
1.26592
1.77849
2.89114
2.13293
3.85305
1.97491
1.4154
1.69724
3.39318
2.15152
2.59993
3.4286
1.90428
2.25762
2.44364
2.0045
2.27972
2.07066
2.74747
2.19291
2.74055
2.16407
2.96064
1.16094
2.43409
2.19815
3.36884
2.20424
2.57195
2.46184
2.34491
3.6127
2.26066
3.96378
1.06729
3.10704
2.12672
1.8677
1.95162
1.40263
4.83509
2.78673
2.85273
1.66177
1.76515
1.78647
3.29637
0.687654
3.90623
2.33968
1.05124
1.55108
2.02823
1.99031
2.16174
1.76449
0.953802
2.18659
4.62653
3.57193
2.19868
3.21616
1.36072
1.95432
1.24949
1.52478
3.61604
2.77033
0.889162
2.32719
2.28925
2.39924
0.932699
2.11124
4.09581
0.731547
2.28383
1.3205
2.91032
3.36079
1.83026
0.813909
2.11926
1.94788
1.98746
2.78403
1.04737
2.08417
3.19811
2.12786
1.98461
2.52743
3.66026
0.984286
1.06798
2.17871
4.04792
1.15995
1.78271
1.07461
2.76137
2.35107
2.92604
1.04909
1.92528
4.40822
2.24498
2.05696
0.785285
4.38906
1.94018
2.03632
1.4527
2.16129
2.87196
0.597872
2.10311
3.36304
1.83118
4.62075
0.806095
2.41882
1.02874
2.12231
2.34863
4.34493
1.9714
1.9003
1.26618
2.23205
2.20791
1.891
1.743
1.87432
1.95378
2.45983
2.22247
2.01224
2.04006
1.96051
2.13664
2.16701
2.49472
1.7754
5.18219
1.88031
0.851252
2.1848
0.916002
5.11145
6.29111
0.689369
1.28382
1.97263
1.95175
1.80052
2.19073
1.90829
1.88826
2.08331
2.46849
2.2038
2.92076
2.41338
5.45889
2.16271
2.49099
0.639596
6.80544
1.78694
2.26792
2.2285
2.36091
1.97145
2.303
2.70035
2.12788
4.35261
2.12594
3.30511
5.52533
0.820596
0.742475
5.86856
1.01619
3.6745
2.59121
1.91455
1.98758
1.96045
1.12744
1.9776
0.638766
2.64063
2.07983
2.48635
2.03156
1.99877
1.7198
2.30826
3.81943
3.22034
1.8478
2.36784
2.53152
6.50802
2.60701
2.40097
2.09834
1.91198
2.16038
2.02721
1.04329
1.98972
2.3293
2.01414
1.89441
0.56052
1.72668
1.71114
7.43678
1.92244
28.995
29.0233
28.8357
28.5034
28.0586
27.5209
26.9412
26.4153
26.107
27.9491
28.0092
27.9334
27.7487
27.4768
27.1417
26.7921
26.5085
26.3941
26.3779
26.4718
26.4884
26.4343
26.3225
26.1763
26.0417
25.9901
26.1061
24.3312
24.4519
24.5417
24.5963
24.6221
24.6412
24.6982
24.8619
25.2177
21.8966
22.0341
22.1753
22.311
22.4434
22.5935
22.8051
23.1486
23.7256
19.2006
19.3453
19.5145
19.6994
19.9005
20.1382
20.4544
20.9168
21.6292
16.4004
16.5443
16.7181
16.9187
17.1482
17.4269
17.7927
18.305
19.049
13.672
13.8023
13.957
14.1421
14.363
14.6399
15.0065
15.5122
16.2193
11.1763
11.2721
11.3861
11.5311
11.7153
11.9577
12.2882
12.7498
13.3962
9.0142
9.05708
9.11703
9.20903
9.34143
9.53038
9.80147
10.1931
10.7592
7.2098
7.19837
7.20637
7.24694
7.32642
7.45702
7.65947
7.96574
8.42251
5.73321
5.68738
5.66144
5.66432
5.70063
5.77942
5.91701
6.1386
6.48085
4.53367
4.49289
4.45857
4.44206
4.44938
4.4887
4.5733
4.72259
4.96349
3.60504
3.58793
3.56114
3.53833
3.52858
3.54062
3.58594
3.67962
3.84123
2.94467
2.94395
2.9247
2.89966
2.87944
2.87303
2.89048
2.94388
3.04896
2.51631
2.51604
2.49685
2.46823
2.43997
2.4204
2.41803
2.44227
2.50429
2.25787
2.24807
2.22296
2.18876
2.15328
2.12363
2.1069
2.11049
2.14222
2.10539
2.08672
2.0547
2.01461
1.97274
1.93508
1.90761
1.89652
1.90842
2.01618
1.99279
1.95579
1.91092
1.86381
1.81977
1.78397
1.76169
1.75857
1.96773
1.9426
1.90259
1.85423
1.80302
1.75394
1.71159
1.68051
1.66531
1.94892
1.92313
1.88097
1.82982
1.77532
1.72223
1.67475
1.63689
1.61276
1.95446
1.92734
1.88258
1.8286
1.77118
1.71487
1.66344
1.62032
1.58902
1.98247
1.95111
1.902
1.84453
1.78432
1.72551
1.67126
1.62436
1.58769
2.03349
1.99112
1.93472
1.87294
1.81009
1.74961
1.69381
1.64465
1.60441
2.11096
2.04259
1.97608
1.90994
1.84489
1.78392
1.72806
1.6782
1.63467
3.37837
3.44622
3.53114
3.63323
3.75259
3.88879
4.04129
4.20907
4.39121
4.58632
4.79316
5.01034
5.23624
5.46942
5.70802
5.95034
6.19457
6.43878
6.68105
6.91955
7.1522
7.37706
7.59203
7.795
7.98522
8.16303
8.32802
8.47957
8.61803
8.74536
8.86263
8.97115
9.07311
9.17179
9.27122
9.37649
9.49379
9.63042
9.79518
9.99832
10.2517
10.5689
10.965
11.4573
12.0656
12.812
13.7187
14.806
16.0861
17.5584
19.2016
20.9689
22.7883
24.5642
26.1907
27.5624
28.5914
29.2149
29.4185
3.33302
3.40096
3.48524
3.58623
3.70405
3.83847
3.98898
4.15475
4.33478
4.52782
4.7325
4.94745
5.17119
5.40216
5.63867
5.879
6.12135
6.36389
6.60475
6.84207
7.07398
7.29864
7.51427
7.71914
7.91186
8.09154
8.25783
8.41098
8.55182
8.68143
8.80083
8.9114
9.01515
9.11488
9.21423
9.3178
9.43121
9.56129
9.7162
9.90568
10.1412
10.4365
10.8076
11.2733
11.856
12.5801
13.4708
14.5499
15.8296
17.307
18.9587
20.7365
22.5665
24.3527
25.9877
27.3662
28.4
29.0274
29.232
3.25183
3.31612
3.3962
3.49257
3.60542
3.73466
3.87988
4.0404
4.21532
4.40351
4.6037
4.8145
5.03442
5.26186
5.49519
5.73269
5.9726
6.21311
6.45238
6.68856
6.91978
7.14421
7.36004
7.56566
7.75971
7.94129
8.10996
8.26576
8.40917
8.54104
8.6624
8.77461
8.87953
8.97963
9.07819
9.1793
9.28805
9.41069
9.55486
9.72988
9.9471
10.2204
10.5667
11.0063
11.563
12.2631
13.1329
14.1951
15.4629
16.9336
18.5831
20.3617
22.1946
23.986
25.6294
27.0211
28.0734
28.7247
28.9573
3.12382
3.184
3.25954
3.35094
3.45844
3.58202
3.72136
3.87586
4.04471
4.22691
4.42127
4.62647
4.84108
5.06358
5.29238
5.52579
5.76209
5.99951
6.23622
6.47037
6.70013
6.92368
7.13925
7.34529
7.54045
7.72374
7.8946
8.05291
8.19894
8.33333
8.45703
8.5713
8.67786
8.77897
8.87757
8.97737
9.08303
9.20037
9.33665
9.50092
9.70447
9.96136
10.2889
10.7081
11.2434
11.9217
12.77
13.8113
15.0592
16.5114
18.1436
19.9059
21.7237
23.5031
25.1402
26.5333
27.5964
28.268
28.5293
2.95873
3.01447
3.08512
3.17121
3.27301
3.39053
3.52352
3.67149
3.83371
4.00927
4.19706
4.39587
4.60436
4.82108
5.0445
5.27299
5.50489
5.73845
5.97189
6.20338
6.43113
6.65332
6.86826
7.07441
7.27043
7.45534
7.62845
7.7895
7.93858
8.07616
8.20302
8.32036
8.42976
8.53331
8.63372
8.73442
8.83978
8.95533
9.08808
9.24691
9.44303
9.69053
10.0068
10.4129
10.9332
11.5944
12.4229
13.4415
14.663
16.0852
17.6843
19.4118
21.1955
22.9445
24.5581
25.9382
27.0015
27.6879
27.9778
2.75957
2.81035
2.87563
2.95595
3.05162
3.16269
3.28897
3.43004
3.58525
3.75376
3.93459
4.12661
4.32856
4.53908
4.75673
4.97995
5.20713
5.43657
5.66654
5.89525
6.12092
6.34176
6.55613
6.76253
6.95961
7.14637
7.32205
7.48629
7.63906
7.7807
7.91193
8.03385
8.14798
8.25631
8.36138
8.46646
8.57568
8.69436
8.82929
8.98912
9.18481
9.43016
9.74223
10.1415
10.6517
11.2985
12.1073
13.0993
14.2869
15.6672
17.2176
18.8918
20.6214
22.32
23.8923
25.245
26.2987
26.9958
27.3164
2.52862
2.57371
2.63292
2.70684
2.79582
2.89997
3.01917
3.15307
3.3011
3.46252
3.63641
3.82172
4.0173
4.22187
4.43405
4.65239
4.87534
5.10123
5.32836
5.55495
5.77924
5.99946
6.21405
6.42153
6.62056
6.81011
6.98941
7.15803
7.31587
7.46321
7.60079
7.72972
7.85154
7.96823
8.08225
8.19677
8.31574
8.44423
8.58878
8.7576
8.96109
9.2124
9.52773
9.92652
10.431
11.0652
11.8526
12.8128
13.957
15.2827
16.7685
18.3718
20.0292
21.6604
23.1767
24.4912
25.5294
26.2363
26.5919
2.26313
2.30114
2.35306
2.41957
2.5011
2.59787
2.70982
2.83667
2.97792
3.1329
3.30074
3.48039
3.67071
3.87051
4.07856
4.29352
4.51395
4.73819
4.96442
5.19081
5.41556
5.63703
5.85376
6.06435
6.26742
6.46201
6.64731
6.82285
6.98846
7.14452
7.29194
7.43198
7.56637
7.69713
7.82665
7.95822
8.09564
8.24344
8.40777
8.59598
8.81769
9.08484
9.41223
9.81776
10.3218
10.9457
11.7106
12.6338
13.7254
14.984
16.3921
17.9121
19.4868
21.0428
22.4981
23.7716
24.7932
25.5114
25.9063
1.95559
1.98353
2.02573
2.08324
2.15663
2.24616
2.3516
2.47235
2.60852
2.75996
2.9249
3.10202
3.28996
3.48765
3.69439
3.90899
4.1307
4.35783
4.58744
4.81745
5.04633
5.27266
5.49533
5.71307
5.92448
6.12878
6.32494
6.51251
6.69136
6.86216
7.02646
7.18578
7.34177
7.49663
7.65275
7.81456
7.98575
8.16799
8.36708
8.58988
8.84503
9.14245
9.49416
9.91743
10.4313
11.053
11.8006
12.6848
13.7141
14.8941
16.2178
17.6567
19.1585
20.6555
22.0699
23.3194
24.3322
25.0584
25.4829
2.13534
2.05148
1.98718
1.93147
1.88025
1.83253
1.78876
1.75029
1.71912
1.698
1.69061
1.69966
1.72568
1.76737
1.8228
1.89185
1.97553
2.07428
2.18814
2.31643
2.45825
2.61425
2.78655
2.97934
3.20026
2.02307
1.99825
1.95755
1.91178
1.86488
1.81896
1.77584
1.73751
1.70632
1.68514
1.67696
1.68396
1.70706
1.74608
1.80049
1.87008
1.9547
2.05399
2.16749
2.29458
2.43527
2.59051
2.76264
2.9558
3.17722
1.97843
1.9567
1.92253
1.8815
1.83735
1.79281
1.75022
1.71196
1.68059
1.6589
1.64954
1.6546
1.67536
1.71234
1.76546
1.83432
1.91816
2.01607
2.12721
2.25094
2.38754
2.53812
2.70494
2.89177
3.10437
1.94817
1.92117
1.88628
1.84589
1.80245
1.75833
1.71584
1.6774
1.6456
1.62308
1.61237
1.61553
1.6341
1.66886
1.7199
1.78658
1.86769
1.96195
2.06808
2.18554
2.31464
2.45655
2.61341
2.78856
2.98698
1.9208
1.88761
1.8495
1.80757
1.76338
1.71876
1.67579
1.63675
1.60412
1.58043
1.5681
1.56923
1.5854
1.61749
1.6655
1.72854
1.80502
1.89342
1.99206
2.1005
2.21906
2.34892
2.49219
2.6521
2.83356
1.89341
1.85419
1.81209
1.76768
1.72191
1.67616
1.63219
1.5921
1.55824
1.53302
1.5188
1.51764
1.53109
1.55995
1.60402
1.66208
1.73222
1.81269
1.90164
1.99865
2.10403
2.21895
2.34548
2.48675
2.64792
1.8653
1.8204
1.77437
1.72725
1.67954
1.63223
1.58684
1.54531
1.50987
1.48282
1.46645
1.46275
1.47315
1.49822
1.53748
1.58936
1.65166
1.7224
1.79976
1.88325
1.9731
2.07035
2.17683
2.29569
2.43264
1.83548
1.78634
1.73706
1.68746
1.63772
1.58862
1.5415
1.49826
1.46103
1.43199
1.41334
1.40695
1.41402
1.4348
1.46847
1.51311
1.56624
1.62563
1.68975
1.75791
1.83011
1.907
1.98969
2.08122
2.18719
1.80509
1.75329
1.7017
1.64992
1.59815
1.54712
1.49812
1.45314
1.4143
1.38344
1.36271
1.35378
1.35736
1.37349
1.40093
1.43734
1.48004
1.52674
1.57602
1.62716
1.6798
1.73403
1.78959
1.84658
1.90942
0.572913
0.59626
0.385123
0.176773
1.1344
1.11821
3.67779
2.24708
0.391271
14.8881
0.217631
2.02511
12.3525
0.624506
6.70934
2.42424
0.306327
0.2061
22.4221
0.318091
5.8251
5.25293
0.244022
2.0151
2.33897
2.21308
2.363
1.13108
0.342583
0.267046
25.0121
2.24474
0.336494
10.2923
0.253633
1.32844
9.37244
6.65503
10.1648
3.51199
0.291119
0.138588
3.77649
2.0549
1.5469
7.79894
0.234418
0.239271
0.283869
0.3439
0.229571
0.263165
10.3718
0.224123
3.68568
0.38894
0.622049
9.14768
0.852779
0.200009
1.31892
0.38394
1.1058
3.96216
2.26325
1.79801
6.16464
1.86283
12.175
0.335602
0.387851
5.99444
1.20364
0.438421
2.4056
6.40531
0.955862
0.25433
1.69915
0.270248
10.248
1.57109
2.42918
0.207698
1.20962
1.32093
1.40788
0.255602
0.336635
1.8563
1.7286
3.40434
9.45575
2.03529
1.10766
0.219724
2.13179
0.218383
0.328395
0.199525
0.977079
0.297194
1.00129
6.70465
0.974293
1.37884
0.248814
10.0337
0.504555
0.27103
4.64148
1.33856
0.264588
6.80713
10.2227
0.287773
0.323662
3.8826
11.9448
0.848249
0.056937
1.38139
2.03045
2.22384
0.331863
3.56779
0.269179
0.550307
1.03951
0.240159
2.38101
0.482201
0.331431
10.5339
1.35626
1.37212
1.5596
0.897432
1.41149
0.259134
7.32183
9.66946
0.204334
0.0781695
0.312532
2.79033
0.16352
1.97693
2.32945
0.258531
3.3519
0.867016
0.1612
6.02919
2.3472
0.206062
1.30987
3.83906
1.65044
4.76082
3.84226
0.39116
3.25039
0.222366
5.79908
0.215712
0.721872
2.3255
3.54054
1.16536
0.572064
4.33285
1.89098
0.21095
6.76543
1.31399
6.07367
0.33544
0.244963
7.15289
8.64079
2.0858
10.9043
7.4891
1.76688
0.84206
0.218566
0.523747
0.345937
1.91809
0.225559
0.203495
0.269767
9.5316
6.18932
0.347551
2.42162
5.10036
0.299603
0.435735
11.0918
4.99106
1.49342
1.87898
1.48953
7.83546
5.36779
0.959618
0.298873
4.40298
1.02099
1.81171
9.13021
1.38521
4.58107
0.282915
0.931464
1.79103
6.6472
1.61995
0.707535
0.162304
2.17212
0.363869
0.69624
0.313364
2.07384
0.312616
0.433604
1.15988
0.202685
1.35631
1.89423
1.67291
9.94762
11.7763
2.40667
0.87151
7.73224
5.9943
20.8787
1.30249
5.282
1.53258
1.2728
1.62992
2.58144
1.58736
2.43507
4.37052
0.365695
1.3825
10.1256
0.297548
1.15088
2.01968
0.26069
1.11113
1.84091
22.9917
1.94519
0.921814
1.81121
2.43088
0.56001
2.03791
6.6886
0.158211
3.50539
2.32468
5.01963
0.263321
0.42646
1.59087
21.0123
0.160644
4.38823
0.392016
0.718307
0.22531
1.92111
3.69548
1.863
7.72323
0.239641
1.49474
1.38624
0.54146
0.240574
0.229506
4.79999
3.39915
0.0829865
0.24156
8.64054
0.286936
0.28483
4.52998
4.86384
0.223602
0.219861
3.9648
2.27533
1.94225
0.288885
5.84643
5.26833
10.7251
0.25775
1.58326
6.1934
9.53643
0.347428
1.19736
0.365007
9.70103
0.242409
9.19647
2.30012
9.29504
1.6379
3.1753
2.13998
24.0567
1.37098
1.98856
0.323183
9.79192
4.99744
8.79701
5.97796
6.2746
0.640593
13.5697
0.257654
1.36542
2.15856
2.52797
0.232024
1.92363
1.77441
2.09989
0.202298
10.2185
0.623794
0.897984
0.939251
1.0159
1.34735
0.224104
0.880282
9.12927
0.135861
1.93318
0.243848
0.744375
7.56295
2.22821
4.95926
0.226639
0.306612
0.239823
3.87601
0.314715
0.149182
1.43049
3.47608
0.248005
1.87805
0.344415
8.61335
5.94701
0.365358
0.357928
12.2308
1.64027
1.26959
7.17262
3.7973
12.7885
0.286709
3.7984
0.330833
2.18079
2.23459
7.60763
5.99811
0.333076
0.220642
0.225291
2.1828
7.39417
1.54938
0.355468
8.07023
18.0557
5.46177
0.334996
3.72735
0.341412
2.18517
3.87937
1.195
0.365626
2.12857
0.114692
4.7925
1.53974
5.30639
20.0019
0.317558
1.77805
0.217391
1.39353
2.8766
0.995752
0.269315
0.224782
3.43954
3.45127
5.87134
4.09355
1.76833
0.998975
3.77492
0.233064
0.152287
2.3102
14.1711
2.36493
1.81541
1.85011
1.83272
1.83947
4.32872
3.34018
4.76333
0.0414819
1.0925
1.47133
5.00907
6.04259
0.247088
3.38331
11.8682
0.291363
0.950218
0.313827
1.0387
1.64727
0.367269
3.58166
3.09979
0.227221
9.96903
0.338069
0.222592
1.34864
1.76131
0.842511
3.57193
1.76912
0.307656
9.10258
0.228414
1.71634
0.899381
0.375377
4.87776
0.224556
1.58084
1.53952
0.241449
1.40635
2.17607
10.9518
2.0353
1.51889
2.25026
2.66904
4.38886
9.92551
0.123041
2.06106
0.205715
1.15809
1.60941
5.86484
0.33717
6.76457
6.15907
2.89782
1.42294
0.359884
1.86535
0.706276
6.23618
1.54973
8.01316
0.344003
3.85629
4.52857
1.57681
1.35969
6.35501
9.89828
1.80835
1.95737
4.52704
2.39628
5.11084
9.6911
6.72411
2.1705
0.726869
0.248288
0.29433
0.263307
1.61141
1.79878
11.8644
0.230055
0.308644
0.185497
10.5012
6.67635
0.229663
0.310153
7.75806
4.72322
1.28949
7.04094
0.176236
0.364031
0.836418
3.97423
3.86352
0.249977
0.29997
3.0044
9.23403
0.281778
5.13058
0.253252
0.166535
0.345705
2.62456
0.636572
1.59471
0.387407
9.4731
9.48939
1.08705
0.302222
0.270094
0.246267
2.2925
9.81077
12.4567
0.298801
12.8123
10.3428
3.94998
11.6242
0.269335
17.8364
1.99394
0.978485
2.37178
1.98569
0.345724
6.60348
7.76749
0.808773
1.03602
0.268378
0.230252
0.302506
0.707076
2.00642
0.28717
11.2213
4.83167
11.2289
2.28492
0.334925
5.05681
1.08599
8.80882
4.89365
1.22668
1.32917
3.93601
5.47521
9.29369
0.813117
10.7221
0.261524
1.13948
2.17966
0.205026
1.15374
0.171145
2.25232
0.591549
1.18527
1.4911
12.7335
0.602977
3.36112
3.98345
9.96504
1.71661
3.45188
1.26086
8.92718
2.08453
0.979087
0.334107
4.51199
1.93337
3.11883
11.2094
1.08425
2.23322
0.197918
0.234243
1.05671
0.340462
2.34585
2.19542
1.62205
0.395552
2.85817
0.788314
7.16912
1.95828
1.94988
0.842747
4.99788
2.06629
0.642197
1.78438
4.91972
1.12042
1.98068
1.75927
3.75249
0.198202
5.61764
2.05924
0.378552
15.014
0.119712
6.73704
14.3438
0.231334
25.2106
2.82915
3.00003
0.298467
0.347729
0.213585
0.0483758
1.64486
2.25202
0.300492
0.329577
1.60417
10.753
2.25619
17.6661
1.1765
0.213823
0.143424
2.81185
10.253
1.36454
8.56407
11.7397
0.40484
9.41074
2.08141
2.47535
6.4146
0.71981
6.95633
0.31711
0.259834
2.42244
5.2937
3.11555
0.224007
2.29644
9.95873
4.21849
1.96746
8.06135
1.47528
5.36412
0.838172
1.88245
1.31865
6.01903
6.76825
0.213068
6.22904
3.59278
0.238719
5.89731
0.33797
0.250551
21.32
1.36901
1.80388
0.107434
2.68727
1.91326
2.44675
1.43567
12.3231
15.6065
17.5176
1.78828
3.71252
10.6763
2.04854
3.72751
9.39797
0.295136
15.8762
0.257638
2.78177
0.336317
2.82571
0.303816
0.238961
0.172431
1.55594
2.1971
0.107008
1.89201
2.95239
7.91579
0.424843
10.9791
1.28934
3.61589
1.9908
2.1322
1.57538
0.230525
0.320944
2.14305
3.18686
5.57655
10.8172
0.288516
0.0568557
4.26238
1.74727
0.145859
0.48882
5.64515
0.24351
5.75299
1.7968
5.7873
0.545933
0.145088
1.61691
1.20952
0.927299
4.40449
3.7067
2.26744
2.13862
1.48374
3.97461
2.43265
1.93466
3.33898
0.223266
6.01291
5.28893
1.0445
4.17078
0.301644
1.29822
13.0901
8.47307
3.81829
4.2992
0.170906
6.8987
0.226637
0.309409
2.32397
1.39816
2.67625
9.09609
3.8433
0.308068
10.1974
1.07085
9.81387
0.242392
0.257837
2.16895
1.58107
0.346479
0.384539
1.86411
1.24032
0.344516
1.73142
0.347265
0.334471
6.98245
1.8099
0.395569
0.383848
0.445321
5.81762
4.04308
0.336482
2.88599
9.26535
3.82071
2.02815
0.678978
2.45941
1.61229
2.04128
0.418338
16.5506
2.69857
0.249646
14.2397
6.44021
1.18213
3.62196
5.80193
1.69907
8.70066
5.90002
10.9486
7.8248
1.48957
5.85191
0.254949
1.79341
6.85219
2.8202
7.4238
0.278033
0.361926
0.610479
10.955
6.39748
0.0508256
1.93532
0.615923
0.202006
4.66909
0.529694
2.87815
0.0978749
6.75866
2.10966
0.194584
0.201684
2.01828
0.215656
0.210539
0.23195
13.6148
0.344332
8.22625
9.15671
3.91772
1.45789
0.597134
0.692336
1.49412
1.65465
2.40444
0.318153
1.22927
1.12466
0.345479
0.953473
1.94621
5.25799
0.364422
6.83072
11.408
1.6219
0.237936
0.244834
9.24682
7.61976
0.342967
1.2098
0.867102
2.31464
0.250733
6.28634
1.4538
0.922878
0.324765
3.00679
4.60055
0.481261
0.0712736
0.714254
10.8722
0.22057
7.96592
0.281084
0.29368
5.73353
1.27301
1.7068
1.57435
0.449507
8.99137
4.18433
1.73152
1.61403
0.39997
2.98703
0.225917
1.01003
0.233152
8.41813
2.66134
14.8737
1.34096
2.26004
0.372506
0.30637
1.08701
4.5916
2.29423
0.914792
4.86632
15.8479
8.60238
10.6235
0.332092
1.22806
1.80852
4.61147
2.23411
4.37247
1.45407
0.320108
3.91565
0.921239
2.83355
5.00581
0.86862
1.59131
12.1221
6.23558
0.737181
1.07467
7.35938
1.25866
1.70256
0.235718
0.311846
0.373613
3.45628
1.75789
3.76238
1.03278
0.314557
1.05728
0.704002
0.273455
2.70146
2.00873
1.23943
2.20858
0.296519
10.9982
1.68831
0.497247
3.132
3.33955
0.330063
2.10414
2.23592
2.30863
1.86653
2.59351
0.235865
8.31084
1.92202
0.286544
1.62536
0.22801
1.74838
0.307844
1.4414
2.06396
4.11511
4.63085
6.28989
0.767374
10.7559
0.609579
3.93662
11.6164
1.87371
0.404768
3.19174
0.241461
3.52872
2.58636
5.3157
1.33651
0.231319
0.393031
9.8116
1.62155
0.822563
4.26568
0.685771
0.307664
0.775932
2.06505
3.79349
1.56004
2.10298
0.231619
6.05635
11.065
2.59531
4.0851
3.42385
1.49025
0.226495
0.217343
2.48375
2.2201
4.91223
0.321052
1.21392
0.952571
2.36939
0.354057
0.238851
0.22868
1.43669
1.51031
1.29104
0.290583
5.67605
0.338017
2.08653
2.09946
0.320039
2.13855
3.12943
0.941326
12.5527
25.5538
1.02374
0.39002
18.2893
0.345613
5.99132
1.96745
1.28892
12.8256
9.5404
1.56318
0.333568
6.42669
1.17338
3.75754
0.30705
0.209931
4.27646
2.97383
6.40341
1.38231
0.292277
1.29372
0.221157
2.13752
12.3088
11.6652
1.49317
1.58707
5.33512
2.81119
1.43915
0.171214
0.580337
7.60891
0.289319
2.10639
12.1555
1.20065
19.0328
0.320141
0.306422
4.81781
12.5679
1.38742
5.10152
0.713002
0.455953
0.368678
1.40219
10.596
1.49311
1.45427
0.414361
2.20367
1.21162
0.469966
0.241527
0.126896
2.00542
2.29301
8.28114
1.99811
11.1988
2.19372
3.48912
1.46655
9.23607
1.28546
8.41213
1.48204
0.245032
0.309874
0.332658
0.498851
6.97535
0.152303
2.41881
0.302947
8.65586
2.34071
1.84281
1.10668
1.19716
3.62412
1.5709
1.04078
0.350026
1.96131
1.23572
4.98663
0.679357
1.67388
1.90921
0.227836
0.364019
0.24882
0.220804
0.864022
1.14646
1.61201
1.91121
1.59791
2.76569
0.311593
8.85653
1.64357
5.73013
5.90005
0.311034
2.65045
2.09902
1.6069
3.63218
1.38233
1.2494
12.5961
0.843789
1.45178
0.312276
7.82264
1.81756
0.36304
2.16476
1.5575
1.80651
0.196714
1.76447
1.64025
12.2667
3.50927
0.22703
0.250494
1.22526
3.52077
6.32353
5.28404
1.63443
8.81249
7.84009
2.43609
11.4133
10.403
5.18642
0.345135
0.544768
0.316154
1.45189
1.39476
0.694435
2.41758
1.2159
5.59171
1.41559
0.23217
8.94365
1.85634
1.68012
6.49728
2.16998
1.59028
1.09512
3.95297
0.280281
0.607593
14.6401
7.30288
21.3978
3.22931
1.75847
0.341961
7.54297
4.95489
0.346064
0.96902
0.104105
1.85857
0.37648
0.285846
0.354967
1.29594
10.2255
0.296672
0.202104
0.356214
0.262358
6.07883
0.393486
0.485138
15.8643
11.5553
6.45924
0.238507
9.52455
1.18635
3.88077
3.25914
0.336002
0.969789
0.292668
5.45861
0.292815
11.422
0.282251
1.73313
0.961621
1.94487
0.445868
1.36126
1.06827
0.222965
3.2329
0.284197
0.565706
4.95854
6.93139
2.90602
2.02997
10.6557
6.23098
5.38359
6.86626
0.917994
11.4079
1.40932
2.34981
0.357106
10.4799
1.36045
0.29852
13.2448
6.89012
0.890691
9.06118
1.25765
6.92655
4.04077
4.58182
0.956257
0.227315
2.18407
7.47805
0.261899
3.09392
5.52721
7.7505
4.50113
3.20388
0.0966751
2.54925
0.339735
1.35297
0.344867
1.77435
1.8808
9.41227
4.44788
1.89775
11.3005
8.04462
3.91337
0.882438
1.4725
5.37103
8.02209
0.343499
0.312514
1.66835
9.2584
1.47454
10.9018
0.238428
1.4943
0.901791
1.26598
0.340804
0.841191
8.35289
11.6969
2.08046
8.25309
0.301177
1.57627
1.58771
7.13288
0.825831
1.26783
2.82855
1.22171
1.34543
0.328748
0.23439
0.33931
2.10935
0.217936
5.31884
7.20832
3.84761
0.318462
0.310656
0.906204
4.36132
4.52758
5.29186
3.39998
0.272218
0.242437
10.2371
5.45668
1.87912
5.84959
1.95191
0.604217
0.285529
0.205872
0.732645
0.333155
6.23208
1.86238
10.5819
2.0029
0.315182
0.452237
1.6006
1.03236
4.08521
1.43086
5.67703
1.31123
3.44703
0.312555
0.290957
13.1288
1.59522
2.28806
0.389527
2.33374
0.304225
0.413329
0.201377
6.55756
0.676906
2.37716
7.07681
7.25385
1.54372
24.5014
0.370119
0.317505
8.2853
1.13513
0.224753
1.78855
0.328998
0.239031
5.74197
1.02715
4.30634
1.17128
9.86511
2.35617
0.307568
1.96663
7.64593
0.76607
4.78884
1.55626
4.89924
1.32578
8.20894
1.21627
1.82571
7.95497
7.96344
0.346883
2.47965
3.70833
1.89184
0.700206
2.85789
0.378556
0.331172
2.60884
0.31902
14.2427
2.10422
6.29714
5.65282
1.66412
1.66531
0.265726
3.0527
4.53478
0.259179
0.370555
18.1814
10.081
7.32268
5.80758
4.00745
0.903892
3.13856
0.340413
1.33625
13.922
6.00833
0.348616
1.47873
0.306525
0.341026
1.1468
0.276863
5.50879
0.481939
0.312035
1.41428
18.8532
0.113225
10.0652
0.926535
5.54577
2.43608
6.52248
0.297132
0.906018
1.67536
0.229332
10.5893
1.01726
9.10744
4.97082
2.64355
0.240815
21.1905
10.1737
7.7464
2.91696
6.42416
1.66689
0.340578
0.245968
4.9778
11.792
0.298005
4.64087
4.68074
1.98819
2.53675
9.61134
1.95429
1.11814
11.8341
3.10926
1.77607
0.0354982
0.6397
7.25708
0.287354
10.2301
1.20789
7.1785
1.18341
2.24201
0.240025
0.470209
0.210924
0.942269
0.0812981
9.21788
6.78967
4.89042
0.288037
2.63042
0.282598
0.310744
12.1863
6.73414
0.234694
1.48639
0.259595
0.969522
2.69593
0.277982
1.31016
2.58091
3.82123
3.09727
1.18205
6.61439
6.1584
4.50175
7.10099
0.503571
1.5452
0.321877
2.04851
0.316966
4.87465
6.14808
1.80947
10.6289
7.94767
0.197341
3.47951
1.33709
0.367962
3.61755
0.818939
0.268544
4.39144
0.405789
2.95058
0.222829
13.8599
0.606121
0.993977
0.335498
2.09493
0.774082
3.22873
5.4935
0.936425
0.297341
9.12484
1.55435
1.08122
4.10577
0.813984
2.78761
0.67067
7.14051
1.97466
0.277373
1.38871
8.50059
0.318625
2.40859
2.29941
0.353759
7.76326
0.214503
3.70289
2.20586
4.49749
1.82636
2.6147
11.3907
0.804313
2.35116
3.2528
0.864267
1.47344
0.335756
4.42262
1.73269
1.70145
1.17323
1.58581
1.90611
5.06229
2.71961
5.82489
0.956447
7.3176
0.33504
5.44753
0.872026
0.859775
5.63999
0.243801
3.49284
2.33239
4.72914
1.9259
1.64043
0.215467
2.88151
6.41623
1.23075
1.16423
0.622428
5.05267
1.86183
8.02909
0.357658
2.09866
2.23965
0.172115
7.9332
1.41112
0.960015
0.883931
2.34692
20.3694
6.52576
0.792587
3.56836
0.332855
7.59738
0.74851
11.0092
4.15302
0.201847
0.270426
1.39284
2.67451
2.36656
3.7858
2.14347
0.68277
0.216939
2.45203
1.59686
3.13156
4.12404
1.1002
0.323345
2.24576
5.11718
1.49773
4.1713
0.281035
8.52961
6.02981
0.89086
0.82905
2.27276
1.41285
0.250859
2.61796
1.51714
0.308511
3.41517
3.09452
1.95854
3.32945
4.9367
0.323651
0.293549
1.39638
0.537643
8.19072
18.2591
0.27966
0.256786
2.31718
0.565923
3.42129
3.94473
11.2485
1.86938
0.256826
1.75555
0.759325
1.88996
3.48226
0.163056
9.28538
5.45958
2.95574
0.472543
11.6406
1.74969
1.06104
9.46185
1.15943
1.17934
8.19136
4.18809
2.03112
6.92662
6.89759
15.1874
1.15022
4.52171
1.49859
4.81321
4.10253
1.23975
0.938702
0.266637
1.80681
2.10106
2.87004
0.251639
1.30338
2.35527
0.185607
12.3489
0.110617
4.72424
8.32444
0.23529
5.53012
1.18062
1.53131
10.7733
3.8907
1.7103
3.9825
0.350784
0.342961
2.13309
0.274036
7.44577
2.81767
0.0381355
0.345992
2.3505
7.92548
2.84615
0.287702
1.55749
7.54509
0.219199
0.242319
0.842338
0.32874
1.24013
2.45365
1.47749
0.269658
2.03833
1.05528
1.11897
0.207337
0.376636
6.3961
0.323446
2.31561
4.29837
1.28703
2.0403
2.12846
5.60404
4.06299
3.01562
10.4467
1.01584
5.38465
0.343188
3.16029
11.7991
0.242091
2.26015
1.70299
1.63133
0.2099
7.16978
4.83339
0.292673
5.24049
0.353637
4.32128
3.32709
1.52659
0.452659
0.717572
5.45564
3.87962
2.21748
5.32201
1.97559
0.338925
1.60772
9.53879
0.928025
0.563312
0.256485
4.32077
0.811555
5.87235
2.30256
1.39042
1.88802
10.1975
0.455246
3.44126
3.60722
2.9717
6.09299
0.986273
4.83156
1.48769
0.558655
8.67632
8.2166
7.36933
0.768582
8.49542
3.90502
0.0570322
6.1367
10.6682
2.83882
1.9603
1.65154
3.30858
1.25232
1.12687
4.83654
6.1195
0.375597
0.350032
0.265167
0.930224
0.0423277
2.0128
5.8147
1.68022
3.65997
0.258358
9.04667
0.21049
1.78107
0.204176
3.08374
1.56453
2.41954
11.6466
0.360137
4.52079
0.324276
1.8718
1.46208
1.39873
0.224629
4.65469
1.67026
1.62113
0.727917
4.93186
3.47147
2.0173
1.33543
1.16165
1.61983
0.219028
6.66298
3.13089
9.06316
3.28281
6.97036
0.301276
0.0629147
0.780098
3.49809
3.66506
0.872953
1.22361
0.216279
1.21346
0.650937
5.31964
1.24762
1.20881
1.56543
2.04575
5.78504
0.241899
0.592146
3.04263
6.40468
0.235588
1.85391
2.24068
0.772176
3.47888
0.989926
1.20106
11.3367
4.63655
25.1197
1.52979
7.56262
0.321651
8.60751
0.845046
1.73458
11.8057
0.239209
0.624359
1.65748
2.16843
4.33928
0.37955
0.292561
5.10731
3.47444
9.44463
2.97111
0.393803
0.215299
0.34317
0.221464
0.168093
0.675064
1.95447
0.649099
3.33016
5.42549
2.33056
2.61759
1.42055
0.227896
4.96881
6.05624
0.377529
0.206847
0.551767
4.26857
1.29761
0.340835
0.25796
0.724636
2.26204
1.64908
10.7025
1.88534
5.81047
2.55288
0.102783
3.57922
1.2398
0.921838
1.67981
3.9475
9.59156
2.64767
0.319177
1.38508
4.98907
2.28345
4.85285
2.04535
0.278132
1.78915
0.312949
3.22546
3.09951
5.23535
0.248516
1.34806
2.38144
3.14589
0.28336
1.06317
1.29455
11.9519
0.122957
1.41083
0.791994
0.165375
2.68093
9.26351
0.391125
3.38647
2.8629
0.220092
2.68295
6.51111
5.35807
1.50136
5.5721
11.9536
0.212807
13.1691
8.7517
2.3383
0.214558
6.87259
8.88421
4.03277
1.39928
12.5327
2.36022
0.83277
3.38043
7.13044
0.319886
4.57399
2.00936
3.07523
0.328933
2.99783
0.208372
0.507672
18.8853
0.196895
3.27776
2.89686
0.429572
6.75926
0.588384
0.836607
1.23402
0.224989
0.223326
8.04562
2.04519
1.28359
1.95759
1.70508
0.602069
1.14956
5.71807
1.19156
3.93078
0.422683
6.12244
0.342646
19.0785
1.30955
0.361654
0.45521
3.09444
1.95401
2.40392
1.10398
2.41533
1.59373
2.32677
4.86764
4.14083
1.5568
3.61819
0.304993
4.1667
1.51521
3.49511
0.215913
0.331326
0.348524
0.343712
0.198561
2.03121
0.0385114
4.47403
2.07254
2.02262
0.288187
1.18682
2.13044
0.701762
11.7228
8.45841
4.60414
3.70255
2.41601
2.3318
0.447161
0.230033
1.1477
0.411695
0.212235
1.52887
1.50416
2.19073
10.2825
0.623522
1.9744
5.4308
7.64021
2.63424
1.73724
2.06902
0.740607
0.29759
5.16724
0.540876
0.303573
0.352648
0.347553
1.3536
13.7432
0.211983
0.840961
2.01587
1.17539
7.55831
2.09108
3.49525
0.386089
0.271459
1.28971
19.8577
3.80571
0.274459
1.8913
0.338956
0.342916
0.241714
0.342777
0.201812
3.52286
0.324875
8.13989
10.4135
0.537309
0.243249
0.240035
0.932587
5.89815
0.32752
19.4591
0.324429
2.55935
0.230247
1.56641
2.01827
0.321435
7.3337
0.361713
1.1032
0.358914
3.84462
4.49123
1.21046
0.990967
0.902426
3.18937
2.25457
0.61176
1.76599
3.13124
1.23455
17.0948
2.38391
0.395263
2.14861
0.339733
0.32157
8.82819
4.34862
6.94361
3.15723