/*--------------------------------*- C++ -*----------------------------------*\
  =========                 |
  \\      /  F ield         | OpenFOAM: The Open Source CFD Toolbox
   \\    /   O peration     | Website:  https://openfoam.org
    \\  /    A nd           | Version:  10
     \\/     M anipulation  |
\*---------------------------------------------------------------------------*/
FoamFile
{
    format      ascii;
    class       volScalarField;
    location    "900";
    object      p;
}
// * * * * * * * * * * * * * * * * * * * * * * * * * * * * * * * * * * * * * //

dimensions      [0 2 -2 0 0 0 0];

internalField   nonuniform List<scalar> 
10435
(
0.00559879
0.3748
-9.322
-2.20714
-4.36276
-8.20964
-9.48263
-9.26534
-9.74135
-9.20739
-0.479349
-5.81699
-9.61564
0.0640237
0.229122
-8.97874
-0.16326
-9.61603
-10.6377
-0.280096
-9.67107
-2.56031
-9.1136
-8.75376
-8.71247
-1.24572
-1.96408
-9.75172
-1.78078
-8.96453
-7.92184
-0.960189
-9.67335
-0.899157
-8.98089
1.11815
-8.79706
-3.0815
-0.518916
-9.6143
-9.00471
-9.82703
0.211823
-1.05921
-8.46787
-9.61008
-8.84153
-0.634926
-9.52814
-3.46578
-9.34474
-7.73609
-1.13676
-1.87032
-0.0566598
-1.83812
-8.82435
-1.75294
-0.731126
-8.85991
-0.935029
0.69423
-1.40831
-6.79958
-8.75392
-9.30872
-0.826254
-1.17874
-9.61981
-8.28878
-1.13402
-1.9665
0.760789
-9.15193
0.242135
0.697942
-6.84211
-9.69752
-9.60522
0.0737718
-4.99013
-0.283619
-0.859896
-1.35605
-5.82526
0.924469
0.581522
-0.729625
0.941836
0.35751
-1.24508
-1.74637
-0.585837
0.749329
0.106458
1.20547
-2.78343
0.713779
-0.00565382
-3.2685
-0.0278019
-5.05939
0.727929
-0.283169
-6.05231
-1.60839
-0.953396
-4.16355
-6.65804
0.187663
-2.69481
-4.07491
-0.0365882
-0.0258182
-1.85451
-1.86547
-3.99721
0.804466
-0.419261
-4.26744
-4.64834
0.918364
0.619861
1.25182
-1.26978
-1.01706
-3.5516
1.00922
-3.94469
-2.37232
1.26476
-0.59612
-9.09225
0.0387241
-1.55915
0.503573
1.43165
-2.93557
0.00748126
-1.27044
-0.748553
-8.38192
-0.53484
-6.34459
-3.28749
0.624776
1.47422
-7.41795
0.0895813
-7.10228
-0.690028
-8.37914
0.112182
-7.26762
-8.17585
-0.819951
-2.10653
0.36841
-8.67964
0.342006
-7.76614
-0.0353586
-1.43273
-5.69305
0.499098
-5.3953
-9.63474
-4.54823
-7.44516
-6.57897
-8.75653
0.0618068
-2.90574
0.775911
-7.04318
0.728002
0.939437
-0.535893
-2.01703
-1.09805
-0.0270086
-7.86956
-6.24761
-1.18172
-8.56334
0.23073
0.139934
-9.64259
-5.02708
-7.26633
-5.63996
-0.625305
-0.974243
1.36653
-3.05543
-9.6305
0.397956
0.943734
-0.452216
-8.92568
1.0509
-0.250878
-9.69809
-1.36601
-9.49955
-2.55565
-0.92251
-3.76409
-1.63582
-4.16396
-0.101677
-8.94333
-5.8853
-6.1883
-1.19486
0.251816
0.283834
-0.314638
-3.8394
-0.148386
-1.15766
-0.824223
-0.625168
1.05768
-1.29808
-9.18657
-3.28719
0.906551
-7.96986
0.686227
-0.706254
-9.31902
-3.40578
-8.04616
-2.17639
-0.274347
-8.5868
-2.30457
-8.1572
-8.43605
-0.584534
-0.947377
-0.291732
-1.7908
-2.25717
-9.68421
1.24721
-9.73768
-5.47984
1.00314
-5.45085
0.472659
-9.49365
-4.99387
-9.9745
-4.98849
-7.29372
-10.0479
-0.807051
-1.17663
-10.367
-8.21922
-1.86489
-7.4712
0.405775
-0.157046
-0.162353
-8.86855
-0.374531
-3.31548
-10.0712
-10.6595
-10.6957
-9.35582
-4.51453
-5.05152
-0.978212
-3.22842
-9.58678
-10.3416
-9.18352
-0.250577
-9.93924
0.342426
0.48619
-0.0842785
-6.26628
-2.94708
-1.17234
-1.4536
1.31429
-0.0775287
-1.77229
-10.3851
-2.55983
-6.3986
0.439759
0.247194
-2.2817
-8.56749
-0.790896
-7.45071
-9.9993
-7.20913
-1.59428
0.372224
0.288185
-7.71724
-8.8211
-1.07655
-1.49399
-1.82688
1.20449
-6.41709
-9.53153
-7.26345
-0.396052
-7.64639
-0.920343
-5.20835
-6.93245
-2.75493
0.348504
-0.300319
-9.73585
-9.45236
-5.71042
-10.0461
-0.612055
-1.86604
-9.65288
-1.42456
-1.03177
-9.57684
-7.47477
-1.56452
-1.32179
-2.71248
-0.569442
-2.6058
-6.75637
-0.919883
-0.627138
-5.57367
-8.29451
-1.84885
-1.36838
0.091981
-0.0654665
-9.53572
-0.80079
-8.97031
-5.19333
-10.0282
-10.3601
-9.83462
-9.97235
-9.11917
-1.8137
-0.988983
-2.87851
-0.710985
-1.90013
-0.807012
-2.83525
-7.21587
-1.70124
-6.5214
-1.17185
-9.63836
-0.764696
-7.77824
-9.88842
-10.0611
-0.0473057
-7.11201
-2.92255
-2.53313
-1.0818
-1.42689
-9.06248
-2.37684
-10.1536
-1.07463
-9.8099
-9.6365
-10.0305
-9.94467
-9.98494
-9.87439
-9.19413
1.08792
-0.353286
-1.51612
-0.533933
-9.59907
-1.32732
-9.68156
-8.07224
-1.75182
-10.4609
-0.531644
-1.0825
-9.00411
-3.45408
-9.90078
-7.44616
-0.0758065
-1.35694
-5.69246
-9.61574
-6.15798
-1.13901
-1.69986
-1.75345
-0.687219
-1.38131
-9.52312
-4.39454
-2.30456
-1.84756
-0.101125
-9.45767
0.213333
0.410175
-9.02595
-0.630383
71.3063
19.7391
34.209
23.8612
25.6237
21.2143
19.8385
17.4963
12.8054
60.4352
17.8654
27.9915
20.4322
21.4642
18.4623
17.3411
15.4626
13.5291
48.0811
14.471
22.4368
17.2515
17.8224
15.7896
14.8336
13.3402
11.7109
37.0232
10.3744
16.9708
13.7861
14.2743
13.039
12.378
11.3318
10.0578
26.8853
6.64703
12.0604
10.4585
10.9564
10.3292
9.97923
9.39688
8.45723
17.5792
4.04905
7.97774
7.54996
8.02985
7.82584
7.70539
7.41595
6.93473
9.6071
3.19493
4.92677
5.23562
5.61879
5.68008
5.71708
5.64551
5.48009
3.47669
3.41432
2.81304
3.51244
3.75951
3.96673
4.09724
4.17774
3.85163
-0.796047
3.13134
1.27423
2.24756
2.41245
2.69612
2.87534
3.00542
3.03531
-3.43311
2.0359
0.180643
1.36278
1.51686
1.83769
2.04619
2.22
2.30566
-4.92076
0.856138
-0.414919
0.836385
1.00207
1.3198
1.53055
1.71141
1.89965
-5.15249
0.476582
-0.454128
0.637295
0.78127
1.05326
1.23545
1.38116
1.71098
-4.08831
0.812247
-0.0489205
0.670892
0.750598
0.951437
1.09591
1.24032
1.39375
-2.97069
1.21648
0.395524
0.77021
0.791469
0.925999
1.03912
1.1774
1.25862
-2.26193
1.42026
0.708423
0.840993
0.828738
0.914087
1.00338
1.11997
1.22338
-1.6406
1.43644
0.871377
0.851783
0.830895
0.887787
0.96366
1.06235
1.18565
-1.28785
1.18425
0.859007
0.789886
0.787696
0.83703
0.909224
0.994004
1.16512
-1.24353
0.698767
0.686416
0.666004
0.705208
0.764854
0.84289
0.930098
1.07994
-1.21147
0.244675
0.479432
0.522178
0.601296
0.675772
0.75917
0.84929
0.957104
-1.10441
-0.0312753
0.296359
0.384511
0.490866
0.580822
0.672353
0.770733
0.887451
-1.09561
-0.185667
0.129865
0.25708
0.37757
0.479501
0.576038
0.682136
0.762309
-1.25833
-0.232446
-0.027167
0.138173
0.261021
0.371693
0.473564
0.592548
0.577044
-1.65124
-0.128662
-0.157957
0.0428872
0.159333
0.272162
0.376705
0.496084
0.453923
-2.14584
0.0276733
-0.379294
-0.153409
-0.0347966
0.0928878
0.233193
0.388954
0.329336
-2.22027
0.531031
-0.0723782
0.125148
0.193864
0.213159
0.307718
0.454557
-0.290282
10.9376
10.6932
10.7459
11.1104
11.572
12.1706
12.9134
13.8041
14.8391
16.0052
17.2825
18.6438
20.0552
21.487
22.9013
24.2496
25.503
26.6249
27.5877
28.3838
29.0776
29.8152
30.3137
30.1056
29.733
29.9615
30.7811
31.7764
32.6239
33.5497
34.5943
35.3317
35.6444
35.7368
35.7129
35.5893
35.3909
35.2013
35.0697
35.0948
35.3688
36.0718
37.1852
38.5537
40.2336
42.3211
44.8186
47.5481
50.3545
53.3275
56.5552
59.9454
63.3831
66.6384
69.4668
71.8447
73.6775
74.958
76.0836
0.984499
0.351641
-0.159653
-0.654902
-1.12519
-1.55841
-1.94869
-2.28493
-2.54903
-2.78265
-3.0489
-3.29208
-3.44216
-3.49798
-3.45753
-3.3176
-3.07668
-2.73164
-2.27569
-1.69815
-0.979623
-0.0962092
0.941729
2.08653
3.01613
3.42279
3.28074
2.60126
1.77629
1.1411
0.691843
0.37418
0.130482
-0.0558426
-0.18821
-0.268585
-0.288087
-0.230711
-0.0799993
0.17742
0.545044
1.02601
1.63096
2.16607
2.44309
2.45903
2.27733
2.09604
2.06982
2.03836
1.91251
1.80954
1.90467
2.52087
3.76007
5.46386
7.50844
9.88374
13.1002
4.67008
4.7026
4.71066
4.78331
4.8998
5.05809
5.25698
5.49479
5.7693
6.07466
6.41433
6.79553
7.2173
7.67462
8.1641
8.68075
9.21962
9.77585
10.3462
10.9267
11.514
12.0992
12.6549
13.1345
13.5017
13.7741
13.9559
14.0188
13.9847
13.9385
13.8997
13.8605
13.8155
13.7762
13.7541
13.7604
13.8087
13.9137
14.0909
14.3539
14.7164
15.1872
15.7777
16.4816
17.3086
18.2689
19.4157
20.8592
22.6585
24.6609
26.6127
28.4378
30.2783
32.1468
33.916
35.5014
36.8397
38.0456
38.6292
1.5413
1.29141
1.10871
0.966432
0.855064
0.777439
0.733851
0.725017
0.750915
0.8107
0.903131
1.03091
1.19675
1.40357
1.65304
1.94622
2.28295
2.66105
3.07748
3.52617
3.99902
4.48322
4.96003
5.40329
5.78033
6.06582
6.24705
6.32511
6.32082
6.26346
6.17031
6.05069
5.91092
5.75686
5.59322
5.42553
5.25901
5.09964
4.95518
4.8332
4.74378
4.69761
4.71054
4.79797
4.98525
5.30123
5.78014
6.45366
7.33249
8.53802
10.1093
11.8261
13.5352
15.2048
16.7873
18.2939
19.8057
21.343
22.9021
2.84433
2.82115
2.80041
2.82567
2.88246
2.96888
3.08349
3.22476
3.39088
3.57969
3.78984
4.01991
4.26833
4.53439
4.81663
5.11388
5.42481
5.7468
6.07803
6.41478
6.75232
7.08374
7.40015
7.69182
7.94752
8.16088
8.32672
8.44492
8.51937
8.55825
8.56945
8.55745
8.52923
8.49158
8.44923
8.41104
8.38326
8.37149
8.38855
8.44404
8.55101
8.72409
8.98231
9.34559
9.83938
10.4856
11.3079
12.3173
13.5065
14.9229
16.5838
18.3664
20.1485
21.8211
23.3318
24.6794
25.8471
26.8854
27.5849
1.76608
1.6407
1.55369
1.50355
1.48106
1.48705
1.52187
1.58505
1.67643
1.79489
1.94105
2.11398
2.31347
2.53865
2.78815
3.06019
3.3527
3.65979
3.98122
4.31194
4.64699
4.97721
5.29386
5.59022
5.85078
6.07392
6.24979
6.38121
6.46732
6.51067
6.5181
6.48651
6.42526
6.34146
6.23102
6.10957
5.97645
5.82608
5.68381
5.55547
5.45569
5.40093
5.41146
5.51097
5.72897
6.0839
6.6066
7.30979
8.20529
9.29094
10.5564
11.9555
13.4184
14.9393
16.5208
17.9933
19.231
20.2713
21.182
2.08972
2.04449
2.01742
2.0254
2.05833
2.1158
2.19589
2.29906
2.4236
2.5662
2.72752
2.90537
3.10062
3.31082
3.53377
3.76908
4.01933
4.26918
4.52977
4.79258
5.06033
5.32033
5.56818
5.81043
6.01497
6.20352
6.35148
6.47591
6.56823
6.62559
6.66512
6.65943
6.6314
6.59674
6.52325
6.46102
6.39614
6.29261
6.22893
6.18178
6.16919
6.20501
6.30446
6.48912
6.79623
7.21397
7.79273
8.5207
9.41412
10.4636
11.6481
12.9283
14.2476
15.5811
16.8438
17.9657
18.9585
19.8154
20.4793
1.8542
1.76413
1.70269
1.67812
1.67119
1.6966
1.73622
1.81731
1.91694
2.00909
2.14899
2.30056
2.48049
2.68631
2.90215
3.14818
3.4147
3.6186
3.8638
4.12261
4.40765
4.67104
4.91097
5.1842
5.35918
5.55535
5.67471
5.79782
5.8883
5.94272
6.00416
5.96556
5.91839
5.89995
5.75329
5.70876
5.69711
5.42835
5.26799
5.11373
4.98967
4.90049
4.8567
4.88426
5.12947
5.3483
5.82408
6.3337
6.94624
7.74531
8.73935
9.90113
11.0704
12.2675
13.4851
14.6622
15.6871
16.6963
17.5267
1.87623
1.87656
1.85922
1.89325
1.93032
2.00148
2.06437
2.12296
2.23583
2.42672
2.48254
2.63577
2.8384
2.98943
3.22343
3.31664
3.57981
3.79747
4.02831
4.20173
4.44492
4.63315
4.82556
5.07449
5.18369
5.36864
5.43869
5.54806
5.68689
5.59984
5.79035
5.72401
5.59337
5.62076
5.43035
5.44516
5.21873
4.89389
4.97715
4.82979
4.72995
4.71808
4.62722
4.65617
4.84066
4.96728
5.301
5.65259
6.41639
7.18369
7.99003
8.89683
9.86358
11.0765
12.1717
13.1175
14.0458
13.8481
14.6405
-6.42072
-6.27761
-5.80223
-5.15798
-4.45695
-3.86886
-3.39985
-2.88659
-2.32262
-1.86035
-1.49642
-1.10788
-0.752049
-0.435461
0.0188874
0.616498
1.26256
1.94091
2.69028
3.54497
4.49255
5.51813
6.68979
8.29924
9.96622
-0.432053
-0.372034
-0.566278
-0.699063
-0.591516
-0.336192
-0.0587117
0.246148
0.525936
0.603052
0.459253
0.232203
0.00624697
-0.133815
-0.0570005
0.240976
0.591122
0.827343
0.86953
0.89644
1.08211
1.36825
1.71461
2.21138
2.3644
-1.59089
-1.54073
-1.42885
-1.2756
-1.03094
-0.748237
-0.473662
-0.217968
-0.00812858
0.0887231
0.0764595
0.01605
-0.0507022
-0.0785229
-0.00210047
0.18554
0.436595
0.711428
0.986563
1.30007
1.68595
2.14039
2.66674
3.28456
4.0946
-1.09476
-1.06196
-0.940352
-0.817382
-0.655292
-0.474479
-0.29349
-0.126453
0.0112641
0.0975637
0.134486
0.145873
0.154507
0.183071
0.255325
0.374465
0.524251
0.68766
0.85418
1.03262
1.23081
1.43931
1.64046
1.79233
1.96779
-1.00448
-0.96852
-0.842838
-0.720385
-0.573039
-0.419759
-0.268131
-0.130883
-0.0156999
0.0686271
0.123452
0.161921
0.198434
0.245731
0.317619
0.418473
0.544655
0.690937
0.854097
1.03659
1.24389
1.47798
1.74699
2.04638
2.50351
-0.86939
-0.813205
-0.687528
-0.579079
-0.451
-0.325407
-0.19896
-0.0857124
0.0126377
0.0927344
0.15328
0.203359
0.253352
0.308333
0.377679
0.46447
0.568187
0.686946
0.818375
0.960564
1.11481
1.2769
1.44723
1.60388
1.84386
-0.698545
-0.706375
-0.570795
-0.479604
-0.363665
-0.258663
-0.146495
-0.0489212
0.0389368
0.116622
0.177007
0.229983
0.286393
0.343907
0.41229
0.493736
0.588927
0.698429
0.821135
0.953322
1.10061
1.25931
1.44064
1.63336
1.94029
-0.530157
-0.616948
-0.462997
-0.393184
-0.282175
-0.192845
-0.0850779
-0.000608541
0.0755801
0.150855
0.205492
0.255156
0.318789
0.378352
0.446171
0.525151
0.615187
0.717616
0.831154
0.950577
1.089
1.23295
1.40686
1.59572
1.85436
-0.531644
-0.560626
-0.344606
-0.30557
-0.208643
-0.159951
-0.0615641
0.00464217
0.101838
0.175784
0.234969
0.273107
0.325629
0.376966
0.449983
0.525206
0.611883
0.712414
0.84861
0.971458
1.09795
1.246
1.39308
1.47215
1.63455
-9.31456
-9.65629
3.92165
4.91153
0.722524
0.602313
-4.85514
1.17242
3.52303
6.59117
-10.7892
1.00746
-11.6521
-0.487316
-12.5598
2.20052
-1.44581
4.84867
4.79544
-33.0299
-31.0143
2.75535
-8.17436
2.86432
1.0613
1.83037
1.02538
-0.103194
-9.56607
-4.98877
8.399
2.28075
-11.0891
-17.1289
-5.89829
1.02728
-4.16544
-11.6992
-6.87399
3.52713
-12.0456
2.72672
2.21913
-0.118103
1.30696
3.90181
-10.8893
-9.44176
-9.31776
-11.0104
-10.8437
-11.3071
-23.8662
4.83168
-4.56046
3.54246
-0.513493
-27.4386
0.0200441
-8.53503
1.20729
4.30208
0.729043
2.37318
1.1284
-0.219524
2.10584
2.81103
-7.23889
-10.4633
3.17422
3.29911
0.770021
-32.1833
0.476815
-32.4241
-30.9616
-10.9346
-0.433901
4.80256
-16.2551
1.30894
1.45021
-8.515
0.904105
1.26925
0.791803
-11.0951
-11.5591
1.74438
2.29506
1.23884
3.62037
1.08044
0.673587
-10.5592
1.74696
-10.4862
2.67054
-8.61413
0.251456
-12.4405
0.203133
2.6874
0.134233
0.28851
-8.07439
-20.0256
1.66222
-4.17338
2.28699
1.33948
-5.66595
2.49588
-25.1607
-9.2473
-12.0601
4.03219
-17.271
1.56907
1.9879
1.24431
3.02261
1.18434
-10.817
2.24199
-11.5054
-33.3288
-0.77306
-9.70154
1.53617
-32.2375
-10.2711
-12.506
-0.273533
0.789708
1.44935
0.336723
1.38279
-32.6251
0.948628
-5.62908
-9.03597
2.02174
-9.51087
1.85873
4.7864
-31.3887
1.23027
-5.90829
-1.94798
-1.15135
4.77191
-17.2296
0.958881
-9.47065
0.518252
3.57907
-28.4077
3.62245
2.36352
3.31296
1.68135
-10.4846
2.46901
-8.36901
-0.572716
0.811922
3.19336
0.472511
-0.468705
2.515
2.7494
-8.69223
1.51287
-0.0375985
-25.2914
-9.89101
-8.88426
3.20988
-18.7152
2.58833
-21.3162
-19.125
0.340403
3.11579
-8.79003
1.60618
-11.534
1.61634
-9.23793
-9.14946
1.39751
-4.58954
-14.7944
-11.4851
0.514297
2.66467
-9.33424
-9.37253
-5.75946
3.00526
1.4698
1.44789
-1.85698
3.78195
2.99973
0.261603
-9.76992
3.56979
0.106438
1.13387
-18.4341
-1.98
-1.8503
-11.4276
0.51957
3.26432
5.52142
1.07454
0.0983346
2.76604
1.05603
4.27949
4.16089
-12.0312
2.23649
-1.23482
1.64494
0.740626
-9.18139
1.12519
2.46279
1.61702
-6.75339
4.77737
-27.4638
-0.0856842
-19.6989
-15.2541
7.20826
1.14861
2.7158
-0.105603
0.740271
0.991321
2.19228
0.421321
2.01495
2.80254
1.68779
-0.0187988
3.38395
-9.67092
2.05272
0.558609
-5.67774
-30.5494
-28.2284
9.52723
2.24913
-0.777228
1.4785
0.836562
-32.0025
1.2775
3.89112
4.75259
-5.82082
0.839304
-29.3222
1.17646
2.54932
3.26524
5.48402
4.70401
2.49162
3.15614
-0.59048
-10.6715
-0.0689874
-1.79151
3.06297
3.40442
-8.62794
1.63936
0.155173
4.39563
-10.7972
-9.17346
-9.2341
1.90028
2.49701
-11.0913
-11.3363
-11.4901
-8.40471
1.7132
3.50264
-9.14668
-10.0116
2.20058
3.50991
1.52806
-6.31449
3.17713
-32.2096
2.63474
-32.7636
1.48316
2.74774
2.38993
-11.9408
-0.640671
2.53191
-3.49288
-10.8613
3.34332
1.09528
-10.5155
-28.894
1.70595
3.49248
8.24995
0.989762
1.29918
-12.1414
-21.6573
2.18056
-26.8873
2.28404
-14.8088
0.073844
5.78832
-11.4709
1.22242
1.26812
1.48544
1.49624
2.60214
1.12799
0.923208
-9.09002
0.977565
-31.9611
0.529224
0.449421
2.63809
0.817411
-9.67236
2.50413
3.82446
2.22446
-28.4769
-11.0724
4.11983
-8.3048
-0.474327
2.62879
-8.53767
-9.91146
-8.02085
3.2364
-12.1372
2.80462
0.709071
2.57514
-11.3191
1.33591
-11.1111
3.4813
-18.1482
-9.59074
-0.224228
-10.0854
1.46137
1.43449
2.86738
3.57577
5.27161
-8.07907
1.75525
-10.2295
-0.372822
-0.0465667
-9.80005
2.68459
-33.0174
-10.8659
-9.05011
-3.15018
3.92629
0.874303
-4.82163
-18.8453
7.59793
2.74486
-9.88656
3.55509
-9.41795
1.09833
2.39758
0.84822
-10.1313
0.834206
3.14735
-5.60127
0.901668
-0.828186
4.01489
-1.49909
1.21618
-8.97008
1.24233
1.80045
3.75223
-9.16792
-9.39113
3.67413
1.89002
2.25649
3.38803
1.74902
0.130726
3.50779
-10.3953
1.53046
3.36139
2.87828
2.31659
1.05119
0.535969
1.03703
-0.397013
-6.6438
2.74598
1.67924
2.47023
2.59107
3.52723
3.49808
-15.3869
-11.1269
-0.621992
-11.345
4.92386
-0.0240582
1.31162
0.0163809
-0.474925
-0.127276
2.45271
1.57119
-9.09567
3.14162
-10.4694
-8.24763
1.46319
2.31578
-32.2117
1.64975
-0.779883
-1.57575
-18.0312
-10.3906
0.898175
0.354354
4.55129
3.37973
-10.098
-0.0510159
0.817561
-7.6528
3.60259
1.22442
-18.2568
1.15846
0.6055
-31.0914
-30.588
-2.02079
-8.17822
2.95973
0.926247
-9.09098
0.819165
1.21347
4.07673
-6.11079
2.41615
-18.4396
2.04475
1.35955
-4.44545
1.25255
0.292212
-16.4604
1.19866
3.81248
-11.2393
2.23588
-7.97215
1.42344
-0.103449
-26.239
-17.6165
1.80795
1.63171
-5.43524
1.91892
2.5438
-15.2858
1.89362
1.27114
3.13913
-11.3593
-6.53576
-8.99008
1.41199
-2.76555
3.0458
-9.48113
-32.9936
5.00495
-15.8044
4.34563
-10.4835
-12.1984
3.41878
3.52744
0.10507
2.16103
4.56999
2.39847
1.50294
-0.820892
1.77464
-9.25567
-9.43202
1.93306
-11.3414
-3.8084
1.9322
-8.77182
2.23056
4.50894
1.65886
0.0590176
1.22755
2.90358
-6.25961
-8.45848
-0.750639
-9.65574
-9.09773
-10.7432
0.982301
2.76105
-8.83048
-10.2754
1.44911
-14.0484
1.60115
-16.1402
-5.23107
6.97641
-2.55101
-0.115587
2.45603
1.97496
-12.085
4.94282
-12.3279
0.363816
0.606803
-4.98799
-9.75003
-10.1237
0.0600641
2.23824
-32.1548
-24.0878
2.7757
2.79682
1.31445
-9.39481
2.57552
0.609847
-5.97621
4.11725
0.572418
0.826208
2.51681
-20.6787
3.09168
-0.114472
-17.9676
-9.26458
0.741348
2.60313
-9.06381
-0.0709584
2.85735
3.54462
-33.0224
2.14009
1.49411
3.97093
4.35549
2.43591
2.49155
-6.57196
1.05853
3.10653
0.179987
-25.8069
3.46857
0.480341
4.68648
2.78403
0.900159
1.50988
2.35265
-1.2845
0.557328
-8.6669
-8.67227
-0.11621
-8.59601
0.275437
0.693879
0.730343
3.04758
1.99314
1.59647
-26.5658
2.02962
1.17521
-1.08691
-22.9313
-2.70172
-0.347674
-0.225335
2.41474
0.724662
3.12776
2.26556
-0.431295
-8.78099
-19.9303
-28.2575
3.26582
5.50554
2.17067
4.60539
4.22828
-9.73526
15.2778
-32.9739
2.80344
-10.1389
4.71912
-10.7419
2.08386
0.802898
1.27852
-9.88712
1.19678
-0.203316
-24.4766
0.51
5.97368
1.0205
-9.84901
2.90497
1.67261
-13.0135
1.06658
3.60873
4.90438
2.60221
-23.3282
3.44924
1.48241
3.8864
-0.359171
2.78949
-9.44455
-8.84039
2.08739
-6.31233
3.6046
-10.2488
1.41931
3.10186
2.74255
1.77912
-5.36759
2.08515
2.62952
0.0571334
2.86247
1.98276
3.44673
4.14049
-8.56904
-19.1074
-1.69816
-9.95604
-9.32622
-6.68156
-6.1951
7.57113
0.558211
0.877031
3.14542
1.77529
-0.885313
2.0413
1.12427
-9.78765
1.63683
4.57238
0.60377
2.58776
1.5556
1.02232
-1.504
-19.8278
-9.84305
4.11671
-9.48642
-4.46182
-9.9374
-32.7606
-11.9636
-11.1022
4.64007
3.24544
1.90724
2.90373
3.22798
1.53984
-10.7383
-9.72766
1.24365
-29.3455
-0.329023
3.4199
1.09362
1.32289
-8.47011
4.54181
1.132
-4.79015
-19.8112
-20.1084
-10.4072
3.15045
3.19425
0.817374
2.96914
-9.53796
-1.44129
-8.03849
-18.6197
0.459066
-20.7839
1.68257
3.20096
0.148855
0.532485
0.368551
3.63848
2.00618
1.90189
1.47531
1.62192
2.26506
1.48605
2.34036
3.60806
-10.1101
-8.65301
2.56629
2.42036
2.3465
-32.4407
0.958797
5.62049
2.19208
-30.0975
-1.75125
3.01574
1.10319
-10.0938
4.41745
-30.1072
1.6568
-30.7453
-12.4975
-24.3378
4.89194
-13.2695
-0.693416
2.2534
-8.70993
2.63703
1.09387
1.70476
-11.5026
3.88689
2.3093
0.866738
-10.9878
0.760426
4.38534
-1.22005
3.49308
2.44508
3.00387
-9.65271
-8.53173
2.90962
3.56824
3.00925
-30.9456
-6.56895
2.6131
0.945487
0.341061
-28.5825
3.50044
1.41371
-9.61765
5.15937
1.43065
4.89901
3.86605
-25.378
1.3835
-30.3287
3.46249
1.28744
-11.6347
3.05126
2.39361
3.21217
-0.0210688
-28.2891
-11.1825
3.13104
3.57651
1.30297
-13.5719
-32.4278
4.02009
1.62998
-12.9393
-11.2127
1.58782
0.230987
0.249096
-9.37755
3.70337
-31.3839
2.16984
1.60455
-20.1256
1.83183
4.98467
4.35229
-32.2328
-9.83889
-8.74514
-9.05468
3.69216
-8.74008
-13.8753
2.25062
-4.73603
0.992713
0.26398
-32.3485
1.51924
0.918366
-32.3172
4.58669
3.46475
3.36539
-11.1426
-0.691674
2.02699
-22.9765
-9.82423
-9.78656
1.75514
1.80878
-9.54992
-7.28413
-11.9011
-25.1648
-10.491
-1.25608
3.07329
-2.80448
-8.90454
2.97234
3.34944
-1.20345
-0.621238
2.29685
-2.78737
-8.56262
2.13242
0.385
2.42107
-8.57936
-4.73935
-9.89721
-9.26285
4.47933
-0.11055
-2.48711
1.51953
-9.73413
-25.3928
3.09108
1.43294
1.45266
3.24908
-30.363
-10.2795
1.31067
-9.22732
1.71443
-27.1597
2.89388
1.02128
1.21042
2.0223
-10.3395
-0.25915
-28.747
1.92736
2.07687
-8.63157
3.47593
-8.07149
-12.5179
-3.57281
1.34643
3.05538
-7.73613
1.80722
3.09699
1.22939
-4.57099
1.99024
0.151093
-27.1819
-6.11901
0.325801
1.77018
2.74526
2.76942
0.282938
2.53818
-27.4478
2.96812
1.68072
-9.0476
-32.6543
1.56167
1.75907
2.23331
-2.70811
3.35308
-9.33589
0.617302
0.278876
-5.22754
1.73476
1.83243
-1.24766
0.730857
-9.68771
5.08442
3.27994
2.90725
-5.53809
-5.4911
-12.0802
1.09484
-29.6655
2.02221
2.72024
1.98869
-9.52774
-18.7014
2.76681
-3.10818
3.5074
-9.79513
1.6104
-9.5311
0.787899
0.955831
2.95228
-2.8973
-10.5173
1.56129
2.15415
-32.3391
3.40614
1.68168
1.18634
2.88212
1.60725
-9.88504
2.41203
1.72423
-21.4796
0.0574198
-9.15181
3.26679
0.198879
2.34691
3.96865
3.19462
0.325271
-10.5466
3.96293
-0.439635
3.39725
1.42162
-2.98303
-9.21792
2.13004
2.4601
1.90386
3.06931
3.71069
3.28897
-9.412
4.8765
-32.398
1.88327
-9.33763
-5.25567
0.0546989
-32.1208
1.90294
-10.0117
-8.30926
-9.28594
1.31783
1.501
0.0623021
-10.1252
3.25593
4.39638
2.82073
1.77798
-2.73764
-0.225015
3.34838
0.407043
5.47997
8.73386
3.7596
-9.78526
7.53955
-11.6704
3.67357
2.41896
2.94409
5.32065
-22.3225
3.49178
-32.2462
-24.4415
0.93343
3.04161
-9.58253
-10.2589
3.31587
3.50627
3.39054
3.33672
4.72678
0.0849059
-10.2764
1.7064
4.67652
-16.9077
1.24591
-1.82516
-10.6393
2.75921
0.851832
2.98973
0.0415445
-21.7458
4.62908
-30.1824
0.807899
0.12714
5.49733
-12.5468
-12.7122
2.49937
5.26947
-29.2133
3.3255
0.250299
-2.3922
-9.74437
3.56355
4.35977
3.45315
-0.206266
-9.77486
0.713885
3.49115
-9.37296
-9.23169
3.19198
2.59681
0.388113
5.04706
2.40236
-21.2508
1.11337
-25.3854
1.28165
2.55517
1.06008
-24.043
2.37368
-10.4684
-2.34469
-3.1187
-9.35581
-10.401
5.05797
2.02909
-12.0055
-23.8354
1.41549
3.20221
1.31966
0.178831
2.40693
1.15291
1.49564
-0.212694
0.28925
0.00544209
-10.3287
0.295874
1.72335
2.48547
-9.40818
3.25456
-10.9427
-10.5979
0.349366
2.56481
1.80588
2.66156
1.66675
-28.7177
4.49953
2.80771
1.31311
2.88069
-22.5737
-12.5185
2.324
1.94938
0.413301
3.19233
0.873097
-0.0885657
4.61144
0.317433
-0.749134
-9.86844
2.93253
2.33577
1.61817
1.60856
1.31075
2.62923
4.45329
1.81976
3.2165
-12.3486
1.93782
5.02919
-9.33458
0.809383
-2.67112
-9.24051
2.8503
1.57943
2.86566
-13.7348
2.03497
-15.9587
3.00616
-9.82994
-10.6703
-33.0859
-9.8648
3.56428
1.23464
-32.0589
-28.7204
0.381095
2.95487
3.55583
-9.18434
2.76729
2.37336
3.43251
3.83498
-3.18484
3.49479
0.597824
3.28199
-10.1434
-32.4271
5.76989
4.76224
6.0679
2.496
1.42318
-3.32812
4.48501
-0.209189
-10.6768
-32.753
2.98971
-29.322
-9.52354
-32.6481
-10.0789
-0.73603
-13.6109
-11.5302
-9.01508
3.17858
-9.29599
3.57669
3.16185
4.43662
2.45445
-12.5425
-17.7256
-10.352
-18.2506
0.0871601
2.29242
-5.00563
-10.962
4.01069
-11.9586
3.1512
-32.7048
2.87884
-9.87147
-1.91678
0.154343
1.55647
-32.9111
1.33144
-1.30028
-32.556
2.71466
-9.3394
1.74835
2.2026
-7.8189
-4.8523
1.86702
-21.9957
-13.5464
4.7894
-24.7413
4.0518
2.2714
-0.029026
0.232428
-10.3534
-13.2813
3.26351
-12.416
0.700486
-28.7448
4.02939
2.40558
2.39693
-29.5434
-2.77733
-24.074
2.13901
-9.60427
0.701252
-24.3513
-11.9502
-1.70921
3.51756
-11.567
2.81695
1.86927
2.84456
-27.3804
-11.2166
1.1893
-12.2008
2.06991
1.52996
-5.11349
2.21834
1.1311
-13.1313
3.2848
2.95009
4.04178
1.28626
2.54815
4.67013
-10.0698
-10.3022
1.64844
4.03069
1.84443
-13.3915
-10.6241
1.24589
-0.850651
0.182804
-12.731
-0.88702
-2.36617
-9.60282
1.00498
-23.859
-12.0342
1.13505
1.38371
3.83793
4.08265
0.990077
2.04862
0.37754
-0.0559795
-10.8474
2.28888
-12.2023
1.03941
-11.3191
2.63373
-18.9546
-1.67806
-32.0152
-9.79064
0.443206
-0.99209
2.614
2.65602
2.42332
-9.58251
-9.17653
2.58289
2.97689
2.58898
3.00905
1.15409
1.79431
-11.448
-9.27136
-32.0662
-12.2807
3.83074
0.938698
-15.7696
3.32665
-9.85865
2.98218
1.25073
0.17532
2.02463
1.25378
2.4674
1.27576
-1.42868
-10.4307
-10.1452
3.58258
1.47982
-30.683
2.91962
1.45091
-5.52142
-9.68927
-9.02619
2.20221
-32.6987
1.46376
3.89253
3.46365
1.07735
10.0787
-2.46773
-6.81049
2.5799
0.0921963
-32.5714
2.19977
-10.8327
-9.04198
2.3345
-0.594562
3.34197
0.206125
-17.924
0.351688
-9.92879
0.209772
2.40099
0.224256
4.21099
-0.376703
3.91359
2.19212
2.52049
0.947673
1.95556
-23.5569
3.68316
-1.9002
1.73205
2.25548
2.82035
0.237674
1.49909
1.4129
-10.7099
1.83459
-10.6194
5.81366
-28.9259
3.00049
3.71561
1.17281
0.928169
-9.58702
2.67428
2.39835
2.50009
-1.51561
4.16861
4.67518
4.34909
3.14675
-6.9397
1.2823
1.79567
-12.8251
1.36156
4.75266
2.03666
-8.19132
2.14338
-10.405
-10.0524
3.54323
4.51553
3.18718
2.97279
-12.2068
3.22603
3.24431
2.57768
-22.9828
0.327729
3.55007
0.792552
-8.29644
-2.05845
0.406362
1.65733
-8.98425
2.65224
2.23854
-12.3218
2.05358
-3.0306
-10.7549
7.70641
-17.1816
2.72685
2.09382
4.01361
1.22611
0.287209
-8.81656
2.36658
5.07175
-11.0919
2.43495
3.56233
3.53734
-0.171891
-5.66046
0.969597
0.811724
5.23656
1.86878
0.784234
1.87634
0.213763
3.8117
-2.87298
-21.1486
0.885971
-11.2006
0.427173
-30.3618
-10.5097
-31.4025
-9.11688
3.81315
2.8479
-23.9012
3.35083
2.49519
-9.38676
1.97936
4.80143
-10.28
-13.55
2.45414
-9.28942
0.699918
-10.0785
0.51711
3.55258
2.41585
-0.0370158
-30.0464
2.37094
3.48458
-0.566596
1.49406
-15.0277
-0.127219
1.39863
-9.48454
-0.12475
-10.5477
-0.253073
-12.4279
2.18179
3.97585
1.87933
3.5841
-27.6856
-8.67172
-30.0422
0.715635
-10.0407
-25.3319
4.05429
-32.6332
-2.23287
3.19595
-31.482
-9.68474
2.96346
0.236295
0.611975
-12.0665
1.03159
3.30979
-26.533
-27.6414
-0.224764
-12.2576
-18.7488
1.51229
0.113397
-5.11122
0.320218
-31.3325
0.280707
2.77578
1.28547
-4.33782
0.85983
-2.65765
-10.5769
0.952226
-3.59379
0.707318
2.64348
-10.7665
2.7345
-32.3207
3.09928
1.32321
1.87842
4.83757
1.53173
2.0658
3.49977
0.456622
3.57049
-10.4391
-28.9551
1.47706
-32.6506
0.957784
1.30839
2.22475
2.34423
2.07684
-12.8564
3.33541
-4.22336
-10.8695
-9.89779
-31.1446
3.95278
2.84
-10.7724
2.59109
1.98624
2.03775
1.06193
1.81704
-9.45344
3.24668
3.73982
1.05408
0.205355
-0.0164806
-8.52935
-3.04848
-2.94453
-6.93793
1.57102
1.23632
4.49562
2.00819
1.04827
1.50287
0.194804
1.31649
6.05681
3.03087
3.32451
-4.16133
-11.0157
-10.9132
0.268112
3.80865
-3.01142
-9.034
-9.54676
0.693771
1.56425
-0.294982
3.0141
1.03611
0.245188
-9.09915
-3.12461
1.18975
1.81439
2.34657
0.144168
-10.517
0.528804
2.34076
1.49428
1.9998
-9.8379
3.94384
-16.7151
3.75084
0.400924
0.118956
2.87109
-9.84182
-1.98385
2.30378
-12.2079
-29.8828
-0.513767
3.26958
1.90675
-23.6251
-12.495
-12.4292
1.30293
-32.5662
3.19777
7.38173
-3.6683
-9.39638
1.11962
1.36774
-3.73931
-7.76871
4.39408
0.774322
-9.51705
1.23128
3.95073
2.5055
3.30242
4.59956
4.36749
3.09079
3.53878
-9.55354
3.17111
0.930734
0.673167
2.1796
-1.61773
0.443486
-26.2652
-2.69766
-3.0814
3.45589
2.35933
3.16149
3.50315
2.13037
1.23589
-28.8303
3.68359
0.53106
3.97098
3.36993
1.8501
0.261051
3.52559
-10.7034
1.08557
-30.5615
2.27488
5.83283
2.72822
2.39007
3.02585
-10.5251
2.79344
0.665951
3.35246
3.85668
-24.9324
1.47445
2.84336
-7.56791
-11.5258
0.963892
-9.79908
3.60116
-28.7121
3.15496
-10.4859
3.37874
-4.00244
1.48686
-10.4421
-0.0561099
-18.9283
-9.18374
-9.71647
-0.91455
-12.2844
1.3744
0.485471
1.27828
-10.2651
3.29404
0.431744
-32.5121
-10.0335
-9.79848
3.95266
-12.5799
0.165801
2.45865
1.13402
-2.32354
3.50545
-11.5909
2.19827
2.04566
4.36506
3.34935
3.38671
-9.60283
2.87832
3.95946
-10.0689
-2.54797
0.682893
1.57143
-9.31865
2.3663
2.57092
-11.2674
3.68913
2.25195
-5.35016
2.58236
0.158429
-33.0565
1.49078
3.26748
3.28701
1.04632
3.69555
2.16792
-11.1445
0.851191
-17.5044
-0.28494
0.168503
-9.75224
-0.306208
-0.67572
3.51591
0.725091
1.86247
0.855375
-9.83349
-9.35486
2.9689
2.29463
1.76127
-22.4033
0.363283
-2.86159
0.889367
0.145328
2.47007
3.74291
-3.27148
0.303996
-23.1434
-26.8454
3.04615
-18.5389
4.71828
-30.3083
-2.36119
1.09511
2.37811
0.42029
2.44545
2.19956
-21.4862
0.435587
-7.32125
-9.52848
-32.5415
2.56372
0.861827
-6.08164
0.97816
-5.57266
-12.1131
2.71526
-9.75298
-31.2969
-9.08349
3.47895
0.876937
1.53669
4.61879
-10.251
3.38813
-10.8185
3.13863
3.61232
-0.0701598
-10.0416
-25.4664
1.65949
3.43602
4.10121
3.20837
2.19951
-3.09669
-31.8173
2.35433
1.22338
-10.8388
3.4785
-28.2273
2.75074
1.8166
4.04465
-9.77271
2.67057
1.50106
2.92444
3.09626
-0.0894166
1.9813
-9.62299
0.0555177
1.55889
2.30487
1.38372
-32.1363
0.904124
0.617934
-11.9755
-10.0409
0.192259
-29.6463
3.7064
-9.15591
-32.3679
3.30694
-0.0663556
2.03278
1.87424
0.656843
-17.2708
-2.11403
7.28826
1.16223
-10.7301
0.0813198
-8.95531
-31.1423
-1.30167
3.1344
-8.60411
0.222939
1.21077
1.46198
3.74829
-31.9911
-11.3309
2.69979
-29.5156
1.58433
-30.9571
3.2817
-9.35717
-11.894
-9.21816
4.2221
-0.0908435
3.39232
0.265923
-32.0633
-8.96383
3.39517
-2.6816
0.736828
-10.8132
2.82384
-5.53369
0.360644
-9.33862
0.163726
-26.2241
-0.38036
-8.30032
-10.1896
3.13566
0.33266
2.25298
4.83404
1.90178
-7.0713
3.5439
1.84598
-27.8963
0.697804
-0.921749
-0.0717081
2.78537
3.24287
-30.122
-12.1434
-0.322233
-24.3193
1.52605
3.48656
2.24141
-10.4329
-29.4711
-10.6439
1.90997
2.64455
3.07224
-9.45097
-0.298935
-2.62872
1.78377
-11.5548
1.92837
-0.648499
-16.9316
2.81648
3.52045
0.352713
4.34809
1.68937
4.18847
2.06498
2.19505
2.7107
-11.0235
1.96237
-20.3912
-23.2629
-0.557905