/*--------------------------------*- C++ -*----------------------------------*\
  =========                 |
  \\      /  F ield         | OpenFOAM: The Open Source CFD Toolbox
   \\    /   O peration     | Website:  https://openfoam.org
    \\  /    A nd           | Version:  10
     \\/     M anipulation  |
\*---------------------------------------------------------------------------*/
FoamFile
{
    format      ascii;
    class       surfaceScalarField;
    location    "900";
    object      phi;
}
// * * * * * * * * * * * * * * * * * * * * * * * * * * * * * * * * * * * * * //

dimensions      [0 3 -1 0 0 0 0];

internalField   nonuniform List<scalar> 
16133
(
1.82409
0.168198
-0.363025
-1.62944
-1.41348
0.820158
-1.02486
1.61816
-0.525126
-2.36089
1.78536
1.10066
-0.276246
0.0709741
-2.73177
2.93703
-0.775447
-0.127028
4.24496
-3.34249
4.93358
1.52935
-6.19533
-0.267611
-2.39627
0.748244
1.43884
0.209178
-0.0292417
-2.1215
0.545065
1.60568
-1.23294
1.84887
1.26674
-1.88266
0.534175
3.51732
-0.153937
-3.89755
2.11102
-1.85355
0.829706
-1.0872
2.92934
-0.961632
0.841523
-2.80924
-0.130841
-3.68383
2.15926
1.65542
0.935011
-0.816197
0.562857
-0.681673
1.02834
0.609745
-0.703077
-1.08927
0.779748
-2.38996
2.69947
-0.604462
0.49266
-0.704399
-5.19289
1.23615
3.93119
0.0255624
-3.25063
2.68675
-0.669053
0.0261532
2.03034
-0.232412
-0.455479
1.80234
-1.51732
0.170458
-0.440618
-2.66968
2.83404
-2.67063
2.73497
-1.1536
4.16442
-3.34277
-0.00430985
-0.817332
-3.42271
4.13717
-0.180278
-0.00254161
0.00361922
-0.0673056
0.0662278
0.0209563
-0.00635512
-0.014163
-0.000438257
-0.211918
-1.77681
1.6344
0.354334
-0.0324834
0.0571387
-0.0437117
0.0190564
-4.27736
2.60179
2.19918
-0.659366
-3.54451
2.00471
-1.0733
0.939705
2.24461
0.671897
-1.93305
1.23191
-0.0229797
0.174584
-0.0262332
-0.125371
-1.94366
-1.90508
1.96375
1.88499
-0.864756
0.98124
0.991333
-1.10783
-1.57721
-2.87791
2.51146
-0.0308755
0.0775433
-0.0901532
0.0434853
0.0419652
0.0846262
-0.0224352
-0.104156
-3.11954
0.573533
-0.704631
-4.43302
0.00172505
-2.37225
-0.549146
-0.878192
-0.269533
0.054113
1.09361
-0.298825
2.43771
0.0586409
-2.19754
2.87636
-1.24591
-3.20766
1.81915
-0.774263
0.624875
-0.124316
-0.42265
-0.292718
0.595361
0.120006
1.4845
0.860178
-0.495802
2.80402
-2.64677
-0.597872
-1.09696
-1.48003
-4.12925
4.31035
-2.91886
2.73777
0.115983
0.0413996
-0.115418
-0.0229127
0.0356727
0.058961
-0.071721
-0.015805
0.0472506
0.0531805
-0.036596
-0.0233437
0.0274562
2.6778
-1.39955
-4.15616
-0.0411426
-0.0703939
0.105707
0.00582928
-0.563638
0.833393
-0.489521
0.219764
2.59187
0.0709055
0.0171353
0.0279423
0.844119
-1.17773
-1.07988
0.0648835
-0.0274247
0.0238649
-0.0613237
1.92085
-3.35637
2.93693
-1.5014
1.35113
-1.1454
-2.81339
1.9334
-1.48089
-0.480239
-0.172336
0.0889366
0.040514
0.255856
-0.0646999
-0.231671
0.707293
1.64011
-2.80992
0.333177
-0.866025
0.0344644
0.00883494
-0.066212
0.0937309
-0.02185
0.00785955
-0.0797406
-0.907044
0.386657
1.45954
-0.939158
1.46806
-2.40086
-1.88059
0.557412
-0.879491
1.35042
-0.700893
-0.966301
0.967421
0.699762
-3.10288
1.17518
-0.882225
-1.40892
0.894494
1.26267
-1.26407
1.16353
0.772433
1.27752
-1.16871
0.448608
3.0555
-2.91434
0.635458
-0.776632
1.7057
-1.52846
-0.293404
0.116157
0.0541577
0.113745
-0.126503
0.0431179
0.0697185
-0.0771636
3.38742
0.507033
-0.838966
-1.02581
0.839791
1.11559
-0.929571
1.46798
-1.28858
-0.829757
0.650348
2.34357
-2.07616
-0.566257
0.913055
-0.496209
0.400038
-0.81688
1.65055
-0.757581
0.575004
2.66433
0.246718
-0.567482
3.37538
-0.640114
1.87893
-0.00502891
1.12162
-0.817337
0.608777
1.86558
-0.631617
0.416579
-1.18226
-0.708309
1.04191
2.83248
-0.499025
0.694458
-0.681061
-0.892889
0.836415
-0.335149
0.332128
-2.62732
2.89667
-0.65743
0.388058
1.00609
-0.807844
3.92993
-3.7114
0.782022
-1.00053
0.672827
-0.560794
0.350206
0.553866
4.2076
-0.831519
-0.0473403
2.03635
-0.131269
0.590357
-0.700686
-0.118267
4.38579
-0.880103
1.31814
-0.440329
0.399711
0.280624
-2.43847
-0.488922
-3.33049
-1.15634
-1.39756
-0.355064
0.224163
-0.402796
0.323369
0.253182
-1.83862
-2.4364
-0.655931
2.72296
0.829619
1.26707
-1.90143
-0.804594
2.13975
-2.79446
-0.450431
2.58894
1.65713
1.59356
-0.527742
0.565888
-0.223707
-1.04308
1.42957
-0.920095
-0.74562
0.475877
1.50057
-1.23083
-2.13169
2.42521
1.06091
-1.35443
-0.0463445
0.110733
0.00612596
-0.0705142
-0.61943
0.689385
1.00059
-1.12409
3.83711
-3.13453
-0.0519401
0.0455233
-0.0112433
0.0176601
1.12768
-1.18392
-1.85656
-1.34842
-1.83453
-1.02785
0.468885
-0.0162868
0.0934906
0.0165271
-0.059501
0.137425
0.0943501
-0.172275
-0.537383
0.622659
-1.26755
-0.499601
2.93759
-1.64208
-2.19919
-0.178564
-0.116289
-0.0525626
-2.46535
3.41863
-0.029921
-0.155951
-0.294368
-0.654743
1.76394
-3.64858
2.5394
2.92479
0.893137
-0.929595
0.726022
-0.689571
1.19478
-1.25629
0.979956
-3.18836
-0.785766
0.763339
-0.582041
2.32858
0.928105
-3.91143
-0.475708
0.120762
-0.0677039
-1.06197
-3.54525
1.77945
-1.56748
2.85006
1.24246
4.00377
1.83593
-0.146802
0.0305146
0.269565
-0.153278
2.83678
0.903307
-1.3149
0.731094
-1.37278
1.03999
1.62038
-1.28761
4.18669
0.998282
-1.90327
-3.28169
-0.921959
0.456962
-2.40197
2.70155
3.19435
-3.17301
-0.139609
-0.339658
1.24975
2.6694
2.82484
-1.73368
1.35652
-1.55589
-2.87729
-0.335134
2.76198
-2.37947
1.6401
-1.1052
1.84456
-3.20214
-3.80282
-0.2053
-2.48631
0.431193
-0.500624
-0.837613
0.00721123
0.00114117
-0.00473809
-0.00361436
-0.345594
0.557671
2.89169
-2.82554
0.861951
-1.12503
-1.27262
-1.1065
-0.64786
0.608301
-0.156015
0.19557
-2.23968
-0.377356
-0.0601858
0.118704
-0.00137928
-4.75309
-0.462276
-1.9735
0.991421
0.0952282
-0.0706672
-0.784253
-1.00117
1.84138
-2.24913
2.09752
2.92945
2.55748
2.50625
-1.87433
0.136861
0.0550749
-0.137778
-0.0600959
-0.00813096
0.783105
-1.26828
0.764076
-1.2578
1.60856
-1.90244
-0.57027
0.751919
-0.686921
-1.05999
0.00161377
1.47264
1.06647
0.138285
0.0141845
-0.183345
-2.39137
2.04861
0.174685
-0.923487
1.08008
-1.76131
2.56936
-0.554896
-0.559131
0.0567536
0.0698825
-0.0617526
3.00111
-0.236216
0.0235321
-0.263023
1.83078
1.09656
2.93931
0.0133053
0.0148622
-0.788281
0.869944
-0.475018
1.32198
0.12844
-0.120784
-0.156802
0.149146
-0.0547092
0.0521675
0.407116
0.0730718
-0.0796882
-0.0535694
0.673022
-0.294385
0.229662
0.277697
-0.113728
-0.19389
0.746979
0.079933
-1.17251
-0.0264215
-0.0846033
0.144242
-0.0332171
1.60187
0.0534626
-0.0580298
0.00456708
-0.496806
-1.00699
2.69754
-3.50427
0.965957
0.734393
0.434699
-0.423218
-0.167495
-1.61184
-0.00124664
0.836769
-3.38373
-0.0488607
0.0523853
0.0190435
-0.0225682
-0.366527
-3.3237
-0.0862393
-0.0177687
0.0775863
-2.55581
-0.434715
-2.04715
3.84656
-1.96362
-0.0281125
-0.127769
0.0712784
0.22394
-0.282131
0.186631
-0.0242413
-0.0485712
0.0362165
-0.898387
1.35919
-0.573511
1.40904
0.830762
-0.631244
0.0108275
-0.0221847
0.0113572
-0.940707
-1.26421
0.024808
-0.0381409
0.0133328
1.20023
-3.23648
0.788794
0.832945
-0.385929
1.11954
0.0204862
0.00432181
0.313391
-0.159078
-0.18795
0.322896
0.140037
-0.505336
1.47225
-0.349207
-0.535039
2.80827
0.15769
-0.0602126
0.0393836
-0.177114
0.121913
-0.663382
0.880063
-1.55807
-0.353126
1.72218
-0.504465
2.91946
0.0477151
0.00445234
0.186874
-2.75554
0.967491
-0.524312
-1.46128
1.0875
0.718905
0.221162
-1.58142
1.36772
-0.156095
-0.0319108
0.0672218
4.60287
-0.0738348
0.0429169
0.0828733
-0.0826724
-0.108744
0.158836
-1.32338
0.129633
0.0458246
-0.09627
0.0283646
0.0322672
-0.0606318
-0.450595
-2.40713
3.13125
-0.381091
0.259473
0.165015
-1.45425
0.00735983
0.00346764
-0.85246
-2.96599
0.225923
0.0413498
0.0899699
-0.0884029
-0.255897
-0.152907
-0.0139112
-1.2641
-0.0868938
-2.24676
-1.19179
-0.0097763
0.125149
0.243846
-0.155486
-0.632394
-0.0264234
0.0197047
-0.0207061
0.0550387
0.149329
-0.149293
-0.226961
-1.59954
-2.52606
0.0442676
0.00344738
0.119374
-1.49394
0.0254767
0.918644
-0.01077
0.0294032
0.0594205
0.0755994
-0.0936701
0.413119
0.134398
-0.00482601
0.0316008
-0.0425092
-0.0125789
0.0108805
-0.135075
0.213036
-0.104194
-0.00515343
0.0136544
0.0456247
-0.00135707
0.00014672
-0.00488483
0.139581
0.0251771
0.00322633
-0.00935993
-0.160557
1.24459
-0.906364
0.825308
0.0230358
-0.0986902
-0.01124
0.180586
-0.270007
-0.419978
0.662144
0.47151
-1.1365
-0.997448
-0.023281
0.0336708
-0.0455098
0.0267359
-0.0624263
-0.0123817
0.0185854
0.000536339
-0.000611067
0.0462357
-0.0618112
-0.0528475
1.31301
-0.0106087
0.0381048
-1.58855
0.380017
-1.16843
-0.478936
-0.0774842
0.00457974
-0.0158197
-0.0406322
0.0155938
-0.0423247
0.0529114
-0.0125934
0.404807
-0.549202
-0.717098
0.619959
-0.0475033
-1.09211
-0.329527
-0.0610646
-0.0313258
-1.08863
-0.930577
-0.0219533
-0.0434272
0.0268614
0.115216
-0.405921
0.0380286
0.0183302
-0.0445216
1.02252
-0.016176
0.0259551
-0.00158437
-0.0519295
3.00955
-0.00893952
-0.201537
-0.705009
-0.184671
-0.667468
-0.00464413
0.1241
-0.119456
-0.00893826
0.129935
-0.125641
-0.0132021
0.14178
-0.137516
-0.0177828
0.151667
-0.147086
-0.0225729
0.161508
-0.156718
-0.0277497
0.170369
-0.165192
-0.0332367
0.179047
-0.17356
-0.0391276
0.187363
-0.181472
0.195518
-0.189507
-0.0451384
-0.00380325
0.127903
-0.00775832
0.13389
-0.0115848
0.145607
-0.0156722
0.155754
-0.0198846
0.165721
-0.0244396
0.174924
-0.0292756
0.183883
-0.0344464
0.192533
0.201026
-0.0399545
-0.00333991
0.131243
-0.00673068
0.137281
-0.0100648
0.148941
-0.0135938
0.159283
-0.017256
0.169383
-0.0211877
0.178856
-0.0253678
0.188063
-0.0298299
0.196995
0.205786
-0.0345901
-0.0029623
0.134206
-0.00579235
0.140111
-0.00858752
0.151736
-0.0115356
0.162232
-0.0146289
0.172476
-0.0179542
0.182181
-0.0215045
0.191613
-0.0253154
0.200806
0.209902
-0.0294309
-0.00258384
0.13679
-0.00484616
0.142373
-0.00707843
0.153968
-0.00944484
0.164598
-0.0119575
0.174989
-0.0146819
0.184906
-0.0176289
0.19456
-0.0208296
0.204007
0.21338
-0.024308
-0.00208752
0.138877
-0.00380057
0.144086
-0.00548269
0.15565
-0.00727493
0.16639
-0.00920687
0.176921
-0.0113317
0.18703
-0.0136549
0.196884
-0.0162035
0.206556
0.216183
-0.0190063
-0.00131664
0.140194
-0.00256131
0.145331
-0.0037434
0.156833
-0.00500251
0.167649
-0.00636274
0.178281
-0.00787693
0.188545
-0.00956829
0.198575
-0.0114499
0.208438
0.218282
-0.0135491
-0.000288469
0.140482
-0.00116983
0.146212
-0.00189861
0.157561
-0.00263708
0.168388
-0.00343324
0.179077
-0.00434635
0.189458
-0.00539585
0.199624
-0.00660334
0.209645
0.219611
-0.00793193
0.00066259
0.13982
0.000179516
0.146695
-5.75e-05
0.157798
-0.000262162
0.168593
-0.000484768
0.1793
-0.000783011
0.189756
-0.00119462
0.200036
-0.00172422
0.210175
0.220277
-0.00239083
0.00126641
0.138553
0.00130868
0.146653
0.00166668
0.15744
0.0020542
0.168205
0.0024328
0.178921
0.00273341
0.189455
0.00293771
0.199832
0.00302445
0.210088
0.220295
0.00300743
0.00154935
0.137004
0.00224067
0.145962
0.00327608
0.156405
0.00428294
0.167198
0.0052586
0.177946
0.00614149
0.188572
0.0069279
0.199045
0.00759224
0.209423
0.219767
0.00812001
0.00174608
0.135258
0.00318565
0.144522
0.00486209
0.154729
0.00644504
0.165615
0.00795386
0.176437
0.00938003
0.187146
0.0107019
0.197723
0.0119289
0.208196
0.218728
0.0129676
0.00231188
0.132946
0.00441932
0.142415
0.00652945
0.152618
0.00853536
0.163609
0.0104739
0.174498
0.0123334
0.185287
0.0141115
0.195945
0.0157928
0.206515
0.217128
0.0173927
0.00318791
0.129758
0.00577533
0.139827
0.00816459
0.150229
0.0104645
0.161309
0.0127093
0.172254
0.0148836
0.183112
0.0169862
0.193842
0.0189974
0.204504
0.215197
0.0209284
0.00394715
0.125811
0.00694057
0.136834
0.00955699
0.147613
0.0120617
0.158805
0.0145128
0.169802
0.016912
0.180713
0.0192417
0.191513
0.0214743
0.202271
0.213045
0.0236265
0.0043289
0.121482
0.00766211
0.133501
0.0104735
0.144801
0.0131519
0.156126
0.0157663
0.167188
0.0183228
0.178156
0.0208036
0.189032
0.023185
0.19989
0.210753
0.025477
0.00403905
0.117443
0.00769942
0.12984
0.0107415
0.141759
0.013623
0.153245
0.0164047
0.164406
0.0191022
0.175459
0.0216902
0.186444
0.0241653
0.197415
0.20844
0.0264782
0.00323818
0.114204
0.00706138
0.126017
0.0103878
0.138433
0.0135117
0.150121
0.0164806
0.161437
0.0193163
0.172623
0.0220094
0.183751
0.0245493
0.194875
0.206074
0.0269153
0.00253478
0.111669
0.00624139
0.12231
0.0097251
0.134949
0.0130427
0.146803
0.0161853
0.158295
0.019165
0.169643
0.021974
0.180941
0.0246151
0.192233
0.203588
0.0271009
0.0021484
0.109521
0.00560251
0.118856
0.00907979
0.131472
0.0124898
0.143393
0.0157497
0.155035
0.0188471
0.166546
0.021765
0.178024
0.024489
0.189509
0.20107
0.0270068
0.0019867
0.107534
0.0052298
0.115613
0.00862689
0.128075
0.0120509
0.139969
0.0153824
0.151703
0.0185817
0.163346
0.021621
0.174984
0.0244581
0.186672
0.198497
0.0270319
0.00203827
0.105496
0.0051504
0.112501
0.00845503
0.12477
0.0118466
0.136577
0.0152212
0.148329
0.0185208
0.160047
0.0217051
0.1718
0.0246986
0.183679
0.195721
0.0274738
0.00240116
0.103095
0.0053865
0.109516
0.0085855
0.121571
0.0119213
0.133242
0.0153337
0.144916
0.0187524
0.156628
0.0221449
0.168407
0.0253588
0.180465
0.192873
0.0282068
0.00306868
0.100026
0.00588688
0.106697
0.00896416
0.118494
0.0122653
0.12994
0.0157347
0.141447
0.0192835
0.153079
0.0229442
0.164746
0.0264331
0.176976
0.19035
0.028956
0.00375596
0.00629703
0.009373
0.0128108
0.0164793
0.0202654
0.0244543
0.0291554
0.0348345
-0.0995688
-0.00119261
0.100761
-0.0981927
-0.00137612
-0.0966053
-0.00158743
-0.0947763
-0.00182896
-0.0926819
-0.00209439
-0.0902989
-0.002383
-0.0876088
-0.00269017
-0.0846023
-0.00300646
-0.0812724
-0.00332992
-0.0776272
-0.00364519
-0.0736768
-0.0039504
-0.0694353
-0.00424143
-0.0649232
-0.00451207
-0.0601623
-0.00476094
-0.0551831
-0.00497913
-0.0500153
-0.00516787
-0.0446953
-0.00531987
-0.0392601
-0.00543521
-0.0337528
-0.00550726
-0.0282222
-0.00553063
-0.0227288
-0.00549328
-0.0173518
-0.00537699
-0.0121753
-0.00517639
-0.00723191
-0.00494342
-0.00243093
-0.00480092
0.00238102
-0.00481194
0.00735856
-0.00497748
0.0126381
-0.00527955
0.01821
-0.00557179
0.0239459
-0.00573594
0.0297395
-0.00579351
0.0355211
-0.00578157
0.0412422
-0.00572101
0.0468548
-0.00561263
0.0523125
-0.0054576
0.0575728
-0.00526031
0.0625945
-0.00502157
0.0673374
-0.00474296
0.0717703
-0.00443273
0.0758665
-0.00409623
0.0796147
-0.00374809
0.0830168
-0.00340213
0.0860873
-0.00307042
0.0888868
-0.00279952
0.091499
-0.00261206
0.0939999
-0.00250093
0.096437
-0.00243687
0.0988348
-0.00239791
0.101192
-0.0023574
0.103498
-0.0023057
0.105739
-0.00224119
0.107896
-0.00215618
0.109954
-0.00205824
0.111894
-0.0019401
0.113701
-0.00180673
0.115364
-0.00166301
0.116875
-0.00151141
0.11824
-0.00136496
-0.00121598
-0.0961215
-0.00274458
0.0976734
-0.0944326
-0.00306494
-0.092599
-0.00342104
-0.0906095
-0.00381843
-0.088459
-0.00424489
-0.086135
-0.00470709
-0.0836331
-0.00519206
-0.0809416
-0.00569797
-0.0780547
-0.00621678
-0.0749632
-0.00673672
-0.0716554
-0.00725811
-0.0681225
-0.00777445
-0.064355
-0.00827954
-0.0603552
-0.00876067
-0.0561232
-0.00921113
-0.051665
-0.00962609
-0.0469912
-0.00999362
-0.0421169
-0.0103095
-0.0370563
-0.0105679
-0.0318258
-0.0107611
-0.026434
-0.0108851
-0.0208677
-0.0109433
-0.0150896
-0.0109544
-0.00907151
-0.0109616
-0.00286591
-0.0110065
0.00342671
-0.0111046
0.0097063
-0.011257
0.0158811
-0.0114543
0.0219578
-0.0116485
0.0279906
-0.0117687
0.0339882
-0.0117911
0.0399264
-0.0117198
0.0457666
-0.0115611
0.0514762
-0.0113222
0.0570211
-0.0110025
0.0623739
-0.0106131
0.0675115
-0.010159
0.0724233
-0.0096548
0.0771014
-0.00911078
0.0815493
-0.0085441
0.0857744
-0.00797319
0.0897868
-0.00741453
0.09361
-0.00689354
0.097236
-0.00642549
0.100641
-0.00601664
0.103806
-0.00566654
0.106724
-0.00535473
0.109382
-0.00505564
0.111783
-0.00475845
0.113932
-0.00445488
0.115848
-0.00415716
0.117558
-0.00386607
0.119086
-0.00358604
0.120459
-0.00331291
0.121693
-0.00304076
0.122813
-0.0027832
0.123833
-0.00253153
0.12477
-0.0023016
-0.00208695
-0.103469
-0.00448293
0.105208
-0.101592
-0.00494219
-0.0995703
-0.0054429
-0.0974043
-0.0059845
-0.0950805
-0.00656872
-0.0925931
-0.00719446
-0.089931
-0.00785412
-0.0870854
-0.00854359
-0.0840405
-0.00926172
-0.0807793
-0.00999793
-0.0772885
-0.0107489
-0.0735613
-0.0115017
-0.0695923
-0.0122485
-0.0653761
-0.012977
-0.0609096
-0.0136776
-0.0561986
-0.0143371
-0.0512415
-0.0149507
-0.0460463
-0.0155047
-0.0406189
-0.0159954
-0.0349642
-0.0164158
-0.0290828
-0.0167664
-0.0229768
-0.0170493
-0.0166531
-0.0172781
-0.0101411
-0.0174736
-0.00349137
-0.0176562
0.00324509
-0.017841
0.0100152
-0.0180271
0.0167619
-0.0182011
0.0234444
-0.018331
0.0300563
-0.0183805
0.0365922
-0.018327
0.0430335
-0.0181612
0.0493556
-0.0178831
0.0555278
-0.0174944
0.0615283
-0.017003
0.0673343
-0.0164191
0.0729279
-0.0157526
0.078298
-0.0150248
0.0834389
-0.0142517
0.0883444
-0.0134497
0.0930164
-0.0126451
0.0974551
-0.0118532
0.101656
-0.0110945
0.105606
-0.0103756
0.109298
-0.00970874
0.112715
-0.00908343
0.115857
-0.00849621
0.118736
-0.00793455
0.121371
-0.0073943
0.123779
-0.00686226
0.125965
-0.00634369
0.127945
-0.00584535
0.129735
-0.00537672
0.131353
-0.00493073
0.132821
-0.00450847
0.134155
-0.00411712
0.135378
-0.00375477
0.136495
-0.00341849
-0.00310858
-0.109845
-0.00625337
0.111616
-0.107934
-0.00685329
-0.105868
-0.00750881
-0.103639
-0.00821378
-0.101239
-0.00896861
-0.0986585
-0.00977522
-0.0958868
-0.0106259
-0.0929083
-0.0115221
-0.0897164
-0.0124536
-0.0863005
-0.0134139
-0.0826537
-0.0143957
-0.078763
-0.0153924
-0.0746247
-0.0163868
-0.0702274
-0.0173743
-0.0655696
-0.0183354
-0.0606417
-0.019265
-0.0554445
-0.0201479
-0.0499772
-0.0209721
-0.0442412
-0.0217314
-0.0382398
-0.0224172
-0.0319778
-0.0230284
-0.0254634
-0.0235637
-0.0187127
-0.0240288
-0.0117566
-0.0244296
-0.00463741
-0.0247754
0.00259297
-0.0250714
0.00987726
-0.0253114
0.0171622
-0.025486
0.0244073
-0.0255761
0.0315864
-0.0255597
0.0386793
-0.0254198
0.0456654
-0.0251474
0.0525209
-0.0247385
0.0592238
-0.0241974
0.0657483
-0.0235275
0.0720768
-0.0227476
0.0781933
-0.0218691
0.0840759
-0.0209075
0.0897132
-0.0198889
0.0950979
-0.0188344
0.100219
-0.017766
0.105065
-0.0166998
0.109626
-0.0156548
0.113889
-0.0146386
0.117839
-0.0136591
0.121479
-0.0127235
0.124806
-0.0118227
0.127836
-0.010965
0.130581
-0.0101394
0.133071
-0.00935259
0.135325
-0.00859693
0.137358
-0.00787912
0.139187
-0.00720495
0.140839
-0.00658334
0.142337
-0.00600622
0.143698
-0.00547835
0.144935
-0.00499141
0.146059
-0.00454212
-0.00413636
-0.119308
-0.00816551
0.12122
-0.117227
-0.0089338
-0.114975
-0.00976099
-0.112541
-0.010648
-0.109915
-0.0115945
-0.10709
-0.0126004
-0.104052
-0.0136639
-0.100797
-0.0147765
-0.0973153
-0.0159357
-0.0935964
-0.0171329
-0.0896324
-0.0183596
-0.0854159
-0.019609
-0.0809384
-0.0208642
-0.076196
-0.0221168
-0.0711782
-0.0233532
-0.0658833
-0.02456
-0.0603083
-0.0257229
-0.0544499
-0.0268305
-0.0483127
-0.0278685
-0.0418977
-0.0288323
-0.0352164
-0.0297098
-0.0282809
-0.0304993
-0.021112
-0.0311977
-0.0137377
-0.0318039
-0.00619701
-0.0323162
0.00146454
-0.032733
0.00920026
-0.0330471
0.0169643
-0.0332501
0.0247152
-0.033327
0.0324182
-0.0332626
0.0400428
-0.0330445
0.0475596
-0.0326642
0.0549395
-0.0321184
0.0621578
-0.0314157
0.0691915
-0.0305612
0.0760113
-0.0295674
0.0825969
-0.0284546
0.0889302
-0.0272408
0.0949922
-0.0259509
0.10077
-0.0246125
0.106245
-0.0232409
0.111411
-0.0218657
0.116254
-0.0204978
0.120771
-0.0191553
0.124959
-0.0178477
0.128818
-0.0165823
0.132361
-0.0153656
0.135597
-0.0142006
0.138544
-0.0130864
0.141222
-0.0120313
0.143662
-0.011036
0.145884
-0.0101016
0.147912
-0.00923327
0.149755
-0.00842585
0.151431
-0.00768226
0.152951
-0.00699825
0.15433
-0.00637047
0.155583
-0.00579582
-0.00527118
-0.128209
-0.0101559
0.130199
-0.126045
-0.0110974
-0.123701
-0.0121047
-0.121163
-0.0131862
-0.118416
-0.0143415
-0.115455
-0.0155611
-0.112268
-0.0168514
-0.108842
-0.0182019
-0.105168
-0.01961
-0.101238
-0.0210625
-0.0970424
-0.0225556
-0.0925733
-0.0240782
-0.0878203
-0.0256172
-0.0827765
-0.0271606
-0.0774378
-0.0286918
-0.0717999
-0.0301979
-0.0658597
-0.0316631
-0.0596228
-0.0330674
-0.0530884
-0.034403
-0.0462648
-0.0356559
-0.0391596
-0.036815
-0.0317909
-0.037868
-0.0241794
-0.0388092
-0.0163552
-0.0396281
-0.00835611
-0.0403153
-0.000224858
-0.0408643
0.00799391
-0.0412659
0.0162574
-0.0415136
0.0245242
-0.0415938
0.0327555
-0.0414939
0.0409168
-0.0412057
0.0489711
-0.0407185
0.056887
-0.0400343
0.0646362
-0.039165
0.0721865
-0.0381114
0.0795142
-0.0368951
0.0865928
-0.0355333
0.09339
-0.0340381
0.0998891
-0.03245
0.106068
-0.0307918
0.111916
-0.0290887
0.117415
-0.0273645
0.122561
-0.0256436
0.127345
-0.0239399
0.131773
-0.0222751
0.135848
-0.0206572
0.139581
-0.0190985
0.142988
-0.0176082
0.146094
-0.0161923
0.14892
-0.0148572
0.151493
-0.0136088
0.153832
-0.0124409
0.155958
-0.0113594
0.157891
-0.0103586
0.159647
-0.00943871
0.161239
-0.00858977
0.162684
-0.00781526
0.164
-0.00711174
-0.00646379
-0.138617
-0.0122707
0.140732
-0.136315
-0.0134002
-0.133813
-0.0146063
-0.131101
-0.0158979
-0.128169
-0.0172742
-0.125
-0.0187297
-0.121586
-0.0202654
-0.117914
-0.0218742
-0.113979
-0.0235445
-0.109767
-0.0252747
-0.105272
-0.02705
-0.100488
-0.0288628
-0.0954021
-0.030703
-0.0900097
-0.032553
-0.0843059
-0.0343956
-0.0782889
-0.0362149
-0.0719533
-0.0379987
-0.0653124
-0.0397083
-0.0583644
-0.0413509
-0.0511206
-0.0428997
-0.0435861
-0.0443495
-0.0357812
-0.0456729
-0.0277281
-0.0468624
-0.0194515
-0.0479047
-0.0109963
-0.0487705
-0.00240112
-0.0494595
0.00628716
-0.0499542
0.0150317
-0.0502582
0.023792
-0.0503541
0.032526
-0.050228
0.0411996
-0.0498793
0.0497641
-0.0492831
0.0581855
-0.0484557
0.0664341
-0.0474136
0.0744707
-0.046148
0.0822742
-0.0446986
0.0898146
-0.0430736
0.0970424
-0.041266
0.103948
-0.0393558
0.110509
-0.0373525
0.116714
-0.0352941
0.122546
-0.0331966
0.128002
-0.0310988
0.133074
-0.0290123
0.137773
-0.0269741
0.142103
-0.0249878
0.146079
-0.023074
0.149713
-0.0212419
0.15303
-0.0195095
0.156055
-0.0178819
0.158806
-0.0163599
0.161316
-0.0149509
0.163598
-0.0136414
0.165674
-0.0124351
0.167563
-0.0113271
0.169283
-0.0103099
0.170848
-0.00938061
0.17227
-0.00853357
-0.00775392
-0.149219
-0.0144924
0.151441
-0.14681
-0.0158089
-0.144198
-0.0172186
-0.141358
-0.018738
-0.138283
-0.0203488
-0.134952
-0.0220613
-0.131362
-0.0238546
-0.12749
-0.0257471
-0.123318
-0.0277157
-0.118865
-0.0297278
-0.114106
-0.0318097
-0.109031
-0.0339376
-0.103635
-0.0360985
-0.0979072
-0.0382809
-0.0918468
-0.040456
-0.0854447
-0.042617
-0.0786989
-0.0447445
-0.0716468
-0.0467605
-0.0642836
-0.0487141
-0.0566135
-0.0505698
-0.0486354
-0.0523275
-0.0403816
-0.0539267
-0.031877
-0.055367
-0.0231169
-0.0566648
-0.0141868
-0.0577006
-0.00511014
-0.0585361
0.00404857
-0.0591129
0.0132777
-0.0594873
0.02253
-0.0596065
0.0317598
-0.0594577
0.0409472
-0.0590668
0.0500101
-0.0583459
0.0589183
-0.0573639
0.0676699
-0.0561652
0.0761752
-0.0546533
0.0844505
-0.0529739
0.0924816
-0.0511048
0.100136
-0.0489204
0.107449
-0.0466683
0.114402
-0.0443057
0.120978
-0.0418704
0.127173
-0.0393913
0.132954
-0.0368797
0.138334
-0.0343927
0.143347
-0.0319868
0.147954
-0.0295952
0.152204
-0.027324
0.156091
-0.0251291
0.159621
-0.0230391
0.162834
-0.0210949
0.165761
-0.0192865
0.168427
-0.0176179
0.170856
-0.0160697
0.173066
-0.0146454
0.175079
-0.01334
0.176912
-0.0121432
0.178575
-0.0110431
0.180091
-0.0100495
-0.009135
-0.161162
0.163471
-0.0168014
-0.158624
-0.0183466
-0.155861
-0.0199814
-0.152841
-0.0217584
-0.149565
-0.0236251
-0.145998
-0.0256282
-0.142132
-0.0277202
-0.138002
-0.0298774
-0.133576
-0.0321418
-0.12876
-0.034544
-0.123672
-0.0368977
-0.118251
-0.0393587
-0.112448
-0.0419014
-0.106355
-0.044374
-0.0998737
-0.0469368
-0.093123
-0.0493677
-0.0860226
-0.0518449
-0.0785422
-0.0542409
-0.0706818
-0.0565745
-0.06255
-0.0587017
-0.0541064
-0.0607712
-0.0454451
-0.062588
-0.0365195
-0.0642926
-0.0272727
-0.0659116
-0.0178632
-0.0671101
-0.00831962
-0.0680797
0.00127087
-0.0687034
0.0109858
-0.0692022
0.0207554
-0.0693761
0.0304245
-0.0691268
0.0401104
-0.0687526
0.0496629
-0.0678984
0.0590024
-0.0667035
0.068248
-0.0654108
0.0772481
-0.0636534
0.0859865
-0.0617123
0.0943506
-0.0594689
0.102325
-0.0568948
0.110089
-0.0544326
0.117426
-0.0516421
0.124377
-0.0488213
0.130979
-0.0459936
0.137145
-0.0430457
0.142907
-0.0401544
0.148271
-0.0373514
0.153218
-0.0345415
0.157769
-0.0318754
0.161919
-0.0292797
0.165793
-0.0269132
0.169322
-0.0246235
0.172519
-0.0224832
0.175418
-0.0205173
0.178041
-0.0186924
0.180459
-0.0170642
0.182661
-0.0155413
0.184655
-0.0141373
0.186462
-0.0128498
0.188036
-0.0116236
-0.0106065
-0.0701175
0.00948563
-0.0784489
0.00833138
-0.085654
0.00720496
-0.0918414
0.00618736
-0.0975202
0.00567877
-0.103029
0.00550867
-0.10839
0.0053614
-0.113631
0.00524084
-0.118763
0.00513197
-0.123383
0.00461938
-0.126852
0.00346964
-0.128846
0.0019934
-0.129415
0.000568968
-0.12896
-0.000454469
-0.128089
-0.000871313
-0.127141
-0.000947995
-0.126082
-0.00105946
-0.124633
-0.00144908
-0.122464
-0.00216903
-0.119602
-0.00286201
-0.116316
-0.00328524
-0.112752
-0.00356451
-0.108973
-0.0037785
-0.105078
-0.00389536
-0.0043167
-0.0742827
0.0175562
-0.0821858
0.0162345
-0.0896814
0.0147005
-0.0968279
0.0133339
-0.10356
0.012411
-0.109837
0.0117856
-0.115702
0.0112264
-0.121091
0.0106292
-0.125775
0.00981665
-0.129601
0.00844493
-0.132607
0.00647589
-0.134815
0.00420075
-0.136196
0.00195019
-0.136686
3.59985e-05
-0.136238
-0.00131953
-0.134945
-0.00224096
-0.132966
-0.00303848
-0.130457
-0.00395821
-0.127574
-0.00505184
-0.124285
-0.00615079
-0.120449
-0.00712191
-0.115989
-0.00802464
-0.110823
-0.00894376
-0.10474
-0.00997908
-0.0113829
-0.0809174
0.0267526
-0.089651
0.024968
-0.0979703
0.0230199
-0.105857
0.0212204
-0.113163
0.0197173
-0.11981
0.0184328
-0.125773
0.0171887
-0.130979
0.0158357
-0.13535
0.0141872
-0.138952
0.0120472
-0.141895
0.00941846
-0.14421
0.006516
-0.145883
0.00362293
-0.146829
0.000982208
-0.146905
-0.00124373
-0.146036
-0.00310948
-0.144281
-0.00479355
-0.141767
-0.00647278
-0.138621
-0.00819782
-0.13486
-0.00991154
-0.130427
-0.0115547
-0.125276
-0.0131751
-0.119377
-0.0148433
-0.112685
-0.016671
-0.0188601
-0.0873666
0.0369555
-0.096911
0.0345124
-0.105923
0.0320321
-0.114384
0.0296813
-0.122188
0.0275207
-0.129246
0.0254909
-0.135508
0.0234509
-0.140935
0.0212628
-0.145518
0.0187706
-0.149332
0.0158604
-0.152468
0.0125544
-0.154959
0.00900759
-0.156767
0.00543126
-0.157812
0.00202637
-0.157961
-0.00109391
-0.157145
-0.00392586
-0.155367
-0.00657139
-0.152707
-0.00913327
-0.149238
-0.0116667
-0.144996
-0.014153
-0.13995
-0.0166014
-0.134075
-0.0190503
-0.127351
-0.0215665
-0.119801
-0.0242211
-0.0270455
-0.0937584
0.0480415
-0.10415
0.0449037
-0.113877
0.0417597
-0.122934
0.0387384
-0.131247
0.0358336
-0.138756
0.0329995
-0.145417
0.0301116
-0.151211
0.0270565
-0.156151
0.0237115
-0.160294
0.0200033
-0.163704
0.0159638
-0.1664
0.0117042
-0.168339
0.00736935
-0.169442
0.0031296
-0.169625
-0.000910872
-0.168811
-0.00473952
-0.16699
-0.00839225
-0.16421
-0.0119136
-0.160523
-0.0153534
-0.155966
-0.0187107
-0.150555
-0.0220121
-0.144315
-0.0252907
-0.137292
-0.028589
-0.129569
-0.0319441
-0.0353947
-0.10019
0.0598287
-0.111387
0.0561008
-0.121827
0.0521992
-0.131507
0.0484181
-0.140373
0.0447
-0.148393
0.0410192
-0.155523
0.0372415
-0.16176
0.0332942
-0.167126
0.029077
-0.171649
0.0245262
-0.175377
0.0196917
-0.178305
0.0146329
-0.180395
0.00945863
-0.181579
0.00431424
-0.181772
-0.000717944
-0.180931
-0.00558046
-0.179046
-0.0102776
-0.176127
-0.014833
-0.172223
-0.0192574
-0.167363
-0.0235698
-0.161589
-0.0277861
-0.154933
-0.0319474
-0.147437
-0.0360843
-0.139158
-0.0402236
-0.0443538
-0.106507
0.0726657
-0.118619
0.0682129
-0.129814
0.063394
-0.140162
0.0587656
-0.149632
0.0541702
-0.158216
0.0496035
-0.165858
0.0448831
-0.172579
0.0400155
-0.178391
0.0348895
-0.183316
0.0294504
-0.187384
0.02376
-0.190586
0.0178349
-0.19286
0.011733
-0.194144
0.00559826
-0.194389
-0.000473084
-0.193547
-0.00642296
-0.191603
-0.0122209
-0.188577
-0.0178599
-0.184497
-0.0233374
-0.179417
-0.0286498
-0.173376
-0.0338265
-0.166435
-0.0388885
-0.158633
-0.0438861
-0.150039
-0.0488181
-0.0536606
-0.112851
0.0868269
-0.125943
0.0813047
-0.137891
0.0753415
-0.14894
0.0698145
-0.159051
0.0642813
-0.168243
0.0587958
-0.176425
0.0530645
-0.183642
0.0472322
-0.189931
0.0411788
-0.195264
0.0347836
-0.199678
0.028174
-0.203185
0.0213413
-0.205667
0.0142154
-0.207088
0.0070196
-0.207404
-0.000157515
-0.206573
-0.00725403
-0.204593
-0.0142013
-0.201472
-0.0209809
-0.197241
-0.0275678
-0.191957
-0.0339342
-0.185668
-0.0401157
-0.178447
-0.0461088
-0.170307
-0.0520263
-0.161289
-0.057836
-0.0635093
-0.119632
0.102265
-0.133492
0.0951648
-0.146079
0.0879283
-0.157839
0.0815743
-0.168625
0.075068
-0.178493
0.068664
-0.18723
0.0618011
-0.194956
0.0549576
-0.201731
0.0479542
-0.207506
0.0405585
-0.212247
0.0329146
-0.216046
0.0251402
-0.218787
0.0169571
-0.220353
0.0085853
-0.220752
0.000241574
-0.219957
-0.00804905
-0.217946
-0.0162123
-0.214768
-0.0241593
-0.210397
-0.031939
-0.204875
-0.0394557
-0.198349
-0.0466423
-0.190857
-0.0536
-0.182409
-0.0604751
-0.17328
-0.0669644
-0.0733189
1.31103
1.1435
0.289607
-1.4331
-0.151563
0.484041
-0.332486
0.285173
-0.380967
0.0957937
0.351158
-0.414978
0.0638193
-0.281794
-0.518839
0.800633
-0.428543
0.744176
-0.315633
1.67102
-1.62049
-0.0505386
-0.0399552
-0.206753
0.246708
4.87577
-3.29848
-1.57729
-0.844008
1.77597
-0.931967
-0.870656
0.291507
0.579149
1.09523
-1.81257
0.717346
-1.0246
0.0963459
0.928251
0.119485
-0.121816
0.00233017
3.87613
-3.65967
-0.21646
-0.474307
0.322747
0.137938
-0.0271847
-0.110754
0.0384784
-0.0217608
0.327356
0.153625
-0.480981
-0.34901
0.224067
0.124943
2.82594
1.67048
-4.49641
-0.481707
0.816728
-0.335021
1.23087
-0.959728
-0.271146
-0.919427
0.300114
0.619313
1.05728
0.17359
-1.14747
0.701447
0.446021
-1.1278
0.222367
0.905436
4.27932
-2.45331
-1.82601
-0.0294162
-0.149361
0.178777
0.22621
0.469829
-0.69604
0.193615
-1.01338
0.819765
0.756943
0.77357
-1.53051
2.43847
-4.54628
2.10781
-0.29696
-0.0759413
0.372901
0.23371
1.32113
-1.55484
-0.902591
-0.122005
-2.64727