/*--------------------------------*- C++ -*----------------------------------*\
  =========                 |
  \\      /  F ield         | OpenFOAM: The Open Source CFD Toolbox
   \\    /   O peration     | Website:  https://openfoam.org
    \\  /    A nd           | Version:  10
     \\/     M anipulation  |
\*---------------------------------------------------------------------------*/
FoamFile
{
    format      ascii;
    class       volVectorField;
    location    "900";
    object      U;
}
// * * * * * * * * * * * * * * * * * * * * * * * * * * * * * * * * * * * * * //

dimensions      [0 1 -1 0 0 0 0];

internalField   nonuniform List<vector> 
10435
(
(1.59384 0.279316 2.15868e-23)
(1.52635 0.643019 2.60044e-21)
(3.12136 -0.200497 -1.39953e-20)
(2.08483 0.00615056 1.41104e-20)
(2.85567 0.230329 -1.47008e-20)
(3.63964 -0.119689 1.49051e-19)
(3.03384 -0.193375 -4.21276e-20)
(2.77139 -0.202543 1.35889e-20)
(2.60695 -0.215532 4.12768e-20)
(3.49801 -0.237745 -4.35645e-20)
(1.83307 0.565566 -4.21926e-21)
(2.56001 -0.232911 4.68625e-20)
(3.47124 -0.23824 5.132e-20)
(0.900184 0.568418 -1.40664e-22)
(0.989436 0.594448 -6.94094e-22)
(2.88431 -0.203655 -2.84836e-21)
(0.813729 0.5179 9.63133e-23)
(3.60779 -0.293493 1.91263e-19)
(2.54224 -0.221966 -1.59208e-20)
(1.69244 0.195264 -1.43242e-21)
(2.83302 -0.201058 1.24981e-20)
(2.07878 -0.114351 -2.10251e-20)
(2.96191 -0.204932 1.34323e-19)
(2.51724 -0.320674 -2.27166e-20)
(3.34826 -0.233265 4.70668e-20)
(0.224162 0.36517 2.32637e-22)
(0.0493907 0.0804495 8.58243e-22)
(3.28517 -0.215007 3.55198e-20)
(0.230166 -0.0575481 -1.85141e-22)
(3.57617 -0.266103 2.33088e-19)
(3.04625 -0.194251 6.14568e-20)
(2.0207 0.529239 -2.22336e-21)
(2.72562 -0.206074 -2.61849e-20)
(0.471998 -0.0384547 -1.00296e-21)
(2.71146 -0.22253 2.16461e-20)
(1.20064 0.771615 -2.41181e-21)
(2.76793 -0.221156 3.75971e-20)
(0.156668 0.266371 -3.71306e-21)
(0.356383 0.348954 3.02853e-23)
(2.54573 -0.244472 5.11412e-21)
(3.65405 -0.272478 -2.47267e-19)
(3.04094 -0.201972 -3.73967e-20)
(0.602053 0.622102 1.5283e-21)
(1.85402 0.152048 -1.58893e-20)
(2.85965 -0.214626 -9.12141e-20)
(2.53425 -0.283041 3.75825e-20)
(3.67034 -0.208359 -1.79807e-19)
(0.441293 0.496005 7.10174e-21)
(2.59641 -0.218256 1.11235e-20)
(2.06485 -0.223617 -7.88109e-21)
(2.77823 -0.204945 -2.47077e-21)
(3.27863 -0.133753 5.98343e-19)
(0.398355 0.366616 4.08298e-22)
(0.314998 -0.146978 -1.32037e-22)
(0.315157 0.354803 -1.29394e-22)
(0.1799 -0.088907 4.71456e-22)
(2.68567 -0.246451 -1.03411e-19)
(0.163725 0.196893 -1.40764e-21)
(0.685066 0.27482 7.11755e-22)
(2.63271 -0.243747 5.67726e-20)
(0.356316 0.375702 -1.7508e-22)
(1.40109 0.687293 -5.89584e-21)
(0.180524 0.0984701 1.7132e-21)
(3.14993 -0.0708799 -4.53653e-20)
(2.92093 -0.211276 -1.8023e-19)
(3.19217 -0.215478 1.25503e-19)
(0.617834 0.153484 -1.09592e-21)
(0.347411 0.260128 -5.17321e-21)
(2.82247 -0.198821 -2.07867e-20)
(2.46925 -0.360039 1.63819e-21)
(0.267939 -0.17009 3.88013e-22)
(0.176592 0.339459 -1.57504e-22)
(0.679817 0.707727 6.18208e-21)
(3.11863 -0.209119 -1.50257e-19)
(1.07976 0.600011 -4.50596e-22)
(0.733102 0.746644 1.00177e-21)
(2.41816 -0.384737 8.67177e-20)
(2.98764 -0.189629 9.0318e-20)
(2.69163 -0.208656 3.46176e-21)
(1.16382 0.498251 9.91258e-22)
(2.20809 -0.339043 8.63044e-21)
(1.55277 0.257234 3.88266e-22)
(0.439128 0.384922 -2.93328e-22)
(0.356139 -0.129649 8.15283e-23)
(2.27341 -0.3723 -1.79316e-20)
(1.19623 0.71385 1.10104e-20)
(1.36508 0.560619 1.41541e-21)
(1.8056 0.292099 2.80187e-21)
(1.09778 0.695625 9.07e-23)
(1.46393 0.497798 -1.40486e-21)
(1.93485 0.228039 -1.77313e-21)
(2.08887 0.159128 -3.29139e-21)
(1.64487 0.170985 9.20549e-22)
(1.17991 0.667114 3.28291e-21)
(1.57024 0.429738 9.23486e-22)
(1.11805 0.805328 3.81883e-21)
(2.22633 0.0720715 4.01004e-20)
(1.00879 0.68061 5.81549e-22)
(0.781133 0.373437 -1.72787e-22)
(2.43449 0.0776999 -5.07785e-20)
(1.05157 0.690897 2.32125e-21)
(3.20484 0.335233 -5.41173e-20)
(1.26865 0.618857 -2.21896e-21)
(1.68492 0.359586 1.95215e-22)
(3.38337 0.22949 -3.0342e-21)
(1.96718 0.0792788 -2.48221e-22)
(1.73531 0.0818779 3.7155e-22)
(2.14056 -0.29251 1.00063e-20)
(2.3412 -0.386543 -2.59347e-20)
(1.26082 0.463731 -2.35756e-22)
(1.98728 -0.156153 -3.21216e-21)
(2.98709 0.455779 -2.00904e-20)
(1.45775 0.335497 -4.17302e-22)
(1.36058 0.408401 -1.94325e-22)
(2.28966 0.169946 -2.62765e-20)
(1.98435 -0.0420442 5.86681e-21)
(2.54589 -0.00500134 -3.33133e-20)
(1.28607 0.668143 7.40012e-22)
(1.74413 0.443033 -8.26079e-21)
(2.44904 -0.106158 -7.97824e-21)
(2.62253 -0.0751668 -1.04366e-19)
(0.742604 0.795759 1.64041e-21)
(1.38229 0.616481 -8.08524e-21)
(0.911583 0.891064 -1.43822e-20)
(2.22732 0.689551 8.75792e-22)
(0.295931 0.374967 -2.86312e-22)
(2.3502 -0.0330444 4.89423e-20)
(0.796498 0.843577 -1.79481e-21)
(2.70632 0.09789 -7.33929e-20)
(0.0746474 0.272035 4.12223e-22)
(0.8521 0.874608 4.93175e-21)
(1.9871 0.721324 -1.05408e-20)
(2.81864 -0.20475 -3.38788e-20)
(1.06922 0.507823 2.32615e-22)
(0.156994 0.304449 -1.26477e-23)
(0.580352 0.464104 3.06069e-23)
(1.03941 0.885788 1.37418e-20)
(2.19648 -0.0756328 -1.40579e-21)
(1.61179 0.499957 2.46565e-21)
(1.88782 0.0324041 4.52279e-21)
(1.79053 0.112241 1.30953e-22)
(2.97161 -0.201992 -2.17238e-19)
(0.548084 0.0649259 -1.91034e-21)
(2.91132 -0.153817 3.83196e-19)
(2.16978 -0.186892 3.30389e-21)
(0.872356 0.762478 5.51297e-21)
(0.972986 0.896813 -5.02233e-21)
(3.37348 -0.0696402 -1.77282e-19)
(0.763964 0.600958 7.94551e-22)
(2.76602 -0.212464 2.14027e-20)
(0.382533 0.46699 1.22054e-21)
(2.79129 -0.229533 7.31641e-20)
(1.53449 0.38318 8.22422e-23)
(2.85558 -0.1984 1.71754e-19)
(3.42845 -0.163885 -1.56758e-19)
(0.317852 0.420427 -8.05226e-22)
(2.48121 0.627404 4.60509e-20)
(1.49074 0.558835 3.31502e-21)
(3.50638 -0.205532 -1.46307e-19)
(1.58622 0.759687 -1.72431e-21)
(2.86216 -0.225369 -3.2737e-20)
(0.978277 0.490371 -1.33272e-22)
(2.06769 0.32653 2.72046e-20)
(2.40676 -0.306087 2.54385e-20)
(1.18028 0.572156 1.65953e-21)
(2.78128 -0.0130891 3.04322e-19)
(2.69334 -0.211069 -4.54197e-20)
(2.38362 -0.202835 -2.25448e-20)
(2.52594 -0.319314 4.10345e-20)
(2.95232 -0.0868117 -6.43513e-19)
(3.33077 -0.21579 1.52722e-19)
(0.642192 0.644969 -2.55097e-21)
(0.0357889 0.00935349 -6.90075e-22)
(0.938319 0.765378 1.06971e-21)
(2.67519 -0.26515 -7.16474e-20)
(1.43269 0.784017 3.85185e-21)
(1.29327 0.731365 1.17022e-20)
(0.561229 0.469772 -4.18229e-22)
(1.90732 -0.0837138 1.66816e-21)
(0.282593 -0.0183313 1.56436e-22)
(1.66945 0.601322 3.50625e-22)
(3.58996 -0.0261798 -2.41918e-20)
(2.68404 -0.219477 -1.78967e-19)
(0.341838 0.389759 -1.20743e-22)
(2.90918 -0.211213 2.85133e-20)
(0.547942 0.597766 5.69925e-23)
(0.687616 0.730387 -3.99147e-21)
(2.93852 -0.187731 -6.906e-20)
(3.0523 0.160564 3.40937e-20)
(3.0823 -0.141283 -3.42453e-19)
(2.61843 -0.152831 2.40718e-20)
(0.476115 0.405039 -2.59038e-22)
(0.0995212 0.304782 -4.51278e-22)
(1.11445 0.864922 -1.20215e-20)
(2.74308 0.549295 3.52771e-20)
(2.87515 -0.190813 3.53835e-21)
(0.72508 0.677037 1.5724e-21)
(1.11338 0.749448 -4.25777e-21)
(0.498448 0.49725 -5.02269e-21)
(2.83277 -0.20883 5.87514e-20)
(1.13695 0.633463 -1.49889e-21)
(0.220232 0.320223 -9.48911e-22)
(3.37546 -0.225294 -1.15284e-20)
(0.209916 0.273932 -1.3524e-21)
(3.25769 -0.221307 -3.97954e-20)
(2.37282 0.264118 -1.21066e-22)
(1.89065 0.38851 1.55486e-20)
(2.29832 -0.149864 -1.3895e-20)
(0.253439 0.082014 1.20154e-21)
(2.25313 -0.247299 -1.15979e-20)
(0.43962 0.501601 7.65737e-22)
(3.02497 -0.206227 -1.8418e-19)
(2.75368 -0.133758 3.11896e-19)
(2.49528 -0.295121 2.10488e-20)
(0.0818347 0.0615044 -2.79384e-22)
(0.844249 0.649962 -2.80304e-21)
(1.29459 0.50634 5.10307e-22)
(0.448537 0.452736 2.61319e-22)
(0.21239 0.354158 -5.85357e-22)
(0.887161 0.444117 -8.73878e-23)
(0.330972 -0.0519935 5.13314e-23)
(0.627232 0.430526 -1.72618e-21)
(0.458256 0.102989 1.82711e-21)
(0.927798 0.818847 -1.40611e-20)
(0.255421 0.383406 -3.79165e-22)
(2.77041 -0.210281 -1.61866e-20)
(0.266482 0.349673 1.15416e-21)
(1.0405 0.76669 3.18921e-22)
(3.11421 -0.189963 4.15624e-19)
(0.796574 0.797515 -5.82432e-21)
(0.490097 0.345633 9.04932e-21)
(2.72959 -0.208427 5.76003e-20)
(0.241105 0.353731 1.87546e-21)
(2.73113 -0.25116 7.89955e-20)
(0.0648734 0.195093 -2.10658e-21)
(0.71922 0.45555 3.25717e-21)
(2.62065 -0.280987 -7.82731e-20)
(0.219747 0.367352 4.37925e-22)
(2.56938 -0.312557 -4.83853e-21)
(3.17869 -0.210921 2.49343e-21)
(1.74511 0.227488 4.33958e-21)
(0.302751 0.398289 -6.91876e-23)
(0.484351 0.489087 -3.14404e-23)
(0.229678 -0.11114 1.16967e-23)
(2.21298 0.305323 -5.66025e-20)
(2.65729 -0.21252 1.34692e-20)
(1.04351 0.828547 -1.69724e-20)
(2.85985 -0.192525 1.72023e-20)
(0.0951093 -0.0794759 -5.82835e-22)
(1.30434 0.809541 -3.2519e-21)
(0.157398 -0.136049 -6.87511e-22)
(1.23935 0.58547 -2.29545e-21)
(3.48469 -0.257568 -9.29942e-20)
(2.32877 -0.288519 -2.10408e-20)
(2.90773 -0.184339 -5.45565e-20)
(2.98884 0.0248997 1.49624e-19)
(0.104097 -0.11142 2.21473e-21)
(2.94921 -0.187547 8.49713e-20)
(0.393373 0.461451 -7.00563e-23)
(0.305061 0.375809 2.44551e-21)
(2.99596 -0.187659 4.71637e-21)
(3.26643 -0.194631 1.2343e-21)
(0.267752 0.38027 -1.08278e-22)
(2.42072 -0.365221 -5.69812e-20)
(1.3941 0.436277 1.65779e-22)
(0.588587 0.317505 -3.54975e-21)
(1.63779 0.305589 5.5889e-22)
(3.03497 -0.209716 1.20652e-19)
(0.423823 0.413111 8.16337e-23)
(2.52951 0.194449 1.13198e-20)
(3.03963 -0.186989 3.86139e-23)
(2.798 -0.197237 -8.04911e-21)
(2.871 -0.189815 -6.73273e-21)
(3.30738 -0.233754 -1.78105e-19)
(0.182047 0.355437 1.03541e-21)
(2.52249 -0.150773 -3.99074e-20)
(0.120191 0.262788 1.94547e-21)
(2.6488 0.349261 9.30229e-21)
(2.89406 -0.194649 2.16412e-20)
(2.7579 -0.203905 2.9381e-21)
(3.43081 -0.246558 9.84514e-20)
(0.636646 0.588246 1.45065e-21)
(3.09186 -0.191932 -3.49376e-21)
(0.995631 0.767163 -1.36165e-21)
(1.33338 0.526084 -1.00347e-21)
(0.502245 0.454698 5.21219e-23)
(3.20342 0.0603405 2.52802e-20)
(0.297165 0.338805 1.76862e-23)
(0.40026 -0.111515 4.3798e-22)
(0.396709 -0.0361273 -2.45835e-22)
(0.973104 0.835159 1.57138e-20)
(1.7685 0.745548 2.2885e-21)
(0.325648 0.0459183 -7.20029e-22)
(2.83142 -0.193685 1.68338e-20)
(0.340183 0.324496 -5.83677e-23)
(0.231002 -0.172017 -1.92115e-21)
(0.809135 0.731917 3.7716e-22)
(1.49519 0.36048 2.69461e-22)
(2.42858 0.43148 -1.60409e-21)
(3.1716 -0.210151 8.83582e-20)
(0.417324 0.375088 -1.70268e-20)
(2.52724 -0.333584 -1.81193e-20)
(3.15119 -0.198897 -1.27184e-21)
(0.0645733 -0.0476699 -7.41945e-22)
(2.21673 0.497287 -1.22771e-20)
(0.921705 0.677616 1.65933e-21)
(0.67988 0.533771 8.84887e-22)
(2.66297 -0.275136 -5.10366e-21)
(3.18207 -0.214392 -1.00079e-21)
(0.443396 -0.0980863 -2.02232e-22)
(1.82175 -0.00314252 1.23524e-21)
(0.221219 0.343058 2.8419e-22)
(1.20024 0.838194 6.16327e-21)
(3.30495 0.00948659 -8.22074e-20)
(2.6411 -0.216278 -8.21894e-21)
(0.195486 -0.156671 -4.55377e-22)
(0.362974 0.411182 7.47363e-23)
(2.9731 -0.193233 -3.88531e-19)
(0.426175 0.233883 -1.7914e-22)
(2.46597 -0.230687 2.95852e-20)
(3.52297 0.0928022 -3.38635e-20)
(0.163652 0.0311778 -1.70769e-21)
(1.43364 0.457501 -2.73097e-22)
(0.513329 0.427181 2.12733e-22)
(2.71465 -0.206534 -1.47715e-21)
(3.36087 -0.238532 -3.95168e-20)
(0.156976 0.35269 4.79507e-22)
(3.211 -0.204202 -1.87169e-22)
(0.51514 0.203613 -5.593e-22)
(0.110567 0.19736 2.75788e-21)
(2.61848 -0.226301 1.96038e-22)
(0.478828 0.00956518 5.38158e-22)
(0.481218 -0.0864276 -1.94293e-22)
(3.10092 -0.196419 4.08069e-21)
(2.76032 -0.244356 7.3953e-20)
(0.228323 0.18043 3.86994e-21)
(0.184754 -0.14182 -7.88485e-22)
(0.108247 -0.10105 -4.34144e-22)
(0.529614 -0.0520677 -8.36857e-23)
(0.0658926 -0.0182601 -1.39535e-22)
(0.133901 0.341984 -1.21203e-21)
(0.23579 0.373102 -6.57002e-22)
(0.393326 0.39107 9.36362e-23)
(0.0292308 0.0170612 8.21059e-22)
(0.0445686 -0.0164624 -1.09e-21)
(0.305544 0.407879 5.49195e-22)
(0.295188 0.162311 -9.39347e-22)
(0.0176175 0.153884 2.37707e-22)
(0.545592 0.445825 5.02116e-23)
(2.6733 -0.210739 -7.44254e-21)
(0.510167 -0.0722998 -3.36235e-22)
(3.3048 -0.231458 5.37342e-21)
(0.0238529 0.0495368 -2.47388e-22)
(3.28168 -0.208718 -7.60915e-22)
(2.68562 -0.210295 3.3875e-21)
(2.59055 -0.218804 -2.44439e-21)
(3.46732 -0.219936 -2.87185e-21)
(3.06135 -0.204446 -8.85046e-20)
(0.27296 -0.128977 -3.62925e-22)
(0.417918 -0.0760897 9.54854e-22)
(0.14135 -0.119414 6.79972e-23)
(0.254587 0.363192 -5.87294e-22)
(0.103462 -0.0425928 -7.66581e-24)
(0.464937 0.434224 -1.05793e-22)
(0.114503 0.0259219 8.74705e-22)
(0.113667 0.326173 -6.83403e-22)
(0.27894 0.276285 8.92589e-21)
(2.59225 -0.276848 -6.05067e-21)
(0.121913 0.327847 7.82337e-22)
(2.63836 -0.213293 8.15166e-21)
(0.280066 0.357655 -1.11132e-22)
(0.095489 0.303095 9.72994e-22)
(3.50352 -0.222243 -2.50154e-20)
(2.55955 -0.22444 -7.11149e-21)
(0.535045 0.483462 1.36935e-22)
(0.0218225 0.0920425 -7.72669e-22)
(0.123964 0.113644 -9.65006e-22)
(0.0361771 0.125265 9.13354e-23)
(0.366105 -0.0891037 -3.56373e-22)
(0.189188 0.36056 -2.72187e-25)
(0.0152708 0.132215 1.00115e-21)
(0.320062 0.365385 2.56406e-22)
(2.72529 -0.205203 -2.55944e-21)
(0.368702 0.133681 1.17362e-21)
(2.81502 -0.19569 1.77783e-21)
(2.653 -0.212994 1.09487e-20)
(3.35729 -0.213292 -5.80296e-22)
(3.42706 -0.219491 4.47182e-20)
(2.62324 -0.214376 -4.85445e-21)
(3.21533 -0.209726 -1.07368e-20)
(2.67908 -0.214936 -1.10386e-20)
(0.858518 0.82824 4.20545e-22)
(0.535836 0.569761 4.12727e-22)
(0.27539 -0.085903 -6.05633e-22)
(0.223453 -0.151977 2.7141e-22)
(3.15779 -0.203785 1.35363e-20)
(0.31605 -0.110556 1.00534e-21)
(3.51707 -0.241069 -1.06781e-19)
(0.019607 0.15748 -1.30795e-22)
(0.219512 0.0106465 1.24777e-22)
(0.0718497 0.268696 -1.91974e-22)
(0.402092 0.0291492 1.52498e-22)
(0.386913 0.438213 -4.79975e-22)
(2.96675 -0.195401 1.30342e-19)
(0.0831251 0.131613 4.17917e-22)
(2.77014 -0.20054 6.64819e-22)
(2.60025 -0.299942 -2.28143e-20)
(0.524367 0.529068 5.97562e-23)
(0.160639 0.351567 -7.4417e-23)
(0.0559871 0.19598 3.57628e-22)
(2.54711 -0.226449 1.04056e-20)
(0.0673343 0.237462 -9.68611e-22)
(0.139156 0.340999 5.06408e-23)
(0.318905 0.412152 9.6552e-22)
(0.143309 -0.0640813 -1.16105e-22)
(0.348779 0.379378 -3.09495e-21)
(0.147328 -0.0111194 -4.94544e-23)
(3.18837 -0.210684 8.38652e-20)
(0.215649 -0.174593 -5.10302e-23)
(0.184111 0.349359 -4.21144e-22)
(0.186614 -0.0288753 2.56062e-22)
(0.566013 0.00172031 8.5328e-22)
(3.56079 -0.274202 -8.03967e-20)
(0.615261 0.55068 7.48065e-22)
(0.59453 0.49104 -1.47667e-21)
(2.52479 -0.226373 -1.27211e-20)
(0.465535 -0.0678416 1.74928e-22)
(0.462185 -0.395925 1.04071e-21)
(0.487195 -0.392113 -8.49389e-23)
(0.5419 -0.400195 -5.46698e-22)
(0.579134 -0.407783 2.89451e-22)
(0.617398 -0.412973 -3.09784e-22)
(0.648321 -0.416172 -9.08873e-22)
(0.678249 -0.417899 1.89724e-22)
(0.70469 -0.418864 2.55367e-22)
(0.731599 -0.417893 2.61321e-22)
(0.494768 -0.387323 -7.01962e-22)
(0.519504 -0.383881 -6.31882e-23)
(0.571154 -0.390387 4.48155e-22)
(0.608623 -0.398088 -7.79669e-22)
(0.645095 -0.403476 6.94005e-22)
(0.675718 -0.407523 1.12394e-21)
(0.70458 -0.410089 -7.03646e-22)
(0.730696 -0.411826 7.20585e-22)
(0.755394 -0.412165 -3.5719e-22)
(0.528312 -0.371812 1.87343e-21)
(0.551149 -0.369419 4.30981e-22)
(0.599982 -0.375816 -8.86442e-22)
(0.636901 -0.383736 4.32728e-22)
(0.672098 -0.389554 -1.04684e-21)
(0.70232 -0.394316 -1.39882e-22)
(0.73043 -0.397725 -3.48859e-23)
(0.755994 -0.400325 -3.5794e-22)
(0.779843 -0.402048 -5.33782e-22)
(0.560654 -0.351336 -8.22135e-22)
(0.581146 -0.350053 1.86267e-22)
(0.627502 -0.356926 6.32026e-22)
(0.663706 -0.365296 3.76965e-23)
(0.69784 -0.37168 4.49548e-22)
(0.727663 -0.377091 1.2143e-21)
(0.755224 -0.381204 -7.26107e-22)
(0.780433 -0.384483 1.12648e-22)
(0.804122 -0.386991 2.44151e-22)
(0.590893 -0.327162 1.53377e-22)
(0.608524 -0.326606 -1.27976e-22)
(0.652703 -0.334281 2.21899e-23)
(0.688289 -0.343184 -2.06014e-22)
(0.721665 -0.350257 1.14719e-22)
(0.751237 -0.356295 -2.7353e-22)
(0.778519 -0.361046 9.45336e-23)
(0.803645 -0.364907 4.24328e-22)
(0.827512 -0.367777 8.57926e-23)
(0.617983 -0.300428 1.14923e-22)
(0.632563 -0.300011 -2.94001e-22)
(0.674893 -0.308708 6.72087e-23)
(0.710126 -0.317999 4.60216e-22)
(0.743054 -0.325761 -1.49893e-22)
(0.772544 -0.332387 -2.10661e-22)
(0.799748 -0.337766 -8.31755e-23)
(0.824946 -0.342222 -6.64985e-22)
(0.848851 -0.345895 3.17129e-22)
(0.640157 -0.272939 6.57336e-23)
(0.652916 -0.271349 2.13881e-22)
(0.693756 -0.281068 6.28137e-23)
(0.728936 -0.290327 -2.11244e-22)
(0.761666 -0.298635 4.46872e-23)
(0.791217 -0.305742 -2.19001e-23)
(0.818477 -0.311684 1.69285e-22)
(0.843799 -0.316696 -1.58399e-22)
(0.867826 -0.321059 -1.18915e-22)
(0.655905 -0.244666 -9.26955e-23)
(0.670015 -0.241091 1.5651e-22)
(0.709519 -0.251695 -1.64868e-23)
(0.744706 -0.260498 3.25608e-23)
(0.77732 -0.269173 -6.72059e-23)
(0.807007 -0.276638 2.35182e-22)
(0.834417 -0.283052 2.92887e-22)
(0.859918 -0.288601 -3.30702e-22)
(0.884199 -0.293086 1.01574e-22)
(0.665768 -0.212492 4.31034e-23)
(0.684438 -0.208285 1.57341e-23)
(0.722429 -0.220002 -8.90681e-24)
(0.757404 -0.228432 -5.51151e-23)
(0.789866 -0.237458 -2.47178e-23)
(0.819716 -0.245211 -4.10846e-23)
(0.847344 -0.252005 -2.33251e-23)
(0.873119 -0.257878 3.23509e-22)
(0.897486 -0.263039 -2.59771e-23)
(0.671373 -0.174809 -5.34883e-23)
(0.69574 -0.171955 -1.08893e-22)
(0.732016 -0.185354 -2.38744e-23)
(0.766665 -0.193998 4.34247e-23)
(0.799039 -0.203524 -2.55332e-23)
(0.82915 -0.211542 7.62774e-23)
(0.857123 -0.21858 1.89345e-23)
(0.883274 -0.224586 1.56967e-22)
(0.907993 -0.229661 -2.40456e-23)
(0.673321 -0.132948 1.06487e-22)
(0.702617 -0.132534 4.17606e-23)
(0.737283 -0.148104 -1.53789e-23)
(0.771906 -0.157496 3.65746e-23)
(0.804511 -0.167578 -1.70942e-23)
(0.835117 -0.175782 -3.03746e-24)
(0.86366 -0.182905 -4.3203e-23)
(0.890444 -0.188828 -1.67581e-22)
(0.915778 -0.19378 -4.04719e-23)
(0.672435 -0.0895983 -1.94781e-22)
(0.70418 -0.0923249 2.52061e-23)
(0.737535 -0.109844 1.60286e-23)
(0.772783 -0.119787 1.80548e-23)
(0.806098 -0.130052 -3.85192e-24)
(0.837486 -0.138144 8.11399e-23)
(0.866801 -0.14508 1.34313e-23)
(0.894349 -0.150681 -7.56694e-23)
(0.920505 -0.155926 -6.16933e-23)
(0.667615 -0.0485976 -3.70423e-23)
(0.699179 -0.0546329 -1.42716e-24)
(0.733186 -0.0721891 4.26323e-24)
(0.769629 -0.0817399 1.37129e-23)
(0.803981 -0.0913269 -8.51338e-24)
(0.836321 -0.0987311 -1.41987e-23)
(0.866508 -0.104978 -2.99694e-23)
(0.894851 -0.110011 6.20403e-23)
(0.922043 -0.114294 -3.36184e-23)
(0.655156 -0.011192 4.15828e-23)
(0.6897 -0.0188142 -5.93565e-24)
(0.725507 -0.0349997 -9.12064e-24)
(0.763176 -0.043279 2.83113e-23)
(0.798567 -0.0513472 -5.37038e-24)
(0.831841 -0.0574365 -3.1209e-24)
(0.862899 -0.0624262 -2.46849e-23)
(0.892063 -0.0663224 2.31337e-24)
(0.919847 -0.0689513 2.64123e-23)
(0.636993 0.0253636 -1.07198e-22)
(0.676413 0.0170653 3.30689e-23)
(0.714863 0.00291328 5.71922e-23)
(0.75375 -0.00368684 -9.37358e-23)
(0.790062 -0.0097208 1.04282e-23)
(0.824159 -0.0140492 3.79603e-23)
(0.856026 -0.0173579 2.8623e-23)
(0.886028 -0.0196244 4.48056e-23)
(0.91459 -0.0207237 -1.80182e-22)
(0.613358 0.0625789 -1.10022e-22)
(0.659282 0.0540978 -9.94188e-23)
(0.701026 0.042681 -1.02901e-22)
(0.741183 0.0378077 1.48371e-22)
(0.77832 0.0339536 5.08297e-23)
(0.813124 0.0315735 -2.70261e-23)
(0.845694 0.0301798 -5.70591e-24)
(0.876374 0.0298177 1.41934e-22)
(0.905375 0.0302613 -5.67163e-23)
(0.585501 0.102199 -1.5296e-22)
(0.637593 0.0935326 -6.40341e-23)
(0.683258 0.0850392 1.2946e-22)
(0.724846 0.0815758 -7.7951e-23)
(0.762861 0.0796941 -9.19247e-23)
(0.798368 0.0792148 3.5615e-22)
(0.831616 0.0797942 -2.55084e-22)
(0.862939 0.0815143 -1.24371e-22)
(0.892821 0.0834921 2.22161e-23)
(0.557853 0.14246 2.73874e-22)
(0.610816 0.134625 8.29967e-23)
(0.660546 0.129033 -5.29519e-23)
(0.703936 0.126844 8.07824e-23)
(0.743106 0.126719 2.44112e-23)
(0.77948 0.128073 -2.96059e-22)
(0.813487 0.130643 2.4068e-23)
(0.845455 0.134402 -1.68981e-22)
(0.875909 0.138737 -2.49617e-22)
(0.532519 0.179537 8.01392e-23)
(0.581322 0.173651 -8.54729e-24)
(0.633303 0.171861 -1.66171e-23)
(0.678438 0.171577 -2.47943e-22)
(0.718933 0.173436 7.43307e-23)
(0.756325 0.176754 1.17245e-22)
(0.791189 0.181365 1.60365e-22)
(0.823914 0.187093 2.2287e-22)
(0.855009 0.193668 -1.2998e-22)
(0.507953 0.212366 -4.88989e-23)
(0.550807 0.20871 1.57404e-23)
(0.603164 0.211306 1.26097e-22)
(0.649288 0.213873 -5.95235e-24)
(0.690873 0.218224 9.13825e-23)
(0.729196 0.223844 -6.11403e-23)
(0.764862 0.230704 -6.25326e-22)
(0.798242 0.238608 -1.12089e-22)
(0.829784 0.247289 1.36038e-23)
(0.483232 0.241922 -1.25774e-22)
(0.519946 0.239991 1.2083e-22)
(0.571493 0.24662 -3.33089e-23)
(0.617616 0.25264 -1.08077e-22)
(0.659771 0.25988 9.27325e-23)
(0.698729 0.26811 -2.96378e-24)
(0.735042 0.277393 1.50441e-22)
(0.769091 0.287508 1.75897e-22)
(0.80109 0.29886 -4.95918e-23)
(0.458058 0.267991 -4.40423e-22)
(0.488668 0.267645 -8.37099e-24)
(0.539049 0.277567 4.58162e-23)
(0.584296 0.287355 6.72029e-23)
(0.626398 0.29767 -2.46301e-22)
(0.665537 0.308694 9.75725e-23)
(0.702195 0.32049 4.87402e-23)
(0.736898 0.332798 -6.66785e-23)
(0.768864 0.347483 -8.64002e-23)
(0.432366 0.288716 -2.27778e-23)
(0.457229 0.291733 -4.67177e-23)
(0.506542 0.304375 -9.32058e-23)
(0.55019 0.318101 1.53202e-24)
(0.59161 0.331446 1.43077e-22)
(0.630394 0.345238 -2.70122e-23)
(0.66697 0.359412 -5.55605e-23)
(0.702062 0.373934 3.05843e-22)
(0.734186 0.3912 -9.53152e-22)
(0.405496 0.303626 -2.0093e-22)
(0.425549 0.312119 1.49367e-22)
(0.4733 0.326953 5.58789e-23)
(0.514681 0.344338 -9.32559e-23)
(0.554845 0.360423 3.16157e-23)
(0.592867 0.376942 -6.2993e-23)
(0.629051 0.393398 3.0161e-22)
(0.664765 0.410189 -3.56888e-22)
(0.697589 0.432326 9.28524e-22)
(0.376775 0.315161 -5.04606e-22)
(0.395847 0.332659 3.08942e-25)
(0.442228 0.350633 9.15225e-23)
(0.481635 0.370065 8.94723e-23)
(0.520247 0.387848 -4.32956e-23)
(0.556594 0.405942 -1.57922e-23)
(0.591411 0.423328 1.34228e-22)
(0.628361 0.440108 -4.37511e-23)
(0.663067 0.464116 6.47782e-23)
(0.36878 0.336803 -2.72941e-22)
(0.362228 0.334668 -3.23213e-22)
(0.355471 0.331395 -9.48178e-22)
(0.348005 0.327446 1.33319e-21)
(0.339662 0.322611 -1.00536e-21)
(0.330345 0.31686 7.55814e-22)
(0.319964 0.310144 3.04084e-22)
(0.308442 0.302417 -6.63101e-23)
(0.295733 0.293647 -5.56894e-22)
(0.281837 0.283812 -2.57939e-22)
(0.266812 0.272906 2.72552e-22)
(0.250778 0.26087 -3.24379e-22)
(0.233895 0.247661 8.65507e-22)
(0.216369 0.233249 -2.19516e-21)
(0.198429 0.21761 3.84353e-21)
(0.180335 0.200749 -4.37009e-21)
(0.16235 0.182702 3.92997e-21)
(0.144723 0.163534 -1.7562e-21)
(0.127666 0.143371 -5.72857e-22)
(0.111334 0.122408 6.09963e-22)
(0.0957523 0.100905 -2.1142e-22)
(0.0807304 0.0791916 4.53085e-22)
(0.0660636 0.0579438 3.58501e-23)
(0.0524414 0.0372577 -6.28706e-22)
(0.0422552 0.0162378 4.95466e-22)
(0.0370682 -0.00557507 -2.71425e-22)
(0.036767 -0.028486 3.40686e-22)
(0.0408393 -0.0527239 2.72787e-22)
(0.0463838 -0.0783558 -3.24601e-22)
(0.0517984 -0.104857 8.73464e-24)
(0.0579521 -0.131492 -2.93779e-22)
(0.0654795 -0.157869 2.62835e-22)
(0.0746332 -0.183744 4.96018e-22)
(0.0853504 -0.208804 -3.94343e-22)
(0.0974647 -0.232725 5.56864e-22)
(0.110763 -0.255296 -9.27788e-22)
(0.12497 -0.276313 6.76581e-23)
(0.139786 -0.295613 2.00428e-22)
(0.154918 -0.313085 -2.95611e-22)
(0.170093 -0.328649 6.58349e-22)
(0.185107 -0.342277 -3.74608e-22)
(0.199837 -0.354038 -1.61355e-21)
(0.214121 -0.363953 3.26389e-21)
(0.228721 -0.371807 -3.50362e-21)
(0.244403 -0.377611 3.03907e-21)
(0.261042 -0.38174 -1.7851e-21)
(0.27839 -0.38459 9.23949e-22)
(0.296157 -0.386496 -3.11202e-22)
(0.313992 -0.38772 3.0439e-22)
(0.331502 -0.3885 -3.09881e-22)
(0.348344 -0.389046 -4.57924e-22)
(0.364266 -0.38951 -1.49311e-22)
(0.379101 -0.389996 2.24636e-22)
(0.392751 -0.390557 5.94439e-22)
(0.405146 -0.391215 -8.83566e-22)
(0.416263 -0.391971 1.1462e-21)
(0.426133 -0.392807 -7.68984e-22)
(0.434814 -0.393687 -2.76846e-22)
(0.442484 -0.394586 -2.02419e-22)
(0.37989 0.289506 -1.99948e-23)
(0.373591 0.285657 -1.79394e-23)
(0.367008 0.281413 3.55554e-24)
(0.359983 0.276696 -4.90812e-23)
(0.352445 0.271546 -7.01e-23)
(0.344296 0.266005 2.16914e-22)
(0.335422 0.260109 -4.0024e-23)
(0.325717 0.253882 8.353e-23)
(0.315064 0.247321 -2.49234e-22)
(0.303397 0.240435 -2.67595e-23)
(0.290774 0.233041 1.36897e-22)
(0.277317 0.224904 8.80273e-23)
(0.263095 0.215944 -3.45974e-22)
(0.248174 0.206038 4.51993e-22)
(0.232675 0.195073 -4.68091e-22)
(0.216749 0.182948 2.18326e-22)
(0.200573 0.169588 3.02312e-22)
(0.184343 0.154942 -1.32023e-22)
(0.16825 0.13899 7.17471e-24)
(0.152475 0.121735 3.9246e-23)
(0.137191 0.103174 7.52086e-24)
(0.122621 0.0832379 -2.94833e-23)
(0.109251 0.0616868 6.16485e-23)
(0.0978883 0.0380789 -6.54387e-23)
(0.0892685 0.012569 2.01593e-22)
(0.0835481 -0.0142889 -7.49607e-23)
(0.0809127 -0.0417574 -3.03206e-24)
(0.0814884 -0.069081 2.8272e-23)
(0.0847818 -0.0957822 2.07881e-23)
(0.0897819 -0.121937 -7.13277e-25)
(0.0961946 -0.147693 -2.87148e-23)
(0.104142 -0.172943 -7.4264e-24)
(0.113679 -0.197454 -5.38351e-24)
(0.124652 -0.221008 3.21306e-23)
(0.136873 -0.243409 -1.14658e-22)
(0.150149 -0.264506 4.68615e-23)
(0.164269 -0.284189 -5.33628e-23)
(0.179029 -0.302401 2.76888e-23)
(0.194254 -0.319126 9.02256e-25)
(0.209821 -0.33438 -2.61134e-23)
(0.225677 -0.348193 -3.5725e-23)
(0.24184 -0.360592 2.35021e-23)
(0.258435 -0.371591 -1.38639e-22)
(0.275631 -0.381093 -1.2073e-22)
(0.293396 -0.388934 1.84558e-22)
(0.311506 -0.395009 -1.51217e-22)
(0.329571 -0.399417 6.35443e-23)
(0.34701 -0.402471 2.10729e-23)
(0.363379 -0.404448 -4.87766e-23)
(0.378587 -0.405452 2.93664e-23)
(0.392718 -0.405569 4.55947e-23)
(0.405776 -0.40496 -1.4448e-23)
(0.417797 -0.403833 1.64736e-23)
(0.428749 -0.402414 -5.53427e-23)
(0.438592 -0.400897 1.11263e-23)
(0.447429 -0.399394 2.77551e-23)
(0.455393 -0.397946 -4.44288e-23)
(0.462614 -0.396569 6.47276e-24)
(0.469259 -0.395322 -1.77499e-23)
(0.439697 0.267336 -2.49527e-22)
(0.433546 0.263424 5.36023e-23)
(0.427013 0.259141 -2.07163e-22)
(0.420078 0.254538 -4.51473e-23)
(0.412667 0.249616 7.10214e-22)
(0.404716 0.244392 -2.19593e-22)
(0.396158 0.238871 -4.32746e-22)
(0.386929 0.233033 3.49316e-25)
(0.376975 0.22683 2.59336e-22)
(0.366273 0.220175 -6.40646e-23)
(0.354822 0.212936 7.03945e-22)
(0.342615 0.205047 -8.49559e-22)
(0.329654 0.196436 7.7158e-22)
(0.315974 0.18701 -1.07487e-22)
(0.301648 0.176669 -7.07585e-22)
(0.286782 0.165305 2.23175e-22)
(0.271522 0.152817 8.59031e-22)
(0.256037 0.139105 -3.28896e-22)
(0.240528 0.12408 -8.64012e-23)
(0.225218 0.107654 2.09577e-23)
(0.210367 0.0897367 -2.27552e-22)
(0.196291 0.070227 5.00369e-23)
(0.183411 0.0490359 -6.04733e-22)
(0.172267 0.0261699 7.28565e-22)
(0.163469 0.00182654 -2.77887e-22)
(0.157479 -0.0236499 9.63416e-24)
(0.154482 -0.0498405 4.03502e-23)
(0.154403 -0.0762526 -1.72456e-22)
(0.156842 -0.102415 1.11182e-22)
(0.161302 -0.128088 5.73401e-23)
(0.167469 -0.153198 1.28038e-22)
(0.175179 -0.177654 -1.35372e-22)
(0.184316 -0.201308 5.74024e-23)
(0.194744 -0.224008 7.48858e-23)
(0.20631 -0.245621 -2.73236e-22)
(0.218856 -0.266042 7.47748e-22)
(0.232224 -0.285191 -4.871e-22)
(0.246271 -0.303017 -1.01916e-22)
(0.260884 -0.319492 -1.26483e-22)
(0.275987 -0.334598 -4.1678e-23)
(0.29154 -0.348319 -1.91844e-22)
(0.307527 -0.360626 -3.41494e-22)
(0.323938 -0.371473 7.96276e-22)
(0.340734 -0.380784 3.78726e-22)
(0.357782 -0.388497 -7.70814e-22)
(0.374829 -0.394617 -2.5852e-22)
(0.391574 -0.39925 8.05556e-22)
(0.407699 -0.402607 -9.44577e-22)
(0.422991 -0.404951 6.57319e-22)
(0.43722 -0.406588 -2.05423e-23)
(0.450408 -0.4076 2.80575e-22)
(0.462721 -0.407965 6.10833e-23)
(0.474098 -0.407842 -4.30392e-22)
(0.484466 -0.407416 -2.2177e-22)
(0.493906 -0.406794 6.81326e-22)
(0.502527 -0.406039 -4.71084e-24)
(0.510431 -0.405189 -1.86653e-22)
(0.517708 -0.404292 6.24982e-23)
(0.524419 -0.403363 -2.19953e-22)
(0.481235 0.254697 -1.81045e-23)
(0.475073 0.251451 1.43244e-22)
(0.468531 0.247903 -6.31963e-23)
(0.461537 0.244015 4.15937e-23)
(0.454044 0.239782 -4.1015e-23)
(0.446009 0.235196 9.03561e-24)
(0.437385 0.230241 -2.41697e-23)
(0.428128 0.22489 -4.86063e-23)
(0.418199 0.219101 2.94106e-23)
(0.407573 0.212821 5.1144e-23)
(0.396237 0.205988 2.47134e-23)
(0.384195 0.19853 -1.71121e-22)
(0.371469 0.190362 1.50301e-22)
(0.358099 0.181383 -5.56021e-23)
(0.344155 0.171478 1.39939e-23)
(0.329738 0.160529 -1.10828e-22)
(0.31498 0.148412 1.17786e-22)
(0.300049 0.13501 -5.98839e-23)
(0.285148 0.120208 -1.18249e-22)
(0.270517 0.103907 4.57994e-23)
(0.256436 0.0860213 -2.09213e-23)
(0.243228 0.0664909 -2.33822e-22)
(0.231268 0.0453015 1.33357e-22)
(0.220962 0.0225194 1.65874e-22)
(0.212697 -0.00166814 -1.27853e-22)
(0.206766 -0.0269545 1.55497e-23)
(0.203338 -0.0529583 1.45063e-22)
(0.202437 -0.0792691 -1.66866e-22)
(0.203927 -0.105514 5.43605e-23)
(0.207571 -0.131421 -1.47052e-23)
(0.213145 -0.156809 6.85765e-23)
(0.22046 -0.181527 -1.57725e-22)
(0.229348 -0.205434 1.1621e-22)
(0.239641 -0.228398 -5.20021e-24)
(0.251172 -0.250304 -1.37734e-22)
(0.263778 -0.271053 4.17518e-23)
(0.277305 -0.290565 1.50148e-22)
(0.291612 -0.308776 -4.75057e-23)
(0.306578 -0.325632 -6.5268e-23)
(0.3221 -0.341091 1.12006e-22)
(0.338083 -0.355107 -1.72669e-23)
(0.354432 -0.367636 -3.68278e-23)
(0.371033 -0.378634 2.302e-22)
(0.387745 -0.388069 -2.13302e-22)
(0.404382 -0.395937 9.35978e-23)
(0.420735 -0.402282 -1.39681e-24)
(0.436586 -0.407207 2.86402e-22)
(0.451755 -0.41086 -2.53859e-22)
(0.466114 -0.413405 1.23062e-22)
(0.479489 -0.415135 1.10571e-22)
(0.49176 -0.41628 1.40178e-22)
(0.503013 -0.416908 -1.41307e-22)
(0.513399 -0.417041 -2.9131e-23)
(0.523025 -0.416745 -5.09055e-23)
(0.531945 -0.416109 -8.47377e-23)
(0.540233 -0.415208 5.79898e-23)
(0.547911 -0.414121 -1.15788e-22)
(0.554998 -0.412918 2.35635e-22)
(0.561575 -0.411659 -6.407e-23)
(0.536188 0.247716 -3.36914e-22)
(0.53024 0.244283 3.92691e-23)
(0.523798 0.240567 3.17223e-22)
(0.516832 0.236568 -2.25278e-22)
(0.509292 0.232261 5.70881e-23)
(0.501144 0.227631 2.01261e-22)
(0.492356 0.222657 -2.43116e-22)
(0.482902 0.217308 9.48217e-23)
(0.472762 0.211543 3.05795e-22)
(0.461931 0.205309 -9.26434e-23)