/*--------------------------------*- C++ -*----------------------------------*\
  =========                 |
  \\      /  F ield         | OpenFOAM: The Open Source CFD Toolbox
   \\    /   O peration     | Website:  https://openfoam.org
    \\  /    A nd           | Version:  10
     \\/     M anipulation  |
\*---------------------------------------------------------------------------*/
FoamFile
{
    format      ascii;
    class       volScalarField;
    location    "1650";
    object      epsilon;
}
// * * * * * * * * * * * * * * * * * * * * * * * * * * * * * * * * * * * * * //

dimensions      [0 2 -3 0 0 0 0];

internalField   nonuniform List<scalar> 
10435
(
0.689596
1.18237
0.737373
0.917946
1.05573
1.10127
0.675079
0.568229
0.521252
0.993621
1.21928
0.822535
0.999811
0.205509
0.254305
0.630259
0.167459
1.1533
0.476601
0.748292
0.595921
0.858149
0.663496
0.566096
0.879159
0.0332708
0.0538983
0.8508
0.051539
1.08503
0.751845
1.21274
0.553182
0.0543521
0.597102
0.900516
0.631636
0.0561688
0.0231693
0.502771
1.18479
0.679405
0.0944726
0.894723
0.668032
0.530919
1.12059
0.0693227
0.503191
0.769037
0.582558
0.889326
0.0224842
0.0430759
0.0254917
0.0468074
0.631188
0.0605051
0.104235
0.582298
0.0251102
1.12027
0.0607179
0.902119
0.665163
0.782684
0.0825792
0.0774827
0.581935
0.592105
0.0422092
0.0440697
0.0625505
0.733543
0.314147
0.130836
0.63352
0.642812
0.536545
0.285652
0.745031
0.542628
0.0218528
0.0441229
0.71591
0.695389
0.739767
0.970238
0.459564
0.823515
0.986978
0.994775
0.607251
0.546224
0.889383
0.757482
0.958749
0.322872
0.128994
0.979451
0.380528
1.15726
0.644324
0.93723
1.13719
0.915242
0.662577
0.762205
0.680568
0.343236
0.763804
1.18141
0.474089
0.406401
1.02766
0.853106
0.934477
0.808449
1.07804
0.895935
0.891587
0.117483
0.908506
0.44137
1.30044
0.0293105
0.926215
0.175421
0.986638
0.0516146
0.290987
1.33471
0.604514
0.235027
0.0492403
0.0209884
0.83863
0.907559
1.04387
0.83021
0.795129
0.708112
0.070003
0.816956
0.852906
0.256425
0.647092
0.97278
0.166396
0.787103
0.0547347
0.674614
0.757087
0.774813
0.943522
0.0422074
1.26006
0.98782
0.971503
1.35984
0.730985
0.192464
1.0828
0.793567
0.385724
0.919067
0.554103
0.862726
0.726793
0.874066
0.864746
0.0416026
0.0495952
0.317215
0.759255
1.33709
1.02434
0.107942
0.743287
0.0571711
1.21436
1.09362
0.812716
0.0275472
0.709956
0.0659047
0.0945172
0.621184
1.0481
0.8344
0.854199
0.0215593
0.0485348
1.01639
1.2174
0.597513
0.150603
0.577471
0.0895381
0.631127
0.422459
0.0565332
0.916954
0.0608849
0.834383
1.07933
1.09126
0.887332
0.063719
0.838052
0.0459047
0.683508
0.848995
0.785878
0.0538006
0.207249
0.460471
0.0283116
0.0337895
0.157775
0.053708
0.12123
0.0745838
0.340768
0.037966
0.601512
0.0280442
0.459573
0.796907
0.178692
0.0964029
0.576027
0.0307217
0.689446
0.055804
0.137672
0.633418
0.0373621
0.656811
0.7911
0.862263
0.0332588
0.0313307
0.0462342
1.09736
0.53354
0.60569
0.580291
0.0398033
1.27303
0.0402455
0.50652
1.02199
0.815232
0.598078
0.954946
0.0359733
0.617673
0.0383148
0.0588011
0.641054
0.844803
0.0328488
0.702467
0.539856
0.105361
0.816837
0.710126
0.0251271
1.03742
0.670509
0.554438
0.578492
0.84469
0.037116
0.866317
0.053002
1.1198
0.617593
0.543931
0.973526
0.121866
0.709026
0.374195
0.595089
0.0246
1.00822
0.0255624
0.0451098
0.0558394
0.452272
1.35467
0.0646639
0.564818
0.0236489
0.0413699
0.196531
0.6185
1.16371
0.778755
0.0839889
0.681621
0.751314
0.0431669
1.19696
0.260591
0.1386
0.70459
0.778219
0.0457158
0.709387
0.0498222
1.16324
1.00314
0.545866
0.0421014
0.0292452
0.772124
0.0848137
0.839338
1.12802
0.0561782
0.681662
0.021317
0.533589
0.909324
0.0406735
0.796636
0.0878619
0.0571515
0.546937
0.0612664
0.045889
0.719793
0.741605
0.0653627
0.04303
0.0412375
0.0498672
0.0481871
0.0435874
0.0431708
0.0246371
0.0494613
0.0476109
0.0496312
0.0705037
0.0568271
0.0211364
0.524379
0.0469536
0.866905
0.0526098
0.84739
0.523136
0.488916
1.01085
0.711732
0.0448973
0.0498348
0.0422108
0.0300982
0.0471726
0.0247099
0.0530645
0.0461691
0.0683805
0.776713
0.045098
0.517257
0.0276948
0.0490227
1.06743
0.467401
0.0255861
0.0533902
0.0579193
0.0553056
0.0488679
0.0366803
0.0618969
0.0265484
0.542841
0.07416
0.567415
0.513838
0.90181
0.959087
0.504024
0.800743
0.570524
0.257405
0.0476895
0.0496512
0.0431348
0.761387
0.0469792
1.06956
0.0592365
0.0575377
0.0509767
0.0640163
0.0322396
0.648121
0.0562652
0.554872
0.717251
0.0359803
0.0397281
0.0555562
0.472334
0.0553777
0.0423572
0.0362752
0.0471153
0.0698044
0.051954
0.784928
0.0422683
0.0406121
0.0522061
0.0580411
1.18097
0.0280162
0.0225627
0.437774
0.0494014
0.000328763
0.000319137
0.000301879
0.000279739
0.000254532
0.000226745
0.000197263
0.000166887
0.000136596
0.000366768
0.000352439
0.000331168
0.000305602
0.000277227
0.000246969
0.000215647
0.000184282
0.000154161
0.000412562
0.000393898
0.00036837
0.00033888
0.000307074
0.000273954
0.000240407
0.000207465
0.000176336
0.000470525
0.000447339
0.000416831
0.000382743
0.000346886
0.000310282
0.000273826
0.000238449
0.000205155
0.000546076
0.000517597
0.000480979
0.000441286
0.00040042
0.000359418
0.000319099
0.000280204
0.000243376
0.000646088
0.000610946
0.000566615
0.000519892
0.000472682
0.000426036
0.000380646
0.000337049
0.0002956
0.000779573
0.000735559
0.000681236
0.00062554
0.000570219
0.000516315
0.000464364
0.000414765
0.000367791
0.000958619
0.000901508
0.000834117
0.000766959
0.00070131
0.000638111
0.000577723
0.000520462
0.000466675
0.00119667
0.00111984
0.00103598
0.000954524
0.000875939
0.000800968
0.000729784
0.000662544
0.000599496
0.00150285
0.00140108
0.00129836
0.00119982
0.00110542
0.00101579
0.000930993
0.000850941
0.000775376
0.00187869
0.0017549
0.0016332
0.00151511
0.00140177
0.0012942
0.00119257
0.00109667
0.00100582
0.00232075
0.00219246
0.00205318
0.00191289
0.001777
0.0016477
0.00152569
0.00141074
0.00130228
0.00285696
0.00273208
0.00257245
0.00240555
0.00224241
0.00208691
0.00194043
0.001803
0.00167433
0.00353813
0.0033959
0.00320508
0.00300421
0.00280778
0.00262079
0.00244517
0.00228127
0.00212895
0.00439641
0.00419947
0.00396125
0.00371724
0.0034808
0.00325668
0.00304689
0.00285171
0.00267015
0.00543462
0.00514511
0.00484489
0.00454966
0.00426723
0.00400091
0.00375253
0.00352255
0.00331029
0.00660028
0.00622062
0.00585468
0.0055045
0.00517234
0.00486021
0.00456982
0.00430203
0.00405784
0.00785893
0.00741543
0.0069904
0.00658633
0.00620353
0.00584385
0.00550906
0.00520036
0.00491898
0.009216
0.00873218
0.00825859
0.00780493
0.00737321
0.00696636
0.00658651
0.00623513
0.00591333
0.0106911
0.0101857
0.00967372
0.00917644
0.00870011
0.00824939
0.0078268
0.00743412
0.00707345
0.0123128
0.0117995
0.0112566
0.0107225
0.0102089
0.00972155
0.00926269
0.00883343
0.00843462
0.0141205
0.0136032
0.0130317
0.0124681
0.011929
0.0114186
0.010937
0.0104835
0.0100564
0.0161818
0.0156302
0.0150233
0.0144393
0.0138933
0.0133828
0.0129031
0.0124506
0.0120222
0.0185898
0.0179077
0.0172477
0.0166587
0.016136
0.0156616
0.0152237
0.0148146
0.0144276
0.0214233
0.0204246
0.0197074
0.0191456
0.0186934
0.0183075
0.0179678
0.0176686
0.017335
0.00157705
0.00153994
0.00150891
0.00148386
0.00146474
0.00145142
0.00144381
0.00144165
0.00144475
0.00145277
0.00146537
0.00148214
0.00150255
0.00152608
0.00155205
0.00157978
0.00160852
0.00163746
0.00166577
0.00169259
0.00171698
0.00173795
0.00175429
0.00176429
0.00176623
0.00175851
0.00174278
0.00171932
0.00168717
0.00164509
0.00159553
0.0015393
0.00147669
0.00140897
0.00133726
0.00126264
0.00118617
0.00110889
0.0010318
0.000955867
0.000881968
0.000810923
0.000743425
0.000680072
0.000621353
0.00056763
0.000519134
0.000475999
0.000438212
0.000405687
0.000378241
0.000355634
0.000337608
0.000323877
0.000314189
0.000308308
0.000306047
0.000307266
0.000311802
0.00157665
0.0015429
0.00151477
0.00149219
0.00147504
0.00146318
0.00145651
0.00145487
0.00145803
0.00146575
0.0014777
0.00149347
0.00151263
0.00153462
0.00155884
0.00158464
0.00161127
0.00163796
0.00166388
0.00168821
0.00171005
0.00172851
0.00174264
0.00175135
0.0017534
0.0017474
0.00173241
0.0017081
0.00167468
0.00163301
0.0015842
0.00152899
0.00146801
0.00140202
0.00133191
0.00125866
0.00118329
0.00110683
0.00103031
0.000954696
0.000880929
0.000809849
0.000742205
0.000678634
0.000619652
0.000565645
0.000516862
0.000473423
0.000435319
0.000402441
0.000374589
0.000351543
0.000333046
0.00031881
0.000308558
0.000302035
0.000299032
0.000299404
0.000302959
0.00154682
0.00151501
0.0014885
0.00146725
0.00145119
0.00144021
0.00143419
0.00143295
0.00143628
0.00144391
0.00145554
0.00147079
0.00148921
0.00151031
0.00153351
0.00155817
0.0015836
0.00160905
0.00163374
0.00165683
0.00167746
0.00169472
0.00170762
0.00171507
0.00171595
0.00170922
0.00169414
0.0016704
0.00163808
0.0015977
0.00155007
0.001496
0.00143625
0.00137163
0.00130302
0.00123133
0.00115755
0.00108265
0.00100762
0.000933434
0.000860989
0.000791127
0.000724593
0.000662027
0.000603945
0.000550734
0.000502642
0.000459785
0.000422159
0.000389651
0.000362065
0.000339152
0.000320638
0.000306243
0.000295702
0.000288776
0.000285262
0.000285018
0.000287854
0.00148835
0.00145857
0.00143386
0.00141414
0.00139934
0.00138934
0.00138401
0.00138319
0.00138665
0.00139415
0.00140539
0.00142003
0.00143763
0.00145774
0.0014798
0.00150323
0.00152734
0.00155143
0.00157473
0.00159642
0.00161564
0.00163148
0.00164299
0.00164918
0.00164909
0.00164183
0.00162675
0.00160355
0.00157229
0.00153336
0.00148742
0.00143519
0.00137746
0.00131505
0.00124881
0.00117965
0.00110848
0.00103626
0.000963931
0.000892412
0.000822577
0.000755232
0.000691095
0.000630781
0.000574788
0.000523481
0.000477099
0.000435749
0.000399419
0.000367999
0.000341299
0.000319076
0.000301065
0.000286992
0.000276589
0.000269623
0.000265897
0.000265269
0.000267557
0.00141186
0.0013845
0.00136187
0.0013439
0.00133053
0.00132165
0.00131713
0.00131681
0.00132049
0.00132793
0.00133884
0.00135288
0.00136968
0.00138877
0.00140965
0.00143174
0.00145441
0.00147696
0.00149865
0.00151869
0.00153625
0.00155045
0.00156041
0.00156522
0.00156407
0.00155621
0.00154114
0.00151859
0.00148857
0.00145138
0.00140751
0.00135762
0.00130245
0.00124278
0.00117946
0.00111337
0.0010454
0.000976465
0.000907466
0.000839287
0.00077276
0.00070865
0.000647636
0.000590295
0.000537092
0.000488366
0.000444333
0.000405086
0.000370607
0.000340783
0.000315428
0.000294304
0.000277147
0.000263689
0.000253674
0.000246875
0.0002431
0.00024221
0.000244028
0.00131775
0.00129268
0.00127203
0.00125576
0.00124378
0.001236
0.00123229
0.00123251
0.00123644
0.00124386
0.00125448
0.001268
0.00128403
0.00130214
0.00132184
0.00134258
0.00136375
0.00138468
0.00140467
0.00142298
0.0014388
0.00145133
0.00145976
0.00146329
0.0014612
0.00145287
0.00143789
0.00141604
0.00138731
0.00135195
0.00131036
0.00126312
0.00121091
0.0011545
0.00109467
0.00103228
0.00096815
0.000903159
0.000838181
0.00077405
0.00071155
0.000651393
0.00059421
0.000540536
0.000490798
0.0004453
0.000404234
0.000367675
0.000335595
0.000307878
0.000284334
0.000264733
0.000248814
0.000236318
0.000226997
0.000220632
0.000217034
0.000216067
0.000217565
0.0012086
0.00118585
0.0011672
0.0011526
0.00114199
0.00113531
0.00113242
0.00113318
0.00113741
0.00114487
0.00115528
0.00116835
0.00118369
0.00120089
0.00121948
0.00123894
0.00125869
0.00127809
0.00129646
0.0013131
0.00132728
0.00133825
0.00134528
0.00134769
0.00134483
0.00133618
0.00132142
0.00130036
0.001273
0.00123953
0.00120032
0.00115587
0.00110687
0.00105402
0.000998057
0.000939783
0.000879974
0.000819436
0.000759028
0.000699515
0.000641612
0.000585972
0.000533168
0.000483694
0.000437935
0.000396164
0.000358545
0.000325134
0.000295887
0.00027068
0.000249324
0.000231589
0.000217221
0.000205969
0.000197593
0.000191878
0.000188646
0.000187762
0.000189074
0.00108341
0.00106269
0.00104577
0.00103265
0.00102331
0.00101768
0.00101566
0.0010171
0.0010218
0.00102953
0.00104001
0.00105289
0.0010678
0.00108433
0.00110204
0.00112048
0.00113912
0.0011573
0.00117442
0.00118974
0.00120257
0.0012122
0.00121809
0.00121969
0.00121632
0.00120763
0.0011933
0.00117325
0.00114738
0.00111583
0.00107901
0.0010374
0.000991728
0.000942707
0.000890889
0.000837077
0.000782003
0.000726365
0.000671054
0.00061669
0.000563915
0.000513309
0.00046538
0.000420578
0.000379268
0.000341668
0.000307949
0.000278125
0.000252125
0.000229803
0.000210968
0.0001954
0.000182858
0.000173104
0.000165914
0.000161083
0.000158439
0.000157848
0.000159166
0.000940478
0.000921308
0.000905795
0.00089407
0.000886157
0.000881954
0.000881234
0.000883657
0.000889272
0.000898111
0.000909439
0.000922823
0.000937783
0.000953824
0.000970814
0.000988314
0.00100618
0.00102414
0.00104094
0.00105547
0.00106722
0.00107569
0.00108068
0.00108168
0.0010782
0.00106983
0.00105641
0.00103776
0.00101357
0.000983826
0.00094925
0.000910451
0.000868155
0.000823149
0.000775905
0.000726556
0.000676099
0.000626103
0.000576633
0.000527901
0.000480719
0.000435635
0.000393039
0.000353269
0.000316618
0.000283478
0.000253951
0.000228192
0.000205967
0.000186892
0.000170756
0.000157446
0.00014682
0.000138666
0.000132763
0.000128956
0.000127093
0.000127029
0.000128627
0.0427398
0.0389187
0.0353809
0.0320036
0.0287601
0.0256377
0.0226567
0.0198432
0.0172171
0.0147949
0.0126277
0.010746
0.00914422
0.00778998
0.0066216
0.00561649
0.0047771
0.00409137
0.00353511
0.00308151
0.00270788
0.00239549
0.00212893
0.00189547
0.00168383
0.0408135
0.0380785
0.0349676
0.0317577
0.0285655
0.0254479
0.0224508
0.0196158
0.0169769
0.0145667
0.0124149
0.0105333
0.0089156
0.00754234
0.00638512
0.00541787
0.00461874
0.00396566
0.00343518
0.00300351
0.00264894
0.00235318
0.00210144
0.00188187
0.00168472
0.0407616
0.0378508
0.0347099
0.0314797
0.0282536
0.025097
0.0220673
0.0192143
0.0165775
0.0141866
0.0120591
0.0101979
0.00859609
0.00723859
0.00610442
0.00516899
0.00440556
0.00378697
0.00328718
0.00288211
0.00255043
0.0022742
0.00203897
0.0018334
0.00164894
0.0411026
0.0378142
0.0344645
0.031109
0.0278041
0.0246007
0.0215492
0.0186954
0.0160752
0.0137126
0.0116176
0.00978935
0.00821933
0.0068935
0.00579252
0.00489193
0.00416357
0.00357839
0.0031089
0.00273046
0.00242184
0.00216546
0.00194725
0.00175634
0.00158434
0.0415466
0.0378814
0.0342683
0.0307343
0.027315
0.0240468
0.0209678
0.0181134
0.0155114
0.0131782
0.0111189
0.0093293
0.00779932
0.00651389
0.00545295
0.00459126
0.00389985
0.00334878
0.00290987
0.00255817
0.00227261
0.00203601
0.00183485
0.00165885
0.0015005
0.0419517
0.0379346
0.034046
0.0303171
0.0267728
0.0234353
0.0203277
0.0174738
0.0148913
0.0125898
0.0105699
0.00882452
0.00734135
0.0061032
0.00508816
0.00426957
0.00361759
0.00310187
0.00269399
0.00236911
0.00210654
0.00188967
0.0017056
0.00154454
0.00139942
0.0423454
0.0379533
0.0337697
0.0298378
0.0261684
0.0227636
0.0196296
0.0167776
0.0142166
0.0119496
0.00997332
0.0082779
0.00684809
0.00566354
0.00469984
0.00392854
0.00331883
0.00284011
0.00246416
0.00216649
0.00192696
0.00172964
0.00156231
0.00141543
0.00128318
0.0427825
0.0379102
0.0333991
0.029266
0.0254828
0.0220212
0.0188676
0.016021
0.0134847
0.0112563
0.00932845
0.00768923
0.00632028
0.00519608
0.00428939
0.00356971
0.00300518
0.00256527
0.00222233
0.00195244
0.00173607
0.00155808
0.00140668
0.00127278
0.00115187
0.0431791
0.0377257
0.0328796
0.02857
0.0246999
0.0211999
0.0180387
0.0152009
0.0126922
0.0105073
0.00863244
0.00705658
0.00575843
0.00470218
0.00385854
0.00319516
0.00267854
0.00227912
0.00197053
0.00172935
0.00153637
0.00137797
0.00124173
0.00111763
0.00100427
1.15793
1.123
2.97754
4.12014
0.00140829
0.00216088
0.0396788
0.00047213
2.63468
0.000163325
2.37001
0.00367644
0.0779673
0.00462575
0.0454202
0.000711454
2.31979
3.98705
0.000103035
0.0679418
0.0166515
0.000476521
2.80261
0.0175709
0.000720224
0.000675288
0.000658432
0.0254982
1.43915
2.37411
0.000163142
0.000687132
2.92694
0.0685558
2.37275
0.000632205
0.0993885
0.0458583
0.124489
0.00248255
3.88403
0.000774066
0.000493057
0.088153
0.0142287
0.000608315
3.58119
4.54203
1.79239
2.03516
3.29724
3.59771
0.0159885
4.09785
0.0383758
2.66354
0.00396276
0.0143671
0.00139897
3.71144
0.00086182
3.24581
0.00146993
0.000638524
0.00046482
0.0615966
0.00118096
0.375677
0.100475
1.93794
2.74216
0.000583477
0.000798434
0.0644866
0.00130265
0.015822
0.0569716
4.27513
0.00126475
3.91204
0.0534718
0.00113722
0.000476266
2.31565
0.001056
0.000986551
0.000582133
4.22896
2.98019
0.00491808
0.0106947
0.00231231
0.000163722
0.00389365
0.000999877
2.39216
0.000713304
2.63547
0.00138563
3.66664
0.00973682
3.84608
0.0112399
0.000575915
0.00120782
0.0146043
3.03262
0.0441549
0.00100651
2.38262
0.000538027
0.00186216
3.14735
0.000548164
0.0150456
1.76157
3.00751
0.00207055
0.0252835
0.0020309
0.000135939
0.00205824
0.0188621
0.000758163
3.07296
0.000510239
3.60328
0.0489718
0.00118747
4.52741
0.000491721
0.0627641
1.96185
0.121404
0.0304829
0.000614477
0.0140967
0.00618467
0.000709359
0.0738373
0.000376691
0.118367
3.76065
0.000178439
1.55775
0.00079363
3.87711
0.0329757
0.000711894
2.2689
0.0175203
0.0027335
4.04036
0.0482468
0.00163473
2.25834
0.000780604
0.00204247
0.0551451
0.000604387
0.000454469
2.69883
0.000540557
2.80981
0.000259821
2.80293
0.00475696
0.000687822
0.00084601
0.000881217
0.00408872
0.0006554
0.351325
2.51078
0.00121482
0.0177165
0.0307706
1.69466
2.33074
0.000392547
0.0536668
0.000688708
0.0170841
0.0433079
0.0458345
0.000675803
3.03765
0.000697902
2.22605
0.000689946
4.26854
3.70808
1.80872
0.119484
0.0444179
2.41536
0.00122763
0.000469316
1.65739
1.28076
0.227063
0.000909652
0.00106622
0.000718209
0.00985122
0.000342342
0.00138369
0.0112263
1.88079
0.0016037
0.00119561
0.00290028
0.0604722
0.00918871
0.0271642
4.11904
0.00139261
0.000551468
0.000806871
0.00726141
0.00927867
0.000872833
0.00174091
3.39819
1.42698
3.24645
0.00510496
2.33276
0.00111295
0.00087508
2.10238
0.000623101
0.000747353
0.000761622
0.119648
0.000211561
0.0528579
0.0153863
0.0459176
0.0487533
0.000269629
0.000899301
0.000280492
0.0394626
0.000711191
0.000485084
0.000647439
0.0185306
0.000697627
0.000329078
0.00102505
0.0193195
0.000584298
1.7619
0.00107872
0.00071858
2.96158
0.0555209
0.0545498
0.000105464
0.193349
0.00130691
0.000585834
0.00146309
0.0613836
0.000812093
0.000295988
3.81608
0.0396102
0.000644162
0.0201231
1.77965
0.00137207
0.000566857
0.000105634
3.67329
0.00172431
2.52785
0.0041737
3.90662
0.0712331
0.0197178
0.26863
0.000604323
2.37896
0.000759865
0.0158776
2.64953
3.36409
4.35381
0.0477735
0.000558651
0.000463992
3.54425
0.315601
4.07564
3.86438
0.00177219
0.000650059
2.96061
3.76576
0.000432047
0.00582252
0.00074687
3.68689
0.000265415
0.0170576
0.000712644
0.0737582
0.00101987
0.000586467
0.000289002
2.55255
0.00111989
0.00147897
0.143402
3.99676
0.000631905
0.000686278
0.315208
0.0554744
0.000498407
0.00719785
0.000159003
0.000595993
0.00077877
2.9328
0.0435027
0.001631
0.0150492
0.000251616
0.0443241
0.0074932
0.000175267
4.09574
0.00104409
0.000458753
0.000491129
1.25664e-05
0.232593
0.00279177
0.00393846
3.27985
0.000270152
0.0595713
0.00145051
0.0033883
0.000969238
0.000656944
3.35364
1.79576
0.000168543
0.0016007
0.0541826
3.60519
1.186
0.46754
0.0954627
0.000295601
3.63974
1.90196
2.40678
0.000391044
3.1529
0.00060224
0.000600828
0.000766893
4.20879
0.000556182
2.12498
0.000413449
0.0482561
1.43171
3.27041
0.0756619
0.00100707
0.00182427
0.00022471
0.00078954
0.000207189
3.82715
0.000639946
3.05027
0.103667
0.101177
0.401547
0.000255143
0.0666322
2.18195
4.28341
0.0282349
0.000333233
0.0102122
2.73786
0.0464811
0.00012519
0.000277711
2.8639
0.00206532
1.46219
0.00045949
0.000491321
0.00110877
1.69099
0.0037907
9.59622e-07
0.0419985
0.011275
0.214479
0.000273449
1.93727
0.000574789
2.97013
0.000696914
0.000502117
0.267465
1.89703
3.35527
0.00155097
0.00225671
0.00026384
0.000770999
0.00551305
0.0132797
0.00077909
4.10539
9.53646e-06
0.00747073
0.000521108
0.000642792
0.000693219
0.000720225
0.00506716
0.00134138
0.0463057
0.0007385
0.000527827
0.000304362
0.000908976
0.0285429
0.000517335
0.0487905
3.61493
0.152944
0.115208
4.1838
0.0180658
2.39382
0.00123615
0.00122587
3.2243
0.000427387
0.000539181
2.73072
0.000281217
1.87085
3.40399
0.0008861
0.0125535
0.0469431
0.000559564
0.0426703
1.85441
0.0571904
3.9477
0.000507267
0.00122011
3.48354
0.000481023
2.22138
0.0162834
0.000577374
2.38495
0.0388616
0.00072747
0.0698616
0.00425467
0.000663513
0.0332115
0.0288237
0.0252741
0.0964547
8.57845e-05
0.00370894
2.2464
0.000995628
0.000982971
0.000696436
1.61555
0.000434279
0.043695
0.000598244
0.00164448
2.60963
0.000542534
0.00182504
0.043347
0.000712664
0.000195373
2.10372
0.000472121
0.046681
0.000619534
0.0320767
0.0298482
0.064972
0.00070888
0.000677311
0.0415729
0.000688319
0.000361505
0.051487
0.00120396
0.00384569
0.000724343
4.16888
3.65845
1.97788
0.00111458
0.0196575
0.0001631
4.33551
0.0690613
5.36829
0.0807716
0.000701577
4.04436
3.79942
0.000379935
0.000721441
0.0186336
0.000461914
3.41607
2.83467
0.00214228
0.226021
0.000491092
2.43713
1.72827
0.000617321
0.309404
2.31808
0.000452825
3.32125
0.00196868
3.12078
0.000496296
0.00769055
0.000698005
2.51268
0.0961009
0.0826564
0.00116422
1.80004
1.93868
4.14641
0.00157611
0.000239956
0.0474066
2.04442
0.000606461
0.101872
0.000488648
0.0700847
2.26124
0.000131142
0.0192156
0.00133009
0.000665271
0.285225
2.69598
0.000769891
0.0508872
0.00143346
0.00167828
3.12756
3.66537
2.09563
0.00882675
0.305283
0.0729528
0.0168208
0.000892038
0.000168875
0.000498522
2.84002
0.000421978
0.00228421
0.418371
0.000831245
0.0035009
0.00140092
0.000616878
0.0470359
0.000288049
0.00149124
0.0665885
2.02188
0.00110857
0.000630349
3.29741
0.0261255
0.000694725
0.00774271
0.0469829
0.00106953
0.000794729
0.000451942
2.28444
0.000456267
0.000467671
0.106395
0.000469369
0.000819891
0.0123619
0.0161106
0.00124437
0.00318456
3.35278
0.000674241
0.000488263
0.000494014
0.000231432
0.00413829
0.00335958
3.61026
4.16664
0.0221914
2.68565
0.00244313
0.00069757
0.000578685
0.000881196
0.000790045
0.00196343
0.0185089
0.00559104
0.00184981
0.00244703
0.04347
0.018418
0.00699599
0.0618709
0.000450469
0.00186096
0.000498755
0.0163894
0.210656
3.56047
0.0465789
0.0539406
0.00187808
0.00015234
0.00137436
0.000735305
0.00038124
3.69716
0.000108087
0.0215749
0.000443842
2.2361
3.66579
2.29516
9.51438e-05
0.000555638
0.000523523
3.81923
2.47885
0.0455011
0.0158881
0.00318353
0.000112641
0.00108107
3.7039
0.000355986
0.000519313
0.0974456
0.000599351
0.000441621
0.000274068
0.00134927
0.0162456
0.00954847
0.000513249
0.000317808
0.0089624
0.000226763
1.58807
3.51095
0.000666688
0.0436049
0.00184859
2.3076
0.000505696
0.000251752
0.000334388
0.000716914
0.488717
0.000708819
0.000353127
0.00139933
0.253803
0.00101009
0.00070816
0.00052496
4.00432
0.0424847
0.0189314
4.43617
0.045285
1.67273
2.39048
0.000103694
0.000730374
0.000504407
3.48949e-06
0.000591022
0.0723154
0.000776915
0.000563917
0.0556908
0.000141775
0.000379797
0.0390878
0.000380353
0.00073728
0.000442554
0.0209562
0.0460834
3.89068
0.000114132
2.44637
0.0380856
1.6493
0.0220771
3.8977
3.33333
3.55056
0.000596991
0.000700758
0.000173471
0.174187
0.000522674
0.370796
1.46665
0.000218644
0.0580904
0.165053
0.0011449
0.000447403
0.000604433
3.98263
3.04925
0.000451767
0.0414686
0.0491891
0.0218957
2.63572
1.02366e-07
0.00033942
0.0345611
0.000234454
1.32651
0.231996
2.57952
0.0474148
0.000762296
0.0477098
0.00210711
2.52835e-05
0.0420986
0.00305371
0.0074035
0.000647701
0.000500099
0.636012
0.000711314
0.000836456
0.000452969
0.000597837
0.616011
0.00256654
3.71055
0.0455421
0.00042119
1.75146
0.000659865
0.0716895
0.00142178
0.000181681
0.000409739
0.0245037
0.0249271
0.000272767
0.000481896
3.40654
3.02114
0.0432622
0.000741845
0.031689
0.288494
0.051459
3.99499
0.0930416
0.00709076
0.00030328
2.84617
0.00144458
0.000465331
0.0115735
2.40378
2.80106
0.000812098
0.000732799
2.0775
0.00056501
2.96436
2.16608
0.000439313
0.000794817
2.66345
1.47947
1.34068
0.000258048
0.000597791
0.000869707
0.029757
0.0911356
0.000389075
0.000494732
0.00208421
0.0418621
0.00858076
0.110022
1.46627
0.000112233
0.000489367
4.77544
0.000120653
0.0209268
0.00138967
0.0234858
0.000867965
0.00194219
0.318659
0.000557658
0.000232309
0.000204155
0.0212545
0.0211926
4.16671
0.000510557
0.000444616
0.000520696
0.0483909
0.0729133
3.11921
0.00194318
0.161436
0.0454065
2.258e-06
0.00107669
0.00313749
2.1335
0.00130139
0.0652542
0.000741052
1.32254e-05
0.0419026
0.00068212
5.73881
3.14647
0.0313133
3.76132
3.94432
3.9316
0.000124134
2.54401
0.0539273
0.000363072
0.038694
0.000563089
0.00323597
0.0520996
0.000690224
0.00663324
0.0237804
3.48458
0.00483635
0.00253062
2.50836
0.00552211
0.000763179
0.0427779
1.58007
0.446572
0.000189402
0.0166992
4.45777
2.53423
0.28036
0.0195637
1.91759
0.00469613
0.000673101
0.0226786
2.20585
0.00113359
1.1873
0.00319006
2.14526
0.000767974
0.0342099
1.27287
0.000211577
0.00242942
0.000195185
2.81458
0.462514
2.49013
1.67374
0.000816779
0.0312449
0.0181181
0.00800499
1.41235
0.0139918
0.000380137
0.000718775
0.000656465
0.0017126
0.0323168
2.37608
8.53046e-05
2.74435
0.000469154
0.051984
0.000146641
0.000608885
0.000496179
2.87433
2.24963
0.0237312
0.0215539
0.000713691
0.00119381
0.0466789
0.000452017
0.391204
0.143858
3.33515
0.00168126
0.384444
0.0474892
0.000730614
0.000832633
0.00108882
3.39183
0.00195635
0.00829768
0.0509052
0.0430209
0.00127237
0.00852474
0.000601755
0.000521723
0.00160703
0.00100537
0.0170772
0.000657915
0.0261202
2.5288
0.0698392
2.87965
0.000528367
0.0274584
0.0264385
0.00260283
1.53212
0.00182167
0.00446187
3.32135
0.000745299
0.118588
0.0046395
0.000660339
1.83557
0.000235855
0.57218
0.00100196
0.0391481
0.0425305
2.96863
0.00167486
0.0474474
0.00071286
0.508575
0.000705852
3.10545
0.0514491
0.111013
2.32939
0.00632007
3.4444
0.000601142
1.71493
0.00182486
0.000469045
0.00186141
0.0352035
0.0455936
0.00212655
0.000184927
0.056093
0.000543271
0.000216159
0.00177583
0.00105272
0.000624932
4.47375
0.0008101
0.00057245
0.0492009
0.0216218
3.91312
0.00136812
0.000272401
0.000887771
0.772733
0.000888353
0.00299801
3.7593
0.935547
0.0864372
0.00068648
0.00884129
0.0263851
2.85782
0.000250612
0.000161814
0.00303323
0.000865484
0.00113233
1.17914
4.23131
4.50317
0.0244418
0.000715751
0.047407
3.34736
0.016575
0.0468955
0.000741935
1.62337
2.28485
3.65566
0.000660707
0.000658894
0.0119902
2.41003
0.000843024
2.9332
0.00561214
0.239419
1.81851
0.00164224
0.00310593
0.00422944
0.000156348
0.000153826
0.17335
1.51204
0.000107262
2.52847
0.000871784
0.000766032
0.000630065
0.00024971
0.0177633
0.00535083
0.0705425
0.0330111
0.000992036
0.000757734
1.67377
2.21992
0.000412625
0.00173465
0.000537656
1.42068
3.93103
0.0143733
3.82471
0.000680383
0.000132388
0.0289496
0.000614309
0.00950535
0.046423
0.000463598
0.000584859
0.000314726
0.00608106
0.04332
3.16688
0.0471868
0.000136378
0.0135905
0.000340037
3.50996
3.73159
0.000305545
0.000133856
0.0577321
0.00105765
0.00166528
1.37902
1.49793
0.0661509
0.00017752
0.00209123
0.0393292
1.50756
0.00360577
0.00586323
1.34677
2.63674
1.26657e-05
0.000663392
0.00292826
0.000480967
0.466544
0.0209641
0.00055039
0.051504
0.000685081
0.000336119
0.000657393
0.0170366
0.000918975
3.37583
1.78278
3.36418
1.30228
0.41624
5.57969
0.000672641
3.37404
0.0204072
0.000486394
0.130984
0.000158963
0.0110778
0.000410749
0.000571764
0.00194249
2.45114
0.0010295
0.0200815
0.0464596
0.00463049
0.020777
0.465055
3.63433
0.00113227
3.62184
2.63412
0.00405974
0.000948946
0.0137269
0.166742
0.00972378
0.0438096
3.31461
0.000358965
0.00183433
0.00106926
0.038429
3.63214
0.000774516
0.00403376
0.000780638
0.000412439
0.00134767
0.0281935
0.000142187
0.00546775
0.0107339
1.8687
0.000196143
0.0304312
2.40331
0.000669797
0.0160407
0.0187472
3.26622
0.0346398
0.750364
0.0281927
0.000518961
4.92618
2.35038
0.000766403
0.0264843
0.0462916
0.000281212
0.00111839
0.000385613
0.0506184
0.000685502
0.0702065
0.000170213
0.0463544
1.91211
0.0506604
1.78637
0.125043
0.00101704
0.0552542
0.044249
0.003895
0.000655013
0.0113099
2.32234
0.000388369
0.0435195
0.00201349
0.000701447
0.022274
0.00404277
0.000954319
0.000433881
2.64388
0.0546231
0.00025266
0.000644493
0.000191935
0.000449392
0.000662676
1.51193
0.000567049
0.240475
2.36918
0.0382887
4.68631e-05
0.0504587
1.41548
0.0718695
1.68979
0.00847174
0.190893
3.27708
3.50366
0.00057921
2.14756
0.000253864
2.60425
2.95371
0.000118758
0.0865769
0.0428449
4.26342
0.0615376
0.0172293
0.00042675
0.0395652
2.17578
1.41694
3.36705
0.000761354
0.0710319
0.000145672
2.29788
0.0103424
0.00117715
0.000648507
0.0582595
0.00223214
0.00434584
0.0762312
0.000415522
1.73632
0.00155743
0.000354073
0.5223
0.0392466
0.00420289
0.0192501
0.0446906
0.000815186
0.0221867
1.77095
0.000202066
0.0239901
0.00223253
1.7595
0.186027
0.000613241
3.97238
0.00017145
0.0166303
1.71123
0.000311304
0.00100003
0.0154685
0.0302414
0.042349
0.00117636
4.21395
0.00379575
0.021636
4.09388
0.0156987
0.000706235
0.382587
0.000625885
0.000533675
0.000158355
0.0519467
2.27615
0.000719305
2.82077
0.025842
0.000662709
0.140461
0.000531918
0.00325971
0.127365
0.000486979
0.000353573
1.17989
0.00220547
0.000383485
0.000539105
1.83619
2.1809
0.0064683
0.000198951
0.000906288
0.12604
4.14917
0.000596709
0.00137388
0.0150842
3.02685
0.0015455
0.174639
0.135173
0.000458353
0.0188021
3.45775
0.00055452
0.00789243
0.000289985
2.07109
0.000676027
0.000606619
0.00507831
0.0336401
2.22725
0.0018899
2.81619
0.00196454
2.50955
0.000322261
0.044009
0.0207728
0.0711826
1.81562
0.00460794
0.0741686
0.000854081
0.000619737
0.000780219
2.21279
2.52655
0.000191971
0.00027391
0.641872
0.000608866
0.00360469
0.00141672
4.05751
3.49372
0.0487406
3.06151
0.000670945
0.000471132
0.121651
0.0254604
1.73895
0.000952813
0.0012407
0.00109823
0.00190666
0.000643878
0.00140228
0.000795135
0.0193026
3.65116
2.31135
0.000133203
0.016623
0.0296099
2.818
0.000550148
3.54027
1.5001
3.66337
0.000451928
0.0508643
0.000528324
0.000623706
0.000344587
0.0012622
0.000108346
1.46487
3.32679
0.000433891
0.0183434
0.0760043
0.0366344
2.02493
4.59628
0.00136105
0.00123284
0.00173373
0.0141978
0.0712597
0.00141819
1.96206
0.0800085
0.000224124