/*--------------------------------*- C++ -*----------------------------------*\
  =========                 |
  \\      /  F ield         | OpenFOAM: The Open Source CFD Toolbox
   \\    /   O peration     | Website:  https://openfoam.org
    \\  /    A nd           | Version:  10
     \\/     M anipulation  |
\*---------------------------------------------------------------------------*/
FoamFile
{
    format      ascii;
    class       volScalarField;
    location    "1650";
    object      k;
}
// * * * * * * * * * * * * * * * * * * * * * * * * * * * * * * * * * * * * * //

dimensions      [0 2 -2 0 0 0 0];

internalField   nonuniform List<scalar> 
10435
(
1.99846
2.44139
2.12265
2.26948
2.41087
2.58265
2.04099
2.02362
2.12939
2.47966
2.54117
2.20814
2.5172
1.31322
1.4002
2.01019
1.23481
2.73865
2.13199
2.07917
2.0062
2.2721
2.0238
2.17444
2.29713
0.68084
0.863057
2.29312
0.813188
2.62049
2.09192
2.54838
2.05296
0.830462
2.08163
1.99331
2.05913
0.886228
0.553501
2.15489
2.75325
2.04507
0.923647
2.21082
2.04347
2.16235
2.63875
0.864522
2.1249
2.23555
2.02622
2.24965
0.537157
0.75515
0.584942
0.762892
2.10838
0.90771
1.05991
2.13303
0.572505
2.33385
0.897574
2.2469
2.02613
2.1819
0.973759
0.971648
2.00075
2.18937
0.749353
0.792506
0.698995
2.1022
1.49439
0.959909
2.2063
2.00683
2.07481
1.46796
2.24931
1.85344
0.521173
0.762436
2.24163
1.7747
1.91023
2.24208
1.58319
2.01719
2.28058
2.3002
1.94512
1.68105
2.11053
1.7869
2.28207
1.45179
1.13784
2.29962
1.50772
2.56361
1.79352
2.18534
2.56001
2.24834
2.02772
2.25083
2.23252
1.5634
2.20316
2.57525
1.75728
1.65984
2.34401
2.24471
2.2591
1.9229
2.34456
2.24477
2.22388
0.836819
2.06473
1.28699
2.67555
0.62732
2.26469
0.926134
2.31515
0.883806
1.0959
2.69981
2.01817
1.37736
0.839382
0.479148
1.85203
2.27485
2.27975
2.20367
2.14771
2.05174
0.916924
2.15005
2.28668
1.25795
1.57225
2.36208
1.20042
2.14139
0.791918
2.07231
2.01127
2.11702
2.35168
0.728034
2.63955
2.18633
2.41599
2.69251
2.08806
1.29209
2.39229
2.26148
1.60091
2.24397
2.07938
2.2607
2.20902
2.20013
2.25738
0.605432
0.79422
1.35365
2.15531
2.63464
2.18126
1.05345
2.15961
0.859802
2.50868
2.54608
2.17405
0.59932
2.06395
0.79081
0.84331
1.99351
2.41122
2.16878
2.20181
0.509637
0.851433
2.11898
2.60226
1.98874
1.09861
1.6266
0.96483
2.0283
1.59648
0.86402
2.39262
0.898902
2.26479
2.40892
2.38605
2.27134
0.909561
2.28589
0.711543
2.04151
2.18097
2.23208
0.847442
1.2748
1.70463
0.577136
0.68875
1.21355
0.834331
1.11377
0.953459
1.29234
0.715127
2.04169
0.616376
1.50477
2.1357
1.03262
1.03713
2.05901
0.650099
2.10819
0.916786
1.16185
2.1526
0.722297
2.17718
2.14709
2.15876
0.661987
0.592122
0.768221
2.41716
2.10218
1.58443
1.98666
0.650708
2.52166
0.686143
1.70962
2.54569
2.27798
1.98286
2.29427
0.601621
1.98979
0.671765
0.851367
2.00764
2.20829
0.668339
2.22849
1.80725
1.07232
2.09204
2.0571
0.556275
2.36729
2.03996
2.00558
1.98272
2.26345
0.731601
2.2239
0.879542
2.47361
1.99901
2.02775
2.46498
1.05541
2.08986
1.4202
1.81585
0.530804
2.38109
0.583011
0.768581
0.846353
1.3968
2.70901
0.909202
1.99138
0.562312
0.738542
1.17064
1.90663
2.51562
2.14481
0.97916
2.19643
2.14852
0.699017
2.54289
1.36165
1.14267
2.14409
2.15456
0.770829
2.10014
0.81822
2.3462
2.38424
2.11734
0.734028
0.609479
2.10934
1.00324
2.23905
2.56653
0.856765
1.91731
0.498757
2.05332
2.37729
0.779479
2.21463
1.01077
0.903456
2.13888
0.87421
0.769173
2.10135
2.11891
0.925531
0.730377
0.680528
0.792378
0.769987
0.812505
0.763223
0.559254
0.795492
0.767523
0.786651
0.946792
0.933897
0.488651
2.08638
0.774057
2.30415
0.846489
2.29085
2.07748
2.11573
2.53176
2.06874
0.76537
0.803243
0.702407
0.64181
0.755692
0.541715
0.830661
0.836581
0.929954
2.19333
0.817216
2.10968
0.61258
0.865113
2.60657
2.1009
0.530773
0.866301
0.888738
0.897177
0.798374
0.723378
1.016
0.595532
2.04978
0.959796
2.00014
2.09738
2.37401
2.45972
2.11127
2.21861
2.09928
1.13221
0.687301
0.801858
0.747743
2.16009
0.783905
2.61059
0.981177
0.864331
0.881034
0.898666
0.62877
2.01228
0.892756
2.02269
2.17741
0.614055
0.762135
0.928792
2.11302
0.940482
0.791276
0.682197
0.759175
0.909831
0.814144
2.19273
0.746811
0.763181
0.816486
0.843204
2.75645
0.527606
0.489069
2.05581
0.796571
0.149612
0.147663
0.143533
0.138007
0.131598
0.124471
0.116911
0.10918
0.101594
0.149385
0.146708
0.142304
0.136734
0.130368
0.123465
0.116278
0.109117
0.102359
0.14886
0.145727
0.141124
0.135526
0.129275
0.122625
0.115833
0.109201
0.103068
0.148403
0.144971
0.140201
0.134602
0.128494
0.122111
0.115699
0.109523
0.103854
0.14832
0.144666
0.139746
0.134164
0.128203
0.122081
0.116014
0.110215
0.104873
0.14889
0.145041
0.139981
0.134416
0.128591
0.122708
0.116945
0.111466
0.106396
0.150418
0.146359
0.141141
0.135576
0.129865
0.124187
0.118687
0.113493
0.108694
0.153309
0.148896
0.143473
0.137875
0.132243
0.12673
0.12145
0.116501
0.111961
0.157896
0.152882
0.147211
0.141547
0.135958
0.130567
0.125452
0.120687
0.116326
0.164136
0.158448
0.152567
0.146825
0.141248
0.135928
0.13092
0.126267
0.12198
0.171665
0.165677
0.159734
0.153933
0.148339
0.143035
0.138069
0.133461
0.12919
0.180112
0.174742
0.168933
0.163092
0.157439
0.152087
0.147091
0.142466
0.138195
0.190535
0.186108
0.180442
0.174512
0.168719
0.163229
0.158116
0.153403
0.149086
0.204518
0.200318
0.194521
0.188345
0.182283
0.176534
0.171192
0.166293
0.161841
0.222651
0.217621
0.211274
0.204631
0.19814
0.191994
0.186295
0.181078
0.176325
0.24456
0.237834
0.230587
0.223281
0.216212
0.20954
0.203367
0.197735
0.192638
0.268622
0.260401
0.252185
0.244119
0.236369
0.229072
0.22233
0.2162
0.210712
0.29389
0.284838
0.275804
0.266976
0.258497
0.250506
0.243118
0.2364
0.230396
0.320377
0.310975
0.301311
0.291767
0.282544
0.273821
0.26573
0.258353
0.251736
0.348334
0.338878
0.328714
0.318496
0.308538
0.299075
0.290259
0.282191
0.274937
0.378138
0.368755
0.358112
0.34723
0.336559
0.326379
0.316855
0.308096
0.30017
0.41033
0.400888
0.389629
0.378043
0.366702
0.355877
0.345717
0.336323
0.327757
0.445889
0.43559
0.423336
0.41097
0.399041
0.38772
0.377086
0.367212
0.35818
0.48623
0.473003
0.459109
0.44592
0.433589
0.422036
0.411207
0.401105
0.391809
0.532857
0.51254
0.496509
0.482701
0.470331
0.45896
0.448333
0.43838
0.42831
0.251084
0.251003
0.251448
0.252415
0.253917
0.255949
0.25851
0.261582
0.265153
0.269188
0.273655
0.278514
0.283704
0.289172
0.294838
0.300627
0.306453
0.312222
0.317838
0.323202
0.328202
0.332723
0.336627
0.339722
0.341817
0.342726
0.342601
0.341451
0.339156
0.335563
0.330911
0.325272
0.318657
0.311193
0.302993
0.294178
0.284868
0.275188
0.265265
0.25523
0.245208
0.235328
0.225701
0.216434
0.207624
0.199352
0.191682
0.184669
0.17834
0.172713
0.167787
0.163545
0.159969
0.157023
0.154677
0.152895
0.151647
0.150902
0.150635
0.249972
0.25022
0.250946
0.252157
0.253854
0.256033
0.258692
0.261821
0.265404
0.269417
0.273828
0.278596
0.283672
0.288997
0.294502
0.300112
0.305743
0.311304
0.316702
0.321835
0.326602
0.330895
0.334601
0.337594
0.339728
0.340841
0.340819
0.339602
0.337194
0.333663
0.329111
0.323599
0.31718
0.309925
0.301924
0.293282
0.284112
0.274539
0.26469
0.254696
0.244688
0.234794
0.225133
0.215818
0.206948
0.198609
0.190868
0.183777
0.177365
0.171645
0.166613
0.162258
0.158561
0.155489
0.153006
0.151072
0.149653
0.14872
0.148237
0.245817
0.246116
0.246879
0.248115
0.249828
0.252016
0.254673
0.257788
0.261343
0.265315
0.269671
0.274371
0.279368
0.284605
0.290016
0.295528
0.301059
0.306524
0.311827
0.316871
0.321552
0.325761
0.329381
0.332283
0.334332
0.335402
0.335397
0.334263
0.331986
0.328601
0.324176
0.31878
0.31248
0.305354
0.29749
0.288985
0.27995
0.270504
0.26077
0.250878
0.240956
0.231132
0.221527
0.212255
0.203416
0.195097
0.187368
0.180279
0.173862
0.168132
0.163083
0.158701
0.154962
0.151834
0.149286
0.147284
0.145796
0.144796
0.144249
0.238402
0.238716
0.239489
0.240726
0.24243
0.244598
0.247223
0.250295
0.253794
0.257697
0.261974
0.266586
0.271486
0.276621
0.281926
0.287331
0.292756
0.298116
0.303317
0.308261
0.312843
0.316953
0.320476
0.32329
0.325274
0.326318
0.326334
0.325265
0.323098
0.319853
0.315581
0.310342
0.304209
0.297258
0.289577
0.281265
0.272425
0.263175
0.253636
0.243932
0.234191
0.224538
0.215093
0.205969
0.197267
0.189071
0.181451
0.174458
0.168123
0.162461
0.157469
0.153133
0.149429
0.14633
0.143799
0.141806
0.140319
0.139313
0.138755
0.228725
0.229059
0.229841
0.231076
0.232766
0.23491
0.237501
0.240527
0.24397
0.247806
0.252006
0.256531
0.261337
0.26637
0.271569
0.276863
0.282176
0.287421
0.292506
0.297334
0.301801
0.305796
0.30921
0.311927
0.313841
0.314853
0.314887
0.313892
0.311849
0.308765
0.304677
0.299637
0.293711
0.286976
0.27952
0.271437
0.262833
0.25382
0.244519
0.235052
0.225546
0.216122
0.2069
0.197989
0.189489
0.181483
0.174039
0.167208
0.16102
0.155489
0.150614
0.14638
0.142764
0.139736
0.137264
0.135316
0.133862
0.132876
0.132327
0.216891
0.217207
0.217964
0.21917
0.220826
0.222929
0.225473
0.228446
0.23183
0.235601
0.239727
0.244173
0.248891
0.253831
0.258929
0.264118
0.26932
0.274449
0.279417
0.284125
0.288473
0.292356
0.295665
0.298298
0.300152
0.301143
0.3012
0.300277
0.298353
0.29543
0.291533
0.286709
0.281018
0.274535
0.267343
0.259536
0.251215
0.242489
0.233479
0.224305
0.21509
0.205955
0.197014
0.188376
0.180138
0.172382
0.165175
0.158565
0.152584
0.147245
0.142545
0.138471
0.134999
0.132099
0.129738
0.127886
0.12651
0.125587
0.125084
0.203212
0.203487
0.204199
0.205356
0.20696
0.209011
0.211501
0.214418
0.217745
0.221456
0.225519
0.229897
0.234542
0.239402
0.244416
0.249514
0.254621
0.259651
0.264515
0.269119
0.273363
0.277145
0.280368
0.282932
0.284744
0.285726
0.285815
0.284971
0.283168
0.280404
0.2767
0.272097
0.266655
0.260446
0.253547
0.246052
0.238053
0.229658
0.220988
0.212158
0.203288
0.194492
0.185884
0.177569
0.169643
0.162188
0.155268
0.148931
0.143207
0.13811
0.133636
0.12977
0.126489
0.123763
0.121558
0.119841
0.118582
0.117755
0.117329
0.18767
0.187845
0.18846
0.189526
0.19105
0.19303
0.19546
0.198328
0.201613
0.205288
0.20932
0.213663
0.218269
0.22308
0.228039
0.23308
0.238132
0.243104
0.247909
0.252446
0.256619
0.260328
0.263489
0.266017
0.267812
0.268809
0.26895
0.268201
0.266524
0.263913
0.260395
0.256005
0.250815
0.244898
0.238312
0.231154
0.223516
0.215491
0.207212
0.198781
0.190308
0.181904
0.173676
0.165731
0.158166
0.151057
0.144476
0.138465
0.133052
0.128245
0.124043
0.120431
0.117386
0.114878
0.112876
0.111345
0.110254
0.109574
0.109272
0.170188
0.170171
0.170618
0.171552
0.172985
0.174911
0.177312
0.180151
0.183434
0.187167
0.191257
0.195646
0.200269
0.205058
0.209984
0.214981
0.220018
0.225046
0.229897
0.234429
0.23856
0.24221
0.245334
0.247845
0.24966
0.25071
0.250948
0.250333
0.248799
0.24632
0.242961
0.238773
0.233828
0.228216
0.221986
0.215153
0.207846
0.200284
0.192497
0.184522
0.176505
0.168558
0.160771
0.153238
0.14605
0.13932
0.133113
0.127509
0.122505
0.118055
0.114149
0.110799
0.108002
0.105734
0.103957
0.102645
0.101769
0.101294
0.101186
0.78112
0.73295
0.689772
0.648357
0.607701
0.567465
0.527907
0.489489
0.45269
0.417993
0.386448
0.358892
0.335608
0.316323
0.300013
0.28632
0.275466
0.267399
0.261727
0.257897
0.255411
0.253833
0.252753
0.251773
0.250424
0.744159
0.716776
0.681832
0.643772
0.604337
0.564392
0.524662
0.485873
0.448721
0.413948
0.382325
0.354386
0.330366
0.310224
0.293679
0.28043
0.270203
0.262685
0.257481
0.254129
0.25216
0.251142
0.250697
0.250483
0.25017
0.737116
0.709146
0.675358
0.638055
0.598758
0.558545
0.518379
0.479159
0.441718
0.406817
0.375081
0.346933
0.322609
0.30217
0.285517
0.27242
0.262536
0.25544
0.250673
0.247758
0.246226
0.24564
0.245609
0.245788
0.245883
0.736521
0.704856
0.669408
0.631198
0.591248
0.5505
0.50989
0.470336
0.432685
0.397664
0.365832
0.337575
0.313132
0.292605
0.27595
0.262959
0.253272
0.246429
0.241931
0.23928
0.237998
0.237645
0.237825
0.238194
0.238437
0.737425
0.702143
0.664245
0.624333
0.583162
0.541532
0.500294
0.460306
0.422363
0.387142
0.355167
0.326807
0.302303
0.281765
0.265153
0.252256
0.242705
0.23602
0.231681
0.229169
0.227998
0.227726
0.227964
0.228383
0.228712
0.73794
0.699461
0.65899
0.617116
0.574489
0.531802
0.489806
0.44928
0.410956
0.375463
0.343303
0.31484
0.290307
0.269802
0.253266
0.240468
0.231022
0.224432
0.220162
0.217684
0.216507
0.216193
0.216364
0.216702
0.216949
0.738079
0.696468
0.653357
0.609427
0.565254
0.521417
0.47856
0.437392
0.398594
0.362759
0.330376
0.301807
0.277272
0.256836
0.240409
0.227727
0.218377
0.21185
0.207599
0.205085
0.203813
0.203347
0.203319
0.2034
0.203408
0.737974
0.692892
0.647054
0.601082
0.555379
0.510369
0.46659
0.424691
0.385338
0.349097
0.316453
0.287778
0.263282
0.242963
0.22669
0.214156
0.204913
0.198438
0.194181
0.19159
0.190159
0.189449
0.189072
0.188689
0.188186
0.737126
0.688317
0.639826
0.591953
0.54483
0.498676
0.453955
0.411227
0.371229
0.334526
0.301565
0.272788
0.248415
0.228279
0.212222
0.19989
0.190774
0.184356
0.180099
0.177436
0.175823
0.174842
0.173997
0.172819
0.171308
2.71592
2.67287
3.61431
5.17994
0.12866
0.149902
1.3356
0.0880006
3.3247
0.100007
2.65029
0.164036
1.00765
0.180637
1.45253
0.16402
2.83597
5.07947
0.0944835
1.05891
0.761878
0.159874
3.07119
0.329052
0.0745375
0.115747
0.0740786
0.482664
2.83048
2.81791
0.0971655
0.126873
4.14659
1.09182
2.79783
0.114178
1.42977
1.45847
1.56227
0.173823
4.15514
0.0379122
0.140393
0.939211
0.355378
0.197671
3.38822
4.01232
3.00842
3.61945
3.2104
3.91463
0.745415
5.13556
1.29841
3.36928
0.167964
0.734225
0.0980832
3.79076
0.134757
3.82745
0.128059
0.173749
0.0903627
0.830672
0.135992
1.03627
1.09354
3.37492
3.46317
0.184276
0.0963632
1.09051
0.0925207
0.751129
1.16926
4.02674
0.0949843
4.97946
1.00746
0.159301
0.103142
2.53325
0.126326
0.137721
0.0925567
4.03967
4.16283
0.227216
0.28886
0.167103
0.110704
0.169365
0.104882
2.6771
0.116964
2.79516
0.0761376
3.77881
0.298013
4.17619
0.323086
0.187876
0.0916614
0.4
3.25193
0.965383
0.0455224
2.83783
0.164052
0.0919073
3.42845
0.183866
0.737405
2.99839
3.89341
0.164228
0.786321
0.0805322
0.0113958
0.0984138
0.335326
0.0753859
4.20033
0.138407
3.936
0.990596
0.102243
4.01114
0.100595
1.09287
3.35648
1.54193
0.570045
0.0921935
0.345749
0.230256
0.13475
1.06678
0.155969
1.46047
3.80713
0.0145113
2.89801
0.178854
5.02104
0.971988
0.16244
2.72578
0.601613
0.191646
5.13098
1.54793
0.0970549
2.50315
0.0821447
0.164271
1.26372
0.121229
0.137353
3.39696
0.147462
2.91321
0.123095
2.84983
0.186936
0.073254
0.195851
0.08577
0.168287
0.180447
1.00594
2.66328
0.134641
0.438946
1.01843
3.11487
3.22951
0.158263
1.23968
0.123924
0.749373
1.22094
0.749994
0.0781284
2.9911
0.0376062
3.76712
0.151845
3.95727
3.7946
3.22459
1.42237
1.48233
3.89491
0.0893907
0.15701
2.95407
2.755
1.50953
0.221143
0.152846
0.154152
0.48314
0.114866
0.142138
0.319374
3.10826
0.153335
0.091388
0.135829
1.24954
0.462314
0.692471
4.1861
0.110327
0.0876202
0.222309
0.276521
0.267089
0.04376
0.0973111
4.01201
2.39307
3.95533
0.22244
2.85935
0.0473409
0.101038
2.39516
0.116351
0.122639
0.0936583
1.52953
0.105239
1.3252
0.357648
1.25477
1.58851
0.100788
0.133978
0.123042
0.664123
0.0937498
0.0954832
0.129464
0.428224
0.162492
0.118046
0.0441284
0.465456
0.116444
3.02543
0.108763
0.0741932
3.2644
1.18363
1.28146
0.0945036
0.746556
0.10895
0.133249
0.0926447
1.10864
0.0761492
0.114969
4.95601
1.33303
0.0729729
0.82058
3.19236
0.0834523
0.0840739
0.096681
4.85484
0.152391
3.1591
0.176743
3.89555
0.902836
0.622363
0.860174
0.196919
3.24652
0.14433
0.419127
3.74672
3.35299
3.98213
1.56732
0.15301
0.0244773
3.44535
1.89949
4.20837
4.13669
0.15177
0.123311
3.52085
3.84685
0.136573
0.214243
0.158308
4.11212
0.117829
0.763355
0.118011
1.06407
0.157185
0.186238
0.141742
3.96146
0.0980062
0.0808384
1.45708
3.66124
0.119193
0.0751329
1.95125
1.27038
0.130062
0.226388
0.0964888
0.0950299
0.0769015
3.85376
0.978093
0.147484
0.744057
0.121376
1.47496
0.234191
0.101764
4.04754
0.142893
0.110657
0.108784
0.00401234
0.811367
0.130615
0.17283
3.63359
0.13765
1.1114
0.110537
0.171778
0.104314
0.0899774
3.18905
3.15089
0.111141
0.0549235
1.2915
3.49888
2.09647
2.10281
0.956422
0.123638
3.34476
3.15254
2.77891
0.113997
3.91561
0.0341794
0.0882475
0.186094
3.83718
0.129001
3.70321
0.165708
1.53625
2.86233
3.91677
1.00039
0.0766194
0.0845116
0.123183
0.123122
0.103682
4.15384
0.172212
4.19188
1.01287
0.986702
2.06568
0.124074
1.05728
2.55421
3.95951
1.02353
0.115156
0.326126
3.95207
1.19345
0.0962586
0.118811
4.11407
0.164557
2.8557
0.0875703
0.142558
0.125913
3.32589
0.169732
0.00112087
1.37679
0.340477
1.28535
0.100889
3.3295
0.129915
3.51614
0.131745
0.122444
0.728577
3.04076
3.19381
0.1471
0.165618
0.125915
0.124494
0.236889
0.351513
0.191468
3.95428
0.00311035
0.241325
0.11099
0.126879
0.14985
0.0748437
0.231837
0.0972385
1.52062
0.180792
0.16362
0.0177269
0.105224
0.267805
0.118915
1.58639
3.54043
1.13561
1.15193
4.72911
0.395464
3.60365
0.0931291
0.0937203
3.89917
0.130347
0.145258
3.41027
0.140042
3.33465
3.20269
0.138278
0.301808
1.03127
0.155362
0.728883
3.25746
1.20129
3.91198
0.0843153
0.0950932
4.03005
0.117307
2.60051
0.407774
0.0842221
2.76997
0.287657
0.0760698
1.03751
0.215331
0.0790832
0.994139
0.937197
0.70541
1.5349
0.0113282
0.166109
2.48941
0.114929
0.157611
0.200978
3.12776
0.163974
1.45317
0.154134
0.0830901
3.87326
0.125666
0.113437
1.43799
0.143501
0.113334
3.67457
0.139484
1.53465
0.131176
0.580835
0.993964
1.12855
0.151452
0.151082
1.37702
0.127924
0.139861
1.0482
0.134419
0.205633
0.0750421
3.81491
4.17148
3.07579
0.0769416
0.791296
0.112871
3.9802
1.06198
5.79707
1.12717
0.207441
3.93324
4.27757
0.11595
0.194331
0.448196
0.170225
4.62298
3.7268
0.080724
1.32155
0.143054
3.29543
3.00944
0.158881
1.94472
2.80058
0.154593
3.46154
0.0665967
3.86991
0.129076
0.236537
0.143777
3.12521
1.471
1.50025
0.101935
3.06606
3.06556
3.77187
0.0937718
0.131179
0.882205
3.20979
0.11421
1.4901
0.143924
0.999575
2.73374
0.0966185
0.776657
0.0970357
0.127948
0.902629
4.02407
0.216911
1.42664
0.102261
0.129523
3.42959
3.38604
3.25494
0.26104
0.939739
1.09234
0.743815
0.217335
0.11429
0.0912321
4.09535
0.148904
0.151143
1.95671
0.210719
0.19076
0.147274
0.169862
1.47923
0.141505
0.101712
1.03853
3.09699
0.117764
0.122339
3.6461
0.484943
0.0395646
0.240987
0.981352
0.111613
0.145744
0.109991
3.37503
0.130102
0.140991
1.53501
0.0946996
0.191821
0.35879
0.757114
0.113205
0.168768
4.06569
0.185239
0.0816206
0.128812
0.128973
0.250643
0.159271
3.75942
3.65592
0.446961
4.01363
0.132705
0.0734621
0.0806835
0.0651004
0.179642
0.0791427
0.797743
0.230732
0.096813
0.174797
1.3728
0.750662
0.222274
0.825799
0.151824
0.141533
0.0965731
0.327626
1.28748
3.7433
1.48382
1.30273
0.0805876
0.0994667
0.0484872
0.212773
0.106715
3.40995
0.0962467
0.804355
0.120877
3.32074
4.72971
2.58098
0.00946169
0.0818214
0.0883615
4.28264
3.64615
0.712363
0.741122
0.154309
0.0988225
0.12221
3.81415
0.025386
0.121313
1.50769
0.110496
0.170753
0.107079
0.0813217
0.755549
0.250006
0.107776
0.115415
0.255823
0.122462
2.93745
3.63177
0.128449
1.40308
0.152536
2.65167
0.0941357
0.133799
0.119129
0.10887
2.02465
0.139494
0.140699
0.0978573
0.846014
0.112797
0.203936
0.179727
3.87123
1.3985
0.558252
4.00734
1.48009
3.20594
2.79981
0.0959467
0.0815926
0.082266
0.00219967
0.15001
0.901173
0.171226
0.109472
0.919574
0.10716
0.105542
0.532644
0.125536
0.118708
0.0899477
0.555494
1.03303
4.24993
0.0983236
3.31724
1.2781
3.06506
0.81456
4.27099
3.32126
4.72535
0.0826579
0.158732
0.0152206
0.706509
0.139716
1.95836
3.06913
0.12629
1.25134
1.16695
0.107333
0.0898885
0.128171
3.53733
3.9076
0.107233
1.37037
1.51761
0.786038
3.51205
0.000234489
0.117162
0.538253
0.0205049
2.92991
1.33121
2.91533
1.50854
0.0758076
1.51518
0.0778447
0.00630313
0.698716
0.179037
0.254887
0.121391
0.140168
1.47619
0.158864
0.0901699
0.139138
0.147795
1.4165
0.174997
3.84043
1.46491
0.151138
3.07737
0.179398
1.08088
0.145009
0.117268
0.1649
0.888685
0.644009
0.0236348
0.173023
3.23472
3.92182
1.1695
0.136724
0.991152
1.79542
1.43171
4.54695
1.47857
0.239862
0.144557
3.08937
0.0705053
0.0852434
0.311929
3.89407
3.49354
0.124357
0.11538
3.63163
0.0784702
3.75715
3.49283
0.165945
0.12268
3.27626
2.97061
2.89926
0.12045
0.117401
0.0603317
0.964131
1.43494
0.128832
0.0796267
0.121258
1.15858
0.196352
0.653544
3.09559
0.0981761
0.128045
5.21639
0.100176
0.838195
0.0730764
0.864716
0.132323
0.0949558
1.85003
0.179307
0.129312
0.113603
0.498006
0.843996
4.04227
0.0934555
0.118712
0.137649
1.42884
1.07465
3.82957
0.0782804
1.3371
1.47092
0.00163045
0.0861796
0.148067
2.40843
0.145385
1.14086
0.174631
0.00354863
1.29945
0.154773
5.98554
4.35419
0.947163
3.83382
3.85335
3.52503
0.100639
3.94191
1.41165
0.156431
1.30382
0.111945
0.149351
1.05438
0.138303
0.264095
0.83203
4.20393
0.124752
0.106459
3.95519
0.211214
0.159717
1.37213
3.06925
2.11299
0.119424
0.349303
4.00878
2.88588
1.84088
0.810353
3.54072
0.268017
0.0801202
0.872293
3.17523
0.134998
2.16958
0.212854
3.46696
0.179637
1.07709
2.82001
0.0151706
0.134266
0.120836
3.44362
1.91782
3.40512
2.95327
0.216857
0.537474
0.748389
0.282225
3.01278
0.729189
0.114361
0.150401
0.139045
0.078749
1.0183
2.70354
0.0136929
3.42742
0.175497
1.33817
0.108493
0.108274
0.0856827
3.74694
3.36377
0.460285
0.843232
0.125045
0.103129
1.54358
0.108558
2.02938
1.61464
4.11999
0.0827241
1.04012
1.55578
0.162797
0.205131
0.150629
4.16086
0.158495
0.270272
1.33894
1.40552
0.0958929
0.281014
0.114111
0.175795
0.105743
0.107763
0.775706
0.0973371
0.397132
3.31855
1.07052
3.78585
0.147642
0.386584
0.898239
0.108585
2.87787
0.135668
0.183869
3.61579
0.172397
0.644882
0.257203
0.0731485
3.07098
0.107141
1.31301
0.078713
1.31491
1.40046
3.91867
0.0937496
1.22696
0.126831
1.24264
0.166051
3.61034
1.28299
0.595669
2.81835
0.177711
3.2635
0.134379
3.02244
0.166613
0.0831112
0.156732
1.11572
1.47247
0.0775076
0.11831
1.07249
0.114789
0.125492
0.0930458
0.0738073
0.162616
4.00579
0.191811
0.145141
1.49769
0.488009
3.51061
0.0694282
0.138242
0.121097
1.54161
0.210154
0.148422
4.31703
1.76747
0.924618
0.118997
0.29034
0.974486
3.48313
0.118939
0.112356
0.185378
0.205346
0.132808
2.16381
3.95196
5.38967
0.847943
0.121582
1.56198
4.18652
0.415125
1.05065
0.166445
3.09779
2.69089
3.36871
0.130094
0.134598
0.354781
3.39067
0.219791
3.76373
0.228836
0.843489
3.25074
0.106532
0.186533
0.191674
0.102331
0.0972174
0.544129
3.03803
0.096737
3.96259
0.132172
0.124928
0.0959271
0.104921
0.770506
0.162135
1.09231
1.05339
0.117823
0.188591
2.9867
2.51408
0.114094
0.147207
0.179624
2.48007
4.96262
0.391299
3.86585
0.112493
0.10285
0.811417
0.125736
0.465066
1.54546
0.119242
0.0893228
0.0257015
0.2058
1.19536
4.09373
1.20921
0.105163
0.373181
0.104151
4.14945
4.17801
0.125363
0.101796
1.26432
0.138316
0.106858
2.78935
2.96061
0.355031
0.106083
0.110483
0.642219
3.13242
0.165497
0.131533
2.95228
3.38557
0.004281
0.120502
0.146668
0.177428
1.18654
0.77316
0.134746
1.40257
0.135807
0.151248
0.109928
0.771453
0.118494
3.40335
3.20422
4.08512
2.90665
2.08115
6.05821
0.128337
3.966
0.809466
0.0970812
0.605372
0.0199063
0.334403
0.128828
0.121337
0.0828642
3.65978
0.0841511
0.459156
1.54107
0.185961
0.367032
1.18442
3.35209
0.0607925
3.5587
2.81218
0.183816
0.108685
0.325542
0.699123
0.291476
1.2173
4.11685
0.155609
0.0907147
0.137328
1.23311
4.14936
0.174611
0.207495
0.0770849
0.112881
0.150579
0.531691
0.101805
0.212936
0.305529
3.15647
0.115597
0.392267
2.98099
0.154201
0.377068
0.339001
4.45422
0.423554
1.56971
0.796449
0.146321
5.38204
3.25057
0.115357
0.925188
1.45781
0.120279
0.162482
0.160655
1.41244
0.127429
1.01031
0.114377
1.542
3.53171
1.00448
3.11344
0.495414
0.144795
1.08727
1.19387
0.199096
0.192422
0.1905
2.69671
0.161181
0.437176
0.119043
0.206306
0.86339
0.148456
0.0957249
0.113124
3.48802
1.05777
0.103009
0.201904
0.0976352
0.126985
0.144444
2.95074
0.19038
1.34564
3.87098
0.951303
0.00762847
1.22948
2.8606
1.06991
3.20153
0.269613
1.61948
3.89306
3.72919
0.0448755
3.16564
0.117845
3.27352
4.02648
0.100604
1.06316
1.40119
3.99002
1.16904
0.420567
0.134768
1.32818
3.54187
2.42964
3.92132
0.206916
1.06759
0.107775
3.2988
0.490034
0.0906451
0.14693
1.04034
0.0964621
0.264759
1.06271
0.121167
2.97428
0.0809042
0.13717
2.13613
1.30899
0.212128
0.769414
1.48619
0.21351
0.855437
2.86629
0.12241
0.522142
0.126205
3.37464
1.44227
0.0789384
4.26336
0.114844
0.768171
2.78797
0.14624
0.113981
0.748185
1.00256
1.31994
0.105847
3.95116
0.169646
0.840501
4.06779
0.563686
0.199623
2.04135
0.17752
0.132775
0.0140334
1.32731
3.64104
0.130423
4.06064
0.376033
0.147449
1.38854
0.160666
0.14855
1.21387
0.178113
0.119412
2.11291
0.105596
0.145813
0.186919
3.4643
3.3548
0.253703
0.109272
0.106987
1.24353
3.97962
0.122449
0.115192
0.399466
4.09442
0.124657
1.30992
1.22292
0.0850182
0.794738
3.9983
0.117853
0.286907
0.114414
3.21413
0.108053
0.131245
0.225211
0.585743
3.49931
0.0753824
3.92426
0.104374
2.72787
0.134822
1.31132
0.604528
1.09629
3.1104
0.198281
0.826546
0.209461
0.18426
0.18664
3.22327
3.32883
0.119963
0.123986
1.44796
0.187255
0.158871
0.0851889
4.18568
3.73099
1.02897
3.99635
0.199893
0.0852671
1.27998
0.367596
3.06952
0.0732766
0.163552
0.0880885
0.155961
0.126971
0.140854
0.131446
0.516986
4.32354
3.33579
0.104696
0.359082
0.933167
3.53057
0.137006
4.18668
3.1117
3.78036
0.165932
1.03836
0.103872
0.19761
0.149675
0.160479
0.0948072
2.88963
4.22608
0.16908
0.427707
1.0609
0.421119
3.38606
4.01496
0.139887
0.0977688
0.156049
0.37954
1.19313
0.097765
3.19501
0.936423
0.1249
0.227032
0.198909
0.668056
0.207208
0.113626
0.11629
0.108474
0.231531
0.857839
0.184115
4.03575
0.170988
0.149701
0.669244
0.209947
0.123393
3.8124
3.43742
0.150984
3.4542
0.0994883
1.23701
0.171184
0.210916
0.116827
0.0878037
3.291
0.178
0.189674
3.67201
2.90642
0.102892
0.107426
0.117748
0.195546
1.48254
0.00820523
0.139778
4.12408
0.132584
0.0997266
0.175703
3.83964
0.14224
3.41878
3.16043
0.149673
4.1123
0.187291
0.0734479
4.29708
2.4679
0.0970405
0.00394097
0.763333
0.220636
0.21847
0.103238
1.44627
2.84774
0.159967
0.096168
3.36163
0.127585
3.0657
1.80444
0.146066
0.944541
3.98714
0.0965633
1.16104
0.11852
0.173549
0.200961
0.127419
3.63231
3.19387
0.141773
0.103904
3.73561
0.155647
0.20775
0.263951
1.04697
1.44317
0.0832812
0.116199
0.103252
0.12869
0.0808995
9.23754e-05
0.190848
0.197102
3.43968
0.778341
0.123142
2.04434
0.213841
1.11505
3.994
1.12504
3.62174
0.869899
0.00569746
0.796904
0.202739
0.132693
3.04027
0.164896
5.12621
3.29991
0.818519
0.15923
3.66137
0.0823744
3.6072
0.141786
0.152685
3.67406
0.493564
1.118
0.153473
0.137496
0.0950272
0.17765
1.47203
1.5114
0.125495
2.90689
0.594034
3.34784
0.102742
4.27208
0.149241
0.128268
0.461981
0.109931
0.764978
3.72152
0.913096
0.0888293
3.30624
1.39677
2.48224
1.0654
0.77489
0.0518893
0.845048
3.68764
0.11073
0.132543
0.13147
3.89468
0.18207
0.113603
1.36158
0.868639
0.378076
4.21039
1.10026
0.321752
0.389257
1.34275
0.218116
0.887935
0.11648
0.119887
0.125095
3.61721
0.159087
1.25945
3.40258
0.0746666
1.06949
3.15355
0.122058
2.63272
0.117346
0.868928
0.20147
0.0768761
0.175037
0.105345
0.074125
0.194428
0.173517
0.165215
0.233895
3.28185
0.890951
0.147072
0.862828
0.110802
0.136389
0.124586
0.135013
0.170905
1.55449
0.0932701
2.02666
3.48594
1.53463
1.17697
1.98455
0.184893
3.38628
0.125479
1.25181
0.151188
0.139268
0.263371
2.83426
0.199522
0.121229
0.109995
0.340589
0.235634
1.51791
0.792052
1.68721
3.07419
0.131469
0.106349
4.66318
0.127687
0.155955
0.0806877
0.26489
0.100727
0.0995597
0.170356
0.106101
1.21275
3.5473
2.01987
0.232387
0.107941
1.049
3.7661
3.18254
0.0851323
0.143996
0.978322
0.1149
0.0810848
0.213605
3.48559
0.929031
0.111005
0.130093
0.17137
0.0877057
3.39887
0.153513
0.144758
0.150777
0.154568
3.25061
0.1115
1.55155
0.669415
0.189422
0.12578
0.103189
3.55486
0.545752
0.119437
4.0285
0.965532
0.864161
0.0899951
0.135528
1.32449
4.26959
4.1881
0.0923434
1.04591
0.112166
0.0992201
3.43388
3.18837
0.0752974
0.00234695
1.16573
1.4918
0.109015
0.077491
3.36718
0.122981
1.74598
0.260939
0.174733
4.716
0.10898
0.121139
0.183861
2.97636
0.11191
0.085664
0.121658
0.146915
0.375977
0.198968
0.749136
0.926275
0.880016
0.145389
0.132298
0.107719
0.142526
0.151227
0.131839
0.867034
0.153878
0.175251
2.33279
3.77595
0.11553
0.0897473
0.180945
3.5768
0.139997
1.07003
0.068799
0.103881
0.0218641
0.152957
0.113483
3.95955
0.156656
0.0952963
1.87391
0.111905
1.40766
0.141324
0.116878
3.80397
3.73883
0.0793547
3.31784
0.114308
1.16681
0.000139989
3.49514
0.109366
1.86474
0.131477
3.57026
0.700113
1.29908
2.99305
3.89862
0.164995
3.96917
0.0885052
0.0991152
0.0766379
3.57533
0.32647
0.0883834
0.945595
2.50021
3.09068
0.209996
4.17814
0.122911
0.198097
0.11517
0.662878
0.259683
1.61625
0.131655
0.173876
0.107015
0.113678
0.201072
3.40072
0.116233
0.103485
4.00487
0.774959
0.0777196
0.263048
3.70987
0.14042
0.128734
3.82105
0.213522
3.72657
1.34205
0.123865
0.566585
1.02969
0.025313
0.194411
0.112767
0.0810448
0.208022
0.217174
3.58806
0.085313
1.22309
0.366929
0.153436
3.51362
1.63265
0.186444
0.126954
0.0744494
0.108097
0.0787086
1.65865
2.79497
0.116257
0.137856
0.152633
1.26195
0.204065
1.00797
0.168798
0.136019
0.155107
0.174904
1.82823
0.198768
0.843244
1.24729
0.000909031
1.41604
0.136462
1.04439
0.691863
0.133472
0.131298
0.224151
0.110354
0.183579
1.31141
3.80605
3.871
3.24454
0.971742
0.0144004
0.0781524
1.38105
0.0895971
1.45916
4.05143
0.109683
2.60721
1.04715
2.47246
0.187074
0.0885491
0.135882
0.108988
3.3678
0.114947
3.50203
0.60976
0.387811
0.0925377
3.11719
1.27527
0.148263
0.112855
2.58607
0.182086
0.136194
0.901634
1.02739
0.111929
0.10069
2.84452
0.117739
1.21818
0.150983
0.144929
0.202788
3.18646
0.0177254
0.0335139
0.114878
0.112192
0.358403
0.108801
3.74265
0.464308
0.0344299
0.154346
0.0952682
0.985012
0.291181
0.0736439
1.54624
3.6291
0.171852
1.09551
0.123216
3.28415
0.874311
0.265275
0.310789
0.137348
0.0991333
0.0913422
0.810524
0.756613
0.0998208
0.323642
1.44531
3.51551
2.02123
1.16631
0.330383
0.121864
2.93776
0.19372
0.123801
0.0962369
0.209655
1.10913
4.23672
0.191744
1.01861
0.132663
0.912351
3.22914
3.63021
3.84685
3.56042
4.41412
0.264294
0.291901
0.166569
0.825974
1.51782
0.104666
0.852382
0.0858474
3.14845
0.12691