/*--------------------------------*- C++ -*----------------------------------*\
  =========                 |
  \\      /  F ield         | OpenFOAM: The Open Source CFD Toolbox
   \\    /   O peration     | Website:  https://openfoam.org
    \\  /    A nd           | Version:  10
     \\/     M anipulation  |
\*---------------------------------------------------------------------------*/
FoamFile
{
    format      ascii;
    class       volScalarField;
    location    "1650";
    object      nut;
}
// * * * * * * * * * * * * * * * * * * * * * * * * * * * * * * * * * * * * * //

dimensions      [0 2 -1 0 0 0 0];

internalField   nonuniform List<scalar> 
10435
(
0.521241
0.453697
0.549935
0.504985
0.495493
0.545106
0.555355
0.648598
0.782897
0.556935
0.476661
0.533506
0.570374
0.755247
0.693858
0.577027
0.81947
0.585294
0.858338
0.519938
0.607858
0.541422
0.555573
0.751703
0.540189
1.25392
1.24379
0.556249
1.15475
0.569596
0.523847
0.481949
0.685701
1.142
0.653135
0.397101
0.604147
1.25846
1.19005
0.83123
0.575829
0.554026
0.812735
0.491657
0.562575
0.792621
0.559232
0.970329
0.807582
0.584879
0.634273
0.512169
1.15496
1.19144
1.20801
1.11906
0.633843
1.22559
0.969999
0.703223
1.17477
0.437587
1.19417
0.503671
0.555456
0.547425
1.03342
1.09662
0.61909
0.728586
1.19731
1.28265
0.703007
0.542205
0.639789
0.633834
0.691532
0.563873
0.722093
0.678941
0.611175
0.569764
1.11866
1.18573
0.6317
0.407631
0.443935
0.466299
0.490866
0.444698
0.47427
0.478684
0.560745
0.46562
0.450751
0.379378
0.488871
0.587515
0.903307
0.485929
0.537648
0.511114
0.449314
0.4586
0.518672
0.497085
0.558502
0.598213
0.659117
0.640899
0.571945
0.50522
0.586226
0.61013
0.481183
0.531568
0.491524
0.411629
0.458911
0.506185
0.499231
0.536452
0.42232
0.337743
0.495426
1.20836
0.498367
0.440055
0.488925
1.36202
0.371461
0.4915
0.606387
0.726474
1.28778
0.984472
0.368104
0.513183
0.448094
0.52644
0.522103
0.53504
1.08092
0.509263
0.551763
0.555401
0.34381
0.5162
0.779414
0.524327
1.03119
0.572924
0.480879
0.520592
0.527528
1.1302
0.497636
0.435509
0.540738
0.479811
0.53681
0.780691
0.475686
0.58002
0.597997
0.493095
0.702293
0.533156
0.604268
0.498418
0.53035
0.792963
1.14468
0.519882
0.550648
0.467222
0.418039
0.925296
0.564726
1.16376
0.466429
0.533484
0.52341
1.1735
0.540021
0.854025
0.677182
0.575782
0.499244
0.507338
0.51079
1.08425
1.34428
0.397594
0.50062
0.59573
0.72126
0.412359
0.935699
0.586662
0.542983
1.18846
0.561879
1.19442
0.553267
0.483873
0.46954
0.523263
1.16852
0.561155
0.992629
0.548785
0.504241
0.570568
1.20137
0.705722
0.567938
1.05885
1.26353
0.840076
1.16649
0.92093
1.09699
0.441098
1.21231
0.623704
1.21924
0.443436
0.515128
0.537052
1.00419
0.662394
1.2381
0.58018
1.35554
0.882465
0.658381
1.25673
0.649519
0.524459
0.486418
1.18586
1.00715
1.14882
0.479188
0.745445
0.373023
0.612127
0.957405
0.449549
1.05282
0.519332
0.570699
0.572874
0.591656
0.496081
0.905543
0.576898
1.06001
1.10941
0.565872
0.519518
1.22382
0.636265
0.544503
0.982215
0.482224
0.536312
1.10836
0.486174
0.558577
0.652935
0.611602
0.545869
1.29786
0.513802
1.3136
0.491775
0.582329
0.680343
0.561723
0.822624
0.554391
0.48511
0.498677
1.0308
0.506106
1.19673
1.17856
1.15453
0.388252
0.487563
1.15054
0.631893
1.20333
1.18661
0.627566
0.528973
0.489426
0.531643
1.02737
0.636994
0.552969
1.01875
0.486202
0.640349
0.847855
0.587206
0.536858
1.16975
0.55957
1.20937
0.425898
0.510011
0.739157
1.15178
1.14316
0.51862
1.06805
0.537566
0.525557
1.17598
0.485352
1.05025
0.711132
0.559356
1.34443
0.554097
1.04652
1.28537
0.752801
1.12267
1.16033
0.552119
0.544874
1.17949
1.11575
1.01075
1.13316
1.10733
1.36312
1.21438
1.14254
1.15146
1.11357
1.12215
1.1443
1.38129
1.01674
0.747111
1.14847
0.551177
1.2258
0.557382
0.742511
0.824
0.570687
0.541174
1.17426
1.16521
1.05195
1.23173
1.08954
1.06884
1.17027
1.36429
1.13824
0.557431
1.33278
0.77441
1.21947
1.37401
0.572855
0.849893
0.990962
1.26508
1.22734
1.30988
1.1739
1.28393
1.50092
1.2023
0.696604
1.11797
0.634545
0.770497
0.562462
0.56775
0.795939
0.553237
0.695202
0.44821
0.891483
1.16549
1.16659
0.551544
1.17724
0.573475
1.46267
1.16856
1.37043
1.1354
1.10366
0.562295
1.27488
0.663599
0.59491
0.943176
1.31586
1.39748
0.850747
1.4375
1.33036
1.15466
1.10094
1.06729
1.14822
0.551293
1.18754
1.29075
1.14926
1.10248
0.579032
0.894236
0.954094
0.868879
1.15598
6.12763
6.14908
6.14206
6.12764
6.12352
6.1495
6.23596
6.42846
6.80054
5.47601
5.49628
5.50337
5.50604
5.5176
5.55504
5.64276
5.81496
6.11671
4.83405
4.85223
4.86587
4.878
4.89809
4.93995
5.02297
5.17306
5.42184
4.21255
4.22832
4.24407
4.2603
4.2837
4.32509
4.39972
4.52745
4.7316
3.62569
3.639
3.65425
3.67109
3.69424
3.73198
3.79607
3.90169
4.06715
3.08804
3.09899
3.11237
3.12773
3.14845
3.18083
3.23356
3.31769
3.4466
2.61207
2.62099
2.63178
2.64456
2.66185
2.68831
2.73018
2.79495
2.89104
2.20663
2.2133
2.22103
2.23069
2.24427
2.26521
2.29783
2.347
2.41746
1.87505
1.87844
1.88267
1.8891
1.89924
1.91554
1.94091
1.97857
2.03147
1.61337
1.61269
1.61349
1.61705
1.62436
1.63701
1.65694
1.68625
1.72705
1.41173
1.40772
1.40604
1.40754
1.41279
1.42275
1.43863
1.46175
1.49341
1.25806
1.25345
1.25096
1.25146
1.25539
1.26341
1.27629
1.29484
1.31984
1.14364
1.14098
1.13912
1.1394
1.1425
1.14903
1.15957
1.17466
1.19475
1.06398
1.06348
1.06252
1.06273
1.06505
1.0702
1.0787
1.09097
1.10727
1.01483
1.01496
1.01415
1.01383
1.0151
1.01869
1.02515
1.03483
1.04794
0.990479
0.989454
0.987706
0.986207
0.985951
0.987683
0.991925
0.998973
1.00892
0.983925
0.981055
0.977638
0.974381
0.972161
0.9717
0.973512
0.977866
0.984754
0.989122
0.984698
0.979354
0.973969
0.969422
0.966454
0.965604
0.967176
0.971216
1.00236
0.996714
0.989385
0.981625
0.974444
0.968658
0.964867
0.963436
0.964496
1.02143
1.0147
1.00528
0.994893
0.984773
0.975846
0.968791
0.964049
0.961782
1.04516
1.03718
1.02535
1.012
0.998593
0.98617
0.975497
0.967128
0.961416
1.07314
1.06328
1.04844
1.03163
1.01453
0.998227
0.983526
0.971072
0.961401
1.10578
1.09253
1.07361
1.05273
1.0315
1.01095
0.99181
0.974733
0.960418
1.14459
1.12443
1.09987
1.07428
1.04858
1.02354
0.99964
0.977397
0.957626
1.19283
1.15756
1.12582
1.09529
1.06503
1.03553
1.00681
0.978907
0.952437
3.59779
3.68212
3.77116
3.8644
3.96156
4.06213
4.16571
4.27169
4.37969
4.48908
4.59941
4.71027
4.82106
4.93147
5.04085
5.14876
5.25467
5.35797
5.45807
5.55441
5.64623
5.73285
5.81351
5.88737
5.95365
6.01164
6.06145
6.10298
6.13596
6.16025
6.17674
6.18602
6.18871
6.18585
6.17865
6.16857
6.1572
6.14628
6.13771
6.13349
6.13565
6.14625
6.16699
6.19927
6.24397
6.30115
6.3698
6.44799
6.53211
6.61761
6.69868
6.76885
6.82186
6.85154
6.85334
6.82405
6.76271
6.66989
6.54957
3.5669
3.65215
3.7416
3.83497
3.93194
4.03215
4.13519
4.24063
4.34802
4.4569
4.56681
4.6773
4.78789
4.8981
5.00744
5.11539
5.2214
5.32489
5.42525
5.52184
5.61398
5.70099
5.78216
5.85677
5.92411
5.9835
6.03445
6.07674
6.11041
6.1358
6.15342
6.16383
6.16772
6.16598
6.15976
6.1504
6.13947
6.1287
6.11999
6.11536
6.11686
6.12649
6.14606
6.17705
6.22037
6.27617
6.34359
6.4206
6.50385
6.58875
6.66965
6.74025
6.79409
6.82511
6.82842
6.80068
6.74054
6.6485
6.52789
3.51582
3.59837
3.68521
3.77612
3.8708
3.96892
4.07008
4.17386
4.27985
4.38758
4.49662
4.60649
4.71672
4.82682
4.93628
5.04458
5.15112
5.25533
5.35657
5.45416
5.54742
5.63563
5.71805
5.79396
5.86264
5.92347
5.97601
6.02001
6.05545
6.08255
6.10173
6.11354
6.11869
6.11806
6.11274
6.10405
6.09349
6.08278
6.07379
6.06852
6.06905
6.07738
6.0954
6.12465
6.16614
6.22015
6.28598
6.36175
6.44433
6.52929
6.61111
6.68358
6.74026
6.7751
6.78309
6.76071
6.70638
6.62035
6.50572
3.43682
3.51623
3.60004
3.68804
3.77999
3.8756
3.97449
4.07629
4.1806
4.28699
4.39503
4.50424
4.61414
4.72425
4.83402
4.9429
5.0503
5.15559
5.2581
5.35712
5.45194
5.54181
5.62598
5.7037
5.77428
5.83712
5.89176
5.93792
5.97556
6.0048
6.02601
6.03969
6.04652
6.04737
6.04331
6.03561
6.02574
6.0154
6.00644
6.00087
6.00075
6.00817
6.02503
6.05298
6.09315
6.14596
6.21087
6.28619
6.36897
6.45496
6.53878
6.61429
6.67502
6.71485
6.72853
6.71235
6.66444
6.5848
6.47628
3.33486
3.41071
3.4911
3.57588
3.66486
3.75777
3.85429
3.95408
4.05675
4.1619
4.2691
4.37787
4.48773
4.59816
4.7086
4.81848
4.92715
5.03397
5.13822
5.23917
5.33605
5.42811
5.51456
5.59465
5.66769
5.7331
5.79042
5.83934
5.87978
5.91179
5.93567
5.95188
5.96105
5.96404
5.96187
5.95579
5.94727
5.93797
5.92975
5.92463
5.92472
5.93212
5.94886
5.97664
6.01674
6.06972
6.1352
6.21167
6.29632
6.38503
6.47249
6.55253
6.61862
6.66447
6.68464
6.67516
6.63389
6.56062
6.458
3.21288
3.28473
3.36137
3.44271
3.52858
3.61876
3.71295
3.81085
3.9121
4.01629
4.12299
4.23172
4.34198
4.45322
4.56486
4.67627
4.7868
4.89573
5.00232
5.10581
5.20539
5.30028
5.38968
5.47283
5.54903
5.61771
5.67839
5.73076
5.77469
5.81019
5.83751
5.85705
5.86944
5.87548
5.87617
5.87275
5.86665
5.85954
5.85329
5.84995
5.85166
5.86061
5.8789
5.90838
5.95046
6.00585
6.07434
6.15454
6.24375
6.33789
6.43161
6.51861
6.59217
6.64572
6.67355
6.67141
6.63694
6.56971
6.47228
3.07511
3.14257
3.21519
3.2929
3.37561
3.46312
3.55516
3.65145
3.75164
3.85533
3.96205
4.07133
4.18261
4.29533
4.40886
4.52254
4.63567
4.74748
4.85719
4.964
5.06708
5.16561
5.2588
5.34586
5.42608
5.49889
5.56383
5.62057
5.66892
5.7089
5.74071
5.76474
5.78157
5.79201
5.79703
5.79785
5.7959
5.79283
5.79056
5.79117
5.79687
5.80993
5.83258
5.86686
5.91434
5.9759
6.05146
6.13973
6.238
6.3421
6.44647
6.54449
6.629
6.69299
6.73032
6.7364
6.70864
6.64655
6.55271
2.92577
2.98838
3.05665
3.13061
3.21017
3.29518
3.3854
3.48054
3.58024
3.6841
3.79163
3.90227
4.01544
4.13051
4.24682
4.36367
4.48033
4.59598
4.7098
4.8209
4.92846
5.03164
5.12965
5.22171
5.30705
5.38514
5.45551
5.51785
5.57195
5.61781
5.65565
5.68583
5.70895
5.7258
5.73733
5.74485
5.74977
5.75367
5.7586
5.76666
5.78018
5.8016
5.83331
5.87763
5.93639
6.01061
6.10033
6.20417
6.31927
6.4412
6.56397
6.68026
6.78203
6.86138
6.91137
6.92687
6.90509
6.84568
6.75167
2.77172
2.82885
2.89242
2.96253
3.03912
3.122
3.21092
3.30544
3.40541
3.51052
3.61994
3.73306
3.84919
3.9676
4.08771
4.20871
4.32997
4.45067
4.56968
4.68619
4.79938
4.90839
5.01254
5.11101
5.20287
5.28774
5.36512
5.43478
5.4965
5.55037
5.59672
5.63583
5.66812
5.69449
5.71589
5.73414
5.75063
5.76622
5.78349
5.80475
5.83264
5.86975
5.91862
5.98234
6.06328
6.16237
6.27963
6.41248
6.55773
6.71147
6.86767
7.01746
7.15029
7.25607
7.32605
7.35323
7.33421
7.26952
7.16392
1.28483
1.24232
1.21028
1.18215
1.15567
1.13042
1.10703
1.08672
1.07123
1.06284
1.06439
1.07876
1.10856
1.15603
1.22338
1.31365
1.4296
1.57288
1.74396
1.94254
2.16817
2.42072
2.70068
3.00983
3.35195
1.22115
1.21431
1.19655
1.17451
1.15069
1.12655
1.10349
1.08313
1.06742
1.0587
1.05965
1.07308
1.10175
1.14838
1.21568
1.30636
1.42266
1.56602
1.73694
1.93519
2.16035
2.41228
2.69167
3.00061
3.34337
1.19967
1.19575
1.18265
1.16393
1.14201
1.11876
1.09594
1.07542
1.05929
1.04993
1.04998
1.06224
1.08967
1.13525
1.20188
1.29216
1.40805
1.55071
1.72042
1.91684
2.13942
2.38787
2.66268
2.96556
3.29986
1.1878
1.18246
1.17018
1.15262
1.13155
1.10869
1.08583
1.06494
1.04816
1.0379
1.03679
1.04768
1.07365
1.11781
1.18314
1.27215
1.3866
1.52735
1.69441
1.8872
2.10496
2.34719
2.61418
2.90733
3.22953
1.17799
1.1713
1.15879
1.14143
1.12052
1.09757
1.07434
1.05277
1.03506
1.02359
1.02105
1.03033
1.05456
1.09692
1.16039
1.24737
1.35942
1.49711
1.66015
1.84766
2.05863
2.29239
2.54903
2.82985
3.13753
1.16825
1.16074
1.14798
1.13055
1.10946
1.08611
1.06219
1.03966
1.0207
1.00776
1.00353
1.01095
1.03319
1.07343
1.13458
1.21892
1.32778
1.46146
1.61932
1.80016
2.00271
2.22608
2.47023
2.73633
3.02699
1.15782
1.15026
1.13767
1.12026
1.09889
1.07491
1.05003
1.02625
1.00579
0.991116
0.984963
0.99033
1.01038
1.04825
1.10678
1.18807
1.29322
1.42221
1.57407
1.74725
1.94014
2.1516
2.38139
2.6306
2.90195
1.14567
1.13977
1.12821
1.11108
1.08937
1.06456
1.03848
1.01321
0.991023
0.974408
0.966165
0.969335
0.987071
1.02246
1.07823
1.1563
1.25751
1.38153
1.52702
1.69204
1.8746
2.07317
2.28717
2.51758
2.76703
1.13254
1.13027
1.12057
1.10384
1.08161
1.05571
1.02817
1.00123
0.977213
0.958544
0.948134
0.949069
0.964479
0.997415
1.05051
1.12546
1.22288
1.34211
1.48143
1.6385
1.81091
1.99661
2.19432
2.40505
2.62995
0.573317
0.572555
0.394854
0.586111
1.05788
0.935888
4.04608
1.47622
0.377589
5.51122
0.266734
0.658708
1.17206
0.634851
4.18064
3.40323
0.312031
0.582407
7.79777
1.48534
3.13734
4.82742
0.302896
0.554596
0.694263
1.78557
0.750096
0.822286
0.501025
0.301021
5.20836
2.10834
0.528703
1.56495
0.296916
1.85588
1.85115
4.17462
1.76451
1.09536
0.400065
0.167117
3.59779
0.900599
0.798834
5.78097
0.288509
0.318995
0.45445
0.579333
0.281327
0.383352
3.12774
0.579245
3.95376
0.383581
0.640736
3.377
0.618904
0.34846
1.8964
0.406199
1.00407
4.25508
1.58102
1.0082
1.40939
0.257263
1.07116
0.52897
0.393638
5.23789
1.04671
1.65971
0.591413
3.2093
2.15975
0.34135
0.642011
0.570432
1.70835
2.00834
2.01033
0.249416
1.36008
1.73031
1.32445
0.347296
0.52333
0.944771
0.702182
1.08684
6.73696
0.66303
0.990138
0.269638
1.72612
0.266807
0.376525
0.350497
0.820908
0.408118
0.835827
5.516
0.626054
0.986012
0.313839
1.8996
0.1853
0.3042
4.50196
0.40825
0.33612
5.55051
3.25272
0.459323
0.453623
1.17234
2.20093
0.287405
0.0859775
0.423506
0.536521
0.674623
0.516716
3.37897
0.386949
1.80339
0.79229
0.319836
1.85216
1.71264
0.516828
1.76254
0.959412
1.24491
0.763218
0.771523
2.30374
1.38713
5.81212
1.62179
0.346877
0.106209
0.485225
3.62761
0.585225
2.57852
3.33592
0.29472
1.85924
1.20927
0.58644
4.46969
0.518598
0.249706
0.777984
1.18907
2.60637
2.18849
3.73605
0.384811
3.62046
0.271838
5.24865
0.260776
0.661148
0.702149
4.08054
0.75133
0.623387
4.47134
0.259224
0.254254
1.34302
0.978784
3.03369
0.515275
0.402739
5.7426
2.57723
2.00685
2.95832
3.09786
1.1045
0.812905
0.265073
0.182375
0.573754
3.00764
0.330183
0.349483
0.517393
1.5239
4.45217
0.565271
0.585813
4.72749
0.473871
0.533358
0.903192
4.83855
1.97198
2.97776
2.13255
3.46869
1.31408
0.817717
0.462315
1.31948
0.628683
0.572513
2.32374
2.09344
1.58872
0.382883
0.786639
1.25294
5.51255
0.947713
0.691942
0.197454
0.489542
0.426304
0.361188
0.433711
0.872317
0.315433
0.181235
1.04995
0.245583
1.95534
1.81124
1.03656
1.75974
4.71152
2.99015
0.748203
3.08595
4.65819
3.39075
1.7964
4.85766
1.0059
1.11224
1.69153
2.32991
0.890625
3.40629
3.81109
0.170975
1.00927
2.08853
0.467559
0.986945
0.689438
0.323837
2.27101
2.7093
7.62142
0.259433
0.817428
2.72769
0.527974
1.80207
0.642639
4.01908
0.579282
4.03754
0.743996
3.01154
0.515385
0.456819
1.12225
7.96382
0.57748
1.21213
0.355318
0.673606
0.349606
1.02986
1.76796
0.247891
5.77498
0.39874
2.4673
0.995747
0.476843
0.300774
0.327797
4.62775
3.77172
0.116214
0.301429
1.02891
0.391088
0.398538
1.16978
2.10521
0.376841
0.353671
3.88543
0.709489
3.01999
0.412776
4.70786
3.07452
1.75878
1.38156
2.18032
5.32273
6.25658
0.553323
0.771927
0.397666
1.33246
0.30185
2.02345
0.74029
1.08711
2.6183
3.05466
0.640837
5.26976
1.36371
0.683444
0.455753
1.97919
1.20027
3.31085
5.26948
4.41738
0.658744
5.3178
0.359991
1.76006
2.40227
2.16859
0.1153
0.25473
0.549984
0.68258
0.362294
6.31233
1.86615
0.758118
0.783785
1.01041
1.10913
0.272928
0.497577
6.59599
0.169609
2.77056
0.305613
0.333529
0.851185
0.862399
4.65412
0.276632
0.470286
0.288772
2.99094
0.437654
0.174583
1.16653
4.06418
0.314854
2.69284
0.580824
5.97736
4.40163
0.515023
0.422179
1.19044
0.524639
0.35236
6.07747
1.72798
4.66965
0.405757
4.17086
0.51847
0.890664
0.866032
0.956386
5.43023
1.50988
0.269097
0.32941
3.33934
3.58152
0.937333
0.513429
2.75788
6.6612
4.57471
0.531897
1.18002
0.501954
1.50204
3.72273
1.28689
0.588731
0.683989
0.11783
4.06204
0.925345
0.693264
3.35006
0.515003
2.64272
0.374628
2.24146
2.68727
0.178618
0.438664
0.27361
1.25563
1.09391
5.40823
1.8092
0.916098
0.837404
4.23493
0.342786
0.0913008
0.701591
2.12755
2.25398
2.9153
0.699979
0.95465
0.634408
4.49415
3.98336
4.56482
0.0929224
1.09627
0.226142
2.46006
4.64224
0.312072
0.758874
1.0366
0.481094
0.779112
0.488242
0.631456
0.644858
0.424377
3.57784
3.52197
0.383303
6.2765
0.53494
0.271196
1.94207
0.653038
2.03897
3.88225
1.12055
0.514984
2.271
0.348893
1.2613
0.667024
0.419607
2.57467
0.273992
0.919043
1.1057
0.289544
0.191634
0.7159
1.38673
0.980822
0.848322
2.67823
2.74255
1.77194
2.19825
0.134634
0.669547
0.248283
1.194
2.27443
5.21985
0.544989
5.57215
4.34955
3.57406
0.377843
0.517389
2.61971
0.63457
4.29335
2.60056
5.91701
0.577653
3.70887
4.5407
2.49969
0.946584
2.97897
1.76423
2.9122
3.03304
4.10496
2.13973
4.86993
1.92059
1.35068
0.989589
0.699695
0.314189
0.428081
0.430483
0.478027
2.86677
7.02998
0.32886
1.46974
0.563408
1.41568
5.52021
0.344266
0.433431
3.18476
4.71113
0.970245
5.64581
0.563067
0.440975
0.273761
0.695443
3.75041
0.40104
0.47163
3.68023
1.10009
0.304515
4.75
0.324699
0.202756
0.431898
3.02131
0.654763
2.6654
0.349834
2.02646
2.45073
0.803254
0.470024
0.43627
0.308805
0.502111
6.45417
1.47755
0.45355
1.93574
1.96164
3.81514
1.28307
0.297448
6.40652
2.82518
0.637124
2.21468
0.257083
0.540576
5.50017
3.59969
0.656568
0.899652
0.33847
0.28152
0.455004
0.694791
0.260349
1.47202
2.96023
4.7656
6.96132
1.50263
0.531501
4.72897
0.900087
0.823635
4.8075
0.935487
1.39341
4.20955
4.18683
6.25635
0.62437
1.45775
0.426938
1.12591
2.13694
0.362849
0.810138
0.202789
0.675054
1.84481
1.04829
2.40551
2.40919
0.448762
3.33882
3.82545
1.99315
1.71959
4.03905
0.937212
3.20223
0.926886
0.804959
0.443716
4.58027
1.22797
3.02287
6.46873
1.36625
0.679568
0.352328
0.288702
0.810207
0.539843
0.648743
0.696276
1.01244
0.432851
3.67625
0.28711
3.09448
0.856968
0.456018
1.12376
3.90182
2.75352
0.635582
0.991986
4.60532
0.968768
1.68294
0.589435
0.708191
0.354197
4.25419
2.83165
0.311218
5.845
0.153955
5.54124
2.68839
0.283055
7.71329
2.69892
2.9628
0.443834
0.549217
0.261215
0.0846837
1.08439
1.34225
0.432205
0.482683
1.00374
3.11137
0.673156
7.80293
1.24337
0.353491
0.16293
2.5505
2.09943
1.83337
5.94196
3.76523
0.44112
3.16252
0.589126
2.03686
3.77229
0.657199
5.95212
0.489008
0.338108
2.22733
4.06323
1.13279
0.274233
1.57711
6.39992
3.81968
1.48795
0.754892
2.47067
5.04538
0.615896
0.253805
1.13364
5.28567
5.53785
0.336831
4.1432
1.48156
0.325796
4.35378
0.553001
0.29513
7.99008
0.82035
1.20754
0.124795
3.42671
1.01071
3.39632
1.91263
1.36657
7.28962
2.63965
0.653243
3.72902
1.72018
1.64534
1.32522
2.08414
0.417812
7.62346
0.404832
3.86019
0.512649
2.70487
0.421203
0.297832
0.565995
1.03002
3.23595
0.120193
0.257906
3.36126
0.930873
0.578023
6.56508
2.426
0.742545
0.905604
1.62537
2.44611
0.282763
0.450682
2.2908
4.07567
4.21402
2.53963
0.421176
0.048343
3.63982
0.754446
0.161398
0.582426
0.687471
0.296536
4.31959
0.678491
4.33074
0.258829
0.141422
1.0437
0.944712
0.789773
2.04757
3.53577
0.308364
3.19325
0.874827
3.84652
3.28835
0.293148
1.07388
0.357737
4.24082
4.88103
0.486633
4.38957
1.46669
1.33107
6.81228
5.97277
2.90073
1.49746
0.184312
5.59111
0.276441
0.458192
2.84535
2.26787
2.79006
1.00563
3.58504
0.465766
2.1147
0.730253
6.20118
0.301801
0.309702
1.40541
0.756639
0.567747
0.392151
1.71386
1.63501
0.571353
0.980835
0.428578
0.506901
5.64152
1.70421
0.362706
0.536819
0.564275
5.06008
2.07509
0.37667
2.81142
2.0334
3.83934
1.15343
0.634926
2.88586
0.404379
0.34939
0.588189
7.72916
3.01533
0.512825
7.48578
3.02155
0.345848
2.86539
1.81555
0.417824
0.966658
5.18885
6.47823
5.68931
1.05017
3.02509
0.35294
1.5396
2.85265
3.27492
3.79704
1.42551
0.423154
0.283815
0.996704
4.28849
0.105958
0.620813
0.628894
0.244692
1.46176
1.79514
3.70372
0.0856952
3.62675
3.16063
0.561859
0.542293
2.57848
0.351695
0.338803
0.284445
7.34321
0.549715
3.32573
6.06594
3.95396
2.00296
0.620371
1.92044
2.49413
0.94632
2.61999
0.456459
0.289613
0.40307
0.56129
0.727077
3.00827
3.96107
0.536575
0.8998
6.77704
0.657582
0.324452
0.29577
1.08787
3.02093
0.588396
1.37667
0.858313
3.01961
0.411354
1.44691
0.356807
1.27823
0.504268
3.78169
3.05209
0.562288
0.0978992
0.667841
6.73265
0.379192
0.715707
0.419068
0.468987
5.18183
0.832105
2.78218
0.895513
0.578411
3.42018
3.09641
2.83236
2.65059
0.325893
2.88777
0.276851
0.197816
0.385247
5.90832
3.10025
7.22424
1.73283
1.33165
0.439602
0.452673
0.803481
2.969
1.9718
0.801803
4.5939
2.34643
0.947471
1.63103
0.458057
0.36633
0.253263
4.58714
3.26473
4.54831
1.87545
0.459382
1.15565
0.792295
3.16959
4.13273
0.650432
0.833715
1.9475
5.33109
0.62621
1.03958
3.17118
1.29607
0.54342
0.391943
1.47684
0.447949
3.71301
0.489841
2.74657
0.407699
0.48651
0.909351
0.681938
0.354271
3.58897
0.315617
1.28328
0.729267
0.462408
4.38033
0.271175
0.556524
3.97488
4.15032
0.465547
0.472285
2.85555
2.0309
0.273262
3.51572
0.377759
2.87945
0.28766
0.306895
0.449726
0.278288
2.70351
0.479412
1.36909
1.3254
1.18773
3.18247
4.27985
0.254247
6.81216
1.84554
2.18288
6.55692
0.438768
0.465724
3.80833
0.322809
4.08742
3.31194
4.10309
0.991303
0.283456
0.317096
6.31413
1.48665
0.276796
4.47436
0.661313
0.446175
0.300525
0.890156
1.85646
0.858107
3.23918
0.382073
5.08027
7.02129
1.01965
4.38487
1.40191
0.357367
0.332194
0.580562
2.64754
1.85876
4.63183
0.471245
0.93572
2.11849
3.36062
0.532022
0.285219
0.279386
2.30543
2.47461
0.944794
0.429328
5.15728
0.434649
0.839778
0.26745
0.522987
0.621965
1.00823
0.781786
6.02781
5.52968
0.153717
0.549371
7.85203
0.55891
1.80348
1.83365
1.31444
3.96762
3.00794
0.442158
1.52224
3.02526
1.25944
4.22443
0.479655
0.256248
2.83933
1.12431
5.40093
0.389647
0.563844
0.958747
0.351669
1.67394
7.1912
2.04686
2.3162
2.04787
4.63046
2.7603
1.22777
0.188897
0.626835
2.96858
0.476266
2.78886
7.29838
0.922242
2.87108
0.441491
0.421006
4.62919
6.96736
2.49196
1.62797
0.617121
0.507783
0.526641
0.17149
5.70536
0.525327
0.943831
0.585768
0.683638
0.265566
0.58246
0.391236
0.130228
1.96998
0.661159
5.89079
0.271591
2.56628
2.96897
3.43757
2.42294
6.12534
1.65438
3.14397
1.37509
0.308798
0.518307
0.446451
0.583876
0.936498
0.591998
2.20376
0.419564
2.88973
1.74391
0.251808
0.224351
0.908507
3.63655
2.31747
0.318139
0.491795
0.619064
0.944858
4.60059
0.672136
0.583538
0.271488
0.278259
0.293759
0.3147
0.270205
0.74905
1.12032
0.69484
0.263818
0.786347
3.04418
0.460192
6.07102
0.403757
1.58736
3.56114
0.42662
3.54286
0.960609
0.685064
2.78053
1.51421
0.902427
6.56021
0.746333
0.782689
0.479853
6.13146
0.455079
0.332777
3.19504
0.797733
0.551707
0.54669
0.466106
0.295534
2.02499
3.71297
0.529208
0.404597
1.5627
2.9088
4.13184
4.63008
2.12452
6.0239
3.54709
2.13191
1.30849
6.91715
4.61659
0.587081
1.79248
0.488373
0.176652
1.8553
1.92554
2.89905
0.915922
5.08746
0.288787
0.281829
6.02044
0.39525
0.633434
5.46099
3.01202
0.490632
0.86417
2.65449
0.414149
1.84353
3.77972
5.69262
4.46995
3.22942
2.83361
0.518289
5.75259
0.677692
0.569226
2.12721
0.11176
2.69619
0.520301
1.43348
0.545915
0.772239
1.23653
0.416235
0.357231
0.312914
0.419971
4.92338
0.370331
0.493998
7.67033
1.17499
4.12417
0.336074
1.99876
0.923944
3.83039
4.01275
0.518908
0.37495
0.411014
5.06109
1.44411
7.17629
0.426213
2.08964
0.628203
2.99606
1.67197
0.375175
1.45167
1.33334
3.17994
0.458539
0.378248
4.78261
0.786281
3.92925
0.963585
2.76777
4.44808
5.03296
2.96843
0.417521
6.6739
1.02279
0.642096
0.582518
1.00637
0.914509
0.411809
6.92337
3.19344
0.408798
6.18286
1.16921
3.25696
2.9913
3.70262
0.857159
0.333428
0.682392
2.93861
0.363767
1.82159
5.07828
0.980278
4.53151
2.97302
0.111927
3.05232
0.524196
2.12833
0.526096
0.492457
2.95259
1.2354
4.36761
0.609265
1.0412
5.86305
3.62962
0.340536
0.455031
4.98984
5.8328
0.588241
0.464449
0.895577
5.4015
1.13668
1.1042
0.343529
2.26148
0.86923
0.952091
0.498466
0.904921
0.88428
0.995744
1.41927
3.02332
0.416103
2.25426
0.938669
4.06279
0.448921
1.55437
2.55557
0.89888
0.917907
0.494811
0.27061
0.492148
0.499078
0.266866
5.07639
3.51654
1.58336
1.51955
0.479566
0.76789
0.829004
4.6233
4.93058
4.01824
0.422568
0.394728
6.74686
5.051
0.293971
5.18307
0.630182
0.461026
0.388611
0.358595
1.95505
0.469498
5.35983
1.38887
1.2121
0.477659
0.487637
0.507184
1.94037
0.635899
1.14815
2.25345
1.27336
1.95567
1.24619
0.460778
0.433285
7.40607
0.698105
2.64682
0.398101
3.07075
0.4456
0.580922
0.351097
5.48317
1.90777
1.83799
5.63484
5.85115
1.83632
7.46644
0.513011
0.483161
5.92991
0.897543
1.33277
0.435675
0.509593
0.315645
1.29396
0.697808
1.26411
0.913138
1.79793
0.60656
0.468247
0.986393
6.26436
0.719636
4.75199
1.02674
4.81131
1.15518
6.41484
1.38219
0.904905
2.8249
5.83475
0.443445
3.42637
3.86272
0.254973
0.687642
2.58517
0.446523
0.510553
3.40759
0.471245
6.62067
2.80973
5.3609
5.14634
2.30243
1.40028
0.412267
1.04079
4.60862
0.502462
0.508446
2.98682
5.42078
2.92777
5.18521
4.38835
0.175708
3.42567
0.498925
2.0626
7.11437
5.23239
0.553774
2.46296
0.449497
0.525664
0.191172
0.484352
5.03687
0.531615
0.438794
0.390834
7.89384
0.0458762
2.97743
0.779963
5.1024
0.557515
3.97655
0.311108
0.770885
1.09027
0.386718
6.5394
0.491239
1.03141
4.68892
3.15752
0.346193
5.25227
1.5809
6.25818
3.72708
5.43054
2.51218
0.489486
0.406853
4.74383
5.71846
0.423316
4.42469
4.70357
0.528323
0.826054
1.21937
1.31792
1.06706
6.2719
2.93774
1.12425
0.000654419
0.656102
5.68245
0.347779
2.78595
1.41641
0.92596
0.885084
2.77257
0.338367
1.72227
0.366272
0.196461
0.113372
2.86131
5.55278
4.76605
0.455347
3.53527
0.492467
0.465565
1.86504
5.58833
0.289283
0.970291
0.39228
0.820583
1.00164
0.492577
0.977126
2.88986
3.9743
1.23945
0.696517
5.48256
4.41773
0.643897
6.06175
0.58711
1.07411
0.488116
0.624489
0.444273
4.58387
2.00192
0.423207
7.03821
3.20747
0.355685
2.87114
1.04679
0.591696
3.47624
0.376384
1.40094
2.06493
0.350579
2.74553
0.368464
2.14465
0.611649
0.853318
0.481726
0.686811
0.4196
3.32721
3.00377
0.740148
0.408082
2.18716
0.786356
0.875283
4.04765
0.736351
2.73502
0.621232
5.96937
2.67011
0.356721
1.35003
0.988216
0.474371
0.627265
3.43536
0.343734
6.31396
0.262017
3.30795
2.58962
4.61314
0.621873
3.51057
5.09432
0.251162
0.989802
1.06368
0.749606
0.261221
0.52859
2.96013
2.82917
2.43946
1.23241
2.589
1.71421
4.88375
3.60178
4.65831
0.435568
0.677647
0.521517
4.60108
2.1038
0.326739
5.0871
0.306335
3.50604
0.29159
4.46118
0.609109
0.85721
0.261513
0.931646
2.54046
1.47684
0.899897
0.644232
4.5376
2.86846
0.724081
0.550962
2.86132
2.28058
0.58001
1.48415
1.4772
0.312507
0.776416
1.76084
3.70555
5.45738
0.41846
3.74062
0.505071
0.966085
0.713542
3.96251
3.10999
0.353529
0.424587
0.98129
3.32982
0.846675
3.09891
1.22614
0.681022
0.376166
3.14104
2.11511
2.91464
4.30967
0.634079
0.487108
0.665749
4.81611
2.13007
1.16257
0.428575
6.07352
4.50438
0.16876
0.735346
0.624153
1.44851
0.389004
1.97186
1.37527
0.424433
2.90718
0.817983
1.29646
3.10652
3.78795
0.459297
0.402641
0.427506
1.77427
5.55814
7.79791
0.344984
0.413982
0.607075
0.122393
3.63157
4.39758
3.32463
1.00025
0.401423
2.49455
0.297681
0.748056
1.09217
0.578777
5.89367
4.84507
0.968788
0.587598
2.36894
1.35263
0.947851
6.17951
1.86798
0.893216
3.2914
2.68567
3.05212
5.7904
5.93813
2.39651
0.210137
4.30717
2.41972
2.98098
1.30979
0.983422
0.364466
0.543572
1.46102
0.613942
0.953949
0.320326
1.49273
2.77384
0.221197
7.31156
0.117702
4.4606
6.28926
0.345888
5.00662
0.980974
0.326541
2.72709
3.57721
2.76457
3.42979
0.549684
0.527205
1.14579
0.417387
3.89298
3.01243
0.0394353
0.590485
1.13912
0.707714
3.13877
0.417722
0.950159
3.32611
0.266258
0.306646
0.889901
0.460032
0.344588
0.593599
0.383311
0.40119
0.512375
0.700816
2.21224
0.252105
0.54891
5.42984
0.448716
0.633815
4.51283
1.78294
2.52953
0.606615
4.7467
4.06265
1.05862
5.11765
0.399868
5.02075
0.582732
2.90324
7.02182
0.324243
2.78515
0.922867
0.910913
0.361642
5.93239
4.71687
0.414351
4.96946
0.449475
4.02222
3.32683
1.07107
1.68394
0.199354
5.03519
2.45271
1.20109
5.00353
0.930568
0.529069
1.23199
2.04186
0.731514
0.606774
0.394261
0.619141
0.704354
2.08405
0.646148
1.10375
1.06871
0.895498
0.547089
3.06318
3.44867
3.58533
3.62931
0.800383
2.71587
1.44738
0.593432
6.06499
5.89559
0.674784
0.712871
2.76699
3.4182
0.0460948
4.21334
6.29622
2.884
2.62057
2.60891
3.25765
0.915882
1.06306
4.72262
3.80473
0.412539
0.541808
0.415184
2.10089
0.0895516
1.07744
3.80689
1.49793
4.30025
0.350157
6.0695
0.255761
2.54987
0.246536
0.990418
1.34751
3.08443
3.09546
0.590733
2.77666
0.480967
0.258507
0.183822
0.644698
0.273797
3.6281
2.7634
0.611492
0.382939
4.75796
3.32757
3.09404
2.33858
1.07143
0.419738
0.267504
3.04698
3.16461
6.12633
3.58697
5.60641
0.45878
0.10464
0.21403
2.98326
2.63807
0.742594
1.02325
0.362725
0.931278
0.19467
4.88086
0.358685
2.2632
0.916366
0.717915
4.64362
0.38063
0.6283
2.99421
2.34769
0.394229
2.49176
0.682892
0.703704
3.2974
0.788735
0.923774
2.14821
1.86728
4.64927
0.861418
3.64992
0.498128
0.99314
2.07758
1.38072
6.67897
0.294028
0.649781
2.43767
1.43815
4.51922
1.59799
0.402772
4.87687
2.97841
6.41305
2.78619
0.36498
0.367736
0.514292
0.373753
0.568064
0.661742
0.481532
0.652673
2.80726
4.54306
1.18931
2.92336
1.04289
0.279283
4.79303
3.61961
0.461652
0.357266
0.602186
3.54552
0.819953
0.535631
0.389379
0.672337
0.605665
1.47867
6.20223
1.49745
4.02565
0.8496
0.0609179
3.26424
0.9835
0.899893
0.982316
4.32522
6.16124
2.88697
0.455071
0.823494
3.74096
1.68908
1.46136
1.82449
0.407327
2.6715
0.458271
3.01698
3.09711
4.92852
0.394416
0.835265
2.9121
3.36447
0.384139
0.883534
0.73954
2.40477
0.134412
0.250285
0.717143
0.571963
3.13252
6.05858
0.40269
4.00665
2.76236
0.269692
2.38362
3.76141
3.79082
0.677796
4.67277
6.7227
0.258283
7.4323
2.63117
3.19687
0.268697
3.3779
5.638
4.04332
1.28311
6.96388
2.639
0.74711
3.27701
5.88237
0.440591
4.50977
0.473821
3.81001
0.468738
2.87625
0.341966
0.50718
7.69216
0.585517
3.81553
3.01259
1.66504
0.644026
0.399921
0.736984
2.37941
0.275868
0.272112
3.15411
0.521724
1.16741
0.259431
0.633235
0.425823
1.17676
5.164
1.31728
1.2964
1.65235
1.48361
0.552786
3.66465
0.98449
0.336022
0.368849
2.78156
0.628863
0.649051
0.21711
1.93444
0.64751
0.659634
4.67863
0.857081
1.2578
4.2476
0.419202
3.67839
0.574099
1.1358
0.364064
0.463659
0.55223
0.562524
0.357864
1.48603
0.0918843
4.48987
0.262638
2.65827
0.400377
1.33478
1.16777
0.681912
7.18558
2.9166
4.41938
2.92161
3.18404
0.613837
0.319091
0.37018
0.924716
1.62765
0.25904
0.837135
1.06037
0.986065
6.37008
0.603052
0.489375