/*--------------------------------*- C++ -*----------------------------------*\
  =========                 |
  \\      /  F ield         | OpenFOAM: The Open Source CFD Toolbox
   \\    /   O peration     | Website:  https://openfoam.org
    \\  /    A nd           | Version:  10
     \\/     M anipulation  |
\*---------------------------------------------------------------------------*/
FoamFile
{
    format      ascii;
    class       volScalarField;
    location    "1650";
    object      p;
}
// * * * * * * * * * * * * * * * * * * * * * * * * * * * * * * * * * * * * * //

dimensions      [0 2 -2 0 0 0 0];

internalField   nonuniform List<scalar> 
10435
(
-0.000794858
-2.65028
-12.5833
-4.25445
-10.1063
-13.1603
-12.5587
-12.7349
-13.0112
-12.1208
-4.98014
-8.3955
-11.9948
2.47477
2.34229
-12.3531
2.52129
-11.9462
-13.052
-0.616976
-12.5642
-3.71005
-12.1673
-10.3062
-12.7542
2.39819
2.3559
-12.1427
1.82201
-12.8151
-11.9437
-6.10677
-12.9639
2.23044
-11.9835
0.301802
-11.8364
1.24069
2.82084
-11.6734
-13.605
-12.0108
2.90776
-2.4342
-11.7952
-11.4287
-12.8134
2.60773
-13.121
-3.62913
-12.649
-12.1085
2.39195
1.56359
3.09474
1.55335
-11.3237
2.04322
2.38329
-11.5628
2.53443
-1.58495
2.21891
-11.3705
-12.1063
-12.4035
2.32704
2.3074
-12.7493
-9.47034
2.18487
1.81713
3.28939
-12.2291
2.10053
2.9204
-8.20278
-12.5952
-13.2822
2.10462
-5.49986
0.533572
2.52241
1.92731
-6.45457
0.992271
0.397441
-2.85285
1.9541
-0.322827
-3.82906
-4.92487
-0.0115234
1.47207
-1.10237
1.06941
-5.89171
2.34086
2.71102
-7.49328
1.77789
-11.7905
1.00276
-1.94466
-12.1565
-3.32817
-0.602932
-4.50428
-7.53356
1.83274
-2.79366
-10.9417
1.0419
1.42348
-6.50368
-2.84433
-8.12355
0.31592
-3.35195
-7.31796
-8.42774
3.20051
-0.488648
2.49036
-7.9938
2.47773
-6.59628
3.07221
-9.26977
1.41577
2.91381
-6.72585
-12.4327
2.30594
1.96636
3.10289
1.35818
-5.10261
-2.32796
-2.03697
-1.29984
-11.883
2.46747
-10.6276
-4.55566
2.70457
2.09203
-12.1436
2.65656
-10.0314
2.50655
-11.3084
-0.161691
-10.6375
-12.4342
2.47872
-9.12849
-1.36708
-12.4448
-4.15215
-11.1361
2.45039
-5.57606
-7.26069
1.89117
-9.70899
-12.8055
-6.76022
-9.17824
-10.8027
-12.1052
2.60098
1.39018
2.4485
-9.72129
-2.8562
-0.599875
2.53953
-1.97384
2.22602
-3.78577
-12.5024
-9.50536
2.33891
-11.3233
3.02791
2.47815
-12.5534
-11.1478
-11.32
-8.69978
2.60542
2.31782
0.499406
-10.1371
-12.6535
2.88136
1.55028
2.63018
-12.1517
2.13215
2.83738
-12.113
2.20005
-12.3165
-7.69089
-4.48873
-5.9396
2.03672
-5.44929
2.86973
-12.5918
-9.53388
-8.11472
2.60572
2.58535
1.42856
2.68561
0.941505
2.53447
2.12311
2.32172
2.51833
2.36615
2.20466
-12.285
1.1773
1.98637
-11.8511
2.75469
2.51602
-12.4985
1.10255
-10.8816
1.46295
2.60619
-10.9743
1.62969
-10.0831
-12.1636
-1.62376
2.47923
2.67025
1.54797
-6.9203
-13.2016
1.76418
-12.8004
-0.196722
-1.64376
-0.449619
1.44661
-12.4905
-6.34607
-12.8058
-10.7168
-1.18157
-12.7236
2.44209
2.30861
-12.2986
-12.2919
1.94269
-8.21573
1.07087
2.77179
-0.864213
-12.0138
2.81989
-8.42948
-12.3886
-13.3967
-12.8884
-11.7999
0.737418
-7.92976
2.20249
-9.35759
-12.3428
-13.571
-12.7728
2.56616
-12.3623
1.95593
1.04276
2.95786
-11.3903
1.45169
2.01355
1.91945
2.41377
-5.46586
1.8806
-13.2576
1.74531
-1.37666
2.71874
0.567281
-8.33813
-12.413
2.49629
-9.29137
-12.23
-0.484445
-7.38188
2.46091
2.85994
-10.2947
-12.4587
2.06569
-1.2706
1.90547
-0.531649
-12.1181
-12.3165
-1.52192
2.73156
-11.2265
2.41203
-7.5627
-12.7845
1.40742
0.487147
2.76803
-13.5766
-12.4079
0.212046
-12.0704
2.52973
1.9885
-12.2415
1.95493
2.08182
-12.4714
-10.3651
2.12471
1.86956
1.05077
2.36164
1.2929
-0.41357
2.43618
2.72148
-0.40118
-1.19835
1.88503
2.20355
3.00237
2.87407
-13.4005
2.21315
-12.8447
-0.473642
-11.978
-14.1316
-14.5205
-11.912
-12.0285
1.56152
2.14543
1.13768
2.77862
1.3784
2.46774
1.65818
-0.773413
2.05057
-9.04731
2.25008
-13.3651
2.71462
-1.12336
-11.5405
-14.8997
2.8825
-2.00361
1.48698
1.86524
2.09992
2.12774
-3.14426
1.68493
-13.3183
2.31655
-12.9295
-14.294
-11.8308
-11.751
-14.5138
-12.0808
-12.19
2.72313
2.66532
1.89562
2.38656
-12.5355
1.95431
-12.4694
-1.48366
1.91239
-2.50312
2.55701
2.32713
-12.7545
1.2408
-13.0693
-9.86811
2.80587
2.05874
-0.29935
-12.4837
-0.447117
2.2522
1.98093
1.4248
2.58886
2.19005
-12.3455
-0.197365
1.61803
1.82541
2.68825
-12.754
2.88518
3.11976
-13.5481
2.35577
18.7962
9.6607
12.1968
9.98692
10.7045
9.93927
9.99206
9.75412
9.01569
16.1038
8.48168
10.4982
9.00805
9.44266
8.96826
8.98003
8.79755
8.65224
13.552
7.28021
9.10929
8.1586
8.43162
8.15032
8.13588
8.00535
7.84937
11.5653
6.48105
7.96478
7.36698
7.56484
7.41049
7.40357
7.3304
7.20946
9.77213
5.92238
7.02408
6.68426
6.83761
6.77148
6.78612
6.77044
6.6832
8.17983
5.54361
6.27263
6.12546
6.24723
6.24057
6.27399
6.29237
6.26398
6.88561
5.37606
5.70253
5.68685
5.78188
5.81527
5.86582
5.91311
5.93509
5.91273
5.31417
5.27648
5.34549
5.42009
5.47936
5.54197
5.60951
5.60152
5.18486
5.12692
4.92801
5.06873
5.13767
5.21473
5.28572
5.35835
5.40846
4.59952
4.77662
4.63332
4.83971
4.91587
5.00521
5.08295
5.16143
5.21842
4.17272
4.45216
4.4211
4.6603
4.74362
4.83749
4.9184
4.99844
5.08027
3.9952
4.30939
4.32152
4.53325
4.61124
4.69836
4.77384
4.84304
4.9563
3.96731
4.30929
4.30174
4.44474
4.50737
4.58201
4.65194
4.72565
4.80146
3.91628
4.34284
4.30307
4.37149
4.41596
4.47501
4.53621
4.60583
4.65479
3.86935
4.36576
4.2975
4.29799
4.32669
4.372
4.42715
4.49203
4.55404
3.82121
4.33206
4.26068
4.21071
4.22973
4.26462
4.31405
4.37137
4.44018
3.67783
4.16872
4.15625
4.09658
4.1179
4.14874
4.19462
4.24345
4.32816
3.49277
3.90881
3.99935
3.95955
3.99249
4.02638
4.07468
4.1278
4.21399
3.35729
3.66187
3.8291
3.81241
3.85668
3.89406
3.94175
3.99424
4.05409
3.25472
3.46259
3.66066
3.66364
3.71534
3.75587
3.8022
3.85289
3.90995
3.11587
3.29613
3.49289
3.51743
3.57244
3.61598
3.6625
3.71769
3.75994
2.89964
3.17406
3.32495
3.37433
3.42651
3.46944
3.5121
3.56569
3.53907
2.56126
3.15581
3.17772
3.25108
3.29519
3.33402
3.37256
3.41747
3.3712
2.15875
3.19258
2.97631
3.06547
3.10352
3.14395
3.19713
3.25076
3.18722
2.02547
3.49013
3.14465
3.22174
3.22322
3.18962
3.21657
3.26253
2.77999
13.2025
13.4668
13.9701
14.524
15.1265
15.7843
16.483
17.2216
17.9912
18.7781
19.5731
20.365
21.1352
21.8789
22.5842
23.235
23.8277
24.3515
24.7954
25.1556
25.4365
25.6921
25.9377
26.0199
25.7523
25.4272
25.4722
25.9404
26.5829
27.1194
27.6597
28.17
28.4018
28.4608
28.4473
28.3507
28.1733
27.9493
27.6836
27.4018
27.113
26.8261
26.5398
26.2602
25.9864
25.6989
25.3997
25.0823
24.7242
24.3346
23.9125
23.4632
23.0078
22.5516
22.0807
21.6208
21.1647
20.7181
20.4594
3.94128
3.72137
3.62755
3.52804
3.41755
3.29469
3.18324
3.09867
3.04237
3.01726
3.02574
3.0686
3.14539
3.25454
3.39448
3.56387
3.76182
3.99018
4.25388
4.56124
4.9257
5.36663
5.89682
6.52177
7.25939
7.87523
8.11809
8.00342
7.51926
6.93712
6.50915
6.2084
5.97953
5.80144
5.66647
5.55723
5.46367
5.38124
5.30646
5.23806
5.17536
5.11865
5.07021
5.03324
5.01241
5.01524
5.04921
5.12311
5.24962
5.41293
5.57693
5.76348
6.02139
6.35962
6.7595
7.18349
7.59093
8.00261
8.59036
7.81971
8.04339
8.24896
8.47285
8.70909
8.95803
9.21959
9.49314
9.7776
10.071
10.372
10.6783
10.9881
11.2984
11.6078
11.9148
12.2182
12.5181
12.816
13.1133
13.4126
13.7154
14.0178
14.3049
14.5601
14.7469
14.8758
14.9532
14.9606
14.9
14.8305
14.7595
14.6795
14.5967
14.515
14.435
14.357
14.2824
14.2122
14.1472
14.0888
14.0375
13.9945
13.96
13.9346
13.9185
13.9114
13.9116
13.9186
13.9286
13.9414
13.9477
13.9233
13.8706
13.8048
13.7251
13.6305
13.5425
13.4142
5.04714
5.00517
5.03385
5.0669
5.1082
5.1613
5.22714
5.30777
5.4049
5.52018
5.65532
5.81161
5.98949
6.1895
6.41098
6.65303
6.9142
7.19227
7.48531
7.79034
8.1042
8.42206
8.73701
9.03866
9.31257
9.53757
9.69707
9.78504
9.80359
9.76745
9.69796
9.60571
9.49645
9.37477
9.24335
9.10451
8.95997
8.8121
8.66439
8.52054
8.38518
8.26282
8.15883
8.07776
8.02452
8.00249
8.01405
8.06014
8.13948
8.24967
8.38458
8.54161
8.7242
8.91747
9.10765
9.29922
9.48821
9.68339
9.92446
6.17353
6.29686
6.43216
6.57856
6.73405
6.89796
7.06926
7.24745
7.43178
7.62134
7.81577
8.01462
8.21703
8.42315
8.63225
8.84415
9.05846
9.27417
9.49106
9.70798
9.92337
10.1346
10.3378
10.5284
10.6998
10.8465
10.9633
11.0489
11.1027
11.1275
11.1294
11.112
11.0797
11.0365
10.9846
10.9281
10.8692
10.8091
10.7528
10.7027
10.6616
10.6319
10.6161
10.6157
10.6321
10.6648
10.7133
10.7755
10.848
10.9272
11.0077
11.0862
11.1726
11.2478
11.2975
11.335
11.3622
11.3992
11.4129
5.19952
5.212
5.26738
5.33202
5.40676
5.49345
5.59273
5.705
5.83084
5.96996
6.12364
6.29155
6.47385
6.66996
6.87871
7.09866
7.32808
7.56216
7.80125
8.04221
8.28263
8.51709
8.74088
8.95121
9.13766
9.29984
9.43005
9.52994
9.59776
9.63454
9.6457
9.62945
9.59249
9.53978
9.46838
9.38858
9.29936
9.19636
9.0943
8.99417
8.90121
8.81979
8.75404
8.7081
8.68669
8.6881
8.716
8.76765
8.84225
8.93769
9.05083
9.17651
9.31009
9.44758
9.58568
9.72083
9.85012
9.99017
10.1419
5.40446
5.46625
5.5525
5.65029
5.75767
5.87515
6.00081
6.13617
6.28036
6.43074
6.58857
6.75245
6.92411
7.10175
7.28379
7.47039
7.66444
7.85275
8.04562
8.2365
8.42903
8.61389
8.78877
8.96107
9.106
9.24155
9.34879
9.44142
9.51246
9.55931
9.59504
9.60012
9.59049
9.57659
9.53562
9.5008
9.46125
9.39294
9.34475
9.29749
9.25875
9.23058
9.21463
9.21407
9.23888
9.27325
9.33279
9.40517
9.49291
9.59208
9.69812
9.80722
9.91328
10.0158
10.1106
10.1948
10.2699
10.3551
10.4276
5.14603
5.15139
5.18656
5.241
5.299
5.37974
5.46116
5.57616
5.69836
5.80069
5.94206
6.08481
6.24762
6.42792
6.61092
6.81613
7.03731
7.19639
7.38335
7.57618
7.78838
7.98071
8.15296
8.35589
8.48203
8.62849
8.71628
8.81089
8.88339
8.93009
8.9874
8.97849
8.96933
8.98255
8.90901
8.90723
8.92917
8.78284
8.70573
8.62734
8.56278
8.50778
8.46313
8.43407
8.49267
8.4995
8.59058
8.65164
8.70617
8.78985
8.90643
9.05436
9.18527
9.31906
9.46234
9.61285
9.75344
9.92583
10.0567
4.94437
5.01331
5.058
5.15566
5.24495
5.36378
5.44935
5.52159
5.65831
5.87103
5.92598
6.07019
6.26154
6.40091
6.60858
6.68724
6.91497
7.08484
7.28082
7.41177
7.60664
7.75412
7.89551
8.08981
8.17113
8.31339
8.37127
8.46424
8.58231
8.54042
8.70213
8.68917
8.62517
8.69025
8.60089
8.6649
8.55178
8.37484
8.48196
8.41908
8.38206
8.38649
8.32236
8.31576
8.34586
8.32165
8.36443
8.37432
8.53988
8.66662
8.755
8.84835
8.95951
9.12939
9.28574
9.39439
9.51451
9.37615
9.60032
-1.48138
-1.61341
-1.43899
-1.17011
-0.780797
-0.307185
0.127701
0.530642
0.92019
1.23466
1.51173
1.81731
2.08876
2.34536
2.73848
3.27663
3.85252
4.45984
5.15202
5.9608
6.89519
7.97438
9.25604
10.8659
12.296
2.6014
2.66381
2.59239
2.47095
2.37245
2.41193
2.55452
2.73806
2.91213
2.97743
2.89805
2.75303
2.61893
2.54289
2.59982
2.7721
2.91472
2.99033
3.10064
3.29847
3.55756
3.85054
4.16941
4.53554
4.75177
1.6977
1.72778
1.77605
1.82678
1.91115
2.05309
2.22299
2.39019
2.53197
2.60843
2.61945
2.59921
2.5769
2.5813
2.65743
2.81018
3.00331
3.23004
3.51491
3.87348
4.30802
4.82214
5.42308
6.11919
6.97054
2.03771
2.04279
2.09691
2.14443
2.20883
2.29659
2.39932
2.50179
2.59145
2.65284
2.68487
2.70099
2.71666
2.74661
2.80767
2.90432
3.02937
3.18326
3.37496
3.60938
3.88448
4.19284
4.52136
4.83977
5.1716
2.07644
2.07424
2.12755
2.17975
2.24895
2.3299
2.41924
2.50531
2.58191
2.64169
2.68445
2.71779
2.75143
2.79454
2.85822
2.94889
3.06872
3.22184
3.4147
3.65151
3.93601
4.27104
4.66249
5.10639
5.6826
2.15906
2.16418
2.21756
2.26507
2.32978
2.39842
2.47474
2.5463
2.61243
2.66857
2.71361
2.75285
2.79333
2.83958
2.89976
2.97976
3.08381
3.21659
3.38247
3.58274
3.8198
4.09219
4.39369
4.70728
5.0952
2.25634
2.22143
2.2816
2.32106
2.38363
2.44284
2.51365
2.57633
2.63716
2.69185
2.73665
2.77738
2.8213
2.86834
2.92654
3.00168
3.09847
3.22252
3.37805
3.56449
3.78853
4.04918
4.34941
4.68824
5.12807
2.34757
2.26153
2.34015
2.36988
2.43427
2.48479
2.55566
2.61007
2.6661
2.71985
2.76134
2.79976
2.84704
2.89388
2.94937
3.02016
3.1099
3.22417
3.36624
3.53347
3.74118
3.97727
4.27631
4.61191
5.00338
2.33567
2.28463
2.40489
2.41598
2.48131
2.50864
2.58564
2.62624
2.69454
2.74717
2.78981
2.82077
2.86355
2.90428
2.95802
3.02214
3.10353
3.20862
3.36387
3.52443
3.71056
3.94546
4.18949
4.3165
4.55135
-14.0687
-13.1468
-0.948288
7.42675
3.09227
3.01906
-2.39146
3.80276
-2.57491
7.90778
-12.2052
4.03392
-16.0932
2.28691
-7.40756
5.61643
-9.28576
7.29428
8.091
-17.3882
-17.4263
6.31279
-11.9414
6.32881
3.74379
5.06118
3.70613
2.51995
-11.8367
-10.9504
7.33012
6.07609
-14.066
-12.3662
-11.263
3.50918
-3.62782
-7.00519
-5.72132
6.71331
-12.7992
6.93471
5.77229
2.47466
4.06161
7.67792
-11.9162
-10.4692
-11.0562
-13.7008
-11.9099
-12.3893
-16.5191
7.48186
-2.27006
-2.31171
2.25641
-17.3946
2.87326
-9.66271
3.71398
-0.0734129
3.11229
5.66894
3.74024
2.5482
5.56852
6.09849
-14.6654
-12.6788
-2.88927
6.77838
3.22887
-15.9129
3.37314
-18.0355
-14.3588
-11.8561
2.62404
7.85331
-12.2949
3.90926
4.18527
-9.4539
3.28516
3.74668
3.15503
-12.0363
-14.1602
4.61562
5.17889
4.87354
8.0517
4.09237
3.11794
-12.0624
4.92278
-11.6219
6.77252
-9.76001
2.77634
-13.2891
2.76735
6.29909
2.94819
2.79023
-11.995
-13.1668
4.82062
-10.6048
5.51448
4.38253
-11.2244
6.29871
-16.9742
-10.9573
-13.303
6.99418
-15.693
4.51078
5.48391
4.30208
6.64015
3.87247
-13.9397
5.77997
-12.5717
-17.6366
2.26927
-10.7325
4.40631
-16.042
-12.1959
-9.62723
2.4044
3.18833
4.06158
2.8997
4.11304
-16.6769
5.42255
-4.32627
-10.286
5.54033
-11.4317
5.13114
6.07316
-15.2787
4.26461
-11.4642
0.693055
1.80031
5.74799
-7.86982
3.77705
-10.4219
3.13369
6.92764
-12.3676
7.78846
6.20852
-3.00054
4.78707
-11.6495
7.17349
-9.35098
2.20509
3.49986
6.55854
3.15703
2.29008
5.80985
5.78264
-9.61172
5.14586
2.5817
-12.7451
-12.0731
-10.4653
7.08119
-10.928
6.5394
-16.1103
-10.419
2.93173
7.77066
-9.68309
4.76848
-14.2423
4.80485
-10.3338
-10.4873
-5.83752
-3.17553
-7.68984
-14.0678
3.39526
6.22329
-11.102
-11.7157
-14.9721
6.23976
4.08723
4.54884
0.989473
7.40654
5.86362
2.83181
-11.584
6.96815
2.95488
4.21826
-10.915
0.876933
0.497438
-12.4779
3.01023
8.01232
8.4689
3.90717
2.73508
7.01291
3.88478
0.573817
8.78873
-13.1272
5.25046
-9.02192
4.80162
3.19057
-10.1614
3.66935
6.32445
4.47232
-5.11068
7.50952
-11.8573
2.56354
-10.6126
-7.07917
6.70474
3.57964
7.20822
2.56396
3.23333
3.5298
5.69499
2.85426
5.2593
7.37664
4.89214
2.65207
6.33295
-11.545
5.43217
3.30645
-11.0243
-13.9323
-12.3233
9.5604
5.2558
2.24138
4.35258
3.66246
-15.6885
3.97551
7.93435
5.33319
-3.00867
3.51418
-15.6011
-6.51103
6.52537
8.06521
8.52013
5.12475
5.78657
-4.27416
2.15721
-11.9983
2.70462
0.67406
6.72775
7.42641
-10.1676
4.55871
2.68678
8.42001
-12.414
-10.2414
-4.74377
4.97434
6.48981
-12.4195
-12.11
-12.6174
-11.9762
5.04801
7.59663
-10.7585
-11.3202
5.96917
7.65627
4.68796
-11.6305
7.58714
-17.792
5.66656
-16.9712
4.09575
6.23501
7.31683
-14.1581
2.39871
6.47405
-2.90381
-11.9066
6.39611
3.76553
-9.51606
-12.7004
4.91615
7.67289
7.33629
3.35916
4.00466
-13.5326
-13.0683
5.23605
-16.7694
6.9909
-7.81052
2.75103
7.65653
-12.4167
3.68725
3.93198
4.41083
4.79089
5.68937
4.23689
3.93342
-10.5871
6.65714
-15.6102
3.0382
2.94171
6.69294
3.32362
-10.5891
-0.749286
8.11745
5.88536
-12.41
-12.4434
8.79638
-8.49173
2.146
7.13318
-9.50332
-11.7413
-11.9535
7.85648
-13.361
7.09028
3.1992
5.79524
-12.3174
4.13731
-13.9729
7.73495
-8.20391
-11.8335
-8.02606
-14.9172
4.17613
4.29564
7.5637
7.90054
7.33559
-11.8729
4.96244
-13.7488
2.34472
2.41363
-10.5556
7.35151
-17.3355
-12.5059
-10.124
-0.357579
7.70766
3.6429
-12.0576
-10.6949
8.57307
7.30909
-13.8341
7.12069
-11.4766
3.71428
5.82766
3.19203
-13.6385
3.8312
7.83472
-3.44599
3.62442
0.667418
6.31297
-10.6563
4.00536
-10.5333
3.93426
4.90205
8.74253
-10.8755
-10.4063
7.74701
5.03885
6.80941
7.66283
4.54422
2.6977
6.87209
-11.5386
4.83797
7.2568
5.70727
6.06047
3.90985
3.28912
4.34586
2.6716
-3.36515
6.05651
5.09278
6.43393
6.62119
8.49078
7.72312
-7.12273
-12.6889
1.48201
-14.7924
3.96003
2.64791
-6.43237
2.91426
2.60118
-8.10271
6.53658
4.57024
-10.7604
7.7591
-12.7005
-9.25832
4.02513
5.21303
-16.0004
4.73749
2.14201
-10.7877
-11.2216
-11.58
3.36253
3.01933
0.731462
7.73143
-12.0534
2.66152
3.30523
-11.8183
8.58543
3.90562
-13.4506
4.26189
3.21051
-14.8436
-14.9879
0.381854
-6.54415
7.43886
3.94553
-10.0257
3.21957
3.92026
7.35983
-13.0117
6.29323
-9.03099
5.20642
4.19034
-11.9436
4.07797
2.94011
-8.3439
3.9682
8.01263
-13.9918
5.88983
-4.18436
4.2687
2.55537
-13.2902
-12.0964
5.10768
4.74926
-3.30506
5.24893
6.48762
-11.6139
5.28543
4.48755
7.81924
-12.3314
-11.9697
-10.6452
4.13379
0.00602958
7.79991
-10.5739
-17.3311
6.29029
-12.2405
7.61874
-11.699
-13.4624
7.32086
6.64598
2.68035
6.23807
4.12397
-4.3147
4.48682
1.11414
5.04775
-10.9043
-11.1541
4.99201
-10.3865
-10.6025
5.52542
-12.2274
5.88626
1.4886
4.69575
2.72403
3.99256
-4.73441
-5.20175
-6.88757
2.29705
-11.4803
-10.7853
-11.775
3.78849
7.64982
-15.3999
-12.124
5.337
-10.4161
4.92588
-14.061
-10.8379
8.23115
0.186839
2.79917
6.31192
4.51814
-14.2498
8.01934
-7.77062
3.03338
3.02957
-10.9933
-10.7146
-11.9153
2.69719
4.57891
-15.7276
-17.099
6.00343
7.77007
3.96235
-13.748
6.28422
3.02143
-5.08295
7.27265
3.01948
3.21469
5.68412
-9.20033
7.66147
2.78118
-12.913
-10.9962
3.09258
6.66908
-10.4975
2.56503
7.21016
7.50844
-17.1604
5.64344
4.23813
6.40856
8.61793
6.43074
6.25292
-5.57798
3.6378
6.4996
2.75663
-16.1945
8.1533
2.93109
2.21088
5.96279
3.44019
4.61913
7.41172
1.63776
3.54334
-9.89418
-9.62678
2.4949
-13.5592
3.26214
3.41338
3.25128
7.62082
5.30677
4.53502
-15.3105
4.97176
4.01089
1.87795
-10.3145
-0.0300689
2.38945
2.55606
5.97234
3.12219
7.76842
4.98386
1.35476
-10.0787
-8.96267
-12.3604
8.11804
7.80918
5.79054
7.88918
6.48556
-10.7384
10.4378
-17.6634
7.21585
-11.875
8.19058
-11.889
5.66787
3.32098
3.93833
-12.9562
-6.546
2.50088
-16.9618
3.49149
8.73539
3.38657
-11.2279
7.32053
4.76148
-9.24124
3.58677
7.72338
7.25741
6.62893
-15.6466
7.65655
4.32653
7.94196
2.3333
7.418
-11.2384
-12.3223
5.69651
-4.08463
7.69746
-12.2131
4.20424
7.75249
7.22961
4.84554
-5.0012
5.11841
6.66258
2.91133
6.28718
5.32614
6.74747
7.5556
-9.62871
-9.37358
0.87063
-11.0333
-5.70733
-13.1617
-11.37
9.17209
3.14708
3.36839
7.82978
4.83281
2.1863
5.41722
3.73795
-15.1097
7.15726
6.04649
3.10827
6.84251
5.42275
3.63361
0.997889
-12.5695
-12.7385
8.12034
-11.1623
-1.26484
-12.1774
-17.2885
-13.0516
-12.6217
4.50808
8.03797
5.18072
7.32199
6.77472
4.57186
-12.0956
-12.9676
6.97355
-12.9887
1.49113
8.14365
3.69264
4.1531
-9.41661
2.02038
3.79601
-1.91637
-8.80168
-14.935
-11.9938
7.84149
7.80677
3.31999
7.45801
-11.9045
0.323277
-12.1337
-8.41312
3.20376
-9.22813
4.69954
7.9493
2.80133
2.99646
2.92732
7.87961
5.23467
2.99628
4.65548
4.4735
5.93912
4.4545
4.55381
7.15279
-11.4269
-5.62168
6.27069
-0.147809
5.54366
-16.29
3.34552
8.9814
6.84244
-15.1011
0.686183
7.55466
5.27839
-11.0428
1.98114
-13.7761
4.44406
-14.6836
-12.8353
-10.5309
3.65387
-9.3392
1.9852
7.28935
-12.2236
6.72583
3.71194
4.39236
-14.4558
-1.15292
6.04069
3.24783
-13.4376
3.29292
1.08452
-9.99119
7.21472
6.31215
-4.12951
-12.2002
-13.8347
7.5181
7.95287
7.54095
-14.9195
-4.68807
6.80946
3.49338
2.98447
-12.8194
8.30296
3.61423
-13.3505
8.59704
4.36543
4.91511
8.10957
-14.2522
4.45386
-15.4981
7.08337
4.12628
-12.7087
6.53262
7.56367
7.63393
2.61556
-15.1458
-12.1123
7.8171
7.42502
4.32805
-8.35295
-16.2286
0.107244
4.61462
-13.246
-6.77198
4.92321
3.15719
2.88521
-10.2776
7.26647
-14.6728
5.48226
4.94028
-10.1224
5.10664
5.93056
2.80404
-15.9328
-11.1927
-9.86529
-10.0249
7.86819
-13.7258
-8.53841
7.12446
-2.46495
3.45353
2.92156
-16.2107
4.37434
3.97043
-16.9169
2.32073
8.53191
8.40386
-14.3081
2.07934
5.36491
-10.3833
-12.0037
-11.0438
7.26502
4.41874
-10.6176
-11.7318
-11.8338
-14.9677
-13.7524
1.62096
7.69879
-0.192597
-10.5436
6.11947
6.7503
1.75318
-9.24164
5.57331
-1.17261
-13.359
5.75363
2.97165
7.57819
-9.9807
-3.52929
-11.5209
-10.9576
7.63865
2.52446
0.308967
4.24573
-12.4122
-17.0876
7.61544
4.50042
4.34284
8.07892
-14.3048
-12.3011
4.51937
-10.9003
6.43974
-11.7436
7.61301
3.48869
3.87382
-5.00057
-12.0668
2.39519
-15.1882
5.29813
5.48684
-4.60271
5.81541
-8.4052
-9.94368
-10.6543
4.42101
6.78094
-3.97827
5.08349
6.31923
3.75798
-11.1799
5.34576
2.70774
-11.7424
-3.94988
3.00635
4.49639
5.77357
6.32554
2.98148
6.47291
-15.9877
7.44716
4.33106
-10.7022
-16.6495
-5.97031
4.86022
4.70431
-0.564842
8.32104
-11.1219
3.03835
2.88268
-11.1312
5.00659
4.10201
1.64507
3.41928
-11.5194
7.57246
7.18003
7.29856
-2.58772
-2.44362
-13.2998
3.90302
-13.5127
5.51174
5.55814
5.24504
-10.9697
-10.6104
6.20313
-10.0648
8.29128
-10.8347
4.67616
-11.3678
3.24993
3.50815
5.94265
-1.40295
-6.38118
4.56345
7.45495
-16.1721
7.86378
7.19155
4.01498
7.25207
4.65049
-10.951
5.71212
4.83455
-9.41062
2.66782
-10.0685
8.09941
6.18785
6.0428
8.78036
6.45817
2.93854
-13.2904
8.71555
2.24728
7.80471
4.15911
-0.224588
-10.7665
6.84843
7.61089
4.92634
6.33555
7.92886
6.46756
-10.5296
7.77672
-16.6883
5.19055
-4.9121
-11.6864
2.65551
-15.769
5.24046
-12.5373
-11.897
-10.2696
4.02176
4.34406
2.584
-11.8015
6.61373
1.39407
5.62715
3.83729
-11.4589
2.83509
6.61834
2.9026
8.03357
7.58991
8.77338
-12.2874
9.30198
-14.5292
7.07323
6.21357
7.41258
7.31899
-15.3087
8.33151
-15.9553
-12.406
3.29095
6.24543
-11.4103
-11.3584
7.87998
7.74015
6.94171
6.18344
7.7208
2.6765
-11.6344
4.68049
8.41948
-14.8493
3.92881
0.977478
-5.80145
7.16811
3.22599
7.49993
2.74772
-11.4752
2.86224
-13.872
6.88718
2.7162
6.25661
-13.5
-13.695
6.97879
8.40114
-13.0151
7.01855
2.96511
-10.45
-12.0085
8.57927
7.77092
8.33975
2.49047
-12.9596
3.67441
8.55577
-13.1438
-10.8321
7.9309
6.65605
3.36662
8.63217
4.59953
-15.7685
3.94464
-10.9908
4.08888
7.36078
3.50619
-15.3651
6.12964
-12.4857
-10.8643
-10.3737
-13.0905
-11.9501
7.67448
5.62327
-13.0449
-14.7817
4.17464
7.51527
4.5015
2.7342
6.51621
3.83218
4.39686
-8.72436
3.18464
2.62274
-5.531
2.8953
4.37702
5.1571
-10.324
8.0795
-12.6122
-11.8614
2.88985
6.52995
4.39311
6.15712
4.40633
-12.8669
2.3657
7.37371
4.16614
6.48229
-10.9167
-13.4225
5.69002
4.8534
3.20802
7.80239
3.26491
2.5543
7.90835
2.87305
1.87115
-11.7632
7.57442
5.28515
-6.63512
4.71917
3.62952
5.42188
3.34449
4.34527
6.94601
-15.6633
5.14091
5.6575
-11.0267
3.20615
-0.504061
-5.90537
7.41576
4.26229
7.31759
-8.50263
5.39273
-13.4785
7.81956
-5.31004
-13.755
-17.3042
-11.8453
8.52719
3.75144
-15.7159
-13.0005
2.83923
6.40625
8.50724
-12.146
7.32597
5.21977
8.24155
7.27455
-0.518159
8.36038
3.07421
7.82485
-11.712
-16.2992
7.155
8.10512
6.89989
6.60295
4.40605
-11.6998
7.93968
0.935807
-14.3023
-16.6489
7.49709
-13.0665
-11.6118
-16.6793
-12.3896
1.94738
-12.0555
-12.6738
-10.3734
7.90619
-10.9806
8.01673
-3.41539
8.34805
7.73484
-13.316
-9.01255
-11.4489
-11.7829
2.68083
6.24223
-2.23497
-12.9434
8.34947
-13.2051
6.50778
-16.7728
7.69497
-11.5697
0.899748
2.96485
4.60663
-17.107
4.26028
1.60896
-16.4336
7.09244
-11.102
4.76607
6.30209
-8.14851
-1.86656
4.73048
-15.5549
-7.34656
7.96439
-14.171
8.0946
7.58362
2.63914
3.20897
-13.2564
-13.1591
8.07579
-13.7764
6.76265
-16.41
8.16536
7.25171
6.15549
-17.1378
-0.835665
-10.7851
5.62445
-10.7419
3.65908
-14.2343
-12.8884
0.774033
6.84291
-12.0863
6.11953
5.19142
7.18125
-11.8163
-13.1562
3.76785
-13.9809
5.05371
4.62733
-2.81301
5.52831
4.19923
-13.7177
7.3797
7.52764
8.62732
4.31964
6.39343
8.19071
-13.8758
-12.059
4.47433
7.73286
4.96673
-12.7787
-11.7326
3.96639
2.17325
2.76871
-14.1981
2.12571
-0.879923
-14.1756
3.60708
-14.8311
-13.0231
3.82271
4.01034
7.70621
7.86872
3.40083
5.4524
2.90548
2.57533
-12.7157
5.98775
-13.5493
3.88857
-12.4867
6.79722
-10.0033
0.769551
-15.4948
-11.6566
2.96331
1.09621
5.88743
6.09707
5.73865
-11.2851
-10.8344
7.55602
7.56678
4.93559
6.42111
4.20442
4.89136
-13.1974
-10.7336
-15.7737
-13.4511
7.26431
3.43127
-12.3979
6.76065
-11.7798
7.47341
3.83298
2.95497
5.20185
3.95931
5.34539
3.79542
1.09474
-13.3169
-11.8615
8.35432
4.06341
-14.8399
-3.63406
4.4897
-11.4811
-12.9269
-10.3373
6.09843
-16.657
4.3064
7.41444
7.44231
3.62004
8.98941
-10.762
-12.4039
6.99354
2.68715
-16.4639
4.86548
-12.9393
-10.0146
5.41118
2.41987
6.59927
2.77316
-11.6999
3.28434
-11.7632
2.81797
7.17258
2.82421
7.42103
2.40459
7.08932
5.68355
7.42826
3.30891
4.78861
-13.9951
7.64197
-9.37321
5.02661
5.39224
6.83795
2.86063
4.52532
-6.03667
-12.7158
5.02644
-12.3773
8.11343
-12.7552
6.63147
6.89847
3.85983
3.3946
-11.2805
5.70865
5.67694
-3.72273
-9.7111
6.15645
7.81959
7.68279
6.52804
-3.54677
4.51806
4.87234
-14.3416
3.98338
7.97659
5.70901
-13.6318
5.26095
-12.0988
-12.196
8.63779
2.7657
6.51921
7.45876
-13.6852
5.80946
7.81776
6.59168
-15.6405
2.83177
6.73549
3.64417
-5.75801
-9.69164
2.92198
4.54191
-10.6131
7.65436
-1.06532
-11.822
5.9025
-0.550936
-11.8283
7.56589
-12.0418
7.50721
5.33051
7.33632
3.96352
-7.95554
-10.3939
6.31282
7.86555
-12.4589
5.91895
6.73478
7.76379
2.23313
-3.20722
3.52717
3.17695
8.06168
5.10118
3.33075
5.33607
2.85674
7.31749
-9.9693
-15.1097
3.24634
-12.8606
2.89275
-14.0358
-11.5993
-14.6833
-10.5507
8.75397
7.20309
-15.0146
6.92469
6.76801
-11.1132
5.1771
3.91999
-12.0841
-15.4598
6.39284
-10.1487
3.20453
-11.5934
2.98245
7.81106
-3.92469
2.61716
-13.8799
5.48215
7.77824
2.45923
5.39612
-7.67649
0.994372
6.48877
-12.6544
2.5524
-12.4625
2.80357
-13.6138
5.85069
7.37717
4.36364
8.10756
-16.2168
-9.93709
-14.9071
3.14003
-13.6137
-10.9159
8.48179
-16.5832
0.0606361
7.93767
-16.2325
-11.1894
5.84561
2.93424
3.05028
-13.4263
4.04669
8.25552
-11.4522
-14.6869
2.42857
-13.1661
-11.6684
4.19903
2.71085
-2.86361
2.85925
-15.7535
2.95811
7.46297
4.07163
-10.6529
3.27211
-0.941783
-12.3703
3.66504
-0.83832
-7.47153
7.451
-11.8899
7.29333
-16.5107
6.36273
4.07477
5.21759
7.56763
4.57857
4.96569
7.25869
2.9675
8.48828
-12.7887
-14.7754
4.5593
-16.9033
3.31174
4.19486
5.85231
6.478
5.32027
-6.59947
8.28776
-3.55044
-12.8858
-5.53401
-14.5339
8.57735
6.31805
-12.6469
6.86207
3.17555
5.62969
4.06069
4.53171
-10.4492
6.75367
7.47544
3.49391
2.76545
2.69064
-4.82244
-0.264668
-1.69075
-13.3671
4.50104
3.91693
4.65337
5.48525
3.49954
4.40311
2.77468
4.12374
6.66004
6.69799
8.27582
-1.97842
-12.8458
-11.8713
2.8692
7.05911
-1.20295
-10.3681
-11.2446
3.18528
4.57322
2.19368
7.56449
3.61297
2.86363
-10.7454
-0.593905
3.80536
4.92872
5.58624
3.01057
-12.3684
3.49508
6.11356
4.17421
5.23626
-11.5567
7.9511
-7.68818
8.75711
2.93768
3.11571
7.25187
-11.4078
0.714684
5.98714
-13.1744
-14.4302
1.65603
8.01259
5.34294
-10.6681
-13.793
-13.3603
4.37595
-16.5202
7.47988
9.33726
-10.3935
-11.1349
3.80998
4.61408
-1.54918
-4.05707
7.05243
3.34208
-11.1654
3.97894
8.74993
5.43472
6.78197
4.7831
8.10739
7.64733
7.29605
-12.9309
6.29864
3.44615
3.07158
7.17316
1.26499
2.93246
-16.3342
-0.606214
-0.354494
7.41275
6.92717
5.92277
8.60357
5.61378
3.99849
-14.908
7.22086
2.97022
8.38029
0.461336
5.07529
3.19033
7.45381
-12.6861
3.46325
-14.3065
5.98031
9.11325
6.94517
5.8868
7.61899
-11.6582
6.4288
3.08181
7.04265
6.71184
-10.7687
4.49789
7.32881
-13.5963
-13.4408
3.54401
-11.4786
7.61118
-13.0195
7.85128
-13.7699
8.02388
-2.80608
4.39623
-11.9687
2.58691
-10.084
-10.1816
-10.7222
1.98292
-13.4616
4.27357
3.38869
4.39165
-11.8192
7.23324
3.08855
-16.4007
-11.0338
-12.3446
7.2752
-13.5643
3.16326
5.71627
3.70849
0.353871
7.48912
-5.47973
6.2841
5.04465
7.59419
8.34668
6.62642
-14.1676
7.41124
8.01021
-11.1315
0.062963
3.27099
4.38191
-10.7526
6.75188
6.95845
-12.5289
6.88168
-4.34637
-3.0827
6.88006
2.74463
-17.3387
4.65128
6.58362
7.83096
3.66196
6.9114
4.91164
-13.1632
3.38552
-11.1635
2.37599
2.87379
-11.3216
0.752234
2.0739
7.27985
3.45939
5.05056
3.40092
-13.8353
-12.065
7.52894
5.93276
4.81851
-10.7181
2.90732
-0.978683
3.35841
2.88238
7.08248
7.7547
-2.00886
2.88151
-14.1003
-11.9273
7.61911
-9.07267
8.68023
-14.2291
0.362042
3.81184
6.32988
2.89862
6.27115
5.59912
-10.3105
-7.48588
-13.5379
-11.21
-16.4303
6.60469
3.44003
-4.15004
3.51287
-2.54584
-13.1029
7.39333
-10.7925
-14.9025
-9.99323
7.0743
3.33215
4.50636
6.98947
-13.3986
7.85729
-12.589
7.25408
8.55342
2.88935
-11.0802
-11.4346
4.78043
8.28361
8.55107
6.58949
5.88384
-0.340338
-15.4571
6.07749
4.11177
-11.9014
7.50114
-12.544
7.40045
4.79629
7.44174
-11.5284
6.81085
4.64208
7.50742
7.67811
2.54807
5.27953
-11.0874
2.67637
4.70814
5.88565
4.3369
-15.8806
3.99239
3.32078
-6.316
-11.6818
2.86106
-13.7037
7.39323
-10.859
-16.4423
6.89105
2.60313
5.64225
5.04942
3.13885
-14.5366
0.174642
6.75773
3.97339
-7.29384
-8.35743
-9.30693
-14.482
1.48937
7.83696
-11.9958
2.86269
3.98619
4.27364
6.99642
-15.5163
-13.0869
6.02067
-13.9539
6.81263
-15.2328
-3.53805
-10.8608
-13.4836
-10.7494
2.96174
2.60895
7.70571
2.88427
-16.6868
-5.19652
8.05049
-0.192715
3.20738
-11.8965
7.26839
-4.07949
-7.51016
-10.7564
2.86143
-11.7089
2.25813
-13.5236
-11.6807
7.81915
3.26578
5.83652
8.0951
5.07823
-4.71867
7.64678
5.2822
-12.5374
3.16896
1.95352
2.60433
6.00777
7.7913
-13.9297
-13.6869
2.31324
-11.0189
4.40635
6.9439
5.80787
-11.9534
-13.1757
-12.3428
5.32904
6.92238
6.46223
-11.1267
2.32068
-0.106144
4.82899
-13.1226
5.18335
2.4132
-16.1349
7.11461
8.50262
2.91992
3.5415
4.57471
8.3018
-5.22676
5.39862
7.11777
-12.3191
5.36241
-10.1062
-10.7015
2.5171
-5.96059
7.88487
-10.6533
8.03154
-10.5817
4.17095
6.83336
7.78369
7.87271
6.2206
1.61284
8.56491
-15.9353
5.55351
7.10209
5.8121
-13.4298
6.86412
6.95014
5.41198
-13.9051
4.73416
-10.2602
-10.4877
8.12536
7.66668
-2.09823
-13.2372
-15.4352
-1.72177
8.16816
2.9406
-13.4679
-12.0493
-11.1846
-10.0354
7.00534
5.96828
5.05204
2.61997
8.59992
7.56886
6.82425
3.28768
7.28479
-15.5226
6.16166
-14.3913
6.64381
4.88593
-7.13051
4.99201
-15.9202
2.7358
3.45734
4.4908
4.47959
8.27084
3.42235
-4.88544
1.22661
5.19774
-2.82545
-13.2309
-10.455
8.31587
1.20002
-10.9745
-13.5839
-12.7644
-13.2003
-10.112
7.86482
6.24012
5.62474
4.22984
-14.5038
-13.0167
3.19153
8.0992
2.69062
8.09709
-9.98677
5.21202
-14.6501
4.23293
3.26282
4.87402
-11.4157
5.132
-17.219
-11.5726
2.29369
2.46996
4.88069
7.79242
2.92748
3.99042
-3.96249
7.61497
7.47162
4.8455
7.38972
2.52226
-12.1188
-0.954463
-5.5442
-8.04812
-13.3897
-12.6268
2.73907
6.51505
-10.8633
8.47248
4.501
-16.6921
7.43966
7.2734
6.0413
-5.32131
-12.7833
5.78869
6.88521
6.63639
-13.1472
5.22362
-14.8487