/*--------------------------------*- C++ -*----------------------------------*\
  =========                 |
  \\      /  F ield         | OpenFOAM: The Open Source CFD Toolbox
   \\    /   O peration     | Website:  https://openfoam.org
    \\  /    A nd           | Version:  10
     \\/     M anipulation  |
\*---------------------------------------------------------------------------*/
FoamFile
{
    format      ascii;
    class       surfaceScalarField;
    location    "1650";
    object      phi;
}
// * * * * * * * * * * * * * * * * * * * * * * * * * * * * * * * * * * * * * //

dimensions      [0 3 -1 0 0 0 0];

internalField   nonuniform List<scalar> 
16133
(
2.9507
1.32334
-1.71181
-2.56214
-2.74876
2.73428
-3.05471
3.06919
-0.881486
-3.40312
2.66487
1.61974
0.72555
-1.13492
-4.92146
5.33087
-1.36274
0.520408
5.62015
-4.77779
4.6361
1.52776
-6.05611
-0.107739
-3.81374
1.17594
2.27319
0.364627
-0.0488576
-3.81032
0.975795
2.88338
-2.11069
3.22073
2.23638
-3.34641
0.528562
3.76757
0.01065
-4.30677
3.67686
-3.4034
2.63929
-2.91273
5.0817
-2.26241
2.14529
-4.96456
-0.244637
-3.93409
2.36079
1.81794
1.09021
-0.89973
0.926414
-1.1169
1.24798
1.09662
-1.25439
-1.8136
1.34932
-4.21521
4.67949
-0.926388
0.777624
-0.750973
-5.01657
1.11326
3.64823
0.255082
-5.53231
4.47643
-1.05481
1.16896
3.3546
-1.57285
-0.820861
3.19554
-2.69553
0.320855
0.405284
-4.63623
4.9565
-4.52678
4.51551
-1.80233
7.50226
-6.14098
-0.245649
-1.11563
-4.40722
5.26342
-0.327639
-0.00279633
0.00310076
-0.0816734
0.0813688
0.0447527
-0.00505052
-0.0281551
-0.0115471
-0.195096
-2.34268
2.11079
0.426983
-0.0273232
0.0504096
-0.0122888
-0.0107977
-3.9385
2.6895
3.52661
-1.10556
-5.46013
3.03907
-2.66426
2.64025
3.70087
1.21572
-3.48209
2.21752
-0.0552711
0.150122
0.0128624
-0.107713
-3.51773
-3.45793
3.56792
3.40775
-1.67434
2.86155
1.93441
-3.12162
-2.79597
-5.22757
4.50582
-0.0607666
0.0947347
-0.110383
0.0764148
0.0480307
0.101043
-0.0259654
-0.123109
-5.45051
0.992932
-1.07473
-4.07618
0.148333
-3.77831
-0.916916
-1.15905
-0.514708
0.181383
1.49237
-1.80163
4.37791
1.35036
-3.92663
4.98874
-2.09692
-5.6878
3.17978
-1.12803
0.514888
0.0450313
-0.507127
-0.464548
0.754639
0.217034
2.56396
1.49949
-0.842721
4.7578
-4.38166
0.0291453
-1.95258
-2.6786
-5.19802
5.40454
-4.07761
3.87108
0.137988
0.0465247
-0.136482
-0.022829
0.0362592
0.0390966
-0.0525269
-0.0185051
0.0566014
0.062947
-0.0141937
-0.016166
0.00303635
4.94116
-2.57902
-7.58972
-0.0837892
-0.0910941
0.138757
0.0361262
-0.519552
0.80768
-0.678075
0.389945
4.66301
0.0843952
0.0187681
0.0348244
2.75937
-2.30358
-3.20454
0.102143
0.00496244
-0.0121426
-0.0949626
2.4367
-4.70681
4.29394
-2.02383
2.32313
-1.86118
-4.17876
2.67083
-1.89519
-0.467036
-0.293672
0.241154
-0.0323613
0.337928
-0.0113357
-0.294232
1.25483
2.9165
-5.36744
0.293634
-1.06717
0.0227494
0.00258139
-0.0481599
0.121881
-0.0367169
0.0136323
-0.0987963
-1.20733
0.616354
2.07399
-1.48302
2.23127
-3.49218
-2.91785
1.15975
-1.7002
1.78843
-1.1791
-1.37266
1.56212
0.989642
-6.2204
1.82375
-0.970799
-2.36041
1.47615
2.06019
-2.25424
2.0953
1.37465
1.53883
-1.34112
0.962035
5.33592
-5.02339
0.140313
-0.452837
2.47959
-2.11752
-1.40905
1.04697
0.0605179
0.135775
-0.149769
0.0463715
0.0464781
-0.0565906
5.95794
0.043994
-0.666002
-2.80173
2.37588
2.10412
-1.67827
2.6971
-2.32052
-2.53326
2.15669
4.37463
-3.88724
-2.28902
1.50864
-0.685993
1.01693
-1.83957
3.07553
-2.5202
2.14177
4.92611
1.73942
-2.29088
6.33285
-2.54166
2.82965
0.973277
1.94177
-2.09572
1.6626
3.49941
-2.35374
1.92987
-3.16103
-1.31503
0.782039
5.2891
0.261747
0.80832
-1.33411
-1.17441
0.857853
-0.584738
0.534564
-4.81641
5.21484
-0.255423
-0.142975
1.78322
-1.66088
4.15658
-4.1723
1.21499
-1.19926
1.99713
-2.26188
1.87405
0.770391
4.26391
-0.877704
1.19588
3.14704
0.851581
-0.0327297
-0.232849
-0.971815
7.7728
-0.84304
1.65413
-1.14392
1.02863
-0.703181
-3.95424
0.275778
-4.01387
-1.52117
-1.84761
-1.33987
1.06995
-1.26117
1.06768
-0.171425
-3.86294
-4.14352
-0.410077
4.92688
0.69805
2.43241
-3.64116
-2.6648
4.01695
-5.11945
0.00995427
4.69945
2.301
3.10568
-0.479792
0.83871
-0.18662
-1.83119
2.76313
-2.85092
-1.36455
0.852949
3.40414
-2.89252
-3.26271
3.43803
2.41044
-2.58574
-0.0580211
0.134285
0.00824689
-0.084511
-0.0857709
1.17276
1.84926
-2.18331
6.38611
-5.16764
-0.0713439
0.0567569
-0.0137295
0.0283163
2.35487
-2.54667
-3.06091
-2.86605
-3.29879
-1.12364
0.879144
-0.0158355
0.132735
0.00498108
-0.0618644
0.166644
0.102405
-0.207185
-1.01666
1.1922
-3.33657
0.262927
5.3297
-3.16876
-3.68215
0.889002
-1.42329
1.09575
-4.1562
5.5859
-0.115789
-0.147662
-0.203586
-0.866334
3.04399
-6.00231
3.82465
5.1867
1.33395
-1.31484
1.33009
-1.34921
2.99274
-3.15644
1.07446
-3.83577
-1.19728
0.897533
-0.626653
3.96164
1.96289
-6.79085
-0.629218
0.181456
-0.0593654
-1.89418
-6.37263
3.11885
-2.68888
4.66216
2.34348
4.60159
2.33071
-0.20128
0.05064
0.336329
-0.185689
3.7141
1.96285
-2.2389
0.809707
-2.53052
2.99901
2.85057
-3.31904
7.15594
1.87962
-3.306
-5.72957
-0.976529
0.779301
-4.36536
4.46397
5.69634
-5.67385
-0.994284
-1.13282
1.77733
4.74968
3.93744
-3.12675
2.43946
-2.7948
-5.2191
0.278011
4.95106
-4.15176
3.2598
-2.43888
3.33085
-4.85554
-5.85357
-0.30719
-3.29032
0.614182
-0.617179
-1.20434
-0.00420574
0.0183957
-0.0134771
-0.000712965
-0.852395
0.852248
5.13335
-5.04355
1.87308
-2.13222
-3.45301
-3.22008
-0.838482
0.788636
-0.0702212
0.120066
-3.55205
0.486805
-0.00796939
0.0981977
-0.0398189
-4.66443
-0.317214
-3.9493
2.24015
0.112118
-0.0857444
-1.00724
-1.74478
3.13458
-3.75021
3.13903
3.69611
4.04099
4.05516
-3.21188
0.164005
0.0600495
-0.163537
-0.0784868
-0.00869257
1.53097
-3.46039
1.5846
-1.88435
2.81174
-3.30169
-0.61622
0.981058
-1.11825
-2.65573
0.0975396
2.61374
1.66734
0.195941
-0.0190523
-0.237656
-2.8877
2.44797
0.206887
-1.1143
1.44245
-2.93832
4.36784
-1.60093
0.0248289
0.106777
0.0329547
-0.0375898
5.35185
-0.274737
-0.00902932
-0.345452
2.96847
2.59936
5.24228
0.0439591
-0.0034122
-1.31808
1.09871
-1.41451
1.93068
0.147068
-0.149924
-0.186954
0.18981
-0.0660347
0.0632382
0.658947
0.0938391
-0.0477749
-0.0540338
0.790635
-0.177518
0.175517
0.235847
-0.190178
-0.161459
1.49495
-0.154631
-2.19271
-0.0279519
-0.1052
0.179754
-0.0466024
2.88287
0.0643627
-0.0695996
0.00523683
-0.686317
-2.27149
3.8081
-5.39715
1.65186
1.18704
0.565917
-0.539473
-0.0966655
-2.92248
-0.00167198
1.6624
-6.15541
-0.0791084
0.0693641
0.0372527
-0.0275086
-0.545077
-6.17297
-0.106763
-0.020217
0.0990285
-4.89382
-0.985509
-2.84849
5.58038
-3.47587
-0.0306223
-0.158458
0.0838802
0.288689
-0.349114
0.207493
-0.0205194
-0.0269913
0.033317
-2.33728
2.4216
-0.978015
2.45907
1.46476
-1.11209
-0.00479559
-0.00145651
0.00625196
-1.82338
-3.51338
0.0106717
-0.0216974
0.0110257
1.91543
-3.63795
0.817122
1.41564
-0.670809
1.22291
0.00657541
0.00409624
0.524532
-0.187328
-0.237965
0.400368
0.249913
-1.64877
2.23959
-0.289677
-0.726231
4.45096
0.192268
-0.068799
0.0405354
-0.942766
0.223485
-1.1679
1.5502
-2.77758
-0.613034
2.21234
-0.765109
3.81619
0.0584804
0.00475776
1.00778
-4.13595
1.69866
-0.917168
-2.62367
1.26388
0.996213
0.362097
-2.38457
2.26379
-0.188626
-0.0329169
0.071619
5.68941
-0.0881047
0.0502056
0.0570315
-0.0608657
-0.0788318
0.117399
-3.12307
0.0924222
0.112553
-0.11407
0.0180036
0.0240099
-0.0420136
-1.7316
-3.77404
4.52651
-0.474295
0.189726
0.269313
-2.08709
0.00410339
-0.00889902
-1.74726
-5.39366
0.269217
0.0493181
0.0663754
-0.065488
0.69074
-0.193677
-0.0389984
-3.5125
-0.170183
-4.00462
-2.1366
-0.00369384
0.145929
0.347502
-0.106239
-0.570702
-0.0337735
0.0475539
-0.00881801
0.0584978
0.179336
-0.177784
-0.378868
-2.87872
-3.18488
0.0550774
0.00340297
0.20757
-2.04702
0.0546848
1.65133
-0.0684928
0.0709522
0.0596685
0.0594454
-0.0697959
0.644932
0.182376
-0.0557623
0.0144486
-0.0239424
-0.00237886
0.00749774
-0.129553
0.221448
-0.0790324
0.0142144
0.00828465
0.0576877
-0.00261032
0.00961198
-0.0230891
0.203995
0.0440288
0.00785154
-0.0146277
-0.191993
2.22051
-1.60222
1.47701
0.00418569
-0.0740705
-0.0281396
0.291765
-0.46528
-0.696689
1.13165
0.560131
-1.33189
-0.981862
-0.0217045
0.0338097
-0.0565389
0.0440824
-0.0750985
0.00818285
0.0122835
0.0184702
-0.00207982
0.0597675
-0.143107
-0.0669344
2.31887
-0.0132604
0.0510749
-1.58723
0.483701
-1.95273
-0.783854
-0.110851
0.0032373
-0.0313769
-0.0622486
0.0191109
-0.0472822
0.0659096
-0.0235254
0.713452
-0.973167
-1.24673
0.80673
-0.0932873
-1.52675
-0.402089
-0.0330056
-0.0228975
-1.53544
-0.751153
-0.0381531
-0.0298548
0.0373454
0.148411
-0.540049
0.047693
0.0216195
-0.0656617
1.68098
-0.0218517
0.0187169
0.0219356
0.0888136
2.66448
0.232594
-0.214739
-0.942488
-0.223185
-1.02646
-0.00378944
0.114007
-0.110218
-0.00846836
0.118098
-0.113419
-0.0131113
0.128493
-0.12385
-0.0181985
0.137331
-0.132243
-0.0234125
0.146757
-0.141543
-0.0289327
0.155293
-0.149772
-0.0345726
0.163759
-0.158119
-0.0403468
0.17169
-0.165916
0.179214
-0.173647
-0.0459134
-0.00349222
0.117499
-0.007649
0.122255
-0.0118452
0.132689
-0.0164348
0.14192
-0.0210919
0.151414
-0.0260053
0.160206
-0.0310059
0.168759
-0.0360881
0.176772
0.184323
-0.0411968
-0.00340714
0.120907
-0.0069373
0.125785
-0.0106254
0.136377
-0.0146241
0.145919
-0.0187181
0.155508
-0.0229881
0.164476
-0.0273284
0.1731
-0.0317309
0.181175
0.188756
-0.0361645
-0.00312178
0.124028
-0.00617353
0.128837
-0.00936486
0.139568
-0.0127809
0.149335
-0.0162971
0.159024
-0.0199442
0.168123
-0.0236518
0.176807
-0.027428
0.184951
0.192621
-0.031293
-0.00272574
0.126754
-0.00533792
0.131449
-0.00804639
0.142277
-0.0109154
0.152204
-0.0138687
0.161977
-0.016926
0.171181
-0.0200552
0.179936
-0.0232755
0.188172
0.195961
-0.0266149
-0.00223883
0.128993
-0.00443483
0.133645
-0.00669141
0.144533
-0.00905466
0.154567
-0.0114829
0.164405
-0.0139981
0.173696
-0.0165831
0.182521
-0.0192665
0.190855
0.198781
-0.0220864
-0.00157442
0.130567
-0.00344287
0.135514
-0.00531401
0.146405
-0.00724372
0.156497
-0.00920044
0.166362
-0.0112217
0.175717
-0.0133261
0.184626
-0.0155423
0.193071
0.201157
-0.0179187
-0.000776555
0.131344
-0.00244978
0.137187
-0.00400222
0.147957
-0.00554312
0.158038
-0.0070832
0.167902
-0.00868077
0.177315
-0.0103644
0.186309
-0.0121826
0.194889
0.203102
-0.0141278
-0.000202994
0.131547
-0.00167523
0.138659
-0.00288674
0.149168
-0.00405547
0.159207
-0.00521805
0.169065
-0.00644111
0.178538
-0.00777682
0.187645
-0.00925723
0.19637
0.204778
-0.0109327
-0.000124885
0.131672
-0.00126683
0.139801
-0.00204681
0.149948
-0.00282014
0.15998
-0.00363072
0.169875
-0.00455739
0.179464
-0.00563491
0.188723
-0.00690771
0.197643
0.206244
-0.00837364
-0.000367183
0.132039
-0.00104443
0.140478
-0.00136565
0.15027
-0.00177725
0.160391
-0.00230092
0.170399
-0.00300949
0.180173
-0.00392398
0.189637
-0.00509123
0.19881
0.207696
-0.00654391
-0.000439718
0.132478
-0.000631661
0.14067
-0.000632448
0.15027
-0.000794836
0.160554
-0.0011479
0.170752
-0.00171807
0.180743
-0.00254282
0.190462
-0.00362384
0.199891
0.209144
-0.00507193
-3.14077e-06
0.132482
0.000154574
0.140512
0.000277993
0.150147
0.000200643
0.160631
-9.7548e-05
0.17105
-0.000650075
0.181295
-0.00148108
0.191293
-0.00262395
0.201034
0.210585
-0.00406469
0.000756843
0.131725
0.00115782
0.140111
0.00129737
0.150007
0.00121002
0.160718
0.000882273
0.171378
0.000278279
0.181899
-0.000622452
0.192193
-0.00185512
0.202266
0.212149
-0.00341895
0.00153301
0.130192
0.00214478
0.1395
0.00228551
0.149867
0.0021559
0.160848
0.00176768
0.171766
0.00109753
0.18257
0.000105333
0.193186
-0.00125575
0.203627
0.213882
-0.00298847
0.0019319
0.12826
0.0028342
0.138597
0.00304396
0.149657
0.00293657
0.160955
0.00254486
0.172158
0.00184907
0.183265
0.000811179
0.194224
-0.000609194
0.205048
0.215701
-0.00242892
0.0017333
0.126526
0.00298513
0.137345
0.00343041
0.149211
0.00348412
0.160902
0.00319702
0.172445
0.00256462
0.183898
0.00154658
0.195242
0.000126281
0.206468
0.217599
-0.00177121
0.00128176
0.125245
0.00275199
0.135875
0.00352358
0.14844
0.00384932
0.160576
0.00376767
0.172526
0.00327491
0.184391
0.00233717
0.196179
0.000916093
0.207889
0.21955
-0.00103501
0.000967288
0.124277
0.00250623
0.134336
0.00355562
0.14739
0.00418614
0.159945
0.00438406
0.172328
0.00413221
0.184642
0.00339198
0.19692
0.00212972
0.209151
0.221369
0.00031005
0.000862609
0.123415
0.00243562
0.132763
0.00370822
0.146118
0.00464235
0.159011
0.00515738
0.171813
0.00521556
0.184584
0.00477148
0.197364
0.00378251
0.21014
0.222938
0.00221384
0.000873358
0.122541
0.00256228
0.131074
0.00406242
0.144618
0.00530276
0.157771
0.00616437
0.170952
0.00658
0.184168
0.00648191
0.197462
0.00577766
0.210844
0.224339
0.00437719
0.00103619
0.121505
0.00292326
0.129187
0.00467193
0.142869
0.00622136
0.156221
0.0074613
0.169712
0.00830601
0.183324
0.00866947
0.197098
0.00840801
0.211106
0.225311
0.00743509
0.00155612
0.119949
0.00359553
0.127148
0.00555665
0.140908
0.00739179
0.154386
0.00902251
0.168081
0.0103499
0.181996
0.0112912
0.196157
0.0115918
0.210805
0.225959
0.0109444
0.0024585
0.11749
0.00454834
0.125058
0.0066541
0.138802
0.00876451
0.152276
0.0107902
0.166055
0.0126161
0.18017
0.0142342
0.194539
0.0152265
0.209813
0.226444
0.0147418
0.00342033
0.00536942
0.00768962
0.0101966
0.0127154
0.0151018
0.017648
0.0202757
0.0235346
-0.087009
-0.00125351
0.0882625
-0.0856097
-0.00139928
-0.0840559
-0.00155383
-0.0823347
-0.00172117
-0.08044
-0.00189478
-0.0783638
-0.00207611
-0.0760996
-0.0022642
-0.073645
-0.00245467
-0.070994
-0.002651
-0.0681479
-0.00284607
-0.0651062
-0.00304165
-0.0618712
-0.00323502
-0.0584466
-0.00342463
-0.0548335
-0.00361304
-0.0510383
-0.00379519
-0.0470644
-0.00397387
-0.0429213
-0.00414313
-0.0386185
-0.00430271
-0.0341728
-0.00444574
-0.0296063
-0.00456646
-0.0249521
-0.00465418
-0.0202592
-0.00469291
-0.0155921
-0.00466702
-0.0110252
-0.00456685
-0.0066149
-0.0044103
-0.00230905
-0.00430583
0.00202549
-0.00433452
0.00651647
-0.00449096
0.0112909
-0.00477441
0.0163492
-0.00505827
0.0215703
-0.00522107
0.0268597
-0.00528936
0.032156
-0.00529627
0.0374056
-0.00524966
0.0425611
-0.00515539
0.0475846
-0.00502354
0.0524447
-0.00486008
0.0571147
-0.00466994
0.0615769
-0.00446223
0.0658181
-0.00424118
0.0698338
-0.00401564
0.0736252
-0.00379141
0.0771959
-0.00357062
0.0805551
-0.0033592
0.0837096
-0.00315454
0.086672
-0.00296233
0.0894479
-0.00277591
0.092047
-0.00259914
0.0944725
-0.00242547
0.0967263
-0.00225378
0.0988129
-0.00208656
0.100735
-0.00192223
0.102504
-0.00176913
0.104124
-0.00162012
0.105602
-0.00147729
0.106943
-0.00134084
0.108152
-0.00120922
0.109243
-0.00109109
-0.000974721
-0.0866526
-0.0025428
0.0879419
-0.0852636
-0.00278828
-0.0837658
-0.00305163
-0.0821495
-0.00333746
-0.0804087
-0.00363559
-0.0785295
-0.00395526
-0.0765051
-0.00428863
-0.0743214
-0.00463837
-0.0719699
-0.0050025
-0.0694404
-0.00537552
-0.0667235
-0.00575856
-0.0638119
-0.00614661
-0.060697
-0.00653957
-0.057379
-0.00693099
-0.0538554
-0.00731883
-0.0501274
-0.00770182
-0.0461995
-0.00807098
-0.04208
-0.0084223
-0.0377762
-0.00874947
-0.0333009
-0.00904175
-0.0286649
-0.00929013
-0.0238714
-0.00948641
-0.0189117
-0.00962667
-0.0137563
-0.00972228
-0.00837145
-0.00979514
-0.00278713
-0.00989014
0.00290034
-0.010022
0.00860126
-0.0101919
0.0142207
-0.0103939
0.0197537
-0.0105912
0.0252521
-0.0107195
0.0307227
-0.01076
0.0361416
-0.0107151
0.0414822
-0.0105903
0.0467133
-0.0103864
0.051806
-0.0101162
0.0567327
-0.00978676
0.0614748
-0.00941206
0.0660132
-0.00900061
0.0703363
-0.00856421
0.0744335
-0.00811287
0.0782953
-0.00765314
0.0819218
-0.00719712
0.0853101
-0.00674751
0.0884626
-0.00630709
0.0913838
-0.00588348
0.0940822
-0.00547429
0.096562
-0.00507894
0.0988386
-0.00470202
0.100925
-0.00433981
0.102836
-0.0039983
0.104588
-0.00367413
0.106191
-0.00337207
0.107662
-0.00309103
0.109009
-0.0028244
0.110249
-0.00258085
0.11139
-0.00234967
0.112442
-0.00214313
-0.00195227
-0.0947535
-0.00398476
0.0961955
-0.0931993
-0.00434252
-0.0915249
-0.00472601
-0.0897274
-0.00513499
-0.0877909
-0.00557209
-0.0857079
-0.00603825
-0.0834677
-0.00652884
-0.0810631
-0.00704296
-0.0784827
-0.00758288
-0.0757164
-0.00814186
-0.0727552
-0.00871974
-0.069592
-0.00930981
-0.0662212
-0.0099104
-0.0626368
-0.0105153
-0.0588348
-0.0111209
-0.0548183
-0.0117183
-0.0505837
-0.0123055
-0.046136
-0.01287
-0.0414787
-0.0134068
-0.0366154
-0.0139051
-0.0315468
-0.0143587
-0.0262742
-0.014759
-0.0207958
-0.0151051
-0.0151155
-0.0154025
-0.00925071
-0.01566
-0.00324398
-0.0158969
0.00285814
-0.0161241
0.00900838
-0.0163421
0.0151534
-0.0165388
0.0212504
-0.0166883
0.0272895
-0.0167585
0.0332607
-0.0167312
0.039146
-0.0166005
0.0449209
-0.0163651
0.050565
-0.0160306
0.0560547
-0.015606
0.0613679
-0.0150999
0.0664857
-0.0145299
0.0713928
-0.0139077
0.0760727
-0.0132441
0.0805171
-0.0125573
0.0847193
-0.0118553
0.0886746
-0.0111524
0.0923794
-0.0104524
0.0958415
-0.00976917
0.0990598
-0.00910182
0.102044
-0.00845831
0.104804
-0.00783943
0.107352
-0.00724974
0.109701
-0.00668843
0.111863
-0.00616035
0.11385
-0.00566161
0.115675
-0.00519671
0.117345
-0.00476115
0.118877
-0.00435599
0.12028
-0.00398454
0.121574
-0.00364343
0.12276
-0.00332938
-0.0030416
-0.101354
-0.00546976
0.102839
-0.0997527
-0.00594372
-0.0980219
-0.00645679
-0.096153
-0.0070039
-0.0941388
-0.00758632
-0.0919695
-0.00820753
-0.0896357
-0.00886266
-0.0871226
-0.00955597
-0.0844243
-0.0102813
-0.0815295
-0.0110367
-0.0784298
-0.0118194
-0.075111
-0.0126286
-0.0715685
-0.0134528
-0.0677911
-0.0142928
-0.0637772
-0.0151348
-0.0595183
-0.0159773
-0.0550154
-0.0168084
-0.0502682
-0.0176172
-0.0452784
-0.0183966
-0.0400486
-0.0191349
-0.0345822
-0.0198251
-0.028883
-0.0204582
-0.0229578
-0.0210304
-0.0168221
-0.0215382
-0.0104972
-0.0219849
-0.00401816
-0.0223759
0.00256689
-0.0227092
0.00920715
-0.0229824
0.0158532
-0.0231849
0.0224655
-0.0233006
0.0290179
-0.0233109
0.0354896
-0.0232029
0.041858
-0.0229689
0.0481021
-0.0226092
0.0541961
-0.0221246
0.0601196
-0.0215294
0.0658521
-0.0208325
0.0713676
-0.0200454
0.0766488
-0.0191888
0.0816835
-0.0182789
0.0864593
-0.017333
0.0909677
-0.0163637
0.0952035
-0.0153882
0.0991667
-0.0144155
0.102855
-0.0134575
0.106281
-0.0125274
0.109447
-0.0116243
0.112369
-0.0107623
0.115056
-0.00993595
0.117525
-0.00915809
0.11979
-0.00842548
0.121867
-0.00773826
0.123764
-0.00709388
0.125502
-0.00649932
0.127095
-0.00594878
0.128556
-0.00544504
0.129893
-0.00498092
0.131117
-0.00455356
-0.00416759
-0.110086
-0.00709363
0.11171
-0.108324
-0.00770582
-0.10642
-0.00836036
-0.104366
-0.00905869
-0.10215
-0.00980198
-0.0997656
-0.0105919
-0.0971988
-0.0114294
-0.094445
-0.0123098
-0.0914916
-0.0132347
-0.0883285
-0.0141998
-0.0849458
-0.0152021
-0.0813351
-0.0162394
-0.0774869
-0.017301
-0.0733962
-0.0183835
-0.0690528
-0.0194782
-0.0644546
-0.0205756
-0.0595985
-0.0216644
-0.0544816
-0.0227342
-0.0491077
-0.0237705
-0.0434766
-0.024766
-0.0375972
-0.0257045
-0.0314767
-0.0265788
-0.0251282
-0.0273789
-0.0185689
-0.0280975
-0.0118253
-0.0287284
-0.00493303
-0.0292681
0.00206861
-0.0297108
0.0091374
-0.0300512
0.0162304
-0.0302779
0.0233084
-0.0303785
0.0303377
-0.0303402
0.0372875
-0.0301527
0.0441283
-0.0298097
0.0508348
-0.0293157
0.0573824
-0.0286722
0.0637414
-0.0278885
0.0698889
-0.02698
0.0758047
-0.0259611
0.0814687
-0.0248528
0.0868683
-0.0236785
0.0919869
-0.0224516
0.0968224
-0.0211992
0.101367
-0.019933
0.105624
-0.0186726
0.109598
-0.017431
0.11329
-0.0162199
0.116716
-0.0150498
0.119882
-0.013928
0.122802
-0.0128563
0.125488
-0.0118445
0.127956
-0.0108934
0.13022
-0.0100023
0.1323
-0.00917334
0.134202
-0.00840173
0.135945
-0.0076914
0.137538
-0.00703807
0.138994
-0.0064376
0.140328
-0.00588686
-0.00538248
-0.118257
-0.00879975
0.119963
-0.116407
-0.00955594
-0.114407
-0.01036
-0.112245
-0.011221
-0.109907
-0.0121401
-0.107387
-0.0131114
-0.104673
-0.0141433
-0.101753
-0.01523
-0.098615
-0.0163728
-0.0952508
-0.017564
-0.0916481
-0.0188048
-0.0877984
-0.020089
-0.08369
-0.0214095
-0.0793145
-0.022759
-0.0746667
-0.024126
-0.0697414
-0.0255009
-0.0645351
-0.0268707
-0.0590525
-0.0282168
-0.0532925
-0.0295305
-0.0472621
-0.0307963
-0.0409664
-0.0320002
-0.0344191
-0.0331261
-0.0276347
-0.0341632
-0.0206353
-0.0350969
-0.0134499
-0.0359139
-0.00611279
-0.0366053
0.00133736
-0.0371609
0.00886159
-0.0375754
0.0164195
-0.0378359
0.0239716
-0.0379306
0.0314825
-0.0378511
0.0389148
-0.037585
0.0462367
-0.0371316
0.0534192
-0.0364982
0.0604297
-0.0356827
0.0672432
-0.0347019
0.0738326
-0.0335694
0.0801661
-0.0322946
0.0862273
-0.0309141
0.0919974
-0.0294485
0.0974677
-0.027922
0.102626
-0.0263578
0.107474
-0.0247805
0.112007
-0.0232058
0.116232
-0.0216565
0.120156
-0.0201431
0.123785
-0.018679
0.127132
-0.0172748
0.130212
-0.0159372
0.133041
-0.0146728
0.135635
-0.0134876
0.138009
-0.012376
0.140179
-0.0113435
0.142163
-0.0103859
0.143977
-0.0095056
0.14563
-0.00869121
0.147138
-0.00794545
0.148517
-0.0072657
-0.00663778
-0.127378
-0.0106269
0.129205
-0.125394
-0.0115399
-0.123243
-0.0125106
-0.120916
-0.0135483
-0.118402
-0.0146544
-0.115686
-0.015827
-0.11276
-0.0170699
-0.109608
-0.0183813
-0.106227
-0.0197546
-0.102598
-0.0211925
-0.0987165
-0.0226863
-0.0945725
-0.024233
-0.0901537
-0.0258283
-0.0854528
-0.0274599
-0.080464
-0.0291148
-0.0751834
-0.0307815
-0.0696048
-0.0324493
-0.0637396
-0.034082
-0.0575861
-0.0356841
-0.0511537
-0.0372287
-0.0444456
-0.0387083
-0.0374786
-0.0400931
-0.0302698
-0.0413721
-0.0228369
-0.0425297
-0.0152176
-0.0435332
-0.00744398
-0.0443789
0.000442826
-0.0450478
0.00840982
-0.0455424
0.0164188
-0.0458449
0.0244287
-0.0459405
0.0324062
-0.0458285
0.0403045
-0.0454833
0.0480899
-0.0449171
0.0557336
-0.0441419
0.0631961
-0.0431452
0.0704555
-0.0419613
0.0774816
-0.0405955
0.0842268
-0.0390398
0.090682
-0.0373692
0.0968264
-0.035593
0.102653
-0.0337483
0.108147
-0.031852
0.113308
-0.0299418
0.118133
-0.0280307
0.122631
-0.0261548
0.126807
-0.0243184
0.130669
-0.0225416
0.134227
-0.0208329
0.137499
-0.0192084
0.140499
-0.0176736
0.143242
-0.0162306
0.145755
-0.0148882
0.148047
-0.0136357
0.150138
-0.0124776
0.152044
-0.0114112
0.153782
-0.0104289
0.155365
-0.00952917
0.156807
-0.0087072
-0.00794966
-0.136457
-0.0125655
0.138395
-0.13436
-0.0136368
-0.132091
-0.0147795
-0.129628
-0.0160105
-0.126967
-0.0173155
-0.124086
-0.018708
-0.120984
-0.0201724
-0.117634
-0.0217309
-0.114021
-0.0233673
-0.110158
-0.0250556
-0.106021
-0.0268235
-0.1016
-0.0286539
-0.0968884
-0.0305402
-0.0918728
-0.0324755
-0.0865506
-0.0344369
-0.0809111
-0.036421
-0.0749484
-0.0384121
-0.0686953
-0.0403351
-0.062149
-0.0422303
-0.0553128
-0.0440649
-0.0481845
-0.0458366
-0.0407923
-0.0474853
-0.0331569
-0.0490075
-0.0252674
-0.0504192
-0.0172
-0.0516006
-0.00897318
-0.0526057
-0.000645632
-0.0533753
0.00777446
-0.0539625
0.0162436
-0.054314
0.0247149
-0.0544119
0.0331701
-0.0542837
0.0415333
-0.0538464
0.0497759
-0.0531597
0.0578956
-0.0522617
0.0658063
-0.0510559
0.0735192
-0.0496741
0.0810194
-0.0480958
0.0881816
-0.0462019
0.0950357
-0.0442233
0.101564
-0.0421212
0.107752
-0.0399359
0.113595
-0.0376953
0.119065
-0.0354124
0.124175
-0.03314
0.128953
-0.0309332
0.133366
-0.0287315
0.137457
-0.026632
0.141218
-0.0245942
0.144649
-0.022639
0.147779
-0.0208043
0.150633
-0.0190845
0.153233
-0.0174886
0.155599
-0.0160011
0.157749
-0.0146277
0.159703
-0.0133655
0.161482
-0.0122079
0.163098
-0.0111444
0.164572
-0.0101815
-0.00929356
-0.146179
0.148228
-0.0146144
-0.14395
-0.0158656
-0.14154
-0.0171896
-0.138916
-0.0186346
-0.136076
-0.0201555
-0.132984
-0.0217998
-0.129638
-0.0235192
-0.126068
-0.025301
-0.122234
-0.0272006
-0.118049
-0.0292405
-0.113614
-0.0312585
-0.108879
-0.0333888
-0.103797
-0.035623
-0.0984444
-0.0378278
-0.0927379
-0.0401434
-0.0867743
-0.0423845
-0.0804917
-0.0446947
-0.0738583
-0.0469685
-0.0668582
-0.0492304
-0.0595937
-0.0513295
-0.0520272
-0.0534031
-0.0442465
-0.055266
-0.0362132
-0.0570408
-0.0278638
-0.0587687
-0.0193427
-0.0601216
-0.0106773
-0.0612711
-0.00194044
-0.0621122
0.00694195
-0.0628449
0.0159105
-0.0632825
0.0248125
-0.0633139
0.0337487
-0.0632199
0.0425933
-0.062691
0.0512554
-0.0618218
0.0598624
-0.0608686
0.0682716
-0.0594651
0.0764547
-0.0578572
0.0843036
-0.0559447
0.0917996
-0.0536979
0.09911
-0.0515337
0.106026
-0.0490367
0.112583
-0.0464939
0.118817
-0.0439285
0.124641
-0.0412372
0.130089
-0.0385874
0.135157
-0.0360015
0.139827
-0.0334018
0.144116
-0.0309208
0.148022
-0.0285004
0.151666
-0.0262824
0.154989
-0.0241269
0.157992
-0.0220884
0.160705
-0.0202009
0.163147
-0.0184438
0.165381
-0.0168614
0.167404
-0.0153881
0.169225
-0.0140292
0.170871
-0.0127911
0.172302
-0.0116117
-0.0106392
-0.053445
0.0114313
-0.0638695
0.0104245
-0.073297
0.00942739
-0.0815045
0.00820752
-0.0885506
0.00704609
-0.0948828
0.00633222
-0.100823
0.00594006
-0.106472
0.00564887
-0.111845
0.0053733
-0.116596
0.00475112
-0.120089
0.00349293
-0.121998
0.00190857
-0.122467
0.000469565
-0.121956
-0.000511582
-0.121023
-0.000932625
-0.119838
-0.00118463
-0.118163
-0.00167496
-0.115811
-0.00235284
-0.112882
-0.00292873
-0.109544
-0.00333834
-0.105879
-0.0036649
-0.101919
-0.00395957
-0.0976762
-0.00424285
-0.0931984
-0.00447776
-0.00493589
-0.0577313
0.0210027
-0.0672436
0.0199368
-0.0762491
0.0184329
-0.0847428
0.0167011
-0.0927429
0.0150462
-0.100148
0.0137375
-0.10688
0.0126721
-0.112872
0.0116404
-0.117928
0.010429
-0.121899
0.00872232
-0.124886
0.00648056
-0.126965
0.00398767
-0.128092
0.00159575
-0.128194
-0.000409092
-0.127263
-0.00186369
-0.125485
-0.00296301
-0.123138
-0.00402161
-0.120376
-0.00511486
-0.117182
-0.00612234
-0.113517
-0.00700385
-0.109389
-0.00779243
-0.104802
-0.00854647
-0.0997395
-0.00930578
-0.0940982
-0.010119
-0.0110922
-0.0631306
0.0316063
-0.0733379
0.0301441
-0.0830923
0.0281872
-0.0923618
0.0259706
-0.101036
0.0237208
-0.108918
0.0216186
-0.115859
0.0196136
-0.121772
0.0175534
-0.126596
0.015253
-0.130415
0.0125413
-0.133365
0.00942996
-0.135514
0.00613707
-0.13687
0.00295173
-0.137376
9.71963e-05
-0.136937
-0.00230321
-0.13556
-0.00433957
-0.133402
-0.00617984
-0.130608
-0.0079087
-0.127232
-0.009498
-0.12329
-0.0109459
-0.118807
-0.0122759
-0.113813
-0.0135402
-0.108349
-0.0147701
-0.102455
-0.0160127
-0.0173517
-0.0683209
0.0433366
-0.0794043
0.0412276
-0.0899078
0.0386906
-0.0998081
0.035871
-0.108998
0.0329108
-0.117308
0.0299281
-0.124595
0.0269004
-0.130782
0.0237405
-0.135857
0.0203287
-0.139905
0.0165892
-0.143043
0.0125681
-0.145341
0.00843415
-0.146794
0.00440544
-0.147369
0.000672186
-0.146999
-0.0026735
-0.145691
-0.00564742
-0.143526
-0.00834459
-0.140609
-0.0108262
-0.136992
-0.0131147
-0.132721
-0.0152167
-0.127821
-0.017176
-0.122331
-0.0190304
-0.116286
-0.0208153
-0.10974
-0.0225583
-0.024253
-0.0735478
0.0560186
-0.085557
0.0532367
-0.0968707
0.0500043
-0.107452
0.0464518
-0.117195
0.0426537
-0.125973
0.0387066
-0.133673
0.0346007
-0.140241
0.0303077
-0.145677
0.0257654
-0.150047
0.0209586
-0.153438
0.0159588
-0.155908
0.0109044
-0.157459
0.00595676
-0.158072
0.00128528
-0.157729
-0.00301707
-0.156425
-0.00695101
-0.154215
-0.0105548
-0.151179
-0.0138616
-0.147381
-0.0169128
-0.142874
-0.0197245
-0.137707
-0.0223422
-0.131938
-0.0248
-0.125631
-0.0271219
-0.118872
-0.0293172
-0.0314156
-0.078933
0.0694636
-0.0918382
0.0661418
-0.103958
0.0621241
-0.115239
0.057733
-0.125578
0.0529925
-0.134885
0.0480128
-0.143057
0.0427727
-0.150061
0.0373125
-0.155904
0.0316075
-0.160622
0.0256765
-0.164288
0.0196248
-0.16694
0.0135564
-0.168592
0.00760882
-0.169243
0.00193663
-0.168879
-0.00338088
-0.167527
-0.00830349
-0.165234
-0.0128475
-0.162052
-0.0170434
-0.158053
-0.0209121
-0.153288
-0.0244895
-0.14782
-0.0278103
-0.141699
-0.0309204
-0.134973
-0.033848
-0.127699
-0.0365917
-0.0391513
-0.0843467
0.0840143
-0.0982502
0.0800453
-0.111203
0.0750766
-0.123215
0.0697454
-0.134193
0.0639708
-0.144078
0.0578974
-0.152756
0.0514503
-0.160226
0.0447826
-0.16648
0.0378618
-0.171551
0.0307469
-0.175495
0.0235692
-0.178349
0.0164105
-0.180113
0.00937228
-0.180794
0.00261816
-0.180422
-0.00375326
-0.179016
-0.0097097
-0.17662
-0.015243
-0.173295
-0.0203683
-0.1691
-0.0251072
-0.164111
-0.0294793
-0.15838
-0.0335409
-0.151978
-0.037322
-0.144942
-0.0408846
-0.137326
-0.0442078
-0.047272
-0.0899733
0.0999171
-0.104899
0.0949707
-0.118646
0.0888242
-0.131401
0.0825
-0.143046
0.0756156
-0.153547
0.0683982
-0.16275
0.0606541
-0.170692
0.0527239
-0.177377
0.0445471
-0.182795
0.0361651
-0.187006
0.0277798
-0.190072
0.019477
-0.191947
0.0112464
-0.192667
0.00333845
-0.192276
-0.00414401
-0.190799
-0.0111866
-0.188292
-0.0177501
-0.184809
-0.0238516
-0.180412
-0.0295045
-0.17518
-0.0347107
-0.169174
-0.0395473
-0.16247
-0.0440258
-0.155078
-0.0482762
-0.147041
-0.0522448
-0.0559183
-0.0961849
0.11707
-0.111861
0.110647
-0.126263
0.103226
-0.139769
0.0960061
-0.152116
0.0879627
-0.1633
0.0795815
-0.173029
0.0703833
-0.181441
0.0611355
-0.188565
0.0516714
-0.194358
0.0419583
-0.198803
0.0322246
-0.202067
0.0227406
-0.204078
0.013258
-0.204814
0.00407397
-0.204397
-0.00456094
-0.202845
-0.0127388
-0.200205
-0.02039
-0.196574
-0.0274826
-0.19195
-0.034128
-0.186409
-0.0402518
-0.180101
-0.0458555
-0.17306
-0.051067
-0.165263
-0.0560729
-0.157004
-0.0605034
-0.0646948
1.10833
3.902
-0.223935
-3.67806
2.68762
-0.93731
-1.75032
0.260544
-0.359566
0.099022
0.323086
-0.391718
0.0686321
-0.833401
-0.510764
1.34417
-0.546547
0.803989
-0.257442
3.09977
-4.14633
1.04657
-0.0406337
-0.1808
0.221434
5.39911
-3.67919
-1.71992
-0.925023
2.04976
-1.12474
-1.03091
0.314771
0.716141
1.34121
-2.22327
0.882067
-1.5489
0.521706
1.02719
0.106738
-0.106416
-0.000321996
5.55606
-5.45475
-0.101315
0.591804
2.09582
0.125543
-0.022987
-0.102556
-0.20102
-0.205999
0.417828
0.290487
-0.708314
-0.329035
0.207131
0.121904
3.18907
2.29949
-5.48855
-0.982103
1.1252
-0.143103
1.43619
-1.23222
-0.20397
-1.0784
0.468347
0.610051
1.31397
0.122219
-1.24744
0.823582
0.42386
-0.453654
0.0513552
0.402299
5.62671
-3.00461
-2.62209
-0.0315011
-0.133033
0.164535
0.022048
0.614165
-0.636214
-2.13015
1.12924
1.00091
1.05175
0.800081
-1.85183
3.28219
-5.74457
2.46238
-0.283041
-0.0681255
0.351167
-0.208548
2.0915
-1.88295
-0.987818