/*--------------------------------*- C++ -*----------------------------------*\
  =========                 |
  \\      /  F ield         | OpenFOAM: The Open Source CFD Toolbox
   \\    /   O peration     | Website:  https://openfoam.org
    \\  /    A nd           | Version:  10
     \\/     M anipulation  |
\*---------------------------------------------------------------------------*/
FoamFile
{
    format      ascii;
    class       volVectorField;
    location    "1650";
    object      U;
}
// * * * * * * * * * * * * * * * * * * * * * * * * * * * * * * * * * * * * * //

dimensions      [0 1 -1 0 0 0 0];

internalField   nonuniform List<vector> 
10435
(
(2.76665 1.29977 7.09421e-22)
(3.24838 2.10872 -4.74111e-20)
(4.64762 -0.406685 -3.29164e-20)
(4.02683 0.941503 9.27059e-20)
(4.01945 0.643949 -3.74687e-20)
(3.48446 -0.190398 2.52197e-19)
(4.81718 -0.374312 -1.17249e-19)
(4.97964 -0.36449 7.68571e-20)
(4.56952 -0.3644 2.62306e-19)
(3.85149 -0.40448 -7.07713e-20)
(3.54448 1.80919 -9.85275e-20)
(4.73599 0.0848603 1.9221e-19)
(3.72058 -0.426829 7.51483e-20)
(1.0847 0.922302 -1.97036e-20)
(1.27145 1.04169 -2.2479e-20)
(5.01758 -0.401029 -8.71454e-21)
(0.921379 0.796366 6.12902e-21)
(3.30807 -0.39118 2.52004e-19)
(4.25429 -0.363017 -1.0645e-19)
(3.02057 1.23678 -1.43531e-20)
(5.0171 -0.380612 5.41728e-20)
(3.91612 0.70089 -1.43071e-19)
(4.9571 -0.401439 3.61152e-19)
(4.5207 -0.404544 -1.22379e-19)
(4.23642 -0.369562 8.43035e-20)
(0.269798 0.447952 -6.68892e-22)
(0.0326618 0.19672 -1.52562e-21)
(4.23662 -0.397235 6.46403e-20)
(0.178271 0.0479076 2.59253e-22)
(3.53062 -0.403516 3.63879e-19)
(4.79634 -0.342355 1.55591e-19)
(3.66103 1.61569 -6.94381e-21)
(4.91386 -0.359915 -1.63247e-19)
(0.427628 0.0764642 3.19684e-21)
(4.93332 -0.415795 8.8234e-20)
(2.68544 2.26609 1.911e-20)
(5.00359 -0.410132 1.27994e-19)
(0.151026 0.389527 4.87197e-21)
(0.418522 0.418586 -5.53479e-22)
(4.37689 -0.387104 3.30487e-20)
(3.3031 -0.395152 -3.76399e-19)
(4.82078 -0.383459 -9.45945e-20)
(0.735317 0.921511 -2.62295e-20)
(3.60999 1.27219 -1.35932e-19)
(5.01931 -0.392177 -2.68597e-19)
(4.46666 -0.410912 1.94538e-19)
(3.4064 -0.296538 -2.82513e-19)
(0.490901 0.695693 -7.541e-20)
(4.50563 -0.371261 8.53859e-20)
(3.75991 0.429906 -4.90943e-20)
(4.9923 -0.386283 -1.19876e-20)
(4.3321 -0.166118 1.21159e-18)
(0.46428 0.443746 -1.735e-21)
(0.264881 -0.0646206 3.34478e-22)
(0.372809 0.426379 2.81822e-22)
(0.127453 0.00435842 -7.33516e-22)
(4.92555 -0.400987 -3.82365e-19)
(0.14929 0.321929 3.24253e-21)
(0.679467 0.427048 -3.80608e-21)
(4.78023 -0.409217 2.53071e-19)
(0.418321 0.456471 1.20128e-21)
(3.07257 2.20271 3.96512e-20)
(0.153369 0.224143 -2.59793e-21)
(4.35824 -0.00956659 -1.03056e-19)
(4.99401 -0.396046 -5.03408e-19)
(4.52119 -0.412772 2.42671e-19)
(0.591752 0.285091 7.90661e-21)
(0.33194 0.409914 1.15068e-20)
(5.01365 -0.361828 -9.78325e-20)
(4.47316 -0.3612 9.64118e-21)
(0.215113 -0.0958431 -1.3307e-21)
(0.201652 0.447952 5.02466e-22)
(0.889125 1.08 9.48696e-20)
(4.69309 -0.403739 -3.16065e-19)
(1.48708 1.16282 -9.50063e-21)
(1.00529 1.24313 9.05538e-21)
(4.44567 -0.311017 5.26238e-19)
(4.8893 -0.360379 2.93703e-19)
(4.83031 -0.346725 2.28401e-20)
(1.48581 0.970052 5.6548e-20)
(4.10432 0.0771547 6.16665e-20)
(2.40488 1.08975 7.43305e-23)
(0.508816 0.470147 2.42052e-21)
(0.306611 -0.0396577 -2.64091e-22)
(4.24001 -0.0699095 -1.19215e-19)
(2.47567 2.01688 5.90427e-20)
(2.70013 1.81356 1.89403e-21)
(3.65135 1.53169 2.82981e-20)
(1.88727 1.62185 -6.41383e-21)
(2.96788 1.80559 6.5667e-21)
(3.84972 1.37812 -2.3461e-20)
(4.04266 1.19389 -2.40114e-20)
(2.64949 1.05039 4.00176e-21)
(2.13693 1.71177 3.00715e-20)
(3.21259 1.75079 1.28265e-20)
(2.46033 2.22125 3.18574e-20)
(4.22887 0.963269 2.96819e-19)
(1.50246 1.33631 1.44302e-20)
(0.808502 0.557275 -7.25263e-21)
(4.3267 0.797015 -2.63201e-19)
(1.68174 1.47655 2.83724e-20)
(3.52444 0.538694 -1.48599e-19)
(2.41494 1.77947 -1.70438e-20)
(3.43927 1.65627 -1.23765e-20)
(3.51616 0.31187 -8.13674e-21)
(3.82705 1.12249 5.30768e-21)
(2.89011 0.971875 4.50659e-21)
(3.94516 0.241529 6.97288e-20)
(4.35536 -0.174769 -1.50419e-19)
(1.69474 1.03466 -1.55612e-20)
(3.56367 0.588339 -1.89492e-20)
(3.53825 0.771259 -7.92248e-20)
(2.15901 1.09306 -1.83509e-20)
(1.9218 1.0764 -1.3397e-20)
(4.15739 1.02403 -1.57984e-19)
(3.71459 0.871265 3.90704e-20)
(4.45977 0.568267 -1.41251e-19)
(2.73698 2.0564 -1.32828e-20)
(3.58478 1.7647 -1.52753e-19)
(4.52056 0.48529 -3.90773e-20)
(4.58234 0.373232 -4.35319e-19)
(1.0987 1.38786 9.75152e-21)
(2.97485 2.04677 2.61133e-20)
(1.86996 2.07374 -1.27326e-19)
(3.42679 1.56134 2.68808e-20)
(0.351045 0.459297 6.06598e-22)
(4.38906 0.704402 2.72086e-19)
(1.31859 1.61001 -2.15901e-20)
(4.30458 0.596932 -2.69656e-19)
(0.0803823 0.381254 -3.73757e-22)
(1.58435 1.85045 4.8514e-20)
(3.35463 1.77878 -1.65757e-19)
(5.02013 -0.397765 -1.38051e-19)
(1.29112 0.885476 4.14615e-20)
(0.168863 0.422127 9.46446e-23)
(0.668292 0.591884 2.64243e-22)
(2.36297 2.37086 5.22661e-20)
(4.20589 0.729236 -1.73429e-20)
(3.39617 1.89436 4.06019e-20)
(3.49311 1.01617 3.3257e-20)
(3.26133 1.14091 4.10399e-21)
(4.92464 -0.37456 -5.56939e-19)
(0.512224 0.188603 2.22831e-20)
(4.72682 -0.0644293 1.22498e-18)
(4.09906 0.513004 2.31706e-20)
(1.33568 1.41471 8.90251e-20)
(2.14102 2.26641 -2.05202e-20)
(4.04806 -0.0605021 -3.50491e-19)
(0.913822 0.943245 3.42711e-20)
(4.86202 -0.0951258 7.54915e-20)
(0.425873 0.634871 1.56036e-22)
(5.00863 -0.370683 2.38716e-19)
(2.88559 1.54749 1.90113e-21)
(4.86465 -0.165284 5.24914e-19)
(4.05863 -0.246137 -3.0845e-19)
(0.361145 0.551226 2.01726e-21)
(3.47356 1.30117 2.35247e-19)
(3.19296 1.99001 2.39649e-22)
(3.89362 -0.321475 -2.5291e-19)
(3.15752 2.1629 -2.2025e-20)
(4.95601 -0.291015 -9.76792e-20)
(1.12004 0.787233 -8.27126e-21)
(3.92793 1.39106 1.85565e-19)
(4.55314 0.0397468 1.36268e-19)
(1.71578 1.2458 2.84519e-20)
(4.49932 0.352843 9.76271e-19)
(4.85793 -0.379605 -2.4987e-19)
(4.50524 0.328933 -1.27563e-19)
(4.73702 -0.226807 1.89504e-19)
(4.56764 0.0923372 -1.71361e-18)
(4.30789 -0.325576 2.92533e-19)
(0.785391 0.921728 -2.78035e-20)
(0.00875673 0.115632 5.94293e-22)
(1.5202 1.5113 -1.98214e-21)
(4.89566 -0.179799 -2.83165e-19)
(3.02637 2.29521 -2.48983e-20)
(2.88742 2.25639 -1.62797e-20)
(0.605917 0.692465 1.08719e-20)
(3.35107 0.733848 1.16828e-20)
(0.236258 0.0974934 -4.12169e-22)
(3.40804 1.97505 5.98717e-20)
(3.5355 -0.0514288 -4.34867e-20)
(4.80965 0.0067263 -6.68219e-19)
(0.402351 0.47867 4.77589e-22)
(4.96549 -0.342096 7.83872e-20)
(0.656178 0.853505 3.685e-20)
(0.926477 1.15578 -8.92829e-20)
(4.95966 -0.364947 -2.31099e-19)
(3.98653 0.457748 9.91046e-20)
(4.59751 -0.12647 -8.1276e-19)
(4.68871 0.22812 1.02307e-19)
(0.549839 0.499692 2.47075e-21)
(0.114196 0.410528 7.82623e-22)
(2.55285 2.42505 -2.2471e-20)
(3.51052 1.03676 1.11487e-19)
(5.0105 -0.359368 1.40077e-20)
(0.926445 1.08283 9.24597e-20)
(2.19728 1.93034 -2.52857e-20)
(0.551224 0.718595 7.82991e-20)
(5.0285 -0.408418 1.95896e-19)
(1.79716 1.43362 -3.37762e-20)
(0.224356 0.453338 5.40549e-21)
(4.0081 -0.406038 -1.84201e-20)
(0.202651 0.406347 5.47123e-21)
(4.33204 -0.405444 -7.16615e-20)
(4.05222 1.06636 -1.7557e-21)
(3.75082 1.6028 1.73748e-19)
(4.36703 0.517763 -8.81306e-20)
(0.218063 0.209332 -2.8439e-21)
(4.26435 0.328612 -6.50496e-20)
(0.504852 0.671474 -1.21784e-20)
(4.86087 -0.391134 -4.66917e-19)
(4.69797 0.14144 9.78263e-19)
(4.69692 -0.045689 7.18118e-20)
(0.0596151 0.179548 1.02328e-21)
(1.08927 1.08446 -9.44138e-20)
(1.97239 1.28243 8.53123e-21)
(0.521417 0.57309 -1.88924e-21)
(0.255903 0.428491 4.63519e-22)
(0.965398 0.675885 7.96622e-21)
(0.28259 0.0584006 -3.0019e-22)
(0.659098 0.637978 2.26138e-20)
(0.422059 0.234228 -1.26669e-20)
(1.63628 1.73339 -1.59454e-19)
(0.29666 0.491467 2.9904e-22)
(5.00093 -0.408319 -6.29838e-20)
(0.319493 0.42094 -1.11223e-21)
(1.91352 1.79946 1.7414e-20)
(4.65954 -0.259853 8.89074e-19)
(1.21131 1.44813 -8.97379e-20)
(0.492043 0.520699 -7.52621e-20)
(4.94043 -0.394247 2.77357e-19)
(0.290716 0.426504 -1.46661e-21)
(4.9634 -0.345217 2.84213e-19)
(0.0562957 0.314631 3.49148e-21)
(0.767755 0.679402 -3.96451e-20)
(4.82185 -0.39404 -3.55205e-19)
(0.259101 0.465372 -7.68535e-22)
(4.76265 -0.357357 -2.2848e-20)
(4.60233 -0.337534 5.25789e-21)
(3.383 1.39539 4.20891e-20)
(0.354937 0.499988 1.91639e-22)
(0.562691 0.630887 2.98751e-22)
(0.175938 -0.0208329 -9.45628e-23)
(3.9871 1.26213 -3.33314e-19)
(4.74483 -0.362347 8.79091e-20)
(2.20267 2.11815 -1.11451e-19)
(5.01417 -0.334865 7.93487e-20)
(0.0353418 0.00702194 -1.01499e-23)
(2.87543 2.37929 1.74679e-20)
(0.0943342 -0.0529208 -5.98763e-22)
(2.05725 1.48748 -2.63882e-20)
(3.72457 -0.409495 -1.3073e-19)
(4.41358 0.161994 -1.22473e-19)
(4.97865 -0.335385 -1.97477e-19)
(4.29982 0.25889 4.06028e-19)
(0.0492573 -0.0253138 2.522e-22)
(4.93028 -0.335433 2.79349e-19)
(0.453788 0.600186 9.20696e-22)
(0.321567 0.524029 -2.00745e-20)
(4.86061 -0.346465 1.40434e-20)
(4.42168 -0.288977 2.16444e-21)
(0.317378 0.472037 1.93214e-22)
(4.53412 -0.212844 -2.88259e-19)
(2.22903 1.31308 6.44638e-21)
(0.586864 0.485157 4.26968e-20)
(3.14248 1.48938 6.95898e-21)
(4.85427 -0.394764 2.92227e-19)
(0.493124 0.511658 -6.293e-22)
(4.1748 0.854784 5.39712e-20)
(4.78854 -0.363723 -1.15257e-22)
(4.99082 -0.318505 -4.1323e-20)
(5.00135 -0.321011 -2.93804e-20)
(4.30969 -0.395508 -3.07931e-19)
(0.216652 0.434988 -2.9091e-22)
(4.62144 0.320508 -1.84304e-19)
(0.118713 0.381232 -3.1056e-21)
(3.89397 0.931023 4.09196e-20)
(5.01021 -0.390261 7.73314e-20)
(4.9451 -0.318874 1.65402e-20)
(3.94352 -0.421443 1.53944e-19)
(0.749419 0.887227 -1.22191e-19)
(4.67697 -0.370925 -8.27908e-21)
(1.70377 1.65055 -1.27533e-20)
(2.3237 1.53787 -1.16498e-20)
(0.581174 0.574858 -9.41152e-22)
(4.0193 0.246492 6.2365e-20)
(0.353752 0.406852 -5.64598e-22)
(0.352335 -0.0145532 -1.42281e-21)
(0.350007 0.0782285 7.87681e-22)
(1.89903 1.94615 1.47321e-19)
(3.26788 1.98949 1.80117e-19)
(0.284089 0.170874 1.51971e-21)
(5.00367 -0.312864 7.92083e-20)
(0.40143 0.388933 -9.47381e-23)
(0.169455 -0.0970945 -7.35083e-22)
(1.13393 1.26404 -2.66113e-21)
(2.4994 1.32334 3.14641e-21)
(3.81168 1.18881 -5.96841e-21)
(4.61971 -0.386078 1.89302e-19)
(0.426065 0.550552 1.15283e-19)
(4.71427 -0.31988 -9.89261e-20)
(4.53757 -0.370237 -2.85711e-21)
(0.0199635 0.0401917 -8.83923e-23)
(3.73979 1.42208 -8.77434e-20)
(1.28135 1.21957 5.29231e-20)
(0.761656 0.80239 4.55031e-20)
(4.90864 -0.317036 -2.13479e-20)
(4.5789 -0.394862 -2.56586e-21)
(0.396814 0.00401958 5.38423e-22)
(3.12189 0.866921 9.69409e-21)
(0.237917 0.470093 2.92845e-21)
(2.72176 2.42329 -3.48902e-21)
(3.99974 0.0943412 -1.8441e-19)
(4.72036 -0.384267 -4.49457e-20)
(0.133084 -0.0760864 -1.24336e-22)
(0.424795 0.511897 -9.54586e-22)
(4.81315 -0.225335 -9.99547e-19)
(0.404656 0.383556 1.0637e-21)
(4.62467 0.187414 1.51485e-19)
(3.47753 0.116777 -6.7047e-20)
(0.129572 0.152664 1.9158e-21)
(2.60858 1.56212 -2.19707e-21)
(0.591586 0.532289 1.22943e-21)
(4.8762 -0.317736 -9.84851e-21)
(4.0863 -0.407117 -6.75159e-20)
(0.186113 0.43893 4.95578e-23)
(4.39202 -0.375436 -3.69436e-22)
(0.490068 0.347357 -7.90508e-22)
(0.0982049 0.315927 -4.18293e-21)
(4.66024 -0.399855 1.98108e-21)
(0.436999 0.130252 -1.73011e-21)
(0.435994 0.0193203 7.56789e-22)
(4.67399 -0.388001 1.03271e-20)
(4.94829 -0.24402 2.46181e-19)
(0.207504 0.312448 -9.04376e-21)
(0.127695 -0.0579623 -1.23804e-22)
(0.0473114 -0.0102475 -1.09815e-22)
(0.487289 0.0602353 4.82943e-22)
(0.0339362 0.0878388 1.39957e-22)
(0.161031 0.432376 -7.92617e-23)
(0.267349 0.490731 2.27397e-21)
(0.459049 0.479027 -1.95059e-22)
(0.00860309 0.119221 -3.43555e-23)
(0.0118464 0.0783325 -2.81078e-22)
(0.336764 0.549235 -2.67765e-21)
(0.267353 0.297991 2.61637e-21)
(0.00674502 0.27351 3.80857e-23)
(0.628174 0.561378 -1.95639e-21)
(4.78714 -0.344027 -5.7487e-20)
(0.466385 0.0367071 1.74626e-21)
(4.26875 -0.415724 7.9911e-21)
(0.0128127 0.164819 -5.62991e-23)
(4.21966 -0.386863 -1.52757e-21)
(4.80837 -0.326242 2.57638e-20)
(4.44113 -0.351124 -2.15824e-20)
(3.64992 -0.449578 -3.54516e-21)
(4.80151 -0.410559 -2.02907e-19)
(0.220527 -0.0428198 9.29683e-22)
(0.370779 0.0312261 -3.02199e-21)
(0.0858844 -0.0310355 -2.50076e-22)
(0.305256 0.440794 1.886e-21)
(0.0582714 0.0582724 -8.87498e-24)
(0.539247 0.542877 9.81975e-22)
(0.0820004 0.143873 -7.9217e-22)
(0.13683 0.419687 -3.76599e-23)
(0.269736 0.419127 -2.66302e-20)
(4.8156 -0.116354 -2.10749e-20)
(0.144669 0.427475 -1.77624e-21)
(4.67528 -0.355896 6.42945e-20)
(0.333613 0.431427 -4.84445e-22)
(0.112021 0.401047 6.43704e-23)
(3.46152 -0.495596 -3.10699e-20)
(4.25985 -0.370316 -6.90159e-20)
(0.619977 0.619603 8.71277e-21)
(0.00768442 0.214317 -4.421e-22)
(0.10592 0.23536 7.43292e-22)
(0.0208895 0.24267 7.33919e-23)
(0.317387 0.0133916 8.52869e-22)
(0.227596 0.448293 -2.41033e-22)
(0.00208873 0.25975 6.63317e-22)
(0.37801 0.442588 -5.19083e-22)
(4.9027 -0.337538 -1.67763e-20)
(0.334812 0.268706 -4.54565e-21)
(5.01031 -0.337578 9.26009e-21)
(4.70687 -0.329814 8.88762e-20)
(4.02352 -0.400979 -6.20781e-22)
(3.82211 -0.424971 6.29198e-20)
(4.5953 -0.338684 -3.9691e-20)
(4.39861 -0.381457 -2.15557e-20)
(4.83777 -0.402026 -5.72217e-20)
(1.45047 1.66027 4.59626e-21)
(0.634376 0.779461 -1.58925e-20)
(0.222746 0.0144655 1.11871e-21)
(0.167539 -0.0726178 -8.76518e-22)
(4.53511 -0.3792 3.10038e-20)
(0.264781 -0.015755 -2.61813e-21)
(3.4861 -0.448471 -1.49562e-19)
(0.00803952 0.284388 4.74008e-23)
(0.177874 0.13012 -2.71943e-22)
(0.0829051 0.371899 -1.16013e-22)
(0.358761 0.152508 -1.1619e-21)
(0.450128 0.554728 2.14374e-21)
(4.93032 -0.382274 4.2125e-19)
(0.0696849 0.249738 -1.52769e-22)
(4.97252 -0.33646 3.91652e-21)
(4.83905 -0.282124 -1.13559e-19)
(0.612205 0.700942 -1.25874e-21)
(0.192836 0.441725 2.08216e-22)
(0.0443334 0.315718 1.45573e-22)
(4.25646 -0.365733 9.01834e-20)
(0.0656157 0.347384 9.03688e-23)
(0.167161 0.43457 1.24824e-22)
(0.369565 0.527258 -2.56446e-21)
(0.0918278 0.0328986 1.48194e-22)
(0.360425 0.542598 1.02427e-20)
(0.10368 0.102439 1.22032e-22)
(4.48101 -0.392627 1.73093e-19)
(0.156477 -0.0996531 1.11768e-23)
(0.215266 0.44851 6.5359e-22)
(0.137001 0.0812697 -4.60678e-22)
(0.528141 0.119427 -1.09605e-20)
(3.22483 -0.407449 -1.18297e-19)
(0.724591 0.738685 1.27958e-20)
(0.688498 0.635099 -2.47405e-20)
(4.01059 -0.353275 -1.36034e-19)
(0.420074 0.0418729 -8.14397e-22)
(0.419826 -0.369975 1.36179e-21)
(0.441924 -0.354973 3.79883e-24)
(0.493392 -0.35764 -9.66199e-22)
(0.530232 -0.359844 5.02026e-22)
(0.570147 -0.362704 -5.99641e-22)
(0.6024 -0.364527 -1.88472e-21)
(0.633685 -0.366052 4.61998e-22)
(0.660095 -0.367402 5.85471e-22)
(0.685178 -0.367342 6.3341e-22)
(0.452967 -0.356645 -9.79224e-22)
(0.474713 -0.348248 -1.19851e-22)
(0.523463 -0.349732 8.47864e-22)
(0.560405 -0.352859 -1.74812e-21)
(0.598058 -0.355642 1.48752e-21)
(0.629646 -0.358051 2.65216e-21)
(0.659079 -0.359847 -1.67656e-21)
(0.684259 -0.361245 1.89304e-21)
(0.706265 -0.361531 -8.92387e-22)
(0.487527 -0.339949 2.73966e-21)
(0.506239 -0.335261 8.5149e-22)
(0.552856 -0.337089 -1.96664e-21)
(0.589062 -0.341271 1.01073e-21)
(0.624963 -0.344464 -2.73963e-21)
(0.655538 -0.347427 -4.62513e-22)
(0.683369 -0.349671 -1.11338e-23)
(0.70712 -0.351407 -9.15817e-22)
(0.727553 -0.352243 -1.6722e-21)
(0.519114 -0.321573 -1.42524e-21)
(0.535475 -0.318197 9.9415e-22)
(0.580504 -0.320634 1.64689e-21)
(0.616052 -0.325712 6.42677e-23)
(0.650484 -0.329437 1.23565e-21)
(0.680066 -0.332934 3.96911e-21)
(0.706548 -0.335594 -2.44028e-21)
(0.729129 -0.337634 4.27759e-22)
(0.748576 -0.338721 1.0262e-21)
(0.548004 -0.300797 8.95116e-23)
(0.562492 -0.297732 -3.92564e-22)
(0.606032 -0.300836 1.52688e-22)
(0.641024 -0.306427 -9.45673e-22)
(0.674304 -0.310672 4.16645e-22)
(0.703053 -0.314601 -8.94806e-22)
(0.728535 -0.317616 4.6401e-22)
(0.750337 -0.319917 1.85681e-21)
(0.769342 -0.320995 4.54409e-22)
(0.573988 -0.277388 2.58274e-22)
(0.587051 -0.274162 -2.30842e-21)
(0.629182 -0.278002 1.72645e-22)
(0.663794 -0.283673 2.27695e-21)
(0.696211 -0.288293 -7.52705e-22)
(0.724345 -0.292498 -1.10828e-21)
(0.749147 -0.295789 -3.58653e-22)
(0.770495 -0.298318 -3.34117e-21)
(0.789162 -0.299785 1.91091e-21)
(0.595857 -0.252568 2.62355e-22)
(0.608974 -0.248042 1.70937e-21)
(0.649892 -0.252461 3.12574e-22)
(0.684321 -0.257651 -1.14604e-21)
(0.716109 -0.262387 2.48722e-22)
(0.743843 -0.266642 -5.48072e-22)
(0.76826 -0.270034 9.10939e-22)
(0.789411 -0.272624 -8.80287e-22)
(0.808004 -0.274206 -5.93783e-22)
(0.612584 -0.226235 -8.01098e-22)
(0.628774 -0.219478 1.57056e-21)
(0.668487 -0.224118 -3.54071e-22)
(0.702698 -0.22836 7.13246e-22)
(0.733958 -0.232949 -5.47735e-22)
(0.761468 -0.237026 1.64493e-21)
(0.785763 -0.240323 2.29727e-21)
(0.806987 -0.242868 -3.13136e-21)
(0.825887 -0.243939 9.41962e-22)
(0.625245 -0.195097 -1.90175e-22)
(0.647093 -0.187258 3.26972e-22)
(0.685175 -0.192117 2.07657e-22)
(0.718873 -0.195528 -7.85634e-22)
(0.749637 -0.199889 -2.21767e-22)
(0.77708 -0.203615 -7.02244e-22)
(0.801487 -0.206602 -3.92877e-22)
(0.823056 -0.208767 3.21101e-21)
(0.842259 -0.209891 -3.59663e-22)
(0.635938 -0.157332 3.85927e-22)
(0.663303 -0.150388 -1.25606e-21)
(0.699235 -0.155916 -6.88804e-22)
(0.732339 -0.159111 2.01372e-22)
(0.762826 -0.163287 -2.53759e-22)
(0.790461 -0.166509 1.11059e-21)
(0.815261 -0.168901 1.61322e-22)
(0.837388 -0.170343 2.18027e-21)
(0.857176 -0.170552 -1.01555e-22)
(0.646043 -0.115178 -3.75099e-22)
(0.675847 -0.110286 -9.6942e-23)
(0.70944 -0.116627 4.68377e-22)
(0.742422 -0.11989 7.8108e-22)
(0.773155 -0.123685 -2.36423e-22)
(0.801386 -0.126129 -2.6121e-22)
(0.826946 -0.127589 -6.90693e-22)
(0.850003 -0.127917 -2.5218e-21)
(0.870723 -0.127024 -3.84105e-22)
(0.654994 -0.0727925 6.91362e-22)
(0.683281 -0.0704712 1.17641e-21)
(0.715397 -0.0765594 -9.12054e-22)
(0.74897 -0.0792659 4.93958e-22)
(0.780515 -0.0819779 -9.04344e-23)
(0.809699 -0.0831455 1.5424e-21)
(0.836265 -0.0832705 1.49332e-22)
(0.86037 -0.0821885 -1.25807e-21)
(0.882259 -0.0808074 -9.09909e-22)
(0.659781 -0.0333841 1.70785e-22)
(0.685862 -0.032847 -2.47581e-22)
(0.718005 -0.0371449 4.74291e-23)
(0.752568 -0.0382035 3.19492e-22)
(0.785196 -0.0388799 -2.16033e-22)
(0.815489 -0.0381067 -2.79291e-22)
(0.843154 -0.0363079 -5.16299e-22)
(0.868318 -0.0334737 9.58122e-22)
(0.891484 -0.0297792 -5.67313e-22)
(0.658674 0.00363465 -2.39082e-22)
(0.685211 0.00360366 -1.29188e-23)
(0.718297 0.00189341 -1.75783e-22)
(0.753884 0.00326466 5.00782e-22)
(0.787554 0.00532051 -9.1517e-23)
(0.818901 0.00853617 -5.33495e-23)
(0.84763 0.0126544 -3.57545e-22)
(0.873864 0.0175895 4.41861e-23)
(0.897833 0.0237181 3.29629e-22)
(0.651956 0.0404766 7.67982e-22)
(0.6817 0.0403512 -1.08047e-22)
(0.716547 0.041605 9.75192e-22)
(0.753134 0.04567 -1.41594e-21)
(0.787673 0.0507174 1.59644e-22)
(0.819916 0.0566033 5.13561e-22)
(0.849598 0.0632593 3.61894e-22)
(0.876878 0.070657 5.18491e-22)
(0.901937 0.079068 -1.81718e-21)
(0.638821 0.0797744 3.13454e-22)
(0.674946 0.0791608 -4.06048e-22)
(0.712383 0.0832721 -1.38903e-21)
(0.749976 0.0896949 1.86102e-21)
(0.785254 0.0974865 6.35729e-22)
(0.818264 0.10591 -3.35592e-22)
(0.848795 0.115022 -4.01393e-23)
(0.876954 0.124812 1.3843e-21)
(0.902652 0.135091 -5.97445e-22)
(0.621884 0.122253 1.50561e-21)
(0.663102 0.121362 -1.14102e-21)
(0.704446 0.127583 1.33601e-21)
(0.743428 0.135635 -9.07272e-22)
(0.779581 0.145579 -9.67178e-22)
(0.813385 0.156203 3.86354e-21)
(0.844737 0.167573 -2.54747e-21)
(0.873733 0.179692 -1.02572e-21)
(0.900687 0.191696 2.50709e-22)
(0.60428 0.165035 -1.9716e-21)
(0.646569 0.164882 1.5817e-21)
(0.691639 0.173268 -7.32095e-22)
(0.732517 0.182634 1.14625e-21)
(0.769929 0.194337 2.61686e-22)
(0.804773 0.206935 -3.10236e-21)
(0.837096 0.220499 2.84134e-22)
(0.866972 0.234959 -1.47249e-21)
(0.89475 0.249794 -1.87064e-21)
(0.586196 0.205505 -3.96311e-22)
(0.626564 0.206821 -3.60301e-22)
(0.674172 0.218049 -8.14706e-22)
(0.717017 0.229103 -3.2974e-21)
(0.755971 0.24258 8.09924e-22)
(0.792133 0.257086 1.3803e-21)
(0.82569 0.27272 1.58252e-21)
(0.856779 0.289268 1.96647e-21)
(0.885601 0.306624 -9.00222e-22)
(0.566766 0.243362 3.23901e-22)
(0.604041 0.246089 9.64768e-23)
(0.652927 0.260448 2.80335e-21)
(0.697287 0.273725 -2.38515e-22)
(0.737749 0.289207 1.37567e-21)
(0.775299 0.305738 -9.37581e-22)
(0.810163 0.323464 -6.55006e-21)
(0.842507 0.342128 -1.00376e-21)
(0.872696 0.361495 -1.34569e-22)
(0.545194 0.279183 7.55192e-22)
(0.579076 0.282645 -3.75974e-21)
(0.628529 0.299797 2.31006e-21)
(0.673805 0.315654 -2.74932e-21)
(0.715557 0.33338 2.08314e-21)
(0.754424 0.352155 -4.76198e-22)
(0.790603 0.372162 1.90978e-21)
(0.824231 0.39314 1.70262e-21)
(0.855186 0.415522 -5.77672e-22)
(0.521758 0.312242 1.69735e-21)
(0.551514 0.316087 3.50567e-21)
(0.601379 0.335494 -6.25138e-21)
(0.646985 0.35426 7.61369e-22)
(0.689686 0.374405 -5.65499e-21)
(0.729679 0.395576 1.63336e-21)
(0.767177 0.417915 6.34206e-22)
(0.802505 0.441172 -9.23284e-22)
(0.834539 0.467231 -4.51543e-22)
(0.496988 0.339553 -1.25723e-21)
(0.521972 0.34587 -2.95869e-21)
(0.57228 0.367302 3.40667e-21)
(0.617532 0.389428 3.58622e-21)
(0.660679 0.41212 3.90837e-21)
(0.701387 0.435776 -2.70122e-22)
(0.739918 0.46038 -1.2859e-21)
(0.776839 0.486042 3.76046e-21)
(0.810249 0.515086 -9.87338e-21)
(0.470118 0.359972 3.40715e-22)
(0.490652 0.371558 1.62088e-21)
(0.540632 0.394738 -9.77014e-22)
(0.584628 0.420277 1.84258e-21)
(0.627565 0.445468 -3.56787e-21)
(0.668542 0.471753 -9.89477e-22)
(0.70781 0.498613 5.38307e-21)
(0.746744 0.526856 -5.57374e-21)
(0.782741 0.561528 6.28881e-21)
(0.440627 0.376141 5.91697e-22)
(0.460395 0.397604 2.45888e-22)
(0.510181 0.423992 1.04274e-21)
(0.552953 0.451606 -2.12513e-21)
(0.59521 0.478534 5.72166e-22)
(0.635267 0.506481 -2.97393e-21)
(0.67412 0.534434 2.04659e-21)
(0.715845 0.563216 -1.855e-21)
(0.75437 0.599819 -1.81294e-22)
(0.329159 0.288138 -2.97032e-22)
(0.322256 0.286125 -3.64092e-22)
(0.314969 0.283576 -1.15572e-21)
(0.306915 0.280623 1.63463e-21)
(0.29809 0.277233 -1.23788e-21)
(0.288476 0.273358 9.41584e-22)
(0.278068 0.268938 3.67434e-22)
(0.266878 0.263911 -1.02222e-22)
(0.254938 0.258206 -6.8829e-22)
(0.2423 0.251748 -2.87291e-22)
(0.229042 0.24446 3.19686e-22)
(0.215261 0.236263 -3.52441e-22)
(0.201075 0.227081 9.75834e-22)
(0.186623 0.216841 -2.47008e-21)
(0.172041 0.205474 4.29228e-21)
(0.157484 0.192928 -4.85475e-21)
(0.143103 0.179174 4.324e-21)
(0.129041 0.164202 -1.96056e-21)
(0.115431 0.148045 -6.42539e-22)
(0.102385 0.13079 6.72576e-22)
(0.0899679 0.112581 -2.32036e-22)
(0.0781447 0.0936167 5.08746e-22)
(0.0667749 0.0742468 3.03227e-23)
(0.0556801 0.0549011 -7.09844e-22)
(0.044986 0.0358817 5.58475e-22)
(0.036805 0.0167428 -2.96065e-22)
(0.033081 -0.00306428 3.92237e-22)
(0.0336334 -0.0237542 3.08122e-22)
(0.0384077 -0.0455028 -3.75915e-22)
(0.0447681 -0.0685122 1.0017e-23)
(0.0509097 -0.0924157 -3.32665e-22)
(0.0577031 -0.116392 3.0523e-22)
(0.0657117 -0.140227 5.79694e-22)
(0.0750696 -0.163646 -4.78378e-22)
(0.0857436 -0.186248 6.86299e-22)
(0.0976698 -0.207819 -1.13453e-21)
(0.110708 -0.228155 9.43071e-23)
(0.124688 -0.2471 2.4386e-22)
(0.139437 -0.264546 -3.74065e-22)
(0.154783 -0.280425 8.37641e-22)
(0.170571 -0.294712 -4.74366e-22)
(0.18666 -0.307424 -2.02053e-21)
(0.202913 -0.318599 4.14191e-21)
(0.219207 -0.328306 -4.40243e-21)
(0.235426 -0.336647 3.80495e-21)
(0.251448 -0.34373 -2.23545e-21)
(0.26715 -0.349673 1.1405e-21)
(0.282414 -0.354611 -4.01509e-22)
(0.297116 -0.358665 3.58501e-22)
(0.31114 -0.361954 -3.97435e-22)
(0.324396 -0.364586 -5.3506e-22)
(0.336847 -0.366647 -1.41109e-22)
(0.34849 -0.368218 3.03268e-22)
(0.359316 -0.369385 7.13179e-22)
(0.369316 -0.370221 -1.07561e-21)
(0.378491 -0.37079 1.39001e-21)
(0.386861 -0.371142 -9.46602e-22)
(0.394462 -0.371298 -3.26354e-22)
(0.401404 -0.371337 -2.30426e-22)
(0.345734 0.257301 -1.44695e-23)
(0.339483 0.255354 2.58319e-23)
(0.332752 0.253313 -8.67297e-23)
(0.325434 0.251089 1.99403e-22)
(0.317511 0.248671 1.97963e-23)
(0.308982 0.24597 -4.88908e-22)
(0.29984 0.242906 8.78462e-23)
(0.290072 0.239419 -1.89099e-23)
(0.279666 0.235429 3.51415e-22)
(0.268633 0.230848 -6.27372e-23)
(0.256997 0.225579 -8.46918e-23)
(0.244808 0.219521 -2.02234e-22)
(0.232137 0.212568 4.21955e-22)
(0.219071 0.204625 -4.03847e-22)
(0.205724 0.195603 4.20965e-22)
(0.192215 0.185429 -1.01616e-22)
(0.178676 0.174054 -2.51617e-22)
(0.165241 0.161448 2.75182e-22)
(0.152037 0.147611 1.61658e-22)
(0.139179 0.13256 2.54576e-23)
(0.126766 0.116329 6.75323e-24)
(0.114892 0.0989389 -4.14408e-22)
(0.103716 0.0803545 3.33062e-22)
(0.0935876 0.0604106 -1.06741e-22)
(0.0850356 0.0388006 4.2707e-22)
(0.0788185 0.0155282 -1.80795e-22)
(0.0751216 -0.00894919 -2.32201e-23)
(0.0741017 -0.0339531 9.25999e-23)
(0.0758724 -0.0587923 9.76329e-24)
(0.080141 -0.0829871 -5.9286e-24)
(0.085972 -0.106623 -7.40127e-23)
(0.0931266 -0.129847 3.68484e-23)
(0.101686 -0.152537 -3.5356e-23)
(0.111554 -0.174531 -9.6814e-23)
(0.122614 -0.195649 -1.15372e-24)
(0.134766 -0.215726 4.34666e-23)
(0.147883 -0.234613 1.76204e-22)
(0.161822 -0.252194 -3.35951e-22)
(0.176429 -0.26838 2.60051e-24)
(0.191551 -0.283117 -6.26081e-23)
(0.207035 -0.296371 5.96376e-23)
(0.222736 -0.308136 2.58941e-22)
(0.238508 -0.318429 -5.33677e-22)
(0.254213 -0.327289 -3.23722e-22)
(0.269708 -0.334777 6.44122e-22)
(0.284862 -0.340978 -5.63218e-22)
(0.299549 -0.346 4.04181e-22)
(0.313652 -0.349968 -7.6058e-23)
(0.327081 -0.353026 -1.85216e-22)
(0.339754 -0.355312 1.80934e-23)
(0.351681 -0.356935 3.83417e-22)
(0.362942 -0.357969 -9.32682e-23)
(0.373543 -0.358491 1.145e-22)
(0.383475 -0.358612 -5.24495e-22)
(0.392699 -0.358464 7.84245e-23)
(0.40123 -0.358139 2.02387e-22)
(0.409137 -0.357671 -1.40893e-22)
(0.416499 -0.357072 4.06876e-23)
(0.423367 -0.356472 -2.3538e-23)
(0.400939 0.245993 -3.92138e-22)
(0.394583 0.244126 7.67223e-23)
(0.387773 0.24206 -3.41225e-22)
(0.380489 0.239768 -8.36333e-23)
(0.372712 0.237197 1.17993e-21)
(0.36442 0.234297 -3.69325e-22)
(0.355593 0.231023 -7.16917e-22)
(0.346215 0.227323 -7.95742e-24)
(0.336278 0.223137 4.30048e-22)
(0.325784 0.218396 -1.11964e-22)
(0.31475 0.213021 1.16982e-21)
(0.303208 0.20693 -1.37731e-21)
(0.291209 0.200035 1.24478e-21)
(0.278821 0.19225 -1.6604e-22)
(0.266133 0.183492 -1.086e-21)
(0.253245 0.173687 3.23742e-22)
(0.240273 0.16277 1.28152e-21)
(0.227338 0.15069 -5.20339e-22)
(0.214571 0.137409 -1.1907e-22)
(0.202103 0.122894 2.24489e-23)
(0.190077 0.107115 -3.49885e-22)
(0.178656 0.0900316 9.01286e-23)
(0.168055 0.0715922 -8.57608e-22)
(0.158568 0.0517532 1.02848e-21)
(0.150591 0.0305222 -3.99558e-22)
(0.144642 0.00805144 1.47816e-24)
(0.14115 -0.0153501 5.50307e-23)
(0.140283 -0.0393063 -2.58057e-22)
(0.141988 -0.063389 1.58795e-22)
(0.145917 -0.0871744 8.60563e-23)
(0.151616 -0.110441 1.99908e-22)
(0.158812 -0.133121 -2.01595e-22)
(0.167357 -0.155115 9.25193e-23)
(0.177123 -0.176301 1.33297e-22)
(0.187989 -0.196562 -4.20978e-22)
(0.199841 -0.215789 1.19043e-21)
(0.212553 -0.233879 -7.72946e-22)
(0.225993 -0.250743 -1.8024e-22)
(0.240024 -0.266315 -1.83653e-22)
(0.254505 -0.280549 -6.17154e-23)
(0.269294 -0.29342 -3.05624e-22)
(0.28425 -0.304927 -5.01569e-22)
(0.299234 -0.315088 1.24363e-21)
(0.314111 -0.323945 5.76625e-22)
(0.328755 -0.331558 -1.1847e-21)
(0.343049 -0.338007 -3.74603e-22)
(0.35689 -0.343384 1.2137e-21)
(0.370199 -0.347793 -1.40323e-21)
(0.382915 -0.351345 9.85806e-22)
(0.395008 -0.354144 -4.06865e-23)
(0.406467 -0.356296 3.8396e-22)
(0.417265 -0.3579 6.39689e-23)
(0.427378 -0.359041 -6.67048e-22)
(0.436824 -0.359791 -3.21887e-22)
(0.445643 -0.3602 1.04108e-21)
(0.453888 -0.360326 -3.21232e-23)
(0.461594 -0.360221 -3.03443e-22)
(0.4688 -0.35993 8.99059e-23)
(0.475548 -0.359491 -3.4217e-22)
(0.438862 0.239604 -9.96354e-23)
(0.432506 0.238163 4.82482e-22)
(0.425729 0.236535 -2.33353e-22)
(0.41847 0.234643 1.7912e-22)
(0.410718 0.232459 -1.99434e-22)
(0.402456 0.229941 -1.24427e-23)
(0.393675 0.22704 -1.31728e-22)
(0.384364 0.2237 -3.48449e-22)
(0.374524 0.219859 2.33793e-22)
(0.364159 0.215446 3.00396e-22)
(0.353287 0.210382 2.33729e-22)
(0.341937 0.204583 -8.74763e-22)
(0.330155 0.19796 8.02161e-22)
(0.318 0.190426 -1.68681e-22)
(0.30555 0.181891 1.10916e-22)
(0.292902 0.172274 -4.86124e-22)
(0.280166 0.161499 4.77171e-22)
(0.26747 0.1495 -1.98693e-22)
(0.254959 0.136222 -2.88105e-22)
(0.24279 0.12162 1.58013e-22)
(0.23114 0.105658 -8.40693e-23)
(0.220212 0.0883096 -4.74342e-22)
(0.210239 0.0695629 3.08667e-22)
(0.201497 0.0494369 3.16318e-22)
(0.19429 0.0280075 -2.59631e-22)
(0.188928 0.00544222 2.96006e-23)
(0.185648 -0.0179836 2.98898e-22)
(0.184583 -0.0419274 -3.52979e-22)
(0.185743 -0.0660251 1.17491e-22)
(0.189003 -0.0899421 -3.18458e-23)
(0.194144 -0.113437 1.49721e-22)
(0.20096 -0.136346 -3.53786e-22)
(0.209274 -0.158534 2.69842e-22)
(0.21892 -0.179875 -7.18716e-24)
(0.229737 -0.200257 -3.46409e-22)
(0.241576 -0.219576 1.39453e-22)
(0.254282 -0.237738 3.85868e-22)
(0.267702 -0.254663 -1.85916e-22)
(0.281683 -0.270287 -1.52153e-22)
(0.296075 -0.284569 2.79681e-22)
(0.310727 -0.297485 -9.21464e-23)
(0.325493 -0.309035 -1.07329e-22)
(0.340235 -0.319239 6.33016e-22)
(0.35482 -0.328137 -5.89073e-22)
(0.369131 -0.335791 2.50097e-22)
(0.383063 -0.342276 -4.94591e-23)
(0.396528 -0.347681 7.9515e-22)
(0.40946 -0.352105 -7.43724e-22)
(0.42181 -0.355648 3.02329e-22)
(0.433546 -0.358412 2.4807e-22)
(0.444654 -0.360492 2.50317e-22)
(0.455123 -0.361987 -3.57412e-22)
(0.46492 -0.363023 -8.12865e-23)
(0.47411 -0.363634 -1.05227e-22)
(0.482771 -0.363849 -1.69861e-22)
(0.490894 -0.363755 1.23515e-22)
(0.498491 -0.363411 -2.25086e-22)
(0.505599 -0.362862 4.59178e-22)
(0.512274 -0.36217 -1.29974e-22)
(0.486749 0.235987 -6.58673e-22)
(0.480439 0.234386 6.57173e-23)
(0.473648 0.232593 6.43791e-22)
(0.466352 0.23056 -4.62284e-22)
(0.458539 0.228246 1.21909e-22)
(0.450203 0.225604 4.0242e-22)
(0.441338 0.222583 -5.16196e-22)
(0.431946 0.219127 1.93371e-22)
(0.422031 0.215173 6.16825e-22)
(0.41161 0.210652 -2.15756e-22)
(0.400705 0.20549 -6.40397e-22)
(0.389351 0.199608 -2.08884e-22)
(0.377594 0.192923 5.43076e-22)
(0.365495 0.185349 4.82224e-22)
(0.35313 0.176801 -1.13377e-22)
(0.340592 0.167196 -6.66816e-22)