/*--------------------------------*- C++ -*----------------------------------*\
  =========                 |
  \\      /  F ield         | OpenFOAM: The Open Source CFD Toolbox
   \\    /   O peration     | Website:  https://openfoam.org
    \\  /    A nd           | Version:  10
     \\/     M anipulation  |
\*---------------------------------------------------------------------------*/
FoamFile
{
    format      ascii;
    class       volScalarField;
    location    "1500";
    object      epsilon;
}
// * * * * * * * * * * * * * * * * * * * * * * * * * * * * * * * * * * * * * //

dimensions      [0 2 -3 0 0 0 0];

internalField   nonuniform List<scalar> 
10435
(
0.473378
0.987569
0.635887
0.815623
1.01098
0.972511
0.591092
0.508907
0.439926
0.847766
1.10914
0.768136
0.83545
0.116015
0.140189
0.573202
0.097969
0.972311
0.379779
0.54223
0.538165
0.72102
0.601769
0.454746
0.762727
0.0257079
0.0415317
0.714283
0.0398323
0.925271
0.692188
1.1329
0.49001
0.0412355
0.532041
0.624553
0.572467
0.0422248
0.0180685
0.404022
1.01618
0.599166
0.0582387
0.745402
0.61617
0.42502
0.974949
0.0468997
0.416938
0.591219
0.524205
0.81602
0.0175074
0.0338044
0.0198394
0.0364901
0.559154
0.0453482
0.0687396
0.501969
0.0194936
0.88697
0.0457953
0.841796
0.610677
0.673519
0.0577111
0.0546423
0.523499
0.468971
0.0332163
0.0336284
0.0381886
0.64635
0.173226
0.0733383
0.501669
0.567134
0.468437
0.157668
0.575869
0.33628
0.0169726
0.0344922
0.554592
0.45431
0.515474
0.827846
0.264734
0.612511
0.872681
0.900366
0.395094
0.330252
0.698555
0.485333
0.885881
0.175889
0.0803395
0.927799
0.212609
1.09309
0.417317
0.770092
1.05686
0.789684
0.451347
0.587458
0.533356
0.190965
0.575315
1.13077
0.280586
0.231722
0.964615
0.697179
0.89019
0.568391
0.926922
0.843864
0.851488
0.0611951
0.679875
0.222422
1.25862
0.0226744
0.867744
0.0857543
0.944253
0.0395408
0.13833
1.27095
0.547252
0.130765
0.0373915
0.0159276
0.522266
0.814596
0.863059
0.656408
0.604028
0.655722
0.0507467
0.776012
0.721148
0.136353
0.362085
0.887578
0.095994
0.745458
0.0387763
0.620435
0.545274
0.734956
0.838386
0.0314381
1.22472
0.779954
0.846071
1.2206
0.685788
0.10979
0.993494
0.685171
0.216849
0.87918
0.487872
0.785784
0.630969
0.83097
0.764338
0.0277448
0.0384213
0.169437
0.701485
1.14296
0.762226
0.0685939
0.545233
0.0435653
1.06133
0.981666
0.769458
0.0212843
0.662813
0.0430076
0.0547639
0.554278
0.99991
0.782464
0.813252
0.0166795
0.037169
0.698189
1.17821
0.537359
0.0859595
0.349616
0.0581614
0.575961
0.240995
0.0417595
0.766441
0.0449537
0.705567
1.0249
0.976041
0.804223
0.0476612
0.710812
0.0327425
0.60997
0.810251
0.697479
0.0413968
0.115407
0.268179
0.0214382
0.0261221
0.0935352
0.0412128
0.0761947
0.0537322
0.181092
0.0289333
0.543301
0.0217863
0.262681
0.739708
0.0947352
0.0641362
0.515015
0.0238102
0.626167
0.0427158
0.084206
0.54736
0.0286812
0.55888
0.714022
0.689893
0.0254635
0.0232705
0.0361188
1.02618
0.461148
0.356211
0.520131
0.031072
1.02414
0.0316445
0.30138
0.857565
0.694168
0.533507
0.903841
0.0282553
0.547067
0.028316
0.0423535
0.563097
0.762279
0.0253031
0.573947
0.329978
0.069239
0.622739
0.647926
0.0193436
0.991689
0.583287
0.494711
0.51755
0.728817
0.0286388
0.818143
0.0403305
1.08066
0.558447
0.482168
0.820696
0.0736553
0.608275
0.206351
0.375488
0.0186945
0.946687
0.0198961
0.0351072
0.0424522
0.246038
1.26349
0.0482129
0.505181
0.018448
0.0326206
0.107475
0.400305
1.11948
0.694355
0.0569935
0.578834
0.637019
0.0336175
1.13593
0.141951
0.0833617
0.632541
0.682206
0.0354236
0.503456
0.0372545
0.870057
0.931405
0.469919
0.0331579
0.0224278
0.727207
0.0589561
0.771004
1.03191
0.0429365
0.460042
0.0164079
0.467463
0.764339
0.0313482
0.669195
0.0607705
0.0433879
0.465121
0.0456849
0.0354316
0.619137
0.692855
0.0482838
0.0337639
0.0322596
0.0380088
0.0373755
0.033553
0.032629
0.0190738
0.0383765
0.0370273
0.0363782
0.051381
0.0437193
0.0161654
0.45118
0.0360812
0.739107
0.0407344
0.70713
0.451196
0.39874
0.842272
0.637736
0.0351591
0.0383504
0.0330598
0.0233223
0.036645
0.0189123
0.0408723
0.0354889
0.0492892
0.706059
0.034599
0.439034
0.0215119
0.0376423
0.893287
0.369864
0.0192203
0.0412541
0.044037
0.0425693
0.0378248
0.0282797
0.0477673
0.0206164
0.478653
0.0535716
0.50821
0.436393
0.749994
0.79752
0.421005
0.675726
0.501932
0.131722
0.0327095
0.0385134
0.033893
0.646953
0.0365945
0.89744
0.0456323
0.0438342
0.0391402
0.0476411
0.0243879
0.578364
0.0430493
0.494447
0.63567
0.0259253
0.0305946
0.0427013
0.375961
0.0425329
0.0325721
0.0274615
0.0366599
0.0488935
0.0400858
0.666955
0.0332813
0.0311611
0.0402774
0.0433089
0.999867
0.0202548
0.0168841
0.332925
0.0379048
0.000223354
0.000215944
0.000203459
0.000187965
0.000170552
0.000151558
0.000131479
0.000110848
9.03394e-05
0.000247314
0.000236498
0.000221125
0.000203141
0.00018351
0.000162801
0.000141519
0.000120336
0.000100132
0.000276496
0.000262495
0.000244016
0.000223195
0.000201113
0.000178387
0.000155576
0.000133362
0.000112566
0.000314057
0.00029669
0.000274541
0.000250348
0.000225307
0.000200047
0.000175139
0.000151195
0.000128897
0.000364004
0.000342636
0.000315918
0.000287535
0.000258738
0.000230172
0.000202359
0.000175789
0.000150906
0.000431594
0.000405099
0.000372506
0.000338745
0.000305062
0.000272113
0.00024034
0.000210109
0.000181685
0.000523999
0.000490526
0.000450166
0.000409376
0.000369277
0.000330515
0.000293436
0.000258325
0.000225416
0.000651237
0.000607243
0.000556513
0.000506538
0.000458062
0.000411645
0.000367519
0.000325933
0.000287201
0.000825034
0.000764954
0.000700873
0.000639186
0.000579969
0.000523609
0.00047022
0.000419968
0.000373135
0.00105444
0.000973596
0.000893881
0.000817903
0.000745283
0.00067629
0.000610971
0.000549343
0.000491375
0.00134259
0.00124262
0.00114685
0.00105428
0.000965418
0.000880781
0.000800533
0.000724602
0.0006527
0.00168793
0.00158215
0.00147146
0.0013601
0.00125193
0.00114836
0.00104997
0.000956725
0.000868375
0.00210813
0.00200691
0.00187998
0.0017466
0.00161542
0.00148926
0.00136927
0.0012556
0.00114826
0.00264643
0.00253538
0.0023843
0.00222337
0.00206453
0.00191164
0.00176625
0.00162877
0.00149941
0.00333043
0.00318054
0.00299264
0.00279705
0.00260536
0.00242133
0.00224657
0.00208139
0.00192532
0.00416374
0.00394407
0.00370741
0.00347078
0.00324157
0.00302248
0.00281487
0.00261916
0.00243493
0.00510735
0.00481478
0.00452578
0.00424512
0.00397555
0.00371862
0.00347551
0.00324684
0.00303332
0.0061239
0.00578
0.00544434
0.00512089
0.00481054
0.00451463
0.00423427
0.00397022
0.00372335
0.00721323
0.00683794
0.00646467
0.00610239
0.00575307
0.00541885
0.00510103
0.00480044
0.00451769
0.00838856
0.00799761
0.00759502
0.00719888
0.00681424
0.00644452
0.00609124
0.00575536
0.00543811
0.00967185
0.00927568
0.00884912
0.008424
0.00800949
0.00760967
0.0072256
0.00685764
0.00650633
0.0110945
0.0106936
0.0102435
0.00979397
0.00935761
0.00893704
0.00853144
0.00813957
0.00776064
0.0127066
0.012275
0.0117943
0.0113254
0.0108795
0.0104533
0.0100424
0.00964273
0.00925316
0.0145734
0.0140377
0.0135112
0.013032
0.0125959
0.0121877
0.0117967
0.011415
0.0110398
0.0167527
0.0159712
0.0153934
0.0149249
0.0145295
0.0141728
0.0138373
0.0135141
0.0131495
0.00133961
0.00130984
0.00128561
0.00126683
0.00125346
0.00124538
0.00124247
0.00124452
0.00125131
0.00126253
0.00127783
0.00129681
0.00131896
0.00134376
0.00137054
0.00139866
0.00142737
0.0014559
0.00148345
0.0015092
0.00153223
0.0015516
0.00156606
0.00157376
0.00157339
0.00156433
0.00154776
0.00152368
0.00149077
0.00144945
0.00140147
0.00134744
0.00128774
0.00122353
0.00115587
0.00108579
0.00101428
0.000942317
0.000870816
0.000800657
0.000732637
0.000667487
0.000605823
0.000548165
0.000494933
0.000446427
0.000402823
0.000364199
0.000330494
0.000301574
0.000277211
0.000257126
0.000241024
0.000228592
0.000219551
0.00021365
0.000210686
0.000210509
0.000212964
0.00134445
0.00131771
0.0012961
0.00127956
0.00126797
0.00126118
0.00125906
0.00126146
0.00126816
0.00127891
0.00129338
0.00131119
0.00133189
0.00135496
0.00137981
0.0014058
0.00143222
0.00145833
0.00148336
0.00150651
0.00152696
0.00154386
0.0015563
0.00156321
0.00156339
0.00155566
0.00153931
0.00151419
0.00148073
0.00143989
0.00139262
0.00133957
0.00128134
0.00121868
0.00115244
0.00108355
0.00101297
0.000941652
0.000870548
0.000800554
0.000732509
0.000667177
0.000605226
0.000547221
0.000493618
0.000444746
0.000400803
0.000361861
0.000327871
0.000298675
0.000274036
0.000253662
0.000237251
0.000224489
0.00021507
0.000208728
0.000205246
0.000204469
0.000206218
0.00132341
0.00129832
0.00127803
0.0012625
0.00125165
0.0012454
0.0012436
0.00124609
0.00125266
0.00126304
0.00127693
0.00129396
0.0013137
0.00133566
0.00135928
0.00138396
0.00140902
0.00143377
0.00145745
0.00147929
0.00149846
0.0015141
0.00152527
0.00153093
0.00153007
0.0015218
0.00150555
0.00148115
0.00144883
0.0014092
0.00136305
0.00131112
0.00125413
0.00119285
0.0011281
0.00106075
0.000991717
0.000921911
0.000852239
0.000783579
0.000716757
0.000652529
0.000591568
0.000534444
0.000481616
0.00043342
0.000390059
0.000351605
0.000318012
0.000289123
0.000264702
0.000244457
0.000228078
0.000215246
0.000205666
0.000199077
0.000195262
0.000194063
0.000195303
0.00127618
0.00125275
0.00123388
0.00121951
0.00120956
0.00120392
0.00120247
0.00120503
0.0012114
0.00122133
0.00123454
0.00125067
0.00126932
0.00129004
0.00131232
0.00133556
0.00135914
0.00138239
0.00140457
0.00142491
0.0014426
0.0014568
0.0014666
0.0014711
0.00146941
0.00146078
0.00144471
0.00142102
0.00138989
0.00135178
0.00130734
0.00125729
0.00120236
0.00114332
0.00108097
0.00101616
0.000949744
0.000882587
0.000815555
0.000749484
0.000685165
0.000623327
0.000564619
0.000509597
0.000458704
0.000412263
0.000370472
0.000333399
0.000300995
0.000273108
0.00024951
0.000229917
0.000214033
0.000201536
0.000192139
0.000185588
0.000181671
0.000180233
0.000181101
0.00121266
0.00119119
0.00117397
0.00116093
0.00115201
0.0011471
0.00114609
0.0011488
0.00115504
0.00116457
0.00117713
0.00119238
0.00120994
0.00122939
0.00125024
0.00127194
0.00129388
0.00131542
0.00133586
0.00135445
0.00137042
0.00138295
0.00139122
0.00139443
0.00139182
0.00138279
0.00136692
0.00134406
0.00131432
0.00127804
0.00123575
0.00118809
0.00113575
0.00107949
0.00102009
0.000958367
0.000895138
0.000831234
0.000767482
0.000704678
0.000643576
0.000584864
0.000529156
0.000476974
0.000428734
0.000384734
0.000345154
0.000310053
0.000279378
0.000252981
0.000230637
0.000212075
0.000196996
0.0001851
0.000176109
0.000169777
0.000165898
0.000164318
0.000164872
0.00113281
0.00111315
0.00109744
0.00108565
0.00107769
0.00107348
0.00107288
0.00107574
0.00108187
0.00109104
0.00110299
0.00111739
0.00113389
0.00115208
0.00117149
0.00119161
0.00121185
0.0012316
0.00125019
0.00126694
0.00128111
0.00129196
0.00129874
0.00130075
0.00129734
0.00128801
0.00127241
0.00125044
0.00122216
0.00118784
0.00114794
0.001103
0.0010537
0.00100074
0.000944867
0.000886854
0.000827471
0.000767499
0.000707734
0.000648926
0.00059178
0.000536938
0.000484965
0.000436344
0.000391453
0.00035056
0.000313821
0.00028128
0.000252879
0.000228467
0.000207826
0.000190691
0.000176776
0.000165794
0.00015748
0.000151598
0.00014795
0.000146388
0.000146757
0.00103887
0.00102102
0.00100682
0.000996234
0.000989201
0.000985641
0.000985437
0.000988443
0.000994472
0.0010033
0.00101467
0.00102827
0.00104375
0.00106073
0.00107875
0.00109732
0.00111592
0.00113393
0.00115075
0.00116573
0.00117819
0.00118745
0.00119287
0.00119384
0.00118978
0.00118029
0.00116508
0.00114409
0.00111734
0.00108507
0.00104768
0.00100566
0.000959654
0.000910343
0.000858396
0.00080455
0.000749511
0.000694004
0.000638802
0.00058459
0.000532006
0.000481632
0.000433977
0.000389482
0.000348485
0.000311219
0.000277818
0.000248305
0.00022261
0.000200581
0.000182002
0.000166618
0.000154154
0.00014434
0.000136922
0.000131677
0.000128418
0.000127005
0.000127294
0.00092948
0.000913139
0.000900171
0.000890578
0.000884326
0.000881359
0.000881557
0.000884784
0.000890845
0.000899502
0.000910511
0.000923533
0.000938221
0.000954179
0.000971005
0.000988285
0.00100553
0.00102213
0.00103753
0.00105107
0.00106211
0.00107003
0.00107434
0.00107458
0.00107014
0.00106074
0.00104615
0.00102635
0.00100127
0.000971111
0.000936285
0.000897259
0.000854732
0.000809366
0.000761668
0.000712369
0.000662129
0.000611573
0.000561499
0.000512452
0.000464999
0.000419648
0.000376847
0.000336986
0.000300383
0.000267216
0.000237619
0.00021158
0.000189004
0.000169726
0.000153533
0.000140187
0.000129429
0.000121011
0.0001147
0.000110288
0.000107602
0.000106507
0.00010687
0.000802524
0.000787247
0.000775193
0.000766479
0.000761122
0.000759029
0.000759984
0.000763667
0.00077012
0.00077937
0.000790719
0.000803779
0.0008181
0.000833219
0.000849024
0.000865105
0.000881345
0.000897515
0.000912431
0.000925076
0.000934994
0.000941771
0.000945249
0.000944978
0.000940558
0.00093165
0.00091814
0.000899924
0.000876733
0.000848601
0.000816243
0.000780244
0.000741294
0.000700116
0.000657132
0.000612448
0.000566969
0.000522123
0.000477936
0.00043457
0.000392746
0.000352933
0.000315466
0.000280631
0.000248676
0.000219926
0.000194446
0.00017234
0.000153371
0.00013718
0.000123554
0.000112349
0.000103398
9.64786e-05
9.13716e-05
8.7915e-05
8.59579e-05
8.53649e-05
8.60125e-05
0.0337193
0.030724
0.0279427
0.0252798
0.0227136
0.0202386
0.0178733
0.0156399
0.0135557
0.0116332
0.0099145
0.00842833
0.00717254
0.00611982
0.00521691
0.00444117
0.00379487
0.00326947
0.00284601
0.00250196
0.00221857
0.00198071
0.00177596
0.00159408
0.00142587
0.0321584
0.0300284
0.0275959
0.0250699
0.0225469
0.0200755
0.0176963
0.0154448
0.0133497
0.0114378
0.00973454
0.00825079
0.00698221
0.00591255
0.00501715
0.00427304
0.00366153
0.00316448
0.0027629
0.0024375
0.0021706
0.00194737
0.00175587
0.0015865
0.00143127
0.0320513
0.0298097
0.0273644
0.02483
0.0222841
0.0197838
0.0173794
0.0151136
0.0130201
0.0111244
0.00944164
0.00797529
0.00671977
0.0056625
0.00478539
0.00406726
0.00348543
0.00301726
0.00264139
0.00233826
0.00209061
0.00188393
0.0017065
0.00154917
0.00140501
0.0322275
0.0297202
0.0271308
0.0245103
0.0219101
0.0193772
0.0169576
0.0146919
0.0126121
0.0107392
0.00908291
0.00764317
0.00641324
0.00538131
0.00453082
0.00384085
0.0032876
0.00284677
0.00249573
0.00221443
0.00198569
0.00179529
0.00163187
0.00148664
0.00135276
0.0324699
0.0297028
0.0269303
0.0241848
0.0215039
0.0189253
0.0164866
0.0142217
0.0121567
0.0103074
0.00867963
0.00727088
0.00607306
0.00507355
0.0042552
0.00359652
0.00307302
0.0026597
0.00233332
0.00207355
0.00186333
0.00168883
0.0015391
0.00140591
0.00128318
0.0326725
0.0296683
0.0267061
0.0238243
0.0210553
0.0184278
0.0159695
0.013706
0.0116567
0.00983258
0.00823613
0.00686275
0.00570251
0.00474103
0.00395962
0.00333557
0.00284367
0.00245859
0.00215692
0.00191844
0.00172642
0.00156749
0.00143125
0.00130993
0.00119778
0.0328604
0.0296045
0.0264387
0.023415
0.0205577
0.0178827
0.0154057
0.0131444
0.011112
0.00931503
0.00775321
0.00641983
0.00530264
0.00438452
0.00364461
0.00305865
0.0026006
0.00224497
0.00196855
0.00175145
0.00157743
0.00143369
0.00131038
0.00120021
0.00109823
0.0330712
0.02949
0.0260982
0.0229339
0.0199963
0.0172808
0.0147896
0.0125324
0.0105189
0.008752
0.0072287
0.0059406
0.00487293
0.00400405
0.00331056
0.0027664
0.00234463
0.00201989
0.00176949
0.00157408
0.00141798
0.00128909
0.00117796
0.00107756
0.000984207
0.0332397
0.0292661
0.0256446
0.0223573
0.0193585
0.0166152
0.014118
0.0118663
0.00987308
0.0081399
0.00665875
0.00542209
0.00441276
0.0035999
0.00295822
0.00245999
0.00207688
0.00178441
0.00156109
0.0013881
0.00124997
0.00113602
0.00103623
0.000942553
0.000854014
0.979777
0.946128
3.52525
3.7328
0.0010413
0.00159825
0.0374645
0.00029212
2.86534
0.000106383
2.51165
0.00221467
0.0280004
0.00391898
0.0375039
0.000603538
2.45234
3.46596
6.9401e-05
0.074016
0.0123033
0.000372818
2.94276
0.00773484
0.000411301
0.000411718
0.00037563
0.0196088
1.27111
2.48802
0.000101553
0.000442965
2.81653
0.0313209
2.48521
0.000490822
0.0595324
0.037825
0.0730203
0.00136914
3.91086
0.000422892
0.000353384
0.0574204
0.00973594
0.000504994
3.84861
4.79877
1.67885
1.87612
3.53915
3.54961
0.00917598
3.43316
0.0356938
2.86295
0.00335973
0.00926812
0.000911544
3.6567
0.000696152
3.91053
0.0010802
0.00052354
0.000290596
0.0443291
0.000719351
0.105526
0.0378263
1.80379
2.84909
0.000476302
0.000554884
0.0692232
0.000638832
0.0114854
0.0589349
4.46049
0.000540943
3.1364
0.0244524
0.000936812
0.00030587
2.46376
0.000807165
0.000788938
0.000405692
4.38992
2.87167
0.00352521
0.0060815
0.0015981
0.000122115
0.00235563
0.000710061
2.53417
0.000432572
2.81108
0.000755124
3.60167
0.00763524
3.86263
0.00885014
0.000472577
0.000756276
0.0113748
3.1789
0.021004
0.000547804
2.49309
0.000424274
0.00131151
3.26314
0.000448101
0.00892487
1.64332
2.91547
0.00115986
0.0109849
0.00104087
7.72139e-05
0.00137242
0.00812123
0.000434303
2.97476
0.000360024
3.55808
0.0502354
0.000764423
4.78205
0.000309101
0.0669889
1.83622
0.0681347
0.0235327
0.000425437
0.00929968
0.00477734
0.000582399
0.0813577
0.000301029
0.0693771
3.72391
0.000102071
1.40589
0.000682385
3.6954
0.0299386
0.000603978
2.38331
0.0132637
0.00220607
3.82188
0.0469228
0.000878009
2.40041
0.000482675
0.00111209
0.0560145
0.000354621
0.000327921
2.83074
0.000421646
3.00151
0.000194479
3.00882
0.00401932
0.000382054
0.000730296
0.000560432
0.0034612
0.000539698
0.0996285
2.68157
0.000788571
0.0138873
0.0221815
1.54945
2.23036
0.000313992
0.0328083
0.000441184
0.00920933
0.0298593
0.0348765
0.000385552
3.27291
0.000411786
2.0745
0.000580983
4.40036
3.6569
1.80072
0.0694173
0.0402148
2.27209
0.000609213
0.000364306
1.52113
1.10221
0.119912
0.000783748
0.000874742
0.000607688
0.00838948
0.000214165
0.000853789
0.00886898
1.77609
0.000885578
0.000732541
0.00204642
0.0350203
0.00782428
0.0187745
4.23862
0.000986023
0.000321291
0.000683646
0.00547046
0.00752291
0.00047525
0.000953215
4.10427
0.607898
3.16809
0.00314064
2.46476
0.000576984
0.000618539
2.22755
0.000487734
0.000471065
0.000423704
0.0704721
0.000136547
0.0528449
0.0122968
0.0313467
0.0478875
0.000160797
0.000720939
0.000206667
0.0299208
0.000491572
0.000343019
0.000421503
0.0136709
0.000589899
0.000226732
0.000521344
0.0151287
0.000341608
1.64253
0.000615706
0.000391701
3.08065
0.0569989
0.055162
7.05276e-05
0.0555257
0.00090699
0.00047422
0.000777976
0.0650634
0.00046229
0.000195766
3.83235
0.0378406
0.000361291
0.0151435
1.77562
0.000757264
0.000325783
7.26068e-05
3.71332
0.00106701
2.77772
0.00352216
3.92491
0.0506922
0.0145506
0.0713495
0.000501098
2.27543
0.000634313
0.0123904
1.57821
3.57641
4.51808
0.0468296
0.000441288
0.000278129
3.77675
0.209314
4.17687
3.94465
0.00119751
0.000377742
2.8298
3.739
0.000314308
0.00286086
0.000635007
3.72537
0.000188665
0.0128837
0.000433576
0.0813155
0.000848422
0.000479968
0.000228043
2.41384
0.000659454
0.00080773
0.0819311
4.28711
0.000368029
0.00039404
0.204239
0.0563761
0.000347662
0.00345891
9.90286e-05
0.000422055
0.000441451
2.83881
0.0214183
0.00109776
0.00974933
0.000187126
0.0394217
0.00609827
0.000114463
4.19303
0.000839479
0.000331954
0.000317683
1.09093e-05
0.0648126
0.0020505
0.00221296
3.15881
0.000211376
0.0627201
0.00102688
0.00253191
0.00057026
0.00044443
3.62065
1.52097
0.00012545
0.000923095
0.0546612
3.83747
0.464921
0.330801
0.0598387
0.000216664
3.94808
1.79665
2.52861
0.000253398
3.06839
0.000327851
0.000403407
0.000653577
4.4857
0.000443155
1.96909
0.000334219
0.0468726
1.26309
3.24278
0.027271
0.000559225
0.000979117
0.00017287
0.000450233
0.000132202
3.89341
0.00052569
2.95186
0.0657637
0.0632925
0.286758
0.000192968
0.0723488
2.30042
4.41916
0.0273309
0.000211263
0.00772834
2.64177
0.0296615
8.32485e-05
0.000197588
2.75477
0.001114
1.29702
0.000288541
0.000357224
0.000840098
1.51675
0.0020751
3.60551e-07
0.036995
0.0084781
0.119173
0.00016264
1.87067
0.00046155
2.83702
0.000568491
0.000339756
0.0460869
1.79471
3.62062
0.000837754
0.00153977
0.000200639
0.000440657
0.00388065
0.0105144
0.00066384
4.19432
8.30078e-06
0.00361699
0.00031363
0.000419651
0.000583096
0.000396937
0.00370207
0.000552477
0.04527
0.000626402
0.000415479
0.000195784
0.000539693
0.00917318
0.000309982
0.0479506
3.83495
0.0867321
0.0455128
4.96647
0.0142957
2.37935
0.000745134
0.000530972
3.18977
0.000304269
0.000420917
2.60691
0.000220952
1.72918
3.68666
0.000720066
0.00670312
0.0472799
0.000442028
0.0327491
1.79523
0.0325445
3.98175
0.000328105
0.000816167
4.21964
0.000291944
2.34168
0.0122007
0.000373158
2.50447
0.0108896
0.000416851
0.0287525
0.00313032
0.000402023
0.0299082
0.0248519
0.0179914
0.058189
4.35559e-05
0.00216012
2.38725
0.000736796
0.000821687
0.000580163
1.50534
0.000348134
0.0393503
0.000486624
0.000894339
2.51233
0.000428005
0.00131257
0.0383562
0.000595227
0.000143102
1.94679
0.000340474
0.045533
0.000503423
0.0246349
0.0209524
0.032043
0.000597981
0.000568865
0.0374248
0.000440996
0.00027628
0.0257678
0.000775461
0.00279569
0.000404201
4.44394
3.66809
1.8806
0.00061888
0.0183342
0.000122036
4.495
0.0754205
5.61388
0.0359276
0.000586648
4.11036
3.80478
0.000233178
0.000603621
0.0146251
0.000372979
3.61137
2.8185
0.00111253
0.125845
0.000359975
2.33375
1.60298
0.000506108
0.201115
2.43675
0.000350308
3.48105
0.00108743
3.69957
0.000374566
0.00628757
0.000583127
2.7579
0.0582896
0.0514263
0.000738254
1.68508
1.83969
4.43533
0.000857491
0.000186914
0.0171396
1.95232
0.000369474
0.05782
0.000358896
0.026623
2.38686
8.65666e-05
0.0174523
0.000810943
0.000432154
0.0856804
2.56367
0.000649376
0.0372648
0.000991816
0.00122357
3.23546
3.96178
2.00529
0.00712798
0.0946085
0.0797302
0.00890905
0.000767615
0.00012716
0.000304105
2.732
0.000323684
0.00168587
0.264924
0.000708847
0.00262521
0.00108857
0.000501496
0.0452503
0.000227512
0.000985447
0.0282449
1.92679
0.000817211
0.000408688
3.17866
0.0198836
0.000377878
0.00371965
0.0477751
0.000620475
0.000663383
0.000265099
1.26805
0.000320506
0.00034002
0.0633839
0.000328083
0.000705458
0.00961557
0.0101341
0.00066302
0.0023696
4.01807
0.000558057
0.000304162
0.000345173
0.000177979
0.00337434
0.00169706
3.53279
4.5227
0.0173045
2.57307
0.00111399
0.000382584
0.000360172
0.000477485
0.00067886
0.000995816
0.0125127
0.0034842
0.00102168
0.00197116
0.0404096
0.0164605
0.00584699
0.044275
0.00034513
0.00137475
0.000306259
0.0082311
0.117263
3.47436
0.0446291
0.0542933
0.000764686
0.000100479
0.000804562
0.000617694
0.000224121
3.99554
7.23139e-05
0.0178705
0.000300759
2.14871
2.69549
2.43381
5.86883e-05
0.000350419
0.000313215
3.84708
2.44836
0.0339847
0.00890014
0.00157685
7.90456e-05
0.000811934
3.65733
0.000191524
0.000344989
0.056612
0.0004592
0.000358565
0.000168563
0.000741957
0.00988699
0.00445142
0.000325471
0.000207334
0.0073716
0.000173443
1.43995
3.66743
0.000432426
0.0374102
0.000986349
2.43582
0.000308981
0.000196526
0.000232204
0.00042175
0.320807
0.000587848
0.000271953
0.00091986
0.0697945
0.000587324
0.000591321
0.00042726
4.04552
0.0367604
0.0136576
4.64908
0.0395656
1.5545
2.50597
7.09984e-05
0.000452238
0.000318487
1.456e-06
0.000480233
0.0509818
0.000666308
0.000430003
0.0200002
0.000102457
0.000226433
0.0234191
0.000270692
0.000452372
0.000289463
0.0146832
0.0240425
3.94669
8.01441e-05
2.34549
0.0376479
1.50099
0.0183122
3.92678
3.54655
3.74157
0.000335778
0.00059291
9.17717e-05
0.048559
0.000402743
0.261931
1.28564
0.000167965
0.0596819
0.092985
0.000609026
0.000288038
0.000487229
4.32889
3.54989
0.000321553
0.0409443
0.0477967
0.0109325
2.53917
1.38222e-08
0.000230898
0.0226544
0.000123899
1.1425
0.129191
2.70625
0.0457414
0.000416697
0.0461271
0.00103446
1.09355e-05
0.0318846
0.00228417
0.00575596
0.000377277
0.000358196
0.284164
0.000603002
0.0004555
0.00032929
0.000489087
0.222819
0.00136497
3.67056
0.0388161
0.000325912
1.42402
0.000544401
0.0784779
0.00109615
0.000135643
0.000330968
0.0196343
0.0172955
0.000144822
0.000389852
3.67432
3.48175
0.0414605
0.000610595
0.0278201
0.182538
0.050522
4.77023
0.0537946
0.00577668
0.000239576
2.99219
0.000783693
0.000289347
0.00742161
2.26283
3.22467
0.000505591
0.000565705
1.92335
0.000343132
3.43693
2.09944
0.00035328
0.000495882
3.0367
1.3117
1.19032
0.000189362
0.000352247
0.000469627
0.0255781
0.0555502
0.000280152
0.000301105
0.00152553
0.0396871
0.00378656
0.0443721
1.29004
7.87709e-05
0.000364593
5.45722
8.58181e-05
0.0145404
0.00105851
0.0189229
0.000490225
0.0010722
0.210325
0.000452253
0.000179135
0.000148049
0.0166294
0.0152226
4.29217
0.000311207
0.00026877
0.000401938
0.0367972
0.0800842
3.69876
0.000958456
0.0747055
0.03854
1.06331e-06
0.000530781
0.00240333
2.26304
0.000717725
0.0695503
0.000631298
1.11653e-05
0.0323737
0.00057435
6.01357
3.41531
0.028107
3.73188
3.96636
4.26536
8.8323e-05
2.42617
0.0375825
0.000290883
0.0353953
0.000433272
0.00249562
0.053667
0.000571218
0.0049584
0.0201713
4.17185
0.0016527
0.000929853
2.37342
0.00458679
0.000649846
0.0391865
1.41756
0.331333
0.000143702
0.00978698
4.6765
2.65813
0.177432
0.0127431
1.75575
0.00383473
0.000388171
0.0206167
2.11083
0.00068145
0.519762
0.00258625
2.08931
0.00065707
0.0270854
1.12303
0.000126351
0.00180131
0.000148941
2.68585
0.289399
2.39501
1.54053
0.000692923
0.0232698
0.0167982
0.00578793
1.22935
0.0091968
0.000246161
0.000605977
0.000543089
0.000700048
0.0281717
2.50903
0.00013839
2.62196
0.000382448
0.051721
0.000106738
0.00046202
0.000300287
2.84051
2.16133
0.0183072
0.0165367
0.000447349
0.000668572
0.0451404
0.000271437
0.262691
0.0816104
3.2818
0.00119193
0.102804
0.046587
0.000621911
0.000712674
0.000886375
3.34396
0.00123262
0.00648929
0.0504092
0.0378497
0.000853451
0.00578939
0.000361198
0.00042182
0.0011303
0.000592435
0.0115994
0.000398735
0.0134707
2.41708
0.0763109
2.8313
0.000407599
0.0126438
0.0212457
0.000954501
1.37624
0.00133435
0.0034538
3.42017
0.000636053
0.0434218
0.0037934
0.000366551
1.72631
0.000150804
0.161706
0.000557522
0.0381712
0.0419651
2.87193
0.000923497
0.046537
0.000451431
0.159676
0.000597681
2.98505
0.033431
0.0338435
2.44608
0.00290127
3.71475
0.000489461
1.5859
0.00142472
0.000292244
0.00113132
0.028184
0.0387386
0.00110788
0.000140648
0.0586225
0.000324788
0.000165016
0.00098301
0.000578317
0.000513151
4.71695
0.000695529
0.000461037
0.0478199
0.0169489
4.24633
0.000569222
0.000213851
0.000541986
0.239472
0.000767236
0.00226456
3.76206
0.320883
0.0560387
0.00039756
0.00621291
0.0253546
2.73151
0.00018259
0.000121449
0.00210227
0.000746153
0.000624953
0.519729
4.3546
3.68091
0.0207283
0.000441836
0.0462056
3.289
0.0130275
0.0470499
0.000633038
1.4653
2.40101
3.95867
0.00053714
0.000540872
0.0093031
2.31862
0.0007178
3.36819
0.00330604
0.0790561
1.73903
0.00065236
0.00170421
0.0031927
0.00010646
9.67225e-05
0.026503
1.34223
7.44336e-05
2.39223
0.000492913
0.000482587
0.000382489
0.000154002
0.0104206
0.00244634
0.0768732
0.0233918
0.000742546
0.000642998
1.53893
2.35327
0.000260264
0.000928019
0.00043697
0.722262
3.03111
0.0112212
3.81568
0.000409128
9.53606e-05
0.0123835
0.000493297
0.00797962
0.0442035
0.000309932
0.000396984
0.000168222
0.00497766
0.0290884
3.68285
0.0462993
9.98222e-05
0.0106376
0.000203194
3.46083
3.72217
0.000225318
9.48931e-05
0.0591314
0.000589599
0.00117884
1.3369
1.33336
0.0155421
0.000122206
0.000974951
0.029547
1.32705
0.00183789
0.00192225
1.17327
2.52154
5.49168e-06
0.000424514
0.00138934
0.000392621
0.15709
0.0102823
0.000438891
0.050739
0.000564081
0.000267972
0.000500567
0.0108848
0.000556488
3.57385
1.71743
3.32201
1.12507
0.308359
5.08091
0.000434815
3.30541
0.0122934
0.000303756
0.0363814
0.000257002
0.00860809
0.000292745
0.000451935
0.00101981
2.38559
0.000514165
0.0157844
0.0446581
0.00360638
0.0111319
0.145486
3.93641
0.000477167
3.83765
2.80525
0.00307534
0.000563983
0.00825763
0.0476738
0.00632315
0.0418319
3.93421
0.000287605
0.00101009
0.000605453
0.030863
3.6028
0.000664272
0.00279803
0.000437972
0.00026426
0.00106205
0.0217918
9.89943e-05
0.00421656
0.00827653
1.75705
0.000146817
0.0128204
2.60113
0.000562289
0.0110183
0.00882783
3.55217
0.0159188
0.246268
0.0115543
0.000396887
5.50856
2.25115
0.000588562
0.0219168
0.0382972
0.000202431
0.000928608
0.000310338
0.0367375
0.000436832
0.0273016
0.000128715
0.0442657
1.74667
0.0522739
1.66292
0.026355
0.000824745
0.057414
0.0425788
0.00292277
0.00054089
0.00441067
2.44384
0.000312636
0.0166507
0.00099854
0.000586119
0.0204769
0.00190283
0.000649888
0.000271614
2.54465
0.0568714
0.000153112
0.000536174
0.000116982
0.000312646
0.000552397
1.44649
0.000467131
0.134226
2.23205
0.0370094
2.33739e-05
0.0503466
1.24526
0.078882
1.53035
0.00672538
0.106983
3.19791
3.40974
0.000290043
2.05558
0.000182388
2.78788
1.82465
8.44536e-05
0.0334533
0.0362393
4.41415
0.0326429
0.013563
0.000309182
0.0384014
2.05721
0.654785
3.29528
0.000640862
0.0778636
0.00010782
2.20815
0.00865459
0.000746115
0.000540212
0.0617152
0.00123465
0.00353843
0.0842389
0.000284466
1.61437
0.00078333
0.000268852
0.379707
0.0387914
0.00298383
0.0101414
0.0397829
0.000691994
0.0149401
0.938308
0.000153958
0.0187607
0.00100052
1.58922
0.0938389
0.000337616
4.02477
0.000127472
0.0116505
0.879503
0.000247215
0.000594394
0.0110023
0.0245091
0.0390189
0.000668733
4.33274
0.00191896
0.014016
4.1898
0.0120105
0.000588853
0.270723
0.000510499
0.000365376
8.49072e-05
0.0517355
2.15334
0.000584021
2.69726
0.0116869
0.000553827
0.0794806
0.000416301
0.00215904
0.0535727
0.000397476
0.000244335
0.481273
0.00144125
0.000296267
0.000443536
1.67529
2.08978
0.00456057
0.000137688
0.000514732
0.0553906
4.25716
0.00047474
0.000992528
0.0118059
2.92148
0.00116767
0.0949696
0.0564505
0.000288918
0.0118465
3.40035
0.000433333
0.00592406
0.00019098
1.199
0.000509266
0.000401263
0.00383224
0.025604
2.12388
0.00101774
2.70646
0.00107588
2.66835
0.000246726
0.0327142
0.0149384
0.0774567
1.69904
0.00350202
0.0434137
0.000732601
0.000506739
0.00066707
2.12237
2.41664
0.000146852
0.000204252
0.232731
0.000498942
0.00230516
0.000731353
4.17773
3.39959
0.049596
2.96679
0.000557421
0.000304748
0.0563008
0.0103621
1.61049
0.000524442
0.00101796
0.000682887
0.00127585
0.000519469
0.000913636
0.000642229
0.0135954
3.6284
2.22276
9.71186e-05
0.0102986