/*--------------------------------*- C++ -*----------------------------------*\
  =========                 |
  \\      /  F ield         | OpenFOAM: The Open Source CFD Toolbox
   \\    /   O peration     | Website:  https://openfoam.org
    \\  /    A nd           | Version:  10
     \\/     M anipulation  |
\*---------------------------------------------------------------------------*/
FoamFile
{
    format      ascii;
    class       volScalarField;
    location    "1500";
    object      k;
}
// * * * * * * * * * * * * * * * * * * * * * * * * * * * * * * * * * * * * * //

dimensions      [0 2 -2 0 0 0 0];

internalField   nonuniform List<scalar> 
10435
(
1.72382
2.08528
1.92837
2.13537
2.25657
2.29038
1.89964
1.98974
2.03905
2.16563
2.28911
2.16642
2.17978
1.10681
1.16454
1.95195
1.05795
2.36955
1.97924
1.82682
1.96444
2.13033
1.93307
2.072
2.04077
0.639316
0.81018
2.01479
0.762972
2.27863
1.97408
2.34235
2.01197
0.775562
2.05465
1.5684
2.03342
0.826878
0.519915
2.02642
2.39801
1.90928
0.81476
2.01715
1.99678
2.05011
2.31505
0.78387
2.00672
2.05746
1.99553
2.06515
0.504749
0.707976
0.549418
0.716807
2.07946
0.846224
0.952337
2.07811
0.537912
1.93422
0.83819
2.08942
1.96071
1.95751
0.891716
0.890039
1.95928
2.08447
0.702705
0.742489
0.624588
1.93354
1.23326
0.824718
2.10728
1.89655
2.0162
1.21359
2.11203
1.55553
0.489912
0.714507
2.11783
1.44809
1.61583
2.01744
1.30646
1.72968
2.08405
2.13466
1.65803
1.39778
1.83945
1.39197
2.14961
1.19592
1.00144
2.17356
1.24391
2.36996
1.50443
1.93577
2.34069
2.08386
1.7582
2.09287
2.11885
1.28552
2.00291
2.40259
1.45703
1.36664
2.19271
2.07546
2.15361
1.58219
2.06794
2.16556
2.13571
0.711686
1.71975
0.98728
2.5104
0.589228
2.16538
0.77095
2.18163
0.828557
0.873795
2.51294
1.98139
1.15072
0.785369
0.450352
1.3673
2.17039
1.9709
2.00595
1.92187
1.97077
0.848037
2.05145
2.16924
1.04569
1.15664
2.1488
1.02438
2.0882
0.728867
2.04391
1.7424
2.05324
2.10596
0.679156
2.48785
1.85283
2.1379
2.39409
2.03397
1.09566
2.19239
2.18859
1.31727
2.12658
2.03528
2.19465
2.15164
2.08024
2.03307
0.554362
0.746331
1.11546
2.12447
2.26622
1.75492
0.932808
1.93557
0.804464
2.20392
2.2838
2.12141
0.562999
2.00262
0.712535
0.733994
1.90724
2.2479
2.03856
2.1394
0.479211
0.798211
1.60779
2.44594
1.92981
0.939488
1.33533
0.862148
1.98881
1.31839
0.802671
2.08395
0.834762
2.00071
2.24868
2.14663
2.19167
0.847538
2.19025
0.657597
1.91783
2.10079
2.18007
0.795268
1.07096
1.40942
0.541515
0.64665
1.04736
0.781265
0.981756
0.879715
1.06311
0.670133
2.01621
0.5789
1.23532
2.00393
0.871215
0.932408
2.03091
0.610552
2.08225
0.859208
1.01394
2.10306
0.67763
2.11967
1.97946
1.93687
0.621075
0.553927
0.721363
2.23845
2.03223
1.24325
1.9344
0.611827
2.08596
0.644962
1.41966
2.20607
2.19389
1.90829
2.14382
0.566173
1.89688
0.626415
0.785869
1.89162
2.02091
0.627445
2.14477
1.50959
0.960635
1.8441
1.94827
0.522754
2.22465
1.89403
1.96326
1.92598
2.01335
0.686719
2.16145
0.823218
2.32311
1.93581
1.98317
2.14488
0.920071
1.90665
1.17176
1.52463
0.498632
2.19856
0.547465
0.719852
0.790941
1.12144
2.47589
0.846456
1.94447
0.527994
0.692903
0.985277
1.6162
2.35656
1.96553
0.886285
2.1351
1.93008
0.657158
2.36265
1.12988
0.991301
2.11519
1.9579
0.721465
1.85285
0.762898
1.85709
2.18675
2.05296
0.689415
0.572248
2.015
0.915096
2.18781
2.32492
0.802685
1.63433
0.469051
1.99822
2.07666
0.731653
1.96382
0.921264
0.845002
2.06257
0.813887
0.719479
1.9147
2.08434
0.859432
0.686114
0.639971
0.740208
0.723691
0.762576
0.71376
0.525562
0.747723
0.721643
0.730323
0.875877
0.876279
0.459512
2.01144
0.723669
2.03307
0.79546
2.00992
2.00493
1.97592
2.19125
1.93359
0.718166
0.751689
0.660348
0.602824
0.710302
0.50902
0.779684
0.784952
0.857534
2.1565
0.766482
2.01705
0.575386
0.811493
2.25675
1.92632
0.498084
0.813735
0.831619
0.841981
0.747951
0.67905
0.954041
0.559424
2.00163
0.885861
1.95838
2.00528
2.06642
2.1315
1.99942
1.96901
2.05628
0.942694
0.629862
0.752209
0.701821
1.93827
0.735102
2.2622
0.920915
0.808994
0.826375
0.836204
0.589205
1.91247
0.836644
1.98297
2.13895
0.570923
0.715317
0.871333
1.94912
0.88216
0.742501
0.638791
0.713521
0.832258
0.764291
1.95752
0.700729
0.715856
0.766234
0.785306
2.39596
0.492488
0.458905
1.8413
0.744904
0.136001
0.133912
0.129834
0.124585
0.118603
0.112051
0.105155
0.0981463
0.0913067
0.135697
0.132931
0.128604
0.123297
0.117349
0.110987
0.104424
0.0979349
0.0918549
0.135065
0.13187
0.127353
0.122011
0.116156
0.11001
0.103795
0.0977759
0.0922587
0.134444
0.130966
0.126289
0.120935
0.115194
0.109271
0.103381
0.0977557
0.0926406
0.134124
0.130435
0.125612
0.120257
0.114629
0.108916
0.103309
0.0979964
0.0931471
0.13437
0.130495
0.125529
0.120171
0.114638
0.109106
0.103734
0.0986705
0.094029
0.13548
0.131398
0.126268
0.120882
0.115416
0.110027
0.104845
0.0999854
0.0955379
0.13787
0.133425
0.128078
0.122625
0.117187
0.111895
0.106853
0.102153
0.0978762
0.141893
0.136825
0.131211
0.125654
0.120203
0.11496
0.110001
0.105398
0.101213
0.147543
0.141767
0.135915
0.130236
0.124737
0.119493
0.114559
0.109983
0.105789
0.154485
0.148365
0.142419
0.136638
0.131067
0.125773
0.120807
0.116196
0.111939
0.162361
0.15679
0.150961
0.145113
0.139445
0.134054
0.129
0.124306
0.119974
0.171985
0.167474
0.161824
0.155894
0.150077
0.144526
0.139321
0.134494
0.130059
0.185069
0.180983
0.175284
0.169152
0.163087
0.157285
0.151845
0.146811
0.142209
0.202285
0.197602
0.191462
0.184933
0.178488
0.172324
0.166546
0.161201
0.156291
0.223331
0.217176
0.210248
0.203141
0.196186
0.189552
0.183343
0.177612
0.172368
0.246736
0.239151
0.231348
0.22357
0.216017
0.208829
0.202112
0.19593
0.190325
0.271344
0.262971
0.25444
0.246
0.237812
0.23002
0.222734
0.216028
0.209955
0.297083
0.288396
0.279328
0.27028
0.26146
0.253043
0.245152
0.23787
0.23125
0.324151
0.315445
0.305965
0.296358
0.286926
0.277889
0.269389
0.261519
0.254352
0.352904
0.344289
0.334408
0.324248
0.31423
0.304605
0.295518
0.287068
0.27933
0.383871
0.375176
0.364745
0.353986
0.343416
0.333269
0.323665
0.31469
0.306415
0.417926
0.408368
0.397016
0.38557
0.374512
0.363968
0.353987
0.344615
0.33595
0.456272
0.443953
0.431075
0.418886
0.407488
0.396766
0.386633
0.377058
0.368145
0.50027
0.481355
0.466492
0.453729
0.442296
0.43174
0.421783
0.412303
0.402582
0.23436
0.234336
0.234874
0.235971
0.237639
0.239872
0.242669
0.246007
0.249873
0.254226
0.259031
0.264241
0.269792
0.275623
0.281648
0.287786
0.293943
0.30002
0.305914
0.311521
0.316722
0.321394
0.325383
0.328464
0.330472
0.331313
0.331098
0.329802
0.32725
0.323464
0.318627
0.312786
0.305966
0.29829
0.289878
0.28085
0.271334
0.261456
0.251349
0.241147
0.230978
0.220972
0.211245
0.201904
0.193049
0.184762
0.177106
0.170135
0.163874
0.158337
0.153515
0.149386
0.145924
0.143086
0.140837
0.139133
0.137942
0.137228
0.136965
0.233663
0.233969
0.23479
0.236133
0.237998
0.240378
0.243267
0.246652
0.250515
0.254827
0.259553
0.264646
0.270051
0.275705
0.281534
0.287455
0.29338
0.299212
0.304853
0.310199
0.315142
0.319571
0.323367
0.326392
0.328491
0.329511
0.329349
0.327962
0.325372
0.321667
0.316937
0.311235
0.304616
0.297154
0.288941
0.280085
0.270704
0.260925
0.250878
0.240699
0.230519
0.22047
0.210674
0.201249
0.192296
0.183906
0.176148
0.169074
0.162713
0.157075
0.152151
0.147917
0.144344
0.141393
0.139018
0.137175
0.135827
0.13494
0.134477
0.229928
0.230289
0.231145
0.232504
0.23437
0.23674
0.239606
0.242955
0.246766
0.25101
0.255652
0.260648
0.265945
0.271481
0.277184
0.282978
0.288776
0.294485
0.300009
0.305244
0.310084
0.314412
0.318106
0.32103
0.32305
0.324042
0.32392
0.322639
0.320199
0.316647
0.312052
0.306481
0.3
0.292687
0.284631
0.275933
0.266705
0.257068
0.247147
0.237075
0.226982
0.217
0.207252
0.197857
0.188919
0.180531
0.172765
0.165673
0.159287
0.153619
0.148658
0.144382
0.140761
0.137753
0.135316
0.133411
0.132001
0.131053
0.130533
0.222885
0.223259
0.224119
0.22547
0.227314
0.229647
0.232461
0.235743
0.239471
0.243618
0.24815
0.253024
0.25819
0.263589
0.269153
0.274807
0.280467
0.286042
0.291437
0.296547
0.301266
0.305477
0.309061
0.311894
0.313854
0.314833
0.31475
0.313558
0.311252
0.307862
0.303441
0.298051
0.291764
0.284656
0.276817
0.268344
0.259344
0.249933
0.240233
0.230372
0.220478
0.210679
0.201101
0.191858
0.183059
0.174792
0.167133
0.160134
0.153827
0.148223
0.143316
0.139083
0.135496
0.132513
0.130092
0.128196
0.126787
0.125835
0.125306
0.213559
0.213949
0.214811
0.216149
0.217966
0.220258
0.223016
0.226228
0.229872
0.233923
0.238346
0.243099
0.248136
0.253397
0.258818
0.264324
0.269836
0.275262
0.280509
0.285474
0.29005
0.294125
0.297585
0.300315
0.302207
0.303167
0.303121
0.302028
0.299872
0.296671
0.292462
0.2873
0.281252
0.274396
0.266818
0.258614
0.249888
0.240752
0.231327
0.221738
0.21211
0.202569
0.193238
0.184231
0.175653
0.167594
0.160124
0.153298
0.147147
0.141681
0.136896
0.13277
0.129271
0.12636
0.123999
0.122147
0.120769
0.119837
0.119314
0.202023
0.202388
0.203216
0.204512
0.206278
0.20851
0.211201
0.214334
0.217892
0.221845
0.226162
0.2308
0.235712
0.240841
0.246123
0.251485
0.256847
0.262122
0.267215
0.272029
0.27646
0.280399
0.28374
0.286378
0.288211
0.289158
0.289153
0.288154
0.286145
0.283134
0.279149
0.274238
0.268464
0.261901
0.254631
0.246749
0.238352
0.229552
0.220465
0.211215
0.201923
0.192714
0.183705
0.17501
0.16673
0.158952
0.151748
0.145169
0.139245
0.133988
0.129392
0.125435
0.122087
0.119308
0.117061
0.115305
0.114007
0.113135
0.112656
0.18857
0.188887
0.189658
0.190891
0.192587
0.194746
0.197358
0.200409
0.203879
0.20774
0.211959
0.216492
0.221292
0.226302
0.231458
0.236689
0.241917
0.247053
0.252008
0.256685
0.260983
0.264801
0.268039
0.2706
0.27239
0.273336
0.273377
0.272478
0.270618
0.267797
0.26404
0.25939
0.253907
0.247665
0.240739
0.233221
0.225203
0.21679
0.208102
0.199256
0.190368
0.181556
0.172936
0.164617
0.156699
0.149267
0.142391
0.136119
0.130483
0.125492
0.121141
0.117407
0.114259
0.11166
0.109571
0.107951
0.106767
0.105988
0.105582
0.173129
0.173333
0.173991
0.175115
0.17671
0.178774
0.1813
0.184273
0.18767
0.191462
0.195612
0.200074
0.204796
0.209718
0.214779
0.219915
0.225049
0.230092
0.234955
0.239536
0.243738
0.247461
0.250623
0.253141
0.254914
0.255883
0.255992
0.255209
0.253502
0.250867
0.247333
0.242939
0.237756
0.231859
0.225302
0.218183
0.210591
0.202616
0.194391
0.186014
0.177597
0.169249
0.161079
0.153197
0.145703
0.138675
0.132189
0.126288
0.120999
0.11633
0.112273
0.10881
0.105909
0.103536
0.101652
0.100217
0.0991966
0.0985591
0.0982705
0.155538
0.155532
0.156001
0.15697
0.158449
0.160434
0.162904
0.165818
0.169184
0.173004
0.177181
0.181656
0.18636
0.191223
0.196217
0.201274
0.206364
0.211439
0.216326
0.220879
0.225018
0.228667
0.231781
0.234278
0.236075
0.237107
0.237331
0.236708
0.235172
0.232701
0.229366
0.22522
0.220335
0.214802
0.208668
0.201943
0.194755
0.187324
0.179674
0.171838
0.163962
0.156156
0.148509
0.141118
0.134074
0.127494
0.121443
0.116001
0.111163
0.106883
0.103148
0.0999652
0.0973261
0.0951988
0.0935413
0.0923236
0.0915119
0.0910699
0.0909641
0.73199
0.68589
0.644456
0.604704
0.565692
0.52716
0.489378
0.452796
0.417868
0.385029
0.355272
0.329454
0.307882
0.290269
0.275561
0.263291
0.253659
0.246653
0.241919
0.238897
0.237094
0.236079
0.235453
0.234823
0.233723
0.6971
0.670485
0.63684
0.600234
0.562355
0.524059
0.486073
0.449103
0.413814
0.380909
0.351124
0.324981
0.302705
0.284236
0.269261
0.257434
0.248467
0.242045
0.237791
0.235262
0.233997
0.233576
0.233624
0.233799
0.233758
0.690365
0.663276
0.630673
0.594746
0.556956
0.518367
0.479929
0.442518
0.406932
0.373899
0.344016
0.317686
0.295124
0.276366
0.261283
0.249616
0.241007
0.235028
0.23123
0.229154
0.228347
0.22838
0.228867
0.229463
0.229866
0.689598
0.659114
0.624975
0.588186
0.549758
0.510632
0.47174
0.43398
0.398169
0.365007
0.335029
0.308596
0.285923
0.267084
0.252004
0.240451
0.23205
0.226336
0.22282
0.221017
0.22047
0.220743
0.221448
0.222238
0.222791
0.690198
0.656416
0.620012
0.581621
0.542023
0.502035
0.462513
0.424307
0.388192
0.354822
0.324697
0.298165
0.275438
0.256594
0.241564
0.230111
0.221852
0.216302
0.212948
0.211286
0.210847
0.211198
0.211954
0.212787
0.213421
0.690398
0.653727
0.61495
0.574715
0.533724
0.492705
0.452428
0.413674
0.377165
0.343515
0.313205
0.286573
0.263824
0.245022
0.230076
0.218728
0.210574
0.205118
0.201829
0.200193
0.199735
0.200027
0.200697
0.201432
0.201967
0.690248
0.650742
0.609517
0.567342
0.524865
0.482721
0.441583
0.402177
0.365182
0.331182
0.30065
0.273919
0.25118
0.23246
0.217633
0.206406
0.198347
0.192946
0.189662
0.187971
0.187393
0.187503
0.187937
0.188398
0.18867
0.68987
0.647195
0.603428
0.559312
0.515355
0.472053
0.429988
0.389834
0.352268
0.317856
0.287065
0.260241
0.237561
0.218978
0.204319
0.193245
0.18529
0.179927
0.176615
0.174818
0.174046
0.173871
0.173914
0.173862
0.17358
0.688758
0.642678
0.596422
0.550484
0.505139
0.460697
0.417676
0.376667
0.33843
0.303546
0.272444
0.24554
0.223017
0.204648
0.190226
0.179362
0.171529
0.166204
0.162862
0.160955
0.159951
0.159451
0.158966
0.158036
0.156648
2.36183
2.31993
3.95601
4.67005
0.111151
0.130267
1.31876
0.0702342
3.46805
0.0894088
2.67945
0.14086
0.772575
0.177302
1.40302
0.148884
2.87575
4.43959
0.0850542
1.01002
0.688347
0.143499
3.08633
0.262459
0.0591396
0.0933419
0.0584434
0.458528
2.54346
2.83632
0.0866769
0.105752
3.94288
0.88716
2.8117
0.0988034
1.30702
1.40899
1.40174
0.143891
4.07829
0.0283161
0.121536
0.84821
0.329144
0.184056
3.44725
4.0271
2.81869
3.33828
3.26549
3.78753
0.663478
4.37779
1.27768
3.48751
0.164267
0.659019
0.0791648
3.63235
0.119565
4.23223
0.110248
0.157232
0.0723714
0.769585
0.115703
0.574031
0.823074
3.14664
3.49165
0.168687
0.0798715
1.04733
0.0698344
0.677596
1.13626
4.01632
0.0681432
4.10765
0.832149
0.14413
0.083711
2.57167
0.110289
0.12233
0.076699
4.017
3.96611
0.205515
0.252396
0.14652
0.100742
0.146059
0.087991
2.70578
0.0942684
2.83561
0.0589159
3.61482
0.271629
4.09503
0.296311
0.173016
0.0727606
0.365674
3.26396
0.812483
0.0354771
2.85137
0.146819
0.0898678
3.41871
0.169136
0.658413
2.8018
3.75069
0.136539
0.673748
0.0645951
0.00830194
0.0933134
0.264925
0.0600143
4.01108
0.119097
3.81317
0.93743
0.0859738
4.02516
0.0810414
1.05054
3.14363
1.31745
0.535054
0.0762277
0.317892
0.205988
0.119529
1.01549
0.142762
1.32741
3.66002
0.0105246
2.6463
0.164192
4.69103
0.915165
0.147323
2.74822
0.586236
0.177421
4.77016
1.55204
0.0779861
2.53815
0.0647468
0.135357
1.23833
0.101779
0.119768
3.44867
0.129812
2.95711
0.110781
2.90272
0.185726
0.057322
0.181325
0.0680943
0.163142
0.164072
0.567084
2.70729
0.116061
0.405042
0.936734
2.86765
3.06881
0.144781
1.10543
0.103085
0.663146
1.12265
0.700149
0.0621789
3.05089
0.0308284
3.50266
0.136606
3.90305
3.63941
3.10556
1.29601
1.46133
3.64722
0.0678853
0.140466
2.72966
2.42591
1.16492
0.206589
0.137671
0.139031
0.452761
0.0999654
0.121152
0.293716
2.92946
0.127046
0.0721735
0.129007
1.09552
0.431318
0.67654
4.1568
0.0920862
0.0714258
0.207842
0.255745
0.250477
0.0327815
0.0798266
4.45072
1.25489
3.82388
0.193679
2.89847
0.035501
0.0844951
2.42565
0.100965
0.10137
0.0726921
1.37996
0.0934708
1.30492
0.340652
1.1523
1.60152
0.0885112
0.118707
0.109921
0.621752
0.0774926
0.0794399
0.107914
0.401737
0.147254
0.102823
0.0322408
0.429898
0.0995476
2.82584
0.0862106
0.0573694
3.26246
1.15216
1.25732
0.0850577
0.474303
0.0944312
0.117418
0.0736648
1.06854
0.0606289
0.100828
4.8144
1.3181
0.0571222
0.746979
3.08371
0.0653749
0.0682024
0.0870125
4.73934
0.129992
3.30117
0.175017
3.78579
0.832312
0.608312
0.502983
0.183172
3.08315
0.129204
0.384243
2.49236
3.39088
3.94527
1.57355
0.13559
0.019762
3.48849
1.61749
4.16975
4.08629
0.131908
0.103423
3.33446
3.71125
0.119583
0.171888
0.143313
4.03142
0.104752
0.690083
0.101279
1.01258
0.1422
0.170854
0.130104
3.72963
0.0799674
0.0629765
1.32045
3.7179
0.10161
0.0595013
1.70919
1.24564
0.110064
0.181129
0.0860599
0.0792609
0.0608423
3.70898
0.829602
0.128006
0.667926
0.109211
1.44811
0.218582
0.0908896
3.99345
0.127487
0.0932687
0.0887743
0.00382851
0.493421
0.127367
0.141757
3.44339
0.126124
1.07205
0.092115
0.14976
0.0839535
0.0736897
3.25499
2.67865
0.101096
0.0425902
1.26873
3.53991
1.03853
1.92383
0.854985
0.110025
3.42036
2.97228
2.79569
0.097112
3.78003
0.0254399
0.0720714
0.170983
3.87878
0.112921
3.42398
0.152985
1.53815
2.56703
3.78315
0.769584
0.0611346
0.0706794
0.11221
0.101994
0.0920033
4.09372
0.155769
3.99832
0.904609
0.879708
1.84826
0.112041
1.00871
2.57635
3.90692
0.99977
0.100331
0.304708
3.72843
1.07628
0.086573
0.105357
3.90165
0.135119
2.57366
0.0701619
0.123629
0.109624
2.99881
0.136705
0.000659957
1.34662
0.318568
1.10134
0.0884703
3.14028
0.114032
3.32649
0.116509
0.102137
0.264924
2.86746
3.25948
0.12035
0.144793
0.11372
0.10343
0.214362
0.325382
0.176321
3.88349
0.00288986
0.193508
0.0959514
0.106317
0.134614
0.0578135
0.210667
0.0685105
1.52136
0.165505
0.146479
0.0160805
0.0849194
0.201284
0.100479
1.59972
3.57495
0.977481
0.862647
5.21587
0.376061
3.50299
0.0733265
0.0678624
3.7602
0.113389
0.127717
3.23071
0.12844
3.09203
3.27336
0.123115
0.259662
0.983848
0.137894
0.680713
3.0772
1.04842
3.81175
0.0680227
0.0766863
4.47507
0.0992689
2.62275
0.382861
0.0678457
2.78615
0.204882
0.0603132
0.820883
0.194565
0.0621901
0.938464
0.874687
0.687751
1.38079
0.00805479
0.139423
2.52483
0.0986296
0.142685
0.185518
2.86588
0.149784
1.42894
0.137679
0.0693479
3.64371
0.1095
0.0946907
1.40777
0.128285
0.102592
3.39869
0.121377
1.53646
0.115638
0.545808
0.909207
0.939876
0.136277
0.135777
1.35174
0.105969
0.125309
0.886047
0.11567
0.184764
0.0590863
3.85745
4.07172
2.91003
0.0621196
0.759567
0.102548
3.94129
1.01306
5.87095
0.897749
0.192693
3.84966
4.18912
0.100384
0.178515
0.414821
0.156039
4.67591
3.63119
0.0659189
1.11416
0.124159
3.13425
2.80105
0.142584
1.69616
2.82885
0.138293
3.47296
0.0510791
4.26153
0.11133
0.221971
0.128526
3.25692
1.3411
1.36375
0.0853885
2.87216
2.89704
3.82228
0.0761015
0.120063
0.710589
3.04986
0.0985894
1.28812
0.12518
0.779625
2.76251
0.0867926
0.744876
0.076845
0.106909
0.543821
3.80679
0.202282
1.34165
0.0836811
0.110941
3.41511
3.45653
3.09817
0.243345
0.565156
1.0425
0.657762
0.202693
0.103975
0.072595
3.88019
0.133033
0.131121
1.7597
0.195657
0.168249
0.13069
0.153097
1.47353
0.129889
0.0828285
0.830602
2.93456
0.101084
0.102314
3.45776
0.461807
0.0295484
0.192827
0.927274
0.0892099
0.130676
0.0947588
2.13157
0.112514
0.122996
1.38321
0.0784557
0.177139
0.326819
0.678234
0.0913531
0.14692
4.50423
0.169041
0.0651415
0.108926
0.11771
0.235481
0.121601
3.58851
3.73683
0.42479
3.78441
0.0955014
0.0571209
0.064174
0.0496334
0.164943
0.0621644
0.719144
0.202389
0.0808275
0.162137
1.35069
0.719199
0.217862
0.764684
0.135258
0.122699
0.0795725
0.27881
1.08781
3.56814
1.47812
1.28059
0.0532772
0.0891589
0.0377557
0.198163
0.0924114
3.48039
0.0865333
0.732845
0.103411
3.1718
3.66577
2.61128
0.00562905
0.0654043
0.0698938
4.19689
3.52344
0.665785
0.658687
0.116294
0.0891147
0.105874
3.66572
0.0187107
0.100605
1.3204
0.0950223
0.157897
0.0939264
0.0635122
0.675141
0.199199
0.0874011
0.100677
0.250994
0.111364
2.69059
3.63629
0.10712
1.36671
0.124246
2.67522
0.075025
0.12252
0.103855
0.08649
1.83271
0.124254
0.126507
0.0791178
0.503218
0.0900044
0.188624
0.165002
3.76771
1.35998
0.550273
4.00064
1.44857
2.9324
2.81434
0.086356
0.0644387
0.0658807
0.00138642
0.133639
0.829315
0.156485
0.0938646
0.728963
0.0967963
0.0919078
0.480196
0.109538
0.102006
0.072923
0.548489
0.885749
4.1831
0.0888205
3.15896
1.26587
2.81244
0.743648
4.19533
3.36059
4.76454
0.0667186
0.143556
0.0110854
0.449468
0.121997
1.69718
2.72719
0.115244
1.22275
1.00037
0.0864357
0.0725581
0.112572
3.61925
4.27238
0.0897864
1.36246
1.51409
0.685889
3.36403
9.50921e-05
0.101583
0.493162
0.0148947
2.57182
1.14083
2.92963
1.50639
0.0583785
1.51394
0.0574539
0.00417334
0.653042
0.15747
0.229725
0.101468
0.120845
0.91862
0.143752
0.0695401
0.121603
0.131715
0.78498
0.143003
3.69928
1.42607
0.135537
2.53868
0.163069
1.03284
0.128233
0.106411
0.152117
0.819264
0.631546
0.017255
0.158593
3.29941
4.27292
1.13384
0.121556
0.933221
1.48738
1.41647
5.03051
1.29236
0.242197
0.132767
3.10669
0.0540578
0.0680818
0.283498
3.64346
3.76539
0.102227
0.100032
3.36439
0.0619975
4.0891
3.30357
0.151887
0.100993
3.49472
2.67029
2.57684
0.107928
0.0980156
0.0456721
0.902876
1.31419
0.112768
0.0631556
0.102349
1.12088
0.156398
0.524516
2.74355
0.0886336
0.109987
5.62871
0.0906246
0.759155
0.0751251
0.795004
0.111003
0.0803687
1.55468
0.163616
0.118091
0.102554
0.46015
0.767158
4.00133
0.0767432
0.101888
0.120094
1.35497
1.02495
4.21063
0.0585382
1.00974
1.43016
0.00079674
0.0647091
0.129169
2.44044
0.120529
1.10194
0.159578
0.00314546
1.22847
0.139488
6.08546
4.51439
0.887755
3.69515
3.73941
3.60358
0.0910839
3.70162
1.31112
0.144174
1.2802
0.0963214
0.130858
1.00943
0.123025
0.243255
0.762375
4.65774
0.0857548
0.070747
3.71109
0.212902
0.144776
1.34667
2.78429
1.92903
0.108728
0.313608
4.0039
2.90003
1.5476
0.728335
3.23608
0.254386
0.0639551
0.842084
3.01721
0.114587
1.20491
0.197795
3.29583
0.164739
1.03715
2.49654
0.011316
0.114753
0.110151
3.25887
1.70819
3.25525
2.73429
0.201838
0.509257
0.715481
0.260165
2.66429
0.655075
0.0976867
0.135238
0.123651
0.0523376
0.96132
2.72774
0.0186589
3.25008
0.16247
1.31929
0.0980932
0.0928006
0.0679471
3.62631
3.21358
0.438269
0.770569
0.102478
0.0813296
1.54479
0.0942382
1.82201
1.37671
3.9591
0.0819232
0.566039
1.56059
0.147797
0.190185
0.135331
4.00477
0.135903
0.245047
1.32074
1.37533
0.0774296
0.256257
0.0980897
0.16054
0.0871927
0.0868472
0.698846
0.0791154
0.347654
3.14932
1.02244
3.64017
0.129655
0.325268
0.866813
0.0714129
2.61912
0.116759
0.163107
3.58818
0.157434
0.494471
0.246909
0.0569919
2.88586
0.0947873
0.660141
0.0614036
1.30232
1.39403
3.76977
0.0774689
1.19857
0.104527
0.671857
0.150829
3.43327
1.16456
0.408376
2.84257
0.141709
3.32829
0.118676
2.80725
0.149254
0.0663764
0.133157
1.07499
1.43226
0.0629181
0.107807
1.02922
0.0959931
0.114353
0.0780248
0.0570133
0.146296
4.01349
0.177023
0.12864
1.49192
0.453401
3.58946
0.0465768
0.12675
0.0988125
0.661518
0.195655
0.128604
4.21256
0.804105
0.83486
0.0988312
0.267035
0.948703
3.30241
0.106556
0.102202
0.163815
0.190749
0.109076
1.20883
3.8943
4.53227
0.779322
0.0988694
1.56681
4.01987
0.38359
1.00547
0.151511
2.8236
2.7084
3.44176
0.11476
0.11923
0.322514
3.24317
0.204884
4.08266
0.197088
0.561737
3.0408
0.0730144
0.154445
0.168486
0.09205
0.0869048
0.211779
2.73214
0.0872266
3.72286
0.110979
0.103213
0.0780476
0.0923009
0.685799
0.128794
1.04624
0.967726
0.10168
0.173274
2.76284
2.54418
0.0968679
0.119848
0.164511
1.49586
3.98546
0.358268
3.73999
0.0901291
0.0932176
0.688764
0.110235
0.437608
1.5432
0.101442
0.0732687
0.0188487
0.191608
1.0915
4.47633
1.17917
0.095399
0.342017
0.0910511
4.03369
4.08492
0.11157
0.0921286
1.23626
0.115236
0.0884201
2.62946
2.67047
0.230392
0.0953737
0.0856343
0.602732
2.78707
0.127122
0.0898955
2.5966
3.21513
0.00282658
0.100261
0.10776
0.16426
0.674528
0.674738
0.118368
1.38605
0.120521
0.139189
0.0945166
0.691832
0.0964295
3.43352
3.01344
3.9345
2.54451
1.87585
5.5473
0.10681
3.83994
0.72137
0.0779436
0.400858
0.0279227
0.303821
0.112233
0.105619
0.0683225
3.47663
0.063497
0.427317
1.54064
0.165649
0.323347
0.652306
3.42522
0.040901
3.59099
2.85022
0.161434
0.0878358
0.292637
0.44974
0.264225
1.18559
4.54492
0.14331
0.0766945
0.115069
1.17069
4.04573
0.159852
0.185077
0.0594897
0.0956372
0.134365
0.500985
0.0919227
0.18974
0.30677
2.96626
0.105021
0.317522
3.07274
0.138827
0.34993
0.282376
4.61643
0.358847
0.798763
0.67505
0.128132
5.71638
3.09162
0.0999411
0.893367
1.41032
0.106842
0.147441
0.148169
1.32447
0.105186
0.790609
0.104185
1.54013
3.23008
0.952988
2.90486
0.284632
0.129519
1.0459
1.16084
0.175733
0.17662
0.14915
2.71549
0.148729
0.340758
0.0943856
0.191385
0.832971
0.117902
0.0783858
0.0955639
3.3371
1.01288
0.0904337
0.187701
0.0864963
0.109531
0.129069
2.75806
0.176363
1.14242
3.61403
0.894295
0.00534208
1.20215
2.55943
1.02055
2.92329
0.272407
1.31903
3.75967
3.55145
0.0326653
3.00972
0.10522
3.37034
2.75405
0.0908594
0.814525
1.35651
3.9524
0.997225
0.389811
0.117875
1.31556
3.34271
1.34718
3.7914
0.191519
1.01847
0.097899
3.14964
0.463147
0.0720608
0.131459
0.992172
0.0832901
0.246587
1.00733
0.1042
2.77291
0.0605507
0.122666
1.97943
1.2982
0.190413
0.677376
1.46013
0.198379
0.772852
1.74392
0.111519
0.485524
0.0901292
3.06317
1.1086
0.0631698
4.20065
0.104144
0.693032
1.66087
0.134382
0.0921397
0.67443
0.967431
1.29159
0.084076
3.89184
0.129613
0.755521
4.01443
0.549385
0.183989
1.80978
0.160907
0.112229
0.0102813
1.3079
3.43893
0.115226
3.861
0.312825
0.132068
1.26262
0.143167
0.135575
0.912008
0.164705
0.10367
1.07631
0.0982951
0.131007
0.173469
3.15231
3.19847
0.231015
0.0980587
0.0841859
0.945877
3.9205
0.106894
0.101487
0.366826
3.92477
0.11206
1.17515
0.91325
0.0681288
0.711779
3.87838
0.102065
0.265929
0.100504
2.08097
0.0925838
0.109947
0.199726
0.551346
3.32509
0.0578699
3.75575
0.0858574
2.76258
0.121231
1.23034
0.593677
1.04889
2.91297
0.174976
0.753997
0.194628
0.16808
0.171674
3.07098
3.16212
0.109441
0.111213
0.795135
0.171551
0.141943
0.0646639
4.15502
3.55444
0.981159
3.84776
0.184658
0.0688202
0.994685
0.285714
2.85351
0.0566636
0.148221
0.0695558
0.135433
0.111599
0.121404
0.116277
0.512005
4.2024
3.18807
0.0948509
0.326914
0.871601
3.50606
0.120486
4.05817
2.77138
3.61756
0.151404
0.991542
0.0835071
0.183145
0.136848
0.144977
0.0852815
2.71802
4.05567
0.156059
0.398746
1.00595
0.347136
3.18673
4.03947
0.120237
0.0790123
0.129863
0.348965
0.998661
0.0726438
3.02219
0.856169
0.114044
0.205028
0.183293
0.625038
0.191959
0.0909693
0.105953
0.0928093
0.207905
0.767069
0.170582
3.88138
0.156201
0.1316
0.432786
0.189404
0.102498
3.65648
3.24195
0.13481
3.29735
0.0896896
1.21005
0.156118
0.195679
0.100836
0.0716614
3.13705
0.152165
0.173707
3.68341
2.7617
0.0897888
0.0963393
0.101347
0.179942
1.48002
0.0099947
0.121593
3.95561
0.117428
0.0901511
0.160166
3.58977
0.127069
3.27079
2.90539
0.103159
4.47886
0.17132
0.0568752
4.20469
1.49583
0.0874556
0.00255352
0.677544
0.196283
0.203521
0.0810974
1.39077
2.87363
0.138745
0.0748463
3.18644
0.116542
2.60406
1.50084
0.130364
0.915014
3.92681
0.0860592
0.947146
0.107962
0.15837
0.185904
0.111652
3.46953
3.03446
0.12669
0.0932964
3.59375
0.138201
0.19268
0.20958
0.91913
1.30725
0.0667307
0.0992926
0.0931405
0.108375
0.0645038
0.00161723
0.17165
0.182819
3.40956
0.686605
0.10735
1.81966
0.189062
1.07312
3.95392
1.08452
3.43316
0.314035
0.00410476
0.707561
0.188036
0.118582
2.85619
0.149551
5.59973
3.13956
0.685642
0.145286
3.74208
0.0657253
3.44411
0.121893
0.123813
3.6755
0.459697
1.0746
0.135595
0.112361
0.0749122
0.162799
1.45142
1.26406
0.114379
2.5425
0.553451
3.17093
0.0708827
4.16961
0.132855
0.108106
0.385415
0.0999996
0.687823
3.54144
0.84597
0.0723389
2.97163
1.38198
1.36931
1.01475
0.751344
0.0378234
0.775712
3.51014
0.0955575
0.114163
0.112463
3.73355
0.154199
0.0739451
1.3452
0.792502
0.364169
4.13858
0.952752
0.295343
0.361281
1.32039
0.195237
0.82146
0.0978816
0.10894
0.1087
3.5851
0.141892
1.14277
3.24178
0.0592776
1.04732
3.15485
0.111389
2.66606
0.100971
0.802166
0.186189
0.0608553
0.160345
0.0940102
0.0626457
0.172151
0.141451
0.143767
0.181129
3.04125
0.819368
0.131804
0.795984
0.0947324
0.120961
0.102139
0.120965
0.155823
1.55431
0.0628771
1.81982
3.27989
1.52794
1.1442
0.974542
0.168976
3.41848
0.108927
0.812597
0.134162
0.120262
0.239121
2.88423
0.163496
0.103281
0.0944691
0.310405
0.223207
1.51079
0.760191
1.48068
2.79773
0.115099
0.0885404
4.37681
0.109411
0.139454
0.0653468
0.240441
0.0807524
0.0875835
0.155602
0.0695644
1.18648
3.36439
1.77949
0.210948
0.0949417
1.0125
3.59774
3.02825
0.0684578
0.127245
0.869469
0.0981961
0.0643678
0.193698
3.29709
0.899738
0.0950627
0.109522
0.154559
0.0688233
3.22696
0.114325
0.129571
0.135749
0.133755
3.10015
0.100999
1.55605
0.242162
0.167069
0.0874887
0.084316
3.38582
0.527118
0.0969814
3.90865
0.901867
0.774672
0.0734475
0.115299
1.29301
4.15058
4.11814
0.0922573
0.999265
0.101004
0.0894215
3.40892
3.03219
0.0603149
0.00253894
1.13826
1.49063
0.0949896
0.0611057
3.20655
0.106942
0.781011
0.224341
0.143884
4.53068
0.0983648
0.10812
0.14925
2.61619
0.0962063
0.0693833
0.103831
0.135045
0.346922
0.175373
0.673547
0.893186
0.85023
0.132652
0.120613
0.0932264
0.0979419
0.133634
0.116435
0.793662
0.12677
0.15437
1.26028
3.41019
0.0924392
0.0668929
0.146627
3.60261
0.124
1.02216
0.0529036
0.0941944
0.0159996
0.135774
0.103138
3.88488
0.141045
0.0785435
0.97583
0.0965573
1.3943
0.125893
0.100812
3.55445
3.53444
0.0628089
3.16655
0.100167
1.12817
2.28128e-05
3.18345
0.0889682
1.64981
0.11326
3.42199
0.654595
1.20705
3.05118
3.95513
0.159411
3.82573
0.0750557
0.0747804
0.0893859
3.41793
0.255751
0.0702961
0.887877
2.53283
2.79269
0.19506
4.05911
0.0863364
0.182793
0.0998491
0.632405
0.206756
1.63033
0.115832
0.152498
0.0955922
0.0742072
0.185457
3.09212
0.0990275
0.0938048
4.01045
0.744284
0.0611652
0.241233
3.53069
0.128255
0.114867
3.6824
0.198428
3.63558
1.31606
0.107021
0.526856
0.980374
0.026525
0.178598
0.0948078
0.0641846
0.192673
0.193743
3.37832
0.0691138
1.04845
0.354463
0.136073
3.3488
1.35952
0.186377
0.107
0.0580052
0.0852302
0.0623186
1.32561
2.461
0.0993959
0.119111
0.13594
1.19992
0.179999
0.969103
0.151766
0.118925
0.142768
0.161708
1.60253
0.176832
0.749927
1.21241
0.000472936
1.38399
0.124903
0.99093
0.660239
0.11788
0.113273
0.198981
0.0889634
0.167235
1.2571
3.68211
3.62936
3.09096
0.917188
0.00942903
0.061765
1.33141
0.0734651
1.45604
4.02849
0.0992352
2.64474
0.999328
2.50784
0.152676
0.072524
0.119118
0.0946559
3.04243
0.097531
3.33973
0.407362
0.252095
0.0698562
3.17556
1.23779
0.133075
0.0889142
1.4345
0.165686
0.117391
0.87282
0.978797
0.0901157
0.0859194
2.88771
0.101362
1.18453
0.138914
0.126962
0.188255
3.02026
0.012493
0.0347712
0.097934
0.0947003
0.342509
0.0860679
3.57066
0.433277
0.0319119
0.138494
0.0833136
0.931772
0.269753
0.0571142
1.54273
3.45631
0.153707
1.04652
0.104599
3.11723
0.808406
0.213572
0.297226
0.118044
0.0771603
0.0743698
0.692733
0.735222
0.0888356