/*--------------------------------*- C++ -*----------------------------------*\
  =========                 |
  \\      /  F ield         | OpenFOAM: The Open Source CFD Toolbox
   \\    /   O peration     | Website:  https://openfoam.org
    \\  /    A nd           | Version:  10
     \\/     M anipulation  |
\*---------------------------------------------------------------------------*/
FoamFile
{
    format      ascii;
    class       volScalarField;
    location    "1500";
    object      nut;
}
// * * * * * * * * * * * * * * * * * * * * * * * * * * * * * * * * * * * * * //

dimensions      [0 2 -1 0 0 0 0];

internalField   nonuniform List<scalar> 
10435
(
0.564962
0.396282
0.526313
0.503154
0.453315
0.48547
0.54945
0.700159
0.850585
0.497892
0.425195
0.54991
0.511858
0.950341
0.870645
0.598234
1.02822
0.519719
0.928341
0.553927
0.645366
0.566488
0.558868
0.849678
0.491431
1.43089
1.42241
0.511484
1.3153
0.505034
0.506695
0.435868
0.7435
1.31282
0.714126
0.354478
0.650051
1.45733
1.34644
0.914743
0.509298
0.547561
1.02586
0.491282
0.582376
0.889994
0.494746
1.17913
0.869248
0.644403
0.683685
0.470375
1.30969
1.33446
1.36937
1.26728
0.696003
1.42119
1.18745
0.774287
1.33589
0.379618
1.38072
0.466754
0.566573
0.512036
1.24004
1.30476
0.659963
0.833852
1.33794
1.47542
0.919381
0.520574
0.790199
0.834685
0.796653
0.5708
0.78101
0.840702
0.697141
0.647586
1.27271
1.33209
0.727869
0.415412
0.455856
0.442481
0.580262
0.439604
0.447922
0.455491
0.626217
0.532445
0.435931
0.359305
0.469448
0.73183
1.12347
0.45828
0.654998
0.462453
0.488115
0.437931
0.466565
0.494908
0.61641
0.671041
0.757573
0.778839
0.627568
0.45944
0.680946
0.725413
0.448593
0.556067
0.468917
0.396378
0.415218
0.500162
0.482113
0.744907
0.39151
0.394408
0.450644
1.37808
0.486318
0.623791
0.453647
1.56258
0.496759
0.447179
0.645647
0.911361
1.48463
1.14604
0.322163
0.520447
0.405073
0.551705
0.550343
0.533085
1.27545
0.488084
0.587261
0.721749
0.332525
0.468195
0.98384
0.526459
1.23303
0.605994
0.501098
0.51625
0.4761
1.32046
0.454834
0.396137
0.486194
0.422619
0.542928
0.98408
0.435426
0.629177
0.720173
0.462944
0.76416
0.55166
0.660348
0.46869
0.486699
0.996889
1.30477
0.660912
0.57906
0.404407
0.363641
1.14167
0.61841
1.33695
0.411892
0.478183
0.526387
1.34029
0.544565
1.06245
0.885387
0.590644
0.454815
0.477998
0.506525
1.23912
1.54275
0.33322
0.456994
0.623742
0.924125
0.459016
1.15019
0.618065
0.649117
1.38855
0.509965
1.39509
0.510591
0.444034
0.424902
0.537546
1.35643
0.607403
1.18864
0.542692
0.490218
0.61327
1.375
0.894458
0.666648
1.23105
1.4407
1.0555
1.33293
1.13848
1.29626
0.561699
1.39691
0.673401
1.38442
0.522845
0.488591
0.721077
1.21997
0.720779
1.40904
0.623184
1.55543
1.09882
0.72723
1.44089
0.723536
0.493885
0.489396
1.36336
1.18671
1.29664
0.439453
0.806028
0.390527
0.647472
1.08425
0.382379
1.18307
0.601858
0.510756
0.624032
0.614316
0.457642
1.02104
0.591944
1.2472
1.31236
0.571911
0.482196
1.4003
0.721326
0.621549
1.19952
0.49148
0.527249
1.27145
0.449148
0.553519
0.701209
0.645052
0.500569
1.48199
0.513929
1.5123
0.449463
0.60393
0.734116
0.504508
1.03438
0.53788
0.598849
0.557151
1.19699
0.459529
1.35577
1.32841
1.32627
0.460039
0.436649
1.33748
0.673591
1.36004
1.32463
0.812925
0.587275
0.446463
0.500748
1.2404
0.708799
0.526309
1.15616
0.442276
0.809405
1.06093
0.636581
0.505718
1.32245
0.613709
1.40604
0.356749
0.462064
0.807195
1.29008
1.31409
0.502497
1.27834
0.558736
0.471431
1.35054
0.522545
1.20679
0.768747
0.507794
1.53688
0.518675
1.25695
1.48112
0.823176
1.30496
1.31489
0.532912
0.564334
1.37678
1.25482
1.14262
1.29738
1.26114
1.55983
1.40522
1.30333
1.31117
1.2658
1.31957
1.34377
1.58072
1.17558
0.807064
1.3063
0.503316
1.39804
0.514164
0.801815
0.881232
0.513066
0.52763
1.32024
1.32602
1.1871
1.40234
1.23912
1.23302
1.3386
1.56256
1.34274
0.59279
1.52821
0.834024
1.38511
1.57447
0.513118
0.902936
1.16168
1.44458
1.41343
1.49882
1.33111
1.46747
1.71493
1.36619
0.753338
1.31838
0.679191
0.829303
0.512416
0.51271
0.854601
0.516379
0.758165
0.607189
1.09159
1.32223
1.30793
0.522636
1.32899
0.513215
1.67267
1.34375
1.57027
1.32094
1.28115
0.569152
1.46338
0.71574
0.647754
1.13155
1.5052
1.60018
0.90945
1.64669
1.52332
1.33732
1.24987
1.27499
1.3115
0.517083
1.32783
1.48006
1.31191
1.28157
0.516723
1.07772
1.12257
0.916527
1.3175
7.45308
7.47375
7.45666
7.4319
7.42295
7.45585
7.56907
7.82101
8.30559
6.70091
6.72463
6.7315
6.7352
6.75375
6.80969
6.93473
7.17334
7.58355
5.93797
5.96225
5.98196
6.00281
6.03792
6.10585
6.23234
6.45171
6.80537
5.17988
5.20307
5.22837
5.25774
5.30063
5.37184
5.4921
5.68839
5.99245
4.44787
4.46889
4.49498
4.52662
4.57058
4.63849
4.74673
4.91667
5.17457
3.76507
3.7833
3.80714
3.83677
3.87715
3.93721
4.0296
4.17036
4.37972
3.15257
3.16782
3.18754
3.21249
3.24653
3.29647
3.3715
3.48296
3.64425
2.62688
2.63849
2.65286
2.67172
2.6982
2.73744
2.79599
2.88151
3.002
2.19631
2.20261
2.21078
2.22314
2.24216
2.27157
2.31598
2.38063
2.47088
1.85803
1.85787
1.85994
1.86639
1.87895
1.90018
1.93322
1.98174
2.04979
1.59981
1.59428
1.59175
1.59378
1.60145
1.61641
1.64076
1.67696
1.72778
1.40557
1.3984
1.39389
1.39342
1.39787
1.40839
1.42641
1.45359
1.49181
1.26277
1.25779
1.25365
1.2523
1.25484
1.2623
1.27581
1.29657
1.32582
1.16479
1.16272
1.15976
1.1582
1.15948
1.16469
1.17487
1.19097
1.21388
1.10578
1.10491
1.10243
1.10045
1.10051
1.10377
1.1112
1.12363
1.14184
1.07809
1.07627
1.07309
1.07006
1.06862
1.06988
1.07476
1.08399
1.09817
1.07278
1.06908
1.06434
1.05969
1.05638
1.05546
1.05781
1.0641
1.07477
1.08207
1.07679
1.07021
1.06357
1.05808
1.05476
1.05448
1.05791
1.06551
1.1012
1.0947
1.08624
1.07739
1.06943
1.06347
1.06036
1.06081
1.06534
1.12732
1.11977
1.10932
1.09802
1.08734
1.07844
1.07225
1.06949
1.0707
1.1589
1.15012
1.13736
1.12326
1.10951
1.09736
1.08777
1.08153
1.0793
1.19538
1.18465
1.16889
1.15148
1.13427
1.1185
1.10513
1.09498
1.08884
1.23712
1.22271
1.20279
1.1814
1.16029
1.14055
1.123
1.10844
1.09775
1.28567
1.26363
1.23782
1.21178
1.18643
1.16249
1.14046
1.12094
1.10489
1.34451
1.30568
1.27232
1.24144
1.21177
1.18368
1.1571
1.13211
1.10928
3.69004
3.77314
3.86191
3.95586
4.05478
4.15815
4.26564
4.37662
4.49071
4.60725
4.72578
4.84582
4.96672
5.08807
5.20912
5.3293
5.44794
5.56431
5.67764
5.78723
5.89214
5.99154
6.08449
6.16993
6.24706
6.31528
6.37457
6.42471
6.46532
6.49669
6.51963
6.53473
6.54277
6.54498
6.5428
6.53803
6.53267
6.52895
6.52938
6.53671
6.55381
6.58376
6.62931
6.69302
6.77691
6.88202
7.008
7.15309
7.31306
7.48188
7.65122
7.81115
7.95124
8.06078
8.13088
8.15458
8.12829
8.05119
7.92782
3.65491
3.73886
3.82792
3.92189
4.0205
4.12338
4.23019
4.34049
4.45385
4.56978
4.68778
4.80735
4.92795
5.049
5.16991
5.29003
5.40869
5.52515
5.63867
5.74845
5.85366
5.95346
6.047
6.13342
6.21186
6.28156
6.34203
6.39303
6.43467
6.46736
6.49164
6.50809
6.51752
6.521
6.5199
6.51587
6.51084
6.50703
6.50694
6.51327
6.52893
6.5569
6.60007
6.6611
6.74208
6.84419
6.96734
7.10972
7.26748
7.4346
7.60298
7.76289
7.90373
8.01497
8.08729
8.11359
8.08979
8.01486
7.89247
3.59528
3.67626
3.76243
3.85365
3.94968
4.0502
4.15487
4.26329
4.37503
4.48961
4.60655
4.72534
4.84542
4.96621
5.08711
5.20746
5.32655
5.44365
5.55798
5.66873
5.77504
5.87606
5.97089
6.05868
6.1386
6.20995
6.27225
6.32524
6.36893
6.40358
6.42965
6.44775
6.45867
6.46345
6.46339
6.46005
6.45531
6.45131
6.45049
6.45551
6.46926
6.49472
6.53485
6.59237
6.6695
6.76763
6.88687
7.02571
7.18063
7.34593
7.51382
7.67483
7.81848
7.93426
8.01272
8.04651
8.03113
7.96517
7.85185
3.5034
3.58093
3.66376
3.75176
3.84473
3.94243
4.04454
4.15069
4.26048
4.37347
4.48917
4.60707
4.72661
4.84721
4.96824
5.08902
5.20882
5.32687
5.44238
5.55449
5.66233
5.765
5.86163
5.95133
6.0333
6.10687
6.17153
6.22699
6.27318
6.3103
6.33871
6.359
6.37192
6.37846
6.37987
6.37767
6.37363
6.36987
6.36874
6.37291
6.38523
6.40871
6.44634
6.50096
6.57492
6.6698
6.78598
6.92222
7.07534
7.23999
7.40868
7.57213
7.71997
7.8416
7.9274
7.96966
7.9635
7.90705
7.80312
3.38483
3.45846
3.53752
3.62195
3.71162
3.80629
3.9057
4.00952
4.11738
4.22884
4.34344
4.46064
4.57991
4.70061
4.82211
4.9437
5.06462
5.18407
5.30121
5.41517
5.52503
5.62989
5.72886
5.82104
5.90565
5.98204
6.04968
6.10825
6.15763
6.19793
6.22944
6.25267
6.26835
6.27743
6.28109
6.28081
6.27832
6.27567
6.27521
6.27958
6.29164
6.31443
6.35102
6.40434
6.4769
6.57047
6.68565
6.8215
6.9751
7.14136
7.31301
7.48089
7.63461
7.7635
7.85768
7.90912
7.91255
7.86571
7.77104
3.24254
3.31177
3.3867
3.46731
3.55349
3.64507
3.74181
3.84343
3.94955
4.05977
4.17361
4.29053
4.40997
4.53129
4.65381
4.77678
4.89941
5.02088
5.1403
5.25676
5.36932
5.47707
5.57909
5.6745
5.76251
5.84245
5.91382
5.97626
6.02961
6.0739
6.10939
6.13653
6.15601
6.16873
6.17583
6.17874
6.17916
6.1791
6.1809
6.18721
6.2009
6.22507
6.26288
6.3174
6.3913
6.48656
6.60401
6.74292
6.90061
7.07215
7.25033
7.42596
7.58852
7.72706
7.83139
7.89309
7.90654
7.86917
7.78314
3.08055
3.14493
3.21538
3.29193
3.37454
3.46306
3.55731
3.657
3.7618
3.87127
3.98494
4.10224
4.22257
4.34527
4.46959
4.59478
4.72
4.84435
4.96694
5.0868
5.20298
5.31454
5.42056
5.52015
5.61252
5.69702
5.77313
5.84047
5.89887
5.9483
5.989
6.02139
6.04614
6.06412
6.07643
6.08449
6.08994
6.09479
6.1014
6.1124
6.13073
6.15956
6.20219
6.26187
6.34149
6.44325
6.5682
6.71579
6.88344
7.06622
7.25681
7.44572
7.62199
7.77414
7.89146
7.96507
7.98898
7.96044
7.88154
2.90228
2.96119
3.02672
3.09898
3.17798
3.26361
3.35572
3.45404
3.55821
3.66779
3.78225
3.90097
4.02327
4.14842
4.27567
4.40421
4.53318
4.66164
4.78861
4.91308
5.03408
5.15065
5.26191
5.36697
5.46501
5.55541
5.63765
5.71137
5.77635
5.83258
5.88031
5.91995
5.95216
5.97784
5.99803
6.01423
6.02808
6.04146
6.05685
6.07689
6.10463
6.14338
6.19665
6.268
6.36066
6.47703
6.61838
6.78414
6.97166
7.17589
7.38908
7.60102
7.79972
7.97261
8.10789
8.19591
8.23032
8.2084
8.13269
2.71303
2.76548
2.82544
2.89317
2.96871
3.05196
3.14268
3.24042
3.34504
3.45629
3.57316
3.69491
3.82069
3.94971
4.08129
4.21454
4.34877
4.48302
4.61592
4.74649
4.87381
4.99693
5.11507
5.22737
5.33283
5.43099
5.52132
5.60352
5.67736
5.74296
5.8007
5.85094
5.89414
5.9313
5.96351
5.99283
6.02087
6.04862
6.07915
6.11533
6.16053
6.21824
6.29208
6.3866
6.50575
6.65186
6.82632
7.02717
7.25144
7.4949
7.7501
8.00515
8.245
8.45424
8.61863
8.72579
8.76822
8.74406
8.65806
1.43013
1.37808
1.33771
1.30183
1.26799
1.23579
1.20595
1.17981
1.1593
1.14691
1.14576
1.15902
1.18942
1.2391
1.30998
1.4048
1.52597
1.6747
1.85074
2.05298
2.28039
2.53242
2.80942
3.11324
3.448
1.36
1.34737
1.32269
1.29339
1.26234
1.23122
1.20161
1.17531
1.15447
1.14167
1.13985
1.15203
1.18111
1.22978
1.30056
1.39585
1.51745
1.66622
1.84192
2.04362
2.2703
2.52145
2.79759
3.1009
3.436
1.3383
1.32823
1.30817
1.28212
1.25282
1.22238
1.19278
1.1661
1.14465
1.13103
1.12811
1.13892
1.16653
1.21396
1.28395
1.37875
1.49984
1.64767
1.8218
2.02117
2.2447
2.49168
2.76249
3.05892
3.38463
1.32803
1.31556
1.2957
1.27035
1.24149
1.21107
1.18109
1.15373
1.13133
1.11654
1.1122
1.12137
1.14727
1.19303
1.26148
1.35477
1.47409
1.61956
1.79041
1.98533
2.20308
2.44276
2.70458
2.99003
3.30231
1.32041
1.30558
1.2847
1.25887
1.22959
1.19858
1.16778
1.13933
1.11563
1.09929
1.0932
1.10045
1.1243
1.16795
1.2342
1.32506
1.44146
1.58318
1.7491
1.93763
2.14728
2.37703
2.62698
2.89851
3.19468
1.31298
1.29641
1.27442
1.24775
1.21763
1.18561
1.15359
1.12369
1.09832
1.0801
1.07195
1.077
1.09851
1.13967
1.20318
1.29087
1.40338
1.54015
1.69972
1.88016
2.07973
2.29729
2.53284
2.78773
3.06499
1.30491
1.28737
1.26466
1.2372
1.20605
1.17274
1.13916
1.10748
1.08011
1.05972
1.04926
1.05188
1.07083
1.10922
1.16961
1.25359
1.36151
1.49246
1.64458
1.81563
2.00354
2.20701
2.42588
2.66155
2.91714
1.29517
1.27832
1.25569
1.22764
1.19538
1.16054
1.12512
1.09136
1.06174
1.03895
1.02599
1.02604
1.04233
1.07782
1.13491
1.21491
1.31786
1.44248
1.58653
1.74739
1.92264
2.11064
2.3109
2.5247
2.75521
1.28446
1.27018
1.2484
1.21987
1.1863
1.14966
1.11211
1.07607
1.04407
1.01876
1.00324
1.00074
1.0144
1.04705
1.10091
1.17699
1.27498
1.39325
1.52916
1.6797
1.84212
2.01423
2.1948
2.38478
2.58599
0.512406
0.511968
0.399547
0.525838
1.0678
0.955572
4.17787
1.51977
0.37778
6.76288
0.257261
0.806322
1.91849
0.72193
4.72385
3.30549
0.303503
0.511804
9.38142
1.24045
3.46605
4.97102
0.291321
0.801516
0.765313
1.90456
0.818376
0.964991
0.458048
0.291004
6.65821
2.27223
0.496772
2.26158
0.286297
1.79004
2.58257
4.72364
2.42177
1.36101
0.382759
0.17064
3.76186
1.12767
1.00147
6.03748
0.277897
0.304156
0.425915
0.5346
0.271169
0.363725
4.3176
0.502411
4.11621
0.382349
0.722831
4.21742
0.618769
0.324735
1.8482
0.412235
1.01271
4.24988
1.62213
1.20245
1.67489
0.281032
1.61186
0.494027
0.385122
5.37681
1.03472
1.42614
0.687059
3.59781
1.97164
0.325474
0.772568
0.484169
2.54873
1.99571
2.06191
0.241587
1.35626
1.70713
1.30505
0.330819
0.492991
1.07832
0.942749
1.20902
7.47981
0.81506
0.981348
0.260012
1.84891
0.257432
0.413704
0.326522
0.869706
0.390728
0.892871
5.70092
0.63002
1.058
0.301617
2.82859
0.206783
0.293503
4.57257
0.554215
0.322353
5.74564
4.37157
0.429925
0.434267
1.44661
3.71911
0.360782
0.0803353
0.57101
0.7778
0.746377
0.486758
3.54577
0.367789
1.57438
0.870243
0.304927
1.9123
1.48275
0.484374
2.29266
1.09488
1.22923
0.977988
0.799354
2.20785
1.14076
6.09339
2.28581
0.323751
0.0976675
0.448301
3.55562
0.535943
2.51773
3.23417
0.285211
2.33198
1.2842
0.535835
4.62025
0.623416
0.241541
0.781673
1.48274
2.46384
2.62901
3.93687
0.378135
3.59688
0.262203
5.67934
0.252031
0.772385
0.774035
4.0519
0.744632
0.692065
4.48912
0.290505
0.245992
1.53737
1.06322
3.56028
0.477658
0.380021
6.00826
3.35216
2.16778
4.29767
3.79882
1.265
0.902497
0.255953
0.207717
0.532261
2.89079
0.311575
0.325981
0.482033
2.17767
4.77919
0.526914
0.680808
4.87434
0.440853
0.480537
1.01853
4.90096
1.95006
2.86276
2.1991
4.19947
1.54724
0.875434
0.434862
1.64034
0.639979
0.731944
3.08434
2.13989
2.19413
0.366891
0.774006
1.42907
5.68693
1.07605
0.75057
0.203506
0.601654
0.434378
0.233143
0.415389
1.07496
0.306766
0.196589
1.03882
0.237723
1.88106
1.96327
1.12242
2.43199
5.75853
2.90005
0.849323
3.81224
4.82041
4.3849
1.75912
5.26182
1.1628
1.09945
1.65578
2.48656
1.06251
3.30825
4.19671
0.179445
1.09944
2.61082
0.437549
1.0864
0.756219
0.31095
2.09605
2.57927
9.23231
0.364637
0.884852
2.61657
0.627763
1.57939
0.715627
4.67381
0.54433
4.13221
0.812823
3.31614
0.48199
0.507945
1.28503
9.38487
0.544398
1.4253
0.353095
0.782701
0.328644
1.22991
2.28883
0.319123
6.02611
0.375983
2.36858
1.07243
0.354243
0.289348
0.310058
4.75862
3.7495
0.126375
0.290001
1.12493
0.374639
0.380972
1.30769
2.54848
0.35362
0.331533
4.09477
0.929479
2.91095
0.392635
5.23448
3.32664
2.12919
1.13482
2.14501
5.47372
6.68043
0.518639
0.872739
0.441909
1.91531
0.290184
2.52482
0.808641
1.28731
2.47705
3.136
0.853651
6.73105
1.33965
0.754694
0.43613
2.892
1.34337
4.11836
5.7364
4.78753
0.705125
6.4954
0.342304
1.74248
2.3585
2.23266
0.120922
0.338079
0.712031
0.817259
0.337824
6.77306
1.64918
0.743678
0.797233
1.11236
1.09965
0.263363
0.424574
7.33228
0.176854
2.65034
0.293888
0.208788
1.00696
1.09945
5.02851
0.266687
0.442545
0.278188
3.34954
0.419104
0.177662
1.15885
4.02579
0.301858
2.58963
0.535845
6.30243
4.54277
0.46954
0.397221
1.95458
0.601492
0.459191
6.55516
2.07949
5.76251
0.38739
4.15409
0.487418
1.1199
1.10044
1.07215
5.85477
1.26573
0.259684
0.310866
3.29146
4.28833
1.08124
0.473587
3.5148
8.10273
5.05605
0.497341
1.47499
0.45962
1.53546
3.85074
1.28743
0.533612
0.810536
0.10872
4.41154
1.07733
0.91602
4.33121
0.47444
2.53558
0.351037
2.14899
2.76337
0.137059
0.412328
0.264093
1.55603
1.22541
5.80094
2.18493
1.06569
0.906247
4.21492
0.323613
0.0905476
0.931736
2.64197
2.42416
2.79693
0.757844
1.07892
0.764615
4.60146
3.93562
4.64778
0.118868
1.20257
0.397504
2.93129
4.80328
0.299932
0.991469
1.47155
0.493001
0.890336
0.464153
0.649426
0.780601
0.398938
3.80298
3.48771
0.360339
6.71959
0.497613
0.261575
1.89449
0.905282
1.84256
3.87151
1.27342
0.474717
3.03974
0.328411
1.26922
0.648484
0.427136
3.03787
0.26438
1.08129
1.11018
0.278956
0.346924
0.785392
2.10926
1.08839
0.865833
2.65025
2.77069
2.36614
2.94889
0.134061
0.809907
0.240331
1.18826
2.22994
5.33909
0.491047
5.79999
4.67006
3.5058
0.483957
0.475611
2.5213
0.614801
4.65016
2.48837
6.61943
0.534009
3.89434
4.66612
2.39061
1.08836
3.55087
2.48114
2.79514
2.91665
4.39408
2.29175
5.11518
2.74207
1.55284
1.09898
0.777354
0.301353
0.406779
0.405267
0.561168
2.83214
7.75554
0.311021
1.22469
0.552581
2.01895
5.69634
0.324494
0.415105
3.8894
4.75147
1.05893
5.87524
0.544881
0.421039
0.35152
0.887776
3.85413
0.378838
0.44051
3.61527
1.28745
0.295565
4.91352
0.311841
0.215936
0.441796
2.97807
0.705263
2.54955
0.346161
2.77698
3.25482
0.888865
0.440594
0.410589
0.296456
0.607854
6.94095
2.65143
0.428798
2.36766
2.58271
3.92955
2.05474
0.287757
7.83174
2.86126
0.655365
2.38032
0.310651
0.508743
5.671
4.34729
0.635427
0.905307
0.324427
0.271414
0.4308
0.74769
0.303842
1.22679
4.37068
4.81698
7.65149
1.55967
0.495984
4.92085
0.917833
1.05196
4.8605
0.970471
1.41212
4.20636
4.31856
6.67397
0.626568
2.19831
0.402248
1.12531
2.30527
0.338523
0.965312
0.20795
0.899655
1.61979
1.15437
2.31671
3.04841
0.322482
3.55484
4.00422
2.7167
1.68852
4.00315
0.999729
4.08522
1.13282
0.819834
0.454429
4.6084
1.25561
3.09361
7.00649
1.47899
0.784191
0.32806
0.277877
0.938492
0.500941
0.736854
0.76755
1.02908
0.464334
3.60687
0.349259
3.71983
1.05807
0.575501
1.20029
4.06323
2.82812
0.730587
1.18863
4.77074
0.985602
1.86071
0.849963
0.908211
0.3298
4.40601
2.71843
0.334074
7.1203
0.159459
5.72157
3.42935
0.272849
9.31939
2.70478
3.20003
0.421383
0.448677
0.252152
0.0485917
1.09867
1.40371
0.412067
0.456354
1.17389
4.38737
0.771907
9.04197
1.24252
0.330672
0.164513
2.64045
2.77169
1.76967
6.25784
4.71037
0.489303
4.14923
0.802265
2.11234
4.39976
0.769145
6.43537
0.452469
0.324488
2.38822
4.49372
1.40856
0.264434
1.63954
6.87445
4.18052
1.59632
0.942295
2.36375
5.29634
0.612447
0.326538
1.24134
5.41516
5.73491
0.315807
4.52821
1.99538
0.309837
4.77316
0.49785
0.284459
9.4532
0.82636
1.2265
0.118814
3.34702
1.21413
3.30762
1.84406
2.39122
8.23039
3.35744
0.886155
3.98927
2.07013
1.6534
1.84398
2.93686
0.399031
8.85926
0.382909
3.83075
0.474276
2.71791
0.403403
0.286595
0.546048
1.19312
3.12822
0.120514
0.374431
3.32594
0.989714
0.520658
7.1164
2.25463
0.968615
1.10406
1.64499
2.34084
0.272335
0.462772
2.25637
4.08035
4.31665
3.87284
0.401117
0.058878
4.02219
0.966207
0.161154
0.521039
0.906681
0.28543
4.46487
0.736086
4.47202
0.28719
0.143342
1.20377
0.977027
0.825168
2.45605
3.66924
0.267267
3.08428
0.955487
4.0416
3.19249
0.24889
1.34838
0.335541
4.71534
5.07291
0.407325
4.39608
1.22338
1.35013
7.51313
6.29233
3.07663
2.07548
0.185029
5.80648
0.266648
0.471948
2.7907
2.17791
2.81743
1.09076
3.57417
0.47745
2.79431
0.913904
6.62189
0.290301
0.335593
1.44173
0.974643
0.52798
0.395711
1.86026
1.59195
0.529661
1.00816
0.437851
0.46785
5.87711
1.85116
0.361965
0.489245
0.502057
5.53627
2.45463
0.399753
2.86834
2.79818
4.08526
1.1922
0.618001
2.84913
0.581382
0.558021
0.525131
8.97581
2.98617
0.522504
8.61302
3.56719
0.479861
3.00603
2.26213
0.542178
1.03426
5.32737
7.00646
6.39358
1.14595
3.47955
0.335718
1.70323
3.47623
3.22944
4.49042
1.1806
0.431399
0.321773
1.22832
4.77641
0.05373
0.71
0.624807
0.236857
1.82167
1.5713
3.63039
0.079752
4.19547
3.04888
0.554239
0.537046
2.52357
0.329291
0.31729
0.274003
8.4538
0.508282
4.11664
6.43132
4.16728
1.9272
0.617536
1.70878
2.38465
1.07405
2.59326
0.46802
0.400466
0.484445
0.522242
0.889395
2.90287
4.16512
0.492186
1.01078
7.40402
0.904414
0.308523
0.284755
1.21486
3.74655
0.536807
1.51878
0.948353
3.09552
0.388151
1.73413
0.251389
1.36145
0.467919
3.71729
3.57429
0.499493
0.0912114
0.657934
7.3317
0.355873
0.907437
0.398203
0.436779
5.29133
1.00306
2.74269
1.05249
0.519674
4.1994
3.48894
2.71633
2.53376
0.352162
2.95233
0.266895
0.226416
0.362581
6.21176
3.0287
8.1134
1.67758
1.38372
0.416656
0.430031
0.944284
3.23159
2.11279
0.890415
4.75791
2.94461
1.13736
2.09017
0.429857
0.506762
0.280494
4.70494
3.16113
4.56778
1.8596
0.431655
1.34857
0.832808
3.11436
4.49777
0.632235
1.02085
2.39742
5.49895
0.605356
1.14581
3.7894
1.4128
0.807511
0.369304
1.23291
0.421211
3.71183
0.753089
3.18289
0.480862
0.448599
0.919501
0.693253
0.3388
3.50709
0.506775
1.4464
0.797507
0.434183
5.36205
0.242544
0.608651
3.99889
4.16774
0.445348
0.584873
2.77825
2.17826
0.254424
3.42564
0.355391
3.65104
0.443494
0.2973
0.62294
0.268383
2.58969
0.447228
1.40722
1.35683
1.41053
3.69023
4.76584
0.32159
7.43711
1.62628
2.55342
7.13197
0.557378
0.505858
3.75371
0.307345
4.05498
3.23042
4.18914
1.0916
0.273078
0.343005
6.76123
1.62135
0.164464
4.49051
0.657312
0.424531
0.181351
1.11939
2.2112
1.03296
3.19482
0.359337
5.59658
7.74042
1.14885
4.38871
1.71339
0.253043
0.313439
0.502249
2.63701
1.99115
4.78168
0.442183
1.01652
1.93385
3.26363
0.48969
0.274962
0.269312
2.20668
2.36548
1.00627
0.408274
5.26328
0.445381
1.05744
0.35923
0.478532
0.735481
1.2597
0.800228
7.16316
7.02752
0.152304
0.500519
9.19966
0.521428
2.24883
1.9867
1.43332
4.97884
4.06202
0.610262
1.28154
3.60316
1.25311
4.20243
0.446412
0.247552
3.2448
1.39298
5.57415
0.278824
0.471626
1.02949
0.329921
1.78696
8.20105
3.44778
2.21703
2.15989
4.84875
2.9882
1.21704
0.190074
0.66381
3.68614
0.489668
2.70282
8.20546
0.989681
3.67199
0.423122
0.403471
4.97214
8.05001
2.3262
2.02705
0.596883
0.465453
0.481358
0.307375
6.69894
0.676948
1.10657
0.526809
0.791338
0.378362
0.517199
0.368955
0.130936
2.13116
0.752231
6.18491
0.260672
3.98494
2.87314
3.40767
2.31755
6.50675
1.60619
3.95751
1.50386
0.296883
0.47587
0.419393
0.51793
1.02703
0.545085
2.36135
0.401483
3.80966
1.80003
0.397507
0.273036
0.965101
3.8725
2.22154
0.411955
0.455998
0.705742
1.04116
4.7835
0.684777
0.845301
0.263224
0.268238
0.31553
0.302416
0.260632
0.762669
1.23117
0.933355
0.381843
0.993706
3.02414
0.472539
6.42682
0.524097
1.96823
3.99654
0.408879
3.46204
1.10177
0.727244
3.11504
1.52993
1.03657
7.68207
0.768423
1.02334
0.450688
6.76118
0.707764
0.326687
3.08484
1.00021
0.812914
0.539961
0.728033
0.233169
3.54954
3.72295
0.533884
0.382128
1.52735
3.27736
4.67426
5.07515
2.1069
6.36678
4.29752
2.27951
2.06053
7.58967
4.82266
0.537599
1.56363
0.45669
0.276659
1.83058
1.71478
2.84833
0.950942
5.19053
0.453923
0.271559
6.36784
0.627626
0.802949
5.62435
3.04956
0.657481
0.8509
3.02606
0.393871
1.62356
4.80723
5.91381
5.75598
3.45353
2.71415
0.473298
5.99263
0.875106
0.52665
1.94488
0.109883
2.58341
0.473443
1.18832
0.502569
0.993029
1.46364
0.39781
0.332914
0.331096
0.396608
5.46319
0.366704
0.374116
8.7976
1.78489
4.56989
0.318506
2.74183
1.00832
4.04458
4.05615
0.488835
0.249457
0.392599
5.15113
1.19895
8.00022
0.404328
2.23066
0.626375
2.8791
1.43557
0.50569
1.54657
1.08412
3.43519
0.428657
0.421246
5.03703
0.928695
3.91012
1.09361
4.07196
4.82313
5.11836
3.59818
0.291711
7.27004
1.13088
0.730713
0.531373
1.17871
1.06375
0.394579
7.65768
3.71028
0.282278
6.57432
1.28547
3.72076
3.4368
3.84781
0.951336
0.314621
0.787909
3.66531
0.346176
2.26169
5.17393
1.08885
4.56457
3.1025
0.112044
2.9758
0.494284
2.04605
0.497415
0.75361
2.8344
1.8052
4.43122
0.766203
1.39732
6.14251
3.95882
0.216634
0.603347
5.21375
6.10602
0.53384
0.440583
1.05318
6.2852
1.2392
1.4537
0.324941
2.16619
0.93395
1.0258
0.474535
0.967891
1.30871
1.3297
1.44587
3.84895
0.398125
2.1636
1.07437
4.76014
0.325054
1.51484
2.71133
0.936822
1.06852
0.468512
0.29615
0.469067
0.616642
0.257411
5.36109
4.16446
2.12343
1.27832
0.449481
0.786827
1.17857
4.65357
5.01754
3.9763
0.399922
0.372381
7.34048
5.4499
0.244495
5.30862
0.786632
0.514565
0.37192
0.334472
1.74693
0.44913
5.50549
1.39873
1.58161
0.709016
0.455032
0.551003
1.94235
0.637619
1.29388
2.15774
1.4519
1.89471
1.7354
0.438048
0.411536
8.33725
0.933964
2.62624
0.385294
2.98146
0.421027
0.523614
0.327214
5.69333
1.69409
1.91628
5.84094
6.1511
1.84199
9.1136
0.470421
0.453882
6.23332
0.989082
1.08421
0.692816
0.479056
0.300898
1.48759
0.7644
1.55891
0.983515
2.47607
0.704115
0.441582
1.19747
6.73457
0.747739
4.79651
1.18136
4.8639
1.26559
7.02485
1.35818
1.06672
3.64073
6.1052
0.416037
3.33747
3.88326
0.38707
0.71072
2.68582
0.418463
0.480679
3.32114
0.447707
7.85852
2.71813
5.5418
5.24984
2.21396
1.39281
0.390342
1.24288
4.63687
0.4912
0.468921
3.84094
6.37653
3.58447
5.30229
4.47352
0.181029
3.41495
0.47492
1.99044
8.29549
5.3846
0.50934
2.36064
0.427663
0.486677
0.313437
0.498313
5.13739
0.578013
0.419913
0.280132
9.23892
0.0294469
4.13796
0.805376
5.19941
0.659972
4.58155
0.301552
0.779342
1.1795
0.363846
7.07106
0.418922
1.12948
4.89298
3.28537
0.327632
6.67195
2.2117
6.82192
3.65491
5.58964
2.40727
0.456721
0.383808
4.9726
6.80235
0.404405
4.53419
4.7425
0.735975
1.06309
1.7614
1.34086
1.06603
7.34823
3.03015
1.1465
0.0953325
0.672807
5.90117
0.332849
4.00189
1.4042
0.992522
0.919447
2.72196
0.320726
1.49487
0.342261
0.131675
0.113674
3.88152
5.73759
5.04642
0.427407
3.44637
0.503926
0.440832
3.29179
5.82821
0.278441
0.977979
0.371511
0.827016
1.24851
0.481682
1.08151
2.87845
3.99397
1.52248
0.785871
5.6724
4.72887
0.795482
6.50755
0.522684
1.19853
0.460869
0.745038
0.425483
4.76295
2.49137
0.677157
7.80118
3.91089
0.331132
3.0057
1.03972
0.53365
3.46184
0.249212
1.15465
2.65332
0.376588
2.79098
0.34522
2.67237
0.600353
0.857015
0.459763
0.839574
0.474705
3.2977
3.41748
0.874549
0.390919
2.99455
0.992224
0.954283
4.27187
0.760183
2.77345
0.602519
6.50004
2.57767
0.341121
1.38207
1.48889
0.449877
0.704294
3.3948
0.333115
6.82151
0.252951
3.63175
2.55141
4.63909
0.695102
3.42985
6.13985
0.329439
1.12953
1.33615
0.757686
0.434541
0.491674
3.22216
2.71006
2.33979
1.22094
2.47452
1.85727
5.15655
3.51951
4.88302
0.512308
0.82726
0.490127
4.84977
1.90764
0.204293
5.19952
0.294578
3.7539
0.292164
4.61485
0.748352
1.03483
0.252606
1.18298
3.11146
1.44558
0.958422
0.701793
4.76163
2.85325
0.960268
0.495718
2.76484
2.26176
0.530764
1.7454
1.50139
0.394597
0.815889
1.83296
4.79569
5.65487
0.475761
3.93881
0.477601
1.04799
0.744763
4.90462
3.5548
0.329462
0.401359
0.98098
3.25714
1.08564
3.44396
1.26839
0.706922
0.352597
3.22306
2.03808
3.02618
4.31986
0.647655
0.460786
0.759916
5.03474
2.08579
1.32136
0.406061
6.82749
4.66279
0.130438
0.749748
0.70919
1.57684
0.367552
2.32038
1.50304
0.406494
3.03605
1.09483
1.48583
3.25123
3.98319
0.439262
0.385551
0.574509
1.54693
6.32076
9.03725
0.330414
0.390957
0.685224
0.130091
3.82612
4.46575
4.18347
1.03695
0.379763
2.39725
0.178637
0.984378
1.36454
0.538861
6.75591
5.28919
1.22491
0.523183
2.99164
1.35612
0.950065
6.58165
1.90468
0.925651
3.99207
3.19599
3.03807
6.09252
6.31381
3.02754
0.328493
4.43662
2.3138
3.29055
1.63376
1.01746
0.23908
0.482859
1.58037
0.709629
1.20597
0.307701
1.49606
2.74677
0.238885
8.26696
0.115155
4.59964
6.97116
0.326518
5.18441
0.969574
0.236248
3.44912
3.58271
2.64564
3.78571
0.50432
0.497587
1.19105
0.39576
4.61587
3.01466
0.0218742
0.538065
1.36755
0.902901
3.1189
0.397988
1.12819
4.0276
0.257041
0.294007
1.00255
0.440395
0.460728
0.689385
0.524012
0.38087
0.735036
0.689976
2.04781
0.243735
0.501744
5.58563
0.429861
0.723376
4.52563
1.72423
2.65187
0.824651
4.89326
4.3016
1.19257
6.10051
0.471422
5.10608
0.527093
3.17567
8.0169
0.308928
2.90409
0.951353
1.059
0.337658
6.27008
5.02538
0.395651
5.04537
0.429835
4.29713
3.57309
1.18708
1.44741
0.248034
5.12743
2.81725
1.24966
5.08424
1.08659
0.497497
1.23324
2.76616
0.869187
0.608361
0.373099
0.742966
0.83515
2.57786
0.723678
1.20661
1.1027
0.965274
0.492014
3.36522
3.63148
3.52472
4.08673
0.823395
3.30794
1.48573
0.586802
6.41468
6.18819
0.851374
0.729813
3.67217
3.52011
0.0376715
4.55873
6.7757
2.92388
2.69936
2.49589
3.46501
0.955762
1.17217
4.77548
4.23597
0.389223
0.498173
0.392817
1.91405
0.0702667
1.11928
4.36979
1.48308
4.34149
0.333701
6.89
0.247176
2.45803
0.238661
1.25098
1.33654
3.00402
3.91824
0.53575
3.20803
0.456693
0.407595
0.318225
0.707628
0.26414
3.81801
2.64754
0.776488
0.254675
4.81957
3.51508
3.06401
2.19714
1.18143
0.551666
0.258094
3.6725
3.1855
6.50246
3.57527
5.80401
0.4331
0.0976663
0.278555
3.29635
2.97808
0.848824
1.1237
0.339234
1.03183
0.239782
5.05787
0.489083
2.10896
1.06439
0.782932
4.88652
0.358716
0.637785
3.04742
2.89718
0.371487
2.41199
0.92397
0.794557
3.47192
0.872625
0.913471
3.515
2.48444
5.95845
1.03818
4.39142
0.465812
1.16949
1.87963
1.63688
7.29082
0.283002
0.669222
2.33777
1.5193
4.53898
1.36113
0.385728
4.9449
3.10966
6.88023
2.85259
0.363532
0.343995
0.487661
0.3504
0.535976
0.739739
0.689605
0.656933
2.88926
4.81945
1.41578
3.0999
1.04166
0.269202
5.12755
4.24472
0.429308
0.333317
0.605764
3.68072
1.00242
0.496408
0.368617
0.750737
0.702695
1.61069
7.18499
1.6153
4.53863
1.08356
0.0746269
3.34888
0.973672
1.03615
1.16924
4.31462
6.56423
2.89006
0.43501
1.01834
3.96444
1.77572
1.8194
1.96971
0.387483
2.55071
0.436134
3.13552
3.32782
5.00653
0.372523
1.01953
3.03222
3.3668
0.368057
0.975179
0.853923
3.97356
0.135047
0.418248
0.725738
0.537781
3.0836
6.42759
0.384632
3.96105
3.00025
0.260086
2.53481
4.27172
4.07659
0.813525
4.88568
7.77769
0.24957
8.39909
3.41056
3.09798
0.286294
4.03609
6.47353
4.29041
1.48231
7.68297
2.62344
0.832868
3.55004
6.20303
0.422258
4.80351
0.70003
3.75315
0.447997
2.9454
0.319845
0.463643
9.12847
0.512284
3.92436
3.03189
1.43205
0.788663
0.449449
0.739868
2.20897
0.265935
0.262548
3.91247
0.749983
1.28314
0.337432
0.773423
0.293791
1.28544
5.27247
1.30045
1.61617
1.41873
1.79959
0.514987
4.73307
1.07818
0.327078
0.409191
2.8534
0.758531
0.743742
0.258252
2.02744
0.809697
0.751141
4.78477
1.2278
1.36916
4.2977
0.401373
3.69444
0.726893
1.61391
0.340448
0.443823
0.509521
0.522289
0.333279
1.67612
0.129078
4.52605
0.312836
2.59132
0.382318
1.32051
1.37667
0.750658
8.11569
3.70027
4.51421
3.09008
3.09414
0.713359
0.350865
0.347543
1.01802
1.38842
0.250223
1.04632
1.16245
1.10479
7.29834
0.586559
0.61364
4.40097
6.59027
1.10492
0.830453
0.773693
0.779195
0.412477
3.14232
0.462381
0.471391
0.502698
0.502564
1.06307
7.815
0.324137
0.261217
2.98174
2.0833
6.70178
0.788853
3.64086
0.346277
0.36594
1.26253
5.65488