/*--------------------------------*- C++ -*----------------------------------*\
  =========                 |
  \\      /  F ield         | OpenFOAM: The Open Source CFD Toolbox
   \\    /   O peration     | Website:  https://openfoam.org
    \\  /    A nd           | Version:  10
     \\/     M anipulation  |
\*---------------------------------------------------------------------------*/
FoamFile
{
    format      ascii;
    class       volScalarField;
    location    "1500";
    object      p;
}
// * * * * * * * * * * * * * * * * * * * * * * * * * * * * * * * * * * * * * //

dimensions      [0 2 -2 0 0 0 0];

internalField   nonuniform List<scalar> 
10435
(
-2.50417e-05
-1.97008
-12.5891
-3.71306
-9.52647
-12.9941
-12.6135
-12.7026
-12.8292
-12.121
-4.1312
-8.00138
-12.054
1.88813
1.80699
-12.3
1.89127
-11.9948
-12.8841
-0.510508
-12.7209
-3.37398
-12.2301
-10.1671
-12.5852
1.59627
1.54229
-12.2537
0.977447
-12.7088
-11.6056
-5.24061
-12.9967
1.46974
-11.8201
0.505941
-11.6883
0.333692
2.04795
-11.4432
-13.4372
-12.3233
2.24997
-2.00041
-11.5994
-11.315
-12.7426
1.87471
-12.9397
-3.46397
-12.6399
-11.855
1.61471
0.73336
2.3502
0.69028
-11.1619
1.20117
1.65707
-11.3981
1.75838
-1.03448
1.39588
-11.0628
-11.9965
-12.4543
1.57024
1.53184
-12.8838
-9.41899
1.4114
0.98803
2.61635
-12.2223
1.61453
2.33537
-8.09751
-12.7513
-13.2629
1.595
-5.35792
0.359747
1.76194
1.13892
-6.3443
0.948099
0.443392
-2.26521
1.58232
-0.10927
-3.17079
-4.18153
-0.0911161
1.22008
-0.745335
1.07895
-5.24404
1.86404
2.04474
-6.76751
1.36654
-11.3183
0.890193
-1.46234
-11.8171
-2.82373
-0.596669
-4.35361
-7.51875
1.39177
-2.63239
-10.3791
0.77013
1.06594
-5.67176
-2.52875
-7.46829
0.451894
-2.64207
-6.76141
-7.84596
2.53981
-0.171173
2.11428
-7.12201
1.68525
-5.97226
2.4634
-8.56702
0.557133
2.38427
-5.82113
-12.3501
1.7461
1.14146
2.48544
1.4187
-4.58826
-1.72296
-1.77042
-1.10429
-11.6506
1.75623
-10.1317
-4.23563
2.15926
1.92509
-11.8796
2.04082
-9.80876
1.7711
-11.1431
-0.0600684
-10.3085
-12.2849
1.72579
-8.34118
-0.895282
-12.3476
-3.304
-10.8611
1.844
-4.77409
-7.03584
1.48455
-9.2087
-12.757
-6.33384
-8.97895
-10.3722
-12.0632
1.97193
0.469585
1.9764
-9.46584
-2.09821
-0.20767
1.85694
-1.84996
1.44027
-3.00522
-12.3821
-9.02769
1.57069
-11.3247
2.33973
1.92107
-12.6899
-10.5641
-11.0233
-8.25456
1.87027
1.52913
0.766694
-9.44972
-12.7955
2.25272
1.33289
1.93488
-12.0714
1.68899
2.07878
-12.189
1.41238
-12.3893
-6.92574
-3.70164
-5.45255
1.20436
-5.15832
2.13429
-12.4875
-9.06315
-7.8217
1.78506
2.00846
1.10967
1.98389
0.04256
1.88439
1.32208
1.64354
1.7796
1.93675
1.41326
-12.2266
0.302644
1.6087
-11.6175
2.19349
1.79303
-12.4421
0.227719
-10.7046
0.556827
1.92666
-10.8983
0.77204
-9.94844
-12.0204
-1.28115
1.71213
1.9866
0.715222
-6.0903
-13.125
1.56511
-12.9569
-1.313
-1.0165
-1.56971
1.15939
-12.5073
-6.09038
-13.0423
-10.1202
-2.43731
-12.9984
1.69963
1.52839
-12.7168
-12.1193
1.13315
-8.06005
0.844407
2.07357
-0.634412
-11.9903
2.05686
-7.70044
-12.6458
-13.836
-13.3629
-11.9004
-0.208183
-7.47739
1.41316
-8.62964
-12.5276
-13.877
-12.7305
1.93537
-12.5594
1.53568
0.866306
2.20162
-11.0658
0.580124
1.23558
1.11154
2.01798
-4.5643
1.04076
-13.6407
0.878473
-2.56886
2.14362
0.451627
-7.52833
-12.2274
1.76228
-9.15336
-12.4298
-1.67676
-6.51208
1.9277
2.22621
-10.0997
-12.3185
1.2957
-1.1944
1.10083
-0.0721644
-11.6777
-12.1385
-2.83688
2.01601
-10.9896
1.65724
-7.17271
-12.5154
0.476019
0.444729
2.05962
-13.6823
-12.4219
-0.809072
-12.2734
1.79271
1.13442
-12.1566
1.14385
1.32178
-12.5383
-10.1047
1.3046
1.12799
0.0957403
1.64242
0.29095
-1.49632
1.65256
1.94465
-1.48348
-2.3464
1.1219
1.40308
2.2938
2.17461
-13.3581
1.47087
-12.6988
-1.58746
-12.1587
-14.3193
-14.4433
-12.0479
-12.0563
0.728468
1.37669
0.216628
2.00352
0.469498
1.74547
0.723023
-1.88468
1.23428
-8.73196
1.46205
-13.277
1.93645
-2.28121
-11.6556
-14.8014
2.14586
-3.32714
0.561651
1.00327
1.31914
1.31425
-4.64965
0.841559
-13.4965
1.54275
-13.1137
-14.2994
-12.0103
-11.9156
-14.514
-12.2617
-12.0478
2.20213
1.96504
1.0821
1.68245
-12.5916
1.15977
-12.483
-2.75987
1.06404
-3.8087
1.81432
1.55555
-12.659
0.2711
-13.2308
-9.73395
2.11013
1.27604
-1.41639
-12.1452
-1.56226
1.47252
1.18831
0.542236
1.84229
1.3554
-12.4373
-1.22009
0.775827
0.965864
1.97634
-12.6612
2.20338
2.43053
-13.1968
1.6177
20.5531
9.56175
12.7523
10.0876
10.9111
9.99259
10.0164
9.69592
8.76331
17.3831
8.15736
10.6858
8.90842
9.4194
8.85001
8.83829
8.5875
8.38191
14.3174
6.74375
9.02326
7.88369
8.21589
7.87023
7.83427
7.64902
7.42898
11.878
5.77572
7.62381
6.91874
7.16237
6.9724
6.95106
6.84037
6.67206
9.65593
5.10741
6.48075
6.09027
6.27777
6.19375
6.20004
6.16178
6.03989
7.67893
4.68034
5.57968
5.42076
5.56451
5.54999
5.57827
5.58231
5.53508
6.08501
4.53906
4.91487
4.90882
5.01274
5.04279
5.08907
5.12669
5.13737
4.91385
4.53404
4.43691
4.52498
4.59712
4.65451
4.71267
4.77349
4.74999
4.07458
4.36968
4.05888
4.22592
4.28613
4.36167
4.42755
4.49382
4.536
3.4468
4.00881
3.75027
3.98847
4.05398
4.14183
4.21379
4.28572
4.33401
3.00988
3.66118
3.53661
3.81051
3.88357
3.97569
4.05034
4.12359
4.19849
2.84017
3.50958
3.44587
3.69176
3.76025
3.84511
3.91402
3.97616
4.08655
2.85689
3.5214
3.44643
3.61622
3.66898
3.74008
3.80236
3.86761
3.93496
2.85587
3.57174
3.46916
3.55672
3.59118
3.64615
3.70031
3.76321
3.80586
2.83671
3.60827
3.48183
3.49572
3.51452
3.55516
3.60305
3.66039
3.71447
2.81968
3.58855
3.46136
3.41973
3.42927
3.45949
3.50243
3.55306
3.61633
2.71052
3.43548
3.37112
3.3153
3.32795
3.35456
3.39506
3.43835
3.52218
2.54384
3.17165
3.22053
3.18481
3.21106
3.24149
3.28487
3.33192
3.41361
2.42089
2.91174
3.05218
3.04217
3.0826
3.11817
3.16239
3.21018
3.26673
2.33601
2.7032
2.88509
2.89736
2.94819
2.98914
3.03435
3.0833
3.14075
2.21469
2.53536
2.71942
2.7551
2.8116
2.85734
2.90382
2.95797
2.99702
2.0137
2.42072
2.55524
2.61656
2.67242
2.72008
2.76525
2.82201
2.79122
1.68404
2.40612
2.40994
2.49696
2.54705
2.59306
2.63592
2.68769
2.63623
1.28361
2.43765
2.20599
2.31293
2.36125
2.41318
2.4743
2.5424
2.47256
1.15783
2.74616
2.38189
2.47375
2.48534
2.46262
2.49399
2.55761
2.02397
12.9923
13.216
13.6881
14.2308
14.8286
15.4893
16.1988
16.9562
17.7525
18.573
19.4078
20.244
21.0616
21.8538
22.607
23.3026
23.9353
24.4928
24.9633
25.3428
25.6439
25.955
26.221
26.1915
25.877
25.6584
25.8562
26.4286
27.0549
27.6131
28.2231
28.7352
28.9493
28.9882
28.9468
28.821
28.6164
28.3729
28.0981
27.8229
27.5604
27.3229
27.1112
26.933
26.7874
26.651
26.5225
26.3892
26.219
26.0128
25.7575
25.4429
25.0948
24.7128
24.2766
23.8254
23.3516
22.8645
22.5607
3.20534
2.9341
2.7885
2.65049
2.51506
2.35647
2.20031
2.07639
1.98449
1.92779
1.90931
1.93038
1.99098
2.08991
2.22596
2.39813
2.60591
2.85178
3.14161
3.48485
3.89633
4.39862
4.99539
5.70421
6.46638
7.01658
7.17997
6.9429
6.38751
5.81166
5.39466
5.10087
4.87769
4.70451
4.57257
4.46591
4.37565
4.29817
4.23042
4.17093
4.11837
4.07193
4.03288
4.00345
3.98782
3.99375
4.02962
4.10518
4.2311
4.41981
4.65738
4.90388
5.2218
5.6611
6.1532
6.65809
7.15737
7.66492
8.3551
7.26618
7.46971
7.65064
7.85567
8.07541
8.30995
8.5603
8.82597
9.10587
9.39804
9.70117
10.0129
10.3312
10.6532
10.977
11.3009
11.6235
11.9448
12.2658
12.5878
12.9129
13.2417
13.5661
13.8669
14.124
14.311
14.4387
14.5049
14.4889
14.4233
14.3533
14.2814
14.2008
14.1175
14.0358
13.9571
13.8831
13.816
13.7577
13.7102
13.6757
13.655
13.6503
13.662
13.6911
13.738
13.8025
13.882
13.9749
14.077
14.1853
14.2665
14.3171
14.359
14.3784
14.3681
14.3285
14.2856
14.182
4.34076
4.26812
4.26672
4.27392
4.2919
4.32381
4.37069
4.43474
4.51775
4.62153
4.74794
4.89844
5.07363
5.27416
5.49946
5.74863
6.02017
6.31163
6.6208
6.94419
7.27791
7.61601
7.94978
8.26666
8.54909
8.77527
8.93028
9.00951
9.01828
8.97543
8.90025
8.80239
8.68727
8.55916
8.42062
8.27406
8.12143
7.96542
7.81002
7.65949
7.51925
7.39473
7.29258
7.21873
7.17979
7.18067
7.2253
7.31561
7.45098
7.62768
7.8378
8.09391
8.36887
8.63297
8.90239
9.17427
9.43141
9.68837
9.99308
5.52595
5.62938
5.74251
5.87087
6.01056
6.16085
6.32072
6.48968
6.66697
6.85162
7.04325
7.24136
7.44505
7.65438
7.86852
8.08716
8.30977
8.53509
8.7627
8.99106
9.21819
9.44083
9.65439
9.85367
10.0313
10.1818
10.3002
10.3852
10.437
10.4595
10.459
10.4388
10.4035
10.3574
10.3024
10.2434
10.1827
10.122
10.0671
10.021
9.98745
9.9699
9.97184
9.99597
10.0449
10.1191
10.2185
10.3413
10.4833
10.6389
10.7986
10.9813
11.1667
11.3116
11.431
11.5326
11.6119
11.6936
11.7332
4.50381
4.49294
4.52477
4.56945
4.62633
4.69727
4.78298
4.88388
5.00057
5.13276
5.28174
5.44718
5.62921
5.82717
6.03978
6.26546
6.50232
6.74522
6.99435
7.24622
7.49798
7.74363
7.97787
8.19736
8.39097
8.55828
8.69141
8.79237
8.85967
8.8947
8.9031
8.88283
8.84086
8.78233
8.70406
8.61702
8.52014
8.40894
8.29947
8.19321
8.09637
8.01437
7.95264
7.91667
7.91274
7.94
8.00342
8.10046
8.23035
8.39006
8.57467
8.77702
8.99103
9.20617
9.41726
9.61892
9.80645
9.99807
10.1969
4.73145
4.77367
4.83958
4.92046
5.01288
5.11735
5.23196
5.35822
5.49519
5.64015
5.79441
5.95649
6.12805
6.30714
6.49203
6.68273
6.88214
7.07644
7.27628
7.4747
7.67521
7.86785
8.05009
8.22924
8.37938
8.51928
8.6292
8.72348
8.79492
8.84093
8.87517
8.87709
8.86345
8.84537
8.79872
8.75901
8.71461
8.64018
8.58837
8.5391
8.50112
8.47735
8.47057
8.4852
8.53311
8.59794
8.69762
8.8188
8.96425
9.1288
9.30606
9.48969
9.67012
9.84494
10.0061
10.1474
10.2699
10.3953
10.4993
4.4633
4.44833
4.463
4.5002
4.54288
4.61027
4.6802
4.78598
4.90106
4.99744
5.13531
5.2765
5.43967
5.6219
5.80802
6.01781
6.24468
6.408
6.60136
6.80173
7.02243
7.22248
7.40189
7.6124
7.74248
7.89333
7.98272
8.07886
8.15154
8.19698
8.25302
8.23898
8.22411
8.23273
8.14932
8.14251
8.1606
7.99963
7.91351
7.82707
7.75705
7.6994
7.65609
7.63396
7.71166
7.73854
7.86441
7.96369
8.06339
8.20206
8.38262
8.60133
8.80138
9.00335
9.21297
9.42566
9.61968
9.84415
10.0158
4.2844
4.33892
4.36819
4.45164
4.52785
4.63527
4.71267
4.77838
4.90705
5.11369
5.16429
5.30643
5.4982
5.63669
5.84741
5.92428
6.15542
6.32816
6.52788
6.66238
6.86232
7.01267
7.15922
7.35826
7.44031
7.58529
7.64268
7.73598
7.85533
7.80675
7.97112
7.95155
7.87722
7.93849
7.83596
7.89743
7.76921
7.57328
7.68128
7.60908
7.56701
7.57011
7.50389
7.50258
7.54839
7.53866
7.6091
7.65052
7.86675
8.04553
8.18961
8.34277
8.51552
8.75537
8.97505
9.13873
9.30758
9.15149
9.43334
-2.66113
-2.75238
-2.51738
-2.17637
-1.70913
-1.17034
-0.689836
-0.247627
0.184669
0.539131
0.844594
1.16815
1.45165
1.71353
2.11441
2.67707
3.28492
3.92278
4.64687
5.48991
6.46057
7.57869
8.9077
10.579
12.0672
1.88124
1.95251
1.87064
1.73865
1.65358
1.71919
1.88554
2.08727
2.27634
2.34538
2.2548
2.09867
1.95947
1.88067
1.94351
2.13563
2.30221
2.38148
2.48321
2.6832
2.95184
3.25381
3.57523
3.93098
4.11162
0.892552
0.933778
0.99679
1.06533
1.17531
1.34512
1.5392
1.72576
1.88251
1.9674
1.97882
1.95591
1.93072
1.93299
2.01088
2.17214
2.37763
2.6141
2.90721
3.27594
3.72142
4.24561
4.8547
5.55507
6.41597
1.27125
1.28682
1.35398
1.41594
1.49798
1.60422
1.72379
1.84017
1.94043
2.00854
2.04346
2.0607
2.07715
2.10828
2.17205
2.27363
2.40475
2.56355
2.75872
2.9956
3.27107
3.57587
3.89537
4.19676
4.5101
1.31575
1.32396
1.3926
1.46023
1.54625
1.64367
1.74795
1.84644
1.93268
1.99917
2.04591
2.08155
2.11674
2.16127
2.22704
2.32089
2.44467
2.60152
2.79733
3.03585
3.32009
3.65143
4.03608
4.47218
5.04439
1.40882
1.42601
1.49511
1.55718
1.6372
1.72015
1.80953
1.89199
1.96667
2.02912
2.07829
2.12021
2.16258
2.21036
2.27226
2.35441
2.46086
2.59571
2.76265
2.9621
3.19578
3.45936
3.75142
4.05326
4.42778
1.51892
1.49203
1.56885
1.62189
1.69897
1.77111
1.85399
1.92667
1.99538
2.05612
2.10489
2.1482
2.19399
2.24236
2.30195
2.37866
2.47712
2.60258
2.75863
2.94386
3.16499
3.41722
3.7081
4.0385
4.4733
1.62389
1.53977
1.63652
1.67844
1.75694
1.81937
1.90188
1.96562
2.02873
2.08826
2.13328
2.1739
2.22309
2.27111
2.32778
2.39984
2.49085
2.60612
2.74834
2.91427
3.11945
3.34984
3.63753
3.96001
4.34392
1.61226
1.56601
1.71019
1.73167
1.81042
1.84754
1.93565
1.98503
2.06121
2.11932
2.16555
2.19794
2.24128
2.28233
2.33748
2.4024
2.48471
2.59069
2.747
2.9064
3.08886
3.31771
3.55441
3.67757
3.90665
-13.7733
-13.0216
-0.117542
6.78898
2.49323
2.41538
-2.70261
3.13973
-1.72075
7.11749
-12.3931
3.27822
-15.4686
1.7173
-7.51374
4.8227
-9.00488
6.69627
7.40679
-16.5498
-17.2218
5.41798
-12.0995
5.16148
3.07878
4.22171
3.04079
1.90113
-11.7578
-10.9222
6.69716
5.05981
-14.3971
-11.9096
-11.2976
2.87659
-3.95794
-7.19673
-5.998
5.60343
-13.1023
5.79557
4.83487
1.8132
3.24071
6.84023
-12.0435
-10.4329
-10.9527
-13.862
-12.0346
-12.5338
-16.3533
6.81665
-2.55119
-1.44327
1.69243
-17.175
2.26304
-9.55744
3.09258
0.78781
2.51086
4.87418
3.08113
1.85515
4.60155
5.16247
-13.8374
-12.7361
-2.06627
5.93852
2.62174
-15.3786
2.6977
-17.8613
-14.0709
-12.0354
1.99936
7.08929
-11.9414
3.28993
3.48577
-9.3276
2.67972
3.13248
2.56996
-12.2187
-14.4968
3.74881
4.20365
3.93425
7.06634
3.33362
2.51541
-12.2541
4.09356
-11.7458
5.66516
-9.66921
2.17268
-13.5866
2.15629
5.43534
2.33517
2.16687
-12.1455
-12.9586
3.99082
-10.5304
4.69778
3.60983
-11.2508
5.40446
-16.8415
-10.8596
-13.507
5.89585
-15.3228
3.76512
4.57982
3.52538
5.42731
3.19975
-14.2487
4.84333
-12.7352
-17.0206
1.65842
-10.7108
3.67378
-15.515
-12.2623
-9.48166
1.73874
2.59379
3.25627
2.29655
3.44667
-15.8949
4.39893
-4.70247
-10.2104
4.63521
-11.3551
4.35058
5.71901
-15.2513
3.50563
-11.4838
0.155236
1.22156
5.44595
-7.86905
3.06796
-10.3853
2.5212
5.78805
-12.1417
6.58424
5.19446
-2.16622
4.01707
-11.7763
6.00207
-9.21599
1.63996
2.84664
5.78651
2.53347
1.71744
5.0055
4.83653
-9.49488
4.21369
1.93981
-13.0269
-12.0569
-10.3348
6.14163
-10.8677
5.49942
-15.9217
-10.5965
2.26915
6.49508
-9.57069
3.93914
-14.4632
4.04954
-10.2572
-10.403
-4.9889
-3.57182
-7.8609
-14.3648
2.71747
5.31355
-11.0203
-11.6925
-14.3602
5.45698
3.46726
3.81084
0.457402
6.30439
4.9057
2.22328
-11.536
5.82743
2.33507
3.44381
-10.854
0.328621
-0.0169141
-12.8027
2.41728
6.71149
7.7257
3.14253
2.13809
5.8622
3.16722
1.31396
7.63441
-13.3343
4.26358
-8.71854
3.97549
2.58419
-10.1073
3.03437
5.28319
3.73701
-5.39737
6.53275
-11.7253
1.9551
-10.8057
-7.19156
5.90046
2.96558
6.05488
1.91173
2.6209
2.8971
4.77562
2.25035
4.49214
6.16181
4.05175
2.00644
5.33751
-11.4662
4.53937
2.66152
-11.0639
-13.678
-12.113
9.16868
4.34353
1.64203
3.65606
2.96305
-15.2309
3.29797
6.80605
5.12143
-3.37239
2.86424
-15.6556
-5.65699
5.45112
6.75256
7.87668
4.96694
4.78148
-3.44361
1.60083
-12.0243
1.99095
0.164996
5.63393
6.5636
-10.0303
3.87475
2.05546
7.42982
-12.6465
-10.1748
-5.0175
4.20825
5.42871
-12.6457
-11.7388
-12.94
-12.209
4.14794
6.39449
-10.6528
-11.3307
4.95295
6.36354
3.946
-11.7273
6.44868
-17.5652
4.73729
-16.1518
3.48224
5.40752
6.34787
-14.4636
1.80702
5.41243
-3.29598
-12.0305
5.38942
3.10199
-9.41737
-12.522
4.0882
6.36438
6.67626
2.76357
3.32309
-13.6988
-12.831
4.34541
-16.6122
5.80578
-7.96457
2.15278
6.79461
-12.6023
3.07671
3.26382
3.66517
3.94329
4.75777
3.45685
3.18104
-10.4756
5.63404
-15.1866
2.44288
2.34186
5.60052
2.70548
-10.561
-0.221472
7.15052
4.90788
-12.261
-12.6736
7.63208
-8.52298
1.48806
5.9777
-9.38246
-11.713
-12.0907
6.62827
-13.5451
5.9284
2.59136
5.02548
-12.4706
3.44626
-14.1848
6.83859
-8.22571
-11.7941
-7.67682
-14.1544
3.48674
3.57065
6.44994
6.64482
6.44127
-12.0859
4.16785
-14.0472
1.68611
1.78341
-10.3584
6.20042
-16.5269
-12.7136
-10.0323
-0.779511
6.60492
2.89633
-12.0181
-10.8231
7.90271
6.12313
-14.103
5.94065
-11.4294
3.05711
4.94366
2.59415
-13.6761
3.08837
6.54874
-3.68339
2.87379
0.27469
5.40649
-10.1013
3.31231
-10.411
3.26641
4.10887
7.53437
-10.7324
-10.3807
6.49908
4.13325
5.66725
6.41897
3.6955
2.08482
6.09137
-11.5913
3.98816
6.00312
4.77726
5.04743
3.19439
2.64293
3.4318
2.03953
-3.57304
5.2678
4.22571
5.37428
5.52748
7.09985
6.50678
-7.17438
-12.9307
0.974628
-14.0518
4.33186
2.03885
-5.70417
2.29117
1.97516
-7.71122
5.45277
3.81692
-10.6136
6.83088
-12.7506
-9.11872
3.40177
4.2133
-15.6544
3.96674
1.39867
-10.2093
-11.0867
-11.6298
2.74864
2.41626
1.54776
6.51539
-12.2485
2.01508
2.69233
-11.945
7.20494
3.23117
-12.9414
3.43859
2.59063
-14.8941
-15.0234
-0.127288
-6.70126
6.22238
3.19172
-9.95281
2.61253
3.28085
6.56489
-12.8788
5.35588
-9.24815
4.43533
3.47337
-11.8639
3.3777
2.34645
-8.51632
3.28068
6.97293
-14.1631
4.92165
-4.43507
3.57672
1.90751
-13.586
-11.7134
4.34981
4.00843
-3.50935
4.35053
5.44965
-11.428
4.36719
3.61117
6.53821
-12.4967
-12.0562
-10.5048
3.44594
-0.491274
6.93155
-10.5231
-16.51
6.00812
-11.7516
6.82738
-11.7374
-13.8062
6.17309
5.88921
2.04848
5.30029
4.15899
-3.56852
3.73142
0.697979
4.18588
-10.7976
-11.0896
4.23639
-10.3678
-10.4931
4.59506
-12.4168
4.90819
2.18496
3.94069
2.12958
3.31252
-3.92912
-5.48069
-7.01637
1.68988
-11.4231
-10.6668
-11.9002
3.08119
6.68469
-14.8062
-12.0875
4.40241
-10.2658
4.04383
-13.4587
-10.8369
7.52845
-0.303496
2.18432
5.29088
3.8107
-14.5522
7.26098
-7.91998
2.42863
2.43005
-10.9782
-10.7058
-11.9069
2.09656
3.83963
-15.0869
-16.9591
5.22221
6.82757
3.28985
-13.9924
5.31567
2.42088
-5.21964
6.49906
2.40707
2.61121
4.91076
-9.28724
6.69423
2.17273
-12.3533
-10.8442
2.49888
5.57722
-10.4131
1.96327
6.02969
6.22918
-16.5954
4.71374
3.58738
5.45141
7.55869
5.35909
5.26976
-5.82835
2.9921
5.70636
2.13088
-16.1679
6.83139
2.33451
2.86192
5.18606
2.81147
3.81533
6.47494
1.07027
2.82673
-9.78016
-9.50608
1.87766
-13.7671
2.57969
2.76278
2.63818
6.37493
4.51922
3.79216
-15.3674
4.01233
3.28529
1.29995
-10.4937
-0.524631
1.81262
1.86937
5.04733
2.51772
6.50365
4.0323
0.904934
-9.96651
-9.07044
-12.2194
6.77833
6.93897
4.83128
7.11301
5.54256
-10.7399
10.3539
-17.3367
6.04448
-11.8727
7.31426
-12.0269
4.72516
2.70252
3.26451
-13.2352
-5.83761
1.82028
-16.8394
2.78131
8.13089
2.78078
-11.2078
6.12342
3.96759
-9.23287
2.95893
6.82486
6.29321
5.54305
-15.56
6.34373
3.59888
6.7976
1.75266
6.31614
-11.1931
-12.5142
4.71688
-4.31297
6.44271
-12.4181
3.49537
6.78712
6.03757
4.04714
-5.14877
4.4374
5.6311
2.29636
5.20019
4.44128
5.9666
6.74544
-9.51893
-9.62105
0.341487
-11.0341
-5.90074
-13.1268
-11.4178
8.67391
2.53514
2.75207
6.54412
4.08411
1.43608
4.63713
3.08757
-14.5088
6.25293
5.17162
2.40127
5.72631
4.45164
2.98297
0.468027
-12.3829
-13.0274
7.32971
-11.0712
-1.62859
-12.1471
-17.0567
-13.4054
-12.8515
4.4565
6.71821
4.41108
6.12377
5.60427
3.82172
-11.6243
-12.9345
5.96172
-12.7228
1.02161
6.81601
3.04109
3.46112
-9.28836
2.61705
3.12848
-2.24745
-8.7469
-14.7433
-12.0201
6.55335
6.59675
2.61432
6.23788
-11.9516
-0.0278686
-12.2669
-8.4581
2.56855
-9.39043
3.91893
6.64112
2.143
2.38363
2.32121
6.64465
4.37778
2.64821
3.88679
3.73618
4.95405
3.72113
3.94518
5.96665
-11.4454
-5.73462
5.31232
0.283802
4.75749
-15.6067
2.73986
8.24345
5.87445
-15.211
0.170944
6.31821
4.29907
-11.0623
2.5154
-13.8977
3.78873
-14.7889
-12.3672
-10.4388
4.12256
-9.27452
1.43245
6.31238
-12.3949
5.62222
3.05347
3.52888
-14.7228
-0.315869
5.04239
2.6433
-13.5972
2.67507
1.77708
-9.50109
6.31194
5.27721
-3.27638
-12.1649
-13.7308
6.37001
6.70676
6.30494
-15.0428
-5.01205
5.71595
2.86088
2.3875
-12.864
6.93345
2.9054
-13.3611
7.89743
3.62601
5.00672
7.26678
-14.3169
3.67043
-15.5308
5.94817
3.39712
-12.1774
5.68065
6.59576
6.54695
1.96205
-15.3083
-12.289
6.53952
6.27767
3.56344
-8.4259
-15.5201
0.841291
3.85011
-12.4079
-6.87956
4.06607
2.50243
2.29349
-10.2147
6.10254
-14.2167
4.69184
4.07589
-10.3816
4.33182
5.7239
3.0594
-15.941
-11.1762
-9.75895
-9.95136
6.99966
-13.9396
-8.66257
6.15455
-2.76083
2.83611
2.32614
-15.7937
3.69144
3.13603
-16.6855
2.86376
7.15899
7.03649
-14.6044
1.52531
4.6195
-10.6049
-12.0066
-10.9704
6.28284
3.57045
-10.6003
-11.8406
-11.5477
-15.0166
-13.9298
1.07013
6.43014
-0.656212
-10.4055
5.10714
6.02215
1.17793
-8.68091
4.79479
-1.52686
-13.2796
4.79162
2.37515
6.59488
-9.86773
-3.71285
-11.516
-10.8618
6.87147
1.91683
-0.177932
3.4276
-12.4298
-16.7931
6.3948
3.77083
3.64523
6.74422
-14.4768
-12.5091
3.69703
-10.773
5.4646
-11.6438
6.77344
2.86796
3.20324
-4.28195
-12.0747
1.76885
-15.2323
4.41041
4.58433
-4.8512
4.92035
-8.47462
-9.84794
-10.5641
3.63904
5.72413
-4.18641
4.32001
5.54521
3.14019
-11.1496
4.37564
2.10163
-11.6888
-4.12762
2.40497
3.63489
4.83481
5.45973
2.37996
5.41296
-15.9548
6.23328
3.46358
-10.5595
-15.924
-5.31511
4.08133
3.80777
-0.984426
6.96066
-11.0541
2.43595
2.28404
-11.128
4.21686
3.36504
1.08472
2.77222
-11.4528
6.62039
6.17741
6.10433
-2.97596
-2.78378
-13.5219
3.18878
-13.5494
4.59329
4.77197
4.46581
-10.9522
-10.5815
5.0486
-9.92118
6.92222
-10.8566
3.94332
-11.3165
2.63534
2.87507
4.93846
-1.68733
-6.57692
3.7981
6.4687
-15.7171
6.61581
6.21592
3.29372
6.0638
3.88673
-10.9573
4.93045
4.06843
-9.43782
2.02735
-9.98464
6.76434
5.09139
5.05207
7.6126
5.68127
2.33994
-13.6008
7.58838
1.5944
6.54756
3.34089
-0.659784
-10.6733
5.64503
6.63705
4.02345
5.56675
6.67008
5.78602
-10.4841
7.01927
-16.5412
4.32425
-5.1778
-11.7088
2.02584
-15.4918
4.45229
-12.5159
-12.0527
-10.2218
3.35543
3.66039
1.95651
-11.805
5.80671
2.05844
4.61788
3.21797
-11.0724
2.19533
5.49592
2.30109
7.15814
6.98815
7.52775
-12.2682
8.78641
-14.8112
5.97032
5.19792
6.19386
6.39359
-15.2086
6.9702
-15.3246
-12.6658
2.68826
5.48693
-11.3473
-11.4436
6.64354
6.46783
6.08685
5.57518
6.98239
2.04565
-11.6433
3.90241
7.58185
-14.549
3.26492
0.439461
-6.0051
5.98706
2.63576
6.27238
2.15258
-11.5452
3.30667
-13.9168
5.80592
2.09089
5.41694
-13.7974
-13.9822
5.82597
7.58301
-12.7508
5.85332
2.36472
-9.79444
-11.988
7.20961
6.79221
6.98814
1.83111
-12.9697
2.94828
7.18737
-13.1366
-10.734
6.62601
5.56593
2.6711
7.82008
3.95049
-15.643
3.2246
-10.9059
3.39951
6.40628
2.88735
-15.2819
5.12119
-12.7239
-10.4181
-10.2174
-13.0271
-11.6862
7.03029
4.65761
-13.2489
-14.7922
3.47039
6.23836
3.68591
2.11386
5.41804
3.16246
3.66365
-8.17138
2.53003
1.98594
-5.8582
2.29944
3.51371
4.37346
-10.2688
6.74715
-12.8594
-12.0168
2.28756
5.46004
3.54844
5.07588
3.5407
-12.9704
2.86909
6.41987
3.43768
5.38259
-11.1684
-13.7181
4.914
3.95479
2.56495
6.55725
2.65874
1.91495
7.00263
2.26986
1.32385
-11.7442
6.48308
4.25516
-6.027
3.96517
2.93785
4.40182
3.49694
3.4911
6.05831
-15.2612
4.34889
5.64473
-10.8944
2.592
-0.923617
-6.10758
6.23549
3.64391
6.36543
-8.54684
4.50553
-12.7695
6.84963
-5.5456
-13.8763
-16.706
-11.8085
7.19091
3.13138
-15.326
-13.0455
2.23221
5.59123
7.12649
-12.3321
6.3889
4.20605
6.88857
6.46258
-1.00993
6.98838
2.47899
6.58254
-11.7421
-15.8377
6.26452
7.31013
6.094
5.50348
3.6801
-11.2276
7.12407
0.585818
-14.5738
-16.3177
6.2702
-12.9706
-11.6008
-15.9267
-12.4129
1.39819
-11.6964
-12.8421
-10.2893
6.60626
-10.8728
6.89132
-2.56643
7.40501
6.86115
-12.5396
-9.18662
-11.505
-11.5137
2.0524
5.19073
-2.57775
-13.0454
7.36661
-13.3519
5.70678
-16.0067
6.76968
-11.5325
0.359415
2.35108
3.86852
-16.4574
3.51386
1.05115
-15.6534
5.93188
-10.9801
3.98023
5.23114
-8.15981
-2.24563
3.86995
-15.4613
-7.5336
7.20503
-14.2628
7.1939
6.61732
1.98865
2.53378
-13.3278
-12.3717
6.75769
-14.0976
5.75861
-16.3823
7.25077
6.26541
5.14727
-16.9597
-1.22623
-10.9534
4.69818
-10.7122
2.93595
-14.326
-13.0904
0.267619
6.0446
-11.8948
5.31791
4.32237
6.00435
-11.7115
-13.2993
3.11904
-14.3045
4.06976
3.88365
-3.27001
4.70333
3.42681
-12.9051
6.48082
6.33231
7.5452
3.55148
5.40404
7.37341
-14.0102
-12.0878
3.60784
6.70642
4.14796
-12.0128
-11.8117
3.29713
1.57184
2.14143
-14.5012
1.52922
-1.28667
-13.3627
2.95893
-14.8421
-13.2422
3.15569
3.27301
6.6225
7.03976
2.79049
4.5522
2.28768
1.93122
-12.7948
4.99647
-13.7895
3.16504
-12.6621
5.73381
-10.1431
0.248165
-14.893
-11.6191
2.36037
0.586208
5.10438
5.26998
4.94606
-11.2129
-10.711
6.56618
6.39804
4.28405
5.59436
3.43697
4.0789
-13.5099
-10.6591
-15.3928
-13.7053
6.456
2.80857
-11.7582
5.55308
-11.7369
6.2516
3.21631
2.34327
4.28676
3.29179
4.45511
3.17149
0.569484
-13.6204
-11.8393
7.48085
3.26463
-14.8327
-2.84153
3.73994
-11.5245
-12.9044
-10.2473
5.15403
-16.2319
3.57489
6.5923
6.48463
3.00161
8.59409
-10.1567
-12.5287
6.04706
2.06252
-15.6785
3.95303
-12.9855
-9.91949
4.49038
1.81103
5.50256
2.15223
-11.4135
2.61131
-11.7576
2.16788
6.08657
2.22192
6.66192
1.70762
6.32161
4.7562
6.33447
2.70781
3.88904
-14.0557
6.76613
-9.16162
4.24937
4.61418
5.63886
2.2607
3.73478
-5.41992
-12.7868
4.25002
-12.4325
7.33817
-12.7015
5.7403
6.12406
3.19128
2.77991
-11.2082
4.69657
4.87936
-2.96326
-9.02502
5.26203
6.86627
6.60687
5.70981
-3.85465
3.68883
4.10548
-14.6456
3.33828
7.16032
4.81431
-13.8022
4.5602
-12.1286
-12.2026
7.28545
3.14984
5.70891
6.23292
-14.0302
5.26655
7.02051
5.50324
-15.5811
2.23144
5.96682
2.93931
-5.84952
-9.44612
2.32
3.79062
-10.4524
6.67912
-0.492118
-11.3138
4.89437
-0.987251
-11.926
6.86469
-11.6431
6.40815
4.55077
6.5316
3.28221
-7.33282
-10.2472
5.2839
6.96027
-12.5651
5.03143
5.97927
6.43832
1.64346
-3.67426
2.8909
2.57959
7.20486
4.28773
2.70812
4.42182
2.25901
6.48521
-9.8127
-14.9836
2.63872
-12.5386
2.28411
-14.1017
-11.6716
-14.2042
-10.4691
7.55957
6.02395
-15.0328
6.0884
5.66474
-11.0337
4.40848
4.2278
-12.0864
-15.0496
5.43571
-10.0641
2.59672
-11.6051
2.38111
6.52534
-3.16133
1.96995
-14.0066
4.70663
6.50217
1.84983
4.49793
-7.82218
0.671905
5.29763
-12.6458
1.88466
-12.487
2.16673
-13.9631
4.8913
6.2497
3.5264
7.17757
-16.2286
-9.82395
-14.9992
2.54757
-13.6837
-10.8559
7.46527
-15.8094
-0.423481
6.63391
-16.1311
-11.1549
4.91342
2.33521
2.45061
-13.6418
3.29387
6.90061
-11.4179
-14.8278
1.82886
-13.4887
-11.5905
3.37414
2.0901
-3.11322
2.26158
-15.7509
2.36196
6.34911
3.38104
-10.6068
2.6641
-1.36276
-12.4054
2.99633
-1.27635
-6.93105
6.36018
-12.0238
6.07133
-16.371
5.57742
3.385
4.43855
6.63115
3.79997
4.07297
6.04114
2.368
7.10051
-12.8205
-14.9053
3.82488
-16.632
2.71279
3.48987
4.88605
5.39496
4.54553
-6.77347
6.93357
-3.64403
-12.9703
-5.73726
-14.222
7.51974
5.48643
-12.8846
5.73102
2.75995
4.69058
3.30438
3.68114
-10.4239
5.57616
6.33814
2.87582
2.14729
2.09487
-5.02454
-0.795806
-1.92691
-13.2845
3.7859
3.24295
4.55646
4.54309
2.88933
3.67295
2.16618
3.40948
5.83062
5.80043
6.91697
-2.28839
-12.9445
-11.5747
2.26879
6.02862
-1.53851
-10.2849
-11.1551
2.58106
3.82881
1.61518
6.34334
2.9694
2.26604
-10.5795
-1.03477
3.15442
4.10761
4.80049
2.38159
-12.4194
2.78473
5.11398
3.5357
4.30185
-11.4986
6.96893
-7.73747
7.52622
2.33827
2.45039
6.06506
-11.3795
0.178325
5.00394
-13.4135
-14.5896
1.11606
6.70608
4.43864
-10.8745
-14.14
-13.6607
3.5989
-15.9902
6.38624
8.79095
-10.2856
-10.9966
3.13328
3.77758
-1.89124
-4.42383
6.05604
2.71643
-11.0935
3.29719
7.59533
4.41018
5.62489
4.69992
7.12318
6.49073
6.07217
-12.9168
5.30486
2.82041
2.47365
6.17896
0.721345
2.31971
-16.2028
-1.03291
-0.840598
6.43993
5.84005
4.98835
7.23252
4.70831
3.31675
-15.0416
6.05498
2.36001
7.39444
0.89445
4.22873
2.53005
6.20415
-12.9338
2.86148
-14.3875
4.98841
8.37342
5.80119
4.98519
6.56098
-11.728
5.51095
2.49215
6.21275
5.70444
-10.7446
3.77044
6.12929
-13.708
-13.6181
2.90406
-11.4234
6.46081
-13.144
6.56148
-13.9042
6.70829
-3.00069
3.66139
-12.0149
1.93075
-10.3039
-10.1296
-10.7102
1.41668
-13.689
3.53847
2.70686
3.60071
-11.8286
5.94871
2.47772
-16.1169
-11.0663
-12.3376
6.47772
-13.885
2.49227
4.9218
3.04974
-0.144202
6.19802
-5.85773
5.18153
4.15252
6.60065
6.98545
5.8426
-14.2708
6.20319
7.11092
-11.1577
-0.409611
2.64793
3.5488
-10.6875
5.69709
5.82358
-12.6558
6.12074
-3.60924
-3.35588
5.7346
2.10087
-16.6745
3.82297
5.78291
6.58201
3.01
6.12514
4.03415
-13.2802
2.75972
-10.9937
1.77906
2.27717
-11.2925
0.475504
1.51225
6.1259
2.80064
4.21232
2.77394
-13.2088
-12.0326
6.31862
4.96141
4.0651
-11.0197
2.29985
-1.38996
2.74604
2.2848
6.1022
6.86202
-2.21978
2.28118
-14.1464
-12.1266
6.36989
-9.24812
7.8768
-14.3744
-0.13692
3.12923
5.27594
2.28665
5.24268
4.77248
-10.5919
-6.99526
-13.6325
-11.1214
-16.0942
5.52298
2.80638
-4.38303
2.88057
-2.84163
-13.3029
6.28359
-10.813
-14.8757
-9.9108
5.87869
2.72318
3.77324
6.01138
-13.4878
6.62358
-12.6579
5.98886
7.18578
2.25768
-11.1268
-11.6914
4.0588
6.93407
7.50744
5.77578
4.90081
-0.827405
-15.3005
5.08002
3.37387
-12.0235
6.3442
-12.6902
6.43391
4.04608
6.63155
-11.5074
5.68867
3.82271
6.28261
6.43256
1.94261
4.4101
-11.0507
2.04312
3.8831
4.95082
3.58227
-15.6658
3.1201
2.67892
-6.45143
-11.6459
2.26538
-13.8766
6.24757
-10.6784
-16.2644
5.67615
2.0023
4.68062
4.21405
2.53871
-14.2318
-0.329717
6.07326
3.15502
-7.34893
-7.71353
-9.33644
-14.1694
0.948627
6.95801
-12.1699
2.26701
3.30045
3.55718
6.22697
-14.9529
-13.4014
5.21859
-14.1423
5.75981
-15.303
-2.70213
-10.7968
-13.7127
-10.6592
3.14201
2.014
6.37052
2.28958
-16.6028
-5.3321
6.74454
-0.645335
2.60359
-12.0325
6.13153
-4.25053
-6.98339
-10.6949
2.26809
-11.9351
1.63706
-13.6892
-11.6912
6.53312
2.59758
4.87888
7.18014
4.24758
-4.93166
6.3686
4.36862
-12.7433
2.56631
1.39142
1.93387
5.23353
6.87776
-14.0592
-14.0356
1.71526
-11.2735
3.66888
5.81377
4.85874
-11.9858
-13.0835
-12.3833
4.44301
5.78034
5.64792
-11.0355
1.70151
-0.553535
4.06499
-13.4277
4.32493
1.80045
-15.8982
5.94967
7.11671
2.31845
3.63659
3.86088
7.44916
-4.5176
4.62064
5.93533
-12.5057
4.46608
-10.3029
-10.9438
1.89531
-6.11937
6.97449
-10.6516
7.13523
-10.6216
3.477
5.71325
6.65706
6.87999
5.09951
1.0641
7.7787
-15.8849
4.63473
5.8967
4.70011
-13.6981
5.75446
5.69006
4.63114
-14.2467
3.97083
-10.1755
-9.87589
7.43835
6.96563
-2.44245
-13.3832
-14.9109
-1.818
6.8234
2.33977
-13.2216
-12.2149
-11.225
-10.0661
5.75339
4.99114
4.19961
1.9936
7.54955
6.33429
6.03545
2.68332
6.08733
-14.9834
5.14251
-14.676
5.76186
4.07439
-6.53354
4.16265
-15.9233
2.10621
2.75628
3.66812
3.72867
6.92579
2.72338
-5.23491
0.725907
4.34654
-3.14383
-13.4743
-10.4146
6.96312
0.668146
-10.9318
-13.8753
-12.8007
-13.3327
-10.0062
6.57058
5.18588
4.82393
3.56521
-14.532
-13.2323
2.59377
6.78189
2.0903
7.21433
-10.0839
4.3887
-14.8221
3.49354
2.59026
4.06364
-11.3986
4.2865
-16.5297
-11.6833
1.69828
1.80264
4.02464
6.83109
2.32951
3.25556
-4.12875
6.53685
6.21224
3.87408
6.08613
1.92825
-12.1515
-1.36509
-4.69556
-7.36162
-13.4493
-12.651
2.09871
5.4603
-10.8277
7.4558
3.74663
-16.4073
6.33887
6.00201
5.01
-4.5951
-12.9698
4.84061
6.03215
5.48955
-13.4445
4.35001