/*--------------------------------*- C++ -*----------------------------------*\
  =========                 |
  \\      /  F ield         | OpenFOAM: The Open Source CFD Toolbox
   \\    /   O peration     | Website:  https://openfoam.org
    \\  /    A nd           | Version:  10
     \\/     M anipulation  |
\*---------------------------------------------------------------------------*/
FoamFile
{
    format      ascii;
    class       surfaceScalarField;
    location    "1500";
    object      phi;
}
// * * * * * * * * * * * * * * * * * * * * * * * * * * * * * * * * * * * * * //

dimensions      [0 3 -1 0 0 0 0];

internalField   nonuniform List<scalar> 
16133
(
2.5291
1.04501
-1.40207
-2.17211
-2.5797
2.53931
-2.8922
2.93259
-0.894335
-3.45125
2.68792
1.65767
0.572103
-1.00205
-4.50298
4.93296
-1.41906
0.496465
5.85173
-4.9291
5.08311
1.62863
-6.60308
-0.108655
-3.78663
1.15281
2.26156
0.372264
-0.0747953
-3.55352
0.939423
2.68889
-1.9373
2.86765
2.05426
-2.9846
0.537556
4.06244
0.0136088
-4.6136
3.62427
-3.3038
2.5276
-2.84807
4.88176
-2.13048
1.9649
-4.71617
-0.259938
-4.22951
2.52994
1.95951
0.960869
-0.810603
0.786289
-0.936558
1.08122
0.913783
-1.03413
-1.729
1.26502
-4.03932
4.50331
-0.791364
0.670239
-0.689483
-5.49549
1.19974
4.01086
0.28489
-4.88321
3.94699
-1.00107
0.91241
2.91356
-1.29686
-0.789614
3.02273
-2.55868
0.325571
0.234415
-4.18922
4.52691
-4.41684
4.45501
-1.76717
6.69779
-5.49341
-0.177782
-1.0266
-4.60129
5.49936
-0.36051
-0.00260274
0.00291157
-0.077081
0.076772
0.0410046
-0.00535642
-0.0258277
-0.0098204
-0.202363
-2.43701
2.20059
0.438795
-0.0280783
0.0512516
-0.0166511
-0.00652226
-4.30692
2.87388
3.47961
-1.10755
-5.47438
3.10233
-2.64603
2.56974
3.70056
1.09901
-3.22057
2.04677
-0.0511452
0.153056
0.00820948
-0.110121
-3.25639
-3.19718
3.33969
3.11389
-1.44413
2.49031
1.72725
-2.77344
-2.63611
-4.89932
4.27904
-0.0548798
0.0887854
-0.103899
0.069993
0.0454154
0.0953931
-0.0245533
-0.116255
-4.83063
0.934038
-0.986614
-4.47609
0.182778
-3.75803
-0.92294
-1.01332
-0.427306
0.14784
1.29278
-1.58671
3.94692
1.12373
-3.48393
4.8241
-2.01816
-5.44204
2.89983
-1.03266
0.545555
0.0614674
-0.461132
-0.402961
0.674343
0.189749
2.28631
1.39092
-0.80959
4.31634
-3.95271
-0.129211
-1.82615
-2.51698
-5.44194
5.6899
-4.20391
3.95594
0.129968
0.0440405
-0.128594
-0.0231046
0.0365378
0.0419694
-0.0554025
-0.0174933
0.053455
0.0594313
-0.0173784
-0.0172388
0.00653893
4.50661
-2.3995
-7.00643
-0.0753267
-0.0856097
0.129794
0.0311425
-0.513368
0.779205
-0.615259
0.349421
4.20925
0.0794178
0.0177985
0.0327521
2.51769
-2.11536
-2.98202
0.0947672
0.000349962
-0.00675846
-0.0883586
2.55446
-4.8347
4.38328
-2.10304
2.20495
-1.79769
-4.26129
2.76001
-1.94997
-0.462768
-0.265967
0.215367
-0.0198593
0.310806
-0.0189897
-0.271956
1.21297
2.74918
-4.79944
0.304894
-0.998866
0.0244684
0.00337848
-0.0509516
0.114191
-0.0338967
0.0126723
-0.0929671
-1.05365
0.521585
1.76605
-1.23398
2.21251
-3.53937
-2.93443
0.947041
-1.38439
1.51858
-0.9651
-1.16078
1.2987
0.827189
-5.57363
1.70409
-0.929898
-2.3197
1.44145
2.03107
-2.07905
1.89102
1.28705
1.34877
-1.19432
0.792599
4.86267
-4.57344
0.246491
-0.535732
2.13341
-1.8182
-1.11736
0.80214
0.0572523
0.127482
-0.140694
0.0463457
0.0497333
-0.0595413
5.42824
0.142758
-0.708336
-2.36584
1.9683
1.77077
-1.37323
2.29167
-1.92877
-2.15079
1.78789
4.03227
-3.52105
-2.09793
1.22559
-0.562529
0.814673
-1.47772
2.67491
-2.19209
1.80885
4.61411
1.54823
-2.13005
6.00545
-2.39339
2.45162
0.726812
1.58845
-1.70211
1.33926
3.10905
-2.08959
1.65545
-2.72015
-1.08981
0.788318
5.03487
0.182274
0.679544
-1.07616
-0.987768
0.807559
-0.502648
0.474294
-4.70294
5.09955
-0.287024
-0.10957
1.45016
-1.33314
4.48932
-4.46748
1.26996
-1.29179
1.62798
-2.04205
1.63005
0.811405
4.63221
-0.95429
0.992169
2.75456
0.60947
0.0966572
-0.353762
-0.814584
7.08631
-0.843483
1.43432
-0.916602
0.831058
-0.503446
-3.53614
0.0868805
-4.25665
-1.62989
-1.59002
-1.06296
0.834783
-1.00265
0.846946
-0.145981
-3.76864
-3.7005
-0.437801
4.81346
0.723891
2.11028
-3.39023
-2.51355
3.80584
-4.89327
-0.049884
4.50537
2.30108
3.00396
-0.491567
0.693144
-0.177956
-1.48029
2.46487
-2.54668
-1.08362
0.693198
2.72894
-2.3385
-3.33206
3.55951
2.42847
-2.65591
-0.0544861
0.126381
0.00778085
-0.0796759
-0.145425
0.938748
1.48446
-1.73006
6.40772
-5.18735
-0.0669608
0.0535859
-0.012999
0.0263738
1.86831
-2.01317
-3.0808
-2.89727
-3.11982
-1.0198
0.739256
-0.0151525
0.123744
0.00560006
-0.0592178
0.153495
0.096932
-0.191209
-0.868315
1.06659
-2.91841
0.145406
4.96983
-2.89297
-3.2442
0.667437
-1.17837
0.847736
-4.07017
5.53162
-0.101072
-0.147754
-0.213943
-0.87487
2.9935
-5.98735
3.86873
4.76897
1.08982
-1.09193
1.08204
-1.07993
2.48134
-2.65645
1.16928
-4.05675
-1.01247
0.786408
-0.565306
3.87267
1.84862
-6.59615
-0.567374
0.163056
-0.056814
-1.7983
-6.04323
2.67366
-2.26688
4.61707
2.24909
4.90454
2.41399
-0.183856
0.0462556
0.310436
-0.172836
3.89371
2.0008
-2.33499
0.836498
-2.47387
2.88475
2.82722
-3.2381
6.97603
1.77593
-3.21808
-5.53389
-0.902255
0.668743
-4.20339
4.37975
5.31082
-5.26266
-0.862741
-0.892639
1.49462
4.69954
4.00928
-2.85311
2.19958
-2.56704
-4.89461
0.174653
4.67008
-3.8535
2.97772
-2.23242
3.10819
-4.87329
-5.94876
-0.337112
-3.42768
0.533593
-0.555536
-1.03171
-0.00258037
0.0158762
-0.0121909
-0.00110492
-0.677998
0.691667
4.91354
-4.7928
1.72789
-2.05352
-3.31255
-2.93479
-0.745142
0.703219
-0.0793009
0.121225
-3.14333
0.274631
-0.0151959
0.100421
-0.0339732
-5.08705
-0.346751
-3.8047
2.09032
0.105359
-0.0804277
-0.894697
-1.70115
3.03208
-3.65063
3.23761
3.88409
4.04811
3.97845
-3.10497
0.153325
0.0569644
-0.153037
-0.0738467
-0.00826656
1.41412
-3.12098
1.63103
-1.99396
2.67662
-3.1648
-0.547708
0.833935
-0.899493
-2.17583
0.077042
2.44467
1.3722
0.18022
-0.0144716
-0.220628
-3.04941
2.58711
0.193678
-1.15672
1.47972
-2.91777
4.36298
-1.59118
-0.0702125
0.097667
0.0377034
-0.0406033
4.94525
-0.25374
-0.00294934
-0.310684
2.90949
2.34081
4.9349
0.0392589
-0.000834791
-1.09001
0.939858
-1.12989
1.62187
0.137247
-0.138145
-0.174014
0.174912
-0.0624156
0.0598128
0.575544
0.0911011
-0.0521156
-0.0541814
0.718703
-0.187919
0.172434
0.237189
-0.173972
-0.164289
1.19617
-0.122144
-1.75202
-0.0264407
-0.0984388
0.168044
-0.0431643
2.66455
0.0608063
-0.0657533
0.00494696
-0.554699
-1.8225
3.92866
-5.4471
1.34801
0.963642
0.513986
-0.489595
-0.103691
-2.70554
-0.00160936
1.52622
-5.79352
-0.0734308
0.0652258
0.0342867
-0.0260817
-0.473429
-5.65799
-0.100389
-0.0191047
0.0930532
-4.46591
-0.887186
-2.91497
5.68019
-3.03225
-0.0289033
-0.148126
0.07859
0.263404
-0.319739
0.193582
-0.0212985
-0.0300435
0.0339637
-2.30666
2.17478
-0.784295
2.35875
1.3887
-1.07083
-0.00258391
-0.00424792
0.00683177
-1.72424
-3.31131
0.0124975
-0.0241067
0.0116092
1.58157
-3.89098
0.861207
1.3839
-0.657066
1.29813
0.00832449
0.00417296
0.519988
-0.174193
-0.218997
0.367581
0.252035
-1.32611
1.88502
-0.289192
-0.706237
4.44017
0.179457
-0.0648526
0.0387209
-0.933938
0.227331
-1.11406
1.47907
-2.61236
-0.594028
2.33669
-0.812646
3.97532
0.0553067
0.00450606
0.90883
-4.23201
1.66408
-0.876976
-2.44132
1.31958
0.866301
0.370089
-2.40116
1.88344
-0.174644
-0.0315658
0.0680642
5.99362
-0.0832466
0.0496571
0.0605615
-0.0638729
-0.0828227
0.122778
-3.10165
0.0964393
0.101648
-0.1078
0.0196043
0.0253934
-0.0449977
-1.40445
-3.82238
4.61344
-0.432412
0.215891
0.278668
-2.12663
0.00437869
-0.00696261
-1.62874
-5.05197
0.26143
0.0486439
0.0695359
-0.0685228
0.458971
-0.180403
-0.0346251
-3.24491
-0.166166
-3.62418
-1.92746
-0.00450238
0.13669
0.31797
-0.110856
-0.620998
-0.0323367
0.0430399
-0.0103532
0.0557557
0.166859
-0.165651
-0.380502
-2.64738
-3.34493
0.0520461
0.00326054
0.216573
-2.10858
0.0496091
1.51911
-0.0601374
0.06544
0.0598922
0.0615832
-0.0728315
0.659022
0.169675
-0.0466398
0.0168536
-0.0265429
-0.00378772
0.00786429
-0.130581
0.220777
-0.0819861
0.0113709
0.00888395
0.0544661
-0.00241997
0.00806753
-0.0202584
0.188389
0.0407253
0.00717377
-0.0136124
-0.178106
2.03992
-1.48231
1.33341
0.00639318
-0.077082
-0.0256149
0.30564
-0.445232
-0.670012
1.0565
0.598725
-1.42262
-1.06585
-0.0221949
0.0341208
-0.0554312
0.0421444
-0.0709095
0.00520696
0.0129957
0.0158062
-0.00192564
0.0563917
-0.124918
-0.0631
2.08339
-0.0125075
0.0481251
-1.72413
0.515108
-1.72884
-0.744651
-0.0981797
0.00336462
-0.0289795
-0.0580509
0.0182622
-0.0469852
0.0621734
-0.0218057
0.686436
-0.934006
-1.1574
0.853051
-0.0992122
-1.57057
-0.364053
-0.0368688
-0.0242695
-1.56682
-0.830469
-0.0354181
-0.0315366
0.0351261
0.13741
-0.481155
0.0449943
0.0204396
-0.0614999
1.40855
-0.0205257
0.0196102
0.0184487
0.0722733
2.93374
0.246653
-0.203784
-0.832906
-0.205031
-1.01533
-0.00381796
0.115645
-0.111827
-0.00840225
0.120108
-0.115524
-0.0129721
0.130862
-0.126293
-0.0179529
0.139994
-0.135013
-0.0230703
0.149605
-0.144487
-0.0284971
0.158315
-0.152889
-0.034054
0.166916
-0.161359
-0.0397627
0.174994
-0.169285
0.182685
-0.177161
-0.0452874
-0.00350494
0.11915
-0.00758648
0.12419
-0.0116758
0.134952
-0.0161302
0.144448
-0.0206613
0.154136
-0.0254495
0.163104
-0.0303413
0.171808
-0.0353344
0.179987
0.187734
-0.0403833
-0.00339952
0.12255
-0.00684447
0.127635
-0.0103975
0.138505
-0.0142372
0.148288
-0.0181739
0.158072
-0.0222909
0.167221
-0.0264935
0.176011
-0.0307778
0.184271
0.192077
-0.0351205
-0.00309298
0.125643
-0.00602994
0.130572
-0.00905537
0.14153
-0.0122814
0.151514
-0.0156062
0.161397
-0.0190661
0.17068
-0.0226
0.179545
-0.0262196
0.187891
0.195805
-0.0299481
-0.0026654
0.128308
-0.00511952
0.133026
-0.00762259
0.144033
-0.0102627
0.154154
-0.0129829
0.164117
-0.0158092
0.173507
-0.018717
0.182452
-0.0217278
0.190902
0.198947
-0.0248694
-0.00212485
0.130433
-0.00410914
0.13501
-0.00611272
0.146037
-0.00819967
0.156241
-0.0103434
0.166261
-0.0125716
0.175735
-0.0148727
0.184754
-0.0172767
0.193306
0.201493
-0.0198229
-0.00137061
0.131804
-0.00296968
0.136609
-0.00453488
0.147602
-0.00613358
0.15784
-0.00774427
0.167872
-0.00940854
0.177399
-0.0111482
0.186493
-0.0129921
0.19515
0.203489
-0.0149875
-0.000454257
0.132258
-0.00179364
0.137948
-0.00298219
0.148791
-0.00413063
0.158988
-0.00525357
0.168995
-0.00641165
0.178557
-0.00763514
0.187717
-0.00897115
0.196486
0.20493
-0.0104121
0.000243181
0.132015
-0.000819762
0.139011
-0.00160349
0.149574
-0.00231164
0.159697
-0.00297742
0.16966
-0.00366804
0.179248
-0.00443663
0.188485
-0.00531479
0.197364
0.205965
-0.0063497
0.000440606
0.131574
-0.000220278
0.139672
-0.000506703
0.149861
-0.000745804
0.159936
-0.000973253
0.169888
-0.00126774
0.179542
-0.00166382
0.188881
-0.00220504
0.197905
0.20665
-0.00289028
0.000282397
0.131292
0.000143861
0.139811
0.000387251
0.149617
0.000589971
0.159733
0.000739065
0.169739
0.000763225
0.179518
0.00064244
0.189002
0.000331189
0.198216
0.20718
-0.000199314
0.00021237
0.131079
0.000620665
0.139402
0.00126535
0.148973
0.00179916
0.159199
0.00220529
0.169333
0.00246081
0.179263
0.00253026
0.188933
0.00241097
0.198336
0.207597
0.00199416
0.000613507
0.130466
0.00142991
0.138586
0.00226064
0.148142
0.00294696
0.158513
0.00348061
0.168799
0.00383422
0.178909
0.0039891
0.188778
0.00391668
0.198408
0.207881
0.00363251
0.00134585
0.12912
0.00242893
0.137503
0.00331094
0.14726
0.00403096
0.157793
0.00458457
0.168245
0.00494264
0.178551
0.00509015
0.18863
0.00499652
0.198502
0.208211
0.00466732
0.00209199
0.127028
0.00338505
0.13621
0.00427997
0.146365
0.00497694
0.157096
0.00549679
0.167725
0.00582461
0.178223
0.00592887
0.188526
0.00577185
0.198659
0.208622
0.00536001
0.00249052
0.124537
0.00403472
0.134666
0.00497946
0.14542
0.00569004
0.156385
0.0062076
0.167208
0.00652117
0.17791
0.00660156
0.188446
0.00641803
0.198842
0.209073
0.00596741
0.00230041
0.122237
0.00414156
0.132824
0.0052721
0.14429
0.00610976
0.155547
0.00671099
0.166607
0.00707934
0.177541
0.00718289
0.188342
0.00701334
0.199012
0.209577
0.00650881
0.00180692
0.12043
0.00382099
0.13081
0.005225
0.142885
0.00628833
0.154484
0.00706001
0.165835
0.00754836
0.177053
0.00773271
0.188158
0.00758915
0.199155
0.210084
0.00708294
0.00141783
0.119012
0.0034471
0.128781
0.00507223
0.14126
0.00638371
0.153173
0.00738444
0.164834
0.00807363
0.176364
0.00842938
0.187802
0.00843621
0.199149
0.21044
0.00807957
0.00123376
0.117778
0.00323023
0.126785
0.0050102
0.13948
0.00655487
0.151628
0.00780552
0.163583
0.00874344
0.175426
0.00934027
0.187205
0.00956875
0.19892
0.210605
0.00940443
0.00118385
0.116594
0.00321083
0.124758
0.00513361
0.137558
0.00689954
0.149862
0.00841545
0.162068
0.00963715
0.174204
0.0105193
0.186323
0.0109944
0.198445
0.210614
0.0109852
0.00130138
0.115293
0.00342463
0.122634
0.0054979
0.135484
0.00747588
0.147884
0.00927322
0.16027
0.0108278
0.172649
0.0120775
0.185073
0.0129132
0.197609
0.210257
0.0132702
0.00172501
0.113568
0.00391676
0.120443
0.00611449
0.133286
0.00828377
0.145715
0.0103698
0.158184
0.0122979
0.170721
0.014008
0.183363
0.0152984
0.196319
0.20964
0.0159153
0.00246732
0.1111
0.0046553
0.118255
0.0069288
0.131013
0.00928609
0.143357
0.011665
0.155805
0.013976
0.16841
0.0162212
0.181118
0.0180558
0.194484
0.209035
0.0186604
0.00330053
0.00529978
0.0077192
0.0103828
0.0131509
0.0159106
0.0189228
0.0221983
0.0262021
-0.0878547
-0.00127299
0.0891277
-0.0864306
-0.00142412
-0.0848451
-0.00158544
-0.0830845
-0.00176063
-0.0811419
-0.00194262
-0.0790094
-0.00213249
-0.0766797
-0.00232972
-0.07415
-0.00252968
-0.0714143
-0.00273564
-0.0684742
-0.00294011
-0.0653297
-0.00314454
-0.0619838
-0.00334587
-0.0584416
-0.00354217
-0.0547059
-0.0037357
-0.0507848
-0.00392108
-0.046684
-0.00410083
-0.0424152
-0.00426873
-0.037991
-0.00442418
-0.0334311
-0.00455989
-0.0287615
-0.00466954
-0.0240199
-0.00474158
-0.0192615
-0.00475844
-0.0145558
-0.00470562
-0.00997526
-0.00458053
-0.00554284
-0.00443239
-0.00117765
-0.00436518
0.0032534
-0.00443102
0.00788827
-0.00463486
0.0128233
-0.004935
0.0180153
-0.00519203
0.0233456
-0.00533021
0.0287261
-0.00538049
0.0340984
-0.00537225
0.0394102
-0.00531182
0.0446146
-0.00520442
0.0496739
-0.00505922
0.0545554
-0.00488155
0.0592317
-0.00467624
0.0636845
-0.00445277
0.0679004
-0.00421595
0.0718761
-0.00397564
0.0756147
-0.00373863
0.0791228
-0.00350803
0.0824134
-0.00329063
0.0854977
-0.00308425
0.0883925
-0.00289477
0.0911076
-0.00271511
0.0936562
-0.00254853
0.0960437
-0.00238751
0.0982738
-0.00223005
0.10035
-0.00207603
0.102271
-0.0019212
0.104046
-0.00177517
0.105677
-0.00163034
0.107166
-0.00148916
0.108519
-0.00135329
0.10974
-0.0012214
0.110843
-0.00110246
-0.000984438
-0.0872627
-0.00259508
0.0885847
-0.0858367
-0.00285006
-0.0842979
-0.00312421
-0.0826365
-0.00342205
-0.0808465
-0.00373259
-0.0789139
-0.0040651
-0.0768315
-0.00441215
-0.074585
-0.00477614
-0.0721659
-0.00515475
-0.069564
-0.00554209
-0.0667696
-0.00593885
-0.063776
-0.00633953
-0.0605746
-0.00674357
-0.0571663
-0.00714398
-0.053549
-0.0075383
-0.0497251
-0.00792482
-0.0456996
-0.00829416
-0.0414817
-0.00864207
-0.0370797
-0.00896193
-0.0325061
-0.0092431
-0.0277708
-0.00947686
-0.0228728
-0.00965643
-0.0177964
-0.009782
-0.0125059
-0.00987103
-0.00698798
-0.00995031
-0.00129464
-0.0100585
0.00448081
-0.0102065
0.0102403
-0.0103944
0.015915
-0.0106097
0.0215218
-0.0107988
0.0271009
-0.0109093
0.0326502
-0.0109297
0.0381415
-0.0108636
0.0435467
-0.010717
0.0488336
-0.0104913
0.0539733
-0.0101989
0.0589387
-0.00984694
0.0637122
-0.00944967
0.0682754
-0.009016
0.0726179
-0.00855848
0.0767303
-0.00808805
0.0806038
-0.00761206
0.0842393
-0.00714358
0.0876344
-0.00668572
0.0907917
-0.00624147
0.0937153
-0.00581835
0.0964135
-0.00541333
0.09889
-0.00502502
0.10116
-0.00465714
0.103234
-0.0043048
0.10513
-0.00397147
0.10686
-0.00365174
0.108439
-0.00335374
0.109885
-0.00307588
0.111206
-0.00281081
0.112421
-0.00256846
0.113538
-0.00233801
0.114568
-0.00213195
-0.0019408
-0.0953543
-0.00407215
0.0968314
-0.0937618
-0.00444263
-0.0920459
-0.0048401
-0.0902037
-0.00526422
-0.0882187
-0.00571755
-0.0860828
-0.00620106
-0.083785
-0.00670995
-0.0813181
-0.00724303
-0.0786706
-0.00780221
-0.0758323
-0.00838035
-0.0727944
-0.00897678
-0.0695497
-0.00958422
-0.0660928
-0.0102005
-0.062418
-0.0108188
-0.0585214
-0.0114349
-0.0544066
-0.0120397
-0.0500703
-0.0126305
-0.0455176
-0.0131948
-0.040752
-0.0137275
-0.0357769
-0.0142183
-0.0305921
-0.0146616
-0.0251981
-0.0150504
-0.0195939
-0.0153862
-0.013788
-0.0156769
-0.00780448
-0.0159338
-0.0016876
-0.0161754
0.00451535
-0.0164094
0.0107544
-0.0166334
0.0169754
-0.0168307
0.0231475
-0.0169709
0.0292627
-0.0170246
0.035309
-0.016976
0.0412664
-0.016821
0.0471086
-0.0165592
0.0528144
-0.0161971
0.0583595
-0.015744
0.0637217
-0.0152092
0.0688829
-0.0146108
0.0738281
-0.0139612
0.0785416
-0.013272
0.0830156
-0.0125621
0.0872441
-0.0118406
0.0912226
-0.0111221
0.0949475
-0.0104106
0.0984264
-0.00972028
0.101658
-0.0090495
0.10465
-0.00840573
0.107414
-0.00778881
0.109959
-0.00720244
0.112299
-0.00664487
0.114448
-0.00612024
0.116418
-0.00562158
0.118222
-0.00515795
0.119872
-0.00472642
0.121386
-0.00432417
0.122772
-0.00395455
0.124049
-0.00361485
0.125219
-0.00330182
-0.00301477
-0.10197
-0.00559223
0.10349
-0.10033
-0.00608231
-0.0985571
-0.00661308
-0.096642
-0.00717933
-0.0945773
-0.00778226
-0.0923532
-0.00842519
-0.0899601
-0.00910302
-0.0873833
-0.00981977
-0.0846167
-0.0105688
-0.0816492
-0.0113479
-0.0784721
-0.0121538
-0.0750714
-0.0129849
-0.0714425
-0.0138294
-0.0675741
-0.0146872
-0.0634647
-0.0155443
-0.0591059
-0.0163985
-0.0544988
-0.0172376
-0.049643
-0.0180506
-0.0445402
-0.0188303
-0.0391931
-0.0195654
-0.0336051
-0.0202497
-0.0277802
-0.0208752
-0.0217268
-0.0214397
-0.0154628
-0.0219409
-0.00901369
-0.022383
-0.00241802
-0.0227711
0.00427439
-0.0231018
0.0110121
-0.0233711
0.0177475
-0.0235661
0.0244452
-0.0236686
0.031081
-0.0236604
0.0376342
-0.0235292
0.0440817
-0.0232685
0.050402
-0.0228794
0.0565684
-0.0223635
0.0625604
-0.021736
0.0683575
-0.0210063
0.0739333
-0.0201865
0.0792706
-0.0192985
0.0843576
-0.0183589
0.0891814
-0.0173859
0.0937334
-0.0163926
0.098008
-0.0153966
0.102004
-0.0144071
0.10572
-0.0134358
0.109166
-0.012496
0.112347
-0.011586
0.115277
-0.0107195
0.117965
-0.00989042
0.120432
-0.00911134
0.12269
-0.00837831
0.124757
-0.00768857
0.126641
-0.00704245
0.128364
-0.00644947
0.12994
-0.00590004
0.131383
-0.00539699
0.132701
-0.00493353
0.133906
-0.00450678
-0.00412153
-0.110826
-0.00725379
0.112488
-0.109023
-0.00788614
-0.107073
-0.00856251
-0.104968
-0.00928429
-0.102698
-0.0100525
-0.100254
-0.0108687
-0.0976237
-0.0117337
-0.0948011
-0.0126423
-0.0917742
-0.0135958
-0.0885326
-0.0145895
-0.0850667
-0.0156197
-0.0813678
-0.0166839
-0.0774266
-0.0177706
-0.0732381
-0.0188757
-0.0687923
-0.0199901
-0.064087
-0.0211038
-0.0591195
-0.022205
-0.0538869
-0.0232832
-0.0483933
-0.0243238
-0.0426389
-0.0253198
-0.0366328
-0.0262557
-0.0303832
-0.0271249
-0.0239046
-0.0279182
-0.0172161
-0.0286294
-0.0103463
-0.0292527
-0.00333285
-0.0297846
0.00378382
-0.0302185
0.0109609
-0.0305482
0.0181561
-0.0307613
0.0253315
-0.030844
0.0324547
-0.0307836
0.0394954
-0.0305699
0.0464241
-0.0301972
0.0532153
-0.0296707
0.0598443
-0.0289925
0.0662809
-0.0281726
0.0725021
-0.0272274
0.0784873
-0.0261718
0.0842163
-0.0250275
0.0896762
-0.0238188
0.0948499
-0.0225596
0.099735
-0.0212777
0.104323
-0.0199849
0.108618
-0.0187013
0.112621
-0.0174397
0.116337
-0.0162118
0.119779
-0.0150279
0.122955
-0.0138949
0.125878
-0.0128143
0.128562
-0.0117954
0.131023
-0.0108389
0.133278
-0.00994346
0.135347
-0.00911122
0.137235
-0.00833768
0.138961
-0.00762632
0.140537
-0.00697261
0.141975
-0.0063722
0.143291
-0.00582189
-0.00531822
-0.119141
-0.00899825
0.120886
-0.117249
-0.0097787
-0.115202
-0.0106089
-0.112988
-0.011498
-0.110594
-0.012447
-0.108013
-0.0134496
-0.105233
-0.0145141
-0.102241
-0.0156343
-0.0990254
-0.0168112
-0.0955785
-0.0180364
-0.0918876
-0.0193106
-0.0879443
-0.0206272
-0.0837368
-0.0219781
-0.0792569
-0.0233555
-0.0744997
-0.0247473
-0.0694603
-0.0261432
-0.0641353
-0.02753
-0.05853
-0.0288886
-0.0526435
-0.0302103
-0.0464834
-0.03148
-0.0400552
-0.0326838
-0.0333738
-0.0338063
-0.0264548
-0.0348373
-0.0193216
-0.0357626
-0.0120049
-0.0365695
-0.00454028
-0.0372492
0.00303259
-0.0377914
0.0106744
-0.03819
0.0183449
-0.0384318
0.0260052
-0.0385044
0.0336206
-0.038399
0.041154
-0.0381033
0.0485738
-0.037617
0.055851
-0.0369479
0.0629528
-0.0360943
0.0698539
-0.0350738
0.0765271
-0.0339005
0.0829398
-0.0325845
0.0890754
-0.0311631
0.0949144
-0.0296578
0.100448
-0.0280931
0.105663
-0.0264927
0.11056
-0.0248819
0.115135
-0.0232764
0.119395
-0.0216995
0.123345
-0.0201615
0.126993
-0.0186762
0.130352
-0.0172538
0.133438
-0.015901
0.136267
-0.0146241
0.138857
-0.0134291
0.141224
-0.0123098
0.143384
-0.0112715
0.145356
-0.0103097
0.147156
-0.0094267
0.148795
-0.00861079
0.150287
-0.00786435
0.15165
-0.00718471
-0.00655729
-0.128488
-0.010866
0.130356
-0.126459
-0.011808
-0.124258
-0.0128097
-0.121876
-0.0138807
-0.119301
-0.015022
-0.116519
-0.0162317
-0.11352
-0.017513
-0.11029
-0.018864
-0.106824
-0.0202773
-0.103105
-0.0217554
-0.0991269
-0.0232885
-0.0948806
-0.0248735
-0.0903535
-0.0265051
-0.0855389
-0.0281702
-0.0804311
-0.0298551
-0.0750269
-0.0315475
-0.0693205
-0.0332364
-0.063324
-0.034885
-0.0570359
-0.0364984
-0.0504664
-0.0380495
-0.0436193
-0.039531
-0.036512
-0.0409135
-0.0291628
-0.0421865
-0.0215906
-0.0433348
-0.0138342
-0.0443259
-0.00592668
-0.0451567
0.00209006
-0.0458081
0.0101828
-0.0462827
0.0183133
-0.0465623
0.0264409
-0.0466319
0.0345324
-0.0464904
0.0425411
-0.0461121
0.0504336
-0.0455095
0.0581809
-0.0446951
0.0657432
-0.0436566
0.0730988
-0.0424293
0.0802167
-0.0410185
0.0870488
-0.0394166
0.0935857
-0.0377
0.0998059
-0.035878
0.105701
-0.0339887
0.111258
-0.032049
0.116474
-0.0300977
0.121345
-0.0281479
0.125882
-0.0262361
0.130087
-0.0243671
0.133972
-0.0225612
0.137546
-0.020827
0.140825
-0.0191809
0.143829
-0.0176282
0.146571
-0.0161708
0.149078
-0.0148171
0.151363
-0.0135559
0.153445
-0.0123916
0.155339
-0.0113209
0.157064
-0.0103358
0.158634
-0.00943462
0.160062
-0.00861219
-0.00785483
-0.137842
-0.0128477
0.139823
-0.135697
-0.0139527
-0.133375
-0.0151317
-0.130854
-0.0164017
-0.128128
-0.0177481
-0.125175
-0.0191843
-0.121995
-0.0206938
-0.11856
-0.022299
-0.114854
-0.0239825
-0.110892
-0.0257174
-0.106649
-0.0275314
-0.102116
-0.0294068
-0.0972854
-0.0313359
-0.0921448
-0.0333108
-0.0866924
-0.0353075
-0.0809178
-0.037322
-0.0748161
-0.0393381
-0.0684215
-0.0412796
-0.0617315
-0.0431885
-0.0547495
-0.0450315
-0.0474739
-0.0468066
-0.0399338
-0.0484535
-0.0321508
-0.0499696
-0.0241148
-0.0513708
-0.0159037
-0.052537
-0.00753627
-0.0535241
0.000928143
-0.0542725
0.00948137
-0.054836
0.0180798
-0.0551607
0.0266768
-0.055229
0.0352545
-0.0550681
0.0437367
-0.0545943
0.0520948
-0.0538677
0.0603268
-0.0529271
0.0683455
-0.0516754
0.076163
-0.0502468
0.0837641
-0.0486196
0.0910211
-0.0466737
0.0979649
-0.0446438
0.104577
-0.0424901
0.110842
-0.0402537
0.116756
-0.0379625
0.122288
-0.0356304
0.127451
-0.0333111
0.132276
-0.0310605
0.136726
-0.0288172
0.140845
-0.0266803
0.144627
-0.0246087
0.14807
-0.0226245
0.151208
-0.0207661
0.154065
-0.0190272
0.156664
-0.0174162
0.159025
-0.0159172
0.161169
-0.0145352
0.163115
-0.0132671
0.164884
-0.0121054
0.166489
-0.0110392
0.167952
-0.0100756
-0.00918784
-0.147933
0.150023
-0.0149378
-0.145654
-0.016231
-0.143187
-0.0175993
-0.140497
-0.0190916
-0.137583
-0.0206617
-0.134409
-0.0223578
-0.130972
-0.0241314
-0.127302
-0.0259688
-0.123362
-0.0279224
-0.119063
-0.0300165
-0.114507
-0.032087
-0.109645
-0.0342689
-0.104428
-0.036553
-0.0989374
-0.0388016
-0.0930858
-0.0411591
-0.086975
-0.0434328
-0.0805414
-0.0457717
-0.0737537
-0.0480673
-0.0665971
-0.0503451
-0.0591763
-0.0524523
-0.0514535
-0.0545294
-0.0435183
-0.0563888
-0.0353304
-0.0581574
-0.0268275
-0.0598738
-0.0181559
-0.0612086
-0.00934365
-0.0623364
-0.00046388
-0.0631523
0.00855798
-0.0638578
0.0176621
-0.0642648
0.0266951
-0.064262
0.0357604
-0.0641334
0.0447309
-0.0635648
0.0535152
-0.0626519
0.0622422
-0.0616541
0.0707667
-0.0601999
0.0790618
-0.0585419
0.0870171
-0.0565748
0.094614
-0.0542706
0.102023
-0.0520525
0.10903
-0.0494973
0.115674
-0.0468978
0.121987
-0.0442752
0.127883
-0.0415264
0.133393
-0.0388217
0.138517
-0.0361841
0.143234
-0.0335339
0.147561
-0.0310074
0.151498
-0.0285459
0.155165
-0.0262917
0.158503
-0.0241041
0.161517
-0.0220408
0.164234
-0.0201339
0.166679
-0.0183619
0.168913
-0.0167691
0.170933
-0.0152878
0.172752
-0.0139237
0.174395
-0.0126823
0.175821
-0.0115012
-0.0105278
-0.0562979
0.0113002
-0.0665541
0.0102562
-0.0757893
0.00923519
-0.0837785
0.00798916
-0.090631
0.00685245
-0.0968095
0.00617859
-0.10261
0.00580077
-0.108116
0.00550576
-0.113342
0.00522607
-0.117951
0.00460848
-0.121303
0.00335254
-0.123087
0.00178383
-0.123461
0.000373557
-0.12287
-0.000590819
-0.121878
-0.000991638
-0.120677
-0.00120144
-0.119031
-0.00164586
-0.116708
-0.00232308
-0.113785
-0.00292294
-0.110447
-0.00333791
-0.106788
-0.0036589
-0.102839
-0.00394903
-0.0986021
-0.00423675
-0.0941109
-0.00449114
-0.00498326
-0.0604426
0.0207912
-0.0698494
0.0196629
-0.078719
0.0181048
-0.087065
0.0163352
-0.0949073
0.0146948
-0.102143
0.013414
-0.108706
0.0123636
-0.11454
0.01134
-0.119457
0.0101432
-0.12331
0.00846125
-0.126201
0.00624406
-0.1282
0.00378275
-0.129256
0.00142972
-0.129309
-0.000538558
-0.128343
-0.00195685
-0.126534
-0.00301064
-0.124153
-0.00402664
-0.12137
-0.00510607
-0.118173
-0.00612045
-0.114501
-0.00700942
-0.110355
-0.00780545
-0.10573
-0.00857398
-0.100605
-0.00936195
-0.0948719
-0.0102239
-0.0112704
-0.0659214
0.0313101
-0.0760244
0.029766
-0.0856502
0.0277305
-0.0947821
0.0254671
-0.103298
0.023211
-0.111007
0.0211223
-0.117778
0.0191351
-0.123535
0.0170971
-0.128221
0.014829
-0.131919
0.0121592
-0.134769
0.00909413
-0.136839
0.00585302
-0.138133
0.00272343
-0.138595
-7.68921e-05
-0.138126
-0.00242564
-0.136724
-0.00441221
-0.134538
-0.0062126
-0.13172
-0.00792384
-0.128326
-0.00951498
-0.12436
-0.010975
-0.119839
-0.0123264
-0.114788
-0.0136257
-0.10924
-0.0149097
-0.103234
-0.0162301
-0.0176728
-0.0711584
0.0429272
-0.0821239
0.0407315
-0.0925049
0.0381115
-0.102272
0.0352346
-0.111312
0.032251
-0.11946
0.0292699
-0.126586
0.0262607
-0.132623
0.0231341
-0.137565
0.0197709
-0.141498
0.0160925
-0.144543
0.0121396
-0.146769
0.00807833
-0.148168
0.00412318
-0.148705
0.000459634
-0.148307
-0.00282334
-0.146975
-0.00574392
-0.144785
-0.00840285
-0.141841
-0.0108677
-0.138196
-0.0131602
-0.133888
-0.0152832
-0.128934
-0.0172801
-0.123369
-0.0191909
-0.117223
-0.021056
-0.110547
-0.0229059
-0.0247298
-0.0764231
0.0554773
-0.0883071
0.0526154
-0.0994949
0.0492993
-0.109943
0.0456822
-0.119541
0.0418495
-0.128168
0.0378966
-0.135718
0.0338106
-0.142144
0.0295604
-0.147456
0.0250823
-0.151719
0.0203557
-0.155025
0.0154457
-0.157432
0.0104852
-0.158938
0.00562967
-0.159521
0.00104272
-0.159157
-0.00318721
-0.157837
-0.00706453
-0.155608
-0.0106318
-0.15255
-0.0139258
-0.148722
-0.0169881
-0.144172
-0.019833
-0.138947
-0.0225054
-0.133098
-0.0250397
-0.126691
-0.0274631
-0.119804
-0.0297922
-0.0320463
-0.0818246
0.0687791
-0.0945975
0.0653882
-0.106589
0.0612904
-0.117738
0.0568313
-0.127939
0.0520504
-0.137103
0.0470613
-0.145137
0.041844
-0.152012
0.0364358
-0.15774
0.0308104
-0.162364
0.0249791
-0.165958
0.0190393
-0.168559
0.0130867
-0.17018
0.0072505
-0.170815
0.00167752
-0.170443
-0.00355896
-0.169085
-0.00842228
-0.166785
-0.0129323
-0.163589
-0.017122
-0.159564
-0.0210124
-0.154758
-0.0246388
-0.149229
-0.028035
-0.143023
-0.0312458
-0.136191
-0.0342949
-0.128785
-0.0371984
-0.0399454
-0.0872278
0.0831753
-0.100995
0.0791556
-0.113819
0.0741145
-0.125703
0.0687154
-0.136552
0.0628989
-0.146306
0.0568156
-0.154858
0.0503959
-0.162211
0.0437892
-0.168365
0.0369643
-0.173356
0.0299695
-0.177243
0.0229269
-0.180064
0.015907
-0.181814
0.00900074
-0.182498
0.00236094
-0.182135
-0.00392122
-0.180741
-0.00981626
-0.178355
-0.015319
-0.17503
-0.0204462
-0.170823
-0.0252194
-0.165804
-0.0296582
-0.160021
-0.0338175
-0.153538
-0.0377288
-0.146391
-0.0414426
-0.138641
-0.0449478
-0.0482304
-0.0928176
0.0989109
-0.107607
0.0939451
-0.12123
0.0877373
-0.133863
0.0813481
-0.145388
0.0744238
-0.15577
0.0671985
-0.164863
0.0594882
-0.172701
0.0516277
-0.179301
0.0435645
-0.184657
0.0353246
-0.188829
0.0270994
-0.191882
0.01896
-0.193765
0.0108835
-0.19451
0.00310617
-0.194152
-0.00427947
-0.192709
-0.0112589
-0.190232
-0.017796
-0.186769
-0.0239092
-0.182378
-0.0296108
-0.177134
-0.0349025
-0.171092
-0.0398594
-0.164324
-0.0444969
-0.156827
-0.0489394
-0.148647
-0.0531277
-0.057054
-0.0989769
0.115902
-0.114521
0.109489
-0.128801
0.102018
-0.142191
0.0947378
-0.154428
0.0866613
-0.165507
0.0782771
-0.175141
0.0691221
-0.183466
0.0599523
-0.190522
0.0506206
-0.19627
0.0410733
-0.200699
0.0315282
-0.20397
0.0222305
-0.206015
0.0129284
-0.206802
0.0038937
-0.206442
-0.0046396
-0.204949
-0.0127516
-0.202364
-0.0203817
-0.198775
-0.0274981
-0.194176
-0.0342098
-0.188638
-0.0404407
-0.182308
-0.0461889
-0.175217
-0.0515876
-0.167338
-0.0568184
-0.158956
-0.0615105
-0.065987
1.22567
3.47854
-0.0992963
-3.37924
2.02914
-0.540865
-1.48828
0.262399
-0.361405
0.0990054
0.325354
-0.394038
0.0686836
-0.728394
-0.505851
1.23424
-0.512614
0.784246
-0.271632
2.96735
-3.80973
0.842386
-0.0381792
-0.187164
0.225343
5.3262
-3.62719
-1.69901
-0.903484
1.97233
-1.06885
-0.890567
0.279706
0.610861
1.29142
-2.11523
0.823807
-1.42473
0.45102
0.973714
0.108191
-0.108533
0.000341459
5.38827
-5.274
-0.114271
0.284789
1.74436
0.128436
-0.0242603
-0.104176
-0.164188
-0.174495
0.398179
0.2629
-0.661079
-0.332106
0.213404
0.118702
3.13524
2.23492
-5.37016
-0.795171
1.00661
-0.211435
1.37726
-1.15658
-0.220678
-1.02975
0.418716
0.611034
1.24224
0.135025
-1.21907
0.811455
0.407616
-0.568193
0.0708719
0.497321
5.48762
-2.9463
-2.54132
-0.0297254
-0.136829
0.166555
0.0849009
0.567045
-0.651947
-1.80453
0.877828
0.926698
0.93999
0.717772
-1.65776
3.19725
-5.61759
2.42034
-0.282917
-0.0699085
0.352825
-0.0898198
1.83078
-1.74097
-0.940526
-0.484208