/*--------------------------------*- C++ -*----------------------------------*\
  =========                 |
  \\      /  F ield         | OpenFOAM: The Open Source CFD Toolbox
   \\    /   O peration     | Website:  https://openfoam.org
    \\  /    A nd           | Version:  10
     \\/     M anipulation  |
\*---------------------------------------------------------------------------*/
FoamFile
{
    format      ascii;
    class       volVectorField;
    location    "1500";
    object      U;
}
// * * * * * * * * * * * * * * * * * * * * * * * * * * * * * * * * * * * * * //

dimensions      [0 1 -1 0 0 0 0];

internalField   nonuniform List<vector> 
10435
(
(2.34148 1.05151 5.23393e-22)
(3.07074 1.9799 -3.90309e-20)
(4.70049 -0.423328 -3.33761e-20)
(3.69382 0.813483 8.37803e-20)
(4.15773 0.65299 -3.73248e-20)
(3.80809 -0.213051 2.57947e-19)
(4.78519 -0.387975 -1.19341e-19)
(4.64828 -0.380721 7.37212e-20)
(4.10256 -0.37677 2.50534e-19)
(4.12604 -0.440992 -7.38786e-20)
(3.46079 1.75063 -8.77491e-20)
(4.49561 0.0358123 1.85487e-19)
(4.00001 -0.453021 7.92996e-20)
(0.956528 0.779259 -1.24732e-20)
(1.09823 0.865484 -1.45724e-20)
(4.82099 -0.410951 -8.88899e-21)
(0.83141 0.684428 3.8809e-21)
(3.63991 -0.43561 2.64718e-19)
(3.75792 -0.370266 -1.02296e-19)
(2.58731 1.00353 -1.19927e-20)
(4.76116 -0.395072 5.3126e-20)
(3.5316 0.551815 -1.3087e-19)
(4.84302 -0.419689 3.63038e-19)
(4.05357 -0.388625 -1.15312e-19)
(4.43572 -0.407222 8.76022e-20)
(0.25443 0.422776 -3.87321e-22)
(0.0347885 0.178298 -8.05457e-22)
(4.4155 -0.419257 6.88656e-20)
(0.185482 0.0330323 1.06789e-22)
(3.84001 -0.444475 3.71486e-19)
(4.79534 -0.362603 1.54102e-19)
(3.62854 1.58652 -6.77085e-21)
(4.5338 -0.377411 -1.56193e-19)
(0.433438 0.062176 1.75583e-21)
(4.56288 -0.413519 8.54997e-20)
(2.36045 1.99527 1.30305e-20)
(4.70624 -0.412209 1.24341e-19)
(0.145247 0.360538 1.98101e-21)
(0.395305 0.394875 -3.63739e-22)
(3.88401 -0.374623 3.14876e-20)
(3.6355 -0.441003 -3.94033e-19)
(4.79167 -0.404754 -9.65647e-20)
(0.645027 0.791426 -1.60058e-20)
(3.21562 1.0916 -1.17959e-19)
(4.81896 -0.397163 -2.64421e-19)
(3.98508 -0.388785 1.85381e-19)
(3.73796 -0.332084 -2.94017e-19)
(0.447373 0.616938 -4.59284e-20)
(4.03293 -0.400427 8.11729e-20)
(3.36168 0.276839 -4.52644e-20)
(4.6728 -0.397078 -1.15094e-20)
(4.50748 -0.18864 1.20972e-18)
(0.438023 0.417192 -1.05119e-21)
(0.273811 -0.0753241 1.82724e-22)
(0.352161 0.402572 1.54037e-22)
(0.135313 -0.00889985 -3.03538e-22)
(4.5596 -0.395027 -3.71366e-19)
(0.146114 0.295414 1.68147e-21)
(0.657036 0.384233 -2.08573e-21)
(4.35023 -0.393969 2.42818e-19)
(0.394403 0.4293 7.56366e-22)
(2.84933 2.03277 2.9156e-20)
(0.154047 0.201776 -1.16236e-21)
(4.50038 -0.0248553 -1.02481e-19)
(4.84091 -0.41715 -5.01598e-19)
(4.6304 -0.438156 2.50546e-19)
(0.585232 0.259009 4.61968e-21)
(0.319365 0.369029 5.72428e-21)
(4.74168 -0.380908 -9.56418e-20)
(4.0145 -0.355745 8.97742e-21)
(0.224237 -0.10604 -7.74983e-22)
(0.19038 0.419547 2.73436e-22)
(0.772845 0.910276 6.03928e-20)
(4.73973 -0.425557 -3.22268e-19)
(1.26006 0.951137 -6.30848e-21)
(0.850859 1.02475 5.97624e-21)
(3.99996 -0.32261 4.87293e-19)
(4.80704 -0.371929 2.95343e-19)
(4.41875 -0.373482 2.20534e-20)
(1.29528 0.801814 3.64515e-20)
(3.70278 -0.0222446 5.58728e-20)
(2.04407 0.861692 2.81501e-22)
(0.479389 0.43991 1.53677e-21)
(0.315262 -0.0508637 -1.47808e-22)
(3.83139 -0.142222 -1.08486e-19)
(2.05526 1.68584 5.7665e-20)
(2.26478 1.51858 3.28131e-21)
(3.33077 1.3762 2.49499e-20)
(1.52819 1.30277 -4.46643e-21)
(2.54849 1.54541 3.04548e-21)
(3.57014 1.25356 -1.98403e-20)
(3.81456 1.09722 -2.14757e-20)
(2.26299 0.823259 3.66671e-21)
(1.73643 1.38403 2.42245e-20)
(2.82089 1.52737 1.09517e-20)
(2.08674 1.8951 2.97257e-20)
(4.01811 0.884464 2.7296e-19)
(1.24249 1.08268 9.7309e-21)
(0.764772 0.494464 -4.51676e-21)
(4.23187 0.753759 -2.48308e-19)
(1.37283 1.18596 1.96498e-20)
(3.78968 0.567337 -1.47593e-19)
(1.98536 1.45958 -1.46867e-20)
(3.08044 1.46798 -9.15754e-21)
(3.80814 0.333329 -8.59609e-21)
(3.46215 0.968877 2.54862e-21)
(2.48831 0.751568 3.30816e-21)
(3.54803 0.114655 6.26655e-20)
(3.93418 -0.218972 -1.40144e-19)
(1.45771 0.84231 -1.02781e-20)
(3.16056 0.41474 -1.726e-20)
(3.76795 0.812443 -7.51495e-20)
(1.8339 0.870715 -1.26724e-20)
(1.63897 0.865842 -9.03503e-21)
(4.05544 0.975949 -1.45686e-19)
(3.31124 0.700133 3.61501e-20)
(4.36837 0.529613 -1.36062e-19)
(2.34123 1.76748 -9.10333e-21)
(3.36296 1.64176 -1.31652e-19)
(4.32471 0.423446 -3.68721e-20)
(4.48289 0.337785 -4.21484e-19)
(0.916671 1.12556 6.19937e-21)
(2.61919 1.80493 1.12955e-20)
(1.49395 1.66411 -1.06804e-19)
(3.51838 1.58391 2.29913e-20)
(0.330744 0.432414 3.22824e-22)
(4.18393 0.634655 2.54033e-19)
(1.0646 1.28276 -1.39069e-20)
(4.3379 0.581113 -2.62927e-19)
(0.0767419 0.357627 -1.04786e-22)
(1.25304 1.46376 3.50836e-20)
(3.39336 1.77798 -1.51005e-19)
(4.75117 -0.406709 -1.34281e-19)
(1.14543 0.745599 2.60562e-20)
(0.160155 0.393761 5.87274e-23)
(0.62338 0.538892 1.84918e-22)
(2.05583 2.05346 6.33778e-20)
(3.89436 0.618606 -1.50814e-20)
(3.12897 1.73648 3.57787e-20)
(3.07355 0.822879 2.96499e-20)
(2.83085 0.926378 3.24662e-21)
(4.84082 -0.389844 -5.5247e-19)
(0.511684 0.169226 1.36606e-20)
(4.70819 -0.0838788 1.19589e-18)
(3.73047 0.383857 2.05943e-20)
(1.0943 1.14357 5.95332e-20)
(1.78071 1.88846 -2.35919e-20)
(4.28116 -0.0766542 -3.53012e-19)
(0.80438 0.798678 2.18417e-20)
(4.72226 -0.12413 7.3615e-20)
(0.393002 0.571807 4.32378e-22)
(4.76 -0.374185 2.33227e-19)
(2.44376 1.28573 1.43234e-21)
(4.76866 -0.187146 5.15138e-19)
(4.30145 -0.273986 -3.11519e-19)
(0.336779 0.507575 1.09695e-21)
(3.61625 1.33836 2.23143e-19)
(2.88158 1.79261 3.92751e-21)
(4.16514 -0.353448 -2.61244e-19)
(3.09502 2.09173 -2.02716e-20)
(4.81124 -0.305995 -9.52187e-20)
(1.0138 0.675475 -5.19477e-21)
(3.80586 1.32821 1.73397e-19)
(4.2035 -0.0234218 1.28109e-19)
(1.43883 1.00695 1.96877e-20)
(4.50685 0.3352 9.4532e-19)
(4.4499 -0.390456 -2.40166e-19)
(4.21888 0.249918 -1.19521e-19)
(4.38114 -0.253914 1.80974e-19)
(4.61089 0.0720483 -1.66833e-18)
(4.49397 -0.362315 3.01894e-19)
(0.704552 0.793001 -1.79326e-20)
(0.0124616 0.0999539 1.91434e-22)
(1.23257 1.21474 -9.30875e-22)
(4.65448 -0.208164 -2.73957e-19)
(2.91889 2.1845 -1.97125e-20)
(2.61454 2.03906 -2.6258e-21)
(0.553089 0.605359 6.85833e-21)
(2.94411 0.540962 1.0856e-20)
(0.241859 0.0805808 -2.20442e-22)
(3.27605 1.88259 5.22383e-20)
(3.8523 -0.0639877 -4.38806e-20)
(4.63962 -0.0336698 -6.44408e-19)
(0.378533 0.449038 2.8473e-22)
(4.83962 -0.356196 7.82188e-20)
(0.584669 0.741836 2.32292e-20)
(0.792876 0.96632 -5.60998e-20)
(4.81895 -0.375051 -2.31864e-19)
(4.16991 0.464959 9.49403e-20)
(4.6738 -0.148325 -8.06379e-19)
(4.53602 0.185419 9.70158e-20)
(0.516855 0.464836 1.577e-21)
(0.108166 0.385595 3.73542e-22)
(2.30409 2.16841 -3.41912e-20)
(3.7005 1.07913 1.09525e-19)
(4.8003 -0.373831 1.38189e-20)
(0.79709 0.906203 5.86545e-20)
(1.78124 1.57429 -2.31e-20)
(0.499726 0.630287 4.80147e-20)
(4.78561 -0.417601 1.92082e-19)
(1.47634 1.15225 -2.37204e-20)
(0.212998 0.416834 3.18892e-21)
(4.23928 -0.431514 -1.96562e-20)
(0.194784 0.372748 3.17591e-21)
(4.49062 -0.431654 -7.55778e-20)
(4.04111 1.04132 -2.0218e-21)
(3.57797 1.51197 1.53719e-19)
(4.0694 0.423618 -8.04464e-20)
(0.219354 0.186673 -1.47299e-21)
(3.90431 0.219955 -6.10136e-20)
(0.463965 0.603803 -7.50987e-21)
(4.81703 -0.412795 -4.6917e-19)
(4.6355 0.108963 9.51991e-19)
(4.36979 -0.092608 7.10334e-20)
(0.062345 0.16139 6.29972e-22)
(0.935156 0.902409 -6.1047e-20)
(1.64757 1.03124 6.17341e-21)
(0.486529 0.527197 -1.16782e-21)
(0.241634 0.405397 1.45574e-22)
(0.893111 0.590302 4.87128e-21)
(0.28958 0.043645 -1.77421e-22)
(0.61097 0.560032 1.35646e-20)
(0.420141 0.209293 -7.57357e-21)
(1.31033 1.38086 -1.12344e-19)
(0.278692 0.459161 8.71349e-23)
(4.68226 -0.413119 -6.07873e-20)
(0.301802 0.397671 -4.23261e-22)
(1.53582 1.44492 1.24314e-20)
(4.72657 -0.28806 8.86364e-19)
(0.996316 1.17025 -5.90075e-20)
(0.463778 0.462801 -4.47487e-20)
(4.57057 -0.398952 2.67493e-19)
(0.274416 0.403182 -4.60448e-22)
(4.6843 -0.346936 2.77071e-19)
(0.0549592 0.292444 1.52748e-21)
(0.709674 0.593829 -2.36953e-20)
(4.4273 -0.386046 -3.41378e-19)
(0.244161 0.437153 -3.72477e-22)
(4.36334 -0.356947 -2.18681e-20)
(4.69498 -0.373399 5.05672e-21)
(2.96462 1.18709 3.58905e-20)
(0.333307 0.467576 1.08664e-22)
(0.521692 0.573503 2.02735e-22)
(0.184892 -0.0329175 -6.62236e-23)
(3.92569 1.22345 -3.07568e-19)
(4.30827 -0.382888 8.46863e-20)
(1.80091 1.74569 -1.0291e-19)
(4.78652 -0.354286 7.82157e-20)
(0.0421893 -0.00452078 -1.95849e-22)
(2.72522 2.22538 1.32322e-20)
(0.104525 -0.0632471 -6.17972e-22)
(1.68929 1.19736 -1.97574e-20)
(4.00407 -0.445046 -1.37861e-19)
(4.05836 0.0744582 -1.15249e-19)
(4.80511 -0.344952 -1.98859e-19)
(4.41486 0.250102 4.00425e-19)
(0.0563305 -0.0353459 9.12599e-22)
(4.80431 -0.347857 2.82305e-19)
(0.42139 0.548785 5.76225e-22)
(0.301246 0.477202 -1.21155e-20)
(4.78988 -0.356841 1.43232e-20)
(4.57644 -0.322273 1.58578e-21)
(0.298695 0.443812 9.50868e-23)
(4.12459 -0.244962 -2.72889e-19)
(1.86084 1.05492 4.62977e-21)
(0.559244 0.432267 2.5752e-20)
(2.70737 1.25341 5.7451e-21)
(4.8226 -0.415337 2.94578e-19)
(0.46281 0.476353 -3.8946e-22)
(4.18364 0.835816 5.16738e-20)
(4.76413 -0.36992 -5.69044e-23)
(4.68623 -0.343806 -4.11e-20)
(4.78519 -0.338811 -2.92975e-20)
(4.49022 -0.432169 -3.18555e-19)
(0.205016 0.411461 8.39516e-23)
(4.42992 0.267037 -1.77499e-19)
(0.113946 0.355445 -1.39365e-21)
(4.00397 0.944312 3.94108e-20)
(4.82057 -0.398493 7.65474e-20)
(4.59719 -0.352521 1.64466e-20)
(4.19072 -0.458365 1.60855e-19)
(0.6624 0.76019 -7.62854e-20)
(4.70594 -0.380703 -8.56046e-21)
(1.37297 1.32047 -9.12429e-21)
(1.91626 1.24574 -9.30326e-21)
(0.543033 0.527271 -6.01211e-22)
(4.22848 0.242629 6.17398e-20)
(0.334318 0.38433 -3.78338e-22)
(0.360545 -0.0262342 -7.9405e-22)
(0.356112 0.0630051 4.29001e-22)
(1.51444 1.56047 1.15575e-19)
(3.25356 1.95694 1.60999e-19)
(0.286821 0.150137 7.55753e-22)
(4.73957 -0.335581 7.89265e-20)
(0.379397 0.367423 -8.37998e-23)
(0.179756 -0.108209 -1.18689e-21)
(0.949446 1.03639 -1.6353e-21)
(2.0962 1.06591 2.49951e-21)
(3.88035 1.19702 -6.33837e-21)
(4.70353 -0.416318 1.93198e-19)
(0.398276 0.491065 6.82289e-20)
(4.32178 -0.332777 -9.26501e-20)
(4.62025 -0.384857 -2.9481e-21)
(0.0236901 0.0272867 -2.6453e-22)
(3.76014 1.41606 -8.20233e-20)
(1.07733 0.999647 3.48237e-20)
(0.686625 0.6922 2.88467e-20)
(4.59789 -0.324996 -1.98239e-20)
(4.67346 -0.422741 -2.5845e-21)
(0.404502 -0.00794565 2.89924e-22)
(2.71442 0.658045 8.37971e-21)
(0.22417 0.435251 1.96194e-21)
(2.52432 2.22158 2.6935e-21)
(4.22702 0.0879073 -1.84729e-19)
(4.27229 -0.384451 -4.23318e-20)
(0.143261 -0.0872804 -2.42314e-22)
(0.398554 0.477368 -6.10863e-22)
(4.79166 -0.249066 -9.95768e-19)
(0.392352 0.343963 6.16875e-22)
(4.35398 0.124125 1.43421e-19)
(3.7908 0.119044 -6.85234e-20)
(0.132525 0.133703 7.23489e-22)
(2.17493 1.27993 -1.904e-21)
(0.554669 0.491705 8.72976e-22)
(4.48318 -0.352897 -9.55406e-21)
(4.30551 -0.44009 -7.07294e-20)
(0.176492 0.414729 1.62594e-22)
(4.5231 -0.392233 -3.89375e-22)
(0.479663 0.312326 -6.89074e-22)
(0.0962864 0.292085 -1.74666e-21)
(4.20212 -0.388499 1.9867e-21)
(0.440769 0.113698 -9.39464e-22)
(0.443223 0.00729633 4.35816e-22)
(4.70979 -0.401736 1.05904e-20)
(4.74384 -0.260138 2.41378e-19)
(0.203551 0.28382 -4.68923e-21)
(0.137032 -0.0690177 -3.48448e-22)
(0.0544751 -0.0227569 -2.15608e-22)
(0.493173 0.0477117 2.88008e-22)
(0.0379369 0.0724542 4.53365e-23)
(0.15256 0.408148 -3.86705e-22)
(0.251048 0.45655 1.28432e-21)
(0.43214 0.448571 -1.06902e-22)
(0.0130636 0.102957 2.42997e-22)
(0.0158541 0.0629289 -4.7956e-22)
(0.314093 0.503042 -1.5873e-21)
(0.263459 0.268506 1.39244e-21)
(0.00707549 0.25303 1.03347e-22)
(0.587587 0.515163 -1.28556e-21)
(4.36014 -0.376456 -5.50529e-20)
(0.473038 0.0245529 1.03626e-21)
(4.45248 -0.448574 8.39425e-21)
(0.0162936 0.147578 -1.32531e-22)
(4.39894 -0.404708 -1.59831e-21)
(4.39013 -0.364483 2.47584e-20)
(3.96601 -0.387629 -2.0968e-20)
(3.93543 -0.465817 -3.97511e-21)
(4.79754 -0.424782 -2.07176e-19)
(0.229583 -0.0539836 4.91707e-22)
(0.378046 0.0181167 -1.66932e-21)
(0.0939492 -0.0431791 -1.42369e-22)
(0.288019 0.416182 1.10377e-21)
(0.0637839 0.0435638 -9.75542e-24)
(0.504896 0.501861 6.23368e-22)
(0.0853258 0.126135 -2.5212e-22)
(0.129386 0.396013 -2.24181e-22)
(0.258344 0.380788 -1.45065e-20)
(4.53548 -0.151171 -2.03562e-20)
(0.13663 0.402349 -9.27416e-22)
(4.22608 -0.385318 6.18196e-20)
(0.31508 0.407464 -3.5928e-22)
(0.106137 0.378102 3.25064e-22)
(3.7632 -0.50898 -3.35036e-20)
(3.77002 -0.409733 -6.62595e-20)
(0.576517 0.563305 5.66568e-21)
(0.0101941 0.195613 -5.99055e-22)
(0.106196 0.213911 1.80964e-22)
(0.0220923 0.222801 7.8604e-23)
(0.325299 0.000602876 4.42524e-22)
(0.214848 0.422827 -1.57126e-22)
(0.00394737 0.240128 8.37553e-22)
(0.356753 0.417326 -2.72514e-22)
(4.5215 -0.36474 -1.61056e-20)
(0.33185 0.240657 -2.57264e-21)
(4.7265 -0.357026 9.08118e-21)
(4.2656 -0.368307 8.57641e-20)
(4.24831 -0.420049 -7.11837e-22)
(4.08424 -0.443734 6.70758e-20)
(4.13658 -0.374957 -3.84464e-20)
(4.5309 -0.402724 -2.2888e-20)
(4.42456 -0.3984 -5.47008e-20)
(1.16465 1.32141 3.18574e-21)
(0.573821 0.688 -9.93145e-21)
(0.231011 0.00115938 5.2732e-22)
(0.176818 -0.0831149 -4.92819e-22)
(4.62262 -0.398555 3.23838e-20)
(0.27337 -0.027781 -1.39746e-21)
(3.78964 -0.471373 -1.59793e-19)
(0.00848497 0.263708 -8.09096e-24)
(0.182064 0.111565 -1.37315e-22)
(0.0787803 0.349936 -1.33885e-22)
(0.362356 0.133576 -7.04921e-22)
(0.420511 0.513069 1.26631e-21)
(4.82254 -0.397559 4.17248e-19)
(0.0701019 0.228849 5.1835e-23)
(4.63762 -0.359697 3.83438e-21)
(4.51048 -0.301202 -1.08163e-19)
(0.562394 0.627421 -7.96541e-22)
(0.182276 0.416661 1.1415e-22)
(0.0438168 0.294032 2.01413e-22)
(3.75901 -0.39471 8.55326e-20)
(0.0635686 0.325602 -2.59858e-22)
(0.157971 0.409709 9.6063e-23)
(0.345943 0.48953 -1.40083e-21)
(0.0986052 0.0188235 4.99002e-23)
(0.336876 0.488706 5.55014e-21)
(0.108502 0.0856727 6.20909e-23)
(4.5914 -0.415088 1.81135e-19)
(0.166082 -0.110365 -1.13287e-23)
(0.203352 0.421583 3.02273e-22)
(0.14302 0.0651031 -2.13563e-22)
(0.531515 0.105249 -6.82966e-21)
(3.5469 -0.441212 -1.23904e-19)
(0.664718 0.65332 8.34466e-21)
(0.639326 0.573446 -1.63779e-20)
(3.50313 -0.389352 -1.27482e-19)
(0.426958 0.0289118 -4.77529e-22)
(0.426249 -0.37499 1.23363e-21)
(0.44895 -0.362098 -9.48949e-24)
(0.501298 -0.366028 -8.21617e-22)
(0.538643 -0.369543 4.26667e-22)
(0.578565 -0.373216 -4.95152e-22)
(0.610961 -0.375672 -1.5587e-21)
(0.642208 -0.377662 3.73987e-22)
(0.668718 -0.379365 4.7901e-22)
(0.693984 -0.379652 5.09893e-22)
(0.459468 -0.361696 -8.46862e-22)
(0.481976 -0.354611 -8.37233e-23)
(0.531484 -0.357514 7.05962e-22)
(0.568711 -0.361936 -1.40663e-21)
(0.606414 -0.365662 1.22313e-21)
(0.638046 -0.36882 2.14914e-21)
(0.667468 -0.371199 -1.36027e-21)
(0.692782 -0.373063 1.48599e-21)
(0.715055 -0.373793 -7.10893e-22)
(0.494141 -0.344817 2.39542e-21)
(0.513468 -0.341034 6.95905e-22)
(0.560601 -0.344291 -1.58539e-21)
(0.597051 -0.349795 8.16816e-22)
(0.632992 -0.354045 -2.15186e-21)
(0.663616 -0.357883 -3.48536e-22)
(0.691485 -0.360832 -2.28822e-23)
(0.715422 -0.363159 -7.29203e-22)
(0.736213 -0.364575 -1.26394e-21)
(0.525873 -0.326103 -1.20214e-21)
(0.542497 -0.323501 6.90385e-22)
(0.587806 -0.327382 1.29423e-21)
(0.623508 -0.333817 5.97686e-23)
(0.657975 -0.338726 9.69945e-22)
(0.687608 -0.343218 3.00665e-21)
(0.714171 -0.346716 -1.83478e-21)
(0.736989 -0.349478 3.09355e-22)
(0.756852 -0.351284 7.50077e-22)
(0.554772 -0.304934 1.18228e-22)
(0.569042 -0.302635 -2.9263e-22)
(0.61262 -0.307266 1.0341e-22)
(0.647673 -0.314306 -6.8325e-22)
(0.680978 -0.319877 3.11798e-22)
(0.709789 -0.324948 -6.82543e-22)
(0.735387 -0.328958 3.3043e-22)
(0.757461 -0.332135 1.33766e-21)
(0.776911 -0.334091 3.14366e-22)
(0.580493 -0.2812 2.10458e-22)
(0.592812 -0.278792 -1.60573e-21)
(0.634755 -0.284333 1.38265e-22)
(0.669344 -0.291585 1.64936e-21)
(0.701771 -0.297699 -5.43555e-22)
(0.72997 -0.303218 -7.93704e-22)
(0.754908 -0.307689 -2.62182e-22)
(0.776541 -0.31128 -2.3794e-21)
(0.795655 -0.313806 1.31701e-21)
(0.601639 -0.256274 1.9208e-22)
(0.613598 -0.252605 1.201e-21)
(0.654135 -0.258986 2.28339e-22)
(0.688474 -0.265907 -8.31459e-22)
(0.720251 -0.272324 1.79621e-22)
(0.748038 -0.278094 -3.63738e-22)
(0.772583 -0.282885 6.53774e-22)
(0.793998 -0.286772 -6.24525e-22)
(0.813014 -0.28966 -4.20101e-22)
(0.617057 -0.229965 -5.67738e-22)
(0.631934 -0.224198 1.11761e-21)
(0.671122 -0.231143 -2.43856e-22)
(0.705188 -0.237274 4.91098e-22)
(0.7364 -0.243753 -3.88817e-22)
(0.763927 -0.249566 1.17475e-21)
(0.788309 -0.254509 1.61777e-21)
(0.809741 -0.258608 -2.16222e-21)
(0.828995 -0.261277 6.45427e-22)
(0.627845 -0.198825 -1.1493e-22)
(0.648486 -0.192282 2.31528e-22)
(0.685977 -0.199872 1.38893e-22)
(0.719481 -0.20535 -5.55955e-22)
(0.750136 -0.211834 -1.59716e-22)
(0.777531 -0.217543 -4.89663e-22)
(0.801955 -0.22245 -2.72182e-22)
(0.823647 -0.226458 2.25268e-21)
(0.843111 -0.229429 -2.46793e-22)
(0.636155 -0.161108 2.5028e-22)
(0.662654 -0.155788 -9.19226e-22)
(0.698035 -0.164489 -4.9028e-22)
(0.730893 -0.169961 1.53546e-22)
(0.76118 -0.176528 -1.84395e-22)
(0.788673 -0.182007 7.93067e-22)
(0.813396 -0.186616 1.16949e-22)
(0.835547 -0.190215 1.54031e-21)
(0.855511 -0.192593 -7.67979e-23)
(0.643292 -0.118947 -2.30873e-22)
(0.67292 -0.115926 -5.47748e-23)
(0.706098 -0.125896 3.28105e-22)
(0.738758 -0.13172 5.66494e-22)
(0.769181 -0.13822 -1.72954e-22)
(0.797159 -0.143221 -1.85966e-22)
(0.822532 -0.147203 -4.99367e-22)
(0.8455 -0.149999 -1.81479e-21)
(0.866284 -0.151568 -2.78662e-22)
(0.64913 -0.0762862 4.40328e-22)
(0.677996 -0.0760419 8.5763e-22)
(0.709694 -0.0863102 -6.54597e-22)
(0.742879 -0.0919287 3.62148e-22)
(0.77402 -0.0976954 -6.6462e-23)
(0.802853 -0.101729 1.13271e-21)
(0.829137 -0.104672 1.10651e-22)
(0.853068 -0.106339 -9.19527e-22)
(0.874925 -0.107622 -6.62734e-22)
(0.651132 -0.0366095 1.13254e-22)
(0.677827 -0.0384733 -1.80794e-22)
(0.709644 -0.0473272 3.57182e-23)
(0.743808 -0.0516162 2.36871e-22)
(0.775979 -0.0556576 -1.59881e-22)
(0.805842 -0.0580357 -2.07756e-22)
(0.833139 -0.0593419 -3.83066e-22)
(0.858042 -0.0595487 7.10111e-22)
(0.881105 -0.0589049 -4.16782e-22)
(0.647171 0.000162685 -1.61178e-22)
(0.674233 -0.00238845 -1.11484e-23)
(0.707096 -0.00881742 -1.30593e-22)
(0.742278 -0.0108925 3.73891e-22)
(0.775454 -0.0124244 -6.83122e-23)
(0.806305 -0.0125787 -3.98265e-23)
(0.83458 -0.0117818 -2.67746e-22)
(0.860455 -0.0100938 3.27333e-23)
(0.884219 -0.00719529 2.46013e-22)
(0.637792 0.0362853 5.31225e-22)
(0.667749 0.0336972 -6.95208e-23)
(0.70243 0.030192 7.27521e-22)
(0.738589 0.0307016 -1.06043e-21)
(0.772593 0.0320263 1.195e-22)
(0.804265 0.0343785 3.85458e-22)
(0.833402 0.0375222 2.71257e-22)
(0.860213 0.0414438 3.88621e-22)
(0.884929 0.0463416 -1.36249e-21)
(0.622348 0.0741852 1.92944e-22)
(0.65817 0.0713931 -3.22468e-22)
(0.695399 0.0708912 -1.03667e-21)
(0.7325 0.0737768 1.39343e-21)
(0.767167 0.0778041 4.75313e-22)
(0.799497 0.0825923 -2.51298e-22)
(0.829351 0.0880497 -3.17784e-23)
(0.856888 0.0941888 1.03769e-21)
(0.882092 0.100773 -4.46226e-22)
(0.603042 0.114897 1.02985e-21)
(0.643938 0.112049 -8.41428e-22)
(0.684847 0.113979 9.99445e-22)
(0.723168 0.118599 -6.76002e-22)
(0.758561 0.124801 -7.22929e-22)
(0.791527 0.131723 2.87801e-21)
(0.82204 0.139313 -1.90092e-21)
(0.850237 0.147613 -7.66543e-22)
(0.876455 0.155733 1.856e-22)
(0.583162 0.155957 -1.33601e-21)
(0.625245 0.153998 1.15938e-21)
(0.669719 0.158334 -5.37195e-22)
(0.709689 0.164357 8.40988e-22)
(0.746114 0.172336 1.92862e-22)
(0.779895 0.181148 -2.2917e-21)
(0.811156 0.190761 2.0888e-22)
(0.840017 0.201131 -1.08645e-21)
(0.866855 0.211694 -1.38087e-21)
(0.563291 0.1947 -2.54273e-22)
(0.6034 0.194339 -2.61758e-22)
(0.650211 0.201714 -5.83994e-22)
(0.691867 0.209473 -2.40496e-21)
(0.729548 0.219223 5.95154e-22)
(0.764347 0.22985 1.00343e-21)
(0.796531 0.241358 1.15544e-21)
(0.826282 0.253567 1.43601e-21)
(0.853893 0.266302 -6.55507e-22)
(0.542564 0.230671 2.15763e-22)
(0.579406 0.231873 7.38117e-23)
(0.627256 0.242586 2.00585e-21)
(0.670125 0.252612 -1.69565e-22)
(0.708987 0.264353 9.87994e-22)
(0.744828 0.276902 -6.71019e-22)
(0.777965 0.29033 -4.72269e-21)
(0.808592 0.304425 -7.25872e-22)
(0.837074 0.31894 -9.03794e-23)
(0.520318 0.264355 4.89974e-22)
(0.553478 0.266547 -2.60054e-21)
(0.601581 0.280281 1.60168e-21)
(0.645026 0.292936 -1.9386e-21)
(0.684802 0.306887 1.46665e-21)
(0.721573 0.321534 -3.25177e-22)
(0.75564 0.33701 1.35799e-21)
(0.787195 0.353085 1.2146e-21)
(0.816247 0.37018 -4.02346e-22)
(0.49667 0.295088 1.05141e-21)
(0.525558 0.298094 2.43992e-21)
(0.57366 0.314318 -4.31118e-21)
(0.617051 0.329892 5.47642e-22)
(0.657359 0.346194 -3.95136e-21)
(0.694822 0.363061 1.14666e-21)
(0.72975 0.380618 4.44299e-22)
(0.762505 0.398626 -6.40777e-22)
(0.792149 0.418912 -3.20962e-22)
(0.471811 0.320576 -8.74506e-22)
(0.496104 0.326237 -2.04739e-21)
(0.544206 0.344626 2.3134e-21)
(0.586886 0.363435 2.45377e-21)
(0.627228 0.382136 2.7012e-21)
(0.664981 0.40125 -1.9193e-22)
(0.700481 0.420795 -8.80039e-22)
(0.734313 0.440813 2.59825e-21)
(0.764852 0.463612 -6.80476e-21)
(0.44514 0.340031 1.70287e-22)
(0.465179 0.350583 1.14518e-21)
(0.512603 0.370777 -6.50859e-22)
(0.553805 0.392783 1.22242e-21)
(0.593607 0.413782 -2.40029e-21)
(0.631269 0.435235 -6.82831e-22)
(0.667092 0.456755 3.67858e-21)
(0.702365 0.478916 -3.79792e-21)
(0.734706 0.506643 4.39373e-21)
(0.416605 0.355392 2.57086e-22)
(0.43551 0.375089 1.64848e-22)
(0.482343 0.398311 7.26959e-22)
(0.522104 0.422178 -1.40429e-21)
(0.560914 0.444673 3.72099e-22)
(0.597404 0.467468 -1.9886e-21)
(0.632509 0.489814 1.39022e-21)
(0.669909 0.512072 -1.21616e-21)
(0.704539 0.541737 -1.04942e-22)
(0.332384 0.290951 -2.85506e-22)
(0.325439 0.288831 -3.49892e-22)
(0.318122 0.286118 -1.10553e-21)
(0.310028 0.282976 1.565e-21)
(0.301145 0.279361 -1.18652e-21)
(0.291449 0.275235 9.02039e-22)
(0.280934 0.270533 3.53265e-22)
(0.26961 0.265194 -9.63255e-23)
(0.257506 0.259146 -6.61232e-22)
(0.244674 0.252315 -2.79688e-22)
(0.231194 0.244625 3.09618e-22)
(0.217164 0.235999 -3.43603e-22)
(0.202709 0.226361 9.46013e-22)
(0.187971 0.215645 -2.39086e-21)
(0.173096 0.203784 4.15688e-21)
(0.158243 0.190734 -4.70169e-21)
(0.143573 0.176473 4.19081e-21)
(0.129231 0.161001 -1.89602e-21)
(0.115354 0.144367 -6.19236e-22)
(0.102048 0.126674 6.50803e-22)
(0.0893653 0.108092 -2.24657e-22)
(0.0772207 0.0888232 4.90626e-22)
(0.0654582 0.0693287 3.07162e-23)
(0.0539248 0.0499983 -6.83342e-22)
(0.0434651 0.0308082 5.38149e-22)
(0.0362199 0.0113195 -2.87624e-22)
(0.0333943 -0.00899264 3.77484e-22)
(0.035046 -0.0302866 2.9824e-22)
(0.0401841 -0.052797 -3.6246e-22)
(0.0462593 -0.0765378 9.67521e-24)
(0.0523489 -0.100947 -3.22312e-22)
(0.0592716 -0.125374 2.94659e-22)
(0.0675007 -0.149583 5.58704e-22)
(0.0771236 -0.173283 -4.58262e-22)
(0.0880818 -0.196098 6.55175e-22)
(0.100284 -0.217814 -1.08631e-21)
(0.11357 -0.238227 8.83191e-23)
(0.127757 -0.257183 2.34122e-22)
(0.142664 -0.274575 -3.56545e-22)
(0.158116 -0.290334 7.9766e-22)
(0.173965 -0.30444 -4.53525e-22)
(0.190077 -0.316912 -1.92484e-21)
(0.206333 -0.327795 3.93504e-21)
(0.222627 -0.337164 -4.18385e-21)
(0.238864 -0.345132 3.61306e-21)
(0.254941 -0.351817 -2.1203e-21)
(0.270746 -0.357348 1.08017e-21)
(0.286172 -0.361873 -3.77051e-22)
(0.301096 -0.365527 3.39703e-22)
(0.315401 -0.368436 -3.72333e-22)
(0.328984 -0.370726 -5.06408e-22)
(0.341761 -0.372498 -1.35299e-22)
(0.353707 -0.373835 2.8172e-22)
(0.364804 -0.374819 6.64791e-22)
(0.375029 -0.375518 -9.95958e-22)
(0.384388 -0.375988 1.28149e-21)
(0.392907 -0.37627 -8.68861e-22)
(0.400629 -0.376379 -2.98007e-22)
(0.407658 -0.376386 -2.08699e-22)
(0.348742 0.258633 -1.39762e-23)
(0.342487 0.25647 1.66175e-23)
(0.335756 0.254196 -6.40603e-23)
(0.328432 0.251718 1.46453e-22)
(0.32048 0.249055 4.60461e-24)
(0.311893 0.246122 -3.46203e-22)
(0.302679 0.242808 6.16845e-23)
(0.292828 0.239063 4.7052e-25)
(0.282323 0.234807 2.32704e-22)
(0.271172 0.229951 -5.47502e-23)
(0.259398 0.2244 -4.10372e-23)
(0.247049 0.218052 -1.46288e-22)
(0.234198 0.210803 2.74972e-22)
(0.220931 0.202555 -2.40416e-22)
(0.207365 0.19322 2.51279e-22)
(0.193622 0.182726 -4.05173e-23)
(0.179839 0.171023 -1.44598e-22)
(0.166151 0.158085 1.94386e-22)
(0.152689 0.143909 1.29746e-22)
(0.139568 0.128514 2.76538e-23)
(0.126892 0.111929 6.73501e-24)
(0.114765 0.0941541 -3.3211e-22)
(0.10341 0.0751196 2.74136e-22)
(0.0932707 0.0545588 -9.70702e-23)
(0.0849233 0.032261 3.76054e-22)
(0.0789951 0.00836953 -1.57104e-22)
(0.0756735 -0.0165956 -1.8675e-23)
(0.0751283 -0.041935 7.77955e-23)
(0.0774249 -0.0669803 1.21447e-23)
(0.0819285 -0.0914207 -4.71807e-24)
(0.0879003 -0.115378 -6.34219e-23)
(0.0952249 -0.138931 2.66319e-23)
(0.103981 -0.161926 -2.83958e-23)
(0.114066 -0.184187 -6.69927e-23)
(0.125356 -0.205529 -2.73879e-23)
(0.137736 -0.225786 4.41929e-23)
(0.151068 -0.244815 1.21281e-22)
(0.165201 -0.262504 -2.48412e-22)
(0.179979 -0.278775 2.81442e-24)
(0.195254 -0.293575 -5.24227e-23)
(0.210881 -0.306875 3.37393e-23)
(0.226725 -0.31867 1.86948e-22)
(0.242655 -0.328972 -4.11806e-22)
(0.258543 -0.337813 -2.52421e-22)
(0.274259 -0.34525 4.8301e-22)
(0.289673 -0.351357 -4.17852e-22)
(0.304661 -0.356236 2.8516e-22)
(0.319101 -0.360008 -4.21421e-23)
(0.332892 -0.36281 -1.40898e-22)
(0.345952 -0.364792 1.91915e-23)
(0.358214 -0.366098 2.80999e-22)
(0.369693 -0.366835 -6.75522e-23)
(0.380472 -0.36708 8.92601e-23)
(0.390507 -0.366957 -3.96425e-22)
(0.399773 -0.366602 5.89515e-23)
(0.408339 -0.366085 1.54573e-22)
(0.416267 -0.365438 -1.13206e-22)
(0.423638 -0.364677 3.13569e-23)
(0.430482 -0.363949 -2.0551e-23)
(0.404759 0.246381 -3.56163e-22)
(0.398418 0.244296 7.02069e-23)
(0.391618 0.242004 -3.09613e-22)
(0.384341 0.239482 -7.52816e-23)
(0.37656 0.236681 1.07158e-21)
(0.368257 0.233538 -3.35344e-22)
(0.35941 0.230013 -6.52699e-22)
(0.349999 0.226057 -5.979e-24)
(0.340013 0.221609 3.92311e-22)
(0.329451 0.216604 -1.01285e-22)
(0.318327 0.210963 1.06704e-21)
(0.306671 0.204605 -1.26119e-21)
(0.294532 0.197443 1.14021e-21)
(0.281979 0.189387 -1.5403e-22)
(0.269099 0.180356 -1.00039e-21)
(0.255994 0.17027 3.01329e-22)
(0.242785 0.159065 1.18281e-21)
(0.229595 0.146686 -4.77548e-22)
(0.216561 0.133087 -1.1182e-22)
(0.203824 0.118231 2.129e-23)
(0.191538 0.102079 -3.21056e-22)
(0.179887 0.0845776 8.07156e-23)
(0.169118 0.0656657 -7.95066e-22)
(0.159569 0.0453064 9.549e-22)
(0.151684 0.0235424 -3.69963e-22)
(0.145977 0.000564456 3.19185e-24)
(0.142817 -0.0232973 5.13961e-23)
(0.142325 -0.0476471 -2.37306e-22)
(0.144366 -0.0720311 1.47314e-22)
(0.148534 -0.0960695 7.91323e-23)
(0.154418 -0.119597 1.82659e-22)
(0.161783 -0.142543 -1.85796e-22)
(0.170493 -0.164795 8.41842e-23)
(0.180428 -0.186224 1.19496e-22)
(0.191468 -0.206708 -3.85993e-22)
(0.203491 -0.226133 1.08567e-21)
(0.216371 -0.244397 -7.0594e-22)
(0.229973 -0.261414 -1.61705e-22)
(0.244161 -0.27712 -1.69596e-22)
(0.258799 -0.291469 -5.61977e-23)
(0.273753 -0.304437 -2.76121e-22)
(0.288889 -0.31602 -4.58056e-22)
(0.304076 -0.326232 1.12871e-21)
(0.319184 -0.33511 5.2135e-22)
(0.334087 -0.342708 -1.07268e-21)
(0.348662 -0.349102 -3.39108e-22)
(0.3628 -0.354383 1.09792e-21)
(0.376407 -0.358658 -1.26638e-21)
(0.389408 -0.362041 8.87881e-22)
(0.401754 -0.36465 -3.63456e-23)
(0.41342 -0.366599 3.46607e-22)
(0.424362 -0.368009 5.81163e-23)
(0.434616 -0.368938 -5.90077e-22)
(0.444206 -0.36945 -2.86209e-22)
(0.453154 -0.369642 9.1863e-22)
(0.461501 -0.369574 -2.63383e-23)
(0.46929 -0.369292 -2.65206e-22)
(0.476559 -0.368841 7.92638e-23)
(0.483355 -0.368262 -2.99784e-22)
(0.443211 0.239487 -8.17762e-23)
(0.436877 0.237839 4.05048e-22)
(0.430119 0.235994 -1.95299e-22)
(0.422873 0.233877 1.49395e-22)
(0.415127 0.231461 -1.65498e-22)
(0.406862 0.228705 -8.21816e-24)
(0.398065 0.225561 -1.0913e-22)
(0.388726 0.221977 -2.85674e-22)
(0.37884 0.217889 1.90979e-22)
(0.368413 0.213228 2.47887e-22)
(0.357459 0.207917 1.89497e-22)
(0.346005 0.20187 -7.24841e-22)
(0.334095 0.195 6.62956e-22)
(0.32179 0.187214 -1.44442e-22)
(0.309167 0.178423 9.00516e-23)
(0.296324 0.168542 -4.04402e-22)
(0.283375 0.15749 3.98586e-22)
(0.270454 0.145197 -1.68011e-22)
(0.25771 0.131604 -2.50006e-22)
(0.245313 0.116659 1.33016e-22)
(0.233453 0.100319 -6.99906e-23)
(0.222347 0.082555 -4.18929e-22)
(0.212252 0.0633546 2.68707e-22)
(0.203464 0.0427449 2.81248e-22)
(0.196301 0.0208228 -2.29184e-22)
(0.191067 -0.00221603 2.63387e-23)
(0.187982 -0.0260751 2.63032e-22)
(0.187155 -0.0503996 -3.09646e-22)
(0.188566 -0.0748235 1.02799e-22)
(0.192054 -0.0990307 -2.78453e-23)
(0.197402 -0.122801 1.30766e-22)
(0.204413 -0.145979 -3.08058e-22)
(0.212915 -0.168428 2.3409e-22)
(0.222747 -0.190022 -6.7338e-24)
(0.233751 -0.210646 -2.97744e-22)
(0.245776 -0.230194 1.16796e-22)
(0.258669 -0.248573 3.30495e-22)
(0.272275 -0.265702 -1.53597e-22)
(0.286446 -0.281516 -1.31385e-22)
(0.301033 -0.295973 2.39491e-22)
(0.315889 -0.309046 -7.40892e-23)
(0.330874 -0.320729 -8.95119e-23)
(0.345849 -0.331039 5.32526e-22)
(0.360684 -0.34001 -4.93798e-22)
(0.375257 -0.347696 2.10088e-22)
(0.38946 -0.354173 -3.69074e-23)
(0.403199 -0.359527 6.56878e-22)
(0.4164 -0.363858 -6.0926e-22)
(0.429006 -0.367274 2.51097e-22)
(0.440983 -0.369881 2.05266e-22)
(0.452307 -0.371785 2.11828e-22)
(0.4629 -0.37316 -2.91626e-22)
(0.472805 -0.374055 -6.53532e-23)
(0.482158 -0.374466 -8.77521e-23)
(0.49094 -0.374497 -1.41035e-22)
(0.499142 -0.374238 1.01586e-22)
(0.506798 -0.373742 -1.87608e-22)
(0.513945 -0.373051 3.825e-22)
(0.520643 -0.37223 -1.07881e-22)
(0.492108 0.235605 -5.80193e-22)
(0.485836 0.233782 5.86978e-23)
(0.479076 0.231759 5.67275e-22)
(0.471803 0.229493 -4.07434e-22)
(0.464004 0.226942 1.07214e-22)
(0.455668 0.22406 3.56528e-22)
(0.44679 0.220798 -4.54874e-22)
(0.437368 0.217099 1.70942e-22)
(0.427407 0.212902 5.4619e-22)
(0.41692 0.208139 -1.89163e-22)
(0.405928 0.202736 -5.65234e-22)
(0.394465 0.196613 -1.8595e-22)
(0.382576 0.189686 4.81756e-22)
(0.370322 0.181867 4.30341e-22)
(0.35778 0.173069 -9.97362e-23)