/*--------------------------------*- C++ -*----------------------------------*\
  =========                 |
  \\      /  F ield         | OpenFOAM: The Open Source CFD Toolbox
   \\    /   O peration     | Website:  https://openfoam.org
    \\  /    A nd           | Version:  10
     \\/     M anipulation  |
\*---------------------------------------------------------------------------*/
FoamFile
{
    format      ascii;
    class       volScalarField;
    location    "1400";
    object      epsilon;
}
// * * * * * * * * * * * * * * * * * * * * * * * * * * * * * * * * * * * * * //

dimensions      [0 2 -3 0 0 0 0];

internalField   nonuniform List<scalar> 
10435
(
0.335666
0.823531
0.579398
0.710525
0.97832
0.896062
0.539798
0.447543
0.358285
0.763848
0.993848
0.697926
0.734956
0.0806234
0.0945327
0.524359
0.0704504
0.855589
0.293519
0.398489
0.484203
0.590004
0.556165
0.361201
0.698535
0.0218573
0.0354231
0.635211
0.0338925
0.826479
0.652512
1.04571
0.422301
0.0347771
0.465063
0.443606
0.512642
0.0356526
0.0153405
0.317558
0.907836
0.550517
0.0438978
0.613563
0.566459
0.336171
0.884015
0.0374838
0.331003
0.450464
0.465135
0.773087
0.0148572
0.0287595
0.0168534
0.0311248
0.486633
0.0382483
0.0539091
0.42362
0.0165476
0.707853
0.0387127
0.807896
0.565031
0.613242
0.0468418
0.0447005
0.467693
0.36809
0.0282689
0.0285335
0.0289635
0.595817
0.114456
0.0514416
0.393525
0.517002
0.394827
0.105228
0.441628
0.226895
0.0143928
0.029323
0.427474
0.305285
0.364584
0.705998
0.169567
0.458043
0.767668
0.816183
0.272616
0.214339
0.550007
0.321602
0.810547
0.114421
0.0606548
0.874497
0.137139
1.05882
0.280629
0.63341
1.01357
0.670654
0.319028
0.448863
0.415722
0.125839
0.43216
1.10202
0.18614
0.152455
0.901523
0.559603
0.84371
0.406143
0.799889
0.78189
0.808296
0.0418739
0.516224
0.131199
1.20339
0.0192592
0.799838
0.0552053
0.90744
0.0336525
0.0834481
1.19841
0.492722
0.089254
0.0316906
0.0134096
0.336167
0.71782
0.719646
0.51357
0.458911
0.61336
0.0419805
0.742937
0.595719
0.0887363
0.217571
0.840325
0.0682751
0.698046
0.0317653
0.563211
0.397229
0.693888
0.78262
0.0263717
1.1894
0.623786
0.777063
1.07254
0.638203
0.0771694
0.90903
0.574308
0.141811
0.844641
0.417138
0.695591
0.535674
0.799812
0.710772
0.0220868
0.0327977
0.107976
0.633719
0.961165
0.576502
0.0526343
0.402366
0.0368938
0.919398
0.918756
0.715696
0.018059
0.61747
0.0336812
0.0397926
0.505118
0.969408
0.748646
0.763574
0.0141296
0.0316134
0.486845
1.15052
0.485965
0.0607756
0.223736
0.045345
0.523913
0.156242
0.0349646
0.677509
0.0376451
0.632619
0.967859
0.868242
0.70979
0.0401181
0.587766
0.0269034
0.563043
0.776079
0.600493
0.0352773
0.0791116
0.176068
0.0180609
0.0222169
0.0680411
0.0349467
0.0579502
0.044365
0.113199
0.0244999
0.484472
0.0185214
0.16582
0.702009
0.0631124
0.050708
0.450511
0.0202483
0.561351
0.0363545
0.0627283
0.464255
0.0243553
0.466712
0.670246
0.548018
0.0215746
0.0194584
0.0307831
0.957174
0.384357
0.222172
0.465644
0.026536
0.818705
0.0270155
0.197035
0.756848
0.577101
0.482589
0.871288
0.0241676
0.496823
0.0236492
0.0350141
0.512411
0.717892
0.0214861
0.462873
0.220132
0.0542608
0.474767
0.605149
0.0163808
0.947727
0.530586
0.433605
0.463715
0.665298
0.0243624
0.758712
0.0342312
1.04438
0.509296
0.416228
0.731565
0.0544758
0.550683
0.131106
0.25159
0.0157577
0.911878
0.0169055
0.0298137
0.03586
0.150719
1.1526
0.0404849
0.44772
0.0156661
0.0277746
0.0726573
0.274342
1.07026
0.646282
0.045629
0.481882
0.572529
0.0287142
1.0718
0.094325
0.0613748
0.557661
0.628422
0.0300424
0.364145
0.031351
0.652187
0.891522
0.392733
0.0282722
0.0189908
0.689827
0.0478204
0.688324
0.978245
0.0364707
0.320205
0.0138785
0.395778
0.67994
0.0266776
0.596917
0.0491064
0.036802
0.385286
0.0382888
0.0300122
0.561991
0.636308
0.0404457
0.0287982
0.0275571
0.0320747
0.0319054
0.028563
0.0275632
0.0161769
0.0327817
0.0316226
0.0303123
0.0427408
0.0372776
0.0136459
0.373194
0.0305199
0.667316
0.0347983
0.626283
0.374114
0.310237
0.736916
0.591667
0.0299402
0.0324934
0.0282275
0.0198264
0.0312776
0.0159818
0.0348259
0.0302148
0.0407949
0.627169
0.0294292
0.357302
0.0182829
0.0320535
0.781105
0.278868
0.0161314
0.0352316
0.0373651
0.0363027
0.0321156
0.0240485
0.0407773
0.0175116
0.40934
0.044336
0.449826
0.354977
0.660566
0.699566
0.336023
0.604476
0.43045
0.083583
0.0263443
0.0327656
0.0288761
0.58245
0.0311268
0.786933
0.038932
0.0371597
0.0333444
0.0399302
0.0205551
0.530665
0.0366275
0.430922
0.552963
0.0213961
0.0260261
0.0364058
0.28678
0.0362469
0.0277121
0.0231765
0.0312832
0.039846
0.0341503
0.600775
0.0283421
0.0264785
0.0342873
0.0362782
0.877555
0.0167566
0.0141487
0.241016
0.0320704
0.000167397
0.000161312
0.000151595
0.000139778
0.000126681
0.000112536
9.764e-05
8.23617e-05
6.71759e-05
0.000184068
0.000175399
0.000163467
0.000149775
0.000135032
0.00011963
0.000103898
8.8305e-05
7.34836e-05
0.00020456
0.000193444
0.000179128
0.000163286
0.000146707
0.000129812
0.000112978
9.66814e-05
8.15099e-05
0.000231265
0.000217527
0.000200379
0.000181959
0.000163131
0.000144325
0.000125929
0.000108365
9.21164e-05
0.000267258
0.000250365
0.000229659
0.000207992
0.000186265
0.000164914
0.000144294
0.000124738
0.000106554
0.000316652
0.000295674
0.000270337
0.000244441
0.000218873
0.00019408
0.000170358
0.000147954
0.000127049
0.000385216
0.000358613
0.00032707
0.000295552
0.000264851
0.000235399
0.000207426
0.00018113
0.000156677
0.000481258
0.000446086
0.000406125
0.000367132
0.000329598
0.000293884
0.000260141
0.000228549
0.000199351
0.000615009
0.000566541
0.000515537
0.000466825
0.000420354
0.000376339
0.000334844
0.000296
0.000260046
0.000795249
0.000729188
0.000664955
0.000604141
0.000546298
0.000491524
0.000439834
0.000391256
0.00034581
0.00102625
0.000943302
0.00086515
0.000790033
0.000718181
0.000649862
0.000585187
0.000524122
0.000466507
0.00130825
0.00121884
0.00112754
0.00103608
0.000947413
0.000862537
0.00078189
0.000705477
0.000633163
0.00165452
0.00156934
0.00146408
0.00135351
0.00124479
0.00114011
0.00104035
0.000945688
0.000856205
0.00210406
0.00201199
0.0018863
0.00175197
0.00161922
0.00149113
0.00136895
0.00125302
0.0011436
0.00268272
0.00255922
0.00240222
0.00223802
0.00207681
0.00192156
0.00177354
0.00163299
0.00149956
0.00339528
0.00321305
0.00301416
0.00281453
0.00262083
0.0024351
0.00225833
0.00209079
0.00193216
0.00420988
0.00396343
0.00371906
0.00348138
0.00325279
0.00303427
0.00282655
0.00263005
0.00244538
0.0050892
0.00479733
0.00451254
0.00423804
0.00397438
0.00372224
0.00348222
0.00325481
0.00304066
0.00603055
0.00571126
0.00539427
0.00508671
0.0047898
0.00450489
0.00423265
0.00397352
0.00372787
0.00704429
0.00671181
0.00637006
0.00603394
0.00570716
0.00539209
0.00508952
0.00479998
0.00452437
0.00814931
0.00781271
0.00745077
0.00709026
0.00673829
0.00639768
0.00606878
0.0057515
0.0054462
0.00937299
0.00903195
0.00864983
0.00826851
0.00789786
0.00753932
0.00719158
0.00685316
0.00652344
0.0107575
0.0103892
0.00998029
0.00958183
0.00920214
0.00883766
0.00848374
0.00813669
0.00779579
0.0123561
0.0118987
0.0114496
0.0110407
0.0106671
0.0103149
0.00997418
0.00963761
0.00930367
0.014217
0.0135508
0.0130564
0.0126533
0.01231
0.0119959
0.0116953
0.0113994
0.0110645
0.00119465
0.00116917
0.00114888
0.00113368
0.00112354
0.00111836
0.00111801
0.00112228
0.00113098
0.00114377
0.00116033
0.00118026
0.00120305
0.0012282
0.00125505
0.00128295
0.0013112
0.00133904
0.00136568
0.00139033
0.00141213
0.00143013
0.0014431
0.00144909
0.00144699
0.00143683
0.00141957
0.00139505
0.00136173
0.0013209
0.00127401
0.00122154
0.00116394
0.00110232
0.00103769
0.000971029
0.000903277
0.000835345
0.0007681
0.00070235
0.000638828
0.000578193
0.000520996
0.000467698
0.000418663
0.000374144
0.000334276
0.0002991
0.000268526
0.000242389
0.000220438
0.000202371
0.000187876
0.000176628
0.000168341
0.000162756
0.000159665
0.000158917
0.000160362
0.00120302
0.00118037
0.00116252
0.00114942
0.00114097
0.00113701
0.00113738
0.00114192
0.00115042
0.00116264
0.00117825
0.00119687
0.00121807
0.00124133
0.00126608
0.0012917
0.00131749
0.00134276
0.00136674
0.0013887
0.00140783
0.00142334
0.00143435
0.0014398
0.00143852
0.00142948
0.00141213
0.00138644
0.00135295
0.00131269
0.00126652
0.00121505
0.00115886
0.00109869
0.00103536
0.000969769
0.000902824
0.000835434
0.00076848
0.000702792
0.000639143
0.000578228
0.000520651
0.000466924
0.000417449
0.000372514
0.000332278
0.000296781
0.00026594
0.000239573
0.000217415
0.000199153
0.000184451
0.000172977
0.000164424
0.000158525
0.00015506
0.00015387
0.000154786
0.00118769
0.00116654
0.00114984
0.00113754
0.0011296
0.00112593
0.00112638
0.00113079
0.00113895
0.0011506
0.00116544
0.0011831
0.00120317
0.00122517
0.00124855
0.00127273
0.00129707
0.00132087
0.00134344
0.00136402
0.00138183
0.00139605
0.00140576
0.00140997
0.00140774
0.00139829
0.00138117
0.00135629
0.00132397
0.00128489
0.00123982
0.00118947
0.00113454
0.00107575
0.0010139
0.00094984
0.000884413
0.000818484
0.000752899
0.000688468
0.000625952
0.000566043
0.000509352
0.000456399
0.000407596
0.000363242
0.000323503
0.000288425
0.000257929
0.000231834
0.000209877
0.000191747
0.000177106
0.000165622
0.000156989
0.000150936
0.000147242
0.000145745
0.000146278
0.00114748
0.00112774
0.00111222
0.00110086
0.0010936
0.00109032
0.00109089
0.00109515
0.00110289
0.00111389
0.00112785
0.00114443
0.00116324
0.00118385
0.00120574
0.00122837
0.00125112
0.00127334
0.00129435
0.00131339
0.00132971
0.00134249
0.00135087
0.001354
0.00135106
0.00134139
0.00132458
0.00130054
0.00126951
0.00123201
0.00118869
0.00114025
0.0010874
0.00103087
0.000971445
0.000909908
0.000847067
0.000783737
0.000720718
0.00065878
0.000598651
0.000541001
0.000486423
0.000435425
0.000388413
0.000345674
0.000307378
0.000273566
0.000244163
0.000218992
0.000197798
0.000180285
0.000166119
0.000154969
0.000146537
0.000140563
0.000136828
0.000135172
0.000135434
0.00109191
0.00107386
0.00105971
0.00104943
0.00104294
0.00104015
0.00104093
0.00104512
0.00105253
0.00106293
0.00107605
0.00109157
0.00110914
0.00112832
0.00114866
0.00116963
0.00119064
0.00121109
0.00123029
0.00124756
0.00126214
0.00127327
0.00128018
0.00128211
0.00127838
0.00126845
0.001252
0.00122892
0.0011994
0.00116381
0.00112269
0.00107666
0.00102643
0.000972694
0.00091621
0.00085774
0.00079805
0.000737913
0.000678093
0.000619323
0.000562295
0.000507641
0.000455925
0.000407625
0.000363122
0.000322683
0.000286462
0.000254495
0.000226705
0.000202921
0.000182896
0.000166336
0.000152924
0.000142346
0.000134313
0.000128574
0.000124917
0.000123186
0.000123225
0.00102074
0.00100418
0.000991264
0.000981947
0.00097616
0.000973813
0.000974776
0.000978898
0.000985989
0.000995828
0.00100815
0.00102266
0.001039
0.00105678
0.00107556
0.00109483
0.00111405
0.00113263
0.00114995
0.00116535
0.00117814
0.00118762
0.00119311
0.00119394
0.00118954
0.00117946
0.00116342
0.00114137
0.00111343
0.0010799
0.00104124
0.000998002
0.000950834
0.000900419
0.000847457
0.000792674
0.000736789
0.000680525
0.000624614
0.000569747
0.000516568
0.000465665
0.000417558
0.000372687
0.000331396
0.000293926
0.000260409
0.000230867
0.000205219
0.000183295
0.000164857
0.000149622
0.000137289
0.000127561
0.000120165
0.00011486
0.000111447
0.000109777
0.000109702
0.000936028
0.000920959
0.000909241
0.00090084
0.000895704
0.000893751
0.000894862
0.000898892
0.000905661
0.000914948
0.000926499
0.000940021
0.000955179
0.000971594
0.000988843
0.00100646
0.00102395
0.00104072
0.00105622
0.00106983
0.00108093
0.00108887
0.00109306
0.00109295
0.00108802
0.00107791
0.00106241
0.00104147
0.0010152
0.000983824
0.000947764
0.000907512
0.000863691
0.000816952
0.000767924
0.000717298
0.000665729
0.000613885
0.000562477
0.00051213
0.000463426
0.000416894
0.000372999
0.000332139
0.000294621
0.000260649
0.000230333
0.000203677
0.000180592
0.000160909
0.000144396
0.000130784
0.000119791
0.000111137
0.000104567
9.9856e-05
9.68202e-05
9.53193e-05
9.52175e-05
0.00083619
0.0008223
0.000811504
0.000803801
0.000799161
0.000797522
0.00079877
0.000802767
0.000809323
0.000818204
0.000829178
0.000841919
0.000856096
0.000871335
0.000887252
0.000903459
0.000919497
0.000934795
0.000948833
0.000960986
0.000970678
0.000977325
0.00098049
0.000979747
0.00097455
0.000964672
0.000949924
0.000930318
0.00090584
0.000876703
0.000843324
0.000806164
0.000765898
0.000723156
0.000678411
0.000632348
0.000585574
0.000538662
0.000492344
0.000447112
0.000403476
0.000361894
0.000322768
0.000286448
0.000253215
0.000223221
0.000196575
0.000173244
0.000153122
0.000136031
0.000121748
0.000110026
0.000100602
9.32255e-05
8.76652e-05
8.37169e-05
8.12111e-05
8.00186e-05
8.00157e-05
0.000718864
0.000705729
0.000695541
0.000688408
0.000684349
0.000683266
0.000684958
0.000689118
0.000695781
0.000704974
0.000716022
0.000728563
0.000742175
0.000756411
0.00077118
0.000786091
0.00080105
0.000815851
0.000829363
0.000840625
0.000849224
0.000854794
0.000857212
0.000856072
0.000851022
0.00084177
0.000828241
0.000810366
0.000787917
0.000760955
0.000730186
0.00069618
0.000659605
0.000621136
0.000581164
0.000539777
0.000497813
0.000456604
0.000416144
0.000376564
0.000338514
0.000302412
0.00026855
0.000237177
0.000208505
0.000182817
0.000160155
0.000140587
0.000123878
0.000109689
9.78062e-05
8.8074e-05
8.03145e-05
7.43096e-05
6.98455e-05
6.67639e-05
6.49199e-05
6.41877e-05
6.44544e-05
0.0286701
0.0260814
0.0236793
0.021384
0.0191753
0.0170511
0.0150275
0.013123
0.0113516
0.00972245
0.00827051
0.00702279
0.00597719
0.00510835
0.00436744
0.00373173
0.00320288
0.00277455
0.00243121
0.00215301
0.00192371
0.00173037
0.00156248
0.00141129
0.00126884
0.0273345
0.0254817
0.0233796
0.0212002
0.0190274
0.0169048
0.014868
0.0129473
0.0111665
0.00954745
0.00811125
0.0068671
0.0058105
0.00492597
0.00419038
0.00358233
0.0030849
0.00268232
0.00235845
0.00209688
0.00188249
0.00170262
0.00154707
0.00140763
0.00127732
0.0272381
0.0252961
0.0231818
0.020994
0.0188005
0.016652
0.0145927
0.012659
0.0108792
0.00927442
0.00785675
0.00662829
0.00558313
0.00470903
0.00398889
0.00340324
0.00293176
0.00255458
0.00225333
0.00201137
0.001814
0.00164886
0.00150593
0.00137736
0.00125716
0.0273753
0.0252141
0.0229805
0.0207206
0.0184808
0.016304
0.0142308
0.0122966
0.010528
0.00894273
0.00754798
0.00634259
0.00531948
0.00446706
0.00376967
0.00320817
0.00276128
0.0024077
0.00212791
0.00190481
0.00172379
0.00157276
0.00144199
0.00132391
0.00121261
0.0275636
0.0251906
0.0228061
0.0204419
0.0181342
0.0159183
0.0138284
0.0118941
0.0101378
0.00857253
0.00720222
0.00602351
0.00502802
0.0042034
0.0035335
0.0029987
0.00257717
0.00224702
0.00198822
0.00178342
0.00161813
0.00148057
0.0013614
0.00125355
0.00115183
0.0277128
0.0251495
0.0226096
0.0201325
0.0177511
0.0154937
0.0133865
0.0114529
0.0097097
0.00816578
0.00682233
0.00567408
0.00471097
0.00391903
0.00328075
0.00277544
0.00238069
0.00207438
0.00183636
0.0016494
0.00149931
0.00137473
0.0012668
0.00116888
0.00107601
0.0278465
0.0250811
0.0223748
0.0197802
0.0173248
0.015027
0.0129037
0.0109715
0.00924236
0.00772162
0.00640804
0.00529443
0.00436858
0.00361406
0.00301137
0.00253851
0.00217239
0.0018908
0.00167384
0.0015046
0.00136934
0.00125723
0.00115989
0.00107111
0.000986649
0.0279953
0.0249669
0.0220755
0.0193644
0.0168418
0.0145097
0.0123739
0.0104447
0.00873151
0.00723665
0.00595657
0.00488246
0.00399979
0.00328798
0.00272528
0.0022881
0.00195264
0.0016969
0.00150152
0.00135012
0.00122946
0.00112935
0.00104176
0.00096073
0.000883144
0.0281022
0.0247568
0.0216772
0.0188643
0.0162904
0.0139347
0.0117934
0.0098683
0.00817222
0.00670671
0.00546363
0.00443483
0.00360349
0.00294062
0.00242276
0.00202491
0.00172215
0.00149337
0.00132038
0.00118733
0.00108119
0.000993009
0.000914242
0.000837971
0.000763491
0.858219
0.827726
4.05402
3.15194
0.000833117
0.00127256
0.0363401
0.000207553
3.12623
7.99977e-05
2.62008
0.00147375
0.0136814
0.00333369
0.033699
0.000535644
2.57013
2.83145
5.26636e-05
0.0793261
0.0100227
0.00031328
3.04367
0.00505209
0.000273636
0.00029905
0.000248182
0.0164047
1.14802
2.57413
7.26533e-05
0.000337111
2.74662
0.018402
2.5696
0.000410748
0.0422468
0.0339827
0.0503664
0.00096041
3.92878
0.000277406
0.00028212
0.0443625
0.00796944
0.000439912
4.05434
4.99339
1.59961
1.75524
3.72523
3.51363
0.00666563
2.72054
0.034318
3.09424
0.00286016
0.00706999
0.000673109
3.5988
0.000599637
4.52255
0.000858935
0.00045282
0.000208074
0.036443
0.000511801
0.0444416
0.0178615
1.69771
2.98134
0.000410631
0.000425966
0.0733102
0.000361449
0.00925649
0.0605628
4.59602
0.000306652
2.39735
0.0148193
0.000818744
0.000224283
2.5788
0.000665832
0.000674424
0.000313773
4.50605
2.80302
0.00285581
0.00463162
0.00122237
0.000100748
0.00156766
0.000551803
2.64271
0.000314202
2.94623
0.000517169
3.53661
0.006349
3.87379
0.00739925
0.000408613
0.000539399
0.00944034
3.28174
0.0132915
0.000380939
2.57727
0.000357615
0.00102793
3.33675
0.000386476
0.00657555
1.5597
2.85917
0.000815919
0.00693946
0.000734951
6.06683e-05
0.00104327
0.005196
0.00029466
2.91229
0.000284969
3.52461
0.0514009
0.000570586
4.97426
0.000223822
0.0706219
1.73791
0.0446592
0.0198728
0.000327222
0.00752525
0.00390703
0.000506775
0.0879529
0.000256551
0.0479879
3.68017
8.42548e-05
1.29436
0.000611914
3.26068
0.0280792
0.000536203
2.47614
0.010946
0.00179766
3.34857
0.0457132
0.000551912
2.51054
0.000338225
0.0007685
0.0567259
0.000250918
0.000264232
2.98047
0.000352559
3.14886
0.000161642
3.16846
0.00339911
0.000242524
0.000656207
0.000400394
0.00295305
0.000468164
0.0429513
2.81408
0.000567151
0.0116434
0.0182637
1.43621
2.16929
0.00026772
0.0241809
0.000334906
0.00650665
0.0239465
0.0293828
0.000274622
3.45517
0.000305655
1.96645
0.000513389
4.49065
3.60255
1.75689
0.0477505
0.0379825
2.17534
0.000348494
0.00030476
1.42178
0.975254
0.0622689
0.000702553
0.000762234
0.000539204
0.00739667
0.000158473
0.000614764
0.00743487
1.70272
0.000613421
0.000515826
0.00146282
0.0247086
0.00688557
0.0146961
4.32006
0.000757935
0.000227361
0.000604716
0.00454319
0.00638947
0.00031072
0.000620528
4.72302
0.251396
3.11997
0.00241758
2.58384
0.000382866
0.00048024
2.32471
0.000410446
0.000354824
0.000294685
0.0489082
0.000102585
0.0527742
0.0104314
0.0249698
0.0470601
0.000110789
0.000617511
0.000170038
0.0251373
0.000376684
0.000268204
0.000320174
0.0114133
0.000522196
0.000178234
0.000334724
0.0126886
0.000236031
1.55678
0.000438641
0.000245282
3.15926
0.0582177
0.0556416
5.32636e-05
0.0266397
0.000700676
0.000407195
0.000480013
0.0682048
0.000319252
0.000150294
3.53899
0.0369243
0.000231952
0.0125812
1.75013
0.000525989
0.000230181
5.57152e-05
3.45491
0.000778636
3.04277
0.00297432
3.9266
0.0415057
0.011831
0.03193
0.000436127
2.21165
0.000558573
0.0103138
0.928409
3.7353
4.6346
0.0464454
0.000372146
0.000177211
3.95231
0.138576
4.24427
3.99233
0.000892733
0.000265998
2.74005
3.70613
0.000254681
0.00186385
0.000565661
3.74
0.000151866
0.010612
0.000299768
0.0879455
0.000746781
0.000414434
0.00019228
2.32139
0.000472158
0.000558735
0.0551475
4.50942
0.000254964
0.000265039
0.138609
0.0570885
0.00027049
0.00222419
7.10463e-05
0.000330306
0.000305982
2.78156
0.0138569
0.000812148
0.00746051
0.00015499
0.0368965
0.00517471
8.64201e-05
4.25963
0.000720505
0.000263347
0.000234677
7.88598e-06
0.0296402
0.00148706
0.00142036
3.06352
0.000177004
0.0653997
0.000788363
0.00201745
0.000412263
0.000335509
3.82804
1.24322
0.000103524
0.000610454
0.0550121
4.01195
0.175656
0.239658
0.0449592
0.000177573
4.18645
1.72138
2.61969
0.000190661
3.0171
0.000210841
0.000303215
0.000581403
4.69294
0.000376276
1.85633
0.000285964
0.0456135
1.13858
3.21262
0.0134627
0.000394141
0.000696212
0.000145719
0.000312528
9.83246e-05
3.93099
0.000455248
2.88909
0.0500401
0.0475798
0.205767
0.000161338
0.0773423
2.39169
4.51256
0.0266792
0.000157755
0.00647612
2.58029
0.0226028
6.31722e-05
0.000159051
2.68548
0.000764784
1.17544
0.000206712
0.000286553
0.000687846
1.38381
0.00131054
2.009e-07
0.0345678
0.00710486
0.0781181
0.000112089
1.84449
0.00039419
2.7442
0.000492446
0.000259094
0.0155542
1.72641
3.82733
0.000568318
0.00117355
0.000168182
0.000306696
0.00314669
0.00885674
0.000590322
4.25144
5.4834e-06
0.00237496
0.000214818
0.000321386
0.00051504
0.000252327
0.00301423
0.000299298
0.0448504
0.000555267
0.000349847
0.000106858
0.000392196
0.00517412
0.00022221
0.0470809
3.99895
0.0599178
0.0214695
5.46451
0.0120975
2.40879
0.000521976
0.000307929
3.15684
0.000244098
0.000352115
2.52552
0.000185579
1.61663
3.9056
0.000622963
0.00497118
0.0476985
0.000372791
0.0276532
1.77382
0.0227472
3.99589
0.00023991
0.00060267
4.86667
0.000210793
2.43424
0.0102295
0.000272504
2.59393
0.00594709
0.000284946
0.0156998
0.00252645
0.000277845
0.027933
0.0225375
0.0143672
0.0416013
2.60373e-05
0.00141347
2.49655
0.000592354
0.000725705
0.000507042
1.43787
0.000297082
0.0370113
0.000418635
0.000632775
2.45111
0.000360946
0.00101614
0.0357375
0.000523792
0.0001174
1.82992
0.000273636
0.0450599
0.000434061
0.0207664
0.016986
0.0200043
0.000529451
0.00050158
0.0354038
0.000332511
0.000230789
0.0166122
0.000556813
0.0022386
0.000285153
4.64981
3.66716
1.81764
0.000436986
0.017412
9.96072e-05
4.60778
0.0809826
5.37698
0.0201762
0.000513879
4.14921
3.8078
0.000170345
0.000529439
0.0122974
0.000319353
3.52507
2.85019
0.000791394
0.0842506
0.000289736
2.2716
1.51187
0.000437757
0.136429
2.53429
0.000292734
3.59185
0.000730406
4.22388
0.000306113
0.00534951
0.000513012
3.00707
0.0418127
0.0378975
0.00054702
1.6022
1.77475
4.6548
0.00054864
0.000156566
0.00926101
1.89205
0.000254298
0.0388789
0.000289448
0.0137831
2.49041
6.53962e-05
0.0162967
0.000578362
0.000329792
0.0387646
2.47697
0.000572469
0.03108
0.000748555
0.000963525
3.30234
4.19141
1.94697
0.0060353
0.042994
0.085683
0.00625013
0.000687475
0.000104374
0.000215358
2.66338
0.000269715
0.00133822
0.17916
0.000630447
0.00210866
0.00090852
0.000431246
0.0439017
0.000192123
0.000740179
0.0158623
1.86646
0.000654027
0.000312004
3.08529
0.0164864
0.000244171
0.00241849
0.0485533
0.000447143
0.000584478
0.0001824
0.694754
0.000255155
0.000274281
0.044679
0.000254228
0.000632288
0.00795999
0.00766678
0.000441728
0.0018837
4.58168
0.000485781
0.000215784
0.00026866
0.000147247
0.00279638
0.00100753
3.45921
4.79644
0.0145702
2.50177
0.000599412
0.000239998
0.000255147
0.000325387
0.00060832
0.000695498
0.00983018
0.0027084
0.000685946
0.00160294
0.0385581
0.015205
0.0049621
0.0362661
0.000286819
0.00109533
0.000222723
0.00595083
0.0790113
3.39558
0.0432292
0.0545354
0.000437391
7.6193e-05
0.000524531
0.000542874
0.000154338
4.22653
5.43531e-05
0.015594
0.000234344
2.09646
1.91805
2.5405
5.36876e-05
0.000251016
0.000219503
3.86045
2.46578
0.0283911
0.00639931
0.000919085
6.16846e-05
0.000660154
3.60868
0.000120447
0.000260428
0.0390178
0.000380579
0.000307603
0.000122291
0.000512546
0.00736991
0.00282856
0.000237952
0.00015765
0.0062135
0.000145864
1.33016
3.77308
0.000329085
0.0344404
0.000664773
2.53367
0.000219685
0.000164631
0.000183504
0.000300794
0.221478
0.00051486
0.00022816
0.000681534
0.0317152
0.000422529
0.000517597
0.000367516
4.06281
0.033807
0.0108946
4.80587
0.0367943
1.47949
2.59255
5.43707e-05
0.000317601
0.000228444
8.41548e-07
0.000412851
0.0415088
0.000596767
0.00035505
0.0104823
8.12759e-05
0.000154868
0.0179235
0.000217321
0.000313377
0.000213459
0.011494
0.0160619
3.97846
6.29242e-05
2.28605
0.037311
1.38657
0.0160201
3.94555
3.70672
3.62842
0.000235111
0.000525422
5.61575e-05
0.023355
0.000333926
0.179782
1.15034
0.000139072
0.0610316
0.0636083
0.00040586
0.000210033
0.000417765
4.59593
4.00027
0.000252122
0.0406097
0.046488
0.00740941
2.48474
9.48928e-09
0.000179888
0.018007
7.67706e-05
1.01148
0.0841358
2.79862
0.0444264
0.000263092
0.0448305
0.000679306
6.00271e-06
0.0267929
0.00183264
0.00473874
0.0002655
0.000284796
0.138324
0.000535298
0.000315327
0.000266206
0.000422473
0.0929078
0.000933043
3.6297
0.0355928
0.000272878
1.1181
0.000472877
0.0844077
0.000908915
0.000109964
0.000283128
0.0170078
0.0135371
9.06758e-05
0.000334151
3.88174
3.89307
0.0403404
0.000532478
0.0255799
0.114273
0.0496339
5.31952
0.0370087
0.00477355
0.000201856
3.09797
0.000533862
0.000205554
0.00594843
2.16848
3.65451
0.000378328
0.000471322
1.80523
0.000238182
3.89268
2.07402
0.000301906
0.000371637
3.41768
1.18458
1.09202
0.00015556
0.000249015
0.000316639
0.0231938
0.0400924
0.000226402
0.000209589
0.0011942
0.0383533
0.00231591
0.0275717
1.1636
6.17027e-05
0.000295366
5.72367
6.80926e-05
0.0116288
0.000887287
0.0163986
0.000340748
0.000739098
0.135866
0.000388303
0.000148562
0.000120768
0.0139457
0.0123888
4.38021
0.000225788
0.000194484
0.00033362
0.0314389
0.0863619
4.23258
0.000642385
0.0369322
0.0352131
1.29236e-06
0.000309911
0.00194208
2.36364
0.000494769
0.0733095
0.000561725
5.57755e-06
0.0278683
0.000507159
5.78981
3.46816
0.0261397
3.69593
3.96833
4.5226
7.02351e-05
2.35144
0.0303203
0.000247379
0.0337275
0.000359968
0.00202736
0.055066
0.000499393
0.00410022
0.0179282
4.7184
0.000860417
0.000505816
2.28505
0.00382496
0.000579706
0.0371076
1.29191
0.245967
0.000118161
0.00759413
4.83869
2.74881
0.114075
0.00984441
1.63751
0.00319082
0.000277522
0.0193285
2.05322
0.000482288
0.215369
0.00212006
2.07487
0.00058657
0.0235388
1.02641
8.42796e-05
0.00142198
0.000123082
2.59903
0.194249
2.34121
1.44416
0.000613695
0.0191046
0.0158734
0.00478126
1.09441
0.00706502
0.000185199
0.000536546
0.000474172
0.000403993
0.0258213
2.61005
0.000238873
2.54256
0.000328951
0.0514455
8.51233e-05
0.000380319
0.000210457
2.84858
2.10715
0.0153058
0.013921
0.000332363
0.000472148
0.0444329
0.000185813
0.183739
0.0531485
3.23803
0.000956991
0.0435514
0.0462427
0.000553785
0.000635765
0.000767873
3.30432
0.000911826
0.00537322
0.049968
0.0353582
0.000631709
0.00470779
0.00024807
0.000361514
0.000863737
0.0004296
0.00910704
0.000291364
0.00988752
2.34706
0.0819669
2.82021
0.000338307
0.00879474
0.0185081
0.000519338
1.26187
0.00105442
0.00281769
3.47786
0.000566922
0.0256762
0.00315237
0.000232876
1.64925
0.000112726
0.0630299
0.000387205
0.0376065
0.0416307
2.81166
0.000610332
0.0459382
0.000338133
0.0645766
0.000529508
2.9021
0.0257251
0.01745
2.54271
0.00179676
3.92399
0.000422126
1.49046
0.00119162
0.000207511
0.000823648
0.0246948
0.0354312
0.000785943
0.00011616
0.0608122
0.000231422
0.000135849
0.000668015
0.000396649
0.000444288
4.896
0.000622276
0.000393935
0.0465378
0.0142912
4.50313
0.000331391
0.00017969
0.000401668
0.0739525
0.000689288
0.00181154
3.76019
0.107665
0.0430956
0.000278099
0.0051057
0.024623
2.64792
0.000149371
9.96602e-05
0.00164344
0.000669476
0.000426717
0.215652
4.43827
2.86493
0.0184606
0.000324802
0.045664
3.24444
0.0109445
0.0473262
0.000564572
1.34273
2.48918
4.19259
0.000463906
0.000469995
0.00768089
2.26676
0.000637476
3.79307
0.0025025
0.0397997
1.70104
0.000325342
0.00120228
0.00256304
8.27891e-05
6.96839e-05
0.0102639
1.21207
5.77561e-05
2.30282
0.000342566
0.000363334
0.000279447
0.000111693
0.00764284
0.00151046
0.0823873
0.0190815
0.000602575
0.000570019
1.43947
2.45619
0.000192295
0.000624589
0.000375639
0.341837
2.2448
0.00933663
3.79616
0.000294697
7.65894e-05
0.007687
0.000422119
0.00695646
0.0430828
0.000239482
0.000300972
0.00010596
0.00422693
0.0229386
4.08726
0.0457285
8.07458e-05
0.0088693
0.000139295
3.42936
3.71624
0.000185244
7.5561e-05
0.0603149
0.000407778
0.000905667
1.31438
1.20892
0.00806895
9.60703e-05
0.000605549
0.0246823
1.19269
0.00110265
0.000982957
1.05363
2.4494
3.04793e-06
0.000321953
0.000778815
0.000338031
0.0662136
0.00692673
0.000372522
0.0500047
0.000491483
0.000227279
0.000413037
0.00830356
0.000410723
3.72045
1.68972
3.28384
1.00373
0.226285
4.33511
0.00032999
3.26229
0.00913686
0.000218645
0.0182116
0.00038
0.00711276
0.000235123
0.000382258
0.000727566
2.36204
0.000301555
0.0133309
0.0437998
0.00295543
0.00833149
0.060494
4.16948
0.000276788
3.99876
2.93646
0.00247299
0.00041081
0.0064761
0.0230795
0.00508072
0.0405938
4.43573
0.000244808
0.000701371
0.000421017
0.0271408
3.58346
0.000594589
0.00222648
0.000283286
0.00019718
0.000896629
0.0183886
7.80303e-05
0.00343983
0.00666825
1.67489
0.00012196
0.00844044
2.79215
0.000495277
0.00901799
0.00616307
3.58989
0.0110393
0.0935498
0.00705329
0.000327522
5.62899
2.19173
0.000488331
0.0194614
0.0345019
0.00016415
0.000816318
0.000264789
0.0304589
0.000327523
0.0143339
0.00010629
0.0432338
1.62032
0.0537293
1.56993
0.0126646
0.000712459
0.0592801
0.0415277
0.00234658
0.000469942
0.00259564
2.53562
0.000266706
0.0102974
0.000639464
0.00051319
0.019319
0.00118785
0.000488769
0.000199489
2.48819
0.0588357
0.000109068
0.000467794
8.27552e-05
0.000247673
0.000484636
1.41653
0.000404708
0.0882533
2.14094
0.0361967
1.41038e-05
0.0502973
1.11966
0.0850205
1.40437
0.00548832
0.0640176
3.14912
3.32777
0.000186806
2.0001
0.000147881
2.99413
1.11436
6.66108e-05
0.0167173
0.0329262
4.52045
0.0215879
0.0114251
0.000250121
0.0377617
1.96781
0.28093
3.25004
0.000564393
0.0838435
8.78744e-05
2.15659
0.00754653
0.00053465
0.000473327
0.0647278
0.000876054
0.0029374
0.0912784
0.000222876
1.52803
0.000515457
0.000223975
0.280991
0.0384582
0.00239298
0.00707408
0.0372836
0.000613236
0.0117751
0.470817
0.000126793
0.0158227
0.000529847
1.45727
0.0488514
0.000235533
4.05879
0.000103116
0.00926791
0.429
0.000209436
0.000434284
0.00877849
0.0215548
0.0370555
0.000477287
4.41292
0.0011467
0.0108198
4.25554
0.00994733
0.000515061
0.192016
0.00043994
0.00028248
5.22819e-05
0.0515139
2.06258
0.000504516
2.61704
0.00803166
0.000486577
0.0532709
0.000349151
0.00149896
0.0259211
0.000342221
0.00019243
0.183626
0.00107021
0.000248442
0.000383902
1.55856
2.0304
0.00372173
0.00010887
0.000363476
0.0279443
4.32977
0.000403606
0.000775986
0.009856
2.8537
0.000927953
0.0614163
0.0266221
0.000207012
0.00899484
3.36379
0.000363609
0.00492891
0.000146264
0.667053
0.000416879
0.000306399
0.00308615
0.0214855
2.05038
0.00069918
2.63505
0.00070156
2.79008
0.000206834
0.0275182
0.0119319
0.0829653
1.613
0.00282512
0.0302258
0.000654578
0.000437391
0.000594918
2.06926
2.34887
0.00012189
0.000169289
0.0954151
0.000431243
0.00157077
0.000487066
4.25023
3.31856