/*--------------------------------*- C++ -*----------------------------------*\
  =========                 |
  \\      /  F ield         | OpenFOAM: The Open Source CFD Toolbox
   \\    /   O peration     | Website:  https://openfoam.org
    \\  /    A nd           | Version:  10
     \\/     M anipulation  |
\*---------------------------------------------------------------------------*/
FoamFile
{
    format      ascii;
    class       volScalarField;
    location    "1400";
    object      k;
}
// * * * * * * * * * * * * * * * * * * * * * * * * * * * * * * * * * * * * * //

dimensions      [0 2 -2 0 0 0 0];

internalField   nonuniform List<scalar> 
10435
(
1.55334
1.82921
1.84537
2.04553
2.16292
2.11505
1.83738
1.92313
1.89747
1.9907
2.08388
2.13286
1.98381
1.00798
1.0502
1.92177
0.973587
2.13595
1.79675
1.66355
1.91992
2.01922
1.89802
1.94222
1.91603
0.612896
0.77893
1.87373
0.731356
2.07342
1.92795
2.16894
1.92506
0.741514
1.9886
1.33715
1.99529
0.793702
0.496643
1.8658
2.17383
1.84948
0.762435
1.8909
1.97694
1.9076
2.12072
0.743514
1.83869
1.91432
1.9398
1.96975
0.482291
0.675277
0.52532
0.686904
2.01898
0.812131
0.898906
1.99075
0.514522
1.66948
0.80456
2.01177
1.93601
1.86129
0.848532
0.848046
1.90746
1.95357
0.670025
0.712914
0.58992
1.85916
1.10328
0.76047
1.98282
1.84298
1.90615
1.09111
1.98299
1.38839
0.468304
0.681712
1.99377
1.28088
1.44705
1.88181
1.15498
1.56108
1.96607
2.03233
1.48767
1.23531
1.67572
1.1987
2.0743
1.0658
0.935819
2.09794
1.10451
2.25763
1.33606
1.78451
2.21534
1.97564
1.58846
1.95697
1.99876
1.14849
1.85121
2.29861
1.29694
1.21683
2.09558
1.95048
2.09732
1.39419
1.88579
2.12676
2.09607
0.65681
1.52115
0.865633
2.37688
0.564356
2.11119
0.70303
2.10279
0.796432
0.780696
2.3448
1.93985
1.04323
0.754241
0.431525
1.12112
2.09856
1.77795
1.86639
1.76949
1.9402
0.809672
2.02102
2.06869
0.938938
0.97801
2.03116
0.939791
2.07399
0.695727
2.01783
1.57532
2.03619
1.98265
0.651082
2.37113
1.65535
1.98628
2.13485
2.0173
1.00305
2.05166
2.11495
1.17152
2.0688
1.94159
2.14452
2.08549
2.02963
1.92649
0.529451
0.717103
0.993093
2.09502
1.96774
1.5006
0.874273
1.77532
0.771098
1.96877
2.12651
2.10334
0.539076
1.98351
0.674215
0.683165
1.86178
2.15178
1.98068
2.11206
0.458352
0.767012
1.31145
2.34228
1.88524
0.86274
1.17645
0.811964
1.95994
1.16969
0.769154
1.9164
0.799946
1.87145
2.13551
1.98174
2.13229
0.812594
2.0976
0.62869
1.86555
2.07109
2.12087
0.764359
0.971929
1.25068
0.519149
0.619931
0.968647
0.748044
0.917875
0.839777
0.946414
0.642884
1.96834
0.554073
1.09166
1.94329
0.794036
0.88065
1.96031
0.584901
2.04669
0.825982
0.942886
2.02717
0.650146
2.0352
1.90923
1.79477
0.59549
0.531202
0.690251
2.10822
1.91062
1.08343
1.88133
0.586804
1.76061
0.617016
1.25714
2.00721
2.10954
1.85984
2.0666
0.542716
1.84619
0.600324
0.751121
1.83576
1.93422
0.601518
2.04525
1.3415
0.905593
1.68755
1.90605
0.500537
2.12898
1.82901
1.8916
1.8725
1.8945
0.658768
2.12875
0.790958
2.21753
1.89894
1.89615
1.96768
0.854708
1.82665
1.04055
1.35442
0.477886
2.09966
0.523451
0.686943
0.756854
0.988603
2.26325
0.810744
1.88266
0.504298
0.660706
0.894297
1.44399
2.23165
1.88945
0.839932
2.05046
1.83095
0.630759
2.22139
1.01506
0.918575
2.0698
1.87247
0.688479
1.68678
0.731736
1.52902
2.0775
1.94029
0.658497
0.548348
1.98207
0.870065
2.14217
2.18286
0.770803
1.46278
0.448922
1.89227
1.91676
0.702314
1.844
0.875321
0.811852
1.94705
0.778371
0.686496
1.83402
2.06534
0.823536
0.656187
0.613528
0.706879
0.69513
0.732399
0.684855
0.502863
0.718505
0.692967
0.699313
0.83784
0.842579
0.440077
1.88193
0.690644
1.89851
0.764799
1.86743
1.87845
1.79156
1.99076
1.88129
0.686097
0.718362
0.632537
0.577421
0.681878
0.487587
0.749122
0.754198
0.819488
2.11431
0.73629
1.87161
0.550653
0.779938
2.04247
1.72027
0.477634
0.782569
0.798939
0.809617
0.714953
0.651439
0.917501
0.535227
1.90609
0.846247
1.89682
1.85978
1.90153
1.94594
1.83629
1.8499
1.97051
0.849172
0.600566
0.720061
0.670199
1.83772
0.702558
2.0488
0.885607
0.776239
0.794472
0.800161
0.56488
1.86602
0.804213
1.90611
2.08258
0.547079
0.686597
0.837921
1.75144
0.848226
0.713008
0.612583
0.684469
0.79255
0.733885
1.84948
0.668522
0.687179
0.735236
0.750599
2.16048
0.472842
0.440055
1.61412
0.711547
0.127452
0.125245
0.121216
0.116144
0.110453
0.104295
0.0978502
0.0913253
0.0849661
0.127138
0.12431
0.120044
0.11492
0.10926
0.103271
0.0971344
0.0910944
0.0854517
0.126487
0.123259
0.118813
0.113653
0.108077
0.102281
0.0964616
0.0908545
0.0857354
0.125813
0.122318
0.117717
0.112542
0.107065
0.101467
0.0959383
0.0906871
0.0859327
0.125383
0.121685
0.116943
0.111762
0.106379
0.100963
0.0956811
0.0907045
0.0861831
0.12544
0.121564
0.116683
0.111488
0.106181
0.100914
0.0958312
0.091065
0.0867193
0.126266
0.12219
0.117147
0.111913
0.106649
0.101493
0.096561
0.0919597
0.0877719
0.12826
0.12383
0.118571
0.113258
0.107996
0.102903
0.0980712
0.0935888
0.0895319
0.131786
0.126736
0.121206
0.11577
0.110468
0.105388
0.1006
0.0961737
0.0921716
0.136864
0.131092
0.125309
0.119729
0.11435
0.109232
0.10443
0.0999896
0.0959434
0.14318
0.137027
0.13113
0.125424
0.119944
0.114744
0.109872
0.10536
0.101215
0.150386
0.144725
0.138931
0.133142
0.127544
0.122222
0.117234
0.112609
0.108354
0.159152
0.154615
0.149019
0.143153
0.137402
0.13191
0.126757
0.121977
0.117595
0.171308
0.167306
0.161709
0.155665
0.149683
0.143949
0.138562
0.133572
0.129012
0.18762
0.183139
0.177157
0.170758
0.164427
0.158356
0.152652
0.147364
0.142503
0.207848
0.201992
0.195278
0.188347
0.181548
0.175047
0.168946
0.163302
0.15813
0.230594
0.223318
0.215771
0.208219
0.200872
0.193866
0.187304
0.181252
0.175759
0.254575
0.246517
0.238285
0.230127
0.222204
0.214654
0.20758
0.201058
0.195145
0.279662
0.271309
0.262589
0.253888
0.245403
0.237299
0.22969
0.222658
0.216257
0.30604
0.29769
0.288612
0.279421
0.270403
0.261762
0.253625
0.246085
0.239214
0.334055
0.325817
0.316392
0.306724
0.297203
0.288061
0.279427
0.271391
0.264029
0.364229
0.355925
0.346006
0.335814
0.325826
0.31625
0.30719
0.298717
0.290905
0.397387
0.388254
0.377483
0.36668
0.356283
0.346391
0.337035
0.328248
0.320127
0.434636
0.422873
0.410671
0.399198
0.388525
0.378518
0.369068
0.360135
0.351825
0.477251
0.459214
0.445148
0.43316
0.422492
0.412678
0.403429
0.394612
0.385542
0.22248
0.222488
0.223086
0.224272
0.226056
0.228433
0.231398
0.234928
0.239006
0.24359
0.24864
0.254105
0.259918
0.266012
0.272297
0.278686
0.285082
0.29138
0.297473
0.303253
0.308598
0.313378
0.31743
0.320503
0.322442
0.323226
0.322942
0.321544
0.318817
0.314893
0.309921
0.303942
0.296987
0.289181
0.280644
0.2715
0.261878
0.251909
0.241726
0.231463
0.221252
0.211222
0.20149
0.192162
0.183338
0.1751
0.16751
0.160621
0.154455
0.149022
0.144312
0.140295
0.136942
0.134206
0.132045
0.130416
0.12928
0.128602
0.128352
0.22212
0.22246
0.223343
0.224777
0.226761
0.229287
0.232344
0.235915
0.239981
0.244509
0.249461
0.254787
0.260429
0.266317
0.272374
0.278514
0.284644
0.290665
0.296475
0.301966
0.307028
0.311548
0.315401
0.318442
0.320511
0.321459
0.321194
0.319684
0.316966
0.313139
0.308287
0.30246
0.295714
0.288126
0.27979
0.270817
0.261328
0.251449
0.241315
0.231059
0.220816
0.210717
0.200887
0.191443
0.182489
0.174117
0.166398
0.159383
0.153101
0.14756
0.142746
0.138632
0.135177
0.132335
0.130059
0.128303
0.127024
0.126189
0.125758
0.218739
0.219139
0.220055
0.221498
0.22347
0.225968
0.228982
0.232497
0.236488
0.240926
0.24577
0.250974
0.256481
0.262225
0.268132
0.27412
0.2801
0.285977
0.291649
0.297013
0.301955
0.30636
0.310098
0.313032
0.315023
0.315954
0.315746
0.31436
0.311805
0.308138
0.30343
0.297745
0.291152
0.283729
0.275565
0.266765
0.25744
0.247713
0.23771
0.227564
0.217406
0.207367
0.197575
0.188147
0.179194
0.170809
0.163066
0.15602
0.149701
0.144119
0.139261
0.135099
0.131595
0.128702
0.126373
0.124562
0.123229
0.122339
0.121854
0.212002
0.212413
0.213329
0.214756
0.216695
0.219142
0.222087
0.225514
0.229401
0.233717
0.238425
0.24348
0.248828
0.254407
0.260147
0.265968
0.271785
0.277504
0.283026
0.288245
0.29305
0.297324
0.300943
0.303782
0.305719
0.306648
0.306492
0.305213
0.302812
0.299324
0.294806
0.289322
0.282943
0.275748
0.267825
0.259273
0.250198
0.240717
0.230952
0.221029
0.211079
0.20123
0.191607
0.182332
0.173514
0.165246
0.157606
0.150648
0.144406
0.138887
0.134081
0.129964
0.126496
0.123628
0.121316
0.119515
0.118184
0.117292
0.116801
0.202966
0.203389
0.204301
0.205706
0.207606
0.209997
0.212869
0.216207
0.219988
0.224183
0.228756
0.233664
0.238854
0.244267
0.249834
0.25548
0.26112
0.266664
0.272014
0.277065
0.281709
0.285832
0.289317
0.292049
0.293921
0.294839
0.294737
0.293574
0.291343
0.288065
0.28378
0.278546
0.272432
0.265514
0.257878
0.249622
0.240847
0.231666
0.222199
0.212569
0.202903
0.193328
0.183968
0.174941
0.166355
0.158303
0.150861
0.144084
0.138003
0.132629
0.127951
0.123942
0.120564
0.117772
0.11552
0.113764
0.112466
0.111591
0.111106
0.191681
0.192074
0.192943
0.194295
0.196131
0.198447
0.201233
0.204473
0.208145
0.212219
0.21666
0.221424
0.226461
0.231712
0.237111
0.242583
0.248045
0.253409
0.25858
0.263458
0.267937
0.271908
0.275264
0.277899
0.279714
0.280627
0.280577
0.279527
0.277463
0.274397
0.270361
0.265404
0.25959
0.252994
0.245697
0.237794
0.229381
0.220567
0.211469
0.202209
0.192909
0.183693
0.174682
0.165992
0.157728
0.14998
0.142822
0.136309
0.13047
0.125316
0.120835
0.117002
0.113779
0.111121
0.108984
0.107325
0.106104
0.105289
0.104846
0.178434
0.17877
0.179572
0.180848
0.182601
0.184826
0.187514
0.19065
0.194211
0.198167
0.202483
0.207113
0.212009
0.217111
0.222353
0.227664
0.232963
0.238161
0.243168
0.247885
0.252212
0.256046
0.259288
0.261841
0.263613
0.264531
0.264539
0.263604
0.261708
0.258855
0.255073
0.250404
0.244912
0.23867
0.231752
0.224249
0.216253
0.207866
0.199208
0.190392
0.181536
0.172759
0.164175
0.155899
0.148031
0.140661
0.133859
0.127678
0.122146
0.117273
0.113048
0.109444
0.106426
0.103949
0.101969
0.100444
0.0993348
0.0986099
0.0982353
0.163107
0.16332
0.163998
0.165151
0.166784
0.168896
0.171477
0.174512
0.177976
0.181836
0.186057
0.190587
0.195375
0.200359
0.205477
0.210664
0.215843
0.220922
0.225813
0.230414
0.234627
0.238352
0.241509
0.244014
0.245769
0.246716
0.246801
0.245998
0.244274
0.24163
0.238097
0.233714
0.228555
0.222695
0.216187
0.209127
0.201602
0.193701
0.185555
0.17726
0.168927
0.160664
0.152582
0.144789
0.13739
0.130464
0.124088
0.118306
0.113145
0.10861
0.104692
0.101366
0.0985976
0.0963461
0.094569
0.0932244
0.0922737
0.0916846
0.0914228
0.14548
0.145468
0.14594
0.146919
0.148419
0.150432
0.152936
0.155889
0.159297
0.163163
0.167386
0.171904
0.176649
0.181547
0.186573
0.191656
0.196769
0.201863
0.206762
0.21132
0.215455
0.219094
0.222196
0.224677
0.226459
0.227477
0.227691
0.227064
0.225532
0.223075
0.219767
0.215664
0.21084
0.205386
0.199347
0.192729
0.18566
0.178361
0.170851
0.163158
0.155428
0.147769
0.140268
0.133023
0.126126
0.119694
0.113793
0.108503
0.103817
0.0996877
0.0961016
0.0930616
0.0905553
0.0885473
0.0869922
0.0858577
0.0851082
0.0847067
0.0846191
0.696892
0.651834
0.61131
0.572512
0.53453
0.49716
0.46067
0.42548
0.392017
0.36067
0.332369
0.30799
0.287831
0.271579
0.258144
0.246977
0.238267
0.232036
0.227977
0.225527
0.224197
0.223565
0.223241
0.222836
0.221883
0.663621
0.637078
0.603986
0.568152
0.531219
0.494034
0.457313
0.42173
0.38791
0.35651
0.328227
0.303561
0.282716
0.265601
0.251869
0.241145
0.233128
0.227513
0.223944
0.221996
0.221225
0.221216
0.2216
0.222034
0.222164
0.657352
0.63033
0.598138
0.562881
0.525973
0.48846
0.451269
0.415236
0.381116
0.349595
0.321233
0.296402
0.275286
0.257889
0.244051
0.233491
0.225844
0.220689
0.21759
0.21611
0.21581
0.216274
0.217118
0.217997
0.2186
0.656759
0.626458
0.592744
0.556605
0.519034
0.48096
0.443293
0.406896
0.372545
0.340897
0.312449
0.287529
0.266314
0.248845
0.235018
0.224581
0.217151
0.212271
0.209464
0.208267
0.208233
0.208942
0.210009
0.211083
0.211834
0.657453
0.623977
0.588049
0.550322
0.511577
0.472632
0.434324
0.397471
0.362811
0.330959
0.302376
0.27737
0.256115
0.238654
0.224887
0.214558
0.207276
0.202564
0.199921
0.198866
0.198938
0.199719
0.200828
0.201936
0.202759
0.657732
0.62148
0.583237
0.54369
0.503559
0.46358
0.42451
0.387105
0.352053
0.319929
0.291175
0.266087
0.244828
0.227423
0.21375
0.203532
0.196358
0.191738
0.189157
0.188118
0.188161
0.18887
0.189876
0.190867
0.191571
0.657669
0.618681
0.578042
0.536575
0.494966
0.45386
0.413927
0.375869
0.340338
0.307879
0.278922
0.253758
0.232531
0.215227
0.201684
0.191591
0.18451
0.179937
0.177348
0.176238
0.176142
0.176646
0.17739
0.17808
0.178496
0.657392
0.615316
0.572169
0.528775
0.485687
0.443423
0.402562
0.36376
0.327669
0.294817
0.26563
0.240404
0.219264
0.202119
0.188758
0.17882
0.171836
0.167288
0.16465
0.163408
0.163087
0.163271
0.163586
0.163724
0.163546
0.656388
0.610966
0.565346
0.52013
0.475652
0.432247
0.390433
0.350779
0.31403
0.280733
0.251271
0.226005
0.205061
0.188158
0.175048
0.165322
0.158448
0.153916
0.151219
0.149832
0.149238
0.149048
0.14878
0.147978
0.146621
2.13163
2.09532
4.27515
4.03584
0.0998239
0.117245
1.30434
0.0596832
3.64008
0.0830978
2.70255
0.122313
0.683232
0.170198
1.37834
0.138388
2.91714
3.74345
0.0791892
0.971702
0.639908
0.13264
3.09607
0.235679
0.0498606
0.0803967
0.0491096
0.438729
2.34468
2.85265
0.0804129
0.0934402
3.80098
0.797497
2.82362
0.0889092
1.23797
1.38434
1.31161
0.128203
4.0249
0.0232153
0.109672
0.801518
0.316148
0.17457
3.49222
4.03741
2.68763
3.12922
3.30762
3.6985
0.61968
3.61563
1.26081
3.64814
0.157388
0.614166
0.0677651
3.50701
0.109488
4.58984
0.0987407
0.14594
0.0616372
0.734692
0.103894
0.445301
0.712318
2.97444
3.57727
0.15799
0.0699078
1.01373
0.0560873
0.629522
1.1104
4.00718
0.0544691
3.30356
0.757145
0.133924
0.071988
2.60196
0.0998778
0.112144
0.0671357
4.00052
3.82931
0.191781
0.237537
0.133084
0.0945695
0.12705
0.0775504
2.72853
0.0812362
2.86711
0.0495911
3.48555
0.251217
4.03926
0.275392
0.162749
0.0615277
0.339806
3.27012
0.746143
0.031703
2.86571
0.135295
0.0865461
3.40585
0.158989
0.61475
2.66527
3.65665
0.121793
0.626254
0.0585269
0.00787766
0.0880959
0.235932
0.0508681
3.87831
0.107064
3.72741
0.896804
0.0747551
4.03572
0.0693709
1.01765
2.98447
1.1975
0.509869
0.0666371
0.305051
0.187872
0.109304
0.975185
0.13394
1.25061
3.54353
0.0103694
2.47019
0.153969
4.18063
0.875108
0.136845
2.76763
0.566855
0.160724
4.23349
1.55154
0.065134
2.56569
0.0547417
0.120027
1.2187
0.0905212
0.108771
3.54948
0.118142
2.9911
0.10317
2.94389
0.179139
0.047822
0.171139
0.0577979
0.155717
0.152827
0.444195
2.74179
0.104414
0.379201
0.891261
2.68525
2.96219
0.13576
1.03918
0.0909747
0.619447
1.07205
0.667795
0.0531878
3.09719
0.028471
3.31169
0.126108
3.85925
3.51685
2.976
1.22228
1.45116
3.47226
0.054755
0.129558
2.57244
2.20407
0.946014
0.196325
0.127493
0.128596
0.423628
0.0913602
0.108884
0.273441
2.80523
0.112925
0.0608331
0.11773
1.0205
0.401826
0.658134
4.13289
0.0806185
0.0619608
0.197646
0.241367
0.235541
0.0267045
0.0678687
4.81826
0.679304
3.7377
0.179217
2.94085
0.0302055
0.0743638
2.44972
0.0910048
0.0891277
0.0612552
1.29554
0.0865762
1.28852
0.324633
1.10001
1.60748
0.0813287
0.108612
0.101823
0.59351
0.0677274
0.069599
0.0951607
0.385806
0.136702
0.0934891
0.0264636
0.402949
0.0899291
2.68593
0.0737727
0.047598
3.25687
1.12744
1.2385
0.0792065
0.398702
0.083346
0.106807
0.0610345
1.03736
0.051655
0.0924415
4.43169
1.30391
0.0477402
0.699738
2.97647
0.0554277
0.0590706
0.0809306
4.38519
0.11706
3.46464
0.168286
3.69991
0.793629
0.589941
0.404785
0.173589
2.97401
0.118907
0.357875
1.66487
3.41867
3.91497
1.57809
0.123981
0.0152304
3.5205
1.3919
4.13933
4.04259
0.119078
0.0920077
3.20444
3.60619
0.108928
0.1498
0.132948
3.96302
0.0968019
0.640926
0.0913366
0.972073
0.132078
0.160269
0.122387
3.56674
0.0685501
0.0533307
1.23891
3.76083
0.0916673
0.0502068
1.52662
1.22611
0.0975249
0.157563
0.0798334
0.0696724
0.051727
3.61352
0.763917
0.115422
0.622715
0.101728
1.43506
0.204696
0.0844426
3.95339
0.11725
0.0822818
0.0766713
0.00338434
0.404769
0.117593
0.12016
3.30189
0.118495
1.04149
0.0805037
0.134479
0.0723684
0.0640211
3.30565
2.25243
0.0949051
0.0347442
1.25059
3.57004
0.543038
1.75868
0.803764
0.101607
3.47833
2.84559
2.80908
0.0868582
3.69148
0.020467
0.0624967
0.16043
3.90998
0.102256
3.22143
0.144327
1.53614
2.36135
3.68257
0.682066
0.0527689
0.0634558
0.105353
0.0897868
0.085158
4.04238
0.144517
3.86239
0.851
0.826415
1.65211
0.104576
0.970699
2.59453
3.86445
0.974396
0.0917063
0.290118
3.57393
1.0176
0.0806809
0.0971466
3.75334
0.119487
2.37716
0.0597804
0.111555
0.0990767
2.75878
0.114659
0.000494072
1.32847
0.304085
1.01044
0.0812202
3.04039
0.103457
3.1929
0.106328
0.0895952
0.187098
2.74956
3.30991
0.105579
0.131471
0.106113
0.0913135
0.200926
0.304593
0.165729
3.82748
0.00256315
0.169895
0.0870929
0.0942314
0.124132
0.0480302
0.19668
0.0540882
1.52099
0.154859
0.135028
0.0113973
0.0733362
0.172472
0.0897175
1.60517
3.59965
0.902691
0.736713
5.498
0.358685
3.48705
0.0617403
0.0546202
3.65826
0.102904
0.116122
3.10754
0.120743
2.90857
3.32774
0.113016
0.243417
0.948097
0.126243
0.648558
2.98272
0.974805
3.73317
0.0584318
0.065546
4.84931
0.0886501
2.64099
0.366939
0.0582853
2.79925
0.175078
0.0510958
0.732078
0.180273
0.0525385
0.899835
0.832116
0.668158
1.29978
0.00622315
0.11962
2.5528
0.0882779
0.132576
0.174746
2.70232
0.140242
1.41647
0.126536
0.0616922
3.48781
0.098854
0.0825521
1.39217
0.117896
0.0960803
3.19546
0.110009
1.53754
0.105238
0.520879
0.862603
0.854066
0.125825
0.125246
1.33577
0.0931166
0.116006
0.813197
0.104018
0.170633
0.0502647
3.88927
3.99017
2.79827
0.0540072
0.729176
0.0959321
3.90959
0.974681
5.60945
0.79669
0.182362
3.78351
4.1267
0.0914578
0.167522
0.389343
0.146398
4.4823
3.62608
0.0606506
1.01602
0.112029
3.02822
2.6542
0.131482
1.50888
2.85678
0.127597
3.47763
0.042325
4.60302
0.0998356
0.208605
0.118102
3.39895
1.26964
1.29296
0.0740558
2.73575
2.7831
3.8604
0.0640992
0.1128
0.647504
2.94178
0.0893017
1.18356
0.113145
0.694036
2.79045
0.0808422
0.714867
0.0650995
0.0945719
0.443877
3.65515
0.19199
1.29885
0.0721289
0.0988822
3.39865
3.51035
2.99274
0.227904
0.459831
1.00392
0.614587
0.192376
0.0973724
0.0616072
3.72979
0.122734
0.117795
1.60857
0.185075
0.152857
0.119717
0.141701
1.46813
0.122204
0.0714398
0.744123
2.82573
0.0904565
0.0905641
3.31793
0.442225
0.0237961
0.168713
0.886076
0.0767857
0.120438
0.086015
1.35681
0.101717
0.111625
1.3008
0.0685121
0.166854
0.302681
0.633071
0.07887
0.131897
4.85669
0.157872
0.0554725
0.0964437
0.11032
0.216824
0.0985169
3.45453
3.79834
0.405962
3.62509
0.0741887
0.0474955
0.0546488
0.0411357
0.154689
0.0556629
0.672632
0.18824
0.069941
0.14704
1.33649
0.689572
0.209175
0.729902
0.124458
0.110326
0.0693853
0.261286
0.993976
3.43174
1.47325
1.26293
0.0406184
0.0829848
0.0305033
0.187901
0.084175
3.53413
0.080485
0.682284
0.0928012
3.07485
2.80082
2.63529
0.00782687
0.0558751
0.0591137
4.13296
3.49382
0.636199
0.615356
0.0933366
0.0829915
0.0953618
3.55039
0.0147912
0.0879439
1.22424
0.0851454
0.149106
0.0863454
0.0537253
0.630334
0.173343
0.075212
0.0919445
0.241323
0.104467
2.51631
3.63412
0.0945919
1.34644
0.108676
2.69413
0.0637665
0.11511
0.0944708
0.0738237
1.68049
0.113912
0.117397
0.0677708
0.406836
0.077349
0.177928
0.154903
3.68497
1.33952
0.535193
3.99297
1.43307
2.7569
2.82667
0.0803342
0.0545816
0.0562873
0.00104789
0.122571
0.790282
0.146239
0.0839162
0.658803
0.0901713
0.0839365
0.458187
0.0996422
0.0920043
0.0626618
0.53441
0.818454
4.13068
0.0828842
3.05603
1.24873
2.62791
0.693772
4.14213
3.38973
4.54309
0.0576898
0.133059
0.00865982
0.372308
0.110376
1.46182
2.48283
0.108029
1.20089
0.921619
0.0745359
0.0621404
0.102198
3.68172
4.58189
0.0788452
1.34983
1.50804
0.639129
3.27075
8.09437e-05
0.0920466
0.472173
0.0116493
2.32653
1.04503
2.93986
1.50307
0.0483616
1.51084
0.0491524
0.00310561
0.623092
0.14285
0.210652
0.0899175
0.108622
0.700219
0.133296
0.0585029
0.110571
0.120799
0.560802
0.126194
3.59162
1.40651
0.125352
2.07736
0.151849
0.99526
0.117162
0.0993816
0.14343
0.774043
0.614787
0.0135554
0.148762
3.34896
4.56135
1.10787
0.111352
0.894008
1.25152
1.40305
5.35091
1.19749
0.23529
0.124907
3.11818
0.0453434
0.0578864
0.270713
3.46701
4.03913
0.0895962
0.0901621
3.16465
0.0525331
4.40063
3.20541
0.142393
0.0885871
3.71882
2.45591
2.36618
0.100253
0.0866271
0.0375686
0.861811
1.24749
0.102787
0.0535256
0.0898068
1.0939
0.134179
0.48383
2.49857
0.0826499
0.0983548
5.74374
0.0846605
0.712549
0.0756942
0.748695
0.0992527
0.0707794
1.31461
0.152911
0.11073
0.0958869
0.4317
0.720661
3.97079
0.0667787
0.0922546
0.108579
1.31775
0.986012
4.54913
0.0504056
0.836512
1.41009
0.00127072
0.0524318
0.115644
2.46561
0.10704
1.07238
0.149096
0.00221095
1.19087
0.128946
5.84596
4.46188
0.845916
3.58687
3.64831
3.66343
0.085146
3.53536
1.26062
0.135905
1.26252
0.0862971
0.117507
0.975138
0.112668
0.229044
0.712961
4.99623
0.066416
0.0544511
3.54039
0.206234
0.13445
1.33118
2.57554
1.74848
0.101808
0.29991
3.99812
2.91049
1.33016
0.681767
3.01578
0.236344
0.0547515
0.813644
2.9126
0.102841
0.74361
0.179971
3.21489
0.154344
1.00856
2.28849
0.0101641
0.101493
0.103242
3.13046
1.56206
3.16031
2.58123
0.191273
0.487315
0.684311
0.246817
2.41892
0.609931
0.0875787
0.124805
0.113195
0.0401617
0.923428
2.74695
0.028863
3.12952
0.153525
1.30384
0.0914321
0.0829902
0.0575069
3.58662
3.11462
0.419395
0.723812
0.089373
0.0693708
1.5462
0.0858276
1.65023
1.24409
3.83553
0.0803282
0.439
1.56385
0.137396
0.17969
0.125099
3.88501
0.12276
0.225637
1.30581
1.35806
0.0662093
0.243404
0.0886723
0.15016
0.0754768
0.0750177
0.652409
0.0684751
0.3311
3.03551
0.984764
3.57466
0.117815
0.305235
0.840234
0.0546527
2.43862
0.104392
0.147654
3.56231
0.14702
0.451716
0.230958
0.0475181
2.75703
0.0875945
0.478907
0.0516227
1.28719
1.38313
3.67053
0.0663505
1.17686
0.091549
0.495433
0.140271
3.31062
1.10514
0.348132
2.87108
0.12146
3.3779
0.108113
2.6544
0.137629
0.0564808
0.11986
1.04652
1.41239
0.058258
0.101053
0.995938
0.0848526
0.107072
0.0679439
0.0475962
0.135154
4.01855
0.166667
0.117554
1.48455
0.427234
3.64958
0.0358893
0.119155
0.0862115
0.338724
0.185454
0.114672
4.13985
0.409756
0.788501
0.0870536
0.254129
0.922065
3.17864
0.0989988
0.0957391
0.150176
0.180489
0.0956224
0.750905
3.84787
3.70508
0.731105
0.0857441
1.5705
3.89496
0.359319
0.971483
0.14114
2.62141
2.72318
3.49763
0.104529
0.108877
0.298283
3.14955
0.194383
4.38277
0.181819
0.485592
2.92158
0.0560501
0.137955
0.15202
0.0858793
0.0807163
0.162458
2.51029
0.081263
3.55501
0.0993152
0.090734
0.067575
0.0849893
0.640524
0.109946
1.01031
0.92119
0.091357
0.162584
2.60474
2.56803
0.0865035
0.104631
0.154171
0.939687
3.13636
0.333194
3.64206
0.0772985
0.0872397
0.63807
0.099976
0.410316
1.54314
0.0906803
0.0637129
0.0148609
0.179074
1.03842
4.74353
1.15627
0.0892587
0.318177
0.0833846
3.9553
4.02082
0.102999
0.0861889
1.2148
0.102592
0.0767102
2.53029
2.46387
0.195993
0.0889854
0.0721955
0.576353
2.53983
0.103551
0.0692582
2.35818
3.10123
0.00211303
0.0884646
0.0849498
0.155203
0.512266
0.629062
0.107458
1.37191
0.110211
0.131102
0.0847183
0.646106
0.0839775
3.4547
2.91037
3.81833
2.30349
1.67672
4.86748
0.094173
3.75658
0.674487
0.0665403
0.335078
0.0400339
0.280746
0.101969
0.0953176
0.0618778
3.3845
0.0515798
0.402914
1.54122
0.150337
0.308056
0.490319
3.48119
0.0313831
3.6137
2.87983
0.145456
0.0760022
0.279308
0.37561
0.251385
1.16267
4.86751
0.135031
0.0677885
0.102867
1.13576
3.97501
0.149574
0.17144
0.0494277
0.0851789
0.123594
0.478132
0.0859206
0.17251
0.298242
2.83045
0.0985419
0.293163
3.17457
0.128237
0.336471
0.262322
4.54393
0.338687
0.541806
0.626114
0.116205
5.72313
2.98699
0.0900432
0.866455
1.3863
0.0986062
0.137288
0.139714
1.28015
0.0921535
0.703762
0.0977051
1.5401
3.00624
0.913611
2.75432
0.238347
0.119333
1.01409
1.13658
0.159634
0.165693
0.126902
2.73071
0.140288
0.310091
0.0806175
0.180942
0.804035
0.10064
0.0679582
0.084991
3.24164
0.978468
0.0831414
0.177769
0.0799241
0.0988622
0.118553
2.64868
0.166624
1.04269
3.43406
0.851848
0.00414312
1.18073
2.34986
0.981805
2.71474
0.264964
1.13393
3.67233
3.41491
0.0262299
2.90713
0.0975436
3.50664
1.88901
0.0847058
0.713625
1.33321
3.92207
0.916572
0.366036
0.107314
1.30122
3.19588
0.762933
3.7054
0.180744
0.979898
0.0916736
3.05407
0.43621
0.0609927
0.120864
0.954953
0.0753151
0.22594
0.963874
0.0938268
2.63314
0.0503005
0.113446
1.82648
1.28245
0.176667
0.63218
1.44772
0.187746
0.725974
1.06339
0.104437
0.458178
0.0697243
2.8315
0.913485
0.0544537
4.15518
0.0972357
0.646084
0.994524
0.126494
0.0798745
0.626967
0.940012
1.2733
0.0720829
3.84424
0.105356
0.708415
3.9761
0.530338
0.173108
1.60497
0.149564
0.099531
0.00808286
1.29209
3.29082
0.105122
3.72235
0.292233
0.121521
1.18725
0.131523
0.121301
0.771647
0.155477
0.0939983
0.573675
0.0913267
0.121421
0.164153
2.92881
3.09259
0.217749
0.0913909
0.0716047
0.803188
3.87472
0.0966701
0.0900305
0.341927
3.80821
0.100294
1.0987
0.767721
0.0580888
0.665497
3.7986
0.0917973
0.251696
0.0922958
1.34385
0.082812
0.0971626
0.18181
0.527043
3.20095
0.0487512
3.64023
0.073154
2.78974
0.112601
1.18829
0.577197
1.01235
2.77213
0.158195
0.715119
0.184198
0.156983
0.161212
2.97219
3.05112
0.102681
0.103302
0.560143
0.160747
0.125578
0.0537963
4.12977
3.41981
0.944926
3.74814
0.174045
0.0590573
0.854222
0.252302
2.6983
0.0473894
0.137907
0.0586228
0.122475
0.101404
0.109258
0.106231
0.498969
4.11667
3.09348
0.0886203
0.313681
0.828809
3.54134
0.10948
3.95653
2.52676
3.48921
0.141622
0.955895
0.0714711
0.173061
0.128368
0.134577
0.0793975
2.61933
3.92991
0.147174
0.376111
0.962808
0.32413
3.0393
4.05904
0.108162
0.0677719
0.115782
0.325427
0.907679
0.057809
2.90149
0.813955
0.107185
0.187957
0.172401
0.596219
0.181265
0.0783613
0.099546
0.0829435
0.194482
0.718968
0.161222
3.76611
0.145919
0.11969
0.360309
0.173397
0.0897372
3.57416
3.09791
0.123825
3.19063
0.0837321
1.18909
0.145919
0.184992
0.0904719
0.0620279
3.03775
0.138021
0.162645
3.70458
2.671
0.0821639
0.089758
0.0919805
0.16912
1.47596
0.0170952
0.109741
3.83969
0.107349
0.0842551
0.149607
3.41767
0.116753
3.17446
2.71539
0.081231
4.71343
0.160334
0.0476471
4.13945
0.944303
0.0814303
0.00223644
0.63273
0.178402
0.192993
0.0665587
1.36238
2.90517
0.124166
0.063154
3.06715
0.10933
2.19213
1.27095
0.120235
0.887883
3.88042
0.0798012
0.849527
0.101417
0.147812
0.175403
0.101193
3.39999
2.92858
0.11703
0.0869701
3.50341
0.126719
0.1821
0.181953
0.857229
1.22503
0.0569537
0.0885683
0.0870391
0.0957358
0.0549696
0.00153786
0.156751
0.172858
3.38214
0.64084
0.0971254
1.60229
0.17172
1.04322
3.92199
1.05372
3.29577
0.203161
0.00322954
0.661008
0.177761
0.109683
2.72912
0.138925
5.82912
3.02986
0.633535
0.135973
3.80339
0.0561045
3.33664
0.108675
0.107808
3.71425
0.434113
1.04436
0.123763
0.0981905
0.0632657
0.152646
1.4411
1.1416
0.107387
2.29733
0.524077
3.04439
0.0548878
4.09783
0.122229
0.0969126
0.362236
0.0937492
0.641823
3.40217
0.80188
0.0626092
2.72996
1.36916
0.768633
0.974917
0.728809
0.0306062
0.727884
3.38162
0.0866651
0.101454
0.100057
3.62425
0.132939
0.0563728
1.33155
0.746378
0.349005
4.08797
0.88347
0.282698
0.339266
1.30445
0.17799
0.775975
0.0856848
0.102183
0.097945
3.55406
0.130434
1.07563
3.13095
0.049753
1.02316
3.17112
0.104692
2.69232
0.0909549
0.754998
0.175491
0.0519827
0.150118
0.0873266
0.059341
0.158524
0.124497
0.12883
0.155085
2.86004
0.774134
0.121327
0.747574
0.0846012
0.110528
0.0893331
0.112061
0.145336
1.55525
0.0492921
1.6675
3.12657
1.52565
1.11852
0.509141
0.158054
3.44144
0.0987394
0.664809
0.123082
0.105203
0.226083
2.92307
0.145311
0.093073
0.0846343
0.287451
0.210922
1.50776
0.729819
1.35415
2.61872
0.104244
0.077435
3.92543
0.0983586
0.128462
0.0589059
0.221499
0.0689591
0.0805774
0.145611
0.0533718
1.16531
3.23233
1.56171
0.194044
0.0874293
0.984952
3.46625
2.92725
0.058748
0.116051
0.815131
0.0880233
0.0545257
0.177924
3.16483
0.872217
0.0848654
0.0967915
0.143137
0.0577477
3.10498
0.0910565
0.119781
0.125626
0.120877
3.00291
0.0946335
1.55643
0.170814
0.15088
0.0666742
0.0732976
3.27356
0.505385
0.0843499
3.82912
0.860399
0.727647
0.0637308
0.102769
1.27363
4.06761
4.06894
0.0894008
0.963431
0.0943091
0.0832302
3.38427
2.9295
0.0510435
0.00317448
1.11556
1.4868
0.0869697
0.0516669
3.10204
0.0964202
0.397782
0.208461
0.127747
4.14199
0.0919877
0.100127
0.131105
2.36999
0.0872431
0.0597304
0.0924224
0.12712
0.318878
0.159058
0.627696
0.866358
0.821257
0.124316
0.113156
0.084785
0.0761696
0.122172
0.106113
0.747642
0.112179
0.140285
0.699787
2.99988
0.07943
0.0537492
0.128465
3.62003
0.113451
0.988798
0.0442487
0.0881284
0.0134034
0.124543
0.0968008
3.82751
0.130736
0.0684717
0.616945
0.0878585
1.38252
0.115381
0.0909857
3.38349
3.386
0.0531094
3.06975
0.0918837
1.1012
2.06035e-05
2.95401
0.0771379
1.50625
0.101501
3.32842
0.625945
1.15978
3.09614
3.99905
0.149313
3.73044
0.0678951
0.0598779
0.0923512
3.31657
0.223746
0.0596427
0.845249
2.55855
2.57396
0.184585
3.97797
0.0661924
0.172087
0.0899782
0.603404
0.180447
1.64213
0.105926
0.139036
0.0888516
0.0564067
0.174574
2.87439
0.0885593
0.0878312
4.01378
0.715464
0.0516935
0.227755
3.39639
0.120349
0.106182
3.59273
0.187817
3.64028
1.29867
0.0966956
0.497651
0.94233
0.0291818
0.167641
0.0840393
0.0542556
0.181921
0.180182
3.22276
0.0595727
0.964989
0.339895
0.123185
3.24086
1.22043
0.179751
0.0958314
0.048105
0.0726091
0.0528238
1.08271
2.23415
0.0891143
0.107452
0.124693
1.16572
0.162818
0.940502
0.14034
0.106817
0.134476
0.152652
1.4588
0.160482
0.70163
1.18939
0.000296223
1.36695
0.117259
0.954979
0.630416
0.1074
0.102226
0.181357
0.0769352
0.15601
1.22736
3.59489
3.46354
2.99137
0.876469
0.00857717
0.0522369
1.30403
0.0637616
1.44901
4.01241
0.0929233
2.67418
0.964977
2.53578
0.134903
0.062961
0.108012
0.0864783
2.80374
0.08712
3.22741
0.340952
0.214286
0.0573391
3.22042
1.21455
0.122646
0.0756901
0.809904
0.154452
0.105773
0.844347
0.94313
0.0779178
0.0760896
2.92122
0.0918943
1.16103
0.130831
0.11516
0.178093
2.90613
0.0109429
0.0377777
0.0876145
0.0841255
0.326983
0.0735316
3.44214
0.409449
0.0323786
0.128085
0.0763819