/*--------------------------------*- C++ -*----------------------------------*\
  =========                 |
  \\      /  F ield         | OpenFOAM: The Open Source CFD Toolbox
   \\    /   O peration     | Website:  https://openfoam.org
    \\  /    A nd           | Version:  10
     \\/     M anipulation  |
\*---------------------------------------------------------------------------*/
FoamFile
{
    format      ascii;
    class       volScalarField;
    location    "1400";
    object      nut;
}
// * * * * * * * * * * * * * * * * * * * * * * * * * * * * * * * * * * * * * //

dimensions      [0 2 -1 0 0 0 0];

internalField   nonuniform List<scalar> 
10435
(
0.646946
0.365671
0.52897
0.529999
0.430371
0.449309
0.562872
0.743743
0.904408
0.466925
0.393251
0.586622
0.481929
1.1342
1.05005
0.633892
1.2109
0.479911
0.989876
0.625027
0.685142
0.621948
0.58296
0.93992
0.472998
1.54675
1.54153
0.497437
1.42035
0.468149
0.512679
0.404878
0.789783
1.42295
0.765291
0.362748
0.69894
1.59025
1.44708
0.986618
0.468473
0.559203
1.1918
0.524471
0.620957
0.974223
0.457876
1.32732
0.919236
0.732166
0.728076
0.451687
1.40904
1.427
1.47368
1.36436
0.753884
1.55197
1.34899
0.841979
1.43984
0.354374
1.5049
0.45086
0.597013
0.508437
1.38339
1.448
0.70015
0.933137
1.42927
1.60311
1.08138
0.522112
0.957138
1.01179
0.899155
0.591275
0.828225
1.01823
0.801358
0.764617
1.37136
1.42638
0.836914
0.483679
0.516904
0.45143
0.708024
0.478838
0.453174
0.455452
0.730645
0.64076
0.459491
0.402107
0.477757
0.893485
1.29946
0.45297
0.800608
0.433236
0.572481
0.452477
0.43578
0.523795
0.711813
0.767887
0.864892
0.943357
0.713686
0.431503
0.813281
0.874091
0.438403
0.611848
0.469222
0.43073
0.400128
0.520633
0.489199
0.927213
0.403412
0.51402
0.422521
1.48837
0.501527
0.805768
0.438548
1.69638
0.657341
0.412905
0.687349
1.09742
1.61559
1.24979
0.336506
0.552165
0.395331
0.610445
0.61406
0.552357
1.40544
0.494801
0.646534
0.894161
0.395665
0.441858
1.16424
0.554592
1.37141
0.650639
0.562265
0.537764
0.452048
1.44669
0.425428
0.395354
0.456948
0.382442
0.573887
1.17339
0.416749
0.700968
0.871029
0.456043
0.813352
0.595043
0.73073
0.463541
0.469941
1.14225
1.41111
0.822044
0.623333
0.362559
0.351539
1.30698
0.704978
1.45047
0.379427
0.442973
0.55633
1.44827
0.573447
1.21465
1.05558
0.617597
0.429863
0.471623
0.525782
1.33817
1.67485
0.317948
0.429168
0.658221
1.10223
0.556746
1.30854
0.659887
0.788103
1.52279
0.487865
1.52987
0.498262
0.424067
0.407095
0.576507
1.48132
0.673728
1.32223
0.556306
0.497431
0.674158
1.49053
1.07466
0.799562
1.34304
1.55684
1.24109
1.44109
1.30844
1.43064
0.712137
1.51825
0.719735
1.49177
0.646815
0.484146
0.899102
1.37649
0.767689
1.52061
0.671605
1.68898
1.27555
0.796649
1.56196
0.798746
0.489468
0.52901
1.47928
1.30513
1.39298
0.41791
0.85478
0.475503
0.684099
1.16787
0.340755
1.2683
0.721878
0.479093
0.694011
0.645083
0.441157
1.09687
0.617438
1.3715
1.45017
0.591908
0.469025
1.51559
0.813342
0.735765
1.36026
0.539851
0.540319
1.37651
0.43043
0.567439
0.742686
0.680515
0.485531
1.6032
0.537546
1.64486
0.423765
0.637228
0.777422
0.476321
1.20691
0.545318
0.743278
0.656229
1.30436
0.435117
1.45871
1.42452
1.43766
0.583606
0.39997
1.46123
0.712488
1.46102
1.41453
0.990665
0.684035
0.418797
0.497155
1.39152
0.785247
0.526987
1.24702
0.41436
0.983098
1.23732
0.691399
0.502137
1.42
0.703213
1.5371
0.322625
0.435704
0.862734
1.38036
1.42499
0.512555
1.42473
0.600012
0.438377
1.46617
0.60141
1.3069
0.814252
0.486304
1.66402
0.512685
1.40423
1.61185
0.885551
1.42411
1.41326
0.538669
0.603337
1.50916
1.34565
1.22935
1.40207
1.36305
1.69019
1.53148
1.40685
1.41733
1.36669
1.452
1.47816
1.71402
1.27732
0.854108
1.40659
0.486111
1.51279
0.501141
0.848865
0.931131
0.484018
0.538364
1.41501
1.42933
1.27568
1.51351
1.3379
1.33882
1.45026
1.69431
1.48157
0.641497
1.65791
0.882342
1.49264
1.708
0.480667
0.955072
1.2728
1.56442
1.53746
1.62504
1.43245
1.58819
1.85796
1.47228
0.798814
1.45372
0.719864
0.876927
0.492645
0.487162
0.903144
0.50952
0.811854
0.776454
1.23219
1.42417
1.39995
0.521847
1.42716
0.480072
1.81308
1.45935
1.70363
1.4431
1.39713
0.590546
1.58919
0.758819
0.705909
1.25895
1.63019
1.73571
0.962688
1.78646
1.65106
1.45722
1.34784
1.41877
1.4194
0.512427
1.41919
1.60506
1.41894
1.39769
0.478706
1.20085
1.2318
0.972894
1.42084
8.73351
8.75185
8.7233
8.68555
8.66725
8.69913
8.82548
9.1138
9.6721
7.90343
7.92921
7.93405
7.93582
7.95663
8.02333
8.17301
8.45746
8.94321
7.03902
7.06848
7.09265
7.11964
7.16566
7.25304
7.41235
7.68409
8.11619
6.16003
6.19023
6.22402
6.26473
6.32412
6.42023
6.57812
6.83037
7.21477
5.29405
5.32282
5.35931
5.40483
5.46794
5.56296
5.71015
5.93608
6.27361
4.47235
4.4982
4.53264
4.57645
4.63598
4.72244
4.8517
5.04453
5.32723
3.72485
3.74701
3.77626
3.81393
3.86502
3.93828
4.0456
4.20192
4.42536
3.07641
3.09371
3.11559
3.14455
3.18471
3.2428
3.32749
3.44914
3.61893
2.54155
2.55161
2.56467
2.58394
2.61276
2.6561
2.72017
2.81231
2.94027
2.11992
2.12106
2.12527
2.13551
2.15418
2.18474
2.23153
2.29981
2.39571
1.79785
1.79144
1.78878
1.79208
1.80286
1.82339
1.85662
1.90618
1.97641
1.55585
1.54662
1.54067
1.53985
1.54534
1.55871
1.582
1.61772
1.66885
1.37782
1.37097
1.3651
1.36263
1.365
1.37358
1.38997
1.41596
1.45359
1.25528
1.25211
1.24767
1.2448
1.24532
1.25067
1.26225
1.2815
1.30988
1.18094
1.1795
1.17584
1.17257
1.17163
1.17451
1.18251
1.19685
1.21878
1.14514
1.14286
1.13863
1.13436
1.13184
1.13249
1.1375
1.14793
1.16474
1.13676
1.13245
1.12667
1.12081
1.11641
1.11479
1.11707
1.1242
1.13692
1.1461
1.14009
1.13244
1.12463
1.11809
1.11408
1.11368
1.11779
1.12717
1.16722
1.15995
1.15044
1.14048
1.13158
1.12499
1.1218
1.12291
1.12908
1.19663
1.18831
1.17686
1.16456
1.15305
1.14366
1.1375
1.13546
1.1383
1.23242
1.22289
1.20919
1.19419
1.17978
1.16732
1.15792
1.15253
1.152
1.27383
1.26234
1.24567
1.22748
1.20977
1.19391
1.18095
1.17185
1.16753
1.32117
1.30585
1.28497
1.2629
1.24149
1.22191
1.20505
1.19178
1.18312
1.37598
1.35258
1.32568
1.29904
1.27361
1.25011
1.22908
1.21116
1.19741
1.44188
1.40058
1.36593
1.33455
1.30504
1.27771
1.25247
1.22942
1.20907
3.7289
3.81048
3.89866
3.99303
4.0934
4.1993
4.31037
4.42599
4.54577
4.669
4.79517
4.92373
5.05395
5.18532
5.317
5.44829
5.57841
5.70647
5.83161
5.95297
6.06951
6.18025
6.28411
6.37987
6.46668
6.54411
6.61202
6.67013
6.71794
6.75611
6.78537
6.80638
6.82002
6.82767
6.831
6.83204
6.83315
6.83697
6.84653
6.86519
6.89657
6.94464
7.01316
7.10581
7.22578
7.37523
7.55472
7.76302
7.99573
8.24577
8.50273
8.75347
8.98353
9.17748
9.32177
9.40517
9.42093
9.36624
9.24582
3.69101
3.77338
3.86179
3.9561
4.05607
4.16138
4.27167
4.38652
4.50545
4.62795
4.75349
4.88146
5.01126
5.14222
5.27363
5.40474
5.53475
5.66281
5.78802
5.90949
6.02626
6.13737
6.24185
6.33872
6.42704
6.50601
6.5751
6.63412
6.68323
6.72288
6.75365
6.77618
6.79135
6.80038
6.80482
6.80656
6.80786
6.81131
6.81989
6.83692
6.86602
6.91104
6.9759
7.06439
7.17982
7.32457
7.49954
7.70351
7.93259
8.17977
8.43494
8.68521
8.91589
9.11181
9.2589
9.34584
9.36521
9.31396
9.19568
3.62569
3.70493
3.79028
3.88164
3.97882
4.08154
4.18948
4.30224
4.41935
4.54031
4.66459
4.79159
4.92068
5.0512
5.18242
5.31358
5.44386
5.57241
5.69831
5.82065
5.93844
6.0507
6.15646
6.25472
6.34458
6.42531
6.4964
6.55759
6.60892
6.6507
6.68343
6.70776
6.72457
6.73501
6.74054
6.74294
6.74436
6.7473
6.75464
6.76963
6.79585
6.83713
6.89743
6.98064
7.09022
7.2288
7.39757
7.59571
7.81976
8.06322
8.31641
8.56687
8.80012
9.00106
9.1555
9.25172
9.28182
9.24218
9.13578
3.52517
3.60079
3.68259
3.77051
3.86442
3.96408
4.06922
4.17945
4.29436
4.41347
4.53624
4.66209
4.79039
4.92045
5.05156
5.1829
5.31367
5.44297
5.56986
5.6934
5.81259
5.92642
6.03391
6.13408
6.22606
6.30911
6.3827
6.44654
6.50058
6.54503
6.58031
6.60703
6.62602
6.63838
6.64549
6.64905
6.65109
6.65404
6.6607
6.67423
6.69819
6.7364
6.79287
6.87158
6.97616
7.10946
7.27301
7.46637
7.68653
7.92748
8.18
8.43196
8.6691
8.8763
9.03919
9.14568
9.18732
9.15991
9.06584
3.39546
3.46699
3.54482
3.62896
3.71931
3.81568
3.91785
4.02547
4.13816
4.25545
4.3768
4.50165
4.62936
4.75923
4.8905
5.02237
5.15399
5.28443
5.41274
5.53792
5.65898
5.77488
5.88464
5.98728
6.08194
6.16791
6.24464
6.3118
6.36926
6.41714
6.45578
6.48572
6.50774
6.52288
6.53246
6.5381
6.54176
6.54579
6.55294
6.56635
6.58954
6.62635
6.68086
6.75714
6.85899
6.98947
7.15039
7.34167
7.56068
7.80178
8.05611
8.31176
8.55464
8.76959
8.94202
9.05945
9.11299
9.09791
9.01606
3.23957
3.30649
3.37996
3.46002
3.54662
3.63963
3.73883
3.84395
3.95458
4.0703
4.19057
4.31481
4.44236
4.57251
4.70449
4.83745
4.9705
5.1027
5.23306
5.36056
5.48417
5.60285
5.71561
5.82147
5.91959
6.00925
6.08989
6.16115
6.22285
6.27505
6.318
6.35222
6.37842
6.3976
6.411
6.42019
6.42708
6.43395
6.44352
6.45892
6.48365
6.52161
6.57695
6.65387
6.75633
6.88763
7.04985
7.24319
7.46533
7.71089
7.9712
8.23446
8.48648
8.71194
8.89593
9.02557
9.09154
9.08869
9.01853
3.06131
3.12312
3.19184
3.26756
3.3503
3.43994
3.53634
3.63921
3.74821
3.86287
3.98266
4.10697
4.23512
4.36636
4.49988
4.63481
4.77021
4.90511
5.03846
5.16923
5.29636
5.41881
5.53557
5.64568
5.74829
5.84269
5.92832
6.0048
6.07192
6.12967
6.17831
6.21829
6.25034
6.27538
6.29464
6.30964
6.32223
6.33466
6.34965
6.37029
6.40014
6.44314
6.50356
6.58578
6.69401
6.83176
7.00138
7.20329
7.43537
7.69234
7.96548
8.24276
8.50965
8.7503
8.94926
9.09318
9.17232
9.18128
9.12139
2.8634
2.91939
2.98282
3.05389
3.13268
3.21912
3.31309
3.41432
3.52244
3.63699
3.75739
3.88294
4.01289
4.14645
4.28276
4.42094
4.56003
4.69899
4.83673
4.97214
5.10414
5.23169
5.35383
5.46962
5.57816
5.6788
5.77097
5.85429
5.92853
5.99368
6.05003
6.09802
6.13839
6.17208
6.20024
6.22451
6.24668
6.26888
6.29391
6.32485
6.36535
6.41948
6.49168
6.5867
6.70907
6.86256
7.04976
7.2711
7.52447
7.80453
8.10226
8.40496
8.69701
8.96139
9.18149
9.34305
9.43588
9.45463
9.40104
2.64973
2.69862
2.75591
2.82199
2.89697
2.9808
3.07323
3.17379
3.28237
3.39871
3.5217
3.65046
3.78406
3.92161
4.0624
4.20547
4.35007
4.49516
4.63918
4.78101
4.91966
5.0541
5.18352
5.307
5.42351
5.53254
5.6335
5.72607
5.81003
5.8855
5.95295
6.01277
6.0655
6.11221
6.15406
6.19333
6.23179
6.27054
6.31297
6.36241
6.42281
6.49841
6.59375
6.71464
6.86645
7.05289
7.2767
7.53672
7.83048
8.15383
8.4984
8.84985
9.18917
9.49616
9.75134
9.9371
10.0417
10.0607
9.99832
1.52456
1.46617
1.42035
1.3795
1.34105
1.30462
1.27097
1.24156
1.21842
1.20417
1.20213
1.21564
1.24744
1.29944
1.37321
1.47111
1.59526
1.74647
1.92398
2.12616
2.3516
2.59964
2.87064
3.16663
3.49207
1.45001
1.43351
1.4043
1.37036
1.33478
1.29941
1.26595
1.23632
1.2128
1.19812
1.19537
1.2077
1.23802
1.28888
1.36251
1.46094
1.58558
1.73678
1.9138
2.11524
2.3398
2.58677
2.85675
3.15206
3.47769
1.42778
1.41359
1.38899
1.35825
1.32434
1.28954
1.25597
1.22584
1.2016
1.186
1.18206
1.1929
1.22161
1.27109
1.34385
1.44175
1.56578
1.71587
1.89102
2.08979
2.31074
2.55309
2.81727
3.10525
3.421
1.41806
1.40082
1.376
1.34566
1.31193
1.27693
1.24278
1.21179
1.18646
1.16955
1.16405
1.17311
1.19995
1.24761
1.31869
1.41491
1.53694
1.68431
1.8557
2.04943
2.2639
2.49823
2.75267
3.02895
3.33052
1.41135
1.39104
1.36464
1.33338
1.29887
1.26296
1.22772
1.19542
1.16858
1.14996
1.14254
1.14951
1.17413
1.2195
1.28815
1.38165
1.50036
1.64345
1.80924
1.99577
2.20123
2.42467
2.66628
2.92771
3.2123
1.40495
1.38219
1.35406
1.32144
1.28564
1.24836
1.21158
1.17756
1.14882
1.12811
1.11845
1.12303
1.14513
1.18777
1.25338
1.34331
1.45759
1.59503
1.75358
1.93098
2.12525
2.33533
2.56137
2.80501
3.06962
1.39794
1.3735
1.34401
1.31001
1.2727
1.23371
1.19502
1.15892
1.12793
1.10483
1.09265
1.09462
1.11395
1.15356
1.21569
1.30141
1.41041
1.54113
1.69116
1.8579
2.03919
2.23374
2.44165
2.66463
2.90626
1.38933
1.36482
1.33469
1.29951
1.26057
1.21961
1.1787
1.14019
1.10668
1.08096
1.0661
1.06533
1.08179
1.11822
1.17663
1.25777
1.36097
1.48428
1.62494
1.78
1.947
2.12437
2.31188
2.51112
2.72579
1.37982
1.35701
1.32699
1.2907
1.24994
1.20673
1.16332
1.1222
1.08603
1.05759
1.04003
1.03658
1.05024
1.08355
1.13828
1.21478
1.31203
1.42771
1.55869
1.70168
1.85396
2.01345
2.17908
2.35183
2.53413
0.476508
0.477371
0.405751
0.465086
1.07648
0.972195
4.21343
1.5446
0.381455
7.76862
0.250887
0.913611
3.07078
0.782035
5.07384
3.21782
0.297991
0.445427
10.7168
1.07125
3.67701
5.0543
0.283443
0.989495
0.817681
1.94525
0.874592
1.05601
0.430985
0.284518
8.01011
2.33098
0.473407
3.11053
0.279248
1.73205
3.26491
5.07539
3.07404
1.54021
0.371103
0.174853
3.83709
1.30332
1.12874
6.23471
0.270723
0.2938
0.406411
0.502085
0.264314
0.350379
5.18485
0.432469
4.16891
0.387107
0.779463
4.80171
0.614001
0.30758
1.79923
0.419232
1.02158
4.23315
1.64328
1.33303
1.8981
0.401568
2.55665
0.469017
0.386309
5.47081
1.03257
1.26159
0.783292
3.85317
1.83229
0.31444
0.870759
0.409709
3.48154
1.97157
2.07953
0.236279
1.34839
1.67827
1.29281
0.319654
0.470823
1.15911
1.09641
1.30404
7.98932
0.926697
0.980904
0.253543
1.89031
0.251111
0.427975
0.309171
0.894616
0.379061
0.922482
5.83401
0.631645
1.10082
0.293268
3.76974
0.237459
0.286778
4.60671
0.655802
0.312874
5.88646
5.17258
0.409906
0.420891
1.63623
5.08648
0.419464
0.0920609
0.669511
0.964155
0.790338
0.464828
3.62019
0.354769
1.40821
0.88146
0.294684
1.93506
1.31977
0.461262
2.8899
1.17734
1.22133
1.11292
0.813058
2.12176
0.973119
6.29345
2.93329
0.307076
0.114856
0.424276
3.48671
0.482412
2.4546
3.1432
0.278408
2.64198
1.29329
0.481705
4.73946
0.691812
0.235984
0.797395
1.68716
2.35645
2.93909
4.02982
0.380441
3.56301
0.255713
5.92646
0.246171
0.849684
0.848678
4.01697
0.750895
0.739003
4.49001
0.413441
0.240422
1.73007
1.11148
3.91439
0.45185
0.364041
6.19591
4.01934
2.22413
5.30754
4.31945
1.36596
0.927112
0.249867
0.238681
0.50195
2.78794
0.298497
0.308987
0.453697
2.81583
4.98985
0.498817
0.774274
4.95696
0.418889
0.448307
1.2935
4.93756
1.91922
2.76022
2.18361
4.74024
1.73564
0.905099
0.415945
1.87096
0.645683
0.852755
3.79335
2.11046
2.65258
0.355845
0.771755
1.51971
5.81392
1.15409
0.781466
0.206559
0.668068
0.442388
0.165201
0.402996
1.1957
0.301248
0.214471
1.03635
0.23233
1.816
2.01491
1.14596
3.08863
6.57593
2.8314
0.909251
4.36139
4.94176
5.3732
1.7193
5.48769
1.26119
1.09596
1.62549
2.54549
1.17373
3.22074
4.41341
0.188302
1.15167
3.08372
0.417065
1.11667
0.831294
0.302175
1.96504
2.48103
10.6007
0.537045
0.892266
2.52137
0.698457
1.42001
0.752199
5.11723
0.499462
4.14405
0.884325
3.5026
0.455589
0.525677
1.36432
10.5802
0.500937
1.58388
0.35505
0.856937
0.313767
1.36575
2.64751
0.461842
6.21836
0.359923
2.27813
1.1176
0.268699
0.281599
0.297637
4.82575
3.71743
0.117809
0.282227
1.25825
0.363329
0.368413
1.42949
2.86426
0.337278
0.315806
4.19302
1.08356
2.8122
0.377942
5.55327
3.48388
2.50465
0.967001
2.10239
5.57811
7.01101
0.493215
0.895717
0.458133
2.50494
0.282286
2.96614
0.855967
1.51326
2.37004
3.16462
1.00456
8.07366
1.32266
0.787013
0.422488
3.79025
1.47634
4.67791
6.00921
5.02336
0.728746
7.42593
0.330225
1.71724
2.31378
2.25443
0.130718
0.49748
0.836911
0.914875
0.320292
7.13931
1.49273
0.739858
0.80677
1.14331
1.09947
0.256909
0.36728
7.83035
0.177973
2.55867
0.285912
0.151091
1.16152
1.29324
5.2326
0.260099
0.423362
0.271094
3.56124
0.406493
0.178812
1.15933
3.98415
0.293187
2.50099
0.503137
6.55581
4.65596
0.44076
0.379914
3.11003
0.635839
0.520527
6.85515
2.32155
6.63791
0.374124
4.12886
0.464722
1.30252
1.29186
1.19383
6.10054
1.09646
0.253312
0.297848
3.20288
4.79798
1.16971
0.445519
4.12324
9.27381
5.34027
0.472123
1.68014
0.432674
1.55595
3.90857
1.28438
0.494992
0.902833
0.109356
4.59487
1.17132
1.17628
5.29674
0.451051
2.44373
0.334346
2.06622
2.78839
0.20255
0.394117
0.257621
1.76523
1.32556
6.02555
2.44683
1.15468
0.942777
4.18745
0.310122
0.10783
1.09383
3.17788
2.4866
2.6926
0.822825
1.15502
0.879719
4.64224
3.88701
4.69043
0.109406
1.23417
0.517422
3.26013
4.92541
0.29162
1.22395
2.27519
0.497852
0.957132
0.454318
0.657249
0.871966
0.381539
3.90432
3.44658
0.344133
7.07034
0.470969
0.255185
1.84526
1.07272
1.69607
3.84759
1.36898
0.451397
3.75967
0.313896
1.28083
0.641585
0.434881
3.3554
0.257877
1.18461
1.12199
0.271874
0.463877
0.824614
3.07229
1.1577
0.89412
2.60887
2.76507
2.7966
3.65491
0.133865
0.911091
0.234928
1.18404
2.17978
5.4202
0.457086
5.95829
4.87895
3.44219
0.541319
0.44667
2.43663
0.603595
4.88092
2.38828
7.07692
0.502203
3.98039
4.72176
2.29635
1.17586
3.94252
3.28172
2.69121
2.8147
4.53584
2.34688
5.24788
3.58267
1.74883
1.17055
0.797427
0.292782
0.390747
0.387716
0.600729
2.74827
8.31534
0.298547
1.05579
0.526677
2.83127
5.82438
0.310503
0.402507
4.41932
4.77058
1.10941
6.04012
0.512952
0.415187
0.418331
1.10275
3.89856
0.363318
0.419371
3.55419
1.50191
0.289828
5.00556
0.303035
0.220735
0.451458
2.93043
0.732112
2.44698
0.345771
3.46971
3.97013
0.902314
0.420416
0.392791
0.288141
0.674002
7.31413
4.07445
0.411652
2.82241
3.24271
3.98054
3.14528
0.281397
8.99428
2.82224
0.659475
2.44077
0.45744
0.485438
5.79494
4.88515
0.625514
0.913305
0.314799
0.264595
0.414021
0.774545
0.44262
1.05863
5.43901
4.84492
8.17564
1.58615
0.470086
5.02648
0.933186
1.29982
4.88976
0.997255
1.41977
4.19047
4.41864
6.99577
0.620564
3.14171
0.385023
1.12597
2.36589
0.321129
1.06759
0.208718
1.05923
1.45534
1.18674
2.23358
3.65061
0.238479
3.64944
4.08855
3.4085
1.6617
3.9628
1.03586
4.70473
1.26739
0.831192
0.463339
4.61754
1.28345
3.11593
7.43888
1.51308
0.866973
0.310487
0.270715
1.018
0.472753
0.826403
0.845942
1.05345
0.468038
3.54019
0.40094
4.14225
1.17748
0.641824
1.21393
4.16928
2.8146
0.79359
1.32212
4.8605
1.00013
1.94542
1.03252
1.1254
0.312144
4.51877
2.63223
0.339483
8.13438
0.159649
5.85332
4.13177
0.265964
10.7263
2.68668
3.30747
0.405887
0.368089
0.246026
0.102694
1.11938
1.43277
0.398223
0.445543
1.28306
5.32552
0.853081
10.0492
1.23978
0.314373
0.163476
2.6728
3.45708
1.71443
6.50497
5.48689
0.506836
4.85201
0.956065
2.13958
4.82614
0.843535
6.73368
0.428418
0.315025
2.44704
4.73747
1.59896
0.257827
1.66581
7.24366
4.37716
1.63067
1.14758
2.26825
5.43645
0.606512
0.469692
1.27437
5.50475
5.87602
0.300805
4.77676
2.36622
0.298581
5.02336
0.462353
0.277373
10.6826
0.844214
1.2482
0.117435
3.27508
1.35415
3.22528
1.78503
3.72645
9.00362
4.09433
1.05416
4.11176
2.43104
1.65552
2.23624
3.75348
0.385986
9.8258
0.367681
3.76132
0.44825
2.70403
0.391366
0.278987
0.51195
1.27399
3.03268
0.120186
0.534154
3.28356
1.06975
0.482292
7.55243
2.12663
1.2018
1.23196
1.65464
2.25006
0.265443
0.472327
2.21913
4.03804
4.40276
4.96177
0.387485
0.0621406
4.23892
1.1143
0.159091
0.481621
1.16821
0.27794
4.57679
0.800085
4.58254
0.320085
0.144607
1.30415
1.00214
0.842772
2.74074
3.7286
0.319018
2.98731
0.976868
4.13343
3.10866
0.304656
1.5361
0.319855
5.00225
5.18248
0.347367
4.38855
1.05617
1.35923
8.0836
6.53946
3.17047
2.51286
0.182379
5.96051
0.260038
0.480991
2.73829
2.09575
2.81207
1.2336
3.56952
0.484423
3.48724
1.04378
6.95624
0.282467
0.34661
1.46714
1.10881
0.498881
0.401781
1.90965
1.55229
0.499301
1.0428
0.447738
0.445859
6.04429
1.90049
0.364183
0.45825
0.461432
5.81482
2.71221
0.40117
2.882
3.49347
4.19992
1.23026
0.607832
2.80799
0.69967
0.764127
0.482862
9.96374
2.94763
0.518749
9.47336
3.9295
0.581171
3.07641
2.60192
0.610034
1.14479
5.41937
7.42789
6.85188
1.20272
3.7729
0.323967
1.77753
3.93853
3.18039
4.97099
1.01318
0.440041
0.355963
1.70523
5.08199
0.11245
0.798356
0.619761
0.231479
2.08416
1.41181
3.56165
0.0788778
4.57995
2.95063
0.531239
0.51663
2.46375
0.313293
0.301869
0.267073
9.29003
0.478382
4.71714
6.7197
4.25338
1.86196
0.612972
1.55415
2.28772
1.15152
2.55174
0.476138
0.461402
0.52755
0.493684
1.00077
2.80646
4.29788
0.46211
1.11864
7.89465
1.06597
0.297322
0.277351
1.39592
4.24937
0.499871
1.57554
0.97216
3.08256
0.37185
1.97363
0.231073
1.37499
0.448314
3.65512
3.88924
0.459218
0.110322
0.651959
7.79405
0.339349
1.13052
0.383939
0.415223
5.36533
1.11872
2.65509
1.1467
0.481175
4.73904
3.72735
2.61276
2.43198
0.35933
2.97214
0.260192
0.313877
0.346678
6.44864
2.974
8.83875
1.62985
1.41423
0.406429
0.414341
1.03427
3.38707
2.16293
0.917313
4.8425
3.56796
1.33393
2.62091
0.408896
0.606836
0.398262
4.75983
3.06795
4.5708
1.83426
0.411098
1.48745
0.852763
3.07123
4.6945
0.624545
1.13261
2.85262
5.61337
0.593592
1.17898
4.20635
1.44834
0.997869
0.35333
1.0648
0.407783
3.69261
0.953428
3.43306
0.517626
0.424147
0.930169
0.696368
0.328393
3.43139
0.715227
1.5229
0.872642
0.4148
6.12596
0.32749
0.619417
3.9652
4.13575
0.431258
0.64918
2.71342
2.23081
0.342088
3.34431
0.339898
4.27291
0.625077
0.291767
0.738959
0.261702
2.49203
0.425457
1.43062
1.38357
1.56983
3.99144
5.06718
0.388653
7.91202
1.46797
2.80006
7.59519
0.621952
0.514021
3.7003
0.296852
4.0175
3.15716
4.26213
1.14949
0.266204
0.349811
7.11119
1.66535
0.139631
4.49069
0.653294
0.410204
0.140353
1.29842
2.45254
1.13841
3.1076
0.343417
5.90521
8.27749
1.23507
4.37934
1.92851
0.235321
0.300241
0.431245
2.60589
2.03719
4.86118
0.420831
1.06171
1.79478
3.17559
0.460599
0.268125
0.262608
2.11977
2.26996
1.04253
0.393851
5.33451
0.455774
1.1889
0.533218
0.451611
0.86907
1.42466
0.811501
8.01764
8.41459
0.231426
0.46791
10.2904
0.49393
2.59137
2.03928
1.47067
5.82029
4.83123
0.72027
1.11505
4.00248
1.24657
4.17356
0.424199
0.241647
3.5022
1.57749
5.69479
0.232483
0.394382
1.07015
0.31448
1.82477
8.9434
4.76674
2.13108
2.17816
4.97447
3.09026
1.21387
0.187581
0.68278
4.23076
0.495465
2.63132
8.88022
1.02729
4.49239
0.410571
0.391532
5.15427
8.84805
2.20206
2.32298
0.584764
0.43839
0.451938
0.428455
7.41808
0.774663
1.21125
0.48677
0.875203
0.439187
0.475016
0.353387
0.131841
2.1877
0.833936
6.41339
0.356687
5.14163
2.78979
3.38754
2.22424
6.80615
1.56389
4.52465
1.54532
0.288714
0.451155
0.399584
0.475769
1.11817
0.491871
2.41877
0.38932
4.48118
1.82252
0.554864
0.379589
0.99731
3.98002
2.1391
0.473631
0.436459
0.794026
1.09599
4.88091
0.688266
1.02513
0.357674
0.261587
0.320249
0.293915
0.254187
0.76999
1.26548
1.08416
0.55016
1.11943
2.99704
0.480719
6.70327
0.589667
2.26203
4.27757
0.396841
3.3864
1.18808
0.77617
3.31164
1.53329
1.11889
8.5148
0.778632
1.20052
0.430494
7.16584
0.916422
0.324844
2.98827
1.12987
1.00488
0.517637
0.935183
0.282415
5.00216
3.7107
0.523696
0.366373
1.49427
3.47184
5.0132
5.33102
2.07801
6.63476
4.84226
2.33359
3.10979
8.08324
4.93762
0.501981
1.39815
0.4349
0.40371
1.79888
1.5613
2.79966
0.977365
5.25783
0.558388
0.264673
6.64128
0.840411
0.914712
5.74172
3.01167
0.767393
0.850399
3.2589
0.380092
1.46452
5.704
6.07993
6.94709
3.5516
2.61007
0.445734
6.17417
1.10871
0.49574
1.80426
0.109537
2.49458
0.443852
1.0204
0.472297
1.15127
1.80766
0.385423
0.31539
0.331471
0.380294
5.79065
0.36962
0.288195
9.69447
2.74168
4.85846
0.30626
3.5024
1.05543
4.14385
4.03546
0.467131
0.186474
0.380211
5.20944
1.0307
8.60733
0.389254
2.26927
0.626222
2.77765
1.26799
0.582741
1.5641
0.916041
3.55494
0.408373
0.441768
5.17158
1.06851
3.84889
1.17385
5.08457
5.05931
5.17315
4.02827
0.216162
7.74199
1.19407
0.825772
0.495148
1.53734
1.13304
0.382847
8.25216
4.05359
0.207499
6.87593
1.32216
4.03006
3.68948
3.9378
0.979778
0.301396
0.871177
4.17442
0.334351
2.54473
5.23623
1.20736
4.57617
3.15625
0.112466
2.91678
0.472542
1.97131
0.476503
0.956961
2.73145
2.38143
4.45894
0.883449
2.06741
6.35725
4.13246
0.161302
0.701406
5.34081
6.31715
0.49534
0.42394
1.14659
6.9046
1.26955
2.0777
0.312074
2.08386
0.940087
1.0676
0.457378
0.975586
1.76895
1.99254
1.467
4.43141
0.386066
2.08578
1.15676
5.24167
0.243659
1.48054
2.77302
0.963963
1.16357
0.449746
0.305931
0.452597
0.686522
0.251046
5.51699
4.61816
2.51293
1.11175
0.428779
0.797239
1.52273
4.66499
5.0708
3.93172
0.38422
0.3567
7.78495
5.67322
0.295953
5.39268
0.903567
0.534761
0.361144
0.317174
1.5936
0.434912
5.60784
1.40918
2.18298
0.897168
0.43281
0.558459
1.92999
0.641878
1.41157
2.07388
1.61526
1.8363
2.105
0.422414
0.396585
9.05
1.08469
2.58844
0.382425
2.90274
0.402711
0.484722
0.309905
5.83752
1.53792
1.94522
5.99363
6.35976
1.83347
10.54
0.443789
0.432376
6.46703
1.04049
0.91651
0.902458
0.457257
0.291108
1.66025
0.777253
1.76898
1.02234
3.23449
0.803828
0.423088
1.34701
7.04267
0.759672
4.81901
1.27766
4.89283
1.29944
7.42544
1.33784
1.16215
4.23517
6.31319
0.396572
3.25531
3.87871
0.551159
0.719629
2.72362
0.402881
0.459324
3.24421
0.431166
8.80664
2.64397
5.66458
5.31894
2.13789
1.38967
0.375158
1.3729
4.64648
0.483101
0.443526
4.68746
7.06525
4.07863
5.38109
4.49376
0.229987
3.38832
0.457673
1.92296
9.1877
5.48608
0.477664
2.26791
0.412559
0.459707
0.380192
0.502013
5.20176
0.585573
0.406936
0.23477
10.3398
0.0336822
4.99755
0.818717
5.26348
0.732397
4.96928
0.295966
0.786015
1.20417
0.347687
7.4873
0.363144
1.2855
5.00328
3.30677
0.314814
7.93387
2.98877
7.18461
3.58737
5.70311
2.31721
0.440349
0.36758
5.09503
7.61243
0.391636
4.58988
4.76075
0.887711
1.27124
2.31734
1.36261
1.06801
8.13875
3.06454
1.17343
0.0816041
0.678247
6.06475
0.322754
4.93659
1.38933
1.06606
0.944207
2.66988
0.308463
1.33397
0.325214
0.178382
0.114471
4.63969
5.87262
5.19294
0.408245
3.3663
0.506864
0.423615
4.72861
5.99247
0.271255
0.995168
0.357379
0.834601
1.41741
0.476808
1.14186
2.85208
3.9899
1.71656
0.811618
5.80641
4.93169
0.984017
6.7882
0.481418
1.27306
0.441656
0.876872
0.412406
4.85912
2.86536
0.891223
8.35243
4.39206
0.313362
3.07107
1.0427
0.493222
3.45286
0.179445
0.986658
3.05994
0.380264
2.79759
0.328915
3.21255
0.591622
0.863605
0.444207
0.950741
0.497765
3.27464
3.6805
0.961597
0.379279
3.75121
1.11945
0.997492
4.36769
0.770638
2.77449
0.590957
6.83021
2.49741
0.330331
1.4009
2.00999
0.432664
0.767918
3.3117
0.326851
7.15289
0.246825
3.80575
2.50161
4.64727
0.726164
3.35395
6.93374
0.404069
1.21778
1.5231
0.762973
0.549933
0.465477
3.37565
2.60525
2.24934
1.21234
2.37501
1.90531
5.302
3.44388
5.02879
0.550801
1.00569
0.46754
4.99395
1.76345
0.154025
5.27263
0.286504
3.86775
0.395446
4.69568
0.844143
1.14005
0.246617
1.34877
3.53623
1.41796
0.990965
0.733907
4.88112
2.78153
1.23931
0.459423
2.68113
2.23499
0.477406
1.99866
1.51196
0.451208
0.834859
1.86033
5.8426
5.79138
0.500723
4.01075
0.457858
1.14261
0.758235
5.65526
3.80574
0.312073
0.385212
0.990976
3.19009
1.28751
3.64088
1.30472
0.717329
0.335877
3.2143
1.97167
3.07086
4.31376
0.658692
0.442166
0.839823
5.15467
2.03693
1.44701
0.390521
7.32787
4.78563
0.186718
0.756489
0.810148
1.61801
0.352884
2.52078
1.54404
0.394425
3.09766
1.35037
1.58969
3.31328
4.10577
0.425163
0.373986
0.680488
1.38379
6.82886
10.0572
0.320357
0.37483
0.737877
0.137951
3.89434
4.47595
4.90054
1.07938
0.364765
2.3137
0.139496
1.13225
1.54923
0.490944
7.34911
5.54402
1.39968
0.481226
3.56295
1.36236
0.955848
6.89789
1.87027
0.949885
4.47181
3.50803
2.96808
6.29433
6.55236
3.6645
0.391857
4.50178
2.22134
3.47821
1.86395
1.04375
0.177239
0.427887
1.6183
0.807809
1.37878
0.299242
1.49039
2.70831
0.245254
8.97572
0.120623
4.67259
7.41847
0.313115
5.29087
0.969155
0.247471
4.07202
3.58902
2.54241
3.98418
0.472247
0.476007
1.23268
0.380859
5.12749
2.99949
0.0250811
0.50058
1.51535
1.13353
3.08613
0.384624
1.24623
4.53821
0.250881
0.285649
1.05975
0.426805
0.52959
0.781273
0.658306
0.36708
0.907523
0.691053
1.91804
0.238038
0.469723
5.69694
0.416891
0.825651
4.52361
1.67174
2.67197
0.983154
4.99475
4.41498
1.28707
6.82661
0.506543
5.16039
0.488189
3.31394
8.73917
0.298441
2.92032
0.98879
1.14744
0.320577
6.49649
5.18647
0.383095
5.09267
0.425032
4.42673
3.68563
1.25609
1.27928
0.300683
5.18652
3.05054
1.28769
5.13524
1.17962
0.474596
1.23998
3.50534
0.959546
0.606062
0.358629
0.905229
0.923195
2.94808
0.804677
1.23745
1.14076
1.12954
0.457926
3.52574
3.71369
3.46647
4.38399
0.837572
3.69142
1.50809
0.580428
6.6837
6.41424
1.06804
0.736424
4.34834
3.57543
0.0320362
4.78237
7.1622
2.92821
2.68906
2.39853
3.55474
0.984751
1.20642
4.80289
4.51477
0.37394
0.467197
0.377282
1.77143
0.0828654
1.16296
4.71552
1.47246
4.33012
0.322664
7.44615
0.241357
2.37698
0.233307
1.42663
1.33125
2.93155
4.62381
0.497009
3.49055
0.4395
0.569163
0.444962
0.75275
0.257629
3.93309
2.54421
0.884092
0.181369
4.8532
3.59783
2.98441
2.08404
1.21573
0.624931
0.251748
4.12586
3.18545
6.79516
3.54871
5.94987
0.415311
0.103775
0.344949
3.46851
3.18365
0.912958
1.1543
0.322577
1.08938
0.289708
5.16022
0.57073
1.98669
1.15411
0.855655
5.03953
0.343604
0.639553
3.06239
3.31153
0.355417
2.33475
1.09314
0.848315
3.54886
0.898075
0.915395
4.75774
2.93185
7.22105
1.14673
4.91563
0.449599
1.35644
1.7343
1.78319
7.78042
0.275539
0.676232
2.25205
1.54815
4.54206
1.19593
0.37412
4.98499
3.1738
7.2339
2.87217
0.365746
0.327245
0.46833
0.333962
0.495112
0.785869
0.845296
0.656123
2.92155
4.97689
1.55984
3.15487
1.04975
0.262404
5.30551
4.64442
0.409628
0.316145
0.604872
3.75998
1.12911
0.468047
0.354461
0.772247
0.804299
1.65349
7.8867
1.65292
4.84699
1.24474
0.0884507
3.38937
0.975105
1.11149
1.29386
4.2946
6.88362
2.87218
0.420638
1.15762
4.10325
1.80681
2.08287
2.01926
0.374032
2.45679
0.420716
3.18415
3.42974
5.05411
0.357317
1.14748
3.04874
3.34819
0.357401
1.003
0.88735
5.3126
0.136661
0.526537
0.729288
0.494696
3.0322
6.72036
0.374747
3.91425
3.11088
0.253627
2.59305
4.60881
4.25615
0.880803
5.01687
8.5471
0.243685
9.13446
4.08127
3.01203
0.293811
4.50638
7.04511
4.40775
1.58731
8.25341
2.58864
0.858751
3.68282
6.41961
0.409792
4.95307
0.882627
3.69624
0.433366
2.96622
0.30398
0.436082
10.2921
0.443735
3.93962
3.02679
1.26829
0.973709
0.469033
0.742352
2.08145
0.259253
0.256095
4.49276
0.927228
1.31942
0.494925
0.875228
0.211348
1.31736
5.34515
1.28612
1.84212
1.25468
2.05512
0.487387
5.7433
1.10529
0.323442
0.426042
2.87717
0.886268
0.828824
0.36292
2.0611
0.912249
0.834678
4.84401
1.58074
1.4033
4.28959
0.389404
3.71063
0.824224
1.98909
0.323731
0.430058
0.479177
0.493057
0.315499
1.77679
0.120815
4.53894
0.460224
2.52703
0.370215
1.30696
1.50347
0.789155
8.79409
4.33423
4.56128
3.17834
3.01491
0.812899
0.367571
0.331738
1.04607
1.21984
0.244248
1.19988
1.22297
1.18108
7.94996
0.575247
0.685619
4.68674
6.99732
1.26901
1.01709
0.936561
0.840853
0.39853
3.58567
0.427326
0.456099
0.469681
0.473251
1.10779
8.45109
0.308179
0.189112
2.88133
1.95702
7.06641
0.956564
3.73264
0.346625
0.353361
1.29757
6.79465
4.21115
0.339768
1.75108
0.475403