/*--------------------------------*- C++ -*----------------------------------*\
  =========                 |
  \\      /  F ield         | OpenFOAM: The Open Source CFD Toolbox
   \\    /   O peration     | Website:  https://openfoam.org
    \\  /    A nd           | Version:  10
     \\/     M anipulation  |
\*---------------------------------------------------------------------------*/
FoamFile
{
    format      ascii;
    class       volScalarField;
    location    "1400";
    object      p;
}
// * * * * * * * * * * * * * * * * * * * * * * * * * * * * * * * * * * * * * //

dimensions      [0 2 -2 0 0 0 0];

internalField   nonuniform List<scalar> 
10435
(
-0.000593039
-1.44443
-12.3744
-3.3277
-8.88394
-12.6257
-12.4487
-12.4397
-12.4784
-11.9157
-3.42206
-7.63907
-11.9084
1.55852
1.51365
-12.0272
1.52717
-11.8389
-12.539
-0.450438
-12.5773
-3.1494
-12.0087
-9.92686
-12.2366
1.09855
1.0383
-12.1531
0.469806
-12.4034
-11.213
-4.48661
-12.7573
1.02342
-11.5252
0.632293
-11.3917
-0.238953
1.57946
-11.1137
-13.0768
-12.3251
1.85929
-1.71783
-11.2771
-11.049
-12.4574
1.42623
-12.5842
-3.35466
-12.4019
-11.44
1.14032
0.242731
1.8997
0.177585
-10.872
0.681174
1.22558
-11.0975
1.28617
-0.628159
0.895206
-10.6214
-11.7351
-12.2896
1.12251
1.05611
-12.6997
-9.24966
0.95069
0.475549
2.22857
-12.0235
1.35236
2.00737
-7.92959
-12.6321
-12.9871
1.31254
-5.22934
0.255526
1.29974
0.674834
-6.21601
0.908983
0.463663
-1.85071
1.38992
0.0182517
-2.68673
-3.61277
-0.14615
1.08156
-0.514039
1.06645
-4.72158
1.61527
1.66291
-6.13383
1.14186
-10.7175
0.820655
-1.13666
-11.3167
-2.48078
-0.604701
-4.23731
-7.41769
1.15232
-2.53828
-9.71833
0.616984
0.865948
-4.96347
-2.32982
-6.88193
0.526422
-2.10492
-6.29036
-7.32675
2.16833
0.0318099
1.87606
-6.29641
1.20255
-5.46792
2.13925
-7.88585
0.0333959
2.09887
-5.00664
-12.0967
1.43226
0.638647
2.10274
1.42434
-4.20755
-1.28355
-1.61095
-0.991567
-11.2821
1.34031
-9.6091
-4.00743
1.85868
1.77257
-11.4503
1.68819
-9.49223
1.32517
-10.8472
-0.00512249
-9.92476
-11.9537
1.26904
-7.54808
-0.568996
-12.0545
-2.60209
-10.4646
1.50015
-4.11068
-6.81271
1.27175
-8.65849
-12.4815
-5.98323
-8.73776
-9.91532
-11.8144
1.60859
-0.121964
1.72288
-9.15632
-1.49495
0.0629718
1.44332
-1.78722
0.970875
-2.3774
-12.0567
-8.61267
1.09961
-11.0504
1.92961
1.60295
-12.5497
-9.90662
-10.6079
-7.80138
1.42431
1.06206
0.938163
-8.70854
-12.6423
1.89419
1.20241
1.51135
-11.8057
1.46728
1.62708
-12.0636
0.92773
-12.2444
-6.21932
-3.07998
-5.07864
0.696266
-4.93487
1.69565
-12.1974
-8.64266
-7.54129
1.27369
1.68772
0.937808
1.57398
-0.526615
1.51097
0.847918
1.2351
1.34049
1.71313
0.929994
-11.9776
-0.238571
1.41009
-11.2267
1.88983
1.35356
-12.1814
-0.318462
-10.4138
0.000144846
1.52635
-10.6676
0.23992
-9.71592
-11.701
-1.06622
1.24336
1.58325
0.226742
-5.36621
-12.8207
1.4249
-12.821
-2.00247
-0.536373
-2.2647
1.00364
-12.3174
-5.87041
-12.9423
-9.48348
-3.24128
-12.9538
1.24954
1.04896
-12.7772
-11.7638
0.631101
-7.87075
0.723908
1.66175
-0.495186
-11.7747
1.60178
-7.01421
-12.6077
-13.8068
-13.4222
-11.7803
-0.81819
-7.06434
0.93872
-7.89997
-12.39
-13.7628
-12.4901
1.55991
-12.4916
1.31619
0.766743
1.75312
-10.6002
0.0451478
0.779124
0.631232
1.78687
-3.78812
0.529928
-13.5913
0.350656
-3.29655
1.82459
0.388436
-6.75449
-11.8712
1.31313
-8.93738
-12.3832
-2.46152
-5.71887
1.63671
1.86258
-9.82337
-11.9983
0.844753
-1.16405
0.60155
0.260377
-11.1166
-11.8121
-3.67548
1.5825
-10.6343
1.19912
-6.83179
-12.0602
-0.101294
0.416529
1.63123
-13.4659
-12.2315
-1.49052
-12.2421
1.35381
0.608622
-11.8799
0.660343
0.877383
-12.3776
-9.78709
0.800367
0.713443
-0.488606
1.22108
-0.317678
-2.23322
1.179
1.47744
-2.1491
-3.08341
0.642615
0.913175
1.88832
1.74781
-13.0679
1.03714
-12.3705
-2.28591
-12.1217
-14.1197
-14.106
-11.9766
-11.8958
0.237393
0.92521
-0.346222
1.52887
-0.0693362
1.31481
0.135123
-2.64404
0.727609
-8.40474
0.9898
-12.9628
1.46236
-3.07552
-11.5817
-14.4464
1.70651
-4.1809
-0.0232585
0.468397
0.860514
0.809346
-5.64015
0.322009
-13.3261
1.07458
-12.9594
-14.0013
-11.976
-11.8657
-14.2084
-12.206
-11.7503
1.92499
1.54116
0.599867
1.28156
-12.433
0.691548
-12.2975
-3.62239
0.548351
-4.72762
1.37587
1.08923
-12.388
-0.342493
-13.0653
-9.49856
1.69476
0.798158
-2.15036
-11.7322
-2.29268
1.00625
0.699989
0.020017
1.38723
0.85418
-12.2966
-1.82993
0.251319
0.446816
1.56561
-12.3844
1.82193
2.01952
-12.7681
1.1872
22.7558
9.79356
13.6238
10.5057
11.4439
10.3601
10.3481
9.93881
8.80158
19.1099
8.22416
11.2435
9.1562
9.7467
9.07319
9.03356
8.71092
8.43757
15.5439
6.61615
9.31463
7.9781
8.36908
7.95295
7.89222
7.64931
7.36338
12.6538
5.48181
7.67372
6.85212
7.14022
6.91098
6.87359
6.72366
6.50555
10.0032
4.68854
6.32786
5.87988
6.1022
5.99921
5.99751
5.93701
5.77898
7.63938
4.19001
5.26985
5.09495
5.26375
5.24246
5.26758
5.25905
5.19334
5.73658
4.04824
4.49902
4.50114
4.61914
4.64861
4.694
4.7251
4.72702
4.35344
4.08485
3.95847
4.06555
4.14154
4.20081
4.25878
4.31702
4.2793
3.38851
3.93934
3.54271
3.73582
3.79378
3.87208
3.93771
4.00221
4.04017
2.70272
3.56104
3.21223
3.48236
3.54382
3.63477
3.70631
3.77701
3.82148
2.24478
3.18544
2.99135
3.29969
3.36893
3.46391
3.53782
3.60986
3.68341
2.0832
3.02482
2.90694
3.18466
3.24951
3.33634
3.40394
3.4643
3.57747
2.14422
3.04769
2.92532
3.11811
3.16635
3.23791
3.2979
3.36069
3.42556
2.18934
3.11145
2.96592
3.0683
3.09771
3.15221
3.20417
3.26557
3.30617
2.19751
3.15631
2.99236
3.01551
3.0293
3.0688
3.11431
3.16965
3.22137
2.2079
3.14306
2.9827
2.94627
2.95131
2.98033
3.02135
3.07039
3.13311
2.12507
2.99263
2.9006
2.84713
2.85618
2.88194
2.92128
2.9636
3.05012
1.9724
2.72253
2.75265
2.71986
2.74415
2.77438
2.81704
2.86291
2.94504
1.85959
2.45241
2.5846
2.57938
2.6199
2.65638
2.70084
2.74838
2.80578
1.78836
2.23787
2.418
2.43667
2.48948
2.53276
2.57968
2.63021
2.69087
1.67943
2.06924
2.25344
2.29662
2.3565
2.40567
2.45453
2.51082
2.55082
1.48736
1.95891
2.09116
2.16065
2.2211
2.27365
2.32268
2.38425
2.35363
1.16067
1.94788
1.94684
2.04324
2.09901
2.15115
2.1987
2.25727
2.20596
0.757621
1.97964
1.7407
1.85935
1.91543
1.9758
2.04345
2.1224
2.05329
0.633822
2.3002
1.92414
2.02586
2.04436
2.02816
2.06093
2.13117
1.5655
12.8679
13.0504
13.4888
14.0185
14.6086
15.2693
15.9866
16.7594
17.5789
18.4299
19.3015
20.1798
21.043
21.8827
22.6833
23.4242
24.0982
24.6915
25.1914
25.5936
25.9164
26.2725
26.5643
26.4631
26.108
25.9606
26.2701
26.9272
27.5554
28.1308
28.7888
29.3048
29.51
29.5384
29.4806
29.3374
29.1176
28.8655
28.5916
28.3312
28.101
27.9169
27.7816
27.7048
27.6862
27.6995
27.7419
27.7962
27.8226
27.8155
27.7532
27.6136
27.4031
27.1143
26.7351
26.3117
25.8334
25.316
25.0104
2.76304
2.44929
2.26163
2.08319
1.92037
1.74741
1.56484
1.40509
1.28251
1.19855
1.15652
1.15831
1.20444
1.29403
1.4262
1.60013
1.81557
2.07527
2.38568
2.75691
3.20469
3.75372
4.4016
5.1756
5.96076
6.46701
6.57528
6.25034
5.64262
5.07023
4.65984
4.37066
4.15163
3.98259
3.85397
3.75089
3.66535
3.59441
3.53522
3.48601
3.44471
3.40943
3.38049
3.35924
3.34961
3.35964
3.39884
3.47856
3.61119
3.80801
4.07346
4.41202
4.82773
5.31183
5.84848
6.42379
7.0147
7.61067
8.39381
6.91826
7.10395
7.26438
7.45356
7.66048
7.88402
8.12516
8.38463
8.66145
8.95361
9.25979
9.57762
9.905
10.2387
10.5768
10.9173
11.2584
11.5999
11.9425
12.2873
12.636
12.9883
13.3333
13.6482
13.9091
14.0986
14.2278
14.2886
14.259
14.1905
14.1204
14.0485
13.9683
13.8862
13.8065
13.7318
13.6641
13.6068
13.5626
13.5339
13.5239
13.5337
13.5661
13.6221
13.7033
13.8105
13.9436
14.0997
14.2772
14.4712
14.6577
14.8134
14.9598
15.1041
15.2237
15.3043
15.3426
15.3684
15.2857
3.89689
3.80048
3.77555
3.76273
3.76292
3.77931
3.8124
3.86447
3.93738
4.033
4.15333
4.29996
4.47362
4.67507
4.90384
5.15904
5.43916
5.7416
6.06396
6.40233
6.75228
7.10705
7.45658
7.78672
8.07741
8.30642
8.45994
8.53432
8.53726
8.49041
8.4118
8.3105
8.19177
8.05967
7.91669
7.76531
7.60761
7.44646
7.2862
7.13143
6.98823
6.86275
6.76282
6.69563
6.66949
6.69092
6.76549
6.89644
7.0841
7.31925
7.60988
7.95294
8.30295
8.64331
8.99496
9.34822
9.67915
10.0049
10.3782
5.11863
5.20627
5.30207
5.41648
5.54422
5.68447
5.83623
5.999
6.17194
6.35406
6.54492
6.74396
6.95019
7.16361
7.38328
7.60878
7.83945
8.07384
8.31134
8.55016
8.78794
9.021
9.24418
9.45172
9.63574
9.79075
9.91189
9.99806
10.0497
10.0719
10.0708
10.0498
10.0135
9.96647
9.91077
9.85149
9.79123
9.73198
9.68015
9.63933
9.61392
9.6083
9.62701
9.67384
9.75272
9.86508
10.0119
10.1917
10.3999
10.6269
10.8819
11.1655
11.4348
11.6617
11.8582
12.0283
12.165
12.2966
12.3658
4.06603
4.03799
4.05236
4.08244
4.12646
4.18625
4.26257
4.35582
4.46658
4.59452
4.74094
4.90547
5.0882
5.28843
5.50481
5.73566
5.97897
6.22937
6.48697
6.74801
7.00931
7.26445
7.50768
7.73526
7.9355
8.10793
8.24453
8.34754
8.41564
8.4505
8.4579
8.43564
8.3909
8.32896
8.24645
8.15481
8.05295
7.93623
7.82173
7.71129
7.61193
7.52998
7.47205
7.44492
7.45641
7.50669
7.60216
7.74077
7.92209
8.14227
8.39562
8.67398
8.96641
9.25962
9.54462
9.81433
10.0624
10.3078
10.5549
4.3079
4.33654
4.38797
4.45697
4.53908
4.63477
4.74214
4.86269
4.99538
5.13743
5.29017
5.45204
5.62464
5.80589
5.99397
6.1888
6.39323
6.59307
6.79915
7.00425
7.21176
7.4113
7.60016
7.78557
7.9408
8.08512
8.19823
8.2949
8.36782
8.41434
8.44861
8.44927
8.43373
8.41362
8.3638
8.32147
8.27452
8.19648
8.14291
8.0931
8.05675
8.03756
8.03931
8.06763
8.13621
8.22849
8.36464
8.53076
8.73009
8.95658
9.20247
9.45886
9.71285
9.95964
10.1878
10.3884
10.561
10.7293
10.8663
4.03706
4.00794
4.0083
4.03358
4.06589
4.12433
4.18681
4.28666
4.39732
4.49038
4.62657
4.76745
4.93162
5.11601
5.30515
5.51901
5.75064
5.91796
6.1169
6.32369
6.55157
6.75834
6.94404
7.16118
7.29532
7.4505
7.54221
7.6406
7.71455
7.76025
7.81651
7.79965
7.78145
7.78758
7.6976
7.68772
7.70373
7.53208
7.43945
7.34723
7.27323
7.21384
7.17191
7.15579
7.24982
7.2943
7.45079
7.5845
7.7257
7.91551
8.15631
8.44239
8.70946
8.97856
9.25271
9.52619
9.77485
10.0519
10.2645
3.88148
3.92547
3.94409
4.01749
4.08471
4.18421
4.25635
4.31806
4.44167
4.64438
4.69266
4.83414
5.02654
5.16505
5.37829
5.45484
5.68916
5.86526
6.06807
6.20589
6.41016
6.56354
6.71454
6.91818
7.00182
7.15002
7.20792
7.3024
7.42371
7.37084
7.53838
7.51452
7.43369
7.49282
7.38131
7.44096
7.30251
7.09305
7.20182
7.12305
7.07723
7.07999
7.01265
7.01575
7.07567
7.07913
7.17427
7.2444
7.50589
7.73187
7.92718
8.13688
8.36761
8.67334
8.95391
9.16926
9.38921
9.22525
9.55432
-3.37493
-3.42812
-3.14719
-2.75085
-2.23175
-1.65968
-1.1575
-0.693166
-0.234188
0.146144
0.463554
0.791039
1.07969
1.34277
1.74657
2.32445
2.95353
3.61145
4.35544
5.21854
6.20887
7.34576
8.69708
10.4023
11.9306
1.45506
1.53088
1.43725
1.29924
1.23232
1.31927
1.50047
1.71341
1.91104
1.97979
1.88468
1.72583
1.58269
1.50109
1.56767
1.77507
1.96169
2.04263
2.13346
2.33224
2.60629
2.91342
3.23614
3.58802
3.74336
0.418836
0.467903
0.540741
0.622475
0.752126
0.94033
1.14906
1.34726
1.51279
1.60203
1.61302
1.58793
1.55974
1.5596
1.63799
1.80479
2.01891
2.26094
2.55724
2.93021
3.37991
3.90701
4.51699
5.21534
6.07809
0.822182
0.845307
0.921107
0.993242
1.08803
1.20668
1.33692
1.46184
1.56839
1.64024
1.67675
1.69459
1.7112
1.74279
1.80816
1.91296
2.04797
2.20911
2.40476
2.64084
2.91347
3.21224
3.52134
3.80583
4.10178
0.871473
0.887429
0.966635
1.04494
1.14249
1.25067
1.3643
1.47033
1.56219
1.63239
1.68118
1.71785
1.75359
1.79866
1.86549
1.96112
2.08702
2.24528
2.44128
2.67846
2.95927
3.2846
3.66062
4.08466
4.64827
0.971826
0.997957
1.07792
1.14994
1.24015
1.33233
1.42979
1.51879
1.59838
1.6643
1.71557
1.75872
1.80189
1.8503
1.91303
1.99623
2.10369
2.23885
2.40478
2.60135
2.82968
3.08489
3.36548
3.65156
4.01182
1.09089
1.0706
1.15877
1.22099
1.30752
1.38785
1.47806
1.55664
1.62974
1.69371
1.7444
1.78878
1.83531
1.88414
1.94432
2.02167
2.12061
2.24592
2.40061
2.58268
2.79841
3.04274
3.32375
3.63983
4.06266
1.2049
1.124
1.23304
1.28315
1.37068
1.44056
1.53004
1.59921
1.66608
1.72859
1.77514
1.81649
1.86645
1.91484
1.97197
2.04448
2.13573
2.25062
2.3913
2.55404
2.75398
2.97662
3.25328
3.56254
3.93525
1.19481
1.15393
1.31368
1.34201
1.42899
1.47203
1.5663
1.62064
1.7011
1.76193
1.80969
1.84211
1.8852
1.92596
1.98184
2.04699
2.12944
2.23518
2.39077
2.54742
2.72471
2.94531
3.17355
3.29473
3.51886
-13.3362
-12.7296
0.584021
6.36023
2.1527
2.07273
-2.79087
2.74521
-0.929035
6.71852
-12.3548
2.82948
-14.9808
1.39114
-7.48111
4.33183
-8.52782
6.29454
7.06039
-15.7323
-16.9214
4.87335
-12.0074
4.50642
2.69072
3.7232
2.6539
1.55689
-11.4894
-10.6616
6.44103
4.453
-14.4353
-11.6696
-11.0919
2.51488
-4.06186
-7.20888
-6.05348
4.9834
-13.1506
5.12105
4.27103
1.44447
2.76996
6.32668
-11.9682
-10.2498
-10.6904
-13.7767
-11.9573
-12.4643
-16.1359
6.38232
-2.62785
-0.655921
1.36906
-16.8852
1.91075
-9.32099
2.72585
1.48094
2.1693
4.38507
2.69186
1.45927
4.04822
4.54806
-13.1727
-12.5813
-1.29518
5.42561
2.27405
-14.7798
2.30815
-17.6091
-13.6646
-11.9942
1.62814
6.58902
-11.7468
2.92448
3.06444
-9.09502
2.33236
2.77334
2.233
-12.1813
-14.5449
3.25992
3.66425
3.39007
6.4769
2.88423
2.17068
-12.2178
3.6024
-11.6682
5.01133
-9.43856
1.83388
-13.6325
1.8123
4.90802
1.98127
1.8153
-12.0455
-12.9324
3.51509
-10.2278
4.20219
3.15641
-11.0358
4.85679
-16.6526
-10.5995
-13.4776
5.27957
-15.0245
3.32499
4.02989
3.07031
4.73411
2.80498
-14.2711
4.28178
-12.678
-16.3616
1.30256
-10.5366
3.23504
-14.9202
-12.1199
-9.27932
1.36347
2.25227
2.80225
1.95506
3.0468
-15.1237
3.75974
-4.82284
-9.99072
4.07056
-11.0995
3.87338
5.49576
-15.0478
3.04657
-11.263
-0.134951
0.893628
5.27228
-7.7549
2.65906
-10.2081
2.16938
5.14584
-11.774
5.87567
4.5848
-1.36817
3.5481
-11.7
5.28657
-8.97802
1.31671
2.4686
5.30963
2.17435
1.38942
4.51345
4.2376
-9.26851
3.66687
1.57653
-13.1502
-11.842
-10.0638
5.56955
-10.8269
4.87603
-15.6784
-10.6755
1.89691
5.73289
-9.34687
3.46511
-14.4276
3.58728
-10.0443
-10.175
-4.19749
-3.74135
-7.84542
-14.3799
2.32776
4.76302
-10.7647
-11.4514
-13.7198
4.98052
3.09884
3.36053
0.165161
5.66455
4.37134
1.88075
-11.3153
5.1813
1.97685
2.98399
-10.8329
0.0255582
-0.284872
-12.8714
2.0786
5.93016
7.28316
2.70168
1.8018
5.18099
2.75179
1.8928
6.92341
-13.3093
3.71854
-8.22728
3.49824
2.23719
-9.91785
2.65827
4.66749
3.30146
-5.48568
5.97795
-11.4331
1.61394
-10.8999
-7.13735
5.51018
2.60945
5.35751
1.54272
2.26882
2.52532
4.22649
1.89832
4.02048
5.43306
3.56672
1.63913
4.76671
-11.2184
4.01088
2.28888
-10.8627
-13.304
-11.7529
9.06092
3.77742
1.29389
3.23313
2.56018
-14.6869
2.8979
6.14055
5.00084
-3.50812
2.48872
-15.5581
-4.83627
4.81954
5.962
7.55454
4.87703
4.21239
-2.606
1.2833
-11.8693
1.58038
-0.100205
4.93891
6.02885
-9.75386
3.46194
1.69922
6.8146
-12.6367
-9.97001
-5.05901
3.74211
4.8045
-12.6348
-11.3153
-13.0049
-12.1738
3.62712
5.69092
-10.3994
-11.1652
4.34489
5.60495
3.49267
-11.5661
5.76625
-17.252
4.20236
-15.3498
3.1197
4.89886
5.73744
-14.4914
1.46065
4.78559
-3.45624
-11.9521
4.81413
2.71408
-9.20137
-12.1951
3.59048
5.59846
6.39656
2.4211
2.92134
-13.6424
-12.8316
3.83612
-16.3704
5.08468
-7.95849
1.81351
6.3344
-12.5647
2.72258
2.86262
3.21718
3.44134
4.18199
2.99211
2.73695
-10.2251
4.97625
-14.6679
2.10314
2.00184
4.95375
2.35022
-10.3882
0.206793
6.5734
4.33914
-11.9558
-12.6655
6.91167
-8.42723
1.11638
5.27962
-9.15282
-11.5057
-11.9808
5.88956
-13.503
5.23609
2.24081
4.55322
-12.4121
3.02967
-14.1351
6.28329
-8.11078
-11.5509
-7.13931
-13.6018
3.07576
3.13985
5.77799
5.90172
5.9506
-12.0348
3.68349
-14.0543
1.31109
1.43651
-10.0548
5.501
-15.7332
-12.6853
-9.81114
-0.97787
5.95962
2.46677
-11.7149
-10.8775
7.6015
5.40773
-14.0832
5.26881
-11.1753
2.66971
4.40777
2.25191
-13.48
2.65171
5.77888
-3.71759
2.4467
0.0506776
4.89297
-9.38427
2.89508
-10.1458
2.87108
3.63009
6.71601
-10.4444
-10.2082
5.76709
3.61941
4.96841
5.68839
3.21899
1.74061
5.60766
-11.4591
3.48226
5.27889
4.24007
4.45062
2.76404
2.27038
2.90479
1.66333
-3.6113
4.7828
3.70165
4.75719
4.88259
6.25309
5.79025
-7.10516
-12.9276
0.689713
-13.5057
4.55481
1.69712
-4.93338
1.93104
1.601
-7.14459
4.80134
3.36076
-10.3339
6.25456
-12.5897
-8.87729
3.03846
3.66377
-15.2039
3.49867
0.972112
-9.47409
-11.0058
-11.4945
2.39323
2.06901
2.19094
5.79397
-12.2095
1.63071
2.33959
-11.8241
6.35233
2.83488
-12.7346
2.9619
2.23427
-14.7614
-14.8793
-0.391895
-6.68987
5.49465
2.74739
-9.75487
2.26575
2.89922
6.08112
-12.5061
4.78186
-9.30389
3.96317
3.04728
-11.5254
2.95551
2.00537
-8.50523
2.86889
6.35727
-14.0839
4.33955
-4.4886
3.15912
1.54295
-13.7506
-11.499
3.8819
3.55521
-3.52168
3.82027
4.82546
-11.2864
3.83829
3.1054
5.77343
-12.4466
-11.8863
-10.221
3.03719
-0.743981
6.41634
-10.3268
-15.7063
5.78551
-11.4817
6.34862
-11.5933
-13.8807
5.499
5.42669
1.69166
4.72114
4.2011
-2.81623
3.28752
0.45429
3.66799
-10.5428
-10.8507
3.77625
-10.1959
-10.1584
4.03136
-12.3519
4.33781
2.69678
3.48228
1.79336
2.90551
-3.09944
-5.52184
-6.9556
1.33606
-11.1879
-10.3976
-11.8233
2.67224
6.08108
-14.3367
-11.8789
3.84392
-10.0516
3.51601
-13.1627
-10.6031
7.19333
-0.551386
1.82889
4.68219
3.33133
-14.5817
6.80565
-7.91951
2.08129
2.08938
-10.7259
-10.5443
-11.7136
1.75729
3.36848
-14.4162
-16.7987
4.74634
6.25
2.88799
-13.9479
4.73214
2.0803
-5.23509
6.02957
2.05977
2.2648
4.4373
-9.19119
6.09566
1.82135
-12.1279
-10.5556
2.16067
4.9256
-10.1784
1.62859
5.32688
5.48529
-15.9766
4.16522
3.19862
4.90939
6.89791
4.71885
4.67919
-5.88316
2.6119
5.2183
1.77659
-16.046
6.03755
1.99733
3.31717
4.7113
2.44518
3.33344
5.88613
0.748125
2.40849
-9.53379
-9.27506
1.5332
-13.6854
2.18446
2.38729
2.28525
5.63123
4.03691
3.35343
-15.2907
3.48633
2.86308
0.970629
-10.4895
-0.775368
1.48503
1.47753
4.48856
2.17499
5.74579
3.52111
0.653077
-9.72017
-9.00025
-11.9172
5.97678
6.46707
4.27157
6.64143
5.01196
-10.585
10.5422
-16.9338
5.34163
-11.6871
6.75045
-11.9581
4.16208
2.34628
2.86548
-13.2378
-5.07785
1.43496
-16.673
2.36795
7.82797
2.43568
-11.0208
5.40783
3.49001
-9.15531
2.58515
6.27436
5.75499
4.90033
-15.384
5.57299
3.16189
6.12701
1.42395
5.64382
-10.957
-12.4503
4.13721
-4.33958
5.70913
-12.384
3.07291
6.19064
5.32231
3.57317
-5.1895
4.02307
5.00667
1.94121
4.53157
3.92008
5.48751
6.25069
-9.28426
-9.68629
0.0516563
-10.8714
-5.90058
-12.8326
-11.2248
8.47642
2.18363
2.39519
5.77432
3.62697
0.996733
4.15671
2.69842
-14.05
5.68609
4.69348
2.00814
5.04891
3.87518
2.59781
0.1803
-12.3418
-13.0391
6.88336
-10.8268
-1.77683
-11.92
-16.7199
-13.4862
-12.8403
4.44242
5.92533
3.93779
5.40822
4.89933
3.3642
-11.113
-12.6869
5.31372
-12.3215
0.767747
6.0175
2.65367
3.04361
-9.05457
3.04001
2.7292
-2.36012
-8.54756
-14.5813
-11.8565
5.7835
5.87064
2.21148
5.50811
-11.7755
-0.244539
-12.1509
-8.32675
2.20151
-9.36511
3.46789
5.85881
1.77018
2.03485
1.97845
5.91634
3.86263
2.40605
3.41783
3.30047
4.36465
3.27528
3.52169
5.29245
-11.2851
-5.68494
4.73317
0.639675
4.27754
-14.903
2.39402
7.82087
5.26792
-15.1422
-0.104048
5.57884
3.69466
-10.9185
2.89295
-13.8136
3.3878
-14.6972
-11.8688
-10.1702
4.40812
-9.14525
1.11929
5.69806
-12.3153
4.97108
2.66452
3.04947
-14.716
0.403929
4.45068
2.2854
-13.5158
2.31969
2.30643
-8.84103
5.76239
4.66468
-2.4398
-11.9184
-13.4034
5.67225
5.96677
5.56854
-14.9772
-5.1174
5.05383
2.49323
2.04571
-12.7347
6.10496
2.51304
-13.1405
7.52797
3.17938
5.02203
6.78167
-14.2394
3.21492
-15.3898
5.29464
2.97053
-11.6186
5.16197
5.9882
5.89161
1.59152
-15.3057
-12.2461
5.77272
5.60568
3.10251
-8.38554
-14.8018
1.42105
3.40484
-11.7542
-6.8366
3.55538
2.12247
1.95543
-10.0248
5.43522
-13.6802
4.20634
3.57605
-10.489
3.85584
5.55937
3.26409
-15.7703
-10.9933
-9.52405
-9.75053
6.49158
-13.8602
-8.66928
5.54447
-2.83961
2.47065
1.98625
-15.2852
3.27957
2.65382
-16.3453
3.24397
6.31232
6.20017
-14.6129
1.20834
4.15853
-10.6469
-11.8012
-10.7398
5.66234
3.1001
-10.4277
-11.7027
-11.1626
-14.9395
-13.8456
0.757551
5.67387
-0.87887
-10.1265
4.53296
5.49378
0.850319
-7.97735
4.31748
-1.65311
-12.9789
4.23437
2.03481
5.97846
-9.61072
-3.81549
-11.3302
-10.602
6.40582
1.58017
-0.429983
2.96506
-12.2272
-16.3961
5.66309
3.32661
3.22332
5.94643
-14.4373
-12.4769
3.20628
-10.5051
4.85289
-11.374
6.26385
2.50622
2.80667
-3.53322
-11.8974
1.41824
-15.1012
3.88364
4.05148
-4.88814
4.41325
-8.37559
-9.64373
-10.2326
3.18155
5.01602
-4.22383
3.84963
5.07202
2.78016
-10.8726
3.82969
1.75991
-11.4608
-4.12054
2.059
3.15377
4.29108
4.93139
2.03353
4.78681
-15.8092
5.50929
2.98362
-10.2832
-15.1905
-4.58595
3.60977
3.33194
-1.16955
6.13454
-10.8036
2.09363
1.94374
-10.8865
3.73344
2.94249
0.76552
2.39877
-11.2159
6.09297
5.45182
5.39501
-3.13168
-2.90869
-13.5051
2.7737
-13.389
4.04743
4.2491
3.98767
-10.7614
-10.5533
4.38255
-9.56163
6.09477
-10.7137
3.49577
-11.0843
2.28223
2.50348
4.38141
-1.76858
-6.58382
3.34913
5.85056
-15.1778
5.8749
5.59581
2.8719
5.35852
3.42327
-10.7995
4.44996
3.60149
-9.27245
1.66489
-9.77761
5.96531
4.38231
4.46486
6.87324
5.20627
1.9982
-13.63
6.86468
1.22517
5.80356
2.87907
-0.865759
-10.4304
4.91121
6.02978
3.5141
5.09484
5.92728
5.27764
-10.2903
6.53066
-16.2642
3.81021
-5.22999
-11.4716
1.67025
-15.0854
3.9687
-12.2901
-11.9616
-10.0361
2.95885
3.24698
1.60342
-11.6244
5.31467
2.54692
4.06867
2.83214
-10.4806
1.81886
4.86818
1.96105
6.67929
6.75552
6.69847
-12.0386
8.5676
-14.8158
5.33851
4.59463
5.46777
5.8869
-15.0222
6.14243
-14.6585
-12.7877
2.34477
5.01992
-11.1052
-11.3413
5.90416
5.71932
5.56486
5.15094
6.50731
1.68861
-11.4759
3.44014
7.10898
-14.368
2.868
0.144067
-6.01915
5.27558
2.29708
5.53814
1.81383
-11.6186
3.60545
-13.7547
5.11654
1.73747
4.97537
-13.8426
-14.0189
5.12673
7.13534
-12.3428
5.18804
2.01948
-9.04691
-11.7615
6.35378
6.22759
6.16467
1.4602
-12.7559
2.525
6.34003
-12.9001
-10.4861
5.84576
4.91696
2.26703
7.32951
3.53353
-15.5395
2.79247
-10.6467
2.98338
5.80641
2.5315
-15.0829
4.5253
-12.7125
-9.79923
-9.83726
-12.7583
-11.3194
6.57979
4.08411
-13.223
-14.7319
3.04872
5.45024
3.20504
1.76343
4.76017
2.76366
3.22787
-7.47449
2.15168
1.62668
-5.9832
1.96145
3.03843
3.85205
-10.079
5.95045
-12.8587
-11.9587
1.94587
4.82705
3.08681
4.41781
3.06005
-12.8895
3.21116
5.82599
3.00801
4.75591
-11.2638
-13.7584
4.43533
3.45206
2.1937
5.81152
2.31106
1.55625
6.48811
1.9284
1.01751
-11.5372
5.82233
3.68203
-5.30908
3.50555
2.55497
3.84805
3.62965
3.02893
5.4061
-14.8895
3.86472
5.58318
-10.6226
2.23533
-1.10875
-6.12017
5.52461
3.27534
5.77686
-8.48785
3.97778
-12.4411
6.25631
-5.59261
-13.7557
-16.063
-11.5893
6.33257
2.77018
-14.8353
-12.9114
1.88744
5.08973
6.28222
-12.2712
5.80506
3.64673
6.07122
5.9668
-1.25014
6.15396
2.13841
5.83957
-11.5814
-15.2929
5.78964
6.83072
5.68205
4.84567
3.23972
-10.5885
6.63129
0.397617
-14.5556
-15.8798
5.5368
-12.7134
-11.3762
-15.1758
-12.2241
1.0875
-11.2755
-12.7846
-10.0597
5.83002
-10.615
6.21835
-1.75306
6.80746
6.33593
-12.0738
-9.21485
-11.3768
-11.3751
1.69818
4.5618
-2.70089
-12.9285
6.732
-13.2837
5.21586
-15.2441
6.20592
-11.3252
0.063014
1.99587
3.41918
-15.7772
3.07488
0.734958
-14.8845
5.22829
-10.7036
3.52044
4.58412
-8.05219
-2.39075
3.38439
-15.3524
-7.53566
6.74113
-14.2139
6.61784
6.00929
1.61838
2.14213
-13.1693
-11.7756
5.9647
-14.156
5.1144
-16.215
6.66554
5.646
4.55101
-16.6798
-1.38588
-10.9347
4.15228
-10.5274
2.51407
-14.2897
-13.0657
-0.00202571
5.55624
-11.5583
4.82678
3.80063
5.30257
-11.4419
-13.2125
2.74037
-14.3534
3.51836
3.42956
-3.49849
4.20026
2.96719
-12.3682
5.92692
5.61845
6.85533
3.09811
4.80459
6.88057
-13.8855
-11.9226
3.12098
6.10552
3.66428
-11.5274
-11.6981
2.89547
1.22433
1.78656
-14.541
1.18501
-1.51668
-12.7164
2.57839
-14.7434
-13.2278
2.75585
2.8522
5.98576
6.51395
2.43785
4.01539
1.93593
1.57162
-12.6642
4.41776
-13.7845
2.74511
-12.6177
5.08869
-10.1878
-0.0278549
-14.2497
-11.3983
2.01925
0.305995
4.6246
4.76252
4.45946
-10.9804
-10.4459
5.95356
5.69553
3.85623
5.08959
2.97828
3.6029
-13.5549
-10.4325
-14.9163
-13.7125
5.96092
2.44464
-11.3371
4.87303
-11.5147
5.52424
2.85749
1.98939
3.76483
2.89389
3.94814
2.80376
0.282569
-13.6442
-11.6426
6.96876
2.82028
-14.6533
-2.05824
3.28316
-11.3133
-12.6629
-10.0158
4.57568
-15.7123
3.14007
6.09109
5.90115
2.64235
8.49925
-9.44186
-12.3801
5.45878
1.71136
-14.9046
3.44865
-12.8291
-9.70136
3.9682
1.45439
4.88968
1.80189
-11.2736
2.22288
-11.5607
1.80223
5.41348
1.88081
6.19429
1.31083
5.85315
4.20616
5.65813
2.36343
3.38805
-14.0311
6.22905
-8.73179
3.77283
4.13908
4.89707
1.92027
3.26313
-4.70512
-12.6479
3.77394
-12.2869
6.93168
-12.4839
5.1975
5.65306
2.79139
2.42235
-10.9756
4.13811
4.39102
-2.24802
-8.26971
4.76372
6.32365
5.98879
5.21075
-3.95676
3.18641
3.63903
-14.6854
2.95748
6.70585
4.26691
-13.6814
4.1311
-11.966
-12.0061
6.43518
3.41201
5.21434
5.50528
-14.1011
4.87875
6.55851
4.86208
-15.4615
1.89305
5.49841
2.53276
-5.78063
-8.99929
1.97792
3.34721
-10.1632
6.07066
-0.0230323
-10.7983
4.28633
-1.18693
-11.8252
6.55011
-11.4422
5.73845
4.07346
6.04351
2.87427
-6.60335
-9.96232
4.66299
6.45622
-12.4628
4.49338
5.5159
5.66042
1.31795
-3.90531
2.51942
2.23999
6.73241
3.79258
2.34754
3.89952
1.91903
5.98094
-9.43936
-14.8214
2.29079
-12.1075
1.93949
-13.9798
-11.554
-13.6477
-10.2383
6.76001
5.31991
-14.985
5.57729
4.9977
-10.7877
3.93772
4.39452
-11.9033
-14.717
4.84989
-9.85738
2.24796
-11.4327
2.03971
5.76854
-2.44485
1.60364
-13.9375
4.23309
5.75115
1.49114
3.94087
-7.78964
0.494725
4.5559
-12.4213
1.50439
-12.3197
1.79107
-14.0405
4.31201
5.60399
3.06554
6.62068
-16.1254
-9.57507
-14.911
2.20825
-13.5094
-10.6214
6.81906
-15.0446
-0.664816
5.85453
-15.8854
-10.9559
4.37646
1.99104
2.11001
-13.6194
2.84658
6.08129
-11.207
-14.7897
1.49362
-13.5477
-11.5497
2.91047
1.74061
-3.16461
1.92437
-15.5797
2.01982
5.6726
2.96507
-10.3273
2.31618
-1.60013
-12.2469
2.60899
-1.47756
-6.26029
5.69207
-11.9526
5.33767
-16.0956
5.09612
2.97706
3.95903
6.10366
3.34671
3.57246
5.34261
2.0281
6.25574
-12.6424
-14.8519
3.37724
-16.254
2.37122
3.06389
4.31262
4.74271
4.07077
-6.74963
6.11293
-3.6839
-12.8417
-5.72993
-13.7888
6.83231
4.97606
-12.8744
5.05262
2.50127
4.12383
2.85916
3.20681
-10.2528
4.9132
5.67861
2.51886
1.79835
1.75685
-5.03586
-1.06506
-2.07726
-12.9523
3.35092
2.83855
4.51643
3.99886
2.5381
3.23857
1.82258
2.98355
5.40406
5.25442
6.09576
-2.38826
-12.8303
-11.1913
1.92938
5.42812
-1.65961
-10.0578
-10.9102
2.23452
3.37601
1.29536
5.61036
2.59285
1.92767
-10.2906
-1.23967
2.76908
3.61513
4.31818
2.01781
-12.2677
2.3727
4.51259
3.15895
3.77197
-11.2762
6.38749
-7.63466
6.70943
1.99884
2.06566
5.3581
-11.1796
-0.114252
4.42156
-13.4132
-14.5452
0.822969
5.92074
3.89713
-10.9006
-14.2156
-13.7047
3.14115
-15.3973
5.72959
8.54678
-9.95482
-10.7192
2.73934
3.28647
-2.01103
-4.56553
5.49146
2.35485
-10.8618
2.88859
6.85541
3.85075
4.97261
4.65859
6.55177
5.7946
5.37067
-12.6855
4.7292
2.45639
2.13367
5.55392
0.417388
1.97138
-15.9713
-1.22291
-1.07848
5.84967
5.17071
4.45009
6.37929
4.16144
2.90827
-15.0039
5.38948
2.01293
6.75344
1.25532
3.72818
2.1482
5.48015
-12.9298
2.51592
-14.2773
4.40998
7.97431
5.1257
4.43976
5.91648
-11.6066
4.95313
2.15494
5.58849
5.12884
-10.5409
3.32785
5.40781
-13.5356
-13.5566
2.5301
-11.202
5.78479
-13.0759
5.79039
-13.7893
5.92164
-3.10646
3.21785
-11.8669
1.56388
-10.4029
-9.94192
-10.5439
1.08945
-13.6785
3.10337
2.31391
3.13112
-11.656
5.20579
2.12696
-15.7176
-10.9315
-12.1167
5.99321
-13.9429
2.10468
4.43692
2.67899
-0.401839
5.45071
-5.66355
4.52034
3.64846
6.0282
6.15558
5.36408
-14.1098
5.47597
6.58402
-11.0121
-0.645189
2.28902
3.07529
-10.4685
5.05074
5.13714
-12.5693
5.65458
-2.87682
-3.41987
5.05003
1.73512
-15.9784
3.34624
5.2936
5.83735
2.62676
5.6473
3.54721
-13.1769
2.39694
-10.9066
1.44405
1.93535
-11.092
0.320165
1.19039
5.459
2.42158
3.71732
2.41168
-12.536
-11.7746
5.59073
4.38011
3.60557
-11.1485
1.95476
-1.56105
2.39369
1.94136
5.49154
6.31623
-2.35441
1.94076
-14.1253
-12.1353
5.62319
-9.26835
7.39079
-14.3217
-0.394537
2.7204
4.64482
1.93911
4.63504
4.26674
-10.6964
-6.35831
-13.4469
-10.8774
-15.6514
4.88137
2.43823
-4.41185
2.51119
-2.92606
-13.2736
5.60738
-10.6698
-14.6724
-9.70592
5.19833
2.37026
3.32782
5.46228
-13.3388
5.88802
-12.5227
5.22148
6.33074
1.8915
-10.9999
-11.7588
3.61706
6.11431
6.85313
5.27623
4.31197
-1.06527
-14.9953
4.49079
2.94186
-11.945
5.66492
-12.6467
5.83166
3.59122
6.14027
-11.3033
5.02626
3.3544
5.54628
5.68725
1.60292
3.89678
-10.8502
1.68592
3.41274
4.38659
3.13819
-15.3163
2.61587
2.30847
-6.41204
-11.4442
1.92539
-13.8527
5.58388
-10.3771
-15.9558
4.98649
1.66424
4.10536
3.721
2.1952
-14.0239
-0.583282
5.76512
2.68649
-7.27171
-6.96987
-9.20662
-13.7361
0.643615
6.41706
-12.0949
1.92887
2.88809
3.12963
5.756
-14.3356
-13.4485
4.72763
-14.132
5.09439
-15.1952
-1.88682
-10.5719
-13.695
-10.4213
3.3026
1.67759
5.58569
1.95085
-16.3778
-5.29675
5.96322
-0.861061
2.25711
-11.9628
5.4454
-4.23262
-6.31371
-10.4786
1.92904
-11.9671
1.29154
-13.5739
-11.5205
5.76536
2.21122
4.31147
6.66101
3.7543
-4.94673
5.6203
3.85845
-12.7525
2.22102
1.06774
1.55544
4.7585
6.3097
-13.9947
-14.1098
1.38164
-11.3368
3.22821
5.17122
4.29498
-11.828
-12.8278
-12.2294
3.9119
5.09903
5.1488
-10.791
1.35875
-0.767943
3.6007
-13.4694
3.81847
1.44041
-15.6591
5.25359
6.2715
1.97656
3.73445
3.42604
6.92601
-3.75637
4.14428
5.2251
-12.4676
3.932
-10.3729
-11.0143
1.52586
-6.09396
6.44612
-10.4948
6.59769
-10.6459
3.05779
5.052
6.00238
6.30104
4.42752
0.752673
7.31398
-15.6791
4.09429
5.18065
4.00922
-13.7196
5.08547
4.96243
4.15365
-14.3163
3.50947
-9.95314
-9.17575
7.09566
6.50729
-2.56915
-13.3364
-14.3204
-1.88725
6.01595
1.99791
-12.8331
-12.1638
-11.0945
-10.0525
5.04038
4.4128
3.66319
1.61906
6.88019
5.59723
5.5555
2.33716
5.39918
-14.3828
4.56503
-14.6729
5.2836
3.59584
-5.82285
3.67779
-15.7626
1.73326
2.3507
3.16775
3.27934
6.10968
2.31886
-5.32889
0.452938
3.84216
-3.25716
-13.4783
-10.196
6.14095
0.37636
-10.7261
-13.9113
-12.622
-13.2315
-9.75894
5.79459
4.57512
4.33582
3.15058
-14.378
-13.2163
2.25113
5.99151
1.75107
6.69265
-10.1171
3.88942
-14.803
3.04703
2.2016
3.59239
-11.208
3.7878
-15.8187
-11.597
1.36958
1.42368
3.54374
6.26619
1.98541
2.82827
-4.11318
5.88368
5.48372
3.34457
5.32784
1.59353
-11.9924
-1.53249
-3.92115
-6.58808
-13.2256
-12.461
1.73411
4.77099
-10.6313
6.8123