/*--------------------------------*- C++ -*----------------------------------*\
  =========                 |
  \\      /  F ield         | OpenFOAM: The Open Source CFD Toolbox
   \\    /   O peration     | Website:  https://openfoam.org
    \\  /    A nd           | Version:  10
     \\/     M anipulation  |
\*---------------------------------------------------------------------------*/
FoamFile
{
    format      ascii;
    class       surfaceScalarField;
    location    "1400";
    object      phi;
}
// * * * * * * * * * * * * * * * * * * * * * * * * * * * * * * * * * * * * * //

dimensions      [0 3 -1 0 0 0 0];

internalField   nonuniform List<scalar> 
16133
(
2.26979
0.849707
-1.17509
-1.94429
-2.38323
2.33153
-2.70691
2.75859
-0.875717
-3.40906
2.6418
1.64299
0.438627
-0.871912
-4.14535
4.57866
-1.43304
0.463223
5.91769
-4.94784
5.34424
1.67833
-6.91325
-0.109315
-3.67948
1.1145
2.20016
0.364818
-0.0832999
-3.31894
0.890734
2.51151
-1.79595
2.61376
1.90368
-2.7215
0.537621
4.21112
0.0123283
-4.76106
3.50748
-3.15464
2.38446
-2.73729
4.6505
-1.99636
1.80499
-4.45913
-0.26329
-4.37083
2.60682
2.0273
0.901136
-0.770941
0.723028
-0.853223
1.00205
0.827614
-0.92853
-1.64087
1.18664
-3.83522
4.28945
-0.730413
0.623117
-0.663647
-5.76583
1.2453
4.2191
0.301433
-4.43391
3.58134
-0.94338
0.722476
2.62893
-1.08162
-0.749219
2.84627
-2.41366
0.31661
0.102714
-3.85591
4.19181
-4.24686
4.31018
-1.70418
6.11509
-5.0177
-0.141675
-0.955717
-4.65381
5.56368
-0.372245
-0.00250815
0.00282727
-0.0751218
0.0748026
0.0387623
-0.00562326
-0.0244516
-0.00868739
-0.206415
-2.45113
2.21738
0.440171
-0.0287605
0.0521465
-0.0198043
-0.00358171
-4.5171
2.96239
3.37142
-1.0796
-5.36333
3.07152
-2.57466
2.45832
3.62383
1.00959
-2.99396
1.90108
-0.0484998
0.15563
0.0049713
-0.112102
-3.02915
-2.96989
3.12311
2.87593
-1.23864
2.16383
1.51941
-2.44461
-2.48003
-4.58533
4.03622
-0.051605
0.0863395
-0.101224
0.0664892
0.0442534
0.0929681
-0.0239324
-0.113289
-4.39547
0.87588
-0.914313
-4.71103
0.206269
-3.65461
-0.900587
-0.948106
-0.384747
0.130417
1.20243
-1.38803
3.59653
0.933122
-3.14163
4.61394
-1.92729
-5.16668
2.67607
-0.95645
0.560817
0.0723877
-0.441926
-0.373654
0.639518
0.176062
2.08605
1.29565
-0.76794
3.99273
-3.65375
-0.236269
-1.70899
-2.35917
-5.52399
5.79528
-4.20884
3.93755
0.126502
0.0429259
-0.125175
-0.0232982
0.0367418
0.0441621
-0.0576056
-0.0170521
0.052109
0.0579112
-0.0197321
-0.0180876
0.00905918
4.15693
-2.23818
-6.50408
-0.0706567
-0.0831703
0.125756
0.0280707
-0.513316
0.769475
-0.587962
0.331803
3.86312
0.0772646
0.0173556
0.0318822
2.27462
-1.91081
-2.74705
0.0909145
-0.00285848
-0.00314941
-0.0849065
2.59444
-4.83627
4.36652
-2.12468
2.08887
-1.72178
-4.21691
2.76062
-1.95278
-0.463045
-0.252743
0.202472
-0.012194
0.298798
-0.0242378
-0.262366
1.15291
2.5841
-4.37657
0.302321
-0.943448
0.0257854
0.00400426
-0.0530879
0.110717
-0.0323894
0.0121293
-0.0904571
-0.983851
0.476888
1.62317
-1.11621
2.15211
-3.49471
-2.87431
0.841305
-1.22569
1.38644
-0.862787
-1.0624
1.17434
0.750845
-5.08
1.59821
-0.894783
-2.23644
1.38678
1.96417
-1.93018
1.7356
1.20416
1.26008
-1.12729
0.708516
4.49469
-4.23109
0.320215
-0.583842
1.94699
-1.6645
-0.925795
0.643301
0.0557923
0.123889
-0.136755
0.0463374
0.0522153
-0.061811
5.01277
0.208638
-0.726729
-2.02213
1.67631
1.51749
-1.17167
1.99397
-1.66817
-1.84605
1.52024
3.70257
-3.18898
-1.90164
1.06845
-0.499337
0.700141
-1.26924
2.35445
-1.90684
1.54635
4.29232
1.36602
-1.95575
5.64348
-2.22308
2.23845
0.55825
1.3756
-1.44991
1.14276
2.77522
-1.84403
1.42325
-2.34063
-0.920125
0.785225
4.75035
0.107904
0.616518
-0.94489
-0.897315
0.786959
-0.466471
0.448988
-4.51973
4.90892
-0.312402
-0.0767718
1.27504
-1.15785
4.66422
-4.61001
1.28784
-1.34203
1.38373
-1.82674
1.41297
0.828321
4.83508
-0.999175
0.817197
2.52276
0.438163
0.192244
-0.430608
-0.696447
6.54231
-0.833098
1.32954
-0.795923
0.726468
-0.347586
-3.26056
-0.0456095
-4.35863
-1.68441
-1.46293
-0.893241
0.691663
-0.855291
0.721892
-0.119812
-3.6147
-3.38629
-0.455868
4.63127
0.733512
1.83527
-3.12183
-2.34033
3.56052
-4.63521
-0.0991818
4.27853
2.25649
2.86824
-0.493452
0.624431
-0.176027
-1.31119
2.18645
-2.25802
-0.926835
0.581666
2.31804
-1.97286
-3.31484
3.57787
2.38949
-2.65249
-0.0529828
0.122986
0.00759474
-0.0775978
-0.19727
0.82269
1.30529
-1.50355
6.29253
-5.09579
-0.0648384
0.0522534
-0.0127061
0.025291
1.61384
-1.71798
-3.03079
-2.8587
-2.93602
-0.973448
0.673772
-0.015035
0.119344
0.00640823
-0.0581208
0.147787
0.0946435
-0.18431
-0.733319
0.928077
-2.53538
0.0461498
4.64041
-2.61704
-2.94829
0.49512
-0.978033
0.658671
-3.92205
5.36619
-0.0929821
-0.148593
-0.22147
-0.861458
2.89653
-5.85177
3.8167
4.43019
0.968772
-0.9852
0.960863
-0.944436
2.1029
-2.25454
1.22075
-4.1503
-0.927213
0.735999
-0.539202
3.72672
1.73457
-6.32275
-0.539752
0.154253
-0.0564272
-1.70279
-5.70208
2.36506
-1.9938
4.48094
2.14232
5.04261
2.43101
-0.175937
0.0440289
0.299246
-0.167337
3.95118
1.98598
-2.35928
0.842365
-2.374
2.73639
2.74835
-3.11073
6.70444
1.67565
-3.0951
-5.28499
-0.870064
0.619643
-3.98922
4.22446
4.96515
-4.90761
-0.753995
-0.760082
1.3506
4.56055
3.98848
-2.63333
2.01726
-2.3779
-4.58904
0.094474
4.39538
-3.59372
2.74506
-2.05645
2.9051
-4.7802
-5.90784
-0.350324
-3.46112
0.496934
-0.528147
-0.952638
-0.00148237
0.0141999
-0.0113408
-0.00137679
-0.585288
0.609175
4.66353
-4.5296
1.60065
-1.9407
-3.14021
-2.64942
-0.704272
0.666048
-0.0859867
0.124211
-2.88875
0.123309
-0.0202402
0.102653
-0.0302661
-5.32643
-0.366066
-3.61956
1.94731
0.102423
-0.0781414
-0.844872
-1.62697
2.89717
-3.50664
3.25091
3.95463
3.97438
3.83921
-2.96733
0.148679
0.0555892
-0.148476
-0.0717284
-0.00814502
1.27254
-2.78907
1.63111
-2.03855
2.53246
-3.00652
-0.518689
0.765813
-0.774166
-1.84741
0.0656633
2.28987
1.2151
0.172765
-0.0113127
-0.213057
-3.10569
2.63599
0.188448
-1.16656
1.47606
-2.8417
4.26898
-1.54709
-0.14591
0.0926548
0.041298
-0.0430384
4.6045
-0.244911
0.000449663
-0.295291
2.80768
2.13141
4.63874
0.0363062
0.000973708
-0.982208
0.864982
-0.96351
1.45882
0.132879
-0.132987
-0.168331
0.168438
-0.0608869
0.0583787
0.540013
0.0895967
-0.0553549
-0.0544822
0.688678
-0.195318
0.172688
0.24007
-0.165781
-0.167272
1.03588
-0.0972171
-1.52395
-0.0258742
-0.095493
0.162946
-0.0415786
2.47697
0.0592932
-0.0641096
0.00481635
-0.487208
-1.5562
3.93445
-5.36023
1.20159
0.854541
0.491516
-0.468105
-0.109397
-2.51554
-0.00159379
1.41377
-5.4402
-0.0703736
0.0633167
0.0325353
-0.0254785
-0.441441
-5.23199
-0.0976259
-0.0186476
0.0903992
-4.11818
-0.811497
-2.90434
5.62554
-2.70669
-0.0281872
-0.143647
0.0763414
0.252301
-0.306871
0.187449
-0.021914
-0.0323466
0.0345285
-2.23193
1.99077
-0.664632
2.23853
1.31018
-1.01625
-0.00100865
-0.00632552
0.00733412
-1.59546
-3.09229
0.013914
-0.0259826
0.0120686
1.39435
-4.00541
0.879873
1.32796
-0.628386
1.33155
0.0096679
0.00424611
0.502856
-0.168547
-0.210755
0.353695
0.245041
-1.12292
1.6885
-0.291764
-0.680899
4.32531
0.173907
-0.0631028
0.0378744
-0.903573
0.222039
-1.05247
1.39827
-2.45231
-0.566028
2.37946
-0.824501
4.00872
0.0539774
0.00440127
0.817749
-4.2203
1.59954
-0.829267
-2.27777
1.33644
0.807955
0.364516
-2.35622
1.65516
-0.168536
-0.0309518
0.0665006
6.11451
-0.0811617
0.0492778
0.0632559
-0.0661963
-0.0858839
0.126981
-3.01973
0.0999467
0.0953608
-0.105094
0.0208469
0.0264482
-0.0472951
-1.18159
-3.7814
4.57239
-0.414636
0.225094
0.276602
-2.10522
0.00465814
-0.0056668
-1.52085
-4.73084
0.253187
0.0481856
0.0719717
-0.0708797
0.292685
-0.174585
-0.0320641
-2.97235
-0.160468
-3.33117
-1.76823
-0.00513574
0.132683
0.304437
-0.115036
-0.651812
-0.0316502
0.0403348
-0.0115431
0.0545619
0.161408
-0.160381
-0.368218
-2.45452
-3.39238
0.0507548
0.00322252
0.215823
-2.10439
0.0466357
1.40784
-0.0550694
0.0621063
0.0601338
0.0632514
-0.0751996
0.650394
0.16381
-0.0412028
0.0186862
-0.0285316
-0.00484477
0.00818715
-0.131556
0.220836
-0.0843086
0.00945109
0.00940694
0.0530623
-0.00230753
0.00704359
-0.0183844
0.18087
0.0388427
0.00674782
-0.0130552
-0.172095
1.88991
-1.3784
1.2241
0.00801867
-0.0794406
-0.0240076
0.30652
-0.421017
-0.634615
0.986753
0.61471
-1.45996
-1.11006
-0.0225705
0.034386
-0.0547443
0.040832
-0.0691209
0.00314883
0.0136364
0.0140629
-0.00181408
0.0548764
-0.115121
-0.0614132
1.90802
-0.0121955
0.0467314
-1.79619
0.526939
-1.57171
-0.701014
-0.0925835
0.0035228
-0.0275304
-0.0558621
0.0179138
-0.0468432
0.0605562
-0.0207826
0.650722
-0.884463
-1.07799
0.867077
-0.0991493
-1.56507
-0.347489
-0.039758
-0.0253168
-1.55398
-0.878953
-0.0338378
-0.0329697
0.0340253
0.132575
-0.45533
0.0438184
0.0199603
-0.0593163
1.2417
-0.0199024
0.0203952
0.0161562
0.0614718
3.0928
0.247349
-0.199178
-0.784298
-0.197118
-0.974494
-0.00388878
0.116774
-0.112885
-0.00841889
0.121529
-0.116999
-0.0129265
0.132512
-0.128004
-0.0178309
0.141804
-0.1369
-0.0228827
0.151519
-0.146468
-0.028247
0.16032
-0.154956
-0.0337527
0.168988
-0.163482
-0.0394299
0.177147
-0.17147
0.184944
-0.179423
-0.0449506
-0.00354736
0.120321
-0.00758642
0.125568
-0.0116063
0.136532
-0.015981
0.146179
-0.0204363
0.155975
-0.0251514
0.165035
-0.0299861
0.173823
-0.0349434
0.182104
0.189987
-0.039986
-0.00341106
0.123732
-0.00681732
0.128974
-0.010298
0.140013
-0.0140524
0.149933
-0.0179042
0.159827
-0.0219428
0.169074
-0.0260826
0.177963
-0.0303246
0.186346
0.194313
-0.0346513
-0.00308836
0.126821
-0.00597488
0.131861
-0.00891831
0.142956
-0.01205
0.153065
-0.015281
0.163057
-0.0186546
0.172447
-0.0221173
0.181425
-0.0256845
0.189913
0.198011
-0.0293824
-0.00264866
0.129469
-0.00503128
0.134243
-0.00743572
0.14536
-0.00996702
0.155596
-0.0125799
0.16567
-0.0153068
0.175174
-0.018129
0.184248
-0.0210699
0.192854
0.201099
-0.0241573
-0.00208891
0.131558
-0.00397432
0.136129
-0.00585677
0.147243
-0.00781449
0.157554
-0.00983093
0.167687
-0.0119387
0.177282
-0.0141299
0.186439
-0.0164356
0.19516
0.203558
-0.018895
-0.00129906
0.132857
-0.00276648
0.137596
-0.00418356
0.14866
-0.0056272
0.158998
-0.0070833
0.169143
-0.0085962
0.178795
-0.0101894
0.188032
-0.011891
0.196862
0.205414
-0.0137468
-0.00032134
0.133179
-0.00149419
0.138769
-0.00250547
0.149671
-0.00346887
0.159961
-0.00440292
0.170077
-0.00536926
0.179761
-0.00639836
0.189061
-0.00753501
0.197998
0.206648
-0.00876964
0.000459345
0.132719
-0.000400632
0.139629
-0.000976673
0.150247
-0.00146619
0.160451
-0.00190226
0.170513
-0.00235206
0.180211
-0.00286828
0.189577
-0.00348054
0.198611
0.207401
-0.00423267
0.000742543
0.131977
0.000322122
0.140049
0.000276767
0.150293
0.000294783
0.160433
0.000344212
0.170464
0.000346695
0.180209
0.000268565
0.189655
6.79764e-05
0.198811
0.207722
-0.0002535
0.000646549
0.13133
0.00078215
0.139914
0.00130681
0.149768
0.00181196
0.159928
0.00229015
0.169985
0.00267114
0.179828
0.00293619
0.18939
0.00304136
0.198706
0.207803
0.00296031
0.000585164
0.130745
0.00130587
0.139193
0.00228048
0.148793
0.0031658
0.159042
0.00395355
0.169198
0.00462318
0.179158
0.00514083
0.188873
0.00550405
0.198343
0.207702
0.00560567
0.00096795
0.129777
0.00213324
0.138028
0.00333155
0.147595
0.0044106
0.157963
0.0053704
0.168238
0.00618716
0.178341
0.00684546
0.188214
0.00731946
0.197869
0.207395
0.00762601
0.0016819
0.128095
0.0031284
0.136581
0.00439907
0.146324
0.00553812
0.156824
0.00654713
0.167229
0.0074006
0.177488
0.00808662
0.187528
0.00857708
0.197378
0.207092
0.00888037
0.00240209
0.125693
0.00405811
0.134925
0.00534822
0.145034
0.00647446
0.155698
0.00746287
0.16624
0.00830294
0.176648
0.00896748
0.186864
0.00942323
0.196923
0.206833
0.0096815
0.00278738
0.122905
0.0046705
0.133042
0.00599778
0.143707
0.00713006
0.154565
0.00811247
0.165258
0.00893844
0.175822
0.00958313
0.186219
0.0100204
0.196485
0.206599
0.0102546
0.00258625
0.120319
0.00473369
0.130895
0.00621587
0.142225
0.00745207
0.153329
0.00850056
0.164209
0.00936877
0.174953
0.0100289
0.185559
0.010477
0.196037
0.206419
0.0106574
0.00205516
0.118264
0.00434488
0.128605
0.00606718
0.140502
0.00749841
0.151898
0.0086914
0.163016
0.00966032
0.173984
0.0103912
0.184828
0.010868
0.19556
0.206224
0.0110622
0.00161746
0.116646
0.0038854
0.126337
0.00579224
0.138596
0.00743504
0.150255
0.00882294
0.161628
0.00996295
0.172844
0.0108419
0.183949
0.0114544
0.194948
0.205881
0.0117975
0.00138858
0.115258
0.00358049
0.124145
0.00559934
0.136577
0.00743197
0.148423
0.00902779
0.160033
0.0103768
0.171495
0.0114598
0.182866
0.012259
0.194149
0.205383
0.0127575
0.00130544
0.113952
0.00347903
0.121971
0.00559185
0.134464
0.00759695
0.146417
0.00941081
0.158219
0.0109994
0.169907
0.0123291
0.181536
0.0133478
0.19313
0.204741
0.0139897
0.001398
0.112554
0.0036156
0.119754
0.00582716
0.132252
0.00799282
0.144252
0.0100364
0.156175
0.0119054
0.168038
0.0135493
0.179893
0.0148796
0.191799
0.203767
0.0158536
0.00177677
0.110778
0.00402201
0.117509
0.00631406
0.12996
0.00862431
0.141941
0.010907
0.153892
0.0130963
0.165848
0.01514
0.177849
0.0168643
0.190075
0.202573
0.0180586
0.0024513
0.108326
0.00466641
0.115293
0.00700113
0.127625
0.00945978
0.139483
0.011992
0.15136
0.0145167
0.163324
0.017034
0.175332
0.0192316
0.187878
0.20147
0.0203337
0.00323216
0.0052364
0.00768695
0.0104147
0.013299
0.0162414
0.0194785
0.0230463
0.0273985
-0.0887523
-0.00128298
0.0900352
-0.0873138
-0.00143852
-0.0857081
-0.00160564
-0.0839204
-0.00178771
-0.0819428
-0.00197761
-0.079767
-0.00217575
-0.0773859
-0.00238119
-0.0747961
-0.00258972
-0.0719917
-0.00280443
-0.0689742
-0.00301745
-0.0657443
-0.00322994
-0.0623058
-0.00343846
-0.0586651
-0.00364075
-0.0548263
-0.00383879
-0.0507993
-0.00402691
-0.0465919
-0.00420745
-0.0422179
-0.00437399
-0.0376921
-0.00452579
-0.0330367
-0.00465534
-0.0282806
-0.00475605
-0.0234647
-0.00481591
-0.0186483
-0.00481638
-0.0139046
-0.00474365
-0.00930449
-0.00460007
-0.00484835
-0.0044561
-0.000436074
-0.00441227
0.00406552
-0.00450157
0.00880124
-0.0047357
0.0138472
-0.00504589
0.0191321
-0.00528495
0.024539
-0.00540683
0.0299838
-0.00544486
0.0354098
-0.00542596
0.0407653
-0.00535547
0.0460035
-0.00523818
0.0510862
-0.00508263
0.05598
-0.00489376
0.0606564
-0.00467641
0.0650968
-0.00444041
0.069288
-0.00419112
0.0732272
-0.00393924
0.0769197
-0.00369245
0.0803744
-0.00345467
0.0836078
-0.00323338
0.0866345
-0.00302668
0.089475
-0.0028405
0.0921424
-0.0026673
0.0946521
-0.00250974
0.0970115
-0.0023594
0.099225
-0.00221345
0.101296
-0.00207113
0.103223
-0.00192643
0.105009
-0.00178655
0.106654
-0.00164475
0.108159
-0.00150536
0.10953
-0.00137028
0.110768
-0.00123816
0.111886
-0.00111813
-0.000999192
-0.0879312
-0.00263137
0.0892796
-0.0864755
-0.00289424
-0.0849036
-0.00317752
-0.0832057
-0.0034857
-0.0813757
-0.00380754
-0.0794
-0.00415152
-0.077271
-0.00451012
-0.0749744
-0.0048863
-0.0725015
-0.00527737
-0.0698419
-0.00567707
-0.0669861
-0.00608568
-0.0639273
-0.00649727
-0.0606573
-0.00691079
-0.0571772
-0.00731882
-0.0534856
-0.00771851
-0.0495852
-0.00810784
-0.0454821
-0.0084771
-0.041186
-0.00882191
-0.0367058
-0.00913553
-0.0320544
-0.00940743
-0.0272411
-0.0096292
-0.0222624
-0.00979507
-0.0170979
-0.00990807
-0.011708
-0.00999
-0.0060923
-0.0100718
-0.000317553
-0.010187
0.00552467
-0.0103438
0.0113305
-0.0105415
0.0170481
-0.0107635
0.0227092
-0.0109461
0.0283464
-0.011044
0.0339517
-0.0110501
0.0394943
-0.0109686
0.0449449
-0.0108061
0.0502705
-0.0105638
0.0554425
-0.0102545
0.0604339
-0.00988521
0.065228
-0.00947045
0.0698072
-0.00901959
0.0741619
-0.00854588
0.0782838
-0.00806108
0.0821646
-0.00757326
0.0858062
-0.00709627
0.0892064
-0.00663353
0.0923679
-0.00618815
0.0952947
-0.00576739
0.0979951
-0.00536762
0.100472
-0.00498667
0.10274
-0.00462745
0.104811
-0.00428422
0.106699
-0.00395951
0.108421
-0.00364767
0.109988
-0.00335422
0.111422
-0.00307834
0.112731
-0.00281462
0.113934
-0.00257292
0.115038
-0.00234214
0.116055
-0.00213503
-0.00194334
-0.0959967
-0.00413651
0.0975019
-0.0943736
-0.0045174
-0.0926247
-0.00492643
-0.0907472
-0.00536319
-0.0887246
-0.00583014
-0.086548
-0.00632808
-0.0842059
-0.00685223
-0.081691
-0.0074012
-0.0789917
-0.00797662
-0.0760979
-0.0085709
-0.0730006
-0.00918297
-0.0696929
-0.00980501
-0.0661693
-0.0104343
-0.0624244
-0.0110637
-0.0584545
-0.0116884
-0.0542635
-0.0122989
-0.0498484
-0.0128922
-0.0452146
-0.0134557
-0.0403656
-0.0139845
-0.0353047
-0.0144684
-0.0300314
-0.0149025
-0.0245456
-0.0152809
-0.0188469
-0.0156068
-0.0129469
-0.01589
-0.00687493
-0.0161437
-0.000676264
-0.0163857
0.00560155
-0.0166216
0.0119071
-0.0168471
0.0181859
-0.0170422
0.0244141
-0.0171743
0.0305851
-0.017215
0.0366854
-0.0171504
0.042694
-0.0169772
0.0485835
-0.0166956
0.0543322
-0.0163126
0.0599157
-0.015838
0.0653119
-0.0152814
0.0705029
-0.0146615
0.0754747
-0.0139914
0.080212
-0.0132831
0.0847077
-0.0125568
0.0889561
-0.0118217
0.092953
-0.0110932
0.0966948
-0.0103753
0.100189
-0.00968217
0.103433
-0.00901165
0.106436
-0.00837057
0.109207
-0.00775797
0.111757
-0.00717675
0.114097
-0.00662439
0.11624
-0.00610256
0.118199
-0.00560712
0.119992
-0.00514745
0.121632
-0.00471839
0.123136
-0.00431772
0.124512
-0.00394888
0.125779
-0.00360929
0.12694
-0.00329589
-0.00300818
-0.102613
-0.00568416
0.104161
-0.100943
-0.00618724
-0.0991372
-0.00673237
-0.0971861
-0.00731424
-0.0950823
-0.00793397
-0.0928157
-0.00859475
-0.0903766
-0.00929127
-0.0877505
-0.0100273
-0.0849311
-0.010796
-0.0819075
-0.0115945
-0.0786711
-0.0124193
-0.0752078
-0.0132684
-0.071513
-0.0141291
-0.0675754
-0.0150013
-0.0633937
-0.0158701
-0.0589594
-0.0167332
-0.0542738
-0.0175779
-0.0493364
-0.0183931
-0.0441491
-0.0191719
-0.0387144
-0.019903
-0.0330359
-0.020581
-0.027118
-0.0211987
-0.0209699
-0.0217548
-0.0146116
-0.0222484
-0.00807112
-0.0226842
-0.00138966
-0.0230671
0.00538182
-0.0233931
0.0121915
-0.0236567
0.018993
-0.0238438
0.0257536
-0.0239348
0.0324502
-0.0239116
0.0390623
-0.0237625
0.0455666
-0.0234815
0.0519412
-0.0230702
0.0581594
-0.0225307
0.0642004
-0.021879
0.0700439
-0.0211249
0.0756635
-0.0202811
0.0810422
-0.0193701
0.0861683
-0.0184092
0.0910288
-0.0174172
0.0956149
-0.0164077
0.0999203
-0.0153986
0.103944
-0.0143989
0.107682
-0.0134206
0.111147
-0.0124762
0.11434
-0.0115638
0.117279
-0.0106967
0.11997
-0.00986785
0.122435
-0.00908982
0.124689
-0.00835617
0.126747
-0.00766538
0.12862
-0.00702
0.130329
-0.00642773
0.13189
-0.00587858
0.133317
-0.00537559
0.134619
-0.00491201
0.135809
-0.00448505
-0.00409964
-0.11156
-0.00737494
0.113251
-0.109724
-0.00802339
-0.107739
-0.00871729
-0.105596
-0.00945798
-0.103283
-0.0102464
-0.100794
-0.0110839
-0.0981141
-0.0119711
-0.0952389
-0.0129026
-0.0921557
-0.0138791
-0.0888545
-0.0148958
-0.0853254
-0.0159484
-0.0815599
-0.0170339
-0.0775487
-0.0181403
-0.0732871
-0.019263
-0.0687648
-0.0203924
-0.06398
-0.021518
-0.05893
-0.0226278
-0.053612
-0.0237112
-0.0480303
-0.0247535
-0.0421852
-0.0257481
-0.0360864
-0.0266798
-0.0297426
-0.0275426
-0.0231691
-0.0283283
-0.0163864
-0.0290311
-0.0094249
-0.0296457
-0.00232328
-0.0301688
0.00487703
-0.0305934
0.0121329
-0.0309126
0.0194023
-0.0311132
0.0266483
-0.0311809
0.0338393
-0.0311027
0.0409453
-0.0308685
0.0479369
-0.0304731
0.0547888
-0.0299221
0.0614761
-0.0292181
0.0679685
-0.0283714
0.0742429
-0.0273992
0.0802788
-0.026317
0.0860557
-0.025147
0.0915605
-0.0239141
0.0967758
-0.0226325
0.101699
-0.0213306
0.106321
-0.0200204
0.110643
-0.0187219
0.114671
-0.017448
0.118405
-0.0162101
0.121859
-0.0150182
0.125041
-0.013879
0.127967
-0.0127933
0.130648
-0.0117705
0.133102
-0.0108108
0.135349
-0.00991245
0.137408
-0.00907843
0.139284
-0.00830365
0.140996
-0.00759146
0.142558
-0.00693728
0.143983
-0.00633667
0.145284
-0.00578642
-0.00528301
-0.11998
-0.00914909
0.121754
-0.118055
-0.00994874
-0.115972
-0.0107998
-0.113719
-0.0117112
-0.111281
-0.0126841
-0.108654
-0.0137116
-0.105823
-0.0148021
-0.102776
-0.015949
-0.0995024
-0.0171528
-0.0959934
-0.0184049
-0.0922365
-0.0197053
-0.0882236
-0.0210469
-0.0839428
-0.0224211
-0.0793862
-0.0238196
-0.0745489
-0.0252297
-0.0694261
-0.0266407
-0.0640149
-0.028039
-0.0583206
-0.0294055
-0.0523426
-0.0307315
-0.0460889
-0.0320019
-0.0395654
-0.0332033
-0.0327875
-0.0343206
-0.0257716
-0.0353442
-0.0185423
-0.0362604
-0.0111312
-0.0370568
-0.00357506
-0.0377249
0.00408593
-0.0382544
0.0118121
-0.0386388
0.0195634
-0.0388645
0.0273013
-0.0389188
0.0349914
-0.0387928
0.0425972
-0.0384742
0.0500869
-0.0379628
0.0574318
-0.037267
0.0645989
-0.0363852
0.0715631
-0.0353357
0.0782968
-0.034133
0.0847673
-0.0327875
0.0909577
-0.0313373
0.0968478
-0.0298042
0.102428
-0.0282131
0.107686
-0.0265881
0.11262
-0.0249547
0.117227
-0.0233287
0.121512
-0.0217334
0.125482
-0.0201794
0.129144
-0.01868
0.13251
-0.0172458
0.1356
-0.0158829
0.138427
-0.0145978
0.141012
-0.0133961
0.143372
-0.0122715
0.145523
-0.0112294
0.147484
-0.0102649
0.149272
-0.00938009
0.150898
-0.00856318
0.152378
-0.00781639
0.153729
-0.00713697
-0.00651009
-0.129497
-0.0110483
0.131396
-0.127433
-0.0120129
-0.125194
-0.013039
-0.122769
-0.0141361
-0.120147
-0.0153052
-0.117315
-0.0165439
-0.114262
-0.0178554
-0.110974
-0.0192372
-0.107445
-0.0206817
-0.103659
-0.0221907
-0.0996102
-0.023754
-0.0952891
-0.025368
-0.0906834
-0.0270268
-0.0857865
-0.0287165
-0.0805931
-0.0304231
-0.0751003
-0.0321336
-0.0693025
-0.0338368
-0.0632123
-0.0354956
-0.0568285
-0.0371153
-0.0501615
-0.0386689
-0.0432156
-0.0401493
-0.0360087
-0.0415274
-0.0285598
-0.0427931
-0.0208886
-0.0439316
-0.0130348
-0.0449106
-0.00503223
-0.0457275
0.00307681
-0.0463634
0.0112588
-0.0468208
0.0194757
-0.0470813
0.0276867
-0.0471298
0.035859
-0.0469651
0.0439461
-0.0465613
0.0519145
-0.0459312
0.0597352
-0.0450877
0.0673686
-0.0440186
0.0747928
-0.0427598
0.0819767
-0.0413169
0.0888715
-0.0396823
0.0954676
-0.0379335
0.101743
-0.0360797
0.10769
-0.0341596
0.113292
-0.0321902
0.118548
-0.0302108
0.123454
-0.0282344
0.128018
-0.0262982
0.132246
-0.0244069
0.136147
-0.0225809
0.13973
-0.0208291
0.143015
-0.019168
0.14602
-0.017603
0.14876
-0.0161357
0.151263
-0.0147743
0.153541
-0.0135073
0.155615
-0.0123389
0.1575
-0.0112655
0.159216
-0.0102789
0.160776
-0.00937711
0.162194
-0.00855486
-0.0077981
-0.139052
-0.0130621
0.141065
-0.136871
-0.0141933
-0.13451
-0.0154005
-0.131945
-0.0167008
-0.129171
-0.0180794
-0.126165
-0.0195493
-0.122927
-0.0210936
-0.11943
-0.0227346
-0.115658
-0.0244541
-0.111624
-0.0262242
-0.107305
-0.028073
-0.102691
-0.0299817
-0.097776
-0.0319422
-0.0925468
-0.0339457
-0.0870023
-0.0359676
-0.0811325
-0.0380033
-0.0749331
-0.0400362
-0.0684394
-0.0419894
-0.0616484
-0.0439062
-0.0545642
-0.0457531
-0.0471853
-0.0475282
-0.0395416
-0.0491711
-0.0316549
-0.0506798
-0.0235161
-0.0520705
-0.0152038
-0.0532229
-0.00673745
-0.0541939
0.00182327
-0.0549241
0.0104701
-0.0554676
0.0191593
-0.0557705
0.0278447
-0.0558152
0.0365086
-0.0556289
0.0450744
-0.0551271
0.0535138
-0.0543706
0.0618247
-0.0533986
0.0699195
-0.0521135
0.0778109
-0.0506512
0.0854835
-0.0489894
0.0928083
-0.0470071
0.0998163
-0.0449415
0.106489
-0.0427523
0.11281
-0.0404806
0.118774
-0.0381548
0.124352
-0.0357886
0.129555
-0.033437
0.134413
-0.0311561
0.13889
-0.0288839
0.14303
-0.0267209
0.146826
-0.0246256
0.150279
-0.0226212
0.153423
-0.0207463
0.156281
-0.0189943
0.15888
-0.0173731
0.161239
-0.0158664
0.163379
-0.0144791
0.165321
-0.0132073
0.167086
-0.0120433
0.168684
-0.010976
0.170142
-0.0100125
-0.00912553
-0.149421
0.151541
-0.015183
-0.147105
-0.0165085
-0.144595
-0.0179106
-0.141857
-0.019439
-0.13889
-0.0210467
-0.135657
-0.0227821
-0.132154
-0.0245967
-0.128413
-0.0264758
-0.124397
-0.0284699
-0.120017
-0.0306045
-0.115376
-0.0327135
-0.110425
-0.0349332
-0.105114
-0.0372532
-0.0995263
-0.0395331
-0.0935739
-0.04192
-0.0873611
-0.0442161
-0.0808227
-0.0465746
-0.0739278
-0.0488844
-0.0666627
-0.0511713
-0.0591336
-0.0532821
-0.0513025
-0.0553593
-0.0432599
-0.0572137
-0.0349647
-0.058975
-0.0263548
-0.0606804
-0.0175784
-0.0619993
-0.0086634
-0.0631088
0.000316029
-0.0639036
0.00943511
-0.0645867
0.0186334
-0.0649689
0.0277575
-0.0649393
0.0369127
-0.0647842
0.0459706
-0.064185
0.0548399
-0.0632399
0.0636502
-0.0622089
0.0722547
-0.060718
0.0806277
-0.0590242
0.0886574
-0.0570191
0.0963252
-0.0546749
0.103803
-0.0524195
0.110875
-0.0498245
0.117581
-0.047186
0.12395
-0.0445244
0.129898
-0.0417363
0.135455
-0.0389935
0.140619
-0.0363205
0.145371
-0.0336354
0.149727
-0.0310775
0.153689
-0.0285875
0.157376
-0.0263082
0.160728
-0.0240983
0.163752
-0.022018
0.166477
-0.0200984
0.168927
-0.0183165
0.171165
-0.0167175
0.173189
-0.0152312
0.17501
-0.0138643
0.176656
-0.0126214
0.178082
-0.0114391
-0.0104663
-0.0584689
0.0111737
-0.0685643
0.0100953
-0.0776102
0.00904586
-0.0853979
0.0077877
-0.0920907
0.00669278
-0.0981488
0.00605816
-0.103841
0.00569254
-0.109242
0.00540092
-0.114364
0.00512136
-0.118868
0.00450391
-0.122134
0.00326639
-0.123862
0.00172849
-0.124199
0.000336634
-0.123579
-0.000620046
-0.122569
-0.00100962
-0.121381
-0.00118886
-0.119784
-0.00159628
-0.117508
-0.0022759
-0.114608
-0.00290018
-0.111286
-0.00332177
-0.107647
-0.00363904
-0.103722
-0.0039256
-0.0995071
-0.00421479
-0.095028
-0.00447909
-0.00499272
-0.0625033
0.0205892
-0.071808
0.0193999
-0.0805563
0.0177942
-0.0887746
0.016006
-0.0964786
0.0143967
-0.103571
0.0131507
-0.110001
0.0121226
-0.115718
0.0111181
-0.12054
0.00994344
-0.124326
0.00828944
-0.127165
0.00610521
-0.129118
0.00368152
-0.130143
0.0013617
-0.130183
-0.000579646
-0.12922
-0.00197285
-0.127414
-0.00299513
-0.125029
-0.00398119
-0.12225
-0.00505485
-0.119069
-0.00608073
-0.115411
-0.00697999
-0.111266
-0.00778459
-0.106625
-0.008566
-0.101464
-0.0093765
-0.0956672
-0.0102754
-0.0113803
-0.0680554
0.0310389
-0.078066
0.0294106
-0.0875798
0.0273079
-0.0965903
0.0250166
-0.104967
0.0227737
-0.112531
0.0207143
-0.119168
0.0187597
-0.124808
0.0167585
-0.129398
0.014533
-0.13302
0.0119114
-0.135813
0.00889825
-0.137842
0.00571051
-0.13911
0.00263012
-0.139563
-0.000127403
-0.139097
-0.00243874
-0.1377
-0.00439148
-0.135515
-0.00616667
-0.132698
-0.00787135
-0.129307
-0.00947164
-0.12534
-0.0109479
-0.120803
-0.0123215
-0.115716
-0.0136526
-0.11011
-0.0149823
-0.104019
-0.0163669
-0.0178971
-0.0733458
0.0425737
-0.0842144
0.0402792
-0.0944895
0.0375829
-0.10414
0.0346669
-0.113049
0.0316824
-0.12106
0.0287254
-0.128056
0.0257558
-0.133978
0.0226811
-0.138826
0.0193802
-0.142685
0.0157709
-0.145677
0.0118902
-0.147866
0.00789986
-0.149246
0.0040098
-0.149776
0.000402508
-0.14938
-0.00283433
-0.148053
-0.00571938
-0.145863
-0.00835651
-0.142917
-0.0108175
-0.139265
-0.0131229
-0.134942
-0.0152715
-0.129957
-0.0173063
-0.12434
-0.0192696
-0.118118
-0.0212044
-0.111341
-0.0231438
-0.0250773
-0.0786583
0.0550357
-0.0904443
0.0520652
-0.101525
0.0486638
-0.111856
0.0449975
-0.121328
0.0411543
-0.129825
0.0372227
-0.137252
0.033183
-0.14357
0.0289986
-0.148791
0.0246013
-0.152985
0.0199646
-0.156242
0.0151474
-0.158619
0.0102767
-0.160111
0.00550237
-0.160693
0.000983842
-0.160334
-0.00319281
-0.15902
-0.00703342
-0.156795
-0.0105823
-0.153734
-0.0138777
-0.149897
-0.0169604
-0.145326
-0.0198426
-0.140063
-0.0225691
-0.134157
-0.0251751
-0.127672
-0.0276894
-0.120687
-0.0301292
-0.0325132
-0.0840916
0.0682475
-0.0967654
0.064739
-0.108649
0.0605476
-0.119683
0.0560311
-0.129762
0.0512337
-0.138805
0.0462655
-0.146724
0.0411017
-0.153498
0.0357726
-0.159143
0.0302464
-0.163704
0.024526
-0.167257
0.0187004
-0.169838
0.0128573
-0.171454
0.00711853
-0.172096
0.00162548
-0.171737
-0.00355202
-0.170392
-0.00837835
-0.1681
-0.0128742
-0.164905
-0.0170728
-0.160871
-0.0209939
-0.156042
-0.0246716
-0.150472
-0.0281391
-0.144206
-0.0314416
-0.137292
-0.0346035
-0.12978
-0.0376406
-0.0405394
-0.0895059
0.0825537
-0.103176
0.0784092
-0.115896
0.0732671
-0.127668
0.0678037
-0.138402
0.0619672
-0.148042
0.0559061
-0.156489
0.0495478
-0.163749
0.0430334
-0.16983
0.0363266
-0.174768
0.0294643
-0.178626
0.0225584
-0.181437
0.0156688
-0.183196
0.00887685
-0.183899
0.00232822
-0.18356
-0.00389021
-0.18219
-0.00974913
-0.17982
-0.0152433
-0.176505
-0.0203886
-0.172293
-0.0252052
-0.167254
-0.029711
-0.161433
-0.0339598
-0.154892
-0.037983
-0.147664
-0.0418317
-0.13981
-0.0454945
-0.048953
-0.0950864
0.0981995
-0.109784
0.0931068
-0.123308
0.0867915
-0.135836
0.0803318
-0.147255
0.0733855
-0.157533
0.0661848
-0.166531
0.0585448
-0.174286
0.0507892
-0.180824
0.0428642
-0.186139
0.0347793
-0.190296
0.026715
-0.193355
0.018728
-0.195262
0.0107837
-0.196042
0.00310905
-0.195723
-0.0042092
-0.194318
-0.0111544
-0.191872
-0.0176899
-0.188428
-0.0238326
-0.184041
-0.0295921
-0.178783
-0.0349689
-0.172707
-0.0400355
-0.165884
-0.0448066
-0.158309
-0.0494067
-0.150023
-0.0537799
-0.0579107
-0.101219
0.11511
-0.116681
0.108569
-0.130872
0.100983
-0.144165
0.0936246
-0.156305
0.0855257
-0.167291
0.0771701
-0.176842
0.0680961
-0.185096
0.0590431
-0.192101
0.0498697
-0.197824
0.0405015
-0.202252
0.0311439
-0.205545
0.0220205
-0.207633
0.0128714
-0.208476
0.00395214
-0.208172
-0.0045126
-0.206734
-0.0125923
-0.204195
-0.0202293
-0.200639
-0.0273887
-0.196056
-0.034175
-0.190514
-0.0405113
-0.184158
-0.0463912
-0.177017
-0.0519476
-0.169068
-0.0573553
-0.160592
-0.0622566
-0.066961
1.29717
3.14625
-0.0102318
-3.13601
1.58428
-0.295435
-1.28886
0.264577
-0.363552
0.098975
0.3279
-0.3965
0.0685993
-0.661468
-0.504762
1.16623
-0.493509
0.773694
-0.280185
2.84774
-3.53553
0.687795
-0.0372679
-0.191108
0.228376
5.26731
-3.58524
-1.68207
-0.890908
1.92743
-1.03652
-0.833013
0.265877
0.567136
1.26394
-2.05489
0.790954
-1.35784
0.408093
0.949747
0.10944
-0.110194
0.000753936
5.24681
-5.12126
-0.125548
0.0997559
1.48453
0.130279
-0.0250385
-0.105241
-0.141109
-0.153176
0.386765
0.247651
-0.634416
-0.334413
0.2168
0.117613
3.09367
2.1815
-5.27517
-0.69839
0.943285
-0.244895
1.34328
-1.11346
-0.229822
-1.00493
0.392934
0.611991
1.20072
0.142556
-1.20413
0.805535
0.398595
-0.651415
0.0860667
0.565349
5.37198
-2.89823
-2.47375
-0.0289986
-0.139196
0.168195
0.117327
0.543671
-0.660999
-1.55725
0.679423
0.877821
0.88918
0.690823
-1.58
3.12602
-5.51263
2.38661
-0.28372
-0.0711525
0.354872
-0.0248403
1.69544
-1.6706
-0.919329
-0.438511
-3.07556
1.57492