/*--------------------------------*- C++ -*----------------------------------*\
  =========                 |
  \\      /  F ield         | OpenFOAM: The Open Source CFD Toolbox
   \\    /   O peration     | Website:  https://openfoam.org
    \\  /    A nd           | Version:  10
     \\/     M anipulation  |
\*---------------------------------------------------------------------------*/
FoamFile
{
    format      ascii;
    class       volVectorField;
    location    "1400";
    object      U;
}
// * * * * * * * * * * * * * * * * * * * * * * * * * * * * * * * * * * * * * //

dimensions      [0 1 -1 0 0 0 0];

internalField   nonuniform List<vector> 
10435
(
(2.07992 0.876812 3.95043e-22)
(2.86066 1.8375 -3.09502e-20)
(4.62736 -0.416452 -3.26226e-20)
(3.40054 0.695881 7.51311e-20)
(4.18339 0.644905 -3.63419e-20)
(3.9945 -0.226073 2.5659e-19)
(4.65129 -0.381204 -1.1692e-19)
(4.34322 -0.373891 6.99665e-20)
(3.75586 -0.370343 2.37343e-19)
(4.25735 -0.456257 -7.4317e-20)
(3.32207 1.66722 -7.70069e-20)
(4.24581 -5.88799e-05 1.75452e-19)
(4.13292 -0.460277 8.03895e-20)
(0.898325 0.714131 -8.81277e-21)
(1.0169 0.782036 -1.04201e-20)
(4.58813 -0.406477 -8.73153e-21)
(0.792191 0.634741 2.78789e-21)
(3.83154 -0.461633 2.68927e-19)
(3.41429 -0.36159 -9.6722e-20)
(2.30695 0.830075 -1.00012e-20)
(4.49106 -0.387616 5.08579e-20)
(3.23554 0.430445 -1.17701e-19)
(4.66208 -0.415186 3.52353e-19)
(3.70838 -0.368562 -1.07099e-19)
(4.49614 -0.424575 8.74749e-20)
(0.247827 0.412051 -2.44236e-22)
(0.0367521 0.16702 -4.38916e-22)
(4.44941 -0.420057 6.95576e-20)
(0.191576 0.0228061 3.11558e-23)
(4.00838 -0.466225 3.69093e-19)
(4.67979 -0.362871 1.48969e-19)
(3.52754 1.52904 -6.58962e-21)
(4.20981 -0.372011 -1.48125e-19)
(0.438848 0.0525492 1.05964e-21)
(4.23982 -0.39695 8.19092e-20)
(2.05347 1.74618 7.31428e-21)
(4.41379 -0.398305 1.19057e-19)
(0.144372 0.34623 5.43943e-22)
(0.385199 0.38473 -2.68041e-22)
(3.53664 -0.356615 2.9511e-20)
(3.83211 -0.467467 -3.98094e-19)
(4.65986 -0.401091 -9.50876e-20)
(0.605798 0.73105 -1.10333e-20)
(2.89832 0.933034 -1.01586e-19)
(4.58699 -0.390508 -2.5394e-19)
(3.6385 -0.365506 1.74242e-19)
(3.93258 -0.353172 -2.95531e-19)
(0.430403 0.580888 -3.17447e-20)
(3.68717 -0.400122 7.66033e-20)
(3.07653 0.167284 -4.06527e-20)
(4.37254 -0.388202 -1.08705e-20)
(4.55072 -0.200205 1.18288e-18)
(0.426517 0.405842 -7.05005e-22)
(0.280571 -0.0835878 1.06385e-22)
(0.343235 0.392413 8.93856e-23)
(0.141551 -0.0183913 -9.31993e-23)
(4.23917 -0.379168 -3.55185e-19)
(0.146591 0.281625 9.08534e-22)
(0.649784 0.365564 -1.2937e-21)
(4.00812 -0.37353 2.30097e-19)
(0.383978 0.4177 5.32352e-22)
(2.60386 1.85631 1.93435e-20)
(0.156499 0.188943 -4.48522e-22)
(4.52037 -0.0336214 -9.99891e-20)
(4.6405 -0.411006 -4.85225e-19)
(4.60385 -0.438969 2.4868e-19)
(0.585165 0.246443 3.08155e-21)
(0.316955 0.34926 2.934e-21)
(4.46369 -0.374299 -9.16064e-20)
(3.67361 -0.34471 8.23707e-21)
(0.231134 -0.113938 -4.92898e-22)
(0.186114 0.406479 1.6129e-22)
(0.720293 0.830769 4.43225e-20)
(4.66066 -0.425162 -3.17994e-19)
(1.14988 0.84571 -4.53883e-21)
(0.779544 0.920764 4.43599e-21)
(3.66175 -0.325466 4.46817e-19)
(4.64311 -0.36387 2.87134e-19)
(4.08477 -0.372644 2.10137e-20)
(1.20578 0.718782 2.55914e-20)
(3.39733 -0.0877976 4.97509e-20)
(1.84751 0.715887 3.92599e-22)
(0.466451 0.426952 1.09377e-21)
(0.32189 -0.0594619 -9.04732e-23)
(3.51636 -0.186413 -9.74265e-20)
(1.75185 1.43703 5.17434e-20)
(1.9558 1.29545 3.85796e-21)
(3.02913 1.22375 2.16075e-20)
(1.33266 1.12053 -3.20406e-21)
(2.22115 1.32995 6.15184e-22)
(3.29087 1.12653 -1.6591e-20)
(3.56788 0.994899 -1.90709e-20)
(2.04257 0.669592 3.2771e-21)
(1.50265 1.18136 1.9275e-20)
(2.49189 1.3291 9.07932e-21)
(1.7767 1.62462 2.55042e-20)
(3.7824 0.801069 2.45953e-19)
(1.11364 0.954409 7.05927e-21)
(0.747628 0.467771 -3.24828e-21)
(4.07411 0.7015 -2.30242e-19)
(1.21355 1.03171 1.44088e-20)
(3.92378 0.578802 -1.43038e-19)
(1.71047 1.24157 -1.22887e-20)
(2.76102 1.29155 -6.60454e-21)
(3.96544 0.344523 -8.73537e-21)
(3.1544 0.830202 8.82665e-22)
(2.24864 0.596241 2.48462e-21)
(3.25322 0.0270881 5.53473e-20)
(3.60989 -0.24398 -1.28174e-19)
(1.34302 0.741609 -7.25071e-21)
(2.88394 0.288279 -1.54033e-20)
(3.87141 0.828203 -7.00076e-20)
(1.66448 0.737605 -9.0787e-21)
(1.49737 0.748227 -6.41107e-21)
(3.89376 0.915032 -1.32723e-19)
(3.01294 0.560984 3.26378e-20)
(4.21219 0.486246 -1.28551e-19)
(2.01684 1.52419 -5.6465e-21)
(3.11718 1.50778 -1.115e-19)
(4.09979 0.364181 -3.4053e-20)
(4.31811 0.302221 -3.97915e-19)
(0.831158 0.999439 4.58082e-21)
(2.29779 1.5832 2.03075e-23)
(1.26384 1.40978 -8.27183e-20)
(3.5141 1.5669 1.94516e-20)
(0.32198 0.420931 1.80061e-22)
(3.9534 0.563829 2.3248e-19)
(0.942257 1.12085 -9.83029e-21)
(4.27467 0.553835 -2.50847e-19)
(0.0757516 0.345936 2.87407e-23)
(1.0821 1.25703 2.55674e-20)
(3.35117 1.73928 -1.36392e-19)
(4.47499 -0.396939 -1.28366e-19)
(1.079 0.680084 1.81343e-20)
(0.157425 0.380148 4.05933e-23)
(0.604185 0.515783 1.46245e-22)
(1.76548 1.77297 6.59504e-20)
(3.61265 0.519063 -1.28168e-20)
(2.85256 1.57366 3.06641e-20)
(2.77653 0.668436 2.61077e-20)
(2.53932 0.759939 2.589e-21)
(4.67703 -0.384011 -5.33911e-19)
(0.514321 0.158565 9.60264e-21)
(4.59394 -0.0959894 1.13937e-18)
(3.43661 0.280759 1.82734e-20)
(0.976619 1.01036 4.32185e-20)
(1.50013 1.59978 -2.20956e-20)
(4.37913 -0.0870916 -3.47144e-19)
(0.755601 0.732497 1.57094e-20)
(4.5249 -0.139555 6.99808e-20)
(0.380264 0.54323 5.76394e-22)
(4.4977 -0.366709 2.23307e-19)
(2.14207 1.08897 1.07168e-21)
(4.59845 -0.190389 4.93148e-19)
(4.40407 -0.289593 -3.06181e-19)
(0.327034 0.488023 6.41622e-22)
(3.64983 1.33791 2.08759e-19)
(2.57892 1.59971 6.35765e-21)
(4.29474 -0.370374 -2.60937e-19)
(2.98057 1.99507 -1.84749e-20)
(4.61479 -0.306408 -9.09774e-20)
(0.966826 0.625523 -3.67914e-21)
(3.63051 1.24855 1.59536e-19)
(3.90213 -0.0684073 1.1816e-19)
(1.2996 0.881393 1.44437e-20)
(4.42304 0.313307 9.00952e-19)
(4.11561 -0.382172 -2.28954e-19)
(3.94818 0.184444 -1.09548e-19)
(4.07162 -0.265263 1.69602e-19)
(4.55356 0.0532551 -1.60309e-18)
(4.54288 -0.380127 3.00124e-19)
(0.668695 0.734153 -1.3416e-20)
(0.0150158 0.0897221 -1.72582e-23)
(1.08732 1.06326 -3.30187e-22)
(4.39777 -0.221455 -2.5961e-19)
(2.77066 2.05668 -1.47269e-20)
(2.33358 1.82539 8.73133e-21)
(0.532398 0.56562 4.96692e-21)
(2.67765 0.400114 9.70773e-21)
(0.24725 0.0696174 -1.25942e-22)
(3.10118 1.7707 4.46261e-20)
(4.03086 -0.0724957 -4.32207e-20)
(4.42896 -0.0607276 -6.11655e-19)
(0.368183 0.436345 1.87806e-22)
(4.65039 -0.350822 7.54378e-20)
(0.55411 0.690563 1.67106e-20)
(0.731491 0.876331 -4.03711e-20)
(4.61969 -0.364582 -2.25644e-19)
(4.23089 0.460887 8.95942e-20)
(4.63358 -0.154371 -7.82831e-19)
(4.33636 0.150636 9.01514e-20)
(0.502358 0.449814 1.13141e-21)
(0.106005 0.373785 1.70016e-22)
(2.0405 1.92232 -4.21691e-20)
(3.77096 1.08919 1.05526e-19)
(4.55514 -0.362797 1.32753e-20)
(0.738491 0.823639 4.17526e-20)
(1.51914 1.33834 -1.95885e-20)
(0.479456 0.589727 3.34845e-20)
(4.52323 -0.406367 1.84336e-19)
(1.30909 0.998737 -1.74296e-20)
(0.209888 0.399493 2.10824e-21)
(4.32332 -0.436527 -1.99855e-20)
(0.19345 0.356369 2.04568e-21)
(4.50678 -0.434355 -7.59593e-20)
(3.94856 0.996947 -2.16285e-21)
(3.36699 1.40573 1.34267e-19)
(3.79476 0.341536 -7.21742e-20)
(0.222647 0.17371 -8.00716e-22)
(3.60925 0.136344 -5.59813e-20)
(0.447108 0.573446 -5.28459e-21)
(4.67295 -0.411285 -4.57582e-19)
(4.47884 0.0832111 9.16049e-19)
(4.07422 -0.123664 6.8386e-20)
(0.0648266 0.150175 4.31604e-22)
(0.863716 0.817317 -4.38363e-20)
(1.47745 0.889509 4.62614e-21)
(0.471137 0.507198 -8.19885e-22)
(0.235521 0.395765 -1.64358e-23)
(0.86238 0.553398 3.38166e-21)
(0.295633 0.0335497 -1.1795e-22)
(0.592342 0.525315 9.29452e-21)
(0.422461 0.196062 -5.14965e-21)
(1.13944 1.19128 -8.24083e-20)
(0.271282 0.444803 -2.02777e-23)
(4.38195 -0.399832 -5.79977e-20)
(0.294215 0.387782 -7.4845e-23)
(1.32355 1.23563 9.10039e-21)
(4.67099 -0.299944 8.6507e-19)
(0.893707 1.03467 -4.2755e-20)
(0.454589 0.436134 -3.02279e-20)
(4.24887 -0.38699 2.55418e-19)
(0.267417 0.393353 5.27151e-23)
(4.40658 -0.336962 2.64753e-19)
(0.055249 0.280465 5.49431e-22)
(0.686102 0.556172 -1.60242e-20)
(4.09791 -0.368981 -3.22517e-19)
(0.237898 0.424732 -1.73678e-22)
(4.03385 -0.345681 -2.05493e-20)
(4.65824 -0.388355 4.88583e-21)
(2.64377 1.01112 3.02824e-20)
(0.324084 0.453457 6.69529e-23)
(0.503342 0.548377 1.57492e-22)
(0.191876 -0.0418115 -5.1727e-23)
(3.79584 1.16444 -2.81223e-19)
(3.96673 -0.379566 8.06855e-20)
(1.52197 1.48064 -8.63653e-20)
(4.53132 -0.347349 7.54096e-20)
(0.0477825 -0.0130325 -2.89585e-22)
(2.54251 2.06289 9.02959e-21)
(0.112533 -0.0712075 -6.37364e-22)
(1.48687 1.0274 -1.51582e-20)
(4.13862 -0.460619 -1.3989e-19)
(3.76008 0.0106404 -1.05907e-19)
(4.58243 -0.334362 -1.94175e-19)
(4.41969 0.238872 3.87883e-19)
(0.0618743 -0.0429876 1.25223e-21)
(4.61167 -0.340567 2.76128e-19)
(0.40771 0.526048 4.09368e-22)
(0.294448 0.455484 -8.27224e-21)
(4.63201 -0.349084 1.40749e-20)
(4.60088 -0.337905 1.06551e-21)
(0.290693 0.431633 4.57578e-23)
(3.79721 -0.26105 -2.54197e-19)
(1.65823 0.897628 3.40072e-21)
(0.550156 0.40848 1.77249e-20)
(2.39084 1.0641 4.69363e-21)
(4.68658 -0.418296 2.8776e-19)
(0.449467 0.461128 -2.7011e-22)
(4.10469 0.800818 4.86132e-20)
(4.63495 -0.36034 -1.89391e-23)
(4.3949 -0.342776 -3.98657e-20)
(4.53856 -0.332721 -2.8436e-20)
(4.53013 -0.446699 -3.17516e-19)
(0.200154 0.401652 2.81327e-22)
(4.2057 0.219586 -1.66359e-19)
(0.11309 0.342599 -5.39068e-22)
(4.00773 0.932378 3.7294e-20)
(4.59104 -0.389107 7.36392e-20)
(4.28725 -0.354903 1.59654e-20)
(4.29494 -0.473768 1.61922e-19)
(0.624963 0.701533 -5.41019e-20)
(4.61511 -0.372666 -8.47362e-21)
(1.19863 1.14152 -6.79975e-21)
(1.67703 1.05981 -7.42204e-21)
(0.526223 0.50645 -4.36011e-22)
(4.30902 0.234726 5.97233e-20)
(0.325961 0.374717 -2.85302e-22)
(0.366955 -0.0351146 -4.84737e-22)
(0.361783 0.0528747 2.55459e-22)
(1.29239 1.32806 8.79195e-20)
(3.17365 1.89092 1.42217e-19)
(0.291036 0.137959 3.83076e-22)
(4.46773 -0.333391 7.66577e-20)
(0.369863 0.358216 -7.99848e-23)
(0.187636 -0.116885 -1.41209e-21)
(0.862576 0.927816 -1.04982e-21)
(1.86172 0.896821 1.99018e-21)
(3.85376 1.17617 -6.46576e-21)
(4.65643 -0.421967 1.90106e-19)
(0.389122 0.463461 4.56685e-20)
(3.99637 -0.332043 -8.56518e-20)
(4.57077 -0.38063 -2.91429e-21)
(0.0272926 0.018391 -3.59343e-22)
(3.69784 1.38017 -7.56722e-20)
(0.979478 0.893213 2.50203e-20)
(0.655039 0.64244 2.07821e-20)
(4.30485 -0.319909 -1.83996e-20)
(4.63734 -0.425958 -2.54075e-21)
(0.410657 -0.0169689 1.67124e-22)
(2.46004 0.506838 7.14768e-21)
(0.219546 0.418911 1.49805e-21)
(2.30028 2.0192 8.22927e-21)
(4.32281 0.0812693 -1.80589e-19)
(3.92671 -0.371731 -3.97726e-20)
(0.151179 -0.0960108 -3.03678e-22)
(0.387155 0.462459 -4.40863e-22)
(4.67329 -0.254917 -9.64961e-19)
(0.39028 0.324882 4.06391e-22)
(4.08828 0.0740146 1.33052e-19)
(3.96758 0.11931 -6.80545e-20)
(0.136 0.121818 1.25032e-22)
(1.90029 1.08416 -1.61257e-21)
(0.538515 0.474089 6.95583e-22)
(4.15627 -0.356646 -9.14511e-21)
(4.37889 -0.45055 -7.09913e-20)
(0.172668 0.404429 2.25802e-22)
(4.51329 -0.390053 -3.89919e-22)
(0.47829 0.295563 -6.43318e-22)
(0.0968656 0.279509 -5.37852e-22)
(3.8553 -0.369888 1.89467e-21)
(0.445312 0.10348 -5.61678e-22)
(0.449126 -0.00172644 2.79138e-22)
(4.6235 -0.394127 1.03753e-20)
(4.50653 -0.262054 2.30812e-19)
(0.204278 0.268895 -2.5466e-21)
(0.14418 -0.0774691 -4.62458e-22)
(0.0601329 -0.0321336 -2.7103e-22)
(0.498426 0.0387839 1.94208e-22)
(0.0411293 0.0620008 -3.50025e-24)
(0.149189 0.397574 -5.55144e-22)
(0.244734 0.441021 7.96217e-22)
(0.420341 0.435532 -6.16595e-23)
(0.0157635 0.0921757 3.81868e-22)
(0.0186616 0.0526631 -5.82049e-22)
(0.30564 0.481967 -1.05335e-21)
(0.264681 0.253159 7.98943e-22)
(0.0076641 0.241281 1.3763e-22)
(0.570018 0.495032 -9.52967e-22)
(4.02124 -0.377822 -5.22038e-20)
(0.478649 0.0155688 6.91804e-22)
(4.49439 -0.458585 8.45424e-21)
(0.0187952 0.136223 -1.71287e-22)
(4.43248 -0.4035 -1.59393e-21)
(4.05435 -0.368816 2.35288e-20)
(3.6214 -0.389521 -1.99567e-20)
(4.07369 -0.463689 -4.20544e-21)
(4.6769 -0.423575 -2.0372e-19)
(0.236533 -0.0624224 2.77098e-22)
(0.384123 0.008697 -1.00906e-21)
(0.100216 -0.0522999 -9.03075e-23)
(0.280611 0.405739 7.0664e-22)
(0.0684132 0.0335797 -1.0238e-23)
(0.489721 0.484026 4.48752e-22)
(0.0885855 0.114711 2.156e-23)
(0.126398 0.385445 -3.24719e-22)
(0.256002 0.362198 -8.58997e-21)
(4.2612 -0.172152 -1.93934e-20)
(0.133422 0.390902 -5.06245e-22)
(3.88261 -0.385337 5.87383e-20)
(0.307107 0.397277 -2.95794e-22)
(0.103949 0.367468 4.659e-22)
(3.92346 -0.503312 -3.46137e-20)
(3.42644 -0.411438 -6.24697e-20)
(0.557635 0.53872 4.19707e-21)
(0.0122572 0.18387 -6.8093e-22)
(0.107842 0.201652 -1.00395e-22)
(0.0234565 0.211096 8.21852e-23)
(0.331685 -0.00871035 2.41042e-22)
(0.209421 0.411848 -1.14958e-22)
(0.00541551 0.228279 9.29193e-22)
(0.347542 0.406563 -1.47794e-22)
(4.19815 -0.364069 -1.53063e-20)
(0.333731 0.225961 -1.61978e-21)
(4.44384 -0.351872 8.73096e-21)
(3.92405 -0.37228 8.16551e-20)
(4.32488 -0.420074 -7.66312e-22)
(4.1978 -0.443934 6.84806e-20)
(3.79245 -0.377411 -3.66405e-20)
(4.52279 -0.402602 -2.29816e-20)
(4.08802 -0.382331 -5.18893e-20)
(1.02246 1.14844 2.34687e-21)
(0.547894 0.646785 -7.11397e-21)
(0.237665 -0.00835923 2.37812e-22)
(0.183884 -0.0911747 -3.02058e-22)
(4.57711 -0.396061 3.21046e-20)
(0.280085 -0.0367228 -7.95168e-22)
(3.95069 -0.475636 -1.63495e-19)
(0.00916647 0.251556 -3.68653e-23)
(0.186553 0.0998879 -7.09773e-23)
(0.0773534 0.339118 -1.44917e-22)
(0.366978 0.122253 -4.85905e-22)
(0.4077 0.49495 8.38207e-22)
(4.64572 -0.390816 4.02402e-19)
(0.0715422 0.216916 1.56018e-22)
(4.33196 -0.356515 3.68256e-21)
(4.21147 -0.304083 -1.01208e-19)
(0.540885 0.595134 -5.80512e-22)
(0.177883 0.40573 6.73125e-23)
(0.0444628 0.28196 2.3232e-22)
(3.41315 -0.394624 8.02976e-20)
(0.0634207 0.314218 -4.39768e-22)
(0.154189 0.398687 8.32898e-23)
(0.336036 0.472908 -8.25304e-22)
(0.104151 0.0090132 1.51026e-24)
(0.329185 0.463634 3.28341e-21)
(0.112987 0.0745918 3.2692e-23)
(4.56484 -0.414133 1.80405e-19)
(0.173417 -0.118692 -2.21452e-23)
(0.198565 0.409535 1.25784e-22)
(0.148386 0.0543189 -9.19014e-23)
(0.535608 0.0962016 -4.87076e-21)
(3.7335 -0.456365 -1.2542e-19)
(0.638101 0.615744 6.24845e-21)
(0.618267 0.546368 -1.23736e-20)
(3.16209 -0.390628 -1.17372e-19)
(0.432791 0.0196041 -3.14214e-22)
(0.430825 -0.378068 1.16466e-21)
(0.454258 -0.366767 -1.94705e-23)
(0.507125 -0.371604 -7.43801e-22)
(0.544543 -0.375925 3.86495e-22)
(0.584405 -0.380081 -4.40115e-22)
(0.616781 -0.382902 -1.38311e-21)
(0.647921 -0.385132 3.26783e-22)
(0.674448 -0.386999 4.21698e-22)
(0.699869 -0.387426 4.44214e-22)
(0.4642 -0.36506 -7.81171e-22)
(0.487316 -0.358864 -6.63969e-23)
(0.537242 -0.362671 6.30352e-22)
(0.574586 -0.367864 -1.22343e-21)
(0.612278 -0.372123 1.08048e-21)
(0.64386 -0.375693 1.87732e-21)
(0.673236 -0.37837 -1.18919e-21)
(0.698642 -0.380464 1.27216e-21)
(0.721168 -0.381409 -6.15242e-22)
(0.498914 -0.348247 2.21668e-21)
(0.518788 -0.344997 6.13199e-22)
(0.566247 -0.34908 -1.38091e-21)
(0.602822 -0.355301 7.10846e-22)
(0.638763 -0.36012 -1.83796e-21)
(0.669384 -0.364414 -2.88211e-22)
(0.697284 -0.367713 -2.83142e-23)
(0.721399 -0.370332 -6.29525e-22)
(0.742538 -0.372046 -1.05303e-21)
(0.530779 -0.329358 -1.08455e-21)
(0.547778 -0.327174 5.28041e-22)
(0.593286 -0.331837 1.10347e-21)
(0.629094 -0.33897 5.65777e-23)
(0.663584 -0.344482 8.26336e-22)
(0.693259 -0.349466 2.49285e-21)
(0.719926 -0.353367 -1.51428e-21)
(0.743003 -0.356476 2.48311e-22)
(0.763304 -0.358645 6.06036e-22)
(0.559804 -0.307898 1.3326e-22)
(0.574185 -0.306008 -2.39383e-22)
(0.617835 -0.31143 7.69498e-23)
(0.65296 -0.319195 -5.41398e-22)
(0.686308 -0.325417 2.55119e-22)
(0.715209 -0.331031 -5.6772e-22)
(0.740981 -0.335505 2.59716e-22)
(0.763383 -0.339091 1.06497e-21)
(0.783334 -0.341476 2.42585e-22)
(0.585556 -0.283862 1.84069e-22)
(0.597661 -0.281903 -1.21611e-21)
(0.639561 -0.288299 1.19326e-22)
(0.674191 -0.296341 1.30463e-21)
(0.706684 -0.303175 -4.29369e-22)
(0.735015 -0.309311 -6.23065e-22)
(0.760181 -0.314323 -2.10149e-22)
(0.782192 -0.318402 -1.86836e-21)
(0.801845 -0.321436 1.0077e-21)
(0.606548 -0.258712 1.5454e-22)
(0.617955 -0.255554 9.14638e-22)
(0.658357 -0.262906 1.81068e-22)
(0.692721 -0.270704 -6.55708e-22)
(0.724586 -0.277933 1.41214e-22)
(0.752538 -0.284411 -2.6233e-22)
(0.777343 -0.289845 5.13101e-22)
(0.79916 -0.294329 -4.86294e-22)
(0.818727 -0.297845 -3.28172e-22)
(0.621505 -0.23235 -4.35544e-22)
(0.635587 -0.227144 8.55393e-22)
(0.674582 -0.235225 -1.80852e-22)
(0.708674 -0.242319 3.64536e-22)
(0.739994 -0.249711 -2.98732e-22)
(0.767702 -0.256344 9.09904e-22)
(0.792354 -0.262052 1.23841e-21)
(0.81418 -0.266875 -1.62755e-21)
(0.833962 -0.270316 4.83867e-22)
(0.631424 -0.201296 -7.19583e-23)
(0.651248 -0.19539 1.761e-22)
(0.688536 -0.20432 9.94081e-23)
(0.722077 -0.210835 -4.224e-22)
(0.752844 -0.218347 -1.23673e-22)
(0.780415 -0.225002 -3.6723e-22)
(0.805093 -0.230814 -2.03279e-22)
(0.827144 -0.235699 1.71042e-21)
(0.847088 -0.239575 -1.83561e-22)
(0.638489 -0.163681 1.71408e-22)
(0.664393 -0.159133 -7.18417e-22)
(0.699612 -0.169404 -3.72881e-22)
(0.732504 -0.176001 1.2515e-22)
(0.76288 -0.18373 -1.43432e-22)
(0.790519 -0.190301 6.06563e-22)
(0.815457 -0.195979 9.10959e-23)
(0.837919 -0.200625 1.16985e-21)
(0.858315 -0.204079 -6.24311e-23)
(0.643995 -0.12152 -1.46609e-22)
(0.673522 -0.119401 -3.01057e-23)
(0.706629 -0.131209 2.44797e-22)
(0.7393 -0.138299 4.3824e-22)
(0.769764 -0.146133 -1.35005e-22)
(0.797838 -0.152394 -1.41188e-22)
(0.823371 -0.157621 -3.85903e-22)
(0.846588 -0.161642 -1.39868e-21)
(0.867744 -0.164453 -2.17221e-22)
(0.648078 -0.0786234 2.91793e-22)
(0.677417 -0.079406 6.67366e-22)
(0.709056 -0.0918538 -5.0093e-22)
(0.742232 -0.0989326 2.83288e-22)
(0.77337 -0.106235 -5.20925e-23)
(0.802249 -0.111706 8.88412e-22)
(0.828643 -0.116067 8.7741e-23)
(0.852773 -0.119123 -7.19305e-22)
(0.874944 -0.121762 -5.1779e-22)
(0.648502 -0.0386532 7.95942e-23)
(0.675821 -0.0417482 -1.41361e-22)
(0.707658 -0.0530069 2.87897e-23)
(0.741824 -0.0589373 1.87959e-22)
(0.773968 -0.0646951 -1.26628e-22)
(0.803838 -0.0686728 -1.65318e-22)
(0.831199 -0.0715563 -3.04557e-22)
(0.856254 -0.0733109 5.64569e-22)
(0.879593 -0.0742216 -3.29296e-22)
(0.642898 -0.0018412 -1.16489e-22)
(0.670672 -0.00570027 -1.00852e-23)
(0.703644 -0.0146164 -1.04383e-22)
(0.73884 -0.0184536 3.00097e-22)
(0.771977 -0.0218226 -5.48273e-23)
(0.802804 -0.0236905 -3.19666e-23)
(0.831102 -0.0245784 -2.15719e-22)
(0.85708 -0.0245348 2.61211e-23)
(0.881065 -0.0232629 1.9815e-22)
(0.63201 0.0341041 3.96872e-22)
(0.6626 0.0302365 -4.77839e-23)
(0.697449 0.0242473 5.86484e-22)
(0.733625 0.0229405 -8.57716e-22)
(0.767578 0.0223708 9.66271e-23)
(0.799195 0.0229416 3.1262e-22)
(0.828314 0.0243261 2.1995e-22)
(0.855176 0.0265171 3.15516e-22)
(0.880047 0.029683 -1.10883e-21)
(0.615286 0.0714809 1.26981e-22)
(0.651498 0.0675708 -2.75302e-22)
(0.688896 0.0647101 -8.40127e-22)
(0.725997 0.065806 1.13225e-21)
(0.760585 0.0679464 3.85927e-22)
(0.792814 0.070933 -2.04348e-22)
(0.82259 0.0745967 -2.7054e-23)
(0.850107 0.0789599 8.47303e-22)
(0.875391 0.083765 -3.63359e-22)
(0.594705 0.111494 7.72085e-22)
(0.635974 0.107657 -6.76572e-22)
(0.676942 0.107461 8.1467e-22)
(0.715187 0.110375 -5.4926e-22)
(0.750437 0.114744 -5.89672e-22)
(0.78323 0.119871 2.34133e-21)
(0.81359 0.125651 -1.55035e-21)
(0.841683 0.132138 -6.2765e-22)
(0.867866 0.138429 1.50505e-22)
(0.573664 0.151884 -9.94901e-22)
(0.616104 0.149037 9.2956e-22)
(0.660557 0.151435 -4.32189e-22)
(0.700334 0.155838 6.76291e-22)
(0.73651 0.162039 1.55989e-22)
(0.770011 0.169064 -1.85835e-21)
(0.801012 0.176828 1.68648e-22)
(0.829663 0.1853 -8.83125e-22)
(0.856362 0.19389 -1.12602e-21)
(0.552952 0.189928 -1.80067e-22)
(0.593277 0.188778 -2.08202e-22)
(0.639942 0.194383 -4.60379e-22)
(0.681266 0.200596 -1.931e-21)
(0.718557 0.208619 4.81361e-22)
(0.752932 0.217461 8.05279e-22)
(0.784701 0.227085 9.32227e-22)
(0.814076 0.237321 1.16102e-21)
(0.841406 0.247954 -5.3133e-22)
(0.53166 0.225098 1.5903e-22)
(0.568528 0.225621 6.13961e-23)
(0.616074 0.234731 1.58642e-21)
(0.658449 0.243284 -1.33266e-22)
(0.696757 0.253345 7.8555e-22)
(0.732002 0.26411 -5.32287e-22)
(0.764543 0.275619 -3.78109e-21)
(0.794596 0.287671 -5.83719e-22)
(0.822535 0.300008 -6.70531e-23)
(0.509164 0.257872 3.52973e-22)
(0.542131 0.259522 -1.99137e-21)
(0.589731 0.271812 1.23172e-21)
(0.632497 0.283063 -1.51818e-21)
(0.671529 0.295364 1.14859e-21)
(0.707508 0.308204 -2.47953e-22)
(0.740779 0.321692 1.07629e-21)
(0.771565 0.335603 9.68129e-22)
(0.799947 0.350336 -3.1542e-22)
(0.485484 0.287628 7.19644e-22)
(0.51405 0.29029 1.88108e-21)
(0.561416 0.305205 -3.3091e-21)
(0.603923 0.319414 4.37924e-22)
(0.643276 0.334068 -3.08129e-21)
(0.679733 0.349082 8.99355e-22)
(0.713632 0.364573 3.48985e-22)
(0.745347 0.380287 -5.00467e-22)
(0.774026 0.398004 -2.59144e-22)
(0.460668 0.312377 -6.80196e-22)
(0.484663 0.317758 -1.57444e-21)
(0.531794 0.334912 1.75293e-21)
(0.573401 0.352317 1.87592e-21)
(0.612586 0.369322 2.09028e-21)
(0.649132 0.386495 -1.52616e-22)
(0.683383 0.403873 -6.77478e-22)
(0.715899 0.421444 2.02603e-21)
(0.745155 0.441462 -5.31886e-21)
(0.43418 0.331448 8.15716e-23)
(0.453963 0.34155 9.00071e-22)
(0.500233 0.360532 -4.84434e-22)
(0.540235 0.381039 9.08331e-22)
(0.578721 0.400249 -1.81278e-21)
(0.615021 0.419625 -5.30246e-22)
(0.649434 0.438861 2.83635e-21)
(0.683135 0.458403 -2.93097e-21)
(0.713757 0.483015 3.49394e-21)
(0.406147 0.346477 8.64263e-23)
(0.424612 0.365422 1.23682e-22)
(0.470098 0.387334 5.68421e-22)
(0.508536 0.409589 -1.04196e-21)
(0.545878 0.430152 2.71875e-22)
(0.580913 0.450679 -1.49942e-21)
(0.614537 0.470569 1.0662e-21)
(0.650111 0.489956 -9.07008e-22)
(0.68281 0.516369 -7.37342e-23)
(0.335566 0.294134 -2.80605e-22)
(0.328607 0.291945 -3.43296e-22)
(0.321287 0.289112 -1.07894e-21)
(0.313185 0.285828 1.52765e-21)
(0.304277 0.282039 -1.15856e-21)
(0.294535 0.277706 8.80149e-22)
(0.283949 0.272774 3.45537e-22)
(0.272526 0.26718 -9.26993e-23)
(0.260295 0.260851 -6.45984e-22)
(0.247306 0.253714 -2.7586e-22)
(0.233637 0.245695 3.04092e-22)
(0.219391 0.236717 -3.39302e-22)
(0.204696 0.226709 9.30334e-22)
(0.189698 0.215605 -2.34913e-21)
(0.174552 0.203344 4.0858e-21)
(0.159422 0.189886 -4.62142e-21)
(0.144477 0.175216 4.12147e-21)
(0.12987 0.159342 -1.8615e-21)
(0.115737 0.142322 -6.06709e-22)
(0.102187 0.124274 6.39213e-22)
(0.089264 0.105383 -2.20733e-22)
(0.0768519 0.0858583 4.8073e-22)
(0.0647803 0.066226 3.11303e-23)
(0.052917 0.0468668 -6.68631e-22)
(0.0425695 0.0275297 5.26779e-22)
(0.0359101 0.00777106 -2.82999e-22)
(0.0336599 -0.0129026 3.68994e-22)
(0.0360307 -0.0346291 2.92772e-22)
(0.0414132 -0.0576652 -3.54806e-22)
(0.0472984 -0.0819056 9.48053e-24)
(0.0533532 -0.106673 -3.16362e-22)
(0.0603597 -0.131418 2.88454e-22)
(0.0687327 -0.155892 5.46268e-22)
(0.0785273 -0.179793 -4.46149e-22)
(0.0896674 -0.202759 6.36365e-22)
(0.102041 -0.224576 -1.05695e-21)
(0.115475 -0.24504 8.46153e-23)
(0.129776 -0.263996 2.28148e-22)
(0.144757 -0.281338 -3.45786e-22)
(0.160244 -0.296996 7.73213e-22)
(0.176091 -0.310954 -4.40598e-22)
(0.192177 -0.323233 -1.86764e-21)
(0.208395 -0.333881 3.81127e-21)
(0.224656 -0.342983 -4.05497e-21)
(0.240882 -0.350657 3.50148e-21)
(0.256981 -0.357031 -2.05401e-21)
(0.272854 -0.362244 1.0465e-21)
(0.288397 -0.366454 -3.63158e-22)
(0.303487 -0.369807 3.30271e-22)
(0.318002 -0.372437 -3.58664e-22)
(0.331833 -0.374477 -4.92795e-22)
(0.344886 -0.376036 -1.34053e-22)
(0.357095 -0.377208 2.70142e-22)
(0.368421 -0.378073 6.41075e-22)
(0.378845 -0.378687 -9.56164e-22)
(0.388378 -0.379097 1.22682e-21)
(0.397048 -0.379339 -8.28992e-22)
(0.404893 -0.379425 -2.83825e-22)
(0.412022 -0.379425 -1.98736e-22)
(0.351627 0.260466 -1.40351e-23)
(0.345374 0.258119 1.09277e-23)
(0.33865 0.255645 -5.08343e-23)
(0.331337 0.252951 1.13706e-22)
(0.323389 0.250056 -5.05057e-24)
(0.31478 0.246907 -2.57891e-22)
(0.305514 0.243397 4.56959e-23)
(0.295597 0.239442 1.31254e-23)
(0.285014 0.234973 1.57712e-22)
(0.273769 0.2299 -5.00318e-23)
(0.261882 0.22413 -1.29958e-23)
(0.2494 0.21756 -1.1035e-22)
(0.236393 0.210085 1.79993e-22)
(0.222951 0.201609 -1.34483e-22)
(0.209189 0.192042 1.41235e-22)
(0.195236 0.18131 -7.34639e-25)
(0.18123 0.169364 -7.53439e-23)
(0.16731 0.156177 1.42565e-22)
(0.15361 0.141749 1.0958e-22)
(0.140249 0.126096 2.92171e-23)
(0.127334 0.109244 6.77955e-24)
(0.114977 0.0911827 -2.80554e-22)
(0.103445 0.0718185 2.37383e-22)
(0.0932471 0.0508151 -9.1264e-23)
(0.0850106 0.0280251 3.44856e-22)
(0.0792502 0.00368522 -1.42533e-22)
(0.0761535 -0.0216388 -1.58389e-23)
(0.0758969 -0.0472337 6.86066e-23)
(0.0785131 -0.0724449 1.36947e-23)
(0.08317 -0.0970736 -3.96422e-24)
(0.0892403 -0.121267 -5.68886e-23)
(0.0966808 -0.145055 2.02692e-23)
(0.105566 -0.168268 -2.40856e-23)
(0.115791 -0.19072 -4.8542e-23)
(0.127224 -0.212221 -4.36865e-23)
(0.139742 -0.232607 4.46813e-23)
(0.153198 -0.251738 8.76744e-23)
(0.167436 -0.269508 -1.94909e-22)
(0.182304 -0.285843 2.87393e-24)
(0.197654 -0.300694 -4.63498e-23)
(0.213352 -0.314036 1.8206e-23)
(0.229273 -0.32586 1.44224e-22)
(0.245299 -0.336177 -3.39711e-22)
(0.26131 -0.345015 -2.10702e-22)
(0.277184 -0.352421 3.89076e-22)
(0.292795 -0.358465 -3.33724e-22)
(0.308016 -0.363245 2.16663e-22)
(0.322721 -0.366877 -2.26923e-23)
(0.3368 -0.3695 -1.15801e-22)
(0.350159 -0.371262 2.045e-23)
(0.362729 -0.372315 2.22611e-22)
(0.374476 -0.372801 -5.22124e-23)
(0.385403 -0.372848 7.57168e-23)
(0.395522 -0.372576 -3.26155e-22)
(0.404859 -0.372081 4.87492e-23)
(0.413475 -0.371432 1.27561e-22)
(0.42143 -0.370675 -9.76942e-23)
(0.428794 -0.369829 2.61619e-23)
(0.435656 -0.368994 -1.89538e-23)
(0.408229 0.24737 -3.36002e-22)
(0.401907 0.245102 6.67274e-23)
(0.395125 0.242617 -2.91386e-22)
(0.387864 0.239901 -7.0227e-23)
(0.380093 0.236905 1.00865e-21)
(0.371789 0.233572 -3.15499e-22)
(0.362933 0.229849 -6.14828e-22)
(0.353505 0.22569 -4.71458e-24)
(0.343488 0.221038 3.69794e-22)
(0.332878 0.215827 -9.48682e-23)
(0.321687 0.209984 1.0052e-21)
(0.309941 0.203425 -1.19122e-21)
(0.297687 0.196063 1.07714e-21)
(0.284994 0.18781 -1.46648e-22)
(0.271948 0.17858 -9.48972e-22)
(0.258654 0.168295 2.87841e-22)
(0.245234 0.156885 1.12385e-21)
(0.231817 0.144293 -4.51558e-22)
(0.218543 0.130469 -1.07441e-22)
(0.205561 0.115371 2.07432e-23)
(0.193037 0.0989523 -3.03744e-22)
(0.181168 0.0811522 7.5016e-23)
(0.170227 0.0619025 -7.58124e-22)
(0.160578 0.0411699 9.11316e-22)
(0.152705 0.0190229 -3.5236e-22)
(0.147118 -0.00431901 4.28342e-24)
(0.144142 -0.0285127 4.92418e-23)
(0.143869 -0.0531498 -2.24858e-22)
(0.146106 -0.0777614 1.4045e-22)
(0.150414 -0.101995 7.49653e-23)
(0.156406 -0.125718 1.72226e-22)
(0.163868 -0.148859 -1.7625e-22)
(0.172674 -0.171298 7.91211e-23)
(0.182706 -0.192902 1.11083e-22)
(0.193841 -0.213545 -3.64775e-22)
(0.205957 -0.233115 1.02209e-21)
(0.218925 -0.251508 -6.65183e-22)
(0.23261 -0.268641 -1.50433e-22)
(0.246879 -0.28445 -1.61224e-22)
(0.261603 -0.298893 -5.30008e-23)
(0.276655 -0.311943 -2.58684e-22)
(0.291909 -0.323592 -4.32776e-22)
(0.307241 -0.333853 1.06077e-21)
(0.322525 -0.342755 4.89338e-22)
(0.337634 -0.350348 -1.00752e-21)
(0.352443 -0.356705 -3.19162e-22)
(0.366834 -0.361918 1.03168e-21)
(0.380702 -0.366092 -1.18889e-21)
(0.393958 -0.369349 8.32293e-22)
(0.406541 -0.371814 -3.37258e-23)
(0.4184 -0.373608 3.25735e-22)
(0.429536 -0.374823 5.5728e-23)
(0.439958 -0.375547 -5.46495e-22)
(0.449679 -0.375884 -2.66976e-22)
(0.458737 -0.375914 8.5193e-22)
(0.467171 -0.375701 -2.20468e-23)
(0.475021 -0.375295 -2.44278e-22)
(0.482333 -0.374743 7.39847e-23)
(0.489153 -0.374079 -2.77726e-22)
(0.447062 0.240017 -7.10793e-23)
(0.440751 0.238197 3.59478e-22)
(0.434014 0.236174 -1.72729e-22)
(0.426788 0.233875 1.31503e-22)
(0.419055 0.231271 -1.44973e-22)
(0.410795 0.228323 -5.55477e-24)
(0.401993 0.224986 -9.52658e-23)
(0.392638 0.221207 -2.46958e-22)
(0.382723 0.216926 1.64607e-22)
(0.37225 0.212075 2.15439e-22)
(0.361232 0.206577 1.62042e-22)
(0.349695 0.200348 -6.31864e-22)
(0.337681 0.193298 5.76473e-22)
(0.325248 0.185335 -1.29425e-22)
(0.312476 0.176367 7.70534e-23)
(0.299463 0.166305 -3.53668e-22)
(0.286325 0.155066 3.49812e-22)
(0.2732 0.142575 -1.49021e-22)
(0.260245 0.128769 -2.26579e-22)
(0.247636 0.11359 1.17553e-22)
(0.235573 0.096992 -6.12675e-23)
(0.224287 0.0789411 -3.85128e-22)
(0.214051 0.0594252 2.44187e-22)
(0.205177 0.0384768 2.59925e-22)
(0.197991 0.0162073 -2.10584e-22)
(0.192797 -0.00716742 2.43505e-23)
(0.189801 -0.0313365 2.41117e-22)
(0.189096 -0.0559366 -2.83128e-22)
(0.190642 -0.0806002 9.37956e-23)
(0.194256 -0.105023 -2.53949e-23)
(0.199719 -0.128998 1.19159e-22)
(0.206838 -0.152373 -2.80032e-22)
(0.215447 -0.175014 2.12153e-22)
(0.225383 -0.196794 -6.45569e-24)
(0.236491 -0.217596 -2.67913e-22)
(0.24862 -0.237316 1.02852e-22)
(0.261617 -0.25586 2.96579e-22)
(0.27533 -0.273146 -1.33705e-22)
(0.289613 -0.289112 -1.18706e-22)
(0.304322 -0.30371 2.14947e-22)
(0.319315 -0.316913 -6.2986e-23)
(0.334454 -0.32871 -7.86744e-23)
(0.349604 -0.33911 4.71458e-22)
(0.364633 -0.348144 -4.36083e-22)
(0.379419 -0.35586 1.8594e-22)
(0.393848 -0.362329 -2.92765e-23)
(0.407819 -0.36764 5.74655e-22)
(0.42125 -0.371893 -5.29565e-22)
(0.434079 -0.375199 2.21172e-22)
(0.446263 -0.377669 1.80856e-22)
(0.45773 -0.379465 1.90618e-22)
(0.46843 -0.380723 -2.54173e-22)
(0.478459 -0.38146 -5.62211e-23)
(0.487912 -0.381717 -7.78853e-23)
(0.496764 -0.381605 -1.25096e-22)
(0.505012 -0.381214 8.94246e-23)
(0.512695 -0.380597 -1.6723e-22)
(0.519856 -0.379798 3.40897e-22)
(0.526557 -0.37888 -9.58225e-23)
(0.49672 0.235891 -5.35182e-22)
(0.490484 0.233888 5.48125e-23)
(0.483754 0.231681 5.22696e-22)
(0.476508 0.229227 -3.75335e-22)
(0.468726 0.226486 9.85169e-23)
(0.460397 0.223413 3.29334e-22)
(0.451515 0.21996 -4.18323e-22)
(0.442075 0.216074 1.57545e-22)
(0.432081 0.211692 5.03862e-22)
(0.421544 0.206748 -1.73006e-22)
(0.410484 0.201168 -5.19761e-22)
(0.398932 0.194872 -1.72132e-22)
(0.386933 0.187775 4.44678e-22)
(0.374548 0.17979 3.99154e-22)