/*--------------------------------*- C++ -*----------------------------------*\
  =========                 |
  \\      /  F ield         | OpenFOAM: The Open Source CFD Toolbox
   \\    /   O peration     | Website:  https://openfoam.org
    \\  /    A nd           | Version:  10
     \\/     M anipulation  |
\*---------------------------------------------------------------------------*/
FoamFile
{
    format      ascii;
    class       volScalarField;
    location    "250";
    object      epsilon;
}
// * * * * * * * * * * * * * * * * * * * * * * * * * * * * * * * * * * * * * //

dimensions      [0 2 -3 0 0 0 0];

internalField   nonuniform List<scalar> 
23845
(
0.0166725
0.0350511
0.0534104
0.013898
0.035387
0.00121921
0.0483914
0.0101451
0.00240135
0.0126785
0.00879113
0.000904881
0.00314327
0.00189013
0.0890704
0.00793833
0.00288439
0.00261644
0.00411344
0.00120254
0.0180966
0.00856967
0.0188274
0.00240353
0.0106328
0.00311932
0.0328183
0.00131592
0.00904232
0.00128678
0.0157358
0.022595
0.112483
0.00268534
0.000833006
0.000915142
0.0176713
0.000860624
0.0011157
0.00188555
0.0048895
0.00195501
0.00317137
0.0020481
0.0037152
0.00270929
0.0277005
0.00678137
0.0220823
0.0090101
0.0144065
0.04395
0.0267007
0.0015689
0.0215158
0.00323838
0.0445364
0.0110892
0.02007
0.035576
0.00907688
0.00222343
0.00688594
0.0114953
0.00267517
0.00275053
0.0383113
0.00421001
0.00390776
0.00437648
0.00954133
0.0402522
0.00296209
0.0749309
0.00302163
0.0878449
0.000982325
0.00103897
0.0113568
0.00381816
0.0247647
0.062761
0.0423039
0.0109333
0.0622599
0.000817135
0.0569327
0.0281107
0.00270324
0.00410772
0.013704
0.00580423
0.00965509
0.000991644
0.0114814
0.0119522
0.00257811
0.00715299
0.00303915
0.0299208
0.00303106
0.0417485
0.0248429
0.0113486
0.0115436
0.0113553
0.00134926
0.00325274
0.0360038
0.00207109
0.007148
0.000900245
0.080969
0.00899104
0.000958472
0.013191
0.00296225
0.00949123
0.00927381
0.0113318
0.00101523
0.016641
0.00498
0.0202057
0.0452438
0.00293416
0.00911282
0.00887368
0.0396072
0.0309595
0.0580286
0.0176514
0.0135209
0.00161777
0.00338839
0.0192531
0.00970222
0.000953565
0.0309666
0.00111133
0.0102298
0.00182162
0.000843941
0.00216395
0.00561095
0.00191043
0.010603
0.0738811
0.0178263
0.0049429
0.109542
0.00274695
0.0470071
0.00218841
0.0762654
0.00593941
0.030616
0.000897596
0.076801
0.0106443
0.00541452
0.0837981
0.011791
0.00257192
0.00419074
0.00475624
0.00141823
0.0145857
0.00130817
0.00166362
0.00134199
0.0150318
0.00246728
0.0168578
0.00235891
0.0111755
0.00628123
0.00782844
0.0032723
0.000906388
0.0289823
0.0267478
0.072157
0.00645626
0.00634275
0.0036389
0.0022183
0.0107283
0.00850435
0.0020224
0.0100246
0.00180842
0.00160231
0.00118661
0.0060264
0.00202508
0.0106152
0.00869581
0.0197173
0.00712748
0.00463411
0.00193517
0.0154029
0.0174174
0.0103447
0.0115174
0.0519661
0.00121377
0.0227167
0.00326265
0.00357847
0.0128554
0.00629532
0.00150826
0.0183529
0.0203638
0.0169774
0.00235025
0.0136247
0.0533968
0.0032484
0.0814062
0.0101564
0.0058357
0.00189993
0.10232
0.0107798
0.00179466
0.000984445
0.00543158
0.0010206
0.0198254
0.000881323
0.00390684
0.0339835
0.00924593
0.00276465
0.0141214
0.00233993
0.0168564
0.0253767
0.00946956
0.0110121
0.0312306
0.0152749
0.00714475
0.00140576
0.00399824
0.0113071
0.0839165
0.00219191
0.000802591
0.0138979
0.00366508
0.0650193
0.0128631
0.0139049
0.0121411
0.00102201
0.00228392
0.0318816
0.000879085
0.00920523
0.00650117
0.0060859
0.00222733
0.0111594
0.0247852
0.0205653
0.013263
0.000972158
0.0135946
0.0156878
0.00145825
0.00708387
0.00165424
0.0121093
0.00172804
0.0194325
0.0201358
0.0119834
0.00101257
0.0132018
0.00507781
0.000805216
0.0123883
0.0177872
0.00209707
0.0111613
0.0794801
0.0111172
0.0176829
0.010883
0.0117847
0.0111517
0.000838447
0.0153703
0.00152019
0.000796048
0.0101067
0.0815983
0.0962859
0.00916152
0.0132043
0.00128169
0.0140108
0.0127414
0.0152322
0.00301553
0.00905369
0.0161258
0.0466465
0.00334673
0.00125899
0.0323525
0.00969148
0.0140656
0.0151293
0.0124915
0.00329825
0.0126698
0.0136985
0.0265508
0.00145803
0.0832028
0.00100788
0.0117715
0.029714
0.0145928
0.00317695
0.0590393
0.00461218
0.0136538
0.000847045
0.0151001
0.0150707
0.0206977
0.00282866
0.00187973
0.0112978
0.016894
0.0214865
0.00784302
0.00372194
0.0038212
0.0214249
0.000821147
0.0120922
0.0115681
0.0978699
0.019866
0.0566867
0.0083731
0.0131148
0.0268304
0.00162814
0.00153847
0.00258187
0.080379
0.0109211
0.0271462
0.00269189
0.0100333
0.00471031
0.00862262
0.00144642
0.0199191
0.00106081
0.00965476
0.00316541
0.00178494
0.0136235
0.0245916
0.000907212
0.000938669
0.0129893
0.0303128
0.0166977
0.00169647
0.0138727
0.0727321
0.000899366
0.0174302
0.00387362
0.00381428
0.000954067
0.00109501
0.0112131
0.00428713
0.0111624
0.0371102
0.00178633
0.0159592
0.0141289
0.0167706
0.0104767
0.00611917
0.00342047
0.00442762
0.000861312
0.025164
0.0180633
0.0115749
0.0195858
0.0428684
0.0777375
0.00122781
0.0187996
0.00997738
0.0108492
0.0975458
0.00402396
0.0584089
0.0217864
0.031164
0.0347679
0.0220803
0.00631145
0.000914028
0.0135979
0.0939308
0.00147687
0.00222011
0.0114104
0.00963058
0.0256991
0.0819168
0.0176923
0.0212024
0.0259206
0.00191894
0.0028404
0.0231269
0.00275264
0.00207714
0.003198
0.000893901
0.0035711
0.00923534
0.020228
0.0915643
0.0670363
0.0103241
0.0377318
0.01782
0.0157777
0.0013465
0.0201043
0.000868394
0.0149489
0.0112039
0.00263499
0.0536567
0.000829991
0.00375213
0.0204777
0.0360518
0.0190798
0.0112654
0.0017021
0.0256076
0.0125956
0.0100439
0.0334126
0.000899079
0.00108699
0.00112531
0.0190123
0.00362498
0.0997601
0.00127436
0.00129265
0.0162957
0.00969725
0.0131288
0.0304679
0.00274142
0.0156936
0.00152814
0.0045755
0.0237146
0.0201458
0.0149697
0.0088705
0.00446603
0.0723198
0.000927564
0.000849707
0.0552135
0.0185698
0.00310684
0.0797899
0.0115887
0.021324
0.010249
0.0251133
0.00313765
0.0320218
0.00288242
0.000826442
0.052417
0.0107466
0.025402
0.0235972
0.0109582
0.0113567
0.00593684
0.00396707
0.00114186
0.021138
0.0146942
0.0358818
0.0179458
0.0153662
0.00138047
0.0035681
0.0188145
0.10821
0.0854771
0.00189885
0.024345
0.00179694
0.00306644
0.0182557
0.00351087
0.0487307
0.0690681
0.0116736
0.0174833
0.010071
0.00950858
0.106338
0.0234892
0.0214505
0.00403713
0.00403054
0.00155169
0.0166581
0.0243552
0.0117209
0.058616
0.00182045
0.0184685
0.0172231
0.00521623
0.0158147
0.00947368
0.00299426
0.00144491
0.00258042
0.00219668
0.000810317
0.0202219
0.00228148
0.0105769
0.0434158
0.00158832
0.0316194
0.000834084
0.00101475
0.0114079
0.0115988
0.0389311
0.00128799
0.00174272
0.0178081
0.011072
0.00284846
0.00869612
0.00371839
0.00376359
0.0491525
0.00370942
0.00107495
0.00777519
0.0273254
0.0168137
0.0817335
0.011933
0.0259173
0.00379341
0.000939424
0.00532946
0.0656043
0.0184201
0.00144636
0.00309919
0.0031684
0.0124602
0.0030275
0.020949
0.104789
0.0221285
0.00585553
0.0108806
0.00152953
0.00375612
0.00176527
0.00250635
0.000974296
0.0412006
0.00164165
0.0230186
0.0827835
0.0171995
0.0126261
0.0124751
0.0246429
0.0546096
0.00567238
0.0238626
0.028689
0.0444201
0.0268239
0.0236626
0.0235851
0.0191211
0.0311418
0.00138726
0.00170156
0.0240663
0.00985763
0.0248804
0.00524998
0.0381615
0.00432564
0.00479358
0.00212208
0.00432389
0.00729557
0.00309104
0.00252981
0.023528
0.00129161
0.000857085
0.0866231
0.0263464
0.00810053
0.00381604
0.0060045
0.0372999
0.00402662
0.00114988
0.00384084
0.0147476
0.0127808
0.0167246
0.00361273
0.0117903
0.0528593
0.000934493
0.000800282
0.0188765
0.0118748
0.0101939
0.11936
0.0370521
0.0100379
0.0129472
0.00849499
0.00415121
0.00430936
0.0034083
0.0360213
0.00300441
0.00367192
0.00429145
0.0289223
0.0168101
0.009917
0.00703018
0.00502609
0.00638588
0.00581671
0.00464821
0.0144288
0.00403394
0.0174926
0.00581569
0.00352042
0.0077286
0.00324951
0.0020714
0.00290958
0.00341039
0.014846
0.00309613
0.00248811
0.0135947
0.0110598
0.00219417
0.00209823
0.00534895
0.00660887
0.00810386
0.0106329
0.0131389
0.00431122
0.0160232
0.00375768
0.00693561
0.00303912
0.00538713
0.00276145
0.00248683
0.00272402
0.00233927
0.00198515
0.00206653
0.00382036
0.0026732
0.0180757
0.00258419
0.00220236
0.00280013
0.00188348
0.00129201
0.00548383
0.00179295
0.00683482
0.00838231
0.00379604
0.00165701
0.00258106
0.00101162
0.00663991
0.0054217
0.0198574
0.00260854
0.00576956
0.00151525
0.00240104
0.00110854
0.00239439
0.0126293
0.00279284
0.0219242
0.00175961
0.00198484
0.00174468
0.00343962
0.00144833
0.00440005
0.00963348
0.0030717
0.00161379
0.0178937
0.00138638
0.00174659
0.00130328
0.0662195
0.00206471
0.00389124
0.0137432
0.00274414
0.01711
0.00735892
0.00626363
0.0117669
0.00951645
0.0156915
0.00204143
0.00403423
0.00563577
0.00829378
0.00349969
0.00548098
0.00259626
0.0384737
0.00231922
0.00125837
0.0123792
0.0102014
0.0136611
0.0178033
0.00507968
0.00147658
0.0299191
0.00695037
0.00305328
0.00196205
0.00266003
0.0151928
0.00164531
0.00510771
0.00136079
0.00329376
0.00202798
0.00144766
0.00130123
0.00180254
0.00234711
0.00263854
0.00176783
0.00149174
0.00215113
0.0359749
0.00361509
0.00158114
0.00253613
0.00218011
0.00237722
0.0172651
0.00545483
0.00779168
0.00420408
0.00214762
0.00161587
0.00249196
0.00181172
0.0282133
0.00699676
0.0110416
0.00375065
0.00127063
0.00368544
0.00952624
0.00572592
0.00536635
0.0061688
0.00415425
0.00449267
0.00615189
0.00435656
0.00470913
0.0037214
0.00475308
0.00391992
0.00413922
0.00402562
0.00373519
0.00368358
0.00480453
0.00484517
0.0042731
0.00460185
0.00680067
0.00177733
0.00184767
0.0362667
0.0143313
0.00370306
0.00243829
0.00173455
0.0081525
0.00757652
0.00834829
0.00616256
0.00325218
0.00514696
0.00529414
0.00610546
0.00701641
0.00287372
0.00149175
0.00214682
0.00275236
0.00480247
0.000946898
0.0751998
0.000832851
0.00793374
0.00245676
0.0185552
0.00117941
0.00257255
0.00588886
0.00514173
0.00912713
0.00755683
0.00531034
0.0102868
0.00438488
0.00465266
0.00408348
0.00393607
0.0039122
0.00386111
0.00337086
0.00159587
0.00122897
0.00640684
0.00157994
0.00586823
0.00714461
0.00928512
0.00539131
0.00965841
0.00522726
0.00395194
0.00601703
0.00383942
0.00786462
0.00470451
0.00388243
0.0109989
0.00441844
0.00409421
0.00618916
0.00167702
0.00302618
0.0180267
0.00385599
0.00198215
0.0033626
0.00193898
0.00250468
0.00122108
0.00548526
0.0315582
0.000813188
0.00351863
0.00544994
0.00631941
0.0252468
0.00785819
0.00155899
0.00546171
0.00248085
0.0019112
0.098112
0.0159165
0.00191679
0.00167059
0.00177255
0.0233573
0.0019201
0.0972536
0.00163186
0.00398871
0.00431957
0.00475183
0.00188382
0.00144618
0.00268273
0.027767
0.00131044
0.0141997
0.00560968
0.0148024
0.00159471
0.00523502
0.00409277
0.00521125
0.00587287
0.00383924
0.00601655
0.00296759
0.0073424
0.00892524
0.0113477
0.00265509
0.00594292
0.00821118
0.0044706
0.011613
0.0079012
0.00674846
0.00950901
0.00119891
0.00234444
0.00334653
0.00204705
0.00100443
0.00186568
0.00505178
0.00182882
0.00115974
0.00543052
0.00526824
0.00509246
0.00258294
0.0238344
0.00113334
0.00302543
0.00167797
0.00165786
0.00366154
0.00309921
0.0075073
0.0245433
0.030462
0.00220207
0.00156032
0.0100974
0.0134819
0.0011027
0.00890705
0.00418604
0.00374454
0.00541922
0.00850744
0.00420241
0.00773299
0.0120677
0.0079246
0.0103097
0.0125138
0.0117978
0.00300692
0.00303431
0.00280201
0.00144882
0.00510312
0.00630786
0.0028641
0.02358
0.00200084
0.0955691
0.0026656
0.00157941
0.00897212
0.00107433
0.00410914
0.00081032
0.00394075
0.00158588
0.00129017
0.00164467
0.00243753
0.0151395
0.00969081
0.00119127
0.00390271
0.00398248
0.0246658
0.0224066
0.024516
0.00907407
0.00123332
0.00239959
0.00159333
0.00166208
0.00336487
0.00151355
0.0288014
0.0209442
0.00721665
0.00987854
0.00820712
0.0110576
0.0125738
0.0132228
0.00141098
0.0201375
0.00665655
0.00809164
0.011285
0.00557918
0.008661
0.00312143
0.00708279
0.00171248
0.00572945
0.00379295
0.00188428
0.00318845
0.00274766
0.00239749
0.00155571
0.00185206
0.00439876
0.0170146
0.0172322
0.00118953
0.0112654
0.00121802
0.00271169
0.00238466
0.000956449
0.00464399
0.00225715
0.00229081
0.00175349
0.00378378
0.0024159
0.0249702
0.00341958
0.00109029
0.0107113
0.00245641
0.00330717
0.00461705
0.0162686
0.00421007
0.0104875
0.0476837
0.00219466
0.00527937
0.00613336
0.0100363
0.00320891
0.00113425
0.00805868
0.00545038
0.00658626
0.00532106
0.00405721
0.00350802
0.0308809
0.00300115
0.00769143
0.00133741
0.00228049
0.0136066
0.00369372
0.00293061
0.0464409
0.00196273
0.00359131
0.00354814
0.0017531
0.00108797
0.00137701
0.00118372
0.00183087
0.0193216
0.00163683
0.00148551
0.0221869
0.00104242
0.00113321
0.00115494
0.0425937
0.00265312
0.0016017
0.0208892
0.00340062
0.00297798
0.00122582
0.00264572
0.00427046
0.0177016
0.00339863
0.0014293
0.00487637
0.00971646
0.0208991
0.00763809
0.00536603
0.00169591
0.00230495
0.00166179
0.00185694
0.00127075
0.018039
0.0024051
0.00150184
0.00108927
0.00335711
0.00256732
0.0266169
0.0114865
0.00138369
0.00209452
0.00160646
0.0239229
0.00274342
0.00395225
0.00912554
0.00125698
0.0120543
0.00118631
0.00116664
0.00102652
0.00424176
0.00168104
0.00382786
0.00729884
0.0012761
0.00952035
0.00300224
0.00246027
0.0057312
0.0016837
0.00439309
0.00506058
0.0041598
0.00658477
0.00309784
0.0011242
0.00351849
0.00431522
0.00437797
0.00207008
0.00379943
0.00523729
0.00742948
0.00370977
0.00408956
0.00854859
0.00386139
0.00485499
0.010436
0.00371063
0.00465775
0.0134659
0.00454548
0.00420962
0.0117572
0.0209009
0.0294337
0.00218537
0.00201461
0.0104125
0.00115387
0.00089084
0.0282103
0.00846734
0.016183
0.00278267
0.0114821
0.00198571
0.00229654
0.00721541
0.00856121
0.00145578
0.00704013
0.0177281
0.03324
0.00151335
0.00144862
0.00108755
0.000867906
0.00101382
0.00169159
0.00133207
0.0978315
0.00310225
0.00153536
0.0159884
0.00374202
0.010724
0.00111236
0.0174458
0.00294353
0.00326917
0.0355928
0.00304355
0.00341627
0.000988429
0.00222413
0.0546287
0.000988923
0.0213021
0.00530472
0.0113308
0.0157777
0.0120313
0.0190081
0.0018952
0.00245396
0.0264528
0.0019189
0.0019278
0.00214547
0.0181069
0.0011847
0.001842
0.00336333
0.0285993
0.0042482
0.00321428
0.00203684
0.0010904
0.0153966
0.00359116
0.00406696
0.0196191
0.000938576
0.0129016
0.00232187
0.010928
0.000965004
0.0246034
0.0028423
0.00305732
0.00124945
0.00403489
0.00511801
0.00306325
0.00685565
0.00877343
0.00356946
0.00313887
0.000969916
0.00815413
0.00765226
0.00138759
0.00322346
0.00250989
0.00359541
0.0047526
0.00476887
0.00217849
0.00484843
0.00481922
0.0151899
0.00339151
0.0316018
0.00153686
0.00496085
0.00117762
0.0023071
0.06222
0.0160554
0.0089997
0.00150341
0.0125156
0.00245518
0.00261077
0.0179149
0.00262784
0.0433667
0.00934368
0.027883
0.00450141
0.00135337
0.0985948
0.00428057
0.00412347
0.00376261
0.0150139
0.0416461
0.00106563
0.0019277
0.113282
0.033149
0.00178127
0.0237473
0.025359
0.00241149
0.0336991
0.00166555
0.018508
0.00227235
0.00822419
0.00246867
0.0119466
0.0254984
0.000811692
0.0827546
0.0185816
0.00186989
0.0112582
0.00225838
0.00872953
0.0128039
0.0110992
0.00133916
0.0105094
0.0204117
0.00258964
0.0210345
0.00236278
0.00135738
0.00388602
0.0045575
0.0140081
0.0010257
0.00231649
0.023999
0.00364647
0.00178845
0.00242729
0.00208228
0.00500029
0.00371004
0.014083
0.0362281
0.0202104
0.00105074
0.00398448
0.00125731
0.00332078
0.0044387
0.00189201
0.0099774
0.00260809
0.0161205
0.0152514
0.00184519
0.00158502
0.00466662
0.00958205
0.0189806
0.0410474
0.00720174
0.00217367
0.00495564
0.00176095
0.00119537
0.00208484
0.00380855
0.00090796
0.00154739
0.0128536
0.112873
0.00295762
0.00275835
0.0034647
0.0278009
0.00175768
0.00458504
0.00273905
0.00367947
0.00176552
0.00395192
0.0115068
0.0107886
0.00514034
0.00100965
0.00505116
0.0627893
0.0110814
0.00129426
0.00385373
0.00983954
0.00500475
0.0024318
0.00105555
0.00240501
0.00493299
0.00454552
0.010916
0.00240946
0.0136586
0.00149947
0.000957248
0.0315129
0.00390732
0.024517
0.00419917
0.00624994
0.00735999
0.00507792
0.00184415
0.0124579
0.00109532
0.00233545
0.00222421
0.00344733
0.0111501
0.00472256
0.00396434
0.00500133
0.0101431
0.0111899
0.00739868
0.00229648
0.044863
0.000990838
0.000960559
0.0124249
0.0255047
0.00970061
0.0477822
0.00434475
0.00114572
0.00903536
0.00159512
0.0298499
0.0150886
0.00101395
0.00645355
0.0351336
0.00331827
0.0397864
0.00691067
0.015976
0.00333882
0.0192461
0.0246104
0.0017887
0.00398513
0.0423571
0.00194554
0.00187641
0.0153834
0.000910792
0.00564403
0.027029
0.0101705
0.0828123
0.0031855
0.00185045
0.00142881
0.055583
0.00207269
0.00454777
0.00426668
0.0145108
0.00156297
0.00338587
0.00188092
0.0127168
0.0082617
0.000932456
0.003939
0.000846064
0.000969901
0.0026605
0.0562432
0.00981525
0.00091953
0.00105383
0.0157592
0.0147578
0.00409296
0.00658445
0.000915532
0.000856383
0.0325014
0.00212996
0.0109426
0.000811684
0.00689323
0.0105655
0.112316
0.012125
0.0623906
0.0428182
0.00170683
0.0228112
0.00114697
0.00153899
0.00197801
0.0237794
0.0010302
0.0138796
0.0230507
0.00152418
0.00140803
0.0159424
0.0359794
0.00865465
0.0498756
0.022819
0.0241486
0.000955773
0.0262818
0.0194587
0.000870967
0.0197863
0.000957778
0.000932772
0.0415827
0.00895213
0.00933409
0.0420038
0.0315231
0.0037815
0.00852937
0.00223483
0.0134217
0.000930389
0.0266543
0.0207504
0.00240475
0.0314745
0.00105538
0.0023717
0.00112778
0.0091565
0.0151992
0.0686202
0.0339278
0.00134586
0.0311792
0.00120857
0.00147241
0.000794819
0.0108532
0.0102513
0.00108252
0.00361589
0.0403936
0.0145649
0.00665674
0.00136611
0.0110317
0.00179403
0.00133599
0.00316316
0.0036122
0.00260641
0.00234423
0.000875325
0.0826375
0.00163164
0.00257758
0.000954739
0.00653398
0.0120384
0.0258142
0.00327999
0.0115488
0.0129777
0.00791457
0.00145379
0.0334475
0.00393242
0.0190103
0.0127725
0.0109351
0.00280906
0.00128578
0.0337354
0.024268
0.00180596
0.00138426
0.029913
0.0370238
0.0219438
0.00547457
0.0218737
0.00147754
0.0110887
0.00261473
0.0114228
0.000897936
0.00140367
0.00237437
0.00473594
0.00951498
0.000993861
0.0118143
0.0131768
0.00471282
0.00563261
0.012608
0.0228913
0.0255874
0.00137391
0.0223078
0.0193499
0.0223143
0.00379712
0.0159325
0.0126689
0.0123102
0.033879
0.00239188
0.00118589
0.0103791
0.0890874
0.00637153
0.0319906
0.00227304
0.00271987
0.00367568
0.00125121
0.0120845
0.00199421
0.000931305
0.0251722
0.00875043
0.0410613
0.0327996
0.0936345
0.0479287
0.0387993
0.0197404
0.0141649
0.0237005
0.00447631
0.0251988
0.00304695
0.0192963
0.000981068
0.0619993
0.00932019
0.00210515
0.00386892
0.00437989
0.00267556
0.00208982
0.00111417
0.004633
0.00119977
0.02265
0.0325347
0.00318892
0.0214373
0.0161801
0.0162923
0.0236995
0.123128
0.0107308
0.00992616
0.0385753
0.00921493
0.0105527
0.00304763
0.0618033
0.00383776
0.014305
0.00937803
0.00493488
0.0307875
0.0178687
0.002636
0.0114444
0.00125549
0.0452837
0.0154166
0.00667748
0.0697091
0.00194687
0.0152219
0.00459611
0.00215483
0.047558
0.0155178
0.00474089
0.00334433
0.00367582
0.00479203
0.00143806
0.0787319
0.0046778
0.00424132
0.0374499
0.000908971
0.00971479
0.00612043
0.00110409
0.00899526
0.062589
0.0277392
0.0223219
0.012771
0.0494741
0.00129694
0.01622
0.000853338
0.001114
0.0126708
0.00203286
0.0467137
0.0445489
0.0480565
0.0153649
0.00649856
0.0294849
0.00344996
0.00276178
0.00258252
0.0029098
0.013657
0.00202884
0.00276763
0.00458489
0.100656
0.000854823
0.0594849
0.0377682
0.00409197
0.00926618
0.032779
0.0224986
0.00081289
0.125165
0.00415561
0.00127967
0.000851602
0.1125
0.00126356
0.0015921
0.00139314
0.0152648
0.00201336
0.0112064
0.00288663
0.0034809
0.00616596
0.00126135
0.0271102
0.00234098
0.00403863
0.0294055
0.00199621
0.00331041
0.0032357
0.0307531
0.00748169
0.00179317
0.0214796
0.0337513
0.0447265
0.00175754
0.00138812
0.0563946
0.0350525
0.0576545
0.0303883
0.0587801
0.0485599
0.00184318
0.023279
0.0339867
0.00411479
0.0116534
0.00212175
0.00960388
0.0257234
0.00930751
0.00815187
0.0435259
0.016572
0.0025005
0.000939475
0.000840866
0.0125241
0.011141
0.0157909
0.0202317
0.0323235
0.00408932
0.00100584
0.0460593
0.100969
0.0113075
0.00564722
0.0136376
0.00140406
0.0106653
0.0268879
0.0118301
0.010049
0.00954655
0.0142247
0.00237566
0.0734656
0.0124134
0.0612471
0.0380588
0.0102424
0.00617426
0.0109611
0.0328458
0.00469129
0.0140632
0.0228707
0.00396714
0.0116899
0.00491695
0.0215629
0.012662
0.0288773
0.0466818
0.0445252
0.00566451
0.0436245
0.0946231
0.00339866
0.0452576
0.00377807
0.00321906
0.0216676
0.00122916
0.00133966
0.0212319
0.00127766
0.00273798
0.00096273
0.00316332
0.0265789
0.000813445
0.0174376
0.0104486
0.0276254
0.00116042
0.00587607
0.00380114
0.0127053
0.00215695
0.0803804
0.0541166
0.0105771
0.0307122
0.0143688
0.0129959
0.0195872
0.00337607
0.055659
0.0662457
0.026915
0.00221434
0.000792965
0.00155873
0.00866321
0.0258714
0.00242584
0.00105305
0.00249013
0.0136218
0.00136733
0.00653744
0.00521168
0.0043912
0.0159205
0.00531462
0.00433371
0.003525
0.0322862
0.00298506
0.0119022
0.00260893
0.00582586
0.00299147
0.00645574
0.00963621
0.00985904
0.0406224
0.0193742
0.00724479
0.00667841
0.0421705
0.00106142
0.00896818
0.00435612
0.00426954
0.00350504
0.0305059
0.0517536
0.00191203
0.0359304
0.0103431
0.0812368
0.012263
0.0488841
0.00504918
0.0105915
0.063369
0.00290323
0.00872861
0.0706016
0.0369654
0.000980737
0.0200494
0.00167205
0.0386559
0.0163634
0.0185907
0.00162503
0.00477056
0.0418139
0.0015036
0.00765441
0.00248122
0.0335455
0.000954129
0.0244101
0.00324252
0.0485284
0.00202694
0.00249516
0.00394184
0.00551356
0.0494834
0.0276144
0.00174222
0.00340224
0.0028131
0.000996424
0.00712916
0.00216744
0.0190188
0.00880374
0.0592631
0.000927257
0.00163984
0.036226
0.0555978
0.0184356
0.118575
0.0355402
0.00304108
0.0267501
0.0506312
0.00093631
0.0427981
0.01339
0.0147207
0.00212531
0.0396978
0.00101964
0.0399645
0.00108931
0.0473693
0.0114613
0.00160674
0.0611881
0.00382081
0.044548
0.0372026
0.00505295
0.00301004
0.068318
0.115609
0.00467611
0.0223041
0.0454098
0.00255675
0.0133862
0.00209224
0.0105395
0.00223601
0.00260655
0.00369487
0.0671748
0.00188498
0.0405341
0.00943472
0.00118535
0.00104871
0.00114276
0.000916128
0.00270302
0.0149354
0.0145138
0.00556192
0.0217604
0.00598965
0.00135264
0.00138228
0.00100668
0.052143
0.032902
0.00090153
0.00483401
0.0102571
0.00272173
0.063916
0.020662
0.00326208
0.00204931
0.0107758
0.0032568
0.00253921
0.0322904
0.0467614
0.00108123
0.00120369
0.0114395
0.0620026
0.0847897
0.00157203
0.00287567
0.103297
0.00486227
0.00259505
0.00111882
0.0271625
0.04186
0.0911846
0.00216339
0.0458476
0.0158944
0.0973056
0.0566469
0.00293546
0.0234675
0.00165236
0.0144223
0.00107327
0.00231801
0.00667636
0.00846077
0.00406085
0.00974095
0.00322588
0.00367628
0.00413853
0.0387445
0.00351641
0.056661
0.0205818
0.0191221
0.00213598
0.0886705
0.0145034
0.00938376
0.0107632
0.00434658
0.0236709
0.00296811
0.010693
0.0272111
0.00292773
0.0187773
0.00366512
0.00266757
0.00205216
0.000904216
0.0111712
0.00227028
0.00108843
0.0444069
0.114428
0.00264639
0.0479999
0.0522328
0.0662496
0.0221842
0.0248762
0.0680216
0.00103518
0.0226329
0.0100262
0.00101228
0.00499985
0.000939607
0.00282752
0.00299603
0.0256036
0.00913684
0.0675346
0.00266391
0.0103445
0.000926135
0.0011211
0.00104624
0.0421667
0.0233177
0.00557139
0.000883322
0.0271351
0.0097775
0.0384478
0.0360715
0.0343561
0.0202232
0.00129247
0.00147798
0.00448956
0.00116593
0.0108576
0.00123497
0.0113583
0.0265102
0.0129256
0.0639586
0.0011225
0.00227223
0.0224047
0.0280534
0.0170066
0.00623501
0.00893527
0.011092
0.107266
0.0641313
0.0324268
0.0698372
0.0121161
0.00239768
0.00354945
0.00443099
0.0391586
0.00169259
0.00443579
0.00335094
0.0209162
0.00903207
0.0197372
0.00988056
0.0120882
0.00160886
0.0345996
0.0267048
0.0209801
0.00122847
0.119807
0.0385133
0.0342432
0.00383169
0.0497036
0.0171909
0.0121256
0.0009862
0.00892506
0.00465844
0.000976391
0.00390628
0.0116985
0.00838053
0.0182461
0.0770299
0.0568148
0.00090287
0.050481
0.000874653
0.0107303
0.00590206
0.0202806
0.00106493
0.000794749
0.0691268
0.00946286
0.00139872
0.0688193
0.0158584
0.00900294
0.0013572
0.00156969
0.011109
0.0288212
0.00195232
0.00131807
0.00274686
0.0252105
0.00201757
0.00131905
0.006835
0.00500115
0.0489127
0.00420872
0.0214521
0.00186563
0.00947457
0.0666049
0.0117939
0.0248788
0.0096593
0.000988176
0.0031212
0.0027794
0.00152116
0.0263408
0.00302848
0.00116771
0.0410893
0.0102079
0.0115325
0.0401438
0.0125384
0.00283417
0.00136329
0.00115675
0.0112371
0.0149255
0.00272491
0.0400601
0.00315422
0.0689107
0.0513968
0.00986206
0.00280786
0.0484838
0.00144837
0.000883788
0.0103041
0.101955
0.00218266
0.00203066
0.0126329
0.0162533
0.00167542
0.00144127
0.0204015
0.0110174
0.000970948
0.000830947
0.00908077
0.00233608
0.0254934
0.000967421
0.115241
0.0597738
0.00326563
0.0704669
0.0104936
0.0195239
0.0388161
0.041672
0.0294332
0.0438515
0.0078758
0.00307991
0.00308657
0.00101766
0.00115529
0.0107965
0.00482183
0.0372795
0.0638686
0.000969859
0.00225202
0.00194595
0.00193167
0.00179606
0.00155064
0.00367072
0.00338738
0.00242195
0.00374526
0.00324278
0.00176793
0.00253407
0.00262901
0.0126111
0.022082
0.0161695
0.0153003
0.0102042
0.0325725
0.00393403
0.00845047
0.00215453
0.00951675
0.00167967
0.00684173
0.0499598
0.0147143
0.00460476
0.0019313
0.00233831
0.0394445
0.0220558
0.0107689
0.00145607
0.00332522
0.0012668
0.027373
0.010648
0.00778841
0.00498596
0.00211554
0.00349038
0.00363552
0.0152582
0.00935677
0.00430544
0.00207894
0.00175778
0.00285475
0.0253982
0.0191702
0.0830035
0.00990004
0.00941679
0.0217321
0.0237547
0.0139259
0.018249
0.0449787
0.00929901
0.00139867
0.064952
0.0316757
0.0106997
0.00847091
0.0176285
0.00234725
0.011249
0.0036353
0.0114891
0.0646152
0.0142746
0.00379471
0.00591513
0.0377979
0.0733968
0.0021936
0.0117362
0.0129946
0.0023834
0.00132806
0.00123097
0.00338964
0.00419133
0.00102227
0.000864834
0.103105
0.00331735
0.0345037
0.0416986
0.0116255
0.00182211
0.0224298
0.0232807
0.0154653
0.00495148
0.0127157
0.000855327
0.0958829
0.0205403
0.0547678
0.00350668
0.00203224
0.00182656
0.0122586
0.0167807
0.00689927
0.00214147
0.0100658
0.0237772
0.00146447
0.00306056
0.00572813
0.0704261
0.00321705
0.00342279
0.0104794
0.0128608
0.00121489
0.07114
0.0357429
0.0892203
0.00659552
0.0193606
0.0253721
0.0013989
0.00893544
0.10818
0.0124487
0.00267538
0.00946305
0.0367613
0.0163495
0.0146608
0.0105513
0.0300195
0.00164698
0.0340644
0.00363544
0.00117867
0.00224988
0.0186084
0.00336011
0.0415569
0.0601587
0.0112662
0.0146977
0.00236866
0.0197956
0.000829925
0.00593263
0.0201866
0.0251462
0.00223371
0.00145431
0.034763
0.00339809
0.054111
0.00288556
0.0549726
0.000952717
0.0272523
0.00218065
0.0482499
0.00597718
0.0150013
0.0507446
0.0232471
0.0240534
0.00346234
0.0502459
0.0159292
0.0228549
0.0201006
0.00766904
0.0116015
0.0120666
0.00141037
0.0304971
0.028886
0.00577008
0.0356385
0.0889164
0.00199122
0.0110191
0.00325263
0.0420825
0.000963823
0.00127856
0.00115962
0.0151513
0.093259
0.0259579
0.00637476
0.0119107
0.00203683
0.00340519
0.00492719
0.00362016
0.000872487
0.00316328
0.00314548
0.00388335
0.00346482
0.0462218
0.0661176
0.00237287
0.00489093
0.0322784
0.0375578
0.0113018
0.00232089
0.00117421
0.00879918
0.0128341
0.000960037
0.000971142
0.084548
0.0115987
0.00268396
0.00338754
0.00932653
0.0158005
0.0351976
0.0173997
0.0190764
0.00879151
0.00302427
0.0330016
0.0550279
0.00119799
0.0119517
0.00534234
0.00110385
0.00344501
0.008689
0.00267654
0.0269607
0.0292726
0.00123622
0.0136853
0.0927175
0.0037807
0.0139515
0.00191041
0.0331127
0.0207918
0.00285498
0.0110201
0.0630092
0.00299858
0.00393744
0.0111082
0.00371316
0.0578261
0.040445
0.0430258
0.00571089
0.00380857
0.00142943
0.00983813
0.00263857
0.00305626
0.00445451
0.00985165
0.00159804
0.0028503
0.00444292
0.00133451
0.0409748
0.0103143
0.0074202
0.00205024
0.0946595
0.00267525
0.00424513
0.0055029
0.0274773
0.00111335
0.00256823
0.0119369
0.00297075
0.00143102
0.00290444
0.0308165
0.0014516
0.0222862
0.00932506
0.00260982
0.0370051
0.00749434
0.00127258
0.0918573
0.0120754
0.0688165
0.00397923
0.0113454
0.00510471
0.0204273
0.102617
0.00117782
0.0106196
0.00279211
0.0106203
0.0010644
0.00102176
0.00237258
0.00281669
0.0027772
0.00129662
0.0166352
0.00411298
0.00160754
0.00105911
0.00245651
0.0156882
0.031914
0.028446
0.00606005
0.00273233
0.10749
0.0010545
0.00103214
0.00343743
0.000879419
0.000885958
0.00802534
0.00340494
0.00294642
0.012669
0.0101529
0.00871232
0.0340311
0.0317953
0.00109768
0.0558381
0.0101452
0.0110705
0.0244015
0.0152165
0.0157993
0.0179094
0.00274287
0.0136226
0.00432031
0.0119568
0.00281595
0.0351947
0.00297239
0.00300882
0.0128517
0.0309859
0.0255737
0.00117187
0.012246
0.0148378
0.00751371
0.00366037
0.00294502
0.00640654
0.0194069
0.00511853
0.112962
0.0108394
0.00206998
0.0104369
0.00301557
0.00379397
0.00661529
0.00334086
0.038914
0.0116418
0.00169266
0.00203494
0.0328023
0.00502042
0.0378094
0.0216654
0.0156814
0.00459321
0.00257921
0.0242691
0.0633894
0.00147352
0.00279086
0.00967335
0.00257224
0.0019092
0.0118178
0.00266284
0.044279
0.00824887
0.0383359
0.00303606
0.0119359
0.00315842
0.00220717
0.00126997
0.0170796
0.00382137
0.00372131
0.0031129
0.0124116
0.0100148
0.00291813
0.0105068
0.0404047
0.0200933
0.00192053
0.022328
0.0675593
0.0323584
0.00101634
0.0134544
0.0039064
0.0509807
0.00266047
0.0110697
0.0269167
0.03069
0.00103153
0.00116907
0.0121778
0.0303502
0.0419129
0.00333563
0.0483534
0.00318225
0.00124338
0.0279055
0.0133174
0.00274859
0.0333929
0.00581454
0.00124665
0.00914226
0.0258093
0.0109135
0.00268173
0.00150892
0.0275503
0.00428365
0.00174429
0.026203
0.0575841
0.0358891
0.0120878
0.00274886
0.00346161
0.0132135
0.0290029
0.0136654
0.0305296
0.0532244
0.0427292
0.000960472
0.000920349
0.00426543
0.00215184
0.00226083
0.0276004
0.0214128
0.000832105
0.000862514
0.000820251
0.00326261
0.00800842
0.0132642
0.0120935
0.00355331
0.00351884
0.00331624
0.0105011
0.0187417
0.0104785
0.00101072
0.0388037
0.00161084
0.00445394
0.0292119
0.00190465
0.0167402
0.0294544
0.00201702
0.0126865
0.00185756
0.0107702
0.0104806
0.00577011
0.0365414
0.0013435
0.0258212
0.0317345
0.0135785
0.00334533
0.0541648
0.0557946
0.00111573
0.00223978
0.0100772
0.010038