/*--------------------------------*- C++ -*----------------------------------*\
  =========                 |
  \\      /  F ield         | OpenFOAM: The Open Source CFD Toolbox
   \\    /   O peration     | Website:  https://openfoam.org
    \\  /    A nd           | Version:  10
     \\/     M anipulation  |
\*---------------------------------------------------------------------------*/
FoamFile
{
    format      ascii;
    class       volScalarField;
    location    "250";
    object      k;
}
// * * * * * * * * * * * * * * * * * * * * * * * * * * * * * * * * * * * * * //

dimensions      [0 2 -2 0 0 0 0];

internalField   nonuniform List<scalar> 
23845
(
0.0478129
0.0651732
0.0608605
0.0423451
0.0757809
0.0214413
0.0651499
0.030763
0.0345524
0.0481762
0.0401934
0.0206354
0.0377081
0.0299742
0.0762673
0.0474954
0.0326331
0.0239862
0.0418392
0.0197409
0.0517739
0.0394997
0.0544944
0.0339549
0.0464877
0.0401433
0.0609183
0.0216979
0.017196
0.0209089
0.0464807
0.0171148
0.0741598
0.0255922
0.0186752
0.0166366
0.013776
0.0190585
0.0236214
0.0296158
0.0463907
0.0240118
0.0373855
0.0240236
0.0448807
0.0337562
0.0690236
0.0430959
0.0227435
0.0128356
0.0287758
0.0621474
0.0190044
0.0249185
0.0163137
0.0363629
0.0760833
0.0341301
0.0527504
0.0675778
0.0229108
0.0255443
0.0469568
0.02172
0.0363129
0.0345077
0.0652157
0.0487425
0.0464101
0.0421047
0.0271886
0.0541754
0.0379679
0.0736966
0.0392694
0.076721
0.0222983
0.0214858
0.0372724
0.0360214
0.0571291
0.0674585
0.0733629
0.0341466
0.0627489
0.0182967
0.0687758
0.0187601
0.0368876
0.0396148
0.0253666
0.050469
0.0185604
0.0177865
0.034222
0.0254208
0.0305749
0.0427915
0.0397411
0.0724044
0.0329316
0.0664173
0.0586321
0.00965657
0.0181465
0.035692
0.0228349
0.0412525
0.0670702
0.0250393
0.0370762
0.0195616
0.0723069
0.0433655
0.017062
0.0474198
0.0384268
0.0477278
0.0179104
0.0272887
0.0217773
0.0207708
0.0464882
0.0393178
0.0676209
0.0384004
0.0241293
0.0127956
0.0492529
0.070192
0.0515449
0.0554646
0.0489487
0.0276437
0.0337465
0.0505671
0.00813926
0.0220129
0.0615238
0.022968
0.0148521
0.0230227
0.0183043
0.0240264
0.0440214
0.0236455
0.0460108
0.0718181
0.0304496
0.0424169
0.0783187
0.0353042
0.064721
0.0302984
0.0674059
0.0396374
0.0681767
0.0169814
0.0573823
0.0230122
0.0464473
0.0717101
0.0338871
0.0355979
0.0449634
0.0388245
0.026147
0.0206262
0.0213933
0.021285
0.0261025
0.0430644
0.0343386
0.0382252
0.0334649
0.0358913
0.0508074
0.0420265
0.041521
0.0173693
0.070538
0.0690476
0.0731597
0.0352062
0.0442823
0.0402966
0.0263564
0.033017
0.0149814
0.0251768
0.0187704
0.028202
0.0266836
0.0218006
0.0475445
0.0300902
0.0142719
0.0153353
0.0123626
0.0377387
0.0356785
0.0288174
0.0299675
0.056202
0.0323701
0.0336421
0.060711
0.0232608
0.0511021
0.0279272
0.0327138
0.018741
0.0476823
0.0236134
0.0251418
0.0159617
0.0561098
0.026437
0.00812615
0.0523644
0.0394505
0.0750392
0.0133474
0.0419726
0.022757
0.0749147
0.0085948
0.0277861
0.0189078
0.0506475
0.0185493
0.024534
0.0183666
0.0464628
0.0748358
0.0209959
0.0369682
0.0437824
0.0327584
0.0441494
0.0206817
0.045316
0.0351785
0.0733898
0.0216395
0.0466293
0.0237267
0.0469997
0.0349712
0.072101
0.0287012
0.0158144
0.0280828
0.0421799
0.0679519
0.0245657
0.0301471
0.029191
0.0178843
0.0325324
0.0169284
0.0165899
0.0253066
0.0361268
0.0377437
0.0328412
0.0366951
0.0398023
0.054193
0.0419906
0.019835
0.0405653
0.0286386
0.024612
0.0362228
0.0268574
0.0287907
0.026923
0.019458
0.0577291
0.0362525
0.0189242
0.0310544
0.040717
0.0164843
0.0261342
0.041212
0.0302605
0.033263
0.0703286
0.0359056
0.0260921
0.0223969
0.0280356
0.0347098
0.0178072
0.0267274
0.0247055
0.0169124
0.0196509
0.0574873
0.0733769
0.0206062
0.0424764
0.0224296
0.0441047
0.0217756
0.0286889
0.0331932
0.0125666
0.0282766
0.0675317
0.0370817
0.0247032
0.0574645
0.0140881
0.0263329
0.0529214
0.0234083
0.0394134
0.018085
0.0197525
0.0337034
0.0228726
0.0716089
0.0214989
0.0390174
0.0680195
0.0316838
0.0262968
0.0654652
0.0374246
0.0272942
0.0161205
0.0306978
0.0445078
0.0495355
0.0251716
0.0240768
0.0374417
0.04425
0.0317052
0.0382446
0.0449414
0.045473
0.0173874
0.0158133
0.0270778
0.0382091
0.0722806
0.049925
0.0519475
0.0118877
0.0294876
0.0190151
0.0273966
0.0201689
0.0349335
0.0739779
0.0347347
0.0427042
0.0371794
0.0456298
0.0403354
0.015948
0.0257598
0.0364362
0.0185831
0.0186775
0.0405757
0.0221683
0.0236422
0.026732
0.0213616
0.0174452
0.0260933
0.0540573
0.04577
0.0220591
0.0392267
0.0699739
0.0167807
0.0521328
0.0459806
0.0457144
0.0204047
0.0195808
0.0368091
0.0320482
0.0350578
0.0611596
0.0225971
0.0234486
0.0197497
0.0274027
0.0205149
0.0360868
0.0425585
0.0420047
0.0162544
0.0531128
0.0516465
0.0319062
0.0458022
0.0724108
0.0746285
0.0243648
0.024323
0.0171796
0.0281035
0.0743551
0.0472993
0.0701034
0.0354128
0.0686323
0.0563168
0.0567924
0.0342374
0.0197248
0.0502121
0.0595965
0.0216083
0.0327411
0.0380325
0.0270159
0.056592
0.0529655
0.0491346
0.0426688
0.0443957
0.0288971
0.02695
0.0324083
0.023895
0.0282825
0.0401088
0.0209365
0.0399752
0.0199237
0.0443709
0.0769794
0.0468486
0.0164273
0.047129
0.0502012
0.0264613
0.0214668
0.0568496
0.0180532
0.041322
0.0371651
0.0345093
0.0396241
0.0158933
0.045443
0.0320836
0.0697059
0.0583983
0.0299118
0.0263141
0.0524689
0.0410028
0.00839075
0.0690467
0.0170144
0.0212935
0.0204254
0.0250261
0.0441056
0.0718412
0.020858
0.0238503
0.0489105
0.0259936
0.0228217
0.0710081
0.0357606
0.0229029
0.0242263
0.0425031
0.0636739
0.0565528
0.0458958
0.0408491
0.0312314
0.0726064
0.0186537
0.0194888
0.0668287
0.0340546
0.0402734
0.060549
0.0255822
0.0594339
0.0314614
0.0664597
0.039471
0.0527319
0.038207
0.0159053
0.0656358
0.0157563
0.0359582
0.0643291
0.0347523
0.0366329
0.0343574
0.0438406
0.0195114
0.0344522
0.0455883
0.0405595
0.0142355
0.0470496
0.0241822
0.0435277
0.0538485
0.072695
0.0674615
0.0249049
0.0141251
0.0270755
0.0267267
0.0272119
0.042969
0.0634094
0.0686238
0.0228508
0.050619
0.0195057
0.0217579
0.0640901
0.0646801
0.0601071
0.0414877
0.044158
0.0246146
0.0304275
0.0669954
0.0379642
0.0626785
0.0273997
0.0564845
0.0533142
0.0438596
0.0516138
0.0420778
0.0359008
0.0230967
0.0334563
0.0305581
0.0172853
0.0400745
0.0305486
0.0327129
0.0666054
0.0212205
0.0384969
0.0159349
0.018166
0.0349925
0.0386029
0.0714561
0.0206093
0.0228625
0.0219165
0.0186166
0.0375654
0.0184162
0.0424736
0.0445815
0.0630006
0.0406294
0.020208
0.0442696
0.069232
0.0355942
0.0638966
0.0305033
0.0687343
0.0443133
0.021054
0.0437937
0.0687169
0.0276912
0.0192467
0.0388985
0.0392138
0.0314242
0.0383915
0.0580339
0.0777287
0.0510936
0.0333561
0.0267086
0.0197356
0.0448901
0.0267777
0.0235428
0.0228789
0.0583532
0.0251537
0.0660636
0.0752158
0.0426896
0.0483693
0.0302788
0.0676939
0.0657827
0.0395187
0.063874
0.0664285
0.0729853
0.070037
0.029948
0.0570863
0.060157
0.0715406
0.0218779
0.0259506
0.0669301
0.0245052
0.0670795
0.0376324
0.075689
0.0287207
0.0463748
0.022158
0.0453003
0.046834
0.0374191
0.0319947
0.0617225
0.0216259
0.0198475
0.0713345
0.0608378
0.044715
0.0443675
0.0345607
0.073066
0.0307386
0.0194934
0.0431662
0.0466798
0.0488721
0.0480028
0.0418924
0.0474145
0.0556227
0.0166701
0.0158728
0.0600288
0.0373447
0.0227187
0.071709
0.0399312
0.0459774
0.0307217
0.0408933
0.0332902
0.0425789
0.0317814
0.0743651
0.0305732
0.0435768
0.0452593
0.0715649
0.0501469
0.0426369
0.0470909
0.0307246
0.0370075
0.0327734
0.0294702
0.0521296
0.0276583
0.0576313
0.036482
0.0343972
0.0391042
0.0251882
0.0267607
0.0242072
0.0339678
0.0517697
0.0356841
0.0227034
0.0502595
0.0465511
0.0220497
0.0263318
0.031356
0.0346858
0.0384271
0.0443499
0.0496596
0.0283732
0.0550966
0.0266818
0.0383349
0.0244335
0.0361659
0.0235741
0.0248983
0.0275717
0.0221616
0.0212742
0.02131
0.0409962
0.031643
0.0517894
0.0349883
0.0276903
0.0322192
0.0207059
0.0219949
0.0336826
0.0204863
0.0356039
0.039369
0.0272428
0.0197998
0.0310248
0.0175951
0.0413175
0.040606
0.0611583
0.0343643
0.032564
0.0193448
0.0231408
0.0188419
0.0300119
0.0485495
0.0272277
0.0648329
0.0208624
0.0290512
0.0253137
0.0428158
0.0192091
0.0349458
0.0279743
0.0385214
0.0203347
0.0582628
0.018876
0.0250053
0.0206918
0.0675153
0.0269732
0.0462098
0.0502552
0.0320319
0.0345964
0.0394094
0.0379475
0.046862
0.0418397
0.0539604
0.0261971
0.0274898
0.0334718
0.0396452
0.0258861
0.0424812
0.0229573
0.0722673
0.0223241
0.0183049
0.0480147
0.0432514
0.0505031
0.0470558
0.0361018
0.0225976
0.0710354
0.0408624
0.0305159
0.0208843
0.0231232
0.0274158
0.0265405
0.0345524
0.0190295
0.0384541
0.0229679
0.0197663
0.0185849
0.0203246
0.0289097
0.0272937
0.0232551
0.019349
0.0275009
0.0746945
0.0274897
0.0234858
0.0247607
0.0234037
0.029655
0.0562804
0.0372651
0.0406227
0.0357771
0.0268681
0.0239953
0.0304365
0.0242362
0.0614696
0.0400495
0.0448573
0.0349817
0.0185556
0.0266784
0.0195433
0.0371365
0.050625
0.050921
0.0463619
0.0482808
0.0477075
0.0453557
0.0492308
0.04372
0.0463892
0.0448721
0.0447361
0.0455782
0.0436072
0.0436599
0.049505
0.0464093
0.0452888
0.0487832
0.0475653
0.021769
0.0206868
0.0535183
0.051642
0.0439494
0.0351599
0.0232382
0.0409618
0.0371604
0.0415596
0.0334993
0.0309479
0.0503904
0.0505336
0.0514447
0.0499398
0.0238539
0.0228474
0.0266127
0.0338687
0.0431843
0.0224103
0.0700425
0.0170217
0.0445456
0.0288182
0.0582135
0.0179421
0.0314645
0.0476823
0.0470419
0.0472757
0.0472167
0.0474024
0.0477661
0.0451479
0.0462187
0.0445544
0.0438982
0.0442394
0.04413
0.0370092
0.0195734
0.0180917
0.0401141
0.0232894
0.0386187
0.0413186
0.041072
0.0474703
0.0474775
0.0472605
0.0441659
0.0477327
0.0441213
0.0471925
0.0463411
0.0441587
0.0481299
0.0451668
0.0445819
0.0335746
0.0249002
0.0278636
0.0526645
0.0272831
0.0254646
0.0255163
0.0272311
0.0227739
0.0181141
0.0348414
0.0327313
0.0158396
0.0261626
0.0320463
0.034242
0.0685672
0.0381553
0.0213908
0.0438048
0.0234625
0.0211853
0.0731652
0.0196833
0.0213441
0.0203359
0.0264442
0.0593259
0.0252465
0.0778502
0.0208795
0.04535
0.0447908
0.0493429
0.0240782
0.0189847
0.0323841
0.0701067
0.0192608
0.048099
0.0459318
0.0517369
0.021223
0.0405851
0.0284586
0.0320875
0.0334188
0.0381476
0.0403469
0.025114
0.0369027
0.0405786
0.0459454
0.024453
0.035367
0.0385153
0.0387482
0.0452673
0.0388224
0.035157
0.0454978
0.0182029
0.0230879
0.0339799
0.0223292
0.0173732
0.0215795
0.0381043
0.0209791
0.0178734
0.0325897
0.039822
0.0332132
0.0292513
0.0595368
0.0177346
0.0353033
0.0203842
0.0205115
0.0351411
0.0383915
0.0368405
0.0675927
0.0643834
0.0300315
0.020497
0.0433264
0.0502696
0.0175981
0.0460396
0.0299936
0.0292657
0.034026
0.0458511
0.0420732
0.0383998
0.047448
0.039744
0.0456538
0.0483636
0.0473597
0.03678
0.031066
0.0282949
0.0195803
0.039695
0.0421595
0.0343011
0.0204641
0.0281544
0.0687329
0.0339057
0.0240588
0.0130066
0.0174104
0.0481636
0.0172209
0.0443277
0.0216239
0.0184156
0.0233013
0.0301474
0.0532057
0.023076
0.0179602
0.0286964
0.0380828
0.0658734
0.0616608
0.0595103
0.0404637
0.018414
0.028608
0.019797
0.0250807
0.0420409
0.0241168
0.0717046
0.063501
0.0498173
0.0498898
0.0497554
0.0505543
0.0515898
0.049542
0.0188567
0.0612698
0.0390495
0.0403519
0.0456224
0.0380384
0.0397238
0.0304214
0.0359203
0.0200076
0.0323197
0.0267902
0.0206322
0.0249072
0.0234373
0.0223861
0.0194605
0.0249876
0.0297106
0.0553249
0.056835
0.0181989
0.0485901
0.0188341
0.0350149
0.0254237
0.0226033
0.0299494
0.023207
0.0277376
0.020695
0.0401951
0.0297999
0.0672437
0.0406333
0.0177081
0.0444612
0.0284507
0.0413614
0.0292227
0.054069
0.0355803
0.0211182
0.0598981
0.0283193
0.037989
0.0391422
0.0426235
0.0289357
0.0178408
0.0381286
0.0396557
0.0345605
0.0312134
0.0277139
0.0261122
0.0287749
0.0243525
0.0416572
0.0191936
0.021939
0.0494666
0.0377914
0.0304214
0.0440319
0.0211636
0.0434373
0.0414875
0.0203343
0.0183915
0.0188281
0.0183259
0.0264881
0.0598345
0.019816
0.0191879
0.0587371
0.0172314
0.0178389
0.0186079
0.0742931
0.0319769
0.0230067
0.0630244
0.0398685
0.0391563
0.0182313
0.0324012
0.0447632
0.0393809
0.0396976
0.020086
0.0382515
0.0417946
0.0629
0.0373251
0.0316775
0.0249302
0.0228702
0.0207293
0.0217593
0.0199058
0.0582291
0.024714
0.0233317
0.0177072
0.0262338
0.0271424
0.0559857
0.0339507
0.021318
0.0275842
0.024314
0.0658062
0.0298895
0.0443152
0.0420822
0.0183304
0.039863
0.018904
0.0219592
0.0171696
0.0374677
0.0229422
0.0408164
0.0397683
0.0202603
0.0448029
0.0314947
0.0326454
0.0352848
0.0235506
0.0349663
0.0371025
0.0380547
0.0403718
0.0282144
0.0179952
0.0297881
0.0283836
0.0453173
0.0212617
0.0402613
0.050419
0.0501385
0.0437375
0.045961
0.0496804
0.0444941
0.0496226
0.0501757
0.0435247
0.0490313
0.0522607
0.0485296
0.0466962
0.0510282
0.061526
0.0706863
0.0312693
0.0281679
0.0468711
0.0229828
0.0163434
0.0691989
0.0446648
0.0535916
0.029882
0.0445275
0.0267254
0.0250538
0.0442122
0.0393165
0.0223208
0.0356676
0.0520055
0.0279646
0.023137
0.0200785
0.017836
0.0175894
0.0171488
0.0201151
0.0186145
0.0770179
0.0250526
0.0194444
0.0549666
0.0377731
0.0446514
0.0178033
0.0529917
0.0347993
0.0338143
0.0754152
0.035415
0.0277737
0.0170385
0.0297563
0.0521592
0.0169514
0.0562128
0.0353172
0.0460988
0.0389426
0.039092
0.059068
0.0262488
0.0319963
0.0669541
0.0262879
0.0262283
0.0286278
0.0517407
0.0202302
0.0268052
0.0388651
0.0668233
0.0449085
0.0338096
0.0213723
0.0182987
0.0232365
0.0336206
0.0343306
0.0558621
0.0219499
0.010416
0.03057
0.0219132
0.0168652
0.0593545
0.0300208
0.0326618
0.0198082
0.0357907
0.0357617
0.0335713
0.0389997
0.0441151
0.0400318
0.033985
0.0169858
0.0436055
0.0432324
0.0246152
0.0305041
0.0270857
0.0321127
0.0384205
0.0329186
0.021656
0.0361449
0.0344313
0.0474249
0.0299989
0.0712052
0.0272614
0.0302267
0.0185664
0.0306599
0.0614687
0.052047
0.0450561
0.0256289
0.0461457
0.0270112
0.0302104
0.0540721
0.0299991
0.0706743
0.0229387
0.0677702
0.0328354
0.025059
0.0725978
0.0331971
0.0333336
0.0332237
0.048958
0.0734089
0.0181775
0.0263638
0.0786768
0.0598386
0.0259768
0.0622001
0.0624394
0.0302992
0.0408911
0.0229761
0.0522223
0.0245397
0.0471592
0.0342543
0.0451319
0.0590898
0.0179198
0.0709874
0.052604
0.029812
0.0293022
0.0297709
0.0430047
0.0455575
0.0360608
0.0217975
0.0434863
0.0550566
0.0261527
0.0573125
0.0269834
0.0189833
0.0317581
0.0382057
0.0467539
0.017442
0.0316725
0.0667917
0.0353386
0.0246289
0.0245771
0.0292335
0.031878
0.030909
0.0492594
0.0606735
0.0551783
0.0175751
0.0313061
0.0206077
0.0306482
0.0312659
0.0228819
0.0262081
0.0345514
0.048879
0.0119625
0.0268714
0.0244173
0.0361738
0.0420309
0.0521902
0.0726359
0.0371509
0.0216596
0.0302917
0.0271862
0.0197613
0.028176
0.0451486
0.0164606
0.0215609
0.0455312
0.0718021
0.0333981
0.0336921
0.032925
0.0606244
0.0241897
0.0345025
0.0283197
0.0298889
0.0213653
0.033522
0.0466275
0.0458105
0.033466
0.0175947
0.0319885
0.0706796
0.0282388
0.018921
0.0334944
0.0445103
0.034102
0.0323759
0.0175282
0.0269625
0.0393103
0.0331434
0.0156701
0.0332339
0.0310331
0.0215577
0.0167617
0.0583412
0.0324255
0.0669972
0.0312374
0.0399512
0.0414156
0.0426579
0.0271097
0.0452953
0.0184048
0.0246247
0.022754
0.0312092
0.0362307
0.0315341
0.0387914
0.0309513
0.0432028
0.0297546
0.0386394
0.0312322
0.0732785
0.0170284
0.0173124
0.0469374
0.0647186
0.0228957
0.0418792
0.0289118
0.0186534
0.0435262
0.0246689
0.0653625
0.049207
0.0174294
0.0383377
0.0709224
0.0367649
0.0686351
0.0376416
0.0538568
0.0338829
0.0494359
0.0647963
0.0264473
0.0369422
0.0536385
0.0279816
0.0277974
0.0503171
0.0168421
0.0421763
0.0686161
0.0433445
0.0635714
0.0401865
0.0293008
0.0267468
0.0495662
0.029367
0.045917
0.0405995
0.0389294
0.0230385
0.0394312
0.027676
0.0363506
0.0474949
0.0166062
0.0346486
0.0160508
0.0177509
0.0349226
0.0692057
0.0433368
0.0165564
0.0177091
0.0542215
0.0520486
0.044449
0.0423966
0.0165878
0.0163035
0.0475077
0.0294566
0.0441366
0.0157671
0.0426412
0.0323054
0.0743676
0.0176484
0.0671396
0.0643097
0.0262049
0.0582105
0.0188408
0.0241683
0.0224447
0.0624081
0.0173113
0.0310709
0.0296365
0.0214744
0.0202776
0.0476526
0.00245647
0.0471504
0.0666377
0.0651327
0.0616204
0.0168832
0.0649249
0.00158793
0.0198626
0.0513484
0.0199451
0.0173886
0.0762762
0.0164783
0.0263056
0.0704544
0.0624629
0.0411259
0.012047
0.0292874
0.0485322
0.0170449
0.0587968
0.0574338
0.0328237
0.0718867
0.0185923
0.0323034
0.0235961
0.0152045
0.045751
0.0688488
0.0480733
0.0202158
0.0602268
0.020908
0.0240143
0.0167593
0.0439271
0.030632
0.0221589
0.037546
0.0682745
0.029053
0.0358064
0.0224301
0.0355929
0.0256789
0.0190381
0.0360002
0.0434874
0.0311651
0.0336981
0.0163368
0.0747456
0.0229569
0.0276934
0.0169877
0.0445873
0.0386594
0.066869
0.0416451
0.0368087
0.0483816
0.0498707
0.0233242
0.0349763
0.0437491
0.00155918
0.0382659
0.033958
0.0301132
0.0190414
0.0599626
0.0546118
0.0271741
0.0208496
0.0616182
0.0738535
0.0595903
0.0474926
0.0017456
0.0209681
0.0276471
0.0274734
0.0231557
0.0165123
0.0213475
0.0247759
0.0324408
0.0188469
0.018268
0.0388247
0.0189536
0.0310092
0.0409343
0.0496206
0.00204559
0.0679881
0.0226252
0.0626212
0.0576011
0.0561264
0.0449577
0.0442919
0.0492889
0.0400884
0.00314656
0.0333114
0.0202436
0.0434287
0.0760821
0.0353438
0.0606937
0.0327937
0.034846
0.0386979
0.0187525
0.0278027
0.0276109
0.0177881
0.0621052
0.0416692
0.06341
0.0600099
0.0713561
0.0598441
0.0719641
0.0210646
0.0441714
0.0652886
0.0418902
0.00228295
0.0385608
0.0475511
0.0215965
0.0498029
0.0207458
0.021657
0.0280199
0.0476859
0.0292497
0.02254
0.0194973
0.0295282
0.0205998
0.0513265
0.0723929
0.0379264
0.0631523
0.0530594
0.0467467
0.0017191
0.0790043
0.0336562
0.0229149
0.0631595
0.016356
0.0446784
0.0394732
0.0477084
0.0442407
0.0300966
0.0497131
0.0463049
0.0027903
0.0563475
0.036473
0.0372482
0.0191348
0.0620304
0.049997
0.0504353
0.0729067
0.0225845
0.0488481
0.0460689
0.0226766
0.073272
0.0114016
0.0425698
0.0400898
0.0407329
0.0340687
0.0207928
0.0639373
0.030365
0.0388807
0.063783
0.0213266
0.0288804
0.0444113
0.0194597
0.0421453
0.0594502
0.00252281
0.0436482
0.0349088
0.0723715
0.0217421
0.0484916
0.0170707
0.0196657
0.0411697
0.0304883
0.0542577
0.0691319
0.0709463
0.0400066
0.0368753
0.059972
0.0291245
0.0347441
0.0252348
0.035532
0.0416471
0.022443
0.0338744
0.0398284
0.0785366
0.0163537
0.0714841
0.00364048
0.0284253
0.0128691
0.00311661
0.0567531
0.0161713
0.0765616
0.0447295
0.0245819
0.0161551
0.0781732
0.0195452
0.0253653
0.0222101
0.0498266
0.0270179
0.0355455
0.0314493
0.0266776
0.047457
0.0210149
0.0646843
0.030047
0.0415292
0.0713577
0.0297787
0.0259961
0.0381515
0.00273499
0.0460609
0.0275132
0.0266864
0.0721186
0.0701208
0.0245745
0.0228838
0.0671428
0.0585739
0.0662403
0.058378
0.0700278
0.0657699
0.027931
0.0498435
0.059864
0.0417493
0.0362283
0.0308693
0.0240677
0.032939
0.021121
0.0456979
0.0611988
0.0134423
0.0352385
0.022144
0.0166876
0.0324316
0.0366924
0.024366
0.00178863
0.0571038
0.0383554
0.0183183
0.0707135
0.0687415
0.0375397
0.0506327
0.0500101
0.0206098
0.0295763
0.0291909
0.0356677
0.0289519
0.0246638
0.0417844
0.0303483
0.0729148
0.0384736
0.0473125
0.0659277
0.0277771
0.044524
0.0342569
0.0363216
0.0464323
0.0308002
0.055463
0.0412267
0.0320683
0.043604
0.00187342
0.0326474
0.0685468
0.0754595
0.004591
0.0475162
0.0756148
0.0733809
0.0399387
0.070244
0.0428202
0.0284856
0.0606472
0.0247753
0.0200209
0.0609891
0.0217616
0.0338329
0.0179645
0.0390873
0.0541878
0.016492
0.0522196
0.00901086
0.0485183
0.0205196
0.0501525
0.0410631
0.0327625
0.031107
0.0674177
0.0676072
0.0450736
0.0582449
0.0400507
0.030781
0.0587191
0.0363607
0.0712619
0.00788148
0.0396511
0.0244562
0.0161597
0.0266752
0.0402555
0.0636324
0.0314186
0.0192119
0.0318268
0.0361872
0.0231539
0.0505727
0.0428153
0.0299162
0.0361946
0.0464459
0.0422729
0.0398822
0.0560206
0.0332986
0.0340043
0.0231716
0.0447515
0.0250201
0.0477378
0.026511
0.0249714
0.00416359
0.00165268
0.0429143
0.0471724
0.0629862
0.0229975
0.0223389
0.0395336
0.047059
0.0396584
0.0713517
0.0704811
0.0295489
0.0738927
0.00856955
0.0675382
0.0181671
0.0692241
0.0502054
0.0302704
0.0514517
0.0261405
0.0426016
0.00643379
0.071638
0.0231989
0.047481
0.0284369
0.0698254
0.049715
0.0487776
0.0256856
0.0456085
0.064903
0.0220805
0.050009
0.0273975
0.0671312
0.0177979
0.0507889
0.0392363
0.0660803
0.0306719
0.0345781
0.0384116
0.0463078
0.066111
0.0543731
0.0248605
0.0362952
0.0278266
0.0234518
0.0445872
0.0262214
0.0228305
0.0121991
0.0661368
0.0216104
0.0260477
0.00348727
0.0046076
0.0245021
0.0744222
0.062121
0.0356447
0.0605474
0.0635264
0.0169445
0.0653217
0.0493225
0.0506541
0.0245514
0.0587823
0.0237654
0.00382366
0.0236937
0.0475664
0.0347498
0.0259192
0.0704017
0.0417577
0.0419403
0.0722785
0.0464835
0.0370516
0.0721548
0.0737657
0.0427975
0.0021376
0.0737525
0.0350335
0.0264555
0.0246549
0.0289597
0.0298315
0.0348512
0.0288296
0.00500219
0.0254048
0.0566912
0.0415657
0.0209042
0.024103
0.024232
0.01794
0.029901
0.0364274
0.0531154
0.0474813
0.0526948
0.0445257
0.0210047
0.0203086
0.0196151
0.0669881
0.0696187
0.0199649
0.0407453
0.0429119
0.0235756
0.0578701
0.0604135
0.0395448
0.0284336
0.0337088
0.0396871
0.0317933
0.0493283
0.0679458
0.024416
0.0248445
0.0166227
0.00487212
0.0602633
0.025469
0.0376854
0.0656307
0.0364126
0.0361509
0.0247296
0.0533148
0.0770768
0.0713294
0.0244344
0.0697965
0.0472902
0.0772835
0.00495063
0.0367423
0.0636825
0.0259272
0.0111137
0.0189133
0.0311839
0.0452688
0.0449292
0.0371714
0.0437021
0.0404485
0.0376579
0.0296148
0.0581836
0.0370381
0.0646713
0.00186148
0.0494453
0.0300901
0.0049013
0.050778
0.022903
0.0253022
0.0362875
0.0616334
0.0386107
0.0436638
0.0554223
0.0394837
0.0422142
0.0308931
0.0344768
0.0292863
0.0178952
0.0312806
0.0277833
0.0186751
0.00424355
0.0791255
0.0361439
0.067543
0.00487083
0.0679299
0.0513232
0.00231151
0.0583284
0.0199427
0.0595723
0.0479113
0.0229915
0.0485406
0.0171454
0.0370357
0.0353697
0.0648933
0.0238614
0.00594941
0.0354661
0.0298109
0.018677
0.0198164
0.0232867
0.0645649
0.00211832
0.0506392
0.0163101
0.0475445
0.0274716
0.0331616
0.062802
0.0733701
0.0557167
0.0261783
0.0268797
0.0371279
0.0251222
0.0327956
0.0211061
0.0463924
0.0561671
0.0105858
0.00548467
0.0192729
0.0318404
0.0574842
0.0519747
0.0417358
0.0417633
0.0496579
0.0257206
0.0740178
0.0708399
0.0416116
0.00599115
0.026682
0.0334761
0.0308148
0.0416466
0.0415074
0.0278545
0.0479921
0.0352338
0.0527685
0.0475981
0.0511116
0.0297987
0.032661
0.026177
0.0566069
0.0620719
0.00198957
0.025667
0.0782125
0.059263
0.032614
0.0443503
0.070086
0.0486851
0.0145781
0.0227724
0.045099
0.0424327
0.0178664
0.029521
0.00806067
0.0427172
0.015719
0.070239
0.0433824
0.0169113
0.0519717
0.0172645
0.0318647
0.049261
0.05056
0.0189652
0.0160815
0.00497543
0.0244981
0.0263435
0.0041724
0.0511658
0.0425691
0.0266185
0.0275379
0.0327458
0.00238802
0.0295255
0.0241288
0.0354198
0.055711
0.0292178
0.0221682
0.0502272
0.0463321
0.00461515
0.0449021
0.00187759
0.0301652
0.0134235
0.0540417
0.048647
0.0585688
0.0137099
0.0189101
0.0389778
0.036565
0.0243505
0.00270596
0.0349335
0.019546
0.0692923
0.0274625
0.0333285
0.0779616
0.01562
0.0352264
0.0228064
0.0189667
0.0325867
0.037753
0.0376584
0.0525896
0.0306073
0.0718011
0.0689389
0.00771799
0.0340211
0.0676636
0.0237086
0.0204229
0.00836844
0.0662404
0.0288722
0.0296488
0.0379122
0.0462662
0.0283559
0.0272492
0.0530448
0.0332363
0.0227076
0.0161561
0.0182064
0.0271356
0.0568798
0.0227957
0.0699082
0.00427541
0.0392777
0.00553956
0.0313396
0.0564024
0.0621163
0.0640794
0.0555061
0.0604267
0.0455288
0.0306199
0.0328553
0.0226195
0.0200093
0.0332793
0.0423184
0.0455452
0.004605
0.0213251
0.0328023
0.0290425
0.0305049
0.029347
0.0281278
0.0273899
0.0368327
0.0334694
0.0334984
0.0394228
0.0271284
0.0321505
0.0345721
0.046832
0.0627934
0.0197265
0.0346422
0.0289729
0.0529937
0.0389237
0.0150971
0.0325188
0.00775933
0.0292062
0.0445972
0.067538
0.0437245
0.0460925
0.0295135
0.027621
0.0322086
0.0611536
0.0344694
0.0237266
0.0343715
0.0254189
0.0534173
0.0304905
0.0432916
0.0500481
0.0289403
0.0279343
0.0358521
0.0472319
0.0462724
0.04245
0.0317764
0.0270333
0.0342158
0.0550203
0.0146494
0.0558403
0.0440495
0.0192987
0.0506141
0.0411537
0.0491869
0.0489948
0.0625165
0.01337
0.0223864
0.0607123
0.0552979
0.0250382
0.0119354
0.0501856
0.0322222
0.0343787
0.0364577
0.00903681
0.0709508
0.0109711
0.0407281
0.0476591
0.0690807
0.0663959
0.0318632
0.0286708
0.0411302
0.0301806
0.0258824
0.0253717
0.0427653
0.0421758
0.0179709
0.016699
0.0748733
0.0272251
0.0623636
0.0682184
0.0167382
0.0286809
0.0533015
0.0545683
0.0174404
0.0408402
0.0401114
0.01635
0.0646429
0.0516135
0.0662287
0.0434279
0.0300343
0.0304916
0.00971738
0.0427388
0.0447782
0.0309327
0.0281285
0.0550204
0.026002
0.0403632
0.0506164
0.0669585
0.0394755
0.0370185
0.029168
0.0403662
0.0191251
0.0682035
0.0716233
0.0735547
0.0445873
0.0213244
0.0479478
0.0233374
0.042306
0.0792223
0.0402641
0.029699
0.00790382
0.0634324
0.0128877
0.0414896
0.0334331
0.0636569
0.0269745
0.0452311
0.0435367
0.0215578
0.031372
0.0558272
0.0290336
0.0379129
0.0698241
0.0318651
0.0507911
0.0332323
0.0523143
0.0159593
0.0445178
0.00173776
0.0548875
0.0331207
0.0246347
0.064469
0.0422388
0.0594663
0.0374663
0.0575209
0.017404
0.045698
0.0335873
0.062023
0.0422235
0.0503208
0.0636335
0.0249448
0.0155982
0.0434958
0.040444
0.050519
0.0474461
0.0558793
0.047466
0.045372
0.0476542
0.0260142
0.0707643
0.0582099
0.0475926
0.0638053
0.064434
0.0319746
0.0315237
0.0378354
0.0638001
0.0176019
0.022448
0.0246448
0.0501688
0.073183
0.0393994
0.0445706
0.0490858
0.0310046
0.0330516
0.0498903
0.0375412
0.0169145
0.0266974
0.0254437
0.0356646
0.0410342
0.064015
0.00423506
0.0351799
0.0462718
0.0628024
0.0434889
0.0470403
0.0321684
0.0242616
0.0207978
0.0469116
0.0171858
0.0229736
0.0576383
0.0454254
0.0358255
0.0370544
0.0436952
0.00568346
0.058209
0.0546069
0.00158447
0.0170349
0.0263538
0.0630078
0.0548804
0.0200569
0.0338215
0.0427461
0.024166
0.0393437
0.0172112
0.0343332
0.0576419
0.0577068
0.019695
0.0484789
0.0649622
0.0413238
0.0197116
0.0266489
0.0651361
0.0546805
0.0247063
0.0355073
0.0715805
0.0281327
0.0393802
0.0359144
0.0388676
0.0700934
0.0364787
0.0478341
0.0453976
0.0385106
0.0217899
0.0281094
0.0362391
0.0401742
0.0397944
0.0465463
0.0231807
0.0239387
0.0390186
0.0235114
0.0675748
0.0310294
0.0473759
0.031387
0.0730723
0.0335343
0.0452307
0.0506756
0.0188579
0.0182854
0.0327268
0.0216773
0.0362626
0.02167
0.0280089
0.0585851
0.0216282
0.0545583
0.024778
0.0305607
0.0520074
0.0445535
0.0191469
0.072822
0.0323436
0.0519981
0.0412971
0.0448664
0.0503001
0.00180195
0.0783412
0.0188698
0.0482058
0.0259038
0.0312387
0.0238697
0.0227383
0.0305294
0.0358292
0.035165
0.019978
0.0242697
0.036307
0.0252126
0.0229555
0.0321258
0.0120096
0.0608189
0.00372838
0.041994
0.0243886
0.0744362
0.0187386
0.0206129
0.0392994
0.0163897
0.0165613
0.0424468
0.0383062
0.0339522
0.0458143
0.0299743
0.0195635
0.00191577
0.0641517
0.0196478
0.00392746
0.0145729
0.0472607
0.01684
0.0166566
0.0257223
0.0486561
0.0349683
0.0218829
0.047353
0.0334384
0.0379365
0.0756395
0.0330621
0.0358206
0.0317891
0.0666863
0.0188468
0.0230712
0.0473507
0.0510403
0.04272
0.0436116
0.0336037
0.0507147
0.0446574
0.0439119
0.0757852
0.0441668
0.0248702
0.0310838
0.0402335
0.042331
0.0477649
0.0396043
0.0745537
0.00935698
0.0290618
0.0268376
0.0637884
0.0438416
0.0679998
0.0474093
0.0522289
0.0443371
0.0360389
0.0565165
0.0699664
0.0240009
0.0385226
0.0252608
0.0368313
0.0279953
0.0477034
0.0299384
0.0424694
0.0401585
0.0648289
0.032686
0.0464061
0.0391541
0.0322936
0.0215333
0.0511974
0.0461386
0.0450451
0.0403479
0.0389762
0.0288324
0.0387885
0.0438878
0.0628641
0.0525878
0.0285715
0.0459077
0.0721233
0.0346562
0.0179408
0.027241
0.0435422
0.0671448
0.0373417
0.0360935
0.0270732
0.0406936
0.0235819
0.0186969
0.0352346
0.00533019
0.00498487
0.0372554
0.0427853
0.0413704
0.0214452
0.0425622
0.0399577
0.0347547
0.0659157
0.0416081
0.0227843
0.0217878
0.0251951
0.0351329
0.0360285
0.0267853
0.0652166
0.0378105
0.0286979
0.0664386
0.0657864
0.0528449
0.0337466
0.037427
0.0396966
0.0319735
0.057047
0.0375011
0.0628536
0.0683006
0.0636039
0.0221423
0.020905
0.0424703
0.0307861
0.0317178
0.0172627
0.0537746
0.0162776
0.016176
0.0159499
0.0420933
0.0420348
0.0103746
0.0319459
0.0442132
0.0435234
0.0419505
0.00785704
0.0540152
0.031995
0.0186472
0.064218
0.0230342
0.045574
0.0626062
0.0263349
0.0223838
0.067621
0.0297868
0.03259
0.0305231
0.0233336
0.0273319
0.0443306
0.0590982
0.0256555
0.0624598
0.035868
0.0426132
0.0375968
0.070074
0.0663744
0.0204679
0.0339178
0.0262357
0.00862302
0.035514
0.0540269
0.0639353
0.0475283
0.0131296
0.0648354
0.0165426
0.0260689
0.0515298
0.047135
0.065365
0.0686959
0.0298026
0.056555
0.0451011
0.0316429
0.0340772
0.0373983
0.0343701
0.0690593
0.015491
0.0278496
0.0322302
0.046347
0.0481128
0.0322539
0.0341275
0.0468412
0.0364805
0.0587749
0.0498045
0.0346737
0.0354563
0.0339414
0.0319467
0.0458237
0.0220576
0.0248454
0.0357949
0.0108917
0.0225435
0.0158291
0.0232158
0.024715
0.021163
0.039572
0.0375013
0.0313219
0.052538
0.0676383
0.0277594
0.0181006
0.0433603
0.0463809
0.062827
0.025326
0.0240657
0.0408363
0.0252962
0.0620998
0.0258829
0.0213586
0.024629
0.0327852
0.0469216
0.0322539
0.0685356
0.060304
0.0434997
0.0267165
0.06392
0.0463859
0.0626322
0.0598243
0.0405869
0.0602225
0.0643778
0.0464351
0.0472857
0.0180211
0.0464811
0.0479083
0.0473836
0.0554143
0.0258092
0.0494347
0.0674041
0.0610024
0.0457062
0.0195092
0.0300491
0.0388718
0.0253461
0.0656863
0.023664
0.0307648
0.0614603
0.0449866
0.0659532
0.0681426
0.0198426
0.0154342
0.0204755
0.0525486
0.0630802
0.0506671
0.0476895
0.0454033
0.105632
0.139735
0.153852
0.158072
0.156528
0.151322
0.143972
0.135534
0.126732
0.118057
0.10982
0.102196
0.0952633
0.0890281
0.0834478
0.0784514
0.073952
0.0698552
0.0660645
0.0624792
0.10426
0.138003
0.152113
0.156421
0.155018
0.149968
0.142779
0.134495
0.125837
0.117294
0.109175
0.101658
0.094821
0.0886704
0.0831638
0.0782295
0.0737797
0.0697193
0.0659513
0.0623728
0.102841
0.136259
0.150363
0.154778
0.153522
0.148639
0.141617
0.133492
0.124981
0.116569
0.108566
0.101151
0.094403
0.0883298
0.0828887
0.0780082
0.0736003
0.0695699
0.0658203
0.062254
0.10138
0.134491
0.148607
0.15314
0.15204
0.147331
0.140483