/*--------------------------------*- C++ -*----------------------------------*\
  =========                 |
  \\      /  F ield         | OpenFOAM: The Open Source CFD Toolbox
   \\    /   O peration     | Website:  https://openfoam.org
    \\  /    A nd           | Version:  10
     \\/     M anipulation  |
\*---------------------------------------------------------------------------*/
FoamFile
{
    format      ascii;
    class       volScalarField;
    location    "250";
    object      nut;
}
// * * * * * * * * * * * * * * * * * * * * * * * * * * * * * * * * * * * * * //

dimensions      [0 2 -1 0 0 0 0];

internalField   nonuniform List<scalar> 
23845
(
0.0123405
0.0109063
0.00624148
0.0116117
0.0146056
0.0339363
0.0078941
0.00839546
0.044745
0.0164755
0.0165389
0.0423523
0.0407127
0.0427805
0.00587742
0.0255751
0.033228
0.0197903
0.0383004
0.0291661
0.0133311
0.0163857
0.0141957
0.0431716
0.0182925
0.0464952
0.010177
0.0321994
0.00294318
0.0305774
0.0123566
0.00116674
0.00440041
0.0219513
0.0376811
0.0272197
0.000966547
0.0379847
0.04501
0.0418651
0.0396132
0.0265426
0.0396645
0.025361
0.0487954
0.0378526
0.0154793
0.0246489
0.00210821
0.00164569
0.00517295
0.00790915
0.00121738
0.0356198
0.00111325
0.0367478
0.0116979
0.00945404
0.0124781
0.011553
0.00520458
0.0264124
0.0288188
0.00369353
0.0443622
0.0389634
0.00999125
0.0507896
0.0496065
0.0364568
0.0069728
0.00656232
0.0438003
0.00652344
0.0459314
0.00603052
0.0455547
0.0399891
0.0110093
0.0305851
0.0118611
0.00652569
0.0114502
0.00959818
0.00569175
0.036872
0.00747741
0.00112678
0.045302
0.034384
0.00422589
0.0394954
0.00321115
0.0287124
0.00918034
0.00486603
0.0326342
0.0230394
0.0467703
0.0157688
0.0322013
0.00950962
0.012454
0.000739517
0.00256735
0.0100969
0.0347812
0.0470862
0.0112449
0.0272451
0.0173081
0.0382551
0.00581143
0.0188244
0.0273353
0.0153422
0.0448631
0.0216004
0.00311312
0.00591438
0.0420425
0.0023333
0.039057
0.00688568
0.00909588
0.0452305
0.00575014
0.00166059
0.00551227
0.0143227
0.00412072
0.0156854
0.0159484
0.0425129
0.0302487
0.011953
0.000614527
0.0457346
0.0110011
0.0427214
0.00194068
0.0261876
0.0357302
0.0240088
0.0310837
0.0263396
0.0179694
0.00628314
0.00468105
0.0327595
0.00503958
0.0408361
0.0080199
0.0377532
0.00536181
0.0238072
0.0136636
0.0289139
0.00385862
0.00447757
0.0358595
0.00552292
0.00876516
0.0443438
0.0434181
0.0285227
0.0433849
0.00262516
0.0314872
0.0245097
0.0456937
0.0111037
0.043012
0.00780083
0.0427277
0.0103742
0.0369871
0.0203055
0.0474161
0.0299566
0.015451
0.0160418
0.00667587
0.0172782
0.0278244
0.0401614
0.0281833
0.00914503
0.00237523
0.0282081
0.00316317
0.0395823
0.039993
0.036047
0.0337586
0.0402394
0.00172695
0.00243398
0.000697615
0.0179838
0.0247223
0.0386218
0.00524737
0.0163216
0.00911611
0.00884414
0.00638348
0.0401197
0.0103461
0.0215143
0.0269158
0.00245892
0.0325041
0.0332723
0.00309978
0.00112601
0.0166897
0.0267641
0.000436199
0.00462168
0.04312
0.00622532
0.00157869
0.0271695
0.0245322
0.00493648
0.000616743
0.0387181
0.0326839
0.0425042
0.0303419
0.00273249
0.034448
0.0497311
0.0148318
0.00429103
0.0444897
0.012217
0.0412747
0.010407
0.00151697
0.0195172
0.0101141
0.0155215
0.00275905
0.0273888
0.0360416
0.0497237
0.00973448
0.00557542
0.0338237
0.028045
0.00510711
0.0436888
0.0063915
0.00422236
0.00588255
0.00631657
0.0281663
0.0417057
0.000808975
0.0281774
0.00626145
0.018068
0.0210672
0.0435811
0.0108597
0.00575262
0.0128527
0.0119648
0.0364225
0.010894
0.00470525
0.0373857
0.01667
0.0392439
0.00616065
0.0377517
0.00175352
0.0148958
0.00987046
0.0318313
0.00657443
0.0293845
0.0303718
0.00496191
0.00859375
0.0392989
0.00892181
0.00560077
0.0104369
0.00346504
0.00414832
0.00600265
0.00972311
0.0340376
0.00418284
0.0361353
0.0323379
0.00343874
0.00364506
0.00503266
0.00417129
0.0122977
0.0353267
0.0124954
0.00334938
0.00486302
0.0328835
0.00156982
0.00446249
0.00879912
0.0369778
0.0436242
0.00918616
0.00184312
0.00443692
0.0166605
0.00394794
0.0423885
0.00232332
0.00256337
0.00385046
0.0322929
0.00554675
0.0412729
0.0116393
0.0140135
0.00619123
0.0195901
0.00653314
0.0273306
0.00491055
0.0276117
0.00561665
0.0118299
0.0106697
0.0201597
0.0277551
0.0111676
0.0104312
0.00421054
0.0167841
0.0488389
0.0487023
0.00126998
0.0274074
0.00545714
0.0113583
0.00480437
0.0112919
0.00428441
0.00151898
0.00596706
0.00121287
0.0414899
0.0237966
0.0425396
0.00612779
0.00994266
0.00604608
0.0462158
0.0186765
0.0310861
0.00265472
0.0412887
0.00599846
0.0292983
0.00325192
0.0468107
0.024779
0.00369255
0.00261528
0.045269
0.0291798
0.00471751
0.00867611
0.0112914
0.0258151
0.00998265
0.00605883
0.028179
0.0140334
0.0491219
0.0493101
0.0392755
0.0315127
0.010875
0.0215618
0.00990953
0.00907148
0.0257269
0.00310075
0.00248461
0.00402976
0.00361541
0.0191535
0.0476573
0.0358648
0.0276074
0.0100893
0.0132901
0.00791547
0.00963989
0.0110081
0.00644794
0.0435149
0.00283222
0.00266227
0.00655188
0.005101
0.0500377
0.00757253
0.00518054
0.0136034
0.00820993
0.0131467
0.0167153
0.0383095
0.0166873
0.00340312
0.0284539
0.0434564
0.0114092
0.00682071
0.0112159
0.00308217
0.012281
0.00772817
0.00684352
0.0391642
0.0230133
0.00408732
0.0186684
0.0346587
0.0452734
0.0441329
0.0402737
0.00386837
0.00875964
0.0058246
0.00294663
0.00235247
0.00529798
0.0127281
0.00399414
0.0308014
0.014468
0.0337781
0.0102801
0.0110954
0.0406759
0.00263352
0.0273903
0.0495335
0.00452404
0.0121298
0.0160868
0.00714793
0.036613
0.00967561
0.0120129
0.000630874
0.0128416
0.0289785
0.0375417
0.0333667
0.0029648
0.0482976
0.00465621
0.0307251
0.0396049
0.0132121
0.00627084
0.00357038
0.0148941
0.0419834
0.00300816
0.0345662
0.0355341
0.0153868
0.0142878
0.0126641
0.0169301
0.0196564
0.00656047
0.0337621
0.0402296
0.00727988
0.00562063
0.0469851
0.00413531
0.00508258
0.0149088
0.00869192
0.0158291
0.0446884
0.00781528
0.0455797
0.0275495
0.00739694
0.00207913
0.0045811
0.0157833
0.00991908
0.0106349
0.0178948
0.0436039
0.0300059
0.00505374
0.0127293
0.00412623
0.00101631
0.0129655
0.0381247
0.0477901
0.0138706
0.00439525
0.00479187
0.0293982
0.000737588
0.0367166
0.0209653
0.00365058
0.0473302
0.00742586
0.00613642
0.00402566
0.0131901
0.00340013
0.00448086
0.00347644
0.0160294
0.0151585
0.0383714
0.0435409
0.0351417
0.00500207
0.016586
0.011067
0.00603203
0.0371155
0.0155478
0.0148531
0.0331907
0.0151605
0.0168202
0.0387402
0.0332279
0.0390397
0.0382585
0.033185
0.00714754
0.0368136
0.00910586
0.00919629
0.0255162
0.00421832
0.0273988
0.0292687
0.00966019
0.0115629
0.0118039
0.0296796
0.0269937
0.00242754
0.00281722
0.0445871
0.00351007
0.0436642
0.0475281
0.00726751
0.0400514
0.0341902
0.0226851
0.0157867
0.00678169
0.0044957
0.00701754
0.0164059
0.0465887
0.042467
0.0323879
0.00647795
0.00374657
0.0230503
0.0439399
0.0436797
0.00713259
0.0438155
0.0144692
0.00518906
0.0106175
0.0171012
0.00590056
0.0229184
0.0482841
0.0365576
0.0199029
0.0483527
0.0074382
0.034687
0.0170643
0.00615059
0.00953614
0.0166769
0.00661414
0.0167359
0.00713177
0.0247789
0.0153877
0.0138432
0.0107928
0.016458
0.00341127
0.0124356
0.0170334
0.0147912
0.0310525
0.0356196
0.0167524
0.00548259
0.0162766
0.0242778
0.0135108
0.0171626
0.0403782
0.0208229
0.042714
0.0270587
0.0407685
0.0364176
0.0145728
0.0325884
0.0413646
0.00528698
0.0126435
0.0222144
0.0464258
0.0179032
0.0128815
0.0211188
0.0297419
0.0436621
0.0132978
0.0168192
0.0123999
0.0437198
0.017161
0.00526775
0.0267636
0.0283339
0.0171807
0.01057
0.0045569
0.00387731
0.00387307
0.0189536
0.00656084
0.0177167
0.024027
0.0378634
0.0266717
0.0138173
0.0280005
0.0465435
0.042959
0.0159371
0.0134635
0.016498
0.028389
0.0169038
0.019302
0.0166192
0.016816
0.0169504
0.0170673
0.0170885
0.0205967
0.0302478
0.0178069
0.0175719
0.0311154
0.0181259
0.030449
0.0162473
0.0370146
0.0186446
0.0167228
0.0176341
0.0199425
0.0297407
0.016543
0.0163839
0.0163993
0.0166485
0.0168923
0.0168058
0.0170508
0.0170512
0.0190698
0.0176793
0.0218516
0.0181123
0.0224356
0.0251165
0.0188958
0.0205189
0.0197774
0.0395937
0.0337107
0.0133546
0.0426346
0.0313335
0.0333652
0.0204865
0.0336995
0.0186195
0.0210669
0.0166921
0.0166413
0.0175961
0.0212932
0.0335631
0.0275427
0.0231392
0.0273708
0.0169524
0.0407436
0.0165415
0.0222273
0.0200725
0.0288231
0.0338558
0.0167971
0.0238901
0.0172548
0.0222615
0.0382687
0.0330552
0.0479667
0.0229292
0.024979
0.00731102
0.0434778
0.0230605
0.0170736
0.02313
0.0322193
0.0295666
0.00619529
0.0317138
0.0493882
0.0165393
0.0336513
0.00629585
0.0189945
0.020691
0.0167966
0.0165556
0.0167004
0.0302561
0.0168587
0.0178916
0.0170558
0.0172324
0.0296332
0.0182698
0.0122169
0.0193396
0.0239645
0.0167609
0.0165037
0.0168033
0.0111935
0.0230921
0.031125
0.015179
0.0216214
0.027449
0.0200064
0.0180905
0.00445253
0.0385312
0.0210365
0.0239501
0.040405
0.0234111
0.02429
0.0238897
0.0206253
0.0320477
0.02541
0.027532
0.0225875
0.0316424
0.0139579
0.0188133
0.0313966
0.0217569
0.0226117
0.0332943
0.0165116
0.0229121
0.0190611
0.027402
0.0302525
0.0320693
0.0334573
0.0291797
0.0120534
0.020632
0.0164012
0.0293642
0.0243879
0.0173809
0.00360842
0.0216771
0.0429826
0.0378299
0.0465665
0.0466969
0.0332971
0.0424973
0.0463207
0.046227
0.0407475
0.0462294
0.0435152
0.0464433
0.0458191
0.0465734
0.0459082
0.0400077
0.0431998
0.0465426
0.0299413
0.0239966
0.0208452
0.00710786
0.016748
0.0469447
0.0456302
0.0280195
0.0185229
0.0164034
0.0186204
0.016389
0.0265052
0.0444004
0.0434118
0.0390127
0.0319906
0.0178204
0.0314933
0.0296909
0.0375089
0.0349486
0.0477346
0.00587149
0.0313099
0.02251
0.0304238
0.0164371
0.0245653
0.0346355
0.0347476
0.0387349
0.0220386
0.0265519
0.0380821
0.0199619
0.0418368
0.0413216
0.0437515
0.044063
0.0450236
0.0453939
0.0365697
0.0216061
0.0239697
0.0226045
0.0308971
0.0228734
0.0215058
0.0163511
0.0376176
0.0210045
0.038456
0.0444227
0.0340794
0.0456324
0.0254865
0.0410829
0.0452036
0.018955
0.0415539
0.0436906
0.016392
0.0332744
0.0230898
0.0138472
0.0173738
0.0294429
0.0174263
0.0344191
0.0186364
0.024184
0.0199176
0.00305532
0.0277676
0.0175078
0.0169592
0.0166987
0.0167598
0.0166736
0.0264151
0.0316196
0.0199705
0.0211352
0.00491054
0.00219075
0.0213907
0.0222793
0.0355064
0.0135615
0.029876
0.00560863
0.0240435
0.046405
0.0418004
0.0461139
0.0276981
0.0224299
0.0351828
0.0159306
0.0254786
0.0146635
0.0338479
0.0162746
0.02542
0.0283177
0.0178095
0.0177816
0.0171149
0.0341138
0.0243509
0.019128
0.0166924
0.0166042
0.0167425
0.0202687
0.0189425
0.0162594
0.0302259
0.0158806
0.0171678
0.0164839
0.0195925
0.0248736
0.0204631
0.0310522
0.0219209
0.0270448
0.022464
0.025867
0.0216594
0.0247911
0.017602
0.0270909
0.0194955
0.0298139
0.0133847
0.024976
0.0370753
0.0222868
0.0228397
0.0303535
0.0428018
0.0162708
0.0167537
0.0122471
0.0368608
0.0242332
0.0167316
0.0168695
0.0252764
0.0214176
0.0193417
0.0205856
0.0192277
0.0222404
0.0379102
0.0171614
0.0167901
0.0179394
0.018195
0.0168224
0.0171103
0.0404897
0.0286255
0.0257153
0.0238157
0.0277894
0.0253601
0.0369717
0.00159839
0.0356551
0.00444892
0.0388144
0.0329833
0.00169698
0.0253934
0.0508076
0.0329381
0.044876
0.0265364
0.0236574
0.0297114
0.0335577
0.0168286
0.00494541
0.0243699
0.0189903
0.0327753
0.0158332
0.0152716
0.013001
0.0162395
0.0247438
0.030696
0.0221379
0.0340622
0.0472737
0.0345849
0.0160666
0.0173277
0.0309505
0.0226764
0.0271476
0.0208017
0.0190503
0.0167057
0.0226806
0.0167776
0.0206169
0.0181106
0.0165996
0.0233409
0.0163975
0.0266837
0.0163953
0.0210382
0.0164083
0.0170301
0.0203324
0.0175111
0.0179926
0.0188123
0.0219089
0.0303415
0.0180608
0.0161906
0.0168707
0.0250586
0.0188621
0.0262108
0.040692
0.0243945
0.0480756
0.0173831
0.0214743
0.0302266
0.0219821
0.0384294
0.033082
0.0162976
0.0434545
0.0258847
0.0166098
0.029657
0.0465562
0.0166463
0.016173
0.0270627
0.00382724
0.00677172
0.0328883
0.0246023
0.022482
0.0162917
0.0234829
0.0252558
0.0162361
0.0259673
0.0163217
0.0164788
0.0170377
0.0174932
0.00241312
0.0177845
0.0203056
0.0247908
0.0189953
0.0161852
0.0347988
0.0284212
0.00375731
0.0205381
0.0472842
0.0436592
0.0212272
0.0279808
0.0231696
0.0255344
0.0344896
0.0166764
0.0215909
0.0223061
0.013995
0.0256353
0.0252737
0.0269823
0.0116626
0.0346862
0.0297421
0.0171135
0.0420673
0.0463366
0.0244035
0.0357124
0.042229
0.00788497
0.0417319
0.0254043
0.0270049
0.0161799
0.0170379
0.0164157
0.0168303
0.032983
0.0204231
0.0232722
0.0229473
0.0280634
0.0169165
0.0228558
0.032622
0.0259063
0.0184501
0.0258262
0.0105984
0.00903134
0.0295596
0.0326947
0.0331197
0.0162916
0.0293081
0.0447202
0.0174655
0.0240579
0.0118643
0.0271115
0.0371996
0.025846
0.0297858
0.0281794
0.0391701
0.0195013
0.02895
0.0189758
0.0297353
0.0389855
0.0195511
0.029647
0.0250479
0.0244821
0.031332
0.0222771
0.0231274
0.0259248
0.0226972
0.0168026
0.042218
0.0196541
0.0383972
0.0436842
0.0304528
0.0464091
0.0464884
0.0259847
0.0461427
0.0456471
0.0217118
0.045948
0.046453
0.018254
0.0466312
0.046619
0.0199324
0.0163003
0.015278
0.0402674
0.0354454
0.0189887
0.0411995
0.0269854
0.0152768
0.0212044
0.0159727
0.0288803
0.015541
0.0323726
0.024599
0.0243818
0.0162502
0.0308012
0.0162633
0.0137303
0.00211738
0.031836
0.0250468
0.0263263
0.0320826
0.0261066
0.0215273
0.023411
0.00545691
0.0182083
0.0221627
0.0170073
0.0343164
0.0167322
0.0256448
0.0144866
0.0370267
0.031478
0.0143813
0.0370882
0.0203216
0.026434
0.0358294
0.00448212
0.0261512
0.0133503
0.0211618
0.0168796
0.00865064
0.0114315
0.01652
0.0327195
0.0375471
0.0152519
0.0324116
0.0321159
0.0343792
0.0133065
0.031091
0.0351069
0.0404198
0.0140522
0.0427262
0.0320067
0.020183
0.0276371
0.00315616
0.0283282
0.0260817
0.0143152
0.0461997
0.00075684
0.0362238
0.00395469
0.0265276
0.0128871
0.0285376
0.0314037
0.0282627
0.0285727
0.0224894
0.0331129
0.0199672
0.019964
0.0404064
0.0331164
0.0267718
0.0209869
0.0219822
0.0392995
0.0259799
0.0263067
0.0258136
0.0279535
0.0204508
0.0193751
0.0242513
0.0221397
0.013326
0.0238814
0.0144395
0.0435216
0.0165756
0.0263445
0.0366707
0.00546538
0.0151849
0.0203012
0.0393211
0.0153127
0.0267452
0.0314621
0.0146884
0.0308218
0.010366
0.00506828
0.0148245
0.0215564
0.0417592
0.004811
0.0231709
0.0242518
0.0264027
0.014368
0.0116457
0.0279065
0.0324502
0.00491783
0.00972155
0.0340945
0.0146626
0.0138366
0.0342626
0.00446562
0.0285259
0.0132616
0.0238509
0.0243378
0.0427769
0.0153449
0.0123241
0.0356056
0.0054804
0.0134028
0.0427767
0.00686392
0.0353207
0.019067
0.0145888
0.0105444
0.0319317
0.0161945
0.0133654
0.0237704
0.0140543
0.027734
0.0238937
0.0233586
0.0288252
0.0140443
0.0266942
0.0389742
0.01673
0.0308227
0.030525
0.0223966
0.0369372
0.0182907
0.0231758
0.0155069
0.00914525
0.0135583
0.0264572
0.0221376
0.0303988
0.0254572
0.0198211
0.024906
0.00619578
0.0411957
0.0133386
0.000844449
0.0352194
0.0338533
0.0252364
0.0165928
0.0129154
0.011568
0.0172482
0.0194246
0.0166645
0.0377739
0.0294016
0.0342712
0.0481694
0.0268575
0.0270382
0.0145156
0.00411079
0.0339424
0.0370382
0.0281597
0.0118981
0.0299613
0.0233669
0.0263524
0.0218513
0.0232695
0.0255914
0.0170049
0.0175068
0.0196091
0.0275952
0.0182322
0.00716054
0.00647652
0.0248947
0.0262002
0.0181212
0.0209131
0.0387934
0.0261962
0.0272048
0.0281932
0.0217497
0.00202452
0.0412557
0.00634581
0.0278939
0.0264151
0.00972087
0.024218
0.0164774
0.0209136
0.022984
0.0209746
0.0322519
0.035867
0.0148219
0.0278331
0.0233676
0.0209499
0.0254287
0.0105954
0.0189507
0.0341618
0.0172391
0.0165614
0.00712073
0.0181614
0.0382282
0.0107723
0.0263382
0.0280825
0.0159584
0.0147802
0.00486353
0.00330348
0.0173153
0.0273327
0.0188711
0.0343359
0.0128812
0.0144427
0.0269644
0.0204973
0.0128851
0.0366606
0.0106561
0.0184527
0.0163401
0.0309465
0.0114284
0.0153541
0.0351939
0.0308208
0.00611322
0.0362199
0.0370616
0.0148122
0.0280296
0.0283655
0.0156771
0.0166253
0.00439209
0.0456273
0.0417566
0.0450619
0.00397805
0.0374478
0.0417244
0.0347691
0.00939951
0.0305633
0.0413287
0.0366505
0.00935163
0.0245735
0.0266166
0.0274302
0.0274053
0.0292386
0.0412566
0.00766401
0.0172208
0.0268292
0.0267833
0.01679
0.0165212
0.0434439
0.0245689
0.0270488
0.0279341
0.00624985
0.0366638
0.0160221
0.027565
0.0237398
0.00889001
0.00443168
0.00231191
0.00650249
0.00869295
0.0362089
0.013369
0.0278542
0.0341586
0.0229215
0.0147409
0.0261806
0.00626001
0.00342934
0.0272301
0.0262825
0.0128192
1.50942e-05
0.0231187
0.008013
0.0167319
0.0141514
0.0268409
0.0144348
1.16624e-05
0.0407676
0.0119931
0.037381
0.029174
0.0125924
0.00272985
0.00667218
0.0106358
0.0111393
0.0402541
0.00153139
0.0345429
0.0157941
0.0281038
0.011673
0.0143071
0.0403224
0.0147768
0.0294782
0.0395985
0.0444324
0.00227227
0.0123944
0.00621704
0.0061305
0.027329
0.0104703
0.0325532
0.0352495
0.0318044
0.016001
0.00823788
0.0408226
0.0350878
0.0103859
0.00521575
0.0173341
0.0331451
0.0103354
0.0330801
0.0244166
0.0368749
0.0471193
0.0335379
0.0435966
0.0274415
0.00608466
0.0290701
0.0267783
0.0272038
0.0273834
0.0111733
0.0155895
0.0475879
0.0105586
0.0162333
0.0282818
0.0336786
0.00329174
0.0438047
1.15091e-05
0.0103179
0.0094908
0.0290534
0.0253789
0.00959221
0.0110607
0.0367999
0.0282632
0.0114235
0.0132588
0.014564
0.0370805
1.25375e-05
0.0267807
0.00620384
0.02598
0.00422458
0.0273283
0.0292192
0.0232676
0.0199996
0.00335982
0.0302203
0.0114828
0.00245368
0.0183629
0.0267736
0.017576
1.64516e-05
0.0162585
0.0335328
0.0158208
0.0154321
0.0127056
0.0479068
0.0110817
0.0172585
0.0117494
2.63017e-05
0.0417529
0.031101
0.0163544
0.00584778
0.0176451
0.0103635
0.0425811
0.040179
0.0366672
0.0252946
0.00575687
0.0344059
0.0305779
0.0137904
0.0178585
0.00881304
0.00988143
0.00489406
0.00672495
0.012013
0.00202299
0.0123968
0.0161868
0.0352815
1.86146e-05
0.0439207
0.010546
0.042787
0.00360052
0.00415601
0.0200519
0.0182636
0.046726
0.0287787
0.0218797
0.0307072
0.0169377
0.0318322
0.0104678
0.0144973
0.0405959
0.0167437
0.0156598
0.0120715
1.12229e-05
0.00456233
0.00950038
0.00476101
0.00930702
0.00261278
0.0170245
0.0460135
0.00331451
0.0458995
0.0056989
0.0237177
0.0391038
2.27599e-05
0.0159919
0.0454192
0.0109108
0.0262468
0.00764732
0.0145929
0.0342846
0.00686258
0.023579
0.0141081
0.0415591
0.0214775
0.01016
0.000753954
0.0344022
0.0432515
0.0406237
0.0217989
0.0270578
0.00467305
0.0177397
0.0320781
0.0097769
0.0450334
0.0077271
0.0290033
0.0308681
0.0177716
0.0050822
2.06499e-05
0.00768148
0.00858795
0.00952797
0.0328039
0.0130475
0.0307344
0.0312447
0.012039
0.0411529
0.0056718
0.00965522
0.00942648
0.00937508
0.018832
0.0109784
0.0221281
0.0393382
0.0221921
0.0390497
0.0114303
0.0223437
0.0373145
0.0311387
0.00551502
0.0281577
0.00773133
3.15816e-05
0.0177713
0.00160856
2.66693e-05
0.0128845
0.0289535
0.00421484
0.0433307
0.0424987
0.0275821
0.00488885
0.0272099
0.0363707
0.0318675
0.0146378
0.0326304
0.0101471
0.0308371
0.0184011
0.0328733
0.0315108
0.0138902
0.0347094
0.038434
0.0155846
0.0399805
0.0183729
0.0404853
2.18909e-05
0.0255216
0.0379928
0.00298398
0.013869
0.00989398
0.0309246
0.0339525
0.00719456
0.00880908
0.00684942
0.0100933
0.00750849
0.00801714
0.0380931
0.00960494
0.00948997
0.0381236
0.0101365
0.0404205
0.0054283
0.00379606
0.00431357
0.0230557
0.00774428
0.000981329
0.0446941
0.0469751
0.029806
0.00755847
0.0108761
0.0033838
1.42316e-05
0.00907935
0.0323777
0.0300249
0.0097708
0.00421204
0.0112165
0.0408574
0.0165052
0.0272274
0.00738172
0.0028522
0.0096784
0.00750711
0.00573476
0.0110466
0.0348921
0.00651314
0.0107319
0.00328935
0.0102783
0.00677979
0.0288966
0.00963578
0.00361487
0.041361
0.00607107
0.0121051
0.0385587
0.00791744
0.0348016
1.4649e-05
0.00757596
0.014644
0.010978
4.26042e-05
0.0358727
0.0117957
0.00512167
0.0422399
0.00981225
0.0436786
0.0226864
0.0152776
0.044944
0.0269286
0.0157673
0.0333585
0.0376263
0.0301695
0.0434681
0.00994279
0.0300926
0.0140742
0.000699383
0.00766912
0.0326562
0.0385248
0.0399238
0.00760349
0.0403756
0.00508909
0.00760149
0.017287
0.0099414
0.0100471
0.00656147
0.0158427
0.0352447
0.00821149
8.43919e-05
0.00525724
0.0243095
0.0296383
0.0410851
0.016835
0.0140857
0.036623
0.0315452
0.0366105
0.00865206
0.0352873
0.0352101
0.0316565
0.0183431
0.00740582
0.0365312
0.0371113
0.0406108
0.00874826
0.0334304
0.00874345
0.0185221
0.0309384
0.0188337
0.0317703
0.00656431
0.00569239
3.84072e-05
1.2688e-05
0.0228781
0.0299878
0.00846689
0.0448452
0.00500798
0.0322906
0.0466817
0.040385
0.0150199
0.00863869
0.0410988
0.0136768
0.000639008
0.00505346
0.00242223
0.00882247
0.0449285
0.00778614
0.0037598
0.021183
0.0187132
5.27669e-05
0.0124949
0.0493884
0.01012
0.043527
0.0113515
0.0135939
0.0115183
0.0365394
0.0392433
0.00906676
0.0291827
0.0294054
0.027227
0.0120908
0.0298794
0.00951064
0.0427303
0.00809823
0.041772
0.0431268
0.0336875
0.0350041
0.00794932
0.00963552
0.031927
0.0348479
0.0247729
0.0496765
0.0250972
0.02855
0.00246655
0.00152136
0.0066427
0.0453283
0.0372376
3.0213e-05
3.43664e-05
0.00293085
0.00420391
0.00977236
0.0376014
0.0123341
0.00717353
0.0275983
0.00897292
0.0163513
0.0156872
0.0255254
0.00783373
0.0498527
3.2925e-05
0.0463828
0.00429879
0.0094823
0.0376305
0.00729024
0.0410733
0.00355367
0.0126383
0.0384853
0.0410471
0.00685864
0.00423603
0.0352529
1.84379e-05
0.0107807
0.0432036
0.00470563
0.0261479
0.0071616
0.0358194
0.0419386
0.0202451
3.35241e-05
0.0308155
0.00713599
0.016481
0.0331788
0.0498575
0.0462453
0.0316179
0.0297689
0.00799616
0.0174945
0.0364807
0.0114845
0.0297895
0.0293559
0.0268539
0.0343979
0.00774536
0.0132578
0.0397921
0.0309093
0.0161575
0.0183791
0.00471565
0.0158978
0.0431447
0.0355058
0.0094903
0.043526
0.0358274
0.00678206
0.00888545
0.0496218
0.0461518
0.0021739
3.44563e-05
0.00385482
0.0371369
0.0444476
0.0037529
0.0245418
0.0453247
0.0491944
0.00941822
0.0127729
0.00502178
0.0248377
0.00956298
0.0126631
0.00552432
3.89392e-05
0.0413903
0.0155531
0.036614
0.000770775
0.0299963
0.0377562
0.0276248
0.0214729
0.0306227
0.017646
0.0456457
0.0347173
0.0190728
0.00786384
0.0351108
0.00664326
1.51522e-05
0.0115068
0.0381499
2.4383e-05
0.0160001
0.00503096
0.00535325
0.0272652
0.0144431
0.0452041
0.0160467
0.0101593
0.0479234
0.00854139
0.0234357
0.0401033
0.037615
0.0318744
0.00788307
0.0306006
0.0288382
3.64965e-05
0.00492429
0.0444283
0.00855387
4.08794e-05
0.00626875
0.0106862
1.93309e-05
0.00450148
0.0345775
0.0141121
0.0206055
0.046998
0.0424127
0.0281573
0.0436594
0.0375803
0.0148027
0.0056084
4.71698e-05
0.0424962
0.00773188
0.0338986
0.0315244
0.0466472
0.00889746
1.73197e-05
0.041424
0.0271042
0.00749743
0.00694674
0.0025742
0.00984069
0.0141019
0.0138154
0.0477202
0.0439969
0.0276337
0.0487175
0.00891533
0.0324642
0.0170538
0.0107101
0.00078026
4.23296e-05
0.0297817
0.0401558
0.013274
0.00866646
0.00921811
0.0251765
0.0248377
0.0053678
0.00459677
0.00704253
0.00480582
4.62569e-05
0.00528828
0.042065
0.024077
0.0352291
0.00395973
0.0412555
0.0467317
0.0333423
0.0119815
0.0225753
0.0119123
0.00808827
0.00794218
0.0383321
0.00833508
0.012985
1.69806e-05
0.0482644
0.0045953
0.00820726
0.00279561
0.0462003
0.00889441
0.012409
0.0015774
0.0473257
0.02051
0.0347859
0.0294234
0.020079
0.00049987
0.0195964
0.00121877
0.00576421
0.00298132
0.0285084
0.00481558
0.0306699
0.00851631
0.0370038
0.0113443
0.0303974
0.0292864
3.22297e-05
0.00570803
0.0446536
2.27669e-05
0.0148574
0.0181154
0.0469856
0.04348
0.00868721
1.78076e-05
0.0401869
0.0397534
0.0411053
0.0110801
0.0380811
0.0335307
0.0332186
0.0386311
3.91915e-05
0.0431147
1.47902e-05
0.0438964
0.00171164
0.00394634
0.0180592
0.0124093
0.00175132
0.0325684
0.0438082
0.0432934
0.0350821
2.50181e-05
0.0362661
0.0294458
0.0105168
0.00664946
0.00866863
0.0136265
0.00175132
0.0394051
0.0343375
0.0279888
0.00850489
0.00859442
0.0468398
0.00621341
0.02673
0.00673315
0.00832214
0.000543605
0.0370992
0.00849877
0.034928
0.0424745
0.000611679
0.00387329
0.0343729
0.0389601
0.0102399
0.011853
0.0431925
0.0463667
0.0124127
0.00902382
0.0477956
0.0282712
0.00328523
0.0283684
0.0114217
0.0483429
0.00381672
2.75225e-05
0.0425177
3.91929e-05
0.00842376
0.0146647
0.00894628
0.00886819
0.00942077
0.00749403
0.0236875
0.0273976
0.0314758
0.0452487
0.0311899
0.00923222
0.0334264
0.00500793
2.98824e-05
0.0422005
0.043001
0.0390102
0.043356
0.0431568
0.0459201
0.0183938
0.036045
0.0416268
0.0269656
0.043134
0.0374651
0.0367113
0.0409169
0.0156522
0.0160706
0.00216593
0.00705915
0.00740366
0.0077596
0.0346603
0.00242743
0.0441732
0.00056938
0.0457054
0.0261632
0.0082171
0.0116938
0.0415237
0.0405914
0.0293642
0.002367
0.0152604
0.00992971
0.0347961
0.0319756
0.0459039
0.00938176
0.00785785
0.0216571
0.0452135
0.0356309
0.0201208
0.0318203
0.0131586
0.020595
0.0376687
0.043713
0.0374178
0.0369086
0.0107272
0.00100753
0.00338097
0.0176395
0.00355956
0.0106092
0.00641668
0.0156357
0.0118387
0.00782033
0.00173009
0.0322474
0.00510744
0.00868828
0.00527324
0.00151351
0.0128583
0.03981
0.00945601
0.0329065
0.000639716
0.00701168
0.000758894
0.0393417
0.0345597
0.0113629
0.00540565
0.0416547
0.0063037
0.0117166
0.0343955
0.0453978
0.0470647
0.0485594
0.0381959
0.0284326
0.0290197
0.00489348
0.020109
0.0101447
0.0100444
0.00216895
0.0406308
0.0113998
0.0115114
0.00177009
0.0303168
0.0113877
0.0281283
0.00392232
0.0116724
0.00720791
0.0484042
0.0399487
0.045811
0.000693265
0.00979667
0.0261561
0.0402128
0.00707442
0.0114585
0.0415503
0.0479086
0.0402543
0.00572954
0.0435954
0.036033
0.00730667
0.0114028
0.0270966
0.00588494
0.012917
0.00545758
0.0271279
0.00211386
0.008155
0.0350399
0.0180273
0.00522146
0.0117207
0.0296716
0.000594136
0.00985084
0.000914297
0.0105673
0.00953433
0.0121487
0.0397611
0.00540526
0.0469241
0.0354863
0.0393703
0.0150739
0.0225782
0.00311295
0.00729382
0.0081114
0.0157967
0.0419624
0.0124427
0.0276204
0.030065
1.34636e-05
0.0107824
0.0441994
0.0375561
0.0107604
0.0472531
0.00588165
0.0437819
0.00541685
0.0286138
0.00689656
0.0465595
0.00717549
0.0268445
0.0151918
0.00718165
0.00240898
0.000910359
0.0491776
0.00292988
0.0144197
0.00886472
0.0139809
0.0264403
0.01597
0.0169379
0.0431849
0.0147779
0.0105572
0.0353297
0.010281
0.00420233
0.0462096
0.0081165
0.0396099
0.00870531
0.028931
0.0354713
0.0471388
0.0149507
0.00516858
0.0053821
0.0280463
0.0182061
0.0424755
0.0288727
0.0454649
0.0350373
0.0295124
0.0202788
0.0185233
0.0294789
0.0437375
0.00797918
2.44143e-05
0.0469416
0.0393989
0.0109972
0.0045321
0.0176212
0.040128
0.0451168
0.00442419
0.0154325
0.0276883
0.0489122
0.00353641
0.0160115
0.043038
0.0364787
0.0184242
0.000183991
0.00866383
0.0154239
1.18444e-05
0.00297071
0.0206685
0.0108267
0.004926
0.0302218
0.00861384
0.0307826
0.0476145
0.0404392
0.0030683
0.0396366
0.0110914
0.0102385
0.0282397
0.0154559
0.0040964
0.040651
0.00250648
0.033456
0.0115317
0.0129425
0.0192422
0.0102966
0.00731859
0.0237546
0.0354473
0.0104505
0.0366162
0.00764668
0.00296113
0.00478617
0.0324792
0.0350462
0.0298945
0.00722826
0.0447949
0.0475276
0.0319953
0.0197926
0.0302628
0.0180947
0.0308402
0.0372802
0.0100299
0.00840132
0.0272233
0.0432452
0.00507673
0.0378317
0.0433728
0.0419999
0.00116481
0.0270285
0.0375332
0.00354294
0.0398376
0.0295335
0.0243092
0.0100238
0.0290025
0.0120207
0.00592546
0.0322076
0.00657826
0.0238382
0.025927
0.00519583
0.00779682
0.00353611
0.0385729
0.0159686
0.0446077
1.43059e-05
0.00538274
0.0272082
0.0196941
0.021629
0.00826967
0.0481761
0.0455414
0.0353556
0.0410181
0.0400735
0.0277037
0.00318673
0.0288448
0.0355889
0.0447793
0.0378123
0.000827422
0.0104313
4.39807e-05
0.0261903
0.0195922
0.00463921
0.0299689
0.0370496
0.0404372
0.0274908
0.0278625
0.0202055
0.0387858
0.0352115
0.0149108
0.00796435
0.00395367
9.70633e-06
0.0116492
0.0316515
2.4862e-05
0.00188396
0.0181583
0.00104595
0.00164097
0.003769
0.0118969
0.0401223
0.00316367
0.0467114
0.00841624
0.0459972
0.0146306
0.0330977
0.0383807
0.00707685
0.0129167
0.00125004
0.0408793
0.0164779
0.0158015
0.02186
0.046765
0.0345086
0.0361316
0.00924858
0.0339048
0.00457593
0.0161967
0.0268926
0.00833182
0.0483114
0.0425076
0.0310393
0.0422542
0.0128551
0.00067685
0.0449074
0.0318551
0.011164
0.0344567
0.0110067
0.00933691
0.015656
0.0385178
0.0453211
0.0118451
0.00695033
0.0351839
0.0478559
0.0059369
0.0474641
0.0369455
0.0173302
0.0302939
0.00366603
0.0175956
0.00986676
0.0316705
0.0162381
0.0436845
0.0425246
0.03286
0.0138121
0.0501363
0.0490729
0.0470674
0.0110157
0.00747069
0.0464029
0.0164991
0.00880269
0.0123869
0.0382549
0.008495
0.0069296
0.00334053
0.0285027
0.00496393
0.0436803
0.00795907
0.0471708
0.0105917
0.00245075
0.00485622
0.0485196
0.0269118
0.00917513
8.42494e-05
5.33584e-05
0.0374494
0.00340725
0.0484047
0.0332888
0.00584252
0.0107901
0.0395512
0.0117103
0.0267968
0.0374772
0.00467322
0.0022136
0.0101791
0.0435633
0.0427927
0.0138941
0.0300369
0.0424938
0.0151612
0.00676414
0.00700301
0.00847922
0.0458628
0.0409704
0.00696313
0.0100987
0.00926203
0.0116462
0.00788826
0.00852089
0.0459415
0.0427357
0.0380583
0.0396409
0.0400481
0.000971731
0.0121541
0.0286579
0.0273034
0.0279135
0.0488768
0.019857
0.000730304
0.00759484
0.0495124
0.0484494
0.0477607
0.000529084
0.0140109
0.00879238
0.0309628
0.00956497
0.029644
0.0419694
0.0120758
0.0327712
0.00269371
0.0139719
0.0395895
0.00753473
0.0451395
0.0045497
0.00641501
0.0306524
0.00860211
0.0440926
0.0135978
0.0036486
0.0120359
0.0380281
0.00815905
0.00710642
0.0337931
0.0462265
0.00614733
0.000666675
0.0341211
0.0122704
0.00824003
0.0235768
0.000920104
0.00729034
0.000969444
0.00630712
0.00517382
0.00501077
0.00812542
0.0120918
0.00737697
0.0103796
0.0496014
0.0378047
0.0443366
0.0097641
0.0458575
0.0090263
0.00105538
0.0449041
0.0456657
0.0495656
0.0506943
0.0448793
0.00784578
0.0161549
0.0107829
0.0117354
0.0085455
0.00789868
0.0466952
0.0410401
0.00790797
0.0417582
0.0378752
0.0451681
0.0394412
0.000783418
0.046062
0.00251408
0.048509
0.0314833
0.00188155
0.0470146
0.0111376
0.00724115
0.00989558
0.00648162
0.0298261
0.0310978
0.0380822
0.0377672
0.0127546
0.0059417
0.00511326
0.0398368
0.00336241
0.00868242
0.00575057
0.043147
0.0420496
0.0438149
0.0413551
0.00874682
0.0133023
0.00935722
0.0484128
0.00619604
0.0125007
0.0371302
0.012072
0.00945254
0.0333296
0.0113547
0.0119551
0.0140374
0.0309955
0.00117804
0.0497036
0.0506177
0.0319594
0.012407
0.0465677
0.00560695
0.0134452
0.00482927
0.0493964