/*--------------------------------*- C++ -*----------------------------------*\
  =========                 |
  \\      /  F ield         | OpenFOAM: The Open Source CFD Toolbox
   \\    /   O peration     | Website:  https://openfoam.org
    \\  /    A nd           | Version:  10
     \\/     M anipulation  |
\*---------------------------------------------------------------------------*/
FoamFile
{
    format      ascii;
    class       volScalarField;
    location    "250";
    object      p;
}
// * * * * * * * * * * * * * * * * * * * * * * * * * * * * * * * * * * * * * //

dimensions      [0 2 -2 0 0 0 0];

internalField   nonuniform List<scalar> 
23845
(
-0.0376751
-0.0699151
-0.166126
-0.164545
-0.0468422
0.0080061
-0.150761
-0.168863
0.000643598
-0.0164296
0.00475134
0.00480976
-0.0115379
0.00210497
-0.157899
-0.0011175
-0.00965228
-0.0050887
-0.005161
-0.00235369
-0.0568652
0.00498949
-0.0997746
0.00392261
-0.000176708
-0.00193679
-0.129201
0.00301664
-0.174382
-0.00105601
-0.159768
-0.155686
-0.166108
-0.0052773
0.00617105
0.00251103
-0.165645
0.00601356
0.00279068
-0.000379039
-0.00379253
-0.00873349
-0.00848232
-0.00981446
0.00375664
-0.0107911
-0.0608071
-0.00151501
-0.147729
-0.176768
-0.156163
-0.158248
-0.147789
0.00648178
-0.158324
-0.00978565
-0.0952396
-0.166424
-0.0572276
-0.140177
-0.172244
-0.00920836
0.00154159
-0.173799
0.00425878
-0.0113222
-0.142338
0.00178694
0.00357617
-0.00379094
-0.170593
-0.170605
-0.00649952
-0.157852
0.00374466
-0.159058
0.00242036
0.00525283
-0.166615
-0.00438975
-0.108561
-0.149775
-0.0810258
-0.170496
-0.162387
0.00694407
-0.145247
-0.145007
0.00200485
-0.00429986
-0.160979
0.000223414
-0.175702
0.00406164
-0.163221
-0.165392
-0.00876592
-0.00153887
0.00282932
-0.0462932
-0.00687492
-0.150966
-0.0217436
-0.183187
-0.17774
-0.169831
0.00743985
0.00404934
-0.142876
-0.0099757
0.00290634
0.00585176
-0.166179
-0.0077266
0.00122071
-0.044073
0.00286624
-0.00851876
-0.173665
-0.172261
0.00435939
-0.159774
-0.00186447
-0.172576
-0.147471
-0.000200851
-0.171863
-0.177693
-0.167646
-0.0846369
-0.166633
0.000980213
0.00475301
0.00177293
-0.00458994
-0.0275066
-0.180168
0.00262375
-0.136983
0.00482016
-0.173962
-0.0090998
0.00627821
-0.00903839
-0.000496525
-0.00996708
-0.0258184
-0.158357
-0.17052
-0.000879334
-0.152697
-0.00849573
-0.131115
-0.00343747
-0.164552
0.00168178
-0.0257132
0.0084628
-0.167667
-0.169694
0.000120269
-0.160618
-0.161629
0.00364469
-0.00923184
-0.000930928
0.0015762
-0.16256
0.00038383
-0.00924243
-1.32921e-05
-0.165882
0.0049487
-0.173194
-0.00275318
-0.164804
0.00211412
0.00333742
0.00678228
0.008901
-0.0419638
-0.0421712
-0.155907
0.00219536
-0.000600756
-0.00998549
-0.00992971
-0.170025
-0.174206
-0.00889275
-0.174866
0.00437722
0.000176312
0.00210594
0.00187612
0.00494477
-0.180703
-0.175222
-0.190328
0.00232734
-0.000903775
0.00475097
-0.171252
0.00359518
-0.169399
-0.162753
-0.168691
0.00561498
-0.0796636
-0.00417648
-0.00477355
-0.166785
-0.00178057
-0.000648139
-0.15139
-0.16276
0.00763516
-0.00920907
-0.174973
-0.166772
-0.00563994
-0.159426
-0.179804
0.00174113
-0.00947565
-0.156865
-0.177789
0.00676448
0.00403993
-0.00159728
0.007786
-0.148631
0.00687235
-0.00073208
-0.0347135
-0.173181
0.00390533
-0.160918
0.000242994
-0.17031
-0.147033
-0.0173501
-0.168537
-0.0287812
-0.160463
0.00062691
0.00723601
0.010887
-0.163393
-0.152553
-0.00837387
0.0074829
-0.157328
-0.0123093
-0.151026
-0.163086
-0.171879
-0.163157
0.00191543
0.0048404
-0.143239
0.00745553
-0.171674
0.00230732
0.0016795
-0.000135277
-0.164398
-0.172855
-0.142833
-0.163561
0.00725586
-0.167905
-0.153399
0.00205143
0.00308483
-5.44754e-05
-0.162851
0.00747799
-0.186422
-0.0986357
-0.170702
0.0041966
-0.158442
7.26539e-05
0.00752476
-0.172854
-0.171727
0.00376374
-0.164194
-0.161728
-0.164575
-0.151719
-0.173727
-0.163284
-0.1643
0.00677815
-0.171296
0.00669098
0.00730753
-0.171686
-0.170478
-0.155597
-0.173431
-0.162348
0.00208001
-0.16058
-0.175537
-0.15449
-0.00733787
-0.178807
-0.152618
-0.125893
-0.0076283
0.00272714
-0.167621
-0.174962
-0.172358
0.00875876
-0.16409
-0.0077292
-0.177457
-0.16488
-0.169606
-0.000142502
-0.160414
0.00318962
-0.165416
-0.0954976
-0.174055
-0.00369075
-0.159881
-0.00137127
-0.159037
0.0073423
-0.169906
-0.16176
-0.163962
-0.00555711
-0.0102836
-0.165275
-0.167198
-0.169943
0.00332901
-0.000106843
0.0047021
-0.189052
0.00772239
-0.163932
-0.165932
-0.155754
-0.160977
-0.172091
-0.176856
-0.16097
-0.147961
0.000857238
-0.00923851
-0.00319114
-0.16349
-0.166343
-0.170275
0.000234368
-0.0218977
-0.00138153
-0.173601
0.00372157
-0.171229
0.0041244
-0.172916
-0.00093856
-0.00896216
-0.1628
-0.178729
0.00443121
0.00781501
-0.161302
-0.166226
-0.162565
-0.00923803
-0.170456
-0.158753
0.00656371
-0.0813382
0.00337845
-0.000731511
0.00596086
0.00831611
-0.164698
-0.00150318
-0.164468
-0.142332
-0.00976771
-0.17582
-0.17912
-0.152067
-0.169129
0.0017481
0.00430982
-0.00327168
0.00647126
-0.166728
-0.147283
-0.162245
-0.168582
-0.129079
-0.157631
0.00432917
-0.176011
-0.176591
-0.17263
-0.15975
0.00466879
-0.149635
-0.17255
-0.0292726
-0.166554
-0.138977
0.00252036
0.00493169
-0.0385832
-0.172431
-0.00818493
0.00359776
-0.165803
-0.172338
-0.0612858
-0.180347
-0.157333
-0.172919
-0.171986
0.00529524
-0.00597549
-0.170885
-0.00494329
-0.0097833
0.00118304
0.0042582
-0.0103837
-0.174091
-0.173618
-0.160419
-0.176664
-0.177119
-0.172442
-0.15323
-0.172548
-0.0011479
-0.123733
0.0063232
-0.168284
-0.166989
-0.00255933
-0.183023
0.00676069
-0.00556603
-0.16981
-0.126713
0.00311956
-0.162562
0.00509911
-0.0966041
-0.165254
-0.17973
-0.110896
0.00568375
0.00630716
0.0030497
-0.149803
-0.00341086
-0.16403
-0.000996702
0.0049958
-0.151048
-0.172328
-0.17337
-0.0263495
-0.00161488
-0.158298
0.00321487
-0.00289668
-0.0938866
-0.127641
-0.157625
0.00493478
-0.000745892
-0.156828
0.00659407
0.00621083
-0.161626
-0.171163
-0.00552964
-0.171398
-0.163662
-0.113385
-0.170846
-0.0734146
-0.000447155
-0.167655
0.00400936
0.00675102
-0.143336
-0.17103
-0.169496
-0.0840083
-0.169291
-0.168365
0.00156394
-0.0111227
0.00256316
-0.170286
-0.158111
-0.171142
-0.166802
-0.154782
0.00185499
-0.00225594
-0.13792
-0.163439
-0.16361
-0.00975021
-0.159427
0.00352629
-0.00473566
-0.173213
-0.00545549
-0.155493
-0.160658
-0.17248
-0.0826789
-0.170049
-0.172036
-0.177652
-0.0100976
-0.10944
-0.00577871
-0.0106694
0.00434443
-0.173236
-0.0454955
-0.167302
-0.171171
0.00625311
-0.088808
-0.0916078
-0.000436613
-0.0786812
0.00579054
-0.00709837
0.00198709
-0.00922815
-0.00308079
0.00695319
-0.173374
-0.00628688
-0.167338
-0.112957
-0.00893925
-0.168897
0.00743265
0.00297888
-0.163175
-0.165768
-0.107554
-0.00297948
-0.0100025
-0.179935
-0.176202
-0.00335781
-0.173287
-0.0120959
-0.00113911
-0.152205
-0.00950056
0.0032226
-0.00584658
-0.0258511
-0.174573
-0.1585
-0.163275
-0.0453792
-0.00391094
0.00459218
-0.000193992
-0.161893
-0.17128
-0.0093723
-0.00778732
-0.00308181
-0.161446
-0.00123423
-0.118539
-0.160439
-0.0570008
0.00167583
-0.167631
-0.00926421
0.00111219
0.00531717
-0.00544934
0.00271376
-0.165093
0.000726298
-0.0240533
-0.159238
-0.170772
0.00197729
-0.160808
-0.0344214
-0.152409
0.0012451
-0.0916177
-0.0310997
-0.103222
-0.0261103
-0.170889
-0.0323388
0.00571398
-0.0126974
-0.00305912
0.00197565
-0.0268204
-0.17089
-0.0551318
0.000728345
-0.0497161
-0.000200041
-0.00401398
-0.00793843
-0.00732861
-0.00653336
-0.0114259
-0.00840313
-0.114543
0.00438626
0.00602539
-0.164365
-0.0232483
-0.00854935
-0.00505038
0.00111922
-0.0828688
-0.00240306
0.00218443
-0.0118197
-0.0296434
0.00395414
-0.0536002
-0.0123098
0.0025743
-0.164796
0.00107704
0.00770995
0.00410604
-0.169589
-0.173631
-0.175578
-0.170612
0.000955747
-0.172376
0.0040462
-0.00265224
-0.00452992
-0.0050338
-0.0477775
-0.00549941
-0.00472937
-0.00803012
-0.0225552
-0.14721
0.00482598
-0.00409102
0.00106686
0.00226214
0.0017665
-6.06075e-05
0.00730821
-0.00101205
0.00532057
0.000855701
-0.00537802
0.00293952
-0.00290666
-0.0095512
-0.00415975
-0.00571833
0.0045882
-0.0104396
-0.00566946
0.00391878
0.00304044
-0.00693006
-0.00902469
0.00149402
0.00335859
0.00532695
0.00909123
0.00715619
-0.000204562
0.0068324
-0.00172545
0.00182509
-0.00358287
0.000993134
-0.00458022
-0.00596075
-0.00572257
-0.00665431
-0.00804969
-0.00761038
-0.00731018
-0.010563
-0.144427
0.00513404
-0.0092139
-0.0100005
-0.00838645
0.00745109
0.00113509
-0.00888963
0.00352698
0.00508487
-0.00171702
-0.00934455
-0.0108523
0.000655659
0.00059846
0.000578135
-0.00239869
-0.00169346
0.00179217
-0.00957348
-0.00585338
0.000584972
-0.010737
0.00723821
-0.00601819
-0.0151734
-0.00914455
0.00294531
-0.00704014
0.00389165
-0.00948686
-0.00109125
-0.172002
-0.00199235
-0.0102522
0.00326633
-0.00934013
-0.00818142
-0.00422133
-0.148083
-0.0112669
0.00355101
0.00397519
-0.00998137
-0.171333
0.00217895
0.00151183
0.00935028
0.00765879
0.00609966
-0.0110474
-0.000942073
0.00123375
0.0043797
-0.00186716
0.000949643
-0.00505498
-0.0609146
-0.00675908
-0.00826745
0.0042675
0.00665687
0.00946101
-0.166328
0.000576314
-0.00536848
-0.0138746
0.00279978
-0.00601651
-0.00772314
-0.00494407
-0.157128
0.00156095
0.000583802
-0.00880977
-0.0115184
-0.00904691
-0.00923433
-0.00840596
-0.00859958
-0.00881737
-0.00605578
-0.00921269
-0.00942087
-0.00907236
-0.0822911
-0.00217997
-0.00470315
-0.00641634
-0.0080134
-0.00929634
0.00266729
0.00141316
0.00316051
-0.00229355
-0.00956312
-0.00593866
-0.0107656
-0.00858324
-0.0333376
0.000343736
0.00759454
-0.00302282
-0.00829302
-0.00235992
-0.17313
0.000608213
-0.0021125
0.0019876
-0.0129134
-0.0116113
-0.00126079
-0.0070739
-0.00917599
-0.0115575
-0.00425925
-0.0133643
-0.00865058
-0.0130272
-0.0128359
-0.0101838
-0.00719001
-0.00385269
-0.00797148
-0.0107285
-0.00280837
-0.00963729
-0.00846013
-0.168438
0.0083977
-0.000946112
2.70094e-07
-0.00974322
0.00319122
0.00438721
0.00373854
0.00274422
-0.00540207
-0.00659322
-0.00242125
0.00417986
0.00106109
-0.00416047
-0.0038045
-0.0105378
-0.00865891
-0.00177193
0.00247187
-0.157361
0.00747805
0.00286506
-0.00921945
0.00243567
-0.0072719
-0.00942822
-0.00115283
-0.00224785
-0.020834
-0.00927531
-0.00147713
-0.030466
-0.00638157
-0.00501057
-0.00776132
-0.00918002
-0.00871833
-0.00772316
-0.00744742
-0.00948416
-0.0076055
0.000660387
-0.00712006
-0.000505299
0.000111028
0.00665056
-0.000879576
-0.0257489
-0.00177304
-0.00927596
-0.000911685
-0.00699001
-0.0113034
-0.00465376
-0.00843834
-0.0363805
-0.00716993
-0.00898149
0.00261076
-0.00565775
-0.0054414
-0.141305
-0.00137412
-0.00923055
-0.00292219
-0.00837034
-0.00520055
-0.00791947
0.00109459
-0.175946
0.00775685
-0.00233177
0.00182636
0.00321187
-0.0177046
0.00457042
-0.00936144
-0.000188281
-0.00627959
-0.00802242
-0.167184
-0.179738
-0.00873332
-0.00967039
0.000827004
-0.128373
-0.00884727
-0.161823
-0.00926105
-0.0124782
-0.00730114
-0.00813857
-0.0091683
-0.00924774
-0.00852303
-0.0118955
-0.0082741
-0.0518548
0.000700371
0.00836749
-0.00945245
0.000504993
-0.00118824
5.41421e-05
0.00359244
-0.00525216
0.000452598
-0.0044039
0.00394669
0.006124
0.00813045
-0.00499441
0.00140189
0.00502975
-0.00116678
0.00546806
0.00291398
0.00400418
0.00171322
-0.00712416
-0.0068013
-0.0060507
-0.00846369
-0.000714316
-0.00948989
0.00048306
-0.00827318
-0.00672383
0.00119142
0.000517031
0.000569802
-0.00969397
-0.123858
-0.00628817
-0.0107718
-0.00891376
-0.00921478
-0.00497623
-0.0113948
0.00425305
-0.00964976
-0.03851
-0.00871821
-0.01058
0.00671247
0.00518541
-0.00536585
-0.000807933
-0.00136332
-0.0033105
-0.000613686
0.000299247
-0.00510313
0.00377
0.00700688
0.00348642
0.00412737
0.00904625
0.00591573
-0.0111187
-0.00655469
-0.00650947
-0.00920808
-0.000594045
0.00230911
-0.0111219
-0.189518
-0.00741029
-0.166041
-0.0101535
-0.00195689
-0.178446
-0.00501326
-0.00421785
0.00671621
-0.0085585
-0.00923817
-0.00835775
-0.0077704
-0.0105595
0.00541878
-0.173861
-0.00759638
-0.00206216
-0.00408923
-0.07625
-0.104576
-0.0325071
0.00611135
-0.00782757
-0.010669
-0.0092692
-0.00147493
0.00260597
0.00505366
-0.0350207
-0.00758006
-0.000733802
-0.0186633
-0.00632938
-0.0290409
-0.0423202
0.00721758
-0.00947669
-0.0017083
0.00151722
0.00272266
0.00850688
0.00141616
0.00595391
-0.00579575
0.0034502
-0.0086605
0.00183237
-0.00143847
-0.0080738
-0.00300445
-0.00465441
-0.0057199
-0.00932703
-0.010412
-0.00092503
-0.0772144
0.00432998
-0.00699955
-0.0201242
-0.00681011
-0.00520652
-0.00747052
0.00250519
0.00108492
-0.00706564
-0.0105655
-0.00858398
-0.00802664
-0.00919909
-0.0237445
-0.0126776
-0.0046178
-0.0165474
-0.00995437
0.00335222
3.91338e-05
0.00670802
-0.00124943
-0.170558
-0.166324
-0.00887892
0.00111544
0.00218591
0.0064988
-0.00497564
-0.00578534
0.00555811
0.00120198
0.00340989
0.00141344
-0.000987688
-0.0018362
-0.183927
-0.00361673
-0.000145211
-0.00857768
-0.00620245
0.000497518
-0.00509158
-0.00569176
-0.171181
-0.00773958
-0.00548482
-0.0124011
-0.00854689
-0.000145226
-0.00927973
-0.00624394
-0.00616824
0.000989957
-0.0091094
-0.00946338
-0.101128
-0.00424803
-0.00562078
-0.00441249
-0.120045
-0.00859406
-0.00738131
-0.00454799
-0.00844205
0.00173818
-0.00788076
-0.00940661
-0.00683647
-0.174343
-0.00917265
-0.00895879
5.18025e-05
0.0054909
-0.00756945
0.00332507
0.00127736
-0.00488147
-0.00622339
-0.00920683
-0.00865722
-0.00479508
0.00459527
-0.00628823
-0.00195369
-0.00461259
-0.00334998
-0.00637846
-0.159674
-0.172819
-0.00455426
-0.010529
-0.00404512
-0.0670703
-0.00682321
-0.00886981
0.00471998
-0.0082123
-0.164385
-0.00442178
0.00743034
-0.00289541
-0.00257883
-0.00860809
-0.00744105
0.00301147
-0.00411584
0.00437589
-0.00777048
-0.00901092
0.00171389
-0.00810078
-0.00114536
-0.00179805
-0.00406294
0.00245586
-0.00401024
-0.00491755
-0.00276999
-0.000356159
-0.00731028
-0.00705067
-0.00729159
-0.00143351
-0.00115935
-0.0112081
-0.0132762
-0.00810147
-0.0127062
-0.00686203
-0.0240024
-0.0109705
-0.00985527
-0.0498369
-0.0110672
-0.0129792
-0.03469
0.00829948
-0.0734012
0.00374982
-0.00399314
-0.00615229
0.00552356
0.00327695
-0.0190468
0.00304987
0.00295545
-0.00639156
-0.0105317
-0.0101213
-0.0093599
-0.00413856
0.00511308
-0.00443748
0.00212461
-0.00513665
-0.186511
-0.00333715
-0.00910791
-0.00378905
0.00754227
-0.00296816
-0.0086185
-0.00875594
-0.159165
-0.00363032
-0.00916975
0.00608555
-0.00560807
0.00597942
-0.00556192
-0.0678836
-0.0110833
-0.00559469
-0.0790713
-0.00894921
-0.00294415
-8.91063e-06
-0.00764391
-0.171951
-0.00192486
-0.0185765
0.000761557
0.00559612
-0.173446
-0.166249
0.00569766
-0.00711958
-0.00953987
-0.0842187
-0.00761
-0.00779485
-0.00995184
-0.0425294
0.00474305
-0.00552402
-0.011423
-0.0192292
-0.00803331
-0.00552779
-0.00736275
-0.0012691
-0.174382
-0.00385482
-0.00218802
-0.0175369
0.00295391
-0.1722
-0.00963988
-0.168129
-0.000239148
-0.0222313
-0.00624619
-0.00734414
-0.00469477
-0.00296766
0.000136164
-0.0097569
0.00264131
0.00366237
-0.0083755
-0.00790615
-0.000261369
0.00293651
0.00278439
0.00505316
-0.00416464
-0.00677625
-0.00306415
1.75458e-06
-8.84069e-05
-0.00635252
-4.63818e-05
-9.20408e-05
-0.0157807
-0.00471519
-0.0691996
-8.92828e-05
0.000866806
-0.00528794
-0.00578883
-0.165041
-0.00227432
0.00261379
0.00502516
0.00205226
-0.00720303
-0.00790956
-0.00309791
-0.00770142
-0.135022
-0.173304
-0.013278
-0.000693869
0.00376148
-0.17344
-0.00106946
-0.00226758
-0.00291268
-0.00063899
-0.0995139
-0.00102508
-0.00966599
-0.161846
-0.163957
-0.00347076
-0.0078723
-0.0169939
-0.00903489
-0.169668
-0.00962807
-0.0314506
-0.00709247
-0.0142871
-0.0011524
-0.00460215
-0.115305
0.00720784
-0.16484
-0.022677
-0.000438624
-0.173996
-0.00758837
-0.00452996
-0.0223854
-0.167684
-0.000623308
0.00482254
-0.0881479
-0.00675055
-0.0126614
-0.00770597
-0.00870801
-0.00170041
-0.00191652
-0.00781338
-0.00151544
-0.00687385
-0.0374631
-0.00418145
-0.00963637
-0.00710271
-0.00649922
0.0014123
-0.00227611
-0.00868427
-0.123688
-0.00590134
-0.00243436
-0.00213387
-0.000101978
-0.00379967
-0.000700362
-0.00867871
-0.170449
-0.0071614
-0.0122181
-0.169541
-0.00241928
-0.00177529
-0.00105752
0.00392663
-0.017621
-0.0805621
0.00336769
-0.00671864
0.000771042
0.00582468
-0.00135843
-0.00977066
0.00132634
0.00223437
-0.00839977
-0.0169027
-0.169908
-0.00769852
-0.00907545
-0.00356975
-0.122999
-0.00838046
-0.000639581
-0.00783333
-0.00279253
-0.00873958
-0.00335366
0.00622219
0.00550525
0.000900734
-3.08795e-05
0.000592767
-0.154962
-0.166417
-0.00787828
-0.00173294
0.00430956
0.000391547
-0.00536433
-0.00366604
-0.00747764
-0.000628784
-0.00127949
-0.17277
0.0020763
-0.157112
-0.008706
-0.000546736
-0.104265
-0.00258291
-0.0055423
-0.00123571
0.00207743
0.00298067
-0.000634277
-0.000875339
-0.00617417
-0.000732194
-0.00669219
-0.00665241
-0.00351684
-0.165554
-7.70894e-05
-0.00477943
0.000670261
-0.00235816
-0.16563
0.00319048
-0.00771702
-0.118968
-0.000878553
0.00251611
0.00754678
-0.104459
-0.171594
-0.170896
-0.00040798
-0.00379912
0.00361963
-0.00167103
-0.118877
-0.00179662
-0.0011507
0.00219009
-0.0448741
-0.00941333
-0.122164
0.00278447
0.00729843
-0.00560311
-0.0429265
-0.0041362
-0.00304588
-0.00347971
-0.173417
-0.000308561
-0.00224314
-0.0175892
0.00553702
0.00137119
-0.00969631
8.1166e-05
-0.164537
0.00324442
0.00355804
0.0012983
-0.168441
-0.00561481
-0.00541932
-0.00390785
-0.172357
-0.00600247
-0.009653
-0.0034937
-0.173546
-0.00254761
0.00101861
-0.00297917
0.00669773
0.0067969
-0.00589638
-0.147343
0.00531323
0.00221481
-0.00168382
-0.068164
0.00367695
-0.0102014
0.00260583
0.00273377
0.00671421
-0.170098
-0.00342094
0.00476614
0.00726084
0.00280124
-0.169204
-0.169773
-0.168352
-0.147443
-0.11383
-0.000558226
-0.00850417
-0.0023372
-0.000994357
-0.00797616
-0.106984
-0.00244683
-0.156556
-0.173874
-0.00908071
-0.00866084
-0.155645
-0.173387
-0.0171587
-0.148035
-0.0106905
-0.117045
0.000896249
-0.0124936
-0.177178
0.00557054
-0.158288
0.00381848
0.00532749
-0.0738523
-0.174976
-0.171409
-0.0878536
-0.0548394
-0.00785656
-0.177783
-0.0105997
-0.0244898
0.00338256
-0.12832
-0.00175421
-0.00615001
-0.0627047
0.00201529
-0.00136111
0.00236552
-0.176136
-0.157952
-0.165477
-0.170083
-0.00748008
-0.0547513
0.00811964
0.00842572
0.00733737
0.00100078
-0.171924
0.00280254
-0.00700755
-0.0881051
-0.155494
0.00230348
0.000843021
-0.165174
-0.00582902
-0.00833051
-0.0101761
-0.00698988
-0.00846664
0.0036027
0.00505592
-0.156785
-0.00916796
-0.00779663
0.0021281
-0.00133033
-0.166628
-0.00839959
0.00372959
-0.168578
-0.00497891
-0.00450747
-6.17233e-05
-0.171877
-0.0130813
-0.178034
-0.170966
-0.170375
-0.00757967
-0.00747612
-0.0996571
-0.0687186
-0.00150823
-0.00642396
-0.0549335
-0.0706346
-0.117204
-0.000953835
-0.175847
-0.00818593
-0.165892
-0.00821957
-0.166618
0.00510986
-0.00528999
-0.00871928
0.000498303
-0.171263
0.00413412
-0.165628
-0.168184
-0.00164528
-8.60357e-05
-0.0293573
-0.177032
-0.05558
0.0062602
-0.00144511
-0.00162278
-0.10013
-0.000268616
-0.166858
-0.0504125
-0.165279
-0.170542
0.00451742
0.00146864
-2.61254e-05
-0.163049
0.00241328
-0.0763835
0.00078791
-0.0046703
-0.00563919
-0.00726184
-0.173251
-0.00652699
0.00498489
-0.117707
0.00207208
-0.114862
-0.0811633
-0.174095
-0.165483
-0.0733968
-0.15255
-0.161146
-0.00181406
-0.00392389
-0.175738
-0.00759509
-0.163679
0.00463798
-0.169608
-0.172878
-0.00708151
-0.00145455
-0.0124327
-0.00827845
-0.00735524
0.00229208
0.000100862
0.00592509
-0.070387
-0.0365334
-0.0115483
0.0011503
0.00549316
-0.158226
-0.174583
-0.163064
-0.168644
-0.168435
-0.094744
-0.176429
0.00556244
-0.00136946
-0.17202
-0.00648487
-0.156195
-0.0144777
-0.00264813
-0.17257
0.00344264
0.00123741
-0.167008
-0.00675363
-0.132117
-0.0348798
0.00141774
-0.155719
-0.00810375
-0.0610796
-0.00509608
-0.0070133
-0.11442
-0.187169
-0.00114024
-0.0127505
-0.00955543
-0.00185073
-0.00781879
-0.159083
1.32215e-05
-0.00204882
-0.0954942
0.00442967
-0.171282
-0.000473595
0.00391849
-0.000214621
-0.166351
-0.174299
-0.172823
-0.172918
-0.144012
0.00160241
-0.151968
0.00592929
0.00763007
-0.163969
0.0054783
-0.167224
-0.107979
-0.124504
-0.171087
0.00247862
-0.154426
-0.0036304
-0.00689347
-0.00562701
-0.0105196
-0.167075
-0.00768006
-0.0110006
-0.00134804
-0.159148
0.00628531
-0.154381
-0.168192
-0.000941161
-0.174289
-0.169841
-0.109803
0.00804803
-0.166242
-0.00961273
0.00417112
0.00613061
-0.170254
-0.00579143
0.0019809
-0.000608241
-0.0239445
-0.00815266
-0.164524
-0.00846891
-0.00237173
0.00217064
0.000419762
-0.117753
-0.00898122
-0.00541451
-0.0576041
0.000598344
-0.00270566
-0.0115002
-0.17172
0.00256539
0.00089485
-0.176701
-0.0982588
-0.106019
-0.00928277
0.00629515
-0.159333
-0.101961
-0.153408
-0.0855863
-0.158101
-0.153841
0.00210561
-0.164131
-0.136596
-0.00549199
-0.169971
0.00565359
-0.172865
-0.170384
-0.17083
0.00132963
-0.138744
-0.186646
0.00177949
0.00262266
0.00836591
-0.159723
-0.164063
-0.156846
-0.180115
-0.131326
-0.0040121
0.00519251
-0.121143
-0.171007
-0.165204
-0.000301282
-0.0588411
-0.00743529
-0.166207
-0.175029
-0.170659
-0.172341
-0.171783
-0.167521
-0.0108401
-0.158449
-0.167794
-0.182722
-0.142788
-0.169455
0.00222286
-0.165385
-0.168978
-0.00407801
-0.156142
-0.147874
-0.00576659
-0.163933
-0.0015474
-0.181936
-0.159731
-0.094445
-0.106974
-0.163704
-0.00075043
-0.103332
-0.163685
-0.00817585
-0.128409
-0.011995
-0.0036436
-0.00512913
0.00283862
-0.00718705
0.003819
0.00250598
-0.0109649
0.00466678
-0.0104066
-0.116347
0.00669492
-0.0165601
-0.181831
-0.173107
0.00804875
-0.00099163
-0.00752115
-0.159329
0.00500655
-0.164762
-0.145292
0.00474579
-0.154321
-0.171194
-0.158965
0.00060039
-0.00702799
-0.142267
-0.144259
-0.169438
-0.00741527
0.00745218
0.00369763
0.00644981
-0.124712
-0.0105649
0.00382993
-0.0109908
-0.174182
0.00217974
0.00180158
-0.000141473
-0.00055596
-0.173559
-0.000382737
-0.00370614
-0.00873081
-0.126639
-0.00751833
-0.161508
-0.00490873
0.00156015
-0.00364232
-0.00204498
-0.17249
-0.172296
-0.165926
-0.179764
0.00279625
0.0020624
-0.155982
0.00224241
-0.171448
-0.00344681
-0.0126058
-0.0107829
-0.04559
-0.152363
-0.000286411
-0.0589795
-0.18137
-0.163873
-0.169665
-0.136284
-0.00462889
-0.172775
-0.172307
-0.00435435
-0.00317086
-0.145301
-0.0589055
0.000668312
-0.168351
-0.000417172
-0.131833
-0.0725317
-0.157916
0.00616479
-0.00291683
-0.156375
-0.00705289
-0.00302838
-0.00858351
-0.124332
0.00860257
-0.16846
-0.0066072
-0.15448
0.00622044
0.000679439
-0.00329405
0.000457913
-0.143287
-0.162009
-0.00687409
-0.00751861
-0.00541537
0.000547788
0.00222085
-0.00877897
-0.152162
-0.175236
-0.154694
0.00427324
0.000270433
-0.167736
-0.160958
-0.152075
-0.173788
-0.144405
-0.00862249
-0.136946
-0.144509
0.00424267
-0.15031
0.00828937
-0.00166644
-0.00796297
-0.135394
0.000327605
-0.165443
0.000840774
-0.168391
-0.163212
-0.000303929
-0.154806
-0.00770316
-0.169222
-0.119112
-0.00135347
-0.0121819
-0.156511
-0.169497
-0.00178266
-0.183164
-0.0998761
0.00360054
-0.171483
-0.0082682
-0.172872
-0.0100156
-0.000743957
-0.0027537
-0.143366
-0.00864914
-0.168763
0.00210734
0.00316899
6.25944e-05
0.000953925
0.00513181
-0.00731625
-0.174482
-0.0578648
-0.000865855
-0.0371587
0.00189655
-0.00523519
-0.00820898
0.00445281
-0.145544
-0.0344859
0.00553891
-0.000764709
0.00639372
-0.00456783
-0.167959
-0.000995515
-0.0109645
-0.00587036
-0.166158
-0.00507623
-0.00877557
-0.169514
-0.135838
-0.00026445
0.00103916
-0.169725
-0.15193
-0.173207
0.00682056
-0.00354968
-0.170126
-0.000150415
-0.00261221
-0.000585544
-0.110288
-0.0895858
-0.163216
-0.00770235
-0.149698
-0.155983
-0.163053
-0.154907
-0.00898401
-0.00239624
0.0017698
-0.172714
0.00543111
-0.00589842
-0.00109403
-0.0109854
-0.00287408
0.00439152
0.00237712
-0.00598666
-0.00112468
-0.168666
-0.00686652
-0.152229
-0.18101
-0.0795372
-0.000416833
-0.142393
-0.0482605
-0.170446
-0.16575
-0.00181617
-0.00319549
0.00729814
-0.0065631
-0.126883
0.00320851
-0.172615
-0.0035085
-0.0110399
0.00174263
0.00724237
-0.165689
-0.00880686
-4.1033e-05
-0.162914
-0.162558
-0.00267036
-0.164706
-0.157581
-0.157304
-0.161843
-0.184556
-0.168572
0.0078637
-0.127105
-0.011407
0.000855943
-0.00422579
0.00583175
-0.00267987
-0.00892988
-0.0949436
-0.171261
-0.147202
0.00289376
-0.172538
0.00517548
0.00437646
0.000784241
-0.14517
-0.183554
-0.000553644
0.0048847
-0.170707
-0.171568
-0.178844
-0.153508
-0.0460247
-0.108949
-0.000819314
0.00222605
-4.24252e-05
-0.00047103
-0.165408
0.00622062
-0.0311782
-0.103991
-0.184866
-0.14941
0.000863068
-0.00252569
-0.139773
-0.166534
-0.171784
0.000450441
-0.0111735
-0.173275
-0.164938
-0.152214
-0.171885
-0.14543
-0.171872
0.00513871
-0.00495202
-0.00358818
-0.168891
0.00373749
-0.0118621
-0.00715651
-0.100049
-0.00611573
-0.157617
-0.170265
-0.162943
0.00558908
-0.118314
-0.136291
-0.182022
-0.000554542
-0.166395
-0.117402
-0.177763
-0.00592996
-0.120822
-0.156398
-0.181343
0.00090926
-0.0137484
-0.00191435
0.00424237
-0.00134808
-0.175511
0.00331489
-0.165052
-0.158894
-0.177139
0.00521077
-0.16394
0.00867298
-0.167536
0.001652
-0.0893121
0.00599278
0.00716627
-0.146922
-0.173023
0.002174
-0.14317
-0.0471225
0.00405129
-0.00107016
0.00215247
-0.16608
-0.186362
-0.00114461
0.00123955
-0.00986241
-0.0524302
0.00259158
0.00692932
0.00111196
-0.00322033
-0.160244
-0.00895429
-0.178131
6.67041e-06
-0.179423
-0.162528
-0.0429863
-0.146166
-0.17337
0.00774746
-0.00929601
0.00359795
0.000892082
-0.185545
-0.00822374
-0.00121785
-0.147249
-0.173569
-0.16398
-0.0628296
-0.182131
-0.00875906
0.00328197
-0.00285152
-0.172451
-0.172878
-0.00174803
-0.166421
-0.00463434
-0.15869
-0.154294
-0.177297
-0.0110272
-0.149788
0.00623486
0.00562137
-0.17878
-0.171789
-0.00875533
-0.00108443
-0.170473
-0.162345
0.00203981
-0.00120342
-0.152297
-0.171484
0.000983502
0.00823681
-0.171969
-0.00798376
-0.124545
0.000960197
-0.168938
-0.154787
-0.00702642
-0.144141
-0.167664
-0.00609894
-0.150148
-0.149539
-0.0862759
-0.143497
0.00129675
-0.00526999
-0.00671299
0.00213223
0.00491923
-0.167331
-0.00118554
-0.168945
-0.152191
0.00326121
-0.000661954
0.00604695
0.00189489
0.00191863
-0.00102896
-0.0022232
-0.00730919
-0.000536958
-0.00443777
-0.0104728
-0.00164955
-0.00766243
-0.0089779
0.00343906
-0.000277124
-0.161575
-0.173575
-0.167903
-0.169908
-0.00413583
-0.17499
-0.00135306
-0.178152
-0.00122119
0.00239319
-0.135624
-0.165216
-0.00483855
0.000220369
-0.0080825
-0.18529
-0.00169894
-0.167461
0.00126849
-0.00667062
0.00184539
-0.0930018
-0.167583
-0.00285448
-0.00551902
-0.00915396
-0.00267844
-0.00449625
-0.0438308
-0.00230632
-0.00406578
0.00198522
0.00619872
-0.00950577
-0.0830861
-0.163349
-0.173341
-0.0120841
-0.174582
-0.0838527
-0.173453
-0.0230093
-0.159478
-0.163069
-0.175903
-0.00143265
-0.166375
-0.11106
-0.168917
-0.176127
-0.151166
-0.00130176
-0.171454
-0.00508805
-0.176834
-0.152961
-0.171054
-0.00831568
0.000904789
-0.144508
-0.166406
0.00521235
-0.173968
-0.165151
-0.0105256
0.00198933
0.0010921
-0.000903355
-0.00532827
0.0011962
0.008701
-0.160428
-0.00286127
-0.135275
-0.147581
-0.171323
0.00510163
-0.159719
-0.152458
-0.183912
-0.000237004
-0.165775
0.00797888
-0.164773
-0.0920841
-0.152747
0.00315041
-0.00159648
-0.00135308
-0.175632
-0.169542
-0.0021046
-0.000143128
-0.173138
-0.0871205
0.000887596
-0.00454687
0.000228887
-0.164676
-0.00489299
-0.00816796
-0.168389
-0.16591
-0.00530426
-0.164913
-0.0972769
-0.165
0.00248595
-0.180739
-0.168173
0.00125766
-0.0017112
-0.169561
-0.163865
-0.00994203
-0.179107
-0.146278
-0.167668
-0.170996
-0.168839
-0.138877
0.00482605
-0.170161
-0.00810004
0.00805535
0.00184215
0.0036601
-0.00311871
-0.17878
-0.153399
-0.173681
-0.0684437
-0.000788508
-0.151823
0.00762334
-0.000451562
-0.180742
-0.155188
0.00160142
0.00622265
-0.145082
0.00184558
-0.162258
-0.00464795
-0.168161
0.00493394
-0.171626
-0.00132499
-0.167304
0.000707797
0.00402732
-0.159473
-0.181784
-0.156906
0.00104626
-0.179402
-0.0447282
-0.168777
-0.13508
0.000282259
-0.0240721
-0.00373185
0.00154654
-0.0832183
-0.121178
-0.000888742
-0.13983
-0.159025
-0.00129596
-0.165193
-0.00977952
-0.140052
0.00508015
0.0078259
0.00196543
0.00429877
-0.168007
-0.171227
0.00246633
-0.0260731
0.00267399
-0.00438532
-0.00600393
-0.00565722
0.00574148
-0.00336502
-0.00312051
-0.00291907
-0.0106443
-0.149789
-0.149289
-0.00262289
-0.00247618
-0.144001
-0.168439
-0.00184903
-0.00336676
0.00113033
-0.172278
0.00528257
0.0033213
0.000811666
-0.173298
0.00421727
0.00211943
-0.00907101
-0.0094195
-0.173688
-0.154418
0.00414175
-0.178874
-0.172824
-0.00384689
-0.142036
-0.167866
-0.000241958
-0.161744
0.000430181
0.00164885
-0.00905635
-0.174308
-0.00693653
-0.152685
-0.114792
-0.00395783
0.00893839
-0.179358
-0.00799706
-0.166549
-0.0090384
-0.132315
-0.149585
-0.00418867
-0.168039
-0.156502
-0.00452451
-0.00416457
-0.165552
-0.00680952
-0.155246
-0.174531
-0.169061
0.00148725
-0.00583563
-0.00619959
-0.169151
-0.00258941
0.000652301
-0.00179294
-0.004079
-0.00815346
-0.00414903
-0.00191266
0.00642451
-0.146437
-0.171529
0.00159457
0.00256438
-0.152859
-0.0106659
-0.00847943
-0.000807798
-0.146229
-0.00327859
-0.00888779
-0.167611
-0.00735931
-0.00507989
-0.00507171
-0.131884
-0.00713711
-0.047502
-0.171016
-0.00815413
-0.173358
0.00204028
-0.00764913
-0.167666
-0.159434
-0.175076
-0.00528639
-0.0213627
-0.0043885
-0.179166
-0.15991
-0.0041613
-0.0151745
-0.00488343
-0.172554
0.00189453
0.00251043
-0.011357
-0.00408392
-0.0113657
-0.00577138
-0.156019
-0.0025424
0.000265433
0.00195897
-0.0104007
-0.170916
-0.151413
-0.18791
0.00200574
-0.00468371
-0.164404
0.00590393
0.00275244
-0.0111002
0.00337824
0.00562463
-0.00184188
-0.00887965
-0.00840217
-0.030679
-0.171928
-0.172705
-0.189361
-0.141322
0.00322916
-0.157899
-0.172377
-0.0084819
-0.154255
-0.182628
-0.155277
-0.0651639
-0.0122657
-0.164738
-0.0124352
-0.161562
0.00171929
-0.0582277
-0.00905141
-0.00934653
-0.161142
-0.129222
-0.149755
0.00214948
0.00572455
0.00771827
-0.00294138
-0.00915768
-0.00795321
0.00242207
-0.173085
-0.000691331
-0.165896
0.00629374
-0.00877401
-0.168667
5.57379e-05
-0.00951327
-0.0021227
-0.00860482
-0.100703
-0.183
0.000967383
-0.00868422
-0.144122
-0.00117431
-0.145893
-0.168673
-0.0561594
-0.00425495
0.00384297