/*--------------------------------*- C++ -*----------------------------------*\
  =========                 |
  \\      /  F ield         | OpenFOAM: The Open Source CFD Toolbox
   \\    /   O peration     | Website:  https://openfoam.org
    \\  /    A nd           | Version:  10
     \\/     M anipulation  |
\*---------------------------------------------------------------------------*/
FoamFile
{
    format      ascii;
    class       surfaceScalarField;
    location    "250";
    object      phi;
}
// * * * * * * * * * * * * * * * * * * * * * * * * * * * * * * * * * * * * * //

dimensions      [0 3 -1 0 0 0 0];

internalField   nonuniform List<scalar> 
38623
(
0.202603
-0.208315
0.0872978
-0.0815904
-0.068178
0.0769305
0.151962
-0.160715
-0.00616159
0.0117918
0.0454712
-0.0511024
0.00370251
-0.00198532
-0.0232232
0.0215059
0.024754
0.058818
-0.0521138
-0.0314471
-0.0718433
-0.150206
0.139295
0.0827544
0.0858248
-0.0700528
0.0749218
-0.0906931
-0.00842047
0.00909195
-0.00712169
0.00645023
0.0124714
0.0107485
-0.143097
-0.0301976
0.0690928
-0.261177
0.222277
0.121845
0.139627
-0.13895
-0.122526
-0.12911
0.113435
-0.00702045
0.0226972
0.300343
-0.0151115
-0.307098
0.0218664
-0.132139
0.120161
-0.00616203
0.0181432
0.036325
0.0498511
-0.0544356
-0.0317404
0.0266688
-0.207982
-0.0280844
0.209399
-0.00445132
0.286269
-0.00652183
-0.275296
-0.00135961
0.236794
-0.01311
-0.222325
-0.00246247
-0.0109585
0.258167
-0.244747
0.278743
-0.168081
0.143375
-0.254039
0.170734
0.112092
-0.0426315
-0.240194
0.130339
0.0943118
-0.102807
0.260794
-0.224891
0.0098692
-0.0457711
-0.127773
0.173111
-0.157517
0.112175
0.032051
0.208774
-0.0303177
-0.210505
0.00359159
0.343218
-0.328234
-0.018582
0.0160859
-0.166991
-0.0459633
0.196866
0.14405
-0.1179
-0.306024
0.279875
-0.00924627
-0.00113653
0.00192644
0.00845629
-0.155382
0.198886
0.235239
-0.0157704
-0.0212503
0.0211605
0.0158604
0.00627239
-0.00156434
0.000791878
-0.0054998
0.0342625
-0.0357464
-0.0380261
0.03951
0.244611
-0.012743
-0.233228
-0.0118718
0.00164501
-0.141307
0.151531
-0.220416
-0.12898
0.11647
0.232925
-0.000433352
5.14869e-05
-0.00771842
0.00810031
-0.00163803
-0.139343
-0.0859981
0.0958128
0.000522127
-0.0103343
-0.0466101
0.0555308
0.186406
-0.195328
0.033759
0.256932
-0.267052
-0.0236392
0.205803
0.137933
-0.199304
-0.144433
0.205814
-0.122727
0.212693
-0.295781
-0.343723
0.172744
0.281936
-0.110959
0.384264
0.148299
-0.326744
-0.205825
-0.0059722
0.038942
-0.290482
0.257511
0.00788914
0.0141176
-0.0153664
-0.0066332
-0.18346
0.130402
0.108347
-0.0552915
-0.00112036
0.00222661
0.00108847
-0.00219474
0.0073084
-0.000649644
-0.00754315
0.000884228
-0.00558345
-0.00145161
0.00158931
0.00544581
-0.0154385
0.0399137
-0.0360327
0.0115564
-0.00212184
0.000798874
-0.00186702
0.0031897
-0.221293
-0.0706426
0.1714
0.120536
-0.000954682
0.000397551
0.00682955
-0.00795821
-0.279985
0.283491
0.0519942
-0.034839
-0.0779393
0.0607835
-0.00484136
-0.00898553
0.00941119
0.00441629
-0.128585
0.181928
0.117391
0.0175508
-0.0139869
0.00569127
-0.009256
-0.00891896
0.00459391
-0.00405795
0.00838311
-0.28086
-0.0980454
0.0351816
-0.238095
0.227753
0.053574
-0.0432376
-0.00597593
-0.00680837
0.00800236
0.0047818
-0.144255
-0.193398
0.209878
-0.315568
0.220347
-0.163699
0.25892
-0.155939
0.131955
-0.0289033
0.0528867
-0.35949
0.287142
0.115078
-0.0427335
0.0772257
0.350151
-0.0431168
-0.248351
-0.0332272
0.0334756
0.248102
0.00927785
-0.00240245
-0.00953409
0.00265875
0.0226271
-0.00937379
-0.0194154
-0.0655886
0.0265236
-0.298528
0.337591
0.0630686
-0.0623983
0.0356546
0.246588
-0.232294
-0.158553
0.040238
-0.0648901
0.0642782
-0.0396263
0.015925
-0.105627
0.101657
-0.0119511
0.0685352
0.107917
-0.111396
-0.0650504
-0.0130475
0.00599823
-0.00580028
0.0128496
0.0320543
-0.0284554
0.261764
-0.265364
-0.104271
0.192427
-0.181286
0.0931318
0.0386756
-0.0572673
-0.0947306
0.113323
0.100182
-0.116364
-0.0110031
0.00881679
-0.000645744
0.00283224
-0.0245504
0.0524461
-0.0306581
0.00276271
-0.141347
0.147982
-0.00499009
-0.0607074
0.107039
-0.109402
0.063068
-0.00159394
0.000469704
0.000348223
0.000775886
-0.172687
-0.0616222
0.0811309
0.153178
0.260934
-0.260826
0.0319454
-0.00758008
-0.000232558
0.00719494
0.000617373
-0.28426
0.0438983
0.269243
-0.0288834
0.00352131
-0.00706253
-0.0024348
-0.217905
-0.119233
0.127899
0.209241
-0.00773875
-0.00362957
0.0058717
0.00549697
-0.00805187
-4.43256e-05
0.000165336
0.00793039
0.333941
-0.0676179
-0.266315
-8.89435e-06
0.0510268
-0.0669226
-0.167569
-0.170492
-0.0198056
0.0420902
0.14821
0.0113481
0.0264998
-0.013084
0.234976
0.0380597
-0.0577924
-0.215245
-0.0409501
-0.094484
-0.0205049
-0.0697043
0.0274559
-0.158732
0.200987
-0.00624588
6.80786e-05
0.00624038
-6.22875e-05
0.00146279
0.00685698
-0.00775709
-0.000562658
-5.05246e-05
0.00222441
-0.0131768
0.158458
-0.0591136
-0.171188
0.134948
0.259936
-0.131173
0.133093
-0.0428704
0.286094
-0.252131
-0.111084
0.0771197
-0.105498
0.162201
0.0904346
-0.147141
-0.161229
0.0423478
0.117245
0.062709
-0.047924
-0.0393354
-0.00249152
0.219833
-0.00262734
-0.214707
-0.108781
-0.215116
0.103482
-0.243693
-0.0492739
0.0578603
0.235106
-0.119304
0.235613
-0.329942
0.213632
0.0388348
-0.206695
-0.0384554
0.206317
-0.000545273
0.000879292
-0.00958029
0.00656199
-0.00678259
-0.00534516
0.00556581
-0.0681813
0.0155165
0.121202
-8.45593e-05
0.00632372
0.00018246
-0.00642179
-0.0243867
-0.259091
0.0238292
0.259647
-0.00262756
0.000483414
0.0109561
-0.00881167
-0.0857363
0.0838852
-0.0926332
-0.0115508
-0.396127
0.329677
0.077995
-0.00884634
0.00348321
-0.00355577
0.00760599
9.0246e-05
-0.000387932
0.00150241
-0.0138852
-0.00810516
0.0204877
0.001278
-0.0216803
0.00773409
0.0126716
0.0079376
0.0125922
-0.00683223
-0.0136976
0.0260393
0.178552
-0.165756
-0.0388407
0.178069
-0.00966753
-0.0146329
-0.153774
-0.121125
0.115113
0.0327742
-0.0267587
0.289158
0.0548231
-0.125109
-0.218873
-0.101065
0.220747
-0.189389
2.71296e-05
0.00571722
-0.00579158
4.70909e-05
0.0281031
0.101256
0.053451
-0.107267
-0.15569
0.209507
-0.0644599
0.0863794
0.00873506
-0.0089115
-0.000368842
0.125506
-0.132159
-0.201958
0.20861
-0.0701416
-0.154792
0.123696
0.101238
0.0734171
0.259511
-0.101888
-0.231041
0.233905
0.000912359
-0.0168112
-0.218007
0.385505
-0.167982
0.0685699
0.211987
-0.0436464
-0.211687
0.0433447
-0.0798589
0.0412848
-0.0198783
0.0584512
-0.0019049
0.00106626
0.0074574
-0.0066187
0.0120036
-0.265827
0.277495
-0.0236729
0.0521912
-0.00158642
-0.0440708
-0.00653421
0.147377
-0.0463382
-0.293592
0.192555
0.094614
-0.110673
-0.0660595
0.0821173
-0.0183922
0.267084
0.0825099
-0.331202
0.0384536
-0.0407436
0.0290631
-0.0267735
-0.0428631
0.0337464
0.237131
-0.228016
0.01844
0.123166
-0.114141
-0.17091
0.0926909
0.145267
-0.0670489
-0.0112773
0.0143492
-0.00849326
0.00542141
0.00283735
0.010816
-0.00891303
-0.00474071
0.0337878
0.26038
-0.262627
-0.0315442
0.0878564
0.0271055
-0.0453798
-0.0695821
0.00285843
-0.0105391
-0.00155269
0.00923332
-0.0954558
0.0958779
0.286047
-0.00554132
-0.25511
-0.0253957
-0.00638544
0.280526
-0.262136
-0.10774
0.107105
-0.0388781
0.0395146
-0.00686702
-0.00160498
0.00769809
0.000773938
-0.142411
0.260073
0.131949
-0.24961
0.222332
0.100645
-0.197471
-0.105011
0.0238478
0.107055
-0.0258913
0.0189881
0.00379112
-0.0190773
-0.134091
-0.187142
0.127836
0.00557689
-0.00513338
-0.00307087
0.166968
-0.319238
0.21771
-0.0654505
-0.0151126
0.000225821
0.0117434
0.00314339
0.223063
0.0293721
-0.223886
-0.0285487
0.0388733
0.211482
-0.0371719
-0.213184
-0.164645
-0.0172558
0.171266
0.0106348
-0.12388
0.104149
-0.0737404
0.0934711
-0.00287948
0.0432038
-0.0141306
-0.026185
0.000165765
0.0166702
-0.0197027
0.0794083
0.0328532
-0.0720236
-0.0905064
-0.14851
0.0780501
0.160963
-0.0212278
0.053745
-0.262297
0.229781
0.285166
-0.277664
-0.0154607
-0.148037
0.0686497
-0.00447552
0.00496317
0.0083293
-0.0071638
-0.00101956
0.00542925
0.00275408
0.210547
-0.136904
-0.00290244
0.00466603
0.00624318
-0.00800693
-0.226413
0.0454468
0.0207574
0.160206
-0.172496
0.210339
-0.0844495
-0.16374
0.0984165
-0.121769
0.187092
-0.0297264
-0.221559
0.0358187
0.215468
0.0832413
-0.114083
-0.172946
0.203785
0.000386359
2.9041e-05
-0.00699234
0.00657711
-0.000659638
0.00660975
-0.00885257
0.00186515
-0.0058315
-0.000466715
0.00443276
0.157483
-0.113127
-0.149857
0.266388
-0.028255
-0.244518
-0.161951
-0.183469
0.169354
0.176064
-0.00280349
0.00771317
-0.00681452
0.00578469
-0.15627
-0.029349
0.179825
0.00985529
-0.00668232
-0.0115935
0.00311169
-0.0106096
0.0103564
-0.0389741
0.0176729
0.0309672
-0.00966677
-0.0374496
-0.113107
0.0470605
0.103499
0.196478
-0.0117289
-0.054116
-0.130633
-0.0917572
0.21381
0.0621858
-0.18424
0.251925
-0.0364708
-0.243911
-0.00866426
-0.00044964
0.00868049
0.223068
-0.21707
-0.027225
-0.285103
0.157333
-0.0146413
-0.00358779
-0.00127244
0.00273836
-0.00492443
0.00118547
0.0101058
-0.00636659
0.162572
-0.0263607
-0.130431
0.0368099
-0.244253
-0.000289291
0.00691236
-0.000966853
-0.00565586
-0.01635
-0.0105826
0.0112118
0.0157207
0.0396903
-0.0216574
-0.316466
0.298434
-0.0392292
0.0374075
-0.00632425
0.000238198
0.000164199
0.00592177
0.235508
-0.0487595
-0.229612
-0.0889514
0.259802
0.0220771
0.0317522
-0.0144809
-0.0393484
-0.000212491
0.0067481
-0.00718554
-0.180165
0.036992
-0.139885
0.0480875
-0.017151
0.108948
0.26699
0.0285057
-0.266693
-0.0288062
-0.120927
0.144212
-0.172097
0.148812
-0.00272833
1.40422e-05
0.00406319
-0.0410766
-0.124216
-0.36107
0.379527
-0.0148671
0.0944992
-0.0570706
0.0214023
0.0110928
-0.000130531
-0.00696219
-0.00400021
-0.150158
-0.216226
0.0303069
-0.00871659
0.00205112
-0.0236407
0.0750091
-0.269125
0.288858
-0.0947455
-0.0103946
-0.00528694
0.00906159
0.00661936
-0.00155706
0.00274509
0.00103907
-0.224252
0.0365147
-0.038722
0.226458
0.00134879
-0.0131626
0.0117633
0.0130754
0.00893213
0.0725032
-0.0010055
-0.00681618
-0.0763365
-0.232086
0.0703266
-0.0472037
0.147142
0.0585182
0.0200265
-0.313396
-0.0333779
-0.0125751
0.00283251
-0.000796644
0.0880533
0.0193539
-0.0195512
0.0854347
0.303759
-0.281119
-0.108075
0.0360642
-0.142926
0.191385
-0.0845214
-0.00546014
-0.00152463
0.00185871
0.00512614
-0.313351
0.31101
-0.0148855
0.0172266
0.103233
-0.0167374
-0.0593901
0.00515775
-0.00843733
0.00227409
0.00786707
-0.0041085
0.00489961
-0.000527429
-0.0075627
0.00319052
-0.0611659
-0.228451
0.0653925
0.224224
-0.181038
-0.120187
0.000788005
0.000770731
-0.0269198
0.046855
-0.195342
0.175406
0.00162641
-0.00875254
-0.00172019
-0.0970086
0.168701
0.0224311
0.232875
-0.221562
0.0482037
-0.21487
0.222195
-0.0112068
-0.0102115
0.00630549
0.0142143
0.00479936
-0.0101186
-0.00889507
-0.0306153
0.00807503
0.00577815
0.0167643
0.0100079
0.0183139
0.106931
-0.146473
-0.071853
0.0046761
0.0188969
-0.00458529
0.000369726
0.000858898
0.00309052
-0.00431911
0.0661876
-0.147332
0.162991
-0.0818445
0.121301
-0.179379
-0.144416
0.0381073
0.0004443
0.00794295
-0.00811876
-0.000268414
0.0280219
-0.0451171
-0.16307
0.00588747
0.000794271
-0.000585953
-0.00609578
0.219909
-0.258369
0.0834507
-0.0449894
0.00786546
-0.0148191
0.00917845
0.0659328
-0.0462564
-0.159563
3.15401e-05
-0.000421521
-0.00519352
-0.0386953
-0.224022
0.0507667
0.211951
0.142695
0.0167094
-0.144207
-0.0151978
0.00620582
0.0065757
-0.00381387
-0.00896766
0.00269884
0.00137899
-0.00430164
0.000223536
0.0443971
-0.218711
0.329308
-0.154994
0.00901412
-0.00954999
0.00364759
-0.057853
0.0507792
0.0455271
0.00352314
-0.0158724
-0.00307551
-0.00216808
0.00368657
0.00493208
-0.00781281
-0.00392769
0.00332802
-0.00488553
0.00645714
-0.0119573
0.00418021
-0.000706811
-0.134574
0.00615422
-0.00560488
0.00343735
-0.00398663
-0.209837
0.178745
-0.000680746
0.00440977
-0.145076
0.00934407
0.000940518
-0.00941564
-0.00086917
0.00721532
-0.00896659
-0.0123828
0.0141341
-0.0332537
-0.0382883
0.0215076
0.0500342
0.00936029
0.00261176
-0.0298704
0.0218052
-0.0153988
0.0234645
-0.0895413
-0.221532
-0.0225189
-0.0160683
0.00642359
-0.00188624
0.00346502
-0.0046697
0.252131
0.0298543
-0.0470103
1.15025e-05
-0.00630865
0.00204764
-0.00391708
0.0643594
0.0711375
-0.040883
-0.255336
0.0353572
-0.032726
0.252704
0.0737325
-0.118598
-0.0601438
-0.0211599
0.000188804
0.0171326
0.00383845
0.00831311
-0.000714642
0.00501903
0.00611883
0.129857
-0.0691662
-0.093268
0.0325765
-0.00344396
0.00699673
-0.0136647
-0.00385676
0.315341
-0.297819
0.0021876
-0.00779469
0.0058452
-0.00164838
0.000682222
-0.000248956
-0.00530472
-0.00048009
0.00603375
-0.242019
-0.175934
0.132849
0.0657491
-0.0355489
-0.134379
0.021238
0.124278
-0.011138
0.0140919
0.0139711
-0.0158213
-0.0122418
0.00667388
-0.0159264
0.0105359
0.00207683
0.00888462
-0.00601177
-0.00494968
0.199382
-0.0961419
-0.194997
-0.0999001
-0.0234765
0.0638676
0.0595086
0.0125519
-0.149261
-0.131158
0.267869
-0.00852946
0.00139374
-0.181177
-0.00192208
0.156179
0.00731845
0.00270598
-0.00794751
0.00254587
-0.023718
-0.00760259
-0.00200869
0.00135633
0.00825338
-0.157175
-0.239493
0.0636707
0.332996
-0.228863
0.246329
0.127535
-0.145002
-0.0102117
0.00989603
-0.0108912
0.00341314
0.0126625
-0.0122855
0.00697157
-0.102772
0.0859687
0.362292
-0.370609
-0.00323204
0.31233
-0.415141
0.126567
-0.0237567
-0.00118396
-0.00649768
0.00133118
0.0063505
-0.0593345
-0.110727
0.131328
0.0387342
-0.000341397
-0.00916746
-0.0370826
0.0259061
0.0105245
-0.00402233
-0.0141052
-0.0040066
0.00474513
0.0144444
-0.0151828
0.00661575
-0.00025659
-0.00701878
-0.000235383
-0.0067047
0.000407701
-0.000904291
0.00324198
0.0392342
0.144829
0.0262796
-0.142871
0.241903
0.183025
-0.282058
0.234149
-0.335541
0.201001
-0.0996107
-0.0710968
0.0539464
-0.0147887
0.0112963
0.0162002
0.0808686
-0.238197
0.143374
0.0139537
-0.0376147
0.0253485
0.219815
-0.00199654
-0.205265
0.00330175
-0.00166185
-0.00880377
-0.120163
0.0377771
-0.0340409
0.116428
-0.00105597
0.000859142
0.00908153
-0.175117
0.13789
-0.180678
-0.000366753
0.0467456
0.287928
0.00853952
0.121559
-0.185584
0.00706598
-0.00410813
-0.00188418
0.00319466
0.00279752
-0.0312118
-0.0847979
0.0944034
0.0216077
-0.244982
0.0013263
-0.0064356
0.000301429
-0.00989445
-0.0115685
0.00330259
-0.0198344
0.229179
-0.149718
-0.0136347
0.00390345
0.00316458
0.00656609
0.0725009
-0.0668539
0.060102
-0.00798998
-0.192506
0.00515444
0.178162
-0.33169
0.208769
-0.0552386
0.305381
0.0332521
-0.0263056
0.00925789
-0.00803338
0.0810982
-0.122113
0.150496
0.115831
0.00706375
0.00883052
0.236788
0.0527036
-0.0551702
-0.234322
-0.00407714
-0.0126471
0.0205895
0.161122
-0.128259
-0.0376331
0.194275
0.00242818
0.00545819
0.00596836
0.00127502
-0.00322254
0.0100575
-0.00683094
-0.000113109
-0.0031135
0.00772409
0.216147
-0.201442
-0.344352
-0.285424
0.070831
0.0181137
-0.207281
0.000799626
-0.00261945
0.0235141
0.0225549
-0.0312955
-0.0147737
0.00805418
0.00416955
-0.00320955
0.00488231
-0.00227786
0.000808194
0.0118037
0.0450001
-0.0625923
0.00578929
-0.0448361
0.0770895
0.0471549
-0.0945866
-0.0462215
0.0774811
0.0633275
0.00431327
-0.00623384
-0.000317758
-0.00932561
-0.00422915
0.00532647
-0.00787973
-0.0519158
0.450707
-0.0244347
0.110256
-0.0184286
-0.0589743
-0.00606042
0.00433686
0.00904215
0.089551
0.104116
-0.0689901
-0.124666
-0.0252273
-0.0126062
0.0223942
0.00586285
-0.0274253
-0.00905234
0.15622
0.0613623
-0.139534
-0.132319
-0.011395
0.0317694
0.111943
-0.0495852
0.195157
0.0449177
-0.1905
-0.00285176
0.00555802
0.00942295
-0.0121292
0.220758
-0.162332
0.155908
-0.214335
-0.126562
-0.0419997
0.0758214
0.0927398
0.0132341
-0.0101543
0.00875503
-0.00928299
0.00215448
-0.23992
0.188267
-0.0066898
0.0131557
0.00575762
-0.0122235
-0.01789
-0.0060258
0.00814529
-0.00227169
0.0105471
-0.00452754
0.0132118
-0.105664
-0.1124
0.335612
-0.294584
-0.0290361
-0.0119933
-0.00547071
-0.000642619
0.0057177
0.000395593
-0.13031
0.170259
-0.197125
-0.211462
0.226822
-0.135231
0.119871
-0.323411
-0.0237861
0.306931
0.0402647
-0.0628379
0.0966709
-0.0650448
-0.0153856
0.0107115
0.28984
0.00295617
0.00833051
-0.00281224
0.00238435
0.00180599
0.0580554
-0.0386133
-0.00235207
0.00384606
-0.00434588
-0.00291057
-0.00487267
0.00918084
-0.0182668
0.0164443
-0.0108203
0.00433013
-0.311962
-0.123652
0.193595
0.0111111
-0.0346281
-0.00528873
0.0288087
-0.190954
-0.0115073
0.00370368
0.00804182
-0.00501925
0.0282305
0.292749
-0.339372
-0.00196035
-0.000521456
-0.00420807
0.124102
-0.0531214
-0.130314
-0.109751
0.200967
-0.00322126
0.0086975
0.0159187
0.013438
0.00126882
-0.131507
0.00462773
-0.0100407
-0.16168
-0.221563
0.062626
0.152572
-0.0728443
-0.142352
0.0220197
0.00979348
8.00362e-05
-0.000124387
-0.00656184
0.00660606
-0.0229387
0.0044814
0.0091414
0.00932309
-0.185963
-0.025878
0.0526877
0.159154
-0.0330717
0.111986
-0.143962
0.150186
-0.173794
0.00183217
-0.375009
0.00270676
0.00169299
-0.00973103
-0.0418325
-0.122473
-0.129046
0.0501712
0.201347
-0.0381055
0.112357
-0.111701
0.0214222
-0.0223499
0.0234832
0.00800913
-0.00563708
0.00492457
0.00537848
0.00981386
0.0794555
-0.0708279
0.332646
-0.333682
-0.173756
0.174792
-0.00705421
0.0908211
-0.257985
0.311215
-0.0137855
-0.231859
0.241228
0.00441637
-0.0157998
0.0210832
-0.0158225
0.010543
0.048208
-0.0018953
-0.0352007
-0.0168909
0.00587864
-0.0115065
-0.172202
0.0337554
0.181376
-0.0429317
0.206882
-0.0637412
0.0469154
-0.190058
-0.0828323
0.0500258
0.0740901
-0.115906
-0.0716439
-0.000346534
-0.156862
0.0420016
0.115208
0.0492908
0.0294092
-0.0322748
-0.0464262
-0.00181339
0.0012154
0.00846511
-0.0443305
0.222506
0.0209083
0.00603853
-0.0149685
-0.0119782
-0.0068454
0.00567556
-0.0064013
-0.0354585
0.00723144
0.00977559
0.0047957
-0.00471601
0.0146346
-0.0085469
-0.0137835
0.00769855
-0.0549594
-0.331518
0.0630672
0.0158588
-0.019169
0.0123057
-0.0089968
0.24937
-0.0875537
0.0687391
0.142918
0.0895737
0.0812717
-0.0952042
-0.0756426
0.000106414
-0.00885609
-0.000758443
0.00950795
0.0023966
-0.00340157
0.00846241
0.0131041
-0.014268
0.00926021
-0.00898229
0.00797527
-0.00825313
-0.0143064
-0.00217515
0.0033195
0.0746852
0.165405
-0.0791284
-0.289431
-0.019712
0.0125166
0.296626
-0.317804
0.0247867
0.00829639
-0.0225354
-0.0186772
0.0251444
-0.00487059
0.0065817
-6.5019e-05
-0.00020508
-0.0080518
0.00832123
-0.018004
0.176959
-0.444976
0.0657288
0.00423433
0.0348807
0.0191913
0.0356617
0.00942307
-0.0108223
0.0273006
-0.0235072
0.0221125
-0.128689
-0.227466
0.0418922
0.314261
0.000196532
-0.00555421
0.000433564
0.173261
0.128206
-0.210645
-0.0965781
0.070894
0.00384269
0.00395243
-0.371432
-0.0790918
0.00554363
0.117739
-0.0204119
-0.0907544
-0.00657214
0.0342659
0.0883214
-0.00533571
-0.00590626
-0.0262588
0.270187
-0.065765
0.00690821
0.00304227
0.000106821
0.00443863
-0.0104604
0.0210818
0.0131658
-0.0210917
0.00726448
-0.111671
0.0384178
0.0659773
0.224557
0.024874
-0.206251
-0.043181
-0.270869
0.261665
0.0142563
-0.00505325
-0.0190858
-0.285731
-0.0410689
-0.222577
0.101966
-0.00171362
-0.000850391
0.00422034
-0.00164652
-0.0146129
-0.00549405
-0.00640614
-0.218235
0.208466
0.0572101
-0.0457647
-0.0245775
-0.0463184
-0.227007
-0.0304214
0.218733
0.229864
-0.0473513
0.0527894
-0.170756
-0.0542327
0.361635
-0.0417979
-0.114023
-0.205217
0.159267
-0.184525
0.184973
0.172869
-0.173318
-0.0122828
0.0714954
0.207871
-0.00108736
-0.00595333
-0.00210609
0.00914652
-0.228186
-0.113859
0.312808
0.0292372
-0.00615463
-0.00103189
0.0120589
-0.00487232
0.0725747
-0.143149
-0.0534483
0.124025
-0.202504
0.139711
0.304697
0.00818321
-0.0046132
-0.165771
-0.0315918
-0.224683
0.0881843
0.16809
0.00952184
0.00142495
-0.0213009
-0.00449692
0.0156437
0.0294076
-0.025249
-0.0270942
-0.264881
-0.101104
0.0540238
0.184749
-0.0671104
0.00112302
-0.000207553
0.00505295
0.00552759
-0.00219503
-0.318412
0.00472739
0.00685245
-0.00827807
0.014912
-0.311344
-0.0169197
-0.374694
0.340381
-0.0206461
0.177004
0.0117648
-0.0207389
-0.26869
0.0765032
0.0178762
-0.237398
-0.036738
0.256266
0.0166125
0.0364028
-0.00222974
0.00816678
-0.00699332
-0.0207579
0.00332984
0.0221732
-0.00799268
-0.00036127
0.0109927
-0.00135114
-0.0148543
-0.337812
0.373439
-0.0207721
0.00459847
-0.233548
0.0360652
-0.0295244
0.0322724
0.0438508
0.00305716
-0.129289
0.232575
0.07974
-0.00746826
0.279718
-0.284134
0.0118836
0.331399
-0.318023
-0.000820009
-0.00585292
-0.124213
0.125341
-0.194926
0.219595
0.0174971
-0.0421652
-0.00351096
0.028399
0.0273031
-0.0369593
0.264563
0.00519863
-0.232803
0.0663442
0.16456
-0.00892305
8.59425e-05
0.00900251
0.0355651
-0.216979
-0.354799
-0.0377991
-0.0225443
-0.0525097
0.00753679
0.250824
-0.0185669
0.00453727
-0.0369535
0.0983052
-0.100143
0.0387938
-0.0368097
0.0274406
-0.178842
0.130957
-0.0212114
-0.00462543
-0.0159303
0.0417811
-0.0514574
0.0574499
0.00577365
0.201359
0.0283991
-0.197713
-0.00496863
-0.00726222
-0.00294542
0.0483171
0.0717736
0.0510248
0.237839
-0.051735
0.0211425
0.0027148
-0.010752
0.0127389
-0.0726521
0.149465
0.0542189
-0.0392605
0.0625799
-0.0775365
0.0490983
-0.0406399
-0.00467222
0.00327286
0.00445645
0.120652
-0.0292946
0.085856
-0.177205
-0.0411454
0.0707181
0.0192316
-0.0488052
0.125796
-0.258043
0.266627
-0.176664
0.154687
-0.253405
0.0186311
-0.0179451
-0.0108216
0.00696649
0.00669234
0.00720456
-0.187193
-0.0475154
0.154235
0.0804731
0.121426
-0.125364
-0.0481716
0.179671
-0.0822573
0.0765371
-0.173952
0.240069
-0.247346
0.0308598
-0.0235827
0.227399
-0.124377
0.167135
-0.270158
0.25993
-0.263981
0.0294145
-0.0253633
0.29416
-0.244051
-0.0322317
0.290705
0.00366478
-0.213922
-0.0248343
0.324191
-0.0285085
-0.00380852
0.0259207
-0.0961742
-0.237522
0.210413
0.123285
-0.0273675
-0.0489252
-0.116235
0.1679
-0.0159452
-0.223942
-0.320422
0.00385068
-0.0212413
0.186334
-0.0371316
-0.14148
-0.0407774
0.0434606
-0.0243579
0.0700963
0.227327
-0.0606356
-0.247021
0.00825605
-0.0165952
0.308424
-0.300086
0.186009
-0.0844738
0.00607523
-0.0219677
-0.192606
0.208497
-0.0449617
0.245062
-0.237059
-0.0132007
0.309099
-0.0271889
0.207528
0.0210243
0.0233034
-0.022228
-0.217948
0.207949
-0.0987824
-0.152267
0.039203
0.149129
-0.0399256
0.0657824
-0.0670039
-0.000898678
-0.014453
-0.00867055
0.0307875
0.0205453
-0.0302508
0.00155497
-0.00331524
-0.0031103
0.211368
-0.0297827
0.00703562
-0.00581752
0.0263693
-0.0327102
0.194452
-0.188112
-0.312207
0.164034
0.218269
0.26228
-0.0162076
0.00369172
-0.249765
0.26484
0.0326941
-0.0456101
-0.0603087
0.255713
-0.0234811
0.0217027
-0.253936
-0.0845645
0.478653
-0.0206486
0.253737
0.0315108
-0.0253185
0.00404147
0.0171941
0.0512737
-0.0159715
-0.0327646
0.0263872
0.0222969
-0.0117468
-0.212362
0.201797
0.216734
0.108323
-0.0308979
0.23551
-0.200293
0.0294092
-0.0646283
0.219983
-0.15951
0.18714
-0.230073
0.102534
-0.0596022
0.182412
0.130091
-0.0769927
0.114582
-0.00558704
0.0294605
-0.138451
0.183439
-0.0812543
0.0774848
0.0748013
-0.0375659
0.0334786
0.201936
0.0857456
-0.0677
0.278304
-0.0177852
0.00982572
-0.270345
0.14725
-0.121474
0.113002
-0.138783
0.224917
-0.241334
-0.0643167
0.0807332
0.225591
-0.395428
-0.0576298
0.168781
-0.067264
0.0943212
-0.195839
0.277009
0.0135459
-0.0122519
0.181926
-0.183333
0.0298049
0.0072018
0.29081
-0.288771
-0.00924087
0.265074
-0.302915
0.0152874
0.0225527
-0.0648363
0.230199
-0.159281
-0.0276668
0.213225
0.208792
-0.190114
0.132834
-0.151513
0.193347
-0.124611
0.141809
0.0625096
-0.0677662
0.192395
0.0113191
0.176271
-0.169457
-0.0181369
-0.0281676
0.159498
-0.144986
0.0136548
0.132479
-0.067909
-0.10433
0.0397663
0.0919903
0.0302884
-0.00768914
0.177025
-0.0768715
0.06759
-0.0562098
0.0634212
0.0816297
0.225786
-0.123979
0.151472
-0.11735
0.20161
-0.0520511
0.0753573
0.192971
0.0756891
-0.0667244
0.0884216
-0.0499501
0.00582222
-0.0122539
0.262848
-0.256417
0.25581
-0.010747
0.00726879
-0.252334
0.222894
0.027705
0.0144742
0.220834
-0.111748
0.118312
0.271461
-0.187047
-0.0336331
0.0351665
-0.258564
0.25703
0.283268
-0.276204
0.00177189
-0.00883661
0.0269844
0.00452723
0.167314
-0.291145
0.163068
0.170268
-0.13999
0.285994
0.0057054
-0.00543127
0.210148
0.130968
-0.120283
-0.194824
-0.0684375
0.0920749
-0.0763539
0.0752542
0.166503
-0.167075
-0.245221
0.179802
0.232492
0.194014
-0.181898
-0.000800561
0.164946
-0.159359
0.215221
-0.201684
0.068091
-0.00251357
0.273558
-0.30279
0.0317443
0.304731
-0.0324069
0.0109434
-0.0833116
-0.218656
0.0735176
0.16361
-0.328086
0.21822
-0.0207277
0.237493
0.0215353
-0.238302
0.0726124
-0.0850418
-0.0275048
0.0868475
0.193618
-0.168954
0.061134
0.174163
-0.0507513
0.267154
-0.267725
0.0513228
-0.00992697
0.266572
-0.219057
-0.111276
0.0350766
-0.310787
-0.0318341
0.307545
0.0731428
-0.0971509
-0.121026
0.14504
-0.0640501
0.168214
0.231448
-0.0116089
0.0512481
0.0021366
0.261156
-0.352622
-0.143015
0.311903
-0.193012
-0.256568
0.137676
0.172516
0.348427
-0.281668
-0.0415481
-0.0252122
0.00688455
0.000560021
-0.00963455
-0.000208395
0.219175
-0.30756
0.0631805
-0.0349636
0.164334
-0.0990843
0.283178
0.2369
0.146598
-0.231777
-0.151722
-0.153684
0.166898
-0.271257
-0.015947
-0.0721611
0.338321
-0.0708398
0.0213895
-0.0294053
0.0103433
0.0169917
-0.00186737
-0.144592
0.151979
-0.128862
0.0835645
-0.0916032
-0.117061
0.112624
0.0775866
-0.165319
0.0786374
0.159654
-0.0729684
-0.086954
0.132874
0.0216772
-0.232816
0.164725
-0.0689552
-0.0415711
0.211873
0.01603
0.0229604
0.184785
0.152499
0.102456
-0.0291705
-0.0588065
0.0558995
-0.242646
0.245551
-0.18652
0.0538642
-0.0605937
0.0871945
-0.146671
0.159715
0.209849
-0.215529
0.132407
0.135084
-0.0519628
-0.0832157
0.0581472
-0.120792
0.0879533
-0.0321278
0.0181129
-0.00623224
0.0743312
-0.0653328
0.183973
-0.242351
0.25233
0.0803899
-0.0903685
0.057102
0.0727313
0.0256061
0.221143
-0.218075
-0.0286758
-0.0521197
0.263863
-0.275794
0.224595
-0.0648816
-0.135757
0.0376585
-0.00580438
0.000962292
0.00331751
-0.251813
0.0255518
-0.174653
0.0779254
0.171058
-0.256929
0.241445
0.138504
-0.123019
0.00476848
-0.308954
0.314973
-0.010787
-0.122314
0.28378
0.1767
-0.269297
-0.0936134
0.119531
-0.151956
0.195029
0.195593
-0.0896088
-0.230595
0.254391
-0.0108352
-0.184464
0.211139
-0.047568
0.0330535
-0.21208
-0.186505
0.236768
0.161817
0.0305428
-0.0063671
-0.0401313
0.0159586
-0.0763427
0.0274082
-0.225163
0.274095
0.301155
0.181778
-0.285508
-0.197425
-0.200282
0.183213
0.185282
0.220143
-0.131043
0.0780349
-0.185694
0.13668
-0.0648637
-0.0347465
0.0126567
-0.262664
-0.069634
0.145103
-0.20388
0.0204663
0.209378
-0.0259639
-0.175557
0.14724
0.192351
-0.36456
-0.0132588
0.118937
-0.0493852
-0.00648793
0.00312478
0.308094
-0.308805
0.00625205
0.195983
0.106571
-0.058983
0.0327508
-0.132498
0.179599
-0.160582
-0.0831881
0.0763407
-0.113943
0.0161063
0.256436
-0.0500851
-0.222458
0.188308
0.146903
-0.202803
-0.138901
-0.094849
0.221155
0.012594
-0.0067808
-0.00656187
0.0212348
0.271299
-0.0286964
0.221797
-0.0284589
0.314316
-0.312809
-0.0147087
-0.291133
0.294388
-0.0229669
0.216154
0.0335223
-0.0266076
-0.272328
-0.0252864
-0.283538
0.278784
0.0313766
-0.0266236
0.299222
-0.330591
0.0311681
0.000202444
0.234889
0.0289385
-0.0237587
-0.317522
0.328182
-0.00356067
-0.00710029
0.308568
0.00269342
-0.0252153
0.319192
0.0129101
-0.320794
-0.0113098
-0.346751
0.415412
-0.065243
-0.00342114
-0.29183
-0.00378392
0.292177
0.00343785
0.290294
0.0349699
-0.297476
-0.0277888
-0.0236414
0.0326755
0.24649
-0.0254282
-0.282044
0.28606
0.0209676
-0.024984
0.0542626
0.192365
-0.029894
-0.0591305
0.150951
-0.230936
0.227393
-0.148414
0.0148151
-0.0113574
0.012173
0.115115
-0.0202548
0.0957429
-0.141879
0.127004
0.239531
-0.172674
0.247403
-0.0225421
0.278126
-0.233293
-0.0118082
0.00286147
0.168442
-0.197717
-0.0418053
0.0339142
0.184161
-0.0271874
0.274241
-0.226205
0.237992
0.0170834
-0.0288709
0.291981
0.00798632
-0.0286681
0.23761
0.0126757
-0.0284887
-0.29488
0.248292
-0.0297503
0.175942
-0.0415962
-0.131749
0.230397
-0.302478
0.256984
-0.109271
0.00147288
-0.0158387
-0.228572
0.242938
0.0328786
-0.0357806
0.0973075
0.0660128
0.0107312
-0.128596
-0.201625
0.066884
-0.0757804
0.21052
0.197953
-0.328998
0.0277758
-0.0759016
-0.0167366
0.181097
-0.204794
-0.192999
0.216697
-0.157768
-0.107196
0.07927
-0.21441
0.222109
0.0177249
-0.0254232
-0.234191
0.259266
-0.0236014
-0.219365
0.221651
-0.0399013
-0.226555
-0.0334412
-0.219019
0.22133
0.0212225
-0.0235332
0.221861
-0.227239
0.0482573
-0.0428761
-0.359261
0.291132
0.0929438
-0.0248149
-0.238355
0.249093
0.0136323
-0.0243701
-0.330381
-0.0456756
0.400742
-0.0246863
0.300391
0.0965867
-0.372602
-0.0243757
0.297767
-0.284938
0.010733
-0.0235626
0.314724
-0.307322
0.0153852
-0.0227879
0.0332805
-0.253451
-0.0078548
0.00819726
0.273214
0.164671
0.185251
-0.214837
0.161281
0.116938
-0.0986194
0.221967
-0.17808
0.27787
-0.188669
-0.00563708
-0.22023
0.0818126
0.142988
-0.146163
-0.222348
0.0270966
-0.0237678
-0.0411521
0.0107539
-0.0236145
0.0407883
0.283659
-0.0240561
0.0278263
-0.0260817
0.315436
0.0217171
-0.0224287
-0.220444
0.0289338
-0.0350449
0.0206192
-0.0240855
-0.0232194
-0.235436
0.0524721
-0.044275
-0.282584
-0.0517611
-0.024916
0.00294553
-0.0247595
-0.149398
-0.23259
0.181232
-0.258101
-0.0448689
0.0541029
-0.169136
-0.0238681
-0.200701
0.288673
-0.161858
0.0256838
0.134187
-0.244157
0.256527
-0.22123
0.17727
0.175708
-0.175319
0.00271474
0.00140985
0.000188615
-0.0571412
0.0552325
-0.150358
-0.179354
-0.00214562
0.0546881
0.176096
0.233886
0.182346
-0.02037
-0.319248
0.0441019
-0.243663
-0.0313757
0.0600659
-0.0503176
0.0443096
-0.0540578
-0.000263531
0.00422446
-0.236567
0.194171
-0.280983
0.0874996
-0.0237366
-0.00558191
0.139101
0.0599451
-0.0493232
0.365881
0.0110566
-0.00938665
0.351586
-0.01731
-0.0485489
-0.285728
0.0340694
-0.027313
0.197012
-0.293248
0.0515931
-0.220632
0.0112708
0.0420597
0.0663163
0.199019
-0.20909
0.156975
-0.0474387
-0.241214
-0.0673471
0.265121
-0.256581
-0.12528
0.131686
0.0057672
-0.257222
0.049537
0.0659957
-0.190196
0.00201195
0.239269
-0.113953
0.00205681
0.276609
-0.26884
0.128705
-0.0668535
0.0994304
-0.0071962
0.00139378
0.0530845
-0.0620904
0.106806
0.0296265
0.130434
-0.0657494
-0.32324
-0.0626812
0.210365
0.0039162
0.167044
-0.18271
0.0473669
-0.0656011
-0.0282679
0.211969
0.234292
-0.155678
-0.215186
0.136572
0.152813
-0.0410094