/*--------------------------------*- C++ -*----------------------------------*\
  =========                 |
  \\      /  F ield         | OpenFOAM: The Open Source CFD Toolbox
   \\    /   O peration     | Website:  https://openfoam.org
    \\  /    A nd           | Version:  10
     \\/     M anipulation  |
\*---------------------------------------------------------------------------*/
FoamFile
{
    format      ascii;
    class       volVectorField;
    location    "250";
    object      U;
}
// * * * * * * * * * * * * * * * * * * * * * * * * * * * * * * * * * * * * * //

dimensions      [0 1 -1 0 0 0 0];

internalField   nonuniform List<vector> 
23845
(
(0.68132 -0.125688 3.68463e-21)
(0.551171 0.134003 -1.98216e-21)
(0.311561 -0.0403494 1.93068e-20)
(-0.142353 0.0133481 5.62105e-22)
(0.17613 0.0869289 2.44147e-21)
(0.473776 -6.13165e-05 -9.27642e-22)
(0.87952 -0.063374 -8.34747e-21)
(-0.0747296 0.0724082 -2.07424e-22)
(0.549461 -0.00901426 -1.46581e-23)
(0.692281 0.0842814 -1.05929e-21)
(0.503156 -0.0304082 1.58411e-21)
(0.438169 -0.016904 7.69706e-23)
(0.606419 -0.0170399 -4.4424e-22)
(0.511956 -0.00528991 3.12493e-24)
(0.73046 0.0564273 -1.40324e-20)
(0.657439 0.0373783 -2.82584e-23)
(0.597741 0.00205614 3.29753e-22)
(0.540175 -0.00113321 1.47539e-22)
(0.597769 -0.00209583 -3.3075e-22)
(0.517841 -0.0326107 -1.30328e-21)
(0.768683 0.114222 7.82206e-21)
(0.479171 -0.023773 3.36584e-21)
(0.86576 -0.0814889 -1.71602e-21)
(0.551839 0.00468984 2.5955e-23)
(0.630641 0.0573072 9.87867e-24)
(0.599488 -0.0446312 1.15084e-22)
(0.873736 0.0866871 6.67564e-21)
(0.507093 0.00203688 1.19368e-21)
(-0.0472372 -0.12163 5.836e-21)
(0.517053 -0.0368007 5.56039e-22)
(-0.155935 -0.00588706 2.42708e-20)
(-0.0330047 0.0962489 2.83203e-22)
(0.467592 -0.0434555 6.62028e-21)
(0.54695 -0.00207012 -4.74018e-22)
(0.439986 -0.0220143 -2.18702e-22)
(0.490482 -0.027704 1.29104e-21)
(-0.0442183 0.12525 -5.00704e-21)
(0.440121 -0.0191022 -1.14436e-22)
(0.447222 -0.0116906 -7.9502e-23)
(0.537127 -0.0362483 -2.10691e-24)
(0.607455 -0.00326151 6.79014e-23)
(0.556985 -0.000946968 -2.4339e-21)
(0.593794 0.00454508 -1.6863e-21)
(0.572125 0.000605002 2.27936e-21)
(0.63998 0.00102129 -2.48815e-21)
(0.594669 -0.016584 -6.20195e-22)
(0.00397415 -0.0398057 -1.38618e-21)
(0.615545 -0.033423 -1.2918e-22)
(-0.0265857 0.0123854 1.0667e-21)
(-0.0554223 -0.115409 2.56207e-21)
(-0.0552483 -0.0488312 4.81111e-22)
(0.231716 -0.0470267 -2.71342e-21)
(-0.0248107 -0.0449768 -2.32904e-21)
(0.505435 0.00772713 -1.26133e-22)
(-0.0357973 0.106251 5.14375e-21)
(0.608672 0.00124549 -4.06586e-22)
(0.307535 0.113966 1.29014e-20)
(-0.100826 -0.0405296 1.3973e-20)
(0.726666 0.123381 -1.48536e-20)
(0.0644344 0.055011 -1.15188e-20)
(-0.0310869 0.106792 1.95729e-21)
(0.575986 0.00175676 -4.33655e-22)
(0.641019 0.0255447 7.73873e-23)
(-0.0283946 -0.0952353 2.50479e-21)
(0.569728 0.00560369 -5.3058e-22)
(0.593082 -0.0231152 -3.60709e-21)
(0.907873 0.0676037 6.9398e-21)
(0.68914 0.000919395 1.73674e-22)
(0.659259 -0.00654183 6.87712e-22)
(0.594946 -0.00328714 5.20774e-23)
(-0.0544862 0.0943504 2.10131e-22)
(0.20802 -0.0165881 1.24527e-20)
(0.580707 -0.0569072 1.85193e-22)
(0.794194 0.0559459 8.07236e-21)
(0.591383 0.00669024 9.55079e-22)
(0.687538 0.0568261 -4.84015e-23)
(0.438409 -0.0140322 -3.58954e-23)
(0.449371 -0.0111651 -4.29899e-22)
(-0.13169 -0.0246872 2.91215e-21)
(0.599349 0.0121678 1.95963e-22)
(0.862222 0.10109 -1.91222e-21)
(0.726093 -0.0761821 -2.47197e-20)
(0.422654 0.128488 -3.01606e-21)
(-0.0870892 -0.0574229 -6.18729e-22)
(0.298434 0.0164823 -5.18231e-21)
(0.441124 -0.0257935 -4.53539e-22)
(0.664148 0.0938906 8.92222e-21)
(-0.0200127 -0.0139306 1.08624e-20)
(0.573515 -0.00441232 -1.66447e-22)
(0.612484 0.0118408 -3.08172e-22)
(-0.0515624 -0.0906673 -8.8325e-21)
(0.646361 0.0158107 -1.59717e-23)
(-0.0409921 -0.106191 8.50285e-21)
(0.48745 -0.00847404 -4.56545e-22)
(-0.0990119 -0.0274964 2.08808e-21)
(-0.0560306 -0.101538 -2.55892e-20)
(0.572835 -0.000692485 7.17068e-22)
(0.6187 -0.0379259 1.08569e-23)
(0.597748 -0.0105674 -7.13369e-23)
(0.0794625 0.0570181 -2.85605e-21)
(0.574523 -0.00146959 7.67247e-22)
(0.908302 0.0635083 2.43032e-21)
(0.50646 -0.121397 3.23513e-21)
(-0.0646998 -0.0804606 -1.15369e-20)
(-0.0482159 -0.0887632 -2.20082e-20)
(-0.0965244 -0.0482092 4.01298e-21)
(0.483773 0.00340064 5.73619e-22)
(0.609665 0.00119943 -1.90995e-22)
(0.93833 0.0575957 -1.08029e-21)
(0.575831 -0.00162891 -1.09705e-21)
(0.519978 -0.0234149 4.39606e-22)
(0.44173 -0.0163127 -2.07332e-22)
(0.415428 0.0343812 1.03267e-20)
(0.645294 -0.0627643 -2.2031e-22)
(0.497321 -0.0284099 -3.30062e-22)
(0.748205 -0.0993697 -9.5206e-22)
(0.583711 0.0160989 6.95593e-22)
(0.681622 0.0562607 -8.17023e-22)
(-0.047684 -0.124903 4.27998e-21)
(-0.00419392 0.0843363 -1.22804e-20)
(0.444683 -0.0127057 -3.56475e-22)
(-0.0421952 -0.103826 -1.33914e-21)
(0.633747 0.0127546 2.3802e-23)
(0.057024 0.0348403 2.76724e-20)
(0.901454 0.0606904 -2.32704e-21)
(0.582242 -0.0545614 4.96831e-23)
(-0.034382 0.104429 1.64006e-21)
(-0.0562076 -0.10883 -9.69439e-21)
(0.174656 0.00468509 7.90677e-22)
(0.0113163 -0.0586611 7.24618e-21)
(0.163721 0.0103262 1.29406e-20)
(0.515205 0.0724257 -3.20338e-24)
(0.43174 -0.0442222 -4.37703e-23)
(0.490228 -0.0059111 -1.09481e-23)
(0.571227 -0.00293196 3.2053e-22)
(0.611315 -0.123622 1.15251e-21)
(-0.0601401 0.0836823 2.4791e-20)
(0.437114 -0.0148597 7.83089e-23)
(0.922319 -0.0670924 5.45732e-23)
(0.450763 -0.0106918 3.32618e-23)
(-0.0522372 -0.129614 -1.15781e-20)
(0.555487 -0.00113446 1.58287e-21)
(0.450861 -0.0351901 3.26426e-23)
(0.569121 0.00296031 -4.01818e-22)
(0.602518 -0.0153676 -6.0237e-23)
(0.571944 -0.00281853 1.99938e-21)
(0.703148 -0.0811668 -1.47868e-22)
(0.452436 0.0471511 2.78971e-20)
(0.0291856 0.0679569 -1.01106e-20)
(0.617661 0.0156145 3.01837e-23)
(0.48236 0.0378738 -1.10795e-20)
(0.579997 -0.0436359 7.90988e-22)
(0.542851 -0.111633 9.21614e-21)
(0.556793 0.00956935 -2.69827e-22)
(0.38596 -0.0325961 -3.84852e-21)
(0.589977 0.0208972 1.62648e-22)
(0.360452 -0.11003 -1.00355e-21)
(0.461459 -0.0135351 -1.7444e-21)
(0.192144 0.00302827 8.23586e-22)
(-0.0530269 -0.116903 2.72578e-21)
(0.632417 0.0158973 1.18785e-23)
(0.699408 -0.060548 -1.20769e-21)
(-0.0932844 0.0144021 -7.54787e-22)
(0.563934 0.000589995 -1.18396e-22)
(0.619263 0.0021417 9.70547e-24)
(0.600919 0.0158586 1.83508e-23)
(0.471778 -0.00762703 4.29433e-23)
(-0.0458236 0.11187 -4.00762e-21)
(0.513754 0.00115205 5.11594e-22)
(0.552651 -0.0013304 -3.24007e-21)
(0.487899 -0.0164819 3.08759e-25)
(-0.115173 0.0164785 4.11076e-21)
(0.555943 0.00855211 -8.94662e-22)
(0.0172753 0.0387243 -5.85763e-21)
(0.56095 -0.046534 6.15255e-22)
(-0.120447 -0.00193373 -3.36274e-21)
(0.648898 0.018203 -5.24783e-23)
(0.580465 0.0290659 -2.92647e-22)
(0.614155 -0.00687091 -1.60086e-22)
(0.455789 -0.0133199 5.61695e-22)
(0.113786 -0.0620718 2.61112e-21)
(0.0505259 -0.0381708 1.98102e-22)
(0.771385 0.0608787 7.13836e-21)
(0.51258 -0.0182812 1.02285e-22)
(0.612835 -0.0257829 -9.82251e-23)
(0.61982 0.000211027 1.16708e-22)
(0.579618 -0.000506712 -1.00509e-21)
(-0.0771124 -0.0650872 2.11278e-21)
(-0.0484964 0.116177 1.41758e-21)
(0.559752 -0.000939516 8.82823e-22)
(-0.0386007 0.0978081 2.25654e-20)
(0.512084 0.00533442 -1.32638e-22)
(0.518495 -0.0394346 1.9274e-23)
(0.489159 -0.0458913 2.48446e-23)
(0.636924 0.0188312 7.83646e-23)
(0.526853 0.00884815 -2.15374e-22)
(-0.0602651 -0.0860305 -1.95902e-21)
(-0.0490694 0.103718 1.47872e-21)
(-0.0738799 -0.0645315 -7.22825e-21)
(0.543715 -0.0263675 1.48681e-23)
(0.581442 0.0156616 -3.90084e-23)
(0.525934 0.0118461 8.04467e-22)
(0.0238416 0.0709318 -5.38469e-21)
(0.438319 0.0564513 -2.15468e-22)
(-0.0801413 0.0631314 8.97024e-21)
(-0.093175 0.0295219 5.35373e-22)
(0.277045 0.0228373 -2.63427e-20)
(0.461969 -0.00615974 4.72216e-24)
(0.73178 -0.131903 -5.41769e-21)
(0.559198 0.00957288 1.62708e-22)
(0.585621 0.011834 -1.62788e-22)
(-0.0475277 0.124063 7.69259e-21)
(0.617516 -0.0212455 -3.13816e-24)
(0.523322 0.00382025 -9.54118e-24)
(-0.0387045 -0.0397607 1.66702e-21)
(-0.0418021 -0.117347 -3.99938e-21)
(0.365076 0.041638 5.74382e-22)
(0.578002 0.00283862 -1.32566e-22)
(-0.047628 0.114935 1.16108e-20)
(0.191377 0.00967828 -1.22334e-22)
(0.597988 0.0122239 3.91422e-22)
(0.74501 0.0572784 -4.22027e-21)
(-0.0615365 0.0810779 -1.56296e-20)
(0.609468 0.0202698 1.66654e-22)
(0.568315 -0.000715499 2.36995e-22)
(0.513323 -0.0471597 1.41943e-20)
(-0.0560382 -0.110158 -5.48162e-21)
(0.511404 0.00747932 6.75184e-22)
(0.472757 -0.0466744 1.0865e-22)
(0.647029 0.0125445 8.89213e-23)
(0.470655 -0.00598574 -1.94106e-22)
(-0.0320455 -0.00587784 -6.24426e-21)
(0.444649 -0.0168737 2.13356e-22)
(0.643617 -0.0372072 -3.97939e-23)
(0.225089 0.0878121 2.58305e-21)
(-0.0436162 -0.119514 -8.04046e-21)
(0.57471 0.00948401 -4.42143e-22)
(-0.164674 0.00501586 6.72179e-21)
(0.551814 -0.0566879 9.25538e-23)
(-0.068035 -0.0211294 1.73502e-20)
(-0.0249267 0.0295057 5.6459e-21)
(0.677687 -0.0700784 1.43846e-21)
(-0.103719 -0.0467762 -9.86856e-21)
(0.23473 0.0856666 -2.73622e-21)
(-0.0441268 0.102799 2.19827e-21)
(0.641751 0.0279445 -1.84586e-23)
(0.484983 0.00328842 -9.75797e-22)
(0.652094 0.00471455 1.34402e-21)
(-0.108066 0.0127592 1.57348e-21)
(0.659917 -0.0612567 3.48718e-21)
(0.565231 0.00176122 7.14469e-22)
(0.455895 -0.0327689 -1.77343e-22)
(-0.0557248 0.0614331 -3.087e-21)
(0.619421 -0.0172786 -8.37566e-23)
(0.798087 -0.0625065 -5.25392e-21)
(-0.0524229 0.0974336 1.55338e-21)
(0.0173861 0.0709883 3.29606e-20)
(-0.0657325 0.0692617 5.4432e-22)
(0.500026 -0.0079273 3.31365e-22)
(0.544051 0.0102608 9.33864e-22)
(-0.0152657 0.0019693 -1.32567e-20)
(0.466488 -0.0155557 -7.66747e-22)
(-0.0396576 0.100901 -2.67687e-21)
(0.534618 -0.0217696 -4.52263e-22)
(0.565652 0.0202086 -6.53494e-25)
(0.558822 -0.0325214 3.35774e-23)
(-0.13068 -0.00530383 -2.3442e-21)
(0.0918351 0.034819 -1.08278e-21)
(-0.130006 -0.0133295 4.07822e-21)
(-0.159591 0.00734049 -1.19215e-20)
(0.448891 -0.0121936 -5.03306e-22)
(-0.113264 0.0241023 -2.44132e-21)
(-0.0497625 -0.0152627 -3.54328e-22)
(0.508068 -0.0469806 -1.0335e-22)
(0.49512 -0.0184216 2.56756e-22)
(0.521562 -0.0439155 5.91254e-24)
(-0.0639215 -0.0766736 4.95998e-21)
(0.507281 0.00845374 -3.68096e-22)
(-0.0585989 -0.063741 2.61917e-21)
(0.876184 0.0800524 1.00389e-20)
(-0.0813279 -0.0492261 1.46458e-20)
(0.476282 -0.0479675 -1.29573e-22)
(-0.0682328 -0.0375594 7.17188e-21)
(0.590323 -0.0118422 8.01735e-26)
(0.446955 -0.0248518 -2.25384e-22)
(-0.00612474 -0.0884736 -9.71425e-21)
(0.00251318 0.0273026 -3.2708e-21)
(0.537216 0.0133822 -7.9412e-22)
(-0.0928308 0.0426805 -2.91901e-22)
(0.49722 -0.050772 6.54258e-21)
(-0.121503 0.0109522 1.93741e-21)
(-0.0407018 0.0346864 -7.05002e-21)
(-0.0247519 -0.0985439 1.94868e-20)
(-0.0632022 0.0812423 -3.80192e-21)
(-0.106798 0.0261761 2.52927e-22)
(0.442953 -0.0204689 -6.1997e-23)
(0.0034391 0.0778888 1.2905e-20)
(0.495523 0.00639493 7.35999e-23)
(0.444705 -0.0282829 -3.33026e-23)
(-0.0501245 -0.12643 -5.11087e-21)
(0.180107 -0.000726116 2.11618e-20)
(0.515909 -0.0457414 9.74881e-21)
(-0.0401753 -0.116753 1.43304e-20)
(-0.171083 -0.00244513 6.09711e-20)
(0.496328 -0.0491615 -7.23401e-23)
(-0.17446 0.000116793 -3.5582e-20)
(-0.0310489 -0.0892261 -9.75094e-21)
(-0.0521657 -0.0317365 -2.17584e-21)
(0.576168 -0.00123753 5.24709e-24)
(-0.0592152 0.08879 3.37981e-21)
(-0.0470958 0.00147045 -8.69269e-21)
(0.433127 -0.107804 1.88116e-20)
(0.589661 -0.000775658 9.10458e-23)
(0.485066 -0.0239858 6.19502e-23)
(0.102906 0.0224688 2.25526e-20)
(-0.0529046 -0.1259 1.0781e-20)
(-0.0031772 -0.0841217 1.33157e-21)
(0.419783 0.0401888 3.15069e-21)
(-0.0520191 0.106009 4.06045e-21)
(0.599912 0.00920915 3.088e-22)
(-0.0494792 0.0782557 6.67333e-21)
(-0.0469526 0.118897 -5.79196e-21)
(0.0407897 0.0539667 -1.76556e-20)
(0.524114 0.00255739 1.39797e-22)
(0.59459 -0.0594085 -8.1943e-21)
(0.464891 -0.0314777 -8.47752e-23)
(-0.152026 -0.00888496 -1.47635e-20)
(-0.0204747 -0.0491651 7.11521e-21)
(0.0190033 -0.0696076 -4.71175e-22)
(0.546778 0.00831977 -1.05884e-21)
(0.425639 -0.0649268 3.42348e-20)
(0.578513 -0.0102281 7.01448e-24)
(-0.0547059 -0.0745472 6.69209e-21)
(0.466136 -0.0202794 6.70717e-22)
(0.0193885 -0.0738492 -3.56356e-21)
(-0.14382 0.00839811 -1.75814e-21)
(-0.0531529 -0.004907 -9.49232e-21)
(0.55254 0.0073819 7.68558e-22)
(0.573123 -0.00579118 6.16612e-22)
(-0.138038 -0.0109255 8.16379e-21)
(-0.0754562 0.0157562 -1.04152e-21)
(0.0344081 0.06222 -1.03102e-20)
(0.501954 -0.02407 -1.79106e-21)
(0.622955 -0.05089 -9.09231e-23)
(0.630746 0.0165372 -6.51383e-22)
(-0.0620395 0.0589252 -3.58216e-21)
(0.461985 -0.0267367 -7.77603e-22)
(-0.0593008 -0.0900084 4.37478e-21)
(-0.142591 -0.0163615 6.99323e-21)
(0.423685 -0.0411595 -2.69337e-21)
(-0.0838081 -0.00181319 1.27544e-20)
(0.15395 -0.0167115 -4.71321e-21)
(-0.0560661 0.103027 1.56507e-20)
(-0.0624475 -0.0593624 -7.63357e-21)
(-0.0233139 0.0485153 1.39025e-20)
(0.519028 -0.0317234 1.80225e-23)
(0.551191 -0.0019498 3.76213e-23)
(0.564281 -0.0578204 -3.52397e-23)
(0.534499 0.0522227 -4.80592e-21)
(-0.105856 -0.0431325 2.71256e-21)
(0.107633 0.0230741 -9.38288e-21)
(0.58725 -0.0186073 -6.63248e-24)
(0.689817 -0.0758886 -1.70168e-21)
(0.587467 -0.00820157 -1.08402e-22)
(-0.0469389 0.119915 8.1447e-21)
(0.478895 -0.00436529 8.80242e-24)
(0.0522298 -0.0523944 -2.36517e-21)
(0.494041 -0.00536223 -4.93675e-23)
(-0.0488172 -0.126734 5.02358e-21)
(0.606984 -0.0369969 -2.022e-22)
(0.553614 -0.00101504 3.95648e-22)
(-0.0498393 -0.103318 1.3477e-20)
(-0.0199125 0.0553053 -1.05507e-20)
(0.438319 -0.0193364 7.86857e-23)
(0.468549 -0.0102547 2.43158e-21)
(-0.0544338 0.0869429 -2.48321e-21)
(0.096255 0.00963796 -1.59997e-20)
(-0.111661 0.00900493 -2.86546e-21)
(0.553811 -0.00136178 1.40942e-21)
(-0.0751685 0.0330116 5.51423e-21)
(0.700137 -0.069701 -7.97499e-21)
(0.471971 -0.0140911 1.19758e-22)
(0.834037 -0.0932625 7.81295e-21)
(0.638282 0.0140982 2.98166e-22)
(0.633477 -0.0450228 -9.59774e-24)
(0.443738 -0.0140135 -2.80788e-23)
(0.471939 -0.0030103 -2.99089e-21)
(-0.130211 -0.019253 -4.83607e-21)
(0.559209 0.0134715 -5.24189e-23)
(-0.109877 -0.0282119 -1.00554e-20)
(0.886069 -0.0769618 -1.73396e-21)
(0.568154 -0.00381885 -3.11803e-22)
(-0.0272375 -0.0780834 2.29838e-20)
(-0.0465386 -0.0782108 5.66301e-21)
(-0.0436096 0.0181965 6.43024e-21)
(-0.0498527 0.121937 4.97286e-21)
(0.537993 0.0180617 2.98161e-22)
(0.61623 0.00631503 3.83997e-22)
(0.593763 -0.00389986 -1.52205e-22)
(0.471572 -0.0191276 4.12683e-22)
(0.00738028 0.00552666 -1.42537e-20)
(-0.161237 0.00557634 3.47105e-20)
(-0.0809899 0.0503671 1.93159e-22)
(-0.0269628 0.0104438 -6.40476e-21)
(0.202035 0.0861746 1.18367e-20)
(0.719405 0.0624317 7.51018e-21)
(0.45737 -0.00894846 1.05204e-22)
(-0.0261158 0.0669069 1.50318e-20)
(-0.0479468 -0.0982975 7.23196e-22)
(-0.0117903 0.0823184 -1.25389e-20)
(0.602717 -0.0518882 -6.91935e-21)
(0.659046 -0.0249214 3.13726e-22)
(0.836862 0.0606744 6.2914e-21)
(0.0520434 -0.0599068 8.45514e-21)
(0.42856 0.118245 -2.46198e-21)
(0.141629 -0.0288667 -1.1726e-20)
(-0.119837 -0.0183444 1.24454e-20)
(0.494424 -0.0143882 1.87738e-22)
(0.458496 -0.0358341 2.99112e-22)
(0.749282 0.0896643 2.68724e-22)
(0.173669 0.0067353 4.64306e-21)
(0.552326 -0.0191116 -1.11052e-21)
(0.536983 -0.00322038 -2.87491e-22)
(-0.145624 -0.00288502 4.73001e-21)
(-0.0330917 0.091064 5.06166e-21)
(0.66889 0.130958 2.44994e-20)
(0.141609 -0.0038225 -4.34481e-21)
(-0.13848 -0.00117465 1.0985e-20)
(0.0474047 0.0218061 9.14741e-21)
(0.095433 0.0175208 -1.96548e-20)
(0.52045 0.0100198 -2.23713e-22)
(0.567063 0.00849559 -4.79772e-23)
(0.0302401 -0.0645626 -1.89465e-20)
(0.542174 0.00549799 -1.39278e-21)
(0.567822 -0.027614 -2.78039e-21)
(0.594602 0.0176848 -1.74428e-23)
(0.43753 -0.0191367 1.43521e-22)
(0.618638 -0.00159978 -9.80531e-22)
(-0.0384883 -0.113752 3.22207e-21)
(0.0103963 0.0155085 3.4271e-21)
(0.616169 0.0549068 -3.27813e-22)
(0.0754904 -0.0090414 -1.06451e-20)
(-0.0503271 0.0886287 -1.61992e-20)
(0.159397 0.0142646 -3.68009e-21)
(-0.151079 0.00307019 -6.1153e-21)
(-0.00434571 -0.080826 -5.03571e-21)
(0.523263 5.32698e-05 -4.32777e-22)
(-0.152892 0.00600602 -1.57386e-20)
(0.458015 -0.0402874 -2.38749e-22)
(-0.0810987 0.0259184 -4.85034e-21)
(-0.136753 0.00206309 2.30299e-21)
(0.572748 0.0122461 -1.93352e-22)
(0.0435532 0.0214806 -1.15191e-20)
(0.465332 -0.0293272 -1.45525e-21)
(0.651768 -0.0183742 -4.15315e-22)
(0.0328057 -0.0647078 -1.23296e-21)
(0.061007 0.0603964 3.18e-21)
(0.434124 0.0612979 -2.20685e-22)
(-0.0719185 0.071096 9.54666e-21)
(0.515106 0.00935386 -7.01513e-22)
(0.763525 -0.13003 -3.54439e-21)
(-0.163093 0.00275238 -3.99967e-20)
(-0.0584774 -0.0967362 1.66411e-20)
(0.0245698 -0.0587449 -4.69084e-21)
(0.469352 -0.042398 3.50967e-22)
(0.456208 -0.00800918 -3.63078e-22)
(0.484792 -0.0491234 2.02491e-22)
(-0.0356091 -0.0227721 2.31334e-21)
(0.614958 -0.0564914 -1.13508e-22)
(0.39367 -0.0347215 -2.66675e-21)
(0.511613 -0.0391319 6.93457e-23)
(0.468945 -0.00401452 1.69832e-22)
(-0.176379 0.000327387 -2.82228e-21)
(-0.0249062 0.0940419 6.06971e-21)
(-0.0216998 0.0852139 -1.70788e-20)
(0.228563 -0.0856165 1.66462e-21)
(0.575336 0.0147475 1.06233e-22)
(-0.0435736 0.091168 -4.26466e-21)
(0.514897 0.00611736 -8.14129e-22)
(0.6206 0.0132793 5.17296e-23)
(-0.0986034 0.0169507 3.0003e-21)
(-0.152008 -0.00517652 -1.44423e-20)
(-0.174185 0.000121987 -6.23989e-21)
(0.461534 0.0166827 1.09202e-21)
(0.542787 0.0123037 -1.51588e-23)
(0.589911 0.0631947 -6.96138e-21)
(0.449051 -0.0135246 1.13713e-21)
(0.442857 -0.0265617 -1.87309e-22)
(0.350519 0.0541315 -2.50985e-21)
(0.0492377 0.0556126 -7.44331e-21)
(0.610603 -0.0296476 5.13844e-23)
(0.198501 0.00171242 1.49726e-20)
(-0.0565464 0.0976278 5.06217e-21)
(-0.136304 0.00570512 -1.03843e-20)
(-0.0657472 0.0695372 -5.8268e-21)
(-0.0515469 0.0264254 3.59825e-20)
(0.59232 0.0170335 -1.18277e-22)
(0.127778 -0.014289 -5.44448e-21)
(0.585432 0.00123187 1.31895e-22)
(0.46345 -0.0327051 1.28048e-21)
(0.555113 -0.0990826 1.16078e-20)
(-0.0488746 0.130336 -1.02163e-20)
(0.0668647 0.0508716 1.56637e-21)
(-0.0844365 0.00364832 -8.08471e-21)
(-0.095091 0.0484378 9.32378e-21)
(-0.116754 -0.0368296 1.0034e-20)
(0.524817 -0.0175009 -3.74088e-22)
(0.628545 -0.00526641 4.01907e-22)
(0.501389 -0.0025547 6.40597e-24)
(0.0572557 0.0551191 -1.79414e-20)
(-0.176615 -0.00265372 8.38996e-21)
(0.0792271 -0.044406 -1.28702e-20)
(-0.0466911 -0.127427 2.13046e-20)
(-0.179042 -0.00103529 7.74888e-21)
(0.503283 -0.0426256 -8.32986e-23)
(0.607897 -0.0591796 -6.10545e-23)
(-0.163061 -0.0053822 3.17701e-21)
(0.36787 -0.0295146 -6.4624e-21)
(0.3393 -0.0249815 3.54306e-21)
(0.572956 -0.00917126 -4.84483e-22)
(-0.0353563 -0.110923 1.69822e-20)
(0.525269 0.01002 5.02722e-22)
(0.556325 0.00870802 4.39154e-22)
(-0.00523295 -0.0750237 8.6999e-21)
(0.604387 -0.0605723 -2.07566e-22)
(0.840123 -0.0747798 3.69508e-21)
(0.768157 -0.0659284 -3.93425e-21)
(-0.0184703 0.0917064 -1.8964e-20)
(0.817407 -0.104889 8.15754e-23)
(-0.0483431 0.124855 -2.67834e-21)
(-0.046641 -0.119373 7.65421e-22)
(0.252268 -0.0244393 -3.57259e-21)
(0.251543 -0.0613635 2.34939e-21)
(0.90038 0.0685118 -8.45612e-21)
(0.620684 0.00852505 9.00195e-23)
(0.629954 -0.00312812 2.64319e-24)
(0.5091 0.0068367 -9.06057e-22)
(0.0219284 -0.0733751 1.37279e-20)
(0.00472701 0.00308601 -3.62424e-20)
(-0.130165 -0.0283917 -1.21631e-20)
(0.309005 0.0238791 4.42165e-21)
(0.521549 0.0103761 -3.25857e-22)
(0.856997 0.0818063 8.0181e-21)
(0.846223 -0.0842326 -1.17861e-21)
(0.598239 -0.00968621 1.69659e-23)
(0.820572 -0.0884965 -3.31565e-21)
(0.444861 0.0158017 -3.12863e-22)
(0.587738 0.00421808 -2.31103e-21)
(0.51611 0.00401912 -8.5274e-22)
(0.578835 -0.0364239 2.21998e-21)
(0.554926 0.0102757 8.64599e-23)
(0.443161 -0.0241883 5.36264e-22)
(0.050206 -0.0390842 -2.13469e-21)
(0.564906 0.00646895 -1.25849e-21)
(-0.0898548 0.0569814 -3.24324e-21)
(0.583807 0.122484 -8.54398e-21)
(0.552067 -0.00176073 1.27644e-21)
(0.0783818 0.0438543 -9.06605e-21)
(0.466324 -0.0249735 -1.07583e-23)
(0.487785 -0.0392573 -7.79164e-22)
(-0.107037 -0.00112795 1.3294e-21)
(-0.149635 0.004695 -1.66962e-21)
(0.121944 -0.0766264 -5.50036e-21)
(0.524743 -0.00133432 3.22612e-22)
(0.567998 -0.00630296 9.21516e-22)
(-0.044382 -0.0686631 8.3176e-24)
(-0.0412128 0.0898916 3.98937e-22)
(0.577401 -0.0578045 -8.60857e-23)
(-0.0399523 0.114223 -1.70072e-20)
(0.621381 -0.0144742 -7.89137e-23)
(0.621237 0.018954 2.93781e-24)
(0.817101 -0.0795928 1.63806e-21)
(0.620836 0.00193145 4.73899e-23)
(0.479926 -0.0469531 4.97909e-22)
(0.639249 -0.0474247 4.45246e-22)
(0.128973 -0.0559204 -7.0756e-23)
(0.0308104 -0.0548343 -3.52421e-20)
(0.25021 0.00281317 5.60554e-21)
(-0.0716048 -0.0632865 6.06827e-21)
(0.0296295 0.0289568 5.60148e-21)
(0.619269 0.0169591 1.46641e-22)
(0.439342 -0.0152467 2.2372e-23)
(0.599087 -0.0113368 3.30805e-24)
(0.395474 0.0465155 5.76467e-21)
(0.0043797 0.0701291 8.53302e-21)
(0.550648 -0.00268604 -2.14793e-21)
(0.587216 -0.0544493 -1.16499e-22)
(0.593801 0.0150092 -4.79599e-23)
(-0.0735471 -0.0468446 -8.39379e-21)
(0.587135 0.0166648 8.84604e-23)
(0.903182 -0.0658713 -3.96421e-21)
(0.472126 0.0425862 7.86789e-22)
(0.673834 -0.13471 -1.94939e-21)
(0.506276 -0.0142687 2.18686e-22)
(-0.0602758 -0.0988096 -2.93555e-21)
(0.551277 -0.00173382 2.65145e-21)
(0.625377 0.0181356 6.53269e-22)
(0.520289 0.0100923 5.21113e-22)
(0.541307 -0.000672505 -3.45071e-22)
(0.442081 -0.0168994 8.74241e-23)
(0.215855 -0.0381483 6.05081e-21)
(0.525641 0.00588619 1.45123e-22)
(0.0800023 0.00786607 -8.17117e-22)
(0.643487 0.0617697 -5.95964e-21)
(-0.0380896 0.0221601 -8.8848e-22)
(0.588889 0.0606071 4.9912e-23)
(-0.0683338 0.0560865 -7.78865e-22)
(0.0516162 0.0216628 -6.98296e-21)
(0.838589 -0.0669117 -1.23587e-21)
(0.592839 0.0199499 -2.11394e-22)
(-0.0916856 -0.0117925 4.4478e-20)
(0.46852 0.109555 -2.48464e-21)
(0.319754 -0.115243 -8.70758e-21)
(0.132709 0.0488614 -1.239e-21)
(0.00919692 0.0611067 2.34561e-20)
(0.619981 0.121107 7.9761e-21)
(0.249027 0.0219134 2.39401e-21)
(0.36628 0.0989295 4.72614e-21)
(0.525477 -0.0365155 1.8539e-21)
(0.524909 0.0077353 1.01946e-22)
(0.083905 -0.0244921 5.29627e-21)
(-0.0521695 -0.110518 -2.1907e-21)
(-0.00829849 -0.0218805 1.79212e-20)
(0.584834 0.0176012 4.21801e-23)
(0.316797 0.111609 -1.03136e-20)
(0.512414 0.00602683 -1.20303e-22)
(0.608838 -0.00192659 -4.76489e-23)
(0.556937 0.00379959 -4.5086e-21)
(0.617113 0.000111525 -2.99416e-23)
(0.638462 -0.0386794 2.77344e-22)
(0.604005 -0.0199482 -2.32341e-22)
(0.574975 0.00413415 2.55592e-22)
(-0.115755 0.0250959 1.60023e-20)
(0.499296 0.00208391 2.95709e-22)
(0.439545 -0.0227882 6.60305e-22)
(0.467368 -0.0433219 2.03359e-20)
(0.546859 0.123338 1.64513e-21)
(0.647895 -0.0522321 3.07261e-22)
(0.620011 0.0158177 2.9154e-22)
(0.514016 0.0131454 2.00911e-22)
(0.129544 -0.0869418 -2.83366e-21)
(0.556422 0.0122571 -2.48426e-22)
(0.505588 -0.00271904 -2.18123e-22)
(0.625273 -0.00969083 -4.60521e-23)
(0.680195 -0.116069 -3.86173e-21)
(0.532178 0.0498593 -3.28881e-22)
(0.742856 -0.122192 -1.73961e-21)
(0.617232 -0.0201578 4.61608e-22)
(0.588401 0.0550736 4.64792e-23)
(0.231389 -0.00582186 -1.27278e-21)
(0.498241 -0.0232825 6.20655e-23)
(0.452622 -0.0281296 -5.68418e-22)
(0.21197 0.00471304 1.59452e-22)
(-0.108613 -0.0389629 7.11582e-21)
(-0.02558 -0.102692 -2.45143e-20)
(0.369699 -0.0401474 6.37039e-21)
(0.0680962 -0.0455463 -6.78e-23)
(0.626889 0.0518294 -4.30198e-24)
(0.00822537 0.0690056 1.62432e-20)
(0.508821 0.0240219 1.33136e-22)
(0.575518 0.0138928 -3.57674e-23)
(0.622782 0.0108461 3.77937e-22)
(0.583673 0.0110839 -3.27284e-22)
(0.370335 0.119402 4.75764e-21)
(0.563889 -0.00242315 -1.27237e-22)
(0.616121 0.0178065 -6.80042e-22)
(0.61771 0.000671226 -1.87808e-22)
(0.231679 0.0770546 3.51787e-21)
(-0.17731 -0.000949947 2.21688e-20)
(0.550871 -0.0475293 1.85447e-22)
(0.632481 -0.0342824 -7.72732e-23)
(0.499361 0.00618905 1.8621e-22)
(0.557702 -0.0234956 -4.94789e-23)
(0.480685 0.00426838 -1.03586e-22)
(0.501694 0.00415595 -6.66674e-23)
(0.32159 0.00980979 -1.94783e-21)
(0.513562 0.00445691 -1.60159e-22)
(0.259505 0.0119443 -1.93788e-21)
(0.564889 -0.0206206 -1.49962e-22)
(0.596025 0.0108423 -8.33397e-22)
(0.551631 -0.0310067 7.70471e-22)
(0.526907 0.00398041 4.46837e-22)
(0.578417 -0.00934543 -1.36337e-21)
(0.53584 0.00491918 -1.31385e-21)
(0.595657 0.0101727 2.56662e-22)
(0.528563 0.0599076 4.83715e-22)
(0.606479 -0.00216538 -6.73962e-22)
(0.542406 0.00396251 2.91282e-21)
(0.461932 0.0406378 1.69471e-21)
(0.586968 0.0502974 -6.30775e-23)
(0.551685 0.0041951 1.54324e-21)
(0.56262 -0.000736344 -1.07871e-21)
(0.486153 0.00178503 -2.1591e-22)
(0.463139 -0.00176695 -1.24203e-22)
(0.437555 -0.00428209 -2.30763e-22)
(0.392251 0.00141415 2.26733e-21)
(0.34514 0.00575359 1.32897e-21)
(0.504857 0.00183196 -4.57607e-23)
(0.280483 -0.00132218 1.72797e-21)
(0.515777 0.00253894 -4.00933e-22)
(0.56493 -0.0276981 -1.93223e-22)
(0.529256 0.00300406 -1.0464e-22)
(0.568223 -0.0181005 6.92929e-24)
(0.536061 0.00395164 -7.60269e-22)
(0.54859 -0.00147559 2.68037e-22)
(0.555627 -0.00222237 9.19695e-22)
(0.544483 0.00364383 -2.86342e-21)
(0.554431 0.00268626 5.99254e-21)
(0.549688 0.00283775 -2.06449e-21)
(0.601377 -0.000617171 -4.581e-22)
(0.595038 -0.00260575 2.71273e-22)
(-0.163338 -0.00633665 -1.95137e-20)
(0.561722 0.0148964 -2.72215e-22)
(0.565739 -0.000323071 3.41604e-21)
(0.596755 0.000634627 -1.11794e-21)
(0.55277 0.00175629 -5.54403e-21)
(0.483153 0.00267337 1.69182e-21)
(0.534388 -0.0163904 -3.27241e-22)
(0.555647 0.000871339 -1.30194e-21)
(0.468338 0.00663828 -6.08101e-22)
(0.440179 0.00598347 -1.34251e-22)
(0.524041 0.00649457 6.8004e-22)
(0.55437 -0.000511776 1.45086e-21)
(0.593062 -0.00411017 -6.62187e-22)
(0.503615 -0.00887014 -2.92831e-22)
(0.605937 -0.0310883 2.20166e-23)
(0.592411 -0.0160985 2.34967e-23)
(0.214702 -0.0268539 -1.97443e-22)
(0.569993 0.0124775 1.37935e-22)
(0.490183 -0.0098008 1.08626e-22)
(0.555393 -0.00250093 2.3304e-21)
(0.542567 -0.000370267 4.47307e-22)
(0.5081 -0.00469635 6.18469e-23)
(0.588229 -0.00929652 1.11494e-21)
(0.386824 0.0233062 -1.89694e-23)
(0.570923 0.00835498 1.52073e-21)
(0.117264 0.00392782 -6.63605e-22)
(0.560682 4.83241e-05 -6.97052e-22)
(0.532554 0.0124043 -2.32399e-22)
(0.550708 -0.032844 -1.52562e-21)
(0.625744 -0.00377077 5.90816e-22)
(0.555773 -0.00446281 1.61923e-21)
(0.580842 0.015048 1.44547e-22)
(-0.043365 0.0878547 -1.20069e-20)
(0.58943 0.015641 -1.04397e-22)
(0.56063 -0.00271667 2.23427e-22)
(0.243749 -0.00812901 -6.17217e-22)
(0.553345 -0.00490484 -3.29923e-21)
(0.555214 -0.0280094 -4.75298e-23)
(0.526893 -0.0320065 -4.11134e-22)
(0.471084 -0.0601644 -2.64866e-20)
(0.578544 -0.0117933 5.48449e-22)
(0.64175 0.0107428 2.40535e-22)
(0.532604 0.0545126 -2.71236e-22)
(0.596045 -0.0011321 2.3472e-22)
(0.0420297 0.0523937 3.81256e-21)
(0.573358 -0.0325693 2.72886e-22)
(0.573842 -0.0240319 4.11225e-22)
(0.370981 0.00555307 1.55258e-21)
(0.411385 -0.000729673 2.86149e-21)
(0.307502 -0.0202919 -4.40075e-21)
(0.578521 -0.0074167 -8.45994e-22)
(0.509219 0.000469017 5.21643e-22)
(0.515191 0.0122123 1.07353e-22)
(0.473882 0.0165216 -7.48152e-22)
(0.519189 0.00195777 8.51908e-22)
(0.614251 0.0180053 3.52799e-23)
(0.538741 0.00352805 -1.17293e-22)
(0.443379 0.125918 -1.39901e-20)
(0.548261 0.00444792 2.13796e-21)
(0.546872 -0.00750818 -7.66378e-22)
(0.357052 -0.00495231 9.35447e-22)
(0.401963 -0.00830781 -1.2797e-21)
(0.41193 0.0338582 -2.27932e-21)
(-0.0969135 -0.00942039 -1.31407e-20)
(0.570708 -0.0156893 -1.22422e-22)
(0.536685 -0.0333401 3.29957e-22)
(0.336163 0.0943438 1.9979e-21)
(0.584532 0.0251544 1.40499e-22)
(0.584195 0.00920028 1.24608e-21)
(0.54919 0.00199417 1.88294e-22)
(0.535356 0.00248138 3.96724e-22)
(-0.0496719 0.0524671 2.30983e-21)
(0.519242 -0.047623 3.91854e-23)
(0.557367 -0.0158592 5.83769e-23)
(0.553359 -0.00698128 -3.5843e-22)
(0.612109 -0.00954039 -2.25829e-22)
(0.566264 0.00207893 2.6572e-21)
(0.557766 -0.00665698 1.57156e-21)
(0.549916 -0.00725773 3.23346e-21)
(0.55122 0.000851242 6.61735e-21)
(0.568975 -0.000386211 -2.03959e-22)
(0.556168 -0.00195047 -7.48636e-22)
(0.555651 -0.00112325 -1.5951e-21)
(0.55586 -0.00328933 -1.80458e-21)
(0.564728 0.000133161 1.07046e-21)
(0.0827521 0.0773941 8.54026e-21)
(0.53821 0.00865739 -1.02453e-22)
(0.541106 0.0018899 1.67592e-21)
(0.561092 0.00696293 1.12659e-22)
(0.564361 0.00403139 -1.43916e-21)
(0.570526 0.000495974 6.78373e-22)
(0.308651 -0.0319398 1.1907e-21)
(0.576013 0.0185506 1.06696e-24)
(0.551483 0.0261222 1.37827e-22)
(0.590902 0.0145258 -4.09798e-23)
(0.580464 -0.0057352 -1.60645e-21)
(0.543765 -0.0330862 7.59164e-22)
(0.590927 -0.00564752 1.97686e-22)
(0.556229 -0.0007941 3.09217e-22)
(0.487612 -0.124762 -1.56038e-21)
(0.591572 -0.0327196 -4.78897e-22)
(0.40375 -0.0205177 5.36237e-22)
(0.572158 -0.0044551 5.49573e-22)
(0.548227 -0.00953623 -3.08052e-21)
(0.519332 -0.00267272 2.06838e-22)
(-0.0340782 0.103108 6.70192e-21)
(0.568461 0.0192905 9.09156e-23)
(0.647108 0.0116742 -6.79309e-23)
(0.648041 0.0171873 -3.3528e-23)
(0.629028 -0.0235136 -9.72733e-23)
(0.64022 -0.00717391 -2.16223e-22)
(0.615157 -0.0186724 -9.9381e-23)
(0.616192 -0.000112282 2.76532e-22)
(0.644581 0.00145794 -1.09705e-23)
(0.610849 -0.0495141 5.34847e-22)
(0.610028 -0.00157041 8.45629e-23)
(0.619541 -0.0366994 -4.31767e-22)
(0.618875 0.00291219 -3.88149e-22)
(0.624217 -0.0296532 3.35244e-22)
(0.613201 -0.0434684 1.44951e-21)
(0.608271 -0.0549673 1.71322e-23)
(0.645645 0.00463354 -5.38356e-23)
(0.608449 -0.00252789 6.87922e-23)
(0.618846 0.00116714 -2.72711e-22)
(0.642752 -0.00258549 -2.89249e-22)
(0.627621 -0.0300708 1.12016e-22)
(0.565091 -0.00162192 -1.38561e-21)
(0.549253 0.000392337 1.00002e-21)
(0.173539 -0.0155027 -1.86746e-20)
(0.323385 -0.0160647 1.80068e-21)
(0.616878 0.0185295 2.94366e-22)
(0.572838 -0.0160305 -5.02494e-23)
(0.56777 -0.00929369 3.04202e-21)
(0.587746 -0.0414559 -1.31423e-22)
(0.446979 -0.00292938 -8.13025e-23)
(0.546709 0.0280766 7.58033e-23)
(0.471464 -0.00235619 1.51255e-22)
(0.582253 0.0104154 4.31047e-22)
(0.647225 0.00932654 -1.86902e-22)
(0.646493 0.011064 -1.57723e-23)