/*--------------------------------*- C++ -*----------------------------------*\
  =========                 |
  \\      /  F ield         | OpenFOAM: The Open Source CFD Toolbox
   \\    /   O peration     | Website:  https://openfoam.org
    \\  /    A nd           | Version:  10
     \\/     M anipulation  |
\*---------------------------------------------------------------------------*/
FoamFile
{
    format      ascii;
    class       volScalarField;
    location    "400";
    object      epsilon;
}
// * * * * * * * * * * * * * * * * * * * * * * * * * * * * * * * * * * * * * //

dimensions      [0 2 -3 0 0 0 0];

internalField   nonuniform List<scalar> 
10435
(
0.0006485
0.000579694
0.000430354
0.00122843
0.00172567
0.00118379
0.000427832
0.000700992
0.0009005
0.000749968
0.000737017
0.00253498
0.000277508
0.00367631
0.00352967
0.000864298
0.00370506
0.000315625
0.000971529
0.000614962
0.000722791
0.00127467
0.000853561
0.00233647
0.000848705
0.000707636
0.00245949
0.00031163
0.00210919
0.000510832
0.00159416
0.000878878
0.000731534
0.00197674
0.00137964
0.000971815
0.00150885
0.00248309
0.000266139
0.00140847
0.000588039
0.000497955
0.00319383
0.000807623
0.00152654
0.0019293
0.000855799
0.00286219
0.000726477
0.0012556
0.000806228
0.0017842
0.000273507
0.00138628
0.000337894
0.00185929
0.00195379
0.00282061
0.00310928
0.00173987
0.000363154
0.000597597
0.00283146
0.00207181
0.00116312
0.000483071
0.00279681
0.00335249
0.00063681
0.00257602
0.00132707
0.00151671
0.00203667
0.000633749
0.00317618
0.00303226
0.00264582
0.000447642
0.00069149
0.00261932
0.00187696
0.000636114
0.000287909
0.00144775
0.0022174
0.00146307
0.00101135
0.000775887
0.00257084
0.000774393
0.000930843
0.00115641
0.000525676
0.0020403
0.000683295
0.00140944
0.00142743
0.00340634
0.00322513
0.00168067
0.00302878
0.00150601
0.00144718
0.00069177
0.00152614
0.000989075
0.000527982
0.00154859
0.00249806
0.00205627
0.000991492
0.00141421
0.000918323
0.00142409
0.00138881
0.00101479
0.00196325
0.00102199
0.00071627
0.00202023
0.00217987
0.00231539
0.0007682
0.00218968
0.000885323
0.000535269
0.00174561
0.00238433
0.00192133
0.00208995
0.00240125
0.000741294
0.000872612
0.0029885
0.00194246
0.000417904
0.00125264
0.00151704
0.000651615
0.000810298
0.000674242
0.001475
0.00254861
0.00237668
0.00157735
0.00349284
0.00173715
0.00176994
0.00384816
0.00253099
0.0022836
0.00193441
0.000735087
0.0023941
0.00140281
0.00151594
0.00105667
0.000659771
0.0010345
0.000525271
0.00220422
0.00316109
0.00102429
0.00249987
0.00254534
0.00218586
0.000872059
0.00212479
0.00271968
0.00231215
0.00111856
0.00150357
0.00225763
0.00333787
0.0026296
0.000480616
0.000713817
0.00368866
0.000772684
0.00241181
0.00063168
0.00141395
0.00259502
0.000487921
0.00185394
0.0025584
0.00262653
0.000511583
0.00183932
0.00213558
0.00237088
0.000316173
0.00183094
0.000853225
0.00124882
0.000572855
0.0036289
0.00205139
0.0033932
0.0011531
0.00260307
0.00246855
0.000301276
0.00276314
0.000367495
0.00134489
0.000844575
0.00182987
0.00288824
0.00190292
0.0018182
0.000641268
0.0024346
0.0026647
0.0024838
0.00382983
0.0017862
0.000701923
0.000711134
0.00322243
0.00211968
0.0037057
0.00296034
0.00296584
0.00112351
0.0010874
0.000431069
0.00261028
0.0017752
0.00301659
0.00361362
0.000969116
0.000552528
0.00230347
0.0024639
0.00365342
0.00235931
0.00101262
0.00259038
0.00128656
0.000699368
0.00082579
0.000953848
0.00172194
0.00117704
0.000780147
0.00198349
0.000541179
0.00168368
0.000499662
0.00145236
0.00196699
0.000342234
0.00222965
0.000489262
0.00211037
0.00140883
0.000453168
0.00132432
0.00254379
0.000421556
0.00142147
0.000735542
0.00269914
0.00118432
0.00352653
0.000668384
0.00113648
0.0004534
0.00161124
0.000394776
0.000568763
0.000513454
0.000646245
0.000904309
0.00222708
0.00224685
0.00147081
0.0006776
0.000598385
0.000491617
0.00365435
0.000361823
0.00303276
0.00135766
0.000538357
0.00185924
0.000339042
0.00149496
0.00215551
0.00254487
0.000616668
0.00279241
0.000540034
0.000267559
0.00129562
0.00358737
0.000817805
0.00122726
0.00102408
0.00343192
0.00268458
0.000329333
0.00196239
0.00103863
0.00370753
0.00378475
0.00254056
0.000758689
0.00150609
0.000615459
0.00200669
0.000610592
0.00185053
0.00106112
0.00141632
0.0006307
0.00214188
0.00342673
0.00237196
0.00149909
0.00255333
0.000945096
0.00034857
0.000621649
0.000365222
0.00112416
0.000306086
0.00326772
0.00260595
0.00135713
0.00232053
0.00148786
0.000381254
0.00247879
0.00304119
0.00154815
0.00166732
0.00167032
0.00216402
0.00134847
0.00151303
0.000382882
0.00225829
0.00221007
0.00199648
0.00316674
0.00251846
0.000384798
0.000658799
0.00152822
0.000481772
0.0023839
0.000291609
0.000631362
0.000646409
0.000237862
0.000850206
0.00155466
0.00177178
0.00162853
0.000537976
0.00204795
0.000486574
0.00242013
0.0015827
0.00309769
0.00269462
0.00154
0.000696024
0.000423766
0.00183775
0.00021418
0.000617867
0.000650348
0.00239525
0.00271179
0.00248832
0.00176107
0.00090891
0.00275024
0.000395084
0.0006513
0.00315653
0.000584877
0.000640351
0.000278342
0.000260768
0.000650461
0.000319034
0.00119103
0.00294229
0.00186538
0.00190696
0.00144948
0.000340804
0.00167101
0.000231896
0.00263291
0.00254704
0.0020461
0.00259416
0.000876415
0.00058099
0.00258517
0.000624499
0.00266312
0.00129064
0.00110163
0.00244243
0.000715582
0.0023312
0.00130246
0.00107757
0.00196525
0.00303268
0.00229536
0.000359218
0.00135363
0.00122006
0.0022371
0.0020364
0.000197517
0.000887418
0.000530489
0.0005756
0.00169911
2.33873e-06
2.28362e-06
2.25767e-06
2.17862e-06
2.07401e-06
1.94442e-06
1.78002e-06
1.55165e-06
1.21008e-06
2.44825e-06
2.3264e-06
2.22242e-06
2.09974e-06
1.96123e-06
1.80225e-06
1.61228e-06
1.37662e-06
1.07891e-06
2.50521e-06
2.32977e-06
2.16722e-06
2.00445e-06
1.83804e-06
1.65933e-06
1.45953e-06
1.23147e-06
9.73785e-07
2.54627e-06
2.32632e-06
2.11682e-06
1.92068e-06
1.73179e-06
1.54001e-06
1.33759e-06
1.12025e-06
8.89679e-07
2.60166e-06
2.34196e-06
2.09219e-06
1.8672e-06
1.65892e-06
1.45673e-06
1.25284e-06
1.04309e-06
8.27398e-07
2.69917e-06
2.40083e-06
2.11253e-06
1.85967e-06
1.63189e-06
1.41816e-06
1.20992e-06
1.00215e-06
7.9315e-07
2.87103e-06
2.52866e-06
2.19791e-06
1.91394e-06
1.66307e-06
1.43336e-06
1.21511e-06
1.00238e-06
7.92876e-07
3.16137e-06
2.75475e-06
2.37167e-06
2.04908e-06
1.76807e-06
1.51482e-06
1.27819e-06
1.0513e-06
8.31713e-07
3.61335e-06
3.11266e-06
2.66348e-06
2.29103e-06
1.96934e-06
1.68173e-06
1.41521e-06
1.16135e-06
9.16742e-07
4.26562e-06
3.64276e-06
3.1138e-06
2.67714e-06
2.30056e-06
1.96405e-06
1.65252e-06
1.35519e-06
1.06611e-06
5.15385e-06
4.39732e-06
3.77991e-06
3.26198e-06
2.81209e-06
2.40779e-06
2.03198e-06
1.6711e-06
1.31658e-06
6.30369e-06
5.45206e-06
4.74544e-06
4.125e-06
3.57771e-06
3.08126e-06
2.6168e-06
2.16741e-06
1.72228e-06
7.7215e-06
6.93686e-06
6.13661e-06
5.38145e-06
4.70315e-06
4.08241e-06
3.49784e-06
2.92754e-06
2.35802e-06
9.88512e-06
9.11313e-06
8.14691e-06
7.19478e-06
6.33532e-06
5.54702e-06
4.80129e-06
4.06819e-06
3.3296e-06
1.3379e-05
1.23287e-05
1.10298e-05
9.77855e-06
8.6684e-06
7.65715e-06
6.6987e-06
5.74781e-06
4.77195e-06
1.87744e-05
1.69331e-05
1.50615e-05
1.33855e-05
1.19457e-05
1.06512e-05
9.42433e-06
8.19825e-06
6.92556e-06
2.63598e-05
2.31573e-05
2.04954e-05
1.8295e-05
1.64653e-05
1.48409e-05
1.32978e-05
1.17399e-05
1.01076e-05
3.55917e-05
3.10034e-05
2.75399e-05
2.4819e-05
2.26047e-05
2.06519e-05
1.87787e-05
1.68439e-05
1.47563e-05
4.60923e-05
4.04888e-05
3.6451e-05
3.33686e-05
3.08917e-05
2.87103e-05
2.65764e-05
2.42865e-05
2.16918e-05
5.80614e-05
5.19864e-05
4.77415e-05
4.46072e-05
4.21462e-05
3.99929e-05
3.78203e-05
3.53411e-05
3.23377e-05
7.24832e-05
6.64341e-05
6.2402e-05
5.96595e-05
5.76953e-05
5.60692e-05
5.43376e-05
5.20675e-05
4.88898e-05
9.10942e-05
8.54354e-05
8.20707e-05
8.03372e-05
7.96572e-05
7.94558e-05
7.91097e-05
7.79487e-05
7.53651e-05
0.000116531
0.00011136
0.000109208
0.000109411
0.000111317
0.000114102
0.000116879
0.000118631
0.000118442
0.000152937
0.000147516
0.000147287
0.00015092
0.000157566
0.000165945
0.00017485
0.000182737
0.000188319
0.000206141
0.000198023
0.000201057
0.000210567
0.000225413
0.000243377
0.000263082
0.000282631
0.000298122
0.000186132
0.000179956
0.000176729
0.000176449
0.000178995
0.000184056
0.00019117
0.000199759
0.00020922
0.000218952
0.000228435
0.000237244
0.000245061
0.000251708
0.000257105
0.000261282
0.000264314
0.000266219
0.000266901
0.000266331
0.000264478
0.000261301
0.000256721
0.000250518
0.000241978
0.000229515
0.000215273
0.000200212
0.000184642
0.000168138
0.000151901
0.000136312
0.000121444
0.000107235
9.38526e-05
8.13971e-05
6.99212e-05
5.94517e-05
4.99982e-05
4.15577e-05
3.41173e-05
2.76595e-05
2.21563e-05
1.75651e-05
1.38237e-05
1.08484e-05
8.53679e-06
6.77782e-06
5.46098e-06
4.48704e-06
3.77273e-06
3.25241e-06
2.87675e-06
2.60963e-06
2.42555e-06
2.30661e-06
2.24068e-06
2.21996e-06
2.23877e-06
0.000218362
0.000215615
0.000216057
0.000219705
0.000226304
0.000235253
0.000245779
0.000257031
0.000268163
0.000278421
0.000287191
0.000294046
0.000298769
0.000301384
0.000302176
0.000301626
0.000300014
0.000296969
0.000292163
0.000285819
0.000278315
0.000269894
0.000260664
0.000250579
0.000239418
0.000226806
0.000212704
0.000197372
0.000181207
0.000164744
0.000148534
0.000132875
0.000117912
0.000103735
9.04405e-05
7.81043e-05
6.67816e-05
5.65065e-05
4.72947e-05
3.91444e-05
3.20389e-05
2.59461e-05
2.08166e-05
1.65823e-05
1.31571e-05
1.04407e-05
8.3246e-06
6.70091e-06
5.46944e-06
4.54313e-06
3.85035e-06
3.33479e-06
2.95365e-06
2.67562e-06
2.4769e-06
2.34135e-06
2.25798e-06
2.21946e-06
2.21991e-06
0.000241803
0.000242033
0.000245649
0.000252311
0.000261458
0.000272301
0.000283918
0.000295359
0.000305752
0.000314386
0.000320756
0.000324581
0.000325804
0.000324562
0.000321155
0.000316002
0.000309541
0.000302091
0.000293825
0.000284861
0.000275294
0.000265173
0.000254474
0.000243082
0.000230794
0.000217429
0.000203008
0.000187722
0.000171859
0.000155784
0.00013989
0.000124481
0.000109762
9.58801e-05
8.29527e-05
7.10693e-05
6.02896e-05
5.06443e-05
4.21367e-05
3.47448e-05
2.84218e-05
2.3099e-05
1.86886e-05
1.50889e-05
1.21908e-05
9.88487e-06
8.06726e-06
6.64474e-06
5.53713e-06
4.67798e-06
4.01358e-06
3.5014e-06
3.10871e-06
2.81085e-06
2.58939e-06
2.43071e-06
2.32496e-06
2.26536e-06
2.24614e-06
0.000237029
0.000236224
0.000238751
0.000244267
0.000252208
0.000261809
0.000272185
0.000282434
0.00029173
0.000299396
0.000304951
0.000308122
0.000308861
0.000307288
0.000303666
0.000298347
0.000291695
0.000284015
0.000275543
0.000266443
0.000256818
0.000246698
0.000236044
0.000224757
0.000212705
0.000199794
0.000186028
0.000171534
0.000156543
0.000141359
0.00012631
0.00011169
9.77422e-05
8.46561e-05
7.25792e-05
6.16154e-05
5.18254e-05
4.32282e-05
3.58028e-05
2.94919e-05
2.42088e-05
1.98449e-05
1.62799e-05
1.33915e-05
1.10631e-05
9.19025e-06
7.68373e-06
6.46988e-06
5.48997e-06
4.69776e-06
4.06238e-06
3.55633e-06
3.1553e-06
2.84137e-06
2.60088e-06
2.42329e-06
2.30044e-06
2.22635e-06
2.19547e-06
0.000216529
0.000214063
0.000214572
0.000217784
0.00022326
0.0002304
0.000238508
0.000246862
0.000254777
0.000261666
0.000267075
0.000270706
0.000272423
0.000272233
0.000270249
0.000266673
0.00026174
0.000255681
0.000248698
0.000240946
0.000232521
0.000223459
0.000213742
0.000203315
0.00019211
0.000180095
0.000167304
0.00015386
0.000139962
0.000125874
0.000111891
9.83022e-05
8.53711e-05
7.33175e-05
6.23099e-05
5.24604e-05
4.38218e-05
3.63906e-05
3.0113e-05
2.48939e-05
2.06108e-05
1.71279e-05
1.4309e-05
1.20281e-05
1.0175e-05
8.65838e-06
7.40572e-06
6.36185e-06
5.48608e-06
4.74921e-06
4.13098e-06
3.61679e-06
3.195e-06
2.85565e-06
2.58993e-06
2.3899e-06
2.24847e-06
2.15973e-06
2.11763e-06
0.000188737
0.000184357
0.000182498
0.000182968
0.000185473
0.000189613
0.000194913
0.000200867
0.000206972
0.000212767
0.00021786
0.000221945
0.000224809
0.00022634
0.000226513
0.000225359
0.000222961
0.000219424
0.000214863
0.000209371
0.000203013
0.000195816
0.000187781
0.000178885
0.000169109
0.000158469
0.000147031
0.000134931
0.000122369
0.000109598
9.69052e-05
8.45838e-05
7.29135e-05
6.21292e-05
5.24043e-05
4.38438e-05
3.64784e-05
3.02736e-05
2.51432e-05
2.09621e-05
1.75868e-05
1.48722e-05
1.26839e-05
1.0905e-05
9.43921e-06
8.21073e-06
7.16285e-06
6.25538e-06
5.46182e-06
4.76616e-06
4.15968e-06
3.63773e-06
3.1972e-06
2.83476e-06
2.54606e-06
2.3256e-06
2.16725e-06
2.06512e-06
2.01262e-06
0.000159749
0.00015423
0.000150674
0.000148998
0.000149032
0.00015055
0.000153274
0.000156896
0.000161091
0.000165533
0.000169914
0.000173956
0.000177422
0.000180125
0.000181931
0.000182763
0.000182579
0.000181364
0.000179135
0.000175913
0.000171713
0.000166534
0.000160375
0.000153227
0.00014509
0.000136014
0.000126098
0.000115499
0.000104423
9.31255e-05
8.18949e-05
7.10253e-05
6.08076e-05
5.14761e-05
4.31867e-05
3.60214e-05
2.99765e-05
2.4986e-05
2.09406e-05
1.76984e-05
1.51125e-05
1.3045e-05
1.13753e-05
1.00033e-05
8.84876e-06
7.85079e-06
6.96629e-06
6.16696e-06
5.43731e-06
4.77139e-06
4.16974e-06
3.63623e-06
3.17518e-06
2.78913e-06
2.47748e-06
2.23668e-06
2.0611e-06
1.94446e-06
1.87943e-06
0.000128624
0.000122567
0.000117988
0.000114862
0.000113136
0.000112723
0.000113487
0.000115266
0.000117865
0.000121063
0.000124642
0.000128351
0.000131961
0.00013526
0.000138064
0.00014024
0.000141672
0.000142257
0.000141949
0.000140677
0.000138407
0.0001351
0.000130764
0.000125396
0.000118971
0.000111583
0.000103345
9.44436e-05
8.50669e-05
7.5483e-05
6.59798e-05
5.68421e-05
4.83697e-05
4.07693e-05
3.41375e-05
2.85205e-05
2.38767e-05
2.01171e-05
1.71259e-05
1.47572e-05
1.28806e-05
1.13791e-05
1.01549e-05
9.12872e-06
8.23857e-06
7.43588e-06
6.69114e-06
5.98432e-06
5.30885e-06
4.66761e-06
4.06958e-06
3.52615e-06
3.04808e-06
2.64336e-06
2.31473e-06
2.0599e-06
1.87303e-06
1.74695e-06
1.67313e-06
9.17783e-05
8.59357e-05
8.11363e-05
7.74166e-05
7.48139e-05
7.33351e-05
7.29541e-05
7.35466e-05
7.50941e-05
7.75423e-05
8.05268e-05
8.38879e-05
8.73681e-05
9.07277e-05
9.39e-05
9.67038e-05
9.91929e-05
0.000101301
0.000102596
0.000102861
0.00010209
0.000100303
9.76041e-05
9.39183e-05
8.92811e-05
8.37299e-05
7.7421e-05
7.05276e-05
6.31649e-05
5.55764e-05
4.81534e-05
4.11569e-05
3.48698e-05
2.93946e-05
2.47545e-05
2.08499e-05
1.76683e-05
1.52278e-05
1.33172e-05
1.17904e-05
1.05789e-05
9.60088e-06
8.78718e-06
8.0764e-06
7.41754e-06
6.79291e-06
6.17878e-06
5.57039e-06
4.96762e-06
4.36337e-06
3.77222e-06
3.21767e-06
2.72344e-06
2.30462e-06
1.9652e-06
1.70521e-06
1.51815e-06
1.39465e-06
1.32293e-06
0.00125856
0.00107407
0.000919214
0.000787418
0.000676125
0.00058332
0.00050416
0.000434438
0.000372831
0.000319659
0.000279651
0.000254015
0.000241118
0.000237818
0.000237698
0.000237671
0.000237048
0.000235302
0.000232634
0.000230001
0.000228799
0.000229848
0.00023118
0.000226553
0.000207188
0.00120153
0.00104609
0.000901445
0.000772395
0.000660677
0.000565432
0.000484084
0.000414255
0.000354867
0.000306019
0.000268442
0.000241686
0.00022417
0.000213717
0.000207874
0.000204927
0.000203921
0.000204352
0.000206123
0.000209433
0.000214554
0.000221477
0.00022925
0.000234836
0.000231313
0.00121937
0.00104983
0.000896717
0.000761669
0.00064507
0.00054585
0.000461956
0.00039148
0.000333252
0.000286546
0.000250516
0.000223872
0.000205016
0.000192293
0.000184258
0.000179948
0.000178818
0.000180564
0.000185089
0.000192413
0.000202512
0.00021508
0.000229061
0.000241722
0.000247058
0.00124542
0.00105644
0.0008913
0.000748446
0.000626618
0.000523994
0.000438389
0.000367795
0.000310611
0.000265398
0.000230609
0.000204567
0.000185637
0.000172408
0.000163837
0.000159318
0.00015856
0.000161458
0.000167997
0.000178154
0.000191727
0.000208056
0.000225469
0.000240293
0.000245112
0.00126798
0.00106256
0.000885365
0.000734256
0.000607181
0.000501628
0.00041491
0.000344545
0.000288366
0.000244381
0.000210652
0.000185322
0.000166764
0.000153699
0.000145263
0.000141014
0.000140768
0.000144545
0.000152394
0.000164262
0.000179726
0.000197599
0.000215321
0.000228141
0.000228705
0.00127985
0.00106246
0.000874924
0.000716527
0.00058511
0.000477527
0.00039043
0.000320751
0.000265776
0.000223089
0.000190504
0.000166079
0.000148204
0.000135674
0.000127706
0.000123939
0.000124214
0.00012861
0.000137205
0.000149884
0.000166002
0.00018392
0.000200415
0.000210135
0.000205366
0.00128638
0.00105658
0.000858506
0.000693494
0.000558844
0.000450358
0.000363775
0.000295398
0.000242031
0.000200932
0.00016976
0.000146526
0.000129636
0.000117916
0.000110612
0.000107393
0.000108093
0.000112802
0.000121586
0.000134239
0.000149917
0.000166674
0.000180904
0.000187292
0.000178609
0.00129423
0.00104339
0.000832967
0.000662381
0.000526223
0.000418422
0.000333542
0.000267298
0.000216148
0.000177115
0.000147764
0.000126102
0.00011057
9.99433e-05
9.34739e-05
9.08322e-05
9.18243e-05
9.65227e-05
0.000104948
0.000116788
0.000131021
0.000145562
0.000156734
0.000159754
0.000148213
0.00129397
0.00101525
0.000792916
0.000619694
0.000484994
0.000380153
0.000298595
0.00023544
0.00018717
0.000150826
0.000123762
0.000104136
9.05017e-05
8.13058e-05
7.58449e-05
7.38058e-05
7.49177e-05
7.92379e-05
8.67403e-05
9.70009e-05
0.000108728
0.0001199
0.000126887
0.000125196
0.000110226
0.0001854
0.000192659
0.0610558
3.01505e-05
1.42914e-05
1.95966e-05
0.0041403
3.06182e-06
0.0995676
1.3196e-06
6.63119
5.51129e-06
0.000171131
3.33575e-06
0.00369093
1.68118e-05
3.03214
2.80119e-05
8.52777e-07
0.124978
3.03705e-05
1.31443e-05
6.63556
2.59789e-05
2.74196e-06
3.54567e-06
2.86429e-06
0.000263469
4.05623e-05
4.73505
5.87547e-07
3.29602e-06
0.97516
0.000263654
5.67864
7.26416e-06
0.00130902
0.00404675
0.00147968
5.72793e-06
3.82044
1.49049e-06
5.70375e-06
0.0014925
0.000205281
1.35159e-05
8.06366
6.05297
8.60235e-05
0.000407954
7.64496
1.59101
4.717e-05
2.44673e-05
0.00344193
0.0780085
2.39687e-06
3.23885e-05
3.29051e-06
0.00911438
3.92466e-05
0.0489558
1.22497e-05
1.18541e-05
3.02421e-06
0.00160545
1.25115e-06
7.99263e-05
0.000196007
0.000175875
0.0693453
1.61749e-05
3.88723e-06
0.0845417
2.13425e-06
2.7578e-05
0.0252141
6.27655
2.37009e-06
2.30057e-05
0.000220691
9.11313e-05
3.34196e-06
7.06805
2.19335e-05
4.5087e-05
3.46353e-06
5.84078
1.16135
1.3908e-05
4.61809e-05
2.89124e-06
9.53358e-06
6.07062e-06
4.69289e-06
6.66282
3.54496e-06
6.56877
3.2832e-06
0.00646242
9.81596e-05
3.71385
0.000124975
1.66029e-05
2.93246e-06
0.000194779
6.08655
0.000196365
3.96988e-06
4.26702
1.00287e-05
2.31037e-06
3.70473
1.66771e-05
4.11564e-05
7.72996e-05
0.941002
4.82254e-06
8.45544e-05
1.73722e-06
9.08671e-07
2.05692e-06
2.3914e-05
2.61335e-06
1.20353
5.03424e-06
1.84188
0.00431902
4.7413e-07
6.07799
3.19911e-06
0.0619273
0.000188993
0.000826517
0.000583239
3.56023e-06
0.000180882
4.51492e-05
2.17897e-05
0.320768
2.30924e-05
0.00118537
0.0367618
7.46136e-07
4.41291e-05
3.76082e-05
4.06084e-05
0.000231638
1.69063e-05
5.76905
6.18051e-05
1.14921e-06
3.61756e-05
0.00785026
1.76931e-06
6.55301
3.05653e-06
5.35009e-06
0.0313732
1.90307e-06
5.09405e-06
0.0906272
6.77777e-06
6.78974
1.02792e-05
8.59421
2.19956e-06
2.76367e-06
4.77525e-05
3.02681e-06
3.50508e-06
1.38516e-05
9.96652e-05
7.65352
1.1617e-06
0.000258247
0.000205124
7.58782e-05
0.000353301
2.28818e-05
0.000457822
3.30894e-06
5.34873e-05
0.000446405
0.00136684
2.00014e-06
9.16428
4.18117e-06
0.00277066
1.36652e-05
2.71575
0.0189846
0.000445249
0.00101877
0.00460904
0.0474552
1.98712e-06
1.24982e-05
5.4784e-05
6.09173e-05
0.00028256
5.40772e-05
7.71517e-05
2.00161e-05
3.66553e-05
4.22183e-06
1.46387e-06
0.000122872
0.000133761
4.66566e-06
2.92813e-06
4.79508e-06
0.000450318
3.29041e-05
9.15442e-05
5.26109
4.00356e-06
2.54069e-07
2.87655e-05
3.53763e-05
4.42658e-05
1.40225e-06
1.76178e-06
0.0232528
5.86801e-06
1.38039
1.18048e-05
2.66908
3.96954e-06
4.39791e-06
6.11432
7.35246e-06
4.16247e-06
2.12596e-06
0.00145121
2.45462e-06
0.0124318
0.000106658
0.000514605
0.0107936
4.82404e-07
3.87205e-05
7.11777e-06
0.000882234
3.74131e-06
2.97298e-06
3.46497e-06
0.000407168
1.43551e-05
2.28884e-06
4.11635e-06
0.000294425
9.82068e-07
8.09682e-05
4.13081e-06
2.55979e-06
4.09329
0.0184299
0.0239835
7.97861e-07
0.000139316
4.21835e-07
5.04945e-06
1.7887e-06
0.0514373
2.41315e-06
4.12932e-06
5.30315e-05
0.004159
2.87614e-06
6.05209e-05
0.000490845
4.69749e-06
2.70754e-07
1.33698e-06
6.2464e-05
2.06114e-06
0.352213
1.55374e-06
1.86127
0.00219419
6.83787e-05
5.62699e-05
1.34138e-05
0.000370399
3.67826e-05
0.00021867
1.29564e-05
6.77971
3.51813
0.0120446
7.36492e-06
7.8364e-07
6.7836
0.000821659
4.98524
3.43194
1.92267e-06
2.18562e-06
0.000805159
0.466113
5.38467e-06
4.7987e-06
2.76114e-05
2.0072
4.97302e-06
2.82055e-05
6.34927e-07
0.3019
8.75973e-05
1.65671e-05
1.05589e-05
0.282488
5.54526e-07
4.57313e-06
0.000922029
8.2586
1.26304e-06
2.78643e-06
0.00166871
0.0229192
5.66748e-06
5.00703e-06
5.63372e-07
3.58436e-06
2.38676e-06
0.683207
0.000207526
1.77774e-06
3.64821e-05
9.38835e-06
0.00446027
2.62816e-05
1.70588e-06
4.72468
5.42246e-05
3.37501e-06
3.74918e-06
1.04331e-06
0.000110857
5.06036e-06
6.49336e-06
0.00120713
7.56438e-06
0.0358326
3.88232e-06
1.88103e-05
7.74429e-06
3.5736e-06
9.36036
0.000211903
9.46485e-06
3.33077e-06
0.0166212
6.73561
5.02554e-06
0.00223103
0.00120208
6.05456e-06
10.4215
0.000149379
8.06975
1.20675e-06
1.15824
1.21747e-06
3.501e-06
2.77662e-05
7.79136
4.32694e-06
0.0010363
1.13088e-05
0.00746402
4.6379e-05
0.467753
0.000168403
2.01312e-06
1.68836e-06
2.04297e-05
1.14822e-06
1.89776e-06
3.06776
1.14491e-05
1.04241
0.00183062
0.00141719
0.0015279
1.29418e-05
0.100195
10.185
2.69298
0.000800709
4.26472e-06
8.675e-05
0.0679886
0.000402954
8.92201e-07
4.5799e-06
0.648874
5.19548e-06
4.19335e-05
3.12134e-06
6.6383e-06
1.96265e-05
0.000221729
6.48095e-06
9.20419e-09
0.00437039
0.000115253
0.000127798
4.78885e-07
0.00107902
4.83881e-06
0.000734095
1.86462e-05
5.04605e-06
2.01636e-06
0.000119224
9.26208
2.40627e-06
2.7305e-06
1.3942e-05
1.47486e-06
1.82931e-05
0.000161656
2.97674e-05
3.55919
6.40957e-07
8.39323e-06
5.76533e-07
2.86849e-06
1.49426e-05
2.57802e-06
1.48266e-05
2.97692e-06
0.0100742
2.24073e-05
1.03104e-05
5.76178e-07
7.55667e-06
2.82198e-06
2.01043e-06
0.0108048
6.6773
0.000626997
0.000211166
0.00182621
0.000156114
0.00180241
3.02185e-06
1.94874e-06
0.353366
3.2298e-06
6.41355e-06
0.000578418
8.21853e-06
0.000143209
10.1209
4.60158e-05
4.94421e-05
0.00278877
7.75454e-06
0.00123073
0.000906991
0.000397038
2.41237
3.47839e-06
3.04951e-06
0.033556
1.78047e-06
10.2605
0.000285199
3.55873e-06
7.71468
2.73563e-06
2.6202e-06
0.000207326
1.00561e-05
3.23443e-06
0.000257884
0.000141119
0.000122978
0.00162095
4.13484e-07
5.65903e-06
6.66041
9.73295e-06
8.70939e-05
1.95401e-05
0.000810606
2.12768e-05
0.00348772
7.02858e-06
1.73417e-06
0.0227191
4.10542e-06
3.65296e-06
0.00307089
2.32413e-05
8.22357e-06
0.000615838
5.53839e-06
0.010603
7.63558e-06
0.000609925
0.000189726
0.00031
1.84284e-05
1.14731e-05
0.00456032
3.54318e-06
1.34619e-05
0.000261867
1.09058e-06
8.07754e-06
2.23008e-06
7.70222
1.74487
0.000152283
1.96416e-06
0.000195242
6.6004e-06
3.54992
0.150888
6.66573e-05
0.000267452
1.97745e-05
2.95636
3.58584
4.06775e-06
2.07499e-05
0.000282135
1.91567e-05
0.000113925
0.0162014
1.85436e-06
0.000494502
6.89049e-06
0.000460683
7.10132e-05
8.03144e-06
0.00155524
4.20801
1.30831e-05
5.95908
4.40636e-06
0.0125963
4.88003e-06
2.56706e-05
1.88839e-05
0.47694
0.00155313
0.0017656
4.64341e-07
9.70815e-05
0.000139472
8.14246
1.81359e-06
1.14732e-05
0.000131381
0.000245484
6.4183e-07
0.000795591
7.02486e-06
0.000172693
5.279
8.95748e-07
0.000216254
3.04461e-06
3.1308e-06
0.000208762
0.63143
2.50072e-05
0.0020724
3.22095e-06
9.53885e-06
3.28485
9.55358
0.000297014
4.35927e-05
0.000258311
0.408886
5.2305e-05
5.09878e-05
7.99923e-06
2.93699e-06
0.531758
1.29956e-05
1.798e-05
0.0015002
3.73661e-05
4.05452e-05
4.40706e-05
1.05795e-05
0.00516144
1.26111e-05
3.25469e-06
0.000215959
0.000174449
1.02333e-05
2.72567e-06
0.00136848
0.000213221
1.14108e-06
7.5463e-06
0.00267641
5.16695e-06
4.5925e-05
6.95428e-07
1.13101e-05
2.81426e-06
6.18285e-06
0.00156793
2.93124e-06
4.05796e-05
0.000147809
4.58782e-05
3.00188e-07
1.88876e-05
0.00853978
1.56852e-05
3.49957e-06
5.64458e-06
6.16036e-06
2.64713e-06
7.18955e-06
0.0038938
10.6251
0.000224105
0.154622
6.68362e-06
2.68194e-06
3.53667e-06
2.40471e-06
3.58348e-05
1.72623e-06
6.15e-05
1.45911e-05
1.73061e-06
7.84892e-07
0.00229455
0.000204452
8.4693e-06
0.00151246
1.18108e-05
1.72893e-05
5.01219e-07
6.86928e-05
0.000633825
0.00308706
0.00502579
0.0160921
2.37237e-06
1.31662e-06
2.87642e-06
2.17106e-05
6.28953e-07
9.49042
9.80627e-07
3.50745e-05
1.59707e-06
0.000437651
1.91505e-05
6.08765
1.76112e-07
3.57983e-06
2.87149e-06
3.00168
0.00248916
0.00106634
4.70734e-05
7.26211e-06
1.92608e-06
1.54678e-05
0.0947234
9.52064e-07
4.84557e-06
0.000969528
5.41548e-06
1.04303e-05
2.05168e-06
4.14275e-06
4.79564e-05
6.60484e-06
3.62689e-06
3.75744e-06
1.21476e-05
1.81407e-05
4.85824e-05
5.4921
3.18512e-06
0.00457231
2.27623e-06
9.32007
2.94465e-06
9.86412e-06
2.34421e-06
2.96467e-06
0.00153064
2.26111e-05
1.56342e-05
3.29217e-06
7.05241e-05
4.26347e-06
2.02244e-05
1.72089e-05
0.563439
0.00213634
2.74762e-05
5.29411
0.00596552
0.000795553
6.18986
1.19649e-06
3.18204e-06
3.5472e-06
3.72235e-08
6.25208e-06
0.00203609
3.44343e-05
4.36453e-06
0.000143235
3.40342e-06
5.24037e-07
0.00100266
2.82801e-06
6.64491e-07
2.99215e-06
1.90922e-05
0.000253273
3.44995
1.78668e-06
0.000508001
0.00354797
6.55572e-05
4.10039e-05
3.97796
6.75674
9.22647e-05
2.49573e-07
1.48604e-05
7.95926e-07
4.99841e-05
5.90978e-06
0.000667447
0.000139209
7.10153e-06
0.0580939
0.000505969
2.68494e-07
3.05336e-06
6.65739e-06
10.7874
0.00521391
3.25295e-06
0.00547641
0.00783393
7.80837e-05
0.00111174
2.99668e-10
1.97483e-06
0.00110188
7.0221e-07
0.00018092
0.000132616
6.90135
0.00594413
2.42909e-06
0.00627257
2.08032e-06
3.59942e-07
0.001032
3.52516e-05
6.20412e-05
1.56333e-06
6.11035e-06
0.000827119
1.70668e-05
1.94227e-06
5.85757e-06
5.69283e-06
0.000206738
5.52166e-06
0.323704
0.00536309
1.4569e-05
0.000210272
1.39091e-05
0.28049
3.85961e-05
4.80022e-06
1.2798e-05
9.69459e-05
5.72742e-05
7.20674e-07
1.84713e-05
8.99584
0.00351269
0.00151946
2.89063e-05
0.000217711
0.000575228
0.00904563
0.00351426
0.000851806
1.93181e-06
8.01463e-06
7.02798
2.94166e-06
3.18779e-06
9.92833e-05
0.0407763
0.0599278
4.60325e-06
1.1281e-05
0.000419748
3.49544e-06
0.0132753
0.00176801
2.07082e-05
4.72462e-06
0.315972
6.225e-05
0.000753816
7.3564e-06
1.07122e-06
1.9911e-06
0.000169433
0.0014788
3.63228e-06
3.49541e-06
3.99109e-06
0.00118974
1.6236e-06
0.000938607
0.000358606
1.78677e-06
5.02647e-06
0.000416783
2.43077e-06
8.31892e-05
2.67461e-06
7.945e-05
3.87144e-06
1.68741e-06
0.000582587
1.58827e-05
6.68042e-06
7.4434e-06
0.000348442
8.1807e-05
5.19965
5.06801e-07
3.87673e-06
5.54242e-06
0.00238905
0.315296
0.0215909
1.83364e-06
0.000272252
0.00478493
6.87601e-07
2.39731e-06
6.3656e-06
6.29825
4.3475e-06
0.360721
2.2761e-05
8.77119e-07
0.000778783
1.18904e-05
8.42531e-05
0.000231714
0.000176322
0.263611
0.31397
10.3765
2.53204e-06
0.0524905
0.00147299
9.31761e-06
0.0034109
4.48364e-06
6.53762e-06
0.00782061
1.80891e-05
2.83981e-05
4.8388e-05
0.00489602
1.053e-06
9.52712e-07
0.10738
1.40799e-06
3.29112e-05
0.00209009
6.92027e-05
0.00176886
7.04308e-06
0.000174269
5.27909
6.63087
0.000815533
7.35968e-05
0.000476277
2.94456e-06
2.34426e-06
0.000412127
0.000276068
1.33937e-06
4.29825e-05
1.63802e-06
0.00156574
2.86923e-05
0.00113197
0.000821507
1.79715e-07
5.20884e-06
8.44537e-06
0.000597327
0.00101212
0.000706283
5.65376e-05
3.23027e-05
0.000282381
0.000149816
4.82433e-05
0.000145935
2.85539e-05
1.36764e-06
2.19026e-05
1.09651e-05
1.98877e-06
0.000246028
9.0011
3.2684e-06
0.00063755
1.0571e-05
0.0100703
3.74526e-06
5.28751e-06
3.03552e-06
0.0258459
0.000472768
0.000207543
7.191e-05
3.85767e-06
4.37626e-06
0.0102537
5.7212e-07
0.00200416
0.000962214
0.669766
2.37168e-06
5.28811e-05
0.0117347
2.13549e-05
3.96294e-05
7.06334e-05
0.848328
2.33569e-06
7.32559e-05
0.00787527
0.00488312
3.06975e-06
5.26938e-05
5.79392e-07
1.72844e-05
3.43547e-06
7.72985e-06
4.81106e-05
3.76294e-06
0.000267765
0.000469105
0.181501
0.0246214
6.98183e-06
0.000148679
0.000546612
1.00406e-06
4.20096e-05
1.20161e-05
1.58317e-05
2.93137
2.40039e-05
0.000683623
2.09398e-06
2.83412e-06
0.000109594
2.86327e-06
4.04925e-05
4.0961e-06
0.00395667
0.00621918
0.933448
1.7986e-06
0.00338432
3.72293e-06
0.000109033
1.59289e-05
0.00159932
0.000555036
6.38574e-05
3.7607
1.222e-06
8.94966
5.74835e-06
6.9811e-05
6.23914e-05
3.32771e-06
2.59122e-06
0.00132155
0.0050842
2.08111e-06
9.19209e-06
0.0167613
9.31405e-07
5.82657e-06
1.75318e-06
2.94609e-06
8.84583e-06
6.10244
3.76358e-05
5.5905e-06
0.0075796
0.000358251
10.4897
2.26278e-06
9.59521e-06
5.49293e-06
3.43939e-06
5.47431e-05
6.93658e-06
2.8289
3.8852e-06
0.00132181
9.6708e-07
6.22855e-05
0.000593829
0.000756755
6.85866e-06
8.36036e-06
4.80457e-06
4.96427e-05
1.34713e-06
4.97386e-05
2.88113
2.14363e-05
6.02559e-05
3.78445e-06
0.0113384
0.821026
0.000235541
0.00288958
2.40313e-05
7.1105e-05
8.85637
9.96084
1.28193e-05
1.23419e-05
0.000141887
0.00064226
3.64398e-05
0.00947995
1.30193e-05
0.000592373
0.000924574
4.65132e-06
6.67685e-06
2.62237e-05
2.25918e-06
6.34847e-07
1.67265e-06
7.5836e-05
1.40512e-06
0.15556
3.77003e-06
4.18449e-06
2.98166e-06
1.63245e-06
5.89728e-05
9.23338e-07
0.276243
0.000237746
1.24713e-05
2.57169e-05
5.98074e-05
5.97437
1.27616e-06
1.68028e-06
1.71829e-05
5.11303e-05
2.05469e-05
0.000186165
0.927896
3.30313e-06
3.55958e-06
9.70445e-05
7.59904e-06
3.003e-05
0.00926748
1.48886e-06
3.4682e-06
7.99382e-07
1.60029e-05
0.00040308
0.00178301
0.00314768
5.0382e-06
0.00017146
5.30941e-07
2.53953
3.32592
6.45444e-06
2.72564e-06
0.0504968
4.04463e-06
3.53651e-06
0.000899897
5.57607e-05
3.55629e-06
3.62894e-06
4.57155e-07
0.000760344
0.000187544
7.68277e-06
1.10344e-06
0.000468361
0.000597237
1.83994e-07
3.23427e-06
7.65293e-06
1.11943e-05
0.000263698
7.19777e-05
4.40739e-06
0.0094791
1.70817e-05
1.01526e-05
6.74782e-06
5.23595e-05
6.1829e-06
6.96303
0.000858601
0.700854
0.000428332
0.00127074