/*--------------------------------*- C++ -*----------------------------------*\
  =========                 |
  \\      /  F ield         | OpenFOAM: The Open Source CFD Toolbox
   \\    /   O peration     | Website:  https://openfoam.org
    \\  /    A nd           | Version:  10
     \\/     M anipulation  |
\*---------------------------------------------------------------------------*/
FoamFile
{
    format      ascii;
    class       volScalarField;
    location    "400";
    object      k;
}
// * * * * * * * * * * * * * * * * * * * * * * * * * * * * * * * * * * * * * //

dimensions      [0 2 -2 0 0 0 0];

internalField   nonuniform List<scalar> 
10435
(
0.26585
0.300234
0.32745
0.570763
0.736993
0.580778
0.32597
0.411774
0.458845
0.439309
0.402354
0.932215
0.271001
0.291066
0.278391
0.465039
0.301728
0.279895
0.472149
0.302074
0.420442
0.581055
0.464162
0.842356
0.47048
0.217284
0.331545
0.285259
0.282815
0.356195
0.685115
0.463383
0.418826
0.254667
0.602699
0.220989
0.642664
0.342202
0.173272
0.596302
0.386443
0.349992
0.306628
0.41414
0.654935
0.735203
0.478033
0.318295
0.405082
0.573754
0.444099
0.744015
0.168503
0.23226
0.182079
0.262793
0.753255
0.35403
0.287331
0.691326
0.179428
0.26393
0.343694
0.823652
0.5553
0.346319
0.281333
0.356014
0.393303
0.908274
0.230113
0.283294
0.230264
0.396912
0.263057
0.272839
0.932457
0.332599
0.404679
0.22946
0.754212
0.217142
0.164118
0.233588
0.839113
0.236595
0.256331
0.402017
0.251635
0.276582
0.469175
0.552195
0.242654
0.245987
0.307018
0.215321
0.641202
0.275647
0.280758
0.721007
0.263354
0.680902
0.246391
0.348492
0.688149
0.487011
0.281294
0.663717
0.904285
0.213915
0.485379
0.651619
0.204286
0.203936
0.635548
0.493526
0.798827
0.244805
0.379365
0.810389
0.85531
0.228555
0.262929
0.206025
0.473345
0.198542
0.734465
0.223376
0.787889
0.331309
0.217721
0.414156
0.465518
0.244895
0.313233
0.151256
0.18394
0.66146
0.329849
0.415843
0.351814
0.647727
0.277978
0.896092
0.673501
0.281997
0.190907
0.744798
0.314888
0.930999
0.297964
0.759688
0.277583
0.895538
0.639157
0.26454
0.536072
0.291146
0.530582
0.304979
0.838418
0.257656
0.512657
0.913458
0.244884
0.855472
0.458368
0.830489
0.960687
0.882992
0.554778
0.207765
0.301205
0.272174
0.946956
0.26114
0.237429
0.339347
0.404249
0.301681
0.34673
0.650434
0.946251
0.190317
0.748298
0.282488
0.260065
0.353948
0.768432
0.83506
0.899439
0.161004
0.311981
0.18751
0.599712
0.373584
0.307231
0.238202
0.335031
0.54789
0.251974
0.332014
0.281137
0.348152
0.305505
0.62562
0.440621
0.751571
0.337825
0.764427
0.263328
0.397766
0.912772
0.953064
0.32526
0.303876
0.231262
0.192218
0.218226
0.269058
0.278797
0.328294
0.31491
0.252065
0.246502
0.525761
0.191308
0.24725
0.737022
0.261929
0.346538
0.489265
0.202595
0.852332
0.353277
0.311041
0.853514
0.24269
0.916661
0.601681
0.355892
0.22021
0.204337
0.254655
0.569394
0.428428
0.220438
0.363177
0.233876
0.226905
0.225943
0.244054
0.2944
0.848174
0.346423
0.836666
0.206849
0.334383
0.241001
0.324674
0.323646
0.642287
0.216933
0.950318
0.230421
0.325571
0.310656
0.55241
0.178271
0.703359
0.314435
0.371093
0.354205
0.403118
0.237694
0.864269
0.335549
0.664194
0.407267
0.3793
0.349873
0.32344
0.302953
0.260201
0.244167
0.172753
0.77451
0.182221
0.232947
0.274552
0.233531
0.356769
0.322313
0.36246
0.176931
0.227839
0.293516
0.242088
0.589817
0.522769
0.350553
0.945888
0.291464
0.262262
0.524921
0.291247
0.323066
0.91379
0.439131
0.228979
0.335639
0.307453
0.202152
0.770012
0.508124
0.233712
0.198869
0.83092
0.346227
0.89265
0.678563
0.321694
0.255296
0.157916
0.384796
0.304452
0.260309
0.283182
0.322879
0.351592
0.587851
0.273995
0.222806
0.309936
0.908415
0.356134
0.239369
0.238171
0.226876
0.288244
0.279327
0.275228
0.176784
0.302481
0.292685
0.294754
0.351727
0.358103
0.154849
0.393088
0.221085
0.346517
0.322493
0.277952
0.385636
0.379525
0.255604
0.465849
0.243999
0.248484
0.239041
0.200992
0.276103
0.174744
0.314155
0.296469
0.355485
0.962158
0.29008
0.400995
0.190437
0.315828
0.244049
0.365681
0.175519
0.330719
0.345041
0.344724
0.252952
0.23677
0.388269
0.185899
0.394474
0.338934
0.376583
0.385578
0.272895
0.265711
0.385341
0.28793
0.548371
0.250531
0.248854
0.267557
0.236741
0.295667
0.250336
0.25092
0.377415
0.316165
0.329489
0.300212
0.213701
0.377226
0.346164
0.387881
0.946986
0.21866
0.255344
0.357895
0.394674
0.35711
0.272252
0.23613
0.269892
0.342185
0.300299
0.302437
0.232015
0.262139
0.293811
0.244165
0.231683
0.177432
0.156531
0.346628
0.238061
0.0613608
0.0595757
0.0575092
0.054464
0.0509148
0.0469182
0.0424209
0.0371871
0.0307032
0.0652686
0.0627753
0.0599142
0.0564795
0.0526393
0.0484011
0.0436919
0.0384001
0.0323606
0.067938
0.0648287
0.0613235
0.057472
0.0533561
0.0489269
0.0441206
0.0388942
0.0332691
0.0697558
0.0661178
0.0620715
0.0578551
0.0535031
0.0489414
0.0441116
0.0389995
0.0336708
0.0710291
0.0669401
0.0624423
0.0579218
0.0533763
0.0487238
0.0439031
0.0388997
0.0337597
0.0720158
0.0675539
0.0626766
0.0579037
0.0531966
0.048472
0.0436611
0.0387397
0.0337374
0.072984
0.0681921
0.06298
0.0579865
0.0531338
0.048337
0.0435195
0.0386506
0.0337588
0.0742637
0.069049
0.0635171
0.058317
0.0533218
0.0484393
0.0435865
0.0387303
0.0339036
0.0760111
0.0702449
0.0644097
0.0590105
0.0538694
0.0488804
0.0439551
0.0390539
0.0342041
0.078162
0.0718236
0.0657436
0.0601608
0.0548704
0.049753
0.0447175
0.0397133
0.0347479
0.0804946
0.0737684
0.0675786
0.0618478
0.0564117
0.0511497
0.0459751
0.0408301
0.035708
0.0826161
0.0760524
0.0699699
0.0641495
0.05858
0.0531659
0.0478364
0.0425344
0.0372591
0.0839195
0.0787694
0.0730234
0.0671679
0.0614716
0.0558976
0.0503996
0.0449268
0.0394915
0.0864351
0.0824829
0.0769843
0.0710519
0.0651965
0.0594349
0.053742
0.048076
0.042459
0.0915985
0.0877657
0.0821183
0.0759487
0.0698488
0.0638429
0.0579076
0.0520007
0.046132
0.0998775
0.0948293
0.0885219
0.0819067
0.0754511
0.0691289
0.0628978
0.0567141
0.0505871
0.110499
0.103297
0.095993
0.0887975
0.0819065
0.0752127
0.0686422
0.0621511
0.055769
0.120967
0.112156
0.104014
0.0963009
0.0889948
0.0819332
0.0750163
0.0681953
0.0615136
0.129837
0.120462
0.111986
0.104015
0.0964395
0.0891016
0.0818967
0.0747755
0.0677825
0.136798
0.12782
0.119539
0.111643
0.104025
0.0965758
0.0892064
0.0818804
0.0746554
0.142354
0.13436
0.126647
0.119109
0.111689
0.104331
0.0969668
0.0895688
0.0822146
0.147319
0.140518
0.13355
0.126553
0.119545
0.112498
0.105351
0.0980659
0.0907395
0.152648
0.146869
0.140645
0.134289
0.12789
0.121393
0.114717
0.107796
0.10075
0.15964
0.154078
0.148404
0.142756
0.13717
0.131504
0.125628
0.119387
0.112913
0.170025
0.162833
0.157441
0.152609
0.148066
0.143549
0.138899
0.133828
0.128027
0.0575792
0.0563348
0.055929
0.0564322
0.0578924
0.0603135
0.0636568
0.0678438
0.072776
0.0783389
0.0844207
0.090915
0.0977221
0.10476
0.111952
0.119233
0.126541
0.133789
0.14085
0.147606
0.153929
0.159683
0.164715
0.16882
0.17161
0.172343
0.171702
0.169978
0.16723
0.163183
0.158391
0.153045
0.147197
0.140826
0.134078
0.127071
0.119911
0.112694
0.10552
0.0984866
0.0916984
0.0852678
0.0793075
0.0739241
0.0692045
0.0652015
0.0619256
0.0593493
0.0574102
0.0560317
0.055132
0.0546346
0.0544764
0.0546032
0.0549763
0.0555641
0.0563448
0.0573016
0.0584191
0.0615488
0.0608821
0.0610792
0.062218
0.0643308
0.0673851
0.0713045
0.0759791
0.0812796
0.0870705
0.0932203
0.0996097
0.106139
0.112737
0.119369
0.126039
0.132703
0.139163
0.145208
0.150761
0.155792
0.160243
0.164031
0.167034
0.169074
0.169918
0.169455
0.167695
0.164728
0.160744
0.155986
0.150605
0.144695
0.138336
0.131629
0.124681
0.117597
0.110484
0.103446
0.0965907
0.0900235
0.0838504
0.0781698
0.0730649
0.0685951
0.0647891
0.0616426
0.0591222
0.0571733
0.0557305
0.0547261
0.0540972
0.0537891
0.0537598
0.0539642
0.0543764
0.0549796
0.0557611
0.0567014
0.0636825
0.0634816
0.0641563
0.0657308
0.0681942
0.0714915
0.0755299
0.0801907
0.0853435
0.0908587
0.0966165
0.102512
0.108458
0.114387
0.120252
0.126022
0.131669
0.137144
0.142371
0.147264
0.151736
0.155692
0.159019
0.161582
0.163213
0.163754
0.163126
0.161328
0.158422
0.15453
0.149819
0.144445
0.138537
0.132214
0.125598
0.118812
0.111977
0.10521
0.0986182
0.0923045
0.0863586
0.0808569
0.0758571
0.0713968
0.0674915
0.0641365
0.0613103
0.0589791
0.0571022
0.0556363
0.0545377
0.0537632
0.0532756
0.053045
0.0530472
0.0532634
0.053679
0.0542841
0.0550606
0.0616678
0.0613862
0.0619475
0.0633692
0.0656335
0.068683
0.0724271
0.0767527
0.0815368
0.0866573
0.092002
0.0974728
0.10299
0.10849
0.113927
0.119265
0.124469
0.129493
0.13428
0.138759
0.142849
0.146456
0.149465
0.151747
0.153165
0.153593
0.152952
0.151217
0.148428
0.144681
0.140113
0.134874
0.129116
0.12299
0.116645
0.110227
0.103871
0.0977
0.091816
0.0863004
0.0812088
0.0765721
0.0723981
0.0686763
0.0653839
0.0624912
0.0599678
0.0577845
0.0559168
0.0543428
0.0530758
0.0521078
0.0514108
0.0509683
0.0507684
0.0508022
0.0510617
0.0515407
0.0522237
0.0571943
0.0567403
0.0570551
0.0581568
0.0600356
0.0626486
0.0659246
0.0697721
0.0740878
0.0787663
0.0837066
0.0888171
0.0940186
0.0992435
0.104435
0.109544
0.114524
0.119325
0.123889
0.128149
0.132025
0.135425
0.138241
0.140355
0.141649
0.14202
0.141397
0.139754
0.137119
0.133567
0.129217
0.124219
0.118738
0.112949
0.107024
0.101127
0.0954023
0.0899669
0.0849055
0.0802663
0.0760634
0.072282
0.0688877
0.0658358
0.0630798
0.0605786
0.0583016
0.0562306
0.0543601
0.0526949
0.0512498
0.0500432
0.0490901
0.0484
0.047977
0.0478205
0.0479253
0.0482844
0.0488783
0.0512526
0.0505595
0.0505445
0.0512307
0.0526174
0.0546799
0.0573703
0.0606228
0.0643592
0.0684958
0.0729481
0.0776351
0.0824811
0.087416
0.0923759
0.0973005
0.102131
0.106806
0.111261
0.115423
0.119211
0.12253
0.125279
0.127348
0.128632
0.129041
0.128511
0.127022
0.124593
0.121294
0.11724
0.112581
0.107497
0.102179
0.0968147
0.0915747
0.0865974
0.0819822
0.0777868
0.074023
0.0706659
0.0676657
0.0649596
0.0624828
0.0601768
0.0579958
0.055912
0.0539167
0.0520204
0.0502499
0.0486424
0.047239
0.0460765
0.045184
0.044579
0.0442682
0.0442484
0.0445117
0.0450355
0.044609
0.043741
0.0434473
0.0437521
0.0446659
0.0461805
0.0482702
0.0508943
0.0539999
0.0575265
0.0614097
0.0655828
0.0699791
0.0745321
0.079176
0.0838458
0.0884745
0.0929916
0.0973242
0.101393
0.105112
0.108384
0.11111
0.113188
0.114513
0.115009
0.114618
0.113326
0.111152
0.108166
0.104484
0.100261
0.0956897
0.0909719
0.0862929
0.0818183
0.077665
0.0739055
0.070569
0.067632
0.0650407
0.0627236
0.0606039
0.0586093
0.0566772
0.0547615
0.0528393
0.0509103
0.0489981
0.0471454
0.0454075
0.0438445
0.0425125
0.041456
0.0407024
0.0402622
0.040132
0.0403007
0.0407418
0.0370539
0.0360422
0.0355005
0.0354575
0.0359323
0.0369289
0.0384389
0.040442
0.0429068
0.0457927
0.0490559
0.0526422
0.0564966
0.0605609
0.0647758
0.0690822
0.073413
0.0776881
0.0818309
0.0857478
0.0893493
0.0925377
0.0952244
0.0973131
0.0986926
0.0993001
0.0990846
0.0980403
0.0961788
0.0935796
0.0903665
0.0866974
0.0827893
0.0788385
0.0749938
0.0714029
0.0681491
0.0652711
0.0627761
0.0606032
0.0586864
0.056946
0.0553048
0.0536933
0.0520553
0.0503429
0.048546
0.0466659
0.0447365
0.0428156
0.040976
0.0392942
0.0378403
0.0366722
0.0358249
0.0353093
0.0351177
0.0352342
0.0356262
0.0278991
0.0267738
0.0260089
0.0256464
0.0257125
0.0262239
0.0271821
0.0285688
0.0303963
0.0326663
0.035296
0.0382528
0.0414784
0.0449184
0.0485599
0.0523475
0.0562888
0.060328
0.0642607
0.0679477
0.0713214
0.0743177
0.0768967
0.0789483
0.0803937
0.0811504
0.0811815
0.0804776
0.0790115
0.0768516
0.074211
0.0712602
0.0682401
0.0652878
0.0625021
0.0598815
0.0575244
0.0556004
0.0539497
0.0524502
0.0510928
0.0498069
0.0485234
0.0471744
0.0456924
0.0440866
0.042344
0.0405024
0.0386048
0.0366501
0.0347117
0.0329007
0.0313304
0.0300789
0.0291727
0.0286339
0.0284509
0.0285994
0.0290227
0.234848
0.215278
0.199032
0.184801
0.172116
0.160747
0.150119
0.139724
0.129501
0.119706
0.111523
0.105526
0.101631
0.0992977
0.0971874
0.0947202
0.0918428
0.088525
0.0848773
0.0811435
0.0776361
0.0745531
0.0716086
0.067875
0.0620826
0.222449
0.208905
0.194909
0.181426
0.168816
0.157093
0.146052
0.135522
0.12556
0.116452
0.108628
0.10227
0.0972653
0.0933005
0.0899501
0.0869239
0.0840752
0.0813361
0.0787087
0.0762453
0.0740124
0.0720377
0.0702101
0.06813
0.0648645
0.219591
0.205257
0.190963
0.177173
0.164143
0.151939
0.140501
0.1298
0.119944
0.111122
0.103485
0.0970394
0.0916648
0.0871646
0.0833397
0.0800626
0.077262
0.0748928
0.0729278
0.07135
0.0701365
0.0692339
0.0685005
0.0675936
0.0657665
0.217491
0.201431
0.186155
0.171712
0.158182
0.145583
0.133894
0.123133
0.113386
0.104752
0.097265
0.090863
0.0854195
0.0807924
0.0768717
0.0736024
0.070963
0.0689355
0.0674896
0.0665767
0.06612
0.0659926
0.0659599
0.0655747
0.0639334
0.21475
0.197173
0.180793
0.165573
0.151514
0.138586
0.126749
0.116001
0.106374
0.0978971
0.0905436
0.0842268
0.0788285
0.0742385
0.0703861
0.0672461
0.0648174
0.063095
0.06205
0.0616146
0.0616621
0.0619766
0.0622053
0.0617868
0.0598314
0.210758
0.192015
0.174631
0.158683
0.144164
0.130997
0.1191
0.108421
0.098938
0.0906232
0.0834198
0.0772325
0.071954
0.0674939
0.063799
0.0608536
0.0586604
0.0572161
0.0564869
0.056387
0.0567459
0.0572735
0.0575337
0.0568872
0.0544031
0.206017
0.186072
0.167655
0.151016
0.136119
0.12281
0.110929
0.100371
0.0910616
0.0829331
0.0759115
0.0699016
0.0648056
0.0605408
0.0570583
0.054341
0.0523854
0.0511821
0.0506885
0.0507947
0.0512935
0.0518452
0.0519676
0.0509962
0.0480702
0.201025
0.179286
0.159695
0.142429
0.127277
0.113942
0.10216
0.0917744
0.0826748
0.0747636
0.0679599
0.0621763
0.0573277
0.0533181
0.0500934
0.0476275
0.0459028
0.0448995
0.0445618
0.0447569
0.0452412
0.0456561
0.0454985
0.0441134
0.0407479
0.195152
0.171188
0.150421
0.132718
0.117519
0.104322
0.0927491
0.0825763
0.0737039
0.0660388
0.0594709
0.0539552
0.0494446
0.0457542
0.0428266
0.0406322
0.0391188
0.0382623
0.0379971
0.0381698
0.0384855
0.0385942
0.0379535
0.0358648
0.0317663
0.228374
0.232978
0.392443
0.0501662
0.0123778
0.0158061
0.321402
0.0114949
0.484111
0.0191065
3.96693
0.0143546
0.181185
0.0100483
0.492004
0.0134086
2.35446
0.0488246
0.0195425
0.54653
0.0734734
0.0256996
4.27201
0.0332336
0.0119055
0.00979197
0.012073
0.0447294
0.114507
3.22979
0.0255038
0.00892347
1.10136
0.237012
3.67364
0.00963373
0.415753
0.503703
0.511624
0.0213089
2.82153
0.00152037
0.0149524
0.15296
0.0824986
0.046696
4.15571
3.21536
0.128791
0.249629
4.03829
1.38539
0.0988622
0.0461687
0.301723
0.432852
0.00953257
0.0810047
0.00953747
0.472644
0.0168554
0.358552
0.0116495
0.0202286
0.0112756
0.183067
0.0208266
0.0503305
0.191691
0.195026
0.405806
0.0338764
0.00974347
0.529871
0.0103138
0.0713688
0.584181
3.63509
0.00825275
0.0445532
0.214808
0.0301299
0.0108924
3.75842
0.0139109
0.019201
0.00998941
3.49693
1.25079
0.0453659
0.0425554
0.0330588
0.0211507
0.0150103
0.00931863
4.0137
0.00960616
3.72484
0.00305668
0.466786
0.0317339
2.78585
0.0360268
0.0384859
0.00951462
0.0682881
4.05584
0.201754
0.00583933
3.007
0.0218552
0.00880066
2.82314
0.038169
0.0929356
0.124995
0.952559
0.0208155
0.134985
0.0075032
0.000983211
0.00880728
0.0322412
0.0115429
1.28908
0.013875
1.55708
0.190699
0.00742544
3.24594
0.010764
0.499549
0.19638
0.430329
0.0905546
0.0100741
0.0755566
0.0205243
0.0120852
0.764299
0.0379295
0.420546
0.518768
0.000831622
0.110917
0.0221281
0.0549544
0.149959
0.0129288
3.67931
0.0374972
0.0106192
0.0530354
0.923155
0.0103447
3.61016
0.0103868
0.0194424
1.00838
0.00904429
0.0136863
0.458458
0.0149239
3.80258
0.0173176
4.19175
0.00975389
0.0117897
0.0320743
0.00996242
0.00986304
0.0233568
0.0518428
3.93026
0.0290627
0.0684259
0.194886
0.142151
0.24464
0.0377605
0.301581
0.00831784
0.106307
0.278208
0.189761
0.00481369
4.35037
0.00589823
0.27348
0.0103086
1.91283
0.499836
0.235984
0.380756
0.570365
0.340865
0.0101686
0.024531
0.114897
0.144936
0.226798
0.050408
0.0265747
0.0114704
0.0365861
0.0171218
0.0216369
0.0336639
0.15632
0.0191581
0.00956555
0.0124894
0.307202
0.0354917
0.0508927
3.65602
0.00868753
0.00387965
0.0534708
0.0653768
0.0158162
0.00160821
0.0103243
0.258453
0.0190483
1.31246
0.0313901
2.17727
0.00538939
0.00952588
3.46618
0.0096143
0.00853822
0.00793475
0.489085
0.0194878
0.938198
0.0252072
0.294224
0.878924
0.0246325
0.0170891
0.0143606
0.123434
0.00996644
0.00981723
0.0102833
0.125234
0.0127853
0.00881411
0.00483946
0.0766616
0.0192873
0.129389
0.00723341
0.0109232
3.00688
0.58589
1.00946
0.0203893
0.0535947
0.00757282
0.00923073
0.0103454
0.514915
0.0109014
0.0141796
0.0580808
0.309775
0.0119682
0.0997316
0.256457
0.00415624
0.0038168
0.0195624
0.0608159
0.0222323
0.850914
0.00927108
1.53099
0.234448
0.0399321
0.0458835
0.0454235
0.252665
0.0146951
0.0710714
0.0307263
4.22548
2.24146
0.590506
0.0156549
0.000773594
4.03416
0.432439
3.5312
2.73851
0.0314338
0.00982185
0.364444
0.80929
0.0139086
0.0138417
0.0134938
1.84688
0.013184
0.0708265
0.0239355
0.749203
0.0278283
0.0354522
0.0367218
0.502908
0.00736898
0.00381393
0.381389
4.2188
0.0190562
0.0118865
0.685472
0.866072
0.0138934
0.0139467
0.0239023
0.00971716
0.0106538
0.743929
0.208102
0.03226
0.0841981
0.0167928
0.548154
0.0129144
0.0191717
3.06759
0.0217276
0.0105361
0.0111333
0.00148572
0.0516944
0.0124937
0.0156777
0.409759
0.0360072
0.489495
0.00867732
0.0142426
0.00780712
0.0103602
4.42594
0.11428
0.0207306
0.00213757
0.878475
4.07284
0.0174094
0.835094
0.125461
0.0132395
4.67964
0.165925
4.78939
0.00696741
1.12921
0.00146112
0.0105897
0.0241377
4.09895
0.0095467
0.275788
0.0404831
0.941873
0.123352
0.836938
0.180766
0.00963354
0.00891011
0.0261049
0.00702608
0.0192481
2.51854
0.0190839
1.16126
0.177428
0.142797
0.641007
0.0195134
0.505772
5.26861
1.89581
0.126527
0.0161394
0.081806
0.449107
0.280004
0.0189865
0.0122878
0.837519
0.0180864
0.11529
0.0115797
0.0163359
0.0134312
0.242613
0.0156607
0.000100269
0.402023
0.0857893
0.0929365
0.0234734
0.344371
0.00935137
0.356291
0.0116172
0.0127632
0.0109926
0.143281
4.40948
0.0101357
0.0310125
0.0202819
0.00791365
0.0452534
0.0393251
0.0272286
2.35292
0.000961396
0.0196492
0.0259312
0.00869994
0.0102376
0.0107009
0.0490854
0.00886119
0.498972
0.0210515
0.0224299
0.000683509
0.007926
0.0109826
0.0092731
0.910287
4.19906
0.0870975
0.199191
0.106786
0.0318814
0.254074
0.00956572
0.00787862
0.746356
0.0105906
0.014249
0.320009
0.0363837
0.184274
4.59543
0.0184081
0.041952
0.230315
0.0164622
0.184051
0.346652
0.291371
1.8108
0.0115206
0.00930266
0.303947
0.00863936
5.35522
0.115887
0.0112805
4.61791
0.0110593
0.0114086
0.206569
0.0481346
0.011081
0.163203
0.135472
0.0575383
0.509116
0.000653704
0.0146529
3.63774
0.0104171
0.027145
0.0376207
0.440886
0.0366807
0.536063
0.0132362
0.0092666
0.406553
0.00963385
0.00877082
0.502673
0.0116305
0.0191235
0.256511
0.0145585
0.530862
0.00940323
0.0909454
0.189244
0.260383
0.0108934
0.0100259
0.391413
0.00996634
0.0220022
0.236917
0.0273034
0.0442996
0.00479643
4.0912
1.67748
0.158788
0.00965367
0.0763653
0.0266747
2.27133
0.585567
0.0573603
0.237907
0.0446701
2.07051
2.79802
0.0170582
0.0300451
0.0684654
0.0378142
0.0698713
0.246559
0.00753002
0.103823
0.0165948
0.278047
0.124637
0.0138642
0.654993
2.95535
0.0246945
4.04909
0.00272945
0.200504
0.0122456
0.0130046
0.0107515
0.973211
0.463166
0.494556
0.00744908
0.139389
0.153195
4.18572
0.0104576
0.0342391
0.163813
0.20142
0.0271063
0.411241
0.016902
0.186213
3.45304
0.0191408
0.0784966
0.00918116
0.00913602
0.0590283
0.779989
0.049532
0.437708
0.00899277
0.0105465
2.59039
4.48429
0.219422
0.0156093
0.0631657
0.799055
0.106625
0.0471123
0.0271684
0.0109915
0.751567
0.0235245
0.014992
0.647461
0.0409231
0.0276415
0.0223282
0.0194536
0.811939
0.0369468
0.0092034
0.211486
0.169004
0.0106406
0.00790538
0.41884
0.0384459
0.00150439
0.0181551
0.169823
0.00779343
0.0168848
0.0199991
0.0280054
0.00997451
0.0155467
0.503364
0.0100517
0.0287101
0.0539172
0.0934719
0.00433137
0.0147621
0.172751
0.0254998
0.012127
0.0137741
0.0348653
0.0130958
0.0161747
0.453946
4.70442
0.0403966
0.48123
0.014758
0.011419
0.0116297
0.00337057
0.0221015
0.00716371
0.104042
0.033685
0.0101201
0.00967184
0.523302
0.0759031
0.0115569
0.171933
0.0229611
0.0143447
0.00451292
0.0449257
0.105259
0.449624
0.775622
0.9221
0.00458971
0.0189354
0.00181908
0.0475378
0.0203165
4.46648
0.0227218
0.0745974
0.00748807
0.259823
0.0400474
3.60622
0.000298671
0.0116827
0.0110155
2.50955
0.258102
0.138485
0.100232
0.0160985
0.0194266
0.012136
0.589537
0.00123253
0.0124334
0.438654
0.00937814
0.0412333
0.0193081
0.00380014
0.0965873
0.0162903
0.0109028
0.0132798
0.0125287
0.0241255
0.115135
3.83643
0.00943588
0.440751
0.00965869
5.16031
0.0107376
0.0348149
0.00883403
0.00874224
0.660367
0.011739
0.0240283
0.00955409
0.0481046
0.00779548
0.0394744
0.0374206
0.902389
0.44044
0.0263414
2.99737
0.534461
0.425471
3.90944
0.0191235
0.0106575
0.0119288
0.000226296
0.012173
0.217269
0.0185809
0.00924927
0.169649
0.0264124
0.0257604
0.153871
0.00966724
0.0253112
0.0110241
0.0235966
0.232807
2.77568
0.0178333
0.288749
0.244072
0.13438
0.0793099
2.99739
4.14435
0.0655419
0.00377997
0.0117424
0.000950476
0.0433462
0.0136162
0.374849
0.19878
0.0329554
0.974199
0.0837901
0.0042252
0.0112624
0.00939841
4.75268
0.148642
0.0105412
0.31333
1.06554
0.125849
0.367502
1.35933e-05
0.00832993
0.171862
0.00100518
0.219419
0.105405
4.31893
0.846586
0.0103513
0.875139
0.0059594
0.000769485
0.143339
0.0247039
0.0245812
0.00815456
0.0154543
0.10756
0.0120061
0.00754723
0.0148374
0.0107691
0.0595027
0.017898
0.72163
0.517786
0.0254475
0.101479
0.0224933
0.731465
0.0208712
0.0316526
0.0403577
0.122757
0.0392604
0.00112776
0.03735
4.34895
0.134028
0.341978
0.0135698
0.161655
0.3483
1.11256
0.128028
0.413414
0.0103931
0.0375886
4.47011
0.00258579
0.0118022
0.0599629
0.34711
0.387963
0.0091077
0.0104169
0.240714
0.0118632
0.205536
0.332022
0.0376247
0.00882484
0.812759
0.139966
0.460292
0.0150495
0.00684335
0.0027548
0.149207
0.43436
0.0109415
0.0123656
0.00854335
0.314002
0.00806249
0.127277
0.307068
0.0180727
0.0125642
0.0763668
0.0179044
0.1208
0.00840119
0.110201
0.0169107
0.00975051
0.348113
0.0324987
0.0342492
0.0185779
0.0913226
0.118579
3.24023
0.00436632
0.0153017
0.0130094
0.445166
0.759933
0.249895
0.0061832
0.22853
0.525434
0.000824014
0.0100537
0.00874797
3.51107
0.0170794
0.824349
0.0180424
0.00113961
0.311136
0.0106603
0.0605279
0.083951
0.136585
0.695747
0.738932
4.66203
0.0178141
0.411423
0.407676
0.0393803
0.314466
0.00920743
0.00895931
0.294825
0.0109007
0.0605365
0.0837288
0.14271
0.00865
0.00760081
0.406541
0.00974238
0.0147712
0.488946
0.144174
0.702883
0.0303204
0.0672167
2.965
4.16888
0.435896
0.114926
0.293316
0.0134004
0.00503897
0.103256
0.213554
0.020242
0.0486148
0.0115919
0.31876
0.0209284
0.208023
0.477723
0.000296234
0.0083498
0.0306442
0.328102
0.499017
0.324062
0.114728
0.0463843
0.0461063
0.069947
0.060623
0.201449
0.0766661
0.00735991
0.0113981
0.00951238
0.00450697
0.175708
5.11326
0.00598675
0.329935
0.0418919
0.912263
0.0268167
0.00940603
0.0115843
0.283651
0.266731
0.0379182
0.107901
0.0102314
0.0065553
0.559209
0.0268443
0.778752
0.47271
0.936145
0.00850993
0.0464952
0.561077
0.0136014
0.036947
0.0256042
1.05377
0.0233317
0.0259846
0.837141
0.433765
0.00929025
0.0540868
0.0233004
0.0343735
0.00909705
0.00811466
0.092419
0.0063579
0.0746978
0.286401
0.628517
0.294103
0.0156539
0.0564714
0.128305
0.00764967
0.109938
0.0117335
0.0105509
2.40304
0.0172667
0.105145
0.0121836
0.0117115
0.143938
0.0196366
0.0445566
0.00440063
0.277317
0.339437
0.96184
0.0103651
0.482073
0.0100205
0.0532378
0.0141019
0.430569
0.312432
0.0446871
2.73401
0.00710721
4.34155
0.00910553
0.126289
0.0305874
0.0119882
0.0221107
0.22696
0.528196
0.0072496
0.0293324
0.360559
0.00645974
0.0339071
0.01008
0.00339374
0.0149024
3.29914
0.0283606
0.0117663
1.06375
0.0776088
4.69057
0.00416324
0.0358834
0.00900323
0.0142536
0.0423821
0.00858832
2.41028
0.0152545
0.138042
0.0065443
0.0601572
0.113006
0.353081
0.0149961
0.0256064
0.0340279
0.038374
0.00747848
0.0503331
1.99406
0.0438456
0.0920061
0.0100237
0.589819
1.02842
0.0592832
0.254216
0.0151368
0.144144
5.07876
4.57488
0.0104439
0.0100522
0.0551548
0.307494
0.0484979
0.182285
0.0309102
0.0928716
0.36992
0.010876
0.0225094
0.0169389
0.0188965
0.0261494
0.0102243
0.152352
0.0180332
0.429832
0.0176096
0.00896715
0.0059352
0.0191729
0.10656
0.00649736
0.732611
0.211191
0.0111391
0.0253566
0.119897
3.50476
0.00725397
0.00816981
0.0357141
0.0516202
0.042061
0.060497
1.05337
0.00941807
0.0182447
0.142671
0.0095806
0.0323708
0.594109
0.00713682
0.0104407
0.00117217
0.0114776
0.272455
0.110483
0.45111
0.0201518
0.0526447
0.0266543
2.12994
2.57953
0.0136493
0.0179837
1.00012
0.0163361
0.00916116
0.485799
0.132242
0.0126271
0.019389
0.00527991
0.102671
0.226285
0.0167417
0.00894581
0.34852
0.317252
0.0005202
0.00791665
0.0161376
0.0419012
0.0635959
0.122611
0.0102776
1.08618
0.0109389
0.0384726
0.00962176
0.0981241
0.00888474
4.49983
0.361266
0.966187
0.329384
0.562285
0.0492456
0.00959344
1.45663
0.122637
0.0108226
0.0349465
0.00686586
0.0470114
0.010307
0.00930318
0.00824744
0.312317
0.00999522
0.0668682
0.558468
0.0103508
0.0660428
0.0548433
4.59062
0.00395477
4.28014
3.74306
0.0139849
0.00823589
0.0599204
0.0476198
0.0538051
0.395976
0.132307
0.0392256
0.00968255
0.0186955
0.27259
2.34746
0.0195046
0.0374082
0.0101346
0.00653072
0.024641
0.0725691
0.0183775
0.0167664
0.011429
0.161065
0.020903
0.0479622
1.46451
0.0105071
0.0924394
0.0426799
0.0775714
0.0715071
0.0468723
0.14163
0.0157444
0.0674408
0.255288
0.0105709
0.136397
0.511438
0.0124893
0.0315216
0.0398782
0.415264
0.0105308
0.191164
0.0265358
0.57415
0.256583
0.216367
0.144557
0.0165157
0.0225026
0.378584
0.379286
0.0285399
0.0332935
0.00796444
5.35339
0.0400639
0.0488311
0.00481865
0.0432244
0.0969791
0.00589897
0.00950285
0.00667406
0.366735
0.32054
0.0192256
0.0448967
0.0221234
0.00896022
0.00940842
0.446225
0.0419745
0.099965
0.356306
0.130149
0.000484453
0.559209
0.127154
0.696426
0.163034
0.0107786
0.371397
1.00355
0.454499
0.00301199
0.205317
0.0142333
0.56989
0.0317204
0.0197879
0.195906
0.430103
2.86186
0.279852
0.0585395
0.0129643
0.29209
0.240356
0.0295196
1.19499
0.0391723
0.661517
0.0218293
0.268266
0.0336032
0.0094398
0.00940535
0.330214
0.00905659
0.0146098
0.793572
0.0077328
0.119741
0.00517587
0.020088
0.864558
0.265828
0.0411601
0.115461
0.559633
0.043251
0.133274
0.035283
0.0317906
0.0880569
0.0140306
0.223496
0.252455
0.00374166
3.19313
0.029888
0.0844327
0.0324334
0.037898
0.00857641
0.0730541
0.170063
0.443719
0.00709949
2.04626
0.0174682
0.130671
3.11105
0.031581
0.035621
0.582669
0.0232727
0.013498
0.000902676
0.867408
0.253347
0.0123661
1.01464
0.0510258
0.00952838
0.320767
0.0206117
0.0132639
0.213328
0.0412992
0.00833334
0.0216105
0.00899993
0.0252495
0.0435378
0.314452
0.248382
0.0497773
0.0192728
0.00741562
0.230864
2.6808
0.00941117
0.00773687
0.0600229
1.35326
0.00794948
0.205231
0.206208
0.0116697
0.110998
1.67858
0.00924852
0.067308
0.0154075
0.0380952
0.00960337
0.0114304
0.0331347
0.0848918
0.256126
0.00338319
0.813003
0.0101513
3.74155
0.0217017
0.318399
0.034271
0.802168
0.147334
0.0168269
0.0332879
0.0404455
0.0291898
0.0247318
0.233377
0.292414
0.0299774
0.0160805
0.0562561
0.0335406
0.0142047
0.00490227
3.63829
0.465748
0.236519
1.21007
0.039145
0.0114881
0.257734
0.0331541
0.1346
0.00394753
0.0325763
0.00942548
0.0287063
0.0100887
0.0271783
0.0146524
0.0192402
2.1416
0.27817
0.0209344
0.0763505
0.13098
0.423667
0.0108191
1.34264
0.208114
0.478572
0.0356786
0.262641
0.0105362
0.0426067
0.0371133
0.0308368
0.0218925
0.449011
1.11452
0.0406908
0.0562229
0.806409
0.0608565
0.20891
3.34548
0.0252636
0.00742715
0.0201091
0.0519886
0.282508
0.0106939
0.182855
0.219042
0.029659
0.0155706
0.0326489
0.12854
0.0382112
0.00796397
0.023564
0.009768
0.0409848
0.143844
0.0422626
0.859202
0.0179434
0.0165323
0.0410971
0.012347
0.0125372
0.3348
0.222895
0.0117005
0.274814
0.0182079
0.53618
0.0343485
0.0421547
0.00935874
0.0108546
0.273538
0.024382
0.0274094
0.186386
0.402788
0.0231018
0.0195171
0.0163784
0.0354711
0.436742
0.00491546
0.0144309
1.44573
0.0141349
0.0177205
0.0328396
0.387722
0.0134202
0.292968
0.150691
0.00887822
0.102726
0.0313474
0.00422883
2.77406
0.0526396
0.018575
0.000260331
0.106768
0.0201668
0.0472359
0.0102467
0.499867
2.43506
0.012052
0.00777267
0.301264
0.033084
0.12723
0.373364
0.0224509
0.128878
2.73348
0.0214535
0.261058
0.0241188
0.0173852
0.0406818
0.00934565
0.293895
0.224267
0.0215612
0.0192678
0.42948
0.0212333
0.0388438
0.0163417
0.128304
0.354785
0.0119113
0.0101857
0.0187783
0.013484
0.0120026
0.00129864
0.0103035
0.0430776
1.97393
0.116756
0.0129686
0.438185
0.0293228
0.266318
2.9107
0.813176
0.414153
0.011312
0.000262665
0.119561
0.0432222
0.0178916
0.137711
0.0136511
0.100073
0.225521
0.147435
0.0363087
4.69322
0.0112115
0.431869
0.0108756
0.00781744
0.191274
0.0768458
0.255939
0.0171592
0.00723761
0.00735976
0.0365321
0.563106
0.131102
0.0277039
0.252219
0.113732
0.217418
0.0101455
2.57491
0.0223024
0.0165197
0.0795186
0.0228205
0.0904787
0.43753
0.130689
0.010492
0.288409
0.982634
0.0243838
0.721151
0.0813753
0.00332016
0.0950247
0.46372
0.0241539
0.00894146
0.0101383
0.79424
0.0163105
0.00746555
0.851866
0.127769
0.020625
3.00208
0.256797
0.0669402
0.048437
0.347316
0.0163142
0.113742
0.00890133
0.0223733
0.00993894
2.19647
0.0270322
0.206157
0.252914
0.0116764
0.144046
1.32105
0.0278307
3.60509
0.00752786
0.0991188
0.0342289
0.0101088
0.0203697
0.0195619
0.0073698
0.034086
0.0161393
0.011883
0.00967174
0.174351
0.128765
0.0100447
0.0903701
0.0099667
0.00949108
0.00920724
0.0200169
0.0162858
0.675675
0.00615363
0.547339
0.225326
0.591083
0.668121
0.0193974
0.0316338
4.42979
0.00912184
0.128061
0.0215716
0.0111844
0.0492182
4.03256
0.0220372
0.0146841
0.00986769
0.0462023
0.0128483
0.542965
0.0777572
0.332239
0.461902
0.0100844
0.0107422
0.063227
0.0242323
0.0268656
0.00792699
0.0238975
0.0105373
0.0225498
0.0356131
0.00696611
0.251829
0.255588
0.481019
0.0154776
0.0195276
0.190457
0.473626
0.211517
0.0108661
0.0122613
0.117892
0.00709238
0.012247
0.0122268
0.341218
0.119631
0.00930449
0.0133608
0.0204982