/*--------------------------------*- C++ -*----------------------------------*\
  =========                 |
  \\      /  F ield         | OpenFOAM: The Open Source CFD Toolbox
   \\    /   O peration     | Website:  https://openfoam.org
    \\  /    A nd           | Version:  10
     \\/     M anipulation  |
\*---------------------------------------------------------------------------*/
FoamFile
{
    format      ascii;
    class       volScalarField;
    location    "400";
    object      nut;
}
// * * * * * * * * * * * * * * * * * * * * * * * * * * * * * * * * * * * * * //

dimensions      [0 2 -1 0 0 0 0];

internalField   nonuniform List<scalar> 
10435
(
9.80859
13.9947
22.4236
23.8673
28.3278
25.6442
22.3524
21.7695
21.0422
23.1601
19.7689
30.8532
23.8181
2.07403
1.97614
22.5195
2.21146
22.3389
20.6512
13.3543
22.0111
23.8385
22.7168
27.3322
23.4729
6.00464
4.02237
23.5008
3.41296
22.3532
26.4996
21.9884
21.5812
2.95283
23.6961
4.52271
24.6356
4.24439
10.1529
22.7209
22.8563
22.1396
2.64944
19.113
25.289
25.2149
24.0318
3.18569
20.3285
23.5962
22.0163
27.923
9.34306
3.5022
8.83043
3.34288
26.1366
3.99926
2.38972
24.7224
7.97872
10.4909
3.75471
29.4701
23.8601
22.3452
2.54694
3.40259
21.8618
28.8221
3.59114
4.76228
2.34301
22.3724
1.96082
2.20947
29.5759
22.241
21.3146
1.80913
27.2756
6.67106
8.41976
3.39195
28.5785
3.44342
5.84713
18.7471
2.21672
8.89059
21.2831
23.731
10.0809
2.66915
12.4155
2.96051
25.9225
2.00752
2.19968
27.838
2.0609
27.7067
3.77546
15.8003
27.9263
21.5819
13.4879
25.6019
29.4613
2.00284
21.3853
27.022
4.08999
2.62841
26.1757
21.6016
29.2531
5.27762
18.0834
29.2569
30.2036
2.03049
8.09928
1.74461
22.777
6.62787
27.8124
1.88343
29.0784
4.72685
1.77666
20.8248
22.3508
1.80613
4.54596
4.92711
2.4309
25.9569
15.0273
19.2069
16.5216
25.5996
2.72873
30.4073
25.8817
2.04905
1.88821
28.2073
2.31901
30.8212
3.49906
26.8513
9.43385
30.1486
26.2095
4.15473
24.4766
11.563
24.4916
15.9367
28.7018
1.89011
23.0927
30.0402
2.12039
30.1323
21.6833
29.2143
30.5414
30.3487
24.7641
2.58383
3.6167
1.99741
30.6911
12.77
7.10761
2.80971
19.0344
3.39622
17.1288
26.9286
31.0538
6.68111
27.183
2.8072
2.31752
22.0397
28.8932
29.3875
30.7098
7.37888
4.78437
3.70876
25.9196
21.9267
2.34098
2.48933
2.97716
23.4295
2.19517
4.01897
23.6111
3.94799
22.8575
26.1926
20.6888
27.7819
3.55626
27.6372
3.43238
22.2053
30.7992
30.6788
3.83343
2.16997
2.69476
4.73742
6.02702
2.02186
3.30026
2.61756
3.0149
1.92806
4.86752
22.8786
7.6412
2.10779
27.5395
2.04689
2.99089
22.2308
6.68566
28.3842
4.55879
2.3833
27.7894
5.23481
29.1942
25.3246
16.2995
5.28501
3.93966
3.38944
24.7901
21.1749
2.20489
21.9351
2.92384
9.27374
3.16348
2.72529
22.7926
29.0386
22.0758
29.8531
2.73332
22.206
3.94721
3.72955
22.3628
26.1193
5.75818
30.1131
4.03477
2.70513
12.995
24.1659
6.30846
27.6336
22.54
21.7909
21.9913
22.6313
5.62294
30.1858
4.51004
26.9946
22.0307
21.6385
22.4098
2.57644
22.8295
2.00919
3.9521
4.98911
29.0376
8.81429
3.26685
3.14733
1.92871
18.5766
3.34825
21.8948
10.5301
3.60598
2.16137
6.44972
25.5118
24.0176
3.22265
29.9948
23.2155
3.15448
23.8765
2.05911
2.48192
29.5805
22.8753
3.13316
16.4735
4.23956
6.02348
28.8364
21.8986
3.47091
5.64358
29.0113
3.14836
30.2342
27.6437
3.64772
6.20663
6.43877
21.4367
22.8415
5.42487
23.5793
2.87129
4.26928
22.9168
2.91167
3.00286
22.6763
29.962
3.7534
3.33093
3.06197
2.77345
3.45542
5.20747
4.5059
7.34622
3.64636
3.4885
3.91651
3.51593
4.58272
5.60823
21.1091
2.87855
22.4311
3.92642
23.8441
21.1992
20.0547
24.7203
22.9726
3.44652
3.1364
3.15786
6.75833
3.35015
5.64802
3.67022
4.99809
3.67152
30.9199
4.91765
20.792
7.70229
4.88492
25.0277
19.4784
4.2633
4.1097
3.95118
4.29814
3.26996
5.55102
4.9333
7.87241
21.5029
3.2754
21.8223
20.8953
24.08
24.3674
20.5453
23.3872
22.7231
1.91991
2.98788
3.37858
3.47996
23.0858
3.37529
24.4354
4.86905
3.5321
4.77524
3.12682
4.68971
22.0433
4.17174
21.6825
30.3067
3.33408
5.32668
4.71989
19.5912
4.9234
5.12176
4.65694
3.33584
3.47487
3.5359
22.9168
3.57912
5.06905
3.4729
2.63479
24.4583
3.19284
4.15685
18.7867
3.00191
144.892
139.88
131.843
122.541
112.492
101.89
90.9869
80.2108
70.1124
156.601
152.453
145.371
136.728
127.156
116.987
106.563
96.4035
87.3552
165.815
162.354
156.168
148.306
139.398
129.839
120.036
110.558
102.296
171.988
169.126
163.811
156.845
148.767
139.981
130.926
122.193
114.688
174.528
172.201
167.726
161.709
154.566
146.671
138.464
130.561
123.972
172.929
171.073
167.36
162.262
156.069
149.108
141.799
134.779
129.155
166.978
165.509
162.419
158.113
152.782
146.706
140.279
134.129
129.364
157.007
155.767
153.098
149.373
144.729
139.405
133.767
128.416
124.383
143.908
142.673
140.183
136.795
132.619
127.866
122.868
118.197
114.855
128.9
127.452
124.928
121.674
117.784
113.43
108.906
104.74
101.93
113.147
111.377
108.737
105.538
101.848
97.7936
93.6203
89.7844
87.1621
97.4489
95.4789
92.8514
89.7854
86.3248
82.5622
78.7025
75.1247
72.5446
82.0855
80.4998
78.2057
75.4512
72.3108
68.883
65.3576
62.0513
59.5252
68.0206
67.1898
65.4718
63.1505
60.384
57.3148
54.1393
51.1327
48.7293
56.441
56.2307
55.0244
53.0895
50.6549
47.9073
45.053
42.3407
40.1376
47.8203
47.7958
46.8247
45.1072
42.8905
40.3798
37.7801
35.3105
33.2558
41.6885
41.47
40.4636
38.7892
36.6698
34.3056
31.8893
29.6125
27.6936
37.002
36.5154
35.3563
33.6294
31.5335
29.2551
26.9705
24.849
23.0785
32.9165
32.2557
30.9645
29.1809
27.0963
24.8872
22.7132
20.7203
19.0627
29.0079
28.2845
26.9379
25.148
23.108
20.9892
18.9369
17.0735
15.5116
25.1619
24.4562
23.1332
21.402
19.459
17.472
15.5736
13.8672
12.4429
21.4423
20.8003
19.5589
17.9419
16.1466
14.3354
12.6266
11.1037
9.83253
17.9961
17.4329
16.3019
14.8341
13.2238
11.6235
10.1335
8.8156
7.71304
14.9973
14.4839
13.4578
12.153
10.7472
9.37894
8.1236
7.01986
6.09303
12.6213
12.0507
11.0958
9.95437
8.75332
7.62012
6.60012
5.70316
4.94827
1.60307
1.5872
1.59297
1.62434
1.68518
1.77878
1.90771
2.07375
2.27833
2.5226
2.80787
3.13558
3.50714
3.92407
4.38725
4.89699
5.45242
6.05124
6.68966
7.36254
8.06294
8.78252
9.51144
10.2388
10.9535
11.6471
12.3254
12.9879
13.6313
14.2538
14.8642
15.4649
16.057
16.6447
17.2389
17.8537
18.5076
19.2257
20.0426
21.0061
22.1815
23.6575
25.549
28.0005
31.1807
35.269
40.4286
46.7718
54.3187
62.9725
72.5093
82.5987
92.8448
102.825
112.146
120.464
127.518
133.116
137.196
1.56137
1.54719
1.55404
1.58575
1.64584
1.73714
1.86179
2.02137
2.21721
2.45066
2.72328
3.0369
3.39357
3.79535
4.24392
4.74006
5.28282
5.86916
6.49528
7.15699
7.84863
8.56262
9.28998
10.0209
10.7458
11.4569
12.1499
12.8232
13.4773
14.1157
14.743
15.3631
15.9805
16.6029
17.2418
17.913
18.6372
19.442
20.3639
21.4508
22.7655
24.3882
26.4186
28.9744
32.186
36.1841
41.081
46.9472
53.788
61.5279
70.0053
78.9813
88.1603
97.215
105.815
113.657
120.483
126.083
130.345
1.50946
1.49852
1.50802
1.54115
1.6008
1.68928
1.80837
1.95948
2.14395
2.36327
2.61921
2.91385
3.24944
3.62828
4.05243
4.5232
5.0407
5.60352
6.20868
6.8518
7.52703
8.22706
8.94333
9.66662
10.3879
11.0996
11.7971
12.4781
13.1432
13.7957
14.4407
15.085
15.737
16.4085
17.1149
17.8764
18.718
19.6709
20.7729
22.0698
23.6158
25.4732
27.7114
30.4048
33.6285
37.4526
41.9356
47.1152
52.9985
59.5527
66.6965
74.2969
82.1712
90.0935
97.8069
105.043
111.541
117.072
121.475
1.44397
1.43569
1.44659
1.47957
1.53721
1.62165
1.73453
1.87721
2.05101
2.25739
2.49809
2.77515
3.09076
3.44727
3.8468
4.29087
4.78007
5.31366
5.88943
6.50367
7.15111
7.82507
8.51776
9.22085
9.92618
10.6269
11.3181
11.9975
12.666
13.3273
13.9882
14.6583
15.3505
16.0814
16.8719
17.7472
18.7367
19.873
21.1916
22.7282
24.5175
26.591
28.9763
31.6977
34.7783
38.2431
42.1218
46.4482
51.2574
56.5765
62.4101
68.714
75.3894
82.2836
89.1885
95.8522
102.005
107.387
111.802
1.35966
1.35358
1.36539
1.39771
1.45294
1.53314
1.63996
1.77481
1.93899
2.13391
2.36118
2.62264
2.92029
3.25616
3.63221
4.04989
4.50992
5.01194
5.55435
6.1341
6.74677
7.38661
8.04686
8.7203
9.39984
10.0795
10.7551
11.4248
12.09
12.7556
13.4304
14.1272
14.8632
15.6601
16.5442
17.5446
18.6926
20.0179
21.5457
23.2925
25.2638
27.4536
29.848
32.4316
35.1955
38.1456
41.3082
44.7306
48.4776
52.6209
57.2234
62.3174
67.8829
73.8293
79.9874
86.1173
91.9359
97.1533
101.537
1.25262
1.24792
1.25989
1.29101
1.34345
1.41915
1.51976
1.64667
1.80116
1.98456
2.19833
2.44407
2.72356
3.03853
3.39053
3.78092
4.21044
4.67894
5.18519
5.72681
6.30018
6.90052
7.52226
8.15935
8.80589
9.45697
10.1092
10.7618
11.4171
12.0814
12.7657
13.486
14.2635
15.1242
16.0975
17.2141
18.5019
19.981
21.6588
23.5256
25.555
27.7079
29.9418
32.221
34.5275
36.8684
39.2796
41.8249
44.5915
47.6808
51.1934
55.2093
59.7631
64.818
70.2482
75.8387
81.307
86.3468
90.6966
1.12111
1.11648
1.12754
1.15627
1.2048
1.27491
1.36815
1.48582
1.62913
1.79926
1.9975
2.22527
2.48412
2.77559
3.10116
3.46191
3.85857
4.29121
4.75888
5.25973
5.79085
6.34847
6.92813
7.52497
8.13426
8.75224
9.37657
10.0074
10.6483
11.3073
11.9975
12.7377
13.5524
14.4694
15.5182
16.7256
18.1098
19.6743
21.4033
23.2602
25.1929
27.1431
29.0589
30.9053
32.6721
34.3779
36.0708
37.8253
39.739
41.9253
44.503
47.5798
51.228
55.456
60.1828
65.2279
70.3274
75.1741
79.4873
0.960701
0.953876
0.961333
0.985105
1.02709
1.08884
1.17176
1.27705
1.40575
1.55892
1.73765
1.94317
2.17691
2.44039
2.73519
3.06269
3.42378
3.81838
4.24565
4.70398
5.1912
5.70458
6.24095
6.79673
7.36833
7.95324
8.55
9.15967
9.7868
10.4413
11.139
11.901
12.7532
13.721
14.8273
16.0886
17.506
19.0598
20.7099
22.399
24.0647
25.6485
27.1076
28.4231
29.602
30.6752
31.6993
32.7512
33.9286
35.3468
37.1323
39.4094
42.2791
45.7889
49.9013
54.472
59.2586
63.9577
68.2733
0.763279
0.750737
0.750363
0.764648
0.795334
0.843966
0.911502
0.998764
1.10733
1.23852
1.39236
1.56989
1.77229
2.00148
2.26013
2.5503
2.87479
3.23345
3.62246
4.03964
4.48435
4.95577
5.45243
5.9728
6.51519
7.07854
7.66123
8.26481
8.89502
9.56439
10.2932
11.1043
12.0191
13.0509
14.2029
15.4783
16.8558
18.271
19.6701
20.9996
22.2085
23.2547
24.1154
24.7992
25.3321
25.7514
26.117
26.5045
27.0009
27.7058
28.7474
30.2769
32.4382
35.332
38.9753
43.2737
47.9867
52.7826
57.3034
3.94406
3.8834
3.87857
3.90341
3.94327
3.98675
4.02296
4.04445
4.04836
4.03448
4.0027
3.94552
3.85534
3.73143
3.57632
3.39743
3.20256
2.99743
2.7871
2.57644
2.37091
2.17637
1.99629
1.83017
1.67424
3.70656
3.75469
3.79286
3.83534
3.88222
3.92805
3.96584
3.99022
3.99834
3.98831
3.95619
3.89484
3.79823
3.66582
3.50304
3.31835
3.11973
2.9136
2.70496
2.49818
2.29782
2.1088
1.93523
1.77891
1.63703
3.55906
3.61178
3.66004
3.70911
3.75908
3.80636
3.8459
3.8733
3.88529
3.87839
3.84733
3.78564
3.6886
3.55598
3.39249
3.20593
3.00443
2.7957
2.58611
2.3812
2.18615
2.00577
1.84365
1.70114
1.57563
3.41828
3.4566
3.49918
3.54554
3.59381
3.64031
3.68051
3.71012
3.72517
3.72111
3.69216
3.63229
3.53746
3.40742
3.24611
3.06028
2.85834
2.64892
2.44014
2.23919
2.05222
1.88388
1.73667
1.61055
1.50084
3.27339
3.29296
3.32263
3.36027
3.40276
3.44586
3.48482
3.51497
3.53162
3.52951
3.50262
3.44523
3.35357
3.22722
3.06946
2.88613
2.68609
2.47874
2.27383
2.08005
1.904
1.7495
1.61738
1.50602
1.40873
3.12359
3.12321
3.13699
3.16278
3.19681
3.23422
3.2698
3.29841
3.31477
3.31317
3.28757
3.23243
3.14408
3.02187
2.86852
2.6891
2.49322
2.2909
2.09299
1.90918
1.74582
1.60517
1.48647
1.38603
1.29707
2.96947
2.94919
2.94669
2.9597
2.98395
3.01406
3.04438
3.06939
3.08348
3.0807
3.05507
3.00126
2.91568
2.79747
2.64897
2.47469
2.28489
2.09007
1.90186
1.72982
1.57948
1.45142
1.34357
1.24968
1.16437
2.81015
2.77261
2.75547
2.75634
2.77059
2.79252
2.81614
2.83589
2.84602
2.84033
2.81307
2.75912
2.67506
2.55999
2.41609
2.2476
2.06521
1.87973
1.70291
1.5437
1.40595
1.28882
1.1887
1.09631
1.00825
2.64889
2.59786
2.56823
2.55816
2.56286
2.57652
2.59286
2.60659
2.61208
2.60234
2.57197
2.51599
2.43121
2.3173
2.17642
2.01323
1.83835
1.66285
1.49803
1.35178
1.22601
1.11807
1.02172
0.924678
0.823932
25.3178
25.3561
0.227023
7.51228
0.964845
1.14739
2.24547
3.88395
0.211844
24.8978
0.21358
3.36491
17.2647
2.72416
5.90261
0.962485
0.164541
7.6591
40.3057
0.215098
15.9974
4.52229
0.247531
3.82627
4.65238
2.4338
4.57993
0.683438
29.0928
0.198274
99.6343
2.1743
0.11195
19.1756
0.213891
1.14986
11.8842
5.64268
15.9213
7.13453
0.187542
0.139577
3.52778
1.41085
2.98393
14.5197
0.192753
0.153721
17.3539
13.7474
0.191983
0.108571
18.6482
7.84066
2.38044
0.216162
3.41208
18.2336
2.48797
2.20589
0.651508
0.236343
0.997086
3.10675
3.78366
1.87873
31.2013
2.85244
16.8722
19.4636
0.213728
6.38551
2.19801
0.298891
4.48575
16.6225
1.21813
0.189475
2.58628
7.76542
18.8173
0.896541
3.1951
0.179868
0.794048
0.735934
2.593
0.188428
0.12124
13.318
3.52931
34.0199
4.22313
3.34034
1.66535
0.217608
2.34277
0.190096
0.256121
3.03447
0.923329
0.188075
0.934701
8.029
2.77839
2.15471
0.243239
18.6562
0.773021
0.190715
4.28655
3.01711
0.19362
7.86217
18.8873
18.1908
0.0867832
8.08614
19.3945
2.91662
0.0957479
3.39397
3.91212
4.58856
0.124264
3.4417
0.118468
0.757798
10.4662
0.156014
3.25955
0.362674
18.3651
20.1647
1.26537
2.56551
2.84048
0.839709
0.603248
0.1639
5.60697
13.4282
0.658857
0.0834212
25.0909
1.17179
6.69316
8.73729
0.889832
0.211189
2.04746
8.8313
6.99775
9.7703
5.44341
0.179001
3.17669
6.35888
2.91698
3.86846
3.3094
0.208729
2.95748
0.191667
2.62581
0.184004
3.89279
4.52651
1.93893
2.95112
2.49785
3.54462
2.42704
0.181645
65.4364
1.63173
16.6644
23.9675
15.2459
5.60826
17.8795
1.88181
19.0157
15.6046
2.37104
1.04265
0.185865
0.748839
2.42945
0.699884
0.121256
1.18439
11.2565
12.8074
6.3524
0.220355
4.68314
4.33336
21.6875
31.0352
16.3837
4.22891
0.823824
0.591591
3.28655
6.24943
28.7825
0.830078
16.4415
7.07999
2.81237
2.92772
18.8613
3.44546
2.54638
0.228657
1.69663
5.33182
8.94548
10.8737
0.508602
0.165998
5.44512
0.258542
5.56499
0.112309
7.51225
0.159847
0.658539
1.85697
0.176846
1.13147
1.57626
2.66535
14.8348
13.9246
6.37234
0.536163
15.1399
6.44136
113.201
0.6788
2.60762
1.55427
2.38945
2.91762
2.74668
3.46665
1.02484
3.05481
0.512063
1.79649
34.0912
18.6091
1.13997
4.19505
0.198794
1.6763
3.82389
46.8945
1.8556
12.2353
1.51869
5.38516
0.463911
4.43222
4.3822
5.72498
2.07656
4.48219
14.7912
12.0594
0.330962
4.84245
25.7608
5.32901
21.5826
0.185016
4.9788
0.113338
2.25455
2.09878
3.36727
13.8437
15.5119
0.528377
2.07895
6.5581
0.23702
0.128527
2.60554
2.99486
0.0687309
0.215918
20.4833
0.225113
0.196667
46.2523
3.97242
14.8464
0.126462
3.23333
3.59333
0.593502
0.152942
3.14569
16.0066
81.2092
0.167332
0.795655
6.82779
11.494
0.0805785
8.81323
0.286269
14.1982
0.19396
25.876
4.56352
25.342
2.94544
3.06529
3.49627
91.2699
2.37088
4.28002
0.0729044
18.7812
52.6871
17.4891
2.70334
6.063
0.571134
19.3917
0.179252
0.783558
2.96023
2.97548
0.190417
2.16954
2.77615
3.40673
12.5182
15.4258
0.601812
1.74551
0.970563
0.708342
2.70315
0.188348
5.54688
4.08651
0.123464
4.17869
0.221646
5.42787
28.1325
1.1785
2.60555
0.18912
16.5873
0.255825
3.6205
0.0990818
0.157819
2.8828
1.88851
0.194077
1.8957
6.60553
13.0428
10.6968
29.5264
0.134776
17.4633
4.14901
4.23199
3.00209
3.86941
17.5702
0.186089
2.86288
0.116429
1.5477
1.29495
24.2032
2.64796
0.229777
0.245286
0.120116
1.79942
5.49703
6.94294
0.266997
17.5112
36.3639
2.96712
0.0972906
5.66659
28.5274
3.86628
3.61804
0.827231
23.8918
3.40587
0.0983089
3.32832
5.74722
6.08262
103.553
9.89162
1.6265
15.5632
0.651414
2.90542
5.39359
15.4973
0.188934
3.84246
31.701
2.65543
3.8216
10.0753
0.860974
2.24158
0.139993
0.129783
4.14005
104.97
2.37477
0.631266
3.99757
14.6254
2.37388
2.22426
1.78
4.39159
0.072975
0.748204
3.84683
3.84949
6.90214
0.237654
1.0889
16.9105
0.561982
0.585969
3.22335
2.72525
2.86674
0.141876
3.12544
2.84913
15.934
14.4964
21.3402
0.18779
0.662753
3.2037
1.71188
3.14528
2.47719
11.9241
19.2444
0.122332
3.43412
2.55404
0.247781
3.77287
0.251552
4.23806
3.21813
0.24878
4.02387
4.4707
18.5232
20.7361
3.41668
9.29549
11.7045
2.42287
14.3914
0.0930134
3.41465
0.178815
1.00345
0.76144
6.51882
21.5816
5.69129
7.41538
2.24337
4.45648
0.654765
2.03462
1.8953
7.40541
0.523821
4.00236
9.61583
3.44424
2.39208
1.04221
1.22047
16.9887
19.6836
0.579536
0.78851
3.02356
2.52302
3.23646
19.291
61.5201
21.8656
0.928449
0.195581
0.145142
14.9015
4.27023
2.68821
9.70224
0.130793
0.204523
4.4424
19.0463
9.08177
0.13051
0.196496
6.43808
3.91539
1.4953
6.71787
3.85676
0.337702
2.75195
1.96182
3.59699
15.1035
19.6878
2.15395
24.8267
0.186803
4.19499
0.247615
0.152165
0.287241
2.76553
0.592928
0.550916
0.178728
12.431
12.4676
10.755
18.012
15.1442
0.193654
5.42711
9.19607
18.3826
14.8739
103.03
19.1313
3.66002
18.0713
0.20328
36.8108
2.56436
2.49175
2.39939
1.50214
0.0867151
8.82975
8.32028
2.25967
1.04945
0.183847
0.189437
14.589
0.503032
1.39016
0.140538
19.5622
3.91783
8.30466
3.70217
0.0956012
3.83256
1.12505
25.149
4.03368
1.69601
1.01812
3.21941
11.4953
9.74189
2.34222
18.6395
14.7357
0.99577
2.06355
11.5372
0.623897
0.178505
3.93102
0.9698
1.05795
0.55871
51.7622
6.24112
3.18171
3.51826
14.5439
3.10219
1.82812
1.77009
17.1395
5.62472
1.0384
0.314512
3.73101
3.78212
3.02508
17.7592
5.83088
3.27502
4.76297
0.187465
0.655361
0.134796
2.93281
4.37574
3.44177
0.425192
1.22682
2.67559
15.8409
6.99886
5.32615
10.7263
10.7411
2.53612
1.41932
1.75905
4.0174
1.07115
3.65705
2.64437
1.57322
5.89382
10.773
4.75539
0.799156
24.5093
0.103537
9.36807
59.064
0.189185
47.383
14.279
3.1598
13.8826
7.5372
0.192263
0.045587
3.43138
3.80313
0.188829
2.40864
1.61865
19.208
3.21181
17.6346
0.856977
0.330223
0.143605
2.87129
17.8618
1.46163
14.6704
16.3535
0.313728
17.508
3.61609
2.94971
4.22412
1.16297
2.88763
24.557
0.241189
2.51583
3.82379
3.68861
0.257144
3.52391
11.059
2.99615
2.32012
25.6413
0.548507
3.32362
2.49539
2.95311
1.28282
6.93422
7.32339
0.130072
8.17233
2.2728
0.152732
4.30949
20.4792
0.222224
27.5086
3.21254
3.61035
0.123816
2.13311
2.08662
0.902369
1.76409
18.0839
18.4478
113.969
2.12522
2.97418
86.7719
3.65547
2.62473
19.2595
0.200987
16.0199
14.7713
1.51112
24.7907
13.8061
0.203268
0.22878
4.1903
5.15253
0.835076
0.102153
3.38309
2.82347
18.9469
25.5457
13.764
1.47031
1.24883
5.98415
3.73877
1.19412
0.188453
0.381382
3.07428
1.61343
13.0437
18.2551
10.9335
0.0554945
3.16225
2.4125
0.129499
23.9499
7.53991
0.243254
10.8517
3.97002
10.9888
1.53644
0.148051
1.79181
1.5581
0.876533
3.82818
3.51785
1.25886
0.760145
2.63942
3.38253
1.83346
1.54133
5.22137
0.144785
4.49912
4.00042
4.40774
3.27379
0.171677
1.01577
18.7845
11.4539
13.9897
2.42211
0.158831
6.79713
0.189221
0.460253
6.92706
0.573319
10.8029
18.9806
12.3154
0.41978
18.0581
5.03234
15.8662
0.255887
0.204567
3.93257
3.25935
0.265931
0.226045
1.62179
0.865718
12.4239
3.62366
0.286399
5.61167
6.15244
1.48351
0.188156
28.3235
25.2956
2.77091
3.9346
0.343027
11.8257
11.4824
2.9663
3.93708
1.64592
7.45857
3.60332
1.55332
23.6643
16.452
2.82649
1.25934
11.869
15.7875
2.375
13.7569
6.64803
5.07081
18.7207
5.98482
15.803
4.17317
2.15411
15.4693
0.181727
3.38561
5.43568
2.74825
7.46553
0.164845
0.260307
1.87653
17.2646
5.19281
0.0888741
3.7946
1.08198
0.176157
6.03879
0.169548
1.28719
0.13326
11.1873
0.860166
3.91352
2.73743
9.52228
0.165265
0.156517
0.188513
11.2798
0.290228
10.1548
14.9794
2.60928
1.70172
1.10502
1.0003
0.591198
11.6142
13.0393
0.374377
6.39507
5.45758
0.138525
6.06699
0.596664
10.2943
27.033
25.1371
11.7476
2.33333
0.149876
0.23589
20.9685
16.1518
16.2576
5.48857
0.97481
2.32833
14.8676
27.5328
4.94866
7.38304
5.84051
1.37388
3.44057
25.0025
0.043947
1.20463
10.0074
16.2199
22.1433
13.3819
20.953
5.99441
0.677528
2.93915
6.85616
25.0274
18.5261
3.56465
0.533844
0.742694
0.919235
11.2938
0.261423
0.986938
15.3669
14.9413
7.43775
17.2811
1.50593
3.97878
0.280168
13.5438
0.62349
14.5716
2.44226
0.88374
2.74481
113.36
27.2338
20.9007
0.117762
2.74814
3.67924
2.41443
0.779672
3.10016
0.83532
0.117807
20.9758
0.829528
8.00892
3.46779
2.53043
4.9965
84.3326
6.15229
2.16799
0.766677
15.978
0.966815
1.87545
15.737
0.195883
0.316176
3.15878
1.9304
2.71053
5.24525
25.8934
1.03118
0.632844
0.177294
1.11784
1.45548
6.38003
4.3556
17.0139
12.1203
4.41257
0.425503
1.74931
1.66735
0.0891985
5.37598
6.18011
2.42738
2.33952
1.1236
10.4326
15.8283
2.81447
0.178885
3.72023
0.189551
1.2981
20.5612
1.3496
3.88689
16.9802
3.508
4.93867
2.27287
8.42407
0.698049
4.03212
17.7586
5.21597
0.351847
2.25951
0.160524
1.92341
2.22881
13.4361
1.51313
0.188769
0.689385
12.0775
1.32811
5.31629
2.9531
0.957003
0.184824
5.39044
1.29747
3.98571
5.22915
1.93546
14.8264
2.95093
7.05851
21.69
2.6697
3.73647
4.58412
0.12421
8.07134
12.6438
2.38943
2.7614
0.115938
1.34289
2.01285
0.858088
26.2988
0.262121
0.189106
0.765781
0.736853
1.92959
13.2496
5.80915
0.315455
6.60479
1.31043
13.3204
2.28879
6.82968
0.984732
14.2251
96.9386
5.6248
27.5464
20.8292
0.106891
7.40284
1.72945
1.0633
20.2665
17.3294
4.11486
0.174863
16.8841
0.895423
2.25012
21.6325
0.185041
3.71099
3.57507
6.68076
4.69034
7.74917
1.76934
0.107622
2.4168
8.41622
18.8774
1.0871
3.14047
3.42778
3.07892
2.82874
0.154693
0.74088
16.5745
0.616138
5.81858
7.25432
1.45475
120.429
0.160777
0.180058
2.59779
10.679
1.78272
5.93832
2.13584
23.6027
28.2264
4.03509
9.32341
5.48822
1.24774
24.5726
3.2834
6.52731
23.3409
15.1671
0.132367
1.74401
3.06263
14.1156
1.38036
18.7977
2.15697
11.2016
0.630462
13.121
1.23478
16.55
1.14905
0.26172
13.6806
0.119877
22.7964
22.3923
7.78796
2.52988
0.119524
16.7259
3.43516
4.13
1.14075
1.59256
3.06335
1.54123
3.63989
2.4468
3.96305
1.26047
2.89689
0.622743
2.05685
1.9345
0.189353
0.473791
0.246401
0.197624
0.826592
0.801134
2.70404
2.67325
3.94853
7.89888
0.419209
11.3922
4.94633
9.3723
12.328
0.170211
1.05596
14.4474
3.74273
3.7722
1.00721
1.01064
12.7302
0.744822
4.77992
17.5827
3.32977
2.14975
0.159633
0.971865
2.7946
2.66408
2.90508
1.72135
4.44452
19.4931
3.2232
1.997
15.0621
0.85313
2.66846
4.96606
2.78423
0.891144
13.0064
8.96502
2.58464
18.1957
6.08342
3.18581
18.5274
0.694087
19.6707
4.1168
0.767745
0.883362
7.01382
1.73335
5.86316
4.31074
0.274221
14.8346
2.05517
5.25332
8.43296
2.34758
4.3361
2.3457
3.86364
11.8718
0.733618
32.8923
11.6355
82.9279
3.15526
0.758803
21.9457
11.6077
5.1352
0.567817
3.88001
0.0946501
4.51127
29.7965
0.178421
25.5928
5.58671
20.6339
0.0874429
6.30675
0.421678
14.6172
3.13299
0.202196
6.7781
13.9821
17.8128
7.77939
0.15492
19.8017
1.22765
3.17965
1.83517
13.1341
5.65701
0.0997761
5.39743
0.186726
6.4149
14.139
2.94939
2.79934
0.973861
0.398339
4.48897
5.118
0.137314
3.19157
18.7324
1.28857
3.06255
28.7101
1.53321
15.6785
18.299
5.52972
5.11589
16.2377
6.07471
13.7586
1.65402
2.87367
23.6605
17.6945
4.52372
0.212226
17.0998
15.9201
5.95268
9.76689
0.953196
16.7781
3.00293
10.6409
0.845799
0.126275
3.25139
16.4063
0.183687
2.0623
5.67427
23.0839
3.95005
3.17517
0.0888936
6.87697
8.49686
0.640191
0.0999997
2.08824
0.82972
13.0874
4.08905
3.11496
17.368
12.1778
3.07266
5.30656
3.64883
3.65781
14.4632
19.1935
13.9524
8.16661
6.97636
1.75931
18.0853
0.152638
1.25544
14.0561
1.61096
0.118484
14.899
11.8148
16.7477
3.84425
16.4038
0.132534
1.74452
9.16987
4.85609
6.3625
1.29398
2.9756
1.87609
1.09473
12.7553
0.201264
0.0820733
5.44603
0.199198
2.96452
11.5423
2.1923
0.142646
18.3992
0.899702
3.74789
3.36023
5.25281
1.78735
14.4854
15.3701
7.27251
2.5849
1.85743
6.26868
3.18516
1.01558
0.237608
5.52849
1.26556
0.107452
7.49759
3.59147
18.982
3.78924
20.6199
0.430684
0.985413
2.93583
36.2299
0.871751
50.9283
0.628465
3.06837
0.171375
13.7574
9.04868
2.39382
10.7616
0.206772
2.25144
0.129148
25.2814
2.28342
5.65234
1.01989
3.02186
10.1839
4.93732
0.9904
55.5667
22.225
0.117929
11.3151
1.03997
0.140185
1.76136
16.7668
0.154366
46.7162
5.17757
8.36733
1.31967
19.9927
3.97392
15.8853
2.02685
3.40045
0.57858
3.95448
1.6536
4.07031
1.23732
3.34228
1.19138
9.35791
16.898
13.205
0.12605
0.925766
3.38304
3.60367
0.548604
2.88739
0.258996
15.6131
1.94377
12.596
18.4116
5.50899
5.85033
5.84748
2.03111
3.24282
14.5746
12.3145
3.64984
3.5016
20.6064
98.2036
8.58446
6.0719
6.35716
2.03406
0.804784
2.97897
0.124886
0.612515
14.3572
5.89174
1.11703
0.525005
12.737
24.3594
6.59407
0.794996
5.66014
0.478216
0.19872
4.23789
21.0344
0.0821625
17.8714
0.927168
5.47826
5.23554
5.30059
0.168005
0.922577
2.491
16.0154
11.9994
6.15582
19.5368
3.63532
2.32104
0.156489
68.7167
19.6369
3.13811
1.3572
8.07859
1.48082
2.74919
15.0681
3.34832
12.456
1.28837
4.16435
3.64259
3.56913
1.17181
14.3451
3.76082
1.09001
11.3312
3.02943
3.61474
0.168793
0.629146
10.9652
0.157136
17.8043
0.767301
20.0438
1.71542
7.17806
0.158298
0.154593
12.1739
5.4485
0.0213408
17.0126
9.36518
2.81684
16.81
1.21262
0.66734
14.5918
19.144
5.24041
0.187635
3.24295
9.02968
1.00659
3.47097
2.94284
1.39652
8.30289
3.46062
3.66079
4.93418
6.83101
6.93245
4.44931
3.07946
22.9156
1.92451
15.4045
2.2714
0.185811
3.85419
6.42899
1.61674
5.47286
16.409
7.77551
13.5023
2.78449
23.3072
11.2383
5.57379
0.173032
2.57564
0.524269
13.1714
7.04216
95.7649
1.43986
1.05617
0.0804248
3.42116
4.51662
9.49931
15.4458
0.546967
0.199021
19.4335
3.33436
0.993483
2.68033
0.675544
12.5261
1.82339
2.93213
2.25063
0.16791
1.23524
10.9378
13.6573
4.80081
1.73416
0.150433
3.29321
0.190408
3.29294
11.8104
3.35225
4.1715
1.03031
12.225
2.17407
16.9482
4.75036
0.858316
3.8668
21.8544
14.6748
0.614747
11.0578
1.12339
0.807486
1.77177
2.94372
1.16395
4.8959
4.58066
23.5097
15.3712
3.63131
0.827411
5.24075
5.84575
0.255089
3.0759
1.35001
3.98564
3.78531
6.17932
0.185042
5.70573
5.24986
1.11015
1.43597
0.66173
3.07039
2.6391
17.32
24.0401
2.16551
3.14379
5.55039
63.2039
1.11146
3.35847
0.747289
3.17001
93.0024
6.01674
4.40842
2.51415
11.8652
20.9588
0.54898
13.022
3.12159
3.33364
14.5237
3.03801
2.40288
1.11697
3.50858
4.02964
0.539189
16.0893
2.26511
2.1608
3.07567
3.48504
3.00613
14.4551
3.12212
3.55221
0.730617
33.304
14.3149
4.46902
9.10052
6.01315
0.755086
2.57934
1.04372
11.7123
2.19103
1.26081
0.137196
13.0609
0.756815
5.96954
3.30191
10.4613
0.175992
0.197825
2.84828
0.583372
4.9585
18.9728
0.164819
14.7465
4.79514
0.384317
2.49023
1.9342
16.582
3.79933
14.577
1.93521
5.45255
4.70922
6.40858
5.2673
6.20612
2.71009
4.44479
22.9439
39.0745
3.4335
1.10049
13.2779
3.68558
1.64032
16.9767
2.92611
2.30463
4.29862
3.38248
94.0771
6.55707
3.99285
0.825224
14.8886
5.53189
1.55765
5.5244
4.18497
1.9933
3.82732
4.09614
0.260893
0.865399
8.22113
0.16508
7.63289
0.0980267
4.08322
3.65149
0.14304
4.41
2.30623
4.85457
20.1472
11.8211
0.819274
3.26837
1.8487
2.25822
4.06153
14.2525
5.34273
8.4214
0.0365733
19.5361
5.83862
20.6644
2.86781
9.00127
1.32773
12.8888
0.186955
0.177569
13.0355
0.10544
4.22821
4.42396
1.92872
9.78045
3.9975
2.85233
5.06974
0.180756
27.1551
8.10897
0.162614
2.68581
3.02374
0.977129
2.56603
3.8119
4.1173
2.96299
25.2733
9.77472
5.30992
5.30134
20.2241
3.37644
8.06833
0.162795
2.42143
3.61745
8.65692
6.68207
4.13106
2.65702
0.136859
4.76665
0.492078
2.91826
3.13477
1.95874
0.423224
0.905142
5.5569
4.00557
4.11203
5.03443
11.2547
11.8861
3.24744
19.7904
0.580679
1.12036
12.5178
4.82152
5.97986
5.42159
4.57667
1.59637
3.79643
16.8687
29.1654
3.4038
3.39819
2.43512
11.64
1.09882
3.44161
1.33649
1.44712
9.8931
12.6137
18.5905
0.639079
16.9861
10.0796
0.0457263
8.06998
19.4935
10.374
2.64186
1.10977
3.21028
1.97514
0.833497
4.41547
10.1899
0.151521
0.979013
14.6223
3.05727
0.0454766
3.94972
4.54748
3.20321
1.77497
0.191948
5.35814
0.182548
6.15863
0.177538
5.28888
3.05473
2.40521
20.7092
22.9903
3.70961
11.8309
3.96714
3.9804
2.75209
0.188855
10.5834
0.524105
5.46429
5.6394
4.62464
3.33519
2.21431
4.23631
0.903169
5.00068
0.188873
4.95508
8.77119
11.3928
3.03567
10.092
15.3629
0.0651525
1.09437
3.52113
3.91223
0.53014
1.27978
3.88187
1.1695
0.923822
4.21113
4.09586
4.42962
7.36918
4.18451
4.57752
9.08981
0.834478
10.0854
5.6581
15.7289
10.967
4.51875
0.52704
3.38885
1.2084
2.59412
18.5954
2.63571
114.298
4.31904
7.31545
4.71398
26.4608
0.850152
4.67433
15.7588
0.258892
0.642251
1.65284
3.16823
3.05665
0.17337
0.227896
4.81263
12.5889
7.98263
12.6186
0.197315
11.2971
0.0683082
13.8402
3.96403
0.632429
3.68856
0.77305
13.7232
3.59845
6.18824
2.3793
3.02165
0.192152
2.60095
4.90299
0.29497
3.71008
1.13892
10.4113
0.60368
0.144117
6.81227
1.02847
4.03338
1.44963
8.52358
2.11633
4.39718
3.63619
0.191921
9.85871
2.57697
12.1276
1.58914
2.54758
15.3062
8.86702
0.186677
0.585585
10.4823
2.93763
6.88153
2.00924
8.33823
4.07758
12.0053
3.16333
3.14889
5.11388
14.6617
0.661288
2.37094
3.009
0.238196
1.1531
6.98662
19.7151
0.115449
4.1679
0.740326
4.31277
2.7273
16.6132
0.190383
1.87856
3.16348
0.204677
2.83259
10.2374
10.3587
4.22583
3.97505
10.0457
0.183682
8.86408
17.1546
1.88179
0.183866
4.96355
5.9643
2.91691
6.05173
13.3869
11.7322
0.763505
3.20149
4.31975
0.145692
2.68246
3.90522
1.42817
0.16485
2.95973
0.201699
24.7964
27.8758
8.17808
2.16536
8.899
0.193849
18.1098
2.73132
0.879622
1.52509
0.197648
0.18835
13.4599
4.01692
1.03493
1.72733
2.76077
6.063
0.980191
6.11927
1.06762
4.96076
0.204849
19.8348
0.0909365
79.2326
1.67061
0.158296
0.771435
13.1353
2.30208
3.40751
1.11701
2.7897
5.7828
3.08314
2.58422
3.87191
1.72003
1.83113
0.149393
12.7871
5.63085
3.6904
5.75493
0.138103
24.139
16.3323
9.22385
5.21338
0.0944186
4.00495
1.27433
6.87778
0.150877
0.910953
6.6057
0.531446
6.86885
14.9677
4.18345
13.7605
2.15866
3.72073
0.979114
3.88931
1.31749
0.338713
0.188187
0.607707
2.0893
19.7815
7.05577
1.77329
5.36977
4.08073
3.42856
3.88924
2.37438
3.88688
0.63085
11.2663
3.57138
15.0445
5.84861
4.27614
24.4628
1.91655
16.925
0.148938
5.69289
0.699696
6.2175
3.09044
4.02304
3.22744
0.175403
0.151237
1.11391
69.5109
2.93311
0.24275
2.01123
0.11245
0.0703768
0.154287
16.4355
1.16668
9.51018
0.164217
12.5487
17.2436
0.612178
0.158037
7.09634
1.77659
60.3588
0.16469
56.2779
0.148609
2.74826
0.277297
1.08693
1.87915
22.959
10.7187
28.7365
8.44157
11.9471
40.2896
4.02625
3.61889
2.82357
1.03111
3.17051
3.9509
0.7192
2.89643
5.78061
2.26529
103.554
2.5414
23.8371
3.35389
20.4848
0.142654
8.45564
3.12045
2.91799
8.99395
11.71
4.40158
0.804901
13.5657
0.169526
7.14715
80.7148
2.64196
3.97141
2.9835
3.1372
1.20093
3.46026
3.31358
0.486508
9.93443
0.782669
22.292
8.82207
5.31734
4.17722
0.785928
6.26785
8.03747
3.00607
5.00622
0.666088
0.796194
0.174956
10.2092
0.133226
3.89051
1.84989
3.42727