/*--------------------------------*- C++ -*----------------------------------*\
  =========                 |
  \\      /  F ield         | OpenFOAM: The Open Source CFD Toolbox
   \\    /   O peration     | Website:  https://openfoam.org
    \\  /    A nd           | Version:  10
     \\/     M anipulation  |
\*---------------------------------------------------------------------------*/
FoamFile
{
    format      ascii;
    class       volScalarField;
    location    "400";
    object      p;
}
// * * * * * * * * * * * * * * * * * * * * * * * * * * * * * * * * * * * * * //

dimensions      [0 2 -2 0 0 0 0];

internalField   nonuniform List<scalar> 
10435
(
0.00966862
0.223447
-65.7254
-3.08305
-7.6907
-32.5894
-71.9366
-71.927
-70.3226
-48.7012
-0.960829
-15.5101
-70.8656
-1.20625
-1.28237
-60.9894
-1.19985
-59.1741
-69.3488
0.206612
-64.6962
-2.66219
-58.1145
-34.8709
-51.2012
-1.98118
-2.5657
-73.9458
-1.59561
-59.7971
-36.9082
-1.22547
-71.4121
-0.812676
-55.5304
-0.579452
-53.3169
-4.70711
-4.04156
-56.9428
-48.1171
-64.799
-0.780652
-0.885232
-49.5096
-48.6219
-36.2672
-1.6156
-82.2597
-6.06093
-65.5536
-35.8053
-6.03976
-1.99844
-0.693006
-1.40611
-50.8971
-1.90244
-1.27904
-46.0631
-3.74026
0.197188
-1.28629
-13.7817
-53.8523
-62.12
-1.30919
-1.60262
-69.8012
-25.2534
-0.913759
-2.53824
-0.355007
-60.9732
-1.44693
-0.529391
-10.9252
-72.9496
-75.9234
-1.34074
-9.98773
-0.629383
-4.95019
-1.1982
-13.0013
-1.03662
-0.605266
-0.477103
-1.24796
-0.0598143
-1.4779
-2.71143
-0.472951
-1.35848
0.328008
-0.899392
-4.04873
-1.20194
-0.955309
-6.10934
-1.78126
-9.51381
-1.0875
0.164632
-12.0997
-1.91129
-0.839693
-7.36997
-13.8956
-1.36545
-4.25149
-5.60712
-1.02713
-1.36533
0.098788
-1.60153
-7.56209
-0.641941
-0.388858
-8.42007
-6.57938
-0.631818
-0.13603
-0.815972
-2.20022
-2.51902
-6.47183
-0.66519
-7.43818
-2.07962
-0.666063
-1.22659
-62.6677
-1.24698
-1.53273
0.244022
-0.801405
-3.94256
0.160333
-0.811115
-0.154384
-51.4754
-0.817328
-18.0282
-3.37033
-1.08106
-0.780286
-23.9597
-1.10683
-21.4417
-1.21397
-43.6426
-0.0787634
-32.6013
-30.6853
-0.865926
-3.21245
0.249832
-39.8111
-0.648427
-38.3682
-1.16806
-0.979532
-10.0157
-1.44801
-14.2837
-69.3573
-8.3982
-28.843
-27.3305
-42.2434
-0.859783
-3.38386
-1.19826
-22.5695
-0.336314
-0.161175
-1.33452
-2.89752
-0.708055
-0.203932
-22.7633
-23.5442
-3.31503
-40.521
-0.572454
-1.34654
-69.8153
-17.6564
-25.0382
-16.9383
-3.6367
0.201453
-0.664776
-4.6491
-70.4487
-0.955133
-1.23129
-1.31209
-56.8222
-1.131
0.178597
-74.6379
-0.851859
-66.0178
-4.14684
-1.35143
-6.30487
-1.74331
-5.47918
-0.570318
-63.0156
-13.7478
-15.1406
-0.89495
-1.15162
-1.49474
-0.519338
-10.4995
-1.15147
-0.763954
-1.6497
-0.815261
-0.962721
-1.6213
-59.7454
-11.849
-1.25589
-40.1375
-0.833247
-1.25199
-64.2083
-10.1803
-36.4359
-1.98332
-1.03292
-36.7923
-4.17336
-32.8319
-43.4216
-0.159546
-1.37648
-0.736503
-1.47973
-7.23852
-71.4905
-0.997802
-72.9889
-8.30391
-0.327227
-8.12349
-1.46691
-60.0098
-8.10428
-75.6241
-5.35261
-11.6033
-76.8681
-1.70558
-1.47753
-75.3788
-40.005
-3.87243
-25.0498
-1.07301
-0.82448
0.175745
-50.6061
-2.08018
-7.37883
-76.3216
-75.5513
-74.9885
-56.939
-11.6675
-9.69327
0.515817
-6.94189
-64.4579
-77.8281
-57.1608
-1.24079
-78.1061
-1.52868
-1.12651
-1.86255
-14.9903
-13.3004
-0.946132
-1.54467
-0.87071
-1.12739
-1.94141
-76.3097
-15.0435
-9.88872
-1.05867
-0.515145
-3.97853
-51.0142
-1.33142
-22.1212
-79.4113
-13.3121
-2.93516
-1.22946
-0.819841
-31.0468
-56.0183
-0.932618
-1.82281
-2.08394
-0.502052
-22.516
-72.2501
-11.4256
-0.214162
-29.3358
-1.32147
-10.4361
-18.1327
-3.40583
-0.604718
-2.3331
-81.3605
-65.6308
-13.5208
-79.8967
-1.10367
-2.20756
-55.0426
-1.51051
-0.910865
-72.6734
-30.0537
-1.79772
-0.895211
-2.70901
-0.284741
-2.12021
-14.5481
-0.724299
-3.06339
-8.94466
-16.0766
-2.52797
-1.61081
1.68446
-1.65432
-80.0604
-0.593085
-61.7177
-7.91208
-79.7433
-82.0187
-87.7361
-84.5122
-56.5324
-1.67174
-0.77871
-3.63764
-1.89859
-0.812892
-2.95026
-3.52309
-14.332
-2.40028
-19.9245
-0.271257
-80.4262
-3.45516
-14.8014
-79.461
-90.9705
-1.15293
-10.1251
-3.95872
-3.90198
-0.713134
-1.58601
-12.3023
-9.54471
-74.344
-1.26616
-73.6184
-85.7067
-79.3962
-78.2241
-86.1935
-74.8513
-60.33
-0.682913
-1.33927
-1.20503
0.452031
-75.4848
-0.978109
-88.2636
-13.6095
-1.68573
-20.072
-0.358256
-2.66924
-66.9292
-5.44974
-74.2892
-23.6575
-0.570231
-1.12261
-9.15353
-87.4829
-10.4921
-0.530981
-3.09934
-0.920286
-0.986017
-0.77455
-67.6157
-6.15515
-3.32655
-1.63413
-0.339937
-96.1175
-0.806264
-1.17748
-95.7259
-0.320489
394.217
131.353
185.164
124.253
114.678
83.5914
67.538
52.5587
33.0653
374.777
119.018
167.453
118.079
108.17
84.6117
70.7529
57.9688
44.859
348.542
102.079
145.46
109.17
101.439
82.6473
70.2068
58.1967
45.5781
314.07
80.1754
120.491
94.8475
89.471
75.5599
65.4018
55.1429
44.0348
268.207
54.9885
92.1853
76.9248
74.1669
64.8362
57.3969
49.7071
40.5914
210.984
31.1443
62.7241
57.1371
56.617
51.333
46.4867
41.0888
34.8946
146.116
16.207
35.238
37.6471
38.5284
36.6144
34.1229
31.0331
27.5868
80.0233
9.77584
11.6676
20.1395
21.5867
22.2212
21.591
20.4811
16.6104
17.7389
3.85644
-7.92229
5.54381
7.24382
9.67233
10.403
10.5409
10.1166
-36.392
-4.50082
-22.6858
-5.33087
-3.47469
0.03349
1.6421
2.7516
3.31043
-82.5252
-13.3841
-31.5989
-11.998
-10.1727
-6.31933
-4.36995
-2.88096
-1.15669
-111.117
-13.1068
-32.799
-14.2845
-13.1133
-9.68866
-7.95399
-6.73198
-3.52344
-111.558
-2.15734
-26.0885
-12.9393
-13.1695
-10.7327
-9.4314
-8.14525
-6.69086
-100.002
9.33058
-17.4051
-10.3327
-11.8985
-10.5346
-9.66688
-8.43983
-7.8407
-88.4114
15.2707
-10.5436
-8.19924
-10.5091
-9.96823
-9.40875
-8.40494
-7.48785
-73.2827
15.9481
-6.38011
-7.19191
-9.58156
-9.47797
-9.03576
-8.18155
-6.99529
-60.3685
10.7611
-5.37678
-7.44633
-9.26062
-9.18773
-8.67817
-7.89192
-6.07458
-53.6497
0.121054
-7.63308
-8.68173
-9.37416
-8.99491
-8.28388
-7.39002
-5.78208
-46.8269
-9.61517
-10.0412
-9.76912
-9.41142
-8.68951
-7.8209
-6.86113
-5.69818
-37.5643
-14.0215
-10.9678
-9.99298
-8.99229
-8.02818
-7.04245
-6.00946
-4.80896
-29.6224
-14.5031
-10.6152
-9.34301
-8.10148
-7.06231
-6.09575
-5.10156
-4.24988
-24.5657
-12.8182
-9.50519
-8.0825
-6.87176
-5.86956
-4.98261
-4.04022
-3.84368
-22.2119
-9.41612
-7.91804
-6.44901
-5.43703
-4.57365
-3.83679
-3.06485
-3.05676
-20.6034
-4.7318
-6.58237
-5.31441
-4.45081
-3.61781
-2.87239
-2.16444
-2.30192
-16.554
1.06855
-2.62191
-2.15119
-1.99121
-1.95571
-1.74772
-1.42645
-3.51058
5.75926
5.39583
5.08367
4.91906
4.86121
4.96464
5.21984
5.63467
6.24255
7.076
8.16559
9.53838
11.2002
13.1572
15.3842
17.8534
20.7202
24.0736
27.6619
31.2206
34.6473
37.8208
40.7926
44.1459
46.9843
47.9537
48.672
50.8434
53.8974
56.8026
59.8828
63.7156
67.49
70.6017
73.4538
76.439
79.5068
82.7771
86.313
90.2563
94.7711
100.078
106.436
114.19
123.726
135.31
149.295
165.848
184.806
205.994
228.953
252.908
276.982
300.349
322.55
343.278
361.65
378.072
393.785
1.80904
1.04582
0.284442
-0.348386
-0.898654
-1.41201
-1.91817
-2.42573
-2.94955
-3.50398
-4.10267
-4.7568
-5.47704
-6.26959
-7.09991
-7.78633
-8.14747
-8.29871
-8.40596
-8.36205
-7.96461
-7.12804
-5.80547
-3.8991
-1.55763
0.534213
1.8776
2.38549
1.70321
0.415428
-0.657173
-1.43815
-2.0043
-2.47687
-2.89489
-3.24417
-3.5431
-3.77701
-3.91176
-3.92827
-3.79183
-3.41513
-2.67172
-1.42103
0.494441
3.21325
6.85411
11.4672
17.0625
23.5691
30.9832
39.0293
48.1266
58.357
68.2722
77.5289
87.1989
98.3611
111.721
2.86685
2.52806
2.16792
1.93885
1.79739
1.74114
1.77053
1.88391
2.07861
2.35207
2.70248
3.1292
3.63332
4.21806
4.89198
5.66778
6.53807
7.48379
8.52322
9.69631
11.02
12.4791
14.0567
15.7199
17.3651
18.7649
19.965
21.0063
21.8604
22.4933
23.1194
23.8135
24.5923
25.4417
26.4014
27.5107
28.8036
30.3187
32.1037
34.2085
36.7031
39.6644
43.1949
47.3947
52.3743
58.2267
65.0365
72.8455
81.6576
91.421
102.121
113.608
125.826
138.326
150.491
162.242
173.583
185.192
194.373
1.02177
0.575412
0.143415
-0.196237
-0.475336
-0.696081
-0.861024
-0.973867
-1.03907
-1.06074
-1.04197
-0.984617
-0.888354
-0.749344
-0.55929
-0.30451
0.0287929
0.438807
0.923829
1.48912
2.14407
2.88706
3.7075
4.57862
5.45162
6.24629
6.90366
7.38226
7.66197
7.75912
7.73204
7.61873
7.4486
7.24183
7.02238
6.81422
6.64167
6.53158
6.51894
6.642
6.95031
7.50064
8.36297
9.61339
11.3393
13.6314
16.6137
20.5026
24.8862
29.3857
35.1849
43.022
52.0795
61.7778
71.9719
82.4165
92.9016
103.663
114.489
1.73566
1.5004
1.2519
1.08482
0.974052
0.918957
0.919771
0.975747
1.08518
1.24624
1.45737
1.7171
2.02444
2.37911
2.78132
3.23148
3.73037
4.27649
4.86991
5.50868
6.18982
6.90453
7.63979
8.37614
9.08682
9.74161
10.3182
10.8037
11.1927
11.4917
11.7251
11.9153
12.0928
12.2876
12.5292
12.8535
13.2897
13.8614
14.6016
15.5312
16.672
18.0453
19.6731
21.5827
23.8089
26.4005
29.427
32.9901
37.1852
42.1582
48.0553
54.8243
62.4038
70.6782
79.4793
88.5158
97.564
106.983
114.754
1.06706
0.839146
0.624606
0.466498
0.348312
0.269863
0.230941
0.230699
0.268028
0.341931
0.452309
0.599159
0.783503
1.00665
1.27046
1.57674
1.92745
2.3209
2.75879
3.23781
3.75377
4.29585
4.85067
5.40289
5.92405
6.3968
6.79271
7.09964
7.30415
7.40249
7.40461
7.31026
7.1464
6.93904
6.69599
6.45821
6.23267
6.01082
5.83835
5.71643
5.65812
5.68037
5.8018
6.05702
6.49392
7.15491
8.13445
9.53057
11.4757
14.1207
17.6708
22.2309
27.8202
34.3564
41.7045
49.5882
57.7425
66.2493
74.1943
1.35116
1.2326
1.12106
1.05207
1.01428
1.00721
1.03001
1.08221
1.1625
1.26953
1.40331
1.56374
1.75217
1.96948
2.21678
2.49619
2.81145
3.15424
3.53281
3.94096
4.38027
4.83704
5.30117
5.77161
6.20297
6.60822
6.94259
7.21374
7.40088
7.49521
7.51917
7.42906
7.27397
7.09295
6.8438
6.63284
6.44323
6.20495
6.07025
5.98565
5.97284
6.0475
6.21502
6.50199
6.97095
7.57289
8.45327
9.63196
11.2516
13.4403
16.3166
19.9705
24.4401
29.695
35.6155
41.9448
48.4256
55.0281
60.8501
1.29877
1.20196
1.12424
1.07835
1.05355
1.05261
1.06896
1.10919
1.16688
1.23375
1.32857
1.43936
1.57475
1.73908
1.9272
2.15428
2.41415
2.65879
2.96648
3.3162
3.71928
4.13254
4.54443
5.0052
5.36345
5.74256
6.00979
6.24586
6.39434
6.451
6.44571
6.18853
5.83038
5.46282
4.8216
4.3319
3.84754
2.83087
2.03744
1.25644
0.53385
-0.118327
-0.687999
-1.14252
-1.0622
-1.22089
-0.836547
-0.518819
-0.0765241
0.990421
2.92338
5.78375
9.26785
13.5651
18.7386
24.4662
30.3415
36.4266
42.424
1.46777
1.45782
1.44719
1.461
1.48298
1.52469
1.57649
1.63063
1.70653
1.82297
1.88843
2.00982
2.15794
2.29313
2.49393
2.6234
2.88719
3.16959
3.44174
3.71277
4.061
4.38679
4.75147
5.18657
5.47741
5.86326
6.06108
6.26418
6.45226
6.19491
6.32765
5.87001
5.29329
4.78619
3.82063
3.11338
2.07008
0.831316
0.439962
-0.271421
-0.730252
-0.803288
-0.985762
-0.600153
-0.175295
0.157173
0.823086
1.0827
2.98537
4.9319
6.99255
9.37135
12.3454
16.6653
20.9704
25.5143
30.0389
33.3686
34.3882
-10.1091
-9.98638
-9.28574
-8.34519
-7.59252
-7.16575
-6.82885
-6.19935
-5.41076
-4.85353
-4.20075
-3.14047
-2.13273
-1.26351
-0.239407
0.762927
1.46918
1.97804
2.47517
3.03157
3.5781
4.0204
4.34895
4.86196
5.47284
0.250756
0.0745083
-0.497318
-0.670324
-0.506689
-0.147628
0.570662
1.56825
2.32076
2.44444
1.98822
1.18717
0.373608
-0.11715
0.00821989
0.647062
1.3776
1.95673
2.31017
2.41969
2.29853
2.09838
2.09302
2.42605
2.7247
-1.60505
-1.70861
-1.63373
-1.43122
-1.10238
-0.718203
-0.252277
0.248113
0.617144
0.685734
0.527315
0.268012
0.0277636
-0.072203
0.0874979
0.449602
0.864968
1.24832
1.56657
1.81241
1.99035
2.13336
2.29799
2.50819
2.87331
-0.820329
-0.91284
-0.817812
-0.701916
-0.518992
-0.290828
-0.0162969
0.269327
0.496318
0.606023
0.613691
0.570226
0.539422
0.579064
0.727277
0.95837
1.20979
1.43268
1.59991
1.70298
1.74613
1.7428
1.7059
1.60973
1.56619
-0.737352
-0.784517
-0.674778
-0.565876
-0.416509
-0.246723
-0.0567227
0.132475
0.291221
0.398575
0.460616
0.504404
0.562046
0.65723
0.803478
0.984956
1.17101
1.33595
1.46572
1.55648
1.61411
1.64815
1.67259
1.67719
1.78631
-0.637306
-0.611646
-0.490222
-0.398106
-0.279847
-0.156396
-0.0191106
0.117687
0.241835
0.34965
0.438578
0.524801
0.62572
0.745553
0.888782
1.04208
1.18733
1.30906
1.39869
1.45331
1.47736
1.47261
1.44217
1.36456
1.33313
-0.474145
-0.530368
-0.387512
-0.313756
-0.213546
-0.121214
-0.0141148
0.0924037
0.194424
0.301588
0.398651
0.501489
0.623485
0.753737
0.896659
1.03815
1.16637
1.27235
1.35219
1.40333
1.43426
1.44496
1.44185
1.40988
1.42631
-0.314759
-0.479528
-0.315085
-0.26306
-0.166635
-0.0898914
0.00863635
0.0967602
0.174312
0.279214
0.370897
0.475352
0.617682
0.757213
0.901748
1.03949
1.16068
1.2597
1.33558
1.38631
1.42651
1.44642
1.45523
1.43324
1.42804
-0.451751
-0.521545
-0.247195
-0.214778
-0.144686
-0.122568
-0.0631467
0.0051421
0.122936
0.229443
0.34226
0.438838
0.554747
0.68224
0.850411
0.98609
1.10953
1.21469
1.32472
1.38814
1.43345
1.46874
1.48339
1.46667
1.4469
-92.6339
-90.5885
13.9541
7.50715
1.10855
0.847344
3.16382
1.77068
14.0694
6.41014
7.86861
1.64975
-112.58
-0.279736
6.49257
2.0711
13.8434
6.71766
-2.87126
37.6291
-13.5212
3.4297
11.5693
2.82159
1.51092
2.08473
1.49099
-0.468156
-90.347
12.7819
21.2236
2.31071
10.1411
-34.7058
12.5858
1.46577
4.85376
6.66544
2.98856
4.3432
5.6161
2.57438
2.57223
-0.717299
0.0644246
-0.441862
4.58393
5.03834
-50.548
-0.414602
5.00658
3.94479
-49.4068
6.73235
2.90105
14.0199
-0.198333
-39.255
0.136824
5.85506
1.67808
14.0001
1.06647
2.23693
1.65926
-0.65633
-1.28274
2.04989
-101.722
-20.9506
13.909
3.77118
1.00108
36.8593
0.819035
-18.8759
34.6865
4.26308
0.363987
6.41297
-36.2328
1.57759
2.03443
8.36899
1.40874
1.69171
1.05085
4.33482
9.77371
-1.59048
1.11831
-7.64141
1.16585
1.76191
0.903805
8.37334
2.09178
5.74303
2.55307
5.20727
-0.0443121
5.78135
-0.115302
2.76189
0.26928
0.332665
11.6029
-32.5951
2.04805
13.1062
2.80033
1.9208
12.6349
2.42831
-52.2737
-54.3629
5.63595
5.1993
-74.0692
2.06284
2.2182
1.82046
3.10009
1.65564
10.4631
2.50286
3.96443
35.9922
0.227677
4.64005
2.01553
36.6215
-21.8206
-1.5635
-0.546164
1.02748
0.178695
0.0628536
1.79745
37.6237
1.59442
0.822212
4.64231
2.23189
-65.8763
1.97791
6.884
15.8275
1.80142
12.48
-0.194953
-0.0805698
6.64494
5.56398
1.31577
6.40504
0.638812
4.20214
37.0801
3.60272
2.51706
14.0107
1.85891
5.89423
2.20407
8.42293
-0.228241
1.17288
2.63519
0.526699
-0.153732
2.44995
1.80837
8.01474
-5.99193
-0.202169
-1.0778
-43.3719
-28.309
3.63579
-3.9024
2.53069
-52.4372
5.68296
0.113261
2.79319
7.8392
2.00527
7.50658
1.83562
5.42662
4.70155
1.45173
1.60423
6.70357
8.31558
0.832461
3.2868
-59.6522
-111.417
-119.551
3.09204
1.72124
1.77084
0.510135
3.67918
2.8632
-0.104957
-36.6289
4.12149
0.264084
1.78704
-5.40849
0.313152
-0.218433
8.09432
0.563451
3.04761
5.88868
-2.3065
-0.285888
2.59108
1.43407
13.7484
5.03302
5.25087
0.727162
13.8627
2.03566
0.960729
6.88638
1.5503
2.43165
2.07302
1.38832
4.97386
29.1213
-0.426171
0.512644
2.03987
22.4197
1.6419
2.42566
-0.441995
0.938177
1.36288
2.35122
0.14611
2.03009
2.57354
2.05179
-0.161404
4.1965
-45.8705
2.27739
0.779193
12.609
34.2655
35.8874
5.97896
1.16133
0.102689
1.79158
1.1817
36.1684
1.76491
3.3988
7.62929
2.43437
1.21984
-7.55588
1.86463
2.50547
3.04312
-4.21488
7.70451
1.32993
14.3601
-0.310184
3.14341
-0.507495
-0.172373
2.70843
-0.995198
-31.5065
1.79672
0.224809
5.25633
8.72386
5.36221
4.43251
2.01176
2.47011
7.34043
-47.2727
8.24061
11.6786
-3.06033
3.64011
-14.4583
3.4191
2.50166
3.81289
1.72505
12.5267
2.55297
-13.0283
0.932883
37.5742
1.63821
3.15484
-1.81424
8.2166
0.275791
2.49333
3.15901
4.23425
3.83736
1.59664
-19.609
33.899
2.0578
3.81615
19.4576
1.31707
1.77303
5.74368
-36.3204
0.732957
-35.9627
1.98963
6.03724
-0.270131
5.78295
3.99718
1.65132
1.76848
1.98102
1.94877
1.58351
1.80374
1.56744
-1.23051
-6.88551
35.9064
0.532271
0.367328
2.54605
1.07023
5.79226
0.495629
1.31382
2.33855
31.4949
7.59132
4.87988
-15.099
-0.901475
2.32299
7.96151
-33.1717
11.7609
2.94236
5.29492
2.60938
0.924678
2.43083
4.07963
1.7081
6.39486
-0.471774
4.76015
-82.7492
13.8881
-95.9795
1.99923
1.94221
1.88765
3.64289
5.23096
11.8742
1.88759
10.8338
-0.917257
-0.757623
-35.4824
2.14634
37.5673
8.7161
5.85854
1.85916
3.57913
-1.38326
12.91
0.656006
6.14629
2.44138
11.1016
3.95755
-80.2003
1.6326
2.7684
1.37307
-24.7281
1.45034
2.80949
3.94898
-0.989562
-1.1877
6.48536
6.49974
1.63857
-14.1759
1.69655
2.17384
4.23947
-50.1107
5.95597
3.80256
-3.48282
2.22212
3.45834
-0.640309
-0.202923
2.95715
3.32975
1.9641
3.73121
5.00842
2.29792
1.70443
0.749055
-5.69852
0.407341
4.88548
2.51009
2.24921
2.45551
2.52115
3.83875
3.50567
1.0951
8.209
-1.16345
-101.373
13.1916
-0.417891
10.1549
0.149748
0.369962
13.9075
2.43181
1.77625
-19.4763
-2.16838
-21.7748
8.42604
1.79908
1.1122
32.2286
1.86372
-0.948777
5.22646
-8.00435
3.27834
1.33893
0.344857
13.9319
3.37713
10.4192
-1.47147
1.16429
12.1035
3.9855
1.73543
-56.8654
-5.6916
0.799323
13.3264
10.0771
-0.17558
4.78739
2.69276
1.57174
7.09434
1.1958
1.49338
4.00478
-1.41142
3.32133
3.54156
2.00939
1.88299
12.6708
1.63879
0.173524
6.81939
1.71724
2.32983
3.18598
2.55228
4.37113
1.76287
-0.474499
-3.5419
-28.1703
1.83019
1.86278
3.74003
2.16201
2.88418
-16.743
-3.20204
-5.42708
2.78662
4.14156
12.4282
-47.4192
1.92115
0.878783
-3.41433
4.86201
37.5711
10.3567
-38.341
3.82619
3.2637
8.05895
3.30543
3.46111
-0.0576795
2.25175
8.65385
13.5019
2.01137
-1.30807
2.26263
-23.7009
-51.2
1.9557
-25.656
13.2105
2.75567
11.3782
2.34496
13.6386
1.88472
-0.294128
1.70641
14.3798
2.54092
3.96379
0.130784
-43.6398
-44.7117
4.29848
1.38643
-0.838359
-93.36
-22.0919
-4.65042
-5.19665
2.16973
-70.2549
12.6749
4.59602
0.84186
0.110308
2.34049
0.76905
8.24596
4.81443
7.76927
0.290353
0.81273
12.8976
5.39955
-23.5583
-0.287177
0.815434
37.8752
-64.9757
2.80743
-1.94516
1.94244
11.3014
3.13139
0.840968
-3.16343
4.06783
0.745977
1.39284
2.44406
4.71963
0.243178
0.0838471
-48.1944
-43.3728
1.15886
2.47403
-0.418868
-0.502942
2.63331
3.9427
35.6616
2.32282
1.76848
5.46667
5.29991
2.38613
2.63124
5.74324
1.51146
2.65357
0.0398743
-32.2745
3.56863
0.439236
13.6141
2.8174
1.35688
1.82415
-4.92189
-0.0192284
1.07613
5.28098
7.68239
-0.461501
11.6895
0.789514
0.984304
1.02446
2.72863
2.04212
2.06786
-17.9476
0.158359
1.59343
-0.175892
6.17917
0.521633
-0.40469
-0.672145
3.1124
1.02249
2.82418
1.34768
-1.23093
3.74872
5.92328
30.951
2.89632
4.66243
2.31194
3.77017
5.33541
5.25921
27.6253
5.63254
2.47326
-18.4461
6.09175
6.13611
2.26316
1.11233
1.85661
10.9548
11.0901
-0.537471
-57.8251
1.04441
-2.27813
1.44982
3.68338
2.66242
1.99439
2.17264
1.45761
-0.974967
4.95097
2.52487
-37.3903
3.77363
1.97502
3.3516
-0.390304
2.03722
-62.5406
11.2603
2.17339
4.42917
3.7983
10.1244
1.95425
-0.74056
2.56704
2.15339
-1.50722
1.96356
2.84414
0.142241
2.31081
2.24734
3.21366
4.64083
6.57911
5.09982
-0.317879
4.05769
6.13271
-1.16038
12.4447
-0.821246
0.704001
1.27406
2.80879
1.84725
-1.25898
1.95479
1.47979
-86.3746
-8.12271
12.7785
-0.879765
2.48279
-3.51645
1.59734
-0.443761
-25.8226
10.8913
-1.71568
-20.3857
2.66053
-49.1743
5.48425
8.03781
8.02609
8.53872
3.04432
1.95572
2.65844
3.03243
1.82512
-74.0859
-48.4981
-5.92045
36.751
-1.14948
3.51497
1.72755
1.68513
8.02986
13.3393
1.65798
3.12198
11.3383
-49.4972
-8.56363
2.81075
2.7169
-0.202439
2.69761
-55.7993
-1.53108
11.5233
4.57133
0.653522
-1.81816
2.1163
2.84608
-0.247884
0.746535
0.0597871
3.63828
2.56426
0.0268837
1.8239
2.07212
2.58044
1.72421
0.849348
4.09192
3.55908
5.87051
3.1178
0.0671959
2.39387
37.5647
1.43908
0.464125
-1.32025
2.49553
-0.35612
2.72277
1.37231
5.01019
13.0639
16.6186
1.85703
13.141
-65.6726
24.6814
13.4007
2.18806
-0.396546
-4.60593
11.1625
2.53705
1.62991
0.290068
8.88779
13.9391
2.37074
1.41644
-0.54407
1.07085
13.5774
7.89017
4.109
2.41931
14.2773
-62.0841
-27.0234
2.37104
3.55367
2.70736
9.48169
0.538898
2.54316
1.40418
0.142069
19.3561
3.77223
0.0333826
-30.0075
-3.14437
1.76903
12.4348
-1.7156
-11.975
1.92829
3.26601
3.80273
1.77971
-65.9291
3.55314
-4.69088
2.08994
-0.0679989
-6.88605
4.01887
2.83172
3.61707
1.5518
4.82914
37.6543
13.6881
2.06941
-80.5696
6.39483
2.01276
0.512374
-0.00461545
6.68033
3.99008
37.9833
2.16189
2.00291
4.90565
1.93774
10.6253
9.56212
14.5126
3.82911
6.35166
6.59965
-0.186311
11.2878
6.72417
-3.97064
2.99485
1.39661
-0.0254074
34.1155
1.82861
-3.95878
7.72438
13.347
3.6296
3.20715
9.54786
-0.339713
1.83076
6.03482
-52.1652
-32.5735
-4.94074
0.625149
4.53023
12.0914
-45.7625
-18.5882
-0.209272
0.0222915
2.7485
0.982167
-35.3265
3.60468
3.22634
-0.126204
8.08276
2.20141
1.71754
-24.8653
2.28649
0.188172
-2.26586
-20.348
-4.04162
-15.048
-62.1877
4.44226
-0.539852
1.00345
-0.573394
-45.2355
-35.898
2.96904
1.74975
1.79719
2.87087
10.3225
9.79474
1.85737
-16.5146
-4.7103
26.2905
-5.33334
1.39036
1.7995
13.554
-15.7126
-0.542392
-2.1774
2.15193
2.3115
4.8455
7.96174
-6.40745
-6.32891
13.352
1.9038
2.82922
4.85473
1.89045
2.93945
1.61208
13.0864
-1.43803
-0.114381
23.253
4.15529
0.290588
0.109214
3.21985
3.57878
0.183592
2.50424
-21.3721
2.67945
0.512106
-25.269
37.5628
13.6258
1.94571
1.05541
0.545101
3.32956
-76.6278
0.859119
-0.032547
12.7903
1.96937
0.43122
-0.146413
1.06465
-41.8295
4.91715
3.40714
2.65685
2.44858
3.02469
5.84745
1.54362
18.4844
2.16913
1.61188
2.05665
-5.28891
-0.49848
2.24864
13.4203
3.78818
5.28534
1.85088
-48.2664
1.2804
1.4749
2.9066
1.93451
6.46918
2.03604
-2.33734
35.4219
3.31844
-7.00002
1.66016
2.64924
1.80744
4.15636
2.28058
1.84303
7.76471
-0.120277
6.78695
2.89616
-5.72048
2.42683
4.63401
2.97578
0.0757424
10.5719
4.67756
-0.840494
3.43094
-0.219064
1.74017
-14.873
2.02767
-1.8958
-2.57754
2.74683
3.81286
3.07893
4.6496
6.59466
8.7689
2.1444
4.57215
12.9697
-0.191357
31.122
1.96394
-46.5772
11.4703
6.14004
1.72603
1.80978
0.0574949
-14.5925
3.18611
13.487
2.10845
0.338346
4.5206
0.462745
3.70815
0.257334
5.01761
24.4303
4.29321
-59.709
0.196694
9.08567
4.28434
2.41472
2.67805
5.75113
-33.33
3.79876
37.4892
-2.93566
1.38739
2.73591
-53.1987
5.82181
3.09854
3.70947
3.88122
2.92594
6.16705
-0.074254
3.43253
2.12014
0.574615
-64.5775
1.65811
0.394187
4.86794
2.46359
1.14525
2.70929
-0.267382
-4.94239
12.8775
19.5864
-3.67289
-0.111504
18.3669
6.07845
5.89692
2.41599
2.71864
36.6009
3.54102
0.139135
-2.63437
-63.2838
3.90902
3.64777
3.64573
-0.592891
-44.187
1.32072
3.76014
-36.3824
-19.5185
2.83981
2.47262
0.907899
1.93476
0.819223
-55.7522
1.53863
22.2413
1.71599
-2.34066
1.48359
-25.6239
2.42739
9.72673
2.63226
13.4229
-47.7373
-49.6638
8.42286
2.09106
4.82682
-27.1951
1.93687
3.41101
1.86457
-0.00492914
2.38123
1.56684
1.9922
11.3376
0.532367
-0.264357
3.73026
-0.0346415
0.582747
1.24846
6.25132
2.87707
8.81719
6.76512
0.137217
2.52394
0.655697
2.00569
0.170607
14.5857
13.2039
-0.596118
1.79638
3.11841
5.2183
5.70089
2.09137
-1.49642
0.531673
2.89598
1.37186
-0.45797
3.54932
0.0388642
-0.49563
-34.305
1.54973
1.2915
14.361
1.87676
0.386724
1.7166
9.4611
0.6358
3.1017
-80.4333
2.09914
12.0036
-25.159
1.35743
0.865914
6.13303
2.47878
1.69977
-1.23896
6.36049
2.26218
-67.707
-0.632134
5.82295
-6.15072
35.8916
-41.007
3.92674
1.64263
35.0533
18.81
0.629587
2.82474
3.89731
11.0606
-2.80378
1.37075
3.60162
3.20522
0.628841
3.74414
0.742902
3.1368
-9.80256
35.272
6.99365
3.33354
7.49576
2.37477
1.80055
-3.40103
2.83546
-0.752904
9.33584
27.5074
2.71122
27.1871
-81.1953
37.5541
-40.6451
-0.402231
-38.3964
4.89175
2.21324
2.82251
-32.0191
2.62763
14.1355
5.20576
-7.35937
-74.1976
5.90433
3.45873
-19.2104
-0.181093
2.36947
2.88482
-6.94192
4.65697
4.69707
2.96417
37.5901
-1.5767
-19.9353
0.256116
0.22892
1.84165
36.7909
1.87421
0.064261
37.8683
2.51299
-56.0295
2.14691
2.53036
-15.3827
2.55131
-0.883022
-48.8966
6.33113
4.55725
-11.73
4.69964
-4.44745
-0.23715
0.742847
-20.3978
-77.2278
3.0404
7.87232
-8.49674
-16.9166
4.55147
-0.492669
2.45685
-20.3911
1.19694
9.1237
2.34031
4.31138
1.28269
-15.6795
3.89625
-0.0204211
3.3817
-53.843
2.7181
2.25287
2.63175
26.8242
-0.241904
1.69057
7.90032
1.03153
1.81998
-2.19511
2.68432
1.81433
-82.4946
0.225576
2.59043
4.73727
1.87763
3.01099
1.62278
-3.31334
-15.7201
-0.992124
3.3333
2.18603
-62.1045
3.32638
1.61955
0.0245635
0.00668164
7.11228
-0.0104775
-0.696699
-96.6951
1.48139
-24.2359
4.87368
1.51526
-0.285503
3.37647
4.59554
1.37357
2.24796
0.388388
-0.4725
-8.90805
2.38074
6.3744
1.4806
6.07647
2.74929
4.79993
-0.217607
37.9005
-39.9057
0.248719
-1.33224
2.57736
2.80589
2.34073
-25.5924
-22.2631
-0.77262
2.39611
1.16179
3.35093
1.82161
2.16137
9.1361
1.93779
33.7948
6.00033
3.41666
1.4576
-50.398
3.52753
-42.1083
2.68795
1.56516
0.30479
-1.51655
1.67016
1.6008
1.72392
-0.50608
10.7057
-17.6863
-3.03983
0.442356
11.725
13.9067
1.75394
12.7784
-50.1459
4.50339
2.96285
34.0996
1.92578
2.87856
3.64801
1.46648
17.0334
-1.18073
12.5064
-0.380917
-0.245875
37.8365
1.01671
-14.0671
6.52688
-0.522933
0.214161
3.78534
-0.0309142
-21.1427
0.688873
-27.8707
-0.556005
1.75141
-0.111482
3.84606
-0.656763
3.77345
2.35836
1.28073
1.3222
-0.522029
-18.5697
-0.103341
13.649
1.85582
2.45917
2.65479
-0.115956
1.96444
13.7207
-14.1102
1.90665
-11.1584
4.39954
26.0793
3.81727
3.80557
1.56714
1.37168
-21.9812
1.77203
2.4238
8.81735
-1.92463
4.86306
4.04683
4.31801
3.21252
3.57152
1.83941
2.02663
7.29525
1.75844
2.50863
2.84977
10.7518
1.99197
-12.9572
-38.4734
3.83361
12.4614
3.41956
2.68385
8.42372
2.68258
-6.4867
2.50093
-42.4463
0.118625
3.5326
1.14399
5.85455
13.6828
0.293076
2.02875
-23.0943
-2.40107
0.234756
-59.6018
2.58734
1.12503
3.34333
8.93614
-30.2896
1.39191
2.1242
3.85474
1.63887
10.7822
-34.0886
2.72739
4.41629
4.31886
2.92066
3.33819
3.92151
-0.864732
-2.40948
1.44663
1.15843
4.08309
2.1944
1.12006
2.14856
-0.122563
2.35456
13.4576
-40.8862
1.39189
-70.5195
0.511741
17.9439
3.40011
37.9666
-3.99149
4.4004
2.63389
-32.2079
2.41022
2.56723
-46.0366
2.03876
13.0241
-21.0416
-75.5632
3.16637
6.62408
0.938301
-3.98425
0.56221
3.71793
9.64656
-0.29439
15.3186
2.61884
3.61628
0.257048
1.83982
7.98582
-0.73471
1.50703
-52.9063
-0.208809
-18.1904
0.456222
7.73204
2.79718
4.2536
0.703455
-0.432282
-25.6413
4.01939
5.2893
0.932102
-19.566
18.2482
4.65911
37.7327
0.0973457
2.84126
5.81921
-0.704806
3.94518
0.00551452
0.746934
6.21913
1.68263
3.17237
19.5376
-5.03683
-0.503138
6.55213
-15.2179
0.257198
-0.223764
3.23457
0.0350552
7.25012
0.0902712
1.71943
1.6705
13.0818
1.34528
-0.706966
-14.0671
1.39509
1.72484
14.1537
1.44643
5.97032
2.5376
10.9294
3.00846
1.79068
1.91542
4.6057
2.00961
-0.750477
3.83766
0.315982
3.93014
-25.3474
0.496895
1.77538
14.2056
1.33847
1.71196
2.32382
2.5783
2.08951
5.72186
3.15306
-3.29135
-11.1383
5.69929
35.7011
4.53221
3.10246
9.14824
2.40175
0.0702724
2.69774
1.69491
0.144664
6.10209
3.55962
3.77034
1.4756
0.0129493
-0.329341
4.78074
0.541635
-1.88247
-1.1826
1.88269
1.76522
6.6801
-2.70749
1.51999
2.01235
-0.113473
1.80935
10.9881
3.78073
3.07946
2.33108
-5.61533
-57.1772
-0.0929819
3.67124
1.28513
3.82583
-29.1405
0.918704
1.73733
-0.863212
2.79616
1.55334
-0.117428
-14.8281
1.01035
1.5772
2.25666
2.31289
0.205533
-14.5265
1.06809
2.94618
1.7384
-2.72081
-22.7852
2.27396
4.13517
4.27219
0.164929
0.711932
2.62596
-7.91428
-0.0465848
2.39063
5.03446
7.56471
-0.950764
3.07588
2.21764
7.90715
7.96047
6.14008
1.89265
35.9963
2.46639
-1.91119
13.233
-31.4157
1.58757
1.86903
2.20341
2.99501
4.90807
1.11575
-18.0562
1.61686
4.62428
1.51747
3.67317
7.65707
2.98624
2.43147
3.92282
-45.9645
2.70978
1.33188
0.949909
-3.0397
0.600348
0.574677
-28.7711
0.656694
1.03486
3.57323
2.22992
3.69966
3.79292
2.74855
1.67541
-3.45144
4.10817
0.840178
4.5034
2.89234
2.14277
0.557951
3.82755
9.39414
1.5574
16.8982
2.37082
0.127963
2.57815
3.01695
1.49393
3.3209
3.4044
0.829301
3.45608
4.33969
15.8607
1.78543
2.68166
10.6009
5.27941
1.44949
-19.1438
3.26366
15.5343
2.81435
-4.66642
3.45705
-3.36908
1.83703
-3.81797
-0.510235
4.16344
6.51461
4.88964
-0.0674661
5.81861
1.90223
0.823071
1.86274
-4.33382
3.64311
0.506131
25.5146
5.61284
-47.2679
3.52457
6.43034
0.738589
2.47424
1.57159
0.485357
3.9232
5.2281
2.38308
-1.23352
3.92457
3.28157
3.41519
-2.52854
2.57612
1.02007
3.90672
0.759033
0.940515
-0.482133
1.02795
2.49683
2.49821
4.7554
3.56967
13.1962
3.34597
2.41141
0.0753348
36.8138
1.94288
3.29667
3.11687
1.54971
3.72435
0.408383
-2.60925
1.18065
-11.403
-0.515875
-0.10104
-8.98261
-1.03735
-0.0630154
3.66175
1.06119
2.16875
1.23066
-109.527
-92.6001
2.65758
2.52153
1.82276
4.90995
0.216122
0.939579
1.36614
-0.0656658
-0.0104086
0.256763
-3.31395
0.000668111
-23.7098
11.0324
2.74393
5.53787
-1.24179
13.2453
0.670005
1.62393
2.36605
0.535523
2.46791
2.26047
4.80179
13.9148
11.5268
-24.6189
29.3418
2.49724
1.27086
4.26566
1.3612
3.63776
3.8
1.64591
5.7847
21.6507
7.23195
3.89632
1.20508
1.78908
5.30388
-17.6874
3.26779
-7.8777
3.32053
4.01432
0.232762
5.16492
7.46984
1.77913
3.62637
4.75488
3.13897
2.39651
1.18346
26.0089
2.4259
1.74003
5.23531
3.3448
15.4517
-0.823363
2.04765
3.07616
-31.2688
2.55172
1.94945
2.69445
2.92955
-0.42278
2.25901
2.28322
-0.262674
1.97909
3.17304
1.91136
25.9648
-2.67814
0.902317
6.03731
-1.15977
-0.117216
13.0163
3.83583
-25.9611
13.4239
3.61595
-0.400377
2.30747
2.19276
0.821333
-53.9244
-0.0302066
26.4984
-0.427057
6.03312
8.64232
-11.4719
35.7228
-0.0731109
-4.31214
11.3094
-0.134895
1.5903
1.96578
3.36084
37.5558
9.29908
2.74531
9.73032
-0.974371
6.72748
14.223
-3.86858
6.81252
-8.35321
7.40319
-0.386001
3.73008
-0.0326044
3.35334
5.97082
3.39576
0.80647
0.976967
5.33605
2.51895
3.94703
13.6713
2.8995
-0.122555
7.92542
-0.636055
11.7685
-0.914771
2.79105
0.664806
2.38141
3.6974
2.19712
4.92006
3.80634
2.14785
11.357
0.900014
-0.0430341
-0.490667
2.61506
-2.41391
14.0613
8.72227
-0.640708
5.82116
1.96582
3.96108
2.34063
-2.55809
28.0733
-10.2261
2.09731
2.40133
2.97136
-16.9286
-0.617983
0.826469
2.02266
8.75722
2.21688
0.259921
-72.8298
2.61561
3.83503
0.103635
7.34738
2.0004
-1.56243
13.9277
2.21936
2.47245
6.855
2.20237
4.8726
6.41252
0.342499
5.52992
1.82007
5.88939
-3.05762
-0.606417
1.75716
2.55596
3.7762
2.97013
2.24323
-0.102637
-1.86355
10.2073
2.3072
2.40819
1.62867
5.69245
2.52944
3.34339
2.12258
7.67945
2.2479
5.38366
-3.47749
-1.23447
6.42642
2.23016
14.007
37.4541
-2.54194
2.94852
0.247142
35.2371
6.50818
4.99787
3.60483
3.67187
2.42085