/*--------------------------------*- C++ -*----------------------------------*\
  =========                 |
  \\      /  F ield         | OpenFOAM: The Open Source CFD Toolbox
   \\    /   O peration     | Website:  https://openfoam.org
    \\  /    A nd           | Version:  10
     \\/     M anipulation  |
\*---------------------------------------------------------------------------*/
FoamFile
{
    format      ascii;
    class       surfaceScalarField;
    location    "400";
    object      phi;
}
// * * * * * * * * * * * * * * * * * * * * * * * * * * * * * * * * * * * * * //

dimensions      [0 3 -1 0 0 0 0];

internalField   nonuniform List<scalar> 
16133
(
1.67299
-0.0512936
-0.0835778
-1.5373
-1.48466
0.431465
-0.529358
1.58253
-0.554558
-2.27027
1.74707
1.07775
-0.229032
0.0704206
-2.34852
2.50711
-0.688132
0.094988
2.99469
-2.40155
3.52134
1.63126
-4.34262
-0.809992
-2.44002
0.741585
1.45776
0.240673
-0.0149674
-2.44839
0.610914
1.85243
-1.5553
2.31906
1.53417
-2.29795
0.653741
2.81464
-0.312032
-3.15635
1.80042
-1.68787
0.504847
-0.617407
2.69808
-0.899683
0.7674
-2.5658
-0.175123
-3.07276
1.80831
1.43957
1.01936
-0.881385
0.0731868
-0.211167
1.15476
0.06944
-0.204846
-1.16842
0.862506
-2.63199
2.93788
-0.200149
0.0457694
-0.727004
-4.0334
1.00884
3.1175
-0.092942
-3.96014
3.38368
-0.978856
-0.102674
1.81232
-0.0366774
-0.51401
2.0232
-1.70116
0.191962
-0.384795
-2.28999
2.44575
-2.81496
2.83767
-1.19113
4.59756
-3.53405
0.368344
-1.43187
-2.99819
3.70436
-0.0524211
-0.00305123
0.00499547
-0.0668289
0.0648846
0.00901117
-0.00752749
-0.00734107
0.00585731
-0.141216
-1.63661
1.48718
0.290645
-0.0365988
0.063219
-0.0640521
0.0374317
-3.46403
2.24528
2.23083
-0.599668
-3.40803
1.77687
-0.633313
0.636033
1.7977
0.816781
-2.28403
1.45228
-0.000602551
0.19495
-0.054123
-0.140225
-2.17264
-2.30959
2.29024
2.19198
-1.12603
0.510608
1.21688
-0.601478
-1.69982
-3.28887
2.81605
-0.00981915
0.0697041
-0.0843954
0.0245109
0.0447921
0.0857563
-0.0235831
-0.106966
-3.59793
0.889816
-1.25204
-3.33775
-0.438317
-2.41585
-0.578736
-0.703307
0.0761249
-0.142788
0.769968
-0.15982
2.13222
-0.00377846
-1.96865
3.066
-1.30851
-3.45733
2.4235
-1.42388
0.848531
-0.664947
-0.381203
-0.0915089
0.463781
0.00892971
1.85392
1.00598
-0.54084
2.44619
-2.26666
-0.564338
-1.24667
-1.71573
-3.48684
3.26846
-2.31755
2.53593
0.117923
0.0451619
-0.118293
-0.0237536
0.0366754
0.0728715
-0.0857934
-0.0161864
0.0476754
0.0542673
-0.0509442
-0.0281621
0.0425076
2.90981
-1.4642
-4.7345
-0.0114138
-0.0607015
0.0862276
-0.0141124
-0.61005
0.882732
-0.190037
-0.0826501
3.02372
0.0718568
0.0192013
0.0268647
0.420986
-1.34032
-0.565336
0.0407975
-0.0495414
0.0512012
-0.0424579
1.33133
-2.54264
2.59353
-1.38222
1.46077
-1.20973
-2.71527
1.81414
-1.36914
-0.482494
-0.0120354
-0.115524
0.125299
0.169408
-0.116524
-0.178186
0.786438
1.84768
-2.77804
0.641498
-1.39752
0.0425319
0.0128053
-0.0790908
0.0852868
-0.0127075
0.00444936
-0.0770287
-0.790845
0.140598
1.23469
-0.58444
1.47479
-2.32873
-1.86132
0.0168353
-0.295138
1.43302
-0.395969
-0.851433
0.485204
0.762199
-2.90958
1.41953
-1.28799
-1.49793
0.928977
1.31054
-1.50469
1.42755
0.893909
1.31725
-1.23275
-0.0676881
2.84127
-2.61519
0.615928
-0.842013
1.54296
-1.42851
0.019599
-0.134075
0.0594206
0.114629
-0.128887
0.0428983
0.0861481
-0.0923711
3.28493
0.5525
-0.996167
-0.534902
0.370691
1.29562
-1.13144
1.51792
-1.36742
-0.39571
0.245174
2.07597
-1.90701
-0.328794
1.00934
-0.646035
0.0527991
-0.416139
1.64473
-0.366046
0.239196
2.28776
0.157598
-0.369403
2.82778
-0.469606
1.65569
-0.164021
1.22001
-0.354952
0.144247
1.78268
-0.292508
0.154527
-0.667346
-0.99359
0.839514
2.37985
-0.391589
1.03084
-0.279857
-1.04614
0.860672
0.0837072
-0.0616544
-2.12949
2.37712
-0.490961
0.243323
0.801694
-0.416908
2.48474
-2.36324
0.787875
-0.90937
0.223252
-0.276932
0.152587
0.691412
2.71796
-0.924627
-0.0586972
1.75764
-0.204633
0.534871
-0.70388
0.00511489
4.43066
-1.15086
1.32426
0.065282
-0.0723181
0.249071
-2.07168
-0.444056
-2.17259
-0.878782
-1.35108
0.0316422
-0.109086
0.059719
-0.0865532
0.183936
-1.47392
-2.09963
-0.484397
2.29439
0.567127
1.41051
-1.79365
-0.453143
1.91799
-2.37396
-0.350764
2.24032
1.28822
1.41285
-0.406688
0.684584
-0.459378
-0.621174
1.51065
-0.466192
-0.999449
0.813448
0.91612
-0.730135
-1.64835
1.73982
0.66535
-0.756832
-0.044047
0.109675
0.00528195
-0.0709103
-0.485074
0.803025
0.542461
-0.660904
3.1028
-2.44068
-0.0449644
0.0427856
-0.010718
0.0128968
0.49868
-0.695109
-1.56647
-0.715193
-2.08533
-1.0997
-0.0636163
-0.0187391
0.0766002
0.0274259
-0.0714907
0.130198
0.107381
-0.166089
-0.8723
0.948726
-0.74378
-0.41099
2.52651
-1.63912
-1.92188
-0.181535
0.00369472
-0.113269
-2.5032
3.42551
0.0570078
-0.162845
-0.376658
-0.531059
1.67318
-3.26834
2.12621
2.56962
1.04652
-1.02798
0.282191
-0.30074
0.687948
-0.746811
0.240211
-2.39572
-0.386464
0.837206
-0.650888
2.18899
0.902292
-3.62233
-0.355885
0.0642481
-0.0895672
-1.10691
-3.81462
1.69453
-1.53894
2.63848
1.2237
3.13698
1.76274
-0.107887
0.0152821
0.239487
-0.146883
1.92453
0.610777
-0.795496
0.829156
-1.40135
0.558482
1.50232
-0.659465
4.20977
0.99487
-1.91539
-3.28925
-0.96695
-0.0595625
-2.05343
2.21985
3.07013
-2.95692
-0.1081
0.241959
1.25631
2.3222
2.06882
-2.06181
1.65751
-1.87974
-2.51883
-0.30373
2.4718
-2.48525
1.59422
-1.01774
1.90877
-2.61316
-3.19782
-0.0643607
-2.10467
0.262681
-0.476998
-0.576529
0.0143216
-0.00819545
-0.000598972
-0.00552727
0.0817794
0.684876
2.88379
-2.78513
0.803639
-1.27426
-0.656449
-0.589635
-0.451902
0.385111
-0.290714
0.3575
-1.90825
-0.344972
-0.0959944
0.135724
0.0234887
-3.20967
-0.89273
-1.85375
0.929505
0.0974374
-0.0696276
-0.654219
-1.09706
1.96972
-2.3706
1.72088
2.06168
2.4022
2.14471
-1.63154
0.136143
0.0622064
-0.138929
-0.0549805
-0.008723
1.07002
-0.722772
0.595239
-0.843298
1.7665
-2.07712
-0.711757
0.810495
-0.913555
-0.572853
-0.13091
1.64483
1.09644
0.099589
0.0479245
-0.157333
-2.11111
1.79477
0.157879
-0.811419
0.988956
-1.3864
1.99393
-0.4236
-0.477404
0.0203216
0.100677
-0.0802019
2.70815
-0.236739
0.0838551
-0.203002
1.89661
0.964165
2.87336
-0.00357353
0.0269063
-0.342759
0.968795
0.00032248
1.31567
0.134783
-0.110273
-0.155146
0.130636
-0.0545212
0.05147
-0.0605119
0.061194
-0.102211
-0.054977
0.528916
-0.493364
0.349556
0.318761
-0.0394266
-0.222328
0.481049
0.54307
-0.942352
-0.0299088
-0.0804481
0.136066
-0.0257096
1.84973
0.0534536
-0.0581712
0.00471756
-0.749016
-0.58069
2.25318
-3.12528
0.560246
0.744412
0.258235
-0.292511
-0.256441
-1.92781
-0.00106763
0.773801
-3.59355
-0.0349905
0.0457228
0.0105832
-0.0213154
-0.11438
-3.59236
-0.0834836
-0.0190099
0.0725846
-2.61155
-0.339309
-1.91125
3.62376
-1.81238
-0.0311873
-0.12151
0.0722489
0.185583
-0.255783
0.204983
-0.0269402
-0.0630217
0.0390177
-0.640469
1.68699
-0.878501
1.5461
0.920752
-0.700359
0.0202236
-0.035146
0.0149225
-1.1721
-0.667504
0.0338769
-0.0485345
0.0146576
1.24099
-2.72936
0.665444
0.901335
-0.430304
0.591884
0.0293313
0.00454567
0.340964
-0.159043
-0.158654
0.270826
0.171452
-0.0793968
1.42666
-0.425167
-0.594229
2.81001
0.152823
-0.0642024
0.0475229
-0.203436
0.15732
-0.742564
0.982148
-1.76098
-0.38967
1.46798
-0.405941
2.64232
0.0463042
0.00516561
0.202099
-2.00975
1.05273
-0.584286
-1.68994
0.983902
0.415712
0.251784
-1.55583
1.38482
-0.150093
-0.0388251
0.0786443
3.34498
-0.0743578
0.0401965
0.101542
-0.0988402
-0.131479
0.19207
-0.681551
0.161993
-0.00594692
-0.097941
0.0349619
0.0379165
-0.0728784
-0.0910597
-1.82258
2.97711
-0.298122
0.402201
0.194591
-1.39148
0.0100463
0.0101772
-0.818234
-3.11461
0.242436
0.0379138
0.107666
-0.105384
-0.263886
-0.138641
0.00873442
-0.691716
-0.432964
-2.75538
-1.42231
-0.0135727
0.128751
0.118441
-0.205474
-0.924677
-0.0238561
0.00322938
-0.0289148
0.0642205
0.146449
-0.148463
-0.230597
-1.89502
-2.25709
0.0423137
0.00399038
0.155572
-1.39779
0.00953203
1.15815
0.0362044
-0.00409867
0.0610608
0.088097
-0.111244
0.431913
0.0987547
0.0386734
0.0425469
-0.0548295
-0.0189305
0.0131158
-0.141962
0.21036
-0.122521
-0.0159749
0.0178258
0.0428859
-0.000572258
-0.00464993
0.00405093
0.0829078
0.0165034
0.00114962
-0.00706987
-0.157363
1.4807
-1.06638
1.01323
0.0357715
-0.116673
-0.0034766
0.218425
-0.296363
-0.439527
0.752673
0.440736
-1.02609
-0.774766
-0.0248514
0.0347012
-0.0401686
0.0163563
-0.0626145
-0.0244095
0.023357
-0.00960385
0.000517068
0.0423688
0.0183662
-0.0500141
1.62659
-0.0102216
0.0336458
-1.27739
0.383191
-1.45872
-0.51072
-0.0469405
0.00511248
-0.00858911
-0.0296641
0.0142748
-0.0408378
0.0510402
-0.0074395
0.451165
-0.613661
-0.831605
0.604702
-0.0689673
-1.03818
-0.307683
-0.0800114
-0.0371491
-1.02853
-0.612589
-0.0145094
-0.0534838
0.0229279
0.100343
-0.305701
0.0363927
0.0186378
-0.0358247
1.38413
-0.0141937
0.0312139
-0.0151618
-0.170397
2.24989
0.255018
-0.23599
-0.546709
-0.17555
-0.642262
-0.00498626
0.134229
-0.129243
-0.010003
0.14306
-0.138043
-0.015569
0.155891
-0.150325
-0.0218132
0.166024
-0.159779
-0.0285579
0.175276
-0.168531
-0.0359067
0.183201
-0.175852
-0.0437273
0.190596
-0.182776
-0.052117
0.197467
-0.189077
0.204215
-0.19592
-0.0604117
-0.00451629
0.138745
-0.00913385
0.147678
-0.0140152
0.160772
-0.0194504
0.171459
-0.0252616
0.181087
-0.0315802
0.189519
-0.0383015
0.197318
-0.0454183
0.204584
0.211519
-0.0527227
-0.00420922
0.142954
-0.00834117
0.15181
-0.0126331
0.165064
-0.0172947
0.176121
-0.0222727
0.186065
-0.0276354
0.194882
-0.0333163
0.202999
-0.0392701
0.210538
0.217651
-0.0454018
-0.00390822
0.146862
-0.00756836
0.15547
-0.0112715
0.168767
-0.0152
0.180049
-0.0193816
0.190246
-0.0238607
0.199361
-0.0285945
0.207732
-0.0335525
0.215496
0.22281
-0.0387116
-0.00359429
0.150457
-0.0067388
0.158614
-0.00982707
0.171855
-0.0130422
0.183264
-0.0164455
0.19365
-0.0200866
0.203002
-0.023957
0.211603
-0.0280467
0.219586
0.227118
-0.0323548
-0.00317795
0.153635
-0.00577464
0.161211
-0.00823173
0.174313
-0.0107347
0.185767
-0.013374
0.196289
-0.0162082
0.205837
-0.0192384
0.214633
-0.0224734
0.222821
0.230579
-0.0259344
-0.00251993
0.156155
-0.00458257
0.163274
-0.00641637
0.176146
-0.00823111
0.187582
-0.0101204
0.198178
-0.0121561
0.207872
-0.0143719
0.216849
-0.0167777
0.225226
0.233207
-0.0194057
-0.00162649
0.157781
-0.00317887
0.164826
-0.00439668
0.177364
-0.00551848
0.188704
-0.006669
0.199329
-0.00793226
0.209136
-0.00934492
0.218262
-0.0109365
0.226818
0.234954
-0.012683
-0.000676418
0.158458
-0.00166751
0.165817
-0.00223082
0.177928
-0.00265442
0.189128
-0.00306955
0.199744
-0.00356248
0.209629
-0.00419767
0.218897
-0.0049984
0.227619
0.235962
-0.00600639
0.000191156
0.158266
-0.000152954
0.166161
9.33216e-06
0.177765
0.000316309
0.188821
0.000644098
0.199416
0.000887721
0.209385
0.000998684
0.218786
0.000929059
0.227688
0.236227
0.000664061
0.000925421
0.157341
0.00135929
0.165727
0.00232179
0.176803
0.00336499
0.187777
0.00441122
0.19837
0.00535928
0.208437
0.00617547
0.21797
0.00680607
0.227058
0.23582
0.00721287
0.00165206
0.155689
0.00301366
0.164366
0.00476358
0.175053
0.00649659
0.186044
0.00818383
0.196683
0.00978577
0.206835
0.0112513
0.216504
0.0125633
0.225746
0.234777
0.0136067
0.00276392
0.152925
0.00504526
0.162084
0.00740373
0.172694
0.00967912
0.183769
0.0119034
0.194458
0.014044
0.204694
0.0160773
0.214471
0.0179615
0.223861
0.233054
0.0196837
0.00419123
0.148734
0.00725553
0.15902
0.010081
0.169869
0.0127851
0.181065
0.0154367
0.191807
0.0180139
0.202117
0.0205045
0.21198
0.0228684
0.221497
0.230839
0.025084
0.00548114
0.143253
0.00925408
0.155247
0.0125128
0.16661
0.0155833
0.177994
0.0185923
0.188798
0.0215511
0.199158
0.0244399
0.209091
0.0272131
0.218724
0.228206
0.0298455
0.0063205
0.136932
0.0107104
0.150857
0.0143853
0.162935
0.0178266
0.174553
0.021193
0.185431
0.0245133
0.195838
0.0277774
0.205827
0.0309511
0.215551
0.22514
0.0340171
0.00628521
0.130647
0.0112981
0.145844
0.0154373
0.158796
0.0193179
0.170673
0.023093
0.181656
0.0268112
0.192119
0.0304614
0.202177
0.0340358
0.211976
0.221706
0.0374698
0.00539541
0.125251
0.0108719
0.140368
0.0155853
0.154083
0.0199952
0.166263
0.0242476
0.177404
0.02841
0.187957
0.032498
0.198089
0.0365044
0.20797
0.217818
0.0403929
0.0044278
0.120824
0.00997609
0.13482
0.0151258
0.148933
0.0200317
0.161357
0.0247696
0.172666
0.029405
0.183321
0.0339641
0.19353
0.0384669
0.203467
0.213358
0.0429271
0.00378465
0.117039
0.0091197
0.129484
0.0144537
0.143599
0.0197095
0.156101
0.0248515
0.167524
0.0299167
0.178256
0.0349242
0.188522
0.0398825
0.198509
0.20845
0.0447903
0.00342121
0.113618
0.00847028
0.124435
0.0138091
0.13826
0.0192583
0.150652
0.0246992
0.162082
0.0301307
0.172825
0.0355593
0.183093
0.0409829
0.193085
0.203057
0.0463755
0.0032321
0.110386
0.00805731
0.11961
0.0133246
0.132993
0.0188429
0.145133
0.0244784
0.156447
0.0302024
0.167101
0.036001
0.177295
0.0418559
0.18723
0.197115
0.0477982
0.00334135
0.107044
0.00797287
0.114979
0.0131083
0.127857
0.0185921
0.139649
0.0243361
0.150703
0.0302991
0.161137
0.0364545
0.171139
0.0427208
0.180964
0.190786
0.0490498
0.00410571
0.102938
0.00836437
0.11072
0.0132306
0.122991
0.0185957
0.134284
0.0243934
0.144905
0.0305662
0.154965
0.0371097
0.164596
0.0437918
0.174282
0.184754
0.0498231
0.00499727
0.00875154
0.0134497
0.0188463
0.0248217
0.0313234
0.038556
0.0467492
0.0559534
-0.127396
-0.000633494
0.12803
-0.126641
-0.000755744
-0.125732
-0.000908785
-0.124619
-0.00111236
-0.123258
-0.00136152
-0.121599
-0.00165883
-0.119592
-0.0020069
-0.117187
-0.0024051
-0.114327
-0.0028599
-0.110969
-0.00335843
-0.107072
-0.00389729
-0.102608
-0.00446369
-0.0975628
-0.00504513
-0.0919277
-0.00563509
-0.0857118
-0.00621588
-0.0789357
-0.00677611
-0.0716689
-0.00726667
-0.064031
-0.00763802
-0.056161
-0.00786987
-0.0481895
-0.00797161
-0.0402454
-0.00794389
-0.0324628
-0.00778275
-0.0249791
-0.00748344
-0.0179533
-0.00702582
-0.0115124
-0.00644076
-0.00556167
-0.0059507
0.000130537
-0.005692
0.00576663
-0.00563609
0.0115769
-0.00581009
0.0176428
-0.00606581
0.0238568
-0.00621376
0.0301148
-0.00625803
0.0363558
-0.00624067
0.0425455
-0.00618962
0.0486501
-0.00610438
0.0546356
-0.00598548
0.0604709
-0.00583512
0.0661244
-0.00565345
0.0715695
-0.00544489
0.0767811
-0.00521156
0.0817427
-0.00496139
0.0864396
-0.00469694
0.0908582
-0.00441837
0.0949914
-0.00413314
0.0988328
-0.00384126
0.102388
-0.0035552
0.105662
-0.00327395
0.108672
-0.00300935
0.111432
-0.00275989
0.113961
-0.00252891
0.11628
-0.00231983
0.118408
-0.0021272
0.120365
-0.00195732
0.122165
-0.00179964
0.123821
-0.00165658
0.125348
-0.00152705
0.126754
-0.0014054
0.128052
-0.00129821
-0.00119035
-0.12396
-0.00230286
0.125629
-0.122106
-0.00260964
-0.120042
-0.00297243
-0.117751
-0.00340379
-0.115221
-0.00389086
-0.112434
-0.00444588
-0.109381
-0.0050606
-0.106046
-0.00574008
-0.102425
-0.00648048
-0.0985137
-0.00727019
-0.0943066
-0.00810446
-0.0898027
-0.00896756
-0.0849993
-0.00984859
-0.0799088
-0.0107256
-0.074546
-0.0115787
-0.068946
-0.0123762
-0.0631538
-0.0130588
-0.0571971
-0.0135948
-0.0510822
-0.0139847
-0.0448248
-0.0142291
-0.0384452
-0.0143234
-0.0319604
-0.0142676
-0.0253744
-0.0140693
-0.0186439
-0.0137564
-0.0116876
-0.0133969
-0.00452829
-0.0131101
0.00270233
-0.0129225
0.0098995
-0.0128333
0.0169294
-0.0128399
0.0237735
-0.0129098
0.0305102
-0.0129503
0.0371766
-0.0129245
0.0437665
-0.0128304
0.0502599
-0.0126829
0.0566322
-0.0124766
0.0628612
-0.0122145
0.0689201
-0.0118939
0.0747874
-0.0115207
0.0804365
-0.0110938
0.0858431
-0.0106181
0.0909799
-0.010098
0.0958198
-0.00953679
0.10035
-0.00894861
0.104558
-0.00834096
0.108442
-0.00772547
0.112009
-0.00712232
0.115276
-0.00653996
0.118254
-0.00598753
0.120971
-0.00547727
0.12345
-0.00500787
0.125716
-0.00458541
0.127789
-0.00420025
0.129683
-0.00385181
0.131418
-0.00353386
0.132999
-0.0032381
0.134445
-0.00297256
0.135759
-0.00272005
0.136954
-0.00249281
-0.00227978
-0.132262
-0.00427345
0.134232
-0.13007
-0.00480131
-0.127639
-0.00540397
-0.124959
-0.00608338
-0.122007
-0.00684246
-0.118772
-0.00768098
-0.115244
-0.00858938
-0.111422
-0.00956142
-0.107309
-0.0105937
-0.10291
-0.0116691
-0.0982365
-0.0127782
-0.0933032
-0.0139009
-0.0881298
-0.0150219
-0.0827379
-0.0161175
-0.0771535
-0.0171631
-0.0714054
-0.0181243
-0.0654861
-0.0189781
-0.0593785
-0.0197024
-0.0530706
-0.0202926
-0.0465633
-0.0207364
-0.0398572
-0.0210294
-0.0329539
-0.021171
-0.0258464
-0.0211769
-0.0185266
-0.0210762
-0.0110118
-0.0209117
-0.00338135
-0.0207405
0.00429174
-0.0205955
0.0119479
-0.0204895
0.0195253
-0.0204173
0.0269685
-0.020353
0.0342742
-0.0202559
0.0414487
-0.0200991
0.0484902
-0.0198718
0.055377
-0.0195698
0.0620927
-0.0191922
0.0686167
-0.0187384
0.0749279
-0.0182052
0.0810064
-0.0175992
0.0868333
-0.0169206
0.0923858
-0.0161706
0.0976508
-0.015363
0.102619
-0.0145048
0.107285
-0.0136153
0.111651
-0.0127067
0.115732
-0.0118067
0.119536
-0.0109258
0.12308
-0.0100843
0.126383
-0.00929059
0.129459
-0.0085526
0.132325
-0.00787404
0.134999
-0.00725985
0.137492
-0.00669325
0.139812
-0.00617139
0.14196
-0.00568198
0.143943
-0.00522139
0.145763
-0.00479217
0.147432
-0.00438968
0.14895
-0.00401043
-0.00365441
-0.137607
-0.00640018
0.139734
-0.135265
-0.00714316
-0.132681
-0.00798878
-0.129834
-0.00892993
-0.126711
-0.00996515
-0.1233
-0.0110925
-0.119593
-0.012296
-0.115585
-0.01357
-0.111285
-0.0148939
-0.106701
-0.0162522
-0.101851
-0.0176286
-0.0967435
-0.0190085
-0.0914012
-0.0203642
-0.0858351
-0.0216836
-0.0800625
-0.0229356
-0.0740804
-0.0241064
-0.0678873
-0.0251713
-0.0614779
-0.0261118
-0.0548517
-0.0269187
-0.0480078
-0.0275804
-0.0409417
-0.0280954
-0.0336484
-0.0284644
-0.0261258
-0.0286995
-0.0183843
-0.0288178
-0.0104481
-0.0288478
-0.00236733
-0.0288214
0.00579187
-0.0287547
0.0139611
-0.0286588
0.0220747
-0.0285308
0.0300795
-0.0283579
0.0379433
-0.0281197
0.0456447
-0.0278006
0.0531627
-0.0273898
0.0604771
-0.0268842
0.0675626
-0.0262777
0.0744012
-0.025577
0.0809753
-0.0247793
0.0872607
-0.0238846
0.0932447
-0.0229046
0.0989223
-0.0218483
0.10429
-0.0207306
0.109351
-0.0195663
0.114116
-0.0183797
0.118598
-0.0171892
0.12281
-0.0160179
0.126774
-0.01489
0.1305
-0.0138103
0.134007
-0.012798
0.1373
-0.0118458
0.140397
-0.0109706
0.143297
-0.0101596
0.146001
-0.00939745
0.148505
-0.00867601
0.150822
-0.00799905
0.152957
-0.00735536
0.154914
-0.00674927
0.156698
-0.00617373
0.158315
-0.00562754
-0.00511898
-0.146065
-0.00865261
0.148318
-0.143577
-0.00963141
-0.14084
-0.0107256
-0.137835
-0.0119356
-0.134543
-0.0132565
-0.130956
-0.0146797
-0.12706
-0.0161921
-0.122859
-0.0177709
-0.118352
-0.0194007
-0.113545
-0.0210592
-0.108448
-0.022726
-0.103072
-0.0243844
-0.0974291
-0.026007
-0.0915342
-0.0275785
-0.0853915
-0.0290783
-0.0790103
-0.0304876
-0.0723939
-0.0317877
-0.0655399
-0.0329658
-0.0584521
-0.0340065
-0.0511253
-0.0349072
-0.043563
-0.0356577
-0.0357655
-0.0362619
-0.0277408
-0.0367242
-0.0195044
-0.0370542
-0.0110877
-0.0372646
-0.00253816
-0.0373709
0.00608914
-0.037382
0.0147342
-0.0373039
0.0233359
-0.0371325
0.0318372
-0.0368592
0.0401898
-0.0364723
0.0483514
-0.0359622
0.0562841
-0.0353226
0.0639583
-0.0345585
0.0713495
-0.0336689
0.0784308
-0.0326584
0.0851889
-0.0315375
0.0916184
-0.0303141
0.0977176
-0.0290038
0.103497
-0.0276275
0.108963
-0.0261974
0.114142
-0.0247449
0.119048
-0.0232857
0.123705
-0.0218461
0.128131
-0.020444
0.132335
-0.0190946
0.136335
-0.0178095
0.14013
-0.0165937
0.143728
-0.0154436
0.14712
-0.0143628
0.150301
-0.0133404
0.153271
-0.0123677
0.156039
-0.0114434
0.158598
-0.0105589
0.160961
-0.00971754
0.163127
-0.00891587
0.165106
-0.00815241
0.166906
-0.00742796
-0.00674352
-0.152836
-0.0109777
0.155161
-0.150284
-0.0121833
-0.147491
-0.0135183
-0.144436
-0.0149903
-0.1411
-0.0165924
-0.137478
-0.0183023
-0.133557
-0.0201132
-0.129331
-0.0219969
-0.124797
-0.0239348
-0.119958
-0.0258975
-0.114816
-0.0278681
-0.109377
-0.0298241
-0.10364
-0.0317431
-0.0976125
-0.0336065
-0.0912982
-0.0353926
-0.0846994
-0.0370864
-0.0778165
-0.0386706
-0.0706559
-0.0401264
-0.0632141
-0.0414482
-0.0554958
-0.0426256
-0.0475017
-0.0436518
-0.0392429
-0.0445208
-0.0307321
-0.045235
-0.0219944
-0.045792
-0.0130653
-0.0461937
-0.00399241
-0.0464439
0.00516844
-0.0465429
0.0143564
-0.0464919
0.0235068
-0.0462829
0.0325546
-0.045907
0.0414391
-0.0453569
0.0500996
-0.0446228
0.0584863
-0.0437093
0.0665597
-0.0426319
0.0742851
-0.0413944
0.0816463
-0.0400196
0.0886346
-0.0385258
0.0952461
-0.0369257
0.1015
-0.0352582
0.107418
-0.0335449
0.11303
-0.0318098
0.118362
-0.0300765
0.123445
-0.0283686
0.128297
-0.0266982
0.132937
-0.0250841
0.137372
-0.0235303
0.141605
-0.0220419
0.145632
-0.0206208
0.149452
-0.0192636
0.153057
-0.0179676
0.156446
-0.0167299
0.159616
-0.0155372
0.162564
-0.0143922
0.165295
-0.0132893
0.167812
-0.0122343
0.170114
-0.0112184
0.172214
-0.010252
0.174125
-0.00933914
-0.00847069
-0.161158
-0.0133863
0.163567
-0.158522
-0.0148195
-0.155643
-0.016397
-0.152508
-0.0181257
-0.149104
-0.0199964
-0.145416
-0.02199
-0.141438
-0.0240914
-0.137161
-0.0262746
-0.132585
-0.0285099
-0.127701
-0.030782
-0.122508
-0.0330607
-0.117004
-0.0353282
-0.111182
-0.0375653
-0.10504
-0.039749
-0.0985736
-0.0418585
-0.0917839
-0.0438761
-0.0846641
-0.0457904
-0.0772251
-0.0475654
-0.0694611
-0.0492122
-0.0613798
-0.0507069
-0.0529813
-0.0520503
-0.044281
-0.0532211
-0.0352979
-0.0542181
-0.0260578
-0.0550321
-0.016609
-0.0556425
-0.00699989
-0.056053
0.00270588
-0.0562487
0.0124469
-0.0562329
0.0221531
-0.0559892
0.0317505
-0.0555044
0.041169
-0.0547754
0.0503243
-0.0537781
0.0591553
-0.0525403
0.0676162
-0.0510929
0.0756676
-0.0494459
0.083304
-0.047656
0.0905262
-0.045748
0.0973321
-0.0437316
0.103765
-0.0416915
0.109861
-0.0396402
0.115663
-0.0376125
0.121204
-0.0356175
0.126518
-0.0336828
0.131624
-0.0318039
0.13654
-0.03
0.141266
-0.0282563
0.145799
-0.0265748
0.150126
-0.0249481
0.154242
-0.0233796
0.158138
-0.021864
0.161802
-0.0203934
0.165236
-0.0189717
0.16843
-0.0175856
0.171384
-0.0162437
0.1741
-0.0149505
0.176588
-0.0137062
0.178856
-0.0125201
0.180914
-0.0113974
-0.010332
-0.169393
-0.0158315
0.171838
-0.166742
-0.0174702
-0.163867
-0.0192722
-0.160742
-0.0212502
-0.157363
-0.0233763
-0.15371
-0.0256424
-0.149788
-0.028014
-0.145578
-0.0304846
-0.141064
-0.033023
-0.136255
-0.0355911
-0.131127
-0.0381888
-0.125664
-0.040791
-0.119859
-0.0433702
-0.113693
-0.0459156
-0.107157
-0.0483943
-0.100239
-0.0507938
-0.0929379
-0.0530918
-0.085278
-0.0552252
-0.0772508
-0.0572394
-0.0688546
-0.0591031
-0.0600851
-0.0608198
-0.0509687
-0.0623376
-0.0415314
-0.0636554
-0.0317782
-0.0647853
-0.0218027
-0.065618
-0.0116432
-0.0662124
-0.00138877
-0.0665031
0.00891614
-0.0665379
0.0191861
-0.0662592
0.0293435
-0.0656618
0.0393223
-0.0647542
0.0489857
-0.0634416
0.0582687
-0.0618233
0.0671505
-0.0599748
0.0755489
-0.0578443
0.083509
-0.0556162
0.0910538
-0.0532929
0.0981219
-0.0507998
0.104814
-0.0483836
0.111181
-0.0460072
0.117267
-0.0436984
0.123119
-0.0414698
0.128747
-0.0393108
0.134185
-0.0372414
0.13947
-0.0352857
0.144556
-0.0333417
0.149463
-0.0314819
0.15415
-0.0296358
0.158581
-0.0278101
0.162761
-0.0260441
0.166691
-0.0243232
0.170367
-0.0226483
0.173783
-0.0210009
0.176937
-0.0193986
0.179837
-0.0178503
0.18249
-0.0163593
0.1849
-0.0149294
0.187088
-0.0135858
-0.0123216
-0.179241
0.181655
-0.0182452
-0.176584
-0.0201276
-0.173698
-0.0221578
-0.170567
-0.0243816
-0.167205
-0.0267375
-0.163592
-0.029256
-0.15971
-0.0318961
-0.155581
-0.0346133
-0.151181
-0.0374232
-0.14641
-0.0403624
-0.14136
-0.0432381
-0.135948
-0.0462034
-0.130121
-0.0491975
-0.12394
-0.0520967
-0.117301
-0.0550327
-0.110315
-0.0577804
-0.102874
-0.0605321
-0.0949544
-0.0631451
-0.0865926
-0.0656012
-0.0778633
-0.0678324
-0.0687236
-0.0699595
-0.0592603
-0.0718009
-0.0494174
-0.0734982
-0.0391648
-0.075038
-0.0286731
-0.0761098
-0.0179815
-0.0769041
-0.00723352
-0.0772511
0.0036213
-0.0773927
0.0144477
-0.0770857
0.0250552
-0.0762693
0.0355478
-0.0752469
0.0456613
-0.0735551
0.0553398
-0.0715018
0.0646382
-0.0692732
0.0734189
-0.0666251
0.0817287
-0.063926
0.0895338
-0.061098
0.0968815
-0.0581476
0.103998
-0.0555001
0.11075
-0.0527597
0.117239
-0.0501867
0.123552
-0.0477836
0.129641
-0.0453998
0.135585
-0.043185
0.141349
-0.0410502
0.146916
-0.0389088
0.152287
-0.0368529
0.157357
-0.0347058
0.162287
-0.0327397
0.166964
-0.0307209
0.171349
-0.028708
0.175428
-0.0267276
0.179191
-0.0247637
0.182708
-0.0229163
0.185929
-0.0210706
0.188857
-0.0192881
0.191488
-0.0175595
0.193835
-0.015933
-0.0144065
-0.081598
0.00871945
-0.0889847
0.00738657
-0.0952922
0.00630743
-0.100995
0.00570291
-0.10646
0.00546493
-0.11187
0.00540965
-0.117518
0.00564845
-0.123624
0.00610589
-0.129991
0.00636687
-0.135921
0.00592996
-0.140599
0.00467728
-0.143509
0.00291037
-0.144629
0.00111992
-0.144453
-0.000176452
-0.143758
-0.000694326
-0.143054
-0.000704453
-0.142464
-0.000590236
-0.141902
-0.00056196
-0.141192
-0.000709516
-0.140085
-0.00110696
-0.138294
-0.00179088
-0.135722
-0.00257225
-0.132747
-0.00297583
-0.130148
-0.00259886
-0.00211783
-0.0866184
0.016247
-0.0940561
0.0148242
-0.101207
0.0134582
-0.108058
0.0125539
-0.114677
0.0120844
-0.121154
0.0118863
-0.12742
0.0119142
-0.133278
0.0119641
-0.138505
0.0115934
-0.142959
0.0103838
-0.146682
0.0084002
-0.149723
0.00595137
-0.152051
0.00344853
-0.153555
0.00132726
-0.154156
-9.31181e-05
-0.153954
-0.000907053
-0.15312
-0.00142399
-0.151768
-0.00191398
-0.149946
-0.00253084
-0.147676
-0.00337778
-0.144993
-0.00447351
-0.14185
-0.00571527
-0.137953
-0.00687347
-0.132677
-0.00787418
-0.0091661
-0.0946248
0.0250783
-0.103022
0.0232211
-0.111045
0.0214815
-0.118648
0.0201566
-0.125797
0.0192338
-0.132494
0.0185832
-0.138642
0.0180614
-0.144102
0.0174245
-0.148833
0.0163241
-0.152961
0.0145122
-0.156596
0.0120346
-0.159782
0.00913821
-0.162509
0.00617554
-0.164661
0.00347934
-0.166046
0.00129126
-0.16655
-0.0004026
-0.166195
-0.0017789
-0.165049
-0.00305995
-0.163173
-0.00440767
-0.160605
-0.00594533
-0.157362
-0.00771635
-0.153374
-0.0097035
-0.148417
-0.0118306
-0.142129
-0.0141618
-0.017063
-0.102182
0.0348892
-0.111365
0.0324041
-0.120048
0.0301643
-0.128208
0.0283168
-0.135801
0.0268264
-0.142784
0.025566
-0.149084
0.0243617
-0.154643
0.0229839
-0.15949
0.0211701
-0.163741
0.0187637
-0.167513
0.0158064
-0.170859
0.0124839
-0.173743
0.0090604
-0.176063
0.00579938
-0.17764
0.00286804
-0.178343
0.000300333
-0.178108
-0.00201378
-0.176939
-0.00422961
-0.174843
-0.00650318
-0.171843
-0.00894505
-0.167904
-0.0116561
-0.162927
-0.0146806
-0.156701
-0.0180561
-0.148984
-0.0218791
-0.0263127
-0.109421
0.0454697
-0.119344
0.0423277
-0.128642
0.0394622
-0.137309
0.0369836
-0.145311
0.0348279
-0.152619
0.0328739
-0.159196
0.0309392
-0.165029
0.0288165
-0.170164
0.0263048
-0.17469
0.0232904
-0.178694
0.0198105
-0.182212
0.016002
-0.1852
0.0120484
-0.187562
0.00816051
-0.189169
0.00447502
-0.189884
0.00101568
-0.189623
-0.00227453
-0.188355
-0.00549785
-0.186056
-0.00880163
-0.182706
-0.0122956
-0.178266
-0.0160958
-0.172674
-0.020273
-0.165849
-0.0248805
-0.157739
-0.0299897
-0.0357338
-0.116458
0.0565438
-0.127011
0.052881
-0.136875
0.0493265
-0.146037
0.0461451
-0.154469
0.0432602
-0.162163
0.0405673
-0.169098
0.0378745
-0.175286
0.035004
-0.180776
0.0317957
-0.185626
0.0281397
-0.189897
0.0240814
-0.193595
0.0196998
-0.196681
0.0151352
-0.199072
0.010551
-0.200637
0.00604001
-0.201277
0.0016556
-0.200907
-0.0026443
-0.199451
-0.00695393
-0.19687
-0.0113828
-0.193108
-0.016057
-0.188127
-0.0210775
-0.181868
-0.0265321
-0.174286
-0.0324622
-0.16536
-0.038916
-0.0459329
-0.123116
0.0684164
-0.134376
0.0641402
-0.144823
0.0597735
-0.154493
0.0558156
-0.163383
0.0521502
-0.171502
0.0486864
-0.178834
0.0452063
-0.185411
0.0415805
-0.191273
0.0376583
-0.196462
0.0333281
-0.201014
0.0286341
-0.204922
0.0236077
-0.208127
0.0183395
-0.210543
0.012967
-0.212079
0.00757616
-0.212632
0.00220876
-0.212115
-0.00316136
-0.210457
-0.008612
-0.207591
-0.0142486
-0.203475
-0.020173
-0.19806
-0.026492
-0.191334
-0.0332587
-0.183291
-0.0405048
-0.173995
-0.0482121
-0.0563613
-0.129567
0.0813109
-0.141578
0.0761511
-0.152583
0.0707783
-0.162765
0.0659977
-0.172121
0.0615063
-0.180688
0.0572528
-0.188434
0.0529525
-0.1954
0.0485467
-0.201654
0.0439123
-0.20718
0.038854
-0.212017
0.0334714
-0.216159
0.0277494
-0.219498
0.0216783
-0.221975
0.0154443
-0.223489
0.00908992
-0.223952
0.00267148
-0.223288
-0.00382525
-0.221419
-0.0104806
-0.218276
-0.0173918
-0.213822
-0.0246262
-0.208021
-0.0322936
-0.200882
-0.0403975
-0.192405
-0.0489822
-0.182678
-0.0579392
-0.0672011
-0.136339
0.0951291
-0.148853
0.0886646
-0.160247
0.0821729
-0.170892
0.0766421
-0.18071
0.0713242
-0.18976
0.066303
-0.197932
0.061124
-0.205297
0.0559126
-0.211932
0.0505466
-0.217806
0.0447279
-0.22292
0.0385854
-0.227266
0.0320955
-0.23079
0.0252021
-0.233359
0.0180135
-0.234856
0.010587
-0.235252
0.00306814
-0.234442
-0.00463542
-0.232393
-0.0125301
-0.228968
-0.0208161
-0.22417
-0.0294243
-0.218056
-0.0384083
-0.21063
-0.0478229
-0.201896
-0.0577169
-0.192121
-0.0677137
-0.0776675
0.935105
-0.120155
0.249653
-0.129453
-0.905802
0.776992
0.128809
0.295772
-0.376442
0.0806699
0.361862
-0.41173
0.0498673
0.0561585
-0.527693
0.471534
-0.406466
0.700265
-0.293799
0.427982
-0.167993
-0.259984
-0.0563867
-0.202134
0.25852
3.80128
-2.42782
-1.37346
-0.748844
1.56173
-0.812884
-0.788723
0.217316
0.571404
0.806139
-1.48397
0.677829
-0.42467
-0.523831
0.948498
0.135232
-0.137368
0.00213529
1.39506
-1.2517
-0.143345
-0.69647
-0.209332
0.138563
-0.0187979
-0.119765
0.182998
0.226226
0.0787765
0.14938
-0.228157
-0.374716
0.219016
0.1557
1.64918
0.518864
-2.16804
-0.416772
0.797727
-0.380955
1.12891
-0.880215
-0.248694
-0.850721
0.219503
0.631218
0.977214
0.151695
-1.07733
0.483993
0.593335
-0.595749
0.0320003
0.563749
1.72777
-1.09115
-0.636623
-0.0405194
-0.149759
0.190278
0.352014
0.383401
-0.735415
0.969878
-1.65739
0.687615
0.537192
0.739832
-1.27703
0.936711
-1.96411
1.02739
-0.303279
-0.0663771
0.369656
0.604005
0.868414
-1.47242
-0.925285
0.500618
-2.28674
0.545413
1.74133
-0.34811
0.67242
-0.32431
0.44054
0.23812
-0.678659