/*--------------------------------*- C++ -*----------------------------------*\
  =========                 |
  \\      /  F ield         | OpenFOAM: The Open Source CFD Toolbox
   \\    /   O peration     | Website:  https://openfoam.org
    \\  /    A nd           | Version:  10
     \\/     M anipulation  |
\*---------------------------------------------------------------------------*/
FoamFile
{
    format      ascii;
    class       volVectorField;
    location    "400";
    object      U;
}
// * * * * * * * * * * * * * * * * * * * * * * * * * * * * * * * * * * * * * //

dimensions      [0 1 -1 0 0 0 0];

internalField   nonuniform List<vector> 
10435
(
(1.43595 0.0776341 8.40863e-24)
(1.42464 0.301852 1.4647e-22)
(3.05487 -0.240192 -6.34872e-21)
(1.78159 0.00980472 2.28468e-21)
(2.06404 0.281656 -3.60192e-21)
(2.61023 0.270492 2.12492e-20)
(3.08375 -0.249665 -2.33194e-20)
(3.19926 -0.210776 1.67456e-20)
(3.23155 -0.261592 7.36989e-20)
(2.88912 -0.0219054 -1.05898e-20)
(1.55004 0.292265 -7.04727e-22)
(2.36308 -0.205317 1.30612e-20)
(2.89431 -0.314007 1.68605e-20)
(0.864926 0.1373 4.0315e-21)
(0.950121 0.147001 5.75962e-21)
(3.14616 -0.226802 -2.38527e-21)
(0.785558 0.122576 -1.29788e-21)
(2.83306 -0.200597 5.17075e-20)
(3.19104 -0.332016 -3.17176e-20)
(1.49763 0.0577539 7.69861e-23)
(3.1704 -0.224625 1.09307e-20)
(1.78561 -0.0907852 -3.36797e-21)
(3.11209 -0.211703 6.996e-20)
(2.83061 -0.643061 -1.86107e-20)
(2.95288 -0.07082 1.30593e-20)
(0.226239 0.357353 2.35459e-22)
(0.0615192 0.0211595 6.41128e-22)
(2.98301 -0.282283 1.17256e-20)
(0.269295 -0.122649 -9.77503e-23)
(2.86814 -0.0896698 6.47994e-20)
(2.94134 -0.102575 2.06718e-20)
(1.62535 0.295083 -4.66692e-23)
(3.21732 -0.208815 -3.74559e-20)
(0.511602 -0.121206 -6.43985e-22)
(3.15644 -0.331768 1.83402e-20)
(1.24815 0.369403 -5.37087e-22)
(3.10928 -0.303458 2.58322e-20)
(0.173666 0.19887 -2.15814e-21)
(0.369684 0.351318 8.01031e-23)
(3.09809 -0.487733 9.64108e-21)
(2.78031 0.0459137 -5.21889e-20)
(3.08926 -0.235393 -1.8555e-20)
(0.604885 0.314648 3.37419e-21)
(1.6215 0.0744086 -2.4011e-21)
(3.06618 -0.244153 -4.28623e-20)
(2.96914 -0.608906 3.86848e-20)
(2.71031 0.180205 -2.68516e-20)
(0.451875 0.293768 1.25096e-20)
(3.23514 -0.178118 2.69412e-20)
(1.77313 -0.210204 -2.51871e-21)
(3.19391 -0.228262 -3.08007e-21)
(2.70725 0.102303 1.19503e-19)
(0.415712 0.364917 4.08463e-22)
(0.356278 -0.201349 -6.83401e-23)
(0.322089 0.356754 -1.42738e-22)
(0.216312 -0.146298 2.05576e-22)
(3.04228 -0.397621 -7.58321e-20)
(0.182336 0.119316 -9.26034e-22)
(0.679604 0.01533 1.02776e-21)
(3.08823 -0.450056 4.8755e-20)
(0.367898 0.371654 -2.72067e-22)
(1.36629 0.318369 -2.01876e-22)
(0.207107 0.0171795 1.18585e-21)
(2.52174 0.136156 -5.96744e-21)
(3.0973 -0.214216 -9.08937e-20)
(3.03134 -0.216266 4.64671e-20)
(0.629926 -0.0270106 -1.58619e-21)
(0.371809 0.109042 -4.47332e-21)
(3.17399 -0.213809 -2.10762e-20)
(2.6499 -0.659571 1.98323e-21)
(0.30807 -0.219766 1.71276e-22)
(0.183378 0.304625 -1.33931e-23)
(0.689794 0.415082 -8.73585e-21)
(3.05809 -0.197276 -6.39786e-20)
(1.0389 0.156411 3.66123e-21)
(0.739245 0.365882 -4.3953e-22)
(2.47505 -0.629324 3.93275e-20)
(3.098 -0.244435 5.82976e-20)
(3.23021 -0.190278 4.89868e-21)
(1.07785 0.0694045 -1.65349e-20)
(1.98645 -0.374219 3.59619e-21)
(1.37161 0.0340724 1.87506e-22)
(0.460878 0.375399 -4.35738e-22)
(0.399386 -0.187866 4.73522e-23)
(2.11137 -0.455146 -8.11584e-21)
(1.22851 0.322239 -1.04755e-20)
(1.33647 0.226405 -6.22134e-22)
(1.59641 0.152283 4.36312e-22)
(1.10705 0.274249 1.84762e-21)
(1.4033 0.20638 1.04767e-22)
(1.66926 0.13554 -1.0786e-22)
(1.75865 0.115663 -4.70434e-22)
(1.4311 0.0162017 2.66413e-22)
(1.18509 0.26734 -7.33752e-21)
(1.46701 0.187472 -1.12514e-22)
(1.18243 0.395626 -2.95361e-21)
(1.86132 0.0785753 2.99062e-21)
(0.998027 0.235209 -3.42123e-21)
(0.754564 0.0400548 1.1422e-21)
(1.97487 0.105989 -6.00968e-21)
(1.05061 0.254994 -6.47949e-21)
(2.07341 0.419103 -1.53649e-21)
(1.26242 0.24843 3.02139e-21)
(1.53055 0.169282 2.0093e-22)
(2.20418 0.41281 5.88956e-22)
(1.69589 0.0457406 -4.41647e-22)
(1.48836 -0.00785276 3.17017e-22)
(1.87537 -0.295874 4.2674e-21)
(2.26558 -0.525316 -1.64573e-20)
(1.15874 0.0701779 3.13583e-21)
(1.68665 -0.143482 -1.18327e-21)
(1.95169 0.412059 -6.56271e-22)
(1.30703 0.0492977 3.15501e-21)
(1.23652 0.0629981 3.03235e-21)
(1.85208 0.148167 -3.96389e-22)
(1.70025 -0.0408719 1.12125e-21)
(2.09432 0.0595921 -3.60454e-21)
(1.29891 0.298367 5.4134e-22)
(1.55022 0.225485 -1.10453e-21)
(2.09788 -0.043492 -1.2981e-21)
(2.21666 0.00461015 -1.56225e-20)
(0.764973 0.432724 3.83828e-22)
(1.36291 0.27516 7.60286e-22)
(0.988763 0.474776 1.17565e-20)
(1.62367 0.384006 1.95572e-22)
(0.300098 0.367211 -3.76906e-22)
(1.98353 0.0109872 7.73909e-21)
(0.835791 0.45074 1.11028e-21)
(2.10398 0.163166 -8.59041e-21)
(0.077881 0.230763 2.22936e-22)
(0.911011 0.461069 -4.07904e-21)
(1.53956 0.368513 -1.37869e-21)
(3.17037 -0.236516 -2.82712e-20)
(0.995519 0.0653293 -9.73437e-21)
(0.167741 0.255688 1.3208e-23)
(0.602657 0.398864 7.71179e-24)
(1.12839 0.467282 -7.11025e-21)
(1.88107 -0.0413725 -2.8537e-22)
(1.48665 0.237805 2.76553e-22)
(1.62556 -0.000478171 6.81727e-22)
(1.55914 0.0323378 -2.03865e-22)
(3.01952 -0.166317 -8.76333e-20)
(0.575392 -0.0632512 -2.30495e-21)
(2.60192 -0.0436491 7.3611e-20)
(1.88634 -0.154378 2.42879e-22)
(0.885591 0.327198 -1.2604e-20)
(1.06223 0.480822 2.74934e-21)
(2.56587 0.207686 -3.01116e-20)
(0.748731 0.205074 -5.76503e-21)
(2.59554 -0.156905 5.49907e-21)
(0.39391 0.321951 7.50484e-22)
(3.00556 -0.285727 4.32446e-20)
(1.42765 0.139163 -3.10004e-23)
(2.70833 -0.137867 4.85024e-20)
(2.7428 0.1321 -2.6494e-20)
(0.326346 0.346684 -5.53901e-22)
(1.71622 0.395193 2.73823e-21)
(1.42479 0.25443 -8.41971e-23)
(2.82702 0.0733538 -2.81367e-20)
(1.40418 0.355646 -2.89684e-22)
(2.86673 -0.210343 -1.07379e-20)
(0.916047 0.0594224 2.11193e-21)
(1.70919 0.207179 5.46016e-21)
(2.26338 -0.33698 5.18632e-21)
(1.12938 0.153619 -6.52656e-21)
(2.25471 0.0918078 3.77781e-20)
(3.22667 -0.232932 -6.45004e-20)
(2.11279 -0.158785 -4.57509e-21)
(2.54037 -0.434144 1.85394e-20)
(2.468 0.0675309 -1.13242e-19)
(2.89682 -0.00879034 3.2527e-20)
(0.643728 0.424961 1.31291e-21)
(0.0536133 -0.0487637 -5.18177e-22)
(0.953924 0.325765 -1.67438e-23)
(2.64134 -0.289285 -2.29882e-20)
(1.34768 0.364357 -1.50547e-22)
(1.30842 0.34177 -1.08498e-21)
(0.562813 0.185937 -2.20004e-21)
(1.61282 -0.0875612 6.56431e-22)
(0.321575 -0.0954182 8.62742e-23)
(1.48497 0.292997 2.31885e-22)
(2.48539 0.33643 -2.23409e-21)
(2.48029 -0.170109 -4.51854e-20)
(0.35067 0.378441 -1.19624e-22)
(2.95444 -0.187873 1.11813e-20)
(0.551217 0.352469 -3.80523e-21)
(0.697069 0.390496 8.85836e-21)
(3.125 -0.232945 -5.14154e-20)
(2.17726 0.277523 3.46504e-21)
(2.67217 0.0209497 -6.46464e-20)
(2.30994 -0.0799279 2.96669e-21)
(0.499584 0.3852 -3.66416e-22)
(0.102398 0.269154 -2.3026e-22)
(1.1886 0.440615 3.89556e-21)
(1.82659 0.40813 1.62188e-21)
(3.15036 -0.221065 2.74376e-21)
(0.722351 0.291953 -1.27496e-20)
(1.15233 0.339792 6.62846e-21)
(0.50469 0.24364 -1.30114e-20)
(3.1385 -0.250097 3.7664e-20)
(1.11781 0.214131 7.69434e-21)
(0.237926 0.232835 -7.11894e-22)
(2.95154 -0.288119 -3.56708e-21)
(0.229323 0.182269 -4.32603e-22)
(3.00278 -0.253452 -1.4079e-20)
(1.84242 0.222991 5.23334e-22)
(1.61868 0.216813 1.74493e-21)
(1.99603 -0.10323 -2.5104e-21)
(0.285943 -0.00968385 7.92337e-22)
(2.00041 -0.223901 -2.82316e-21)
(0.44662 0.36507 1.20102e-21)
(3.09815 -0.214826 -9.79725e-20)
(2.39875 -0.03015 6.75886e-20)
(2.40039 -0.338305 7.60072e-21)
(0.101307 -0.00291098 -1.93612e-22)
(0.82907 0.22201 1.61456e-20)
(1.22145 0.131499 -2.3065e-21)
(0.460623 0.398181 2.67656e-22)
(0.213517 0.35022 -6.09509e-22)
(0.84022 0.0503245 -1.15752e-21)
(0.372049 -0.124082 6.89377e-24)
(0.623754 0.123603 -4.32515e-21)
(0.48828 -0.0289168 1.82521e-21)
(0.967037 0.388875 1.99349e-20)
(0.262757 0.350554 -3.65085e-22)
(3.17425 -0.266094 -1.23943e-20)
(0.265479 0.351218 1.31975e-21)
(1.07494 0.341445 -4.20291e-21)
(2.83061 -0.0339005 9.93877e-20)
(0.81903 0.388645 9.53748e-21)
(0.503439 0.120632 1.21779e-20)
(3.20782 -0.253328 6.39795e-20)
(0.240205 0.353651 1.82357e-21)
(2.90653 -0.343233 3.83967e-20)
(0.0727785 0.14188 -1.09527e-21)
(0.700828 0.110179 8.23874e-21)
(2.91433 -0.486314 -5.11646e-20)
(0.225111 0.345811 3.19836e-22)
(2.76163 -0.519232 -2.1053e-21)
(2.94254 -0.0698893 7.48941e-22)
(1.55501 0.098816 6.01658e-22)
(0.309829 0.373598 -6.1941e-23)
(0.493271 0.403695 6.78481e-23)
(0.268122 -0.168629 1.859e-23)
(1.76863 0.216019 -8.41152e-21)
(3.24116 -0.211206 2.36861e-20)
(1.11069 0.411744 1.67297e-20)
(3.14918 -0.214805 1.72603e-20)
(0.133498 -0.134132 -5.04281e-22)
(1.29397 0.382115 2.14909e-22)
(0.195494 -0.189946 -6.97956e-22)
(1.2076 0.197757 5.14682e-21)
(2.91553 -0.230972 -2.40608e-20)
(2.12338 -0.288177 -5.35571e-21)
(3.12528 -0.230329 -4.63824e-20)
(2.31265 0.170448 2.12315e-20)
(0.140207 -0.167574 1.87442e-21)
(3.10488 -0.239349 6.35864e-20)
(0.402192 0.375105 -3.66196e-23)
(0.322949 0.257662 1.35978e-21)
(3.08517 -0.250433 2.95327e-21)
(2.84715 0.0176885 2.15189e-21)
(0.272218 0.366493 -9.26566e-23)
(2.41131 -0.520884 -2.35537e-20)
(1.29853 0.113157 -1.13542e-21)
(0.594046 0.0662743 -6.6311e-21)
(1.49146 0.120025 -4.35334e-23)
(3.04316 -0.163524 4.78116e-20)
(0.43955 0.390111 2.25344e-22)
(1.9554 0.202464 1.23639e-21)
(3.06878 -0.259861 2.3229e-25)
(3.17127 -0.197885 -9.94927e-21)
(3.1381 -0.219355 -6.3904e-21)
(2.98504 -0.143425 -5.48082e-20)
(0.183833 0.345 1.05115e-21)
(2.20831 -0.0839737 -7.63634e-21)
(0.132259 0.211341 1.06367e-21)
(1.9093 0.303958 7.03037e-22)
(3.14898 -0.22559 1.57644e-20)
(3.19271 -0.185569 4.14553e-21)
(2.93737 -0.155791 2.73783e-20)
(0.635495 0.251353 1.83855e-20)
(3.04727 -0.269425 -1.75242e-21)
(1.01749 0.332325 2.55417e-21)
(1.2849 0.179027 2.16238e-21)
(0.519953 0.399394 1.46564e-22)
(2.30931 0.268605 3.2086e-21)
(0.29822 0.340028 2.37375e-22)
(0.44454 -0.173399 2.01185e-22)
(0.437979 -0.116535 -1.23199e-22)
(1.03059 0.409895 -1.69064e-20)
(1.46661 0.359415 1.5323e-21)
(0.362237 -0.0494907 -4.70153e-22)
(3.1545 -0.207324 1.87697e-20)
(0.346784 0.325878 1.75035e-22)
(0.272205 -0.218901 -1.65774e-21)
(0.812816 0.313008 1.24959e-21)
(1.37054 0.0950944 -3.68367e-22)
(1.79444 0.307674 -1.66474e-22)
(3.00292 -0.111421 2.78147e-20)
(0.43376 0.177406 -1.94328e-20)
(2.62675 -0.512803 -6.16662e-21)
(3.02042 -0.277888 -5.62443e-22)
(0.0982454 -0.0981413 -7.82689e-22)
(1.70269 0.3078 -1.22162e-21)
(0.909555 0.233236 -9.16746e-21)
(0.671196 0.179723 -5.74057e-21)
(2.79022 -0.378997 -3.28545e-21)
(3.02855 -0.156916 -4.89887e-22)
(0.48786 -0.163334 -1.07055e-22)
(1.54636 -0.0415422 6.06395e-22)
(0.234933 0.277922 4.16775e-22)
(1.24304 0.408942 -7.86026e-22)
(2.42148 0.250753 -9.27186e-21)
(3.22577 -0.290736 -1.34831e-20)
(0.235319 -0.207106 -3.9098e-22)
(0.372321 0.387037 7.70531e-23)
(2.78611 -0.0888439 -1.11208e-19)
(0.449526 0.0630157 -6.76661e-23)
(2.2377 -0.197323 6.68263e-21)
(2.32954 0.389204 -2.21829e-21)
(0.19415 -0.0415971 -1.19212e-21)
(1.35966 0.158517 2.83576e-22)
(0.536852 0.393311 3.76007e-23)
(3.21434 -0.176641 -2.47947e-21)
(2.97142 -0.239572 -1.21753e-20)
(0.155962 0.337375 4.61298e-22)
(2.99596 -0.286279 -5.90199e-23)
(0.535278 0.0196597 8.10408e-25)
(0.125074 0.135637 1.55442e-21)
(3.17829 -0.390213 -2.66239e-21)
(0.51519 -0.0879065 3.67385e-22)
(0.52485 -0.154267 -9.75673e-23)
(3.05426 -0.260394 1.66473e-21)
(2.76152 -0.261293 2.29448e-20)
(0.254211 0.0831467 2.7255e-21)
(0.222174 -0.196212 -6.72108e-22)
(0.144825 -0.157505 -3.85818e-22)
(0.568995 -0.129707 -4.30343e-23)
(0.0897688 -0.0770509 -7.47785e-23)
(0.131157 0.32243 -1.22715e-21)
(0.244114 0.324903 -3.58743e-22)
(0.408591 0.379496 1.46143e-22)
(0.0448183 -0.0340009 7.04955e-22)
(0.0676615 -0.0664239 -1.18883e-21)
(0.318273 0.313529 3.86035e-22)
(0.32466 0.0472412 -6.62111e-22)
(0.0234038 0.0992906 2.02978e-22)
(0.569283 0.397329 2.18959e-22)
(3.23359 -0.173123 -1.5933e-20)
(0.551918 -0.143358 -1.54378e-22)
(2.99147 -0.192881 2.02164e-21)
(0.0326065 -0.00450245 -2.01101e-22)
(2.97004 -0.294478 -2.31787e-22)
(3.22344 -0.168059 6.79568e-21)
(3.21238 -0.151983 -6.611e-21)
(2.83475 -0.352968 -5.70065e-22)
(3.06751 -0.183215 -3.64594e-20)
(0.313062 -0.185064 -1.18869e-22)
(0.461059 -0.146626 5.50468e-22)
(0.177218 -0.174698 8.5834e-24)
(0.256726 0.359958 -5.41469e-22)
(0.136169 -0.100416 -3.52023e-24)
(0.48199 0.397337 -1.46539e-22)
(0.141673 -0.0400135 6.23387e-22)
(0.111746 0.300674 -6.07984e-22)
(0.303544 0.155895 6.89077e-21)
(2.5233 -0.311269 -3.10621e-21)
(0.12378 0.300103 3.28614e-22)
(3.24104 -0.17332 1.94134e-20)
(0.284437 0.357739 -1.23086e-22)
(0.094431 0.270845 9.3033e-22)
(2.78097 -0.373729 -6.54276e-21)
(3.1889 -0.147863 -2.36362e-20)
(0.550619 0.405126 -6.9805e-22)
(0.0261467 0.0365441 -5.8795e-22)
(0.142238 0.0424754 -7.7429e-22)
(0.0443228 0.0696823 9.45497e-23)
(0.408844 -0.154779 -1.41375e-22)
(0.190897 0.348032 -4.36387e-23)
(0.0186043 0.0726682 7.62102e-22)
(0.327312 0.364362 2.39091e-22)
(3.21536 -0.190801 -3.91935e-21)
(0.400033 0.00717894 9.82481e-22)
(3.17025 -0.205507 2.09418e-21)
(3.2282 -0.159681 2.58197e-20)
(2.93678 -0.306139 -2.21777e-22)
(2.8932 -0.328541 1.38034e-20)
(3.22689 -0.156289 -1.19809e-20)
(3.00309 -0.278887 -3.88604e-21)
(3.20328 -0.308794 -1.50083e-20)
(0.896559 0.40449 -5.69327e-22)
(0.540608 0.384986 2.09966e-21)
(0.316134 -0.14925 -2.89958e-22)
(0.262821 -0.204458 7.52761e-23)
(3.02598 -0.270346 5.56493e-21)
(0.357928 -0.171172 4.4048e-22)
(2.80786 -0.364667 -3.02183e-20)
(0.0268641 0.0984481 -1.11867e-22)
(0.254793 -0.0655942 6.62214e-23)
(0.0710487 0.23035 -1.93709e-22)
(0.440034 -0.0702799 9.56767e-23)
(0.397793 0.390364 -4.40187e-22)
(3.12017 -0.224692 8.18415e-20)
(0.0951448 0.0697467 3.44867e-22)
(3.19343 -0.197676 9.19756e-22)
(2.66605 -0.406117 -9.37411e-21)
(0.531587 0.399328 4.65835e-23)
(0.16106 0.335772 -2.79559e-23)
(0.0665567 0.142658 3.61117e-22)
(3.2039 -0.189385 3.65016e-20)
(0.0735345 0.192552 -7.78742e-22)
(0.139715 0.320357 8.2533e-23)
(0.327949 0.36646 7.30294e-22)
(0.178802 -0.121371 -4.81117e-23)
(0.367692 0.223291 -2.58541e-21)
(0.181132 -0.0761846 -1.33074e-23)
(3.02301 -0.260543 3.05294e-20)
(0.256191 -0.223374 -3.72467e-23)
(0.188629 0.325469 -2.55612e-22)
(0.223651 -0.0944942 1.19694e-22)
(0.598065 -0.0964565 1.10718e-21)
(2.76269 -0.369676 -2.1751e-20)
(0.617926 0.41559 -1.32083e-21)
(0.613385 0.40418 2.00714e-21)
(3.16035 -0.157998 -4.88791e-20)
(0.507822 -0.140924 8.48448e-23)
(0.49864 -0.428296 1.0469e-21)
(0.535643 -0.432139 -6.49545e-23)
(0.59723 -0.436237 -6.64518e-22)
(0.639989 -0.4365 3.70922e-22)
(0.681395 -0.43145 -4.16173e-22)
(0.714821 -0.423521 -1.01646e-21)
(0.746013 -0.413666 1.96725e-22)
(0.773162 -0.403077 2.17892e-22)
(0.801911 -0.391111 2.60165e-22)
(0.537578 -0.417433 -9.5071e-22)
(0.574322 -0.420759 -9.19579e-23)
(0.633195 -0.42566 5.18046e-22)
(0.675741 -0.428396 -9.4191e-22)
(0.714432 -0.425878 7.21e-22)
(0.746084 -0.420704 1.11688e-21)
(0.774631 -0.41343 -6.62414e-22)
(0.799605 -0.405382 8.032e-22)
(0.822869 -0.396039 -3.71763e-22)
(0.576401 -0.401102 2.04799e-21)
(0.611709 -0.403795 4.85657e-22)
(0.668645 -0.40931 -9.72028e-22)
(0.710227 -0.413624 4.39131e-22)
(0.746904 -0.413171 -1.13795e-21)
(0.777007 -0.410395 -1.53809e-22)
(0.803435 -0.405548 -1.73803e-23)
(0.826212 -0.399834 -3.3645e-22)
(0.846284 -0.393316 -5.35763e-22)
(0.61418 -0.380262 -1.01273e-21)
(0.647367 -0.382134 1.8259e-22)
(0.702195 -0.388047 6.48244e-22)
(0.742786 -0.393559 1.49904e-23)
(0.777841 -0.394967 4.27655e-22)
(0.80657 -0.394212 1.21688e-21)
(0.83125 -0.391441 -7.30607e-22)
(0.852205 -0.38761 1.32303e-22)
(0.870297 -0.38296 1.96934e-22)
(0.650291 -0.355292 8.51538e-23)
(0.680523 -0.356282 -1.12836e-22)
(0.733024 -0.362679 2.65588e-23)
(0.772496 -0.369118 -2.2102e-22)
(0.806174 -0.372208 1.09146e-22)
(0.833781 -0.37324 -2.48077e-22)
(0.857164 -0.372307 8.93416e-23)
(0.876866 -0.370121 3.94771e-22)
(0.893896 -0.366793 8.57258e-23)
(0.683831 -0.32692 1.09937e-22)
(0.710335 -0.326896 -2.5613e-22)
(0.760331 -0.333997 6.05685e-23)
(0.798698 -0.341178 4.17543e-22)
(0.831247 -0.345808 -1.30718e-22)
(0.857996 -0.348452 -1.79997e-22)
(0.880468 -0.349214 -7.49092e-23)
(0.899346 -0.348598 -5.62893e-22)
(0.915565 -0.34691 2.78498e-22)
(0.713132 -0.296652 1.33546e-22)
(0.736186 -0.294903 2.05155e-22)
(0.78362 -0.302864 5.45874e-23)
(0.82099 -0.31051 -1.75329e-22)
(0.852642 -0.316506 3.56704e-23)
(0.878788 -0.320583 -4.68356e-24)
(0.900684 -0.322886 1.29478e-22)
(0.919064 -0.323732 -1.35385e-22)
(0.934865 -0.323531 -1.02912e-22)
(0.736749 -0.264438 -1.29685e-22)
(0.758042 -0.260836 7.28791e-23)
(0.802833 -0.269786 3.96515e-24)
(0.839225 -0.277655 -5.83608e-24)
(0.870146 -0.284849 -4.22049e-23)
(0.895917 -0.290188 1.6028e-22)
(0.917529 -0.293878 1.84871e-22)
(0.935696 -0.296113 -1.83834e-22)
(0.95139 -0.296896 5.20799e-23)
(0.754491 -0.228766 2.66247e-23)
(0.776003 -0.224359 -1.69018e-23)
(0.817977 -0.234713 -2.00008e-23)
(0.853321 -0.24286 -8.97293e-24)
(0.883641 -0.25118 -1.33514e-23)
(0.909252 -0.257631 -1.76693e-24)
(0.930857 -0.262532 5.00407e-25)
(0.949138 -0.265886 1.49656e-22)
(0.964868 -0.268025 -7.92386e-24)
(0.76657 -0.189187 -4.79483e-23)
(0.789671 -0.185161 4.64433e-24)
(0.828719 -0.197576 2.76853e-23)
(0.863063 -0.206331 3.32884e-23)
(0.893002 -0.215772 -1.05911e-23)
(0.918718 -0.223185 6.2714e-24)
(0.940624 -0.229082 8.5661e-24)
(0.959324 -0.233332 2.01827e-23)
(0.975555 -0.236163 -1.99166e-23)
(0.772778 -0.146075 1.20063e-22)
(0.79814 -0.143556 3.16147e-23)
(0.834417 -0.15882 -5.21925e-23)
(0.86815 -0.168505 -1.8411e-23)
(0.898114 -0.178969 -1.30257e-24)
(0.924278 -0.187117 1.62875e-23)
(0.946821 -0.193743 5.78601e-24)
(0.966302 -0.198628 1.36131e-23)
(0.983374 -0.202078 -1.54584e-23)
(0.773824 -0.101234 -2.25203e-22)
(0.800607 -0.101441 -5.81232e-23)
(0.834574 -0.119823 8.58853e-23)
(0.868472 -0.130209 -1.93396e-23)
(0.899007 -0.141228 3.04317e-24)
(0.92597 -0.149684 -4.33947e-23)
(0.949411 -0.156654 6.69051e-25)
(0.96986 -0.161858 3.00079e-23)
(0.988014 -0.166218 1.40155e-23)
(0.768444 -0.058156 -5.99315e-23)
(0.795697 -0.0619752 1.69337e-23)
(0.829635 -0.0819861 1.99058e-24)
(0.864509 -0.0921892 -1.29705e-23)
(0.896033 -0.102875 1.02415e-23)
(0.924014 -0.11099 1.09794e-23)
(0.948487 -0.117731 1.94813e-23)
(0.969984 -0.122904 -3.14533e-23)
(0.989506 -0.126956 2.16594e-23)
(0.752998 -0.0182956 8.3151e-23)
(0.78496 -0.0246585 -7.73746e-24)
(0.820847 -0.0449216 5.66027e-24)
(0.857061 -0.0541575 -1.78017e-23)
(0.889688 -0.0637096 3.61132e-24)
(0.918709 -0.0708904 2.38557e-24)
(0.944222 -0.0768679 1.50421e-23)
(0.966783 -0.0814892 -2.52731e-24)
(0.987212 -0.0846606 -1.21504e-23)
(0.728812 0.0206078 -2.39102e-22)
(0.769122 0.0126165 6.2258e-23)
(0.808554 -0.00704633 -4.14891e-23)
(0.846403 -0.0150701 5.41857e-23)
(0.880137 -0.0231017 -7.98651e-24)
(0.910127 -0.0290394 -2.4927e-23)
(0.936621 -0.033953 -1.74484e-23)
(0.960262 -0.0376572 -2.36825e-23)
(0.981875 -0.0400943 6.86832e-23)
(0.697056 0.0599849 -2.11314e-22)
(0.748146 0.0511091 -1.03295e-22)
(0.792346 0.0331328 6.11707e-23)
(0.832165 0.0261695 -6.91263e-23)
(0.867049 0.0196201 -3.1655e-23)
(0.897958 0.0148918 1.88367e-23)
(0.925359 0.0110701 2.40834e-24)
(0.949942 0.00835028 -6.85186e-23)
(0.972436 0.00653114 3.57927e-23)
(0.658499 0.10234 -4.30585e-22)
(0.721471 0.0923791 6.04428e-23)
(0.771283 0.0767139 -1.70662e-23)
(0.813421 0.0702431 4.08973e-23)
(0.849644 0.0647524 5.51699e-23)
(0.881563 0.0609231 -2.40822e-22)
(0.909904 0.0580054 1.63518e-22)
(0.935422 0.0562137 5.04719e-23)
(0.959102 0.0548472 -1.95943e-23)
(0.619052 0.146467 7.41121e-22)
(0.687499 0.136403 -7.48492e-23)
(0.743762 0.123095 4.98048e-23)
(0.788878 0.116663 -7.84054e-23)
(0.826918 0.111749 -1.54756e-23)
(0.860159 0.108479 2.27982e-22)
(0.889631 0.106232 -2.47879e-23)
(0.916193 0.105115 9.71029e-23)
(0.940969 0.104666 9.88326e-23)
(0.582801 0.187295 1.55412e-22)
(0.649248 0.178591 1.65981e-23)
(0.709801 0.169034 8.39496e-23)
(0.758082 0.163194 2.7322e-22)
(0.798336 0.158991 -7.14656e-23)
(0.833228 0.15627 -1.16585e-22)
(0.864055 0.1546 -1.33883e-22)
(0.891831 0.153952 -1.5895e-22)
(0.917767 0.154136 4.95645e-23)
(0.548521 0.222458 -1.3729e-22)
(0.609176 0.215918 9.9548e-24)
(0.671331 0.211381 -3.04057e-22)
(0.721956 0.207394 3.1827e-23)
(0.764275 0.204577 -1.43469e-22)
(0.800857 0.202795 9.69368e-23)
(0.83309 0.201919 6.37921e-22)
(0.862051 0.201935 1.04011e-22)
(0.888903 0.202735 3.0501e-23)
(0.515445 0.252896 -2.29613e-22)
(0.568932 0.248347 6.8928e-22)
(0.630428 0.248854 -3.47136e-22)
(0.681992 0.247702 3.18315e-22)
(0.725726 0.246947 -2.29807e-22)
(0.763693 0.246588 1.95425e-23)
(0.797214 0.246786 -2.42113e-22)
(0.827406 0.247555 -2.09989e-22)
(0.855391 0.249309 3.90411e-23)
(0.482564 0.2794 -5.84179e-22)
(0.528721 0.27635 -5.69194e-22)
(0.588408 0.281051 9.72317e-22)
(0.639556 0.283267 -1.38464e-22)
(0.683834 0.285019 7.13574e-22)
(0.722606 0.286493 -2.3295e-22)
(0.757037 0.288039 -6.2389e-23)
(0.788294 0.289668 8.59093e-23)
(0.816673 0.293039 -3.56855e-23)
(0.450636 0.30064 4.54417e-22)
(0.488872 0.29977 4.02952e-22)
(0.546441 0.307706 -6.07214e-22)
(0.596006 0.313723 -5.56083e-22)
(0.639903 0.318175 -5.2446e-22)
(0.678753 0.321655 7.15417e-23)
(0.713588 0.324599 1.01413e-22)
(0.745585 0.327222 -3.43192e-22)
(0.774342 0.331742 8.70358e-22)
(0.420597 0.312839 2.63306e-23)
(0.450444 0.317939 -8.60875e-23)
(0.505164 0.328544 2.32942e-22)
(0.551903 0.338578 -2.90053e-22)
(0.594456 0.345649 4.76841e-22)
(0.632745 0.35114 1.28083e-22)
(0.667649 0.355401 -5.82987e-22)
(0.700528 0.359019 6.20048e-22)
(0.72949 0.366381 -2.32617e-22)
(0.388647 0.318972 -3.24995e-22)
(0.415219 0.335706 1.81248e-23)
(0.466944 0.349056 4.1184e-23)
(0.510567 0.361157 2.16968e-22)
(0.550952 0.369366 -1.07861e-22)
(0.5875 0.375399 2.70173e-22)
(0.621474 0.379373 -1.50961e-22)
(0.655907 0.381591 3.36899e-22)
(0.690134 0.389885 1.66224e-23)
(0.447841 0.451462 -3.28861e-22)
(0.441348 0.45293 -3.70343e-22)
(0.4347 0.453559 -9.73792e-22)
(0.427841 0.453314 1.33192e-21)
(0.420536 0.451894 -9.48267e-22)
(0.412563 0.449296 6.7758e-22)
(0.40376 0.445386 2.61077e-22)
(0.394003 0.439928 -4.42573e-23)
(0.383142 0.432743 -4.44432e-22)
(0.37101 0.423668 -2.26705e-22)
(0.357457 0.412564 2.16316e-22)
(0.342382 0.399299 -2.92751e-22)
(0.325769 0.383749 7.40114e-22)
(0.307699 0.365791 -1.91475e-21)
(0.288347 0.345303 3.38785e-21)
(0.267972 0.322188 -3.9161e-21)
(0.24667 0.296505 3.64648e-21)
(0.224396 0.26886 -1.59351e-21)
(0.201426 0.239818 -5.85042e-22)
(0.17833 0.209668 6.18663e-22)
(0.155632 0.17884 -2.23778e-22)
(0.133723 0.147828 4.77965e-22)
(0.112737 0.117217 6.2605e-23)
(0.0922501 0.0874669 -7.24094e-22)
(0.0722326 0.0600364 5.59181e-22)
(0.0559544 0.0341115 -3.07782e-22)
(0.0463698 0.00801489 3.6649e-22)
(0.042976 -0.0180962 2.90296e-22)
(0.0461985 -0.0447228 -3.3371e-22)
(0.0525783 -0.0724215 9.06473e-24)
(0.0591159 -0.100997 -3.10209e-22)
(0.0664755 -0.129619 2.6721e-22)
(0.0753766 -0.157814 5.38361e-22)
(0.0861256 -0.185398 -4.17168e-22)
(0.0986432 -0.212193 6.27217e-22)
(0.112752 -0.23786 -1.03523e-21)
(0.128291 -0.262238 6.67614e-23)
(0.145039 -0.285166 2.37144e-22)
(0.162733 -0.306511 -3.54719e-22)
(0.181182 -0.326147 8.09991e-22)
(0.200205 -0.344005 -4.55645e-22)
(0.21956 -0.360061 -2.02426e-21)
(0.239008 -0.37431 3.99712e-21)
(0.258339 -0.386778 -4.23439e-21)
(0.277372 -0.397525 3.59059e-21)
(0.295954 -0.406627 -2.04538e-21)
(0.313964 -0.41418 1.03782e-21)
(0.331322 -0.420318 -3.33579e-22)
(0.347967 -0.425168 3.4138e-22)
(0.363869 -0.42887 -3.27582e-22)
(0.379025 -0.431569 -5.0004e-22)
(0.393435 -0.433403 -1.79824e-22)
(0.407113 -0.434495 2.28466e-22)
(0.420079 -0.434975 6.43263e-22)
(0.432308 -0.434959 -9.62825e-22)
(0.44381 -0.434552 1.25816e-21)
(0.454598 -0.433842 -8.38957e-22)
(0.464678 -0.432916 -3.14965e-22)
(0.474081 -0.431884 -2.43591e-22)
(0.46278 0.399181 -4.78699e-23)
(0.454071 0.39639 -3.20325e-23)
(0.44516 0.39257 -4.46668e-23)
(0.436061 0.387641 -8.44771e-23)
(0.426587 0.381636 -1.39086e-22)
(0.416633 0.374605 4.44173e-22)
(0.40619 0.366462 -6.50033e-23)
(0.395263 0.357185 1.66811e-22)
(0.383813 0.346789 -5.91503e-22)
(0.371786 0.33531 -2.91753e-23)
(0.359121 0.322787 2.69035e-22)
(0.345777 0.30924 3.02577e-22)
(0.33175 0.294665 -9.2025e-22)
(0.317084 0.27905 1.10043e-21)
(0.30185 0.262386 -1.21382e-21)
(0.285944 0.244777 4.52453e-22)
(0.268936 0.226698 7.92139e-22)
(0.250563 0.208424 -4.56256e-22)
(0.231175 0.189571 -1.25765e-22)
(0.211316 0.16979 4.55915e-23)
(0.191375 0.148978 1.12686e-24)
(0.171647 0.127066 2.99754e-22)
(0.152443 0.103961 -1.51833e-22)
(0.134183 0.0794208 -4.84699e-23)
(0.117995 0.0529143 9.74939e-23)
(0.105753 0.0238607 -2.57656e-23)
(0.0976364 -0.00682856 1.0308e-24)
(0.0935262 -0.0382133 2.00502e-23)
(0.0934691 -0.0693613 2.36324e-23)
(0.097286 -0.0995027 -1.732e-25)
(0.10354 -0.128663 -2.41008e-23)
(0.111658 -0.157109 -1.41898e-23)
(0.121681 -0.184833 -1.50371e-24)
(0.133731 -0.211619 5.59663e-23)
(0.147608 -0.237297 -1.46096e-22)
(0.163069 -0.261711 5.3668e-23)
(0.179892 -0.284726 -1.04744e-22)
(0.197833 -0.306223 9.78256e-23)
(0.216625 -0.326114 4.41837e-24)
(0.23599 -0.344333 -1.83864e-23)
(0.255637 -0.360831 -7.05295e-23)
(0.275275 -0.375589 -6.65591e-23)
(0.294641 -0.388626 -1.7087e-23)
(0.313514 -0.399986 -6.15877e-23)
(0.331739 -0.40974 5.43646e-23)
(0.349225 -0.417969 -9.54579e-23)
(0.365944 -0.424772 5.31839e-23)
(0.381904 -0.430252 1.74827e-23)
(0.397144 -0.434519 -9.78215e-23)
(0.411701 -0.437688 5.53408e-24)
(0.42561 -0.439884 2.04763e-22)
(0.438887 -0.441219 -3.50505e-23)
(0.451504 -0.441874 8.80801e-23)
(0.463403 -0.441964 -3.36603e-22)
(0.474616 -0.441546 4.09592e-23)
(0.485185 -0.440712 1.23947e-22)
(0.495071 -0.439558 -9.70872e-23)
(0.504267 -0.438179 2.29676e-23)
(0.512806 -0.43668 -1.9861e-23)
(0.528225 0.374505 -3.07738e-22)
(0.521193 0.369394 9.26419e-23)
(0.513887 0.363199 -1.80661e-22)
(0.506308 0.356077 6.72246e-25)
(0.498272 0.34799 5.95742e-22)
(0.489693 0.33896 -1.73474e-22)
(0.480497 0.329024 -3.17305e-22)
(0.470624 0.318232 7.15774e-25)
(0.460031 0.306646 1.80369e-22)
(0.448698 0.294329 -4.73598e-23)
(0.436617 0.281343 5.27095e-22)
(0.423787 0.267754 -6.54619e-22)
(0.410212 0.253629 6.09894e-22)
(0.395877 0.239053 -7.44737e-23)
(0.380728 0.224143 -6.01486e-22)
(0.364642 0.209038 1.89308e-22)
(0.347534 0.193766 7.63701e-22)
(0.329528 0.178013 -2.51998e-22)
(0.310891 0.16141 -7.03733e-23)
(0.291852 0.143747 3.58076e-23)
(0.272634 0.124869 -1.86219e-22)
(0.253549 0.104583 4.02866e-23)
(0.235039 0.0826815 -5.73877e-22)
(0.217686 0.0589417 6.73176e-22)
(0.202317 0.0332018 -2.57516e-22)
(0.189933 0.00565614 1.21075e-23)
(0.181229 -0.0231446 3.97504e-23)
(0.176469 -0.0526445 -1.73366e-22)
(0.175632 -0.0822654 1.08007e-22)
(0.178286 -0.111396 5.72255e-23)
(0.183772 -0.139683 1.29634e-22)
(0.191639 -0.167048 -1.33934e-22)
(0.201631 -0.193418 5.74525e-23)
(0.213559 -0.218656 7.52228e-23)
(0.227205 -0.242612 -2.77946e-22)
(0.242311 -0.26517 7.68567e-22)
(0.258605 -0.286242 -4.92865e-22)
(0.275788 -0.305768 -9.79526e-23)
(0.293554 -0.323717 -1.41519e-22)
(0.311597 -0.34009 -5.03447e-23)
(0.329636 -0.354917 -2.0787e-22)
(0.347429 -0.368252 -3.80486e-22)
(0.3648 -0.380172 8.14715e-22)
(0.381645 -0.390756 4.03165e-22)
(0.397936 -0.400083 -7.93608e-22)
(0.413698 -0.408219 -2.86476e-22)
(0.428989 -0.41522 8.41842e-22)
(0.443867 -0.421138 -9.97014e-22)
(0.458364 -0.42603 6.86202e-22)
(0.472489 -0.429954 -1.69551e-23)
(0.486291 -0.432991 3.08983e-22)
(0.499707 -0.435243 8.822e-23)
(0.51261 -0.43684 -4.78032e-22)
(0.524884 -0.437895 -2.62024e-22)
(0.536488 -0.438501 7.93548e-22)
(0.547361 -0.438743 8.38725e-24)
(0.55745 -0.438708 -2.11626e-22)
(0.566768 -0.438473 8.11928e-23)
(0.5753 -0.438113 -2.60215e-22)
(0.572902 0.348523 2.66741e-24)
(0.566509 0.34291 1.47169e-22)
(0.559918 0.336331 -4.22619e-23)
(0.55305 0.328873 -1.56955e-23)
(0.545705 0.320537 3.19158e-23)
(0.537743 0.311417 2.94653e-23)
(0.529029 0.301606 4.75354e-23)
(0.519455 0.291195 1.53219e-22)
(0.508943 0.28026 -8.88375e-23)
(0.497456 0.268866 -9.52364e-23)
(0.484991 0.257062 -9.60912e-23)
(0.471569 0.24488 2.06228e-22)
(0.45723 0.232341 -1.81451e-22)
(0.442022 0.219448 -2.0193e-24)
(0.425992 0.206179 -3.24757e-23)
(0.409193 0.192465 4.8441e-23)
(0.39169 0.178163 -2.8466e-23)
(0.37361 0.163078 -8.97748e-24)
(0.355141 0.14702 -5.95773e-23)
(0.336512 0.129807 6.21666e-24)
(0.318004 0.111251 7.39699e-25)
(0.299968 0.0911575 -1.62958e-22)
(0.282838 0.0693556 7.61236e-23)
(0.26713 0.0457295 1.29608e-22)
(0.253445 0.0202745 -9.23981e-23)
(0.242397 -0.00681715 1.14591e-23)
(0.234413 -0.0351454 1.1462e-22)
(0.229727 -0.064213 -1.28308e-22)
(0.228382 -0.0934879 4.14583e-23)
(0.230232 -0.122465 -1.13493e-23)
(0.234963 -0.150763 5.23721e-23)
(0.242263 -0.178128 -1.16808e-22)
(0.251857 -0.204363 8.14598e-23)
(0.263483 -0.22929 -5.10023e-24)
(0.276857 -0.25276 -8.33315e-23)
(0.291676 -0.274655 1.07342e-23)
(0.307616 -0.294899 9.13695e-23)
(0.324345 -0.313454 -2.94917e-24)
(0.34154 -0.330329 -4.85462e-23)
(0.358904 -0.345571 7.5648e-23)
(0.37619 -0.359263 2.6642e-24)
(0.393217 -0.37151 -2.63686e-23)
(0.409879 -0.382424 1.57762e-22)
(0.426141 -0.39211 -1.54128e-22)
(0.442019 -0.400657 6.98748e-23)
(0.45756 -0.408133 4.51155e-24)
(0.472811 -0.414589 2.58658e-22)
(0.487811 -0.420091 -2.33213e-22)
(0.502513 -0.424649 1.23882e-22)
(0.517057 -0.428254 1.11975e-22)
(0.531436 -0.430966 1.51245e-22)
(0.545291 -0.432956 -1.39139e-22)
(0.558423 -0.434399 -2.82462e-23)
(0.570785 -0.435401 -5.51817e-23)
(0.582307 -0.436053 -1.05137e-22)
(0.592937 -0.436448 7.16885e-23)
(0.602648 -0.436666 -1.49403e-22)
(0.611451 -0.436778 3.02622e-22)
(0.619392 -0.436852 -7.74507e-23)
(0.630088 0.329135 -4.35352e-22)
(0.62502 0.32263 6.95695e-23)
(0.619764 0.315181 3.15273e-22)
(0.61423 0.306979 -2.10041e-22)
(0.608156 0.298086 4.03816e-23)
(0.601338 0.288646 1.41067e-22)
(0.593585 0.278795 -1.60046e-22)
(0.584739 0.268639 6.48996e-23)
(0.574691 0.258249 2.09922e-22)
(0.563391 0.247661 -3.63068e-23)
(0.550836 0.236875 -1.89456e-22)