/*--------------------------------*- C++ -*----------------------------------*\
  =========                 |
  \\      /  F ield         | OpenFOAM: The Open Source CFD Toolbox
   \\    /   O peration     | Website:  https://openfoam.org
    \\  /    A nd           | Version:  10
     \\/     M anipulation  |
\*---------------------------------------------------------------------------*/
FoamFile
{
    format      ascii;
    class       volScalarField;
    location    "750";
    object      epsilon;
}
// * * * * * * * * * * * * * * * * * * * * * * * * * * * * * * * * * * * * * //

dimensions      [0 2 -3 0 0 0 0];

internalField   nonuniform List<scalar> 
10435
(
0.0105752
0.0183897
0.0223402
0.0170189
0.0817048
0.203407
0.0139832
0.00658802
0.00523497
0.126112
0.0283061
0.022136
0.0870256
0.0151885
0.0143328
0.0125481
0.015798
0.179
0.00486532
0.0107753
0.00863944
0.013491
0.0179136
0.00989121
0.0762595
0.00484286
0.00885825
0.0376381
0.00797649
0.162215
0.0379708
0.0359651
0.00589314
0.00822265
0.00982736
0.0121627
0.0130836
0.00962619
0.00286273
0.00647838
0.225217
0.0164099
0.0125422
0.0142512
0.0183987
0.00836333
0.214481
0.0114835
0.00433706
0.0108266
0.00772587
0.0826731
0.0028262
0.00594387
0.00329007
0.00706653
0.0126421
0.0104448
0.014438
0.00952707
0.0033266
0.0154717
0.010314
0.0769958
0.0186016
0.0335918
0.0126112
0.0132284
0.00737722
0.0107722
0.00576417
0.00717243
0.00790941
0.0282719
0.0133658
0.0114701
0.0115735
0.0111349
0.00514425
0.0121901
0.0116849
0.00918356
0.00281115
0.00615509
0.012023
0.0120696
0.0124063
0.0169409
0.0123601
0.0129752
0.0192716
0.0221845
0.00899688
0.0121986
0.0138998
0.0113887
0.0238421
0.0134805
0.0150392
0.0332683
0.0128526
0.159335
0.0121755
0.0151927
0.180764
0.0156248
0.00902567
0.0112688
0.0122796
0.011175
0.010267
0.133165
0.00960727
0.0102946
0.0317286
0.0126743
0.0340765
0.0125995
0.0197982
0.0248816
0.0327708
0.00873178
0.0135374
0.00943874
0.0608696
0.00413373
0.0244762
0.00896489
0.0514881
0.0085522
0.00927879
0.0452655
0.00963299
0.0132238
0.00824503
0.00299037
0.0101392
0.0180864
0.0170182
0.0118523
0.0112066
0.0268183
0.0109973
0.0403676
0.0141795
0.0130295
0.00960993
0.115155
0.0155849
0.0283259
0.00945468
0.0179664
0.0119385
0.031113
0.113915
0.0071192
0.0812724
0.0149819
0.126374
0.0248986
0.0257003
0.0141271
0.0285229
0.0158586
0.0123953
0.0466621
0.00622543
0.019192
0.0155135
0.0523217
0.0792748
0.00629848
0.00798977
0.0127372
0.0210564
0.0190806
0.013467
0.0152913
0.00971341
0.00914271
0.0225564
0.194234
0.0260712
0.00386627
0.0261129
0.010118
0.0100495
0.00989078
0.0985176
0.0559564
0.0280467
0.00285933
0.00796172
0.0111077
0.106028
0.00840458
0.0140646
0.0118747
0.0136956
0.0131533
0.0125218
0.00981112
0.0558436
0.0106005
0.0378453
0.0427443
0.0235821
0.0187205
0.0107545
0.0146712
0.00786908
0.0184182
0.0359546
0.0172639
0.00886182
0.0149942
0.011516
0.00437513
0.00488905
0.014781
0.00827583
0.0159837
0.0121761
0.0115567
0.00603991
0.00984332
0.00377416
0.011967
0.0516827
0.0112054
0.0150652
0.0076576
0.00429548
0.0176176
0.00934859
0.0159691
0.0127248
0.00577398
0.0131218
0.051558
0.013203
0.00508956
0.00510186
0.00678452
0.0351715
0.00521797
0.0110315
0.0071682
0.00614
0.0152204
0.00579598
0.0120855
0.104502
0.0151457
0.00841023
0.0697514
0.00537063
0.00957071
0.00643344
0.0102565
0.0111105
0.0716282
0.00487182
0.0133148
0.0109318
0.0154226
0.0124359
0.0283371
0.00355534
0.0474274
0.0132981
0.00596017
0.0072651
0.0621346
0.00553679
0.025081
0.00893339
0.070178
0.0106081
0.00548159
0.0963877
0.0146722
0.01635
0.012366
0.011779
0.00365684
0.110511
0.00330416
0.00634839
0.00863408
0.0110121
0.0334326
0.0107085
0.0064886
0.00291138
0.0056415
0.0134872
0.0106253
0.0574374
0.0452239
0.0138524
0.0137453
0.0204796
0.00686999
0.0457932
0.0142791
0.0158292
0.0170447
0.0401975
0.00645228
0.00928337
0.00850729
0.0127015
0.117753
0.00636961
0.00589882
0.00434149
0.0384626
0.0140041
0.0201099
0.198297
0.00925726
0.0117212
0.00290913
0.00505303
0.0600233
0.00623367
0.0265726
0.0139535
0.00971742
0.00732655
0.00960715
0.00646239
0.0178773
0.0229772
0.0113383
0.00619995
0.00624209
0.00724532
0.00770221
0.00684387
0.00714959
0.00333543
0.00793035
0.00763681
0.00856544
0.0121047
0.00939302
0.00295956
0.00470056
0.00666469
0.0564758
0.00849706
0.0359373
0.00469791
0.00392279
0.0865738
0.0268339
0.00638545
0.00732774
0.00626556
0.00420688
0.00741791
0.00357752
0.00866039
0.00740203
0.0119279
0.0192306
0.00725426
0.00456054
0.00371919
0.00799777
0.109079
0.00357181
0.003948
0.00871214
0.00980078
0.00912838
0.00716707
0.00551546
0.0101534
0.0035415
0.00536553
0.0124678
0.00646334
0.00442231
0.0497889
0.0685468
0.00420766
0.0276673
0.00781228
0.0110422
0.00781571
0.00744817
0.00604715
0.0218645
0.00679503
0.114498
0.00981309
0.00940262
0.00841962
0.0103388
0.00509759
0.0128589
0.00942371
0.00586342
0.0165935
0.00602457
0.00610905
0.00927706
0.0039109
0.00919972
0.00665759
0.00582747
0.00727331
0.0120376
0.00833068
0.0268348
0.00581396
0.00639144
0.0082602
0.00881687
0.172802
0.00446479
0.00334686
0.00318271
0.00719352
1.30378e-05
1.22975e-05
1.14821e-05
1.06571e-05
9.88519e-06
9.1095e-06
8.30833e-06
7.42814e-06
6.41906e-06
1.35817e-05
1.27164e-05
1.17498e-05
1.08057e-05
9.91844e-06
9.05525e-06
8.18436e-06
7.27734e-06
6.32333e-06
1.43371e-05
1.33044e-05
1.21727e-05
1.10913e-05
1.00817e-05
9.11601e-06
8.16533e-06
7.21206e-06
6.26207e-06
1.54027e-05
1.41607e-05
1.28339e-05
1.15895e-05
1.04364e-05
9.34819e-06
8.29823e-06
7.27229e-06
6.27549e-06
1.69022e-05
1.54093e-05
1.38413e-05
1.23931e-05
1.10612e-05
9.81894e-06
8.63939e-06
7.5063e-06
6.41439e-06
1.90196e-05
1.72215e-05
1.53423e-05
1.36278e-05
1.2063e-05
1.06191e-05
9.26663e-06
7.98646e-06
6.76799e-06
2.20494e-05
1.98411e-05
1.75432e-05
1.54708e-05
1.35942e-05
1.18794e-05
1.02929e-05
8.81395e-06
7.43378e-06
2.64694e-05
2.36142e-05
2.07372e-05
1.8178e-05
1.58783e-05
1.37934e-05
1.18835e-05
1.01268e-05
8.51975e-06
3.2882e-05
2.90094e-05
2.53449e-05
2.21266e-05
1.9251e-05
1.66549e-05
1.42897e-05
1.21292e-05
1.01698e-05
4.19211e-05
3.66551e-05
3.19787e-05
2.78827e-05
2.42234e-05
2.09169e-05
1.7906e-05
1.51555e-05
1.26502e-05
5.42855e-05
4.74298e-05
4.15455e-05
3.63013e-05
3.15771e-05
2.72815e-05
2.3355e-05
1.97552e-05
1.64589e-05
7.08358e-05
6.26608e-05
5.54156e-05
4.86754e-05
4.25009e-05
3.6828e-05
3.16078e-05
2.67956e-05
2.23712e-05
9.27051e-05
8.45396e-05
7.56932e-05
6.6946e-05
5.87736e-05
5.11821e-05
4.41408e-05
3.7604e-05
3.15675e-05
0.000126043
0.000116993
0.000105579
9.39403e-05
8.29695e-05
7.27098e-05
6.31236e-05
5.41536e-05
4.58156e-05
0.000178369
0.000165296
0.000149354
0.000133453
0.000118586
0.000104676
9.16005e-05
7.92434e-05
6.75677e-05
0.000257366
0.000234989
0.000211836
0.00019001
0.000169964
0.000151268
0.000133606
0.00011677
0.000100693
0.000366893
0.000330019
0.000297429
0.000268329
0.000241981
0.00021743
0.000194072
0.000171586
0.000149956
0.000501364
0.000451265
0.000409396
0.000372814
0.000339705
0.00030866
0.000278745
0.000249443
0.000220666
0.000657506
0.000599223
0.000550526
0.000507701
0.000468427
0.000431078
0.000394401
0.000357602
0.00032038
0.000838085
0.000777151
0.000724794
0.000677934
0.000634197
0.000591833
0.000549224
0.000505238
0.000459458
0.00105137
0.000991659
0.000938277
0.000889919
0.000844406
0.000799586
0.000753225
0.000703488
0.000649399
0.00130876
0.00125132
0.00119849
0.00115133
0.00110781
0.0010647
0.00101872
0.00096686
0.000907327
0.00162473
0.00156497
0.00151301
0.00147031
0.00143409
0.0013989
0.00135995
0.0013127
0.00125448
0.00201561
0.00193937
0.00188761
0.00185415
0.0018327
0.00181417
0.00179194
0.00175942
0.00171307
0.00248897
0.00237428
0.00232564
0.0023095
0.0023135
0.00232277
0.00232975
0.00232668
0.00229611
0.000474016
0.000463571
0.000456287
0.00045216
0.000451165
0.000453203
0.000458144
0.000465786
0.000475911
0.000488228
0.000502423
0.000518136
0.000534956
0.000552484
0.00057025
0.000587769
0.000604516
0.00061994
0.00063349
0.000644633
0.000652817
0.000657447
0.000657609
0.000651501
0.000639297
0.000622618
0.00060209
0.000577467
0.000548764
0.000517705
0.000484998
0.000450971
0.000415964
0.000380652
0.000345605
0.000311326
0.00027825
0.000246749
0.000217126
0.000189605
0.000164324
0.000141339
0.000120612
0.000102068
8.56521e-05
7.13163e-05
5.89955e-05
4.85988e-05
3.99975e-05
3.30279e-05
2.74934e-05
2.31815e-05
1.98846e-05
1.74132e-05
1.56085e-05
1.43427e-05
1.35194e-05
1.307e-05
1.29418e-05
0.000504564
0.00049583
0.000490023
0.000487167
0.000487222
0.000490104
0.000495671
0.000503728
0.000514014
0.000526191
0.00053982
0.000554351
0.000569103
0.000583802
0.000598152
0.000611825
0.00062445
0.000635636
0.000644977
0.000652068
0.000656501
0.000657851
0.000655615
0.000649129
0.000637821
0.000621537
0.000600514
0.000575333
0.000546902
0.000516151
0.000483685
0.000449951
0.000415389
0.000380488
0.000345742
0.000311623
0.00027856
0.000246929
0.000217037
0.000189122
0.000163349
0.000139812
0.000118547
9.956e-05
8.28477e-05
6.83869e-05
5.61104e-05
4.59141e-05
3.76157e-05
3.09829e-05
2.57658e-05
2.17267e-05
1.86496e-05
1.63482e-05
1.46695e-05
1.34918e-05
1.27228e-05
1.22976e-05
1.21661e-05
0.000527574
0.000520749
0.000516243
0.000514005
0.000513962
0.000516009
0.000520025
0.000525865
0.000533362
0.000542318
0.000552494
0.000563602
0.000575303
0.000587236
0.000599041
0.000610349
0.000620779
0.000629945
0.000637451
0.000642893
0.000645849
0.000645865
0.000642434
0.00063504
0.000623317
0.000607172
0.000586771
0.000562523
0.000535065
0.000505134
0.000473375
0.000440323
0.00040647
0.000372298
0.000338279
0.000304856
0.00027243
0.000241352
0.000211915
0.000184351
0.000158833
0.000135487
0.000114397
9.56165e-05
7.91672e-05
6.50285e-05
5.31216e-05
4.33037e-05
3.53709e-05
2.9078e-05
2.41676e-05
2.03888e-05
1.752e-05
1.53767e-05
1.38101e-05
1.27052e-05
1.19764e-05
1.15641e-05
1.14218e-05
0.000522984
0.000516606
0.000512396
0.000510271
0.000510114
0.000511786
0.00051513
0.000519982
0.000526169
0.000533504
0.000541786
0.00055079
0.000560269
0.000569958
0.000579573
0.000588808
0.000597334
0.000604795
0.000610815
0.000614991
0.000616905
0.000616112
0.000612163
0.000604644
0.000593247
0.000577852
0.000558559
0.000535697
0.000509772
0.000481386
0.000451135
0.000419574
0.000387219
0.000354555
0.000322035
0.000290077
0.000259055
0.000229299
0.000201084
0.000174638
0.000150145
0.000127745
0.000107545
8.96143e-05
7.39791e-05
6.06089e-05
4.94101e-05
4.02231e-05
3.28338e-05
2.69955e-05
2.2456e-05
1.89731e-05
1.6333e-05
1.43583e-05
1.29099e-05
1.18823e-05
1.11978e-05
1.08022e-05
1.06537e-05
0.000502196
0.000496204
0.000492237
0.000490206
0.000489987
0.000491432
0.000494372
0.000498631
0.000504029
0.000510381
0.000517497
0.000525182
0.000533229
0.000541418
0.000549506
0.000557232
0.000564306
0.000570408
0.000575195
0.000578295
0.00057932
0.000577866
0.000573542
0.000566004
0.000555009
0.000540455
0.000522416
0.000501137
0.00047701
0.000450522
0.000422198
0.000392562
0.000362124
0.000331364
0.000300726
0.000270614
0.000241387
0.000213359
0.000186801
0.000161937
0.00013895
0.000117984
9.91421e-05
8.24866e-05
6.80275e-05
5.57163e-05
4.54423e-05
3.70372e-05
3.02882e-05
2.49587e-05
2.08108e-05
1.76227e-05
1.52012e-05
1.33862e-05
1.20512e-05
1.10998e-05
1.04608e-05
1.00845e-05
9.93228e-06
0.000466711
0.000460674
0.000456595
0.000454392
0.000453941
0.000455092
0.00045767
0.000461494
0.000466373
0.000472117
0.000478533
0.000485429
0.000492609
0.000499865
0.000506976
0.000513705
0.000519789
0.000524943
0.00052886
0.000531213
0.00053166
0.000529844
0.000525433
0.000518142
0.000507764
0.000494223
0.000477575
0.000458022
0.000435879
0.000411551
0.000385495
0.000358192
0.000330127
0.000301764
0.000273526
0.000245801
0.000218929
0.000193204
0.000168888
0.00014619
0.000125277
0.000106273
8.92612e-05
7.4281e-05
6.1321e-05
5.03154e-05
4.11458e-05
3.36467e-05
2.76194e-05
2.28493e-05
1.91241e-05
1.62487e-05
1.40533e-05
1.24001e-05
1.11785e-05
1.03029e-05
9.70913e-06
9.35258e-06
9.19852e-06
0.000420542
0.000414487
0.000410271
0.000407829
0.000407061
0.000407828
0.00040997
0.000413312
0.000417669
0.000422852
0.000428671
0.000434937
0.000441456
0.000448027
0.000454438
0.000460467
0.000465871
0.000470378
0.000473718
0.000475598
0.000475718
0.000473767
0.000469474
0.000462608
0.000452989
0.00044057
0.00042541
0.000407689
0.000387662
0.000365673
0.00034213
0.000317462
0.00029214
0.000266605
0.000241242
0.00021642
0.000192443
0.00016958
0.000148075
0.000128099
0.00010978
9.3203e-05
7.84167e-05
6.5431e-05
5.42123e-05
4.46834e-05
3.673e-05
3.02031e-05
2.49317e-05
2.07352e-05
1.74362e-05
1.48722e-05
1.29014e-05
1.14061e-05
1.02921e-05
9.48623e-06
8.93347e-06
8.59441e-06
8.43768e-06
0.00036235
0.000356108
0.000351587
0.000348753
0.000347537
0.000347824
0.000349469
0.000352318
0.000356188
0.000360883
0.000366242
0.000372052
0.00037812
0.000384239
0.000390211
0.000395854
0.000400941
0.000405183
0.000408345
0.000410118
0.000410236
0.000408424
0.000404512
0.000398344
0.000389713
0.000378639
0.000365178
0.000349515
0.000331817
0.00031239
0.000291623
0.000269912
0.000247749
0.000225545
0.000203589
0.000182238
0.000161756
0.000142359
0.000124277
0.000107595
9.23863e-05
7.86842e-05
6.64935e-05
5.57946e-05
4.6541e-05
3.86483e-05
3.20244e-05
2.65439e-05
2.2073e-05
1.84735e-05
1.56112e-05
1.33622e-05
1.16162e-05
1.02804e-05
9.2779e-06
8.54764e-06
8.04243e-06
7.72789e-06
7.57574e-06
0.000288733
0.000282201
0.000277287
0.000274034
0.000272431
0.000272366
0.000273678
0.000276113
0.000279685
0.000284402
0.000289737
0.000295517
0.000301468
0.00030731
0.000313067
0.000318514
0.000323714
0.000328583
0.00033236
0.000334512
0.000334909
0.000333447
0.000330185
0.000324957
0.000317689
0.000308336
0.000297002
0.000283806
0.000268753
0.000252052
0.000234281
0.000215871
0.000197329
0.000179007
0.000161128
0.000143702
0.000127101
0.000111911
9.793e-05
8.50485e-05
7.33828e-05
6.29225e-05
5.36218e-05
4.54139e-05
3.82413e-05
3.20871e-05
2.68706e-05
2.25284e-05
1.8941e-05
1.59774e-05
1.3556e-05
1.16135e-05
1.00866e-05
8.90893e-06
8.01877e-06
7.37043e-06
6.92545e-06
6.65274e-06
6.52544e-06
0.00569695
0.0050657
0.00450463
0.00399276
0.0035209
0.00308634
0.00268851
0.00232776
0.0020026
0.00171069
0.00146345
0.00126823
0.00112207
0.00101472
0.000927742
0.000852164
0.000787053
0.000732081
0.000688117
0.000655409
0.00063092
0.000608874
0.000583907
0.000551165
0.000505744
0.00543585
0.00494094
0.00443126
0.00393565
0.00346664
0.00303032
0.00263032
0.00226793
0.00194367
0.00165971
0.00141987
0.00122477
0.00107084
0.000951528
0.000858807
0.000786391
0.000730234
0.000687467
0.000655895
0.000633426
0.00061737
0.000604074
0.000589303
0.000568183
0.000534651
0.00546118
0.00492234
0.00439094
0.00388035
0.00339924
0.00295375
0.00254777
0.00218328
0.00186165
0.00158421
0.00135104
0.00115997
0.00100698
0.000887007
0.000794786
0.000725679
0.000675692
0.000641242
0.000619057
0.000606049
0.00059906
0.000594495
0.000588165
0.000575356
0.00055092
0.00553971
0.0049264
0.00435024
0.00381171
0.00331342
0.00285813
0.00244801
0.0020842
0.0017672
0.00149662
0.00127053
0.00108544
0.000937001
0.000820681
0.000732181
0.000667569
0.000623101
0.000595089
0.000579908
0.000574036
0.000573877
0.000575559
0.000574665
0.000566275
0.000544975
0.00562655
0.00494024
0.00431235
0.00373938
0.00322013
0.00275392
0.00234017
0.00197804
0.0016662
0.00140252
0.0011837
0.00100545
0.000863156
0.000752388
0.000669094
0.000609563
0.000570201
0.000547388
0.000537505
0.000536742
0.000541224
0.000546705
0.000548633
0.000542242
0.000522981
0.00569655
0.00494394
0.00426412
0.00365567
0.0031154
0.00263918
0.00222312
0.00186386
0.00155802
0.00130186
0.00109099
0.000920533
0.000785584
0.000681566
0.000604382
0.000550304
0.000515782
0.000497306
0.000491331
0.000493971
0.000501251
0.000508802
0.000512075
0.000506488
0.000487603
0.00575915
0.00493548
0.00419994
0.00355548
0.00299565
0.0025115
0.00209507
0.00174021
0.00144155
0.00119389
0.000991987
0.000830444
0.000703974
0.000607674
0.000537242
0.000488839
0.00045891
0.000444086
0.000440898
0.000445601
0.000454228
0.00046245
0.000465874
0.000460216
0.000441391
0.00583122
0.00490905
0.00411001
0.00343085
0.00285539
0.0023672
0.00195337
0.00160493
0.00131504
0.00107727
0.000885621
0.000734294
0.000617641
0.000530067
0.000467012
0.000424496
0.000398939
0.000387151
0.000385838
0.000391487
0.000400204
0.000407872
0.000410348
0.000403453
0.00038367
0.00588785
0.00484239
0.00397861
0.00327227
0.00268934
0.0022033
0.00179637
0.00145647
0.00117686
0.000950685
0.000770579
0.000630991
0.000526059
0.000448355
0.000393322
0.000356949
0.000335493
0.000326101
0.000325883
0.000331608
0.000339252
0.000345298
0.000345268
0.000334509
0.000310924
0.150811
0.132355
3.31595
0.0162326
0.000107325
0.000149642
0.0232736
1.27012e-05
3.74802
9.89857e-06
3.85939
3.69615e-05
0.000978341
0.000115686
0.0170275
0.000153805
7.10617
0.0113783
6.21605e-06
0.156695
0.000610221
6.57922e-05
3.95054
0.000399216
8.80144e-06
1.99656e-05
8.94502e-06
0.00239316
0.478701
4.99202
5.16574e-06
3.45342e-05
2.54508
0.00191479
4.36428
7.09101e-05
0.00766956
0.017558
0.00811794
5.78003e-05
3.58775
1.33057e-05
4.43277e-05
0.00892685
0.00141881
0.00010221
6.18661
6.59194
0.903832
1.20536
5.6986
2.44323
0.000634542
0.00932496
0.020908
3.35187
8.64145e-05
0.000528626
2.46609e-05
2.22007
0.000157969
3.09886
0.00010269
9.97792e-05
1.32882e-05
0.00839362
1.91367e-05
0.00170525
0.00107226
1.03873
3.0447
9.24005e-05
4.04094e-05
0.137516
9.82154e-06
0.000548875
0.0801418
5.57085
7.04963e-06
0.00666806
0.00164021
0.000274543
1.67152e-05
4.08391
0.000117919
0.000171626
3.17211e-05
5.2375
2.5619
0.000208195
0.00051567
4.74125e-05
3.02693e-05
4.0652e-05
5.49051e-05
3.85769
2.07225e-05
4.48451
3.12976e-05
2.07342
0.000763828
3.51198
0.000929023
9.27232e-05
2.21453e-05
0.0012943
4.01447
0.00155065
5.42623e-05
5.04805
6.8181e-05
3.47323e-05
4.00848
8.67769e-05
0.000591774
0.878544
2.07785
4.723e-05
0.000752896
2.10453e-05
3.38309e-06
3.03611e-05
0.000383464
8.87313e-06
2.71545
4.17541e-05
2.51226
0.0476858
9.15005e-06
6.56004
1.541e-05
0.124262
1.07152
0.00560639
0.00348938
3.22684e-05
0.00127352
0.000416079
0.00013045
0.203471
6.53609e-05
0.00731303
2.4927
4.79315e-06
0.641926
0.000207607
0.0236191
0.00770375
0.00015532
4.97374
0.00177776
6.18081e-05
0.0233344
0.0256304
9.87117e-06
3.93746
1.96806e-05
4.92782e-05
0.0699029
2.05697e-05
4.78624e-05
3.41098
5.73663e-05
4.77333
4.90381e-05
5.11352
0.000122419
9.2805e-06
0.000226159
2.33236e-05
9.3033e-05
0.000107316
0.0018618
4.48579
1.79403e-05
0.00166123
0.00306789
0.760514
1.08065
6.72951e-05
0.00468343
3.38318e-05
0.000660924
0.00569831
0.0063372
1.67554e-05
5.62502
5.55002e-05
1.52848
0.000141608
4.86598
2.28764
0.0882982
0.00681603
0.0208519
1.83782
9.52167e-06
6.35125e-05
0.760878
0.245115
0.00159348
0.000234522
0.00024355
0.000162125
0.0012476
2.04502e-05
2.30057e-05
0.000930487
1.01765
3.92944e-05
2.05208e-05
4.54959e-05
0.00424511
0.00110342
0.00217703
4.59581
5.91457e-05
9.2173e-06
0.000169454
0.000475933
0.000636882
1.45737e-05
1.03686e-05
2.27514
0.00036032
2.27586
0.000171847
6.91245
5.28261e-05
4.88045e-05
3.63358
7.28221e-05
3.42195e-05
1.24256e-05
0.00805094
1.3834e-05
0.0475977
0.00125339
0.00616665
0.0294488
5.40005e-06
0.000155966
4.50597e-05
0.00491122
3.60217e-05
2.6641e-05
3.16015e-05
0.00256306
0.000143742
2.70966e-05
5.188e-05
0.001852
1.11931e-05
0.891363
2.62935e-05
1.06545e-05
4.03667
0.0696737
0.0631186
6.03717e-06
0.0018383
1.11081e-05
7.36911e-05
9.34099e-06
0.114219
9.08344e-06
2.39013e-05
0.0414448
0.0239687
9.31192e-06
0.00106338
0.118277
3.54235e-05
9.26531e-06
7.08331e-06
0.0432344
3.14872e-05
5.73663
9.53285e-05
3.29495
0.0104546
0.00187154
0.0012877
0.000100375
1.061
0.000170293
0.00143494
0.0012632
5.08261
5.30877
0.0341129
6.49203e-05
9.05121e-06
5.51241
0.00408429
4.41166
3.98891
3.05868e-05
2.18597e-05
1.25716
2.65935
4.92721e-05
9.96597e-05
0.000183022
3.75286
3.37557e-05
0.000624598
9.90436e-06
0.201177
0.000262701
9.3964e-05
4.20243e-05
1.95932
7.87435e-06
3.77046e-05
0.00656463
6.68442
1.2936e-05
8.95582e-06
0.00707888
0.0671144
3.12212e-05
0.000112314
5.20182e-06
3.57875e-05
9.24383e-06
1.98863
0.0016717
2.72809e-05
0.000569833
4.60067e-05
0.0201588
0.000455269
1.14732e-05
4.38326
0.000194166
2.65987e-05
1.8671e-05
2.10753e-05
0.00173029
4.95953e-05
3.28782e-05
1.35781
3.50594e-05
0.100428
5.86876e-05
0.00019746
3.27125e-05
2.97336e-05
6.1941
0.0125544
3.15677e-05
4.59222e-05
0.0572266
5.50948
0.000282311
0.00906086
0.00779777
4.40471e-05
6.89979
1.04327
3.91528
1.82704e-05
2.16343
9.10097e-06
2.65274e-05
0.00017384
6.61157
5.98329e-05
1.40153
6.07705e-05
0.02518
0.450676
3.92461
0.000993618
9.83221e-06
1.35878e-05
5.22286e-05
2.08244e-05
1.18283e-05
3.8901
0.000100484
2.72971
0.0103101
0.00868279
0.00642836
5.22531e-05
0.147336
3.62555
4.91349
0.0126913
2.1496e-05
0.000931031
2.6312
0.00453022
7.84355e-06
3.43135e-05
2.58703
5.01704e-05
0.509022
1.34119e-05
4.38336e-05
0.000113292
0.736595
2.91343e-05
4.75674e-08
0.0204987
0.00111529
0.00445088
5.50805e-06
0.910293
6.76323e-05
1.20599
0.000120072
2.58998e-05
7.92115e-05
0.948128
6.17743
3.6687e-05
4.54178e-05
5.4995e-05
2.18305e-05
0.000256932
0.00116767
0.000176414
4.30379
1.25039e-05
0.000140991
7.79716e-06
3.46889e-05
0.000143353
1.16602e-05
0.00022426
7.15954e-06
0.033089
0.00015793
6.71201e-05
7.15874e-06
3.14624e-05
9.83198e-05
1.9733e-05
0.0292689
5.28547
0.00607175
0.00117973
0.870331
0.00157676
0.931217
1.89891e-05
6.79552e-06
3.7852
4.26648e-05
5.64089e-05
1.14862
3.76435e-05
0.952992
6.45614
0.000173651
0.000557193
0.037557
6.60425e-05
0.00574117
0.755348
0.00367367
3.52023
1.86327e-05
3.24936e-05
2.68011
1.88215e-05
3.67186
0.00209878
2.11195e-05
3.93229
9.54931e-05
9.03949e-06
0.00143155
0.000157906
1.6786e-05
0.00767981
0.00417868
0.00238467
0.00865478
1.77209e-06
3.35967e-05
3.93163
8.08088e-05
0.000261516
0.000125681
0.785736
7.1444e-05
0.0189664
8.15808e-05
1.18795e-05
2.42863
5.39384e-05
5.78494e-05
0.0178046
0.000148623
3.4336e-05
1.31581
4.7285e-05
0.0331025
8.82595e-05
0.0037043
0.0026365
0.00237194
0.000154654
0.000132439
0.0217557
3.05659e-05
6.26841e-05
0.00205639
1.75221e-05
0.000128025
1.73491e-05
6.55074
3.65041
0.980001
9.9911e-06
0.005877
2.13526e-05
5.25185
0.165488
0.134601
0.00186847
0.000128863
3.97808
3.56095
2.00687e-05
0.000136409
0.00179099
7.31946e-05
0.0836639
1.85256
2.533e-05
0.0063684
4.35794e-05
1.17349
0.84842
9.08149e-05
0.00668276
5.93231
6.34279e-05
4.20525
5.44992e-05
1.72341
3.95556e-05
0.000461752
0.000141383
6.1721
0.00838454
0.00919988
8.82942e-06
0.936336
0.98619
6.72006
9.73915e-06
3.68671e-05
0.000848555
1.16301
8.81088e-06
0.00579079
4.49766e-05
0.0011384
5.43715
7.86042e-06
0.00527042
1.76796e-05
3.43259e-05
0.00234908
2.12214
0.000154203
0.0118834
4.17204e-05
9.98382e-05
4.05426
6.71938
1.21361
0.000603781
0.00259785
0.20969
0.000641088
0.000226956
2.41796e-05
1.26211e-05
2.61519
6.25982e-05
0.000149028
0.00826826
0.000190929
0.000266895
0.000188179
9.03547e-05
0.0231596
4.43507e-05
2.27665e-05
0.00152969
1.00378
8.52515e-05
3.26478e-05
1.40872
0.00228536
1.1191e-05
0.000137057
0.0401178
3.06487e-05
0.00018546
8.47455e-06
0.000910653
4.08068e-05
4.83938e-05
0.00844874
2.38187e-05
0.000210029
0.00103329
0.000648713
1.61302e-05
0.000188053
1.50461
0.000115491
1.46696e-05
3.07002e-05
2.71601e-05
0.000163965
2.08927e-05
1.8956
7.73366
0.0020531
2.50134
1.28191e-05
9.86127e-06
1.75584e-05
1.81981e-05
0.000203273
2.10928e-05
0.000844308
0.000207513
1.11145e-05
4.65765e-05
0.0182172
0.00465446
0.000265291
0.00817973
6.09155e-05
0.000131833
1.27995e-05
0.000716271
0.0066443
1.78287
0.0227206
0.0552345
1.91714e-05
1.00474e-05
3.94411e-05
0.000140807
7.49571e-06
6.75363
5.7643e-06
0.00123488
2.91194e-05
1.30341
0.00392747
3.82527
4.42056e-06
1.81299e-05
1.1681e-05
3.72066
1.12343
0.00585553
0.00062432
1.88497e-05
9.28984e-06
0.000101032
2.38074
4.98601e-06
2.45593e-05
0.00664733
5.92272e-05
6.46199e-05
1.22832e-05
3.28412e-05
0.000656473
0.000142518
1.77214e-05
2.29496e-05
0.000404804
5.16127e-05
0.675281
4.24647
3.30692e-05
0.0198608
4.07078e-05
3.71496
1.32187e-05
3.62724e-05
2.89514e-05
1.68407e-05
0.00864267
0.000139774
6.43775e-05
2.61542e-05
0.001452
2.67745e-05
0.000129883
8.23266e-05
3.59793
0.0154448
0.00141567
6.00268
0.0221799
0.919053
4.29304
6.84623e-06
1.93483e-05
1.64636e-05
1.93808e-07
7.82411e-05
0.010177
0.000202184
5.12572e-05
0.000906473
1.2589e-05
6.39844e-06
0.00437996
3.85799e-05
1.01745e-05
1.58053e-05
0.00135197
0.00209509
3.90879
1.06668e-05
1.22395
0.0242107
0.712272
0.00137602
3.77322
5.11199
0.0790429
8.65497e-06
0.000148524
1.64355e-06
0.00109361
4.96361e-05
0.0034321
0.444206
2.7817e-05
0.0905652
0.00582665
1.37181e-05
1.47812e-05
7.94989e-05
7.55113
1.18982
2.40811e-05
0.0285344
0.0260264
0.000803181
1.5009
2.62495e-09
2.47255e-05
0.00481262
4.78373e-06
0.305419
0.00446357
3.93202
0.0237991
1.1839e-05
0.0241361
2.99737e-05
2.64716e-06
0.00542527
0.00023235
0.000529501
2.02592e-05
4.11421e-05
0.00533177
0.000156818
1.21423e-05
4.93335e-05
8.19954e-05
0.00288448
6.01683e-05
2.47589
0.0206028
6.45399e-05
0.0103302
0.000109322
0.194658
0.000175172
1.85394e-05
6.1486e-05
0.00209437
0.00186006
6.1084e-06
7.57293e-05
6.19654
1.005
0.0209169
0.000145405
0.00608612
0.0031113
0.0334868
1.10097
0.00625259
0.000248347
4.02712e-05
3.98361
3.15116e-05
1.29669e-05
0.000842858
1.8852
3.2088
3.4257e-05
8.48266e-05
1.2297
1.52951e-05
1.72191
1.19949
7.13668e-05
3.46494e-05
5.77989
0.480823
0.413841
4.21757e-05
1.77103e-05
1.74014e-05
0.00465159
0.0081647
4.34175e-05
1.30923e-05
7.18427e-05
0.0182533
6.4274e-05
0.0042909
0.501103
1.00396e-05
3.70573e-05
0.468477
1.30241e-05
0.00113046
4.12877e-05
0.00181463
2.60942e-05
1.21891e-05
0.00309599
8.60334e-05
2.85601e-05
3.34497e-05
0.00211003
0.00120686
4.77159
1.26342e-05
2.12271e-05
4.87841e-05
0.0131134
0.201337
2.14927
2.42486e-05
0.00159601
0.0194193
1.61851e-06
1.10688e-05
0.000131333
3.71866
3.47955e-05
0.171863
0.000167379
7.15052e-06
0.00923801
0.000135569
0.170418
0.166096
0.00621482
2.6197
3.32856
7.3535
1.39889e-05
2.33361
0.00995586
5.08228e-05
0.0200742
5.35451e-05
0.000133292
0.0582785
0.000129506
0.000394894
0.00185947
1.21955
7.31295e-06
4.6201e-06
2.05575
0.000166429
0.000194175
0.0171377
0.594073
0.00725936
2.44648e-05
0.00121982
6.08327
3.97149
0.00418881
0.000926211
1.14641
0.000212056
1.72102e-05
0.007201
1.05417
1.90338e-05
0.00189154
8.97082e-05
1.04418
0.00018373
0.00840372
0.34359
5.4033e-06
0.000101576
2.73825e-05
1.13265
0.00755012
1.37338
0.775656
0.000176241
0.00279194
0.00497669
0.000554981
0.380113
0.000493283
1.85647e-05
0.000160176
0.000113474
1.67737e-05
0.00632696
3.76115
5.0927e-05
1.20855
6.96092e-05
0.0423905
1.37529e-05
5.72559e-05
1.16717e-05
2.11615
1.33549
0.00211746
0.00132386
2.67285e-05
2.83425e-05
0.0316931
7.17654e-06
0.00833692
0.00589014
3.52381
3.67899e-05
0.00136912
0.0343357
0.000170436
0.000199308
0.000231457
3.49652
3.72609e-05
0.000614045
0.0376925
0.0213416
3.29368e-05
0.00055651
8.67868e-06
8.10039e-05
4.52245e-05
3.48573e-05
0.000710433
2.12102e-05
0.00166475
1.1145
0.17452
2.138
5.37959e-05
0.00122175
0.00560099
4.60562e-06
0.606523
0.000113461
0.000246667
4.00475
0.000173797
0.00349934
0.000196441
9.89065e-06
0.9703
1.4969e-05
0.00128644
2.26955e-05
0.0247167
0.0298173
2.09735
1.02332e-05
0.0299966
2.92495e-05
0.00214385
0.000147479
1.45894
0.00597347
0.00112761
5.89522
5.16647e-05
6.2403
8.15108e-05
0.83173
0.000257447
1.36088e-05
3.62761e-05
0.00940008
0.0199362
3.15665e-05
2.74265e-05
0.079021
1.63236e-05
2.46375e-05
1.09849e-05
2.21856e-05
9.42091e-05
6.38268
0.000201508
6.95378e-05
0.0262464
0.0021883
7.34123
1.73107e-05
3.85606e-05
3.44075e-05
0.000171734
0.000236869
0.00013587
3.56983
0.000208709
0.00824292
1.84527e-05
0.000641326
0.0109815
1.25786
3.94195e-05
2.43744e-05
7.85918e-05
0.00022602
2.6737e-05
0.0021083
4.76353
0.00952793
0.00212478
2.37582e-05
0.032914
3.36537
0.00154273
0.0364178
0.000177197
0.65235
3.9427
6.80938
0.000104416
0.000109806
0.000994192
1.37764
0.000189201
1.48829
0.00018439
0.00357266
0.87044
7.85761e-06
7.30629e-05
0.000258235
1.43129e-05
5.25816e-06
6.02314e-05
0.500207
8.46032e-06
2.03946
2.53117e-05
3.45743e-05
1.98316e-05
1.07976e-05
0.000736152
3.96532e-05
0.191034
0.00342912
9.00064e-05
0.000163617
0.781474
3.74474
1.72773e-05
3.66379e-05
8.43487e-05
0.00247925
0.00546333
0.00125775
2.90851
1.83068e-05
1.71356e-05
0.000832346
8.159e-05
0.00108422
0.0291881
2.7166e-05
2.75169e-05
6.52795e-06
0.000315524
0.00502344
0.775456
0.0297782
1.85406e-05
0.00117735
6.07722e-06
2.85601
3.26203
4.67126e-05
1.57628e-05
0.0854422
3.0251e-05
4.60221e-05
0.162168
0.515608
0.000120387
1.91508e-05
1.29653e-05
0.00465391
0.499612
2.3118e-05
7.84156e-06
0.375157
1.21191
1.23088e-06
3.22509e-05
1.59137e-05
7.21899e-05
0.0028693
0.000748567
5.88891e-05
0.0357115
0.000123093
4.79587e-05
6.58439e-05
0.000711197
3.50371e-05
4.81229
0.701828
3.67142
0.318546
0.00559666
0.03216
3.22215e-05
2.36012
0.000926422
1.44081e-05
0.000668173
5.55034e-05
0.000897178
4.17579e-05
6.29192e-05
1.66469e-05
1.48149
1.09342e-05
0.00200793
0.0306905
0.000254185
0.00132153
0.00231431
6.78849
1.91439e-05
5.20301
4.38468
0.000238442
3.38466e-05
0.000950661
0.00135491
0.00064024
0.0211513
1.07325
5.34593e-05
1.18287e-05
2.61553e-05
0.00838926
3.02381
0.000196498
0.000136071
1.33016e-05
1.70696e-05
0.000210415
0.00307599
1.50065e-05
0.000349269
0.000440681
1.00712
3.98127e-05
0.001003
7.49574
0.000126597
0.00174852
0.000698017
0.152973
0.00173778
0.00152686
0.000751795
5.07081e-05
0.323297
1.13538
8.59905e-05
0.00649365
0.018769
3.75794e-05
0.00029034
5.61922e-05
0.0110823
2.87362e-05
0.00121482
2.81095e-05
0.0296607
1.04918
0.0544228
0.906126
0.000190289
0.000204507
0.0731563
0.022591
0.000288663
0.000110932
4.93531e-05
3.76456
5.52237e-05
0.00114378
1.79516e-05
0.000128486
0.00717728
3.22461e-05
3.7386e-05
1.62839e-05
1.45416
0.0713992
8.40945e-06
0.000110976
5.41551e-06
3.73414e-05
0.000120878
0.358269
9.02763e-05
0.00500505
1.94389
0.0164388
1.23192e-06
0.0406458
0.422419
0.189994
0.713558
0.000325794
0.00365486
2.13965
1.70604