/*--------------------------------*- C++ -*----------------------------------*\
  =========                 |
  \\      /  F ield         | OpenFOAM: The Open Source CFD Toolbox
   \\    /   O peration     | Website:  https://openfoam.org
    \\  /    A nd           | Version:  10
     \\/     M anipulation  |
\*---------------------------------------------------------------------------*/
FoamFile
{
    format      ascii;
    class       volScalarField;
    location    "750";
    object      k;
}
// * * * * * * * * * * * * * * * * * * * * * * * * * * * * * * * * * * * * * //

dimensions      [0 2 -2 0 0 0 0];

internalField   nonuniform List<scalar> 
10435
(
0.900251
1.00338
0.930867
1.20431
1.5247
1.56999
0.887197
0.857153
0.822507
1.33178
1.15786
1.37459
1.06414
0.689696
0.706667
0.955759
0.674455
1.28264
0.806527
0.947554
0.892734
1.17157
0.998415
1.1349
1.23514
0.378732
0.504978
0.949396
0.450207
1.32349
1.24741
1.23921
0.843324
0.441608
0.988087
0.812281
1.0523
0.533593
0.288152
0.917037
1.44612
0.917435
0.562026
1.0847
1.11226
1.03841
1.5126
0.536746
0.769582
1.13686
0.888949
1.44618
0.280403
0.389395
0.30963
0.417661
1.10412
0.546774
0.595641
1.02461
0.305014
0.934426
0.531891
1.49749
1.05695
0.992922
0.544824
0.591801
0.863958
1.20766
0.385926
0.464865
0.419899
1.01092
0.728662
0.555944
1.25401
0.872112
0.817292
0.694751
1.2365
0.813529
0.273045
0.393181
1.26835
0.809974
0.883056
1.1022
0.757813
0.933359
1.16656
1.23658
0.856028
0.792469
0.986389
0.75878
1.29353
0.720864
0.624713
1.37928
0.738312
1.62255
0.835498
1.04246
1.64594
1.14464
0.902995
1.19155
1.28324
0.716935
1.07598
1.5726
0.775866
0.743928
1.33442
1.11307
1.41049
0.860611
1.10106
1.36879
1.41977
0.469181
0.914492
0.591778
1.31129
0.343421
1.3385
0.501044
1.46647
0.523673
0.546487
1.21613
0.92514
0.675586
0.499645
0.255714
0.686477
1.25842
1.03485
1.05424
0.998756
1.16779
0.508085
1.41437
1.22536
0.659913
0.635777
1.53119
0.671101
1.37932
0.488294
1.16762
0.927264
1.36119
1.4489
0.434076
1.40616
0.972608
1.40183
1.03031
1.2785
0.658299
1.24817
1.3246
0.753372
1.46649
0.860527
1.33494
1.30309
1.46835
1.30773
0.363322
0.45746
0.682894
1.33345
0.94765
0.870579
0.633977
1.01447
0.484002
1.07782
1.61172
1.38719
0.32651
1.22627
0.489191
0.49715
0.873414
1.56191
1.42796
1.40486
0.268579
0.502064
0.742639
1.49738
0.868211
0.628466
0.764042
0.59289
1.0048
0.762827
0.525174
0.997736
0.546625
0.970641
1.37236
1.17241
1.30284
0.534638
1.2697
0.434488
0.959594
1.43324
1.33751
0.49483
0.684537
0.782119
0.325217
0.382389
0.642185
0.455997
0.65127
0.549374
0.653457
0.413533
0.954402
0.331975
0.727656
1.34054
0.573206
0.625985
0.90322
0.355577
1.22093
0.54507
0.657596
1.1676
0.412714
1.22541
1.25005
1.02891
0.37502
0.343445
0.412199
1.31387
0.820697
0.710543
0.84914
0.362936
0.872801
0.366071
0.797472
1.13802
1.30305
0.855785
1.51453
0.328155
0.860571
0.399134
0.523249
0.866887
1.34257
0.374145
1.29196
0.816655
0.628374
0.976515
1.11749
0.302038
1.4239
0.87554
0.832671
0.846618
1.14284
0.411971
1.38519
0.525138
1.46669
0.907507
0.82389
1.17637
0.626652
0.884305
0.70657
0.836455
0.291892
1.57556
0.309269
0.395636
0.460529
0.668693
1.12094
0.524592
0.838822
0.293048
0.381287
0.641817
0.856408
1.39481
1.17136
0.601528
1.26546
0.894096
0.397752
1.31889
0.701346
0.658989
1.26297
1.09181
0.39469
0.9563
0.492109
0.804595
1.5669
0.876949
0.385197
0.33931
1.34838
0.601703
1.35791
1.64549
0.497247
0.880281
0.264241
0.8121
1.03685
0.444757
0.91002
0.590636
0.54045
0.932454
0.478116
0.390728
0.897117
1.31247
0.558756
0.389062
0.374767
0.406435
0.440222
0.469129
0.450904
0.299446
0.457327
0.439929
0.477622
0.568001
0.55072
0.260132
0.798023
0.392771
1.0685
0.489888
0.935472
0.798005
0.742839
1.03569
1.05241
0.402307
0.422278
0.381456
0.350726
0.426628
0.29564
0.480704
0.487984
0.569401
1.34151
0.47721
0.787805
0.329373
0.509
1.06746
0.711772
0.296565
0.505654
0.527529
0.527704
0.421995
0.408626
0.596029
0.318869
0.823948
0.567143
0.843599
0.782578
0.969985
1.00935
0.766758
0.919012
0.927946
0.602309
0.420849
0.433766
0.39141
0.903647
0.413725
1.09184
0.579633
0.49652
0.521471
0.506002
0.360243
0.909181
0.528626
0.835259
1.29145
0.366384
0.435351
0.551773
0.734889
0.557859
0.456892
0.395437
0.422577
0.562562
0.464617
0.928969
0.38724
0.440422
0.460337
0.445733
1.17285
0.302997
0.26625
0.674185
0.413488
0.0826764
0.0802865
0.077188
0.0736582
0.0699533
0.0659072
0.0615052
0.0566396
0.0512334
0.0838809
0.0811758
0.0777527
0.0740245
0.0701453
0.0660481
0.0616852
0.0570347
0.0521377
0.0847532
0.0816979
0.0779833
0.074067
0.0700522
0.0658959
0.0615639
0.0570721
0.0525212
0.0854211
0.0820081
0.0780217
0.0739331
0.0697977
0.0655834
0.0612703
0.0568891
0.0525399
0.0859767
0.0822456
0.0780038
0.0737495
0.0694978
0.0652228
0.0609123
0.0565978
0.0523524
0.0865333
0.0825455
0.0780579
0.0736343
0.0692605
0.0649157
0.0605915
0.0563169
0.0521541
0.0872717
0.0830425
0.0783005
0.0736938
0.0691854
0.0647587
0.0604071
0.0561619
0.0520888
0.0884828
0.0838609
0.0788306
0.0740198
0.0693627
0.0648401
0.0604468
0.0562192
0.0522303
0.0903116
0.0850733
0.0797257
0.0746942
0.0698767
0.0652431
0.0607891
0.0565519
0.0526064
0.0925958
0.0866819
0.0810463
0.0757965
0.0708131
0.066054
0.0615167
0.0572355
0.0532745
0.0950045
0.0886485
0.0828472
0.0774131
0.0722686
0.0673721
0.0627295
0.058375
0.054366
0.0971753
0.0909676
0.0852089
0.0796552
0.074364
0.0693226
0.0645561
0.0601063
0.0560394
0.0987143
0.0938026
0.0883035
0.0826935
0.077265
0.0720672
0.0671547
0.0625824
0.0584324
0.101753
0.0978094
0.0924905
0.0867953
0.0812005
0.0758141
0.0707176
0.0659808
0.0617005
0.107637
0.103693
0.0982114
0.09229
0.0864474
0.0808096
0.0754681
0.0704991
0.0659938
0.116939
0.111882
0.105807
0.0994719
0.0932713
0.0873004
0.0816421
0.0763747
0.0715875
0.129099
0.12228
0.11536
0.108493
0.10185
0.0954756
0.0894329
0.0838023
0.0786869
0.142161
0.134243
0.126665
0.119318
0.112235
0.105437
0.0989717
0.0929168
0.0873836
0.155332
0.147255
0.139445
0.131822
0.124405
0.117237
0.110368
0.103871
0.0978512
0.168858
0.161299
0.153627
0.145958
0.138371
0.130954
0.123763
0.116874
0.110397
0.183528
0.176758
0.169403
0.161845
0.154256
0.146746
0.139369
0.132182
0.125293
0.200259
0.194159
0.187087
0.179704
0.172264
0.164848
0.157479
0.150174
0.143021
0.220064
0.213992
0.206968
0.19976
0.192619
0.185522
0.178427
0.171282
0.164161
0.243973
0.236524
0.229138
0.222116
0.215464
0.20897
0.202489
0.195867
0.189154
0.272518
0.261456
0.253463
0.246794
0.240917
0.235361
0.229903
0.224288
0.217847
0.125674
0.125491
0.126133
0.12761
0.129927
0.133067
0.137004
0.141691
0.147081
0.153103
0.159686
0.166747
0.174188
0.181917
0.189817
0.197773
0.205656
0.213329
0.22065
0.227479
0.233665
0.239045
0.243389
0.246284
0.247697
0.247892
0.246937
0.244716
0.241167
0.236626
0.231211
0.224957
0.217914
0.210231
0.20205
0.193512
0.18476
0.175931
0.167159
0.158566
0.150252
0.142293
0.13472
0.127546
0.120798
0.114515
0.108738
0.103514
0.0988796
0.0948655
0.0914771
0.0886949
0.0864825
0.0847858
0.0835522
0.0827279
0.082269
0.0821376
0.0823031
0.128701
0.128834
0.129754
0.131478
0.134009
0.137332
0.141418
0.146223
0.15169
0.157742
0.164285
0.171203
0.178351
0.185651
0.193018
0.200359
0.207569
0.214538
0.221151
0.227288
0.232828
0.237641
0.241581
0.244463
0.246118
0.246451
0.245445
0.243156
0.239725
0.235308
0.23
0.223867
0.216986
0.209455
0.201391
0.19292
0.184171
0.175274
0.166352
0.15752
0.148878
0.140508
0.132477
0.124846
0.117687
0.11108
0.105097
0.0998102
0.0952441
0.091379
0.0881675
0.0855572
0.0834917
0.0819128
0.0807661
0.0799979
0.0795595
0.0794143
0.0795273
0.129879
0.130259
0.131343
0.133136
0.135632
0.138811
0.142645
0.147094
0.152109
0.157637
0.16361
0.169954
0.176583
0.183404
0.190324
0.197243
0.204057
0.21066
0.216938
0.222775
0.228045
0.232616
0.236339
0.239059
0.240648
0.241026
0.240166
0.238092
0.234886
0.23066
0.225515
0.219538
0.212817
0.205449
0.197543
0.189213
0.180578
0.171756
0.162862
0.154005
0.145285
0.136798
0.128637
0.120896
0.113672
0.107059
0.101134
0.0959473
0.0915108
0.0877981
0.0847567
0.0823132
0.0803919
0.0789257
0.0778526
0.0771202
0.0766858
0.0765177
0.0765853
0.126514
0.126899
0.127958
0.129691
0.132085
0.135118
0.138753
0.14295
0.147661
0.15283
0.158399
0.164301
0.170466
0.176817
0.183273
0.189746
0.196142
0.202362
0.208296
0.213829
0.218838
0.223193
0.226758
0.229398
0.230997
0.231473
0.230786
0.228947
0.226011
0.222059
0.217183
0.211475
0.205029
0.197943
0.190321
0.182272
0.173904
0.165328
0.156654
0.147987
0.139434
0.131099
0.123091
0.115517
0.108484
0.102083
0.096387
0.0914321
0.087219
0.0837136
0.0808603
0.0785837
0.0768021
0.0754397
0.0744339
0.0737362
0.0733092
0.0731263
0.0731632
0.120348
0.120707
0.121708
0.123349
0.125617
0.128487
0.131925
0.135887
0.140325
0.145187
0.150414
0.155948
0.161724
0.167674
0.173725
0.179797
0.185806
0.191656
0.197246
0.202467
0.207202
0.211328
0.214721
0.217262
0.218847
0.219402
0.218882
0.217285
0.214642
0.211012
0.206472
0.201106
0.195009
0.18828
0.181019
0.173331
0.165323
0.1571
0.148771
0.140443
0.132227
0.124233
0.116574
0.10936
0.102691
0.0966533
0.0913027
0.0866644
0.0827287
0.0794565
0.0767882
0.074653
0.0729784
0.0716972
0.0707512
0.0700933
0.0696871
0.0695068
0.0695284
0.111659
0.111912
0.11278
0.114263
0.116348
0.119011
0.122217
0.125924
0.130085
0.134647
0.139555
0.144752
0.150178
0.155768
0.161454
0.167162
0.172813
0.178317
0.183581
0.188504
0.192977
0.196886
0.200119
0.202568
0.204139
0.204762
0.204394
0.203023
0.200668
0.197373
0.193201
0.188231
0.182553
0.176265
0.169465
0.162256
0.15474
0.147019
0.139202
0.131395
0.123706
0.116241
0.109107
0.102407
0.0962318
0.0906528
0.0857167
0.0814395
0.0778076
0.074782
0.0723062
0.0703157
0.0687451
0.0675395
0.0666489
0.0660304
0.0656481
0.065478
0.0654985
0.100969
0.101091
0.101794
0.103081
0.104941
0.107353
0.110286
0.113701
0.117553
0.121792
0.126366
0.131221
0.136298
0.141537
0.146874
0.152238
0.157554
0.162737
0.1677
0.172345
0.176572
0.180277
0.183358
0.185718
0.187269
0.187948
0.187715
0.186556
0.18448
0.181519
0.177733
0.173192
0.167988
0.16222
0.155979
0.149369
0.142484
0.135423
0.128293
0.121192
0.114213
0.107452
0.100999
0.0949417
0.0893569
0.0843018
0.079815
0.0759096
0.072575
0.0697801
0.0674791
0.0656183
0.0641437
0.0630049
0.0621584
0.0615679
0.0612049
0.0610477
0.0610756
0.0880006
0.0879235
0.0883933
0.0894179
0.0909926
0.0931012
0.0957165
0.0988039
0.102321
0.106221
0.110457
0.114972
0.11971
0.124613
0.129621
0.134674
0.139703
0.144617
0.149333
0.153749
0.157769
0.161294
0.164245
0.16654
0.168084
0.16883
0.168738
0.167798
0.166001
0.163376
0.159985
0.155898
0.151225
0.146064
0.140486
0.1346
0.128497
0.122261
0.116004
0.109792
0.1037
0.0977994
0.0921588
0.0868472
0.0819268
0.0774371
0.0734186
0.0698806
0.0668212
0.0642237
0.0620602
0.060295
0.058888
0.0578013
0.0569996
0.0564511
0.0561292
0.0560137
0.0560831
0.0720548
0.0716683
0.0718043
0.0724886
0.0737275
0.0755054
0.0777892
0.0805258
0.0837159
0.0873546
0.0913236
0.0955681
0.100016
0.1046
0.109307
0.114075
0.118899
0.123729
0.128359
0.132637
0.136492
0.13986
0.142711
0.144964
0.146553
0.147419
0.14753
0.146865
0.145375
0.143065
0.140062
0.136456
0.132377
0.127924
0.123159
0.118086
0.112836
0.107657
0.102502
0.0973476
0.0922971
0.0873956
0.0826751
0.0781713
0.073923
0.0700015
0.0664363
0.0632724
0.0604952
0.0580567
0.0559555
0.0542046
0.0528031
0.0517305
0.0509521
0.0504484
0.0501963
0.0501721
0.0503501
0.397628
0.367757
0.341566
0.31727
0.294166
0.272067
0.250994
0.231071
0.212367
0.194916
0.179604
0.167179
0.157749
0.150851
0.145259
0.140366
0.136195
0.132819
0.130437
0.129202
0.128927
0.129095
0.129169
0.128597
0.126727
0.377578
0.358071
0.335922
0.313122
0.290475
0.268403
0.247212
0.227121
0.208337
0.191184
0.176125
0.163457
0.153191
0.145094
0.138768
0.1339
0.130311
0.127891
0.126567
0.12625
0.126773
0.127844
0.129072
0.129949
0.129751
0.373304
0.352889
0.33075
0.307915
0.285065
0.262704
0.241224
0.220931
0.202128
0.185139
0.170232
0.157533
0.147024
0.13858
0.132029
0.127208
0.123965
0.122144
0.121576
0.122071
0.123414
0.125317
0.1274
0.129184
0.130068
0.371814
0.348747
0.325207
0.301535
0.278135
0.255397
0.233678
0.2133
0.194563
0.177733
0.162985
0.150378
0.13988
0.131415
0.124891
0.120209
0.117243
0.115832
0.115759
0.11679
0.118659
0.121042
0.123528
0.125615
0.126668
0.37058
0.3449
0.319542
0.294643
0.270447
0.247225
0.225257
0.204815
0.186148
0.169461
0.15487
0.142403
0.132024
0.123674
0.117283
0.112773
0.110025
0.108881
0.109099
0.110418
0.112524
0.11505
0.117559
0.119566
0.12055
0.368566
0.340537
0.313308
0.287075
0.262012
0.238285
0.216075
0.195579
0.176986
0.160439
0.14602
0.133734
0.123541
0.115379
0.109178
0.104852
0.102275
0.101284
0.101627
0.103018
0.105119
0.107537
0.109828
0.111524
0.112139
0.366051
0.335585
0.306378
0.27876
0.252829
0.228616
0.20618
0.18564
0.167121
0.15072
0.13649
0.124425
0.11447
0.106545
0.100563
0.0964167
0.0939661
0.0930359
0.0933665
0.0946603
0.0965581
0.0986568
0.100512
0.101697
0.101784
0.363449
0.329896
0.298512
0.269528
0.242808
0.218181
0.19556
0.174988
0.156551
0.140304
0.126282
0.114472
0.104811
0.0971676
0.0914276
0.0874562
0.0850886
0.084136
0.0843414
0.0853948
0.0869188
0.0885072
0.0897093
0.0901137
0.0893545
0.360132
0.322945
0.289353
0.259181
0.231867
0.206964
0.184242
0.163636
0.145268
0.129187
0.115372
0.103854
0.0945744
0.0872608
0.0817846
0.0779853
0.075651
0.0745913
0.074573
0.075278
0.0762745
0.0771829
0.0774736
0.0765896
0.0742914
1.12223
1.09422
3.23604
0.262909
0.037324
0.0445614
0.914389
0.019687
3.56874
0.0441265
2.98659
0.032539
0.392904
0.0253981
1.14805
0.0589998
5.13609
0.244547
0.043818
0.626705
0.233559
0.0615577
3.24321
0.104916
0.017554
0.0228796
0.0176661
0.162165
1.18825
3.96558
0.0462655
0.0285402
2.95495
0.511772
3.60004
0.0309839
0.978884
1.15645
1.07709
0.0561437
3.20868
0.00430919
0.0420907
0.437205
0.160172
0.0992839
3.90813
4.01163
1.47119
1.99995
3.71525
2.47618
0.29804
0.229193
0.869432
3.33079
0.0226475
0.261396
0.0179451
2.00078
0.0444083
3.09195
0.0362948
0.0648756
0.0200594
0.408789
0.0467941
0.208755
0.41007
1.79177
3.16425
0.079722
0.0248062
0.665614
0.0181623
0.232005
0.79402
3.80161
0.0132632
0.21234
0.47012
0.0645786
0.0224509
3.00138
0.0388626
0.0471233
0.0237117
3.68556
2.94583
0.0797921
0.107029
0.0575356
0.0544645
0.0341611
0.0272483
2.99841
0.0228644
3.21775
0.0105848
1.92397
0.093463
3.2036
0.104043
0.0854814
0.0181127
0.149143
3.28991
0.452026
0.0193224
4.05115
0.0590964
0.0261591
3.46004
0.0833439
0.287241
1.46306
2.5127
0.0536772
0.340021
0.0178487
0.000717999
0.0251221
0.103738
0.0173657
3.03428
0.0397174
2.54301
0.460544
0.0130567
4.01061
0.0215086
0.665314
1.80462
0.923613
0.228656
0.0237104
0.152019
0.0662998
0.0405617
0.650612
0.0735133
0.986919
2.16178
0.0012974
1.311
0.0746956
0.291358
0.407423
0.0578541
3.89745
0.24416
0.0252334
0.286694
1.40727
0.0186934
2.9306
0.0194344
0.0532377
1.06826
0.0343443
0.0433335
3.4004
0.0448071
3.34929
0.052405
3.41794
0.027591
0.017791
0.0901286
0.0198623
0.022771
0.0708442
0.216908
3.16816
0.0506507
0.162347
0.494589
1.52734
1.48652
0.0737349
0.732763
0.0269871
0.309373
0.741525
0.365005
0.012419
3.60662
0.019764
2.26504
0.0491635
3.28922
2.05767
0.88174
0.944643
1.23244
2.51308
0.0180104
0.0593619
1.39351
1.01988
0.498
0.113181
0.0590923
0.0518449
0.133679
0.0440138
0.0481293
0.101214
1.62297
0.0509074
0.017866
0.0339319
0.721625
0.12181
0.327014
3.62392
0.0263587
0.0134677
0.114977
0.107464
0.0680519
0.0047288
0.0188001
2.51327
0.0805989
2.59782
0.0741583
5.11119
0.0177121
0.0263632
2.79222
0.0314543
0.0259928
0.0171144
1.05512
0.0453409
1.12455
0.103293
0.783363
1.4622
0.0450417
0.0442575
0.0478017
0.289601
0.0241688
0.0232376
0.0297785
0.221004
0.0572619
0.0340201
0.015995
0.176402
0.0436702
1.5107
0.0192694
0.0178057
3.46672
0.816112
1.09226
0.0441768
0.210327
0.0135344
0.0356984
0.0183461
0.689576
0.0170768
0.0419596
0.325939
0.900964
0.0178057
0.277075
0.944878
0.01302
0.0128098
0.044644
0.332252
0.0504016
4.68365
0.0249904
2.67175
0.477976
0.265591
0.182319
0.0977057
1.45274
0.0471555
0.157074
0.128848
3.58013
3.48208
1.30653
0.0486083
0.00296996
3.73417
0.783045
3.56759
3.42148
0.0541106
0.036138
1.55234
2.34599
0.0444533
0.0566479
0.0562067
3.48104
0.0443216
0.226588
0.04589
0.649331
0.0625218
0.081996
0.0704074
2.58657
0.0128204
0.0123634
0.950442
4.12275
0.0441262
0.0175534
1.09061
1.03065
0.0332507
0.058297
0.0451149
0.0245241
0.0169866
2.44949
0.464545
0.0539794
0.266269
0.0516332
1.21506
0.0548751
0.0447294
3.36191
0.0509662
0.0260537
0.023844
0.00772874
0.206414
0.0349386
0.0312495
1.53132
0.0677852
0.689291
0.0258862
0.047136
0.0189107
0.0229458
3.82857
0.592807
0.0544265
0.0081452
1.06303
3.74799
0.0735192
1.20299
0.421911
0.045709
4.06226
1.67272
3.22532
0.0269716
2.53086
0.00351514
0.0224303
0.0781486
4.13032
0.0335093
2.16485
0.0809335
1.39355
1.22104
3.91695
0.394127
0.0165795
0.017779
0.0611096
0.0309963
0.0444625
3.40198
0.0634462
3.06123
0.489131
0.449194
0.990955
0.0551352
0.619977
2.92608
3.30368
0.503229
0.0432494
0.139425
3.11955
0.693509
0.043674
0.0429386
3.01882
0.0523978
1.23341
0.019966
0.0428304
0.0382081
1.69604
0.029591
0.000238014
1.00962
0.14956
0.580034
0.0442544
1.56291
0.0341987
1.48906
0.038946
0.0291532
0.0421587
1.45801
3.82957
0.0410631
0.0562971
0.0559918
0.0330923
0.0839015
0.115197
0.0827738
3.14468
0.00481153
0.0686464
0.0465104
0.029149
0.0478544
0.0178777
0.0827031
0.0136323
1.2007
0.0727609
0.0594324
0.0025601
0.0190845
0.0472937
0.0341239
1.47159
3.69483
0.48875
0.426754
1.30639
0.121611
1.47801
0.0173844
0.0129576
3.82639
0.0387885
0.0433181
1.48218
0.0691027
1.72858
3.8959
0.0469507
0.111667
0.519856
0.0503745
0.350101
1.45537
0.669989
2.79139
0.0209511
0.0204658
2.80186
0.0325327
2.97155
0.20251
0.0211822
3.25183
0.046384
0.017327
0.452268
0.0764034
0.0193069
0.438536
0.365416
0.332384
1.07733
0.00144101
0.0313296
2.92739
0.0323831
0.062534
0.0917848
1.78293
0.0739961
1.18434
0.0490857
0.0174926
2.9644
0.0320729
0.0233095
1.15353
0.0446548
0.0528826
2.0881
0.0435121
1.23684
0.0358591
0.234057
0.471083
0.561372
0.0495203
0.048222
1.0039
0.0283447
0.0569321
0.514726
0.0496029
0.0718475
0.0119215
4.11451
3.47158
1.46428
0.0167122
0.313719
0.054848
3.46747
0.634726
0.463273
0.511271
0.100659
2.98883
3.29466
0.0438863
0.0837571
0.165933
0.0773587
0.393423
2.32153
0.019001
0.578566
0.0427965
1.58067
1.48147
0.0526084
1.05472
4.494
0.0592198
3.35776
0.00992678
2.09808
0.0338652
0.0546062
0.0442177
4.90687
1.02864
1.06901
0.0130338
1.56687
1.493
4.15498
0.0185166
0.0657627
0.366589
1.74036
0.0475553
0.918286
0.043873
0.41265
4.16979
0.043638
0.314571
0.0164424
0.0293107
0.23939
2.68362
0.109266
1.0555
0.0216301
0.0350389
3.55308
4.03765
1.79581
0.0668009
0.252521
0.653961
0.308458
0.10915
0.0561559
0.0196278
3.05386
0.0577397
0.0439497
1.16898
0.100921
0.0633341
0.0515843
0.0616802
1.27752
0.070668
0.0169983
0.46345
1.47853
0.0331854
0.0268083
1.5776
0.156981
0.00417488
0.0666257
0.441687
0.0206942
0.0494198
0.0430696
0.115673
0.0368591
0.0448669
1.07251
0.0227364
0.0854918
0.126644
0.283983
0.0203267
0.0470596
1.90551
0.0751792
0.019947
0.0327508
0.0631219
0.0424341
0.0253987
1.82085
4.36447
0.146159
3.01039
0.0199116
0.0178265
0.0201315
0.0090794
0.0749756
0.0172647
0.292762
0.0782011
0.0188384
0.0221402
1.06657
0.301803
0.037491
0.399307
0.0566012
0.0416272
0.0159637
0.12429
0.564047
1.76172
1.27553
1.09204
0.0104483
0.044297
0.00694759
0.105783
0.0428773
4.05722
0.0459031
0.226201
0.0289451
1.85158
0.182404
2.94003
0.00201108
0.0204752
0.0189521
3.35571
1.68127
0.322137
0.300007
0.0241466
0.0456215
0.0360476
2.17273
0.00249197
0.0281112
0.973741
0.029202
0.0835651
0.0442142
0.0121839
0.291478
0.0650085
0.0230654
0.0404236
0.048385
0.0595738
1.36692
3.40218
0.0292856
1.05671
0.0412582
2.98199
0.0199619
0.066587
0.0343474
0.0202819
1.17717
0.0424235
0.0592638
0.0182688
0.192374
0.0205679
0.0947723
0.0807161
2.70468
1.07882
0.228071
3.80919
1.19843
1.86604
3.51995
0.0442281
0.0196357
0.0203648
0.000513592
0.0460733
0.466859
0.0680423
0.0281175
0.377084
0.0507865
0.0460076
0.293111
0.0370404
0.0468114
0.0207948
0.228602
0.511689
3.41078
0.0452874
1.64721
0.78924
1.47828
0.235592
3.36483
3.57972
0.384446
0.0124569
0.0546263
0.00116375
0.168189
0.0398317
0.700051
1.46337
0.0620517
1.0234
0.504116
0.0183278
0.0205537
0.0343995
4.28149
1.64433
0.0249582
0.924956
1.3888
0.337282
1.96661
3.28507e-05
0.0322305
0.307809
0.0026736
1.37789
0.608159
3.24981
1.3267
0.0177598
1.34325
0.0165122
0.00224789
0.315923
0.058402
0.0759959
0.0327515
0.0405641
0.409395
0.0551717
0.0163616
0.0449117
0.0442426
0.273984
0.0542999
2.27789
1.16763
0.0602068
0.553545
0.0698603
0.664746
0.049493
0.0566372
0.0802386
0.325788
0.291325
0.00341967
0.0779175
3.85002
1.47163
0.72872
0.0426008
0.434494
0.678268
1.28022
1.53025
0.940052
0.0465478
0.0712833
3.23356
0.00924722
0.0196843
0.127069
2.55157
3.18706
0.0262557
0.0328271
2.00803
0.0195343
2.1082
1.81192
0.0756001
0.0257746
4.67567
1.34227
1.68781
0.048818
0.0289024
0.00815497
0.40054
0.997313
0.0401179
0.0194099
0.0250105
0.704887
0.0383062
0.310859
1.63261
0.0451753
0.0333955
0.872651
0.0465107
0.319112
0.0264226
0.297824
0.0458962
0.0187975
0.671836
0.0760935
0.0634281
0.0517358
0.19695
0.314564
3.50024
0.0151143
0.0423666
0.0385517
1.07577
0.657658
2.43561
0.0161082
0.487347
1.18601
0.00145843
0.0175089
0.030999
2.82031
0.0481684
0.780603
0.0683303
0.00296032
0.879625
0.051014
0.512253
0.504726
0.37357
2.29945
2.57486
4.23724
0.0468141
2.90402
1.00806
0.0769811
0.884214
0.0286923
0.0307381
0.57021
0.041183
0.100114
0.24555
1.65135
0.0133233
0.0103623
2.68006
0.0364473
0.0580208
1.05863
1.44398
1.03431
0.0585349
0.150174
3.82839
3.30135
0.80532
0.313312
1.98128
0.0500434
0.0126752
0.39701
1.48305
0.0465066
0.214267
0.0303317
1.64543
0.0734945
0.637314
1.64222
0.00215484
0.0296691
0.0597817
1.44474
1.06825
1.84448
1.38736
0.106918
0.182421
0.281882
0.109742
1.41506
0.251808
0.0284306
0.0491278
0.0402581
0.0101554
0.471343
3.01248
0.0257465
1.55057
0.0859213
1.13117
0.0515528
0.0287336
0.0190751
2.54769
1.9055
0.14807
0.292163
0.0263242
0.0179651
1.26819
0.0469437
1.18134
0.96397
3.67361
0.0257373
0.188351
1.2756
0.0590351
0.096222
0.0571754
3.61881
0.0520311
0.0812088
1.10656
1.05773
0.0202955
0.107991
0.0451243
0.0760609
0.0215451
0.0202209
0.273841
0.0163058
0.176592
1.48473
0.648818
2.58088
0.044957
0.156813
0.462737
0.0101123
1.27485
0.0376902
0.0445558
3.54629
0.0669626
0.27834
0.0484902
0.0179036
1.57494
0.0455179
0.18186
0.0111885
0.854436
0.971475
2.55528
0.0185531
0.849088
0.0273835
0.233854
0.0602623
1.7473
0.804064
0.168165
4.52506
0.0341556
3.87451
0.0364868
1.49283
0.0636638
0.0197713
0.0515077
0.675857
1.18592
0.0197712
0.0587057
0.611727
0.0270659
0.0612167
0.0185289
0.00996701
0.0554481
3.96516
0.0848739
0.0427973
1.36228
0.18598
4.22804
0.0100364
0.0685887
0.0247024
0.0598356
0.103357
0.0331857
3.31298
0.0647235
0.418502
0.0288081
0.114579
0.460026
1.58354
0.048387
0.05524
0.0621441
0.0983141
0.0340576
0.227419
3.26076
0.225278
0.263066
0.024671
1.30259
3.53574
0.148997
0.54998
0.0623978
1.47755
3.24648
4.05184
0.0370246
0.038512
0.12618
1.88114
0.110053
1.91718
0.0762771
0.295495
1.60973
0.0148544
0.0596598
0.0539656
0.0463145
0.0469327
0.0367801
1.40242
0.0443128
2.65784
0.0463413
0.0268909
0.0159308
0.0437206
0.308731
0.0293262
0.679195
0.537027
0.0340174
0.079545
1.44145
2.88326
0.0282213
0.037863
0.0790158
0.2424
0.198271
0.141257
2.4701
0.0217376
0.0484601
0.353207
0.0339846
0.12819
1.29563
0.0270808
0.022746
0.00347401
0.0435425
0.705053
1.23172
0.815457
0.0502048
0.130604
0.0465727
2.97047
3.12272
0.0463815
0.0473707
1.04505
0.0464138
0.0213985
1.4558
1.3415
0.0525765
0.0480476
0.016426
0.268209
1.55118
0.0266011
0.013825
1.58102
1.5833
0.00139143
0.0255628
0.0221553
0.0865064
0.270408
0.330804
0.0362437
1.24585
0.0400006
0.0746199
0.0299627
0.289069
0.0238019
3.51262
1.46506
3.76354
1.51211
0.896605
0.307662
0.0290039
2.60649
0.330413
0.0208338
0.133052
0.0281987
0.114639
0.0384026
0.0313763
0.0178406
2.06137
0.0175534
0.169612
1.26764
0.0442737
0.157744
0.242244
4.03895
0.0100054
3.67376
3.19903
0.0493689
0.0204143
0.134358
0.184105
0.113781
0.814407
1.52578
0.0765393
0.0183596
0.0475709
0.784915
3.02105
0.0704014
0.0701329
0.0178641
0.025289
0.0549939
0.202113
0.0468111
0.0586661
0.0733897
1.66361
0.0558229
0.147509
5.49397
0.0501734
0.177176
0.125008
0.485212
0.183738
0.19721
0.343497
0.044075
0.698934
1.5506
0.0330248
0.478945
1.1508
0.043889
0.0674188
0.0787826
1.02899
0.0279116
0.423168
0.0569566
1.27995
1.89096
0.486815
1.59028
0.067348
0.0524711
0.633623
0.775478
0.0657837
0.0838556
0.0323943
3.08438
0.0791895
0.159367
0.0198447
0.0988215
0.382502
0.0264205
0.0232985
0.0263172
1.90316
0.583136
0.0427675
0.0989583
0.0435965
0.0343041
0.0433933
1.52253
0.0910533
0.597489
2.60955
0.383839
0.00115543
0.874441
1.20939
0.653035
1.56015
0.0594268
0.752073
2.44037
1.7422
0.00803467
1.55491
0.046481
3.86559
0.136216
0.0467421
0.425932
1.07446
3.51376
0.617441
0.150671
0.0431265
0.878786
2.01916
0.116757
2.48569
0.0965246
0.648526
0.0522163
1.77285
0.142734
0.018382
0.0445342
0.565881
0.019819
0.0452967
0.623686
0.0302597
1.41466
0.014085
0.0548159
1.23081
0.833704
0.0729278
0.323382
1.23128
0.103262
0.34276
0.142347
0.0599094
0.204672
0.01903
1.71254
0.531227
0.011845
3.43862
0.0552338
0.257664
0.129556
0.0727239
0.0222457
0.237098
0.55765
0.972613
0.0191786
3.24823
0.0269331
0.339241
3.38243
0.216542
0.0897475
0.932369
0.0685813
0.0338756
0.00129769
1.10311
2.12642
0.0391766
2.7359
0.147006
0.0453077
0.880042
0.0560486
0.0338143
0.45691
0.085699
0.0326903
0.0866121
0.0250505
0.0602519
0.0918028
1.92991
1.90167
0.0927472
0.0487455
0.0185665
0.491858
3.29041
0.0324383
0.0140152
0.143774
2.80018
0.0148963
0.735767
0.441366
0.0199438
0.309754
2.68539
0.0299321
0.113337
0.0432613
0.156453
0.0294679
0.031427
0.0753061
0.232274
2.02065
0.0114366
2.54831
0.0194279
3.09545
0.0570999
0.886101
0.259468
0.668977
1.60726
0.0553581
0.355478
0.100797
0.0763097
0.0793111
1.66248
1.54958
0.0601227
0.0505795
0.261168
0.0810579
0.034612
0.0138968
3.59857
1.77475
0.520538
2.66737
0.0922124
0.0206757
0.545696
0.110823
1.5389
0.0101742
0.0678733
0.018275
0.0534402
0.0353888
0.0503352
0.0415112
0.202207
3.26135
1.84008
0.0495861
0.160226
0.357368
3.21577
0.0376503
3.54928
1.51771
1.94904
0.0736067
0.540987
0.0216883
0.0943414
0.0716627
0.0648548
0.0449625
1.46112
3.3961
0.0817828
0.15208
0.62708
0.171913
1.86179
4.10009
0.0492086
0.0129728
0.0516938
0.132411
0.614318
0.018246
1.72573
0.486745
0.0634906
0.0605705
0.0882838
0.293132
0.0969491
0.0210913
0.0580123
0.0299811
0.0804465
0.362429
0.0891921
3.78545
0.0673294
0.0465021
0.158163
0.0523864
0.0287598
2.7912
1.92036
0.0466472
1.99795
0.045213
0.878076
0.0741682
0.100715
0.0291336
0.0217262
1.67932
0.0575046
0.0793234
0.934391
1.3344
0.0440866
0.0480316
0.0433614
0.0871378
1.12135
0.0230723
0.0399128
2.84584
0.0414911
0.0459281
0.0746609
2.80597
0.0451142
1.95521
1.55295
0.0168423
1.09104
0.0795351
0.0104019
3.30263
0.254463
0.0445617
3.79506e-05
0.310483
0.0636032
0.108601
0.0190572
1.1233
4.80984
0.042395
0.0173504
1.4593
0.0630861
0.641779
0.714917
0.0566182
0.46812
3.28018
0.043605
0.560226
0.0589612
0.0668204
0.0939622
0.0335083
1.86505
1.46073
0.0561043
0.0467786
2.22276
0.0544479
0.0981904
0.0666005
0.465597
0.922135
0.0201272
0.0320701
0.0473988
0.0320879
0.020134
0.00108327
0.0440069
0.0948163
3.99309
0.325799
0.0373085
0.769401
0.0695487
0.628486
3.4921
0.746953
1.58408
0.0443086
0.000768422
0.327995
0.0971409
0.0523888
1.52595
0.0588076
1.208
1.84507
0.352393
0.0724392
4.36699
0.0204843
1.89543
0.0376635
0.0380581
1.10026
0.188107
0.628649
0.0492348
0.0344138
0.0127896
0.0789085
1.21667
0.662439
0.0624955
1.40538
0.247886
1.86881
0.0144101
3.21248
0.0558402
0.0449599
0.203658
0.0540237
0.273528
1.68268
0.346944
0.0224615
1.7322
1.21877
0.0975016
0.650338
0.380645
0.00889666
0.267321
1.78297
0.0453331
0.0264997
0.034758
2.51476
0.0355673
0.00986566
1.13829
0.332562
0.10156
3.31108
0.572063
0.135008
0.133782
0.941983
0.0594111
0.309969
0.0235228
0.0578559
0.0317239
3.6623
0.0585076
0.729266
1.94509
0.0175971
0.551796
4.88062
0.0618794
3.01104
0.0293403
0.281131
0.0916082
0.0167221
0.0714285
0.0462375
0.0210192
0.0648223
0.052526
0.0431791
0.0420345
1.68567
0.337471
0.0458295
0.26647
0.0307772
0.0387302
0.0260137
0.055005
0.0650177
1.34406
0.00962043
1.10814
1.94505
1.28627
0.824896
0.078736
0.0783585
3.53148
0.0352783
0.421421
0.054325
0.0270816
0.0974698
3.36478
0.062428
0.0420492
0.0305778
0.116085
0.0519438
1.23943
0.3172
0.908505
1.80662
0.0345505
0.0245342
0.311437
0.0470947
0.0582642
0.0174294
0.078029
0.0210885
0.0436648
0.0750803
0.00966273
0.7619
2.05476
0.819409
0.0615585
0.04496
0.602477
1.87678
1.61604
0.0212217
0.0421963
0.427849
0.0274405
0.0192588
0.0526144
1.44961
0.447329
0.0274596
0.0324091
0.0630831
0.017925
1.92716
0.0234905
0.0578948
0.0568681
0.0523015
1.72719
0.052462
1.4016
0.0363609
0.0503298
0.0174942
0.01806
1.78239
0.193438
0.0238634
2.74514
0.406184
0.341971
0.0139294
0.0360077
0.973096
3.14892
3.3033
0.027638
0.566338
0.0504295
0.0459087
3.83975
1.54111
0.0174958
0.0145236
0.704341
1.12789
0.0440398
0.0192542
1.67471
0.0312174
0.0636539
0.0904737
0.0560656
0.323459
0.0502188
0.0467238
0.0541912
1.50083
0.0431923
0.0210995
0.0328391
0.0726108
0.0822042
0.0641872
0.260485
0.495008
0.385828
0.0696871
0.065478
0.0445269
0.0154722
0.0518873
0.0370682
0.319881
0.0494379
0.0583005
0.105637
0.412117
0.0214982
0.0176505
0.0517227
3.59926
0.047841
0.55142
0.010388
0.0492762
0.00290914
0.0545196
0.0550621
3.11487
0.0632771
0.0241159
0.199091
0.04373
1.2225
0.0412128
0.0302688
2.80721
2.24227
0.019091
1.74537
0.043676
0.714033
8.71512e-06
1.8799
0.0199787
1.02112
0.0351897
2.01249
0.303203
0.855604
3.58527
4.32841
0.0220229
2.63052
0.0185724
0.0185869
0.0348902
1.92201
0.0917028
0.019759
0.373528
2.89822
1.45481
0.101665
3.00655
0.0179071
0.0883442
0.0320058
0.24585
0.0701659
1.4687
0.0437929
0.0581743
0.0470575
0.0102238
0.0908036
1.94203
0.0262097
0.0488361
3.93588
0.326358
0.0192767