/*--------------------------------*- C++ -*----------------------------------*\
  =========                 |
  \\      /  F ield         | OpenFOAM: The Open Source CFD Toolbox
   \\    /   O peration     | Website:  https://openfoam.org
    \\  /    A nd           | Version:  10
     \\/     M anipulation  |
\*---------------------------------------------------------------------------*/
FoamFile
{
    format      ascii;
    class       volScalarField;
    location    "750";
    object      nut;
}
// * * * * * * * * * * * * * * * * * * * * * * * * * * * * * * * * * * * * * //

dimensions      [0 2 -1 0 0 0 0];

internalField   nonuniform List<scalar> 
10435
(
6.89734
4.92719
3.49084
7.66983
2.56074
1.09061
5.06611
10.037
11.6307
1.26575
4.26263
7.68229
1.17109
2.81866
3.13575
6.55183
2.59146
0.827177
12.0329
7.49931
8.30235
9.15668
5.00819
11.7195
1.80045
2.66566
2.59084
2.1553
2.28694
0.971834
3.68816
3.84283
10.8614
2.13454
8.9412
4.88231
7.61721
2.662
2.6104
11.6829
0.835697
4.61622
2.26664
7.43034
6.05153
11.6038
0.960075
2.25791
12.2901
10.744
9.20554
2.2768
2.50383
2.29591
2.62255
2.22169
8.67866
2.57606
2.2116
9.91744
2.517
5.07919
2.46866
2.62122
5.40502
2.64143
2.11835
2.38279
9.10616
12.1851
2.32549
2.71163
2.00626
3.25329
3.57519
2.42514
12.2287
6.14753
11.6862
3.56364
11.7762
6.48601
2.38686
2.26045
12.0423
4.89206
5.65688
6.45394
4.18162
6.04264
6.35531
6.20353
7.33038
4.63337
6.29986
4.54987
6.31612
3.46931
2.33549
5.14655
3.81708
1.48705
5.15995
6.43764
1.34884
7.54682
8.13081
11.3394
12.069
4.13958
10.1486
1.67144
5.63919
4.83833
5.05098
8.79761
5.25444
5.29057
5.51106
6.77701
5.53595
2.26893
5.55988
3.33923
2.54237
2.56775
6.5877
2.52029
3.75909
2.88592
2.89675
2.94061
7.99643
3.10633
2.72505
1.968
4.18302
7.88032
5.6635
8.43957
8.01102
4.5766
2.11266
4.45999
9.5303
3.00806
3.78558
1.83239
2.60084
6.04487
2.26965
6.82941
6.48187
5.3597
1.65858
2.382
2.18962
5.68264
1.3995
3.83707
5.72406
2.7608
4.91585
9.95734
4.12102
4.14799
10.7054
8.35697
9.85094
3.70869
1.94153
1.88621
2.3573
3.29516
7.59994
4.2359
5.06509
2.36563
9.53565
2.30601
4.63513
1.20364
6.64279
2.48166
5.18276
2.12865
2.21347
6.94149
2.22863
3.27965
6.33323
2.27051
2.8494
4.46862
1.9032
8.07193
2.52743
4.42439
2.30999
6.90824
4.18242
2.53006
1.60436
2.53685
2.24051
3.96554
5.24588
8.16032
2.39205
9.88962
2.15911
4.49956
5.14196
9.32607
2.48675
2.81264
4.78064
2.17569
2.69171
2.51108
2.26129
2.38829
2.23085
3.3254
2.54819
8.32843
2.62805
3.98207
3.12938
2.63899
2.34097
9.5882
2.64909
7.61521
2.86023
2.43714
9.64224
2.655
10.2995
2.72771
7.2165
2.48697
2.08079
2.25392
4.41728
11.6173
4.11896
9.05298
1.93079
4.50451
2.08088
4.73599
1.11537
10.0895
7.83726
2.95969
1.80457
6.96421
2.22863
2.40248
6.0874
2.26482
2.58602
11.2824
5.4907
2.3042
6.9012
3.9662
2.30932
3.84745
5.18804
10.4696
8.87925
1.89183
2.75879
6.88523
2.77826
2.75879
6.98723
11.1449
1.29213
2.40879
4.30456
3.63348
5.3459
2.09692
2.02167
2.60528
2.21907
2.21076
3.65447
3.38252
2.3129
9.75958
2.65474
2.31927
2.7488
6.21247
3.04845
2.73059
2.35087
10.4853
3.51309
2.07258
3.41868
3.10032
2.46911
8.42251
2.66893
2.17291
8.86594
2.56196
4.58716
1.87651
10.8662
2.26383
2.3867
4.25433
2.32676
8.25233
1.2289
2.40383
5.94996
2.16014
11.7465
1.61198
2.85591
2.80485
2.25009
2.70522
10.6806
2.14149
2.12618
4.05171
6.74718
2.47822
2.19731
2.02505
2.05195
2.26449
2.89418
2.55935
2.41951
2.37358
2.28084
2.39696
2.39877
2.90603
2.05779
12.1934
2.08325
1.81941
2.54195
2.19159
12.1997
12.6601
1.1151
3.71474
2.28122
2.19013
2.09012
2.63159
2.20831
2.19881
2.40138
2.89536
2.44634
8.42238
2.82533
12.248
2.62525
2.91547
0.940165
12.7654
2.00496
2.64134
2.5555
2.74555
2.23623
2.72466
3.14895
2.58392
11.3875
2.32187
9.90963
12.4637
1.70075
1.33763
12.5753
2.74737
9.91996
2.95684
2.03952
2.27354
2.28011
3.36125
2.26712
0.937039
3.08136
2.35976
2.90677
2.22883
2.29123
5.78549
2.66881
10.7086
9.04604
2.00534
2.79221
2.95361
12.4282
3.0445
2.82197
2.415
2.20964
2.36616
2.33213
2.89432
2.3213
2.73138
2.30889
2.02804
0.716436
1.85062
1.90627
12.853
2.13908
47.1849
47.1749
46.7003
45.8191
44.5527
42.9154
40.9782
38.869
36.8025
46.6244
46.6372
46.3065
45.6396
44.6475
43.3573
41.8428
40.2298
38.6901
45.0914
45.1511
44.9633
44.5153
43.808
42.8701
41.7755
40.6471
39.6455
42.6359
42.7438
42.689
42.4477
42.012
41.4098
40.7152
40.0524
39.5889
39.3605
39.5079
39.5636
39.4986
39.299
38.992
38.6518
38.4075
38.4556
35.4329
35.6089
35.7425
35.8079
35.7898
35.7155
35.6569
35.7409
36.171
31.0879
31.2807
31.4531
31.5929
31.6898
31.7721
31.9067
32.2074
32.849
26.6204
26.8033
26.9701
27.1264
27.2704
27.432
27.6723
28.0893
28.8178
22.324
22.4538
22.5709
22.6935
22.8273
23.0022
23.2739
23.7304
24.491
18.4074
18.4487
18.4862
18.5441
18.6309
18.7734
19.0209
19.4538
20.1922
14.964
14.9119
14.8687
14.8576
14.8857
14.9739
15.1638
15.5244
16.1621
11.9978
11.8856
11.7918
11.7317
11.7104
11.7439
11.8665
12.1344
12.634
9.46017
9.36725
9.27132
9.19308
9.14168
9.13271
9.19508
9.37374
9.73441
7.39301
7.35942
7.29222
7.21745
7.15224
7.11458
7.13026
7.23519
7.47835
5.84586
5.8544
5.8123
5.74411
5.67172
5.61463
5.59592
5.64477
5.8011
4.78198
4.7942
4.75628
4.6867
4.60661
4.53448
4.48999
4.49585
4.58057
4.08835
4.07766
4.02691
3.94803
3.85819
3.77317
3.70914
3.68361
3.71608
3.62788
3.59416
3.52705
3.43688
3.33734
3.24152
3.1627
3.11502
3.11435
3.30265
3.25684
3.17884
3.0804
2.97354
2.86958
2.77967
2.71539
2.68973
3.06196
3.01302
2.93066
2.82821
2.71713
2.60784
2.51002
2.43322
2.38731
2.88332
2.83555
2.75267
2.64906
2.53616
2.42386
2.32085
2.23529
2.17563
2.75782
2.71136
2.62844
2.52441
2.41081
2.29709
2.19097
2.09928
2.02897
2.68263
2.63349
2.54805
2.44258
2.32844
2.21435
2.10687
2.01141
1.93338
2.65777
2.59616
2.50336
2.39473
2.27983
2.16636
2.05931
1.96243
1.87973
2.68541
2.59123
2.48616
2.37353
2.25791
2.14638
2.04184
1.9459
1.86018
2.99877
3.05741
3.13808
3.24132
3.3675
3.51635
3.68728
3.87921
4.09099
4.32103
4.56781
4.82964
5.10461
5.39098
5.68654
5.98923
6.29679
6.60681
6.91687
7.22456
7.52725
7.82239
8.10732
8.37915
8.63736
8.88272
9.11494
9.33343
9.5388
9.73387
9.92015
10.0994
10.2744
10.4498
10.6311
10.8254
11.0414
11.2894
11.5822
11.9348
12.3647
12.8928
13.543
14.3445
15.3329
16.5492
18.0378
19.8432
22
24.5233
27.393
30.542
33.8519
37.1544
40.253
42.9453
45.0564
46.457
47.1066
2.95452
3.01279
3.09219
3.19355
3.31729
3.46336
3.63126
3.82015
4.02885
4.25594
4.49978
4.75859
5.03039
5.3134
5.60568
5.90516
6.20967
6.51692
6.82456
7.13023
7.43153
7.72607
8.01157
8.28589
8.54736
8.79504
9.02874
9.249
9.45712
9.65469
9.84317
10.0244
10.2012
10.3773
10.5578
10.749
10.9589
11.1971
11.4753
11.8079
12.212
12.7087
13.3239
14.0898
15.046
16.2383
17.7165
19.5275
21.7045
24.2557
27.1529
30.3224
33.6403
36.9383
40.0208
42.6902
44.776
46.1551
46.7868
2.87762
2.93245
3.00748
3.10361
3.22134
3.36075
3.52153
3.70301
3.90421
4.12386
4.3605
4.61248
4.87802
5.15524
5.44217
5.73675
6.03685
6.34023
6.6446
6.94762
7.24692
7.54013
7.82498
8.09941
8.36179
8.61111
8.847
9.0697
9.28007
9.47938
9.66914
9.85126
10.0283
10.2038
10.3822
10.5694
10.7725
11.0006
11.2648
11.5789
11.9603
12.4309
13.0183
13.7572
14.6893
15.8629
17.3286
19.133
21.3079
23.8587
26.7521
29.9081
33.1996
36.4599
39.4995
42.1307
44.1922
45.5673
46.2166
2.75441
2.80544
2.87589
2.96662
3.07812
3.21054
3.36366
3.53691
3.72947
3.94024
4.16792
4.41102
4.6679
4.93682
5.2159
5.50316
5.79652
6.09383
6.39284
6.69123
6.98668
7.27687
7.5596
7.83289
8.09506
8.34499
8.58207
8.80632
9.01831
9.21904
9.40996
9.59293
9.77044
9.94577
10.1231
10.3079
10.5068
10.7284
10.9837
11.2863
11.6538
12.1087
12.6796
13.4017
14.3173
15.4745
16.9224
18.7053
20.8518
23.3638
26.2048
29.2933
32.503
35.673
38.6244
41.1816
43.1944
44.5533
45.2199
2.59567
2.64272
2.70835
2.7934
2.89837
3.02343
3.16842
3.33288
3.51608
3.71707
3.9347
4.16764
4.41444
4.67348
4.94303
5.22123
5.50612
5.79562
6.08756
6.3797
6.66976
6.95549
7.23478
7.50567
7.7665
8.01608
8.25366
8.47904
8.69252
8.89492
9.08756
9.27224
9.45139
9.62817
9.80662
9.99188
10.1905
10.4108
10.6635
10.9622
11.3246
11.7733
12.3364
13.0489
13.9517
15.0902
16.5101
18.2509
20.3368
22.7657
25.5002
28.4619
31.5322
34.5613
37.3834
39.8363
41.7813
43.1164
43.8044
2.40428
2.44682
2.50712
2.58596
2.68387
2.80103
2.93733
3.09239
3.26558
3.45608
3.66286
3.88477
4.12052
4.36864
4.62757
4.8956
5.1709
5.4515
5.73534
6.02026
6.30403
6.58451
6.85963
7.12748
7.38641
7.63518
7.87291
8.09929
8.31446
8.51911
8.71449
8.9024
9.0853
9.26632
9.44943
9.63967
9.84339
10.0687
10.3261
10.6288
10.9939
11.4429
12.0028
12.7064
13.5916
14.6995
16.0712
17.7407
19.7275
22.0274
24.6043
27.386
30.2655
33.1079
35.7639
38.0865
39.949
41.2574
41.9747
2.18178
2.21901
2.2731
2.34487
2.43485
2.54329
2.67014
2.81512
2.97768
3.15713
3.35259
3.56304
3.78733
4.0242
4.27224
4.52991
4.79552
5.06722
5.34302
5.62082
5.89846
6.17387
6.44508
6.71024
6.96768
7.21615
7.45473
7.68302
7.90106
8.10953
8.30975
8.50363
8.69379
8.88346
9.0766
9.27822
9.49447
9.73308
10.0039
10.3191
10.6943
11.1491
11.7075
12.3986
13.2556
14.3143
15.6096
17.1706
19.0136
21.1348
23.5033
26.0566
28.7022
31.3223
33.7861
35.9632
37.7393
39.027
39.7883
1.92347
1.95376
2.00009
2.06335
2.14414
2.24282
2.35943
2.49376
2.64543
2.81383
2.9982
3.19758
3.41095
3.6372
3.87519
4.1236
4.38097
4.64547
4.91505
5.1875
5.46073
5.73282
6.00198
6.26645
6.52457
6.77515
7.01719
7.2502
7.47418
7.68996
7.89917
8.10407
8.30763
8.51321
8.72473
8.94735
9.18687
9.45
9.74533
10.083
10.4759
10.9403
11.4957
12.1664
12.9795
13.964
15.1486
16.5574
18.2058
20.0948
22.204
24.4866
26.8677
29.2489
31.5165
33.5538
35.2559
36.5401
37.3664
1.61835
1.63809
1.67346
1.72574
1.79575
1.88385
1.98995
2.11362
2.25522
2.4148
2.59063
2.78155
2.98636
3.20425
3.43479
3.67702
3.93041
4.19312
4.46159
4.73327
5.00646
5.27961
5.55136
5.82023
6.08461
6.34346
6.59546
6.84005
7.07727
7.30841
7.53609
7.76309
7.99244
8.2276
8.47238
8.73322
9.0155
9.32086
9.65581
10.0283
10.4478
10.9249
11.4723
12.1101
12.8608
13.7444
14.7835
15.9934
17.3893
18.9863
20.7872
22.7694
24.878
27.0341
29.1379
31.0775
32.7444
34.0539
34.965
2.49779
2.40285
2.33094
2.26897
2.21194
2.15849
2.1089
2.06441
2.02684
1.99879
1.98379
1.98338
1.99597
2.01835
2.04692
2.08087
2.1211
2.16873
2.22526
2.29227
2.37113
2.46339
2.57167
2.70038
2.85792
2.36041
2.33546
2.29188
2.24209
2.19055
2.13958
2.09108
2.04705
2.00979
1.98204
1.96625
1.96333
1.97234
1.99122
2.01803
2.05193
2.09287
2.14128
2.1981
2.26469
2.34289
2.43507
2.5443
2.67486
2.83396
2.29658
2.27691
2.24226
2.19904
2.15153
2.10283
2.05552
2.01209
1.97515
1.94727
1.93044
1.92547
1.93195
1.94858
1.97393
2.00689
2.04689
2.09395
2.14886
2.2129
2.28824
2.37747
2.4836
2.6105
2.76372
2.24598
2.22195
2.18801
2.14684
2.10125
2.05395
2.00755
1.96464
1.92786
1.89961
1.88171
1.87501
1.87937
1.8939
1.91727
1.94813
1.98545
2.02916
2.07966
2.13853
2.20812
2.29098
2.38977
2.50783
2.64974
2.19666
2.16711
2.131
2.08946
2.04425
1.99746
1.95143
1.90866
1.87168
1.84277
1.82364
1.81519
1.81744
1.8296
1.85024
1.87773
1.91074
1.94916
1.99299
2.04435
2.1055
2.17901
2.26712
2.37283
2.50086
2.14615
2.11104
2.07184
2.02892
1.98323
1.93628
1.89011
1.84703
1.80944
1.77951
1.75892
1.74859
1.74854
1.75789
1.77502
1.798
1.82523
1.85653
1.89183
1.93362
1.98405
2.04554
2.11999
2.2101
2.32107
2.09395
2.05361
2.01147
1.967
1.92047
1.87294
1.82615
1.78231
1.74372
1.71247
1.69021
1.67782
1.67521
1.68128
1.69414
1.71152
1.73164
1.75419
1.77946
1.80981
1.84734
1.89423
1.95168
2.02254
2.11242
2.03878
1.99526
1.9513
1.90567
1.85824
1.80983
1.76206
1.71712
1.67731
1.64459
1.6206
1.6061
1.60073
1.60308
1.6109
1.62162
1.63335
1.6456
1.65928
1.67644
1.69898
1.72853
1.76508
1.81147
1.87291
1.98248
1.93839
1.89394
1.84757
1.79919
1.74968
1.70067
1.65461
1.61382
1.57994
1.55464
1.5384
1.53023
1.52848
1.53052
1.53342
1.53528
1.53556
1.53583
1.53799
1.5434
1.55271
1.56457
1.57825
1.59759
0.751579
0.814157
0.284225
0.383236
1.1682
1.19428
3.23327
2.74635
0.305823
17.7039
0.208006
2.57811
14.2012
0.501842
6.96652
2.03692
0.334097
0.47303
27.7992
0.225586
8.04544
5.18361
0.239627
2.4815
3.15093
2.35971
3.14009
0.988977
0.265456
0.283517
37.2927
2.12279
0.308775
12.3105
0.267267
1.21845
11.2444
6.85521
12.8618
4.90812
0.25827
0.125602
3.59699
1.92714
1.62739
8.67974
0.222191
0.21972
0.215522
0.298653
0.217997
0.225863
12.5989
0.506988
3.25389
0.297886
0.534188
11.633
1.17523
0.162284
1.12357
0.277655
1.15452
3.79635
2.72529
1.79181
10.2981
2.30001
14.1143
0.278166
0.295965
6.19049
1.37051
0.289957
3.02276
8.82596
0.708022
0.233484
2.2458
0.608567
12.1272
1.36713
2.71394
0.198522
1.15271
1.16448
1.59522
0.233413
0.304857
2.75228
1.9993
6.28382
8.82
2.5836
1.21705
0.209748
2.2705
0.207794
0.322176
0.160677
1.02926
0.263007
1.04868
7.09246
1.3333
1.54673
0.242651
11.8592
0.619253
0.292601
4.61001
1.77318
0.268798
7.2042
12.5481
0.219281
0.273471
5.49041
13.8203
1.36239
0.0137144
1.87084
2.52577
3.05878
0.305148
3.40021
0.231673
0.400308
1.67683
0.220677
2.70188
0.320596
0.273536
13.6943
1.34852
1.56799
1.63316
0.950803
1.13509
0.187234
7.44143
11.9869
0.168731
0.0316062
0.240971
2.41875
0.32347
1.93924
1.93947
0.274867
3.01799
0.927148
0.317017
6.9541
3.18603
0.196309
1.72722
5.17639
1.46926
5.16087
3.53098
0.305087
3.14977
0.211508
5.04028
0.205614
0.559665
3.06953
3.23262
1.52232
0.501613
4.20909
2.27436
0.20138
12.8701
1.42791
7.17616
0.276061
0.184035
7.2712
10.3182
1.93745
13.0333
8.68458
1.8921
0.828436
0.208123
0.63343
0.302089
1.53617
0.200105
0.166574
0.79245
11.7827
6.55583
0.309281
3.06604
4.99342
0.229692
0.381917
14.0073
4.91596
1.29038
1.49212
1.28912
8.52557
9.06204
0.990859
0.232951
5.93573
1.39991
2.27764
11.0402
1.21022
4.42091
0.25718
1.05723
1.77103
7.02119
2.18385
0.654432
0.138094
3.06791
0.24987
1.6226
0.26688
2.88018
0.340137
0.53448
1.28168
0.193111
1.22276
1.77695
2.12151
12.4451
13.3745
2.39118
0.766119
8.9561
6.53415
33.8123
1.13028
4.56395
1.53692
1.45945
1.82422
2.52545
1.71507
2.05301
3.84413
0.443825
1.5122
15.3343
0.230434
1.27095
2.67812
0.267952
0.860347
1.70111
29.0937
2.16578
1.48415
1.55642
3.24293
0.374688
2.8894
6.62955
0.230698
3.04799
3.06423
6.49751
0.679349
0.430698
1.59391
25.324
0.229799
7.261
0.344156
0.589611
0.194978
1.96674
3.39212
2.32324
8.55966
0.179021
1.17519
1.54745
1.18284
0.226962
0.205555
4.50364
3.27554
0.0877076
0.227661
13.5114
0.259651
0.264129
8.61538
5.37682
0.172514
0.18626
3.60953
2.89795
1.55351
0.290601
5.23752
7.39805
19.1361
0.188624
1.33919
6.43971
10.6164
0.307316
1.87858
0.364855
12.3846
0.228851
13.5468
3.09641
15.1222
1.42446
3.18709
2.72333
35.215
1.51251
2.80934
0.271545
11.6182
9.61256
11.1979
5.21531
6.59128
0.595285
15.6944
0.232069
1.20402
2.29679
2.7405
0.255085
2.21618
2.2152
2.67314
0.155429
11.7953
0.425788
1.02762
1.01267
0.98388
1.59369
0.212979
2.51926
8.4454
0.130024
1.7772
0.229471
1.72312
14.3745
2.05453
4.26902
0.21525
0.241377
0.239126
3.58349
0.266463
0.122191
1.70694
3.16181
0.232223
1.68902
0.300951
9.70077
6.9411
0.297741
0.351838
14.07
2.51613
2.09367
6.43507
4.15232
15.0421
0.26776
3.60543
0.308971
2.08847
2.09147
13.7483
5.23587
0.234793
0.212541
0.199917
1.79585
7.83148
1.87915
0.332868
9.55493
21.8865
4.83585
0.317042
4.92516
0.268979
2.67507
3.76651
1.15972
0.351469
2.70494
0.107186
4.4754
1.80503
6.80304
32.0005
0.241507
1.55635
0.165471
1.13692
2.95337
2.01943
0.201788
0.213665
4.13651
6.28042
5.13061
4.51474
2.46583
1.02284
3.49538
0.206798
0.166635
3.00806
24.9693
2.20444
1.43773
2.46694
2.74495
2.33614
3.92128
3.01699
4.73628
0.0823986
1.04187
2.04743
5.31091
6.65902
0.23246
3.5408
13.8936
0.176484
0.844157
0.211127
1.43237
2.22367
0.348124
3.1738
2.99387
0.172135
11.4168
0.282183
0.211585
1.14248
2.01411
0.647616
3.45813
1.92145
0.252372
10.9971
0.19921
2.12021
1.16012
0.263621
5.06091
0.216432
1.7586
1.91206
0.242021
2.02772
2.98914
12.8596
3.32714
1.99859
2.25374
2.87592
4.16962
12.0694
0.10546
2.62939
0.196169
1.16794
1.34579
6.03273
0.364114
6.89755
6.65599
2.65806
2.31822
0.325653
1.71641
0.845297
6.72622
1.20752
7.33023
0.298229
3.60362
4.15918
1.31123
1.331
7.57547
11.9575
1.42707
1.58022
4.16914
2.36564
4.65371
11.5955
12.6378
3.62886
0.737267
0.232589
0.297136
0.196908
2.51591
1.50719
12.6799
0.206042
0.219104
0.143505
12.591
7.07658
0.202102
0.274346
8.63738
4.62854
1.38362
7.35837
0.166504
0.261829
1.28281
4.73062
3.7825
0.191623
0.232819
2.74281
14.9817
0.306397
4.97618
0.241295
0.16273
0.229879
2.60941
0.581189
1.24463
0.35109
11.3577
11.1796
1.73162
0.23598
0.203424
0.23121
3.16843
10.5575
14.2535
0.234389
23.1005
13.1057
3.85168
13.462
0.287805
21.8035
1.6898
1.37627
2.25255
2.19562
0.30543
6.96822
8.4375
1.00928
1.10674
0.280246
0.218359
0.239157
0.665162
2.20914
0.183556
13.3573
4.72444
11.7377
2.74717
0.320951
4.79324
1.16651
14.8745
4.80098
1.35262
1.27264
3.78951
6.34234
10.1342
1.14223
12.6371
0.196005
1.16261
1.9812
0.159006
0.970474
0.140172
2.9149
0.437657
1.25756
1.18521
19.7001
1.32237
2.9964
3.74374
12.2532
1.95329
3.13193
1.39698
11.1886
2.30535
1.05989
0.217191
4.40442
2.44105
3.14446
13.203
0.988375
2.77889
0.157414
0.221677
0.936448
0.326074
2.78353
2.90028
2.07736
0.407692
2.48888
1.27183
9.13629
2.6523
2.87368
0.94719
5.62004
1.76125
0.476841
1.75435
4.73333
1.18297
1.7919
1.94106
4.30948
0.156673
6.44476
1.94317
0.512485
17.5767
0.110144
7.15236
22.0742
0.219362
32.8988
3.72913
2.58947
0.236725
0.762429
0.203369
0.0823422
2.08114
2.76743
0.272391
0.22645
1.59499
12.9747
2.78387
20.1638
1.15754
0.178461
0.112092
2.8959
12.8375
1.29582
9.7258
14.3237
0.406816
11.6476
2.66878
2.70188
6.40823
0.520498
6.18866
0.249027
0.245318
2.33415
5.06004
3.76344
0.215427
2.71305
11.0013
3.66742
2.19838
14.4301
1.15886
4.91007
1.14847
2.29387
1.42201
6.22375
7.12233
0.182987
6.78198
3.3069
0.217552
5.82785
0.340993
0.259747
25.7151
1.79348
2.26714
0.122492
2.44178
1.92749
2.06089
1.38816
14.1177
18.4395
29.7734
1.76538
3.20061
19.3835
2.46235
3.47884
11.2474
0.26786
17.3047
0.199517
2.31555
0.276127
3.63029
0.270058
0.225607
0.168287
1.61359
1.8082
0.0741623
2.32796
2.87675
12.8512
0.433875
12.4577
1.04081
3.92541
2.20377
2.57224
1.33963
0.218485
0.204521
2.32805
2.69846
6.66969
12.7473
0.231914
0.0370007
3.78122
1.77184
0.134484
0.559466
7.45754
0.241737
6.65625
2.39775
6.72802
0.81868
0.171796
1.65571
1.32116
0.981649
4.76523
3.59949
2.82916
1.74695
1.98424
3.67975
2.14849
2.34221
4.41035
0.188615
5.95564
5.05482
2.66955
4.01785
0.204306
1.25853
15.5722
9.42396
4.56098
4.10648
0.1723
7.2152
0.215288
0.193944
2.28489
1.12331
2.79171
13.3077
4.40489
0.191423
12.72
0.785205
11.3559
0.236227
0.244228
2.68934
1.72413
0.310812
0.284892
1.81108
1.14334
0.29511
2.24535
0.232303
0.246334
7.2076
1.72556
0.340416
0.337238
0.619518
5.08558
4.24507
0.343956
3.10408
10.9639
3.33621
2.58985
0.783619
2.44986
2.05469
2.02684
0.478717
18.2947
2.7086
0.146297
14.9485
8.10727
1.52186
4.39922
7.26525
2.60898
13.121
6.05718
12.6779
7.20167
1.65449
7.3791
0.231086
1.6273
7.61024
2.74189
7.94269
0.193339
0.248409
0.963054
13.3931
6.51909
0.118276
2.49265
0.658514
0.192508
6.00129
0.319095
2.51054
0.110302
7.53806
1.72767
0.138578
0.138036
2.02096
0.181651
0.179264
0.219743
14.0997
0.325247
9.18628
10.4942
3.50525
1.38374
0.63796
0.502116
1.17867
2.28427
2.91834
0.201242
2.18461
2.0917
0.314456
0.718362
1.56033
5.88544
0.315884
13.263
12.6046
1.66393
0.21684
0.246986
13.9344
9.53863
0.308174
1.06289
0.840165
1.96994
0.187777
10.227
2.18443
0.923005
0.233359
2.6459
4.34989
0.706422
0.077342
0.779938
11.7464
0.165854
13.6029
0.222947
0.223333
5.83768
1.07272
1.43694
1.95304
0.474108
11.5687
3.91857
1.35613
1.28545
0.55336
3.16026
0.217155
1.17147
0.179045
9.54503
2.71662
17.3921
1.29778
2.80571
0.276052
0.244691
0.931885
5.80297
2.33334
1.02486
4.56717
27.6364
15.0656
14.1985
0.344681
1.62047
2.33205
4.2651
1.84036
4.18086
1.27113
0.337084
6.53907
0.966604
2.92374
4.71804
1.12554
1.886
21.1159
6.42777
0.923778
1.05573
9.49987
1.12819
1.68591
0.178017
0.217092
0.280395
3.38133
1.81144
3.4407
1.99828
0.241166
1.12681
0.724336
0.282628
2.32201
1.99254
1.07726
2.91674
0.230072
12.457
2.3138
0.496416
2.65834
2.84864
0.280187
3.02737
2.1631
2.30729
2.29582
2.21618
0.188339
9.74084
2.25711
0.312602
2.03222
0.216506
1.46994
0.241147
1.4169
2.58521
6.58212
4.37342
6.34904
1.11451
11.3092
0.426202
4.03899
13.6895
2.81283
0.402995
2.93713
0.221698
3.21735
2.37058
6.36364
1.42256
0.219155
0.523701
10.98
1.59613
1.87632
4.05899
0.729491
0.276714
1.80645
1.9123
4.04775
1.84234
1.73438
0.179418
5.3455
11.2672
4.42247
3.84881
3.90444
2.20782
0.200887
0.479382
2.93128
2.3057
4.63957
0.334326
1.29511
0.74752
1.97753
0.301193
0.240588
0.21699
1.18156
1.21565
1.44129
0.231179
5.76132
0.222271
2.83984
2.19964
0.267925
2.52734
4.38439
1.01499
13.488
37.7015
2.02137
0.353875
20.8888
0.311734
7.63584
1.88235
1.15176
15.9326
11.6529
1.95198
0.217331
7.56923
1.1571
3.48047
0.239292
0.199796
4.1488
3.5216
6.6618
2.13298
0.647598
1.42779
0.188801
2.32302
12.3342
13.4895
1.274
1.36406
5.17608
2.42963
1.69221
0.16639
0.540801
8.90603
0.17608
2.00977
12.2351
1.30391
32.1218
0.278056
0.269042
4.14474
12.8124
1.15038
6.4091
0.895454
1.17621
0.314128
2.06654
10.8492
1.87293
1.39114
0.433447
2.7548
2.19366
0.599662
0.186164
0.141562
1.82356
2.77606
9.32959
2.29352
13.1569
2.00758
3.91167
1.16988
10.4492
1.22712
10.5744
1.45525
0.230757
0.275247
0.347217
0.646003
12.9275
0.264894
2.34967
0.259072
10.6059
2.71128
2.38449
1.28938
1.31834
3.17852
1.4082
1.72079
0.258142
2.53615
1.28946
4.71228
0.694038
1.69462
2.28207
0.216275
0.470635
0.233459
0.210058
0.919953
1.10814
1.70901
2.25144
1.81985
2.8222
0.195221
9.86252
2.56467
7.78691
6.60944
0.271647
2.27011
3.25327
2.15923
3.37195
1.29358
1.19521
13.142
0.886864
1.09999
0.247321
7.04443
1.95243
0.36241
1.78964
1.61579
2.01491
0.138513
1.74842
2.29246
14.125
3.44786
0.135992
0.19059
1.14149
3.17925
6.35038
4.61321
1.40896
9.94093
8.59877
2.43996
13.2665
10.3867
4.97106
0.306732
0.391913
0.251188
2.14525
1.21164
0.493915
2.39577
1.34924
5.70492
1.91366
0.227439
10.22
1.99845
1.97437
6.84056
1.83464
1.94827
1.30674
3.82792
0.224172
0.428636
19.575
7.94177
31.5869
2.83625
1.40197
0.582327
8.26532
6.41938
0.315285
0.806624
0.0975324
1.69312
0.311626
0.202011
0.307006
0.975581
13.9281
0.250501
0.16012
0.415962
0.199107
5.42634
0.319614
1.06488
17.5248
13.4695
6.9802
0.21518
11.5563
1.24841
3.50478
2.78721
0.278795
1.79572
0.248433
5.50849
0.207538
11.375
0.221665
1.48238
1.30795
1.58709
0.309667
2.12182
0.981982
0.164549
2.78211
0.21429
0.862881
4.45954
13.8725
2.43061
3.16729
12.682
6.45718
5.4019
8.52405
1.69454
12.9247
1.50699
2.77159
0.328349
13.2507
1.44114
0.266911
15.5026
9.09384
1.6814
9.90129
1.25403
9.39692
3.73146
5.09472
1.0319
0.201643
2.72984
9.26242
0.23609
2.74967
5.61088
13.6352
4.42501
3.16356
0.0914568
2.55517
0.284561
1.118
0.302196
1.87282
1.5155
11.9212
4.40293
2.39776
13.4597
8.93941
3.38555
1.79648
2.00329
5.02251
8.99037
0.31499
0.250489
2.19548
9.20223
1.70621
13.1752
0.213377
1.30754
1.40278
1.38301
0.294967
1.25318
10.8507
13.8462
2.57808
10.2708
0.259109
1.45533
2.06171
7.18565
1.56436
1.23614
2.7714
1.37021
1.27624
0.269274
0.231977
0.288978
2.9807
0.207512
4.74859
8.07972
3.57889
0.196107
0.245274
0.969964
4.56714
4.36272
5.35001
3.07563
0.210476
0.185295
10.5545
4.72026
2.32334
6.02127
2.46709
0.848132
0.259771
0.164409
0.545911
0.284601
6.50161
2.29114
13.0111
2.47531
0.249841
0.456446
1.41721
1.40366
7.50419
1.20001
10.6064
1.10594
3.1735
0.282111
0.23031
13.707
1.62465
2.38766
0.302037
2.15429
0.318047
0.423188
0.162971
6.6811
0.493521
2.65457
7.6194
7.19811
1.38098
32.0188
0.799115
0.322763
9.18981
1.15987
0.166299
1.81726
0.270361
0.220082
10.5122
1.6461
6.04092
1.2573
12.0368
2.91459
0.24292
1.96292
7.02785
0.780373
4.695
1.58216
4.81238
1.40816
7.46024
1.20766
2.54215
9.72795
8.87285
0.349967
2.09298
3.64384
2.35102
0.704524
2.92004
0.292802
0.272474
2.33373
0.258186
15.6094
1.99128
6.45084
5.74517
1.57844
1.99152
0.206371
4.73537
4.41471
0.163896
0.951512
29.4478
10.3164
8.22749
5.96863
3.55414
1.04284
3.09089
0.295447
1.10793
14.7023
6.1605
0.324138
1.16009
0.245858
0.284679
2.08215
0.166317
5.60849
0.488719
0.27598
2.15788
21.817
0.00021833
12.1858
0.991305
5.59872
3.18308
6.59751
0.32543
0.973492
2.07533
0.172539
11.7926
2.86814
13.4369
4.65453
2.2743
0.215703
29.6062
12.3369
6.97981
2.5556
6.74881
1.45322
0.243441
0.183541
4.57025
12.5774
0.245845
4.5628
4.54735
2.55047
2.41543
12.4247
2.44185
1.16206
12.2313
3.12624
2.25624
0.0925896
0.642586
7.87107
0.31926
12.2454
1.13828
12.6635
1.32005
2.19059
0.216582
0.277474
0.164158
2.00073
0.117554
11.2105
7.23091
4.31151
0.220844
2.26073
0.168989
0.247953
14.0061
6.76669
0.222104
1.89378
0.209368
1.04454
3.21009
0.177968
1.37456
2.60085
3.74865
3.57173
1.84152
6.90776
6.60306
6.11579
6.40666
0.606042
1.66189
0.260277
2.46835
0.278638
4.63937
7.5127
1.77333
10.3726
10.184
0.154294
4.02062
1.6114
0.368036
4.04999
1.6851
0.19449
4.14899
0.476573
3.58778
0.179212
24.0048
0.683126
1.06938
0.284511
2.66061
1.60826
3.45961
6.82913
0.742821
0.264429
10.9739
1.6843
1.11439
3.7019
0.846315
3.17109
0.800167
6.34985
1.86151
0.295457
1.36034
10.6711
0.25725
3.2287
1.89645
0.360409
7.08623
0.204192
3.2499
2.4593
4.33584
2.66663
2.23512
12.4555
1.12157
3.80818
4.22492
0.92381
2.00926
0.278386
5.36121
1.36414
1.81289
1.18751
1.27554
1.8883
4.5117
2.34339
5.99065
1.73414
13.4056
0.277533
5.3163
0.620655
1.81077
5.76605
0.229712
3.02275
2.76552
4.56009
2.5241
2.04648
0.205045
3.9281
7.25458
1.19462
1.26942
0.54825
4.78407
1.56507
12.3772
0.42888
1.93159
2.45644
0.356368
14.4355
1.33943
1.59464
0.918537
2.66671
31.5267
6.71192
1.60053
3.1541
0.274574
13.0627
0.753599
12.8811
3.84658
0.162309
0.207396
1.74119
2.49306
2.19721
3.4281
2.71547
0.680444
0.163362
2.0892
1.56904
3.12689
4.00535
1.50272
0.262379
2.75244
4.76021
1.25723
7.52021
0.219276
7.89086
6.8675
1.94897
0.874991
2.64362
1.25518
0.199768
2.27224
1.51949
0.265646
3.80026
2.94131
1.96136
3.24443
5.49451
0.283572
0.261338
1.81289
0.375809
7.72166
21.2392
0.306381
0.194481
3.17586
0.64878
3.01185
3.48075
14.102
2.42639
0.200043
1.61433
1.7861
2.37118
4.76849
0.280187
8.94642
4.74886
3.83514
0.563959
17.4284
2.13776
1.1275
10.7217
1.04481
1.30835
10.5843
3.90593
1.69706
6.68684
6.34028
25.554
2.10288
4.39789
1.22567
5.96968
5.29949
1.34142
1.78981
0.842657
1.95911
2.65678
3.66775
0.235822
1.21091
2.33611
0.180999
12.4122
0.116117
4.5925
7.57364
0.208814
5.39871
1.37273
2.23513
14.4103
4.41172
1.36959
3.53274
0.323775
0.289367
2.72627
0.214672
7.69909
2.88701
0.0101298
0.313816
2.52942
13.2012
2.84058
0.232611
1.48101
8.57158
0.208537
0.226821
0.866451
0.280103
2.013
3.06363
1.77629
0.217092
2.60486
1.38566
0.967139
0.19743
0.336569
6.70268
0.281076
2.7031
4.10206
1.17262
1.74501
2.7444
5.72832
3.58772
5.29393
11.0457
1.99785
5.42907
0.321739
2.75975
11.7021
0.222133
1.93589
2.22723
2.14169
0.167403
6.8621
4.19442
0.244393
5.22331
0.250115
3.94406
2.873
1.65734
0.316708
0.848193
5.53322
3.82823
2.81237
5.33474
2.89924
0.283429
1.96531
11.6322
0.71688
0.59671
0.203414
6.17893
0.646536
6.93713
3.0345
1.59222
2.42934
13.6715
0.432871
3.02995
3.38274
2.7642
6.80272
1.07091
4.63497
1.44169
0.628295
9.51128
9.17929
12.2345
0.796518
10.3348
4.23549
0.0414276
6.68552
12.7106
2.94761
1.67216
1.37024
2.98338
1.40591
1.12356
4.8042
6.77236
0.346116
0.327089
0.20457
0.756745
0.0279791
2.59191
5.70325
1.97965
3.17332
0.236194
8.53949
0.200446
1.65672
0.194805
4.12453
1.85043
2.27584
15.243
0.34522
4.48741
0.264186
2.38129
2.11883
1.88003
0.213522
5.14183
1.303
1.93165
1.60492
4.92352
3.23565
1.67683
1.15754
1.17828
2.47489
0.208413
7.1897
3.27292
10.093
3.20913
7.47649
0.236141
0.101918
0.936811
3.12698
3.47535
0.750916
1.37001
0.175556
1.24708
0.783265
5.14843
1.90709
1.03935
1.95252
2.71261
5.87621
0.194518
0.604368
3.17497
7.44117
0.17642
1.97402
2.92471
0.659464
3.29409
1.20746
1.45307
13.1667
4.4481
39.0914
1.72133
8.06172
0.225434
14.8975
0.600127
1.46211
13.6546
0.235093
0.622364
1.48379
2.56249
4.14264
0.236531
0.264093
5.10943
3.79057
9.97972
3.33757
0.326266
0.169039
0.291124
0.172072
0.234477
0.565859
2.51763
0.67254
4.23138
5.26342
2.47959
2.26699
1.75292
0.216463
4.29262
6.01786
0.300278
0.166821
0.581421
4.68823
1.05039
0.328265
0.209625
0.749087
2.8314
1.65658
10.6707
2.05653
5.68623
3.21326
0.0860934
3.82268
1.48009
0.855714
1.63621
3.70343
11.0458
2.687
0.281123
1.10288
5.5367
2.57659
6.37885
2.03315
0.225138
1.60371
0.252506
3.1966
2.69164
5.27037
0.193315
1.11601
2.04183
3.12194
0.258263
1.22817
1.99327
13.8889
0.124632
1.94778
0.834475
0.242584
2.62725
10.7311
0.320051
3.07441
2.47554
0.209507
2.65939
7.20524
5.94344
2.15342
5.55554
12.0913
0.202628
13.6303
10.4176
2.06952
0.19885
7.25258
8.56835
3.53474
1.18864
14.0904
2.59562
0.920869
2.90833
6.88878
0.276144
3.96367
2.51834
2.72147
0.287119
3.04864
0.175601
1.30634
22.0033
0.427295
2.83846
2.9842
0.26682
11.612
1.01232
0.895071
0.974005
0.213791
0.212332
9.23028
2.5947
1.30465
2.18209
2.25991
1.38902
1.04407
5.84329
1.1829
4.98623
0.265697
9.43737
0.316712
28.8959
1.57875
0.361481
0.642844
3.67852
2.41332
2.9267
1.28509
2.62295
1.92424
2.80782
4.61777
4.20163
1.72553
3.1366
0.264137
4.83512
1.8941
3.24495
0.173701
0.285654
0.299881
0.291876
0.154344
1.94541
0.0966079
4.40916
2.23037
1.93518
0.250785
1.15695
2.25029
0.62351
11.5743
9.87007
4.54567
4.2439
2.20095
2.86453
0.669712
0.188035
1.34526
0.286045
0.202013
1.22925
1.66008
3.60799
9.99475
0.744959
2.83842
5.23314
6.88167
3.36367
1.86528
2.66633
0.592024
0.239341
5.03938
1.92246
0.208816
0.315259
0.296325
1.50017
16.0462
0.178937
1.67639
1.62658
1.04599
6.77038
2.69286
3.16614
0.356214
0.237619
1.3399
28.6163
3.26472
0.252244
1.99054
0.305985
0.29237
0.177507
0.304969
0.165574
3.76597
0.288598
9.28208
13.1936
0.37901
0.179993
0.194385
0.72097
11.3351
0.285452
26.4373
0.280423
2.69637
0.22593
1.42589
1.96763
0.256608
8.16976
0.299152
1.7745
1.29108
7.25784
4.39334
1.26386
1.31604
0.975606
2.83137
2.81202
0.530897
1.50015
4.25283
1.56346
28.5247
2.43124
0.436569
2.71732
0.687816
0.296392
9.47503
4.08147
6.15129
3.30403
5.35874
0.203777
0.316902
0.165186
0.28718
3.9561
23.7909
3.88126
1.53988
3.01712
2.6733