/*--------------------------------*- C++ -*----------------------------------*\
  =========                 |
  \\      /  F ield         | OpenFOAM: The Open Source CFD Toolbox
   \\    /   O peration     | Website:  https://openfoam.org
    \\  /    A nd           | Version:  10
     \\/     M anipulation  |
\*---------------------------------------------------------------------------*/
FoamFile
{
    format      ascii;
    class       volScalarField;
    location    "750";
    object      p;
}
// * * * * * * * * * * * * * * * * * * * * * * * * * * * * * * * * * * * * * //

dimensions      [0 2 -2 0 0 0 0];

internalField   nonuniform List<scalar> 
10435
(
0.0145741
0.714419
-7.85517
-2.50675
-3.53028
-6.92526
-7.79449
-8.0818
-9.45456
-8.16951
-0.139179
-6.51427
-8.37696
-0.785924
-0.604258
-8.57919
-1.01645
-8.58061
-11.6969
-0.165062
-8.60483
-2.79949
-8.2773
-10.4384
-7.70208
-2.05482
-2.96949
-8.23608
-2.5104
-7.98167
-7.30234
-0.482034
-8.64649
-1.61956
-9.66566
1.08836
-9.52058
-4.11712
-1.36682
-11.5029
-7.70647
-8.31643
-0.5615
-1.08452
-8.63784
-11.73
-7.67045
-1.50606
-9.23483
-4.35319
-8.5692
-7.07641
-2.14071
-2.62783
-0.727158
-2.50452
-10.5178
-2.57279
-1.49121
-9.45859
-1.86032
0.956787
-2.1783
-5.74268
-8.49088
-8.01155
-1.56526
-2.01732
-8.11641
-9.67457
-1.81455
-2.82028
0.0487713
-8.15258
-0.534429
-0.0343185
-7.04518
-7.53968
-7.56438
-0.622689
-6.09406
-0.51115
-1.80298
-2.07239
-7.09341
0.652814
0.469755
-0.662367
0.425358
0.369021
-1.24727
-1.80839
-0.771891
0.285585
0.228628
0.978054
-3.01654
-0.0339898
-0.801611
-3.25072
-0.916171
-3.58725
0.453286
-0.161828
-4.48492
-1.75734
-1.14494
-5.1056
-7.66811
-0.398458
-3.29692
-2.6505
-0.367581
-0.523665
-1.24823
-1.93346
-4.0559
0.69663
-0.28587
-4.74631
-4.53772
0.249444
0.65403
0.625169
-0.468107
-1.8772
-3.96826
0.288807
-3.49361
-3.04297
0.621601
0.0381473
-8.94507
-0.713335
-2.32208
-0.213128
1.1104
-3.25687
0.171151
-1.2326
-0.65081
-8.63969
-1.31501
-6.00083
-3.58594
-0.178062
1.04257
-6.41867
-0.765212
-7.27543
-1.51761
-8.85228
0.0863331
-7.77796
-6.9861
-1.57811
-1.05653
0.509744
-7.62416
0.631475
-8.32911
-0.814068
-1.22184
-6.34122
-0.182179
-5.35914
-9.67107
-5.16298
-9.55485
-6.7289
-7.70243
-0.709088
-3.70994
-0.0262032
-7.62424
0.939765
1.06479
-1.41863
-2.41854
-1.81206
0.310103
-6.48153
-7.22758
-2.09676
-8.43775
-0.512881
-0.752095
-7.81199
-4.2852
-6.6776
-6.27947
-1.50378
-1.56092
1.21524
-1.82271
-7.92285
-0.417775
0.501255
-1.31246
-9.01973
0.62349
-0.956418
-8.30639
-2.10111
-8.12539
-2.19516
-0.846739
-4.29402
-2.42051
-4.66442
-0.844508
-8.10598
-5.86048
-7.09102
-2.00836
-0.602329
-0.252883
-1.04336
-5.48648
-0.935719
-1.83064
-1.75573
-1.39489
0.392512
-2.07715
-9.43895
-4.91368
0.350077
-7.65615
-0.0731647
-1.54111
-8.96935
-4.95933
-8.62385
-2.86939
-1.06755
-9.4362
-3.27271
-9.68748
-7.60284
-0.543434
-1.74726
-1.05627
-2.47768
-2.48757
-8.55371
0.850103
-7.43904
-6.63636
1.08579
-6.6022
-0.0524708
-8.20508
-5.6753
-6.94211
-3.9001
-8.69708
-6.86767
-1.65495
-1.9904
-7.43402
-7.41223
-2.83483
-9.8007
0.115124
-0.952792
-0.0994775
-8.18674
-1.19481
-3.02699
-7.54878
-6.81761
-6.96813
-8.28269
-6.36911
-5.43599
-1.52518
-2.50364
-8.49832
-6.48577
-7.84724
-1.14566
-7.59465
-0.493888
0.168313
-0.895989
-5.20208
-4.63444
-1.87264
-2.20641
0.812837
0.336953
-2.53335
-6.49979
-4.27279
-7.69059
-0.39801
0.130984
-1.61245
-7.83478
-1.63248
-8.48589
-7.81191
-9.10911
-1.10915
-0.454979
-0.545191
-8.39256
-7.89206
-1.78095
-1.80273
-2.65361
1.17255
-5.46313
-11.1431
-8.64998
-1.08764
-7.19499
-1.7369
-5.76866
-5.37337
-3.62035
0.198895
-1.13486
-5.93099
-8.15909
-7.711
-8.08907
-1.40917
-2.71591
-10.1744
-2.12756
-1.74313
-7.77772
-8.01978
-2.38982
-2.01758
-3.36397
-1.18039
-3.19561
-8.73411
-1.64636
-1.52001
-6.77972
-10.4743
-2.77233
-2.18285
-0.442036
-0.872006
-7.31269
-1.45491
-7.87123
-6.24632
-8.28717
-6.51595
-6.53506
-8.54688
-8.2343
-2.52093
-1.68127
-3.74424
-1.55414
-2.40028
-1.71745
-3.74105
-9.07371
-2.59539
-7.4657
-1.82979
-8.19348
-1.66345
-9.58358
-8.63484
-6.85825
-0.782088
-7.95702
-3.86681
-3.54261
-1.76617
-2.07403
-9.86595
-3.69606
-7.7315
-1.86882
-7.29527
-5.55699
-8.44132
-8.49207
-6.42151
-8.15185
-9.48601
0.47378
-1.17221
-2.21646
-1.12064
-7.7608
-2.00692
-8.41769
-9.58064
-2.5058
-12.6536
-1.24834
-1.98472
-7.58444
-4.54824
-7.44987
-7.89986
-0.825207
-1.97266
-6.93041
-12.1423
-7.52312
-1.827
-2.63302
-2.321
-1.48717
-2.05641
-8.0103
-5.40072
-3.21087
-2.57136
-0.786737
-8.36752
-0.550227
-0.378995
-8.25193
-1.29666
119.459
31.2757
54.9692
37.6156
38.9078
30.9424
27.515
23.5028
15.6485
103.086
29.8076
45.6722
32.6316
33.1589
27.5077
24.6465
21.3074
17.8359
83.0776
25.2584
37.028
27.7869
27.7658
23.8604
21.6679
19.0093
16.3321
64.5551
18.3038
28.0828
22.32
22.4357
19.9334
18.3679
16.3895
14.1731
47.461
11.4072
19.7341
16.8339
17.1972
15.8346
14.9289
13.7606
12.08
31.4353
6.40738
12.568
11.8457
12.3658
11.8345
11.4243
10.7925
9.8798
17.1282
4.60277
7.04111
7.71966
8.21138
8.23305
8.17868
7.96594
7.61067
5.50234
4.5534
3.02686
4.51084
4.86845
5.2213
5.39516
5.48765
4.85564
-3.12762
3.56035
-0.016369
2.06695
2.35237
2.89492
3.20163
3.41241
3.44754
-8.7899
1.43442
-2.15803
0.33925
0.636233
1.27351
1.66126
1.97369
2.13431
-12.2695
-0.691197
-3.30041
-0.681088
-0.359674
0.27832
0.680609
1.0131
1.37129
-13.2219
-1.25047
-3.32729
-1.03832
-0.76807
-0.221752
0.127319
0.39472
1.02766
-11.1999
-0.376815
-2.41452
-0.903717
-0.773699
-0.375562
-0.10291
0.160171
0.452843
-8.72445
0.585557
-1.39469
-0.616744
-0.612063
-0.354267
-0.147947
0.0996248
0.245021
-6.96834
1.04419
-0.651944
-0.3805
-0.442373
-0.288181
-0.132543
0.0703539
0.250865
-5.33515
1.07792
-0.224552
-0.261348
-0.33457
-0.240381
-0.114847
0.0503476
0.255514
-4.24562
0.620589
-0.133518
-0.275778
-0.308611
-0.232945
-0.118187
0.0194689
0.297417
-3.85377
-0.250473
-0.350015
-0.399305
-0.35169
-0.261436
-0.140906
-0.00373624
0.23316
-3.55498
-1.00968
-0.611739
-0.544812
-0.426044
-0.315386
-0.191632
-0.0565045
0.106445
-3.13958
-1.36719
-0.802204
-0.662831
-0.50303
-0.37384
-0.24337
-0.10176
0.0677043
-2.92818
-1.47108
-0.946272
-0.753593
-0.579499
-0.439545
-0.308473
-0.163448
-0.0477253
-3.01429
-1.39194
-1.06692
-0.827157
-0.658773
-0.513839
-0.382322
-0.228091
-0.240734
-3.44176
-1.08281
-1.14474
-0.869985
-0.721037
-0.580574
-0.452264
-0.305023
-0.353714
-3.98528
-0.718441
-1.33827
-1.04488
-0.901161
-0.748328
-0.58195
-0.398691
-0.470707
-3.94987
-0.017311
-0.898295
-0.654667
-0.579792
-0.566648
-0.464651
-0.301463
-1.15556
9.27863
8.90919
8.81466
9.07751
9.44357
9.96338
10.6551
11.5319
12.6009
13.8574
15.2933
16.888
18.5936
20.3677
22.167
23.9256
25.5977
27.1275
28.4717
29.6027
30.5642
31.6226
32.4921
32.4151
32.0039
32.2726
33.2293
34.4217
35.4576
36.5899
37.9202
38.9606
39.5125
39.8083
39.9987
40.0982
40.1384
40.2247
40.4255
40.8784
41.7857
43.2509
45.1764
47.5717
50.612
54.4067
58.9295
63.9857
69.4521
75.2971
81.5528
88.1675
94.9774
101.658
107.799
113.174
117.464
120.793
124.146
0.671873
-0.0440501
-0.659772
-1.25272
-1.82976
-2.38195
-2.90555
-3.39004
-3.8229
-4.18631
-4.45409
-4.679
-4.94167
-5.16557
-5.25689
-5.21461
-5.03718
-4.71836
-4.25066
-3.62354
-2.81961
-1.80223
-0.599645
0.720536
1.81537
2.33493
2.2384
1.51185
0.592507
-0.125537
-0.640185
-1.00423
-1.28545
-1.50376
-1.65668
-1.74222
-1.74397
-1.63463
-1.38505
-0.97286
-0.375904
0.432421
1.30173
1.98201
2.39682
2.5445
2.51505
2.54723
2.85518
3.35708
3.75263
4.08877
4.56696
5.28982
6.76224
9.26131
12.3967
16.0124
20.9398
3.6688
3.62509
3.56165
3.58123
3.65748
3.78764
3.97031
4.20362
4.48545
4.81244
5.18161
5.585
6.02883
6.52565
7.07409
7.66774
8.30098
8.9673
9.66136
10.3761
11.1057
11.8398
12.5454
13.1555
13.6309
13.9937
14.2513
14.3738
14.382
14.3772
14.385
14.3997
14.4138
14.4418
14.5008
14.6065
14.7791
15.04
15.4133
15.9196
16.583
17.4196
18.4418
19.658
21.1041
22.7995
24.8686
27.4642
30.594
34.2101
38.112
41.8755
45.4147
48.886
52.2427
55.2985
57.9425
60.3717
61.697
0.760496
0.455026
0.208547
0.0166633
-0.136592
-0.249713
-0.322959
-0.355973
-0.34871
-0.301001
-0.212913
-0.0858547
0.0773529
0.281213
0.529657
0.826084
1.17253
1.5689
2.01352
2.50101
3.0229
3.5652
4.10627
4.61468
5.0528
5.39052
5.61147
5.71477
5.72221
5.66705
5.56928
5.44048
5.28833
5.12068
4.94429
4.76713
4.59702
4.44305
4.31654
4.22909
4.19605
4.23423
4.36687
4.62207
5.04552
5.68523
6.59795
7.84371
9.43213
11.4217
13.9711
16.9789
20.1823
23.3469
26.3163
29.0506
31.4531
33.6207
35.9312
2.00143
1.9305
1.86033
1.84934
1.87893
1.94658
2.05048
2.18839
2.35778
2.55576
2.78022
3.02891
3.29977
3.59206
3.90447
4.23596
4.58539
4.95019
5.3285
5.71612
6.10766
6.49503
6.86769
7.21355
7.51936
7.77724
7.98096
8.12989
8.22824
8.28551
8.31118
8.3111
8.29413
8.26917
8.24335
8.22845
8.23406
8.26905
8.35155
8.4964
8.72418
9.05803
9.52889
10.17
11.0245
12.1302
13.5284
15.2416
17.2665
19.6116
22.302
25.2391
28.2654
31.2093
33.9465
36.4004
38.4702
40.2318
41.4741
0.996397
0.840887
0.720027
0.644911
0.603132
0.594785
0.619728
0.676989
0.765851
0.884861
1.03416
1.21254
1.41953
1.65427
1.9156
2.20211
2.51213
2.84029
3.1866
3.54598
3.91313
4.27815
4.63102
4.96343
5.25776
5.51095
5.71125
5.86065
5.95753
6.00436
6.00842
5.96636
5.88904
5.78514
5.65099
5.50524
5.3486
5.1763
5.01936
4.88753
4.80142
4.78539
4.86981
5.0908
5.49351
6.10977
6.98803
8.15263
9.62584
11.408
13.4973
15.774
18.0758
20.3909
22.7919
25.1943
27.3344
29.142
30.7105
1.33773
1.27113
1.22095
1.21193
1.23227
1.28109
1.35641
1.45805
1.584
1.7309
1.89886
2.08566
2.29181
2.51504
2.75331
3.00639
3.27681
3.54971
3.8359
4.12669
4.42453
4.7161
4.996
5.27
5.50348
5.71827
5.88722
6.02745
6.12928
6.18944
6.22628
6.20937
6.16483
6.11084
6.01255
5.92722
5.84155
5.71558
5.6404
5.59304
5.597
5.67312
5.84408
6.14156
6.61802
7.26439
8.15146
9.26966
10.6467
12.2737
14.1259
16.1461
18.2635
20.3993
22.4279
24.2334
25.7828
27.1598
28.2511
1.14013
1.04217
0.97156
0.939918
0.929204
0.951069
0.99022
1.06919
1.16825
1.26464
1.40718
1.56327
1.74807
1.96017
2.18466
2.44112
2.71917
2.93972
3.20546
3.48801
3.79966
4.09161
4.36031
4.66308
4.86234
5.08184
5.21776
5.35359
5.45036
5.50496
5.56088
5.49872
5.4201
5.36903
5.17138
5.08371
5.0301
4.68359
4.45994
4.24635
4.06958
3.94039
3.87332
3.90425
4.22185
4.52229
5.17018
5.88157
6.75044
7.90612
9.37596
11.1217
12.9097
14.7697
16.6903
18.5686
20.2466
21.9007
23.2347
1.22332
1.21879
1.20218
1.23207
1.26856
1.33719
1.40465
1.46962
1.58396
1.77114
1.837
1.99683
2.20184
2.35996
2.60073
2.7072
2.98233
3.22294
3.46858
3.66351
3.92832
4.1395
4.3576
4.63358
4.76277
4.97134
5.0512
5.16837
5.31246
5.20018
5.3911
5.2845
5.1106
5.09375
4.83396
4.78564
4.48182
4.06551
4.09512
3.8795
3.71899
3.67424
3.54479
3.57122
3.79745
3.96563
4.39971
4.85691
5.92654
7.03074
8.22766
9.58
11.0548
12.9534
14.6714
16.1768
17.6289
17.5134
18.3036
-7.73742
-7.58434
-7.05584
-6.34642
-5.61257
-5.00997
-4.51349
-3.93535
-3.29612
-2.78997
-2.37807
-1.91062
-1.48409
-1.10296
-0.578783
0.049771
0.657148
1.28483
1.98198
2.76527
3.62354
4.50842
5.46181
6.83822
8.38064
-1.00667
-0.969331
-1.20388
-1.31617
-1.15934
-0.865579
-0.550205
-0.189863
0.145006
0.236667
0.057207
-0.232236
-0.51989
-0.697455
-0.612789
-0.273604
0.129312
0.448286
0.587312
0.581361
0.630989
0.838634
1.18641
1.77601
2.02947
-2.29666
-2.26659
-2.14116
-1.96042
-1.67968
-1.36288
-1.05392
-0.761991
-0.522319
-0.418647
-0.442347
-0.521813
-0.606102
-0.641343
-0.555069
-0.349923
-0.0849991
0.200612
0.480815
0.760014
1.08123
1.46747
1.92492
2.47954
3.23483
-1.75295
-1.73547
-1.59952
-1.45931
-1.27439
-1.06997
-0.86499
-0.674449
-0.51716
-0.420293
-0.38097
-0.371119
-0.36307
-0.330154
-0.246641
-0.113278
0.0479389
0.216417
0.377319
0.529235
0.683938
0.843706
0.995108
1.09775
1.23589
-1.66892
-1.64028
-1.50038
-1.36365
-1.19793
-1.0254
-0.854207
-0.6982
-0.566863
-0.470681
-0.407863
-0.362965
-0.319169
-0.262371
-0.178762
-0.0669834
0.0652656
0.209541
0.360024
0.515903
0.684405
0.871715
1.08769
1.32924
1.73111
-1.53614
-1.48125
-1.34066
-1.22031
-1.07679
-0.935044
-0.791886
-0.662341
-0.549133
-0.455792
-0.383826
-0.32269
-0.260606
-0.19266
-0.109931
-0.0120122
0.0974728
0.213877
0.333002
0.451929
0.573097
0.694583
0.818809
0.925099
1.11533
-1.35352
-1.37931
-1.22604
-1.12465
-0.994835
-0.875509
-0.748195
-0.635443
-0.533262
-0.441054
-0.367357
-0.300728
-0.229186
-0.15641
-0.0729265
0.0207474
0.122665
0.231034
0.343378
0.455803
0.574538
0.697775
0.835045
0.977806
1.23072
-1.1651
-1.28781
-1.11975
-1.04256
-0.91828
-0.814982
-0.692191
-0.593108
-0.503947
-0.413341
-0.344822
-0.280186
-0.198269
-0.121144
-0.0362213
0.0568928
0.155701
0.259514
0.366074
0.470358
0.585218
0.70098
0.831125
0.967773
1.17007
-1.19383
-1.25053
-1.00859
-0.960183
-0.853341
-0.794494
-0.68567
-0.604651
-0.488589
-0.397444
-0.320941
-0.267336
-0.198179
-0.129327
-0.0354583
0.0558213
0.154222
0.259919
0.392474
0.504268
0.612955
0.734504
0.84808
0.907523
1.03444
-7.931
-8.24317
5.17849
5.30743
0.291744
0.124841
-5.22797
0.870065
4.96913
7.04822
-9.61082
0.676857
-15.4567
-1.22227
-12.9999
1.67084
2.05281
5.17703
2.5994
-36.0915
-33.5358
2.42745
-4.95313
2.86713
0.68847
1.56028
0.63997
-0.804706
-10.061
-1.19006
10.5934
1.98114
-7.89567
-18.8541
-2.09141
0.671065
-3.25861
-11.8131
-6.4067
3.62991
-11.2189
2.34328
1.96189
-0.788802
0.824754
3.02709
-10.3554
-9.37788
-10.366
-9.57453
-10.2626
-11.0376
-26.2643
5.12253
-4.98627
4.96897
-1.25317
-30.1209
-0.682316
-8.84591
0.82439
5.38288
0.285757
1.96022
0.820922
-0.880803
1.48823
2.78031
-9.20376
-9.97652
4.75921
2.84974
0.307072
-35.332
-0.0563921
-35.4397
-34.367
-10.4641
-1.0914
5.05836
-17.1355
0.833246
1.21413
-8.34198
0.516655
0.869409
0.373845
-10.5854
-8.66623
1.21516
2.04964
0.148635
2.48063
0.766506
0.202556
-9.30009
1.50793
-9.82664
2.29616
-8.92068
-0.39883
-11.514
-0.455026
2.16227
-0.536143
-0.295596
-4.76878
-21.2476
1.39683
-0.315563
1.98512
1.07648
-1.84098
1.90135
-27.6249
-10.3203
-11.4246
4.34301
-20.1741
1.31959
1.68781
0.971832
3.06052
0.83762
-7.57199
1.97817
-11.192
-36.1777
-1.48881
-9.61289
1.2708
-35.3641
-9.97826
-12.4171
-0.911084
0.347363
0.993078
-0.303091
0.989592
-35.7808
0.319608
-5.72575
-9.21057
1.71905
-10.3268
1.38858
5.23573
-34.7505
0.8745
-2.09394
-2.70243
-1.93618
5.19357
-19.4994
0.543812
-9.22987
-0.0483821
3.65689
-32.213
3.34197
2.05094
4.85128
1.33623
-9.79607
1.91684
-8.19889
-1.30908
0.360083
2.63126
-0.122198
-1.19715
2.11498
2.71882
-8.5312
0.616426
-0.669537
-27.3145
-9.92789
-9.74077
2.71268
-19.5578
2.24418
-23.0185
-19.7597
-0.416395
2.69111
-8.64954
1.34068
-9.65104
1.15006
-9.28352
-9.31441
3.09093
-4.38987
-15.6804
-9.26905
-0.0130502
2.34803
-10.3442
-9.19284
-8.85895
2.57233
0.997781
0.996857
-2.64795
3.63048
2.91963
-0.411913
-10.2564
3.62929
-0.568453
0.844563
-19.3982
-2.75404
-2.49
-9.98841
-0.0282761
2.862
5.14788
0.396383
-0.623549
2.37917
0.668644
5.37682
4.10166
-11.4651
1.93326
2.09714
1.38935
0.275314
-8.93637
0.760564
2.1373
1.39066
-6.67641
4.99057
-31.3436
-0.800062
-20.8389
-17.27
9.93649
0.777252
2.21287
-0.756472
0.266164
0.606019
1.92234
-0.232133
1.53892
2.36017
1.42297
-0.679339
3.61659
-10.3965
1.77544
0.0252346
-1.92178
-33.9997
-32.039
8.74834
2.06651
-1.52098
1.08093
0.398998
-35.188
0.957709
3.50901
5.3212
-6.19474
0.404661
-31.6159
3.13209
2.19296
2.86301
3.18166
5.29599
2.14402
4.82376
-1.32809
-10.5467
-0.740246
-2.5172
3.10165
2.41976
-9.56807
1.15579
-0.437538
4.4082
-9.24156
-9.19542
-9.73758
1.55795
2.1554
-9.88403
-12.8142
-9.97536
-4.99052
0.961441
3.2581
-9.59811
-10.0082
1.9302
3.5087
1.03892
-2.39252
2.622
-35.0007
2.50312
-35.9073
0.98895
2.2701
0.95074
-9.84636
-1.43864
2.18038
-2.71157
-10.3707
3.46349
0.741544
-12.8514
-32.6283
1.43428
3.49797
10.5397
0.589627
0.983868
-11.5145
-24.5719
1.72505
-29.6659
1.73311
-15.8728
-0.652642
6.15642
-11.009
0.821621
0.943846
1.23839
1.2198
2.50494
0.845894
0.564901
-9.41913
-1.05091
-35.135
-0.0346075
-0.122093
2.27768
0.356181
-9.48104
3.08207
2.74101
1.90171
-32.3199
-9.79575
4.04194
-9.3357
-1.11765
2.12627
-8.40491
-10.2632
-4.72645
2.7795
-11.5799
2.4143
0.23436
2.12146
-10.7855
0.964662
-9.21801
2.35209
-20.6091
-9.73702
2.67318
-12.9836
1.18977
1.16677
2.08289
3.32282
5.70231
-4.56067
1.39524
-6.74439
-1.06703
-0.740413
-11.9475
2.06319
-36.054
-9.37398
-9.11586
-4.02952
3.66615
0.212975
-0.777997
-19.1568
7.56231
2.2489
-6.25761
3.58077
-9.9844
0.766123
2.12637
0.465362
-8.79088
0.452757
2.72317
-5.7329
0.259523
-1.12204
4.58575
1.91993
0.858891
-9.49548
0.865262
1.54235
3.58183
-10.3257
-9.15667
3.56903
1.1778
1.76214
3.1128
1.25891
-0.537928
2.98522
-10.2548
1.25102
3.39824
3.06247
2.01861
0.705537
-0.0103996
0.220117
-1.0244
-6.97517
2.27591
1.35734
2.12802
2.24034
3.40751
3.20055
-17.6719
-9.59202
-1.25081
-14.5782
5.68923
-0.751513
3.74279
-0.676266
-1.13357
2.77788
2.10935
1.24174
-9.67858
1.71526
-9.98154
-8.0922
1.03581
2.10412
-35.3361
1.31634
-1.50434
1.80125
-18.5967
-10.286
0.483622
-0.274091
5.51176
3.03144
-8.3233
-0.831688
0.363201
-4.21218
3.4981
0.8969
-21.1797
0.317582
0.075092
-34.5097
-33.7356
-2.69862
-7.65011
2.54786
0.578502
-8.88931
0.39648
0.743814
3.63313
-2.9623
1.95434
-20.4885
1.64698
1.0831
-0.434728
0.888724
-0.363472
-17.7154
0.825268
3.02941
-9.66291
1.9677
-8.38249
1.01941
-0.772517
-28.4983
-19.0638
1.2735
1.18008
-5.69413
1.69081
2.20279
-14.1289
1.11761
0.476746
2.70329
-10.7972
-2.61472
-10.1568
1.13664
-3.4839
1.05232
-9.47533
-36.0474
5.65832
-16.9658
3.85435
-10.3589
-10.4828
3.21847
3.13055
-0.527545
1.50993
5.3149
4.31914
1.24844
-1.4091
1.53566
-9.8573
-10.2743
1.55787
-13.5515
0.0721646
1.66274
-5.66433
1.91334
5.49114
1.30824
-0.669653
0.841442
4.64498
-6.06035
-8.22697
-1.49332
-10.2526
-10.1336
-10.2703
0.584008
1.31738
-9.4045
-10.452
0.446939
-14.7136
1.37005
-19.21
-1.52012
6.97229
-3.29459
-0.822119
2.12069
1.67979
-10.0045
4.51392
-12.2244
-0.284852
0.120057
-1.09041
-9.52932
-10.2694
-0.650187
1.99332
-35.3588
-27.0957
2.34332
1.04568
1.05366
-5.61241
2.2728
0.128492
-6.3601
3.71183
0.0736895
0.435037
2.13352
-23.7377
1.94412
-0.833819
-20.7785
-10.288
0.329117
2.25154
-9.3921
-0.795399
2.46098
3.61189
-35.9523
1.85022
1.04746
4.53728
4.36758
2.10634
2.16569
-5.5044
0.679659
2.57159
-0.441359
-27.3962
3.20145
-0.0713963
5.58266
2.40089
0.492434
1.23798
0.440263
-2.07673
0.0927188
-8.98508
-8.56376
-0.799849
-4.67712
-0.279809
0.20344
0.255828
2.61816
1.50891
1.34946
-28.1101
1.66753
0.823756
-1.87467
-25.8413
-3.42443
-1.0862
-0.903144
2.13898
0.270264
2.72006
2.04444
-0.98591
-9.08721
-22.6019
-32.1063
2.83442
5.52114
1.85917
4.06497
4.89048
-9.48959
17.9437
-35.8358
2.38096
-10.2675
4.91078
-10.0027
1.77688
0.351307
1.00442
-6.70461
3.65951
-0.843841
-27.1489
0.0267582
4.06628
0.624231
-9.88186
2.50017
1.41446
-12.9896
0.697665
2.55786
5.33901
2.24584
-24.5757
3.46787
1.2476
3.48493
-1.07691
2.08153
-10.1766
-5.71419
1.81345
-6.31138
3.49578
-8.4476
1.15095
1.81497
2.31775
1.54507
-5.17333
1.51985
2.22333
-0.639832
2.90006
1.72442
2.96508
3.63955
-8.75919
-20.8911
-2.41385
-9.84995
-9.34584
-3.4609
-2.43114
5.89238
0.016846
0.460091
2.72174
1.38923
-1.56102
1.50043
0.740108
-10.9247
-1.16834
5.84361
-0.072922
2.20128
0.724687
0.680153
-2.20656
-20.5139
-6.77174
2.15195
-9.97812
-4.78837
-10.0143
-35.7152
-10.3854
-9.66434
5.35901
2.85442
1.41363
2.50236
3.34912
1.20393
-15.0085
-8.77751
-0.901009
-33.1813
-0.959197
3.14242
0.771769
0.933181
-8.36792
5.50092
0.809318
-5.2938
-22.4378
-22.1961
-10.4311
2.72525
2.68396
0.175352
2.55335
-8.83532
-1.89923
-4.68828
-21.3197
-0.107643
-24.2963
1.43273
2.77273
-0.53805
0.0399656
-0.274241
3.37197
1.80063
1.50433
1.04483
1.38553
1.99727
1.12627
2.11722
3.66837
-10.0941
-8.68868
2.25207
2.80238
1.97117
-35.5842
0.555397
4.20145
1.01662
-32.9198
-2.45182
2.59575
0.502796
-9.83335
5.43634
-33.7532
1.19846
-34.0739
-15.4563
-27.659
5.67274
-13.3635
-1.40484
0.594787
-5.63928
2.2695
0.744034
1.30525
-8.9693
5.16405
2.0033
0.51746
-9.74221
0.295763
5.42409
2.13246
3.01551
2.11392
4.64442
-9.4519
-6.80551
2.32311
3.2584
2.58569
-34.3109
-6.80112
2.22255
0.548092
-0.321364
-31.9938
3.3729
0.910111
-8.23904
2.97975
1.10817
5.67046
1.97711
-26.496
1.11972
-33.0091
3.40382
0.981106
-14.1018
2.63135
0.504975
2.51836
-0.653188
-30.2812
-10.7497
2.72475
3.40405
0.971895
-14.2368
-35.5996
5.24475
1.37863
-17.5815
-11.5132
1.31177
-0.373576
-0.43347
-9.18066
3.72158
-34.7608
1.70272
1.32825
-21.7879
1.35258
5.65866
5.26979
-35.5796
-9.84315
-8.91936
-8.90779
2.13754
-4.81741
-14.1123
0.786752
-5.07618
0.643981
-0.431525
-35.4412
1.0877
0.203753
-35.2756
5.53173
3.18816
3.00967
-8.21843
-1.43281
1.4302
-25.9751
-9.67756
-10.6689
-0.380508
1.43294
-9.4728
-3.73379
-14.1285
-26.5117
-8.58875
-2.05264
2.64947
-3.50101
-9.84783
2.93297
3.35539
-1.99329
2.55846
1.81593
-3.13954
-6.98515
1.8289
-0.25315
0.712913
-9.30469
-5.34383
-10.1211
-10.4488
4.05472
-0.828154
-3.24418
1.00731
-8.87631
-26.3279
2.68146
0.978082
1.03766
2.81928
-33.8059
-8.39277
1.03823
-9.74268
0.426894
-31.0949
0.59446
0.648571
0.905009
4.09569
-10.3753
-0.941736
-30.8601
1.66815
1.80268
-8.96871
4.00572
-8.13943
-13.0403
0.164435
1.07712
3.10351
-8.1764
1.30549
2.65074
0.805525
-0.702302
1.31772
-0.495634
-31.121
-6.27128
-0.325171
1.35413
2.74146
2.34189
-0.382174
2.19388
-29.5646
2.55756
1.3193
-9.73499
-35.7552
3.8419
1.42992
1.97331
-3.31856
3.00349
-10.3394
0.139675
-0.388556
-1.37986
1.29756
1.42983
-2.03635
0.258263
-10.3293
5.30066
3.35647
2.4973
-5.90559
-5.93135
-11.3738
0.731342
-33.3851
1.74331
2.64843
1.53408
-9.76857
-19.9434
2.78811
0.680518
3.37335
-9.48688
1.16954
-10.1817
0.354214
0.58553
2.81649
-3.23662
-10.5527
1.30822
0.355979
-35.4232
3.04911
-0.538531
0.852476
2.47741
1.27521
-9.75436
1.93404
1.3426
-24.7909
-0.573509
-9.02601
2.84043
-1.71618
2.04387
3.84998
2.71779
-0.331092
-7.49947
3.83144
-1.10556
3.09101
0.926609
-3.75608
-9.68475
1.63822
0.685591
1.31441
2.57403
3.53362
3.34346
-9.41913
5.15381
-35.5006
1.62568
-9.81037
-1.24413
-0.594266
-35.2819
1.4055
-9.7342
-5.22714
-9.1018
0.933436
1.07951
-0.531101
-10.2484
2.79428
5.42885
2.71795
1.33238
0.819821
-0.853433
3.37809
-0.180482
5.297
10.9986
3.60258
-9.42319
5.86466
-9.06056
3.71314
2.10095
2.54529
5.91046
-23.4319
3.32144
-35.4178
-26.2893
0.543458
2.57994
-10.3288
-9.71166
2.88496
3.36052
2.92239
3.36534
4.92677
-0.542908
-10.2049
1.50419
3.24269
-18.6963
0.875338
-2.60367
-11.2437
2.36126
0.429869
2.57406
-0.692931
-23.6973
5.53381
-33.8525
-1.31472
-0.513208
7.36016
-11.5529
-11.6974
2.04974
4.27249
-33.1485
3.20547
-0.432439
-0.421353
-9.67949
3.44129
3.97459
3.19303
-0.876411
-8.7758
0.275067
3.23201
-8.12179
-9.76104
2.76499
2.24862
-0.127482
4.19008
2.19885
-23.2526
0.795195
-29.1684
0.896274
1.13214
0.689608
-25.4535
2.05902
-8.46793
1.00641
0.495009
-8.16568
-12.4762
5.52216
1.75301
-11.5095
-25.3209
1.15268
3.23128
1.05076
-0.440946
2.06292
0.793581
1.23866
2.79509
-0.308363
-0.647355
-10.82
-0.379954
1.36274
2.36233
-9.25316
2.82334
-9.26454
-9.70243
-0.263509
2.22093
1.42975
2.62931
1.25301
-32.3775
5.49023
1.62458
1.0066
2.68485
-24.7558
-11.5968
1.77631
1.45066
-0.180681
2.75733
0.47589
-0.759666
3.98803
-0.318254
-1.45574
-10.1546
2.06962
2.18188
3.96918
1.18745
0.778456
2.50551
5.32809
1.4695
3.22637
-12.9853
1.59253
5.70598
-9.99706
0.453438
-3.26597
-9.09701
2.33717
1.05922
1.72767
-14.1358
1.78533
-19.6044
1.4995
-10.0112
-9.16352
-36.0052
-10.1959
3.4674
0.824263
-35.207
-32.2037
-0.127147
2.46594
3.40849
-6.50527
1.46461
2.22487
3.19598
3.28975
-3.85902
3.31503
0.0844693
2.88562
-10.2161
-35.494
6.75664
4.16478
7.19901
2.14612
1.0132
-0.551275
3.83614
-0.442517
-7.64383
-35.7956
2.57657
-32.9963
-9.66015
-35.7734
-9.69869
-1.46347
-15.6414
-11.1801
-9.27848
2.74368
-10.0438
2.93063
4.75056
4.46292
-0.444982
-15.332
-19.1923
-10.1811
-19.2104
-0.568885
1.96332
-5.41318
-10.3585
3.95773
-11.5215
2.68699
-35.8267
1.12731
-10.1715
-2.70175
-0.522553
1.13633
-35.8874
1.05452
-2.1022
-35.7303
2.31597
-10.5079
1.50896
1.84611
-9.0713
-5.27301
1.36591
-23.7991
-14.2167
4.34606
-25.8648
4.03356
0.269185
-0.683188
-0.325008
-9.26912
-16.9529
2.86004
-10.7114
-2.00192
-30.7096
3.95529
1.14163
2.0805
-31.3705
-3.26931
-27.1119
1.85682
-9.58508
0.25905
-25.3465
-11.4294
-2.42054
3.06634
-15.1801
2.40881
1.63407
2.45041
-31.2966
-10.4302
0.828414
-10.3598
1.83342
1.09778
-5.78212
1.89018
0.83517
-16.709
2.33787
2.46924
3.95849
1.01253
2.20415
3.91057
-8.00676
-10.281
1.16058
3.61354
1.60484
-15.5352
-10.4246
0.867096
-1.59281
-0.452324
-11.234
-1.64472
-2.53607
-12.2931
0.636595
-24.9304
-11.4923
0.76981
0.829056
3.47894
4.05338
0.613204
1.79659
-0.173564
-0.738499
-10.4499
1.97175
-11.2796
0.669397
-10.4245
2.20877
-20.3535
-2.36109
-35.24
-10.2324
-0.15901
-1.56743
2.16747
2.21659
1.96149
-10.0875
-9.78703
1.11863
2.38806
2.45461
2.57512
0.851786
1.54436
-9.37079
-9.479
-35.2113
-11.4349
3.30091
0.555969
-18.5861
3.43169
-10.2848
2.55953
0.788537
-0.476526
1.44852
0.876401
2.26549
0.893987
-2.14671
-7.27457
-10.3189
1.49295
1.04264
-33.8643
4.62469
1.08414
-1.59075
-8.81024
-9.23864
1.74262
-35.6975
1.21927
3.2705
2.92018
0.634391
10.9793
-0.286068
-2.74202
1.53444
-0.57779
-35.7675
1.93004
-10.4007
-9.03331
1.9033
-1.29987
3.32473
-0.436496
-19.1865
-0.208329
-10.1455
-0.553409
1.61151
-0.449652
3.75925
-1.0248
3.49009
1.89978
1.59618
0.561171
1.53508
-24.6795
2.74785
1.43507
1.24201
1.92689
2.81679
-0.45119
1.28236
3.72205
-10.264
1.43032
-10.4297
5.38931
-32.5908
2.58777
3.30313
0.809602
0.525672
-10.0298
2.43236
1.99617
4.39669
0.384383
4.84188
4.40574
4.31546
2.70173
-7.34193
1.01327
1.46566
-11.2509
0.96455
3.77983
1.61565
-4.2507
1.56929
-10.3863
-9.92516
3.3037
5.47225
2.774
2.55273
-10.2637
3.28897
0.538579
2.20355
-24.5751
-0.284164
3.11962
0.348371
-8.188
1.52833
-0.175247
1.40927
-9.68285
1.03572
2.77105
-16.8502
1.74537
-3.67636
-10.5358
8.9943
-18.4533
1.824
1.64966
3.54076
0.863757
3.1144
-9.81092
2.02239
4.8731
-10.8572
2.12486
3.11661
3.58169
-0.874921
-6.44532
0.580488
0.384536
4.78196
1.59072
0.333356
1.58803
-0.484217
3.19837
0.803055
-22.5161
0.510546
-14.2089
-0.106635
-33.8707
-10.3155
-34.7982
-9.4589
3.65178
2.44426
-25.5607
2.7481
2.07344
-10.2461
1.53756
5.63526
-10.335
-14.7808
1.99456
-9.20854
0.217643
-10.1893
-0.0164028
3.42217
4.34231
-0.700002
-33.5903
2.05089
3.29196
-1.26999
0.900632
-15.916
-0.381527
0.739754
-8.46645
-0.76735
-10.3804
-0.882767
-10.8054
1.90245
4.02582
1.52889
2.04905
-29.873
-9.03291
-32.9551
0.241103
-8.49325
-29.2367
3.95193
-35.793
-2.86895
2.76128
-34.3682
-9.83731
3.06963
-0.457298
0.107302
-11.2581
0.700289
2.92417
-30.4803
-29.7002
-0.933308
-11.1266
-19.5123
1.06543
-0.561195
-5.44434
-0.324413
-34.4316
-0.403408
1.99415
0.925435
-0.475624
0.440174
-2.76453
-10.4284
0.55315
-4.26906
3.24497
1.73399
-10.0648
2.32815
-35.4347
2.66819
1.01339
1.36975
4.88726
1.26739
1.59168
3.49192
-0.133052
3.46572
-9.9661
-31.4173
1.02873
-35.786
0.558991
0.91464
1.9296
1.96668
1.61369
-13.7244
2.9546
-4.77484
-10.3125
-10.2523
-34.5456
3.8161
2.38284
-8.92855
2.20221
1.64577
1.77109
0.743695
1.39267
-9.19916
3.24601
3.58283
0.669783
-0.427049
-0.755788
-8.90028
-3.71517
-3.10127
-4.09348
1.18449
0.921313
5.06662
1.30518
0.62274
1.25337
-0.46559
1.06143
7.64509
2.58753
2.9197
-4.60217
-10.5195
-13.6391
-0.416319
3.87071
-3.49069
-9.254
-10.1649
0.201424
1.19998
-1.0328
2.5898
0.671065
-0.449643
-9.647
-3.78574
0.821006
1.60578
1.95301
-0.531603
-10.3071
0.0373241
2.05854
1.02957
1.32873
-10.2155
3.15397
-18.8764
3.57068
-0.220691
-0.465124
2.4784
-10.0553
-2.73355
1.9952
-11.592
-33.0075
-1.14514
2.89311
1.65587
-26.5549
-10.7617
-11.3732
1.03069
-35.6052
2.62132
5.70595
0.0560807
-10.1319
0.752722
1.09628
-4.19741
-8.19293
4.77571
0.316714
-9.93799
0.865325
3.81021
2.33649
3.28704
5.19897
3.70864
2.4974
3.55443
-8.44888
3.24294
0.52644
0.212113
0.708691
-2.41126
-0.0809211
-27.6307
-3.25702
-3.77748
2.95757
1.73345
3.38616
3.25996
1.86416
0.861373
-31.1987
3.71498
0.0550497
3.86535
4.39427
1.59621
-0.330243
3.50803
-8.70724
0.69581
-34.0411
1.95585
4.27485
2.33847
2.10459
2.13997
-10.3637
2.45316
0.185001
3.40485
4.1564
-28.7637
1.04848
2.43194
-3.54652
-10.5902
0.576515
-10.1509
3.29392
-32.191
2.72972
-8.80011
3.09649
-4.41194
1.18156
-10.4152
-0.730647
-20.0766
-8.9649
-9.56336
-1.68638
-11.5297
1.1076
-0.0418378
1.00773
-10.3205
3.36153
-0.176141
-35.6121
-9.66854
-9.41505
3.45894
-11.446
-0.409784
2.04485
0.757954
-3.07853
3.57304
-12.5201
1.8891
1.51398
4.20193
3.00076
2.96588
-7.12054
2.45712
2.71002
-9.91545
-3.26541
0.187232
1.07294
-9.52999
1.79874
2.12039
-11.0067
3.24717
4.22653
-5.58728
2.20813
-0.466925
-35.998
1.22834
2.83538
2.89086
0.691063
3.28572
1.78567
-10.3927
0.410604
-18.1668
-0.988975
-0.544031
-9.99454
-0.61135
-1.40118
3.3727
0.247046
1.60709
0.421653
-15.382
-8.92801
2.52644
2.0258
1.39179
-24.7097
-0.232999
-3.30941
0.44969
-0.569505
1.38134
2.79357
-3.67216
-0.348866
-24.3479
-30.3647
2.62781
-20.4215
3.25851
-33.746
-3.11207
0.760074
2.05822
-0.107938
2.11648
1.78641
-23.6734
3.09863
-3.17266
-10.0726
-35.6089
2.20415
0.437022
-5.98106
0.581895
-6.03683
-11.531
1.92588
-9.39743
-34.6809
-8.90118
3.51691
0.463667
1.16737
5.166
-8.90949
3.00365
-10.5158
3.20125
3.54328
-0.74764
-9.67466
-28.7507
1.15282
3.18389
4.0001
2.77709
1.92874
-3.78012
-35.0826
2.03705
0.922322
-10.2414
3.18692
-31.8537
1.53094
1.5018
3.4865
-10.1289
2.28176
1.23148
2.50627
2.69445
-0.795183
1.72324
-9.75215
-0.610605
1.29043
2.03942
1.11704
-35.3202
0.263468
0.109477
-12.7484
-10.1525
-0.513807
-33.1311
3.61333
-9.9127
-35.5064
3.37498
-0.794308
1.77489
1.62104
0.15069
-18.8221
-2.7306
9.60734
0.6363
-10.7546
3.02105
-9.13774
-34.5419
-2.08328
1.23555
-5.61501
-0.480718
0.839804
1.21614
3.25867
-35.204
-9.20323
2.27715
-32.7417
0.263866
-34.1419
4.84724
-9.63898
-10.8847
-9.60721
5.05205
-0.828816
3.41191
-0.41087
-35.0406
-9.23839
3.08402
-3.36931
0.269082
-10.1778
2.31222
-5.44371
3.07267
-9.51116
-0.557561
-29.6896
-1.05981
-4.36859
-10.2446
2.70588
-0.235072
1.96422
4.28044
1.65741
-6.96912
3.51148
1.55951
-31.4368
0.21504
-1.68866
-0.724998
2.35081
1.83087
-33.6555
-10.0957