/*--------------------------------*- C++ -*----------------------------------*\
  =========                 |
  \\      /  F ield         | OpenFOAM: The Open Source CFD Toolbox
   \\    /   O peration     | Website:  https://openfoam.org
    \\  /    A nd           | Version:  10
     \\/     M anipulation  |
\*---------------------------------------------------------------------------*/
FoamFile
{
    format      ascii;
    class       surfaceScalarField;
    location    "750";
    object      phi;
}
// * * * * * * * * * * * * * * * * * * * * * * * * * * * * * * * * * * * * * //

dimensions      [0 3 -1 0 0 0 0];

internalField   nonuniform List<scalar> 
16133
(
1.89219
0.0730812
-0.256399
-1.70913
-1.53039
0.632995
-0.798446
1.69582
-0.425463
-2.27379
1.7118
0.987452
-0.349551
0.188787
-2.70372
2.86446
-0.483456
-0.289743
3.6228
-2.84969
4.25425
1.48377
-5.28566
-0.452373
-2.31927
0.780936
1.39061
0.147727
0.0273864
-2.20858
0.513236
1.66796
-1.26848
2.00162
1.30352
-2.03667
0.653647
3.05285
-0.292879
-3.41365
2.05564
-1.87204
0.581412
-0.76503
2.80873
-0.840283
0.741156
-2.70965
-0.0392301
-3.30003
1.93885
1.40042
1.01967
-0.881521
0.441262
-0.579421
1.1368
0.480933
-0.598078
-1.16454
0.842596
-2.3747
2.69662
-0.510225
0.371501
-0.742807
-4.49253
1.27022
3.46858
-0.246213
-3.48437
2.91467
-0.698797
-0.0550701
2.08129
-0.134035
-0.430123
1.85013
-1.53658
0.116561
-0.493235
-2.64908
2.79274
-2.59131
2.61562
-1.18887
4.27624
-3.38363
0.0933122
-0.985912
-3.06233
3.7583
-0.0423394
-0.00271578
0.00430948
-0.0639679
0.0623735
0.014587
-0.00638112
-0.0104445
0.00223803
-0.256685
-1.61301
1.49395
0.375745
-0.0327988
0.057379
-0.0510025
0.0264225
-3.90657
2.46689
2.12756
-0.588521
-3.31217
1.77314
-0.71299
0.66581
2.10281
0.734748
-1.99549
1.28813
-0.011153
0.180422
-0.0399668
-0.129302
-2.01243
-1.96383
1.9949
1.98134
-1.01518
0.861036
1.14151
-0.987375
-1.61061
-2.91512
2.51329
-0.0215443
0.0713762
-0.0834699
0.0336378
0.0419727
0.0815742
-0.0222311
-0.101316
-3.26988
0.603149
-0.817634
-3.90205
-0.297406
-2.27446
-0.470271
-0.853839
-0.187766
-0.00202015
1.04361
-0.182209
2.45082
-0.0248464
-2.24377
2.8111
-1.25585
-3.16587
1.94188
-0.935536
0.726923
-0.374736
-0.408954
-0.238874
0.563462
0.0843611
1.60193
0.865633
-0.465929
2.78092
-2.63145
-0.642721
-1.15234
-1.48637
-3.61249
3.68871
-2.56419
2.48803
0.112298
0.0419866
-0.112312
-0.0226445
0.0351291
0.0625456
-0.0750301
-0.0154945
0.0453983
0.0516707
-0.0411064
-0.0242938
0.032602
2.73567
-1.40675
-4.24404
-0.0276463
-0.0630186
0.0934182
-0.00275362
-0.587225
0.870483
-0.386815
0.103553
2.71372
0.068656
0.0177329
0.0259088
0.680444
-1.3184
-0.892446
0.05162
-0.0356704
0.0342787
-0.0502288
1.6457
-2.95411
2.5899
-1.28144
1.40098
-1.1812
-2.5581
1.74755
-1.46324
-0.477732
-0.105521
-0.00397164
0.070324
0.220464
-0.0835447
-0.207246
0.669997
1.69337
-2.78575
0.430884
-1.02874
0.0363776
0.0099535
-0.0689757
0.0856377
-0.0168184
0.00591587
-0.0747347
-0.901997
0.334221
1.46075
-0.892977
1.49093
-2.29219
-1.75685
0.425595
-0.75965
1.47085
-0.660502
-0.983676
0.886841
0.757322
-3.01793
1.25665
-1.02446
-1.341
0.896381
1.22556
-1.30114
1.2618
0.774102
1.36676
-1.25499
0.313823
3.04456
-2.89349
0.693904
-0.845021
1.75993
-1.59381
-0.184432
0.018306
0.0551594
0.109953
-0.123126
0.0418597
0.0743886
-0.0811193
3.39596
0.577072
-0.928492
-0.919106
0.725666
1.26185
-1.06842
1.59337
-1.41247
-0.711279
0.530372
2.359
-2.13569
-0.405514
1.01511
-0.583532
0.314671
-0.74625
1.76469
-0.629816
0.458502
2.62124
0.124126
-0.386376
3.22306
-0.413057
1.92055
-0.0875336
1.24037
-0.717007
0.491738
1.95758
-0.49194
0.299043
-1.08247
-0.851827
1.1374
2.67187
-0.58626
0.854539
-0.608012
-1.00618
0.874526
-0.205421
0.20137
-2.39427
2.62783
-0.731494
0.497875
1.0152
-0.744198
3.2494
-3.07671
0.55783
-0.73061
0.553568
-0.411594
0.233482
0.429099
3.49653
-0.676223
-0.128779
2.06332
-0.197852
0.641388
-0.753966
-0.0309459
4.42222
-0.995351
1.40241
-0.306548
0.270893
0.335207
-2.43526
-0.531407
-2.77899
-0.781228
-1.4716
-0.235682
0.113471
-0.271366
0.202174
0.341674
-1.59856
-2.44265
-0.705592
2.46142
0.872
1.41161
-1.97043
-0.591186
2.1561
-2.62667
-0.509065
2.43011
1.58273
1.42996
-0.551312
0.624087
-0.28931
-0.995285
1.56053
-0.778739
-0.859271
0.600926
1.42931
-1.17098
-1.94517
2.11624
0.681492
-0.852591
-0.0429022
0.10549
0.00520794
-0.0677964
-0.686302
0.757998
0.940696
-1.07461
3.33354
-2.75134
-0.046169
0.0419809
-0.0104301
0.0146183
1.02898
-1.13027
-1.78079
-0.877377
-1.84634
-1.10368
0.329616
-0.0165345
0.0817467
0.0204257
-0.0636598
0.13315
0.0984517
-0.167942
-0.671839
0.766955
-1.17759
-0.563392
2.84156
-1.74903
-2.22907
-0.238436
-0.0260605
-0.121717
-2.36197
3.23369
0.0104918
-0.156407
-0.331816
-0.646886
1.61718
-3.27275
2.3025
2.87072
1.00533
-1.02359
0.644013
-0.62577
1.11383
-1.18475
0.74663
-2.71339
-0.710688
0.832579
-0.632127
2.19631
0.844494
-3.68772
-0.435184
0.100239
-0.0740106
-1.05644
-3.51618
1.87134
-1.66923
2.6606
1.15289
3.45896
1.71351
-0.129145
0.0232231
0.252185
-0.146263
2.39972
0.541481
-0.825017
0.772226
-1.45482
0.767406
1.63624
-0.948853
4.00693
0.957288
-1.80118
-3.16304
-0.977872
0.315453
-2.35114
2.60388
3.1529
-3.12351
-0.0603886
-0.174231
1.33853
2.35028
2.56592
-1.85588
1.4678
-1.60742
-2.7733
-0.400116
2.66431
-2.40812
1.59199
-1.02415
1.84026
-2.94452
-3.28241
-0.105035
-2.18507
0.392511
-0.500717
-0.793789
0.00976765
-0.00296189
-0.00263113
-0.00417504
-0.242036
0.639352
2.80564
-2.75551
0.79434
-1.24918
-1.00411
-0.955631
-0.602368
0.553475
-0.204187
0.253068
-2.25107
-0.422639
-0.0746632
0.121954
0.0100878
-3.99974
-0.539296
-1.76847
0.889443
0.0930983
-0.0673448
-0.758492
-0.938475
1.84499
-2.24752
1.71399
2.46661
2.3282
2.36271
-1.77305
0.132165
0.0570895
-0.134095
-0.0547128
-0.00799062
0.931001
-1.15143
0.430463
-0.809793
1.65899
-1.92748
-0.640576
0.816718
-0.814112
-0.971316
-0.0409281
1.53956
1.15564
0.118959
0.0260837
-0.166587
-2.14636
1.85045
0.162689
-0.918006
1.05255
-1.62536
2.28036
-0.313356
-0.618055
0.0383296
0.0805463
-0.0672562
2.94655
-0.233544
0.0417194
-0.24336
1.83208
1.00383
2.89021
0.00521355
0.0191408
-0.707098
0.960249
-0.344657
1.41182
0.128906
-0.114197
-0.152573
0.137864
-0.0520886
0.0493726
0.268154
0.0647586
-0.0873262
-0.0520957
0.647833
-0.370785
0.27642
0.292293
-0.0792653
-0.202536
0.7202
0.225014
-1.18726
-0.0271078
-0.079323
0.134985
-0.0285545
1.68813
0.0510946
-0.0556669
0.00457256
-0.615354
-0.945011
2.36347
-3.18762
0.913968
0.784043
0.377397
-0.381194
-0.200393
-1.65412
-0.000994079
0.800314
-3.35921
-0.0402578
0.0467902
0.0142446
-0.020777
-0.300397
-3.35041
-0.0809947
-0.0176268
0.0715131
-2.5313
-0.388222
-1.89191
3.56002
-2.03634
-0.0288049
-0.119907
0.0693879
0.206974
-0.269659
0.19159
-0.0243933
-0.0526968
0.0359841
-0.620056
1.47018
-0.709313
1.40876
0.85726
-0.607022
0.0141028
-0.026353
0.0122501
-1.08385
-1.05779
0.0272804
-0.0405959
0.0133164
1.30272
-2.84075
0.810932
0.789971
-0.34576
0.997507
0.0230618
0.00421867
0.281054
-0.155715
-0.173403
0.299724
0.0967093
-0.382672
1.55881
-0.380204
-0.607833
2.66031
0.150089
-0.0603407
0.0424158
0.0268773
0.072966
-0.646914
0.869023
-1.60922
-0.333975
1.44214
-0.332247
2.6484
0.0447299
0.00464195
0.105733
-2.39237
0.885706
-0.503813
-1.52275
1.06828
0.656104
0.1661
-1.51381
1.47362
-0.150752
-0.0342314
0.0707862
3.89325
-0.0711619
0.0405412
0.0886177
-0.0872994
-0.116242
0.169847
-0.909582
0.140201
0.0200823
-0.0933933
0.0297972
0.0333254
-0.0631225
-0.334757
-2.16425
2.90984
-0.3518
0.31734
0.111243
-1.37358
0.00804092
0.00606173
-0.795493
-2.95194
0.285406
0.0386606
0.0956006
-0.0937202
-0.309465
-0.14139
-0.00477124
-1.10849
-0.101595
-2.36858
-1.27551
-0.0107987
0.12328
0.193432
-0.173362
-0.604814
-0.02382
0.0113642
-0.0232149
0.0580316
0.144389
-0.145331
-0.190262
-1.68457
-2.25344
0.0411332
0.00359644
0.0623599
-1.38789
0.0174092
0.948289
0.0126066
0.0114086
0.0587203
0.0796235
-0.0996834
0.345717
0.115424
0.0122721
0.0346381
-0.0457147
-0.0145629
0.0112718
-0.135335
0.206971
-0.111603
-0.00954953
0.0146285
0.0420423
-0.000909216
-0.0018867
-0.000744724
0.112426
0.0200245
0.00208469
-0.00786462
-0.15638
1.29729
-0.923485
0.887994
0.028762
-0.105377
-0.00712606
0.108971
-0.257233
-0.39722
0.660198
0.382854
-0.959279
-0.915228
-0.0231431
0.0329919
-0.0415581
0.0209168
-0.059754
-0.0169349
0.0196356
-0.00397796
-5.71401e-05
0.0420995
-0.0322858
-0.0488541
1.41233
-0.00978305
0.0341091
-1.41197
0.28797
-1.26446
-0.466122
-0.0657222
0.00461471
-0.0117408
-0.0338418
0.0141946
-0.0402665
0.0493885
-0.00965608
0.37766
-0.522868
-0.725158
0.498188
-0.0105714
-1.00157
-0.324262
-0.067114
-0.0324802
-1.03843
-0.926766
-0.0175206
-0.0458041
0.0236791
0.105429
-0.376032
0.0353512
0.0176337
-0.0382974
1.18428
-0.0144121
0.0269389
-0.00755726
-0.113435
2.76122
-0.21939
-0.213051
-0.663699
-0.180321
-0.613588
-0.00487141
0.126889
-0.122016
-0.00912504
0.133139
-0.128885
-0.0134349
0.145169
-0.140858
-0.018097
0.155113
-0.150451
-0.023041
0.164824
-0.15988
-0.0284198
0.17354
-0.168161
-0.0342108
0.182038
-0.176247
-0.0405483
0.190279
-0.183941
0.198485
-0.191949
-0.0470843
-0.00387919
0.130768
-0.00783905
0.137099
-0.0117089
0.149038
-0.0158645
0.159269
-0.0202106
0.16917
-0.024966
0.178295
-0.0300978
0.18717
-0.0356471
0.195828
0.204393
-0.041555
-0.00332141
0.13409
-0.00674761
0.140526
-0.0101336
0.152425
-0.013738
0.162874
-0.0175332
0.172966
-0.0216571
0.182419
-0.0261012
0.191614
-0.0308726
0.2006
0.209483
-0.035963
-0.00294082
0.137031
-0.00580783
0.143393
-0.0086562
0.155273
-0.0116847
0.165902
-0.0149069
0.176188
-0.0184116
0.185924
-0.0221944
0.195397
-0.0262688
0.204675
0.21388
-0.0306658
-0.00259879
0.139631
-0.00489658
0.145691
-0.00718168
0.157558
-0.0096293
0.16835
-0.0122646
0.178823
-0.0151534
0.188813
-0.0183046
0.198548
-0.0217327
0.208103
0.217598
-0.0254506
-0.00213785
0.141768
-0.00389629
0.14745
-0.00563475
0.159297
-0.00750666
0.170222
-0.00955184
0.180869
-0.0118233
0.191084
-0.0143227
0.201047
-0.0170644
0.210845
0.220602
-0.0200679
-0.0013918
0.143161
-0.00270367
0.148762
-0.003946
0.160539
-0.00527979
0.171555
-0.00674021
0.182329
-0.00838063
0.192725
-0.0102204
0.202887
-0.0122628
0.212887
0.222867
-0.0145283
-0.000422764
0.143583
-0.00136945
0.149709
-0.00214884
0.161318
-0.00294761
0.172354
-0.00382565
0.183207
-0.004842
0.193741
-0.00601204
0.204057
-0.00735036
0.214225
0.224331
-0.00881405
0.000452536
0.143131
-6.77834e-05
0.150229
-0.000333778
0.161584
-0.000577674
0.172598
-0.000859939
0.183489
-0.00123614
0.194117
-0.00174088
0.204562
-0.00237394
0.214858
0.22511
-0.00315266
0.00106271
0.142068
0.00108011
0.150211
0.00142056
0.161244
0.00178626
0.172232
0.00212745
0.183148
0.00237643
0.193868
0.00251683
0.204421
0.00252913
0.214846
0.225212
0.00242637
0.00144406
0.140624
0.0021131
0.149542
0.00313549
0.160221
0.00413419
0.171233
0.00509531
0.182186
0.00595651
0.193007
0.00671435
0.203663
0.0073429
0.214217
0.22473
0.00782587
0.00178773
0.138836
0.00322107
0.148108
0.00490162
0.15854
0.00649682
0.169637
0.0080206
0.180662
0.00946325
0.191564
0.0108009
0.202326
0.0120406
0.212977
0.223684
0.0130858
0.00251649
0.136319
0.00466568
0.145958
0.00681804
0.156387
0.0088724
0.167583
0.0108704
0.178664
0.0127991
0.189635
0.0146534
0.200471
0.0164131
0.211218
0.222013
0.0180842
0.00355877
0.132761
0.00626757
0.143249
0.00876009
0.153894
0.0111673
0.165175
0.0135374
0.176294
0.0158551
0.187317
0.0181171
0.198209
0.0202986
0.209036
0.219909
0.0224018
0.00446147
0.128299
0.00768414
0.140027
0.0104938
0.151085
0.0131919
0.162477
0.0158588
0.173627
0.0184992
0.184676
0.0210943
0.195614
0.0236107
0.20652
0.217466
0.0260539
0.00495529
0.123345
0.00863555
0.136346
0.0117533
0.147967
0.0147361
0.159494
0.0176791
0.170683
0.020595
0.18176
0.0234666
0.192742
0.026265
0.203721
0.214744
0.0289873
0.00470586
0.118639
0.00884908
0.132203
0.0123208
0.144495
0.0156344
0.15618
0.018873
0.167445
0.0220606
0.178573
0.0251736
0.189629
0.0282041
0.200691
0.211851
0.0310966
0.00382276
0.114817
0.00826572
0.12776
0.0121649
0.140595
0.015863
0.152482
0.0194264
0.163881
0.0228879
0.175111
0.0262412
0.186275
0.0294733
0.197458
0.208765
0.032559
0.00300834
0.111809
0.00741221
0.123356
0.0115945
0.136413
0.0156208
0.148455
0.0194897
0.160012
0.0232236
0.171377
0.0268186
0.18268
0.0302779
0.193999
0.205433
0.0336105
0.00256498
0.109244
0.00672937
0.119191
0.0109802
0.132162
0.0151976
0.144238
0.0192882
0.155921
0.0232435
0.167421
0.0270477
0.178876
0.0306858
0.190361
0.201974
0.0341437
0.00239798
0.106845
0.00633552
0.115254
0.0105347
0.127962
0.0148206
0.139952
0.01905
0.151692
0.023179
0.163292
0.0271761
0.174878
0.0309985
0.186538
0.198387
0.0345859
0.00247738
0.104368
0.00626472
0.111466
0.0103695
0.123858
0.0146376
0.135684
0.0189408
0.147388
0.0232091
0.159024
0.0273941
0.170693
0.031417
0.182515
0.194556
0.0352469
0.00292489
0.101443
0.00654923
0.107842
0.0105173
0.11989
0.0147114
0.13149
0.0190527
0.143047
0.0234525
0.154624
0.027864
0.166282
0.0321289
0.17825
0.190628
0.0360564
0.00368859
0.0977542
0.00709549
0.104436
0.0108994
0.116086
0.0150253
0.127364
0.0194097
0.138663
0.0239387
0.150095
0.0286236
0.161597
0.0331688
0.173705
0.187048
0.0367487
0.00436099
0.00748067
0.0112551
0.0154933
0.0200615
0.0248256
0.0300427
0.0358051
0.0425316
-0.105558
-0.00106103
0.106619
-0.104315
-0.00124338
-0.102855
-0.00145961
-0.101141
-0.00171427
-0.0991384
-0.00200258
-0.0968131
-0.00232529
-0.0941346
-0.00267851
-0.091082
-0.00305259
-0.0876374
-0.00344461
-0.0838009
-0.00383661
-0.0795813
-0.00421951
-0.0750039
-0.00457752
-0.0701012
-0.00490253
-0.0649046
-0.00519674
-0.0594553
-0.00544905
-0.0537961
-0.00565928
-0.0479769
-0.00581901
-0.0420481
-0.00592877
-0.0360651
-0.00598277
-0.0300877
-0.00597744
-0.0241846
-0.00590291
-0.0184441
-0.00574043
-0.0129617
-0.0054823
-0.00777055
-0.005191
-0.00276982
-0.00500058
0.00220434
-0.00497406
0.00731575
-0.00511121
0.0127138
-0.00539797
0.0183976
-0.0056836
0.0242384
-0.00584064
0.0301281
-0.00588951
0.0359966
-0.00586832
0.0417979
-0.00580098
0.0474865
-0.0056884
0.0530175
-0.00553075
0.0583496
-0.00533194
0.0634417
-0.00509175
0.0682524
-0.00481062
0.0727483
-0.00449567
0.0769004
-0.00415202
0.0806946
-0.00379393
0.0841302
-0.00343555
0.0872437
-0.00311323
0.0901134
-0.00286971
0.0928185
-0.00270478
0.0954285
-0.00260994
0.0979833
-0.00255451
0.100502
-0.00251873
0.102981
-0.00247899
0.105404
-0.00242241
0.107752
-0.00234736
0.110002
-0.00225031
0.112142
-0.00214001
0.114154
-0.00201195
0.116028
-0.00187286
0.117753
-0.00172551
0.119324
-0.00157089
0.120746
-0.00142204
-0.00127005
-0.101093
-0.00268569
0.102718
-0.0993188
-0.00301751
-0.0973854
-0.00339294
-0.0952804
-0.00381931
-0.0929977
-0.00428526
-0.0905244
-0.00479857
-0.0878571
-0.00534595
-0.0849849
-0.00592477
-0.0819047
-0.00652485
-0.0786109
-0.0071305
-0.0750981
-0.00773237
-0.0713605
-0.00831509
-0.0673859
-0.00887731
-0.0631731
-0.00940948
-0.0587209
-0.00990135
-0.0540348
-0.0103455
-0.0491261
-0.0107277
-0.0440117
-0.0110432
-0.0387083
-0.0112861
-0.0332362
-0.0114496
-0.0276079
-0.0115312
-0.021813
-0.0115353
-0.0158107
-0.0114846
-0.0095696
-0.011432
-0.00314729
-0.0114228
0.00335187
-0.0114731
0.00982495
-0.0115842
0.0161745
-0.0117474
0.0224059
-0.0119149
0.0285779
-0.0120125
0.0347026
-0.0120142
0.0407588
-0.0119243
0.0467086
-0.0117507
0.0525215
-0.0115011
0.0581651
-0.0111743
0.0636143
-0.010781
0.0688483
-0.0103256
0.0738596
-0.00982184
0.0786437
-0.00927965
0.0832079
-0.00871618
0.0875644
-0.00815039
0.0917293
-0.00760041
0.0957108
-0.0070948
0.0994861
-0.00664501
0.103033
-0.00625136
0.106334
-0.00591093
0.109379
-0.00559974
0.112153
-0.00529278
0.114658
-0.00498387
0.116899
-0.00466357
0.118892
-0.00434036
0.120661
-0.0040198
0.122235
-0.00371363
0.123644
-0.00342102
0.124906
-0.0031346
0.126045
-0.00286497
0.127076
-0.00260199
0.128016
-0.00236212
-0.00213875
-0.108086
-0.0045284
0.109929
-0.10609
-0.00501359
-0.103935
-0.00554818
-0.101622
-0.00613222
-0.0991397
-0.00676776
-0.0964848
-0.00745353
-0.0936498
-0.0081809
-0.0906304
-0.00894422
-0.0874153
-0.00974002
-0.0839917
-0.0105542
-0.0803445
-0.0113796
-0.0764572
-0.0122024
-0.0723189
-0.0130156
-0.0679243
-0.0138042
-0.0632704
-0.0145553
-0.0583631
-0.0152529
-0.053201
-0.0158899
-0.0477932
-0.0164511
-0.0421466
-0.0169327
-0.0362681
-0.0173282
-0.0301595
-0.0176398
-0.0238233
-0.0178717
-0.0172666
-0.0180413
-0.0105241
-0.0181745
-0.00365169
-0.0182953
0.00329633
-0.0184212
0.010265
-0.0185529
0.0171958
-0.0186783
0.0240461
-0.0187653
0.0308104
-0.0187769
0.0374858
-0.0186896
0.044056
-0.0184946
0.0504976
-0.0181924
0.0567815
-0.0177851
0.0628878
-0.0172806
0.0687958
-0.0166891
0.0744902
-0.0160201
0.0799626
-0.0152943
0.0852103
-0.0145273
0.0902287
-0.0137348
0.095021
-0.0129426
0.0995856
-0.0121652
0.103913
-0.0114222
0.107985
-0.0107171
0.111792
-0.0100584
0.115314
-0.00943317
0.118551
-0.008837
0.121516
-0.00825751
0.124226
-0.00769343
0.126701
-0.00713877
0.128956
-0.00659531
0.131004
-0.00606789
0.132861
-0.00557112
0.134539
-0.00509842
0.136055
-0.00465114
0.137427
-0.00423678
0.13868
-0.00385422
0.139819
-0.00350141
-0.0031783
-0.114287
-0.00640807
0.116167
-0.112255
-0.00704561
-0.110057
-0.00774682
-0.107683
-0.00850533
-0.10513
-0.00932128
-0.102387
-0.010196
-0.0994478
-0.0111206
-0.0962969
-0.0120952
-0.0929296
-0.0131073
-0.0893351
-0.0141486
-0.0855054
-0.0152094
-0.0814265
-0.0162813
-0.0770973
-0.0173448
-0.0725078
-0.0183937
-0.0676576
-0.0194056
-0.0625367
-0.0203738
-0.0571452
-0.0212814
-0.0514813
-0.022115
-0.0455457
-0.0228684
-0.0393407
-0.0235333
-0.0328706
-0.0241098
-0.0261438
-0.0245986
-0.0191768
-0.0250084
-0.0120031
-0.0253482
-0.00466787
-0.0256305
0.00277396
-0.025863
0.0102622
-0.0260412
0.0177412
-0.0261573
0.0251684
-0.0261926
0.0325172
-0.0261257
0.0397674
-0.0259399
0.0468995
-0.0256267
0.0538901
-0.0251831
0.0607189
-0.0246138
0.0673611
-0.0239229
0.0738013
-0.0231292
0.0800253
-0.0222441
0.0860133
-0.0212824
0.0917553
-0.0202693
0.0972452
-0.0192246
0.102471
-0.0181689
0.107422
-0.0171161
0.112083
-0.0160829
0.11644
-0.0150744
0.120478
-0.0140958
0.124198
-0.0131532
0.127598
-0.012237
0.130697
-0.0113568
0.133507
-0.0105033
0.136057
-0.0096889
0.138369
-0.00890697
0.140462
-0.00816077
0.142345
-0.00745405
0.144045
-0.00679843
0.145583
-0.00618959
0.14698
-0.00563335
0.148248
-0.00512206
0.149399
-0.00465275
-0.00423036
-0.123869
-0.00842263
0.125884
-0.121674
-0.00924125
-0.119294
-0.010127
-0.116719
-0.0110804
-0.113939
-0.0121005
-0.110949
-0.0131861
-0.107736
-0.0143338
-0.104298
-0.0155333
-0.100625
-0.0167801
-0.0967104
-0.0180636
-0.0925467
-0.019373
-0.0881281
-0.0206999
-0.083448
-0.022025
-0.0785031
-0.0233385
-0.0732837
-0.024625
-0.0677879
-0.0258697
-0.0620123
-0.027057
-0.0559524
-0.028175
-0.049612
-0.0292088
-0.0429908
-0.0301545
-0.0360999
-0.0310008
-0.0289509
-0.0317477
-0.0215652
-0.0323941
-0.013972
-0.0329414
-0.00621257
-0.03339
0.00166516
-0.0337408
0.009612
-0.0339881
0.0175796
-0.034125
0.0255246
-0.0341376
0.0334103
-0.0340115
0.0412055
-0.0337351
0.0488799
-0.0333012
0.0564041
-0.0327074
0.0637541
-0.0319639
0.0709073
-0.0310762
0.0778356
-0.0300576
0.0845198
-0.0289284
0.0909436
-0.0277062
0.097089
-0.0264147
0.102944
-0.0250801
0.108491
-0.0237154
0.113723
-0.0223481
0.118627
-0.0209867
0.123199
-0.0196468
0.12744
-0.0183365
0.131348
-0.0170618
0.13494
-0.0158293
0.138227
-0.0146429
0.141226
-0.0135026
0.143956
-0.0124188
0.146442
-0.0113927
0.148706
-0.0104253
0.150776
-0.00952352
0.152663
-0.00868543
0.154389
-0.00791547
0.155963
-0.0072075
0.157396
-0.00655567
0.158701
-0.00595722
-0.00540956
-0.132752
-0.0105096
0.134838
-0.13048
-0.0115127
-0.128017
-0.0125903
-0.125347
-0.0137502
-0.122456
-0.014991
-0.119341
-0.0163013
-0.115989
-0.0176859
-0.11239
-0.0191321
-0.108535
-0.0206352
-0.104419
-0.0221797
-0.100032
-0.0237599
-0.0953695
-0.0253627
-0.0904213
-0.0269733
-0.0851816
-0.0285782
-0.0796473
-0.0301594
-0.0738137
-0.0317033
-0.0676774
-0.0331933
-0.0612432
-0.0346092
-0.054509
-0.035943
-0.0474821
-0.0371815
-0.0401689
-0.038314
-0.0325871
-0.0393295
-0.0247576
-0.0402237
-0.0167116
-0.0409875
-0.00848825
-0.0416134
-0.000132769
-0.0420963
0.00830778
-0.0424287
0.0167879
-0.0426051
0.0252633
-0.042613
0.0336929
-0.042441
0.0420397
-0.0420819
0.050265
-0.0415264
0.0583358
-0.0407783
0.0662233
-0.0398514
0.073895
-0.0387479
0.0813277
-0.0374903
0.088496
-0.0360968
0.0953689
-0.034579
0.101931
-0.0329767
0.108162
-0.0313109
0.114051
-0.0296048
0.119583
-0.02788
0.124755
-0.0261587
0.129561
-0.024453
0.134008
-0.0227831
0.138102
-0.0211565
0.141858
-0.0195851
0.145294
-0.018079
0.148436
-0.0166443
0.151305
-0.0152881
0.153929
-0.0140165
0.156327
-0.0128233
0.15852
-0.011716
0.160525
-0.0106902
0.162356
-0.00974689
0.164021
-0.00887251
0.165535
-0.00806934
0.166913
-0.00733581
-0.00665715
-0.143252
-0.0127124
0.145455
-0.140851
-0.0139137
-0.138241
-0.0152008
-0.13541
-0.0165817
-0.132347
-0.018054
-0.129037
-0.0196105
-0.125474
-0.0212498
-0.121643
-0.0229626
-0.117544
-0.0247346
-0.113161
-0.0265624
-0.108492
-0.028429
-0.103529
-0.0303252
-0.0982635
-0.0322393
-0.0926891
-0.0341526
-0.0868016
-0.0360468
-0.0805993
-0.0379057
-0.074076
-0.0397167
-0.0672439
-0.0414412
-0.0601001
-0.0430869
-0.0526545
-0.0446271
-0.0449115
-0.0460571
-0.0368908
-0.0473502
-0.0286148
-0.0484997
-0.0201094
-0.0494929
-0.0114212
-0.0503016
-0.00259101
-0.0509265
0.00633141
-0.0513511
0.015306
-0.0515797
0.0242889
-0.0515959
0.0332348
-0.051387
0.0421064
-0.0509535
0.0508515
-0.0502715
0.0594333
-0.0493602
0.0678207
-0.0482388
0.0759735
-0.0469007
0.0838711
-0.0453879
0.0914845
-0.0437103
0.0987666
-0.0418612
0.10571
-0.0399202
0.112295
-0.0378955
0.118513
-0.0358235
0.124351
-0.0337179
0.129808
-0.0316158
0.134882
-0.0295267
0.139585
-0.0274863
0.143926
-0.0254972
0.14792
-0.0235795
0.151583
-0.0217422
0.154942
-0.0200033
0.158022
-0.0183674
0.16084
-0.0168347
0.163429
-0.015412
0.165798
-0.0140852
0.167965
-0.0128574
0.169942
-0.011724
0.171746
-0.0106767
0.173392
-0.00971437
0.174888
-0.0088322
-0.00801584
-0.153944
-0.0150079
0.15624
-0.151454
-0.0164035
-0.148753
-0.0179023
-0.145815
-0.0195197
-0.142633
-0.0212355
-0.139187
-0.0230572
-0.135474
-0.024962
-0.131472
-0.0269647
-0.127166
-0.0290407
-0.122573
-0.0311558
-0.117668
-0.0333339
-0.112443
-0.03555
-0.106894
-0.0377888
-0.101007
-0.0400389
-0.094784
-0.0422703
-0.0882136
-0.044476
-0.0812946
-0.0466357
-0.0740629
-0.048673
-0.066512
-0.0506378
-0.058645
-0.0524941
-0.0504598
-0.0542422
-0.0419882
-0.0558218
-0.0332556
-0.0572323
-0.0242593
-0.0584892
-0.0150871
-0.0594739
-0.00576497
-0.0602487
0.0036391
-0.0607552
0.0131095
-0.0610502
0.022595
-0.0610814
0.0320469
-0.060839
0.0414414
-0.060348
0.0506898
-0.05952
0.0597587
-0.0584291
0.0686435
-0.0571236
0.0772533
-0.0555106
0.0856056
-0.0537402
0.0936874
-0.0517921
0.10137
-0.0495439
0.108692
-0.0472425
0.115642
-0.0448457
0.122207
-0.0423886
0.128389
-0.0398991
0.134159
-0.0373861
0.139536
-0.0349042
0.144558
-0.0325077
0.149188
-0.0301274
0.153476
-0.0278675
0.157416
-0.0256825
0.161014
-0.0236008
0.164309
-0.0216632
0.167333
-0.019858
0.170107
-0.0181868
0.172651
-0.0166284
0.17498
-0.0151863
0.177112
-0.013856
0.179062
-0.0126274
0.180838
-0.0114898
0.18246
-0.0104547
-0.00949716
-0.166144
0.168505
-0.0173687
-0.163545
-0.019003
-0.160712
-0.0207355
-0.157614
-0.0226178
-0.154254
-0.0245955
-0.150599
-0.0267121
-0.146639
-0.0289213
-0.142409
-0.0311946
-0.137879
-0.0335712
-0.132953
-0.0360819
-0.127754
-0.0385328
-0.122215
-0.0410891
-0.116288
-0.0437161
-0.110064
-0.0462628
-0.103442
-0.0488915
-0.0965448
-0.0513737
-0.0892834
-0.053897
-0.0816277
-0.0563287
-0.0735847
-0.0586807
-0.06526
-0.0608188
-0.0566117
-0.0628905
-0.0477334
-0.0647001
-0.0385764
-0.0663893
-0.0290873
-0.0679783
-0.0194285
-0.0691327
-0.00962921
-0.0700479
0.000214206
-0.0705986
0.0101779
-0.0710139
0.0201837
-0.0710872
0.0300731
-0.0707284
0.0399653
-0.0702403
0.0496939
-0.0692486
0.0591849
-0.0679202
0.0685456
-0.0664842
0.0776232
-0.0645883
0.0864063
-0.0625233
0.0947871
-0.0601729
0.102756
-0.0575125
0.110495
-0.0549814
0.117798
-0.0521488
0.124714
-0.0493047
0.131289
-0.0464746
0.137443
-0.0435403
0.143215
-0.040676
0.148614
-0.0379066
0.153622
-0.0351357
0.158264
-0.0325093
0.162523
-0.0299417
0.166531
-0.0276084
0.170211
-0.0253436
0.173574
-0.0232213
0.176649
-0.0212623
0.179454
-0.0194326
0.182062
-0.0177947
0.184452
-0.0162459
0.186629
-0.0148045
0.188606
-0.0134672
0.190341
-0.0121896
-0.0111044
-0.0722102
0.00908756
-0.0801836
0.0079734
-0.0871151
0.0069315
-0.0931905
0.00607556
-0.0988826
0.00569217
-0.104454
0.00557125
-0.109908
0.00545426
-0.115289
0.00538146
-0.120625
0.00533614
-0.125491
0.00486611
-0.129203
0.00371196
-0.131395
0.00219186
-0.132105
0.000710325
-0.131745
-0.000359311
-0.130944
-0.000801344
-0.130066
-0.000877779
-0.129132
-0.000933344
-0.127961
-0.00117154
-0.126251
-0.00170948
-0.123802
-0.00244832
-0.120746
-0.00305604
-0.11734
-0.00340557
-0.113783
-0.00355732
-0.110308
-0.00347527
-0.00368823
-0.0766977
0.0168095
-0.0843424
0.0156179
-0.0916638
0.0142527
-0.0986833
0.0130949
-0.10534
0.0123489
-0.111615
0.0118455
-0.117547
0.0113866
-0.123054
0.0108889
-0.127885
0.0101662
-0.131869
0.00885014
-0.135058
0.00690152
-0.13748
0.00461355
-0.139101
0.00233177
-0.139849
0.000388467
-0.139674
-0.000976878
-0.138669
-0.00188258
-0.136979
-0.00262362
-0.134712
-0.00343768
-0.131989
-0.00443278
-0.128874
-0.00556351
-0.12528
-0.00664968
-0.121055
-0.00763094
-0.116053
-0.0085591
-0.109981
-0.00954719
-0.0109522
-0.0838586
0.0256379
-0.0923011
0.0240603
-0.100399
0.0223507
-0.108113
0.0208089
-0.115306
0.019541
-0.121911
0.0184506
-0.127898
0.017373
-0.133178
0.0161695
-0.137661
0.0146488
-0.141415
0.0126043
-0.14455
0.0100366
-0.1471
0.00716356
-0.149047
0.00427875
-0.150298
0.00163908
-0.150696
-0.000579514
-0.150155
-0.0024234
-0.148713
-0.00406555
-0.14646
-0.0056903
-0.143504
-0.00738912
-0.139906
-0.00916194
-0.135626
-0.0109287
-0.130579
-0.0126786
-0.124674
-0.0144638
-0.117801
-0.0164206
-0.0188244
-0.090869
0.0353874
-0.10005
0.0332413
-0.10878
0.0310803
-0.117023
0.0290523
-0.124674
0.0271915
-0.131649
0.0254258
-0.137895
0.0236188
-0.143363
0.0216371
-0.148037
0.019323
-0.151991
0.0165579
-0.155318
0.0133638
-0.158053
0.0098979
-0.160152
0.00637757
-0.161524
0.00301142
-0.162023
-8.03983e-05
-0.161557
-0.00289013
-0.160102
-0.00552053
-0.157707
-0.00808481
-0.154433
-0.0106635
-0.15033
-0.0132646
-0.145369
-0.0158899
-0.139495
-0.0185528
-0.132645
-0.0213137
-0.124804
-0.0242619
-0.0274616
-0.0978338
0.0459217
-0.107776
0.043183
-0.117146
0.0404506
-0.125927
0.0378326
-0.134039
0.0353038
-0.141422
0.0328086
-0.148028
0.0302249
-0.153832
0.0274408
-0.158843
0.0243344
-0.163116
0.0208304
-0.166713
0.0169609
-0.169654
0.0128384
-0.171886
0.00860974
-0.173322
0.00444739
-0.173859
0.000456313
-0.173397
-0.00335209
-0.171899
-0.00701828
-0.169387
-0.0105963
-0.165899
-0.0141518
-0.161467
-0.0176966
-0.156105
-0.0212526
-0.149818
-0.0248395
-0.142637
-0.0284946
-0.134633
-0.0322667
-0.0362105
-0.104848
0.0570492
-0.115498
0.0538328
-0.125497
0.0504499
-0.134832
0.0471671
-0.143441
0.043913
-0.151286
0.0406537
-0.158321
0.0372599
-0.164538
0.0336572
-0.169952
0.0297488
-0.174591
0.0254691
-0.178499
0.0208689
-0.181668
0.0160072
-0.18405
0.0109918
-0.185567
0.00596441
-0.186113
0.00100192
-0.185622
-0.00384321
-0.184057
-0.00858255
-0.181405
-0.0132485
-0.177696
-0.0178612
-0.172948
-0.022444
-0.167195
-0.0270062
-0.160457
-0.0315777
-0.152774
-0.0361777
-0.144197
-0.0408429
-0.0455697
-0.111748
0.0691139
-0.123204
0.0652889
-0.13387
0.0611153
-0.143795
0.0570919
-0.152943
0.0530607
-0.161297
0.0490083
-0.1688
0.0447629
-0.175467
0.0403237
-0.181304
0.0355861
-0.186328
0.0304933
-0.190567
0.0251073
-0.194003
0.019443
-0.196566
0.0135548
-0.198179
0.00757769
-0.198774
0.00159647
-0.198278
-0.00433878
-0.196654
-0.010207
-0.193893
-0.016009
-0.190007
-0.0217472
-0.185035
-0.0274164
-0.179007
-0.0330343
-0.171976
-0.0386087
-0.163986
-0.0441672
-0.155116
-0.0497131
-0.0552308
-0.118654
0.0823907
-0.130985
0.0776205
-0.14231
0.0724403
-0.152851
0.0676323
-0.162565
0.0627752
-0.171466
0.0579088
-0.179462
0.0527591
-0.186589
0.04745
-0.192878
0.0418753
-0.198293
0.0359085
-0.202866
0.0296799
-0.206598
0.0231749
-0.209364
0.0163205
-0.211111
0.00932551
-0.211774
0.00225876
-0.211288
-0.00482478
-0.209626
-0.0118687
-0.206774
-0.0188611
-0.202742
-0.0257788
-0.197572
-0.0325869
-0.191302
-0.0393039
-0.183998
-0.0459132
-0.175682
-0.0524831
-0.166407
-0.058988
-0.0653985
-0.126029
0.0968161
-0.139006
0.0905978
-0.150849
0.0842829
-0.161992
0.0787748
-0.172294
0.0730776
-0.181801
0.067416
-0.190308
0.0612652
-0.197909
0.0550519
-0.204657
0.0486228
-0.210493
0.0417444
-0.21538
0.0345671
-0.219391
0.0271861
-0.222411
0.0193399
-0.224304
0.0112182
-0.225046
0.00300092
-0.224596
-0.00527458
-0.222906
-0.0135588
-0.220002
-0.0217646
-0.215842
-0.0299392
-0.210455
-0.0379743
-0.20398
-0.0457783
-0.196449
-0.0534439
-0.187877
-0.0610553
-0.178546
-0.0683197
-0.0754388
1.23212
0.671213
0.26041
-0.931637
-0.383913
0.58727
-0.203359
0.291221
-0.384019
0.0927982
0.357854
-0.41845
0.0605956
-0.113079
-0.515911
0.62899
-0.418513
0.734326
-0.315813
1.19109
-1.06666
-0.124423
-0.0430132
-0.209155
0.252169
4.75618
-3.20159
-1.55459
-0.820715
1.71935
-0.898637
-0.943244
0.312911
0.630333
0.979854
-1.70405
0.724195
-0.805431
-0.120641
0.92607
0.123779
-0.126324
0.00254448
3.14666
-2.91121
-0.235443
-0.560013
0.176089
0.139306
-0.0264108
-0.112896
0.157557
0.0533382
0.296512
0.106402
-0.402914
-0.354465
0.222743
0.131722
2.72896
1.36652
-4.09546
-0.47063
0.823773
-0.353144
1.19963
-0.92992
-0.269707
-0.897017
0.27475
0.622267
1.02777
0.171857
-1.12723
0.616763
0.510466
-1.19808
0.279378
0.918703
3.65488
-2.18446
-1.47041
-0.0310718
-0.151406
0.182477
0.259975
0.446607
-0.706583
0.680276
-1.66641
0.986174
0.705048
0.861522
-1.56657
2.04594
-3.99211
1.94619
-0.300881
-0.0753283
0.376209
0.362543
1.18131
-1.54385
-0.899222
0.0937889
-2.56183