/*--------------------------------*- C++ -*----------------------------------*\
  =========                 |
  \\      /  F ield         | OpenFOAM: The Open Source CFD Toolbox
   \\    /   O peration     | Website:  https://openfoam.org
    \\  /    A nd           | Version:  10
     \\/     M anipulation  |
\*---------------------------------------------------------------------------*/
FoamFile
{
    format      ascii;
    class       volVectorField;
    location    "750";
    object      U;
}
// * * * * * * * * * * * * * * * * * * * * * * * * * * * * * * * * * * * * * //

dimensions      [0 1 -1 0 0 0 0];

internalField   nonuniform List<vector> 
10435
(
(1.64035 0.203036 -1.84759e-25)
(1.55464 0.477924 1.94176e-21)
(2.95956 -0.084102 -4.2215e-21)
(2.0274 -0.0633364 6.03569e-21)
(2.41983 0.0931799 -5.95863e-21)
(3.13273 0.0118384 8.57937e-20)
(2.94043 -0.0895424 -1.0594e-20)
(2.86979 -0.125263 4.24123e-21)
(2.78165 -0.173762 1.99159e-20)
(3.09418 -0.0583071 -2.47942e-20)
(1.75425 0.356237 -4.64255e-23)
(2.43899 -0.281895 1.93564e-20)
(3.10376 -0.0854369 2.95791e-20)
(0.942701 0.468011 1.92082e-21)
(1.04212 0.495266 1.45902e-21)
(2.8854 -0.119816 -7.20071e-22)
(0.845552 0.417813 -6.64066e-22)
(3.22122 -0.109499 1.33778e-19)
(2.74514 -0.204642 -8.67655e-21)
(1.72533 0.127169 -5.46435e-22)
(2.88434 -0.119167 3.58406e-21)
(2.03873 -0.160416 -9.38848e-21)
(2.90042 -0.108953 4.20081e-20)
(2.5937 -0.406429 -1.27342e-20)
(3.00538 -0.0730955 2.21888e-20)
(0.214962 0.343803 3.37504e-22)
(0.051562 0.0504829 1.07788e-21)
(3.01431 -0.0826762 1.33648e-20)
(0.237259 -0.0844051 -2.1849e-22)
(3.17101 -0.0718236 1.55916e-19)
(2.85302 -0.127688 2.40851e-20)
(1.86787 0.304808 -7.73748e-22)
(2.85036 -0.133442 -9.30209e-21)
(0.479296 -0.0794749 -1.50068e-21)
(2.79848 -0.201829 8.10509e-21)
(1.2932 0.666014 -1.87138e-21)
(2.80457 -0.193991 1.48445e-20)
(0.156389 0.227467 -4.40874e-21)
(0.348806 0.335028 9.78364e-23)
(2.7057 -0.27805 2.20182e-21)
(3.23776 -0.0547821 -1.61778e-19)
(2.93696 -0.091362 -1.04324e-20)
(0.624495 0.557896 4.54402e-21)
(1.85595 0.0748981 -6.89256e-21)
(2.82554 -0.171251 -3.33835e-20)
(2.64876 -0.35554 2.13066e-20)
(3.20396 -0.0260048 -1.11574e-19)
(0.447317 0.438429 1.7468e-20)
(2.78426 -0.15117 5.5103e-21)
(2.03526 -0.258593 -4.4134e-21)
(2.86473 -0.132745 -6.76664e-22)
(2.86968 -0.0700123 2.70387e-19)
(0.392507 0.349715 6.40957e-22)
(0.32211 -0.163025 -1.74767e-22)
(0.306293 0.339921 -1.8238e-22)
(0.187289 -0.109364 5.63468e-22)
(2.73696 -0.262941 -4.37951e-20)
(0.164174 0.156275 -1.85653e-21)
(0.693991 0.180501 1.25256e-21)
(2.73255 -0.269901 2.72989e-20)
(0.348992 0.357015 -3.31214e-22)
(1.46211 0.543971 -3.39809e-21)
(0.183462 0.0589732 2.09832e-21)
(2.73718 -0.0638047 -1.93363e-20)
(2.86861 -0.13359 -6.04351e-20)
(2.97244 -0.0819513 4.69077e-20)
(0.622938 0.0748018 -2.24808e-21)
(0.351594 0.200233 -7.09144e-21)
(2.88825 -0.114553 -5.99195e-21)
(2.51373 -0.453376 1.02793e-21)
(0.275066 -0.182839 5.39456e-22)
(0.171582 0.307875 -2.07336e-22)
(0.705099 0.662671 -4.12679e-21)
(2.94624 -0.0864604 -5.28134e-20)
(1.14178 0.502425 3.64619e-22)
(0.77476 0.685704 3.44117e-22)
(2.43352 -0.472846 4.50282e-20)
(2.93177 -0.0927165 2.1984e-20)
(2.83994 -0.134072 1.29372e-21)
(1.20583 0.395833 -3.3735e-21)
(2.17519 -0.385771 4.68193e-21)
(1.58736 0.181997 3.25429e-22)
(0.434978 0.36501 -6.13004e-22)
(0.363782 -0.149237 1.18935e-22)
(2.24596 -0.429746 -9.98807e-21)
(1.29273 0.619903 4.48594e-21)
(1.45075 0.463309 6.76063e-22)
(1.80667 0.183641 1.09806e-21)
(1.18502 0.607962 5.7563e-22)
(1.53882 0.397002 -7.35309e-22)
(1.8978 0.117284 -5.74164e-22)
(2.00173 0.0494152 -1.22026e-21)
(1.67092 0.106766 6.05098e-22)
(1.27031 0.576925 8.83253e-22)
(1.62759 0.32615 3.12112e-22)
(1.21355 0.714282 1.28803e-21)
(2.10329 -0.0248188 1.322e-20)
(1.0813 0.591632 -6.43178e-22)
(0.795393 0.269497 6.83385e-22)
(2.2244 -0.0302237 -1.7901e-20)
(1.13129 0.602656 5.09745e-22)
(2.63151 0.210314 -1.72676e-20)
(1.35921 0.525166 -6.89115e-22)
(1.71754 0.253631 2.46435e-22)
(2.79701 0.169698 -1.8264e-22)
(1.94064 0.00528858 -3.30416e-22)
(1.75046 0.0290262 3.28082e-22)
(2.10692 -0.331289 5.76877e-21)
(2.32757 -0.456622 -1.52293e-20)
(1.30569 0.365884 7.27204e-22)
(1.96644 -0.190804 -1.87498e-21)
(2.45208 0.257881 -6.02152e-21)
(1.49848 0.251017 4.25179e-22)
(1.40444 0.316086 5.4425e-22)
(2.11175 0.0407515 -8.12697e-21)
(1.96251 -0.0916011 2.76601e-21)
(2.31908 -0.0929724 -1.17692e-20)
(1.37837 0.565169 6.68661e-22)
(1.73822 0.297466 -2.36259e-21)
(2.29195 -0.172731 -3.15307e-21)
(2.39971 -0.146205 -3.69586e-20)
(0.783047 0.748869 1.33189e-21)
(1.46356 0.503332 -4.0697e-21)
(0.988781 0.831219 -6.47352e-21)
(1.92927 0.393066 9.17034e-23)
(0.287125 0.353785 -3.98748e-22)
(2.2067 -0.111952 1.91176e-20)
(0.850745 0.793924 -6.61838e-22)
(2.37715 -0.0125016 -2.51048e-20)
(0.0722137 0.239541 4.52848e-22)
(0.919113 0.820367 2.11807e-21)
(1.78637 0.43389 5.66107e-22)
(2.86991 -0.132299 -1.10544e-20)
(1.10579 0.401037 -3.37679e-21)
(0.154232 0.269326 -2.20417e-23)
(0.583014 0.433053 -1.87754e-23)
(1.1283 0.803857 6.64435e-21)
(2.11464 -0.137144 -5.6306e-22)
(1.64471 0.365452 8.03664e-22)
(1.88532 -0.0216566 2.0274e-21)
(1.80659 0.0518337 -7.99387e-23)
(2.8515 -0.139584 -8.0147e-20)
(0.55479 0.00261696 -5.16628e-21)
(2.65862 -0.168959 1.37767e-19)
(2.11644 -0.230627 1.36989e-21)
(0.939276 0.688414 -1.3154e-21)
(1.05782 0.828468 -3.03159e-21)
(2.88926 -0.0199418 -8.3952e-20)
(0.802062 0.513019 -3.01578e-21)
(2.598 -0.236878 8.25275e-21)
(0.382944 0.417538 1.33708e-21)
(2.76959 -0.216589 2.78281e-20)
(1.59757 0.295495 2.90542e-23)
(2.67613 -0.208714 6.56957e-20)
(2.98177 -0.0457727 -7.73485e-20)
(0.313632 0.381636 -1.11768e-21)
(2.08655 0.346831 8.67687e-21)
(1.55254 0.435222 1.50353e-21)
(3.06863 -0.0529048 -7.78555e-20)
(1.55126 0.534287 -6.89818e-22)
(2.73969 -0.217652 -1.32195e-20)
(1.00706 0.380669 7.39192e-22)
(1.9499 0.167469 9.7791e-21)
(2.34902 -0.36148 1.11922e-20)
(1.24634 0.477154 -3.67533e-22)
(2.46941 -0.0882309 1.12315e-19)
(2.82735 -0.150597 -1.86679e-20)
(2.28019 -0.255373 -9.3759e-21)
(2.49405 -0.378107 1.98965e-20)
(2.62124 -0.112152 -2.55305e-19)
(2.97186 -0.0775506 6.91427e-20)
(0.654722 0.603975 5.25428e-22)
(0.0408485 -0.0161078 -7.81394e-22)
(1.01353 0.688676 1.05135e-21)
(2.58387 -0.300526 -2.81123e-20)
(1.45294 0.595272 1.84878e-21)
(1.37518 0.608175 6.05007e-21)
(0.578003 0.392294 -2.2074e-21)
(1.89759 -0.121104 9.16442e-22)
(0.288826 -0.05356 2.12478e-22)
(1.65149 0.413689 -8.34346e-22)
(3.04418 0.053495 -1.32928e-20)
(2.52541 -0.255813 -7.01772e-20)
(0.334241 0.367446 -1.87002e-22)
(2.79621 -0.177809 1.03057e-20)
(0.559809 0.543277 -4.24676e-21)
(0.718676 0.676941 4.81301e-21)
(2.91885 -0.0965997 -1.7068e-20)
(2.56397 0.0636248 1.37375e-20)
(2.75486 -0.123069 -1.33971e-19)
(2.43669 -0.207018 9.17012e-21)
(0.473445 0.381954 -5.93082e-22)
(0.0955572 0.27338 -5.41743e-22)
(1.20223 0.764446 -5.37411e-21)
(2.26541 0.303663 9.32243e-21)
(2.90396 -0.104682 1.14228e-21)
(0.765963 0.603678 -7.7648e-21)
(1.20853 0.66293 -1.82781e-21)
(0.510413 0.429969 -1.54409e-20)
(2.85202 -0.148483 2.03965e-20)
(1.21562 0.541928 8.71335e-22)
(0.219124 0.276722 -1.65748e-21)
(3.05038 -0.0826324 -5.2433e-21)
(0.209807 0.229021 -2.00283e-21)
(3.00146 -0.0823619 -1.49523e-20)
(2.12544 0.106989 5.20475e-22)
(1.83508 0.233065 4.95493e-21)
(2.20198 -0.205421 -5.83429e-21)
(0.257616 0.0385182 1.60517e-21)
(2.19361 -0.292379 -5.45881e-21)
(0.439665 0.45631 2.34893e-21)
(2.9242 -0.0973741 -5.65549e-20)
(2.51695 -0.175115 1.22233e-19)
(2.43243 -0.350439 1.0732e-20)
(0.0851222 0.0302688 -4.20777e-22)
(0.895192 0.561884 6.40315e-21)
(1.35923 0.41281 -9.37616e-23)
(0.444881 0.420869 5.26507e-22)
(0.203321 0.335413 -7.1965e-22)
(0.907991 0.334758 -9.04816e-22)
(0.337746 -0.0842452 8.91428e-23)
(0.644976 0.341438 -4.75913e-21)
(0.464082 0.0427339 3.68204e-21)
(1.00611 0.749422 -3.992e-21)
(0.249207 0.352581 -4.56027e-22)
(2.84094 -0.158154 -6.2316e-21)
(0.25581 0.334221 1.48025e-21)
(1.13007 0.685046 -1.01171e-21)
(2.83026 -0.12354 1.73469e-19)
(0.851704 0.736177 1.22389e-21)
(0.500207 0.270608 1.92219e-20)
(2.83814 -0.15291 2.06602e-20)
(0.230651 0.33694 2.30981e-21)
(2.70493 -0.27219 3.07968e-20)
(0.0650998 0.161267 -2.5188e-21)
(0.740281 0.358228 8.38512e-21)
(2.66205 -0.330359 -3.48532e-20)
(0.212932 0.33984 5.49113e-22)
(2.58947 -0.378266 -2.34059e-21)
(2.90929 -0.101746 1.09047e-21)
(1.7718 0.147047 1.92852e-21)
(0.295643 0.370437 -9.86573e-23)
(0.482605 0.453085 -8.02992e-23)
(0.236679 -0.130681 2.5303e-23)
(2.0315 0.139232 -1.98671e-20)
(2.81539 -0.148483 5.48301e-21)
(1.13634 0.749095 -8.01807e-21)
(2.90439 -0.105741 4.37091e-21)
(0.105998 -0.0975807 -6.12095e-22)
(1.36147 0.655063 -1.56182e-21)
(0.16552 -0.151253 -6.58661e-22)
(1.31956 0.493512 -4.80472e-22)
(3.11321 -0.0896262 -5.5697e-20)
(2.26843 -0.33769 -9.49944e-21)
(2.91815 -0.098493 -1.15866e-20)
(2.58348 -0.0318004 5.75615e-20)
(0.113595 -0.128616 2.29632e-21)
(2.92791 -0.0956166 1.81233e-20)
(0.389941 0.422434 -1.85446e-22)
(0.305052 0.326883 4.87873e-21)
(2.93784 -0.0923915 1.08237e-21)
(2.91411 -0.0833121 2.04045e-21)
(0.259611 0.355841 -1.3879e-22)
(2.40917 -0.438244 -2.79447e-20)
(1.45643 0.346888 -1.29785e-22)
(0.600232 0.231298 -9.30412e-21)
(1.68529 0.221441 2.05872e-22)
(2.88957 -0.114527 4.46191e-20)
(0.419039 0.387864 1.78412e-22)
(2.24096 0.0546964 3.5802e-21)
(2.94685 -0.0893048 -1.49205e-23)
(2.89002 -0.112927 -1.81599e-21)
(2.91067 -0.10299 -1.53328e-21)
(3.00121 -0.0741461 -8.31503e-20)
(0.174944 0.333218 1.21592e-21)
(2.36351 -0.209102 -1.51437e-20)
(0.119427 0.227416 2.35037e-21)
(2.26039 0.163102 2.43508e-21)
(2.89953 -0.107397 6.15805e-21)
(2.87441 -0.119735 6.72591e-22)
(3.07123 -0.0739992 5.46938e-20)
(0.664219 0.512654 1.6191e-20)
(2.96004 -0.0867895 -8.96657e-22)
(1.07786 0.687466 -5.10342e-22)
(1.41233 0.434479 -1.23778e-22)
(0.500517 0.423701 1.85032e-22)
(2.696 0.0253718 1.06014e-20)
(0.286968 0.324655 1.1045e-22)
(0.408213 -0.134927 6.34534e-22)
(0.403709 -0.0741089 -3.57698e-22)
(1.05915 0.764222 6.72591e-21)
(1.65953 0.482738 -2.6946e-21)
(0.331107 0.000570629 -9.46629e-22)
(2.90073 -0.108109 3.77099e-21)
(0.331238 0.311525 -2.15771e-23)
(0.238793 -0.182812 -1.97865e-21)
(0.864691 0.658067 7.46884e-22)
(1.55143 0.276837 6.58578e-23)
(2.11278 0.215989 -2.51323e-22)
(2.93384 -0.091955 3.52073e-20)
(0.424132 0.309466 -3.3019e-20)
(2.52679 -0.400573 -8.13219e-21)
(2.97657 -0.0861066 -3.81717e-22)
(0.0749733 -0.0658134 -8.08807e-22)
(1.98302 0.266882 -2.76207e-21)
(0.984104 0.589544 -2.86078e-21)
(0.706481 0.445563 -4.3114e-21)
(2.63615 -0.313391 -2.49576e-21)
(2.95645 -0.0850435 -4.20943e-22)
(0.4516 -0.125083 -2.8316e-22)
(1.82441 -0.0467452 7.64788e-22)
(0.218647 0.304166 1.20569e-23)
(1.27889 0.713142 2.8396e-21)
(2.79789 0.0113811 -3.48891e-20)
(2.79219 -0.183143 -3.60503e-21)
(0.203261 -0.16943 -4.68084e-22)
(0.356499 0.384548 1.88783e-22)
(2.75272 -0.16743 -1.445e-19)
(0.43232 0.166701 -3.16925e-22)
(2.35804 -0.282237 1.19514e-20)
(2.94386 0.111711 -1.50981e-20)
(0.168448 -0.00257021 -1.99521e-21)
(1.50713 0.367283 -8.38566e-23)
(0.512186 0.401093 7.08095e-23)
(2.85582 -0.125132 -4.27813e-22)
(3.04151 -0.0830021 -1.86145e-20)
(0.14956 0.327598 5.27124e-22)
(2.9937 -0.0854957 -6.77743e-23)
(0.521929 0.12927 -4.80937e-22)
(0.11094 0.161419 3.29723e-21)
(2.76241 -0.227012 -7.27321e-23)
(0.485756 -0.0400602 8.07368e-22)
(0.489644 -0.11657 -3.07055e-22)
(2.95877 -0.085054 1.15274e-21)
(2.66039 -0.266295 2.86732e-20)
(0.230421 0.134269 5.19847e-21)
(0.19233 -0.157524 -8.2211e-22)
(0.117808 -0.119086 -4.44649e-22)
(0.537927 -0.0915624 -1.53895e-22)
(0.0718645 -0.0426131 -1.51163e-22)
(0.126102 0.315377 -1.33882e-21)
(0.230814 0.338381 -9.36747e-22)
(0.387427 0.369559 1.30782e-22)
(0.0335093 -0.00571239 8.66493e-22)
(0.051354 -0.0364368 -1.18312e-21)
(0.303442 0.364474 9.11277e-22)
(0.29886 0.1105 -1.31928e-21)
(0.0195522 0.121487 2.4216e-22)
(0.546295 0.417046 3.22392e-22)
(2.83253 -0.133031 -2.45195e-21)
(0.518585 -0.106207 -5.8033e-22)
(3.00988 -0.076467 2.53573e-21)
(0.0250154 0.0228872 -2.5056e-22)
(3.01596 -0.0845612 -2.86664e-22)
(2.84244 -0.129509 1.02345e-21)
(2.78875 -0.149025 -7.30645e-22)
(3.10875 -0.0810349 -1.42076e-21)
(2.91968 -0.0977124 -3.02325e-20)
(0.279976 -0.146842 -4.76957e-22)
(0.425535 -0.107355 1.40269e-21)
(0.149624 -0.13636 9.73692e-23)
(0.244752 0.344664 -8.5218e-22)
(0.111834 -0.0652806 -5.59964e-24)
(0.461653 0.406222 -2.45763e-22)
(0.119664 -0.00445144 9.92967e-22)
(0.107216 0.297786 -7.2898e-22)
(0.281 0.224544 1.28859e-20)
(2.51208 -0.323819 -3.50358e-21)
(0.116438 0.298502 9.79534e-22)
(2.80994 -0.140801 2.65561e-21)
(0.270569 0.341304 -8.43609e-23)
(0.0903586 0.27274 1.04661e-21)
(3.14038 -0.0756306 -1.61102e-20)
(2.77636 -0.156253 -2.76084e-21)
(0.535435 0.449491 -9.94866e-22)
(0.0230921 0.0616915 -7.29347e-22)
(0.12529 0.0776347 -1.10419e-21)
(0.0379155 0.0942894 9.00436e-23)
(0.373426 -0.116044 -4.67995e-22)
(0.181099 0.33671 1.06099e-23)
(0.0169061 0.0986354 9.34914e-22)
(0.311668 0.347804 3.41811e-22)
(2.85662 -0.126072 -8.547e-22)
(0.373914 0.077143 1.85449e-21)
(2.89146 -0.11258 4.41258e-22)
(2.82462 -0.135956 3.03091e-21)
(3.0453 -0.0831855 -2.20346e-22)
(3.07983 -0.0824764 2.3822e-20)
(2.80654 -0.141193 -1.52587e-21)
(2.99295 -0.083899 -3.49555e-21)
(2.80439 -0.186118 -4.41381e-21)
(0.926315 0.764865 9.44261e-23)
(0.542075 0.522695 2.54861e-21)
(0.282549 -0.11079 -7.56088e-22)
(0.231025 -0.166566 3.7182e-22)
(2.97599 -0.0844752 3.89025e-21)
(0.323353 -0.132663 1.34798e-21)
(3.14326 -0.0888091 -6.7444e-20)
(0.0217637 0.123262 -1.42495e-22)
(0.225074 -0.0242935 1.59672e-22)
(0.0678858 0.237293 -1.94918e-22)
(0.408449 -0.0190806 3.15477e-22)
(0.38196 0.406242 -7.94395e-22)
(2.91892 -0.0984931 3.62379e-20)
(0.0836958 0.0983037 4.56116e-22)
(2.87518 -0.119796 1.54939e-22)
(2.56653 -0.347131 -8.89938e-21)
(0.526075 0.488037 2.21778e-22)
(0.153163 0.326385 -9.47575e-23)
(0.0572742 0.162088 3.69241e-22)
(2.75941 -0.170545 5.98602e-21)
(0.0663404 0.204874 -1.02033e-21)
(0.132382 0.314077 4.58952e-23)
(0.313242 0.379217 1.34583e-21)
(0.151353 -0.0855658 -1.31985e-22)
(0.351755 0.323069 -4.56882e-21)
(0.154104 -0.0393926 -6.17016e-23)
(2.98187 -0.0834669 2.75991e-20)
(0.223658 -0.18643 -5.57424e-23)
(0.177909 0.321108 -5.10196e-22)
(0.193661 -0.0568722 3.11661e-22)
(0.573697 -0.0501893 2.52321e-21)
(3.2022 -0.113282 -5.68497e-20)
(0.620113 0.513728 -9.74047e-22)
(0.598371 0.457475 1.85998e-21)
(2.77386 -0.167739 -7.98979e-21)
(0.473368 -0.101945 2.93442e-22)
(0.473741 -0.403209 1.03076e-21)
(0.499452 -0.40205 -9.31229e-23)
(0.554645 -0.410199 -5.41357e-22)
(0.591967 -0.417552 2.87127e-22)
(0.629876 -0.421575 -3.06765e-22)
(0.660602 -0.423379 -8.65393e-22)
(0.69026 -0.423435 1.67217e-22)
(0.717148 -0.422687 2.34872e-22)
(0.745645 -0.419937 2.36535e-22)
(0.506174 -0.395888 -7.34822e-22)
(0.531745 -0.393587 -7.72711e-23)
(0.584049 -0.400375 4.40426e-22)
(0.621708 -0.407866 -7.60291e-22)
(0.657911 -0.412363 6.54515e-22)
(0.688477 -0.415258 1.03347e-21)
(0.717459 -0.41643 -6.35793e-22)
(0.744255 -0.416854 6.63901e-22)
(0.770088 -0.415899 -3.22801e-22)
(0.539443 -0.380682 1.88369e-21)
(0.563769 -0.378807 4.30671e-22)
(0.613339 -0.38557 -8.6026e-22)
(0.650606 -0.393234 4.09374e-22)
(0.685747 -0.398338 -9.79901e-22)
(0.716042 -0.402114 -1.26756e-22)
(0.744382 -0.404363 -3.00393e-23)
(0.770571 -0.405869 -3.23041e-22)
(0.795153 -0.406652 -4.90035e-22)
(0.572082 -0.359583 -8.19445e-22)
(0.594469 -0.358781 1.84798e-22)
(0.641589 -0.366083 5.97437e-22)
(0.678251 -0.374184 3.15594e-23)
(0.712471 -0.379989 4.10475e-22)
(0.742487 -0.384589 1.09865e-21)
(0.770369 -0.387781 -6.55731e-22)
(0.796157 -0.390183 1.0498e-22)
(0.820488 -0.391942 2.10347e-22)
(0.602923 -0.334452 1.44438e-22)
(0.622612 -0.334415 -1.24738e-22)
(0.667626 -0.342548 2.25532e-23)
(0.703767 -0.351221 -1.85444e-22)
(0.737349 -0.357845 1.02577e-22)
(0.767196 -0.363225 -2.44315e-22)
(0.794838 -0.367243 8.17527e-23)
(0.82048 -0.370392 3.72717e-22)
(0.844898 -0.372639 7.6104e-23)
(0.630702 -0.306839 1.0853e-22)
(0.647382 -0.306809 -2.57541e-22)
(0.690646 -0.315923 6.05496e-23)
(0.726521 -0.325026 3.98092e-22)
(0.75975 -0.332456 -1.27068e-22)
(0.789573 -0.338567 -1.77208e-22)
(0.817152 -0.343378 -7.22049e-23)
(0.842811 -0.347273 -5.68658e-22)
(0.867175 -0.350443 2.69871e-22)
(0.653563 -0.278608 6.4077e-23)
(0.668479 -0.277115 1.83872e-22)
(0.710305 -0.287147 5.45437e-23)
(0.746171 -0.296257 -1.76487e-22)
(0.779266 -0.304339 3.673e-23)
(0.809185 -0.311064 -5.9807e-24)
(0.836823 -0.316584 1.40386e-22)
(0.862554 -0.321167 -1.33231e-22)
(0.886965 -0.32514 -1.03634e-22)
(0.670238 -0.249143 -7.43312e-23)
(0.686347 -0.245703 1.083e-22)
(0.726793 -0.256541 -3.55609e-24)
(0.762649 -0.265291 5.55415e-24)
(0.795667 -0.273853 -4.87612e-23)
(0.825744 -0.281066 1.79924e-22)
(0.853528 -0.287189 2.17727e-22)
(0.879397 -0.292425 -2.32754e-22)
(0.903996 -0.296616 7.36656e-23)
(0.681451 -0.215537 4.85917e-23)
(0.701367 -0.211687 -3.20551e-24)
(0.740216 -0.223624 -1.85245e-23)
(0.775844 -0.232143 -2.45805e-23)
(0.808754 -0.241176 -1.63786e-23)
(0.839021 -0.248801 -1.50015e-23)
(0.867029 -0.255417 -8.98356e-24)
(0.893152 -0.261076 2.14674e-22)
(0.917808 -0.266025 -1.44329e-23)
(0.688373 -0.17715 -6.79279e-23)
(0.712941 -0.174505 -4.77786e-23)
(0.75004 -0.188062 9.30181e-24)
(0.785363 -0.196864 3.65485e-23)
(0.818249 -0.206476 -1.5357e-23)
(0.848813 -0.214464 3.0982e-23)
(0.877184 -0.221425 1.25022e-23)
(0.903686 -0.227306 7.37245e-23)
(0.928695 -0.232247 -2.11883e-23)
(0.691087 -0.135238 1.25484e-22)
(0.719917 -0.134713 4.42974e-23)
(0.755386 -0.150378 -4.02696e-23)
(0.79069 -0.159892 -1.30094e-24)
(0.823854 -0.170091 -6.02917e-24)
(0.854943 -0.178337 9.77744e-24)
(0.8839 -0.185472 -1.19907e-23)
(0.911044 -0.191366 -5.79906e-23)
(0.936683 -0.196288 -2.55804e-23)
(0.690336 -0.09209 -2.35217e-22)
(0.721556 -0.0944244 -4.11063e-23)
(0.755654 -0.112126 6.9069e-23)
(0.791551 -0.122133 -9.26457e-24)
(0.825432 -0.132541 1.10857e-24)
(0.857306 -0.14074 -1.73115e-24)
(0.88704 -0.147779 5.81873e-24)
(0.914952 -0.153457 -1.11239e-23)
(0.941426 -0.158768 -1.72413e-23)
(0.685011 -0.0512286 -5.07031e-23)
(0.716563 -0.0568388 1.43166e-23)
(0.751254 -0.0748396 1.62555e-24)
(0.788305 -0.0844556 -6.6148e-24)
(0.823195 -0.0942589 5.30058e-24)
(0.855997 -0.101867 3.54488e-24)
(0.886591 -0.108342 2.28058e-24)
(0.915302 -0.113581 3.83299e-24)
(0.942835 -0.118078 -1.63565e-25)
(0.67129 -0.0138447 6.28739e-23)
(0.706833 -0.0212813 -5.68611e-24)
(0.74341 -0.0382858 3.19559e-24)
(0.781674 -0.0467452 -7.98365e-24)
(0.817553 -0.0551927 1.28004e-24)
(0.851248 -0.0616534 7.59075e-25)
(0.882687 -0.0670582 1.5897e-24)
(0.91222 -0.0713551 -8.33134e-25)
(0.940401 -0.0744167 3.22889e-24)
(0.651025 0.0228225 -1.86574e-22)
(0.692942 0.0143156 4.63821e-23)
(0.732407 -0.00113197 -2.36659e-23)
(0.771925 -0.0081914 2.45985e-23)
(0.808687 -0.0148839 -3.12238e-24)
(0.843164 -0.0198453 -6.03892e-24)
(0.875385 -0.0238299 -1.84699e-24)
(0.90575 -0.0267566 1.45405e-24)
(0.934729 -0.0285228 -3.09353e-23)
(0.624805 0.0601871 -1.49352e-22)
(0.674713 0.051075 -7.32533e-23)
(0.71787 0.0378843 2.6058e-23)
(0.758789 0.0321139 -2.53697e-23)
(0.796391 0.0272151 -9.19188e-24)
(0.831562 0.023847 5.54935e-24)
(0.86448 0.021446 -6.76695e-26)
(0.895548 0.0201048 9.12984e-24)
(0.92506 0.0196203 1.43272e-25)
(0.593685 0.100221 -3.08964e-22)
(0.651462 0.090317 4.77411e-23)
(0.698964 0.0796567 -1.43235e-25)
(0.741526 0.0747323 1.52019e-23)
(0.78009 0.0713415 1.23346e-23)
(0.816005 0.069447 -5.48564e-23)
(0.849633 0.0686415 2.0823e-23)
(0.881392 0.069039 -1.54961e-23)
(0.911845 0.0698319 -3.97991e-24)
(0.562636 0.141328 5.4143e-22)
(0.62218 0.131605 -8.28023e-23)
(0.674452 0.123406 2.43383e-23)
(0.719159 0.119093 -4.25806e-23)
(0.75907 0.116925 -3.7991e-24)
(0.795978 0.116388 5.85902e-23)
(0.830463 0.117172 -8.42283e-24)
(0.862968 0.119273 -1.5178e-24)
(0.894116 0.122127 -4.03693e-23)
(0.534604 0.178973 1.28648e-22)
(0.58961 0.170779 3.37851e-23)
(0.644661 0.166104 7.56743e-23)
(0.691548 0.16309 1.35817e-22)
(0.733093 0.162405 -2.53254e-23)
(0.77124 0.16338 -4.42005e-23)
(0.806753 0.165827 -3.06002e-23)
(0.840161 0.169584 -1.56087e-23)
(0.872084 0.174394 -2.43361e-23)
(0.507916 0.211509 -1.00836e-22)
(0.555887 0.205418 4.44106e-24)
(0.611507 0.205081 -2.04023e-22)
(0.65975 0.20456 2.28793e-23)
(0.702724 0.206019 -7.48512e-23)
(0.742077 0.208959 5.29874e-23)
(0.778614 0.21337 1.92673e-22)
(0.812866 0.219081 1.63283e-23)
(0.845405 0.225858 3.10948e-23)
(0.481481 0.240035 -2.3179e-22)
(0.522061 0.235675 6.03225e-22)
(0.576757 0.239387 -3.13807e-22)
(0.625175 0.242204 2.21086e-22)
(0.668989 0.246387 -1.57894e-22)
(0.709238 0.251751 4.70726e-23)
(0.746659 0.258419 -9.79579e-23)
(0.781785 0.266217 -4.59983e-23)
(0.814968 0.275538 2.18143e-23)
(0.454884 0.264549 -7.02316e-22)
(0.488172 0.261791 -4.46928e-22)
(0.541454 0.268754 8.20104e-22)
(0.588978 0.275402 -4.0013e-23)
(0.632891 0.282643 4.60582e-22)
(0.673514 0.290751 -1.14438e-22)
(0.711486 0.299879 -3.20027e-23)
(0.747451 0.309831 5.33484e-23)
(0.78077 0.322454 -3.55524e-23)
(0.428118 0.282888 1.6829e-22)
(0.454594 0.283861 2.8176e-22)
(0.506512 0.293465 -5.23582e-22)
(0.552242 0.304238 -4.47435e-22)
(0.595484 0.314579 -3.51424e-22)
(0.635857 0.325491 9.65923e-24)
(0.673901 0.337026 1.10109e-22)
(0.710414 0.349222 -1.88544e-22)
(0.74404 0.364499 3.44436e-22)
(0.400168 0.294791 -2.34381e-22)
(0.421267 0.302099 2.12104e-24)
(0.471346 0.313785 1.84418e-22)
(0.514517 0.328382 -3.25846e-22)
(0.556394 0.341508 4.82544e-22)
(0.596024 0.355177 6.52526e-23)
(0.633775 0.369035 -4.05912e-22)
(0.671019 0.383553 3.89814e-22)
(0.705379 0.403787 1.47666e-22)
(0.369673 0.303835 -6.37821e-22)
(0.390059 0.320534 -1.89947e-23)
(0.43841 0.335166 -1.52688e-23)
(0.479387 0.351795 3.4472e-22)
(0.519572 0.36657 -1.21234e-22)
(0.55755 0.381838 3.66752e-22)
(0.594061 0.39666 -1.25089e-22)
(0.632663 0.411268 2.05245e-22)
(0.669457 0.4336 1.3234e-22)
(0.385166 0.362099 -2.65291e-22)
(0.378939 0.360475 -3.09192e-22)
(0.372561 0.357594 -8.74604e-22)
(0.365584 0.353946 1.22229e-21)
(0.357783 0.349237 -9.16243e-22)
(0.34904 0.343418 6.83705e-22)
(0.339225 0.336408 2.78739e-22)
(0.328209 0.328143 -5.21238e-23)
(0.315883 0.318575 -5.03308e-22)
(0.302184 0.307685 -2.44976e-22)
(0.287101 0.295471 2.51922e-22)
(0.270694 0.281952 -3.13664e-22)
(0.253116 0.267179 8.27918e-22)
(0.2346 0.251127 -2.11973e-21)
(0.215416 0.233789 3.73786e-21)
(0.195872 0.215195 -4.27929e-21)
(0.176294 0.195402 3.88022e-21)
(0.156993 0.174503 -1.72827e-21)
(0.138249 0.152649 -5.69838e-22)
(0.120278 0.130064 6.0825e-22)
(0.103169 0.107054 -2.11732e-22)
(0.0867102 0.0838978 4.52032e-22)
(0.0706508 0.0614509 3.96637e-23)
(0.0557308 0.0398491 -6.31219e-22)
(0.0445061 0.0179762 4.96696e-22)
(0.0385813 -0.00454849 -2.71091e-22)
(0.0377858 -0.0280854 3.35697e-22)
(0.0416751 -0.0528834 2.69104e-22)
(0.0472045 -0.0790487 -3.17657e-22)
(0.0526071 -0.106058 8.56154e-24)
(0.058758 -0.133174 -2.89146e-22)
(0.0663073 -0.159976 2.56315e-22)
(0.0755296 -0.186225 4.86281e-22)
(0.0863636 -0.211641 -3.82601e-22)
(0.0986274 -0.23589 5.42634e-22)
(0.1121 -0.258773 -9.0267e-22)
(0.126488 -0.280089 6.32349e-23)
(0.141471 -0.299685 1.96157e-22)
(0.156724 -0.317448 -2.88007e-22)
(0.171957 -0.333296 6.4403e-22)
(0.186949 -0.34724 -3.65134e-22)
(0.201483 -0.35929 -1.59572e-21)
(0.216023 -0.369268 3.21211e-21)
(0.231401 -0.377066 -3.45643e-21)
(0.247835 -0.382922 3.00493e-21)
(0.265172 -0.387219 -1.76716e-21)
(0.28317 -0.390309 9.21877e-22)
(0.30157 -0.39249 -3.07574e-22)
(0.320013 -0.394004 3.10881e-22)
(0.338107 -0.395063 -3.09477e-22)
(0.355501 -0.395857 -4.66632e-22)
(0.37193 -0.396522 -1.59662e-22)
(0.387229 -0.397158 2.20015e-22)
(0.401299 -0.397822 6.01005e-22)
(0.414108 -0.398532 -8.92545e-22)
(0.425655 -0.399291 1.15962e-21)
(0.435962 -0.40009 -7.74974e-22)
(0.44509 -0.400905 -2.83912e-22)
(0.453176 -0.401763 -2.13621e-22)
(0.394354 0.309612 -2.3613e-23)
(0.387763 0.305423 -2.71782e-23)
(0.380998 0.300658 1.55524e-23)
(0.373912 0.295235 -1.0026e-22)
(0.366438 0.289179 -9.6561e-23)
(0.358478 0.282546 3.7897e-22)
(0.349911 0.2754 -6.54945e-23)
(0.340605 0.267804 1.17037e-22)
(0.330422 0.259821 -4.15365e-22)
(0.319228 0.251489 -1.64243e-23)
(0.306899 0.242797 1.96059e-22)
(0.293379 0.233753 1.59945e-22)
(0.278802 0.224105 -5.33969e-22)
(0.263372 0.213554 6.61672e-22)
(0.247228 0.202025 -6.92732e-22)
(0.230501 0.189384 2.95936e-22)
(0.213376 0.175532 4.44087e-22)
(0.196067 0.160399 -2.32057e-22)
(0.178797 0.143949 -3.00735e-23)
(0.161784 0.126171 4.2958e-23)
(0.145236 0.107064 7.58421e-24)
(0.129382 0.0865586 5.85309e-23)
(0.114751 0.0644238 2.1088e-24)
(0.102308 0.0401084 -5.84744e-23)
(0.0928294 0.0138105 1.60381e-22)
(0.0864361 -0.0138681 -5.55797e-23)
(0.0832945 -0.0421592 5.25286e-26)
(0.0835255 -0.0702707 1.88699e-23)
(0.0866436 -0.097686 2.24192e-23)
(0.0915658 -0.12448 4.03073e-26)
(0.097957 -0.150815 -2.20629e-23)
(0.105932 -0.176601 -1.39584e-23)
(0.115574 -0.201602 -1.01459e-24)
(0.126728 -0.225601 5.1244e-23)
(0.139192 -0.248406 -1.31601e-22)
(0.152763 -0.269874 4.76025e-23)
(0.167223 -0.289904 -8.55269e-23)
(0.182359 -0.30845 7.69174e-23)
(0.197994 -0.325512 3.71625e-25)
(0.214013 -0.34112 -2.25621e-23)
(0.230382 -0.355317 -4.67675e-23)
(0.247187 -0.368143 3.64688e-24)
(0.264609 -0.379545 -1.06416e-22)
(0.282728 -0.389355 -1.04438e-22)
(0.301417 -0.397418 1.49725e-22)
(0.320423 -0.403659 -1.26671e-22)
(0.339272 -0.408246 4.79021e-23)
(0.357373 -0.411476 2.44815e-23)
(0.374361 -0.413578 -5.14178e-23)
(0.39 -0.414772 2.49028e-23)
(0.404324 -0.415163 6.26671e-23)
(0.417473 -0.414842 -1.66291e-23)
(0.429484 -0.413975 2.2262e-23)
(0.440463 -0.412727 -7.66039e-23)
(0.450447 -0.411263 1.50837e-23)
(0.459431 -0.409746 3.17022e-23)
(0.4675 -0.408261 -4.56471e-23)
(0.474797 -0.406832 7.14795e-24)
(0.481484 -0.405512 -1.73961e-23)
(0.455307 0.283336 -2.18842e-22)
(0.449074 0.278756 4.99555e-23)
(0.442529 0.273656 -1.74144e-22)
(0.435661 0.268111 -3.48112e-23)
(0.428388 0.262137 5.92845e-22)
(0.420636 0.255785 -1.81534e-22)
(0.412323 0.249104 -3.62424e-22)
(0.403363 0.242125 8.95362e-25)
(0.393666 0.234862 2.17449e-22)
(0.383153 0.227289 -5.36084e-23)
(0.371771 0.219336 5.99866e-22)
(0.359513 0.210877 -7.32431e-22)
(0.346416 0.201726 6.676e-22)
(0.332503 0.191806 -9.31762e-23)
(0.317808 0.181029 -6.27519e-22)
(0.302415 0.169284 2.01122e-22)
(0.286459 0.156457 7.76499e-22)
(0.270118 0.142431 -2.88506e-22)
(0.253608 0.127095 -7.90249e-23)
(0.237182 0.11034 2.2554e-23)
(0.221135 0.0920563 -2.05162e-22)
(0.205822 0.0721222 4.3229e-23)
(0.191718 0.0504243 -5.66378e-22)
(0.179426 0.0269625 6.81874e-22)
(0.169608 0.00196126 -2.59087e-22)
(0.162754 -0.024209 1.10331e-23)
(0.15906 -0.0511075 3.82404e-23)
(0.158453 -0.0782209 -1.60572e-22)
(0.160519 -0.105053 1.04217e-22)
(0.164733 -0.131345 5.32892e-23)
(0.170759 -0.157028 1.18084e-22)
(0.178422 -0.182011 -1.25846e-22)
(0.187604 -0.20615 5.24813e-23)
(0.198167 -0.229286 6.68369e-23)
(0.209951 -0.251291 -2.52903e-22)
(0.222793 -0.272061 6.88382e-22)
(0.236527 -0.291524 -4.47871e-22)
(0.251008 -0.309634 -9.10915e-23)
(0.266121 -0.326373 -1.20685e-22)
(0.281793 -0.341731 -4.05985e-23)
(0.297991 -0.35569 -1.81471e-22)
(0.314705 -0.368217 -3.30675e-22)
(0.331924 -0.379238 7.51527e-22)
(0.349562 -0.388665 3.65177e-22)
(0.36741 -0.396454 -7.36634e-22)
(0.385162 -0.402631 -2.56515e-22)
(0.402489 -0.407332 7.80633e-22)
(0.419049 -0.410786 -9.24172e-22)
(0.434641 -0.413243 6.39744e-22)
(0.449146 -0.414969 -1.65145e-23)
(0.462475 -0.416172 2.85825e-22)
(0.47479 -0.416842 7.00287e-23)
(0.486254 -0.416982 -4.28841e-22)
(0.496791 -0.41675 -2.24282e-22)
(0.506373 -0.416283 6.81426e-22)
(0.515092 -0.415658 -8.01747e-25)
(0.523054 -0.414919 -1.84278e-22)
(0.530366 -0.414112 6.37002e-23)
(0.537106 -0.413251 -2.19561e-22)
(0.498298 0.267505 2.47691e-24)
(0.49209 0.263602 6.25412e-23)
(0.485546 0.259299 -2.12051e-23)
(0.478597 0.254582 5.61903e-24)
(0.471182 0.249458 4.39431e-25)
(0.463248 0.243946 1.52204e-23)
(0.454734 0.23806 4.15129e-24)
(0.445582 0.2318 2.91354e-23)
(0.435733 0.225152 -2.21428e-23)
(0.42514 0.218082 -1.00553e-23)
(0.413767 0.210535 -2.44853e-23)
(0.401604 0.202437 -1.18165e-23)
(0.388661 0.193704 6.67601e-24)
(0.374975 0.184244 -3.09311e-23)
(0.360603 0.173944 -6.24626e-24)
(0.345639 0.162677 -3.491e-23)
(0.330212 0.150303 4.62313e-23)
(0.314491 0.136682 -3.31264e-23)
(0.298691 0.121676 -8.58484e-23)
(0.28307 0.105157 2.46457e-23)
(0.267932 0.0870142 -9.22348e-24)
(0.253636 0.0671663 -1.91066e-22)
(0.240594 0.0455817 1.01903e-22)
(0.229259 0.0223204 1.4059e-22)
(0.220053 -0.00242138 -1.05442e-22)
(0.213297 -0.0283205 1.31704e-23)
(0.20917 -0.0549749 1.20512e-22)
(0.207705 -0.081952 -1.37235e-22)
(0.208765 -0.108857 4.43794e-23)
(0.212103 -0.135401 -1.20201e-23)
(0.217484 -0.161391 5.58792e-23)
(0.224715 -0.186672 -1.26984e-22)
(0.233625 -0.211095 9.19894e-23)
(0.244044 -0.234526 -4.91277e-24)
(0.2558 -0.256844 -1.04493e-22)
(0.268728 -0.277949 2.57765e-23)
(0.282668 -0.297764 1.13444e-22)
(0.297475 -0.316226 -2.5092e-23)
(0.313023 -0.333284 -5.27694e-23)
(0.329199 -0.348897 8.78275e-23)
(0.345897 -0.363021 -6.29027e-24)
(0.363004 -0.375611 -2.8474e-23)
(0.380378 -0.386623 1.80145e-22)
(0.397834 -0.39603 -1.701e-22)
(0.415147 -0.403846 7.62826e-23)
(0.432073 -0.410139 2.34712e-24)
(0.448377 -0.415036 2.51916e-22)
(0.463879 -0.418705 -2.2269e-22)
(0.478476 -0.421314 1.14727e-22)
(0.492086 -0.423078 1.07497e-22)
(0.504621 -0.424232 1.41995e-22)
(0.516092 -0.424917 -1.31221e-22)
(0.52656 -0.425217 -2.67429e-23)
(0.536131 -0.42517 -4.98827e-23)
(0.544955 -0.424805 -8.70711e-23)
(0.553125 -0.424174 5.93378e-23)
(0.560698 -0.423325 -1.1698e-22)
(0.567745 -0.422301 2.35755e-22)
(0.574332 -0.421164 -6.37644e-23)
(0.555417 0.258554 -2.66937e-22)
(0.549565 0.254435 3.46534e-23)
(0.543244 0.249953 2.40076e-22)
(0.536421 0.245139 -1.68375e-22)
(0.52902 0.239981 4.12351e-23)
(0.520992 0.23449 1.53578e-22)
(0.512289 0.228667 -1.77769e-22)
(0.502868 0.222504 7.27913e-23)