/*--------------------------------*- C++ -*----------------------------------*\
  =========                 |
  \\      /  F ield         | OpenFOAM: The Open Source CFD Toolbox
   \\    /   O peration     | Website:  https://openfoam.org
    \\  /    A nd           | Version:  10
     \\/     M anipulation  |
\*---------------------------------------------------------------------------*/
FoamFile
{
    format      ascii;
    class       volScalarField;
    location    "600";
    object      epsilon;
}
// * * * * * * * * * * * * * * * * * * * * * * * * * * * * * * * * * * * * * //

dimensions      [0 2 -3 0 0 0 0];

internalField   nonuniform List<scalar> 
10435
(
0.00434466
0.00481687
0.00292059
0.00568634
0.0121659
0.025237
0.00239566
0.00246508
0.00263527
0.0140358
0.00577454
0.00782341
0.00452567
0.0097118
0.00908743
0.00350604
0.00998476
0.0138994
0.00270755
0.00423947
0.00275897
0.00533012
0.0040114
0.00567965
0.00926145
0.00255721
0.0053524
0.00293712
0.00475367
0.0145837
0.00787565
0.00657996
0.00242905
0.00470746
0.00415618
0.00486856
0.0048297
0.00574825
0.00131139
0.00371064
0.0257279
0.00280496
0.00807043
0.00487756
0.00553633
0.00482522
0.0269011
0.00708014
0.00217604
0.00492827
0.00282307
0.0129525
0.00131035
0.00349331
0.00156483
0.00423528
0.00548945
0.00627274
0.00836948
0.00469045
0.00161009
0.00465408
0.00618799
0.0128117
0.00482671
0.00385457
0.00716055
0.00791481
0.00242619
0.00621722
0.0033983
0.00412343
0.00504509
0.00416876
0.0081585
0.00757106
0.00651857
0.00226631
0.00224591
0.00720727
0.00583321
0.00405232
0.00132472
0.00359813
0.00625972
0.00559465
0.00522681
0.005114
0.00694715
0.00492837
0.00551423
0.00607364
0.00378971
0.00634111
0.00482022
0.00522422
0.0066001
0.00842688
0.0089516
0.0078012
0.00767348
0.0185863
0.00571702
0.00488477
0.0212332
0.00523955
0.003724
0.00537554
0.00657199
0.0062073
0.00448658
0.015771
0.00454214
0.00528332
0.00718705
0.00489777
0.0083141
0.00516995
0.00522488
0.00749896
0.00850293
0.00566533
0.00491317
0.005431
0.00827405
0.00211082
0.00709799
0.00576001
0.0098579
0.0050546
0.00574868
0.00682887
0.00319497
0.0081062
0.00484494
0.00153484
0.00458788
0.00616724
0.004942
0.00453984
0.00431217
0.00639526
0.00624353
0.00960294
0.00579508
0.00851685
0.0049442
0.016121
0.0101057
0.00850535
0.00570855
0.00619964
0.0047355
0.00859792
0.0154303
0.00412638
0.0102636
0.0048383
0.0157049
0.00498445
0.00763626
0.0087204
0.00635495
0.00704953
0.00706321
0.00990449
0.0027376
0.00703079
0.00714954
0.0107334
0.010797
0.00385823
0.00485563
0.00808189
0.00773738
0.00450248
0.00467534
0.00950831
0.00410587
0.00541159
0.00518883
0.0240208
0.00833065
0.0019563
0.00707973
0.0063826
0.00654493
0.00236277
0.0139075
0.0108825
0.00827568
0.00137773
0.00465259
0.00433713
0.0128413
0.00238712
0.00927655
0.00615827
0.00853126
0.00418521
0.00709893
0.00585578
0.00356805
0.00635011
0.00337873
0.00799763
0.0056999
0.00662701
0.0064033
0.00624777
0.00471559
0.00344086
0.00922163
0.00737654
0.00536042
0.00981984
0.00600822
0.00236139
0.0025792
0.00899934
0.00486439
0.00982133
0.00706437
0.0071621
0.00337864
0.00364264
0.00186225
0.00680122
0.0097407
0.00737816
0.00910451
0.00312341
0.00219419
0.00673889
0.00560056
0.00987497
0.00611114
0.0031857
0.00654206
0.00847595
0.0046673
0.00275547
0.00287726
0.00404164
0.00709815
0.00242015
0.00573029
0.00218726
0.00372482
0.00426479
0.00347442
0.00630956
0.00697914
0.0066764
0.00217441
0.0119763
0.00324051
0.00216589
0.00371738
0.006158
0.00218072
0.0109031
0.00259206
0.00686892
0.00520999
0.00919451
0.00461423
0.00578099
0.0017981
0.0089064
0.00223025
0.00211117
0.00212953
0.00685017
0.00300577
0.00778054
0.00530944
0.0105215
0.0028614
0.00211097
0.00829409
0.00944589
0.00227281
0.00748667
0.0055902
0.00192044
0.0153513
0.00157265
0.003685
0.00501469
0.00636658
0.005747
0.00630994
0.00210955
0.0013288
0.00333953
0.00893928
0.00466175
0.00890869
0.00706067
0.00841313
0.00681794
0.00232126
0.00420475
0.0076096
0.00925245
0.0100371
0.00703555
0.00561839
0.00371269
0.00384199
0.00501397
0.00422148
0.0161279
0.00308949
0.00351566
0.0022833
0.00903975
0.00830684
0.00741542
0.0235424
0.00556098
0.00505667
0.00143316
0.00209939
0.00451901
0.00346243
0.00244893
0.00814745
0.00583392
0.0037383
0.00550119
0.00368554
0.0024438
0.00773681
0.00679426
0.00370305
0.0037696
0.00409082
0.00467499
0.00387467
0.00411859
0.0016364
0.00483236
0.0046824
0.00507063
0.00720335
0.00564295
0.00149077
0.00211908
0.00377675
0.00528348
0.00515151
0.00269934
0.00206753
0.00196147
0.0035938
0.00480304
0.003779
0.00423727
0.00376425
0.00214388
0.00448559
0.00183906
0.00523182
0.00426314
0.00716279
0.00762364
0.00417149
0.00216339
0.00183159
0.0046735
0.00382709
0.00183872
0.00214
0.00525356
0.00590445
0.00549703
0.00418666
0.00299953
0.00610941
0.00172956
0.00220046
0.00734285
0.00220662
0.00204183
0.00305637
0.00345458
0.00202337
0.00258058
0.00353802
0.00708267
0.00478403
0.00441244
0.00358762
0.00244837
0.00399993
0.00451651
0.00589994
0.00561221
0.00497318
0.00600828
0.00280495
0.0028081
0.00567738
0.00221437
0.00718307
0.00354166
0.00339163
0.00556277
0.0020745
0.0054759
0.00376263
0.00326034
0.00437958
0.00728802
0.00501577
0.00278748
0.00344222
0.00359323
0.00494983
0.00495715
0.00634625
0.00255547
0.00178332
0.00167865
0.0041168
6.17416e-06
5.87741e-06
5.60134e-06
5.32815e-06
5.06319e-06
4.76609e-06
4.41919e-06
3.97841e-06
3.38591e-06
6.46454e-06
6.08655e-06
5.7069e-06
5.34821e-06
5.00471e-06
4.64447e-06
4.24105e-06
3.76942e-06
3.21037e-06
6.80231e-06
6.32685e-06
5.84538e-06
5.39969e-06
4.97893e-06
4.55396e-06
4.10078e-06
3.60416e-06
3.06314e-06
7.23287e-06
6.64636e-06
6.05776e-06
5.52106e-06
5.02087e-06
4.53031e-06
4.028e-06
3.50302e-06
2.95799e-06
7.80804e-06
7.0996e-06
6.39186e-06
5.75428e-06
5.16716e-06
4.60503e-06
4.04774e-06
3.48475e-06
2.91493e-06
8.60176e-06
7.75601e-06
6.90717e-06
6.1503e-06
5.46115e-06
4.81448e-06
4.18969e-06
3.57536e-06
2.96817e-06
9.73048e-06
8.708e-06
7.68065e-06
6.77493e-06
5.95922e-06
5.20638e-06
4.49404e-06
3.81001e-06
3.1516e-06
1.13775e-05
1.00773e-05
8.81465e-06
7.7175e-06
6.73946e-06
5.84794e-06
5.01737e-06
4.23461e-06
3.49879e-06
1.37307e-05
1.2016e-05
1.0449e-05
9.10485e-06
7.91527e-06
6.8385e-06
5.84429e-06
4.91652e-06
4.0534e-06
1.69632e-05
1.47206e-05
1.27824e-05
1.11228e-05
9.65565e-06
8.32872e-06
7.1065e-06
5.96752e-06
4.90387e-06
2.12813e-05
1.84681e-05
1.61065e-05
1.40483e-05
1.22151e-05
1.05488e-05
9.01018e-06
7.57185e-06
6.22088e-06
2.69443e-05
2.36853e-05
2.08638e-05
1.82975e-05
1.59768e-05
1.38491e-05
1.18736e-05
1.00173e-05
8.26536e-06
3.42883e-05
3.11009e-05
2.77436e-05
2.44986e-05
2.15145e-05
1.87555e-05
1.6178e-05
1.374e-05
1.14272e-05
4.55391e-05
4.20802e-05
3.7822e-05
3.35835e-05
2.967e-05
2.60418e-05
2.26362e-05
1.93924e-05
1.62939e-05
6.35187e-05
5.85222e-05
5.25906e-05
4.68489e-05
4.16284e-05
3.68127e-05
3.228e-05
2.79253e-05
2.36953e-05
9.13029e-05
8.25587e-05
7.38421e-05
6.59501e-05
5.89656e-05
5.25836e-05
4.6568e-05
4.07475e-05
3.50335e-05
0.000130926
0.000115976
0.000103442
9.28335e-05
8.36677e-05
7.53516e-05
6.74807e-05
5.9795e-05
5.2192e-05
0.00018076
0.000159594
0.000143133
0.000129685
0.00011817
0.000107706
9.76839e-05
8.77067e-05
7.75983e-05
0.000239637
0.000214214
0.000194831
0.000179101
0.000165539
0.000153067
0.000140857
0.000128326
0.000115152
0.000309206
0.00028218
0.000261458
0.000244591
0.000229875
0.000216083
0.000202132
0.000187203
0.000170842
0.000394652
0.000368171
0.000347682
0.000331175
0.000316828
0.000303144
0.000288642
0.00027206
0.000252578
0.000503929
0.000478987
0.000459966
0.000445581
0.000433894
0.000422778
0.000410103
0.000393864
0.000372687
0.000647502
0.000622715
0.000605967
0.000595943
0.000590285
0.000585622
0.00057887
0.000566969
0.000547884
0.000838182
0.000807303
0.00079325
0.000790827
0.000796115
0.000803621
0.000809132
0.000808113
0.000797814
0.00108539
0.00103741
0.00102827
0.00103865
0.00106195
0.00108914
0.00111559
0.00113576
0.00113878
0.000348667
0.000340087
0.00033438
0.000331523
0.000331431
0.000333926
0.000338784
0.000345725
0.000354473
0.000364728
0.000376211
0.00038865
0.000401725
0.000415073
0.000428285
0.000440981
0.000452768
0.000463239
0.000471986
0.000478616
0.000482735
0.000483947
0.000481681
0.000474796
0.000462071
0.000445654
0.00042653
0.000404952
0.000380199
0.000354198
0.000327677
0.000300965
0.000274169
0.000247776
0.000222159
0.000197616
0.000174384
0.000152646
0.000132535
0.000114131
9.74579e-05
8.24879e-05
6.91523e-05
5.73918e-05
4.71612e-05
3.84085e-05
3.10611e-05
2.5019e-05
2.01537e-05
1.6318e-05
1.33527e-05
1.11005e-05
9.41901e-06
8.18627e-06
7.30478e-06
6.69969e-06
6.31643e-06
6.11736e-06
6.0747e-06
0.00038333
0.000376777
0.000372969
0.000371831
0.000373168
0.00037673
0.000382222
0.000389342
0.000397811
0.00040741
0.000417996
0.00042934
0.000440917
0.000452115
0.000462218
0.000470984
0.000478296
0.000484002
0.000487919
0.000489844
0.000489566
0.000486852
0.000481418
0.000472847
0.000460634
0.000444656
0.000425188
0.000402765
0.000378204
0.000352427
0.000326017
0.000299352
0.000272748
0.000246534
0.000221029
0.000196515
0.000173234
0.00015138
0.000131095
0.000112475
9.55657e-05
8.03722e-05
6.68741e-05
5.50453e-05
4.48511e-05
3.62329e-05
2.90983e-05
2.33191e-05
1.87432e-05
1.51871e-05
1.24654e-05
1.04092e-05
8.8743e-06
7.74607e-06
6.93532e-06
6.3752e-06
6.01695e-06
5.82628e-06
5.77739e-06
0.000412215
0.000407936
0.000405805
0.000405672
0.000407336
0.00041054
0.000415006
0.000420455
0.000426628
0.000433303
0.000440306
0.000447487
0.000454678
0.000461656
0.000468143
0.000473859
0.000478542
0.000481953
0.000483855
0.000484016
0.000482188
0.000478102
0.000471441
0.000461849
0.000449046
0.000433
0.000413923
0.000392215
0.000368454
0.000343321
0.000317405
0.000291163
0.000264971
0.000239176
0.000214094
0.000190003
0.000167136
0.000145683
0.000125784
0.000107536
9.09941e-05
7.61813e-05
6.30959e-05
5.17157e-05
4.19932e-05
3.38489e-05
2.71671e-05
2.17982e-05
1.75676e-05
1.42895e-05
1.17847e-05
9.89259e-06
8.4791e-06
7.43611e-06
6.68156e-06
6.1543e-06
5.81019e-06
5.61896e-06
5.55744e-06
0.00041126
0.000407099
0.000404985
0.000404728
0.000406083
0.000408767
0.000412486
0.000416962
0.000421944
0.000427221
0.000432623
0.000438001
0.000443216
0.000448116
0.000452533
0.000456292
0.000459209
0.000461085
0.000461708
0.000460841
0.000458223
0.000453576
0.000446604
0.000437025
0.00042463
0.000409359
0.000391344
0.000370903
0.0003485
0.000324683
0.000299983
0.000274871
0.000249764
0.000225031
0.000200995
0.000177936
0.000156088
0.000135636
0.00011672
9.94348e-05
8.38388e-05
6.99555e-05
5.77788e-05
4.72733e-05
3.83716e-05
3.0971e-05
2.49361e-05
2.01052e-05
1.63021e-05
1.33504e-05
1.10861e-05
9.36632e-06
8.07261e-06
7.11136e-06
6.41006e-06
5.9144e-06
5.5854e-06
5.39636e-06
5.32652e-06
0.000391917
0.000387591
0.00038523
0.000384655
0.000385634
0.000387893
0.000391149
0.000395125
0.000399564
0.000404244
0.000408976
0.0004136
0.00041798
0.000421985
0.000425489
0.000428356
0.00043044
0.000431573
0.000431567
0.000430202
0.000427239
0.000422421
0.000415491
0.000406218
0.000394444
0.000380125
0.000363361
0.000344395
0.00032359
0.000301387
0.000278253
0.000254642
0.000230979
0.000207648
0.000184986
0.000163284
0.000142778
0.000123656
0.000106056
9.00694e-05
7.57436e-05
6.30879e-05
5.20763e-05
4.26489e-05
3.47134e-05
2.81477e-05
2.2806e-05
1.85277e-05
1.51484e-05
1.251e-05
1.04702e-05
8.90658e-06
7.71841e-06
6.82568e-06
6.16656e-06
5.69448e-06
5.37522e-06
5.18494e-06
5.10489e-06
0.000358248
0.000353269
0.000350227
0.000348978
0.000349313
0.000350986
0.000353731
0.000357283
0.000361387
0.000365809
0.000370345
0.000374818
0.000379072
0.000382966
0.000386365
0.000389138
0.000391141
0.000392224
0.000392217
0.000390927
0.000388142
0.000383636
0.000377194
0.000368627
0.000357806
0.000344703
0.000329401
0.000312102
0.000293104
0.00027278
0.000251541
0.000229813
0.000208014
0.000186532
0.000165706
0.000145827
0.000127127
0.000109784
9.39286e-05
7.96331e-05
6.69219e-05
5.57774e-05
4.61463e-05
3.7945e-05
3.1064e-05
2.53742e-05
2.07345e-05
1.69994e-05
1.40266e-05
1.16838e-05
9.85294e-06
8.43352e-06
7.34233e-06
6.51274e-06
5.8926e-06
5.44213e-06
5.1316e-06
4.93986e-06
4.84987e-06
0.000316191
0.000310743
0.000307109
0.000305185
0.000304815
0.000305796
0.000307903
0.000310901
0.000314558
0.000318651
0.000322978
0.000327353
0.000331607
0.000335583
0.000339131
0.000342107
0.000344361
0.000345734
0.000346067
0.000345178
0.000342875
0.000338959
0.000333257
0.000325616
0.000315927
0.000304183
0.00029047
0.000274972
0.000257939
0.000239693
0.000220611
0.000201082
0.000181523
0.000162311
0.000143764
0.000126167
0.000109726
9.45958e-05
8.08868e-05
6.86333e-05
5.78222e-05
4.84027e-05
4.02949e-05
3.33998e-05
2.76037e-05
2.2785e-05
1.88219e-05
1.55952e-05
1.29928e-05
1.0912e-05
9.26177e-06
7.96354e-06
6.95151e-06
6.1718e-06
5.58121e-06
5.14588e-06
4.83994e-06
4.64447e-06
4.5438e-06
0.000265318
0.000259447
0.000255231
0.000252615
0.000251498
0.00025173
0.000253131
0.000255513
0.000258669
0.000262387
0.0002665
0.000270799
0.000275108
0.00027925
0.000283068
0.000286427
0.000289169
0.000291092
0.000292054
0.000291839
0.000290269
0.000287162
0.000282417
0.000275937
0.000267584
0.00025741
0.000245498
0.000232039
0.000217212
0.000201318
0.000184715
0.000167764
0.000150903
0.000134483
0.000118748
0.000103963
9.02964e-05
7.78584e-05
6.6731e-05
5.68792e-05
4.82498e-05
4.07591e-05
3.43103e-05
2.88015e-05
2.41313e-05
2.01957e-05
1.69071e-05
1.4177e-05
1.1928e-05
1.00903e-05
8.60211e-06
7.40886e-06
6.46278e-06
5.72349e-06
5.15674e-06
4.73424e-06
4.43324e-06
4.23655e-06
4.12912e-06
0.000202406
0.000196279
0.000191623
0.000188458
0.000186759
0.000186417
0.000187275
0.000189093
0.000191865
0.00019557
0.000199723
0.000204178
0.000208679
0.000212978
0.000217096
0.000220844
0.000224312
0.000227434
0.000229572
0.000230323
0.000229617
0.00022741
0.000223793
0.000218641
0.000211933
0.000203659
0.000193944
0.000182928
0.000170659
0.000157364
0.000143563
0.000129632
0.000116019
0.000102994
9.07328e-05
7.92277e-05
6.87123e-05
5.95354e-05
5.14572e-05
4.43152e-05
3.80933e-05
3.26953e-05
2.80183e-05
2.39569e-05
2.04268e-05
1.73916e-05
1.47894e-05
1.25828e-05
1.07156e-05
9.12568e-06
7.78454e-06
6.67483e-06
5.77776e-06
5.06834e-06
4.51886e-06
4.10832e-06
3.8172e-06
3.62841e-06
3.5259e-06
0.00334822
0.00295312
0.00260359
0.00228709
0.00199856
0.00173647
0.00150036
0.00128992
0.00110274
0.000936695
0.000800546
0.00069859
0.000628093
0.000581854
0.000547013
0.000517866
0.000493322
0.000472509
0.000455548
0.00044353
0.000436807
0.000432425
0.00042484
0.000407889
0.000375331
0.0031838
0.00287099
0.00255333
0.00224744
0.00196123
0.00169864
0.00146163
0.00125027
0.00106417
0.000904455
0.000773458
0.000670998
0.000594076
0.00053792
0.000497044
0.000467449
0.000446671
0.000433068
0.000425507
0.000423094
0.000424645
0.000428078
0.000429985
0.000425318
0.000406645
0.00318738
0.00285056
0.00252136
0.00220776
0.00191532
0.00164796
0.00140786
0.00119576
0.00101205
0.000857167
0.000730648
0.000630424
0.000553265
0.000495447
0.000453424
0.000424425
0.000406346
0.000397509
0.000396379
0.000401448
0.000410942
0.000422502
0.00043268
0.000436623
0.000427868
0.00321578
0.00283802
0.00248517
0.00215748
0.00185684
0.00158521
0.00134389
0.00113328
0.000953322
0.000803297
0.000681373
0.00058464
0.000509716
0.000453305
0.000412593
0.000385388
0.000369954
0.00036476
0.00036818
0.000378488
0.000393554
0.000410564
0.000425577
0.000433238
0.000426577
0.00324448
0.00282801
0.00244845
0.00210367
0.00179335
0.00151745
0.00127574
0.00106757
0.000891805
0.000746628
0.000629341
0.00053659
0.000464909
0.00041117
0.000372825
0.000347919
0.000334947
0.000332445
0.000338896
0.000352459
0.000370696
0.000390291
0.000406767
0.000414624
0.000407689
0.00325918
0.00280925
0.0024038
0.0020421
0.00172271
0.00144361
0.00120271
0.000997951
0.000826982
0.000687022
0.000574761
0.000486546
0.000418825
0.000368502
0.000333103
0.000310738
0.000300023
0.000299503
0.000307774
0.000322937
0.000342381
0.000362503
0.000378536
0.000385036
0.00037588
0.00326775
0.00278175
0.00234859
0.00197012
0.00164297
0.0013623
0.00112365
0.000923378
0.000757994
0.000623884
0.000517267
0.000434255
0.000371172
0.000324839
0.000292751
0.000273014
0.000264294
0.000265129
0.000274197
0.000289611
0.000308688
0.000327751
0.000341989
0.000346294
0.000335011
0.00328165
0.0027424
0.00227707
0.00188304
0.00155085
0.00127121
0.00103677
0.000842341
0.000683584
0.000556205
0.000456039
0.000379032
0.000321391
0.00027964
0.000251202
0.000234148
0.000227136
0.000228748
0.000237738
0.00025226
0.00026963
0.000286267
0.000297568
0.000298912
0.000285176
0.00328436
0.00267726
0.00217965
0.00177509
0.00144309
0.00116839
0.000940895
0.000753679
0.000602533
0.000482985
0.000390104
0.000320057
0.000269025
0.000232532
0.000208088
0.000193798
0.000188162
0.000189949
0.000198056
0.000210733
0.000225156
0.000238095
0.000245055
0.000241192
0.000222904
0.00456982
0.00405556
1.25399
0.00184373
5.30886e-05
7.17287e-05
0.015151
6.92202e-06
1.602
4.71641e-06
4.45366
1.69519e-05
0.00050239
2.22456e-05
0.0114214
8.34991e-05
8.1773
0.00129206
3.14797e-06
0.162919
0.00016376
3.75368e-05
5.02095
0.000145474
5.10018e-06
1.03853e-05
5.20537e-06
0.00105781
0.15096
7.7392
2.27672e-06
1.63938e-05
2.64356
0.000915252
7.01861
3.44693e-05
0.00461971
0.0119885
0.00508733
2.38464e-05
3.54558
4.27771e-06
2.31906e-05
0.00470954
0.000687899
5.32967e-05
6.90409
6.73172
0.534493
0.986877
6.41984
2.07188
0.000246874
0.000967486
0.0133093
1.38429
1.61999e-05
0.000184544
1.00171e-05
1.50185
9.60648e-05
1.12275
4.94202e-05
5.08307e-05
7.16664e-06
0.00443019
6.8889e-06
0.000557569
0.00055346
0.776566
1.26762
5.037e-05
1.75573e-05
0.140203
5.57396e-06
0.000154715
0.0719195
5.79989
4.03829e-06
0.000685899
0.000756829
0.000185363
8.8399e-06
4.96129
6.47593e-05
0.000105037
1.39977e-05
5.42444
2.65067
7.44445e-05
0.000199063
1.61739e-05
2.15466e-05
1.8502e-05
2.42635e-05
4.4412
1.06215e-05
5.16797
1.08283e-05
1.37979
0.000369272
3.45714
0.000453126
5.04786e-05
9.23764e-06
0.000651697
4.89507
0.000685623
1.74262e-05
7.67702
3.51616e-05
1.18476e-05
5.40646
4.76954e-05
0.000226535
0.526641
1.59444
1.95319e-05
0.000346351
6.97087e-06
6.9519e-06
1.05053e-05
0.000139339
5.06027e-06
2.85382
2.14785e-05
2.16048
0.0271378
3.06448e-06
6.69855
8.2934e-06
0.121033
0.782996
0.00331488
0.00174242
1.42234e-05
0.000603765
0.000193875
7.25677e-05
0.249561
4.31009e-05
0.00436857
1.87964
7.40831e-06
0.371853
0.000127506
0.00296846
0.00226916
8.45589e-05
8.1492
0.000687769
1.61511e-05
0.00276623
0.0177491
5.11203e-06
4.72611
8.38721e-06
2.14604e-05
0.0680197
9.41398e-06
2.48238e-05
1.47491
2.64401e-05
5.44889
3.19477e-05
6.16173
2.02318e-05
5.21567e-06
0.000142211
9.49647e-06
1.95482e-05
5.61445e-05
0.000637692
5.42635
6.3573e-06
0.000839854
0.000984957
0.521397
0.548336
4.37675e-05
0.00219559
1.60696e-05
0.000268933
0.00252261
0.00347627
7.52329e-06
6.72628
1.82259e-05
1.36324
7.4263e-05
4.52112
1.70115
0.00883911
0.00396476
0.0136949
1.7504
5.32761e-06
3.63587e-05
0.465062
0.00122176
0.000810213
0.000147616
0.000161054
9.06751e-05
0.000392599
1.1242e-05
8.16588e-06
0.000451246
0.631569
1.74844e-05
8.7865e-06
1.83717e-05
0.00203014
0.000336185
0.000884034
4.70709
2.37746e-05
2.77356e-06
9.72362e-05
0.000182808
0.000261276
4.7536e-06
5.1346e-06
0.73804
5.15638e-05
1.81709
6.1051e-05
7.55057
1.73222e-05
2.1659e-05
4.38463
3.50707e-05
1.66153e-05
6.25916e-06
0.00500137
7.13319e-06
0.0371173
0.000525974
0.00288324
0.0216956
2.16747e-06
9.43302e-05
2.66852e-05
0.00250744
1.57345e-05
1.16328e-05
1.54722e-05
0.00134492
7.59035e-05
1.18688e-05
1.78703e-05
0.000943834
4.46782e-06
0.554296
1.14264e-05
5.51455e-06
5.66679
0.0588646
0.0577239
3.00003e-06
0.000691642
3.35113e-06
3.03908e-05
4.96671e-06
0.110437
4.99952e-06
1.28866e-05
0.0050418
0.0155414
5.277e-06
0.000269094
0.0109113
1.34504e-05
2.87102e-06
3.88695e-06
0.00548815
1.11791e-05
2.98676
1.51255e-05
3.06325
0.00575062
0.000735237
0.000405326
5.22568e-05
0.520057
0.000103017
0.000725651
0.000132342
5.40769
5.06559
0.0255601
3.03542e-05
3.96331e-06
5.90782
0.00249562
4.50747
4.31833
1.05835e-05
1.02055e-05
0.634717
2.34425
2.58865e-05
3.67598e-05
0.000107932
4.31371
1.86785e-05
0.00016032
3.58213e-06
0.244054
0.000179186
5.1256e-05
2.52407e-05
1.87201
2.94424e-06
1.37863e-05
0.00377126
7.30129
5.32443e-06
5.19635e-06
0.00470537
0.0612291
1.60223e-05
4.03764e-05
2.25592e-06
1.58861e-05
5.06166e-06
1.48636
0.000726798
9.54798e-06
0.000195006
2.96004e-05
0.0133643
0.00017654
5.66527e-06
4.44227
0.000121313
1.15798e-05
9.88923e-06
8.88577e-06
0.000621031
1.9614e-05
1.64455e-05
0.7101
2.00036e-05
0.0914676
2.31715e-05
8.85341e-05
1.60448e-05
1.29511e-05
7.24985
0.00286384
2.22961e-05
1.68037e-05
0.0483151
5.8663
4.36803e-05
0.0057495
0.00410021
2.4874e-05
8.09353
0.664683
5.62058
7.04501e-06
1.67264
3.29781e-06
1.16891e-05
0.000100705
7.07135
2.37558e-05
1.19963
3.31096e-05
0.0172275
0.12878
2.77251
0.000508955
4.8767e-06
5.42761e-06
4.01303e-05
8.37968e-06
5.84774e-06
4.26765
5.07887e-05
2.85646
0.00563215
0.00464852
0.00410748
3.58272e-05
0.147177
4.64336
4.56893
0.00667857
1.17994e-05
0.000398013
1.84759
0.00198806
3.68028e-06
1.84383e-05
2.61409
2.19481e-05
0.225069
7.12752e-06
2.29745e-05
6.08619e-05
0.415852
1.51994e-05
2.52486e-08
0.0138714
0.000496274
0.00180532
2.19078e-06
0.194809
2.76488e-05
0.554001
6.52811e-05
1.34606e-05
1.67262e-05
0.530426
7.21622
1.52297e-05
1.54712e-05
3.80199e-05
9.26667e-06
9.40183e-05
0.000569758
0.000103007
4.16658
6.59412e-06
5.35265e-05
2.94655e-06
1.62254e-05
7.60532e-05
5.80571e-06
8.02761e-05
4.39226e-06
0.0242111
8.86024e-05
3.50503e-05
3.31671e-06
1.58314e-05
2.61147e-05
9.21142e-06
0.021607
5.55644
0.00298335
0.000611401
0.181648
0.000684712
0.309897
8.36884e-06
3.72592e-06
2.48939
2.02385e-05
2.5539e-05
0.5406
2.15985e-05
0.710401
7.65465
0.00010788
0.000213999
0.0199873
3.1376e-05
0.00316209
0.112508
0.001693
3.32484
8.78833e-06
1.23496e-05
0.915653
8.56284e-06
4.70502
0.00104529
9.57209e-06
5.80779
2.44157e-05
5.14017e-06
0.000701458
5.49906e-05
7.62014e-06
0.00234005
0.00105388
0.00100927
0.00546461
8.69804e-07
1.60657e-05
4.7478
4.03577e-05
0.000179284
6.88457e-05
0.146057
4.44596e-05
0.0117927
3.7046e-05
5.08841e-06
1.58486
2.13382e-05
2.08527e-05
0.0109645
8.35409e-05
2.27024e-05
1.10163
2.47959e-05
0.0244158
4.03324e-05
0.00183478
0.000844951
0.0011123
8.50372e-05
6.72815e-05
0.0146856
1.49475e-05
4.01056e-05
0.000917832
6.15634e-06
4.42754e-05
7.48202e-06
7.00467
4.10079
0.535784
4.84873e-06
0.00239644
1.39453e-05
5.00897
0.178223
0.0157729
0.000920318
7.04695e-05
3.78962
3.57151
1.09264e-05
7.5442e-05
0.000905351
4.32405e-05
0.0102544
0.701237
8.01237e-06
0.00298601
2.25699e-05
0.606169
0.53101
4.25657e-05
0.00442431
8.57745
3.7281e-05
4.73246
1.93781e-05
0.515588
1.72296e-05
0.000174416
7.69274e-05
3.41552
0.00519929
0.00581783
3.02864e-06
0.59238
0.553428
7.2762
5.01356e-06
2.39637e-05
0.000426571
0.704095
3.30481e-06
0.00334517
2.35173e-05
0.000570105
8.62954
3.64656e-06
0.00222573
7.78819e-06
1.62636e-05
0.000928799
2.05538
8.68849e-05
0.00747402
1.53899e-05
4.54259e-05
5.51468
7.75418
0.740897
0.000252247
0.00106283
0.270605
0.000266297
0.000141912
1.627e-05
6.96627e-06
2.57239
3.79925e-05
7.00401e-05
0.00498262
0.000114295
0.000130826
0.000108482
4.52635e-05
0.0144747
2.77071e-05
9.18275e-06
0.000738992
0.544941
4.21087e-05
1.52116e-05
0.811499
0.000973571
3.70722e-06
5.13563e-05
0.0210317
1.368e-05
0.000116177
3.31992e-06
0.000103929
1.88612e-05
2.57969e-05
0.00530538
1.05363e-05
0.000129015
0.000510821
0.000227419
4.15755e-06
8.49613e-05
0.419729
6.15139e-05
7.44885e-06
1.5681e-05
1.55306e-05
3.90146e-05
1.25815e-05
1.17856
8.81131
0.000907929
2.28468
8.89344e-06
5.33633e-06
8.20066e-06
6.45229e-06
0.000123738
6.94343e-06
0.000260404
7.43728e-05
5.19535e-06
1.15611e-05
0.00982166
0.00196542
6.23136e-05
0.00427024
3.54937e-05
6.37034e-05
4.94326e-06
0.00028142
0.00322075
1.1033
0.0141932
0.0461206
5.51396e-06
4.83925e-06
1.4679e-05
7.78543e-05
2.95327e-06
7.76252
3.02537e-06
0.000255324
1.17809e-05
0.772199
0.000374772
4.46234
6.87271e-06
8.50277e-06
6.53907e-06
3.93848
0.395829
0.0030033
0.000249464
1.17838e-05
5.33312e-06
5.28659e-05
2.00178
2.1127e-06
1.29344e-05
0.00394311
2.7537e-05
3.40754e-05
6.04423e-06
1.21999e-05
0.00023929
5.11188e-05
9.51223e-06
1.21266e-05
0.000104178
3.87181e-05
0.41552
4.67534
1.58004e-05
0.0136887
1.62402e-05
4.60996
7.26028e-06
2.24586e-05
1.26652e-05
8.66371e-06
0.00505015
7.80992e-05
4.25322e-05
1.04811e-05
0.000476975
1.20738e-05
7.13524e-05
4.60148e-05
3.01687
0.00898278
0.000496184
6.00067
0.0158271
0.249061
6.81587
3.69981e-06
8.38093e-06
8.03732e-06
9.88852e-08
3.44297e-05
0.00551581
0.000123295
2.27644e-05
0.000457762
7.47892e-06
2.49852e-06
0.00258137
1.76262e-05
3.69037e-06
7.81701e-06
0.000453063
0.000901887
4.09603
6.01266e-06
0.644893
0.0153803
0.473435
0.000284476
3.80472
5.47473
0.00939286
2.53925e-06
7.92355e-05
1.27017e-06
0.000349561
2.21985e-05
0.00197586
0.116537
1.67698e-05
0.100139
0.00277626
3.37848e-06
7.56137e-06
3.54159e-05
8.73649
0.309994
1.07486e-05
0.0191311
0.0178893
0.000337257
0.880644
1.56307e-09
1.04434e-05
0.00286919
1.74883e-06
0.035476
0.00180874
5.4625
0.015398
5.82375e-06
0.0158049
9.01631e-06
1.33771e-06
0.00283158
0.000114081
0.000250931
8.85781e-06
2.14498e-05
0.00253935
8.57239e-05
5.87419e-06
2.62072e-05
3.5299e-05
0.00108682
2.55654e-05
2.14951
0.014616
3.97513e-05
0.00261223
5.71382e-05
0.2358
9.87746e-05
1.08671e-05
3.44018e-05
0.000503831
0.000711922
2.08321e-06
4.39123e-05
7.17439
0.243805
0.00991214
8.46622e-05
0.00176594
0.00181398
0.0234745
0.260372
0.0036181
4.01202e-05
2.24265e-05
4.88791
1.04318e-05
6.94028e-06
0.000366257
1.80935
1.22838
1.65826e-05
4.44622e-05
1.00602
7.408e-06
0.526141
0.456457
4.36981e-05
1.69024e-05
2.86807
0.194954
0.0631128
2.56095e-05
7.16958e-06
5.84591e-06
0.00124835
0.00499963
2.10906e-05
6.90187e-06
2.59269e-05
0.00822157
1.80802e-05
0.00239609
0.129574
5.68877e-06
1.66051e-05
0.0715378
7.68385e-06
0.000332169
1.35704e-05
0.000418331
1.27676e-05
5.31562e-06
0.00178805
4.73207e-05
1.66365e-05
2.14061e-05
0.00109405
0.000335613
4.88338
4.99256e-06
1.13465e-05
2.13689e-05
0.00837473
0.247541
0.69573
7.63369e-06
0.000847082
0.0134922
1.5529e-07
5.98948e-06
4.86158e-05
4.49806
1.61824e-05
0.242726
9.47179e-05
4.52165e-06
0.00461516
6.94746e-05
0.0208554
0.0200611
0.00168167
2.26229
2.71342
8.48535
8.24797e-06
2.07396
0.00596034
2.76633e-05
0.0128402
2.35863e-05
4.86826e-05
0.0379937
6.96795e-05
0.000148747
0.000377467
0.310429
2.2347e-06
1.81207e-06
2.00354
2.43932e-05
0.000117626
0.00924238
0.339687
0.00455663
1.54329e-05
0.000561416
6.08578
5.79691
0.00257359
0.000300074
0.848736
4.85948e-05
7.99929e-06
0.00336825
0.546526
7.00793e-06
0.000455216
2.27977e-05
0.348774
0.000107681
0.00469957
0.0475681
6.75649e-06
3.88927e-05
1.77986e-05
0.481751
0.00410743
0.772865
0.464498
0.000102955
0.00121728
0.00189823
0.000223729
0.0720202
0.000169206
7.44699e-06
9.01778e-05
5.59039e-05
4.96687e-06
0.00191606
4.61513
1.68992e-05
0.601869
3.62777e-05
0.0312943
8.23618e-06
2.67802e-05
6.52336e-06
0.855685
0.815082
0.000910737
0.000326099
1.34006e-05
1.16838e-05
0.0233068
2.7754e-06
0.00543296
0.00361527
2.96597
1.21808e-05
0.000410365
0.0256426
9.66319e-05
0.000120759
0.000150173
3.21827
1.30041e-05
0.000292414
0.0261881
0.0147199
1.24955e-05
0.00022595
3.18674e-06
4.58682e-05
1.65246e-05
1.68886e-05
0.000219921
1.11384e-05
0.000794335
0.544476
0.195436
0.895919
2.5378e-05
0.000519467
0.00283635
1.86352e-06
0.329748
5.24967e-05
0.000103812
5.22472
9.95328e-05
0.00182892
4.11006e-05
5.40948e-06
0.599028
7.86307e-06
0.000344923
8.98473e-06
0.0158288
0.0203406
1.64843
5.03877e-06
0.01702
1.44101e-05
0.000729471
7.90427e-05
0.859498
0.00292122
0.000387335
8.23213
1.4299e-05
7.19561
3.47934e-05
0.535439
0.000149676
7.11069e-06
1.31792e-05
0.00535991
0.0140084
9.5601e-06
1.84718e-05
0.0600376
6.38773e-06
1.42283e-05
5.10081e-06
7.89428e-06
4.51501e-05
6.50789
0.000122224
2.96481e-05
0.0178384
0.00111332
8.49202
5.50304e-06
2.31277e-05
1.66566e-05
3.04476e-05
0.000150494
5.30523e-05
3.7468
3.48895e-05
0.00430393
7.24705e-06
0.000266735
0.00550742
0.638396
2.37121e-05
1.67847e-05
2.68643e-05
0.000141883
1.05677e-05
0.000535383
4.43576
0.000859216
0.000442624
1.20553e-05
0.0244755
3.12038
0.000773543
0.0196192
0.000102178
0.414094
5.97419
7.9141
5.31702e-05
5.5175e-05
0.000490717
0.795326
0.000112322
0.432147
6.60728e-05
0.00173981
0.16429
5.48182e-06
2.92783e-05
0.000117479
7.60817e-06
2.37761e-06
1.30568e-05
0.21066
4.63799e-06
1.99476
1.22623e-05
1.67044e-05
1.02795e-05
5.14153e-06
0.000274118
1.03861e-05
0.233705
0.00117158
4.64731e-05
9.34791e-05
0.494865
4.41838
7.03717e-06
1.40346e-05
4.7137e-05
0.000617104
0.000518791
0.000628733
2.62374
9.54787e-06
1.06293e-05
0.000382562
3.77801e-05
0.000340788
0.0212378
1.09875e-05
1.21459e-05
2.25243e-06
0.000112138
0.00216382
0.161763
0.0165921
1.21781e-05
0.000585195
2.4215e-06
2.63916
3.15509
2.65887e-05
9.19006e-06
0.0917306
1.44656e-05
1.67612e-05
0.0158633
0.247694
3.04017e-05
1.08739e-05
3.06467e-06
0.00229356
0.158063
1.36633e-05
2.34438e-06
0.0660006
0.616078
6.34078e-07
1.54034e-05
1.06558e-05
3.77944e-05
0.00115214
0.000320796
2.33938e-05
0.0254279
6.5588e-05
2.7207e-05
3.21698e-05
0.00024111
1.70384e-05
5.06168
0.0996925
3.06753
0.0465616
0.00344545
0.00324797
1.55024e-05
1.93105
0.00032964
7.79117e-06
0.000201038
1.8562e-05
0.000439921
1.96165e-05
2.69262e-05
6.04568e-06
0.612129
5.84198e-06
0.00100935
0.022423
0.000105581
0.000603517
0.000829973
7.91178
6.48651e-06
5.43763
4.98855
0.000106378
1.67705e-05
0.000417277
0.000465602
0.000264888
0.0104598
0.259533
3.0834e-05
5.17347e-06
1.17809e-05
0.00365998
2.84948
0.000118219
4.74529e-05
6.25851e-06
6.39152e-06
0.000126124
0.0014871
8.30565e-06
0.000159423
8.88462e-05
0.66051
2.8335e-05
0.000395423
5.18956
6.29828e-05
0.000880571
0.000267897
0.0181763
0.000808976
0.000402419
0.000357177
2.41418e-05
0.0431582
0.587884
4.5315e-05
0.00331787
0.0131879
2.05713e-05
0.000200279
3.10719e-05