/*--------------------------------*- C++ -*----------------------------------*\
  =========                 |
  \\      /  F ield         | OpenFOAM: The Open Source CFD Toolbox
   \\    /   O peration     | Website:  https://openfoam.org
    \\  /    A nd           | Version:  10
     \\/     M anipulation  |
\*---------------------------------------------------------------------------*/
FoamFile
{
    format      ascii;
    class       volScalarField;
    location    "600";
    object      k;
}
// * * * * * * * * * * * * * * * * * * * * * * * * * * * * * * * * * * * * * //

dimensions      [0 2 -2 0 0 0 0];

internalField   nonuniform List<scalar> 
10435
(
0.682138
0.750408
0.662913
1.02929
1.24977
1.19017
0.643353
0.695887
0.712925
0.956047
0.884003
1.31208
0.59495
0.521971
0.52876
0.798289
0.515436
0.707952
0.716796
0.734654
0.725585
1.02017
0.822478
1.13246
0.94161
0.311272
0.431329
0.608255
0.378718
0.840082
1.11574
0.95561
0.692366
0.357544
0.908859
0.593957
0.974391
0.451906
0.233532
0.862787
0.94908
0.680756
0.454381
0.878495
1.01943
1.01694
1.08586
0.44291
0.644111
0.997317
0.739995
1.2464
0.227488
0.325657
0.251174
0.353285
1.06919
0.462553
0.453441
0.984346
0.247877
0.692622
0.448765
1.31111
0.922588
0.707384
0.42129
0.486684
0.686706
1.20941
0.323777
0.390445
0.3355
0.769664
0.538844
0.435348
1.24909
0.642229
0.666625
0.501362
1.14915
0.597241
0.221821
0.327138
1.21022
0.597301
0.659521
0.876095
0.559171
0.704813
0.947334
1.02836
0.642188
0.584927
0.755622
0.552834
1.10687
0.539337
0.469433
1.18637
0.547678
1.25923
0.619223
0.812552
1.28209
0.951833
0.695816
1.07659
1.25128
0.51411
0.91436
1.212
0.560918
0.533732
1.11542
0.940425
1.24724
0.638091
0.854747
1.23956
1.2867
0.360507
0.683389
0.426277
0.979552
0.280709
1.18167
0.375519
1.26004
0.444526
0.400305
0.902497
0.77896
0.492277
0.422334
0.207607
0.489111
1.1067
0.791659
0.864184
0.795255
1.04736
0.400706
1.31701
1.09873
0.502893
0.453218
1.27985
0.522628
1.31927
0.406544
1.11329
0.703792
1.29358
1.17823
0.362547
1.06011
0.734494
1.07381
0.755416
1.22081
0.484326
1.00123
1.2771
0.551818
1.30531
0.732278
1.23733
1.29278
1.32894
1.05058
0.29357
0.391438
0.513385
1.30429
0.690202
0.640449
0.507618
0.833756
0.403715
0.814336
1.25781
1.32719
0.266545
1.14221
0.400565
0.394381
0.661809
1.28974
1.29162
1.30713
0.218408
0.424461
0.531274
1.14193
0.67453
0.495239
0.562292
0.482668
0.885661
0.561839
0.442199
0.6078
0.46021
0.645813
1.11871
0.924773
1.17835
0.446616
1.17054
0.360946
0.746253
1.32755
1.30494
0.422147
0.527131
0.571338
0.267062
0.314109
0.476978
0.378688
0.510731
0.441506
0.486275
0.344129
0.838572
0.270006
0.536802
1.19499
0.439747
0.502844
0.780715
0.290343
1.19382
0.464587
0.506982
1.16004
0.342724
1.2263
1.05928
0.813256
0.309666
0.282993
0.347273
1.06138
0.687712
0.517848
0.654246
0.309659
0.631814
0.31003
0.587363
0.671187
1.23186
0.645098
1.31682
0.278971
0.637554
0.331691
0.437571
0.63115
1.13236
0.308031
1.27883
0.600045
0.492785
0.755065
0.95492
0.246552
1.18837
0.626156
0.649354
0.645595
0.830915
0.340797
1.27852
0.44584
1.17578
0.725136
0.650152
0.776242
0.499675
0.61703
0.525121
0.619223
0.238527
1.30675
0.25109
0.32697
0.377735
0.490468
0.826886
0.433338
0.646864
0.237623
0.320866
0.497262
0.63728
1.09804
0.959256
0.491762
1.26444
0.605687
0.341227
1.02623
0.532625
0.516679
1.2491
0.847213
0.323553
0.76032
0.41431
0.578944
1.30444
0.777816
0.325244
0.278452
1.25397
0.486614
1.2823
1.2824
0.420785
0.658409
0.214939
0.647809
0.660757
0.37024
0.597253
0.46812
0.459619
0.864519
0.384551
0.317669
0.630103
1.27489
0.468752
0.328673
0.318819
0.325672
0.376045
0.392723
0.37787
0.243766
0.392089
0.378082
0.399782
0.470769
0.470083
0.211543
0.647298
0.316955
0.733142
0.419205
0.592144
0.641202
0.610662
0.549337
0.852498
0.337673
0.346566
0.32338
0.286423
0.363315
0.241379
0.4092
0.410755
0.47499
1.31388
0.401338
0.649133
0.267863
0.430614
0.525463
0.584769
0.24261
0.431937
0.448168
0.450532
0.349667
0.338163
0.509048
0.259217
0.662028
0.463411
0.660683
0.633845
0.585546
0.572146
0.626442
0.606966
0.83609
0.451812
0.346163
0.363428
0.329424
0.61439
0.345423
0.547635
0.495251
0.417337
0.44292
0.412342
0.29748
0.701879
0.45062
0.663755
1.28145
0.301984
0.362304
0.471158
0.6196
0.475069
0.382226
0.32834
0.358675
0.466508
0.394284
0.630641
0.325767
0.367721
0.388985
0.352262
0.516833
0.246545
0.216234
0.551416
0.336231
0.0735762
0.0714963
0.0689627
0.065995
0.0627088
0.058919
0.0545981
0.0495689
0.0435749
0.07579
0.0732906
0.0702751
0.0669654
0.0634072
0.0594745
0.0550821
0.0501617
0.0446767
0.0774871
0.074538
0.0710924
0.0674618
0.0636543
0.0595623
0.055113
0.0502925
0.045174
0.0788195
0.0754258
0.0715884
0.067665
0.0636306
0.0593937
0.0548983
0.0501551
0.0452592
0.0799056
0.0761232
0.0719291
0.0677367
0.0634947
0.0591263
0.0545875
0.0498952
0.0451262
0.0808898
0.0767952
0.0722705
0.0678238
0.0633858
0.058893
0.0543083
0.049649
0.0449842
0.0819917
0.0776008
0.0727498
0.0680527
0.0634238
0.0588083
0.0541735
0.0495402
0.0449819
0.083532
0.0786713
0.0734744
0.0685252
0.0637079
0.0589674
0.054274
0.0496536
0.0451873
0.0855752
0.0800622
0.0745183
0.0693218
0.0643206
0.0594505
0.0546831
0.0500443
0.0456155
0.0879
0.0817567
0.0759291
0.0705099
0.0653349
0.0603303
0.0554701
0.050776
0.0463163
0.0902171
0.0837065
0.077742
0.0721527
0.0668228
0.0616822
0.0567133
0.0519366
0.0474126
0.0921989
0.0858926
0.0800088
0.0743243
0.0688655
0.0635921
0.0585053
0.053632
0.0490418
0.093433
0.0884449
0.0828551
0.0771406
0.0715705
0.0661641
0.0609497
0.0559648
0.0512945
0.0959281
0.0919502
0.0865663
0.0807903
0.0750862
0.0695262
0.064161
0.0590397
0.0542599
0.100997
0.0970254
0.0914845
0.0855013
0.0795872
0.0738233
0.0682639
0.0629598
0.0580015
0.109158
0.104002
0.0978416
0.0914566
0.0852267
0.0791895
0.0733821
0.0678528
0.0626866
0.119828
0.112698
0.105622
0.0987069
0.0920794
0.0857084
0.0796025
0.0738063
0.0684134
0.130834
0.122338
0.11452
0.107131
0.100114
0.0933985
0.0869704
0.080868
0.0751912
0.140987
0.132206
0.124145
0.116525
0.109245
0.102254
0.0955352
0.0891253
0.083119
0.150313
0.142147
0.134337
0.126788
0.119448
0.112321
0.105406
0.0987444
0.0924375
0.159658
0.152551
0.145292
0.138049
0.130863
0.12378
0.116811
0.109995
0.103438
0.170161
0.164109
0.157463
0.150648
0.1438
0.136962
0.130131
0.123316
0.116626
0.183101
0.177591
0.171392
0.165033
0.158686
0.152311
0.145858
0.139281
0.132684
0.19987
0.193641
0.187513
0.181607
0.175928
0.170269
0.164498
0.158461
0.15225
0.221418
0.212429
0.206073
0.200718
0.195921
0.191251
0.186524
0.181456
0.175539
0.0975639
0.0971427
0.0976018
0.0989582
0.101212
0.104335
0.108284
0.112998
0.118412
0.124452
0.131045
0.138116
0.145576
0.153328
0.161256
0.169246
0.177176
0.184911
0.192311
0.199234
0.205526
0.211028
0.215534
0.218692
0.220109
0.220228
0.219221
0.217078
0.213517
0.20903
0.203786
0.197852
0.191231
0.184074
0.176518
0.168691
0.160717
0.152715
0.144798
0.137066
0.1296
0.122452
0.115645
0.109208
0.103186
0.0976305
0.0925889
0.088102
0.0841935
0.0808769
0.0781421
0.0759597
0.0742901
0.0730812
0.072284
0.0718505
0.071742
0.071927
0.0723793
0.101456
0.101412
0.102228
0.103918
0.106464
0.109828
0.113957
0.118785
0.124244
0.130273
0.136816
0.143803
0.151106
0.158573
0.166027
0.173371
0.180526
0.187406
0.193909
0.199931
0.205359
0.210074
0.21394
0.216788
0.218421
0.218729
0.217695
0.21538
0.211936
0.207568
0.202404
0.196526
0.190008
0.182948
0.175456
0.167645
0.159634
0.151536
0.143457
0.135495
0.127733
0.120239
0.113074
0.106307
0.100015
0.0942753
0.0891528
0.0846916
0.0809207
0.0778126
0.0753108
0.0733464
0.0718491
0.0707624
0.0700379
0.069636
0.0695236
0.0696704
0.0700475
0.103735
0.104019
0.105077
0.106911
0.109502
0.112808
0.116775
0.121338
0.126428
0.131976
0.137916
0.144184
0.150709
0.157409
0.164189
0.170948
0.177585
0.184
0.190087
0.195735
0.20083
0.205245
0.208839
0.211457
0.212958
0.213255
0.212327
0.210203
0.206975
0.202778
0.197737
0.191957
0.185532
0.178564
0.17116
0.163432
0.155491
0.147448
0.139405
0.131461
0.123705
0.116223
0.109097
0.102414
0.0962564
0.0906986
0.0857948
0.0815724
0.0780255
0.075117
0.0727876
0.0709678
0.0695899
0.0685885
0.0679128
0.0675215
0.0673828
0.067474
0.0677715
0.101229
0.101501
0.102516
0.104268
0.106731
0.10986
0.1136
0.117886
0.12265
0.127826
0.133349
0.139156
0.145181
0.151354
0.1576
0.163839
0.169986
0.175952
0.181637
0.186936
0.191731
0.195899
0.199306
0.201817
0.203309
0.203695
0.202934
0.201039
0.198073
0.194132
0.189326
0.183763
0.17755
0.170795
0.163611
0.156109
0.148401
0.140596
0.132799
0.125111
0.117625
0.110436
0.103632
0.0972994
0.091514
0.0863352
0.0817984
0.0779102
0.0746488
0.0719693
0.0698131
0.0681166
0.0668189
0.0658674
0.0652153
0.0648232
0.0646636
0.0647179
0.064966
0.0957441
0.0959471
0.0968562
0.0984658
0.100751
0.103671
0.10717
0.111188
0.115657
0.120513
0.12569
0.131126
0.136758
0.142522
0.148354
0.154182
0.159931
0.165519
0.170853
0.175835
0.180353
0.18429
0.187523
0.18993
0.191405
0.191866
0.191269
0.18961
0.186927
0.183289
0.178787
0.173523
0.167608
0.161156
0.154285
0.147112
0.139752
0.132315
0.124912
0.117643
0.110606
0.10389
0.0975805
0.0917497
0.0864571
0.081742
0.0776209
0.0740861
0.0711088
0.0686447
0.0666413
0.0650443
0.0638032
0.0628734
0.0622175
0.0618054
0.0616136
0.0616258
0.061824
0.0878596
0.0879041
0.0886198
0.0900037
0.0920345
0.094675
0.0978752
0.101578
0.10572
0.11024
0.115075
0.120162
0.125442
0.130853
0.136332
0.141814
0.147227
0.152492
0.157526
0.162234
0.166514
0.170256
0.173348
0.175681
0.177155
0.177695
0.177256
0.175826
0.173427
0.170112
0.165959
0.161063
0.155537
0.149499
0.143069
0.13637
0.129516
0.12262
0.115791
0.109126
0.102713
0.0966287
0.0909408
0.085704
0.080958
0.0767253
0.073011
0.0698033
0.0670764
0.0647944
0.0629157
0.061398
0.0602013
0.0592901
0.0586342
0.058209
0.0579948
0.0579773
0.0581396
0.078306
0.0781869
0.0786888
0.0798125
0.0815438
0.083852
0.0866955
0.0900244
0.0937835
0.0979156
0.102363
0.107068
0.111974
0.117022
0.122151
0.127299
0.132395
0.137363
0.142122
0.146582
0.150646
0.154212
0.157178
0.159444
0.160916
0.161528
0.161234
0.160023
0.157906
0.154927
0.151156
0.146685
0.141631
0.136116
0.13026
0.124187
0.118009
0.111832
0.105762
0.0998787
0.094249
0.0889274
0.0839575
0.0793732
0.0751963
0.0714375
0.0680993
0.0651742
0.0626474
0.0604972
0.0586975
0.05722
0.0560368
0.0551221
0.0544526
0.0540082
0.0537726
0.0537328
0.0538727
0.0668872
0.0665592
0.0667936
0.0675996
0.0689704
0.0708854
0.0733118
0.0762095
0.0795316
0.0832272
0.0872484
0.0915384
0.0960436
0.100708
0.105477
0.110294
0.115094
0.119795
0.124315
0.128558
0.132429
0.135832
0.138684
0.140899
0.142378
0.14307
0.14293
0.14195
0.140125
0.137497
0.134142
0.130151
0.125662
0.1208
0.115664
0.110383
0.105062
0.0997906
0.0946679
0.0897343
0.0850294
0.0805773
0.0763952
0.0724981
0.0688978
0.0655933
0.0625972
0.0599066
0.0575226
0.0554438
0.0536657
0.0521793
0.0509712
0.0500284
0.049336
0.0488782
0.0486398
0.0486085
0.0487657
0.0528721
0.0522533
0.0521389
0.0525547
0.053508
0.0549844
0.0569536
0.0593656
0.0622215
0.0655153
0.0691338
0.0730301
0.0771361
0.0813892
0.0857819
0.090256
0.0948146
0.0994065
0.103822
0.10791
0.111604
0.11484
0.117589
0.119762
0.121293
0.122115
0.122195
0.121512
0.12002
0.11774
0.11482
0.111374
0.107567
0.103513
0.0992987
0.094938
0.0905734
0.0864514
0.082493
0.0786453
0.0749698
0.0714628
0.0681105
0.0649003
0.0618261
0.0589287
0.0562171
0.0537296
0.0514662
0.0493946
0.0475375
0.0459365
0.0446224
0.0436025
0.04286
0.0423915
0.0421832
0.0422175
0.0424667
0.333467
0.307344
0.284536
0.263526
0.243733
0.224996
0.207316
0.190759
0.175256
0.160772
0.148276
0.13845
0.131316
0.126337
0.122219
0.118412
0.114889
0.111651
0.108829
0.106684
0.105387
0.104685
0.103977
0.10255
0.0995877
0.315841
0.298529
0.279197
0.25949
0.240101
0.221396
0.203617
0.186895
0.171351
0.15726
0.145054
0.134954
0.126894
0.120574
0.115561
0.111547
0.108372
0.105952
0.104259
0.103288
0.103011
0.103287
0.103805
0.104039
0.103118
0.311197
0.293242
0.273991
0.254304
0.234774
0.215838
0.197814
0.180931
0.165422
0.151552
0.139527
0.129393
0.121056
0.114325
0.108996
0.104913
0.101968
0.10007
0.0991367
0.0990746
0.0997679
0.101036
0.102576
0.103906
0.104315
0.308376
0.288362
0.268075
0.247801
0.227898
0.208712
0.190544
0.173651
0.158272
0.144612
0.132773
0.122736
0.114394
0.107608
0.102258
0.0982587
0.0955428
0.0940315
0.0936237
0.0941794
0.0955238
0.0974142
0.0994869
0.10121
0.101813
0.305407
0.283429
0.261806
0.240662
0.220226
0.200749
0.182474
0.165626
0.150402
0.136943
0.125295
0.115407
0.107175
0.100483
0.0952425
0.0913942
0.0888865
0.0876511
0.0875732
0.0884893
0.0901684
0.0922962
0.0944439
0.0960602
0.0964865
0.301477
0.277812
0.254857
0.232794
0.211805
0.192058
0.173718
0.156953
0.141902
0.128653
0.117216
0.107526
0.099477
0.0929632
0.0879027
0.084239
0.0819192
0.0808746
0.0809756
0.0820379
0.0837921
0.0858753
0.087821
0.089077
0.0890031
0.296953
0.271536
0.247175
0.224176
0.202663
0.182691
0.164327
0.147672
0.132811
0.119788
0.108589
0.099141
0.0913337
0.0850546
0.0802149
0.0767473
0.074587
0.0736553
0.0738103
0.0748472
0.0764681
0.0782825
0.0798058
0.0805194
0.0798442
0.292247
0.264503
0.238577
0.214682
0.192734
0.172622
0.154288
0.137768
0.123117
0.110338
0.099406
0.0902437
0.0827381
0.0767439
0.0721562
0.0688891
0.0668568
0.0659659
0.0660666
0.066934
0.0682438
0.0695878
0.0704886
0.0704439
0.0689416
0.286758
0.256256
0.228767
0.204152
0.181959
0.161841
0.143621
0.127248
0.112805
0.100294
0.0896403
0.0808065
0.0736922
0.0680348
0.0637242
0.0606597
0.0587127
0.0577836
0.057729
0.058309
0.05914
0.0598387
0.059868
0.0586085
0.0556875
0.495146
0.502163
1.54427
0.149538
0.0263867
0.0318173
0.674708
0.0159253
1.84112
0.0332857
3.15413
0.0237904
0.298731
0.0134474
0.931298
0.0382185
5.46673
0.139094
0.0342184
0.60324
0.145354
0.0456004
3.82198
0.0700531
0.0148915
0.0168334
0.0150045
0.100836
0.391818
5.26109
0.0378174
0.0191024
2.89191
0.382701
4.88956
0.0208595
0.79499
0.941082
0.915959
0.0414788
3.0026
0.00242556
0.0297223
0.294687
0.121818
0.0774104
4.00844
3.82823
0.859378
1.57277
3.83587
2.08598
0.202866
0.126769
0.637689
1.67818
0.0127326
0.171431
0.0137111
1.44081
0.031496
1.43557
0.0254847
0.0448885
0.0160545
0.298519
0.0363097
0.126223
0.312114
1.29145
1.59867
0.0598619
0.0178636
0.606325
0.0149127
0.145622
0.69674
3.73306
0.0110377
0.117336
0.345917
0.0487851
0.0171848
3.23444
0.0277969
0.034229
0.017293
3.60697
2.87964
0.0640231
0.0743396
0.0478446
0.0419579
0.0248638
0.019173
3.17028
0.0166831
3.37163
0.00631457
1.36454
0.0659386
2.98528
0.0736398
0.0652211
0.0139471
0.112909
3.76297
0.327033
0.0122309
5.27705
0.0420981
0.0171518
4.31256
0.0637545
0.194362
0.859733
1.95562
0.039926
0.247607
0.0125658
0.0026577
0.0167368
0.0692529
0.0146471
3.02144
0.0278942
2.16186
0.340052
0.0106125
3.82968
0.0166711
0.591482
1.27822
0.777936
0.162765
0.017337
0.113485
0.0458817
0.0264938
0.685882
0.0585911
0.806871
1.67477
0.00312172
0.705955
0.0524733
0.173777
0.251237
0.0372974
5.33461
0.137962
0.0178138
0.166475
1.27741
0.0150439
3.14195
0.014963
0.0393738
1.06187
0.0229939
0.029806
1.76322
0.0300557
3.48803
0.0375671
3.66215
0.0136405
0.0149436
0.0664299
0.0149863
0.013003
0.0500844
0.131022
3.40458
0.0424972
0.120503
0.322772
1.00757
0.802675
0.0584889
0.547794
0.017839
0.21408
0.536336
0.28469
0.00831471
3.84855
0.0124787
1.90017
0.0304353
2.92916
1.57296
0.609631
0.75863
1.01391
2.23638
0.0147599
0.0438586
0.808549
0.233279
0.376418
0.0882449
0.0440477
0.0328757
0.0783058
0.0327731
0.0374008
0.0708574
1.01345
0.0379924
0.0138664
0.0232512
0.545534
0.0721638
0.192735
3.51051
0.0181021
0.00763438
0.0903408
0.0872689
0.0416527
0.00271877
0.0149784
1.08822
0.0490139
2.08693
0.0541769
5.2161
0.0113831
0.0187403
3.00023
0.0209035
0.0173726
0.0130541
0.887976
0.034187
1.0761
0.0628805
0.578136
1.30051
0.03672
0.0316448
0.0327257
0.209867
0.017573
0.0168432
0.0206933
0.176422
0.0367221
0.02065
0.0104858
0.132085
0.0336933
0.921764
0.0130861
0.0145887
4.40784
0.712597
1.08092
0.0347295
0.127562
0.0108675
0.0214453
0.0148958
0.607153
0.0142233
0.0296789
0.192205
0.660137
0.0150052
0.169871
0.648645
0.008152
0.00744472
0.0350623
0.200758
0.0387997
2.78
0.0130838
2.40233
0.361491
0.151506
0.110752
0.0758611
0.755951
0.031405
0.118689
0.0733198
3.60214
3.16048
1.05343
0.032633
0.00222047
3.75922
0.688128
3.4457
3.65582
0.0454048
0.0246502
0.87646
2.02248
0.0305227
0.0372479
0.0367405
3.86586
0.0300554
0.140569
0.0373313
0.682741
0.0465538
0.0618903
0.0571194
2.32058
0.0105334
0.00764465
0.765797
4.16689
0.0338601
0.0148835
1.03049
0.983568
0.0239239
0.0378392
0.0363559
0.0176584
0.0140831
1.86723
0.334538
0.0457407
0.173834
0.0368402
0.99558
0.0328792
0.0336568
3.23326
0.0374425
0.018269
0.0179962
0.00512754
0.125306
0.0236284
0.0237887
0.882477
0.0551593
0.594516
0.0177591
0.032453
0.0127838
0.0169827
4.03841
0.399483
0.0416211
0.00500105
1.0103
3.75932
0.0449321
1.17348
0.272612
0.0306088
4.28526
1.06938
4.06597
0.015877
1.98614
0.00221629
0.0167757
0.0551899
4.12564
0.0205585
1.76675
0.0640498
1.27365
0.408803
2.83319
0.299607
0.0133728
0.0134355
0.048062
0.0196058
0.0335607
3.68347
0.0434488
3.03603
0.336707
0.296902
0.940361
0.0405886
0.583605
3.28859
2.94165
0.336119
0.031772
0.111476
2.23945
0.504307
0.0332097
0.0285332
2.88658
0.0383518
0.530244
0.0160556
0.0305221
0.02728
1.17847
0.0229511
0.000173163
0.780159
0.118823
0.374146
0.0357202
0.848426
0.0208237
0.780582
0.0254567
0.0213218
0.0255027
0.817415
4.03432
0.0276652
0.0461928
0.0414845
0.0215428
0.0657284
0.0808665
0.0594361
2.91686
0.00350516
0.0467606
0.0384501
0.0192815
0.0296018
0.0145019
0.0673525
0.0114263
0.939527
0.0503581
0.0425877
0.00177289
0.0129733
0.0277707
0.0228651
1.32129
3.68431
0.303389
0.32567
0.480893
0.0757197
0.658433
0.0136072
0.0107662
2.62461
0.0250719
0.0288109
0.777189
0.0560939
1.24071
4.13597
0.0335481
0.0761126
0.375645
0.0341254
0.275381
0.842945
0.498791
2.54187
0.0163376
0.0149588
1.25248
0.0213505
3.34316
0.161642
0.016317
4.20039
0.0272029
0.0145757
0.339641
0.0639378
0.0151912
0.274245
0.219171
0.199541
0.910482
0.00111542
0.0233719
3.1467
0.0227848
0.0462684
0.0691381
1.17645
0.0578505
0.966217
0.0314748
0.0135349
2.01329
0.0200017
0.0159791
0.93371
0.0283679
0.0392317
1.67107
0.0303987
0.978574
0.0219957
0.164691
0.307845
0.418805
0.0310586
0.0296009
0.769457
0.0197167
0.0422885
0.375943
0.0410994
0.0599403
0.00793475
4.11522
3.76319
0.810592
0.0134249
0.193076
0.0442931
3.14943
0.621876
0.231072
0.386627
0.0774785
2.73953
3.12478
0.0327987
0.061136
0.122353
0.0601367
0.228036
1.09562
0.0130071
0.375429
0.0304382
0.89601
0.901265
0.0339964
0.991642
5.63529
0.0440274
3.62885
0.00588086
0.866571
0.022718
0.0322024
0.0276244
3.04358
0.851236
0.892409
0.0106498
0.978257
0.850856
4.1701
0.0149419
0.0537738
0.276939
1.09326
0.039657
0.760526
0.0312659
0.311613
5.57388
0.0331866
0.196374
0.0128728
0.0196977
0.143814
2.44858
0.0850525
0.849501
0.0153483
0.0242135
4.41192
4.2165
1.14226
0.041443
0.152114
0.679781
0.215136
0.0843709
0.0453785
0.0157591
2.85583
0.0429894
0.0311163
1.05927
0.076558
0.0472619
0.0382754
0.0425198
1.12879
0.0574561
0.0129994
0.346395
0.819248
0.0233366
0.0174159
0.973025
0.0932912
0.00249393
0.0448245
0.31695
0.0139817
0.0338001
0.0335948
0.0670161
0.0237066
0.0316478
0.905048
0.0166852
0.0620039
0.0940559
0.187124
0.0109095
0.0326706
0.760233
0.0537682
0.016082
0.0235659
0.0519118
0.0251798
0.0208993
1.2294
4.51558
0.0917299
2.64071
0.017192
0.0148006
0.0158631
0.0055343
0.0525923
0.0121407
0.187324
0.0571203
0.0147876
0.015722
0.86545
0.188235
0.0180365
0.287161
0.0417746
0.0295807
0.00946983
0.0832333
0.364498
1.17545
1.11333
1.04855
0.00690926
0.0333401
0.00461029
0.0819674
0.0335541
4.22665
0.0370966
0.136828
0.0171714
1.16831
0.0996909
3.10756
0.00286844
0.0160901
0.0153985
3.47164
0.76471
0.232796
0.206185
0.0201579
0.0355865
0.0255681
1.80471
0.00186078
0.0207008
0.812966
0.0197621
0.0658133
0.0336117
0.00753027
0.194328
0.042469
0.0175291
0.0283573
0.0224708
0.0461042
0.793053
3.62109
0.0199251
0.832249
0.0273287
3.30962
0.015852
0.054311
0.0207356
0.0150176
1.07051
0.027179
0.0447446
0.0138846
0.116965
0.0140764
0.0717703
0.0618405
2.24574
0.856287
0.122036
3.5881
0.973989
1.22825
4.74879
0.0345747
0.0151746
0.0161838
0.000377103
0.0290346
0.346159
0.0467291
0.0189549
0.285325
0.0414261
0.0379273
0.225397
0.0230004
0.0385201
0.0162005
0.119833
0.369176
3.49592
0.0344315
0.958407
0.564273
0.944738
0.141306
3.20314
3.61267
0.21909
0.0072605
0.034634
0.00137362
0.102835
0.0265586
0.596005
0.763362
0.0508003
1.01408
0.314079
0.0098293
0.0162139
0.0212786
4.47517
0.63676
0.0178507
0.677555
1.31405
0.236693
1.26183
3.19949e-05
0.0193547
0.244516
0.00169273
0.653514
0.399414
4.06826
1.18065
0.0143375
1.20534
0.011076
0.00164942
0.234337
0.0432752
0.0530851
0.0214345
0.0288913
0.261333
0.0352006
0.0124413
0.0313365
0.0271037
0.164167
0.0391986
1.94104
0.947185
0.0452761
0.368967
0.0490733
0.680299
0.0365392
0.0468406
0.063567
0.196366
0.165488
0.00199062
0.0602024
4.03447
0.556186
0.546056
0.0284297
0.269304
0.569416
1.24608
0.57497
0.775399
0.018251
0.0576951
3.68494
0.00532753
0.0159658
0.0928276
2.28529
1.53068
0.01783
0.0226822
1.57861
0.0156509
0.880163
0.907064
0.0591382
0.0173714
2.68978
0.649479
1.16812
0.0339727
0.0180311
0.00482535
0.243927
0.814247
0.0258313
0.0159078
0.0167051
0.517136
0.0221367
0.213876
1.04544
0.0345814
0.0227641
0.337966
0.0352828
0.202632
0.0168679
0.178264
0.0343184
0.0144774
0.563842
0.0570531
0.0519725
0.0380407
0.150307
0.197074
3.39307
0.00909746
0.0311976
0.025485
0.865302
0.685741
1.0532
0.0111007
0.377925
0.968154
0.000248571
0.014305
0.0196981
3.03404
0.0356773
0.753933
0.0463125
0.00221216
0.656799
0.031689
0.251384
0.256308
0.225843
1.95261
2.09997
4.42097
0.0353092
2.48294
0.805333
0.0615289
0.653976
0.0190808
0.0195011
0.439001
0.0259871
0.0813374
0.145833
0.634478
0.00990578
0.00855815
2.44241
0.0155962
0.0385205
0.849198
0.860729
0.999688
0.0478209
0.106803
3.60241
4.26387
0.705022
0.203296
1.51278
0.0275355
0.00856018
0.256331
0.804811
0.0358454
0.126734
0.0203118
0.804612
0.0509678
0.453768
1.15673
0.00305133
0.0193203
0.0488152
0.705914
0.916136
1.14048
0.790833
0.0824343
0.10909
0.170272
0.0858687
0.686193
0.164201
0.0170699
0.0310632
0.0244739
0.00685206
0.296806
3.32115
0.0152013
0.862057
0.0673938
1.06863
0.0420545
0.0196742
0.0156406
1.25437
1.22745
0.0898013
0.177935
0.0187363
0.0119807
1.01418
0.039035
1.13389
0.831937
3.04627
0.0166779
0.113685
1.01844
0.0385253
0.0720322
0.0425644
3.23165
0.0401565
0.0565669
1.0185
0.827522
0.0148577
0.0811828
0.0365134
0.0577937
0.0152795
0.0136473
0.174904
0.0111286
0.122185
0.789964
0.643249
1.29774
0.0306091
0.103388
0.309557
0.00849921
0.638476
0.026238
0.0286967
4.29561
0.0451778
0.184713
0.0252755
0.0149302
0.971104
0.0344159
0.108425
0.00711146
0.616141
0.718243
2.01842
0.0148176
0.68896
0.0191935
0.140662
0.0392646
1.12898
0.606678
0.103787
5.51705
0.0194834
4.04998
0.0218419
0.927419
0.0484558
0.0160093
0.0392343
0.486011
0.967697
0.0131075
0.0477751
0.49561
0.0165015
0.0504372
0.0145709
0.00606615
0.0363299
3.79022
0.0613952
0.0268724
1.29224
0.137327
4.42025
0.00670242
0.0557638
0.016802
0.0367711
0.0789206
0.0212931
3.37852
0.0397955
0.276709
0.0178367
0.0877222
0.302057
0.902203
0.0337267
0.0442869
0.0503071
0.0740821
0.0217909
0.13553
2.91396
0.119862
0.155212
0.0177812
1.05087
3.18425
0.108866
0.401551
0.0414084
0.929877
4.20442
4.25104
0.0236351
0.0239625
0.0942484
1.17959
0.0853084
0.779127
0.0549185
0.186576
0.938698
0.0127359
0.0437164
0.0374427
0.0345887
0.0385695
0.0221541
0.732397
0.0340162
2.42959
0.0348456
0.0181364
0.0107981
0.0332066
0.207507
0.0164975
0.684209
0.357206
0.0240149
0.0565435
0.873061
3.06291
0.0172352
0.0243297
0.0601204
0.145383
0.107859
0.105187
2.16822
0.0160959
0.0366224
0.25722
0.0214331
0.0734746
1.05239
0.0160747
0.0169069
0.00205561
0.0255784
0.506992
0.451778
0.652864
0.0388875
0.0958275
0.0386146
2.63678
2.86557
0.0312393
0.0354149
1.03865
0.03437
0.015192
1.04152
0.689431
0.0310303
0.0358467
0.00966094
0.185704
0.916606
0.0217411
0.0101904
1.02002
0.896701
0.00103049
0.0167436
0.0189642
0.067684
0.162473
0.233918
0.0223196
1.21301
0.0253992
0.059965
0.0206168
0.188903
0.0161579
3.53102
0.888863
3.09832
0.941535
0.833769
0.162586
0.0198763
2.13248
0.220047
0.016339
0.0819846
0.0168107
0.0843601
0.0245104
0.0198879
0.0130396
1.02728
0.0143131
0.123086
1.01463
0.0282344
0.109097
0.145387
4.24407
0.00660584
3.65375
3.33264
0.0335029
0.0138333
0.0957403
0.112778
0.0834618
0.628621
0.576083
0.061282
0.0142098
0.0358547
0.560426
2.71977
0.0485498
0.0555215
0.0142578
0.0147392
0.0410917
0.138592
0.0348851
0.0398882
0.0278061
1.0795
0.0422999
0.0952572
4.01474
0.0309764
0.135735
0.0825861
0.247677
0.123183
0.11722
0.253608
0.0302035
0.293522
0.869493
0.0229643
0.322031
0.935694
0.0291552
0.0510712
0.0626945
0.821687
0.0197566
0.3188
0.0457995
1.03168
1.43694
0.366298
1.03068
0.0400576
0.0385468
0.512722
0.594585
0.0490107
0.0623617
0.0185664
3.68018
0.0629869
0.101219
0.0109021
0.0757436
0.244854
0.0147155
0.0167512
0.015737
1.20255
0.461921
0.0327148
0.0764149
0.0345665
0.0213964
0.0262306
1.03975
0.0701932
0.389897
2.29793
0.244734
0.000760625
0.740143
0.336479
0.668453
1.04521
0.022554
0.628639
1.89956
1.20803
0.00509224
0.88621
0.0320724
2.0936
0.0765433
0.0364456
0.324386
0.85184
3.31047
0.460399
0.109256
0.0291786
0.637844
1.47905
0.0676567
1.98345
0.0729092
0.655468
0.0409114
1.08214
0.0811743
0.0140522
0.0267762
0.4698
0.0144444
0.0278767
0.66612
0.0178484
0.803711
0.00980134
0.0400687
1.20414
0.600568
0.0587548
0.224212
1.01096
0.0788997
0.22061
0.0815149
0.049087
0.152397
0.016431
1.22572
0.418389
0.00713006
3.29319
0.0454119
0.162762
0.074511
0.0588818
0.01505
0.149678
0.386094
0.765256
0.0127716
2.91293
0.0221346
0.221114
3.25758
0.119124
0.0671083
0.869723
0.0486119
0.0243185
0.00127536
1.03039
1.60758
0.0261655
2.46816
0.0963447
0.0274359
0.687384
0.0396818
0.0237113
0.351552
0.0668321
0.0193897
0.0517232
0.0169087
0.0456163
0.0714628
1.43117
1.2464
0.0720794
0.0362015
0.0132553
0.380686
3.10121
0.0206229
0.011203
0.106426
2.47451
0.0116614
0.532526
0.337175
0.0159979
0.203345
2.25828
0.0192538
0.091178
0.0311529
0.0893407
0.0204507
0.0221572
0.0562501
0.158869
1.41844
0.00690926
2.05701
0.0152206
3.23799
0.042504
0.66767
0.1447
0.685771
1.02974
0.0381506
0.195989
0.0763733
0.0559316
0.0562435
0.984961
0.864057
0.0489875
0.0355691
0.156704
0.0606043
0.0246056
0.00954202
3.48374
1.27553
0.382831
2.18383
0.0699074
0.0162333
0.424011
0.0728989
0.983636
0.0063724
0.0517708
0.0140348
0.0436796
0.0226388
0.0414122
0.0288227
0.101626
3.35499
1.14525
0.0387995
0.11702
0.213743
1.66831
0.0234231
3.56277
0.858873
1.4326
0.0570999
0.408488
0.0166845
0.072504
0.0576146
0.0492772
0.0358876
1.01499
3.25097
0.0644589
0.108268
0.672966
0.112312
1.31072
3.93828
0.0398664
0.0105119
0.0386274
0.0965185
0.46397
0.0150904
1.11129
0.357123
0.051155
0.0400796
0.0650973
0.21512
0.0729055
0.0143902
0.0451994
0.0210048
0.0618913
0.240071
0.0692991
2.88608
0.0459327
0.0320105
0.0969577
0.0336753
0.0211047
1.4613
1.36617
0.0291067
1.34519
0.0337584
0.73213
0.0567059
0.0767622
0.0188569
0.0165142
0.99087
0.0431769
0.057214
0.399997
0.924039
0.0355077
0.035847
0.0322879
0.0652902
0.858515
0.0134193
0.0271684
2.5498
0.0284014
0.034351
0.0563143
2.23913
0.0295963
1.26738
1.0422
0.0113253
0.398528
0.0588267
0.00660091
3.15147
0.153724
0.0345038
0.00111541
0.211127
0.0442368
0.0838975
0.015317
0.912371
5.42487
0.0288027
0.0130937
0.747317
0.0515724
0.434347
0.608741
0.0419696
0.310089
3.10529
0.0342227
0.423248
0.0459529
0.0449779
0.0715918
0.0206496
0.8908
0.773523
0.0414468
0.0349844
1.57194
0.0392418
0.0739959
0.0429191
0.301052
0.734268
0.0161225
0.0224798
0.035328
0.0231909
0.0160626
0.000103969
0.0275389
0.0730022
4.45534
0.223764
0.0265141
0.678411
0.0514443
0.444574
3.30597
0.727596
0.979039
0.0269628
0.000731943
0.220709
0.0745887
0.037468
0.914889
0.0380389
0.4456
1.20032
0.260915
0.057024
4.51143
0.0158682
1.23255
0.0257317
0.0239981
0.447826
0.137731
0.438426
0.0338945
0.0217318
0.0104452
0.0603852
0.998942
0.449324
0.0496009
0.753728
0.187792
1.26525
0.0122553
3.01206
0.0411879
0.0335902
0.136311
0.042507
0.176505
1.05786
0.208716
0.01673
1.20059
1.15519
0.0576675
0.675769
0.240033
0.00569827
0.158431
1.25126
0.0369511
0.0173835
0.0238073
1.98957
0.0261695
0.00834476
1.04556
0.207436
0.0551593
3.12655
0.415028
0.10069
0.0951449
0.706615
0.0400338
0.18332
0.0160748
0.0442145
0.0200315
4.33346
0.0440981
0.527624
1.30319
0.0148509
0.373214
3.74749
0.049437
3.17333
0.0170996
0.165027
0.0679027
0.013696
0.0496573
0.0347357
0.0136905
0.0514745
0.0373468
0.0291058
0.0244722
1.19338
0.206098
0.0282116
0.156665
0.0216401
0.0235967
0.0178251
0.040239
0.0434015
1.12422
0.00774293
0.967824
1.41301
1.04722
0.750204
0.0474977
0.0581636
3.54853
0.0217177
0.2771
0.0397145
0.0195667
0.0738033
3.58249
0.0450743
0.0308391
0.0213226
0.0848824
0.0295812
0.991407
0.196598
0.719909
1.22459
0.0213625
0.0178364
0.20409
0.038232
0.0438662
0.012681
0.0537985
0.0163754
0.0348852
0.0578118
0.00807687
0.546914
1.47676
0.738166
0.0403922
0.0341212
0.422802
1.36853
0.946684
0.0161406
0.0268615
0.273065
0.0160343
0.0158575
0.0334724
0.704967
0.293606
0.0183142
0.023396
0.0438954
0.0139491
1.31556
0.0198813
0.043243
0.0416693
0.0421043
1.04615
0.0390578
1.2577
0.0222699
0.0338943
0.0153251
0.0121917
1.11086
0.106752
0.0162516
2.32194
0.248397
0.188548
0.00770887
0.0256331
0.758916
2.94759
3.12089
0.018057
0.452021
0.0370936
0.0361331
4.50144
0.867622
0.0147576
0.00818567
0.498429
0.862686
0.0335676
0.0156539
0.983011
0.0196339
0.0392387
0.0633371
0.0412859
0.206862
0.0372838
0.0317986
0.0379264
0.87466
0.0334123
0.0163668
0.0227874
0.0585952
0.0509914
0.047389
0.168103
0.335583
0.246044
0.0560588
0.0526226
0.0359929
0.0107768
0.0375003
0.0231475
0.196402
0.0362078
0.043436
0.0617609
0.286732
0.0153868
0.0145171
0.0355349
3.5763
0.0351195
0.369689
0.00616813
0.0377848
0.00166532
0.0397315
0.0417609
2.90498
0.0477998
0.0174076
0.117526
0.033441
1.14441
0.0247788