/*--------------------------------*- C++ -*----------------------------------*\
  =========                 |
  \\      /  F ield         | OpenFOAM: The Open Source CFD Toolbox
   \\    /   O peration     | Website:  https://openfoam.org
    \\  /    A nd           | Version:  10
     \\/     M anipulation  |
\*---------------------------------------------------------------------------*/
FoamFile
{
    format      ascii;
    class       volScalarField;
    location    "600";
    object      nut;
}
// * * * * * * * * * * * * * * * * * * * * * * * * * * * * * * * * * * * * * //

dimensions      [0 2 -1 0 0 0 0];

internalField   nonuniform List<scalar> 
10435
(
9.63898
10.5214
13.542
16.7681
11.5547
5.0515
15.5495
17.6802
17.3582
5.86091
12.1796
19.8046
7.03917
2.52485
2.76897
16.3586
2.39472
3.24529
17.0788
11.4577
17.174
17.5732
15.1773
20.3219
8.616
3.41002
3.12831
11.3368
2.71547
4.3553
14.2259
12.4905
17.7614
2.44408
17.8871
6.52158
17.6925
3.19745
3.74284
18.0551
3.15096
14.8696
2.30242
14.2403
16.894
19.2893
3.94474
2.49362
17.1592
18.1641
17.4574
10.7946
3.55446
2.73229
3.62848
2.65223
18.7425
3.06979
2.21098
18.5919
3.43452
9.27685
2.92907
12.0758
15.8711
11.6836
2.23079
2.69337
17.4928
21.1736
2.77634
3.32738
2.00798
12.789
3.20301
2.25298
21.5416
16.3796
17.808
3.13888
20.3745
7.92206
3.34291
2.67688
21.0579
5.73927
7.48967
13.5078
4.05065
9.07167
14.6475
15.6704
9.79401
4.85602
10.6607
5.26515
16.7065
3.10667
2.21559
16.2375
3.51804
7.67815
6.03625
12.1647
6.9673
15.5622
11.701
19.4054
21.4416
3.83223
16.7711
8.38274
6.2342
4.85268
15.5799
16.2515
16.8396
7.08796
12.5847
18.4408
17.5238
2.06464
8.55493
3.01125
10.4371
3.35972
17.7053
2.20335
14.4952
3.51844
2.50874
10.7346
17.0925
2.69057
3.31335
2.52733
4.69295
17.8734
11.4134
14.8052
13.1995
15.4375
2.31453
16.2561
18.7486
2.67249
3.73905
9.14465
2.43253
18.4169
2.60574
17.9927
9.41382
17.5159
8.09707
2.86683
9.85476
10.0352
6.60783
10.3038
17.5654
2.42093
14.1971
20.8223
3.88
15.4824
17.6289
19.598
21.0385
14.8087
9.20029
2.01037
2.84003
2.93506
19.7878
9.52232
7.89584
2.43901
15.2376
2.71062
11.5022
5.92766
19.0297
3.26851
16.5851
2.26251
2.1388
16.6834
10.7647
13.797
18.5814
3.11612
3.48517
5.85703
9.13927
17.1542
2.3795
4.6207
2.45768
16.8679
4.00197
3.00533
9.31822
3.00174
11.1097
14.0836
13.5035
18.857
2.80354
19.7375
2.48651
14.5663
17.2004
20.7764
2.99206
2.54669
4.8897
2.7183
3.44284
2.27525
2.65324
2.39033
2.48337
2.97143
3.15459
17.3743
3.52332
3.81315
13.1942
2.35885
2.49949
17.563
3.45772
19.0342
3.46853
2.34256
19.8184
3.31838
20.6881
11.9146
12.7535
3.13208
2.50505
2.68552
14.2836
17.5879
4.21183
17.6126
2.31689
8.42411
2.48981
4.92103
5.80936
20.4562
17.2247
13.0309
2.16146
16.8904
2.66362
2.79834
16.4403
10.5843
3.29447
21.428
6.21974
2.377
11.1202
14.1963
3.04261
14.2705
15.8217
17.9755
17.6149
9.07098
3.47759
18.908
3.36939
11.8255
16.5388
18.0215
6.53834
2.37889
15.0762
3.31492
6.17318
2.66635
10.0111
3.60805
2.61108
2.56078
3.40061
10.7076
2.67837
17.8516
3.82439
2.77462
2.4895
7.84069
12.1805
11.7291
2.58699
21.1049
14.2238
2.49223
12.4558
2.75949
2.39374
19.9591
11.4978
2.53772
13.5419
3.08115
7.14581
9.49544
17.6242
2.70804
3.0562
15.6552
2.56552
19.9566
6.2869
2.86557
7.7156
2.90119
17.9906
8.69526
3.5631
13.1094
2.42067
3.25896
17.9936
2.41932
2.46429
14.6218
18.9072
2.91063
2.62549
2.4268
2.33342
2.72233
3.58246
3.12017
3.26815
2.8632
2.74756
2.83679
2.769
3.5244
2.70164
17.7952
2.39398
9.15585
3.07017
11.6906
17.897
17.1105
7.55728
13.618
2.71555
2.5511
2.50029
3.44396
2.64844
2.85132
2.88046
3.56187
2.83485
20.3794
3.47513
17.5297
3.52565
3.57089
6.49319
16.7377
2.4754
3.19616
3.06157
3.32327
2.62836
3.43116
3.81734
3.49651
17.926
2.63215
17.8033
17.7088
10.0962
8.52827
17.4553
12.8485
17.7823
2.59394
2.25429
2.69402
2.72237
13.8757
2.68469
5.97615
3.7415
2.79307
3.55025
2.54688
2.83945
15.789
3.21896
17.9064
20.5748
2.31741
3.48321
3.59157
16.6553
3.70936
3.49454
2.97597
2.6437
2.68752
2.78949
12.8409
2.77471
3.38684
2.75117
2.25291
3.78813
2.14074
2.35971
16.302
2.47148
78.9112
78.2751
76.4151
73.568
69.8997
65.5528
60.7093
55.5842
50.4706
79.9703
79.427
77.8834
75.4632
72.3002
68.5439
64.3856
60.0776
55.9564
79.4409
79.0334
77.8173
75.8559
73.2422
70.1125
66.663
63.1604
59.9587
77.3035
77.0369
76.1407
74.636
72.5766
70.0803
67.3395
64.6293
62.3246
73.5961
73.4585
72.8493
71.7628
70.2207
68.3237
66.2547
64.2965
62.8742
68.4609
68.434
68.0558
67.3147
66.2128
64.8365
63.3567
62.0503
61.3582
62.1796
62.2381
62.0165
61.5218
60.7517
59.7838
58.7733
57.9738
57.7812
55.1952
55.2752
55.1201
54.7604
54.2006
53.5136
52.8385
52.4
52.5238
48.0005
48.0108
47.8292
47.5017
47.041
46.5149
46.0486
45.8453
46.2005
40.9932
40.8661
40.5927
40.2279
39.788
39.3311
38.9678
38.8835
39.3705
34.421
34.146
33.7717
33.3522
32.9
32.4606
32.1276
32.0617
32.5221
28.3941
28.0334
27.6137
27.1714
26.715
26.28
25.9447
25.8429
26.1886
22.9138
22.6368
22.2699
21.8608
21.4279
21.0067
20.6662
20.5157
20.7226
18.1866
18.083
17.8318
17.4918
17.1019
16.7058
16.3675
16.177
16.2621
14.453
14.4775
14.3229
14.0439
13.6943
13.3239
12.9924
12.7753
12.7779
11.7453
11.7914
11.6677
11.4145
11.0865
10.7332
10.4073
10.169
10.0951
9.87045
9.85618
9.7064
9.44567
9.12032
8.77398
8.45116
8.19908
8.07088
8.52282
8.44003
8.24646
7.96491
7.63351
7.28921
6.96887
6.71064
6.55729
7.46529
7.34338
7.11943
6.82308
6.48848
6.14776
5.83165
5.57094
5.39971
6.57642
6.44454
6.21203
5.915
5.5861
5.25465
4.94696
4.68764
4.50136
5.81316
5.68881
5.46445
5.17907
4.86464
4.54876
4.25455
4.00241
3.8125
5.17124
5.06039
4.85148
4.58395
4.28923
3.99327
3.71629
3.47483
3.28465
4.65996
4.55824
4.36291
4.11319
3.83936
3.56523
3.30768
3.07941
2.89194
4.28941
4.18025
3.98929
3.75342
3.49894
3.24684
3.00986
2.7965
2.61489
4.0652
3.91488
3.71689
3.49099
3.25312
3.02249
2.80676
2.60916
2.43528
2.45703
2.49731
2.564
2.65848
2.78172
2.93393
3.11493
3.32392
3.56001
3.82187
4.10819
4.41744
4.74783
5.09757
5.46439
5.84602
6.23986
6.64295
7.05215
7.46416
7.87528
8.28183
8.67993
9.06567
9.43647
9.7947
10.1404
10.473
10.7919
11.1023
11.4063
11.706
12.0044
12.3075
12.6229
12.96
13.3309
13.7505
14.2376
14.815
15.5109
16.3601
17.4056
18.7026
20.3189
22.335
24.8395
27.9219
31.6553
36.0764
41.1569
46.7805
52.735
58.7175
64.3754
69.3501
73.3362
76.1137
77.6152
2.41669
2.4566
2.52181
2.61383
2.73364
2.88165
3.0578
3.26162
3.49236
3.74901
4.03036
4.33489
4.66067
5.00558
5.36727
5.74365
6.13236
6.53071
6.93574
7.34425
7.75284
8.1581
8.55664
8.94525
9.32131
9.68344
10.0313
10.3658
10.6887
11.0025
11.3095
11.6118
11.9132
12.2186
12.5351
12.8715
13.2392
13.6523
14.1286
14.6903
15.3654
16.1893
17.2073
18.4776
20.0724
22.0767
24.5836
27.683
31.4425
35.8813
40.9498
46.514
52.3541
58.179
63.6564
68.4568
72.2987
74.9805
76.4358
2.34948
2.38711
2.44872
2.53579
2.64929
2.78975
2.95725
3.1515
3.37193
3.61775
3.8879
4.18113
4.4959
4.83042
5.18264
5.55036
5.93113
6.32229
6.72095
7.12396
7.52806
7.92987
8.32602
8.7134
9.08946
9.45266
9.8024
10.1391
10.464
10.7791
11.0868
11.3898
11.6919
11.9981
12.3152
12.6519
13.0192
13.431
13.9051
14.4638
15.1358
15.9579
16.9773
18.2531
19.8574
21.8725
24.385
27.4731
31.1892
35.5387
40.4613
45.82
51.4026
56.9377
62.1252
66.6726
70.3315
72.9222
74.381
2.24249
2.27763
2.33554
2.41758
2.52468
2.65735
2.81573
2.99963
3.20865
3.44213
3.69926
3.97898
4.28001
4.60085
4.93972
5.29459
5.66319
6.04297
6.4311
6.82458
7.22023
7.61477
8.00497
8.38783
8.76081
9.12215
9.47093
9.8072
10.1319
10.4467
10.754
11.0568
11.3593
11.6668
11.9862
12.3263
12.6983
13.1164
13.5985
14.1675
14.8525
15.6907
16.7288
18.0238
19.643
21.6603
24.1493
27.1721
30.7641
34.9176
39.5673
44.584
49.7768
54.9075
59.7144
63.943
67.3764
69.8539
71.3134
2.1051
2.13763
2.19168
2.26852
2.36902
2.4937
2.64271
2.81593
3.01302
3.23345
3.47655
3.74144
4.02709
4.33223
4.65534
4.99463
5.34805
5.71322
6.08753
6.46813
6.85201
7.23602
7.61708
7.99229
8.35918
8.7159
9.06135
9.39528
9.71834
10.0321
10.3388
10.642
10.9461
11.2567
11.5812
11.9288
12.311
12.7423
13.2408
13.8292
14.5363
15.3974
16.4562
17.7641
19.3797
21.3644
23.7767
26.6621
30.0417
33.8999
38.1745
42.7514
47.4678
52.1231
56.497
60.3728
63.5623
65.921
67.3861
1.93927
1.96859
2.01815
2.08913
2.18237
2.29839
2.43733
2.59912
2.78348
2.98999
3.21806
3.46701
3.73598
4.02391
4.32954
4.65133
4.98748
5.33584
5.69401
6.05939
6.42914
6.8003
7.16996
7.53535
7.89404
8.24419
8.58456
8.91477
9.23533
9.54772
9.85446
10.1592
10.4669
10.7836
11.1173
11.4774
11.8756
12.3262
12.8468
13.4588
14.1881
15.0659
16.1296
17.4217
18.9891
20.8799
23.138
25.7965
28.8688
32.3396
36.1572
40.2292
44.4242
48.5784
52.5094
56.0343
58.9886
61.2413
62.7274
1.74535
1.77056
1.81458
1.87855
1.96331
2.06936
2.19696
2.34607
2.51649
2.70789
2.91982
3.15173
3.40296
3.67265
3.95979
4.26313
4.5811
4.91179
5.25296
5.60222
5.95695
6.31439
6.67184
7.02668
7.37657
7.71971
8.05482
8.38148
8.70013
9.01238
9.32105
9.63026
9.94548
10.2734
10.6221
11.0014
11.4225
11.8988
12.4459
13.0814
13.8261
14.7043
15.7439
16.9764
18.436
20.1579
22.175
24.5133
27.1859
30.1861
33.4802
37.0025
40.6547
44.308
47.8136
51.0156
53.7681
55.9481
57.4859
1.51762
1.53677
1.57318
1.62807
1.70229
1.79647
1.91093
2.04573
2.20079
2.37591
2.57075
2.78485
3.0177
3.26873
3.53725
3.82236
4.12286
4.43697
4.76242
5.09677
5.43763
5.78255
6.12918
6.47516
6.81821
7.15669
7.48926
7.81542
8.1356
8.45175
8.7674
9.08735
9.41785
9.76589
10.1394
10.548
11.0018
11.5111
12.0871
12.7411
13.4861
14.3365
15.3091
16.4241
17.7041
19.1735
20.8585
22.7828
24.9662
27.4185
30.1322
33.0741
36.1804
39.3564
42.4811
45.4175
48.0292
50.1943
51.8338
1.243
1.25197
1.27679
1.31902
1.37974
1.45961
1.55885
1.6774
1.81605
1.97527
2.15376
2.35092
2.56613
2.79925
3.05058
3.31977
3.60696
3.91037
4.22576
4.55021
4.88197
5.21936
5.56066
5.90407
6.24764
6.58993
6.92909
7.26448
7.59666
7.92835
8.26479
8.61181
8.97574
9.3631
9.7806
10.2387
10.7451
11.2983
11.9023
12.5613
13.279
14.0578
14.9015
15.8236
16.8417
17.9703
19.2322
20.6487
22.2469
24.0623
26.1266
28.4523
31.0162
33.7598
36.5864
39.3675
41.9543
44.209
46.0331
2.98906
2.87879
2.79862
2.73279
2.67518
2.62376
2.57819
2.53893
2.50678
2.48351
2.47171
2.4695
2.47089
2.46881
2.45768
2.43676
2.40807
2.37443
2.33992
2.30948
2.28838
2.28087
2.29032
2.32043
2.37815
2.81989
2.79371
2.74763
2.69647
2.64546
2.59705
2.5529
2.51441
2.48315
2.4609
2.44829
2.44283
2.4394
2.43238
2.41808
2.39567
2.3664
2.33296
2.29911
2.26935
2.24899
2.2429
2.25542
2.29047
2.35339
2.7345
2.71497
2.67966
2.63631
2.59002
2.54422
2.50147
2.4639
2.43348
2.41159
2.398
2.3902
2.38385
2.37428
2.35807
2.33399
2.30289
2.26727
2.23152
2.20058
2.17993
2.17453
2.1886
2.22547
2.28888
2.66145
2.63695
2.60254
2.56154
2.51739
2.47314
2.43148
2.39474
2.3649
2.343
2.32851
2.31899
2.31056
2.29901
2.28093
2.25469
2.2207
2.18164
2.14266
2.10912
2.08671
2.0802
2.09313
2.12797
2.18702
2.58735
2.55652
2.51948
2.47788
2.43398
2.39021
2.349
2.31262
2.28287
2.26056
2.24502
2.23391
2.22362
2.21008
2.18977
2.16074
2.12294
2.07987
2.03666
1.99947
1.97394
1.96436
1.97353
2.00297
2.05516
2.50982
2.47261
2.43185
2.38841
2.34371
2.29963
2.25824
2.22164
2.19142
2.16827
2.15145
2.13868
2.12645
2.11069
2.0877
2.05529
2.01307
1.96547
1.91743
1.87566
1.8456
1.83091
1.83371
1.8547
1.89672
2.42867
2.3855
2.34123
2.29578
2.24989
2.20498
2.16287
2.12548
2.09434
2.06997
2.05164
2.03707
2.02269
2.00434
1.97813
1.94171
1.89444
1.84159
1.78819
1.74092
1.70484
1.68278
1.6761
1.68499
1.71265
2.34234
2.296
2.2497
2.20279
2.15572
2.10969
2.06643
2.02792
1.99565
1.96997
1.95014
1.93375
1.91699
1.89553
1.86537
1.82412
1.77112
1.71208
1.65237
1.59841
1.55454
1.52243
1.50277
1.49412
1.50001
2.25331
2.20749
2.16094
2.11314
2.06488
2.01759
1.97305
1.93357
1.90072
1.8744
1.85382
1.83615
1.81674
1.79152
1.75632
1.70881
1.64882
1.58203
1.51441
1.45205
1.39805
1.3535
1.31634
1.28174
1.2521
4.82848
5.59606
0.171157
1.09156
1.18035
1.27021
2.70416
3.29752
0.190433
21.142
0.201041
3.00487
15.9868
0.731601
6.83439
1.57438
0.328918
1.34765
33.4758
0.201025
11.6115
4.98566
0.261839
3.03607
3.91322
2.45565
3.89254
0.865097
0.0915271
0.321883
56.5347
2.00327
0.284723
14.4019
0.306571
1.1361
12.3126
6.64861
14.8424
6.49341
0.22885
0.123781
3.42843
1.65953
1.94153
10.1191
0.209453
0.195935
0.124357
0.225585
0.206275
0.189016
15.0033
1.49493
2.74981
0.183102
0.90067
14.3324
1.68906
0.124402
0.929374
0.1652
1.18276
3.56769
3.23682
1.81036
17.2241
2.57171
15.841
0.193295
0.181455
6.40282
1.63576
0.235992
3.59081
12.3356
0.607488
0.216248
2.71518
1.80653
14.2295
1.15557
3.00667
0.189778
1.07382
1.00389
1.92277
0.21586
0.281555
4.95545
2.49857
12.7378
7.35343
3.00717
1.36355
0.203675
2.35836
0.197971
0.331412
0.121452
1.05968
0.232004
1.07708
7.58422
1.89517
1.76057
0.260342
14.0392
0.772604
0.326462
4.53625
2.23477
0.309599
7.66987
15.0082
0.126315
0.215877
7.3453
15.9313
2.03862
0.091443
2.3998
3.09774
3.81569
0.287902
3.26037
0.194693
0.383493
3.30764
0.197055
3.01603
0.26015
0.1878
16.4309
1.36839
1.9019
1.91977
0.977237
0.870538
0.169654
7.16836
13.4126
0.134301
0.118389
0.120622
1.94352
0.915578
2.50348
1.48061
0.314291
2.49068
1.76829
0.901677
8.27417
3.98446
0.187991
2.40249
6.5016
1.49193
5.05469
3.22093
0.189711
3.07491
0.200953
3.97574
0.19589
0.827695
3.85337
2.79279
2.12847
0.778434
4.02106
2.42281
0.192248
25.5676
1.5561
9.51956
0.175238
0.105749
7.03456
12.3006
1.78229
15.3374
10.2628
2.09833
0.827044
0.198181
0.768938
0.238373
1.1226
0.170798
0.130898
3.78415
13.0643
6.75587
0.257156
3.68026
4.76149
0.126516
4.00873
15.7393
4.74776
1.08422
1.07276
1.40566
8.59868
15.4171
1.00138
0.146362
7.42994
1.96948
2.64839
13.1935
1.39413
3.78176
0.23563
1.24047
1.89127
7.55409
3.74944
0.597625
0.139948
3.93249
0.144409
4.19311
0.215716
4.32691
0.324305
0.673223
1.45934
0.184764
1.12134
1.63481
2.45032
14.1891
14.7462
2.80785
0.676566
10.4333
7.01616
55.9878
0.955425
3.61201
1.58088
1.76638
2.19486
2.49085
2.08281
1.59895
3.23352
0.553748
1.66361
22.8682
0.137956
1.34882
3.47347
0.308572
0.776383
1.82169
36.1838
2.1174
3.17184
1.36196
4.02069
0.300418
3.6418
6.15175
0.659455
2.5236
3.84008
9.65113
3.4704
0.444668
1.73741
28.4653
0.660937
12.1197
0.232879
1.01859
0.169561
2.04515
2.8098
2.72357
9.91147
0.0988961
0.861645
1.74717
3.65583
0.21595
0.177468
3.90744
3.15746
0.111963
0.215284
17.0766
0.237063
0.278546
17.5314
5.35858
0.108925
0.157039
3.23902
3.39682
1.1256
0.311806
4.35258
11.0926
35.0145
0.171897
1.08855
6.72579
11.6334
0.258897
3.39164
0.381513
13.9953
0.214026
19.3796
3.83666
20.3114
1.42198
3.21501
3.19153
52.7312
1.76656
3.5265
0.211112
13.8586
19.7214
13.9465
4.12656
6.67498
0.551115
17.9956
0.211796
1.04008
2.59401
2.94741
0.266296
2.27547
2.5618
3.09699
0.0987029
13.689
0.347778
1.22498
1.07064
0.916702
2.00424
0.202458
5.0152
6.99263
0.133955
1.90133
0.216819
4.15979
21.5558
1.63127
3.38993
0.204201
0.154842
0.264722
3.22032
0.212257
0.13405
2.16681
2.72215
0.216632
1.60123
0.234177
11.1513
8.47463
0.116794
0.260568
15.8733
3.30037
2.99322
5.18052
4.12842
17.3347
0.286132
3.34527
0.29042
1.81164
1.70669
19.3757
4.13845
0.208277
0.209618
0.170455
1.52246
7.69964
2.81003
0.244297
11.5134
26.9706
3.97393
0.286872
6.03139
0.112429
3.25505
3.64943
1.10049
0.300565
3.11905
0.106885
3.949
2.56049
6.97866
52.417
0.332553
1.41151
0.0989851
0.89343
3.03967
3.4996
0.113371
0.20299
4.52294
12.4128
4.07382
4.50739
4.13558
1.03297
3.08657
0.183778
0.167687
3.67649
45.1569
2.06219
1.03696
3.26016
5.08584
2.67524
3.28131
2.57594
4.65714
0.0852903
0.956804
2.65786
5.10812
7.27188
0.219866
2.77675
15.6125
0.11458
0.75362
0.125906
1.99121
2.79985
0.249046
2.79536
2.92517
0.100559
13.1114
0.19502
0.201127
0.938939
2.43637
0.635397
3.34041
2.15843
0.568406
13.2258
0.174896
2.73346
1.63075
0.15419
4.79114
0.213794
2.24966
2.50334
0.273407
2.72775
3.71985
14.8007
6.69068
2.72561
2.89265
4.1022
3.55055
13.6529
0.128736
3.06008
0.187699
1.15773
1.07466
6.24885
0.852838
6.77472
7.12493
2.40673
3.24017
0.230179
1.6874
1.10201
7.15613
0.866959
6.10161
0.228138
3.35407
3.52988
1.07961
1.33045
10.0943
14.192
1.02093
1.17208
3.62843
2.34069
4.01312
13.8587
24.694
7.30328
0.757338
0.217591
0.310804
0.110372
3.34532
1.40002
12.6615
0.178221
0.195293
0.304667
14.618
7.6666
0.178237
0.246053
8.86094
4.45886
1.48817
7.52716
0.456393
0.154063
1.90038
4.24823
3.69446
0.1192
0.137672
2.4437
20.0035
0.333208
4.67952
0.250434
0.160625
0.131084
2.69592
0.535099
0.892784
0.244093
12.5429
12.32
3.37041
0.145394
0.117732
0.215095
4.00784
10.86
16.1815
0.152776
42.8288
15.5615
3.7411
15.3292
0.324019
27.1822
1.55933
1.91492
2.14711
2.00411
0.26253
7.49329
8.68992
1.37761
1.1616
0.317672
0.206353
0.158495
0.6128
1.95938
0.15369
15.6424
4.51448
11.3908
3.20852
0.285344
4.37792
1.24415
20.2673
4.61527
1.53663
1.21541
3.59482
7.9224
10.7232
1.65623
14.6132
0.110847
1.16398
1.79457
0.105003
0.804555
0.150994
3.52111
0.429881
1.28611
0.885031
30.5957
3.88923
2.6817
3.49432
13.8953
2.37802
2.68188
1.55864
13.8572
2.57643
1.13067
0.123928
4.22981
3.12489
3.1874
15.6166
1.46259
3.12446
0.115418
0.208271
0.834088
0.274701
2.99105
3.69455
2.76164
0.427222
2.01179
1.91055
12.1278
3.94829
3.78811
1.92423
6.86343
1.62251
0.469854
1.73797
4.42502
1.23622
1.63272
2.21555
3.71258
0.112709
7.85983
2.14547
0.779187
20.6727
0.130318
7.76681
34.3107
0.207125
40.9386
6.59937
2.25255
0.159085
2.38664
0.194769
0.107747
2.7403
3.2635
0.275413
0.132962
1.62403
15.3373
3.10348
21.3713
1.11292
0.146435
0.147502
2.98173
15.0851
1.27642
11.4401
16.8222
0.41832
14.2033
3.17545
2.90723
5.96803
0.43622
4.94094
0.136224
0.252411
2.26138
4.55395
4.13895
0.213846
3.11498
11.8205
3.05537
2.34283
20.423
0.851259
4.23649
1.65539
2.5814
1.47699
6.49716
7.47982
0.150454
7.34634
2.70132
0.193095
5.39447
0.545147
0.297775
29.079
2.47278
2.93287
0.129428
2.20364
1.95517
1.59394
1.42046
16.006
20.6515
51.816
1.77129
2.70119
36.1865
3.02177
2.85257
13.6005
0.268536
17.7455
0.12819
1.86319
0.16967
6.31708
0.242702
0.214554
0.459929
1.8684
1.36248
0.133694
2.72272
2.85976
16.1803
0.45003
13.8499
0.924244
3.19786
2.57375
3.12908
1.15061
0.206312
0.117717
2.6681
2.15969
8.68702
14.9504
0.16272
0.0589421
3.2283
1.87542
0.147458
1.08347
7.93803
0.272689
8.14747
3.17677
8.27313
1.22455
0.18304
1.74539
1.47743
1.01073
4.66815
3.50229
2.42052
1.30089
2.37152
3.37228
1.873
2.23182
5.40917
0.157751
5.52439
4.64119
4.69036
3.79321
0.176644
1.21651
18.1709
10.5712
6.88797
3.46215
0.171193
7.4282
0.204188
0.114193
2.70738
0.85921
3.69617
16.0868
5.95305
0.114272
14.9559
0.747232
13.3586
0.250024
0.244869
3.30558
2.11744
0.259778
0.171665
1.72542
1.04141
0.222938
2.97592
0.132515
0.162225
7.20304
1.60682
0.227031
0.194734
1.9458
4.05604
4.08126
0.358466
4.28967
11.9348
2.84738
3.29988
0.968705
2.92751
2.4393
1.71815
0.759138
18.9194
2.80868
0.143698
14.5811
11.125
1.887
6.83676
8.30206
3.54869
16.0021
6.19083
14.6126
6.08418
1.8585
10.415
0.212182
1.49197
7.72014
2.73545
8.04651
0.170968
0.143491
1.45282
15.175
6.25244
0.0358095
3.07491
0.718313
0.184187
7.07917
0.210762
2.03802
0.0974047
8.41243
1.30087
0.27271
0.294723
2.72971
0.151679
0.146268
0.207304
13.6042
0.267532
9.79316
12.3168
2.99774
1.38924
0.703052
0.456523
0.872277
4.0029
5.07078
0.116711
3.95185
3.63771
0.267969
0.897448
1.13533
7.02225
0.196289
19.7391
13.3361
1.82861
0.191917
0.282264
17.3824
12.3957
0.242673
1.40423
0.824436
1.75566
0.106664
16.5013
3.17549
1.62872
0.16706
2.17119
3.94323
2.53158
0.124022
0.863781
12.0494
0.0930943
18.3904
0.151466
0.121179
5.94034
0.879877
1.37462
2.96612
0.58841
14.3409
3.52146
0.96302
0.964292
0.850751
4.13789
0.215098
1.23065
0.111125
11.2679
3.28421
19.326
1.30083
3.37505
0.165494
0.16636
0.796919
8.73805
2.3577
1.10566
3.97185
49.4113
21.2983
17.2299
0.281587
2.05517
2.83451
3.64041
1.38234
3.86702
1.08578
0.292058
11.1602
0.984846
3.56499
4.18693
1.58999
2.62517
37.6531
6.55379
1.27154
0.992524
12.5192
1.00068
1.69151
0.103152
0.190544
0.16918
3.32266
1.85192
3.04063
3.48872
0.111263
1.18024
0.713937
0.317856
1.84555
1.67896
1.39892
3.70866
0.141686
13.5572
3.06744
0.506589
2.15851
2.28256
0.222431
3.92169
2.50998
2.30082
2.44112
1.75543
0.133465
11.3395
2.5029
0.33277
2.38928
0.205155
1.23404
0.144572
1.41183
3.24398
10.512
3.96622
6.01636
1.61741
11.1208
0.368213
3.83657
16.0913
3.74607
0.419524
2.63095
0.19867
2.77558
2.19209
8.42504
1.52452
0.207073
0.734688
12.1008
1.52538
3.9967
3.72481
0.769162
0.274179
4.08522
1.60112
3.95104
2.59646
1.49098
0.114752
4.31738
10.5167
8.47864
3.48128
4.04403
3.0878
0.172283
1.50487
4.89842
2.3604
4.06076
0.292449
1.37893
0.739677
1.5103
0.187929
0.266302
0.205509
0.945559
0.936623
1.62915
0.157456
5.83123
0.126423
4.10826
1.80074
0.482706
2.66305
5.8747
1.07403
14.1524
56.3105
3.38308
0.229168
22.4536
0.266329
8.91182
1.7722
1.02085
19.3018
14.1375
2.35844
0.180282
9.80184
1.11687
3.07818
0.138626
0.191094
3.79909
3.79593
6.90119
3.08255
2.0182
1.58381
0.16126
2.44212
11.3562
15.5651
1.09433
1.42572
4.69338
2.11655
2.11808
0.168839
0.525091
10.6911
0.113557
2.312
11.1759
1.41228
55.4192
0.237096
0.234236
3.30329
12.2828
1.05845
7.34958
1.23928
6.15445
0.172707
2.85048
10.6355
2.74093
1.35324
0.478385
3.11351
3.98659
1.41878
0.117463
0.150725
1.63805
3.03757
10.9091
2.06207
15.3512
1.91652
5.20789
0.885234
11.8948
1.18914
13.32
1.37906
0.22169
0.713264
0.281648
1.71351
18.1588
0.732478
2.29359
0.211942
13.2201
3.08385
3.00906
1.37022
1.45593
2.75627
1.32204
2.53118
0.155158
3.15608
1.35088
4.13204
0.679536
1.77492
2.29207
0.204896
0.605463
0.220959
0.200375
0.949634
1.02694
1.977
2.45854
2.36677
3.40016
0.115085
10.9617
3.51264
9.82102
7.72326
0.233636
1.79445
5.84659
2.92334
3.05903
1.20491
1.16247
13.1871
0.898216
0.783221
0.158786
5.68327
2.06527
0.279528
1.37114
1.88304
2.29133
0.303746
1.68814
3.07303
16.2064
3.40084
0.179664
0.11574
1.04739
2.81305
5.97495
3.71887
1.17208
11.385
8.98648
2.44462
15.1469
9.45828
4.43768
0.235208
0.366839
0.158109
3.02644
1.02765
0.430346
2.84308
1.54318
5.83615
2.48374
0.241817
12.0048
2.06657
2.47494
7.33645
1.64471
2.35583
1.65905
3.52671
0.155968
0.377694
26.0311
8.93957
47.8939
2.50494
1.03713
2.81633
9.35034
6.54455
0.260982
0.924684
0.0995305
1.83998
0.132548
0.180015
0.205999
0.802001
16.6902
0.199411
0.115338
0.451356
0.119844
4.46602
0.204173
3.49051
17.9122
15.288
7.39728
0.192726
13.8622
1.31166
3.12363
2.27306
0.200307
3.77716
0.200662
5.53875
0.184999
10.2539
0.146791
1.46945
1.87068
1.21367
0.273453
2.99124
1.45847
0.148125
2.39764
0.117875
1.22324
3.79359
21.6945
1.94929
5.87024
14.9583
6.3938
5.37629
11.4474
3.61064
14.2529
1.62835
2.9636
0.254739
15.167
1.71056
0.241462
17.5905
12.2882
3.70873
10.5509
1.20008
12.751
3.33581
6.24234
1.07361
0.173646
3.08563
12.11
0.215561
2.25654
5.69905
18.7166
4.30408
3.14866
0.116445
3.02514
0.210329
0.89333
0.259294
1.97067
1.13154
13.2666
4.32147
2.79367
15.225
10.2017
2.84438
3.9848
2.55828
4.46514
10.5304
0.263385
0.17038
3.49622
8.66647
1.85867
15.0377
0.191801
1.17262
3.09543
1.5129
0.251012
2.87504
12.0063
15.5442
3.20736
13.0017
0.215103
1.42855
3.37461
6.78141
3.46222
1.22255
2.74533
1.58798
1.23079
0.189977
0.240103
0.230659
3.82553
0.198556
3.95517
8.96846
2.96172
0.157525
0.154325
1.01206
3.90004
4.08054
5.3986
2.62544
0.134233
0.113696
10.1062
3.72508
2.34467
6.21905
2.87423
1.11577
0.240311
0.12096
0.519353
0.230985
6.87366
2.90946
15.0257
3.004
0.154264
0.473142
1.22432
1.9982
14.662
0.994023
20.6807
0.904109
2.56627
0.28127
0.154855
13.1003
1.80036
3.37278
0.187115
2.06025
0.30684
0.43169
0.124933
6.58822
0.45651
2.89777
8.42783
6.68041
1.21249
41.1783
4.13781
0.298231
10.3159
1.18603
0.150356
1.78439
0.186542
0.197096
19.9252
2.77396
7.95999
1.34255
14.327
3.38253
0.15838
1.94201
5.81322
0.75923
4.52043
1.65261
4.63831
1.44289
6.04103
1.19949
4.15411
12.4655
10.2558
0.268857
1.62258
3.5802
2.80333
0.677621
2.98556
0.180079
0.190681
2.05411
0.179483
16.8227
2.25093
6.47659
5.83639
1.61564
2.51808
0.133522
7.48853
4.2164
0.139642
4.98308
48.8286
10.0912
8.46575
6.17131
2.92148
1.07392
3.08771
0.254029
0.886796
14.8325
6.25243
0.253443
0.848955
0.169078
0.185028
3.70631
0.117032
5.71456
0.505143
0.249995
3.00128
23.614
0.0551791
14.5857
1.03514
5.62035
3.86704
6.25333
0.330613
1.02177
2.35745
0.0972482
12.7564
5.62916
16.4052
4.19094
1.99772
0.194697
42.6061
14.5102
5.6119
2.09069
7.20861
1.30864
0.144825
0.101714
4.00357
13.0313
0.184692
4.41561
4.30846
3.03985
1.87193
14.0764
3.09991
1.19025
12.1389
3.15792
2.94452
0.0030461
0.624916
8.80352
0.323551
14.5692
1.04686
16.7873
1.51205
2.60484
0.194962
0.187823
0.108914
3.62089
0.0738122
13.7132
7.88383
3.56651
0.13222
1.81034
0.118135
0.166517
16.0494
6.48254
0.208623
2.53622
0.150686
1.10387
3.48081
0.115436
1.45415
3.14636
3.66871
3.74997
2.9286
7.16281
6.96478
6.37655
5.20497
1.45452
1.82052
0.176863
2.6535
0.247504
4.28072
8.35587
1.64695
9.12246
13.0844
0.107188
5.97097
2.06737
0.368155
5.34709
3.99548
0.176048
3.58395
0.530512
5.88979
0.132289
42.6153
0.824746
1.13067
0.224819
3.09578
2.93941
4.3705
9.74973
0.585917
0.235723
13.3176
2.08251
1.14119
3.17069
0.844501
4.89392
1.04098
5.05719
1.88641
0.321768
1.3453
11.5602
0.176947
4.01669
1.59145
0.282265
5.79497
0.195062
2.80743
3.95928
4.0652
3.39898
1.76293
13.2057
1.5742
6.9756
5.06954
0.960164
2.56228
0.189309
7.93069
0.981537
2.96662
1.19113
0.980124
1.83971
3.77467
1.87162
5.90949
2.99378
19.0541
0.197076
4.85858
0.495995
4.02505
5.89927
0.219733
2.59345
2.30315
4.29459
3.02388
3.01919
0.196185
5.08492
7.44991
1.15863
1.37996
0.504369
4.21509
1.45079
15.4502
1.0489
1.87624
2.80083
1.03129
26.9897
1.27228
2.36239
0.923099
2.95743
49.9995
6.74826
2.88308
2.70499
0.196391
17.3542
0.726117
14.418
3.44879
0.122486
0.129305
2.31039
2.35939
1.69818
3.04091
3.39356
0.650012
0.0926481
1.83804
1.66996
3.14012
3.84153
2.10837
0.180699
3.04768
4.23012
1.01615
14.257
0.142963
6.65774
8.00618
3.52482
0.890804
2.76326
1.09538
0.13923
1.91114
1.47381
0.220892
5.33051
2.08694
2.14015
3.19058
6.60013
0.252238
0.233126
2.22649
0.331303
6.76912
22.9342
0.324422
0.11634
3.97195
0.639714
2.59283
2.83963
16.9074
3.17222
0.13064
1.587
4.06303
3.17235
6.13528
0.8223
8.05161
3.78578
4.60056
1.15201
25.8591
2.72912
1.18037
12.1812
1.39486
1.48794
13.4882
3.47379
1.51452
5.99579
5.30966
44.0099
3.80181
4.20676
0.974409
8.79484
6.29946
1.48854
3.85651
2.39931
2.04829
3.18716
4.31212
0.224515
1.11093
2.83898
0.178911
11.3497
0.101916
4.37094
6.17703
0.186434
5.07966
1.68413
3.17797
18.4814
5.8495
1.0309
3.05157
0.244334
0.220281
3.42984
0.14176
7.43693
3.49309
0.0672241
0.247304
2.71649
17.4882
2.90754
0.165981
1.42192
9.66124
0.199047
0.208614
1.94569
0.225674
2.897
3.58981
1.98471
0.154779
3.20128
1.95912
1.15854
0.188875
0.219434
7.13816
0.241112
2.84909
3.78906
1.06994
1.61819
3.31061
5.56074
3.07518
10.1827
11.225
3.51273
5.45673
0.298311
2.41256
10.6903
0.199524
1.75096
2.97338
3.46919
0.122196
6.04997
3.38967
0.189692
5.14415
0.145071
3.41897
2.47782
1.82579
0.283885
0.968973
5.61385
3.56854
3.47577
5.307
4.91777
0.207004
2.53269
13.9295
0.549005
0.666683
0.139997
6.72117
1.03341
7.4243
3.82249
1.72706
3.15646
15.6266
2.14245
2.64954
3.18439
2.55848
7.80921
1.14991
4.20486
1.41063
0.784577
10.2742
10.5289
16.0727
0.789624
12.9573
5.17953
0.0493413
7.27401
15.5229
3.7444
1.56739
1.12283
2.71005
1.63931
1.07248
4.73417
7.60914
0.241923
0.249237
0.129936
0.82629
0.0988294
3.32295
5.26987
2.47427
2.55538
0.218623
7.43132
0.191736
1.9356
0.186354
5.15953
2.3275
2.22621
19.2277
0.298161
4.14505
0.185908
2.94477
2.89728
2.38575
0.202839
6.1918
0.92465
2.5696
4.1238
4.88616
3.03643
1.48207
1.28206
1.14735
3.38546
0.198469
7.10984
3.97828
11.1634
3.16514
8.24045
0.152837
0.0788938
1.09557
2.76869
3.19097
0.6496
1.46747
0.134221
1.28913
0.931308
4.80669
2.6966
1.17955
3.01451
3.51207
5.68429
0.140118
0.617715
3.94107
7.84779
0.0974661
3.12922
3.68733
0.570168
3.14401
1.38496
1.87588
15.2628
3.84484
61.46
2.28957
8.08788
0.145176
20.8508
0.484911
1.39546
15.5015
0.252743
0.6034
1.39699
2.88655
3.82032
0.183702
0.24376
5.08177
5.05414
9.98937
4.96026
0.21137
0.115571
0.228863
0.11228
0.74499
0.496034
3.03932
0.680137
6.96892
4.77438
2.703
2.01267
2.29605
0.204983
3.42776
5.63447
0.187832
0.126478
0.657326
5.72344
0.804647
0.27124
0.154047
0.783662
3.35097
1.61979
10.0556
2.16005
5.22504
3.70406
0.0529628
4.66213
1.87978
1.69696
1.61318
3.34069
12.936
3.28501
0.25573
0.802603
6.59461
2.81373
7.72756
1.99852
0.162165
1.70169
0.17549
3.18987
2.35498
5.29058
0.125759
0.879714
1.82683
3.14058
0.237982
1.352
3.33958
16.0417
0.121377
2.54008
0.847435
0.757511
2.6651
12.8567
0.205942
2.64836
2.15341
0.200508
2.65442
7.97955
6.93634
3.0794
5.23051
11.5326
0.19384
12.8876
12.2597
1.83061
0.191561
7.06951
7.74516
3.00163
1.35934
15.1343
4.00303
0.983286
2.49142
6.15869
0.231416
3.22601
3.07805
2.24938
0.253052
3.11543
0.142579
6.73991
24.8357
1.33257
2.3834
3.62854
0.199898
15.5893
1.79373
0.933115
0.859519
0.203302
0.201925
10.4134
3.19331
1.27674
2.08547
2.79173
4.14947
0.946313
5.99284
1.16285
5.79968
0.203078
14.1432
0.276529
44.7915
1.77028
0.277859
0.876548
5.82575
2.67498
3.24442
1.35946
2.78909
2.7666
3.06583
4.04365
3.49829
1.82878
2.53904
0.222746
6.53104
2.83814
2.62457
0.129466
0.239682
0.20805
0.215954
0.104374
1.95097
0.0673487
4.30684
1.86253
2.29167
0.214194
1.10669
2.58928
0.557751
10.3699
11.3213
4.42841
6.12629
2.04276
3.2839
0.969017
0.143979
1.49119
0.252508
0.193173
0.878096
1.85294
7.03226
9.03865
0.98318
3.69303
4.75746
5.58683
3.9517
2.05869
3.24583
0.49213
0.167048
4.58609
7.32355
0.180706
0.226903
0.200968
1.6753
18.0223
0.148664
3.90784
1.19399
1.33258
5.41976
3.30674
2.87412
0.252033
0.206349
1.34291
42.3207
2.72362
0.233488
2.04264
0.278595
0.232891
0.161635
0.234994
0.129386
4.61605
0.273675
10.3143
15.4262
0.340785
0.164765
0.14343
0.694421
22.9755
0.248911
36.9407
0.236259
2.80874
0.238243
1.28045
1.89542
0.154025
8.92004
0.14501
3.27222
5.24984
14.9156
4.23508
1.44178
1.87806
1.0379
2.53514
3.35969
0.492331
1.4483
5.43772
1.89147
48.7495
2.46582
0.599573
3.11393
3.55313
0.292241
9.7986
3.66231
4.89419
4.01704
6.83829
0.610645
0.259679
0.106482
0.267353
7.09724
39.9208
3.11816
1.51863
3.04809
2.36483
1.41499