/*--------------------------------*- C++ -*----------------------------------*\
  =========                 |
  \\      /  F ield         | OpenFOAM: The Open Source CFD Toolbox
   \\    /   O peration     | Website:  https://openfoam.org
    \\  /    A nd           | Version:  10
     \\/     M anipulation  |
\*---------------------------------------------------------------------------*/
FoamFile
{
    format      ascii;
    class       volScalarField;
    location    "600";
    object      p;
}
// * * * * * * * * * * * * * * * * * * * * * * * * * * * * * * * * * * * * * //

dimensions      [0 2 -2 0 0 0 0];

internalField   nonuniform List<scalar> 
10435
(
0.0562799
0.780325
-10.4922
-2.5564
-4.43691
-5.85889
-11.4014
-16.7136
-20.7765
-7.53883
-0.264698
-8.46754
-10.7387
-1.3132
-1.23468
-14.9203
-1.43785
-6.90398
-23.8795
0.13569
-15.0035
-2.33891
-13.1858
-13.7454
-9.34123
-2.1327
-3.17159
-9.80044
-2.55395
-9.07879
-9.35832
-0.591009
-18.3186
-1.68878
-17.5164
0.563008
-17.0016
-4.59054
-1.8653
-19.884
-5.62902
-12.5895
-0.91982
-0.785591
-14.739
-18.7016
-5.97908
-1.82361
-23.8835
-4.54825
-16.4574
-10.1954
-2.86867
-2.742
-0.799825
-2.48838
-18.5676
-2.68307
-1.69805
-14.8325
-2.3554
0.866202
-2.23074
-5.30182
-14.2791
-10.9167
-1.76265
-2.19229
-15.0168
-11.2129
-1.79647
-3.01477
-0.311748
-12.8863
-1.22226
-0.490539
-4.97621
-10.4968
-17.923
-1.17319
-6.56105
-0.564307
-2.42163
-2.10859
-7.87892
0.0142901
0.120065
-0.4404
-0.37954
0.273181
-1.18166
-1.96012
-0.646545
-0.46617
0.359838
0.274455
-3.62794
-0.793243
-1.1706
-4.32155
-1.61523
-3.44476
-0.135808
0.0841913
-3.74274
-1.57873
-0.905298
-5.29736
-8.07378
-0.966778
-3.20732
-2.50042
-0.645602
-0.963982
-0.261905
-1.37923
-5.44945
0.260801
-0.231783
-6.11957
-4.96067
-0.276617
0.448663
-0.128117
-0.896851
-2.19062
-5.01535
-0.299276
-4.7643
-2.97908
-0.0747429
-0.269288
-16.6714
-1.228
-2.41341
-0.339004
0.353404
-3.32959
0.277038
-0.701852
-0.196649
-16.2188
-1.49255
-7.42621
-3.03311
-0.844719
0.248323
-7.17192
-1.24466
-9.43008
-1.7345
-14.0567
0.0670638
-12.9567
-6.60383
-1.63785
-1.46191
0.516322
-7.42697
0.30615
-14.179
-1.26608
-1.22403
-6.3062
-0.936247
-7.92719
-20.5553
-5.90729
-14.5762
-11.7375
-8.84533
-1.02433
-3.92163
-0.795999
-10.0062
0.651559
0.75273
-1.72694
-2.21009
-1.80147
0.352594
-5.30623
-11.7951
-2.48846
-12.3811
-0.785011
-1.27623
-12.4955
-6.99952
-8.5746
-9.17912
-1.97279
-1.33564
0.560465
-2.10916
-13.3231
-0.939156
-0.262595
-1.62054
-16.0827
-0.163513
-0.96802
-10.1792
-2.01862
-10.0964
-3.08827
-1.0333
-4.79655
-2.52095
-4.35872
-1.04473
-13.7264
-7.39744
-8.18913
-2.03785
-1.17031
-0.88508
-1.12497
-7.0738
-1.32881
-1.81505
-2.0796
-1.52668
-0.390457
-2.19074
-17.6162
-6.60415
-0.463585
-12.463
-0.643164
-1.75601
-17.5496
-6.45136
-12.7366
-2.89565
-1.37071
-13.3623
-3.75627
-13.6523
-10.2861
-0.245238
-1.86537
-1.19413
-2.49465
-4.63763
-19.6902
0.0523111
-12.7721
-7.49471
0.693223
-7.44448
-0.746127
-7.61759
-5.68031
-10.7609
-3.24046
-9.97065
-9.70315
-1.92871
-2.12405
-9.29001
-10.2978
-3.24632
-13.4398
-0.350643
-1.21965
0.0936272
-12.2675
-1.52697
-4.58149
-9.35332
-13.3307
-10.3758
-11.1482
-8.13811
-6.53845
-1.20831
-3.7171
-14.2805
-14.5687
-7.92948
-1.53059
-9.15661
-1.22996
-0.345468
-1.29632
-5.96082
-6.50768
-1.89701
-2.32205
0.0170111
-0.0528169
-2.63896
-12.0672
-6.30499
-8.75225
-0.982024
-0.0732007
-2.36299
-11.3806
-1.84243
-9.96064
-8.93765
-10.8066
-1.7497
-1.10156
-0.991957
-11.5036
-10.6005
-1.8279
-1.55964
-2.7623
0.639403
-7.31043
-24.1558
-9.90303
-1.04884
-9.53887
-1.91152
-6.55946
-4.41299
-3.87766
-0.0736903
-1.50813
-15.9057
-9.3655
-9.64702
-8.87095
-1.62098
-2.88091
-18.1625
-2.21646
-1.79758
-10.2568
-11.8508
-2.51955
-1.99359
-3.46428
-1.12957
-3.16632
-10.666
-1.66664
-1.98219
-7.69222
-12.5542
-2.9674
-2.31334
-0.187384
-1.21655
-19.1995
-1.45448
-10.6015
-7.0303
-9.15645
-17.604
-22.5025
-10.3371
-12.4933
-2.57393
-1.71256
-4.03989
-1.75638
-2.21188
-2.13903
-3.98956
-10.8355
-2.83554
-9.98738
-1.64059
-21.5035
-2.09547
-11.3457
-10.7414
-24.536
-1.02897
-8.80925
-4.19111
-3.95423
-1.76258
-2.06639
-10.685
-4.92125
-16.7408
-1.99163
-13.8329
-19.2767
-9.61985
-10.3351
-21.2872
-9.52233
-17.7868
-0.205247
-1.4763
-2.22443
-0.920459
-9.40972
-1.99879
-10.7513
-10.9839
-2.57201
-15.0284
-1.2914
-2.37099
-11.5643
-5.12573
-15.1675
-9.45139
-1.01128
-1.91578
-7.81312
-28.9625
-8.6488
-1.69538
-2.98066
-2.19157
-1.63084
-2.00273
-10.374
-5.98428
-3.50131
-2.60688
-0.926156
-13.0616
-0.866335
-0.784091
-26.7343
-1.29622
205.284
56.8482
93.4183
63.9763
61.9517
47.5421
40.9821
33.4025
21.335
181.5
54.3553
79.2269
56.2713
54.2669
43.2901
37.9847
32.168
26.3789
151.087
47.0152
65.4515
48.6135
46.863
39.2591
34.7837
29.7986
24.5685
121.671
34.9472
50.6688
39.8839
38.8053
33.6914
30.3763
26.6281
22.4483
93.2397
22.3475
36.225
30.6125
30.3594
27.374
25.2782
22.8976
19.6847
65.1494
12.8152
23.2464
21.7479
22.0831
20.7297
19.6163
18.2083
16.3256
38.4062
9.07304
12.7305
14.0335
14.5613
14.3681
14.0134
13.4191
12.5714
15.0295
7.97297
4.55052
7.68693
8.17911
8.75056
8.92547
8.95823
7.66923
-3.93463
4.89343
-2.02259
2.62292
3.14719
4.20711
4.72847
5.05503
5.05954
-17.7612
0.408919
-6.70238
-1.03117
-0.407679
0.917893
1.65868
2.23288
2.52555
-27.5309
-3.6387
-9.23723
-3.2067
-2.52736
-1.1619
-0.358828
0.282842
0.991591
-31.9135
-4.27305
-9.31647
-3.94599
-3.40819
-2.22541
-1.52082
-1.00356
0.280297
-28.9541
-1.68138
-7.18922
-3.57287
-3.39028
-2.53375
-1.98844
-1.47319
-0.878415
-23.9043
1.02174
-4.70211
-2.82936
-2.96849
-2.43416
-2.0336
-1.54839
-1.26976
-19.7569
2.30173
-2.82358
-2.19673
-2.50111
-2.20663
-1.91507
-1.52302
-1.16844
-15.3487
2.36202
-1.69326
-1.83751
-2.15384
-1.99365
-1.76249
-1.44607
-1.04074
-11.9815
1.1738
-1.35057
-1.77823
-1.97073
-1.84483
-1.62785
-1.36296
-0.803105
-10.386
-1.06768
-1.75701
-1.95139
-1.91887
-1.75023
-1.51444
-1.24865
-0.778185
-9.05823
-2.95999
-2.21414
-2.12001
-1.89649
-1.67914
-1.43656
-1.17936
-0.86364
-7.44758
-3.6745
-2.40452
-2.15432
-1.83267
-1.58355
-1.33506
-1.07397
-0.756902
-6.32416
-3.61916
-2.40555
-2.07231
-1.73212
-1.47923
-1.24661
-0.998019
-0.787172
-5.88837
-3.13766
-2.31896
-1.92805
-1.61822
-1.37744
-1.16456
-0.920788
-0.925422
-6.10909
-2.28269
-2.16254
-1.73797
-1.48457
-1.27263
-1.08735
-0.874571
-0.942287
-6.53111
-1.31713
-2.17676
-1.75511
-1.53072
-1.31699
-1.09769
-0.853808
-0.96497
-6.1074
0.0306094
-1.31117
-1.018
-0.931734
-0.940164
-0.847803
-0.661543
-1.77466
7.74345
7.34522
7.1396
7.29813
7.60393
8.05672
8.66582
9.44825
10.4099
11.5445
12.8619
14.4469
16.3448
18.4736
20.7256
23.0238
25.306
27.4887
29.4936
31.2617
32.7815
34.2204
35.6709
36.3701
36.1627
36.2596
37.36
39.002
40.3876
41.7893
43.6469
45.3557
46.4822
47.2892
48.0358
48.7259
49.3958
50.1764
51.1574
52.5617
54.5812
57.2341
60.5247
64.6574
69.8813
76.3516
84.3036
93.5429
103.755
114.949
126.912
139.208
151.728
164.177
175.925
186.636
195.56
202.762
209.886
0.962228
0.211348
-0.422945
-0.985336
-1.54482
-2.10921
-2.68587
-3.28497
-3.9176
-4.56712
-5.14292
-5.56765
-5.85713
-6.08757
-6.33292
-6.53151
-6.56099
-6.39497
-6.02732
-5.44473
-4.6263
-3.54214
-2.17961
-0.543492
0.931654
1.76743
1.9506
1.27903
0.21462
-0.657093
-1.29308
-1.74275
-2.09234
-2.37612
-2.5815
-2.70963
-2.73825
-2.63048
-2.34533
-1.83966
-1.05347
-0.0469419
0.954137
1.80749
2.53263
3.17883
3.77245
4.48082
5.61202
7.30327
9.60969
12.2088
14.5634
16.8603
19.4103
22.85
27.7804
33.7718
41.5046
3.2043
3.06461
2.90953
2.85841
2.87799
2.96456
3.11551
3.32801
3.59937
3.92881
4.31746
4.75985
5.24942
5.77931
6.3565
7.00183
7.71846
8.49889
9.33607
10.2212
11.1453
12.0949
13.0423
13.9247
14.6336
15.1978
15.6449
15.9463
16.0698
16.1676
16.2874
16.4333
16.5904
16.7785
17.0222
17.3442
17.7718
18.3372
19.0756
20.0219
21.2175
22.6901
24.474
26.6158
29.1915
32.2697
35.8909
40.2866
45.6348
51.7598
58.5076
65.7701
73.0545
79.6859
85.7717
91.4112
96.3616
100.954
103.672
0.704449
0.344908
0.0306174
-0.210766
-0.404597
-0.552728
-0.657973
-0.722554
-0.748139
-0.734211
-0.677558
-0.574399
-0.425095
-0.230501
0.00664552
0.291043
0.629583
1.02629
1.48372
1.9998
2.56876
3.17736
3.80432
4.41625
4.96325
5.4044
5.71494
5.88458
5.92914
5.89012
5.7939
5.6563
5.48807
5.29991
5.10305
4.90904
4.73158
4.58539
4.49105
4.46906
4.54856
4.75848
5.14285
5.75428
6.67077
7.97155
9.74291
12.0569
14.9907
18.5406
22.6435
27.2093
32.241
37.6035
42.9993
48.0475
52.6019
57.082
61.4783
1.78443
1.65279
1.51895
1.45889
1.44941
1.48752
1.57107
1.69732
1.86295
2.06457
2.29933
2.56456
2.85759
3.17707
3.52143
3.89037
4.28356
4.69934
5.13643
5.59111
6.05792
6.52804
6.98942
7.42745
7.82382
8.16682
8.44742
8.66248
8.8142
8.91429
8.97522
9.00592
9.01895
9.02774
9.04429
9.08672
9.17134
9.31432
9.54366
9.88443
10.3698
11.0368
11.9335
13.1122
14.6373
16.567
18.9621
21.8614
25.2802
29.1851
33.5022
38.0972
42.8521
47.6548
52.2542
56.3791
59.9218
63.0768
65.4064
0.911347
0.724547
0.565735
0.461766
0.396644
0.369573
0.37967
0.42539
0.505346
0.617882
0.762775
0.938999
1.14622
1.38384
1.65107
1.94705
2.2709
2.61832
2.99
3.38151
3.78781
4.19852
4.60233
4.98883
5.33693
5.64035
5.88348
6.06545
6.18228
6.23566
6.23339
6.17188
6.06499
5.92454
5.74917
5.56317
5.37144
5.17163
5.00496
4.88704
4.84766
4.92069
5.14886
5.58159
6.28104
7.29149
8.68014
10.4836
12.739
15.4534
18.605
22.1233
25.9104
29.8369
33.7665
37.5394
41.0365
44.3471
47.0807
1.24778
1.15838
1.0825
1.05288
1.0563
1.09147
1.15639
1.25031
1.37098
1.51536
1.68305
1.87218
2.08304
2.31399
2.56351
2.83183
3.12152
3.41923
3.73494
4.0605
4.39812
4.73408
5.06147
5.38455
5.6652
5.92402
6.12945
6.29727
6.41532
6.47922
6.5086
6.46864
6.39087
6.298
6.15289
6.02516
5.90392
5.74516
5.65932
5.62391
5.66931
5.82438
6.11805
6.59151
7.31224
8.26733
9.5524
11.159
13.133
15.4773
18.168
21.1473
24.3172
27.5707
30.777
33.7949
36.5197
39.0043
40.9563
1.10524
1.00413
0.927524
0.890005
0.875608
0.892151
0.927952
0.999278
1.09113
1.18578
1.32197
1.47342
1.65302
1.86114
2.08523
2.34353
2.62575
2.86113
3.14712
3.456
3.79969
4.12962
4.43951
4.78592
5.02474
5.28265
5.44746
5.60457
5.71058
5.76255
5.80259
5.69241
5.54824
5.42504
5.12508
4.94455
4.79674
4.30338
3.95639
3.62555
3.34139
3.12067
2.9813
2.96775
3.33678
3.67043
4.46315
5.32771
6.39331
7.88582
9.88034
12.337
14.9209
17.6775
20.5923
23.4927
26.1356
28.7258
31.0069
1.23826
1.23151
1.21836
1.24414
1.2792
1.34253
1.41157
1.48046
1.5903
1.76306
1.83617
1.99431
2.19123
2.35052
2.58929
2.7091
2.99054
3.25476
3.51476
3.73705
4.03005
4.27551
4.53395
4.85267
5.01885
5.26863
5.3701
5.5025
5.65379
5.49972
5.68036
5.4938
5.23169
5.11391
4.70915
4.51937
4.05678
3.4595
3.36962
3.01861
2.74499
2.64041
2.44508
2.48491
2.75485
2.96526
3.50827
4.02806
5.52335
7.09486
8.82479
10.7758
12.9867
15.9274
18.6268
21.061
23.4008
23.727
24.4369
-8.83253
-8.64944
-8.02736
-7.20402
-6.38868
-5.7436
-5.20802
-4.54613
-3.8114
-3.26335
-2.80459
-2.22976
-1.69563
-1.20472
-0.544332
0.177987
0.779084
1.33708
1.95291
2.63731
3.36148
4.06555
4.75928
5.79321
7.0098
-0.834822
-0.82778
-1.1397
-1.26511
-1.06996
-0.734925
-0.372254
0.0834034
0.517526
0.63204
0.402693
0.0219191
-0.366511
-0.607448
-0.506007
-0.091991
0.393056
0.80381
1.0578
1.09813
1.03078
1.07151
1.32833
1.88762
2.19806
-2.35927
-2.34992
-2.21493
-2.00698
-1.68265
-1.32079
-0.965846
-0.620844
-0.336916
-0.228822
-0.275719
-0.389559
-0.505249
-0.551662
-0.441518
-0.194485
0.107302
0.416479
0.7072
0.964271
1.21161
1.49635
1.8453
2.28364
2.92637
-1.73684
-1.73756
-1.58932
-1.43305
-1.22387
-0.992716
-0.759705
-0.539465
-0.357034
-0.248877
-0.209373
-0.203926
-0.197043
-0.154313
-0.046076
0.119731
0.309699
0.495268
0.656909
0.785944
0.890439
0.984194
1.0667
1.10358
1.19532
-1.66434
-1.64486
-1.48996
-1.33716
-1.15055
-0.956319
-0.763483
-0.586547
-0.437538
-0.329611
-0.259266
-0.207209
-0.152275
-0.0775636
0.0310251
0.169247
0.32169
0.47354
0.61533
0.743741
0.865776
0.992494
1.13787
1.29863
1.61458
-1.54398
-1.4868
-1.32797
-1.19188
-1.02976
-0.869814
-0.708978
-0.562619
-0.434483
-0.327759
-0.243394
-0.168088
-0.0876505
0.00312513
0.11207
0.23484
0.361954
0.483899
0.593739
0.688144
0.770548
0.842838
0.909018
0.951044
1.07519
-1.361
-1.39818
-1.2222
-1.10483
-0.956646
-0.820461
-0.677043
-0.549044
-0.433056
-0.326094
-0.237538
-0.153307
-0.0593828
0.0387583
0.149613
0.26778
0.386523
0.500091
0.604009
0.694913
0.779264
0.858526
0.942532
1.0224
1.19905
-1.16622
-1.3188
-1.12786
-1.0349
-0.890908
-0.769975
-0.630504
-0.516359
-0.415022
-0.308589
-0.22451
-0.140648
-0.0323103
0.0726995
0.186395
0.304707
0.420926
0.531006
0.631467
0.718606
0.804066
0.88151
0.964268
1.04044
1.16898
-1.24369
-1.31876
-1.03537
-0.966243
-0.840306
-0.766245
-0.644841
-0.548257
-0.413452
-0.304664
-0.20793
-0.134765
-0.0433591
0.0514897
0.17837
0.295155
0.412524
0.527049
0.656901
0.754139
0.838721
0.935074
1.00923
1.0388
1.11446
-9.65734
-9.4609
8.04278
7.05426
0.548891
0.323335
-2.83953
1.25109
7.93222
7.83621
-4.79058
1.07176
-53.1868
-1.11772
-6.96051
1.80107
6.42596
6.78839
0.262485
-22.8927
-30.8643
2.83581
1.44365
3.2082
1.01508
1.93168
0.963718
-0.87778
-6.30611
4.36885
14.8057
2.30558
-1.54268
-24.0276
3.95267
0.98732
0.302573
-5.88914
-2.46029
4.18729
-7.01038
2.58695
2.36508
-0.976128
0.582722
2.36251
-6.19747
-5.04941
-6.4696
-5.11655
-6.03586
-7.20215
-39.7558
6.64902
-2.76632
7.93095
-1.12307
-38.751
-0.585151
-4.38851
1.13296
8.13763
0.527489
2.16398
1.18583
-1.03176
0.889114
2.98049
-42.7277
-5.7569
7.81532
3.08161
0.523204
-22.4134
0.195247
-34.4971
-21.9356
-6.587
-0.75024
6.49281
-23.1375
1.04182
1.6332
-3.50818
0.821281
1.15963
0.616823
-6.67858
-2.43018
0.701336
1.96643
-1.56434
1.76376
1.17508
0.413471
-4.41544
1.91315
-5.53379
2.55177
-4.48784
-0.419514
-7.16587
-0.486022
2.26119
-0.422042
-0.23194
1.60942
-25.6097
1.79205
5.08295
2.37391
1.50221
3.91349
1.92551
-41.5989
-6.45807
-7.30098
5.10834
-44.7606
1.7266
2.04264
1.3947
3.46248
1.18067
-1.15463
2.35721
-7.36837
-23.1467
-1.1481
-5.32466
1.65904
-22.4718
-5.87215
-7.01602
-0.974965
0.564987
0.741125
-0.301986
1.29441
-22.6141
0.498879
-3.23351
-4.83333
2.07753
-6.39023
1.60341
6.97049
-24.379
1.22655
3.82585
-2.25202
-1.6061
6.86367
-12.9942
0.843618
-4.70793
0.0915223
4.19438
-20.1228
3.58496
2.3904
7.86382
1.62523
-5.47316
2.0377
-3.37853
-1.17423
0.629332
2.67759
-0.0103288
-1.07529
2.33827
2.84991
-3.73587
-0.620644
-0.680386
-20.302
-5.82772
-5.62704
2.93147
-13.5342
2.53278
-38.4165
-11.7699
-0.601171
2.8803
-3.88213
1.73804
-4.76991
1.37762
-4.84097
-4.91768
3.97949
-1.88078
-9.03565
-3.96587
0.234065
2.75403
-6.44747
-9.91628
-43.9441
2.80101
1.22125
1.24889
-2.1253
3.92577
3.18537
-0.462311
-6.16817
4.13012
-0.446861
1.27101
-14.1341
-2.23162
-1.98455
-5.0566
0.0953678
3.08146
5.43289
-0.147012
-0.685133
2.61419
0.981782
8.1261
4.8186
-7.40626
1.79633
6.38812
1.78781
0.482871
-4.35754
1.07469
2.43656
1.80138
-3.40608
5.67513
-20.3674
-0.855741
-13.8631
-12.1251
14.7343
1.09551
2.34455
-0.84591
0.462402
0.883616
2.28379
-0.318556
1.72378
2.55115
1.81296
-0.693467
4.3896
-6.33344
2.13506
0.228871
3.89175
-21.7092
-20.1664
7.6238
2.08472
-1.22011
1.35603
0.687537
-22.3956
1.3169
3.62472
7.2093
-3.73238
0.678122
-26.3862
4.44532
2.46771
3.07715
-0.014087
7.22638
2.03232
7.86039
-1.17705
-6.51763
-0.919847
-2.08421
3.43489
1.62439
-5.47669
1.36312
-0.381578
5.20791
-4.10924
-4.79287
-5.5371
1.83899
2.42166
-5.18849
-18.9254
-4.94914
1.46789
0.0955929
3.54698
-5.2402
-5.94413
2.31094
4.01045
1.24836
3.52526
2.63766
-31.7024
2.65696
-22.7335
1.17681
2.46146
-0.282742
-4.49941
-1.22664
2.45896
0.142595
-6.32148
4.07238
1.0873
-12.8353
-20.7821
1.82077
4.00872
14.6955
0.854309
1.34511
-7.31059
-29.7071
1.53471
-37.0282
1.84675
-9.5915
-0.703442
6.91998
-7.1527
1.11397
1.28387
1.64557
1.64415
2.5699
1.28245
0.9467
-4.959
-3.30832
-22.3785
0.0687306
-0.0426838
2.54444
0.574736
-5.0253
2.87313
2.05563
2.23854
-20.8681
-5.03071
4.72016
-8.37039
-1.2425
2.26324
-3.65243
-6.19424
1.83472
2.93666
-7.49722
2.63887
0.429479
2.29595
-6.72797
1.2615
-4.39945
1.3862
-14.0303
-5.92627
6.69015
-44.7784
1.57794
1.55393
1.91698
3.61305
6.47843
1.88872
1.67649
-0.311544
-1.24746
-0.969814
-15.0694
2.08933
-22.8641
-4.18911
-4.63349
-2.51979
3.85938
-0.185586
4.67197
-11.8991
7.72025
2.3787
0.153489
4.04612
-6.29848
1.11667
2.52069
0.782417
-4.70289
0.820781
2.9028
-2.67676
-0.102405
-1.03149
6.02217
6.2041
1.17451
-5.10406
1.18164
1.93188
4.15142
-6.43201
-4.74186
3.93875
0.215854
1.95164
3.38495
0.894634
-0.583137
3.05609
-6.30943
1.67418
3.91423
3.99875
2.33641
1.07439
0.180337
-0.91607
-0.658239
-3.42354
2.42968
1.74241
2.39892
2.51746
3.92524
3.43582
-12.858
-4.52121
-1.43443
-44.7486
8.20518
-0.826228
7.29977
-0.5603
-0.772945
6.76982
2.40534
1.53968
-5.24445
0.319955
-5.66748
-3.29065
1.3023
2.01317
-22.9774
1.62072
-1.6668
5.93153
-13.9945
-6.352
0.757173
-0.196222
8.18916
3.25398
-2.70797
-1.2064
0.599662
2.412
4.03959
1.25599
-33.7889
-0.795495
0.252238
-24.5385
-24.0641
-2.15675
-2.76378
2.75944
0.96813
-4.2449
0.65719
0.970698
3.80532
1.39181
2.27433
-14.228
1.87182
1.46817
4.89271
1.19211
-0.329509
-10.7031
1.15262
2.7291
-5.02095
2.35726
-4.59016
1.29875
-0.866953
-22.2874
-21.1598
1.42953
1.41523
-2.82013
2.08227
2.54473
-13.3488
0.177976
-0.600281
2.88426
-6.72873
3.27269
-6.30934
1.51851
-2.58878
-1.10405
-5.11582
-22.8537
7.88356
-23.3198
3.93109
-6.35838
-5.17995
3.48576
3.35094
-0.548316
1.53441
7.4553
7.5396
1.66226
-1.5547
1.96369
-5.63682
-6.38729
1.80317
-14.8189
5.30114
2.13986
0.768159
2.2481
8.1647
1.59393
-0.721596
1.15593
7.75626
-2.72099
-3.62269
-1.18713
-6.21559
-6.24639
-6.23367
0.896305
0.158665
-42.718
-6.16339
-0.782595
-10.1388
1.8238
-38.5863
4.09762
7.06807
-2.43654
-0.683699
2.40718
1.61655
-4.66342
4.69767
-5.62125
-0.240111
0.308114
4.50739
-5.16189
-6.09971
-0.700336
1.83075
-22.1923
-46.6162
2.56391
-0.564691
1.46487
0.766516
2.68023
0.324211
-4.00948
3.9384
0.24163
0.755327
2.36465
-16.9302
1.13772
-0.718441
-30.8219
-6.25665
0.603631
2.52573
-5.02376
-0.882905
2.67526
4.15724
-23.0404
2.20182
1.29249
5.6877
5.17968
2.40043
2.49208
-0.670912
0.97394
2.65167
-0.424302
-33.0326
3.55803
0.026517
8.20272
2.64699
0.784986
1.60364
-1.72765
-1.74248
0.408591
-4.48054
-3.83901
-0.860323
1.55102
0.00621135
0.441256
0.476477
2.80978
1.70009
1.75223
-27.3532
1.41054
1.15661
-1.5702
-18.0814
-2.5881
-1.04732
-1.05226
2.58865
0.498105
2.92854
2.01188
-1.24963
-4.6024
-15.5937
-20.7681
3.0042
5.93278
2.19655
4.06731
6.11576
-5.17434
22.1255
-27.023
2.58344
-6.11711
6.16402
-5.59151
2.12064
0.587489
1.40171
-0.231386
7.25229
-0.946745
-43.7194
0.340599
1.46971
0.919265
-5.71075
2.71327
1.78949
-6.94014
1.00151
1.62119
6.09879
2.51558
-32.6464
3.99499
1.65911
3.56041
-1.03899
2.00481
-6.32257
0.668844
2.16149
-2.80331
3.89238
-2.90713
1.54631
0.751238
2.52754
1.95006
-2.35384
1.6325
2.50001
-0.548253
3.17814
2.10537
3.08168
3.80501
-4.25359
-13.8111
-2.0412
-5.66261
-4.35444
1.37967
3.72279
3.36366
0.175633
0.731649
2.90126
1.63086
-1.69918
1.6384
1.02468
-41.0779
-4.59474
8.49846
-0.487238
2.45523
-0.193158
1.03682
-1.90184
-20.9675
-0.36151
0.0292515
-5.77271
-2.83525
-5.93516
-26.8965
-5.23556
-4.67921
7.44754
3.08484
1.59281
2.70913
3.72605
1.51307
-28.4973
-5.04932
-3.20241
-20.9174
-1.23632
3.49983
1.14623
1.22471
-3.61194
8.13627
1.15663
-3.00408
-14.2471
-36.0047
-6.38608
2.90533
2.77765
-0.136809
2.76345
-5.68505
-1.71059
1.67471
-14.8444
0.07139
-19.0447
1.83926
2.94785
-0.674684
0.221639
-0.284879
3.627
2.26109
0.943814
1.31554
1.79241
2.38277
1.41631
1.96224
4.18204
-6.04764
-3.98566
2.64809
2.353
2.22659
-22.4584
0.855423
2.60193
0.0911946
-24.7605
-2.04781
2.79498
0.603799
-5.52204
8.0876
-23.6104
1.42441
-24.204
-27.559
-17.2138
8.22694
-7.53613
-1.26145
-1.21582
0.727431
2.52814
1.08937
1.0708
-3.41012
8.03115
2.3282
0.851593
-5.32409
0.528
8.12293
6.53849
3.26289
2.41247
7.77092
-5.45719
-4.05548
2.36426
3.5087
2.78304
-25.0269
-4.13594
2.47907
0.848553
-0.309907
-21.5765
3.8508
0.565034
-4.27274
0.142993
1.42916
8.12603
0.0152984
-22.8439
1.54314
-24.5608
3.82218
1.3449
-25.8108
2.90262
-1.58325
2.36989
-0.649871
-25.2375
-6.91069
2.9328
3.70263
1.27323
-8.35853
-22.4642
8.06984
1.78716
-37.7387
-5.92313
1.7234
-0.169877
-0.444819
-4.57304
4.16447
-21.7252
1.89415
1.72827
-14.467
1.55271
7.91457
7.62598
-25.3843
-5.68998
-4.42743
-4.35526
0.748796
1.40611
-7.49136
-0.722956
-2.72383
0.957683
-0.456347
-22.8472
1.34956
-0.552287
-25.9539
8.16277
3.59649
3.29663
-2.3095
-1.28488
1.51471
-18.5295
-5.66854
-12.2483
-2.63373
1.23488
-5.24073
2.73134
-20.2118
-26.5199
-3.9931
-1.73331
2.84429
-2.49234
-5.81117
3.37441
3.78431
-1.67087
6.76774
1.98239
-1.65845
-3.90192
2.16527
-0.232982
-0.833931
-4.98306
-4.2415
-6.0945
-6.60133
4.26205
-0.91607
-2.42531
0.65215
-5.01399
-33.7169
2.88707
1.22739
1.31443
2.98623
-24.5192
-2.80445
1.47428
-5.37727
-0.890214
-20.5569
-2.16115
0.942206
1.28716
7.43772
-6.23788
-0.977694
-23.9431
2.04509
2.16643
-4.80841
5.52983
-4.56006
-9.05433
5.22315
1.50054
3.49437
-4.29359
1.48832
2.83173
1.08035
4.65431
0.5937
-0.503774
-20.9096
-2.98599
-0.267877
1.10161
3.28935
2.64514
-0.343862
2.47998
-30.3875
2.76788
1.12167
-5.40645
-22.6087
7.31114
1.73391
1.81586
-2.3386
3.31915
-6.56759
0.340584
-0.407277
4.17913
1.54854
1.09748
-1.73481
0.508463
-6.30662
5.88176
3.87577
2.71139
-3.56838
-3.43396
-7.20831
1.06445
-23.0029
2.09856
2.72187
1.74392
-5.654
-13.5788
3.04098
5.70201
3.84528
-5.20551
1.4095
-6.19707
0.634154
0.902983
3.00257
-1.66705
-5.05371
1.71545
-1.22853
-22.6723
3.27256
-3.16957
1.20244
2.69615
1.58476
-5.58718
2.0992
1.59856
-17.3089
-0.60065
-4.40973
3.01118
-3.57304
2.36979
4.49044
2.87422
-0.330506
-1.06534
4.43661
-1.21416
3.35997
0.641051
-2.46827
-5.36161
1.81874
-0.847212
0.587838
2.69947
3.86634
3.76538
-5.10449
6.65883
-26.0229
2.00909
-5.52415
4.3211
-0.623521
-23.0267
1.58941
-5.64318
1.19534
-4.62703
1.23788
1.34718
-0.483384
-6.15042
2.97639
8.12069
2.80886
1.02219
5.28862
-0.523344
3.79877
-0.126859
5.53333
15.6667
4.18743
-5.46174
3.4057
-3.33147
4.25652
2.40853
2.76556
6.87238
-30.5127
3.78156
-22.3408
-19.533
0.844658
2.72451
-6.35029
-5.39012
3.04675
3.74667
3.14566
3.72474
6.21745
-0.537387
-6.12365
1.9271
1.87608
-38.8136
1.1857
-2.11452
-6.4877
2.5896
0.675425
2.77954
-0.733444
-17.7619
8.10213
-23.2847
-3.08632
-0.52467
11.1425
-7.10208
-7.22615
2.26359
3.47688
-20.9478
3.54057
-0.407736
0.563692
-5.74562
3.98088
4.06953
3.5965
-0.980737
-4.73702
0.616086
3.67724
-4.8603
-5.4938
2.94115
2.52373
0.173255
3.56374
1.96633
-39.4251
1.13368
-19.2328
1.2061
-0.200934
0.997068
-29.0031
2.3761
-2.83281
5.0117
5.41477
-4.97134
-19.1564
7.48149
2.09374
-7.5691
-28.8115
1.54496
3.74412
1.48538
-0.427173
2.35241
1.10751
1.63397
6.84251
-0.112721
-0.691816
-6.51215
-0.405418
1.18486
2.37091
-4.71948
2.99014
-4.01362
-5.20334
-0.235221
2.5045
1.24347
2.84089
1.01383
-22.6288
8.13786
0.69791
1.36783
2.95631
-17.0397
-7.25354
1.8821
0.922098
-0.0336314
2.93142
0.777681
-0.845319
3.80738
-0.31731
-1.31771
-6.08271
1.76562
2.142
7.402
1.44687
0.544393
2.50805
7.62996
1.27202
3.65623
-41.6799
1.8858
8.07057
-5.74404
0.781916
-2.20955
-4.03097
2.44727
1.22972
0.762022
-7.67917
2.16604
-37.9149
0.28829
-5.08033
-4.7759
-23.0458
-6.10187
4.02764
1.10717
-22.5469
-21.8248
0.0429108
2.59497
3.90105
-0.213754
0.1716
2.20284
3.59892
3.30363
-2.81855
3.76264
0.254112
3.0944
-6.18024
-22.7485
8.14609
4.0292
8.89044
2.41858
1.29765
2.14229
3.60296
-0.461846
-1.77243
-23.7315
2.77999
-21.7244
-5.81731
-22.6246
-5.54054
-1.32783
-20.1133
-7.29895
-4.88594
2.91704
-5.96169
2.83824
7.82729
5.26083
-3.87991
-35.5174
-12.1983
-6.21655
-17.7747
-0.60955
2.27951
-3.11443
-6.07632
4.60532
-7.52019
2.84238
-22.6722
-0.421954
-6.02686
-2.20992
-0.431266
1.39869
-22.8476
1.44815
-1.76311
-22.5191
2.55232
-6.54689
1.91435
2.18367
-8.64359
-3.18617
0.961524
-36.8402
-8.02061
4.5182
-22.7542
4.7025
-1.86903
-0.730016
-0.0419631
-5.06199
-34.4489
3.07529
-5.43415
-5.18727
-29.5905
4.55351
0.23547
2.39537
-31.0099
-2.02262
-18.7667
2.21271
-5.32564
0.593238
-23.7471
-7.53583
-1.99737
3.23015
-23.568
2.61979
2.05078
2.66678
-20.619
-6.14905
1.15908
-5.12026
1.76935
1.35744
-4.52165
2.25356
1.25844
-38.2581
1.665
2.61248
4.61225
1.43001
2.56598
3.43204
-3.45295
-6.13736
0.755198
3.69198
2.00148
-29.7635
-6.53669
1.16603
-1.28185
-0.456587
-6.27979
-1.34074
-1.57614
-40.4301
0.947433
-27.1801
-7.51231
1.07272
0.568176
3.60067
4.67898
0.906236
2.16823
-0.0715522
-0.847689
-6.22769
2.29389
-6.91836
1.00248
-5.91005
2.45918
-13.182
-1.9517
-22.0942
-6.20807
-0.12099
-1.49024
2.36897
2.42908
2.14689
-5.95621
-5.51848
-0.00335149
2.41898
2.37158
2.80533
1.26505
1.9411
-3.69912
-5.12375
-22.7204
-7.15433
3.34941
0.874723
-27.4057
3.87703
-6.16967
2.76072
1.01653
-0.361914
0.874211
1.18555
2.44325
1.20258
-1.87667
-0.780162
-6.16556
-0.751503
0.847844
-23.8187
7.7393
1.37703
4.0326
-5.06912
-4.80386
2.04913
-23.0191
1.61998
3.14759
3.07334
0.893925
12.4255
1.56433
3.24406
0.789337
-0.636983
-22.5674
1.77364
-6.02851
-4.46
1.55625
-0.982986
3.72235
-0.456563
-18.6078
0.0329849
-6.05834
-0.84196
1.50521
-0.479381
3.90533
-1.11637
3.68865
2.24068
1.30693
0.845873
1.18806
-24.2852
2.01342
5.97182
1.44309
2.24185
3.21716
-0.489643
1.70911
7.24286
-5.96568
1.66915
-6.28305
5.28304
-21.5179
2.92626
3.53087
1.11361
0.806137
-5.85721
2.38859
2.22927
7.52259
1.48021
6.03184
4.58699
4.69703
2.89139
-4.16372
1.45393
1.77297
-6.16065
1.2554
3.10838
1.9444
1.85919
1.674
-6.26572
-5.78943
3.77856
8.04272
3.01463
2.75636
-4.71537
3.6159
-2.92205
2.47034
-34.8853
-0.258142
3.32553
0.639097
-3.46644
6.10108
-0.10905
1.79477
-5.2614
-0.501251
2.5598
-27.0888
2.14777
-2.51625
-6.68684
10.6887
-21.1993
1.51469
1.85846
3.66815
1.17702
7.0147
-5.75576
2.37
5.11634
-6.86758
2.51522
3.28598
4.13493
-1.10594
-5.05613
0.895041
0.639815
4.71252
1.96457
0.57693
1.96606
-0.522227
3.04385
5.63663
-32.7458
0.817599
-26.8969
0.0185212
-23.4833
-6.38931
-21.7657
-5.10296
4.23643
2.67815
-31.1125
2.66965
2.32776
-6.31639
1.75176
8.17754
-6.19227
-41.091
2.30091
-4.58904
0.423039
-6.14932
0.109859
3.81707
7.51779
-0.755401
-23.6622
2.37505
3.63956
-0.961537
0.996
-8.89104
-0.483428
0.877769
-5.27355
-0.808482
-6.17523
-0.552672
-5.59842
2.33652
4.51128
1.32242
0.729812
-32.3576
-4.51927
-24.1214
0.437337
-4.33726
-19.9325
4.55895
-22.6144
-2.16484
2.93321
-25.3346
-5.60629
3.77453
-0.463811
0.271647
-6.98155
1.09577
3.18963
-20.813
-23.9953
-0.958548
-6.54517
-16.9826
0.841495
-0.618383
-2.88988
-0.329073
-25.1982
-0.402504
1.81578
1.22932
4.86342
0.725797
-1.71627
-6.25566
0.863709
-2.76907
6.98659
1.44412
-5.68601
2.55452
-25.495
2.87009
1.37724
1.54863
5.37934
1.67762
1.17122
3.94163
-0.0752399
3.98856
-5.57915
-23.7629
1.27924
-25.3563
0.843245
1.21495
2.26706
2.27111
1.80772
-8.02861
3.20895
-3.52347
-6.02867
-5.36665
-21.9581
4.40051
2.58835
-3.472
2.4401
1.0649
2.22275
1.14406
1.14605
-4.74833
3.65883
3.89498
0.967098
-0.423932
-0.798304
-4.79089
-2.79745
-1.95383
0.439412
1.46117
1.27846
6.80159
0.498124
0.906558
1.65696
-0.490449
1.46051
10.1471
2.87674
3.14619
-2.67434
-6.29197
-22.356
-0.45655
4.38593
-2.14829
-4.86778
-6.04398
0.393385
1.46663
-1.19273
2.78834
0.995765
-0.492411
-5.06075
-2.64623
1.11851
2.03439
2.1828
-0.432489
-6.12057
0.34879
2.48499
1.2543
0.476695
-6.063
2.81354
-12.7299
4.14659
-0.20024
-0.166884
2.70661
-5.88678
-2.2656
2.32115
-7.56218
-23.946
-1.21932
3.12959
2.05256
-18.5257
-5.42593
-6.8799
1.4574
-22.7483
2.61107
3.0573
5.09526
-5.93323
1.08189
1.52074
-2.43556
-4.94112
5.60398
0.563158
-5.74859
1.16881
4.42461
2.33874
3.69715
7.11077
3.4851
2.50806
4.03851
-5.10554
3.71352
0.804075
0.432354
-0.69347
-1.93897
0.0614721
-31.3588
-2.21242
-2.6847
3.13846
1.81461
4.16368
3.73313
2.30801
1.17663
-24.6668
4.20701
0.262169
4.45307
5.50488
1.98414
-0.11388
3.96661
-3.11055
1.00202
-23.8224
2.27865
2.52646
2.58388
2.53574
1.80102
-6.45695
2.84206
0.371979
3.92179
4.91958
-19.8085
1.3151
2.65126
2.46873
-6.23003
0.889521
-5.99781
3.46557
-22.3343
2.90977
-4.39502
3.44159
-3.36822
1.51747
-6.3819
-0.860638
-12.8372
-4.44621
-5.26981
-1.43825
-7.30392
1.50245
0.212735
1.44183
-6.20118
3.88689
-0.0705831
-23.8127
-5.30715
-5.41182
3.55054
-6.83472
-0.111948
2.27024
1.06409
-2.38451
4.1187
-7.26105
2.23752
1.00106
4.497
3.30465
3.17634
-2.34435
2.66395
1.76659
-5.80748
-2.40919
0.396359
0.760102
-5.22296
1.95345
2.33065
-7.08733
3.43341
7.48943
-2.87352
2.46516
-0.493823
-22.9266
1.64023
3.03492
3.09005
1.02455
3.51146
1.56499
-6.07431
0.652915
-14.5719
-0.992917
-0.567989
-5.84059
-0.805684
-1.22982
3.71033
0.502089
1.99265
0.683999
-41.9168
-8.78125
2.71373
2.39625
1.6443
-17.2737
-0.1836
-2.06425
0.722954
-0.577906
0.672885
2.05554
-3.01606
-0.359758
-26.043
-21.5981
2.82017
-13.5329
1.61191
-24.0659
-2.36342
1.11173
2.36799
0.0257234
2.4194
2.01679
-16.3016
6.93496
2.83495
-5.91656
-23.4484
2.47894
0.71616
-2.49949
0.856337
-3.3017
-7.57371
1.72913
-5.03556
-23.7141
-4.22462
3.99444
0.720814
1.44126
6.11452
-4.72885
3.19971
-6.35265
3.70455
4.11622
-0.568316
-5.42028
-20.7018
1.34054
3.58612
4.61326
2.97356
2.29638
-2.67324
-23.4894
2.3546
1.29843
-5.95742
3.39031
-22.2436
0.557924
1.81552
3.44258
-6.15064
2.54613
1.63933
2.71706
2.91079
-0.843749
2.10287
-5.51417
-0.674141
1.69192
2.52286
1.51612
-23.6167
-0.338552
0.331319
-7.24065
-5.9448
-0.546605
-23.6167
3.97206
-5.52359
-25.1411
3.85156
-0.844386
2.16472
2.00643
0.322173
-34.8541
-2.08126
14.7646
0.338432
-5.18139
7.0076
-6.18129
-21.9582
-1.787
-0.981542
0.745126
-0.523838
1.14062
1.62367
3.37887
-22.1475
-3.47463
2.49095
-23.5428
-0.589104
-25.099
7.87178
-5.36771
-6.51665
-5.26768
7.12746
-0.864913
3.95417
-0.430488
-26.8131
-4.56686
3.3977
-2.41781
0.481044
-5.92626
2.44318
-2.19573
6.92192
-5.19838
-0.59121
-21.4395
-1.07092
1.82074
-6.15982
2.8879
0.000333992
2.30563
4.14234
2.04551
-2.99591
3.97449
1.93638
-22.4259
0.412148
-1.44183
-0.850571
2.53298
0.400415
-23.8731
-4.41714
-1.03572
-19.5598
1.68316
3.95334
2.29371
-6.40167
-21.7324
-6.38135
1.97272
2.4924
2.79668
-5.6429
-1.02779
-2.42645
1.7798
-4.2576
2.04588