/*--------------------------------*- C++ -*----------------------------------*\
  =========                 |
  \\      /  F ield         | OpenFOAM: The Open Source CFD Toolbox
   \\    /   O peration     | Website:  https://openfoam.org
    \\  /    A nd           | Version:  10
     \\/     M anipulation  |
\*---------------------------------------------------------------------------*/
FoamFile
{
    format      ascii;
    class       surfaceScalarField;
    location    "600";
    object      phi;
}
// * * * * * * * * * * * * * * * * * * * * * * * * * * * * * * * * * * * * * //

dimensions      [0 3 -1 0 0 0 0];

internalField   nonuniform List<scalar> 
16133
(
1.88418
0.00195089
-0.175251
-1.71159
-1.62267
0.566955
-0.714692
1.77041
-0.428221
-2.46459
1.85123
1.04156
-0.317717
0.159115
-2.68478
2.84337
-0.497151
-0.186528
3.39153
-2.70788
3.83253
1.71693
-4.74837
-0.801202
-2.51685
0.862111
1.50933
0.1454
0.0434853
-2.45913
0.55779
1.85784
-1.4373
2.26129
1.463
-2.287
0.898625
2.93568
-0.513503
-3.32088
2.07831
-1.92343
0.552818
-0.707712
2.84601
-0.900466
0.793072
-2.73862
-0.00335639
-3.40852
2.01326
1.39857
1.0575
-0.907915
0.26253
-0.412121
1.19354
0.290856
-0.4269
-1.31563
0.949151
-2.58702
2.95347
-0.361618
0.20289
-0.749188
-4.21116
1.48125
3.42121
-0.691392
-3.87808
3.27898
-0.838209
-0.0963265
2.06224
-0.0817353
-0.465448
2.04792
-1.69302
0.110531
-0.466758
-2.61253
2.76156
-2.78956
2.81068
-1.33676
4.60967
-3.58761
0.158471
-1.18054
-3.10942
3.90855
0.0994805
-0.00297448
0.00494003
-0.0632146
0.0612489
0.0110124
-0.0065906
-0.00834938
0.00392753
-0.295967
-1.70396
1.58397
0.415961
-0.0335043
0.0582867
-0.0559138
0.0311314
-3.94038
2.66486
2.31615
-0.53251
-3.50755
1.7239
-0.663518
0.652376
2.08944
0.829594
-2.22702
1.44091
-0.00411551
0.185261
-0.0483238
-0.132822
-2.22868
-2.17418
2.19721
2.20563
-1.13234
0.74021
1.25438
-0.862253
-1.78685
-3.17855
2.7367
-0.014377
0.0670829
-0.0798429
0.027137
0.0427732
0.0814038
-0.0225498
-0.101627
-3.57625
0.715315
-1.01716
-3.64823
-0.805741
-2.45694
-0.488142
-0.786297
-0.0666204
-0.0705587
0.923474
-0.168919
2.44004
-0.0280204
-2.24311
3.02035
-1.40612
-3.40109
2.18833
-1.15493
1.00256
-0.818317
-0.387742
-0.165844
0.508864
0.0447203
1.80927
0.966336
-0.514319
2.74178
-2.57834
-0.630201
-1.28444
-1.64015
-3.61321
3.43513
-2.4395
2.61755
0.112044
0.0431482
-0.11242
-0.022882
0.0354051
0.0655539
-0.0780771
-0.0156058
0.0452287
0.0517808
-0.0443137
-0.0252571
0.0360665
2.98959
-1.55131
-4.61684
-0.0176314
-0.0584664
0.0847367
-0.00863899
-0.599774
0.883985
-0.267898
-0.016315
3.00373
0.068422
0.0184991
0.0251233
0.593383
-1.42308
-0.792977
0.0427226
-0.0413998
0.0419549
-0.043278
1.48621
-2.79128
2.64822
-1.34316
1.5663
-1.33552
-2.68109
1.83627
-1.61977
-0.473186
-0.0433535
-0.0832354
0.0979586
0.184847
-0.0990545
-0.183752
0.727385
1.87832
-2.89747
0.501697
-1.19184
0.0380956
0.0107664
-0.071744
0.0814483
-0.0132871
0.004648
-0.0728092
-0.859312
0.246548
1.38525
-0.772488
1.65662
-2.4756
-1.86212
0.241102
-0.56576
1.5182
-0.55979
-0.947059
0.721291
0.785558
-3.09847
1.34572
-1.14473
-1.45396
0.982265
1.33381
-1.45605
1.42557
0.860069
1.39316
-1.28733
0.135272
3.06137
-2.87769
0.676489
-0.860169
1.73427
-1.58228
-0.0823466
-0.0696381
0.0568072
0.109162
-0.122821
0.0418259
0.078056
-0.0844768
3.45989
0.572906
-0.971432
-0.78258
0.588587
1.35689
-1.1629
1.65349
-1.47296
-0.593868
0.413339
2.37304
-2.1635
-0.378466
1.06777
-0.64545
0.200955
-0.623276
1.81752
-0.533526
0.369496
2.62098
0.13215
-0.380096
3.21077
-0.43068
1.88307
-0.146856
1.3003
-0.576028
0.343493
1.9988
-0.417568
0.236285
-0.94454
-0.970378
1.08584
2.66275
-0.537824
0.984611
-0.477768
-1.07261
0.88197
-0.0446343
0.0466457
-2.37657
2.61207
-0.673663
0.438148
0.96119
-0.622031
2.86516
-2.75344
0.605321
-0.717066
0.415921
-0.361069
0.196367
0.515543
3.07351
-0.723905
-0.112587
2.01633
-0.229589
0.615444
-0.751363
-0.0347704
4.56835
-1.0737
1.41913
-0.136253
0.110277
0.31754
-2.37809
-0.517797
-2.54007
-0.710529
-1.47338
-0.107767
-0.00113832
-0.116856
0.0626072
0.311099
-1.60184
-2.40758
-0.645845
2.4652
0.792716
1.50323
-2.02439
-0.545468
2.19139
-2.62154
-0.460126
2.43582
1.50869
1.4662
-0.509689
0.671838
-0.37157
-0.860059
1.64269
-0.672985
-0.963449
0.729171
1.25977
-1.02549
-1.92269
2.03552
0.639288
-0.752134
-0.0413315
0.104044
0.00470212
-0.0674143
-0.632462
0.809212
0.794566
-0.931941
3.29916
-2.69298
-0.0432772
0.0403717
-0.0100864
0.012992
0.829784
-0.984023
-1.80732
-0.778889
-2.02831
-1.13558
0.139109
-0.0170249
0.0748908
0.0235824
-0.0682474
0.12914
0.103252
-0.164145
-0.80112
0.896942
-1.04037
-0.521806
2.82735
-1.81851
-2.20101
-0.234592
-0.000329831
-0.138434
-2.4963
3.40632
0.042069
-0.157017
-0.358239
-0.587739
1.70238
-3.35594
2.2413
2.8552
1.07392
-1.06978
0.495617
-0.499754
0.970102
-1.04205
0.433886
-2.5609
-0.568367
0.862083
-0.655334
2.24842
0.924777
-3.76093
-0.386028
0.0788181
-0.080533
-1.18648
-3.76592
1.89252
-1.69828
2.69508
1.25572
3.28455
1.86749
-0.112591
0.0172169
0.237391
-0.142017
2.24749
0.513773
-0.725766
0.966207
-1.54632
0.698488
1.70118
-0.853356
4.21529
1.05966
-1.97133
-3.30363
-0.996469
0.123414
-2.36411
2.5858
3.22137
-3.16103
-0.0951214
0.0229345
1.35901
2.39316
2.41467
-2.08409
1.65534
-1.79828
-2.77293
-0.365517
2.67832
-2.5108
1.66459
-1.07938
1.92559
-2.85867
-3.28856
0.00900015
-2.15223
0.328531
-0.49061
-0.697234
0.0114637
-0.00539783
-0.00148177
-0.00458416
-0.0983926
0.694538
2.91987
-2.85014
0.855045
-1.35835
-0.902664
-0.841694
-0.524545
0.465553
-0.249364
0.308354
-2.19653
-0.416151
-0.0842631
0.125107
0.0174432
-3.5517
-0.762791
-1.87092
0.955995
0.0932456
-0.066155
-0.705593
-1.01491
2.0247
-2.46376
1.70734
2.2895
2.45002
2.33643
-1.7707
0.130397
0.0595433
-0.133134
-0.0522638
-0.00803832
1.05661
-1.02192
0.425174
-0.717773
1.83492
-2.12244
-0.68925
0.842172
-0.90943
-0.829504
-0.0862395
1.71597
1.18508
0.103463
0.0366412
-0.154481
-2.24225
1.94293
0.152914
-1.0118
1.14411
-1.59965
2.2378
-0.327061
-0.578048
0.0255385
0.0886815
-0.0714975
2.95364
-0.23126
0.063512
-0.218281
2.01035
1.04092
2.97353
0.000399874
0.0220762
-0.55393
1.00389
-0.188493
1.43064
0.130487
-0.108668
-0.150398
0.12858
-0.0516262
0.0486516
0.0883898
0.0605365
-0.0927864
-0.0520132
0.588518
-0.441026
0.318059
0.302386
-0.051212
-0.209106
0.641712
0.388505
-1.12861
-0.0282178
-0.0767017
0.130086
-0.0251669
1.88487
0.0507706
-0.0554202
0.00464955
-0.714218
-0.818489
2.28377
-3.17378
0.78154
0.798583
0.306105
-0.327148
-0.228322
-1.83938
-0.000855586
0.868706
-3.57496
-0.0354196
0.0437664
0.0116507
-0.0199976
-0.205304
-3.58967
-0.0790108
-0.0179629
0.0687558
-2.67539
-0.412573
-1.99903
3.73192
-2.04707
-0.0299728
-0.115816
0.0690869
0.189677
-0.256727
0.197536
-0.0249127
-0.0558566
0.0364557
-0.615695
1.66229
-0.829782
1.54938
0.949261
-0.663726
0.0162744
-0.0292547
0.0129803
-1.20333
-0.947994
0.0292123
-0.0427756
0.0135634
1.34008
-2.84942
0.922153
0.858139
-0.372664
0.833456
0.0249785
0.00423385
0.301452
-0.154174
-0.159976
0.275435
0.0970526
-0.246801
1.56968
-0.40282
-0.760568
2.83135
0.146262
-0.0615061
0.0456417
-0.017031
0.0690923
-0.711442
0.956409
-1.78652
-0.363888
1.37326
-0.227699
2.76298
0.0437618
0.00488973
0.155428
-2.29974
0.941553
-0.553141
-1.69847
1.1887
0.542579
0.168404
-1.63688
1.5092
-0.146829
-0.03691
0.0750704
3.6385
-0.0710261
0.0398438
0.0929552
-0.0909731
-0.121873
0.178294
-0.813855
0.148269
0.00237573
-0.0935759
0.0311895
0.034549
-0.0657385
-0.224258
-2.11304
3.07083
-0.31543
0.334925
0.107836
-1.47782
0.00858054
0.00769385
-0.871966
-3.11556
0.367526
0.0377027
0.0998566
-0.0977156
-0.318631
-0.134016
0.00311757
-0.988419
-0.265578
-2.65618
-1.42911
-0.0115862
0.123691
0.143787
-0.187263
-0.743779
-0.0225504
0.00620542
-0.0250549
0.0614027
0.141667
-0.143526
-0.202302
-1.88843
-2.3319
0.0400123
0.00374939
0.0526109
-1.48355
0.012437
1.06286
0.0284358
-0.000192074
0.058978
0.0827025
-0.103978
0.359748
0.100578
0.0261129
0.0369929
-0.0483422
-0.0159697
0.0116935
-0.136724
0.204906
-0.116506
-0.0122525
0.0154352
0.0406093
-0.000596982
-0.00310969
0.00162791
0.0902053
0.0172089
0.0015098
-0.00706807
-0.153673
1.45477
-1.03228
1.00308
0.0322023
-0.109949
-0.00496271
0.0977518
-0.282197
-0.433785
0.732594
0.381247
-0.974005
-0.949009
-0.0234826
0.0331799
-0.0399333
0.0179168
-0.0593681
-0.0198288
0.0205566
-0.00671532
0.00034124
0.040268
-0.00472539
-0.0472746
1.59634
-0.00948984
0.0322297
-1.4399
0.277666
-1.42256
-0.511254
-0.052517
0.00461673
-0.00957946
-0.0298408
0.0134763
-0.0397645
0.0481757
-0.00806965
0.412548
-0.571919
-0.807968
0.501308
-0.00156466
-1.06603
-0.31355
-0.0714713
-0.0337292
-1.11964
-0.990358
-0.0151377
-0.0478489
0.0221433
0.098097
-0.334295
0.0343666
0.0175584
-0.0351353
1.34211
-0.013505
0.0279311
-0.0112136
-0.153525
2.81756
-0.386756
-0.226222
-0.598683
-0.175486
-0.659993
-0.00493574
0.129903
-0.124967
-0.00928584
0.136773
-0.132423
-0.0138491
0.149049
-0.144486
-0.0188375
0.159056
-0.154068
-0.024234
0.168568
-0.163171
-0.0302048
0.17705
-0.171079
-0.0366903
0.185305
-0.17882
-0.0437837
0.193241
-0.186147
0.201125
-0.193874
-0.0510338
-0.00396178
0.133864
-0.00801939
0.140831
-0.0120873
0.153117
-0.0165258
0.163495
-0.0212796
0.173322
-0.0265366
0.182307
-0.0322222
0.190991
-0.0383696
0.199388
0.207658
-0.0449032
-0.00341997
0.137284
-0.00696713
0.144378
-0.0105403
0.156691
-0.0144014
0.167356
-0.018543
0.177463
-0.023079
0.186843
-0.0279754
0.195888
-0.0332314
0.204644
0.213242
-0.0388148
-0.00307155
0.140356
-0.00608189
0.147388
-0.0091145
0.159723
-0.0123734
0.170615
-0.0158888
0.180979
-0.0197327
0.190687
-0.0238821
0.200037
-0.0283375
0.2091
0.218007
-0.0331027
-0.00276715
0.143123
-0.00522605
0.149847
-0.0076922
0.162189
-0.0103457
0.173268
-0.0132243
0.183857
-0.0163844
0.193847
-0.0198228
0.203475
-0.023542
0.212819
0.222004
-0.0275393
-0.00233464
0.145458
-0.00427199
0.151785
-0.00618627
0.164104
-0.00823787
0.17532
-0.0104789
0.186098
-0.0129594
0.196328
-0.0156741
0.20619
-0.0186298
0.215775
0.225212
-0.0218374
-0.00160954
0.147067
-0.00311809
0.153293
-0.00452452
0.16551
-0.00600738
0.176803
-0.00761683
0.187708
-0.00940859
0.19812
-0.0114008
0.208182
-0.0135938
0.217968
0.227624
-0.0160062
-0.000704468
0.147772
-0.00183181
0.15442
-0.00274422
0.166423
-0.00365113
0.17771
-0.00463001
0.188687
-0.00574461
0.199234
-0.00701242
0.20945
-0.00844924
0.219405
0.229191
-0.0100157
8.78031e-05
0.147684
-0.000568096
0.155076
-0.000922358
0.166777
-0.0012285
0.178016
-0.00156478
0.189023
-0.00199159
0.199661
-0.00254872
0.210007
-0.00324129
0.220097
0.230045
-0.00409536
0.000697172
0.146987
0.000607802
0.155166
0.000892979
0.166492
0.00123402
0.177675
0.00156062
0.188696
0.00179871
0.199423
0.00192502
0.209881
0.00191163
0.220111
0.230196
0.00176024
0.00116926
0.145818
0.00175193
0.154583
0.00273992
0.165504
0.00373885
0.176676
0.00471444
0.187721
0.00559603
0.198541
0.00637207
0.209105
0.00700671
0.219476
0.22973
0.00747263
0.00166723
0.14415
0.00304112
0.153209
0.00470735
0.163837
0.00632062
0.175063
0.00787982
0.186162
0.00936778
0.197053
0.0107513
0.207721
0.0120267
0.2182
0.228671
0.0130862
0.0025774
0.141573
0.00471418
0.151072
0.00688256
0.161669
0.0089732
0.172972
0.0110262
0.184109
0.0130232
0.195056
0.0149511
0.205793
0.0167784
0.216373
0.226951
0.0184981
0.00380899
0.137764
0.0065768
0.148304
0.00912464
0.159121
0.0115934
0.170503
0.0140443
0.181658
0.0164603
0.19264
0.0188329
0.203421
0.0211276
0.214078
0.224745
0.0233336
0.00489997
0.132864
0.00826105
0.144943
0.0111771
0.156205
0.0139753
0.167705
0.0167623
0.178871
0.0195461
0.189856
0.0223056
0.200661
0.0249986
0.211385
0.222129
0.0276147
0.0055572
0.127307
0.00945898
0.141042
0.0127476
0.152917
0.0158874
0.164565
0.0190095
0.175749
0.0221347
0.186731
0.0252469
0.197549
0.028311
0.208321
0.219128
0.0313114
0.0053952
0.121911
0.009865
0.136572
0.0135858
0.149196
0.0171354
0.161015
0.020635
0.172249
0.0241216
0.183244
0.0275754
0.194095
0.0309846
0.204912
0.215827
0.0342865
0.00445842
0.117453
0.00935273
0.131677
0.0136123
0.144936
0.0176546
0.156973
0.0215876
0.168316
0.025463
0.179369
0.0292834
0.190275
0.0330357
0.20116
0.212174
0.0366885
0.00351286
0.11394
0.00845789
0.126732
0.0131206
0.140273
0.0176172
0.152476
0.0219828
0.16395
0.026263
0.175089
0.0304672
0.18607
0.0346046
0.197022
0.208095
0.0386836
0.00295397
0.110986
0.00768778
0.121999
0.0125103
0.135451
0.0173149
0.147672
0.0220284
0.159237
0.026664
0.170453
0.03122
0.181514
0.03569
0.192552
0.203721
0.0400635
0.00272771
0.108258
0.00721151
0.117515
0.0120308
0.130632
0.0169931
0.142709
0.0219543
0.154275
0.0268855
0.165522
0.0317684
0.176631
0.0365751
0.187746
0.199039
0.0412571
0.00276225
0.105496
0.00706792
0.113209
0.0118166
0.125883
0.0168219
0.137704
0.0219405
0.149157
0.0271105
0.160352
0.0322917
0.17145
0.0374269
0.18261
0.193966
0.0424999
0.00316462
0.102331
0.00730268
0.109071
0.0119284
0.121257
0.0168953
0.132737
0.022111
0.143941
0.0274891
0.154973
0.0329821
0.165957
0.0384617
0.177131
0.188655
0.0437723
0.0039935
0.0983376
0.00787761
0.105187
0.0123213
0.116813
0.017225
0.127833
0.022522
0.138644
0.0280932
0.149402
0.0339314
0.160119
0.0397768
0.171285
0.183628
0.0448039
0.00476166
0.00832101
0.0127147
0.0177271
0.0232373
0.029113
0.0355584
0.042699
0.0508405
-0.113116
-0.000888253
0.114004
-0.112054
-0.00106121
-0.11078
-0.00127397
-0.109252
-0.00152818
-0.107435
-0.00181694
-0.105292
-0.00214352
-0.102784
-0.00250807
-0.0998776
-0.00290607
-0.096536
-0.00334161
-0.0927322
-0.00380374
-0.088444
-0.00428821
-0.0836722
-0.00477187
-0.078448
-0.00522414
-0.0728215
-0.0056265
-0.0668579
-0.00596364
-0.0606184
-0.00623949
-0.054173
-0.00644533
-0.047592
-0.00658108
-0.0409504
-0.00664148
-0.034325
-0.00662543
-0.0277982
-0.00652672
-0.0214663
-0.00633194
-0.0154378
-0.00602848
-0.00980262
-0.00563513
-0.00448608
-0.00531645
0.000699193
-0.00518527
0.00592351
-0.00522423
0.0113847
-0.00546123
0.0171394
-0.00575459
0.0230629
-0.00592346
0.0290405
-0.00597746
0.0349972
-0.00595668
0.0408902
-0.00589292
0.0466789
-0.00578866
0.0523222
-0.00564318
0.0577829
-0.00546066
0.0630235
-0.00524046
0.0680053
-0.0049818
0.072696
-0.00469057
0.0770658
-0.00436986
0.0810974
-0.00403135
0.0847977
-0.00370041
0.088211
-0.00341312
0.0914005
-0.00318952
0.0944205
-0.00301982
0.0973209
-0.00290038
0.100133
-0.0028115
0.102871
-0.00273809
0.10553
-0.00265921
0.108097
-0.0025674
0.110557
-0.00245903
0.112884
-0.00232743
0.115071
-0.00218642
0.117105
-0.00203426
0.118984
-0.0018787
0.120707
-0.00172357
0.122274
-0.00156727
0.123695
-0.00142024
-0.00127218
-0.108098
-0.00256204
0.109772
-0.106266
-0.00289385
-0.104265
-0.00327453
-0.102083
-0.00371052
-0.099708
-0.00419162
-0.0971218
-0.00472973
-0.0943145
-0.00531538
-0.0912695
-0.00595105
-0.0879798
-0.00663142
-0.0844396
-0.00734391
-0.0806518
-0.00807604
-0.0766261
-0.00879764
-0.0723642
-0.00948604
-0.0678715
-0.0101192
-0.0631427
-0.0106925
-0.0581782
-0.0112041
-0.0529868
-0.0116366
-0.0475857
-0.0119822
-0.0419934
-0.0122337
-0.0362348
-0.0123841
-0.0303297
-0.0124318
-0.02428
-0.0123816
-0.0180568
-0.0122516
-0.0115997
-0.0120923
-0.00493855
-0.0119775
0.00180809
-0.0119319
0.00854051
-0.0119566
0.0151287
-0.0120495
0.021556
-0.0121818
0.0278953
-0.0122628
0.0341743
-0.0122564
0.0403809
-0.0121633
0.0464829
-0.0119948
0.0524534
-0.0117592
0.0582648
-0.0114545
0.0638949
-0.0110908
0.0693253
-0.0106708
0.0745497
-0.0102062
0.0795634
-0.00970421
0.0843725
-0.0091789
0.0889875
-0.00864628
0.0934097
-0.00812265
0.097628
-0.00763134
0.101615
-0.00717659
0.105351
-0.00675611
0.108821
-0.00636984
0.112015
-0.00600554
0.114922
-0.00564531
0.117546
-0.00528262
0.119893
-0.00491439
0.121983
-0.00454888
0.123839
-0.00418353
0.125485
-0.00383266
0.126956
-0.00350528
0.128274
-0.00319643
0.129465
-0.0029144
0.130542
-0.00264427
0.131521
-0.00239994
-0.00217364
-0.115189
-0.00449008
0.117117
-0.113089
-0.00499429
-0.110807
-0.00555618
-0.108341
-0.00617689
-0.105673
-0.00685986
-0.102797
-0.00760523
-0.0997074
-0.00840517
-0.0964038
-0.00925465
-0.0928852
-0.01015
-0.0891551
-0.011074
-0.085217
-0.0120142
-0.0810661
-0.0129485
-0.0766883
-0.0138638
-0.0720639
-0.0147436
-0.0671798
-0.0155766
-0.0620404
-0.0163436
-0.0566434
-0.0170336
-0.050998
-0.0176276
-0.045112
-0.0181196
-0.038994
-0.0185022
-0.032648
-0.0187778
-0.0260781
-0.0189515
-0.0192875
-0.0190423
-0.0122998
-0.01908
-0.00517858
-0.0190987
0.00201428
-0.0191248
0.00922254
-0.0191648
0.0163863
-0.0192132
0.0234478
-0.0192433
0.0304004
-0.0192153
0.0372467
-0.0191027
0.0439782
-0.0188947
0.0505756
-0.0185922
0.0570135
-0.018197
0.0632754
-0.0177164
0.0693438
-0.0171591
0.0752053
-0.0165322
0.0808525
-0.0158533
0.0862822
-0.0151338
0.0914883
-0.014385
0.0964702
-0.0136281
0.101221
-0.0128733
0.105726
-0.0121361
0.109965
-0.0114165
0.113932
-0.010723
0.117608
-0.0100458
0.120989
-0.00938629
0.124083
-0.00873902
0.126906
-0.0081054
0.129478
-0.0074868
0.131822
-0.00689339
0.133964
-0.00632492
0.135922
-0.00579104
0.137706
-0.0052896
0.139331
-0.00482073
0.140805
-0.00438847
0.142151
-0.00399031
0.143374
-0.00362292
-0.00328578
-0.121147
-0.006493
0.12315
-0.118971
-0.00717078
-0.116604
-0.0079236
-0.114036
-0.00874472
-0.111262
-0.00963403
-0.108274
-0.0105924
-0.10507
-0.0116094
-0.101641
-0.0126841
-0.0979889
-0.0138018
-0.0941114
-0.0149516
-0.090005
-0.0161206
-0.0856565
-0.0172971
-0.0810624
-0.0184579
-0.0762116
-0.0195945
-0.0711062
-0.020682
-0.0657384
-0.0217113
-0.0601092
-0.0226629
-0.0542157
-0.0235212
-0.0480569
-0.0242785
-0.0416332
-0.0249259
-0.0349468
-0.0254641
-0.0280034
-0.0258949
-0.0208162
-0.0262295
-0.0134152
-0.026481
-0.00584577
-0.0266681
0.00183424
-0.0268048
0.00956099
-0.0268916
0.0172732
-0.0269255
0.0249216
-0.0268917
0.032476
-0.0267698
0.0399162
-0.0265429
0.0472242
-0.0262027
0.0543785
-0.0257464
0.0613604
-0.0251789
0.0681471
-0.0245032
0.0747247
-0.0237367
0.0810806
-0.022888
0.0871952
-0.021968
0.0930588
-0.0209974
0.0986648
-0.019991
0.104001
-0.0189643
0.109055
-0.017927
0.113812
-0.0168928
0.118261
-0.0158655
0.122389
-0.0148518
0.126205
-0.0138611
0.129707
-0.0128883
0.132915
-0.0119478
0.135844
-0.0110336
0.13852
-0.0101633
0.140963
-0.00933608
0.143193
-0.00855527
0.145223
-0.00782098
0.147073
-0.00713911
0.148754
-0.00650194
0.150282
-0.00591682
0.151669
-0.0053768
0.152925
-0.00487883
-0.00442873
-0.130649
-0.00862664
0.132783
-0.128314
-0.00950555
-0.125773
-0.0104644
-0.123015
-0.0115031
-0.120029
-0.0126197
-0.116811
-0.0138107
-0.11335
-0.0150708
-0.109647
-0.0163867
-0.105697
-0.0177514
-0.101498
-0.019151
-0.0970466
-0.020572
-0.0923407
-0.0220029
-0.0873768
-0.0234219
-0.0821544
-0.0248168
-0.0766658
-0.0261707
-0.0709102
-0.0274669
-0.0648845
-0.0286886
-0.058583
-0.0298227
-0.0520079
-0.0308536
-0.0451563
-0.0317775
-0.038037
-0.0325835
-0.0306588
-0.0332732
-0.0230405
-0.0338478
-0.0152097
-0.0343118
-0.00720784
-0.03467
0.000914789
-0.0349275
0.00910594
-0.0350827
0.017313
-0.0351325
0.0254873
-0.035066
0.0335881
-0.0348706
0.0415811
-0.0345359
0.0494343
-0.034056
0.0571173
-0.0334294
0.0646054
-0.032667
0.0718767
-0.0317745
0.0789038
-0.0307638
0.0856691
-0.0296533
0.0921583
-0.0284571
0.0983556
-0.0271947
0.104252
-0.0258875
0.109832
-0.0245441
0.115093
-0.0231884
0.120027
-0.0218264
0.124635
-0.0204735
0.128922
-0.0191389
0.132892
-0.0178318
0.136566
-0.016562
0.139955
-0.0153369
0.143081
-0.0141589
0.145958
-0.0130403
0.148605
-0.011983
0.151036
-0.0109871
0.153271
-0.0100559
0.155316
-0.00918411
0.157191
-0.00837643
0.158903
-0.007629
0.160464
-0.00693787
0.161886
-0.00630049
-0.00571451
-0.139198
-0.0108266
0.141398
-0.136796
-0.0119069
-0.134185
-0.0130757
-0.131348
-0.0143401
-0.128271
-0.0156965
-0.124952
-0.0171303
-0.121379
-0.0186437
-0.117545
-0.0202203
-0.113445
-0.0218522
-0.109075
-0.0235204
-0.104431
-0.0252164
-0.0995092
-0.0269245
-0.0943034
-0.0286277
-0.0888096
-0.0303107
-0.0830261
-0.0319542
-0.0769492
-0.0335438
-0.0705755
-0.0350623
-0.0639089
-0.0364893
-0.0569452
-0.0378173
-0.0496897
-0.039033
-0.0421462
-0.040127
-0.03433
-0.0410894
-0.02626
-0.0419178
-0.0179664
-0.0426054
-0.009489
-0.0431474
-0.000874815
-0.0435417
0.00782564
-0.0437832
0.0165621
-0.0438691
0.025285
-0.0437888
0.0339473
-0.0435329
0.042507
-0.0430957
0.0509205
-0.0424695
0.0591513
-0.0416602
0.0671677
-0.0406835
0.0749364
-0.0395432
0.0824346
-0.038262
0.0896389
-0.0368577
0.0965219
-0.0353401
0.103073
-0.0337458
0.109278
-0.0320925
0.115134
-0.0303997
0.120631
-0.0286859
0.125777
-0.0269717
0.130571
-0.0252681
0.135028
-0.0235957
0.139159
-0.0219631
0.14298
-0.0203832
0.146511
-0.0188671
0.149773
-0.017421
0.152784
-0.0160517
0.155566
-0.0147644
0.15813
-0.0135513
0.160492
-0.0124176
0.162666
-0.0113582
0.164665
-0.0103758
0.166494
-0.00945828
0.168166
-0.00860961
0.169694
-0.00782835
-0.00709976
-0.149414
-0.0131265
0.151713
-0.146902
-0.0144184
-0.144167
-0.0158112
-0.141195
-0.0173114
-0.137978
-0.0189141
-0.1345
-0.0206084
-0.130754
-0.0223893
-0.126731
-0.0242435
-0.12243
-0.0261527
-0.11784
-0.0281108
-0.112959
-0.0300975
-0.107782
-0.0321015
-0.102301
-0.0341089
-0.0965114
-0.0360998
-0.0904101
-0.0380554
-0.0839951
-0.0399589
-0.0772593
-0.0417981
-0.0702137
-0.0435349
-0.062853
-0.0451779
-0.0551854
-0.0467007
-0.0472126
-0.0480998
-0.0389525
-0.0493495
-0.0304261
-0.0504442
-0.0216595
-0.051372
-0.0127003
-0.0521067
-0.00359196
-0.05265
0.00561156
-0.0529867
0.0148645
-0.053122
0.0241162
-0.0530406
0.0333149
-0.0527315
0.0424152
-0.052196
0.0513574
-0.0514117
0.0600984
-0.0504012
0.0686025
-0.0491876
0.0768277
-0.0477684
0.0847538
-0.0461881
0.0923554
-0.0444593
0.0995919
-0.0425767
0.106464
-0.0406181
0.112962
-0.0385903
0.119089
-0.036527
0.124843
-0.0344393
0.130233
-0.0323618
0.135266
-0.0303013
0.139961
-0.0282911
0.14433
-0.0263324
0.14839
-0.0244432
0.152154
-0.0226312
0.155646
-0.0209123
0.158884
-0.0192895
0.16188
-0.0177608
0.16466
-0.0163314
0.167229
-0.0149864
0.1696
-0.0137297
0.171782
-0.0125577
0.173787
-0.011463
0.175623
-0.0104457
0.177298
-0.00950293
-0.00862205
-0.159749
-0.0154938
0.162116
-0.157179
-0.0169879
-0.154389
-0.0186014
-0.151353
-0.0203476
-0.148064
-0.0222033
-0.144501
-0.0241713
-0.140665
-0.0262254
-0.136533
-0.0283748
-0.132093
-0.0305926
-0.127361
-0.0328432
-0.122313
-0.0351453
-0.116941
-0.0374733
-0.111241
-0.0398087
-0.1052
-0.0421409
-0.0988169
-0.044439
-0.0920806
-0.0466952
-0.0849899
-0.0488888
-0.0775775
-0.0509473
-0.0698347
-0.0529207
-0.0617622
-0.0547732
-0.0533561
-0.0565059
-0.0446456
-0.05806
-0.0356561
-0.0594337
-0.0263867
-0.0606415
-0.0169275
-0.0615659
-0.00730787
-0.0622696
0.00239838
-0.062693
0.0121685
-0.0628921
0.0219428
-0.0628149
0.0316662
-0.0624549
0.0413049
-0.0618348
0.0507578
-0.0608646
0.059983
-0.0596264
0.0689697
-0.0581743
0.0776252
-0.0564239
0.0859687
-0.0545317
0.0939914
-0.0524821
0.101577
-0.0501619
0.108775
-0.0478162
0.115589
-0.0454046
0.122021
-0.042959
0.128087
-0.040505
0.133772
-0.0380472
0.139105
-0.0356338
0.144127
-0.0333132
0.148805
-0.0310106
0.153186
-0.0288241
0.157259
-0.0267042
0.161022
-0.0246757
0.164512
-0.0227792
0.167752
-0.021001
0.17076
-0.0193398
0.173546
-0.0177723
0.17612
-0.0163035
0.178492
-0.0149302
0.180673
-0.0136441
0.182664
-0.0124368
0.184485
-0.0113236
-0.0102845
-0.171718
0.17411
-0.0178854
-0.169079
-0.0196268
-0.1662
-0.0214801
-0.163053
-0.0234947
-0.159643
-0.025614
-0.155938
-0.0278757
-0.151928
-0.0302358
-0.147643
-0.0326596
-0.143056
-0.0351799
-0.138072
-0.0378274
-0.132814
-0.0404026
-0.127209
-0.0430787
-0.121208
-0.0458095
-0.1149
-0.0484495
-0.10818
-0.0511586
-0.101171
-0.053704
-0.0937766
-0.0562832
-0.0859662
-0.0587577
-0.0777565
-0.0611303
-0.0692453
-0.0632844
-0.0603886
-0.0653627
-0.0512775
-0.067171
-0.0418603
-0.068851
-0.0320892
-0.0704126
-0.0221304
-0.0715247
-0.0120152
-0.0723848
-0.00185363
-0.0728546
0.00842597
-0.0731718
0.0187302
-0.0731191
0.0288926
-0.0726174
0.0390315
-0.0719737
0.048952
-0.0707851
0.0585858
-0.0692602
0.0680197
-0.0676083
0.0771
-0.0655042
0.0858238
-0.0632555
0.0940968
-0.0607551
0.101922
-0.0579875
0.109491
-0.0553849
0.116623
-0.0525365
0.123382
-0.0497186
0.129834
-0.0469564
0.135911
-0.0441246
0.141667
-0.0413897
0.147107
-0.0387532
0.152217
-0.0361205
0.157017
-0.0336243
0.161469
-0.0311561
0.165714
-0.0289213
0.169666
-0.0267308
0.173322
-0.024657
0.1767
-0.0227173
0.179808
-0.0208804
0.182722
-0.0192183
0.185409
-0.0176165
0.187866
-0.0161016
0.190099
-0.0146696
0.192072
-0.0132963
-0.0120871
-0.0747381
0.00899954
-0.082597
0.0078588
-0.0894085
0.00681145
-0.0954211
0.00601258
-0.101106
0.00568511
-0.106689
0.00558222
-0.112172
0.00548385
-0.117661
0.00548811
-0.12321
0.00554943
-0.128341
0.00513046
-0.132319
0.00397882
-0.134745
0.00242571
-0.135627
0.000881307
-0.135382
-0.000244688
-0.134663
-0.000719363
-0.133857
-0.000805455
-0.133032
-0.000824939
-0.132095
-0.000937087
-0.130843
-0.00125203
-0.128979
-0.00186392
-0.126379
-0.00260009
-0.123254
-0.00312518
-0.119971
-0.00328373
-0.116956
-0.00301425
-0.00295255
-0.0793911
0.0166466
-0.0869872
0.0154548
-0.0942864
0.0141106
-0.10129
0.013016
-0.107944
0.0123391
-0.114256
0.0118947
-0.120283
0.0115099
-0.125918
0.011124
-0.130885
0.0105158
-0.13502
0.00926566
-0.138387
0.00734583
-0.141016
0.00505441
-0.14288
0.00274521
-0.143899
0.000774963
-0.144024
-0.000594499
-0.143353
-0.0014763
-0.142028
-0.00215072
-0.140125
-0.00283992
-0.137704
-0.00367321
-0.134848
-0.00471958
-0.131572
-0.00587566
-0.127717
-0.00698042
-0.123033
-0.00796789
-0.117119
-0.00892858
-0.0102994
-0.0868459
0.0254153
-0.0952534
0.0238623
-0.103335
0.0221918
-0.111035
0.0207165
-0.118226
0.0195302
-0.124861
0.0185296
-0.130911
0.0175602
-0.136276
0.0164885
-0.140859
0.0150987
-0.144749
0.0131554
-0.148063
0.01066
-0.150842
0.00783342
-0.153074
0.00497697
-0.154661
0.00236231
-0.155436
0.000180843
-0.155308
-0.00160514
-0.154297
-0.00316113
-0.152463
-0.00467371
-0.149872
-0.00626479
-0.146588
-0.00800352
-0.142613
-0.00985065
-0.137843
-0.01175
-0.132119
-0.0136926
-0.12524
-0.0158074
-0.0184219
-0.0941306
0.0350691
-0.103253
0.0329852
-0.111949
0.0308868
-0.120168
0.028936
-0.127807
0.0271696
-0.134794
0.0255158
-0.141076
0.0238429
-0.146603
0.0220151
-0.151362
0.0198577
-0.155441
0.0172341
-0.158944
0.0141638
-0.161916
0.0108054
-0.16432
0.00738036
-0.166062
0.00410437
-0.166985
0.00110406
-0.166981
-0.00160956
-0.166001
-0.00414112
-0.164058
-0.00661591
-0.161179
-0.00914385
-0.157406
-0.0117765
-0.152715
-0.0145421
-0.147027
-0.0174382
-0.140219
-0.0205004
-0.132209
-0.0238171
-0.0274809
-0.10135
0.0454461
-0.111188
0.0428234
-0.120489
0.0401871
-0.129217
0.0376644
-0.137293
0.0352456
-0.144659
0.0328818
-0.151273
0.0304568
-0.157111
0.0278532
-0.162191
0.0249378
-0.166579
0.0216221
-0.170349
0.017934
-0.173529
0.0139851
-0.176071
0.00992258
-0.177886
0.00591873
-0.178859
0.00207707
-0.178872
-0.00159622
-0.177861
-0.005152
-0.175814
-0.00866275
-0.172735
-0.0122229
-0.168635
-0.0158762
-0.163514
-0.0196634
-0.157354
-0.0235985
-0.150149
-0.0277049
-0.141939
-0.0320273
-0.0366376
-0.1086
0.0563306
-0.119082
0.053305
-0.128962
0.050067
-0.138204
0.0469061
-0.14674
0.0437824
-0.154535
0.0406759
-0.161546
0.037468
-0.16777
0.0340778
-0.173234
0.0304018
-0.177975
0.0263629
-0.182047
0.0220059
-0.185449
0.0173868
-0.188137
0.0126104
-0.190029
0.00781127
-0.191008
0.00305626
-0.19099
-0.00161478
-0.189909
-0.00623242
-0.187718
-0.0108541
-0.184412
-0.0155289
-0.179981
-0.0203069
-0.174436
-0.0252093
-0.167774
-0.0302606
-0.160011
-0.0354672
-0.151184
-0.0408546
-0.0464241
-0.115705
0.0680579
-0.126921
0.0645204
-0.137409
0.0605555
-0.14719
0.0566868
-0.156219
0.052812
-0.164481
0.0489374
-0.171925
0.0449116
-0.17857
0.0407228
-0.184434
0.0362657
-0.189542
0.0314713
-0.19393
0.0263937
-0.197586
0.0210424
-0.200443
0.0154672
-0.202419
0.00978799
-0.203434
0.00407105
-0.203396
-0.00165247
-0.20224
-0.0073886
-0.199925
-0.0131691
-0.196427
-0.0190272
-0.191753
-0.0249811
-0.185907
-0.0310549
-0.178925
-0.0372426
-0.170844
-0.0435482
-0.16174
-0.0499586
-0.056451
-0.122786
0.0808948
-0.1348
0.0765346
-0.145882
0.0716371
-0.156215
0.0670199
-0.165755
0.0623521
-0.174513
0.0576954
-0.18241
0.0528092
-0.189482
0.0477946
-0.195771
0.0425543
-0.201248
0.0369486
-0.205952
0.0310978
-0.209886
0.0249763
-0.212929
0.0185099
-0.215024
0.0118829
-0.216086
0.00513352
-0.216036
-0.00170281
-0.214819
-0.00860549
-0.21239
-0.0155983
-0.208725
-0.0226922
-0.203835
-0.0298708
-0.197735
-0.0371556
-0.190469
-0.0445083
-0.182064
-0.0519529
-0.172585
-0.0594386
-0.0669193
-0.130371
0.0947599
-0.142922
0.0890858
-0.154421
0.0831363
-0.16527
0.0778685
-0.175329
0.0724111
-0.184636
0.0670025
-0.193004
0.0611768
-0.200519
0.0553094
-0.207234
0.0492697
-0.213104
0.0428183
-0.218104
0.0360978
-0.222291
0.0291632
-0.225568
0.0217865
-0.227794
0.0141091
-0.22891
0.00624984
-0.228869
-0.00174358
-0.227595
-0.00987988
-0.225087
-0.0181062
-0.221269
-0.0265102
-0.216155
-0.0349849
-0.209859
-0.0434513
-0.202391
-0.0519771
-0.19379
-0.0605532
-0.184318
-0.0689113
-0.0771276
1.2689
0.327342
0.223603
-0.550933
-0.611896
0.683791
-0.0718904
0.295251
-0.383513
0.0882618
0.362107
-0.418485
0.0563777
0.029801
-0.512308
0.482507
-0.411013
0.720402
-0.309389
0.794146
-0.639201
-0.154956
-0.0473922
-0.209194
0.256586
4.57446
-3.0484
-1.52605
-0.789558
1.64905
-0.859488
-0.963852
0.30996
0.653889
0.857828
-1.58327
0.725433
-0.57859
-0.347574
0.926162
0.128608
-0.131189
0.00258097
2.2958
-2.08602
-0.20978
-0.628416
0.0165222
0.139841
-0.0242813
-0.115559
0.244476
0.143472
0.232048
0.0920901
-0.324138
-0.361007
0.220159
0.140848
2.50485
0.94656
-3.4514
-0.458217
0.828084
-0.369867
1.16566
-0.90377
-0.261892
-0.875007
0.250282
0.624725
1.00082
0.164845
-1.10616
0.541303
0.564859
-0.899447
0.194264
0.705202
2.81455
-1.76383
-1.05071
-0.0340504
-0.152191
0.186242
0.298516
0.419992
-0.718509
0.801856
-1.96386
1.16204
0.643056
0.903131
-1.54619
1.53216
-3.17887
1.64671
-0.30252
-0.0727343
0.375254
0.492315
1.02543
-1.51774
-0.897868
0.319279
-2.44667
0.763778
1.68289
-0.357559
0.679194
-0.321635
1.00999