/*--------------------------------*- C++ -*----------------------------------*\
  =========                 |
  \\      /  F ield         | OpenFOAM: The Open Source CFD Toolbox
   \\    /   O peration     | Website:  https://openfoam.org
    \\  /    A nd           | Version:  10
     \\/     M anipulation  |
\*---------------------------------------------------------------------------*/
FoamFile
{
    format      ascii;
    class       volVectorField;
    location    "600";
    object      U;
}
// * * * * * * * * * * * * * * * * * * * * * * * * * * * * * * * * * * * * * //

dimensions      [0 1 -1 0 0 0 0];

internalField   nonuniform List<vector> 
10435
(
(1.62237 0.142638 -3.58281e-23)
(1.60564 0.416626 9.72062e-22)
(3.187 -0.0449161 -1.30573e-21)
(2.01786 -0.0399741 2.71121e-21)
(2.29535 0.136605 -3.03123e-21)
(2.84165 0.242045 1.81696e-20)
(3.19384 -0.0716423 -5.0482e-21)
(3.19364 -0.11903 4.81598e-21)
(3.13335 -0.19702 2.84445e-20)
(3.06435 0.157223 -5.99272e-21)
(1.77596 0.323053 -1.60924e-22)
(2.4898 -0.247601 1.04907e-20)
(3.20875 -0.0199404 7.12283e-21)
(0.934526 0.312327 3.57229e-21)
(1.03749 0.339547 3.62576e-21)
(3.15904 -0.0911539 -5.89245e-22)
(0.835031 0.270227 -1.25432e-21)
(3.17002 0.121381 3.91307e-20)
(3.08346 -0.252366 -1.2385e-20)
(1.70321 0.0891216 2.46206e-23)
(3.18417 -0.106183 3.12497e-21)
(2.01819 -0.138913 -4.04507e-21)
(3.14754 -0.0624047 2.32174e-20)
(2.79684 -0.496338 -1.01952e-20)
(3.0771 0.091661 6.61141e-21)
(0.214061 0.337325 3.18416e-22)
(0.053663 0.033284 9.64912e-22)
(3.19916 -0.0466478 3.21317e-21)
(0.244948 -0.101178 -1.86721e-22)
(3.12025 0.157332 4.10133e-20)
(2.98591 -0.0335769 1.15252e-20)
(1.86593 0.282712 -2.33182e-22)
(3.18773 -0.131676 -1.22123e-20)
(0.48759 -0.104741 -1.36907e-21)
(3.09627 -0.21588 7.11395e-21)
(1.35308 0.561752 -1.32422e-21)
(3.07092 -0.186687 1.19004e-20)
(0.157824 0.201208 -3.77193e-21)
(0.351298 0.33332 1.01985e-22)
(3.00709 -0.359233 3.56898e-21)
(3.06346 0.251574 -4.53179e-20)
(3.18353 -0.0606034 -4.87462e-21)
(0.621616 0.446976 5.42823e-21)
(1.84931 0.0691542 -2.80811e-21)
(3.05476 -0.13591 -1.96101e-20)
(2.90169 -0.452995 1.94578e-20)
(2.94365 0.258427 -2.60874e-20)
(0.443515 0.361311 1.92427e-20)
(3.14435 -0.155355 9.56068e-21)
(2.00171 -0.246082 -2.57811e-21)
(3.18026 -0.125329 -9.56049e-22)
(2.82167 0.073595 8.49981e-20)
(0.396017 0.345534 5.85945e-22)
(0.331345 -0.174493 -1.48594e-22)
(0.307149 0.338032 -1.80637e-22)
(0.194619 -0.122696 4.69269e-22)
(2.9895 -0.282343 -3.53243e-20)
(0.165324 0.128284 -1.64761e-21)
(0.686002 0.0777179 1.41164e-21)
(3.0145 -0.319605 2.38295e-20)
(0.350938 0.351555 -3.20572e-22)
(1.52012 0.467169 -1.66031e-21)
(0.186836 0.0324517 1.87681e-21)
(2.66418 0.0449237 -6.30432e-21)
(3.10487 -0.0851004 -3.53453e-20)
(3.16848 -0.0133174 1.69522e-20)
(0.621307 0.00436312 -2.44149e-21)
(0.351079 0.143114 -6.78823e-21)
(3.19654 -0.104766 -5.81584e-21)
(2.66387 -0.534159 1.06857e-21)
(0.283912 -0.193213 4.44681e-22)
(0.1716 0.291212 -1.54206e-22)
(0.709306 0.560749 -9.58684e-21)
(3.15655 -0.0176227 -2.20706e-20)
(1.14124 0.35324 1.40969e-21)
(0.780908 0.556957 -1.56777e-22)
(2.53668 -0.536035 2.6817e-20)
(3.19823 -0.0810483 1.23347e-20)
(3.1897 -0.132899 1.56612e-21)
(1.18626 0.24972 -7.94272e-21)
(2.17385 -0.385504 2.95516e-21)
(1.54971 0.108222 2.30239e-22)
(0.439537 0.357039 -5.88092e-22)
(0.373547 -0.161964 1.0324e-22)
(2.26827 -0.442881 -6.5751e-21)
(1.33797 0.50697 -2.29379e-22)
(1.47953 0.368989 1.98569e-22)
(1.81864 0.168206 4.87161e-22)
(1.21047 0.474772 9.80298e-22)
(1.56602 0.321461 -3.70962e-22)
(1.90343 0.119092 -1.71961e-22)
(1.99917 0.0676253 -5.49176e-22)
(1.62871 0.0555096 3.2573e-22)
(1.29804 0.453207 -1.33747e-21)
(1.65112 0.270971 2.29762e-23)
(1.27015 0.599838 -2.75015e-22)
(2.09614 0.00790398 4.54249e-21)
(1.09295 0.44481 -1.8096e-21)
(0.781442 0.139034 1.22174e-21)
(2.20249 0.00988194 -7.48788e-21)
(1.14944 0.461779 -1.59052e-21)
(2.34931 0.255657 -1.78542e-21)
(1.3883 0.4145 4.7918e-22)
(1.73551 0.218948 2.4472e-22)
(2.47776 0.248029 1.05838e-21)
(1.93184 0.0156642 -4.63806e-22)
(1.7045 -0.000423612 3.43946e-22)
(2.08704 -0.322445 3.80798e-21)
(2.38329 -0.485884 -1.19229e-20)
(1.28342 0.234188 1.57138e-21)
(1.92427 -0.180741 -1.12871e-21)
(2.22505 0.26235 -1.85571e-21)
(1.46608 0.156015 1.0861e-21)
(1.37736 0.201153 1.2005e-21)
(2.094 0.0686531 -1.64212e-21)
(1.93736 -0.0788993 1.30849e-21)
(2.30008 -0.0439524 -4.55719e-21)
(1.4252 0.465391 5.99446e-22)
(1.76582 0.268308 -1.04973e-21)
(2.29422 -0.127081 -1.47224e-21)
(2.39474 -0.0925498 -1.58863e-20)
(0.797007 0.630856 1.02938e-21)
(1.50991 0.419338 -1.77305e-21)
(1.03632 0.706826 -1.77671e-22)
(1.87372 0.349222 2.62353e-22)
(0.287084 0.346628 -4.0147e-22)
(2.20175 -0.0707851 9.14046e-21)
(0.876224 0.670367 1.93952e-22)
(2.31707 0.0371622 -9.84247e-21)
(0.0717894 0.223132 3.77269e-22)
(0.956425 0.693999 -4.15873e-22)
(1.77493 0.382658 -4.54436e-22)
(3.16628 -0.118009 -9.97943e-21)
(1.08665 0.244814 -6.65519e-21)
(0.154867 0.248715 -1.34499e-23)
(0.58832 0.402397 -3.31949e-23)
(1.18996 0.689618 2.10121e-21)
(2.10785 -0.10444 -3.99687e-22)
(1.6812 0.318233 3.23922e-22)
(1.8587 -0.02199 7.59867e-22)
(1.78119 0.034224 -1.91593e-22)
(3.03864 -0.0697478 -4.24407e-20)
(0.558469 -0.0447608 -5.35897e-21)
(2.69535 -0.0940653 5.61348e-20)
(2.10499 -0.205181 4.32968e-22)
(0.956569 0.545129 -7.36765e-21)
(1.11366 0.708526 -1.38651e-21)
(2.73457 0.124596 -2.59487e-20)
(0.796841 0.369689 -5.75867e-21)
(2.67411 -0.183421 4.20723e-21)
(0.380818 0.359636 1.16046e-21)
(2.98561 -0.193162 1.95749e-20)
(1.60287 0.228088 -1.18363e-23)
(2.7669 -0.147739 3.26166e-20)
(2.88313 0.148351 -2.14309e-20)
(0.312716 0.348656 -9.92255e-22)
(1.97725 0.313906 2.6697e-21)
(1.59548 0.369271 5.94943e-22)
(2.97765 0.162481 -2.07292e-20)
(1.59747 0.468411 -5.20064e-22)
(2.88546 -0.16826 -7.19529e-21)
(0.987516 0.222244 1.57086e-21)
(1.95128 0.171201 5.95922e-21)
(2.39705 -0.351111 5.3192e-21)
(1.24537 0.339604 -2.34838e-21)
(2.43258 -0.0250775 4.24181e-20)
(3.16778 -0.154232 -2.43952e-20)
(2.29552 -0.219674 -4.69677e-21)
(2.60274 -0.392182 1.35858e-20)
(2.59989 -0.0273439 -1.01579e-19)
(3.00034 0.0928618 1.75575e-20)
(0.654 0.522007 1.82908e-21)
(0.0446447 -0.0312646 -7.05453e-22)
(1.03544 0.547073 7.90319e-22)
(2.69602 -0.276541 -1.52184e-20)
(1.51365 0.519321 6.31403e-22)
(1.43581 0.516569 2.58751e-21)
(0.570972 0.285482 -3.02354e-21)
(1.85088 -0.118898 5.29955e-22)
(0.295915 -0.0760914 1.84611e-22)
(1.69061 0.367356 -3.50279e-22)
(2.72409 0.234532 -3.62985e-21)
(2.58384 -0.210384 -3.7314e-20)
(0.335243 0.358218 -1.72945e-22)
(2.96753 -0.117199 5.31443e-21)
(0.556204 0.452576 -5.56162e-21)
(0.723374 0.560301 9.61482e-21)
(3.1961 -0.0841788 -1.10642e-20)
(2.40265 0.128444 4.86934e-21)
(2.76309 -0.0219609 -4.54318e-20)
(2.4597 -0.155619 3.83418e-21)
(0.478306 0.369215 -5.56803e-22)
(0.0948809 0.257905 -4.5098e-22)
(1.2685 0.657576 -1.6682e-21)
(2.09558 0.28663 1.78e-21)
(3.19708 -0.093372 8.2469e-22)
(0.766284 0.468685 -1.36859e-20)
(1.24997 0.539449 3.75035e-22)
(0.504797 0.335052 -1.84337e-20)
(3.1231 -0.124365 1.50649e-20)
(1.22861 0.406505 3.03697e-21)
(0.219639 0.241751 -1.54661e-21)
(3.20142 -0.0341574 -1.1613e-21)
(0.210384 0.193621 -1.62641e-21)
(3.18826 -0.0268727 -4.16415e-21)
(2.08831 0.131265 5.95238e-22)
(1.85093 0.220596 2.17086e-21)
(2.20379 -0.169247 -2.92002e-21)
(0.261877 0.0079407 1.4327e-21)
(2.19658 -0.268881 -2.75557e-21)
(0.437321 0.400657 2.44748e-21)
(3.16599 -0.0551682 -2.97241e-20)
(2.5328 -0.111993 5.818e-20)
(2.50452 -0.34177 6.10004e-21)
(0.0885383 0.0118062 -3.71626e-22)
(0.895441 0.411836 1.3757e-20)
(1.35331 0.290897 -6.73986e-22)
(0.446159 0.393626 4.89101e-22)
(0.202936 0.33055 -7.15573e-22)
(0.889849 0.184677 -1.35267e-21)
(0.345972 -0.104024 7.34053e-23)
(0.63687 0.223946 -5.98332e-21)
(0.466891 -0.00566359 3.67483e-21)
(1.03834 0.61536 5.47712e-21)
(0.249179 0.335169 -4.38088e-22)
(3.14086 -0.151553 -5.55466e-21)
(0.254516 0.332359 1.50816e-21)
(1.16538 0.552984 -2.11636e-21)
(2.89512 -0.00926144 6.63489e-20)
(0.869317 0.60267 6.76617e-21)
(0.495689 0.184288 2.06046e-20)
(3.16229 -0.153743 2.26335e-20)
(0.22936 0.334166 2.28523e-21)
(2.8952 -0.266045 1.9307e-20)
(0.0656783 0.142897 -2.12403e-21)
(0.729054 0.226095 1.07516e-20)
(2.87789 -0.371378 -2.59487e-20)
(0.212934 0.32742 4.9302e-22)
(2.76136 -0.421554 -1.42904e-21)
(3.0105 0.0222748 2.92898e-22)
(1.7687 0.12247 7.32108e-22)
(0.295915 0.355564 -9.02666e-23)
(0.482582 0.414444 -5.42648e-23)
(0.24464 -0.143643 2.58795e-23)
(2.01497 0.152056 -1.00594e-20)
(3.16922 -0.153945 8.35161e-21)
(1.1874 0.626449 -6.62191e-22)
(3.20453 -0.0994648 3.6881e-21)
(0.114392 -0.109951 -5.76415e-22)
(1.42893 0.568291 -5.76225e-22)
(0.173374 -0.162703 -6.58288e-22)
(1.33146 0.370339 1.17086e-21)
(3.19292 0.0453821 -9.75342e-21)
(2.29091 -0.319947 -4.78639e-21)
(3.20424 -0.0921347 -7.73221e-21)
(2.49724 0.0435246 2.08994e-20)
(0.121185 -0.140937 2.16021e-21)
(3.20401 -0.0874608 1.10889e-20)
(0.389414 0.384152 -1.67373e-22)
(0.304464 0.279892 4.42864e-21)
(3.20247 -0.0827045 5.43054e-22)
(2.93853 0.0707504 2.78941e-21)
(0.259546 0.345934 -1.29224e-22)
(2.49491 -0.470848 -1.58791e-20)
(1.44685 0.243486 -3.51713e-22)
(0.594205 0.133393 -1.0732e-20)
(1.68665 0.175838 5.34907e-24)
(3.07963 -0.0341771 2.27722e-20)
(0.421726 0.373166 2.04642e-22)
(2.19053 0.0899894 1.48279e-21)
(3.20025 -0.0770091 -1.79684e-23)
(3.20926 -0.107672 -2.11398e-21)
(3.20707 -0.0975552 -1.35795e-21)
(3.12381 0.0565457 -2.34231e-20)
(0.174169 0.325793 1.21533e-21)
(2.37941 -0.161331 -7.22708e-21)
(0.120552 0.207251 1.99311e-21)
(2.15835 0.18084 8.01451e-22)
(3.18103 -0.0864172 4.38841e-21)
(3.20644 -0.113341 8.78775e-22)
(3.13991 0.0869598 1.65515e-20)
(0.659924 0.389938 2.36441e-20)
(3.20107 -0.0710532 -3.16375e-22)
(1.10494 0.549691 4.67331e-22)
(1.42298 0.32709 5.56944e-22)
(0.503601 0.396157 1.9694e-22)
(2.51736 0.124225 3.473e-21)
(0.286529 0.323113 1.52776e-22)
(0.418298 -0.149181 5.43627e-22)
(0.411929 -0.0979405 -3.12716e-22)
(1.10149 0.634764 -1.19025e-21)
(1.68277 0.424337 -4.88204e-23)
(0.336587 -0.0311363 -8.47942e-22)
(3.20978 -0.102517 3.72034e-21)
(0.332404 0.310411 3.69777e-23)
(0.247734 -0.192552 -1.88763e-21)
(0.873683 0.516087 1.17375e-21)
(1.53758 0.194081 -6.40279e-23)
(2.04694 0.217334 -8.65051e-23)
(3.07384 0.022185 1.30953e-20)
(0.420602 0.234043 -3.38713e-20)
(2.66164 -0.436299 -4.36257e-21)
(3.203 -0.0670887 -1.13397e-22)
(0.0823441 -0.0776626 -7.99781e-22)
(1.95178 0.254793 -1.2859e-21)
(0.990527 0.438796 -6.64557e-21)
(0.699085 0.313712 -7.16104e-21)
(2.80013 -0.315218 -2.21228e-21)
(3.12737 0.0134606 -3.21034e-22)
(0.461797 -0.140973 -2.49831e-22)
(1.77664 -0.0579399 5.15786e-22)
(0.218931 0.276478 4.86907e-23)
(1.34754 0.61551 1.05071e-21)
(2.61687 0.128076 -9.16981e-21)
(3.13489 -0.206192 -5.45078e-21)
(0.211672 -0.179946 -4.45073e-22)
(0.357475 0.369239 1.65726e-22)
(2.83955 -0.0834497 -6.43437e-20)
(0.4313 0.101723 -2.85378e-22)
(2.39161 -0.248069 6.17586e-21)
(2.59822 0.245493 -2.05037e-21)
(0.17347 -0.0238429 -1.78218e-21)
(1.51546 0.27875 3.49447e-23)
(0.517034 0.38254 2.7834e-23)
(3.20106 -0.119007 -6.19941e-22)
(3.18531 0.0030883 -4.80619e-21)
(0.147607 0.318805 5.16634e-22)
(3.20374 -0.0626632 -1.93662e-23)
(0.520807 0.0584524 -3.01993e-22)
(0.112329 0.139416 2.82389e-21)
(3.08477 -0.273747 -8.78533e-22)
(0.49259 -0.0729031 7.46619e-22)
(0.499766 -0.133919 -2.71277e-22)
(3.19641 -0.0628954 4.67037e-22)
(2.7935 -0.234784 1.41138e-20)
(0.232385 0.0992399 4.69419e-21)
(0.200097 -0.169259 -7.77775e-22)
(0.125541 -0.131676 -4.23368e-22)
(0.547012 -0.114569 -1.37917e-22)
(0.0766238 -0.0574653 -1.27804e-22)
(0.124047 0.305009 -1.31901e-21)
(0.230451 0.315723 -8.01072e-22)
(0.390217 0.360377 1.3401e-22)
(0.0370389 -0.0190845 8.05514e-22)
(0.0562618 -0.0487981 -1.17735e-21)
(0.302754 0.324886 8.15686e-22)
(0.301029 0.0688133 -1.20528e-21)
(0.0205422 0.104051 2.24789e-22)
(0.551597 0.392705 3.30004e-22)
(3.18915 -0.130335 -4.76424e-21)
(0.52828 -0.125533 -5.05192e-22)
(3.15742 0.0281719 7.53068e-22)
(0.0273092 0.00829804 -2.3128e-22)
(3.20382 -0.057317 -7.31355e-23)
(3.1949 -0.123718 1.86374e-21)
(3.14432 -0.147151 -1.78476e-21)
(3.21008 -0.0468525 -2.13756e-22)
(3.13094 -0.025746 -1.35779e-20)
(0.28864 -0.159035 -3.87358e-22)
(0.434951 -0.126004 1.24747e-21)
(0.15702 -0.148534 7.55106e-23)
(0.243838 0.340281 -7.81681e-22)
(0.118454 -0.0794514 -4.34944e-24)
(0.464548 0.385743 -2.35352e-22)
(0.124544 -0.0227085 8.86586e-22)
(0.10534 0.285304 -6.88715e-22)
(0.281601 0.178742 1.19242e-20)
(2.60318 -0.308617 -2.67769e-21)
(0.115573 0.285131 7.89513e-22)
(3.17099 -0.140428 5.51875e-21)
(0.270479 0.338615 -1.04631e-22)
(0.0885389 0.258635 1.00505e-21)
(3.21365 -0.041875 -3.2737e-21)
(3.1219 -0.156592 -7.37473e-21)
(0.538181 0.41336 -1.12435e-21)
(0.0234534 0.0460675 -6.58199e-22)
(0.127353 0.0548043 -1.00951e-21)
(0.0390434 0.0770188 8.80856e-23)
(0.382687 -0.132301 -3.91499e-22)
(0.180032 0.328489 -1.24795e-23)
(0.0168444 0.0807482 8.42634e-22)
(0.312659 0.343941 3.20636e-22)
(3.19804 -0.122895 -1.18339e-21)
(0.376542 0.0310305 1.76508e-21)
(3.20542 -0.106541 4.50588e-22)
(3.18297 -0.130472 7.1197e-21)
(3.20503 -0.0519248 -2.35919e-23)
(3.20762 -0.0462664 5.02912e-21)
(3.1664 -0.137874 -3.24959e-21)
(3.20022 -0.0566566 -9.1521e-22)
(3.12925 -0.204344 -5.38183e-21)
(0.955126 0.630302 -2.2303e-22)
(0.539592 0.45092 3.07488e-21)
(0.290989 -0.126292 -6.41539e-22)
(0.239455 -0.177696 2.9671e-22)
(3.19973 -0.0611309 1.19848e-21)
(0.332453 -0.146602 1.13884e-21)
(3.21115 -0.0342563 -1.51817e-20)
(0.0230828 0.104766 -1.32574e-22)
(0.231042 -0.0468721 1.36987e-22)
(0.0663856 0.222213 -1.91209e-22)
(0.414862 -0.0524003 2.94089e-22)
(0.382826 0.381653 -7.42272e-22)
(3.18387 -0.073651 2.19126e-20)
(0.0849954 0.0784428 4.22879e-22)
(3.20328 -0.114844 2.02317e-22)
(2.70205 -0.353302 -4.98439e-21)
(0.525002 0.433755 1.98001e-22)
(0.151683 0.317101 -7.42863e-23)
(0.0590956 0.144117 3.59695e-22)
(3.10725 -0.180401 1.28372e-20)
(0.0669009 0.188437 -9.30908e-22)
(0.131166 0.303039 5.76339e-23)
(0.313513 0.356238 1.21383e-21)
(0.15845 -0.0992692 -1.08183e-22)
(0.349986 0.262798 -4.33244e-21)
(0.160439 -0.0567167 -4.9119e-23)
(3.19386 -0.0477491 8.32405e-21)
(0.232363 -0.196653 -5.07411e-23)
(0.17762 0.308306 -4.40135e-22)
(0.200678 -0.0743128 2.62064e-22)
(0.5804 -0.0836783 2.61824e-21)
(3.23157 -0.00677125 -1.47718e-20)
(0.61969 0.457809 -1.53566e-21)
(0.602817 0.418784 2.68659e-21)
(3.10374 -0.171894 -1.71168e-20)
(0.482789 -0.12204 2.59619e-22)
(0.484846 -0.412945 1.03546e-21)
(0.512561 -0.413752 -8.89823e-23)
(0.569125 -0.421228 -5.6739e-22)
(0.607496 -0.42708 3.00467e-22)
(0.645619 -0.428506 -3.26395e-22)
(0.67688 -0.427293 -8.85942e-22)
(0.707514 -0.424144 1.66744e-22)
(0.735243 -0.420154 2.21109e-22)
(0.764701 -0.414274 2.37759e-22)
(0.51816 -0.405306 -7.87001e-22)
(0.546003 -0.404561 -8.78534e-23)
(0.599821 -0.411247 4.53017e-22)
(0.638466 -0.417751 -7.97742e-22)
(0.67517 -0.420217 6.53886e-22)
(0.706353 -0.420659 1.0176e-21)
(0.735821 -0.419208 -6.23554e-22)
(0.762826 -0.416884 6.86313e-22)
(0.788804 -0.413135 -3.41423e-22)
(0.552221 -0.389689 1.92023e-21)
(0.57923 -0.389016 4.47301e-22)
(0.630572 -0.395909 -8.7808e-22)
(0.669002 -0.40285 4.11935e-22)
(0.704663 -0.406386 -9.91976e-22)
(0.735365 -0.408177 -1.28468e-22)
(0.76392 -0.408302 -2.57629e-23)
(0.790047 -0.407598 -3.18836e-22)
(0.81452 -0.406073 -4.92333e-22)
(0.5859 -0.368039 -8.55634e-22)
(0.611234 -0.368135 1.95612e-22)
(0.660325 -0.375604 5.98207e-22)
(0.698244 -0.383149 2.57133e-23)
(0.733025 -0.38779 4.01761e-22)
(0.76332 -0.390835 1.09282e-21)
(0.791153 -0.39229 -6.57594e-22)
(0.816549 -0.392847 1.11644e-22)
(0.840222 -0.392677 2.01649e-22)
(0.617968 -0.342282 1.27426e-22)
(0.640717 -0.342846 -1.22816e-22)
(0.687823 -0.351095 2.53383e-23)
(0.725256 -0.35932 -1.88663e-22)
(0.759373 -0.36508 1.00456e-22)
(0.789351 -0.369265 -2.36626e-22)
(0.816713 -0.371912 8.09941e-23)
(0.841682 -0.373568 3.69799e-22)
(0.865063 -0.374242 7.77965e-23)
(0.647071 -0.314074 1.0676e-22)
(0.666822 -0.314283 -2.68755e-22)
(0.712204 -0.323406 5.74352e-23)
(0.749326 -0.332125 3.87536e-22)
(0.783016 -0.338929 -1.21621e-22)
(0.812818 -0.344153 -1.69345e-22)
(0.839907 -0.34792 -6.99422e-23)
(0.864641 -0.350641 -5.5021e-22)
(0.887677 -0.352541 2.661e-22)
(0.671295 -0.285223 7.7557e-23)
(0.689282 -0.283571 1.94016e-22)
(0.733112 -0.293481 5.29169e-23)
(0.770088 -0.302269 -1.67574e-22)
(0.80352 -0.309929 3.4341e-23)
(0.833264 -0.316038 -2.45242e-24)
(0.860232 -0.320805 1.3133e-22)
(0.884843 -0.324501 -1.28332e-22)
(0.907725 -0.32747 -1.0067e-22)
(0.689641 -0.254476 -8.50068e-23)
(0.70851 -0.250924 9.79301e-23)
(0.750697 -0.26157 8.91125e-25)
(0.787435 -0.270143 -3.34178e-24)
(0.820638 -0.278493 -4.27566e-23)
(0.850395 -0.285339 1.612e-22)
(0.87737 -0.290972 1.92259e-22)
(0.901981 -0.295574 -2.00006e-22)
(0.924917 -0.299017 6.29892e-23)
(0.703003 -0.219248 4.33891e-23)
(0.724647 -0.215515 -1.4242e-23)
(0.764909 -0.227286 -2.17149e-23)
(0.801187 -0.235838 -1.3993e-23)
(0.834153 -0.244869 -1.36081e-23)
(0.863993 -0.252355 -5.88913e-24)
(0.891103 -0.258711 -3.52662e-24)
(0.9159 -0.263956 1.74671e-22)
(0.938862 -0.268352 -1.02931e-23)
(0.712036 -0.179903 -6.40796e-23)
(0.736934 -0.177198 -1.94079e-23)
(0.775147 -0.190603 2.21852e-23)
(0.810941 -0.199574 3.41713e-23)
(0.8438 -0.209342 -1.17752e-23)
(0.873877 -0.217372 1.46533e-23)
(0.901315 -0.224263 9.95394e-24)
(0.926486 -0.229924 4.21614e-23)
(0.94984 -0.23451 -2.00827e-23)
(0.716369 -0.137609 1.24724e-22)
(0.744365 -0.136688 4.00408e-23)
(0.780653 -0.152226 -4.83865e-23)
(0.81627 -0.16192 -1.37619e-23)
(0.849349 -0.172353 -2.30033e-24)
(0.879919 -0.180756 1.4031e-23)
(0.907944 -0.187965 -7.29984e-25)
(0.933787 -0.193803 -1.64506e-23)
(0.957842 -0.198544 -1.96455e-23)
(0.716591 -0.0943637 -2.33587e-22)
(0.746301 -0.0960052 -5.96334e-23)
(0.780957 -0.113705 8.35022e-23)
(0.817015 -0.123827 -1.724e-23)
(0.850751 -0.134483 2.62048e-24)
(0.882083 -0.142894 -2.92751e-23)
(0.910894 -0.150103 2.86612e-24)
(0.937552 -0.155857 1.28627e-23)
(0.962525 -0.161129 1.11577e-25)
(0.711416 -0.0534175 -5.50244e-23)
(0.741525 -0.0581722 1.78175e-23)
(0.776537 -0.0764718 1.2447e-24)
(0.813623 -0.0861283 -1.20871e-23)
(0.8483 -0.0961739 9.20891e-24)
(0.880527 -0.104017 8.99285e-24)
(0.910204 -0.110734 1.32663e-23)
(0.937711 -0.116157 -1.72754e-23)
(0.963838 -0.120763 1.25802e-23)
(0.697117 -0.0158259 7.17121e-23)
(0.731746 -0.0224897 -6.20395e-24)
(0.768612 -0.0401683 5.95641e-24)
(0.806853 -0.0486317 -1.72453e-23)
(0.842452 -0.0573398 3.13454e-24)
(0.875524 -0.0640772 1.91137e-24)
(0.906035 -0.069815 1.03961e-23)
(0.934394 -0.0744259 -1.85358e-24)
(0.961249 -0.0777924 -5.61887e-24)
(0.675237 0.0210651 -2.14415e-22)
(0.717521 0.0131788 5.29403e-23)
(0.757454 -0.00330526 -4.29883e-23)
(0.796964 -0.0104159 5.44938e-23)
(0.833385 -0.0174561 -6.97077e-24)
(0.867177 -0.0227997 -1.97115e-23)
(0.898438 -0.0272673 -1.18778e-23)
(0.92764 -0.0306978 -1.392e-23)
(0.955366 -0.0329944 2.69703e-23)
(0.646679 0.0587124 -1.69499e-22)
(0.698629 0.0500461 -7.71079e-23)
(0.742608 0.0355303 5.9829e-23)
(0.783614 0.0295413 -7.03429e-23)
(0.820836 0.024108 -2.66588e-23)
(0.855264 0.0201492 1.55828e-23)
(0.887179 0.0170228 2.8476e-24)
(0.917086 0.0148996 -3.9171e-23)
(0.945432 0.0135985 2.1516e-23)
(0.612304 0.0994178 -3.49507e-22)
(0.674394 0.0895688 6.98929e-23)
(0.723137 0.0773913 -2.8832e-23)
(0.765948 0.0719242 4.07101e-23)
(0.80413 0.0676912 4.65979e-23)
(0.839264 0.0648697 -1.88411e-22)
(0.871854 0.0629833 1.18149e-22)
(0.902451 0.0622182 2.55402e-23)
(0.931763 0.0618417 -1.29674e-23)
(0.577582 0.141881 6.35571e-22)
(0.643289 0.131646 -1.09362e-22)
(0.697538 0.121691 4.49006e-23)
(0.742783 0.116309 -7.48708e-23)
(0.782392 0.112836 -1.22753e-23)
(0.818534 0.11089 1.77959e-22)
(0.851981 0.11011 -1.90808e-23)
(0.883354 0.110562 5.90942e-23)
(0.91345 0.111736 4.1739e-23)
(0.546299 0.181056 1.32361e-22)
(0.6082 0.171832 3.82266e-23)
(0.665906 0.165275 9.30677e-23)
(0.713761 0.160558 2.52387e-22)
(0.755199 0.158005 -6.24306e-23)
(0.792679 0.156983 -9.22036e-23)
(0.82721 0.15729 -9.69753e-23)
(0.859535 0.158828 -1.03898e-22)
(0.890493 0.161358 2.03675e-23)
(0.516978 0.214584 -1.20755e-22)
(0.57157 0.207186 1.03713e-24)
(0.630235 0.205058 -2.90145e-22)
(0.67989 0.202288 3.01886e-23)
(0.723027 0.201335 -1.23849e-22)
(0.76189 0.20167 8.37282e-23)
(0.797561 0.203334 4.7257e-22)
(0.83082 0.206228 6.88894e-23)
(0.862471 0.210162 2.97858e-23)
(0.48856 0.243361 -2.35491e-22)
(0.534918 0.237673 7.14625e-22)
(0.59262 0.23979 -3.58739e-22)
(0.642734 0.239969 2.96856e-22)
(0.686958 0.241281 -2.09996e-22)
(0.726922 0.243476 3.3736e-23)
(0.763632 0.246808 -1.847e-22)
(0.79789 0.25119 -1.36843e-22)
(0.830353 0.256998 3.66138e-23)
(0.460189 0.267785 -6.73851e-22)
(0.498432 0.263668 -5.79857e-22)
(0.554378 0.26912 9.63699e-22)
(0.603676 0.27283 -1.00706e-22)
(0.648162 0.276821 6.35424e-22)
(0.688679 0.281267 -1.84816e-22)
(0.726093 0.286527 -5.23852e-23)
(0.761277 0.292498 7.98218e-23)
(0.793978 0.300938 -2.43952e-23)
(0.432002 0.286062 2.9437e-22)
(0.462441 0.285244 3.69728e-22)
(0.516584 0.293191 -5.9858e-22)
(0.564 0.300794 -5.33731e-22)
(0.607883 0.307563 -4.68601e-22)
(0.648283 0.314383 3.52646e-23)
(0.685914 0.321582 1.28307e-22)
(0.721731 0.329264 -3.14393e-22)
(0.754803 0.339803 7.25206e-22)
(0.403458 0.29683 -1.53387e-22)
(0.427183 0.302453 -4.07154e-23)
(0.479074 0.312249 2.13187e-22)
(0.523672 0.32358 -3.32263e-22)
(0.56614 0.332848 5.22749e-22)
(0.60587 0.341996 1.03493e-22)
(0.643359 0.351069 -5.65142e-22)
(0.679955 0.360523 5.7825e-22)
(0.713602 0.375293 -1.01532e-22)
(0.372217 0.303865 -5.75613e-22)
(0.394321 0.319578 -5.34667e-24)
(0.444003 0.331759 -9.2288e-24)
(0.485986 0.344899 3.2684e-22)
(0.526546 0.355387 -1.23192e-22)
(0.564684 0.365654 3.84509e-22)
(0.60115 0.375206 -1.72965e-22)
(0.639142 0.384196 2.86886e-22)
(0.676046 0.400825 1.55697e-22)
(0.405823 0.393969 -2.74804e-22)
(0.399929 0.393153 -3.16161e-22)
(0.394038 0.390926 -8.65747e-22)
(0.387597 0.387893 1.20094e-21)
(0.380288 0.383868 -8.93605e-22)
(0.371971 0.378775 6.62219e-22)
(0.362552 0.372473 2.70743e-22)
(0.351935 0.364811 -4.58034e-23)
(0.340044 0.35563 -4.75792e-22)
(0.326842 0.344765 -2.35204e-22)
(0.312333 0.332042 2.36355e-22)
(0.296456 0.317377 -3.02643e-22)
(0.279098 0.300971 7.89083e-22)
(0.260296 0.283008 -2.04789e-21)
(0.240304 0.263586 3.64563e-21)
(0.219493 0.24279 -4.21671e-21)
(0.198276 0.220705 3.8706e-21)
(0.177062 0.197454 -1.71813e-21)
(0.156241 0.173222 -5.8072e-22)
(0.136139 0.148262 6.19137e-22)
(0.116963 0.122906 -2.16871e-22)
(0.098675 0.0975221 4.61392e-22)
(0.0809686 0.0727004 4.63588e-23)
(0.0637559 0.0492905 -6.55962e-22)
(0.0497627 0.0264142 5.14319e-22)
(0.0416008 0.0030105 -2.7736e-22)
(0.0388357 -0.0210749 3.39251e-22)
(0.0419436 -0.0461472 2.72668e-22)
(0.0475962 -0.0725685 -3.18825e-22)
(0.0530209 -0.0999814 8.58273e-24)
(0.0590661 -0.127536 -2.91341e-22)
(0.0664614 -0.154761 2.55454e-22)
(0.075568 -0.18142 4.91197e-22)
(0.0863633 -0.207307 -3.83054e-22)
(0.0986653 -0.232053 5.51288e-22)
(0.112274 -0.255481 -9.13415e-22)
(0.126907 -0.277406 6.16029e-23)
(0.142242 -0.29768 2.01234e-22)
(0.157959 -0.316192 -2.96499e-22)
(0.173757 -0.332882 6.68873e-22)
(0.189352 -0.347733 -3.77281e-22)
(0.20483 -0.360622 -1.67309e-21)
(0.220806 -0.371387 3.34885e-21)
(0.237606 -0.380106 -3.60293e-21)
(0.255148 -0.387049 3.12501e-21)
(0.273301 -0.392497 -1.82937e-21)
(0.29187 -0.396736 9.55969e-22)
(0.310603 -0.40001 -3.15175e-22)
(0.32924 -0.402515 3.26749e-22)
(0.347451 -0.404426 -3.17955e-22)
(0.364922 -0.405917 -4.85908e-22)
(0.381394 -0.407118 -1.70972e-22)
(0.396694 -0.40813 2.21338e-22)
(0.410749 -0.40902 6.14881e-22)
(0.423554 -0.40982 -9.12016e-22)
(0.43515 -0.410546 1.18557e-21)
(0.445601 -0.411197 -7.90171e-22)
(0.454963 -0.411774 -2.93143e-22)
(0.463369 -0.412328 -2.23775e-22)
(0.414653 0.337837 -3.00404e-23)
(0.407555 0.333654 -2.98604e-23)
(0.400332 0.328769 7.06688e-24)
(0.392765 0.32323 -1.01228e-22)
(0.384768 0.317003 -1.06927e-22)
(0.376312 0.310049 4.04329e-22)
(0.367355 0.302339 -6.4109e-23)
(0.357856 0.293846 1.39514e-22)
(0.347775 0.284554 -4.95405e-22)
(0.337076 0.274448 -2.43268e-23)
(0.325612 0.263599 2.37175e-22)
(0.313072 0.252299 2.26269e-22)
(0.299173 0.240699 -6.93777e-22)
(0.283869 0.228755 8.24817e-22)
(0.267377 0.216206 -8.66012e-22)
(0.250016 0.202694 3.50315e-22)
(0.232036 0.188099 5.66265e-22)
(0.213653 0.172309 -3.15027e-22)
(0.195115 0.155249 -6.28815e-23)
(0.176683 0.136883 4.59506e-23)
(0.158613 0.117199 6.78307e-24)
(0.141167 0.0961603 1.3824e-22)
(0.124771 0.0736029 -5.02427e-23)
(0.11031 0.0490075 -5.56151e-23)
(0.0990471 0.0221368 1.37743e-22)
(0.0911633 -0.00634452 -4.45508e-23)
(0.0867207 -0.0356058 1.08877e-24)
(0.0858623 -0.0647879 1.6188e-23)
(0.0884857 -0.0931678 2.31595e-23)
(0.0932098 -0.120764 2.83351e-25)
(0.0994986 -0.147806 -1.99939e-23)
(0.107418 -0.174271 -1.636e-23)
(0.117131 -0.199933 4.44254e-25)
(0.128498 -0.224592 5.86922e-23)
(0.141312 -0.248062 -1.3974e-22)
(0.155377 -0.270204 4.8805e-23)
(0.170477 -0.290922 -9.92249e-23)
(0.186392 -0.310168 9.60105e-23)
(0.202935 -0.32794 6.7505e-25)
(0.21997 -0.344264 -2.15558e-23)
(0.237453 -0.359186 -5.3399e-23)
(0.255447 -0.372706 -1.0962e-23)
(0.274009 -0.384719 -8.67118e-23)
(0.293053 -0.395082 -9.47741e-23)
(0.312375 -0.403706 1.28141e-22)
(0.331722 -0.410578 -1.21727e-22)
(0.350809 -0.415742 5.11687e-23)
(0.369117 -0.419494 2.26887e-23)
(0.386234 -0.42211 -6.3909e-23)
(0.402016 -0.42375 1.7649e-23)
(0.41639 -0.424635 1.08767e-22)
(0.429348 -0.424939 -2.18866e-23)
(0.441115 -0.424715 4.36276e-23)
(0.451904 -0.424019 -1.5805e-22)
(0.46181 -0.42296 2.63041e-23)
(0.470933 -0.42167 5.64986e-23)
(0.479256 -0.420276 -5.78959e-23)
(0.48683 -0.418864 1.11226e-23)
(0.493809 -0.417499 -1.7687e-23)
(0.477134 0.30987 -2.29937e-22)
(0.470614 0.304877 5.7046e-23)
(0.463812 0.299204 -1.69195e-22)
(0.456732 0.292922 -2.77432e-23)
(0.449288 0.285999 5.68758e-22)
(0.441423 0.278463 -1.71316e-22)
(0.433078 0.270353 -3.40241e-22)
(0.424188 0.261718 -2.22858e-25)
(0.414674 0.252626 2.01064e-22)
(0.404441 0.243164 -5.017e-23)
(0.393364 0.233438 5.62391e-22)
(0.381321 0.223503 -6.91044e-22)
(0.368257 0.213252 6.31943e-22)
(0.354197 0.202511 -8.66693e-23)
(0.339228 0.191032 -5.98416e-22)
(0.323429 0.178688 1.92133e-22)
(0.306886 0.16537 7.46088e-22)
(0.289745 0.150951 -2.67361e-22)
(0.272216 0.135297 -7.46033e-23)
(0.254564 0.118274 2.61701e-23)
(0.237109 0.0997466 -1.94592e-22)
(0.220234 0.0795749 4.06512e-23)
(0.204428 0.0576166 -5.58327e-22)
(0.190327 0.0337918 6.68521e-22)
(0.178719 0.00826459 -2.54126e-22)
(0.170226 -0.0185565 1.16084e-23)
(0.165113 -0.0462068 3.79289e-23)
(0.163395 -0.0741694 -1.59546e-22)
(0.164705 -0.101867 1.02947e-22)
(0.168451 -0.128954 5.2696e-23)
(0.174229 -0.155353 1.16866e-22)
(0.181829 -0.180995 -1.24034e-22)
(0.191128 -0.205746 5.16938e-23)
(0.201988 -0.229448 6.56219e-23)
(0.214245 -0.251971 -2.50488e-22)
(0.227728 -0.273214 6.83296e-22)
(0.242257 -0.293105 -4.42724e-22)
(0.257662 -0.311601 -8.88012e-23)
(0.273796 -0.328685 -1.23655e-22)
(0.290541 -0.344353 -4.31109e-23)
(0.307811 -0.358598 -1.86408e-22)
(0.325539 -0.371389 -3.43981e-22)
(0.343633 -0.382668 7.59836e-22)
(0.361922 -0.392393 3.77491e-22)
(0.38016 -0.40057 -7.51225e-22)
(0.398063 -0.407264 -2.70467e-22)
(0.415345 -0.412575 7.98814e-22)
(0.431773 -0.416686 -9.4593e-22)
(0.44714 -0.419815 6.48109e-22)
(0.461416 -0.422153 -1.4522e-23)
(0.47465 -0.423833 2.94849e-22)
(0.486893 -0.425008 8.21097e-23)
(0.498182 -0.42578 -4.42199e-22)
(0.508718 -0.426121 -2.35972e-22)
(0.518548 -0.426081 7.1144e-22)
(0.527605 -0.425785 1.838e-24)
(0.535935 -0.425301 -1.90911e-22)
(0.543619 -0.424691 6.74883e-23)
(0.550709 -0.423978 -2.28811e-22)
(0.521688 0.290077 7.38834e-24)
(0.515337 0.285448 6.02764e-23)
(0.508691 0.280246 -1.52215e-23)
(0.501682 0.274484 -6.73385e-24)
(0.49422 0.268175 1.57899e-23)
(0.486245 0.261361 1.93379e-23)
(0.477691 0.254089 1.83635e-23)
(0.468499 0.246399 6.98668e-23)
(0.458611 0.238326 -4.49801e-23)
(0.447971 0.229893 -3.97212e-23)
(0.436529 0.221095 -5.00878e-23)
(0.424241 0.211893 6.93604e-23)
(0.411085 0.202207 -6.53502e-23)
(0.397074 0.191932 -1.90975e-23)
(0.382259 0.180951 -1.64842e-23)
(0.366724 0.169143 6.68398e-25)
(0.350583 0.156365 1.24496e-23)
(0.333997 0.142459 -2.12476e-23)
(0.317177 0.127258 -7.10663e-23)
(0.300385 0.110601 1.45782e-23)
(0.283941 0.0923401 -3.68954e-24)
(0.268224 0.0723564 -1.72476e-22)
(0.253676 0.0505792 8.701e-23)
(0.240796 0.0270229 1.30992e-22)
(0.230087 0.0018498 -9.60398e-23)
(0.221938 -0.0246153 1.21378e-23)
(0.216583 -0.0519522 1.11844e-22)
(0.2141 -0.0796985 -1.26296e-22)
(0.214393 -0.107408 4.06411e-23)
(0.217206 -0.13474 -1.10169e-23)
(0.222284 -0.161473 5.10115e-23)
(0.22942 -0.187437 -1.14729e-22)
(0.238435 -0.212472 8.1787e-23)
(0.249153 -0.236432 -4.86648e-24)
(0.261391 -0.259189 -8.89693e-23)
(0.274966 -0.280636 1.72395e-23)
(0.289696 -0.300691 9.65374e-23)
(0.305397 -0.319294 -1.26752e-23)
(0.3219 -0.336401 -4.80794e-23)
(0.339039 -0.351985 7.79957e-23)
(0.35665 -0.366023 -8.82717e-25)
(0.374559 -0.378499 -2.65832e-23)
(0.392573 -0.389406 1.65125e-22)
(0.41047 -0.398759 -1.59894e-22)
(0.428018 -0.406617 7.24269e-23)
(0.445002 -0.413081 1.51848e-24)
(0.461235 -0.418285 2.64586e-22)
(0.476583 -0.42239 -2.34279e-22)
(0.490984 -0.425562 1.22137e-22)
(0.504441 -0.427948 1.17781e-22)
(0.516993 -0.429665 1.50389e-22)
(0.52869 -0.43081 -1.39301e-22)
(0.539576 -0.431493 -2.7904e-23)
(0.549647 -0.431824 -5.14234e-23)
(0.558925 -0.431856 -9.26309e-23)
(0.567498 -0.431611 6.31427e-23)
(0.575429 -0.431132 -1.2639e-22)
(0.582754 -0.430479 2.55437e-22)
(0.589518 -0.429716 -6.85285e-23)
(0.5806 0.277914 -2.90851e-22)
(0.574891 0.272906 4.12769e-23)
(0.568759 0.267384 2.41559e-22)
(0.562159 0.261428 -1.6598e-22)
(0.554972 0.255048 3.8337e-23)
(0.54712 0.248289 1.44376e-22)
(0.538535 0.241187 -1.6311e-22)
(0.529155 0.233767 6.85442e-23)
(0.518937 0.226038 2.24015e-22)
(0.507854 0.21799 -5.18761e-23)