/*--------------------------------*- C++ -*----------------------------------*\
  =========                 |
  \\      /  F ield         | OpenFOAM: The Open Source CFD Toolbox
   \\    /   O peration     | Website:  https://openfoam.org
    \\  /    A nd           | Version:  10
     \\/     M anipulation  |
\*---------------------------------------------------------------------------*/
FoamFile
{
    format      ascii;
    class       volScalarField;
    location    "1550";
    object      epsilon;
}
// * * * * * * * * * * * * * * * * * * * * * * * * * * * * * * * * * * * * * //

dimensions      [0 2 -3 0 0 0 0];

internalField   nonuniform List<scalar> 
10435
(
0.546846
1.06095
0.667322
0.855731
1.02552
1.01562
0.618123
0.532304
0.472116
0.893982
1.15413
0.790839
0.889185
0.140253
0.171474
0.593599
0.116726
1.03301
0.41624
0.614533
0.559773
0.774253
0.622413
0.496275
0.798194
0.0279385
0.0451267
0.75767
0.0432793
0.97752
0.711756
1.16433
0.515556
0.0450596
0.557614
0.717708
0.595023
0.046209
0.0196049
0.441287
1.07247
0.624126
0.0679146
0.801437
0.635502
0.464305
1.02281
0.0530185
0.451243
0.656643
0.546911
0.838969
0.019004
0.0366178
0.0215328
0.0395579
0.587594
0.0496683
0.07847
0.533446
0.0211717
0.971813
0.050072
0.860494
0.630187
0.707571
0.0646404
0.0609766
0.545622
0.514177
0.0359575
0.0366544
0.0445726
0.673679
0.212826
0.0884837
0.550232
0.591836
0.496318
0.193205
0.638092
0.401211
0.0184359
0.0373985
0.613609
0.534579
0.592868
0.880198
0.324627
0.686917
0.915779
0.936573
0.464199
0.399302
0.766875
0.574259
0.914977
0.217319
0.0935347
0.947656
0.261872
1.11251
0.493022
0.830734
1.08167
0.837898
0.522381
0.651796
0.587251
0.234303
0.643716
1.14602
0.339331
0.282976
0.989006
0.756515
0.907067
0.650231
0.983023
0.864886
0.866695
0.0753938
0.759239
0.284269
1.27636
0.024641
0.890541
0.108526
0.959408
0.0430368
0.178718
1.29654
0.568792
0.159211
0.0408053
0.0174054
0.625136
0.852027
0.928704
0.720939
0.673052
0.673765
0.0561935
0.790471
0.772436
0.169126
0.449981
0.914145
0.114934
0.761985
0.0432127
0.641301
0.619625
0.749882
0.871418
0.0345158
1.23721
0.853707
0.887166
1.27795
0.703375
0.132153
1.02761
0.729151
0.266019
0.893224
0.514695
0.818324
0.668827
0.845753
0.795621
0.0314777
0.0416926
0.211069
0.725898
1.21925
0.853964
0.0792376
0.615644
0.0475189
1.12101
1.01651
0.787548
0.0231413
0.680529
0.049154
0.0651855
0.576932
1.015
0.799439
0.829985
0.0181356
0.0404637
0.807285
1.19053
0.559084
0.103209
0.422877
0.0666541
0.5965
0.295337
0.045942
0.814871
0.0494591
0.746259
1.04649
1.02127
0.838951
0.0522475
0.760849
0.0364149
0.63356
0.82518
0.733943
0.0450022
0.140276
0.326295
0.0234376
0.0283834
0.110877
0.0448783
0.0883978
0.0595952
0.226666
0.0315585
0.565862
0.0236509
0.323545
0.758042
0.116497
0.0729434
0.53937
0.0258588
0.651994
0.0464987
0.0986787
0.581175
0.0312192
0.596613
0.738361
0.753337
0.0277447
0.0255781
0.0391458
1.05263
0.490517
0.434626
0.542448
0.0336671
1.11809
0.0342397
0.365357
0.911363
0.741325
0.556053
0.919809
0.0305681
0.570747
0.0311641
0.0469557
0.588469
0.788331
0.0275232
0.622426
0.395993
0.0791009
0.692661
0.668716
0.0210552
1.00906
0.611177
0.51821
0.539915
0.764451
0.0311288
0.837934
0.0439807
1.0944
0.579507
0.507116
0.869452
0.086615
0.639934
0.255594
0.447021
0.0204201
0.965539
0.0215928
0.0381089
0.0463531
0.30769
1.30162
0.0529148
0.527938
0.0200143
0.0352948
0.131328
0.471767
1.13616
0.72081
0.0643848
0.618363
0.672854
0.036439
1.16085
0.174549
0.0982552
0.661501
0.712107
0.0384977
0.574808
0.0408424
0.975369
0.953595
0.500162
0.0358744
0.0244318
0.742864
0.0661047
0.799904
1.06224
0.0467734
0.535308
0.017864
0.494645
0.810697
0.0340789
0.709374
0.0682675
0.0473419
0.497375
0.0501624
0.0385445
0.650665
0.712818
0.0531149
0.036555
0.0349369
0.04149
0.0405495
0.0364825
0.0356664
0.0207312
0.0416237
0.0401413
0.0401239
0.0567613
0.0475231
0.0176292
0.481288
0.039301
0.77906
0.0442004
0.751802
0.480941
0.434556
0.897723
0.661519
0.038094
0.0417451
0.0357983
0.0253319
0.0397473
0.0206185
0.044425
0.0385976
0.0546243
0.735213
0.0376519
0.470787
0.0233551
0.040947
0.951201
0.407857
0.0210597
0.0447868
0.0480329
0.0462663
0.0411059
0.030746
0.0518769
0.0223868
0.504793
0.0593525
0.531009
0.468091
0.798804
0.850085
0.454546
0.715065
0.529376
0.165484
0.0368107
0.0418173
0.036693
0.682801
0.039702
0.954671
0.0495839
0.0478032
0.0425728
0.0523292
0.0266658
0.601304
0.0468679
0.518549
0.667154
0.0287473
0.033268
0.0464282
0.413202
0.0462566
0.0354276
0.0300139
0.0397531
0.0546751
0.0435569
0.703902
0.0360188
0.0339172
0.0437735
0.0475538
1.06136
0.0224302
0.0185194
0.372807
0.0412975
0.000255563
0.000247439
0.000233424
0.000215876
0.000196038
0.000174306
0.0001513
0.00012764
0.000104104
0.000283786
0.00027183
0.000254573
0.000234207
0.00021184
0.000188147
0.000163733
0.000139384
0.000116111
0.00031803
0.000302507
0.000281766
0.000258199
0.000233056
0.000207065
0.000180892
0.000155332
0.00013133
0.000361852
0.000342577
0.00031773
0.000290379
0.000261906
0.00023306
0.000204512
0.000176981
0.000151253
0.000419732
0.00039602
0.000366087
0.000334064
0.000301403
0.000268868
0.000237078
0.000206605
0.000177962
0.000497484
0.000468123
0.000431687
0.000393715
0.000355653
0.000318282
0.000282124
0.000247604
0.000215026
0.000602936
0.000565937
0.000520965
0.000475279
0.000430192
0.000386472
0.000344527
0.000304687
0.000267208
0.000746866
0.000698421
0.000642134
0.000586452
0.000532273
0.000480273
0.000430728
0.000383917
0.000340177
0.000941618
0.000875781
0.000805047
0.000736726
0.000670989
0.000608333
0.000548895
0.000492848
0.000440481
0.00119627
0.00110819
0.00102069
0.00093707
0.000857028
0.000780939
0.000708865
0.000640802
0.000576669
0.00151335
0.00140513
0.00130056
0.00119929
0.00110201
0.00100938
0.000921584
0.00083852
0.000759802
0.00189053
0.00177692
0.00165655
0.00153533
0.00141757
0.00130495
0.0011981
0.00109695
0.00100116
0.0023484
0.0022392
0.00210133
0.00195659
0.00181437
0.00167786
0.00154829
0.00142582
0.00131038
0.00293248
0.00281142
0.00264729
0.00247296
0.00230122
0.00213632
0.00197997
0.00183258
0.00169429
0.00367162
0.0035072
0.00330307
0.00309145
0.00288454
0.00268647
0.00249901
0.00232251
0.00215636
0.00456904
0.00432826
0.00407143
0.00381563
0.00356848
0.00333296
0.00311062
0.0029019
0.00270635
0.00558176
0.00526302
0.00494987
0.00464669
0.0043562
0.00408019
0.00382004
0.00357647
0.00335025
0.00667291
0.00629926
0.0059358
0.00558644
0.00525204
0.00493421
0.0046343
0.00435321
0.0040919
0.0078439
0.00743636
0.00703208
0.00664063
0.00626413
0.00590508
0.00556504
0.00524507
0.0049459
0.00910972
0.0086849
0.00824865
0.00782038
0.00740562
0.00700828
0.00663022
0.00627262
0.00593696
0.0104942
0.0100634
0.00960112
0.00914142
0.0086944
0.00826472
0.0078538
0.00746221
0.00709056
0.0120309
0.0115956
0.0111081
0.0106223
0.0101521
0.00970062
0.00926728
0.00885098
0.00845072
0.0137751
0.0133078
0.012788
0.0122822
0.0118028
0.0113468
0.0109096
0.0104872
0.010078
0.0157998
0.0152202
0.014652
0.014137
0.0136708
0.0132373
0.0128254
0.0124272
0.0120387
0.0181685
0.017322
0.0167003
0.0162
0.0157822
0.01541
0.0150648
0.0147382
0.0143703
0.00141607
0.00138396
0.00135758
0.00133682
0.00132165
0.00131194
0.00130757
0.00130832
0.001314
0.00132425
0.00133876
0.0013571
0.00137877
0.00140324
0.00142985
0.00145793
0.00148674
0.0015155
0.00154338
0.00156956
0.00159312
0.00161307
0.00162821
0.00163671
0.00163716
0.00162859
0.00161233
0.00158847
0.00155579
0.00151423
0.00146573
0.00141095
0.00135025
0.00128483
0.00121576
0.0011441
0.00107085
0.000997024
0.000923561
0.00085137
0.000781279
0.000714052
0.000650331
0.000590663
0.000535494
0.000485144
0.00043981
0.000399589
0.000364435
0.000334229
0.000308759
0.000287757
0.000270941
0.000258004
0.000248677
0.00024271
0.000239907
0.00024012
0.00024319
0.00141917
0.0013902
0.00136652
0.00134807
0.00133474
0.00132636
0.00132283
0.00132399
0.00132962
0.00133946
0.0013532
0.00137044
0.00139073
0.00141354
0.00143828
0.0014643
0.00149089
0.00151729
0.00154271
0.00156633
0.00158732
0.00160481
0.00161788
0.00162545
0.00162629
0.00161917
0.0016033
0.00157846
0.00154502
0.0015039
0.00145611
0.00140232
0.00134314
0.00127932
0.00121173
0.00114132
0.00106905
0.000995927
0.000922914
0.000850941
0.000780877
0.000713516
0.000649554
0.000589582
0.000534077
0.000483389
0.000437733
0.000397198
0.00036175
0.000331246
0.000305463
0.00028412
0.000266941
0.000253618
0.000243852
0.000237379
0.000233985
0.000233516
0.00023579
0.00139523
0.001368
0.00134574
0.00132841
0.00131593
0.00130821
0.00130512
0.00130647
0.00131206
0.00132164
0.00133488
0.00135142
0.00137083
0.00139261
0.00141619
0.00144096
0.00146625
0.00149132
0.00151543
0.00153777
0.00155751
0.00157376
0.00158557
0.00159188
0.00159165
0.00158392
0.00156809
0.00154392
0.0015116
0.00147171
0.00142505
0.00137239
0.00131444
0.001252
0.0011859
0.00111703
0.00104633
0.000974735
0.00090318
0.000832573
0.000763768
0.000697554
0.000634625
0.00057558
0.000520896
0.000470927
0.000425892
0.000385879
0.000350855
0.000320678
0.000295126
0.000273919
0.000256756
0.000243333
0.000233364
0.000226593
0.000222806
0.000221851
0.000223545
0.00134434
0.0013189
0.00129818
0.00128213
0.00127067
0.00126369
0.00126105
0.00126259
0.0012681
0.00127733
0.00128998
0.00130572
0.00132413
0.00134475
0.00136706
0.00139046
0.00141431
0.00143793
0.00146057
0.00148144
0.00149972
0.00151453
0.00152496
0.00153007
0.00152895
0.00152081
0.00150509
0.00148158
0.0014504
0.00141201
0.00136705
0.00131625
0.00126034
0.00120013
0.00113642
0.00107009
0.00100201
0.000933079
0.000864188
0.000796205
0.000729947
0.000666173
0.000605555
0.000548669
0.00049598
0.000447824
0.000404414
0.00036583
0.000332037
0.000302896
0.00027819
0.000257649
0.00024099
0.000227902
0.000218104
0.000211348
0.000207427
0.000206188
0.000207457
0.00127663
0.00125329
0.00123437
0.00121979
0.00120949
0.00120336
0.00120128
0.00120308
0.00120857
0.00121751
0.00122962
0.00124457
0.00126198
0.00128142
0.00130237
0.00132429
0.00134657
0.00136853
0.00138947
0.00140861
0.00142518
0.00143833
0.00144721
0.001451
0.00144891
0.00144029
0.00142471
0.00140195
0.00137212
0.00133552
0.00129268
0.00124425
0.00119092
0.00113348
0.00107272
0.00100947
0.00094459
0.000878928
0.000813343
0.00074866
0.00068566
0.000625058
0.000567492
0.000513502
0.000463522
0.000417864
0.000376719
0.000340159
0.000308143
0.000280533
0.000257119
0.000237638
0.000221804
0.000209326
0.000199932
0.000193382
0.000189473
0.000188056
0.000188961
0.00119218
0.00117081
0.00115356
0.00114037
0.00113117
0.00112586
0.00112433
0.00112641
0.00113191
0.00114059
0.00115219
0.0011664
0.00118284
0.00120109
0.00122069
0.00124109
0.00126173
0.00128195
0.00130108
0.00131841
0.00133319
0.00134465
0.00135202
0.00135457
0.00135163
0.00134265
0.00132727
0.00130534
0.0012769
0.00124222
0.00120173
0.001156
0.00110569
0.00105153
0.000994289
0.000934754
0.000873724
0.00081201
0.000750432
0.000689773
0.000630764
0.000574071
0.000520284
0.000469902
0.00042332
0.00038082
0.00034257
0.000308623
0.000278932
0.000253357
0.00023169
0.000213676
0.000199038
0.000187496
0.000178791
0.000172691
0.000169
0.000167573
0.000168251
0.00109334
0.00107395
0.00105836
0.00104653
0.0010384
0.0010339
0.00103289
0.00103524
0.00104076
0.00104923
0.00106036
0.00107387
0.0010894
0.00110653
0.00112482
0.00114376
0.00116281
0.00118135
0.00119875
0.00121434
0.00122742
0.00123728
0.00124327
0.00124475
0.00124111
0.00123191
0.00121686
0.00119584
0.00116888
0.00113619
0.00109817
0.00105531
0.00100827
0.000957738
0.000904404
0.00084903
0.000792343
0.000735098
0.000678097
0.000622052
0.000567628
0.000515432
0.000465995
0.000419776
0.00037713
0.000338303
0.000303438
0.000272571
0.000245641
0.000222502
0.00020295
0.000186735
0.000173591
0.000163251
0.000155465
0.000150013
0.000146708
0.000145413
0.000145979
0.000978873
0.000961162
0.000946967
0.00093629
0.000929096
0.000925329
0.000924873
0.00092759
0.000933283
0.000941709
0.000952621
0.000965673
0.000980509
0.000996727
0.00101391
0.00103164
0.00104941
0.00106659
0.00108261
0.00109678
0.00110845
0.00111697
0.00112183
0.00112254
0.00111847
0.00110931
0.00109481
0.00107492
0.00104956
0.00101892
0.000983408
0.000943492
0.000899884
0.000853263
0.000804149
0.000753301
0.000701401
0.000649099
0.000597226
0.000546352
0.00049707
0.000449914
0.00040535
0.000363792
0.000325571
0.00029088
0.000259866
0.000232525
0.000208769
0.00018844
0.000171332
0.00015721
0.000145823
0.000136924
0.000130281
0.000125686
0.000122965
0.000121984
0.000122605
0.000846784
0.000830299
0.000817181
0.000807548
0.000801422
0.000798706
0.00079918
0.000802517
0.00080876
0.000817942
0.000829349
0.000842579
0.000857172
0.000872654
0.000888907
0.000905508
0.000922332
0.000939136
0.000954713
0.000968016
0.000978565
0.000985927
0.000989922
0.000990081
0.000985977
0.000977249
0.000963762
0.000945394
0.000921856
0.000893168
0.000860048
0.000823091
0.000782996
0.00074051
0.000696071
0.000649794
0.000602616
0.000556011
0.00051002
0.000464823
0.00042117
0.000379559
0.000340343
0.000303826
0.000270272
0.000240028
0.000213172
0.000189824
0.000169746
0.000152574
0.000138092
0.000126166
0.000116635
0.00010928
0.00010388
0.000100272
9.83046e-05
9.78387e-05
9.87463e-05
0.0364902
0.0332557
0.0302536
0.0273798
0.0246118
0.0219414
0.0193882
0.016976
0.0147234
0.0126442
0.010784
0.0091721
0.00780583
0.00665647
0.00566834
0.0048188
0.00411036
0.00353339
0.00306725
0.00268802
0.00237568
0.00211392
0.00188937
0.00169098
0.00150888
0.0348124
0.0325123
0.0298841
0.0271577
0.0244358
0.0217698
0.0192021
0.0167707
0.0145064
0.0124382
0.0105934
0.00898328
0.00760319
0.00643622
0.00545671
0.00464082
0.00396894
0.00342171
0.00297871
0.00261919
0.00232416
0.00207768
0.00186686
0.00168141
0.00151276
0.0347129
0.0322845
0.0296403
0.0269033
0.024156
0.0214585
0.0188637
0.0164171
0.0141546
0.0121036
0.0102804
0.00868858
0.00732242
0.00616887
0.00520914
0.00442109
0.00378084
0.00326429
0.00284861
0.00251276
0.00223815
0.00200917
0.00181322
0.00164043
0.00148338
0.0349278
0.0322029
0.0293973
0.0265639
0.023756
0.0210223
0.0184108
0.0159643
0.0137166
0.0116902
0.00989534
0.00833204
0.00699338
0.00586713
0.00493607
0.0041783
0.0035687
0.00308144
0.00269236
0.00237989
0.00212553
0.00191399
0.00173302
0.00157317
0.00142711
0.0352189
0.0322021
0.0291917
0.0262188
0.0233212
0.0205368
0.0179042
0.0154585
0.0132268
0.0112258
0.00946169
0.00793173
0.0066276
0.00553625
0.00463981
0.00391573
0.00333818
0.00288056
0.00251805
0.00222879
0.00199444
0.00180005
0.00163387
0.001487
0.00135291
0.0354701
0.0321849
0.0289615
0.0258364
0.0228408
0.0200022
0.0173477
0.0149034
0.0126888
0.010715
0.00898461
0.00749271
0.006229
0.00517854
0.00432185
0.00363509
0.00309164
0.00266455
0.0023288
0.00206263
0.00184803
0.00167058
0.00151906
0.00138507
0.00126244
0.0357076
0.0321374
0.0286852
0.0254015
0.0223077
0.0194163
0.0167413
0.0142992
0.012103
0.0101586
0.0084655
0.0070166
0.00579908
0.00479517
0.00398307
0.00333733
0.00283044
0.00243526
0.00212692
0.00188403
0.00168908
0.00152824
0.00139088
0.00126907
0.0011575
0.0359733
0.0320357
0.0283299
0.0248892
0.021706
0.0187698
0.0160793
0.0136418
0.0114661
0.00955426
0.00790262
0.00650224
0.00533771
0.00438648
0.00362416
0.00302337
0.00255564
0.00219393
0.0019139
0.0016947
0.00151939
0.0013749
0.00125104
0.00113996
0.00103791
0.0361968
0.0318155
0.0278516
0.0242736
0.0210223
0.0180555
0.0153586
0.0129275
0.0107741
0.00889878
0.00729239
0.00594698
0.00484457
0.00395308
0.00324615
0.00269465
0.0022686
0.00194185
0.0016913
0.00149659
0.00134104
0.00121302
0.00110171
0.000998432
0.000902109
1.04024
1.00572
3.31353
3.92699
0.00115642
0.00177638
0.0381141
0.000343554
2.77387
0.000122686
2.46185
0.00266712
0.0403092
0.00417713
0.0397965
0.000638641
2.40406
3.70174
7.93658e-05
0.0717717
0.0135956
0.000405305
2.89449
0.00992669
0.000495769
0.000483689
0.000454169
0.0214071
1.32977
2.44887
0.000119371
0.000510078
2.853
0.0410413
2.44605
0.000534901
0.0707774
0.0401487
0.0876794
0.00165193
3.902
0.00052004
0.000394784
0.0659101
0.0108988
0.000538669
3.75495
4.70885
1.71752
1.93283
3.45434
3.56638
0.0109164
3.71516
0.036486
2.78266
0.00357847
0.0106613
0.00105344
3.67857
0.00074843
3.65698
0.00120251
0.000560621
0.000340589
0.0492305
0.000848084
0.166406
0.0542202
1.85191
2.80806
0.000510827
0.000629071
0.06748
0.000822865
0.0127634
0.0582173
4.39643
0.000719936
3.44821
0.0318162
0.00100043
0.00035491
2.41143
0.000885087
0.000851232
0.000459002
4.33459
2.90755
0.00391896
0.00716491
0.00181062
0.000134571
0.00283382
0.000799495
2.48425
0.000508746
2.74937
0.000918088
3.62697
0.0083104
3.85719
0.00961441
0.000506013
0.000887897
0.0124023
3.12902
0.0268416
0.000658387
2.45491
0.000460224
0.00147781
3.225
0.00048041
0.0105154
1.68383
2.94538
0.00139413
0.0142671
0.00128765
9.11994e-05
0.00156963
0.010515
0.000520711
3.00728
0.000404104
3.57378
0.0497492
0.000880894
4.6931
0.000360977
0.0654348
1.881
0.0833925
0.0256192
0.000482522
0.0105091
0.00523284
0.000622779
0.0785776
0.000324999
0.0832696
3.73945
0.000114817
1.45885
0.000718678
3.81526
0.0308931
0.000639054
2.34328
0.0145749
0.00239591
3.95822
0.0474168
0.00108303
2.35025
0.000570546
0.00135004
0.0557042
0.000422417
0.000365204
2.77697
0.000459089
2.93415
0.00021381
2.9361
0.00429318
0.000468722
0.00076822
0.000656054
0.0036858
0.000577096
0.155566
2.62124
0.000916303
0.0150918
0.024604
1.60124
2.26252
0.000338898
0.0385342
0.000508969
0.0111606
0.033619
0.038097
0.000460901
3.18985
0.000480114
2.12695
0.000616218
4.35599
3.67739
1.80709
0.0835553
0.0414722
2.32055
0.000781293
0.000397021
1.56845
1.16387
0.154547
0.000825154
0.000935443
0.000643415
0.00888235
0.000249696
0.0010014
0.00962336
1.81169
0.00107143
0.000866073
0.00234478
0.0419775
0.00828711
0.02124
4.19766
0.00111288
0.000382706
0.000724074
0.00599589
0.00809839
0.000587616
0.00116119
3.83891
0.849081
3.19357
0.00363381
2.41605
0.000706777
0.000697263
2.18334
0.000530048
0.000546069
0.000511742
0.084451
0.000157772
0.0528582
0.0132823
0.0354126
0.0481917
0.000192017
0.000777144
0.000228369
0.0327267
0.000558128
0.000386043
0.000484507
0.0150443
0.000624924
0.000256154
0.000646488
0.0164429
0.000408875
1.68365
0.000736071
0.000485048
3.0409
0.0564572
0.0549474
8.08478e-05
0.0839028
0.00102225
0.000509816
0.000965537
0.0637122
0.000553073
0.00022409
3.87579
0.0383607
0.000441525
0.0166116
1.77833
0.000912647
0.000389129
8.25094e-05
3.74553
0.00124718
2.67905
0.00376332
3.9207
0.0564692
0.0161208
0.111537
0.000534731
2.30872
0.000674472
0.0134963
1.93465
3.50245
4.46206
0.0470784
0.000478461
0.000345085
3.6956
0.245579
4.14257
3.91915
0.00137011
0.000451265
2.87373
3.75055
0.000349111
0.003592
0.00067118
3.7145
0.000210891
0.0141438
0.000514663
0.0785211
0.000902954
0.000514337
0.000247353
2.46059
0.000780499
0.000974595
0.099371
4.18584
0.000440573
0.000473548
0.240215
0.056054
0.000392448
0.00437342
0.000116326
0.000474854
0.000528655
2.8693
0.0270444
0.00125906
0.0111992
0.000206135
0.0408733
0.00655988
0.000131826
4.16029
0.000904084
0.000370719
0.000367566
1.03761e-05
0.0999937
0.00231715
0.0027195
3.20143
0.000229974
0.0615634
0.00115924
0.00280684
0.000675845
0.000508326
3.52759
1.63187
0.000138296
0.00105269
0.0544934
3.75653
0.671988
0.377152
0.0696158
0.000239839
3.83935
1.83271
2.48607
0.000292276
3.09576
0.000400892
0.000462513
0.000690639
4.38968
0.000478985
2.02337
0.000359696
0.0473897
1.32217
3.25434
0.0391381
0.000671365
0.00118792
0.00018851
0.000541402
0.000153409
3.87272
0.000562571
2.98446
0.0761387
0.0736643
0.326648
0.000211468
0.0702368
2.25887
4.37338
0.027628
0.000245219
0.00845053
2.67349
0.0342914
9.54458e-05
0.000220816
2.79081
0.00135719
1.35477
0.000337978
0.000397581
0.000924195
1.57875
0.00256913
4.82923e-07
0.0384495
0.0092821
0.14607
0.000194302
1.89004
0.000497523
2.88198
0.000609236
0.000387312
0.0883548
1.82883
3.52901
0.00102327
0.00175003
0.000219522
0.000529384
0.00432797
0.0113931
0.000701563
4.16513
7.58734e-06
0.00454817
0.000374002
0.000481419
0.000618651
0.000489585
0.00409681
0.000748722
0.0455515
0.000663009
0.000450938
0.000241341
0.000637869
0.0126701
0.000366756
0.048262
3.75867
0.104772
0.0644483
4.69731
0.0154803
2.37741
0.000884518
0.000701704
3.20341
0.000340063
0.000458176
2.64775
0.000240048
1.78014
3.58688
0.000772549
0.00804293
0.0471208
0.000479254
0.0356934
1.81193
0.0392307
3.97196
0.000381045
0.000939063
3.94291
0.000344031
2.29943
0.0133729
0.000433656
2.46273
0.0155146
0.000499235
0.0391519
0.00346609
0.000478521
0.0309358
0.0260803
0.020151
0.0689729
5.54104e-05
0.0026272
2.3375
0.000817318
0.000873052
0.000618023
1.54141
0.000375509
0.0406554
0.000522459
0.00107925
2.54425
0.000464157
0.00147376
0.0398427
0.000632904
0.000158437
2.00221
0.000379413
0.0458446
0.000540374
0.026858
0.0234387
0.0407709
0.000633789
0.000603932
0.0386314
0.000509264
0.000302141
0.0324593
0.000902681
0.0031075
0.000486367
4.34848
3.66678
1.91254
0.000742589
0.0187749
0.000134673
4.44069
0.0730708
5.59476
0.0477978
0.000624181
4.08934
3.80342
0.000273584
0.000641994
0.0158805
0.000401447
3.57687
2.81799
0.00137171
0.153645
0.000399762
2.36681
1.64639
0.000541947
0.236374
2.39533
0.000382112
3.42695
0.00129137
3.47945
0.000412372
0.00675399
0.000620031
2.66189
0.0689743
0.0602008
0.000854432
1.7247
1.87243
4.33495
0.00105005
0.000203545
0.0240498
1.98272
0.000439026
0.0702659
0.000398239
0.0373518
2.34187
9.94839e-05
0.0180286
0.000956174
0.000496579
0.130509
2.60802
0.000688857
0.0411328
0.00112826
0.00136675
3.20022
3.85851
2.03495
0.00768405
0.142745
0.0772255
0.0108499
0.000808511
0.000139995
0.000358659
2.76766
0.000353874
0.0018756
0.313649
0.000748992
0.00290454
0.00118706
0.000538549
0.0458605
0.000246659
0.00113095
0.0379821
1.95777
0.000908038
0.000469838
3.2205
0.0217934
0.000465839
0.00469386
0.0474578
0.000738038
0.000705334
0.000317469
1.59683
0.000359683
0.000378035
0.0755422
0.000370742
0.000742942
0.0104924
0.0117392
0.000814725
0.00263056
3.77023
0.000595708
0.000357924
0.000389493
0.000194781
0.00364863
0.00215591
3.56223
4.39757
0.0188137
2.61014
0.00146996
0.000472289
0.000424292
0.000582798
0.000715157
0.0012357
0.0141813
0.00401281
0.00123392
0.00214165
0.0413669
0.0170966
0.00625655
0.0492645
0.000377593
0.0015282
0.00035924
0.0100535
0.142989
3.50655
0.0452809
0.054173
0.00102782
0.000115398
0.000925062
0.000656176
0.000268293
3.89154
8.29642e-05
0.0190454
0.000341416
2.17664
3.05738
2.38502
6.53329e-05
0.000410788
0.00037141
3.83904
2.45255
0.0373289
0.0106619
0.00201767
8.91559e-05
0.000896022
3.67588
0.000237271
0.000395463
0.0681288
0.000502688
0.000385353
0.000197985
0.00089683
0.0115641
0.0056756
0.000378768
0.00023843
0.00792697
0.000189438
1.49177
3.6149
0.000497277
0.0392046
0.00120943
2.39075
0.000364024
0.000213909
0.00026164
0.000500903
0.375438
0.000626528
0.000296711
0.00106058
0.107727
0.00069803
0.000629419
0.000458713
4.03358
0.038456
0.0152615
4.57547
0.0412265
1.59363
2.46574
8.07775e-05
0.000534209
0.000373063
1.95617e-06
0.000515775
0.0569683
0.00070228
0.000471482
0.0283213
0.000114499
0.000270719
0.0273282
0.000302556
0.00053587
0.000334597
0.0165675
0.0297943
3.92927
9.02774e-05
2.37754
0.0377851
1.55372
0.0195013
3.91745
3.47217
3.7135
0.000403561
0.000627911
0.000113697
0.0732227
0.000440307
0.300868
1.34934
0.000183838
0.0591042
0.112705
0.000748471
0.000334626
0.000524403
4.207
3.35846
0.000361119
0.0410997
0.0483294
0.0135869
2.56946
1.89819e-08
0.000261979
0.0257825
0.000155019
1.20614
0.15847
2.6624
0.0463231
0.000515528
0.046688
0.00129801
1.46982e-05
0.0348805
0.00252915
0.00628825
0.000450531
0.000400528
0.386973
0.000638138
0.000553458
0.000365963
0.000524071
0.32977
0.0016694
3.68635
0.0407631
0.000355362
1.55223
0.000581749
0.075972
0.00119877
0.000149941
0.000356268
0.0210969
0.0195523
0.000180993
0.000419358
3.58101
3.30477
0.0420239
0.000652334
0.0290114
0.218477
0.050881
4.49599
0.064822
0.0062532
0.000259834
2.94183
0.000958068
0.000340161
0.00844531
2.3103
3.05915
0.00058823
0.000617793
1.97837
0.000407813
3.25369
2.11879
0.000380708
0.000576584
2.89001
1.37106
1.2407
0.000209489
0.000419253
0.000575263
0.0268593
0.0655841
0.000311987
0.000357215
0.00170306
0.0403661
0.00489671
0.058778
1.35135
8.87795e-05
0.000403117
5.24786
9.62193e-05
0.0163334
0.00116532
0.0203077
0.000590314
0.00128973
0.247909
0.000486067
0.000195848
0.000164423
0.0180773
0.0169264
4.24955
0.000365726
0.000316879
0.000439175
0.0401082
0.0774352
3.47767
0.00120022
0.10064
0.0405342
4.296e-07
0.000682051
0.0026418
2.21727
0.000869786
0.067968
0.000667115
6.93311e-06
0.0351107
0.00060927
5.98555
3.33783
0.0291173
3.74453
3.96124
4.14794
9.89785e-05
2.46498
0.0421886
0.000314
0.0363665
0.000473642
0.00273645
0.0530728
0.000609269
0.0054469
0.02132
3.92012
0.00231953
0.00128399
2.41847
0.00493472
0.000686473
0.0402929
1.4755
0.372109
0.000157899
0.0114095
4.60068
2.61521
0.211547
0.0146024
1.81229
0.00414291
0.000462763
0.0212764
2.14124
0.000806436
0.726578
0.0028042
2.10435
0.000693306
0.0291868
1.17337
0.000124397
0.00200283
0.000163309
2.72872
0.344279
2.42488
1.58665
0.000733532
0.0256678
0.01724
0.00639872
1.2934
0.0105243
0.000283997
0.000642343
0.000579438
0.000938414
0.0294379
2.46235
0.000110347
2.66217
0.000410475
0.0518229
0.000118985
0.000507455
0.000355462
2.84811
2.18981
0.0199763
0.0180236
0.00052033
0.000804602
0.0455689
0.000323942
0.304913
0.0997247
3.30119
0.00133944
0.163495
0.0468253
0.000657214
0.000752027
0.000950468
3.3615
0.00143151
0.00707283
0.0505877
0.0393492
0.000980878
0.00649645
0.000430579
0.000453805
0.00127813
0.000701593
0.0131337
0.000468758
0.0162921
2.45324
0.0739207
2.84515
0.000445422
0.0158385
0.0228133
0.0013193
1.43059
0.00148812
0.00378258
3.38855
0.000671677
0.0592974
0.00409859
0.000450279
1.76361
0.000174737
0.260407
0.000673824
0.0384631
0.0421297
2.90359
0.00111927
0.0468227
0.000523188
0.247137
0.000632893
3.02553
0.0384295
0.0492587
2.40543
0.00371877
3.62049
0.000525138
1.63088
0.00155152
0.000343703
0.00132774
0.0302528
0.0407262
0.00136378
0.000154341
0.0576839
0.000384829
0.00018104
0.00118389
0.000703037
0.000549212
4.63276
0.000733059
0.000496634
0.0483443
0.0183985
4.12907
0.000759149
0.000232358
0.000634327
0.381817
0.000807024
0.00250187
3.76216
0.489971
0.0644439
0.000475825
0.00691252
0.0256941
2.77336
0.000202457
0.000133805
0.00236946
0.000785328
0.00075902
0.72543
4.31326
4.01739
0.0219013
0.000516559
0.0465334
3.30973
0.0141444
0.0469541
0.000668452
1.52172
2.36025
3.85209
0.000576346
0.000578523
0.010162
2.34737
0.000758903
3.19824
0.00387219
0.11516
1.76346
0.000903446
0.002056
0.00352673
0.000120884
0.000113308
0.0498416
1.40256
8.42395e-05
2.4378
0.000593378
0.000559477
0.000449477
0.000180805
0.0123225
0.00313945
0.074539
0.0260905
0.000820303
0.000680509
1.58594
2.30635
0.000302945
0.00113764
0.000469328
0.948792
3.37941
0.0122228
3.82108
0.000482788
0.000106392
0.0162093
0.000531561
0.00849265
0.0448472
0.000353331
0.000453362
0.00020967
0.00534613
0.0330437
3.49163
0.0465751
0.000110853
0.0115765
0.000242749
3.47713
3.72537
0.000248958
0.00010639
0.0586245
0.000712568
0.00132975
1.34911
1.39154
0.0232252
0.000138158
0.00124714
0.032419
1.39057
0.00232665
0.002724
1.23275
2.55891
7.39661e-06
0.000489977
0.00180532
0.000421194
0.236544
0.0128384
0.000474334
0.0510335
0.000602674
0.000289713
0.000549175
0.01255
0.00065301
3.50538
1.73635
3.33794
1.18566
0.346909
5.33059
0.000500618
3.32788
0.0144266
0.000355589
0.0538491
0.000208299
0.00939853
0.000327052
0.000489641
0.0012497
2.40472
0.000657886
0.0171198
0.0451676
0.00394113
0.0133099
0.22412
3.83002
0.000635459
3.76307
2.74508
0.0033933
0.000666138
0.00955658
0.0716608
0.00717121
0.0424533
3.70507
0.000310409
0.00121496
0.000728232
0.0330658
3.61265
0.000700204
0.00314131
0.000536646
0.00030598
0.00115224
0.0237234
0.000111613
0.00462229
0.0091092
1.79577
0.000161449
0.0165626
2.52615
0.00059712
0.0123311
0.0110079
3.4742
0.019968
0.38159
0.0153122
0.000434958
5.34661
2.28281
0.000643973
0.0233046
0.0406045
0.000225371
0.000988958
0.00033448
0.0406724
0.000505536
0.0379835
0.000141421
0.0448658
1.80596
0.0516615
1.70621
0.0416942
0.000885548
0.056611
0.043103
0.00323342
0.000577871
0.00585154
2.40125
0.000336948
0.022252
0.00125456
0.000623761
0.0210578
0.00242507
0.000742691
0.000317001
2.57586
0.0560326
0.000181034
0.000571508
0.000138383
0.000351882
0.000587912
1.4658
0.00049959
0.164296
2.27802
0.0374132
2.98458e-05
0.0503674
1.30492
0.076291
1.58767
0.00733913
0.132979
3.22365
3.44422
0.000364427
2.08497
0.000203154
2.71503
2.20545
9.48015e-05
0.0471023
0.0381779
4.36297
0.0403994
0.0147134
0.000343805
0.0387459
2.09886
0.8908
3.31881
0.000680239
0.0753392
0.000119288
2.23644
0.0092166
0.000873115
0.000575159
0.0604351
0.00148539
0.00382576
0.0812763
0.000321922
1.6562
0.000973335
0.000294554
0.428765
0.0389316
0.00333001
0.0123858
0.0412304
0.000732374
0.0169411
1.20806
0.000168968
0.0203738
0.00132937
1.65014
0.122487
0.000407795
4.00772
0.000141092
0.0130749
1.14536
0.000267553
0.000701719
0.0123009
0.0262219
0.0400494
0.00080126
4.293
0.00243419
0.0160853
4.15748
0.0131619
0.000627066
0.309554
0.000547626
0.000414427
0.000103515
0.0518155
2.19622
0.000626809
2.73858
0.0147361
0.000588967
0.0966365
0.000452698
0.00252492
0.0743093
0.000426413
0.00027573
0.687282
0.00165926
0.000323054
0.000474567
1.73117
2.11983
0.00507788
0.000155308
0.000616981
0.0753821
4.22115
0.000513169
0.00110724
0.0128448
2.95664
0.00128758
0.117277
0.0787631
0.000338342
0.0137134
3.41923
0.000471302
0.00649519
0.000218907
1.49006
0.000560837
0.000459319
0.00423168
0.0279934
2.15923
0.0012348
2.74301
0.00131083
2.6125
0.000269555
0.0359279
0.0166981
0.0751391
1.73956
0.00385919
0.0519994
0.000772482
0.000543158
0.000704093
2.15106
2.45207
0.000160804
0.000224842
0.344579
0.000534426
0.00272567
0.000901492
4.1377
3.43396
0.0492536
2.99795
0.000594362
0.000353826
0.0748585
0.013675
1.65553
0.000636589
0.00108868
0.000804922
0.00146059
0.000558826
0.00105795
0.00069046
0.0153241
3.6368
2.25074
0.000108058
0.011828
0.0271534
2.84852
0.000473791
3.5289
1.38356
3.62435
0.00039084
0.0517075
0.000383768
0.00055162
0.000296218