/*--------------------------------*- C++ -*----------------------------------*\
  =========                 |
  \\      /  F ield         | OpenFOAM: The Open Source CFD Toolbox
   \\    /   O peration     | Website:  https://openfoam.org
    \\  /    A nd           | Version:  10
     \\/     M anipulation  |
\*---------------------------------------------------------------------------*/
FoamFile
{
    format      ascii;
    class       volScalarField;
    location    "1550";
    object      k;
}
// * * * * * * * * * * * * * * * * * * * * * * * * * * * * * * * * * * * * * //

dimensions      [0 2 -2 0 0 0 0];

internalField   nonuniform List<scalar> 
10435
(
1.81301
2.21133
1.98409
2.17964
2.30621
2.38603
1.94104
2.00559
2.08186
2.26647
2.38191
2.17873
2.29036
1.16777
1.23474
1.96759
1.10992
2.49442
2.04511
1.9097
1.97779
2.17967
1.95775
2.11823
2.11933
0.652715
0.826681
2.10141
0.779099
2.39211
2.01159
2.41824
2.03388
0.793153
2.0706
1.70206
2.04082
0.845083
0.531154
2.08326
2.51886
1.94705
0.8468
2.08098
2.00934
2.10089
2.42329
0.80781
2.06208
2.12148
2.00891
2.1236
0.515594
0.723771
0.561195
0.731779
2.09237
0.865032
0.984188
2.10159
0.549367
2.07134
0.8565
2.13818
1.9803
2.0246
0.916479
0.914438
1.974
2.13025
0.718393
0.758166
0.64627
1.98238
1.31203
0.864716
2.15013
1.92909
2.04692
1.28904
2.16515
1.64956
0.500361
0.730473
2.16603
1.54672
1.70907
2.09013
1.39319
1.82249
2.14789
2.18956
1.75018
1.48819
1.92623
1.51322
2.19185
1.27409
1.04144
2.21376
1.3257
2.43115
1.59586
2.01597
2.40972
2.13803
1.84639
2.15143
2.16428
1.36888
2.07308
2.45739
1.55018
1.45603
2.24367
2.133
2.18648
1.68947
2.1622
2.18936
2.16041
0.747231
1.82935
1.07013
2.57086
0.601657
2.19408
0.81483
2.22424
0.845738
0.934849
2.58119
1.99246
1.2174
0.80213
0.459727
1.5144
2.20483
2.07401
2.07223
1.99666
1.99418
0.869245
2.07814
2.21161
1.11055
1.28152
2.2164
1.07636
2.10144
0.747875
2.04958
1.82873
2.07065
2.18178
0.694344
2.53946
1.96153
2.22547
2.50649
2.04839
1.15314
2.26194
2.21701
1.404
2.16223
2.05951
2.21662
2.17508
2.11726
2.09842
0.569376
0.761446
1.18888
2.13466
2.40238
1.89584
0.968334
2.01231
0.821958
2.31424
2.36761
2.13648
0.574897
2.02024
0.735679
0.765939
1.93139
2.30014
2.07911
2.15719
0.489344
0.81482
1.77553
2.49687
1.94734
0.986622
1.42484
0.892429
1.99877
1.40491
0.821363
2.18263
0.854254
2.08268
2.30457
2.22952
2.21757
0.866651
2.2264
0.673976
1.95282
2.12308
2.20192
0.811579
1.13171
1.50146
0.552962
0.660217
1.09593
0.798301
1.02059
0.902178
1.13336
0.684381
2.02663
0.591196
1.31809
2.04448
0.919309
0.963357
2.04672
0.623412
2.09113
0.877048
1.05739
2.1282
0.691854
2.14613
2.02731
2.00961
0.634199
0.565949
0.736746
2.30108
2.06731
1.33747
1.95185
0.624417
2.2418
0.658601
1.51163
2.31791
2.22517
1.93069
2.18993
0.577787
1.92467
0.640523
0.805651
1.92582
2.07712
0.640628
2.17949
1.60413
0.993623
1.92447
1.97894
0.533764
2.27208
1.93657
1.98215
1.9448
2.08911
0.70107
2.1793
0.84064
2.37385
1.95328
2.00541
2.2483
0.960006
1.96039
1.24878
1.61809
0.509068
2.25525
0.559226
0.736003
0.808626
1.20217
2.56511
0.865886
1.96252
0.539459
0.708293
1.04101
1.70997
2.41291
2.01679
0.913805
2.16201
1.99551
0.670572
2.42606
1.19981
1.03584
2.127
2.0159
0.737761
1.93553
0.779941
2.02591
2.24953
2.08501
0.704332
0.58432
2.03952
0.941408
2.2048
2.40319
0.819596
1.72641
0.47889
2.02708
2.17238
0.746849
2.04047
0.948039
0.863007
2.09769
0.832835
0.735844
1.96911
2.09271
0.879526
0.700754
0.653171
0.757129
0.738384
0.778344
0.72921
0.536704
0.762796
0.736233
0.747561
0.897366
0.894203
0.46909
2.04954
0.74018
2.11706
0.811458
2.09743
2.04191
2.0391
2.30273
1.97178
0.733825
0.768474
0.67412
0.615529
0.724812
0.519708
0.795705
0.801162
0.879319
2.17013
0.782411
2.06151
0.587611
0.828245
2.37262
2.00127
0.508537
0.83014
0.849271
0.859159
0.764439
0.693228
0.973356
0.571333
2.02677
0.908279
1.97484
2.04981
2.16417
2.23769
2.05184
2.04532
2.08088
1.0006
0.64704
0.768349
0.717139
2.00497
0.751173
2.37789
0.939676
0.826346
0.843394
0.855663
0.601819
1.94064
0.85403
2.00256
2.15565
0.584155
0.730196
0.889187
2.01981
0.900294
0.757912
0.65253
0.728223
0.855418
0.780073
2.02918
0.716203
0.730829
0.782227
0.803625
2.5182
0.503258
0.468543
1.92912
0.761725
0.140439
0.1384
0.134298
0.128964
0.122839
0.116091
0.10897
0.101718
0.0946299
0.140152
0.137416
0.13306
0.127665
0.121576
0.11503
0.108255
0.101539
0.0952327
0.139546
0.13637
0.131821
0.126391
0.120401
0.114082
0.10767
0.101443
0.0957204
0.138971
0.135505
0.130793
0.125353
0.119485
0.113403
0.107333
0.10152
0.0962191
0.138722
0.135041
0.130181
0.124744
0.118999
0.113143
0.107375
0.101895
0.0968786
0.139073
0.135202
0.130199
0.124764
0.119126
0.113467
0.107957
0.102748
0.0979579
0.140326
0.136246
0.131079
0.125624
0.120066
0.11457
0.109271
0.104289
0.0997164
0.142898
0.138455
0.133072
0.12756
0.122045
0.116666
0.111531
0.106735
0.102357
0.147136
0.142072
0.136428
0.130822
0.125311
0.120002
0.114975
0.110301
0.106041
0.153019
0.147258
0.141383
0.135669
0.130128
0.124839
0.119861
0.115238
0.110993
0.160202
0.154113
0.148155
0.142351
0.136754
0.131436
0.126447
0.121813
0.117528
0.168324
0.162808
0.156973
0.15111
0.145427
0.140026
0.134966
0.130268
0.12593
0.178272
0.17378
0.168113
0.162166
0.156336
0.150779
0.145577
0.140758
0.136333
0.191712
0.187584
0.181842
0.175678
0.169592
0.16378
0.158343
0.153321
0.148735
0.209281
0.204488
0.19827
0.191688
0.185205
0.179017
0.173233
0.167894
0.162998
0.230652
0.224324
0.217286
0.210098
0.203081
0.196404
0.190171
0.184433
0.179193
0.254311
0.246538
0.238598
0.230711
0.223069
0.215813
0.209048
0.202838
0.197221
0.279168
0.270597
0.261903
0.253322
0.245014
0.237122
0.22976
0.223
0.216893
0.30518
0.296283
0.287023
0.2778
0.268823
0.260269
0.252267
0.244899
0.238219
0.332554
0.323627
0.313927
0.304108
0.294479
0.285265
0.276613
0.26862
0.261357
0.361655
0.352811
0.342685
0.332276
0.322019
0.312174
0.302893
0.294279
0.286408
0.393013
0.384093
0.373392
0.36235
0.3515
0.341092
0.331253
0.322074
0.313627
0.427533
0.417746
0.406098
0.394336
0.382965
0.372125
0.361874
0.352267
0.343398
0.466485
0.453877
0.440662
0.428128
0.416393
0.405355
0.394932
0.385107
0.375977
0.511268
0.491903
0.47665
0.463524
0.451748
0.440875
0.430631
0.42091
0.41097
0.240073
0.240031
0.240537
0.24159
0.243202
0.245366
0.248082
0.251328
0.255091
0.259334
0.264023
0.269111
0.274537
0.280243
0.286144
0.292162
0.298205
0.304176
0.309974
0.315497
0.320629
0.325249
0.329208
0.332294
0.334333
0.335198
0.335015
0.333768
0.331302
0.327583
0.32281
0.317038
0.310287
0.30268
0.294336
0.285376
0.275923
0.266105
0.256052
0.245897
0.235768
0.225794
0.21609
0.206764
0.197913
0.18962
0.181948
0.174954
0.16866
0.163083
0.158218
0.154043
0.150536
0.147656
0.145369
0.143635
0.142421
0.141694
0.141427
0.239227
0.239514
0.240303
0.241601
0.243408
0.245718
0.248527
0.251824
0.25559
0.259799
0.264416
0.269397
0.27469
0.280231
0.285948
0.291763
0.297587
0.303328
0.308886
0.31416
0.319044
0.323427
0.327193
0.330208
0.33232
0.333373
0.333259
0.33193
0.329403
0.325757
0.321087
0.315449
0.308896
0.301501
0.293356
0.284567
0.275252
0.265535
0.255548
0.245422
0.235291
0.225285
0.215525
0.206127
0.197193
0.18881
0.181048
0.173959
0.167573
0.161899
0.156932
0.152649
0.149026
0.146028
0.143611
0.141733
0.140356
0.13945
0.138977
0.235339
0.235679
0.236503
0.237821
0.239634
0.241942
0.244737
0.248006
0.251729
0.255879
0.260424
0.265318
0.270513
0.275946
0.281551
0.287249
0.292956
0.298583
0.304032
0.309204
0.31399
0.318279
0.321949
0.324867
0.326898
0.327918
0.327837
0.326606
0.324221
0.320726
0.316187
0.310674
0.304253
0.296999
0.289004
0.280366
0.271197
0.261617
0.251752
0.241733
0.231689
0.221751
0.212042
0.202679
0.193766
0.185392
0.177629
0.17053
0.164126
0.158427
0.153429
0.149111
0.145441
0.142386
0.139905
0.137962
0.136519
0.135549
0.135015
0.22816
0.228514
0.229345
0.230658
0.232454
0.234731
0.237482
0.240692
0.244342
0.248406
0.252851
0.257636
0.262713
0.268022
0.273499
0.279069
0.28465
0.290153
0.295483
0.300539
0.305212
0.30939
0.312954
0.315782
0.317752
0.318754
0.318704
0.317555
0.315296
0.311954
0.307582
0.302242
0.296004
0.288945
0.281155
0.272731
0.263779
0.254415
0.244762
0.234946
0.225096
0.215338
0.205796
0.196585
0.18781
0.179559
0.171905
0.1649
0.158575
0.152943
0.147999
0.143723
0.140089
0.13706
0.134596
0.132661
0.131221
0.130246
0.129704
0.218706
0.219078
0.219913
0.221217
0.222992
0.225234
0.227936
0.231085
0.234662
0.23864
0.242988
0.247665
0.252624
0.257809
0.263155
0.268591
0.274036
0.279403
0.284596
0.289516
0.294057
0.298106
0.301552
0.304279
0.306179
0.307157
0.307139
0.306079
0.30396
0.300798
0.296628
0.291505
0.285495
0.278677
0.271135
0.262966
0.254275
0.245174
0.235783
0.226228
0.216633
0.207124
0.197821
0.188839
0.180279
0.17223
0.164761
0.157925
0.151753
0.146258
0.141434
0.137263
0.133717
0.13076
0.128354
0.126464
0.125055
0.124101
0.123565
0.20706
0.20741
0.208215
0.209482
0.211211
0.213401
0.216042
0.219123
0.222622
0.226515
0.230768
0.235342
0.24019
0.245257
0.250478
0.255783
0.261092
0.26632
0.271372
0.276152
0.280556
0.284478
0.28781
0.290446
0.292288
0.29325
0.293265
0.292292
0.290311
0.287328
0.283372
0.278487
0.272738
0.266198
0.258949
0.251086
0.242709
0.233927
0.224859
0.215627
0.206354
0.197161
0.188168
0.179484
0.17121
0.163432
0.156219
0.149621
0.14367
0.138377
0.133738
0.129734
0.126336
0.123509
0.121217
0.119423
0.118094
0.1172
0.116709
0.193521
0.193825
0.194578
0.195787
0.197454
0.199577
0.202149
0.205156
0.208579
0.212391
0.216559
0.221041
0.225791
0.230752
0.235862
0.241051
0.246239
0.251342
0.256268
0.260922
0.265203
0.269011
0.272244
0.274808
0.276606
0.277564
0.277622
0.276741
0.274899
0.272095
0.268355
0.263717
0.258245
0.25201
0.245088
0.237571
0.229554
0.221139
0.21245
0.203602
0.194712
0.185898
0.177273
0.168948
0.161019
0.153572
0.146672
0.140371
0.134697
0.129662
0.125261
0.121476
0.118276
0.115627
0.113493
0.111835
0.110621
0.109821
0.109404
0.178037
0.178233
0.178879
0.179985
0.181558
0.183595
0.186091
0.18903
0.192392
0.196146
0.200258
0.204682
0.209367
0.214255
0.219283
0.22439
0.229499
0.23452
0.239365
0.243933
0.248127
0.251847
0.25501
0.257533
0.259314
0.260292
0.260412
0.25964
0.257941
0.255313
0.251783
0.247387
0.242197
0.236289
0.229717
0.222579
0.214965
0.206966
0.198715
0.190311
0.181867
0.173491
0.165294
0.157382
0.149855
0.142792
0.136266
0.13032
0.124981
0.120258
0.116145
0.112625
0.109669
0.107245
0.105315
0.103844
0.102794
0.102139
0.101842
0.160475
0.160468
0.160932
0.161892
0.163358
0.165326
0.167774
0.170665
0.174006
0.177799
0.181949
0.186397
0.191077
0.195918
0.200892
0.205932
0.211007
0.216067
0.220945
0.225492
0.229631
0.233281
0.2364
0.238903
0.240707
0.241745
0.241973
0.241352
0.239816
0.237341
0.233995
0.229832
0.224923
0.219359
0.213186
0.206419
0.199183
0.1917
0.183995
0.176104
0.168171
0.160309
0.152605
0.145157
0.138056
0.131417
0.125306
0.119802
0.114901
0.110556
0.106758
0.103513
0.100815
0.0986359
0.0969337
0.0956802
0.0948429
0.0943857
0.0942756
0.748662
0.701968
0.660027
0.619775
0.580253
0.541168
0.502791
0.465581
0.43
0.396503
0.366108
0.339661
0.317468
0.29925
0.283966
0.271187
0.261122
0.253743
0.248681
0.24538
0.243341
0.242134
0.241354
0.240606
0.239425
0.713044
0.686282
0.652289
0.615261
0.576905
0.538078
0.499509
0.461915
0.425974
0.392406
0.361964
0.335173
0.312266
0.293192
0.277653
0.265318
0.255904
0.249096
0.244511
0.241697
0.240189
0.239563
0.239442
0.239486
0.239354
0.706157
0.678899
0.645999
0.609685
0.571439
0.532331
0.493317
0.455286
0.419051
0.385354
0.354807
0.32782
0.30462
0.285254
0.269606
0.257428
0.248367
0.241995
0.237859
0.235492
0.234433
0.234254
0.234564
0.235018
0.235318
0.705392
0.674655
0.640191
0.60301
0.564128
0.524487
0.485026
0.446651
0.410196
0.376372
0.345727
0.318634
0.295319
0.275868
0.26022
0.248153
0.239295
0.233184
0.229326
0.227229
0.226427
0.226485
0.227011
0.227658
0.228108
0.706035
0.671913
0.635135
0.596329
0.556266
0.515762
0.475674
0.436858
0.400102
0.366071
0.335278
0.308082
0.284708
0.265249
0.249647
0.237677
0.228959
0.22301
0.219312
0.217356
0.216664
0.2168
0.21738
0.218073
0.218608
0.706283
0.669187
0.629984
0.589305
0.547835
0.506296
0.465453
0.426093
0.388946
0.354635
0.323654
0.296354
0.272953
0.253531
0.238009
0.226141
0.217528
0.211672
0.208041
0.206114
0.205408
0.205493
0.205993
0.206596
0.207039
0.706174
0.666162
0.624464
0.581816
0.538848
0.496178
0.454476
0.414467
0.376835
0.342174
0.310966
0.283561
0.260162
0.240815
0.225408
0.213658
0.20514
0.199343
0.195722
0.193747
0.192931
0.192845
0.193121
0.193459
0.193649
0.70583
0.662573
0.618286
0.573676
0.529217
0.485388
0.44276
0.402006
0.363805
0.328729
0.297257
0.26975
0.2464
0.227181
0.211936
0.200337
0.191924
0.186171
0.18253
0.18046
0.179464
0.17911
0.179018
0.178853
0.178505
0.704748
0.658009
0.611198
0.564749
0.518897
0.473927
0.430347
0.388743
0.349875
0.314324
0.282533
0.254932
0.231724
0.212707
0.197691
0.1863
0.178012
0.172304
0.168646
0.16648
0.165271
0.164611
0.164009
0.163001
0.161582
2.48107
2.43798
3.82441
4.89837
0.116929
0.13682
1.32482
0.0758782
3.41024
0.0927706
2.66914
0.14948
0.837181
0.179088
1.41767
0.154004
2.85994
4.70883
0.0881062
1.02736
0.712435
0.148937
3.08135
0.280472
0.0640275
0.100346
0.0634146
0.467147
2.64143
2.82941
0.0900161
0.112374
4.01195
0.945938
2.80668
0.103855
1.34615
1.42363
1.45299
0.152853
4.10441
0.0312434
0.127649
0.875349
0.336602
0.188667
3.42649
4.02192
2.88294
3.43726
3.24608
3.83053
0.687889
4.68587
1.28503
3.43489
0.166074
0.682552
0.0852305
3.68868
0.124614
4.07894
0.116124
0.162789
0.0780972
0.788544
0.122054
0.688944
0.900831
3.22675
3.47247
0.173937
0.085172
1.0626
0.0772261
0.701599
1.14792
4.02013
0.0761461
4.44918
0.88149
0.149203
0.0899121
2.55799
0.115579
0.127443
0.0817902
4.02496
4.03271
0.212386
0.262071
0.153237
0.103956
0.15486
0.0934663
2.69564
0.101344
2.82129
0.0640931
3.67302
0.280961
4.12251
0.305811
0.178034
0.0788155
0.377692
3.26023
0.85542
0.0380021
2.84618
0.152564
0.0909529
3.42267
0.174104
0.682289
2.86854
3.79811
0.144887
0.704138
0.0689342
0.00990668
0.0953452
0.28419
0.0648246
4.07527
0.125329
3.85446
0.956064
0.0913399
4.01981
0.0872463
1.06549
3.21797
1.38746
0.546952
0.081347
0.325591
0.214464
0.124613
1.0337
0.147161
1.3704
3.71247
0.0120387
2.73236
0.169162
4.85639
0.934313
0.152436
2.73986
0.593343
0.183631
4.94745
1.55121
0.0843342
2.52566
0.070258
0.144081
1.24733
0.107879
0.12545
3.42255
0.135673
2.94161
0.114743
2.88398
0.186994
0.0624361
0.18626
0.0737166
0.165355
0.16959
0.67492
2.69165
0.122082
0.416931
0.961782
2.95372
3.122
0.149275
1.14524
0.109611
0.688229
1.1521
0.71642
0.0671216
3.02976
0.032368
3.59428
0.141747
3.92261
3.69462
3.15205
1.33701
1.46735
3.73206
0.0749097
0.145945
2.8062
2.53711
1.28294
0.211545
0.142739
0.144137
0.46474
0.104632
0.127722
0.302856
2.98997
0.135025
0.0783197
0.132606
1.14113
0.443499
0.683635
4.16747
0.0980403
0.0765031
0.212766
0.262573
0.256664
0.0362214
0.0856274
4.28652
1.60997
3.86742
0.201991
2.88251
0.0386133
0.0898381
2.41475
0.10603
0.108007
0.0790987
1.42782
0.097178
1.3122
0.347105
1.18294
1.59722
0.0923886
0.123776
0.114139
0.63571
0.0827063
0.0846214
0.114712
0.410008
0.152405
0.107695
0.0353836
0.442332
0.104811
2.89381
0.0931266
0.0627399
3.26373
1.16327
1.26591
0.0881097
0.53809
0.0994219
0.122702
0.079957
1.0827
0.0653905
0.1053
4.91066
1.32372
0.0621908
0.770831
3.12313
0.0707908
0.073145
0.0901584
4.82477
0.136948
3.24081
0.176424
3.82494
0.853901
0.61498
0.586512
0.187829
3.13733
0.134283
0.396461
2.92069
3.37782
3.9587
1.57116
0.141392
0.022017
3.47353
1.72086
4.18369
4.10464
0.138393
0.109641
3.39741
3.75916
0.12508
0.184684
0.14838
4.06061
0.108927
0.714282
0.106593
1.03087
0.147218
0.176041
0.13397
3.80886
0.0857171
0.0681837
1.36523
3.69797
0.10707
0.0644237
1.79612
1.25444
0.116549
0.194806
0.089378
0.0843374
0.0657317
3.75709
0.871614
0.134379
0.691718
0.113117
1.45588
0.224354
0.0943322
4.01242
0.132614
0.098945
0.0951646
0.00383662
0.569137
0.129733
0.152552
3.50917
0.129951
1.08593
0.0981331
0.157243
0.090291
0.0788924
3.23177
2.85941
0.104329
0.0447073
1.27685
3.52574
1.36172
1.99332
0.885023
0.114404
3.39379
3.0335
2.78979
0.102496
3.82488
0.0279948
0.0772332
0.176109
3.8641
0.118267
3.521
0.157255
1.53808
2.66817
3.83
0.832805
0.0657223
0.0746795
0.115762
0.108619
0.0956832
4.11537
0.161303
4.06411
0.936544
0.911276
1.93215
0.11592
1.02592
2.56844
3.92586
1.00937
0.104986
0.311693
3.80437
1.1111
0.0896744
0.109659
3.97382
0.144019
2.67014
0.0757104
0.129808
0.114994
3.11344
0.147881
0.000758588
1.35614
0.325615
1.15567
0.0923876
3.19928
0.119319
3.39081
0.121587
0.108679
0.361248
2.92564
3.23635
0.128597
0.151525
0.117661
0.110023
0.221292
0.334705
0.181462
3.9091
0.00292432
0.207602
0.100718
0.112784
0.139752
0.0632304
0.217502
0.0770903
1.52117
0.170685
0.152191
0.0164073
0.0912474
0.218159
0.106278
1.59554
3.56315
1.02328
0.948336
5.05121
0.383269
3.52698
0.0796381
0.0755407
3.80867
0.118838
0.133541
3.29089
0.132295
3.17736
3.24846
0.128163
0.270659
1.00033
0.143714
0.696619
3.13292
1.09346
3.84761
0.0732121
0.0826141
4.30902
0.10496
2.61481
0.390824
0.0730488
2.78044
0.223265
0.0652027
0.881696
0.201432
0.0675302
0.957082
0.895448
0.695415
1.42847
0.00908665
0.149009
2.51219
0.103964
0.147688
0.190757
2.95195
0.154523
1.43605
0.143195
0.0733966
3.72119
0.11486
0.100861
1.41669
0.133401
0.106022
3.49531
0.12724
1.53573
0.12082
0.557652
0.935067
0.994643
0.141398
0.140938
1.35982
0.112864
0.130063
0.932496
0.121719
0.191623
0.0639933
3.84245
4.10723
2.96535
0.0665158
0.77188
0.105931
3.95539
1.03042
5.89779
0.964318
0.1977
3.87978
4.21918
0.105246
0.18387
0.426523
0.160797
4.69386
3.65574
0.0699175
1.1746
0.130347
3.18745
2.87217
0.148059
1.7854
2.81836
0.143681
3.46958
0.0546473
4.11135
0.117176
0.227416
0.133656
3.20334
1.38208
1.40559
0.0908346
2.93824
2.95343
3.80452
0.0819815
0.123734
0.755565
3.10331
0.103561
1.35007
0.131318
0.84017
2.75148
0.0899327
0.757157
0.0832225
0.11352
0.630022
3.88076
0.207257
1.36703
0.0897159
0.117084
3.42103
3.43182
3.15046
0.249864
0.655518
1.0601
0.682656
0.207677
0.107353
0.078478
3.95334
0.138252
0.137814
1.83078
0.200778
0.175864
0.136206
0.158724
1.47559
0.133744
0.0888421
0.889106
2.98861
0.106551
0.10861
3.52288
0.47018
0.0326651
0.20712
0.9462
0.0961152
0.135733
0.0995242
2.54704
0.118148
0.12884
1.43089
0.0836982
0.182125
0.338028
0.702505
0.0981841
0.15432
4.34069
0.174509
0.070382
0.115379
0.121438
0.242331
0.133818
3.64895
3.70856
0.432834
3.86222
0.107273
0.0623436
0.0694016
0.0544034
0.169927
0.0667949
0.743734
0.210536
0.0860467
0.167682
1.35772
0.731366
0.220225
0.783617
0.140717
0.128958
0.0849624
0.291242
1.14579
3.62989
1.48006
1.2885
0.0612399
0.0924367
0.0397603
0.203129
0.0968929
3.4557
0.0896819
0.75702
0.108981
3.22086
4.06113
2.6005
0.00830401
0.0706113
0.075692
4.22658
3.55553
0.680831
0.683043
0.128526
0.0922757
0.111248
3.71819
0.0208015
0.107244
1.37765
0.100088
0.16222
0.0980433
0.0688768
0.699581
0.214402
0.0938723
0.105336
0.253668
0.114947
2.77519
3.63545
0.113827
1.3779
0.132961
2.66688
0.0810501
0.126253
0.108746
0.0934291
1.90251
0.129366
0.131152
0.0851386
0.584855
0.0970106
0.193817
0.169959
3.80479
1.37153
0.555083
4.00359
1.45779
3.02332
2.80912
0.0894738
0.0698711
0.0710902
0.00160633
0.139123
0.851228
0.161477
0.0989685
0.779472
0.100192
0.096216
0.494642
0.114681
0.107331
0.0783819
0.552888
0.928053
4.20674
0.0918997
3.21101
1.27145
2.90011
0.767563
4.22148
3.34699
4.79134
0.0716499
0.148684
0.0123288
0.509928
0.127863
1.79733
2.84577
0.118892
1.23283
1.04865
0.0929542
0.0781047
0.117762
3.59056
4.1334
0.095465
1.3663
1.51598
0.71414
3.41223
0.000109743
0.106565
0.506097
0.0166847
2.69471
1.19751
2.92478
1.50733
0.0639346
1.51466
0.0631497
0.00483522
0.667998
0.164738
0.238564
0.10772
0.127128
1.07786
0.14886
0.0757992
0.127286
0.13711
0.961542
0.15264
3.7488
1.43758
0.140682
2.74102
0.168573
1.04986
0.133808
0.109986
0.156404
0.841902
0.637604
0.0193113
0.163438
3.27665
4.13993
1.14595
0.126625
0.952389
1.59887
1.42217
4.86095
1.34894
0.242929
0.136693
3.10093
0.0589865
0.0735408
0.291271
3.72915
3.65814
0.109109
0.105073
3.45853
0.0672078
3.9578
3.3625
0.15659
0.107744
3.4081
2.77438
2.68526
0.111942
0.104129
0.050216
0.923074
1.35234
0.117942
0.0683857
0.108628
1.13359
0.168758
0.554992
2.86521
0.0917313
0.115923
5.50851
0.0937184
0.783874
0.0747514
0.81793
0.117558
0.084998
1.66382
0.168888
0.121805
0.106075
0.473341
0.791451
4.01563
0.082031
0.10714
0.125906
1.37699
1.04258
4.06442
0.0640624
1.11481
1.44214
0.000378691
0.0715824
0.135616
2.42903
0.128119
1.11561
0.164678
0.00217718
1.2499
0.144647
6.1027
4.48081
0.907776
3.74431
3.78023
3.57606
0.0941719
3.78309
1.34116
0.148274
1.2883
0.101446
0.137178
1.02515
0.128146
0.250059
0.785955
4.49228
0.0973087
0.0809867
3.79427
0.213688
0.149825
1.35461
2.88358
2.00265
0.112248
0.322845
4.0062
2.89519
1.65222
0.753559
3.34191
0.260816
0.0689882
0.85371
3.06947
0.12095
1.51772
0.204426
3.34759
0.169791
1.05089
2.60502
0.0124758
0.121304
0.113665
3.32111
1.78021
3.30413
2.8089
0.206947
0.519105
0.728209
0.26696
2.78466
0.678484
0.103001
0.140352
0.128816
0.0600119
0.980019
2.7192
0.0160263
3.30935
0.166857
1.32609
0.101503
0.0978539
0.0735509
3.66104
3.26329
0.446279
0.794144
0.109542
0.0880263
1.54401
0.0987731
1.89942
1.45236
4.01556
0.0825
0.67904
1.55883
0.152871
0.195266
0.140434
4.0598
0.142927
0.253954
1.32727
1.38468
0.0833821
0.263406
0.103157
0.165659
0.093243
0.0933437
0.723089
0.0848474
0.35981
3.2056
1.03949
3.68481
0.135616
0.340457
0.878458
0.0820256
2.70759
0.123032
0.170328
3.59859
0.162503
0.529667
0.252238
0.0621505
2.94862
0.0986691
0.827851
0.0667948
1.30761
1.39725
3.81949
0.0828337
1.2084
0.111514
0.823772
0.155978
3.49296
1.19984
0.45413
2.83274
0.152953
3.3055
0.123924
2.88089
0.155059
0.0717038
0.140406
1.08884
1.44409
0.0667917
0.111253
1.04442
0.10194
0.118034
0.0828673
0.0622374
0.151783
4.01099
0.182045
0.134153
1.49451
0.465468
3.56183
0.0532626
0.130563
0.105721
0.914293
0.200587
0.135343
4.24825
1.08838
0.861671
0.105178
0.27394
0.958983
3.36301
0.110518
0.105519
0.170708
0.195712
0.116469
1.52158
3.9151
4.87491
0.802451
0.105967
1.56483
4.07829
0.394691
1.02115
0.156566
2.91926
2.70211
3.41612
0.119868
0.124369
0.333809
3.29133
0.209958
3.95607
0.206125
0.626994
3.10783
0.0831651
0.163963
0.176439
0.0953214
0.090195
0.270186
2.83857
0.0903146
3.80456
0.11749
0.109983
0.0836768
0.0962594
0.711106
0.139241
1.06255
0.993775
0.106976
0.178469
2.83938
2.53341
0.102345
0.128315
0.169594
1.8261
4.35885
0.369859
3.78458
0.0971008
0.0963285
0.721778
0.115381
0.448648
1.5434
0.107105
0.0784007
0.0210555
0.196818
1.12255
4.33914
1.18957
0.0985716
0.352984
0.0951925
4.07258
4.11628
0.116017
0.0952366
1.24617
0.122315
0.09444
2.68023
2.77094
0.254186
0.0987719
0.0932744
0.615725
2.9072
0.139593
0.102174
2.7184
3.27172
0.0032815
0.106609
0.12014
0.168698
0.80936
0.702365
0.123823
1.39215
0.125635
0.143213
0.099555
0.716388
0.10327
3.42327
3.0727
3.98715
2.66866
1.95723
5.78271
0.113577
3.88178
0.74773
0.0840105
0.448352
0.0239958
0.314545
0.117567
0.110818
0.072383
3.53359
0.0701211
0.43848
1.54035
0.172741
0.334318
0.7908
3.39953
0.046791
3.58001
2.83679
0.169119
0.0943191
0.301323
0.50942
0.271806
1.19629
4.38801
0.147419
0.0810628
0.121886
1.18985
4.08063
0.164853
0.192078
0.0650831
0.101133
0.139765
0.511554
0.0950835
0.197823
0.308138
3.03136
0.108416
0.335984
3.03545
0.144014
0.357675
0.296782
4.58612
0.37428
1.01705
0.70727
0.13415
5.63345
3.14409
0.105002
0.905116
1.42447
0.111147
0.152477
0.15235
1.35075
0.112174
0.851474
0.107512
1.54023
3.33646
0.971041
2.97664
0.322372
0.134608
1.06042
1.17208
0.183662
0.181958
0.161458
2.70882
0.152901
0.3644
0.10206
0.196449
0.844726
0.127487
0.083953
0.101148
3.38631
1.02863
0.0943811
0.192519
0.0900217
0.115111
0.134241
2.81869
0.181106
1.20239
3.70168
0.914016
0.00603046
1.21175
2.66254
1.03807
3.02102
0.273218
1.41925
3.80378
3.61377
0.0364157
3.06121
0.109252
3.32829
3.19374
0.0940333
0.885021
1.36986
3.96612
1.04751
0.400649
0.123332
1.32071
3.4119
1.69482
3.83449
0.196746
1.0359
0.101111
3.19847
0.473995
0.0780186
0.136666
1.00915
0.0873506
0.254452
1.02698
0.109624
2.84129
0.0664801
0.12739
2.04135
1.30321
0.197311
0.703853
1.46762
0.203524
0.79829
2.11707
0.11511
0.498218
0.10152
3.1727
1.21938
0.0679977
4.22249
0.107664
0.717079
2.03223
0.138326
0.0989071
0.698333
0.979957
1.30066
0.0907997
3.91324
0.142542
0.781429
4.0331
0.5562
0.189285
1.89825
0.166493
0.118841
0.0113425
1.31486
3.50904
0.12028
3.92882
0.328407
0.137248
1.30386
0.148989
0.14121
1.00394
0.169225
0.108707
1.39791
0.101081
0.135872
0.178014
3.26013
3.25077
0.237917
0.101611
0.0911822
1.03723
3.94162
0.112045
0.106404
0.378293
3.9822
0.116827
1.21769
1.00818
0.0735104
0.737081
3.91827
0.107272
0.272751
0.104895
2.46647
0.0976303
0.116708
0.208445
0.56292
3.38465
0.0626091
3.8127
0.0920116
2.75032
0.125658
1.25467
0.599349
1.06561
2.98058
0.183008
0.775887
0.199673
0.173529
0.176752
3.12104
3.21738
0.112892
0.115326
0.979536
0.176846
0.148867
0.0707718
4.16611
3.61619
0.997826
3.8975
0.18982
0.0740709
1.08264
0.308057
2.92771
0.0618152
0.153349
0.0754847
0.142049
0.116706
0.127676
0.121314
0.515773
4.24343
3.23644
0.0980594
0.335465
0.892235
3.50794
0.125988
4.10327
2.8897
3.67539
0.156258
1.00791
0.0899375
0.188047
0.141102
0.150157
0.0883567
2.77152
4.11496
0.160433
0.40898
1.02545
0.365222
3.256
4.03074
0.126527
0.0848826
0.1378
0.359744
1.05587
0.0807497
3.08073
0.880363
0.117577
0.212811
0.188588
0.639243
0.19714
0.0979465
0.109288
0.0979157
0.215031
0.794262
0.175152
3.93441
0.161208
0.137597
0.487875
0.19667
0.109192
3.70623
3.30979
0.140237
3.34994
0.0928253
1.21946
0.161163
0.200856
0.106104
0.0768263
3.18755
0.159973
0.179107
3.67207
2.8074
0.0939166
0.0998499
0.106462
0.18522
1.4812
0.00883757
0.127596
4.01265
0.122468
0.0932327
0.165378
3.67437
0.132161
3.31956
2.99457
0.115928
4.34967
0.176705
0.0620057
4.23637
1.82163
0.0905719
0.00306072
0.702895
0.20474
0.208608
0.0884546
1.40742
2.86237
0.145925
0.0813789
3.24499
0.120189
2.77994
1.61014
0.135514
0.926237
3.94828
0.0893957
1.00977
0.111368
0.16351
0.191007
0.116892
3.51788
3.08723
0.13162
0.0966625
3.64015
0.143976
0.197802
0.22583
0.956476
1.352
0.0720038
0.104826
0.0963653
0.114939
0.0697064
0.00229007
0.178412
0.187659
3.42116
0.713215
0.112553
1.90819
0.197524
1.08725
3.96852
1.09876
3.49795
0.443005
0.00464793
0.734026
0.193023
0.123162
2.91845
0.154739
5.44718
3.19341
0.720701
0.149929
3.71387
0.0710003
3.49807
0.128535
0.132745
3.66509
0.471492
1.08907
0.141532
0.120178
0.0811306
0.167792
1.45738
1.33774
0.117988
2.66744
0.567321
3.23146
0.0804793
4.20411
0.138242
0.114324
0.403513
0.103227
0.712005
3.6047
0.867929
0.0775964
3.08846
1.38744
1.7246
1.03274
0.760746
0.0420827
0.798893
3.5711
0.100354
0.120342
0.118763
3.78777
0.164418
0.0852017
1.3511
0.816591
0.369815
4.16298
0.995644
0.302731
0.37121
1.32788
0.20325
0.843598
0.104024
0.112464
0.114128
3.59704
0.14763
1.17993
3.29596
0.0642518
1.05635
3.15216
0.114851
2.65421
0.106204
0.82472
0.191377
0.0656732
0.165322
0.0975901
0.0656836
0.179149
0.151147
0.151061
0.19585
3.12571
0.842416
0.136948
0.818821
0.0999755
0.126127
0.109116
0.125536
0.16093
1.55394
0.0714893
1.89238
3.35175
1.5295
1.15578
1.28328
0.174337
3.40748
0.114235
0.928388
0.139769
0.127236
0.246235
2.8665
0.174134
0.10887
0.09954
0.321014
0.227985
1.51258
0.772534
1.54791
2.8893
0.120542
0.0943219
4.5207
0.115244
0.144956
0.0695812
0.249094
0.087056
0.0913625
0.160544
0.0799227
1.19582
3.42731
1.87179
0.218573
0.0990146
1.02531
3.65725
3.07914
0.0737529
0.132831
0.901575
0.103527
0.0696768
0.200778
3.36084
0.910978
0.100289
0.116149
0.160201
0.0748587
3.28559
0.12685
0.13455
0.140775
0.140404
3.14956
0.104353
1.55491
0.328448
0.174783
0.0993913
0.0902492
3.44194
0.535306
0.103931
3.94853
0.922606
0.801482
0.0786473
0.121813
1.30292
4.19114
4.14193
0.0928206
1.01565
0.104552
0.0926152
3.41832
3.08374
0.0651039
0.00212372
1.14815
1.49151
0.0993661
0.0662918
3.25939
0.112251
1.06375
0.234344
0.153127
4.6387
0.101743
0.112295
0.159688
2.74024
0.101106
0.0745807
0.109689
0.138999
0.358455
0.183392
0.697404
0.905249
0.861836
0.136858
0.12443
0.097795
0.110675
0.139431
0.121575
0.817213
0.135021
0.161391
1.60107
3.56305
0.0995794
0.0742098
0.157027
3.59395
0.12931
1.03816
0.0566184
0.0973358
0.017412
0.141444
0.106458
3.91141
0.146219
0.0839197
1.24896
0.10133
1.39925
0.131076
0.105947
3.63877
3.60514
0.0680607
3.21604
0.104619
1.14105
2.16803e-05
3.29338
0.0953719
1.72239
0.119252
3.4703
0.66922
1.23462
3.03063
3.93561
0.162425
3.87355
0.0789944
0.0827271
0.0846613
3.46958
0.275892
0.0760726
0.907766
2.52115
2.89668
0.200134
4.09928
0.0977923
0.187988
0.104889
0.644303
0.222432
1.62402
0.120947
0.15934
0.0992005
0.0854882
0.190749
3.19774
0.10451
0.0969231
4.00847
0.756137
0.066397
0.248027
3.59295
0.132261
0.119353
3.72803
0.203561
3.65726
1.32458
0.112413
0.540533
0.997739
0.0256679
0.183945
0.100511
0.069529
0.197886
0.200889
3.45148
0.0742746
1.09992
0.359702
0.142042
3.40322
1.44212
0.187461
0.113176
0.0633203
0.0922424
0.0675132
1.44482
2.57421
0.104776
0.125154
0.141524
1.21887
0.188272
0.982705
0.157465
0.124687
0.146888
0.166151
1.67715
0.184477
0.777593
1.22373
0.00053828
1.39356
0.12874
1.00855
0.672506
0.12309
0.119043
0.207579
0.0955986
0.172742
1.27363
3.72456
3.71106
3.14142
0.936079
0.0137474
0.0669621
1.34673
0.0786403
1.45789
4.03648
0.102568
2.63134
1.01554
2.49522
0.162955
0.0776512
0.12469
0.0991246
3.15653
0.103055
3.39454
0.455015
0.278545
0.0769393
3.15496
1.24966
0.138193
0.0963288
1.80164
0.171207
0.123434
0.884114
0.99546
0.0968729
0.0906437
2.87242
0.106493
1.19572
0.142939
0.132912
0.193185
3.07614
0.0139895
0.0339465
0.10334
0.10027
0.348636
0.0930305
3.63039
0.444155
0.0321715
0.143735
0.0869996
0.950068
0.276526
0.0623725
1.54333
3.51435
0.160036
1.06261
0.110376
3.1727
0.830821
0.228344
0.302569
0.124257
0.0838588
0.0797921
0.724833
0.743974
0.0923298
0.307472
1.38923
3.40943
1.88281
1.14457
0.327226
0.114533
2.94974
0.181735
0.113213
0.0823319
0.200008
1.08083
4.20631
0.181158