/*--------------------------------*- C++ -*----------------------------------*\
  =========                 |
  \\      /  F ield         | OpenFOAM: The Open Source CFD Toolbox
   \\    /   O peration     | Website:  https://openfoam.org
    \\  /    A nd           | Version:  10
     \\/     M anipulation  |
\*---------------------------------------------------------------------------*/
FoamFile
{
    format      ascii;
    class       volScalarField;
    location    "1550";
    object      nut;
}
// * * * * * * * * * * * * * * * * * * * * * * * * * * * * * * * * * * * * * //

dimensions      [0 2 -1 0 0 0 0];

internalField   nonuniform List<scalar> 
10435
(
0.540974
0.414817
0.530921
0.499662
0.466764
0.504504
0.548573
0.680094
0.82622
0.517145
0.442421
0.540211
0.530954
0.875076
0.800196
0.586973
0.949856
0.542097
0.904338
0.534103
0.628912
0.552256
0.554216
0.813702
0.506442
1.37242
1.36296
0.524545
1.26225
0.526841
0.511671
0.45203
0.722131
1.25652
0.691993
0.363284
0.629965
1.39096
1.29515
0.885133
0.532431
0.546669
0.950259
0.486305
0.571785
0.855549
0.516726
1.10773
0.848094
0.616867
0.664121
0.483775
1.25896
1.28752
1.31635
1.21834
0.670564
1.3559
1.11095
0.745158
1.28296
0.397341
1.31857
0.478171
0.56006
0.521373
1.16945
1.23421
0.642754
0.794314
1.29175
1.41139
0.843339
0.525006
0.727951
0.760548
0.756178
0.565911
0.759775
0.774031
0.661203
0.610388
1.22221
1.2841
0.688147
0.402766
0.443408
0.446694
0.538119
0.435178
0.453393
0.460698
0.59389
0.499181
0.435445
0.35887
0.472556
0.672274
1.04361
0.465428
0.604014
0.478147
0.464908
0.440302
0.48315
0.490997
0.587357
0.639123
0.717871
0.719773
0.600872
0.47424
0.637355
0.674269
0.4581
0.541259
0.474345
0.395071
0.428025
0.49879
0.484673
0.666525
0.396698
0.362568
0.466042
1.32215
0.486512
0.550606
0.46409
1.4958
0.440105
0.462486
0.628156
0.83779
1.41911
1.09285
0.330179
0.513497
0.416855
0.536067
0.533092
0.531207
1.21015
0.491708
0.5699
0.656305
0.328473
0.483643
0.907216
0.521591
1.1649
0.589535
0.485749
0.514595
0.491629
1.25711
0.469115
0.405625
0.502438
0.442443
0.536884
0.905588
0.448099
0.606683
0.66691
0.471069
0.741689
0.54038
0.636615
0.477033
0.498107
0.926913
1.25159
0.602686
0.564971
0.426026
0.378795
1.06503
0.591976
1.2796
0.429981
0.496307
0.521631
1.28539
0.53976
0.99097
0.80999
0.581915
0.469118
0.486643
0.504601
1.18833
1.47673
0.351458
0.471297
0.61045
0.848845
0.432074
1.07538
0.602777
0.60148
1.32161
0.526154
1.32791
0.523118
0.456757
0.438053
0.527546
1.2938
0.586343
1.12267
0.541725
0.491616
0.594542
1.31726
0.82173
0.621809
1.17414
1.38214
0.97491
1.27803
1.06049
1.22918
0.510026
1.33574
0.653253
1.33002
0.483279
0.496268
0.652903
1.14507
0.698991
1.35265
0.603616
1.48884
1.01975
0.70139
1.37991
0.694802
0.500971
0.482478
1.30471
1.12701
1.24794
0.452719
0.784149
0.370423
0.632087
1.04228
0.404539
1.14014
0.562881
0.530574
0.60112
0.603325
0.469251
0.982902
0.584133
1.18483
1.24408
0.56722
0.492558
1.34201
0.686855
0.584837
1.12332
0.481221
0.527069
1.21782
0.460438
0.552259
0.682356
0.630471
0.513825
1.42103
0.510114
1.44611
0.463417
0.592531
0.713742
0.523246
0.957629
0.540497
0.549115
0.527132
1.14218
0.474092
1.30349
1.27931
1.26958
0.422727
0.454958
1.27522
0.656583
1.30863
1.27926
0.742668
0.557814
0.461196
0.507858
1.16726
0.680319
0.532633
1.11062
0.456318
0.742246
0.982818
0.615529
0.513609
1.27245
0.586569
1.34046
0.378715
0.477599
0.782253
1.24455
1.25773
0.503953
1.20661
0.546945
0.489326
1.29254
0.501105
1.15541
0.747638
0.523909
1.47307
0.528238
1.1849
1.41588
0.796235
1.24446
1.2643
0.536324
0.552945
1.31076
1.209
1.09904
1.24348
1.2101
1.49452
1.3418
1.25051
1.25811
1.21529
1.25352
1.27682
1.51429
1.12337
0.785504
1.25462
0.517771
1.34075
0.526639
0.780235
0.861137
0.531601
0.528954
1.27224
1.2732
1.1425
1.34608
1.18956
1.17898
1.28268
1.49666
1.27394
0.576502
1.46327
0.812433
1.33058
1.50778
0.53263
0.883784
1.10519
1.38483
1.35144
1.4359
1.27945
1.40671
1.64366
1.31229
0.732381
1.25096
0.661003
0.807868
0.527696
0.530128
0.833586
0.526523
0.73616
0.544513
1.0236
1.27058
1.26144
0.529861
1.27912
0.533054
1.60272
1.28561
1.50374
1.25923
1.22242
0.563688
1.4006
0.696026
0.626863
1.06832
1.44243
1.53266
0.888592
1.57702
1.45928
1.27679
1.2006
1.20451
1.25735
0.526467
1.2817
1.41728
1.25805
1.22226
0.537724
1.01623
1.06688
0.898419
1.26449
6.94575
6.967
6.95408
6.93383
6.92743
6.95873
7.06341
7.29539
7.74161
6.22943
6.25204
6.25929
6.26308
6.2796
6.32941
6.44166
6.65723
7.02976
5.51073
5.5328
5.5504
5.56826
5.59812
5.65682
5.76783
5.96254
6.27895
4.80351
4.82389
4.84564
4.87018
4.90592
4.9662
5.06976
5.24109
5.50886
4.12633
4.14436
4.1663
4.19232
4.22845
4.28505
4.37679
4.52284
4.74647
3.49904
3.5144
3.53416
3.55827
3.5911
3.64059
3.71795
3.83732
4.01633
2.93934
2.95205
2.96824
2.9884
3.01592
3.05678
3.11909
3.2127
3.34909
2.46066
2.47026
2.48194
2.49713
2.51852
2.55063
2.59914
2.67064
2.77188
2.06922
2.07428
2.0808
2.09074
2.10622
2.13049
2.1675
2.22171
2.29753
1.76158
1.76111
1.76257
1.76779
1.77822
1.79608
1.82403
1.86513
1.92267
1.52631
1.52127
1.51896
1.52069
1.52735
1.54034
1.56143
1.59264
1.63615
1.3488
1.34254
1.33871
1.33853
1.34273
1.35227
1.36835
1.3923
1.42559
1.21797
1.2138
1.21046
1.20966
1.21237
1.21947
1.23191
1.25062
1.27658
1.12799
1.12644
1.12416
1.12321
1.12485
1.13006
1.13967
1.15447
1.17511
1.07361
1.07304
1.07113
1.06972
1.07021
1.07362
1.08077
1.09233
1.10888
1.04793
1.04636
1.04366
1.04116
1.04016
1.04163
1.04637
1.05496
1.06783
1.0428
1.03938
1.0351
1.03095
1.02804
1.02734
1.0296
1.03535
1.04489
1.05114
1.04617
1.04003
1.03384
1.02871
1.02558
1.02519
1.02812
1.03469
1.06862
1.06242
1.05437
1.04592
1.03828
1.03244
1.02919
1.02912
1.03264
1.0926
1.08535
1.07527
1.06432
1.05388
1.04503
1.03863
1.03531
1.03549
1.12172
1.11322
1.10081
1.087
1.07341
1.06122
1.05133
1.04447
1.04119
1.15546
1.14504
1.12962
1.11245
1.09531
1.07941
1.06564
1.05478
1.04755
1.19423
1.18022
1.16066
1.13946
1.11834
1.09836
1.08031
1.06494
1.05309
1.23955
1.21815
1.19277
1.16689
1.14145
1.11715
1.0945
1.07407
1.05678
1.29485
1.2572
1.22439
1.19364
1.16377
1.1352
1.10788
1.08188
1.05778
3.66306
3.74672
3.83567
3.92942
4.02772
4.13006
4.23609
4.34519
4.45698
4.5708
4.68623
4.80279
4.91986
5.03707
5.15372
5.26928
5.38314
5.49461
5.60299
5.70763
5.80765
5.90228
5.99065
6.07175
6.14482
6.2092
6.26492
6.3118
6.34949
6.37814
6.39858
6.41141
6.41732
6.4175
6.4133
6.40639
6.39864
6.39209
6.38902
6.39192
6.40334
6.42598
6.46218
6.51406
6.58318
6.67019
6.77444
6.89405
7.02498
7.1617
7.29681
7.42168
7.5275
7.60535
7.64808
7.65024
7.60935
7.52519
7.40215
3.62935
3.71388
3.80316
3.89696
3.99499
4.09689
4.20229
4.31076
4.42186
4.53511
4.65005
4.76618
4.88299
4.99995
5.1165
5.23204
5.34596
5.45757
5.56617
5.67102
5.77136
5.8664
5.95532
6.03734
6.11163
6.17747
6.23435
6.28206
6.32067
6.35056
6.37226
6.38635
6.39359
6.395
6.39184
6.38567
6.3783
6.37175
6.36832
6.37046
6.38075
6.4018
6.43611
6.48587
6.55269
6.63736
6.73942
6.85694
6.9862
7.12167
7.25615
7.38118
7.4878
7.56724
7.61191
7.61628
7.57739
7.49487
7.37234
3.57259
3.65424
3.74072
3.83187
3.92742
4.02706
4.13041
4.23708
4.34663
4.45862
4.57257
4.68798
4.80434
4.92111
5.03771
5.15354
5.26793
5.38022
5.48967
5.59552
5.69698
5.79323
5.88345
5.96682
6.04255
6.10996
6.1686
6.21821
6.25877
6.29053
6.31395
6.3296
6.33826
6.3409
6.33874
6.33327
6.32622
6.3196
6.31561
6.31671
6.32545
6.34448
6.37632
6.42326
6.48704
6.56858
6.66765
6.78255
6.90983
7.04424
7.17881
7.30529
7.41477
7.4985
7.54879
7.55986
7.52842
7.45376
7.33912
3.48506
3.56335
3.64659
3.73462
3.82723
3.92415
4.02504
4.12954
4.23726
4.34775
4.46055
4.57517
4.69109
4.80775
4.92456
5.04089
5.15607
5.26937
5.38005
5.4873
5.59031
5.68824
5.78025
5.86551
5.94325
6.01282
6.07374
6.12571
6.16867
6.2028
6.22846
6.24619
6.25674
6.26105
6.2603
6.25591
6.24958
6.24325
6.2391
6.23956
6.24719
6.26465
6.29453
6.33919
6.40052
6.47962
6.57648
6.68964
6.81593
6.95038
7.08627
7.21548
7.32918
7.4185
7.47557
7.49429
7.47104
7.40473
7.29826
3.37208
3.44657
3.52616
3.61074
3.70015
3.79416
3.89247
3.99476
4.10065
4.20973
4.32154
4.43557
4.55131
4.66818
4.78555
4.90278
5.01916
5.13393
5.24631
5.35546
5.46053
5.56067
5.65502
5.74274
5.82307
5.89538
5.95919
6.01416
6.06018
6.09736
6.12597
6.14651
6.15968
6.16639
6.16777
6.16521
6.16036
6.15513
6.1517
6.15246
6.16002
6.17706
6.20625
6.25006
6.31052
6.3889
6.48539
6.59878
6.72615
6.8627
7.00189
7.13568
7.25515
7.35135
7.41618
7.44322
7.4285
7.37061
7.27213
3.23663
3.30685
3.38243
3.4633
3.54936
3.6404
3.73617
3.83637
3.94066
4.04861
4.15976
4.27362
4.38964
4.50721
4.6257
4.7444
4.86257
4.97942
5.09413
5.20582
5.31363
5.41665
5.51405
5.60495
5.68861
5.76441
5.83183
5.89053
5.94037
5.98137
6.01378
6.03804
6.05481
6.06496
6.06958
6.07004
6.06794
6.06516
6.06389
6.06655
6.07574
6.09424
6.1248
6.17001
6.23208
6.31245
6.41154
6.52832
6.66004
6.80203
6.94777
7.08914
7.21707
7.32232
7.39647
7.43277
7.42692
7.37724
7.28612
3.0828
3.14832
3.21956
3.29652
3.37914
3.46726
3.56066
3.65907
3.76213
3.86943
3.98051
4.09484
4.21183
4.33085
4.45121
4.57217
4.69296
4.81274
4.93063
5.04573
5.15714
5.26395
5.36529
5.46031
5.54824
5.62847
5.70047
5.76391
5.81859
5.86452
5.9019
5.93115
5.95291
5.96802
5.97755
5.98284
5.98546
5.98729
5.99053
5.99762
6.01122
6.03419
6.06942
6.11969
6.1874
6.2742
6.38071
6.50603
6.64749
6.80041
6.95806
7.11204
7.25283
7.37068
7.45666
7.50361
7.5069
7.46471
7.37939
2.91432
2.97456
3.04107
3.11392
3.19309
3.27846
3.36984
3.46696
3.56946
3.67692
3.78882
3.90458
4.02354
4.14502
4.26829
4.39259
4.5171
4.64092
4.76313
4.88277
4.99891
5.11064
5.21711
5.31746
5.41089
5.49682
5.57474
5.6443
5.70529
5.7577
5.80177
5.8379
5.86671
5.88907
5.906
5.91892
5.92939
5.9392
5.95065
5.96621
5.98867
6.021
6.06631
6.1277
6.20785
6.30864
6.43083
6.57351
6.7339
6.90712
7.08606
7.26155
7.4231
7.55991
7.66207
7.72173
7.73393
7.69693
7.61352
2.73707
2.79117
2.8524
2.92094
2.99682
3.07989
3.16992
3.26646
3.36937
3.47838
3.59255
3.71118
3.83348
3.95868
4.08614
4.215
4.34457
4.47396
4.60189
4.72742
4.84967
4.96773
5.08085
5.18817
5.28873
5.3821
5.46774
5.5454
5.61483
5.67615
5.72971
5.77585
5.81502
5.84818
5.87635
5.90154
5.92526
5.94847
5.97406
6.00471
6.04351
6.09365
6.15834
6.24159
6.34676
6.47564
6.62907
6.80484
6.99982
7.20987
7.42801
7.64343
7.84273
8.01255
8.1407
8.2169
8.23527
8.19492
8.10065
1.38242
1.33355
1.29595
1.26264
1.23121
1.20127
1.1735
1.1492
1.13025
1.11904
1.11862
1.13205
1.16204
1.21078
1.28032
1.37354
1.49296
1.63998
1.81459
2.01598
2.24329
2.49611
2.77481
3.08119
3.41924
1.31444
1.30377
1.28139
1.25449
1.22581
1.19696
1.16945
1.14503
1.12577
1.11418
1.11311
1.1255
1.15424
1.20204
1.2715
1.36515
1.48498
1.63205
1.8064
2.00732
2.234
2.48602
2.76395
3.06992
3.40841
1.29287
1.28487
1.26714
1.24351
1.21663
1.18852
1.1611
1.13636
1.11655
1.1042
1.10209
1.11318
1.14053
1.18714
1.25584
1.34904
1.46839
1.61461
1.78752
1.98629
2.21
2.4581
2.73095
3.0303
3.3597
1.28213
1.27207
1.25474
1.23197
1.20566
1.17769
1.15001
1.12468
1.10402
1.09058
1.08712
1.09667
1.12238
1.1674
1.23465
1.32642
1.44411
1.58814
1.75798
1.9526
2.17086
2.41203
2.67628
2.96505
3.28144
1.27385
1.26178
1.2437
1.22068
1.19414
1.16575
1.13738
1.11111
1.08925
1.07437
1.06926
1.07698
1.10074
1.14376
1.20891
1.29839
1.41335
1.55386
1.71911
1.90772
2.11833
2.35006
2.60294
2.87831
3.17909
1.26572
1.25223
1.23334
1.20974
1.18258
1.15339
1.12396
1.0964
1.07301
1.05637
1.04932
1.05494
1.07647
1.11711
1.17967
1.26615
1.37747
1.51337
1.67267
1.85368
2.05479
2.27493
2.51404
2.77341
3.05588
1.25691
1.24277
1.22349
1.19937
1.17144
1.14117
1.11039
1.08121
1.05598
1.0373
1.02805
1.03136
1.05044
1.08845
1.14806
1.23107
1.33811
1.46859
1.62096
1.79318
1.98333
2.19012
2.41331
2.65421
2.91575
1.24641
1.23332
1.21444
1.19005
1.16126
1.12969
1.09727
1.06619
1.03888
1.01794
1.00632
1.00717
1.02369
1.05894
1.11543
1.19474
1.29718
1.42182
1.56673
1.72947
1.90777
2.09997
2.3055
2.52551
2.76299
1.23493
1.2248
1.20713
1.18255
1.15272
1.11958
1.08525
1.05209
1.02255
0.999232
0.985166
0.98355
0.997541
1.03008
1.08355
1.15922
1.25714
1.376
1.51347
1.66672
1.83312
2.01044
2.19742
2.395
2.60477
0.53258
0.531896
0.397265
0.549904
1.06406
0.94843
4.14451
1.50828
0.377335
6.31346
0.260449
0.75399
1.56487
0.691033
4.54514
3.34235
0.306204
0.539091
8.80281
1.32354
3.35997
4.92566
0.295224
0.713208
0.744211
1.8736
0.796901
0.917471
0.472219
0.294218
6.1092
2.2281
0.507751
1.96222
0.289843
1.81478
2.30426
4.54323
2.16706
1.27291
0.388559
0.168936
3.71463
1.04629
0.935617
5.94723
0.281408
0.309168
0.435522
0.550141
0.274535
0.370282
3.90121
0.531918
4.07326
0.3816
0.693665
3.93281
0.620618
0.332894
1.86735
0.409463
1.00925
4.25425
1.61169
1.13674
1.5809
0.256709
1.347
0.506004
0.386468
5.33033
1.03785
1.50592
0.652291
3.47099
2.0371
0.330844
0.724843
0.516665
2.19801
2.00267
2.05003
0.244211
1.35837
1.71721
1.31169
0.336369
0.503395
1.03591
0.862722
1.16719
7.22756
0.761635
0.983415
0.263252
1.81693
0.260558
0.402699
0.334769
0.854898
0.396547
0.875441
5.63752
0.629656
1.03518
0.305725
2.45353
0.197414
0.296983
4.55174
0.503798
0.326921
5.67866
3.98431
0.439811
0.440793
1.35518
3.12767
0.332136
0.0968516
0.521245
0.691276
0.726316
0.497029
3.49825
0.374146
1.6536
0.852393
0.30988
1.89783
1.56146
0.495471
2.07757
1.05093
1.23426
0.907867
0.791071
2.24407
1.22385
5.99715
2.02977
0.331712
0.113605
0.460581
3.58355
0.556346
2.54311
3.27249
0.28832
2.17395
1.26667
0.556552
4.56719
0.591031
0.244275
0.778652
1.38392
2.51371
2.47955
3.87833
0.379638
3.60855
0.265418
5.542
0.254951
0.733026
0.748513
4.06439
0.745475
0.667643
4.48536
0.263532
0.248756
1.46387
1.03664
3.38369
0.490371
0.387717
5.91763
3.06331
2.1245
3.81964
3.55336
1.21252
0.879751
0.258994
0.196395
0.54665
2.93452
0.317912
0.334073
0.494823
1.92547
4.67252
0.540192
0.646405
4.82848
0.451864
0.497757
0.958503
4.88104
1.96024
2.90604
2.18844
3.946
1.4661
0.857804
0.444113
1.53145
0.637427
0.674943
2.79187
2.13611
1.98033
0.372375
0.777328
1.37637
5.62681
1.03488
0.732107
0.200946
0.568285
0.430769
0.274744
0.42151
1.01052
0.309513
0.18986
1.04176
0.240362
1.9089
1.92263
1.10035
2.17262
5.38702
2.93178
0.816379
3.55639
4.76431
4.00073
1.77425
5.13423
1.11137
1.10302
1.66942
2.44435
1.00567
3.34515
4.07501
0.174295
1.07093
2.41806
0.447642
1.0604
0.730375
0.315261
2.15719
2.62482
8.64214
0.310581
0.870259
2.65784
0.595918
1.6559
0.695808
4.45327
0.559966
4.11101
0.788386
3.21922
0.493639
0.494189
1.23742
8.86648
0.559348
1.35339
0.352832
0.744368
0.335837
1.16211
2.11143
0.277573
5.93789
0.3837
2.40616
1.04816
0.396836
0.293187
0.316091
4.71912
3.76049
0.126425
0.293832
1.08528
0.38027
0.386901
1.2581
2.39748
0.361487
0.339101
4.03328
0.854606
2.95226
0.399507
5.06356
3.2465
1.98692
1.21804
2.16022
5.42277
6.53039
0.530631
0.847237
0.429318
1.6881
0.294026
2.34186
0.788805
1.20868
2.52659
3.11515
0.780952
6.18054
1.3481
0.735563
0.442761
2.52822
1.29079
3.84516
5.58658
4.66716
0.690583
6.07521
0.348282
1.75069
2.37676
2.21747
0.127675
0.291544
0.653715
0.770177
0.346184
6.60887
1.72393
0.747655
0.792807
1.08564
1.10197
0.266468
0.450928
7.08346
0.170883
2.69263
0.297823
0.248344
0.948155
1.01261
4.91143
0.269994
0.451893
0.281755
3.23492
0.425316
0.175942
1.16072
4.04159
0.30613
2.62811
0.55144
6.18747
4.49279
0.4846
0.405673
1.59489
0.579042
0.422531
6.39797
1.96125
5.37112
0.393591
4.16246
0.498088
1.0368
1.01458
1.02859
5.71894
1.34867
0.262838
0.317173
3.3189
4.04533
1.03469
0.487226
3.24012
7.58268
4.9012
0.509246
1.37545
0.473635
1.52639
3.81434
1.28775
0.552598
0.766099
0.107245
4.30489
1.02803
0.822912
3.9536
0.487391
2.57543
0.359053
2.18389
2.74456
0.13293
0.421223
0.267116
1.45451
1.18077
5.67583
2.05798
1.01834
0.884964
4.22422
0.330192
0.101439
0.85284
2.4411
2.378
2.84126
0.734964
1.03926
0.714366
4.57192
3.9547
4.62277
0.100389
1.17477
0.338069
2.77176
4.74733
0.304003
0.899473
1.2559
0.488859
0.854028
0.470917
0.645323
0.731898
0.407546
3.7376
3.50298
0.368124
6.56192
0.510413
0.264777
1.91355
0.819738
1.91126
3.87858
1.22362
0.487527
2.74295
0.335443
1.26599
0.654118
0.423821
2.882
0.267611
1.02797
1.10745
0.282522
0.289164
0.766423
1.78701
1.05356
0.857704
2.66489
2.76701
2.15991
2.66259
0.134109
0.760628
0.242995
1.19019
2.2485
5.29907
0.508793
5.72281
4.56521
3.53218
0.449232
0.489832
2.55808
0.621246
4.5336
2.5306
6.38531
0.549168
3.8404
4.63002
2.43123
1.04207
3.35733
2.18387
2.83911
2.96013
4.30791
2.25118
5.03894
2.411
1.47715
1.06347
0.757788
0.305577
0.414053
0.413794
0.53622
2.85605
7.49917
0.317082
1.30776
0.559551
1.75095
5.63568
0.331286
0.421234
3.64387
4.73951
1.03101
5.79656
0.55437
0.426827
0.32074
0.808179
3.8251
0.386338
0.450952
3.64045
1.2137
0.29845
4.86238
0.316147
0.208128
0.437221
2.99664
0.689168
2.59302
0.346943
2.49244
2.95363
0.869095
0.450509
0.419265
0.30051
0.576054
6.76956
2.13636
0.437151
2.1986
2.33457
3.89713
1.70085
0.290946
7.31686
2.86188
0.651909
2.33562
0.273725
0.519715
5.61219
4.08896
0.642056
0.902713
0.329137
0.274708
0.438973
0.731241
0.270926
1.30972
3.86562
4.80099
7.40896
1.54545
0.508227
4.86114
0.911363
0.961767
4.84394
0.958336
1.40656
4.21019
4.27301
6.52675
0.628109
1.87314
0.4106
1.12526
2.25959
0.346829
0.912945
0.206146
0.822537
1.69786
1.12654
2.35082
2.80801
0.365641
3.4928
3.95195
2.4393
1.70061
4.01817
0.980103
3.78359
1.06491
0.814776
0.449771
4.6009
1.24559
3.07608
6.81403
1.44854
0.747548
0.336401
0.281475
0.896211
0.514343
0.704561
0.740659
1.02169
0.457064
3.63384
0.32495
3.51044
0.994136
0.540039
1.18159
4.0106
2.8158
0.697654
1.1218
4.7197
0.979404
1.80847
0.759337
0.826329
0.33818
4.35396
2.75824
0.328394
6.66396
0.153805
5.65933
3.14933
0.276181
8.72493
2.70812
3.13086
0.428943
0.485498
0.255189
0.0949918
1.09238
1.38832
0.418792
0.46391
1.11757
3.93828
0.736845
8.59542
1.2431
0.338489
0.16413
2.6175
2.50721
1.79352
6.14599
4.36965
0.476078
3.80897
0.728937
2.09384
4.18829
0.730577
6.27728
0.46465
0.329051
2.34495
4.35853
1.31556
0.267742
1.62412
6.70655
4.06785
1.56839
0.867676
2.40403
5.21743
0.615106
0.285769
1.21341
5.37141
5.66747
0.323008
4.40238
1.81702
0.315287
4.63936
0.516205
0.28803
8.91957
0.822483
1.21922
0.118715
3.37736
1.14473
3.34157
1.8697
1.93077
7.8905
3.07764
0.805776
3.91217
1.93478
1.65254
1.66057
2.60169
0.405343
8.41961
0.3903
3.8505
0.487189
2.71898
0.409421
0.290369
0.556382
1.14489
3.16865
0.12032
0.319605
3.34175
0.96632
0.540157
6.92016
2.31438
0.878137
1.03898
1.64073
2.38004
0.2758
0.457845
2.27133
4.08783
4.27972
3.37822
0.407828
0.0571028
3.90128
0.894096
0.161619
0.541839
0.814428
0.289171
4.4143
0.713612
4.42253
0.276509
0.143157
1.15136
0.965727
0.81456
2.31798
3.63153
0.270198
3.12525
0.934302
3.98441
3.2284
0.252329
1.25608
0.343107
4.56291
5.01241
0.435622
4.39624
1.30573
1.34422
7.26104
6.17964
3.02375
1.87131
0.18544
5.73277
0.269835
0.466755
2.81241
2.21212
2.81386
1.05309
3.57758
0.472998
2.52641
0.849372
6.472
0.294176
0.326852
1.43092
0.904109
0.541742
0.393698
1.82144
1.60837
0.544149
0.99683
0.433285
0.480262
5.79668
1.81204
0.361715
0.505266
0.523055
5.38349
2.32762
0.394511
2.8551
2.50966
4.01275
1.17827
0.623585
2.86508
0.523442
0.47163
0.546748
8.53032
3.00019
0.52039
8.21543
3.38577
0.431556
2.96492
2.107
0.50415
1.00499
5.28136
6.81792
6.15897
1.11547
3.33063
0.341513
1.65593
3.26029
3.24862
4.25472
1.26334
0.427516
0.307742
1.11141
4.61783
0.0300434
0.676142
0.626563
0.23949
1.69848
1.64802
3.65858
0.0615324
4.00453
3.09068
0.559992
0.541366
2.54712
0.336969
0.324674
0.277473
8.06389
0.522544
3.83715
6.3015
4.10747
1.95551
0.618902
1.78215
2.42575
1.03319
2.60765
0.463315
0.367405
0.459736
0.535744
0.832799
2.94297
4.09868
0.507188
0.970027
7.18155
0.822177
0.313969
0.288462
1.16137
3.49987
0.554634
1.47777
0.925621
3.08293
0.396009
1.63261
0.285329
1.34124
0.47928
3.74237
3.4054
0.52051
0.112608
0.661225
7.12016
0.363789
0.828464
0.405197
0.447543
5.25462
0.944851
2.76833
1.0024
0.539581
3.93667
3.36213
2.76001
2.57734
0.3454
2.93632
0.270255
0.209483
0.370247
6.10439
3.05398
7.79304
1.69825
1.3697
0.423541
0.437669
0.897308
3.14919
2.07552
0.866734
4.70841
2.71052
1.0649
1.90365
0.439607
0.457327
0.253821
4.67048
3.20025
4.56312
1.86746
0.441285
1.28432
0.820654
3.13412
4.38534
0.637931
0.961212
2.22428
5.44259
0.612211
1.11771
3.58293
1.3822
0.715172
0.376982
1.31558
0.429503
3.71616
0.658645
3.04437
0.458985
0.461204
0.915464
0.690284
0.34395
3.53837
0.425807
1.39711
0.772058
0.443688
5.0144
0.236862
0.595911
4.00086
4.17062
0.452187
0.551723
2.80679
2.13916
0.247126
3.45971
0.362934
3.37153
0.376809
0.300236
0.566186
0.271613
2.63196
0.458008
1.39469
1.3463
1.33628
3.52702
4.60849
0.294403
7.21754
1.70191
2.43031
6.926
0.522031
0.49587
3.77527
0.312539
4.06874
3.26144
4.15808
1.05984
0.276527
0.336326
6.60274
1.58582
0.197041
4.48706
0.658939
0.431743
0.217588
1.03692
2.09242
0.977049
3.2213
0.367021
5.42969
7.48909
1.10689
4.38963
1.60845
0.287236
0.319833
0.532393
2.64612
1.95643
4.73598
0.452278
0.991229
1.9987
3.3004
0.504025
0.278414
0.272654
2.2437
2.40628
0.986866
0.415338
5.22781
0.440411
0.987523
0.307232
0.492939
0.689006
1.17682
0.794435
6.76478
6.4617
0.131819
0.517035
8.71449
0.534384
2.09369
1.94587
1.40199
4.6123
3.69329
0.555808
1.3632
3.40672
1.25556
4.21242
0.457513
0.250454
3.11177
1.30255
5.51551
0.316314
0.505993
1.00727
0.337359
1.75764
7.84953
2.89258
2.25404
2.1331
4.78039
2.92202
1.22022
0.190299
0.652129
3.43214
0.485312
2.73444
7.88857
0.968669
3.35962
0.4293
0.409339
4.86584
7.67271
2.38406
1.88963
0.603649
0.479223
0.496596
0.250372
6.35526
0.627846
1.05249
0.547016
0.753769
0.344918
0.539503
0.376479
0.131025
2.08762
0.719547
6.08104
0.249238
3.45827
2.9091
3.41789
2.35712
6.37147
1.62427
3.6804
1.46983
0.300878
0.489379
0.428636
0.540592
0.993824
0.564586
2.31909
0.407509
3.48793
1.78633
0.335972
0.248785
0.947432
3.80358
2.25729
0.377321
0.467317
0.672649
1.01075
4.72772
0.681418
0.755769
0.251128
0.271569
0.310084
0.306527
0.263842
0.758582
1.20192
0.855078
0.325921
0.92719
3.03393
0.467714
6.3011
0.48677
1.83604
3.85343
0.414831
3.49308
1.05702
0.71038
3.0084
1.52578
0.992773
7.29016
0.761972
0.938106
0.460539
6.55222
0.613409
0.328267
3.12601
0.933721
0.720134
0.544852
0.631397
0.243964
2.9402
3.7237
0.534211
0.389728
1.54087
3.1638
4.49755
4.93329
2.1158
6.24539
4.0373
2.24015
1.71787
7.35607
4.75884
0.554761
1.64267
0.467374
0.224326
1.84152
1.7877
2.86848
0.938898
5.15651
0.40095
0.275021
6.24453
0.537067
0.747243
5.56834
3.04973
0.603186
0.854097
2.90467
0.400657
1.69949
4.42847
5.83668
5.27054
3.38906
2.75869
0.487823
5.90871
0.791969
0.541354
2.00967
0.109663
2.62372
0.488936
1.27121
0.517356
0.915409
1.36325
0.403948
0.34125
0.327498
0.40451
5.28785
0.367207
0.416239
8.39442
1.4966
4.42367
0.324483
2.44445
0.981876
3.98185
4.05166
0.499174
0.290208
0.398727
5.12144
1.28191
7.71341
0.411689
2.19391
0.627433
2.92264
1.51657
0.46231
1.52313
1.16789
3.35974
0.438695
0.408662
4.9585
0.874701
3.92616
1.0522
3.59984
4.70165
5.09027
3.38549
0.333906
7.05773
1.0965
0.697743
0.54901
1.09252
1.02044
0.400389
7.39399
3.53948
0.324523
6.43636
1.25468
3.56804
3.29604
3.80168
0.926058
0.321036
0.751233
3.4166
0.352121
2.11536
5.14235
1.04765
4.55565
3.0671
0.111855
3.00293
0.504596
2.07728
0.507274
0.658696
2.87846
1.5833
4.41311
0.710765
1.22072
6.04422
3.85723
0.255896
0.554202
5.14311
6.00971
0.552553
0.448658
1.00325
5.98321
1.21281
1.28446
0.331254
2.20173
0.92027
1.00271
0.482715
0.954017
1.13791
1.16145
1.43742
3.56556
0.404114
2.19743
1.03082
4.52365
0.367444
1.52959
2.6689
0.924085
1.01878
0.477497
0.285706
0.476959
0.581275
0.260587
5.27197
3.94337
1.93612
1.3601
0.459628
0.781067
1.04194
4.64508
4.98954
3.99338
0.407558
0.379939
7.13299
5.32379
0.250607
5.26678
0.731761
0.500035
0.377524
0.342729
1.81934
0.456027
5.45599
1.39556
1.4092
0.624566
0.465974
0.540225
1.94402
0.637099
1.24335
2.19359
1.38675
1.91835
1.56237
0.445613
0.418844
8.00876
0.8563
2.63862
0.388802
3.01519
0.429402
0.543185
0.335442
5.6225
1.76819
1.89695
5.76945
6.0492
1.84216
8.50604
0.48415
0.464028
6.12649
0.960249
1.16778
0.597927
0.489512
0.305788
1.4177
0.74844
1.45962
0.961621
2.19603
0.667722
0.450581
1.12459
6.5776
0.739584
4.78302
1.13085
4.8475
1.23693
6.82089
1.36701
1.01572
3.35575
6.01005
0.42521
3.37143
3.88032
0.327223
0.704122
2.65957
0.427451
0.490922
3.35379
0.455692
7.42121
2.75133
5.48114
5.21531
2.24707
1.39554
0.397726
1.17775
4.62923
0.494408
0.481797
3.5119
6.04663
3.35582
5.26317
4.45248
0.17436
3.42278
0.483114
2.01814
7.88026
5.33394
0.524585
2.39942
0.435021
0.499898
0.275867
0.494108
5.10446
0.566697
0.426282
0.317193
8.75286
0.0327948
3.72841
0.797705
5.16716
0.626507
4.38214
0.30438
0.77648
1.15657
0.371606
6.88249
0.444824
1.08666
4.82982
3.25544
0.333927
6.14344
1.94107
6.63479
3.68264
5.53526
2.44631
0.466785
0.391618
4.90188
6.4231
0.41071
4.50136
4.73093
0.664343
0.973767
1.54963
1.3329
1.0659
6.97371
3.00604
1.13759
0.0622843
0.668137
5.82503
0.337893
3.56438
1.40939
0.967807
0.907887
2.74288
0.326731
1.57262
0.350441
0.139034
0.116046
3.52124
5.67383
4.96009
0.43682
3.47997
0.500236
0.449198
2.70879
5.74733
0.282043
0.973703
0.37846
0.824391
1.16548
0.484511
1.04839
2.88656
3.99106
1.42731
0.761877
5.60778
4.6271
0.729902
6.36076
0.544699
1.15863
0.470138
0.696183
0.431746
4.70782
2.32087
0.581503
7.53743
3.67424
0.339561
2.96671
1.04098
0.55365
3.46677
0.290858
1.2378
2.45288
0.370779
2.78153
0.353129
2.46781
0.604359
0.85513
0.467252
0.786291
0.459027
3.30839
3.28276
0.829258
0.396665
2.68128
0.92553
0.929639
4.20794
0.753282
2.76644
0.608759
6.32594
2.61241
0.346298
1.37167
1.2909
0.45819
0.680202
3.41967
0.336377
6.65223
0.255985
3.53136
2.56969
4.63213
0.675032
3.46092
5.77229
0.298463
1.08489
1.24439
0.755146
0.376838
0.504303
3.14009
2.75463
2.37826
1.22492
2.5172
1.81959
5.07199
3.55087
4.80968
0.488888
0.764981
0.500903
4.7717
1.97567
0.242597
5.16249
0.298522
3.68118
0.276391
4.56806
0.701655
0.978416
0.255556
1.09928
2.91373
1.45728
0.940247
0.683149
4.69327
2.8708
0.862173
0.513921
2.80103
2.27168
0.55134
1.64741
1.49412
0.363773
0.804106
1.81524
4.37944
5.58816
0.459208
3.88471
0.487016
1.01651
0.73562
4.56852
3.41453
0.337736
0.409203
0.97961
3.28519
0.996982
3.33488
1.25432
0.699402
0.360604
3.20842
2.06701
2.99626
4.31907
0.643493
0.469748
0.726265
4.96662
2.10407
1.26675
0.413643
6.57448
4.60741
0.126176
0.745575
0.676161
1.54276
0.374753
2.20921
1.46949
0.412484
2.9989
0.98914
1.42773
3.21097
3.9206
0.446072
0.391277
0.523139
1.62518
6.06465
8.58874
0.335262
0.398749
0.662557
0.117129
3.77351
4.45008
3.8726
1.02238
0.387053
2.43357
0.214612
0.906752
1.27376
0.556112
6.46294
5.14767
1.13865
0.545262
2.75989
1.35488
0.948576
6.43891
1.90376
0.914565
3.75691
3.02976
3.05506
5.9913
6.18985
2.78372
0.292931
4.39799
2.35338
3.19215
1.52364
1.00554
0.279541
0.506023
1.54955
0.673314
1.12103
0.311896
1.49621
2.76043
0.229078
7.93343
0.116111
4.5574
6.74322
0.333097
5.12747
0.972302
0.260381
3.18557
3.58068
2.68993
3.67385
0.519844
0.507816
1.17535
0.403031
4.36874
3.01773
0.0187013
0.556231
1.29249
0.822285
3.1299
0.404582
1.06827
3.7844
0.2601
0.298222
0.967332
0.447022
0.420545
0.65527
0.468864
0.387676
0.65573
0.692611
2.1069
0.246526
0.517721
5.53232
0.436222
0.689601
4.52332
1.74641
2.623
0.749192
4.84367
4.23071
1.14831
5.75839
0.450267
5.07814
0.546047
3.09311
7.67205
0.314055
2.87684
0.939295
1.01192
0.345848
6.15669
4.93032
0.401881
5.02066
0.435368
4.21625
3.50097
1.15
1.52855
0.227111
5.09718
2.6976
1.23438
5.05786
1.03737
0.508386
1.23219
2.47721
0.822526
0.608234
0.380199
0.687952
0.789633
2.40676
0.695769
1.18017
1.08945
0.929786
0.510126
3.27213
3.57903
3.54854
3.93586
0.816124
3.11125
1.47332
0.589239
6.29155
6.08506
0.776664
0.72506
3.35188
3.48934
0.0429854
4.44592
6.60401
2.91584
2.68549
2.53791
3.40582
0.942271
1.14317
4.75943
4.09462
0.396929
0.513125
0.400357
1.98013
0.0896185
1.10363
4.18708
1.4888
4.33547
0.339238
6.6126
0.250027
2.49295
0.2413
1.16363
1.34026
3.03476
3.61785
0.55473
3.06505
0.464955
0.344611
0.261069
0.688251
0.267297
3.75793
2.69114
0.722524
0.296897
4.80055
3.46157
3.08614
2.24825
1.15222
0.510814
0.261223
3.45744
3.18185
6.36946
3.58319
5.73557
0.441762
0.100855
0.252274
3.19878
2.86848
0.813957
1.09767
0.347237
0.999978
0.221121
5.00188
0.444452
2.16452
1.01692
0.757605
4.80809
0.366085
0.635283
3.03453
2.70619
0.379203
2.44392
0.840874
0.764823
3.42229
0.850811
0.915616
2.98216
2.27025
5.457
0.981158
4.1371
0.475654
1.1019
1.94826
1.55473
7.07211
0.286729
0.663633
2.37499
1.49926
4.53424
1.44172
0.391459
4.92327
3.07152
6.71647
2.83631
0.363684
0.352078
0.496833
0.358313
0.550233
0.714026
0.617114
0.656143
2.86748
4.73315
1.34191
3.05328
1.04078
0.272551
5.02375
4.03848
0.439984
0.341519
0.60495
3.63864
0.939659
0.509917
0.375549
0.730784
0.666221
1.57613
6.84648
1.5848
4.37387
1.00451
0.0993414
3.32449
0.975774
0.992335
1.10616
4.32059
6.42081
2.89361
0.44177
0.950604
3.89296
1.75411
1.69676
1.93143
0.394113
2.59361
0.443613
3.10332
3.26113
4.98143
0.379898
0.956172
3.00473
3.37052
0.373474
0.951328
0.823234
3.37672
0.134896
0.363192
0.723363
0.552784
3.10397
6.29624
0.390338
3.97935
2.93026
0.263316
2.49401
4.10242
3.98448
0.768311
4.81744
7.41144
0.252458
8.05871
3.1206
3.13494
0.279654
3.81066
6.19027
4.21702
1.41998
7.42652
2.63423
0.809512
3.46822
6.09513
0.428408
4.71386
0.617956
3.77566
0.455033
2.9284
0.327454
0.477783
8.61101
0.540793
3.89963
3.0297
1.51154
0.726108
0.435567
0.738928
2.26844
0.26926
0.26567
3.64353
0.668268
1.25264
0.292906
0.720113
0.338082
1.25723
5.23626
1.30661
1.50757
1.4984
1.68889
0.528039
4.32755
1.05396
0.329396
0.397986
2.83527
0.706776
0.710849
0.23801
2.00395
0.757152
0.718277
4.75191
1.08465
1.34054
4.2893
0.407325
3.6884
0.677363
1.44223
0.348496
0.450529
0.52419
0.536235
0.341708
1.61844
0.110169
4.51628
0.27641
2.61795
0.388337
1.32594
1.30985
0.728483
7.79289
3.41595
4.48601
3.03971
3.12804
0.67537
0.341411
0.3552
0.993917
1.47021
0.253175
0.97291
1.12993
1.06655
6.9805
0.592198
0.576206
4.24544
6.37926
1.02431
0.738623
0.697243
0.745963
0.419316
2.92272
0.478566
0.480433
0.518917
0.516786
1.03881
7.53307
0.331779
0.303191
3.02426
2.14039
6.51214