/*--------------------------------*- C++ -*----------------------------------*\
  =========                 |
  \\      /  F ield         | OpenFOAM: The Open Source CFD Toolbox
   \\    /   O peration     | Website:  https://openfoam.org
    \\  /    A nd           | Version:  10
     \\/     M anipulation  |
\*---------------------------------------------------------------------------*/
FoamFile
{
    format      ascii;
    class       volScalarField;
    location    "1550";
    object      p;
}
// * * * * * * * * * * * * * * * * * * * * * * * * * * * * * * * * * * * * * //

dimensions      [0 2 -2 0 0 0 0];

internalField   nonuniform List<scalar> 
10435
(
2.14447e-05
-2.21823
-12.6327
-3.90308
-9.76955
-13.0975
-12.6353
-12.755
-12.9307
-12.1598
-4.44882
-8.15665
-12.0698
2.07529
1.97653
-12.3499
2.09411
-12.0153
-12.983
-0.544951
-12.7087
-3.48808
-12.2511
-10.2406
-12.6876
1.86211
1.80836
-12.2515
1.2533
-12.7894
-11.7661
-5.56982
-13.0303
1.71608
-11.9144
0.436597
-11.7755
0.635209
2.30226
-11.553
-13.5419
-12.2513
2.4629
-2.14824
-11.6994
-11.3893
-12.81
2.11532
-13.0432
-3.51881
-12.6828
-11.9847
1.87082
1.00277
2.59534
0.971518
-11.2511
1.47864
1.89308
-11.4855
2.01407
-1.23259
1.66586
-11.2052
-12.0775
-12.4773
1.81581
1.78686
-12.8774
-9.46146
1.66348
1.26195
2.83272
-12.2759
1.7675
2.51967
-8.15047
-12.7439
-13.3137
1.7565
-5.41176
0.416681
2.01208
1.3945
-6.39126
0.965253
0.429518
-2.47199
1.69915
-0.180488
-3.40566
-4.45059
-0.0637275
1.30092
-0.86774
1.07719
-5.48341
2.01288
2.2586
-7.04417
1.4963
-11.5311
0.928491
-1.62979
-11.9816
-2.99802
-0.596312
-4.4066
-7.54049
1.53056
-2.68366
-10.6219
0.857014
1.17961
-5.98439
-2.634
-7.72122
0.407769
-2.89853
-6.96925
-8.07487
2.74875
-0.279954
2.24422
-7.46419
1.94646
-6.20276
2.65282
-8.84581
0.840936
2.55387
-6.16913
-12.4215
1.92431
1.41305
2.68506
1.40073
-4.77175
-1.93862
-1.85795
-1.1677
-11.7636
1.98635
-10.3411
-4.34691
2.33189
1.98916
-12.0131
2.23813
-9.92442
2.01187
-11.2308
-0.0927819
-10.4472
-12.3776
1.97317
-8.65811
-1.06121
-12.4209
-3.62013
-10.996
2.03785
-5.07317
-7.12564
1.61185
-9.40784
-12.8164
-6.49222
-9.06614
-10.5765
-12.1163
2.17398
0.77392
2.12507
-9.57805
-2.37729
-0.345882
2.08007
-1.88746
1.69655
-3.29346
-12.4662
-9.23523
1.82437
-11.3711
2.5634
2.0983
-12.6836
-10.8138
-11.1621
-8.41699
2.11162
1.787
0.672897
-9.73482
-12.7971
2.45278
1.40588
2.16271
-12.1388
1.82542
2.32626
-12.1988
1.6719
-12.4029
-7.22311
-3.9901
-5.62901
1.47751
-5.26301
2.3737
-12.5657
-9.27593
-7.93513
2.05493
2.19151
1.21049
2.21396
0.341762
2.09317
1.5823
1.86508
2.01999
2.06991
1.67402
-12.2895
0.591496
1.7283
-11.7467
2.36759
2.02987
-12.5002
0.517567
-10.7972
0.856857
2.14665
-10.9561
1.0558
-10.0193
-12.1069
-1.39647
1.96513
2.21009
0.985283
-6.40578
-13.1949
1.63508
-12.9385
-0.947633
-1.24475
-1.20132
1.25069
-12.5411
-6.18653
-12.9987
-10.3655
-2.02096
-12.9485
1.9431
1.7852
-12.6145
-12.2239
1.40125
-8.12704
0.916292
2.29998
-0.711105
-12.0241
2.30675
-7.98572
-12.5947
-13.7433
-13.2204
-11.9015
0.108391
-7.65069
1.67236
-8.92314
-12.5091
-13.8248
-12.7863
2.13944
-12.5258
1.66568
0.924053
2.44779
-11.2203
0.867213
1.48745
1.37433
2.15151
-4.90537
1.31592
-13.5655
1.16317
-2.17936
2.32467
0.488863
-7.84732
-12.3368
2.00337
-9.22181
-12.3968
-1.28203
-6.84825
2.09614
2.42939
-10.1979
-12.4022
1.54479
-1.21577
1.36682
-0.237121
-11.8745
-12.2334
-2.40098
2.25155
-11.0888
1.90447
-7.32333
-12.6556
0.783228
0.45968
2.29144
-13.6922
-12.457
-0.463739
-12.2381
2.03255
1.41603
-12.2243
1.40759
1.56745
-12.5527
-10.2212
1.57451
1.36569
0.409918
1.87516
0.624475
-1.12815
1.90984
2.19968
-1.1223
-1.96819
1.37495
1.66608
2.52185
2.40228
-13.4175
1.71081
-12.7944
-1.21542
-12.1303
-14.3103
-14.5208
-12.0348
-12.0819
0.998799
1.62581
0.520054
2.25967
0.766428
1.98286
1.03249
-1.50667
1.5038
-8.85593
1.7203
-13.3517
2.19316
-1.88711
-11.6468
-14.8881
2.38502
-2.88077
0.868036
1.2859
1.57217
1.58362
-4.14074
1.12005
-13.4829
1.796
-13.0943
-14.3497
-11.9819
-11.8926
-14.5684
-12.2358
-12.1325
2.36647
2.19355
1.34661
1.90935
-12.611
1.41758
-12.5153
-2.32789
1.34208
-3.36104
2.05548
1.80913
-12.701
0.593114
-13.2194
-9.80827
2.33665
1.53385
-1.03995
-12.2938
-1.18754
1.72778
1.45016
0.829467
2.08731
1.62773
-12.4462
-0.887947
1.05479
1.24688
2.20559
-12.733
2.42329
2.65268
-13.3506
1.85638
19.8109
9.54783
12.4798
9.99591
10.7764
9.92153
9.95839
9.67047
8.81531
16.821
8.22319
10.554
8.89384
9.37276
8.84202
8.84034
8.61645
8.43497
13.9509
6.89125
9.0003
7.93403
8.24188
7.92259
7.89549
7.73188
7.53694
11.6859
5.98842
7.69718
7.03492
7.26028
7.08479
7.06919
6.97324
6.8236
9.62978
5.3648
6.63278
6.2631
6.43684
6.35992
6.3693
6.33968
6.23136
7.8023
4.95993
5.79097
5.6375
5.77201
5.76038
5.79028
5.79955
5.75949
6.32579
4.81288
5.16472
5.15545
5.25496
5.2859
5.33327
5.37411
5.38872
5.23337
4.78837
4.70859
4.78955
4.86156
4.91912
4.97832
5.04108
5.02333
4.43926
4.61566
4.34325
4.50042
4.56292
4.63841
4.7055
4.77349
4.81812
3.83037
4.25987
4.04126
4.26739
4.33592
4.42366
4.497
4.57061
4.62146
3.39921
3.92182
3.82906
4.08981
4.16578
4.25787
4.33406
4.40903
4.48569
3.22642
3.77357
3.7353
3.96857
4.03977
4.12485
4.19545
4.25947
4.37003
3.2261
3.78095
3.72847
3.88866
3.94435
4.01618
4.08054
4.14806
4.21768
3.20651
3.82542
3.74356
3.82452
3.862
3.91796
3.97404
4.03866
4.08302
3.17669
3.8576
3.74994
3.75938
3.78116
3.823
3.87287
3.93219
3.98837
3.14821
3.83374
3.72404
3.67974
3.69206
3.72348
3.76813
3.82046
3.88499
3.02709
3.67793
3.62927
3.57221
3.5873
3.61494
3.65677
3.70141
3.7849
2.85394
3.41592
3.47674
3.43963
3.46759
3.49876
3.54329
3.59183
3.67438
2.72652
3.16045
3.30781
3.29549
3.33665
3.37239
3.41727
3.46609
3.52316
2.63558
2.95478
3.1402
3.14928
3.19985
3.24023
3.28532
3.33433
3.39109
2.50834
2.787
2.97369
3.00557
3.06103
3.10559
3.15157
3.20554
3.2451
2.30255
2.66958
2.80814
2.86537
2.91948
2.9651
3.00891
3.06409
3.03418
1.97043
2.65385
2.66221
2.74444
2.79199
2.83511
2.87596
2.92491
2.87467
1.56968
2.68674
2.45912
2.55989
2.60427
2.65185
2.70965
2.77233
2.704
1.44188
2.99042
2.63194
2.71861
2.72635
2.69954
2.72861
2.78554
2.26821
13.0607
13.3003
13.7851
14.3325
14.9326
15.5927
16.2986
17.0492
17.8357
18.6436
19.4633
20.2825
21.0819
21.8553
22.5898
23.2678
23.8846
24.4285
24.888
25.2592
25.5522
25.8432
26.1002
26.1076
25.8102
25.5559
25.7009
26.2356
26.8647
27.4152
28.002
28.5132
28.7327
28.7778
28.7455
28.6291
28.4332
28.1956
27.9228
27.6439
27.3702
27.1131
26.8722
26.6547
26.4595
26.2646
26.0698
25.8645
25.6201
25.3401
25.0155
24.6437
24.2494
23.8346
23.3808
22.9225
22.4523
21.9783
21.6909
3.44519
3.19272
3.06618
2.94187
2.81456
2.66851
2.5287
2.4191
2.34019
2.29502
2.28641
2.31543
2.38195
2.48458
2.62203
2.79313
2.99731
3.23681
3.51723
3.84764
4.24241
4.72305
5.29632
5.97538
6.72815
7.30023
7.49051
7.29535
6.76452
6.18659
5.76598
5.4698
5.24459
5.06957
4.93636
4.82853
4.73676
4.65714
4.58645
4.52333
4.46667
4.41608
4.3732
4.34059
4.32262
4.3269
4.3615
4.43547
4.55908
4.74598
4.9637
5.18244
5.47118
5.87331
6.33428
6.81004
7.275
7.74853
8.40263
7.44938
7.66043
7.85029
8.06216
8.28787
8.52762
8.78197
9.05039
9.33178
9.62419
9.92627
10.2357
10.5505
10.8679
11.1859
11.5032
11.8183
12.1313
12.4434
12.756
13.0713
13.3902
13.7062
14.0014
14.2574
14.4438
14.5714
14.6409
14.6323
14.5683
14.4984
14.4267
14.3462
14.2628
14.1808
14.1012
14.0253
13.9549
13.8917
13.8373
13.7934
13.7608
13.7413
13.7352
13.7433
13.766
13.8029
13.8518
13.9115
13.9779
14.0495
14.1014
14.1243
14.1281
14.1126
14.0751
14.0134
13.9531
13.8357
4.57438
4.51256
4.52178
4.53805
4.56416
4.60344
4.65687
4.72663
4.81448
4.92217
5.05151
5.20389
5.37988
5.58006
5.80384
6.05031
6.31799
6.60451
6.90776
7.22443
7.55088
7.88156
8.20839
8.51955
8.7986
9.02396
9.18015
9.26206
9.27392
9.23318
9.1598
9.06372
8.95048
8.82445
8.68824
8.54422
8.39427
8.24097
8.08814
7.93984
7.80124
7.67739
7.5745
7.49795
7.45372
7.44612
7.47846
7.55226
7.66652
7.81875
7.99987
8.211
8.45097
8.69145
8.92748
9.16735
9.3969
9.6283
9.90756
5.74034
5.85085
5.97179
6.10649
6.25168
6.40667
6.57042
6.74245
6.922
7.10813
7.30046
7.49853
7.70144
7.9093
8.12131
8.3372
8.55652
8.77808
9.00153
9.22548
9.4481
9.66634
9.87588
10.0717
10.2468
10.3956
10.5131
10.598
10.6502
10.6732
10.6733
10.6539
10.6194
10.574
10.5199
10.4615
10.4012
10.3404
10.2847
10.2369
10.2002
10.178
10.1732
10.188
10.2247
10.2832
10.3633
10.463
10.5784
10.7048
10.8333
10.9764
11.124
11.2392
11.3293
11.4055
11.4636
11.5271
11.5562
4.73416
4.73132
4.77125
4.82277
4.88574
4.96201
5.05228
5.15696
5.27665
5.41105
5.56146
5.72755
5.90946
6.10656
6.3176
6.54106
6.7751
7.01468
7.26006
7.50787
7.75541
7.99687
8.22718
8.44319
8.634
8.79923
8.93105
9.03136
9.09857
9.13396
9.14309
9.12401
9.08359
9.02691
8.95087
8.86621
8.77187
8.66344
8.55648
8.45229
8.35675
8.27486
8.21159
8.17189
8.16144
8.17903
8.22911
8.30902
8.41791
8.55312
8.7103
8.88306
9.06592
9.25082
9.43368
9.60969
9.77466
9.94658
10.1275
4.95438
5.0031
5.07592
5.1625
5.25992
5.36871
5.48694
5.61614
5.75538
5.90197
6.05723
6.21969
6.39104
6.56938
6.75303
6.94206
7.13935
7.33131
7.52846
7.724
7.92146
8.11112
8.29053
8.46702
8.61507
8.75317
8.86189
8.95532
9.02637
9.07242
9.10694
9.10973
9.09728
9.08044
9.03558
8.99739
8.95451
8.88206
8.83136
8.78264
8.74422
8.71871
8.70844
8.71736
8.75661
8.81
8.89455
8.99727
9.12076
9.26031
9.41016
9.56495
9.71629
9.86383
9.99991
10.1187
10.2225
10.3323
10.4244
4.68735
4.67948
4.70124
4.74437
4.79229
4.86423
4.93801
5.04689
5.16431
5.26258
5.40151
5.54308
5.70597
5.88738
6.07225
6.28028
6.50502
6.66666
6.85758
7.05511
7.27263
7.46974
7.64642
7.85405
7.98249
8.13155
8.22011
8.31547
8.38783
8.43345
8.48968
8.47721
8.46414
8.47418
8.39405
8.38887
8.40817
8.25227
8.16926
8.08559
8.01747
7.9607
7.91685
7.89216
7.96284
7.98227
8.09522
8.18018
8.26282
8.38066
8.53689
8.72861
8.90211
9.07786
9.26199
9.45083
9.62425
9.82892
9.98509
4.50025
4.55986
4.59431
4.68261
4.76323
4.87451
4.95459
5.02242
5.1537
5.36233
5.41425
5.55692
5.74844
5.88708
6.09665
6.1739
6.40369
6.57514
6.77345
6.90654
7.10454
7.25367
7.39825
7.59537
7.67691
7.82065
7.87799
7.97094
8.08962
8.04319
8.20637
8.18896
8.11798
8.18043
8.08232
8.14466
8.02152
7.8321
7.93979
7.87077
7.83048
7.83392
7.76836
7.76513
7.80504
7.78985
7.84996
7.87949
8.07681
8.23606
8.35912
8.4895
8.63886
8.85205
9.04756
9.19097
9.33935
9.18744
9.45045
-2.27722
-2.38424
-2.17091
-1.8563
-1.41489
-0.894874
-0.427888
0.00137351
0.419229
0.75989
1.05759
1.37738
1.65749
1.91799
2.31649
2.87104
3.46816
4.09573
4.80927
5.6412
6.6004
7.70662
9.0213
10.6733
12.1418
2.11554
2.18412
2.10693
1.97772
1.88537
1.94166
2.10078
2.29686
2.48146
2.5501
2.46215
2.30806
2.17057
2.09288
2.15388
2.33922
2.49731
2.57545
2.6807
2.88029
3.14584
3.44491
3.76553
4.12437
4.31744
1.15335
1.19059
1.24862
1.31067
1.41132
1.57201
1.75844
1.93879
2.09078
2.17305
2.18438
2.1623
2.13823
2.14133
2.21873
2.37717
2.57849
2.81182
3.10248
3.46818
3.91048
4.43193
5.03909
5.73897
6.59763
1.51931
1.53113
1.59386
1.65072
1.72652
1.82656
1.94063
2.05251
2.14939
2.21537
2.24931
2.26611
2.28232
2.31307
2.37596
2.4759
2.60501
2.7623
2.95658
3.19301
3.46887
3.7755
4.09884
4.40703
4.72763
1.56158
1.56605
1.62941
1.69169
1.77194
1.86384
1.96323
2.05769
2.14085
2.20522
2.25071
2.28562
2.32036
2.36446
2.42957
2.52239
2.64492
2.80067
2.99576
3.23411
3.51898
3.85213
4.23971
4.67987
5.25472
1.65102
1.6639
1.7276
1.78466
1.85946
1.93764
2.02272
2.10165
2.1736
2.23408
2.28197
2.32307
2.36487
2.41219
2.47356
2.55503
2.66076
2.79507
2.96191
3.16201
3.39734
3.66428
3.96134
4.26837
4.64828
1.75669
1.72678
1.79791
1.84628
1.91846
1.98627
2.0652
2.13465
2.20087
2.25973
2.30731
2.34987
2.39512
2.44311
2.50229
2.57854
2.67654
2.8017
2.95787
3.14395
3.36677
3.6226
3.91627
4.25086
4.69049
1.85706
1.77181
1.86238
1.9001
1.97383
2.03228
2.11098
2.17172
2.23263
2.29038
2.33438
2.3744
2.42304
2.47075
2.5271
2.5988
2.68949
2.80457
2.94696
3.11363
3.31978
3.5537
3.84581
4.17296
4.55944
1.84506
1.79669
1.93286
1.95075
2.02498
2.05882
2.14337
2.18993
2.26365
2.32012
2.36533
2.39741
2.44068
2.48174
2.53648
2.60121
2.68332
2.78915
2.94532
3.10545
3.28947
3.52081
3.76201
3.88655
4.11585
-13.9166
-13.1042
-0.429703
7.00883
2.6843
2.60773
-2.62074
3.35578
-2.05446
7.36212
-12.3582
3.52294
-15.6953
1.89668
-7.50276
5.08336
-9.15111
6.90257
7.61161
-16.9239
-17.3558
5.70772
-12.0807
5.53509
3.29413
4.49227
3.25588
2.09536
-11.827
-10.9742
6.88456
5.38318
-14.3181
-12.0606
-11.3259
3.07819
-3.86769
-7.15859
-5.92921
5.95686
-13.0273
6.15791
5.13631
2.02271
3.50555
7.11267
-12.0288
-10.4739
-11.0268
-13.8435
-12.0208
-12.5149
-16.4483
7.04334
-2.47801
-1.77925
1.86998
-17.3044
2.45687
-9.62344
3.29467
0.470044
2.70257
5.13406
3.2951
2.07689
4.91258
5.48476
-14.1457
-12.7529
-2.38912
6.21122
2.81573
-15.6423
2.91341
-17.9799
-14.2408
-12.0031
2.19878
7.34938
-12.0568
3.4907
3.71393
-9.39772
2.87341
3.33091
2.75771
-12.1853
-14.4148
4.02747
4.51455
4.23855
7.38394
3.5791
2.70782
-12.218
4.36038
-11.7321
6.01626
-9.7308
2.36363
-13.5136
2.34984
5.7157
2.53019
2.36516
-12.1299
-13.0137
4.25829
-10.5999
4.96274
3.85973
-11.2827
5.69484
-16.928
-10.9325
-13.4684
6.24672
-15.4661
4.00694
4.86879
3.77663
5.81823
3.4184
-14.1773
5.14403
-12.7098
-17.3152
1.85202
-10.747
3.91204
-15.776
-12.2753
-9.55647
1.9499
2.78433
3.51432
2.48785
3.66416
-16.2471
4.73356
-4.59993
-10.2667
4.91975
-11.4229
4.60573
5.8388
-15.3244
3.75314
-11.5181
0.323065
1.4029
5.54499
-7.87715
3.29556
-10.4254
2.71691
6.15164
-12.2859
6.97215
5.51979
-2.49668
4.26823
-11.7617
6.38185
-9.2889
1.81773
3.05667
6.03958
2.73266
1.89785
5.26772
5.16175
-9.56164
4.51708
2.1439
-12.9553
-12.1021
-10.4139
6.44596
-10.8977
5.83122
-16.0223
-10.5506
2.48065
6.90306
-9.63615
4.20693
-14.4212
4.297
-10.3125
-10.4627
-5.32116
-3.45565
-7.83679
-14.2974
2.93381
5.60744
-11.0888
-11.7444
-14.6079
5.71177
3.66864
4.05224
0.623588
6.6584
5.21185
2.41594
-11.5893
6.19201
2.53226
3.69521
-10.8778
0.500199
0.142017
-12.7194
2.60617
7.12985
7.96525
3.39034
2.32625
6.23092
3.39832
1.04425
8.01426
-13.2941
4.57749
-8.87231
4.24399
2.77792
-10.1539
3.23997
5.61412
3.97502
-5.32139
6.84528
-11.8326
2.14643
-10.7548
-7.20929
6.14985
3.16396
6.42738
2.11911
2.81694
3.10173
5.07028
2.44331
4.74367
6.55285
4.32414
2.21199
5.658
-11.5317
4.82574
2.86807
-11.0905
-13.8337
-12.2521
9.28017
4.64635
1.83169
3.88378
3.18724
-15.4663
3.5188
7.16934
5.19158
-3.27063
3.07323
-15.6861
-5.99549
5.7881
7.17513
8.07225
5.01997
5.10386
-3.77842
1.77569
-12.0465
2.22024
0.322918
6.00808
6.8452
-10.1122
4.0976
2.25625
7.75814
-12.5969
-10.2266
-4.94162
4.45806
5.73803
-12.5977
-11.9025
-12.8586
-12.1642
4.43983
6.78119
-10.7228
-11.3584
5.27845
6.78173
4.1887
-11.7346
6.81596
-17.709
5.03786
-16.5184
3.68211
5.67693
6.66588
-14.3921
1.99417
5.74712
-3.1812
-12.0172
5.71275
3.31714
-9.48184
-12.6486
4.35601
6.78729
6.87363
2.95462
3.54502
-13.6731
-12.8871
4.6333
-16.7159
6.18953
-7.94084
2.34181
7.06553
-12.5683
3.27368
3.4818
3.90743
4.2149
5.07314
3.71073
3.42417
-10.5459
5.97207
-15.4094
2.63243
2.53244
5.94665
2.90335
-10.5985
-0.417181
7.46193
5.22011
-12.3761
-12.6243
8.01507
-8.5356
1.69725
6.35087
-9.45056
-11.7585
-12.0795
7.02415
-13.5129
6.30056
2.78634
5.27731
-12.4474
3.67165
-14.1484
7.13101
-8.24099
-11.8489
-7.84945
-14.4274
3.71241
3.80762
6.80754
7.0503
6.72484
-12.0486
4.42684
-13.9807
1.89643
1.9822
-10.4556
6.57278
-16.8905
-12.6726
-10.0926
-0.65334
6.95986
3.13786
-12.0803
-10.7923
8.10344
6.50627
-14.0477
6.31848
-11.4896
3.27028
5.22953
2.78515
-13.7046
3.32802
6.96031
-3.62775
3.11601
0.400749
5.69856
-10.3519
3.53824
-10.4872
3.48267
4.36635
7.94646
-10.8184
-10.4177
6.90207
4.42488
6.03788
6.81951
3.96776
2.27873
6.34753
-11.6035
4.26638
6.40689
5.07874
5.36964
3.42742
2.84957
3.72747
2.24142
-3.52807
5.526
4.50624
5.68751
5.87353
7.5558
6.8985
-7.17387
-12.8781
1.13561
-14.3259
4.20835
2.23043
-6.00488
2.48914
2.17536
-7.89875
5.80013
4.0623
-10.6975
7.13405
-12.7703
-9.1933
3.60326
4.53113
-15.8452
4.2177
1.63724
-10.4683
-11.1387
-11.6432
2.94634
2.60855
1.24874
6.90753
-12.2121
2.22266
2.88895
-11.938
7.66174
3.45049
-13.0972
3.70584
2.789
-14.9352
-15.0694
0.0302167
-6.67132
6.61149
3.43534
-10.0041
2.80651
3.48963
6.823
-12.9745
5.66014
-9.2015
4.68761
3.70766
-11.9413
3.60609
2.53543
-8.49112
3.50438
7.30719
-14.1415
5.23252
-4.37114
3.80245
2.11288
-13.5038
-11.8459
4.59855
4.25114
-3.46476
4.63703
5.78337
-11.4975
4.66433
3.89511
6.94775
-12.4692
-12.0673
-10.5903
3.67062
-0.33921
7.21188
-10.5698
-16.8778
6.11152
-11.9107
7.08367
-11.7549
-13.7179
6.54319
6.13594
2.24917
5.60555
4.14562
-3.86968
3.97643
0.832095
4.464
-10.8686
-11.1508
4.48317
-10.4064
-10.576
4.8956
-12.3865
5.2232
1.93739
4.1871
2.31711
3.53373
-4.25684
-5.41478
-7.00304
1.88229
-11.4817
-10.7454
-11.8864
3.30872
7.00061
-15.0213
-12.1351
4.70825
-10.3443
4.32775
-13.6498
-10.8786
7.74224
-0.153698
2.37921
5.6164
4.05399
-14.4811
7.50607
-7.89224
2.62124
2.62104
-11.0258
-10.7364
-11.9447
2.28621
4.09186
-15.3877
-17.0378
5.47663
7.13415
3.50918
-13.9469
5.62755
2.6121
-5.18637
6.75056
2.6022
2.80469
5.16323
-9.30025
7.00975
2.36554
-12.5245
-10.9326
2.68846
5.92496
-10.4741
2.15175
6.40704
6.64218
-16.8706
5.01032
3.79855
5.759
7.91034
5.70162
5.58539
-5.76701
3.2013
5.96598
2.32987
-16.2165
7.25985
2.52397
2.63499
5.43928
3.0145
4.07528
6.78193
1.24803
3.05701
-9.84974
-9.5749
2.07159
-13.7359
2.79771
2.97139
2.83483
6.77287
4.77679
4.03281
-15.3888
4.31647
3.52
1.48142
-10.4718
-0.373278
1.9938
2.08883
5.3457
2.71027
6.9093
4.33252
1.04773
-10.0356
-9.0749
-12.3319
7.20783
7.21342
5.14056
7.3648
5.8451
-10.7675
10.3393
-17.5193
6.42073
-11.9083
7.60987
-12.0084
5.02593
2.90095
3.48334
-13.1733
-6.13222
2.03694
-16.9171
3.0091
8.31637
2.97421
-11.2461
6.50656
4.22489
-9.2549
3.16119
7.11685
6.60062
5.88806
-15.6294
6.76844
3.83543
7.16521
1.93496
6.67289
-11.2495
-12.4833
5.02869
-4.26085
6.84732
-12.3786
3.72575
7.10183
6.41997
4.30499
-5.10799
4.65963
5.96361
2.49175
5.56693
4.72396
6.22098
7.00843
-9.58566
-9.56638
0.506845
-11.0632
-5.8634
-13.1868
-11.4409
8.81629
2.73077
2.95049
6.95549
4.32901
1.67837
4.89282
3.29852
-14.722
6.54894
5.45127
2.62542
6.08365
4.76846
3.19427
0.633268
-12.4389
-12.9618
7.57933
-11.1365
-1.52428
-12.1976
-17.2041
-13.3143
-12.8028
4.47241
7.14294
4.66349
6.5074
5.99359
4.06683
-11.8196
-12.9884
6.29543
-12.8843
1.16867
7.24625
3.25329
3.68675
-9.35898
2.40878
3.34589
-2.15689
-8.80099
-14.8218
-12.0448
6.96396
6.98616
2.83991
6.62804
-11.975
0.0879219
-12.2578
-8.48445
2.77184
-9.37164
4.17017
7.05891
2.35285
2.5791
2.51341
7.04287
4.65399
2.77059
4.13819
3.97526
5.26971
3.96076
4.15564
6.34629
-11.4704
-5.72334
5.62138
0.122253
5.01377
-15.9241
2.93363
8.47813
6.19139
-15.2256
0.331272
6.71397
4.61783
-11.0838
2.32931
-13.9115
4.0058
-14.8093
-12.559
-10.5268
3.96617
-9.31929
1.60583
6.63276
-12.371
5.96973
3.26738
3.80413
-14.6664
-0.632984
5.35996
2.83532
-13.5776
2.87321
1.52762
-9.72731
6.60438
5.60623
-3.61647
-12.2205
-13.8125
6.74178
7.10898
6.69936
-15.0528
-4.92439
6.06737
3.06493
2.57731
-12.902
7.3798
3.13091
-13.4003
8.11493
3.86691
4.98543
7.53477
-14.3351
3.92355
-15.5768
6.31241
3.63406
-12.3983
5.95692
6.91284
6.89873
2.1705
-15.2931
-12.2579
6.94949
6.64724
3.81212
-8.42325
-15.8461
0.573057
4.09633
-12.7197
-6.86975
4.3468
2.71142
2.48136
-10.262
6.47593
-14.4513
4.95068
4.35327
-10.3153
4.58582
5.80023
2.96706
-15.9996
-11.2128
-9.82492
-10.0038
7.27795
-13.9069
-8.63971
6.47266
-2.68396
3.03662
2.51507
-16.0112
3.91389
3.40636
-16.8319
2.67458
7.60886
7.48189
-14.5382
1.69952
4.86422
-10.564
-12.0459
-11.0301
6.60526
3.84087
-10.6351
-11.8406
-11.6812
-15.0367
-13.9078
1.24283
6.8354
-0.516606
-10.4886
5.43204
6.27614
1.35854
-8.93147
5.04953
-1.42754
-13.3516
5.10573
2.5647
6.91675
-9.94043
-3.65283
-11.5519
-10.9343
7.12059
2.10705
-0.0283418
3.69079
-12.4648
-16.961
6.78817
4.00925
3.87285
7.17192
-14.4729
-12.4687
3.96305
-10.8507
5.78405
-11.7392
7.04532
3.06788
3.42105
-4.57622
-12.1066
1.96576
-15.2711
4.69497
4.87356
-4.78933
5.20913
-8.47896
-9.91111
-10.6428
3.89156
6.0949
-4.14346
4.57056
5.79774
3.33971
-11.2055
4.686
2.29354
-11.766
-4.0926
2.59659
3.91046
5.13905
5.74062
2.57155
5.74847
-16.0113
6.62041
3.73969
-10.6414
-16.257
-5.59142
4.33459
4.0903
-0.860973
7.40204
-11.1193
2.62788
2.47387
-11.1712
4.47523
3.6042
1.26114
2.97984
-11.5131
6.92267
6.5357
6.48465
-2.86472
-2.68974
-13.477
3.41952
-13.5973
4.88721
5.03935
4.72104
-10.9914
-10.6017
5.42464
-10.0163
7.36841
-10.8775
4.18324
-11.3734
2.83256
3.08028
5.25838
-1.61163
-6.53848
4.04582
6.79179
-15.9512
7.01799
6.53673
3.52772
6.44206
4.13573
-10.9841
5.18628
4.31877
-9.47532
2.23091
-10.0405
7.19228
5.45438
5.36701
7.99664
5.9348
2.53011
-13.5274
7.9627
1.80206
6.95298
3.60363
-0.529446
-10.7387
6.03541
6.95514
4.31357
5.81808
7.07683
6.02453
-10.529
7.27557
-16.6574
4.60258
-5.10788
-11.7459
2.22576
-15.6617
4.71037
-12.5639
-12.0341
-10.2658
3.57172
3.88367
2.15573
-11.8383
6.06911
1.82293
4.93772
3.42634
-11.2631
2.3991
5.85365
2.49197
7.43439
7.1643
7.95132
-12.3164
8.94019
-14.7492
6.32382
5.52116
6.58256
6.68716
-15.2793
7.41451
-15.6227
-12.5993
2.88086
5.73534
-11.4087
-11.4428
7.04212
6.87881
6.36423
5.78632
7.23166
2.24625
-11.6718
4.15366
7.84677
-14.6506
3.48075
0.607507
-5.96628
6.36728
2.82492
6.66497
2.34072
-11.5256
3.15531
-13.967
6.16197
2.28952
5.68275
-13.7243
-13.9129
6.1977
7.83976
-12.913
6.22606
2.55579
-10.0737
-12.0365
7.66781
7.10573
7.42839
2.04012
-13.008
3.1815
7.63675
-13.1826
-10.8013
7.04272
5.9129
2.89382
8.08284
4.16639
-15.699
3.45886
-10.9943
3.62467
6.71927
3.08691
-15.355
5.44129
-12.6732
-10.6276
-10.3199
-13.0919
-11.8103
7.25686
4.96531
-13.2094
-14.8138
3.69979
6.66498
3.94929
2.3109
5.76954
3.37995
3.9027
-8.41852
2.73884
2.18804
-5.76432
2.48816
3.78815
4.64804
-10.3153
7.17379
-12.805
-11.9925
2.4788
5.79928
3.81614
5.43798
3.81671
-12.9842
2.69582
6.73155
3.675
5.73415
-11.108
-13.6466
5.1685
4.24262
2.77042
6.958
2.85313
2.11718
7.2911
2.46115
1.49487
-11.788
6.83624
4.58467
-6.28908
4.21177
3.15767
4.72529
3.44045
3.76103
6.37253
-15.4187
4.60727
5.65976
-10.974
2.78858
-0.799901
-6.06549
6.61643
3.84649
6.6758
-8.55401
4.79002
-12.9917
7.16454
-5.4889
-13.872
-16.9935
-11.8589
7.64628
3.33113
-15.5364
-13.0842
2.42563
5.85689
7.57858
-12.3015
6.69523
4.52953
7.32814
6.72635
-0.860947
7.43628
2.66895
6.98293
-11.7655
-16.0744
6.54556
7.56718
6.34625
5.85479
3.9171
-11.4459
7.3879
0.695569
-14.5177
-16.5045
6.66277
-13.0666
-11.647
-16.2688
-12.4442
1.57036
-11.8548
-12.8162
-10.3494
7.02171
-10.9453
7.25396
-2.90209
7.71998
7.14291
-12.8036
-9.15316
-11.5155
-11.6073
2.25178
5.52723
-2.48261
-13.0458
7.69421
-13.3324
5.96775
-16.3543
7.06968
-11.5796
0.528187
2.54656
4.10986
-16.7633
3.75626
1.22594
-16.0043
6.30648
-11.0613
4.23341
5.57592
-8.17649
-2.13811
4.14669
-15.5135
-7.50124
7.45232
-14.2671
7.49424
6.93406
2.19574
2.74949
-13.3424
-12.6626
7.18199
-14.017
6.08991
-16.4458
7.55533
6.5887
5.46723
-17.0826
-1.11323
-10.9376
4.99356
-10.7521
3.16831
-14.3271
-13.0507
0.424563
6.30441
-11.9962
5.57925
4.6025
6.38143
-11.8084
-13.2843
3.32762
-14.2254
4.38513
4.12703
-3.13021
4.97144
3.67788
-13.1935
6.77349
6.71619
7.90401
3.79997
5.72326
7.63769
-14.0037
-12.1129
3.8857
7.03644
4.4116
-12.2762
-11.8148
3.51452
1.76188
2.34085
-14.4284
1.71755
-1.15462
-13.6703
3.16883
-14.8734
-13.1972
3.37295
3.51141
6.97111
7.31608
2.98553
4.84094
2.48466
2.13473
-12.8019
5.31208
-13.7385
3.39812
-12.6312
6.07698
-10.113
0.410014
-15.1797
-11.6701
2.55167
0.74669
5.36001
5.53931
5.20536
-11.2727
-10.787
6.88912
6.77439
4.50454
5.86292
3.68598
4.34009
-13.4339
-10.7166
-15.5968
-13.649
6.71888
3.00995
-11.9842
5.9408
-11.7895
6.64121
3.41526
2.53813
4.58193
3.50844
4.74251
3.37363
0.733421
-13.5496
-11.8812
7.76136
3.51921
-14.8962
-3.15914
3.98508
-11.5524
-12.9548
-10.3088
5.46057
-16.4555
3.81179
6.85909
6.79494
3.20109
8.69987
-10.4186
-12.5275
6.35608
2.26044
-16.0321
4.24467
-13.0048
-9.97995
4.78675
2.00412
5.8515
2.34933
-11.509
2.82601
-11.7961
2.3752
6.44126
2.41266
6.91012
1.92987
6.5717
5.05322
6.69093
2.90028
4.17658
-14.0587
7.05085
-9.28458
4.50379
4.86781
6.04199
2.4507
3.98991
-5.68471
-12.7977
4.50426
-12.4479
7.57949
-12.7791
6.02909
6.37573
3.40862
2.97816
-11.2675
5.01832
5.13949
-3.26111
-9.31235
5.54902
7.17039
6.95174
5.97561
-3.77451
3.95802
4.35554
-14.5727
3.54709
7.41807
5.10481
-13.7863
4.78983
-12.1526
-12.2391
7.73379
3.01854
5.97227
6.62324
-13.9424
5.45399
7.2761
5.855
-15.6311
2.42168
6.21691
3.16512
-5.84584
-9.57911
2.5114
4.03352
-10.5417
6.99798
-0.70549
-11.5214
5.21898
-0.857551
-11.9226
7.07677
-11.7731
6.76423
4.80581
6.7924
3.50389
-7.60218
-10.3332
5.61509
7.2474
-12.561
5.31862
6.22603
6.86709
1.82923
-3.53178
3.09646
2.77011
7.47536
4.55213
2.90845
4.7139
2.44841
6.75469
-9.91278
-15.0515
2.83314
-12.6839
2.47774
-14.1363
-11.6768
-14.447
-10.5291
7.96258
6.40105
-15.0507
6.36005
6.01977
-11.0993
4.66009
4.13141
-12.1209
-15.1997
5.74629
-10.1201
2.79127
-11.6343
2.57244
6.94085
-3.46074
2.17562
-14.0164
4.95947
6.91411
2.04344
4.79097
-7.80655
0.774162
5.68671
-12.6899
2.09759
-12.5133
2.36965
-13.8734
5.20053
6.61106
3.79325
7.47729
-16.2676
-9.894
-15.0223
2.73713
-13.7029
-10.9334
7.80259
-16.1592
-0.275677
7.05093
-16.2294
-11.1992
5.21506
2.5257
2.64152
-13.5994
3.53734
7.339
-11.4867
-14.824
2.01662
-13.4078
-11.621
3.63834
2.28679
-3.05151
2.45081
-15.8117
2.55158
6.70954
3.6063
-10.666
2.85885
-1.22766
-12.4278
3.21199
-1.14606
-7.16898
6.71443
-12.0067
6.46371
-16.484
5.83377
3.60965
4.69387
6.92961
4.05197
4.35923
6.43192
2.55838
7.55469
-12.8473
-14.908
4.06515
-16.7936
2.90412
3.71998
5.19402
5.74319
4.79912
-6.75486
7.37223
-3.61404
-12.9763
-5.70053
-14.4025
7.87189
5.7571
-12.834
6.09211
2.90033
4.9934
3.54912
3.95314
-10.4603
5.95229
6.7034
3.07444
2.34353
2.2828
-4.9818
-0.633326
-1.84632
-13.3617
4.01984
3.46275
4.58693
4.84788
3.0852
3.91046
2.35887
3.64123
6.0911
6.09114
7.3566
-2.20435
-12.9439
-11.7075
2.45874
6.36085
-1.44467
-10.3445
-11.2213
2.77442
4.07199
1.79748
6.73641
3.17766
2.45511
-10.669
-0.903179
3.36711
4.37277
5.05709
2.58182
-12.4371
3.01223
5.4356
3.74336
4.60238
-11.5533
7.28492
-7.75774
7.94144
2.52842
2.66226
6.44311
-11.4225
0.345584
5.31683
-13.3617
-14.5857
1.28462
7.12676
4.72939
-10.8407
-14.0509
-13.5872
3.85027
-16.2521
6.74009
8.95299
-10.3674
-11.0793
3.35251
4.04927
-1.79653
-4.32216
6.37502
2.91756
-11.1524
3.51915
7.97754
4.73516
5.99425
4.72781
7.43829
6.86362
6.46491
-12.9632
5.62567
3.02214
2.66425
6.50498
0.891376
2.51491
-16.299
-0.906733
-0.693493
6.75465
6.19395
5.29079
7.6852
5.00064
3.53862
-15.0409
6.42838
2.55469
7.72309
0.731578
4.50072
2.74057
6.60654
-12.88
3.05433
-14.4165
5.3052
8.60366
6.16138
5.2764
6.90426
-11.7345
5.80777
2.68053
6.50519
6.02787
-10.8075
4.00824
6.51512
-13.7138
-13.5911
3.1111
-11.4768
6.83124
-13.1524
6.97247
-13.8968
7.13372
-2.93737
3.90061
-12.0324
2.13848
-10.246
-10.1752
-10.7427
1.59536
-13.6417
3.77789
2.92465
3.85705
-11.8585
6.36309
2.67248
-16.2857
-11.0833
-12.3815
6.73642
-13.8049
2.70596
5.18079
3.25944
0.00897193
6.61415
-6.19205
5.53482
4.43946
6.91925
7.42807
6.09764
-14.2772
6.59017
7.39919
-11.1778
-0.265723
2.84772
3.81735
-10.7414
6.03953
6.18899
-12.6441
6.36889
-3.90597
-3.28693
6.10228
2.30617
-16.9873
4.08994
6.04338
6.98431
3.22143
6.38063
4.31447
-13.2756
2.96101
-11.0552
1.96603
2.46663
-11.3359
0.56335
1.68911
6.49626
3.01161
4.48178
2.97555
-13.4663
-12.0883
6.70792
5.27268
4.31131
-10.9422
2.49294
-1.27033
2.9427
2.47463
6.42252
7.15187
-2.14748
2.47153
-14.1508
-12.1008
6.7697
-9.21709
8.13695
-14.3771
0.0164335
3.35135
5.61309
2.4818
5.56856
5.04162
-10.5232
-7.21684
-13.6443
-11.1866
-16.283
5.86232
3.01071
-4.32911
3.08468
-2.76369
-13.2639
6.64426
-10.8342
-14.9479
-9.96604
6.26178
2.91909
4.01278
6.32398
-13.4965
7.02142
-12.6683
6.40864
7.64353
2.45841
-11.1392
-11.6398
4.29509
7.37322
7.85275
6.04101
5.21566
-0.680107
-15.4219
5.39678
3.61315
-12.0104
6.71677
-12.6877
6.74989
4.29051
6.89404
-11.5509
6.04718
4.0865
6.67656
6.83352
2.13291
4.68908
-11.095
2.24404
4.14945
5.25237
3.82756
-15.8089
3.40244
2.88457
-6.43878
-11.691
2.45432
-13.8663
6.61561
-10.773
-16.3922
6.06602
2.19128
4.98881
4.4828
2.73041
-14.3386
-0.175334
6.28125
3.41898
-7.35573
-7.9901
-9.3554
-14.3502
1.11885
7.24394
-12.1446
2.45558
3.52395
3.78987
6.47816
-15.2263
-13.3239
5.47981
-14.1252
6.10568
-15.3349
-3.03543
-10.8531
-13.6667
-10.7223
3.07449
2.20123
6.80231
2.47823
-16.6942
-5.31596
7.16646
-0.509245
2.79687
-12.0148
6.49778
-4.21865
-7.2194
-10.7475
2.45624
-11.8982
1.83169
-13.6735
-11.7202
6.9444
2.81076
5.18384
7.47133
4.51536
-4.88529
6.78157
4.66754
-12.7171
2.75892
1.5686
2.14711
5.48661
7.17628
-14.0676
-13.9463
1.90255
-11.2224
3.9082
6.17509
5.16177
-12.0079
-13.1781
-12.4034
4.72852
6.1466
5.91313
-11.1006
1.89538
-0.418938
4.31406
-13.3539
4.60044
1.99512
-16.0017
6.32206
7.5701
2.50945
3.59941
4.09445
7.72657
-4.81159
4.87499
6.31407
-12.4711
4.75359
-10.2575
-10.8922
2.09397
-6.10095
7.26581
-10.6801
7.42478
-10.6155
3.70344
6.07171
7.01876
7.19831
5.45856
1.23653
8.03108
-15.9637
4.92867
6.27816
5.06297
-13.6359
6.11151
6.09733
4.88633
-14.1601
4.21889
-10.2343
-10.1368
7.64256
7.2041
-2.34622
-13.3834
-15.1703
-1.78335
7.25615
2.53077
-13.3767
-12.1872
-11.2395
-10.0699
6.15583
5.30184
4.48414
2.19414
7.90067
6.72839
6.29168
2.87676
6.47162
-15.2482
5.46903
-14.6145
6.04239
4.33576
-6.79153
4.4295
-15.9812
2.30688
2.98036
3.93412
3.97215
7.36261
2.94693
-5.07618
0.882802
4.62041
-3.05755
-13.4205
-10.483
7.40285
0.834384
-10.9784
-13.8057
-12.8268
-13.3228
-10.0742
6.98648
5.53104
5.08448
3.78942
-14.5825
-13.1883
2.78518
7.2073
2.27957
7.4978
-10.0635
4.65551
-14.8104
3.73453
2.80473
4.32469
-11.437
4.55826
-16.8503
-11.674
1.88425
2.01552
4.29976
7.14007
2.51974
3.49266
-4.09755
6.88603
6.61757
4.18184
6.5068
2.11471
-12.174
-1.24651
-5.02455
-7.65317
-13.4758
-12.6819
2.30279
5.81027
-10.8712
7.79329
3.9931
-16.5757
6.69683
6.41122
5.33954
-4.8954
-12.9358
5.14294
6.30189
5.85879