/*--------------------------------*- C++ -*----------------------------------*\
  =========                 |
  \\      /  F ield         | OpenFOAM: The Open Source CFD Toolbox
   \\    /   O peration     | Website:  https://openfoam.org
    \\  /    A nd           | Version:  10
     \\/     M anipulation  |
\*---------------------------------------------------------------------------*/
FoamFile
{
    format      ascii;
    class       surfaceScalarField;
    location    "1550";
    object      phi;
}
// * * * * * * * * * * * * * * * * * * * * * * * * * * * * * * * * * * * * * //

dimensions      [0 3 -1 0 0 0 0];

internalField   nonuniform List<scalar> 
16133
(
2.67007
1.14151
-1.51192
-2.29974
-2.65101
2.61831
-2.95988
2.99258
-0.893943
-3.44879
2.69126
1.65148
0.629252
-1.05351
-4.66129
5.08558
-1.40312
0.505809
5.78963
-4.8923
4.93909
1.598
-6.42882
-0.108271
-3.81301
1.16588
2.27567
0.371454
-0.0673315
-3.65204
0.955954
2.76342
-2.00018
2.98992
2.12082
-3.11056
0.536076
3.97127
0.0129258
-4.52026
3.65578
-3.35126
2.57648
-2.881
4.96897
-2.18455
2.03323
-4.81764
-0.255593
-4.1391
2.47877
1.91591
0.998507
-0.836134
0.826733
-0.989105
1.13042
0.967514
-1.09943
-1.76374
1.29768
-4.11369
4.57975
-0.830256
0.700847
-0.706729
-5.34232
1.17276
3.89418
0.275382
-5.10412
4.12705
-1.02311
1.00322
3.06378
-1.39693
-0.803729
3.09248
-2.61505
0.326291
0.295583
-4.34914
4.68281
-4.47382
4.49514
-1.78506
6.97717
-5.71987
-0.198514
-1.05878
-4.54938
5.43615
-0.350693
-0.00265979
0.00296669
-0.0783598
0.0780528
0.042166
-0.0052345
-0.0265475
-0.010384
-0.200445
-2.41352
2.17767
0.436303
-0.0277894
0.0508964
-0.0151637
-0.00794319
-4.18898
2.81793
3.50898
-1.11393
-5.48848
3.09343
-2.66172
2.60386
3.71365
1.14072
-3.31832
2.11027
-0.0524729
0.151945
0.00976505
-0.109238
-3.3535
-3.29567
3.42854
3.22063
-1.53365
2.63202
1.81058
-2.90894
-2.69682
-5.02896
4.37228
-0.0566716
0.0904293
-0.105692
0.0719338
0.0461565
0.0969714
-0.0249513
-0.118177
-5.04295
0.957408
-1.01858
-4.34695
0.170902
-3.78154
-0.925406
-1.05514
-0.453077
0.15792
1.3503
-1.66939
4.10721
1.20796
-3.64577
4.9
-2.05188
-5.54494
3.00162
-1.06739
0.53615
0.0559898
-0.474006
-0.420925
0.697099
0.197832
2.38248
1.43132
-0.823886
4.47156
-4.10077
-0.0751999
-1.87508
-2.58069
-5.37444
5.60873
-4.17411
3.93982
0.132217
0.0447479
-0.130808
-0.0230071
0.0364354
0.0409591
-0.0543873
-0.0177777
0.0543325
0.0604166
-0.0162791
-0.0168567
0.00534644
4.66441
-2.46824
-7.22513
-0.0779076
-0.0871551
0.13233
0.0327323
-0.514548
0.786705
-0.633002
0.360846
4.37036
0.0808143
0.0180765
0.0333257
2.6136
-2.19287
-3.07173
0.0969567
0.00189623
-0.00854064
-0.0903121
2.52235
-4.80777
4.36694
-2.08152
2.25122
-1.82504
-4.25079
2.74001
-1.93801
-0.463497
-0.274019
0.222968
-0.0238577
0.318489
-0.0164233
-0.278207
1.23253
2.8159
-4.99924
0.303355
-1.02398
0.0238626
0.00309671
-0.0499665
0.116369
-0.0347389
0.0129639
-0.0945943
-1.09795
0.549245
1.85569
-1.30699
2.22848
-3.53742
-2.94186
1.01092
-1.48004
1.59955
-1.02812
-1.22263
1.3758
0.87495
-5.80358
1.75007
-0.945734
-2.34427
1.45971
2.05044
-2.14386
1.96373
1.32085
1.40494
-1.2372
0.843185
5.03289
-4.73391
0.210418
-0.509399
2.24267
-1.91083
-1.21585
0.884011
0.0581824
0.12981
-0.143245
0.046344
0.0485899
-0.0584985
5.61943
0.109811
-0.696352
-2.52686
2.11328
1.89281
-1.47923
2.43762
-2.0646
-2.29197
1.91895
4.16758
-3.66269
-2.17429
1.31595
-0.600319
0.879551
-1.59517
2.82343
-2.31659
1.93079
4.74074
1.6223
-2.19545
6.14217
-2.45494
2.57306
0.811122
1.70581
-1.83603
1.44619
3.25702
-2.19191
1.75832
-2.88775
-1.17276
0.788606
5.1417
0.211889
0.717975
-1.15485
-1.04316
0.821584
-0.526014
0.491137
-4.75968
5.15814
-0.276693
-0.121752
1.55329
-1.43563
4.38552
-4.37769
1.25411
-1.26193
1.7545
-2.12859
1.72292
0.798799
4.51568
-0.928952
1.06823
2.8827
0.693583
0.0513427
-0.313694
-0.869729
7.33504
-0.845883
1.50008
-0.986734
0.891604
-0.57551
-3.67768
0.152428
-4.18532
-1.59549
-1.66834
-1.15375
0.911253
-1.08481
0.916549
-0.155585
-3.81548
-3.85642
-0.429671
4.87001
0.717804
2.23285
-3.49298
-2.5766
3.89529
-4.98917
-0.0287514
4.58826
2.30953
3.04973
-0.489237
0.735936
-0.17999
-1.58406
2.58157
-2.6653
-1.17517
0.751257
2.95569
-2.53176
-3.31968
3.52941
2.43048
-2.64019
-0.0554694
0.128591
0.00790653
-0.0810278
-0.124168
1.00972
1.59328
-1.86707
6.42175
-5.19813
-0.0682249
0.0544666
-0.0131994
0.0269576
2.01895
-2.18439
-3.08498
-2.89641
-3.19244
-1.04977
0.78009
-0.0153116
0.126352
0.00532884
-0.0599784
0.157213
0.0984938
-0.195728
-0.927234
1.11942
-3.07993
0.188299
5.10917
-3.00326
-3.39583
0.747388
-1.26861
0.93656
-4.11598
5.57308
-0.10556
-0.147547
-0.21039
-0.876921
3.02085
-6.01088
3.86695
4.92245
1.16304
-1.15766
1.15621
-1.16159
2.66717
-2.84313
1.14003
-3.99212
-1.06611
0.818463
-0.58261
3.918
1.89211
-6.68703
-0.585008
0.168405
-0.057403
-1.83604
-6.17713
2.83006
-2.41119
4.64985
2.289
4.81383
2.39291
-0.188833
0.0475469
0.317726
-0.17644
3.84395
1.99411
-2.30864
0.829715
-2.50336
2.93528
2.84585
-3.27777
7.06595
1.81664
-3.26072
-5.62187
-0.923411
0.700371
-4.27633
4.42526
5.45811
-5.41723
-0.910594
-0.968431
1.58125
4.73115
4.00014
-2.95238
2.28474
-2.65067
-5.02154
0.211094
4.7817
-3.96635
3.08126
-2.30906
3.19415
-4.88211
-5.93653
-0.328268
-3.3914
0.556783
-0.573188
-1.08155
-0.00312785
0.0166907
-0.0125967
-0.000966159
-0.732514
0.740718
5.00642
-4.89606
1.78175
-2.09008
-3.37316
-3.04759
-0.77167
0.72742
-0.0761586
0.12041
-3.27913
0.348838
-0.0127699
0.0995147
-0.0358483
-4.95227
-0.336514
-3.86672
2.14867
0.107261
-0.0819162
-0.926825
-1.72315
3.07873
-3.69985
3.21322
3.83052
4.05978
4.01769
-3.1525
0.156329
0.0578458
-0.155992
-0.0751622
-0.00837428
1.46444
-3.25396
1.61972
-1.96107
2.73226
-3.22287
-0.567131
0.876816
-0.970687
-2.34457
0.0833497
2.50981
1.46441
0.184765
-0.0159881
-0.225449
-3.00359
2.54755
0.197287
-1.14607
1.47257
-2.93532
4.37987
-1.60012
-0.0365403
0.100432
0.036038
-0.0395133
5.09633
-0.259619
-0.00480352
-0.320585
2.94208
2.43489
5.05644
0.0407493
-0.00171122
-1.15702
0.986375
-1.22188
1.71833
0.140019
-0.141465
-0.177665
0.179111
-0.0634191
0.0607592
0.599021
0.0919197
-0.0506084
-0.0540814
0.738809
-0.184353
0.172965
0.236307
-0.178761
-0.163107
1.28983
-0.134607
-1.88773
-0.026849
-0.100339
0.171334
-0.0441465
2.74591
0.0617955
-0.0668254
0.00502982
-0.59492
-1.97093
3.90025
-5.44891
1.43786
1.03037
0.528633
-0.503652
-0.101139
-2.78716
-0.00162354
1.57649
-5.93698
-0.0751269
0.0664059
0.0352012
-0.0264803
-0.493934
-5.84715
-0.102174
-0.0194114
0.0947367
-4.62198
-0.921819
-2.90176
5.66692
-3.19145
-0.0293828
-0.151026
0.0800698
0.270567
-0.328043
0.197495
-0.0210189
-0.028978
0.0337178
-2.32554
2.2617
-0.850154
2.40179
1.41973
-1.08926
-0.00333957
-0.00327911
0.00661864
-1.76803
-3.39378
0.0118539
-0.0232544
0.0114005
1.68873
-3.81486
0.848522
1.40065
-0.66473
1.27684
0.00771093
0.00414301
0.523918
-0.177885
-0.224346
0.376763
0.252545
-1.43378
1.99836
-0.288722
-0.715252
4.46329
0.183056
-0.0659706
0.0392439
-0.940004
0.227192
-1.13658
1.50897
-2.67779
-0.602878
2.30156
-0.799938
3.93453
0.0561837
0.00457548
0.946529
-4.21258
1.68317
-0.893994
-2.51076
1.30463
0.903579
0.369048
-2.40567
2.00946
-0.178587
-0.0319531
0.0690748
5.90616
-0.0846032
0.049832
0.0593209
-0.0628089
-0.0814154
0.120862
-3.12013
0.0949248
0.105022
-0.109555
0.0190378
0.0249053
-0.0439431
-1.51722
-3.81859
4.60098
-0.44416
0.209354
0.276681
-2.12174
0.00427455
-0.00761412
-1.67355
-5.18525
0.263626
0.0488599
0.0684192
-0.0674474
0.540133
-0.184142
-0.0359773
-3.35118
-0.167479
-3.75966
-2.00158
-0.00421659
0.139291
0.326434
-0.109083
-0.604067
-0.0327401
0.0444485
-0.00981208
0.0565409
0.170375
-0.16907
-0.381968
-2.73264
-3.30115
0.0528883
0.00329535
0.214405
-2.09566
0.0511846
1.56811
-0.0627774
0.0671755
0.0597918
0.0608227
-0.0717545
0.657048
0.173305
-0.0495145
0.0160106
-0.025629
-0.00329692
0.00772875
-0.130168
0.22087
-0.0809363
0.0123065
0.00865874
0.0553674
-0.00247914
0.00858028
-0.021177
0.192919
0.0417312
0.0073866
-0.0139166
-0.182024
2.10617
-1.52688
1.38443
0.00563582
-0.0760124
-0.0264115
0.302073
-0.453753
-0.681844
1.08504
0.587186
-1.3956
-1.03947
-0.0220191
0.0340002
-0.0557753
0.0427791
-0.0720768
0.00619993
0.0127252
0.016668
-0.00197707
0.0573445
-0.130435
-0.0641754
2.16614
-0.0127145
0.0489702
-1.681
0.505904
-1.80546
-0.760716
-0.101756
0.00330667
-0.0297181
-0.059291
0.0184904
-0.0470628
0.0632169
-0.0223315
0.698481
-0.951142
-1.19084
0.839961
-0.0976345
-1.56172
-0.374845
-0.0355273
-0.0237854
-1.56232
-0.804558
-0.0362482
-0.030913
0.0357708
0.140517
-0.497934
0.0457491
0.0207631
-0.0627284
1.4977
-0.0209054
0.0192751
0.0195811
0.0776549
2.84621
0.243405
-0.206917
-0.864205
-0.21018
-1.02456
-0.00380077
0.115099
-0.111298
-0.00841493
0.119425
-0.11481
-0.0130115
0.13006
-0.125463
-0.018029
0.1391
-0.134082
-0.023177
0.14865
-0.143502
-0.0286338
0.157308
-0.151851
-0.0342169
0.165869
-0.160286
-0.0399447
0.173902
-0.168174
0.181539
-0.176005
-0.0454784
-0.0034944
0.118593
-0.00760007
0.12353
-0.0117248
0.134184
-0.0162211
0.143596
-0.0207917
0.153221
-0.025619
0.162135
-0.0305433
0.170794
-0.035561
0.178919
0.186601
-0.0406229
-0.00339757
0.121991
-0.00686757
0.127
-0.0104618
0.137779
-0.01435
0.147484
-0.018335
0.157206
-0.022498
0.166298
-0.0267401
0.175036
-0.031056
0.183235
0.190964
-0.0354195
-0.00309796
0.125088
-0.00606769
0.12997
-0.00914244
0.140853
-0.0124252
0.150767
-0.015807
0.160588
-0.0193214
0.169813
-0.0229038
0.178618
-0.0265647
0.186896
0.194726
-0.0303261
-0.00267922
0.127768
-0.00517855
0.132469
-0.00774203
0.143417
-0.0104495
0.153474
-0.0132378
0.163376
-0.01613
0.172705
-0.0190989
0.181587
-0.0221652
0.189962
0.197917
-0.0253565
-0.00215345
0.129921
-0.00419897
0.134515
-0.00627689
0.145495
-0.00844477
0.155642
-0.0106708
0.165602
-0.0129804
0.175014
-0.01536
0.183967
-0.0178392
0.192442
0.200535
-0.020457
-0.00142437
0.131346
-0.00310284
0.136193
-0.00475837
0.14715
-0.0064541
0.157338
-0.00816491
0.167313
-0.00993082
0.17678
-0.0117725
0.185808
-0.0137191
0.194388
0.202634
-0.0158183
-0.00054425
0.13189
-0.00198295
0.137632
-0.00327922
0.148447
-0.00454295
0.158602
-0.00578707
0.168557
-0.00707141
0.178065
-0.00842579
0.187163
-0.00989801
0.19586
0.204217
-0.0114809
0.000111299
0.131778
-0.00107321
0.138816
-0.00198342
0.149357
-0.00282708
0.159445
-0.00363806
0.169368
-0.00448335
0.17891
-0.00541586
0.188095
-0.00646762
0.196912
0.205436
-0.00768709
0.000267676
0.131511
-0.000536497
0.139621
-0.000969111
0.149789
-0.00136599
0.159842
-0.00176517
0.169767
-0.00224534
0.17939
-0.00284119
0.188691
-0.0035967
0.197668
0.20635
-0.0045106
8.0707e-05
0.13143
-0.000219245
0.13992
-0.00014409
0.149714
-0.000123934
0.159822
-0.000174593
0.169818
-0.000367814
0.179583
-0.000723987
0.189047
-0.00128913
0.198233
0.207154
-0.00209323
9.06595e-06
0.131421
0.000236316
0.139693
0.000687305
0.149263
0.00101287
0.159497
0.00119204
0.169638
0.00120077
0.179574
0.00100294
0.189245
0.000596117
0.19864
0.20788
-0.000129121
0.000421518
0.130999
0.00103848
0.139076
0.00165624
0.148645
0.00211327
0.159039
0.00239731
0.169354
0.00247908
0.179493
0.00233821
0.189386
0.00194469
0.199033
0.208511
0.00131352
0.00116361
0.129836
0.00204029
0.1382
0.00269879
0.147987
0.00317631
0.158562
0.00346541
0.169065
0.00353494
0.179423
0.00336819
0.189553
0.00293323
0.199468
0.20921
0.00223413
0.00192134
0.127914
0.00300888
0.137112
0.00367735
0.147318
0.0041267
0.158113
0.0043749
0.168817
0.0044045
0.179394
0.0041814
0.189776
0.00366524
0.199984
0.210015
0.0028597
0.00232298
0.125591
0.00367478
0.13576
0.00440002
0.146593
0.00486685
0.157646
0.00511395
0.16857
0.00512772
0.17938
0.00487633
0.190027
0.0043262
0.200534
0.210872
0.00347001
0.00213376
0.123458
0.00379978
0.134094
0.00472729
0.145666
0.00533305
0.15704
0.00567204
0.168231
0.00574534
0.179306
0.00551852
0.190254
0.00498072
0.201072
0.211786
0.00406627
0.00165629
0.121801
0.00351054
0.13224
0.0047289
0.144447
0.00557597
0.156193
0.00609787
0.167709
0.00629929
0.179105
0.00615552
0.190398
0.00563817
0.20159
0.212715
0.00470889
0.00129177
0.120509
0.00317914
0.130352
0.0046372
0.142989
0.00575107
0.155079
0.00651903
0.166941
0.00693536
0.178689
0.00697299
0.19036
0.00661077
0.201952
0.213498
0.0058277
0.00113226
0.119377
0.00300846
0.128476
0.00464331
0.141354
0.00601291
0.153709
0.00705245
0.165901
0.00773752
0.178004
0.00803444
0.190063
0.00791092
0.202075
0.21407
0.00733908
0.0011
0.118277
0.0030334
0.126543
0.00483747
0.13955
0.00645471
0.152092
0.0077848
0.164571
0.00877675
0.177012
0.00937822
0.189462
0.00951374
0.20194
0.214482
0.00910161
0.00123016
0.117047
0.0032906
0.124482
0.00527472
0.137566
0.00713318
0.150234
0.00877378
0.162931
0.0101276
0.175658
0.011125
0.188464
0.0116459
0.201419
0.21451
0.0116182
0.00168288
0.115364
0.00383543
0.12233
0.00596935
0.135432
0.00804649
0.148156
0.0100054
0.160972
0.0117645
0.173899
0.0132566
0.186972
0.0142637
0.200412
0.214259
0.014515
0.00247099
0.112893
0.00463481
0.120166
0.00686415
0.133203
0.00915411
0.145866
0.0114348
0.158691
0.0136094
0.171724
0.0156771
0.184904
0.0172709
0.198818
0.213969
0.0175608
0.00333853
0.00532796
0.00772283
0.0103445
0.0130432
0.0156975
0.0185776
0.0216678
0.0254572
-0.087512
-0.00126693
0.0887789
-0.0860959
-0.00141611
-0.084521
-0.00157493
-0.0827738
-0.00174718
-0.0808478
-0.00192602
-0.0787351
-0.00211268
-0.0764286
-0.00230647
-0.0739258
-0.00250285
-0.0712206
-0.00270518
-0.0683145
-0.00290611
-0.0652073
-0.0031072
-0.0619017
-0.00330554
-0.0584024
-0.00349934
-0.0547114
-0.00369097
-0.0508362
-0.00387516
-0.0467817
-0.00405454
-0.0425587
-0.00422298
-0.0381787
-0.00437996
-0.0336604
-0.00451832
-0.0290284
-0.00463195
-0.0243188
-0.00470952
-0.0195848
-0.004734
-0.0148943
-0.00469052
-0.0103202
-0.00457408
-0.00589675
-0.00442339
-0.00155272
-0.00434402
0.00284503
-0.00439773
0.00743105
-0.00458602
0.0123119
-0.00488083
0.0174587
-0.00514683
0.022752
-0.0052932
0.0281015
-0.00534953
0.033448
-0.00534645
0.0387388
-0.00529079
0.0439268
-0.00518796
0.0489742
-0.00504746
0.053849
-0.0048748
0.0585239
-0.00467485
0.0629809
-0.00445696
0.0672066
-0.00422571
0.0711972
-0.00399061
0.0749553
-0.00375807
0.0784862
-0.00353088
0.0818017
-0.00331551
0.0849114
-0.00310961
0.0878304
-0.00291904
0.0905673
-0.00273687
0.0931339
-0.0025666
0.095535
-0.00240106
0.0977737
-0.00223866
0.0998532
-0.00207954
0.101774
-0.00192086
0.103546
-0.00177224
0.105172
-0.00162591
0.106656
-0.00148411
0.108004
-0.00134798
0.109221
-0.00121613
0.110318
-0.00109741
-0.000979884
-0.0870109
-0.00257728
0.0883213
-0.0855982
-0.00282881
-0.0840741
-0.00309899
-0.0824289
-0.0033924
-0.0806566
-0.00369837
-0.0787431
-0.00402614
-0.0766814
-0.00436813
-0.0744574
-0.00472686
-0.0720625
-0.00510011
-0.0694864
-0.00548216
-0.0667198
-0.00587385
-0.0637554
-0.00626988
-0.0605849
-0.00666984
-0.0572089
-0.00706696
-0.0536251
-0.00745893
-0.0498355
-0.0078442
-0.0458449
-0.00821351
-0.0416622
-0.0085627
-0.0372953
-0.00888525
-0.0327567
-0.00917046
-0.0280567
-0.00940951
-0.0231956
-0.00959511
-0.0181601
-0.00972609
-0.0129163
-0.00981781
-0.0074444
-0.00989529
-0.00178899
-0.00999943
0.00395569
-0.0101424
0.00969438
-0.0103247
0.0153496
-0.0105361
0.020931
-0.0107282
0.0264825
-0.0108447
0.0320049
-0.010872
0.0374716
-0.0108131
0.0428549
-0.0106741
0.048123
-0.010456
0.0532469
-0.0101714
0.0581994
-0.00982727
0.0629625
-0.00943793
0.0675175
-0.00901204
0.0718537
-0.00856191
0.0759613
-0.00809812
0.0798309
-0.00762773
0.0834635
-0.00716348
0.0868563
-0.00670831
0.0900119
-0.00626516
0.0929344
-0.00584156
0.0956323
-0.00543476
0.0981094
-0.00504365
0.100381
-0.00467228
0.102458
-0.00431616
0.104358
-0.00397911
0.106095
-0.00365795
0.107681
-0.00335853
0.109134
-0.00307924
0.110464
-0.00281366
0.111687
-0.00257085
0.112811
-0.00234013
0.113847
-0.0021339
-0.00194284
-0.0951086
-0.00404184
0.0965732
-0.0935297
-0.00440772
-0.0918286
-0.00480012
-0.0900022
-0.00521874
-0.0880344
-0.00566617
-0.0859172
-0.00614336
-0.0836398
-0.00664557
-0.0811949
-0.00717172
-0.0785712
-0.00772385
-0.0757583
-0.00829499
-0.0727476
-0.00888464
-0.0695317
-0.00948574
-0.0661052
-0.0100963
-0.0624624
-0.0107098
-0.0585993
-0.0113221
-0.0545193
-0.0119242
-0.0502189
-0.0125138
-0.0457034
-0.0130783
-0.040976
-0.0136126
-0.0360402
-0.0141063
-0.0308962
-0.0145535
-0.0255447
-0.0149466
-0.0199844
-0.0152864
-0.0142223
-0.0155799
-0.00828003
-0.0158376
-0.00220138
-0.0160781
0.00396657
-0.0163103
0.0101747
-0.0165329
0.0163691
-0.0167304
0.022515
-0.0168741
0.028604
-0.0169337
0.0346245
-0.0168925
0.0405574
-0.016746
0.0463767
-0.0164934
0.0520616
-0.0161409
0.057588
-0.0156977
0.0629336
-0.0151729
0.0680801
-0.0145844
0.0730125
-0.0139444
0.0777145
-0.013264
0.0821785
-0.012562
0.0863979
-0.0118471
0.0903682
-0.0111338
0.0940859
-0.010426
0.0975585
-0.00973777
0.100785
-0.00906773
0.103773
-0.00842353
0.106535
-0.00780538
0.10908
-0.00721727
0.111422
-0.00665782
0.113574
-0.00613151
0.115549
-0.00563323
0.11736
-0.00516909
0.119017
-0.00473579
0.120536
-0.00433261
0.121927
-0.00396235
0.123209
-0.00362222
0.124384
-0.00330895
-0.00302181
-0.10172
-0.00554946
0.103228
-0.100094
-0.00603375
-0.0983363
-0.00655815
-0.0964375
-0.00711749
-0.0943907
-0.007713
-0.092186
-0.00834807
-0.0898139
-0.00901768
-0.0872597
-0.00972593
-0.0845171
-0.0104664
-0.0815753
-0.0112369
-0.0784255
-0.0120344
-0.0750536
-0.0128576
-0.0714551
-0.0136948
-0.0676186
-0.0145462
-0.0635427
-0.015398
-0.0592189
-0.0162481
-0.0546483
-0.0170845
-0.0498304
-0.0178962
-0.044767
-0.018676
-0.0394608
-0.0194125
-0.0339151
-0.0200992
-0.0281339
-0.0207278
-0.0221248
-0.0212954
-0.0159053
-0.0217995
-0.00949912
-0.0222437
-0.00294381
-0.0226334
0.00371144
-0.0229656
0.0104154
-0.0232368
0.0171198
-0.0234348
0.023788
-0.0235423
0.030395
-0.0235407
0.0369202
-0.0234177
0.0433406
-0.0231664
0.0496347
-0.0227876
0.0557764
-0.0222825
0.0617449
-0.0216663
0.0675199
-0.0209479
0.0730749
-0.0201394
0.0783928
-0.0192622
0.0834616
-0.0183328
0.0882685
-0.017369
0.0928051
-0.0163838
0.0970659
-0.0153945
0.10105
-0.0144104
0.104756
-0.0134434
0.108195
-0.0125064
0.111369
-0.0115984
0.114297
-0.010733
0.116984
-0.00990444
0.119452
-0.00912544
0.121713
-0.00839237
0.123783
-0.00770342
0.125672
-0.00705784
0.1274
-0.00646429
0.128982
-0.00591453
0.130431
-0.00541129
0.131756
-0.00494769
0.132968
-0.00452086
-0.00413551
-0.110534
-0.0071977
0.112182
-0.108744
-0.00782283
-0.106811
-0.00849137
-0.104724
-0.00920473
-0.102473
-0.00996401
-0.10005
-0.0107707
-0.0974422
-0.0116258
-0.0946439
-0.0125243
-0.0916428
-0.0134674
-0.0884288
-0.0144509
-0.0849921
-0.0154711
-0.081324
-0.0165257
-0.0774154
-0.0176035
-0.073261
-0.0187006
-0.0688509
-0.0198081
-0.0641829
-0.0209161
-0.0592541
-0.0220132
-0.0540616
-0.0230887
-0.0486095
-0.0241281
-0.0428978
-0.0251243
-0.0369355
-0.0260615
-0.0307305
-0.0269329
-0.0242968
-0.0277291
-0.0176528
-0.0284435
-0.0108265
-0.02907
-0.00385477
-0.0296051
0.00322229
-0.0300426
0.0103621
-0.0303766
0.0175221
-0.0305948
0.0246639
-0.0306841
0.0317549
-0.0306317
0.0387644
-0.0304272
0.0456629
-0.0300649
0.0524251
-0.0295498
0.0590262
-0.0288837
0.0654362
-0.0280763
0.0716319
-0.0271437
0.0775932
-0.0261007
0.0832997
-0.0249687
0.0887386
-0.0237717
0.093893
-0.0225234
0.0987607
-0.0212514
0.103334
-0.0199675
0.107615
-0.0186915
0.111608
-0.0174365
0.115315
-0.016214
0.118752
-0.0150345
0.121924
-0.0139051
0.124846
-0.0128272
0.127531
-0.0118106
0.129995
-0.0108558
0.132253
-0.00996179
0.134326
-0.00913063
0.136219
-0.00835764
0.137951
-0.00764658
0.139533
-0.00699304
0.140978
-0.00639263
0.142299
-0.0058422
-0.00533832
-0.118798
-0.00892852
0.120529
-0.11692
-0.00970032
-0.11489
-0.0105212
-0.112695
-0.0114002
-0.11032
-0.0123386
-0.107761
-0.01333
-0.105004
-0.0143828
-0.102037
-0.015491
-0.098849
-0.0166558
-0.095431
-0.0178689
-0.0917709
-0.0191312
-0.0878602
-0.0204364
-0.0836872
-0.0217765
-0.0792435
-0.0231443
-0.0745242
-0.0245275
-0.0695241
-0.0259162
-0.0642401
-0.0272972
-0.0586771
-0.0286517
-0.0528341
-0.0299711
-0.0467185
-0.0312398
-0.0403359
-0.0324441
-0.0337005
-0.0335683
-0.0268277
-0.034602
-0.0197404
-0.0355308
-0.0124686
-0.0363417
-0.00504773
-0.037026
0.00248308
-0.0375735
0.0100846
-0.0379781
0.0177165
-0.0382268
0.0253398
-0.0383074
0.0329193
-0.0382112
0.0404181
-0.037926
0.0478044
-0.0374512
0.0550491
-0.0367945
0.0621196
-0.0359541
0.0689906
-0.0349473
0.0756349
-0.033788
0.0820202
-0.032486
0.0881301
-0.0310786
0.0939451
-0.0295867
0.0994565
-0.0280349
0.104652
-0.0264467
0.109532
-0.0248472
0.114092
-0.023252
0.11834
-0.0216842
0.12228
-0.0201545
0.125922
-0.0186762
0.129277
-0.0172599
0.132362
-0.0159121
0.135191
-0.0146394
0.137783
-0.0134477
0.140152
-0.0123309
0.142316
-0.0112946
0.144292
-0.0103341
0.146097
-0.00945189
0.147741
-0.00863646
0.149238
-0.0078902
0.150607
-0.00721046
-0.00658281
-0.128066
-0.0107819
0.129919
-0.126052
-0.0117136
-0.123869
-0.0127043
-0.121506
-0.0137634
-0.118952
-0.0148922
-0.116194
-0.0160887
-0.11322
-0.0173564
-0.110018
-0.0186933
-0.106581
-0.0200925
-0.102894
-0.0215564
-0.0989491
-0.0230757
-0.0947382
-0.0246473
-0.0902485
-0.0262662
-0.085473
-0.0279197
-0.0804062
-0.0295943
-0.0750444
-0.031278
-0.0693817
-0.0329599
-0.0634302
-0.0346033
-0.0571881
-0.0362132
-0.0506654
-0.0377625
-0.0438658
-0.0392438
-0.0368064
-0.0406277
-0.0295051
-0.0419033
-0.0219804
-0.0430554
-0.0142708
-0.0440513
-0.00640898
-0.0448879
0.00156342
-0.0455459
0.00961324
-0.0460279
0.0177023
-0.0463158
0.0257897
-0.0463948
0.0338423
-0.0462638
0.0418133
-0.045897
0.0496692
-0.0453071
0.0573811
-0.0445064
0.0649093
-0.0434823
0.0722318
-0.0422698
0.0793182
-0.0408744
0.0861204
-0.0392882
0.092629
-0.0375872
0.098823
-0.0357807
0.104695
-0.0339064
0.110229
-0.0319814
0.115426
-0.0300441
0.120281
-0.0281073
0.124805
-0.0262076
0.129
-0.0243496
0.132877
-0.0225536
0.136445
-0.020828
0.139722
-0.0191892
0.142726
-0.0176425
0.145468
-0.01619
0.147977
-0.0148401
0.150264
-0.0135818
0.15235
-0.0124195
0.154248
-0.0113501
0.155977
-0.0103658
0.157552
-0.00946495
0.158984
-0.00864254
-0.007885
-0.137324
-0.0127487
0.139291
-0.135196
-0.0138417
-0.132893
-0.0150078
-0.130392
-0.016264
-0.127689
-0.0175958
-0.124761
-0.0190165
-0.121607
-0.0205101
-0.118202
-0.0220988
-0.114528
-0.0237658
-0.1106
-0.0254843
-0.106394
-0.0272823
-0.101899
-0.029142
-0.097109
-0.0310564
-0.0920111
-0.0330176
-0.0866031
-0.0350023
-0.0808745
-0.0370065
-0.0748201
-0.0390143
-0.0684736
-0.0409497
-0.0618325
-0.0428543
-0.0549
-0.0446949
-0.0476744
-0.0464694
-0.0401845
-0.0481175
-0.0324517
-0.0496362
-0.0244654
-0.0510417
-0.0163031
-0.0522137
-0.00798353
-0.0532075
0.000434364
-0.0539638
0.00894234
-0.0545359
0.0174968
-0.0548703
0.0260511
-0.0549491
0.0345871
-0.0547997
0.0430288
-0.0543387
0.0513476
-0.053626
0.0595413
-0.0527001
0.0675232
-0.0514642
0.0753049
-0.0500516
0.0828715
-0.0484409
0.0900959
-0.0465127
0.0970089
-0.0445001
0.103592
-0.0423639
0.10983
-0.0401448
0.11572
-0.0378707
0.121231
-0.0355552
0.126375
-0.0332518
0.131184
-0.031016
0.135621
-0.0287869
0.13973
-0.0266627
0.143505
-0.0246026
0.146944
-0.0226283
0.150079
-0.0207779
0.152934
-0.0190455
0.155534
-0.0174395
0.157896
-0.0159442
0.160042
-0.0145651
0.161991
-0.0132987
0.163763
-0.0121382
0.165371
-0.0110727
0.166837
-0.0101092
-0.0092213
-0.147286
0.149362
-0.0148244
-0.145025
-0.0161029
-0.142577
-0.0174555
-0.13991
-0.0189311
-0.137022
-0.020484
-0.133876
-0.0221619
-0.13047
-0.0239165
-0.126834
-0.0257345
-0.122931
-0.0276692
-0.118671
-0.0297444
-0.114156
-0.0317968
-0.109338
-0.0339609
-0.104166
-0.0362278
-0.0987223
-0.0384614
-0.0929199
-0.0408048
-0.086859
-0.0430675
-0.0804765
-0.0453968
-0.073741
-0.0476852
-0.0666374
-0.049958
-0.0592694
-0.0520629
-0.0515995
-0.0541394
-0.0437165
-0.0560005
-0.0355809
-0.0577718
-0.0271299
-0.0594926
-0.0185093
-0.0608342
-0.00974684
-0.06197
-0.000915464
-0.0627951
0.00805917
-0.0635105
0.0171174
-0.0639285
0.026106
-0.0639378
0.0351276
-0.0638213
0.0440554
-0.0632666
0.0527982
-0.0623688
0.0614845
-0.0613864
0.0699699
-0.0599495
0.078227
-0.0583086
0.086146
-0.0563599
0.0937084
-0.0540751
0.101084
-0.0518752
0.108059
-0.0493396
0.114674
-0.0467592
0.120959
-0.0441559
0.12683
-0.0414265
0.132319
-0.0387404
0.137423
-0.0361203
0.142124
-0.0334873
0.146437
-0.0309762
0.150363
-0.0285287
0.154022
-0.0262868
0.157354
-0.0241101
0.160364
-0.0220551
0.163079
-0.0201547
0.165522
-0.0183876
0.167755
-0.0167981
0.169776
-0.0153192
0.171594
-0.0139566
0.173238
-0.0127162
0.174664
-0.0115356
-0.0105623
-0.0552917
0.0113485
-0.0656113
0.0103196
-0.0749221
0.00931079
-0.0829936
0.00807146
-0.0899127
0.00691912
-0.0961437
0.00623098
-0.101994
0.00585043
-0.107551
0.00555668
-0.11283
0.00527939
-0.117493
0.00466226
-0.120893
0.00340008
-0.122712
0.00181929
-0.123111
0.000399521
-0.122542
-0.000569359
-0.121566
-0.000975996
-0.120366
-0.00119963
-0.118707
-0.00165994
-0.11637
-0.00233701
-0.113442
-0.00292784
-0.110101
-0.00334068
-0.106437
-0.00366354
-0.102482
-0.00395531
-0.0982403
-0.00424185
-0.09375
-0.00449027
-0.00497109
-0.059487
0.020869
-0.0689335
0.0197661
-0.0778521
0.0182293
-0.0862512
0.0164706
-0.0941527
0.0148206
-0.101451
0.0135293
-0.108074
0.0124738
-0.113964
0.0114465
-0.118928
0.0102436
-0.122818
0.00855165
-0.12574
0.00632204
-0.127766
0.00384552
-0.128844
0.00147761
-0.12891
-0.00050335
-0.127952
-0.00193374
-0.126149
-0.00300257
-0.123777
-0.00403273
-0.120997
-0.00511621
-0.117798
-0.00612733
-0.114126
-0.00701304
-0.109983
-0.00780603
-0.105369
-0.0085692
-0.100264
-0.00934704
-0.0945623
-0.0101919
-0.0112122
-0.0649351
0.0314168
-0.0750757
0.0299067
-0.0847477
0.0279013
-0.0939304
0.0256533
-0.102506
0.0233964
-0.110278
0.021301
-0.11711
0.019306
-0.122922
0.0172581
-0.127655
0.0149764
-0.131392
0.0122892
-0.134274
0.00920416
-0.13637
0.00594128
-0.137683
0.00279031
-0.138157
-2.95496e-05
-0.137694
-0.00239612
-0.136297
-0.00439935
-0.134117
-0.00621273
-0.131305
-0.00792903
-0.127914
-0.00951835
-0.123954
-0.010973
-0.119444
-0.012316
-0.114411
-0.0136021
-0.108891
-0.0148664
-0.102925
-0.0161587
-0.0175635
-0.0701527
0.043071
-0.0811594
0.0409133
-0.0915845
0.0383263
-0.101401
0.0354698
-0.110497
0.0324924
-0.118704
0.0295082
-0.125888
0.0264895
-0.131978
0.0233478
-0.136965
0.019964
-0.140936
0.0162604
-0.144012
0.0122797
-0.14626
0.0081894
-0.147676
0.00420626
-0.148223
0.000517312
-0.147831
-0.00278765
-0.146504
-0.00572621
-0.14432
-0.00839741
-0.141382
-0.0108668
-0.137744
-0.0131563
-0.133447
-0.0152704
-0.12851
-0.0172525
-0.12297
-0.019142
-0.116859
-0.0209774
-0.11023
-0.0227885
-0.0245652
-0.0754012
0.0556632
-0.087328
0.0528401
-0.098561
0.0495593
-0.109058
0.0459665
-0.11871
0.0421445
-0.127392
0.0381907
-0.134997
0.0340938
-0.141473
0.029824
-0.146827
0.0253186
-0.151126
0.0205592
-0.15446
0.0156132
-0.156886
0.010616
-0.158406
0.00572578
-0.158997
0.00110796
-0.158637
-0.00314747
-0.157319
-0.00704392
-0.155094
-0.0106227
-0.152041
-0.0139195
-0.148221
-0.0169761
-0.143684
-0.0198074
-0.138478
-0.0224586
-0.132656
-0.0249637
-0.126285
-0.0273489
-0.119444
-0.0296296
-0.0318272
-0.0807939
0.0690097
-0.0936114
0.0656575
-0.105648
0.061596
-0.116846
0.0571639
-0.127098
0.0523964
-0.136314
0.0474075
-0.144398
0.0421775
-0.15132
0.0367455
-0.157087
0.0310862
-0.161743
0.0252144
-0.16536
0.0192302
-0.167977
0.0132329
-0.169606
0.00735496
-0.170244
0.00174587
-0.169872
-0.00351913
-0.168514
-0.00840235
-0.166214
-0.0129227
-0.16302
-0.0171127
-0.159003
-0.0209933
-0.15421
-0.0246002
-0.148701
-0.0279678
-0.142524
-0.0311413
-0.135728
-0.0341444
-0.128369
-0.0369882
-0.0396681
-0.0861979
0.083453
-0.10001
0.0794699
-0.112879
0.0744651
-0.12481
0.0690946
-0.135706
0.0632928
-0.145509
0.0572098
-0.154107
0.0507752
-0.161502
0.0441406
-0.167691
0.0372752
-0.172708
0.0302317
-0.176614
0.0231359
-0.179444
0.0160628
-0.181196
0.0091074
-0.181876
0.00242618
-0.181508
-0.00388722
-0.180108
-0.0098026
-0.177717
-0.0153141
-0.174391
-0.0204382
-0.170188
-0.0251967
-0.165179
-0.0296093
-0.159415
-0.0337313
-0.152962
-0.0375945
-0.145851
-0.0412556
-0.138146
-0.0446929
-0.0478951
-0.0917978
0.0992383
-0.106631
0.0943034
-0.120297
0.088131
-0.132974
0.081771
-0.144543
0.0748617
-0.154969
0.0676361
-0.164102
0.0599082
-0.171977
0.0520159
-0.178607
0.0439051
-0.183984
0.0356079
-0.188168
0.02732
-0.191223
0.0191183
-0.193101
0.0109848
-0.193835
0.00316038
-0.193463
-0.00425886
-0.192007
-0.0112588
-0.189518
-0.0178027
-0.186048
-0.0239089
-0.181654
-0.0295902
-0.176415
-0.0348488
-0.170386
-0.0397602
-0.163643
-0.0443374
-0.156186
-0.0487123
-0.148054
-0.0528247
-0.0566582
-0.0979741
0.116276
-0.113559
0.109889
-0.12788
0.102452
-0.141311
0.0952017
-0.153588
0.087139
-0.164705
0.0787531
-0.174374
0.069577
-0.18273
0.0603718
-0.18981
0.050985
-0.195573
0.0413712
-0.200006
0.0317527
-0.203272
0.0223839
-0.205302
0.0130155
-0.206069
0.00392744
-0.205688
-0.00464077
-0.204173
-0.0127736
-0.201567
-0.020408
-0.197964
-0.0275124
-0.193357
-0.0341973
-0.187818
-0.0403871
-0.181497
-0.0460814
-0.174424
-0.0514106
-0.166577
-0.0565597
-0.15824
-0.0611613
-0.0655363
1.18721
3.62952
-0.142268
-3.48725
2.2511
-0.669996
-1.58111
0.261603
-0.360612
0.0990086
0.324403
-0.393083
0.0686795
-0.762733
-0.507
1.26973
-0.5231
0.79026
-0.267161
3.017
-3.93137
0.914377
-0.0388483
-0.185104
0.223953
5.3525
-3.64593
-1.70657
-0.910347
1.9971
-1.08676
-0.93116
0.289948
0.641213
1.3066
-2.14875
0.842158
-1.4628
0.473701
0.989095
0.107653
-0.107779
0.000126463
5.44947
-5.34
-0.109471
0.383758
1.86735
0.127489
-0.0238507
-0.103638
-0.17622
-0.18509
0.404248
0.271477
-0.675725
-0.33103
0.211472
0.119558
3.15433
2.25829
-5.41262
-0.851731
1.04303
-0.191296
1.39578
-1.18001
-0.215768
-1.0442
0.43358
0.610622
1.26467
0.13111
-1.22773
0.814885
0.412848
-0.528888
0.0641079
0.46478
5.5381
-2.9674
-2.57069
-0.030221
-0.135598
0.165819
0.0660638
0.580945
-0.647009
-1.91845
0.966979
0.951469
0.972209
0.739551
-1.71176
3.22817
-5.66359
2.43542
-0.28278
-0.0693077
0.352088
-0.126746
1.91028
-1.78354
-0.95413
-0.508666
-3.40533
1.80376
1.60158
-0.269256