/*--------------------------------*- C++ -*----------------------------------*\
  =========                 |
  \\      /  F ield         | OpenFOAM: The Open Source CFD Toolbox
   \\    /   O peration     | Website:  https://openfoam.org
    \\  /    A nd           | Version:  10
     \\/     M anipulation  |
\*---------------------------------------------------------------------------*/
FoamFile
{
    format      ascii;
    class       volVectorField;
    location    "1550";
    object      U;
}
// * * * * * * * * * * * * * * * * * * * * * * * * * * * * * * * * * * * * * //

dimensions      [0 1 -1 0 0 0 0];

internalField   nonuniform List<vector> 
10435
(
(2.48328 1.13793 5.8948e-22)
(3.14605 2.03275 -4.23616e-20)
(4.702 -0.419836 -3.34233e-20)
(3.82082 0.862166 8.72926e-20)
(4.12291 0.651586 -3.75545e-20)
(3.7044 -0.205914 2.56931e-19)
(4.81788 -0.385509 -1.19327e-19)
(4.7757 -0.377955 7.51428e-20)
(4.26618 -0.375165 2.55387e-19)
(4.04258 -0.429885 -7.30514e-20)
(3.50287 1.77759 -9.20635e-20)
(4.59464 0.0531063 1.88776e-19)
(3.91451 -0.445504 7.81011e-20)
(0.993555 0.820702 -1.46992e-20)
(1.14905 0.917428 -1.70567e-20)
(4.90534 -0.40997 -8.89748e-21)
(0.856982 0.716479 4.55837e-21)
(3.53287 -0.421284 2.60926e-19)
(3.92675 -0.370291 -1.0407e-19)
(2.73477 1.08644 -1.28968e-20)
(4.86608 -0.39331 5.38189e-20)
(3.67047 0.606303 -1.35858e-19)
(4.90283 -0.415807 3.64388e-19)
(4.21726 -0.395772 -1.18223e-19)
(4.38116 -0.395421 8.68409e-20)
(0.258723 0.429778 -4.72575e-22)
(0.0339513 0.184084 -1.02194e-21)
(4.36991 -0.413414 6.77268e-20)
(0.182815 0.0379785 1.52495e-22)
(3.74225 -0.431511 3.69876e-19)
(4.81432 -0.359174 1.55157e-19)
(3.65278 1.60236 -6.84302e-21)
(4.67509 -0.374202 -1.59262e-19)
(0.431155 0.0668864 2.18259e-21)
(4.70214 -0.41754 8.67792e-20)
(2.48824 2.09997 1.54614e-20)
(4.82417 -0.416713 1.26247e-19)
(0.146559 0.369005 2.84906e-21)
(0.401827 0.401492 -4.21005e-22)
(4.05302 -0.380522 3.21482e-20)
(3.5279 -0.426133 -3.88888e-19)
(4.82294 -0.399185 -9.63408e-20)
(0.670748 0.829194 -1.90459e-20)
(3.36156 1.15986 -1.24921e-19)
(4.90347 -0.399364 -2.67165e-19)
(4.15181 -0.398198 1.89249e-19)
(3.63091 -0.32062 -2.90926e-19)
(0.459336 0.639614 -5.46209e-20)
(4.1975 -0.3937 8.28498e-20)
(3.50052 0.330254 -4.69383e-20)
(4.79683 -0.396194 -1.17183e-20)
(4.46154 -0.181174 1.21408e-18)
(0.445425 0.424604 -1.25797e-21)
(0.270654 -0.0715564 2.28509e-22)
(0.357945 0.409205 1.92677e-22)
(0.132507 -0.00439295 -4.32105e-22)
(4.69801 -0.399471 -3.76982e-19)
(0.1466 0.303316 2.14791e-21)
(0.66284 0.396343 -2.58765e-21)
(4.50594 -0.401485 2.47511e-19)
(0.401132 0.436879 8.90542e-22)
(2.94125 2.10079 3.33025e-20)
(0.153358 0.208672 -1.59193e-21)
(4.46643 -0.0201294 -1.03126e-19)
(4.91317 -0.416777 -5.04646e-19)
(4.61128 -0.431574 2.49138e-19)
(0.586468 0.266612 5.58098e-21)
(0.322251 0.38097 7.43474e-21)
(4.85151 -0.37777 -9.69363e-20)
(4.17575 -0.359077 9.25121e-21)
(0.22102 -0.102439 -9.43131e-22)
(0.193421 0.427634 3.41887e-22)
(0.80633 0.959765 7.04611e-20)
(4.74376 -0.421044 -3.21827e-19)
(1.32775 1.01492 -7.34e-21)
(0.895957 1.08888 6.89935e-21)
(4.15821 -0.320065 5.02885e-19)
(4.85783 -0.370004 2.96478e-19)
(4.56865 -0.367308 2.24096e-20)
(1.35148 0.852082 4.28614e-20)
(3.84583 0.0110347 5.82397e-20)
(2.1581 0.937687 2.13318e-22)
(0.487702 0.448363 1.80267e-21)
(0.312182 -0.0469384 -1.82564e-22)
(3.9777 -0.118866 -1.12826e-19)
(2.20639 1.80609 5.89852e-20)
(2.41953 1.62539 2.84331e-21)
(3.45619 1.43727 2.62992e-20)
(1.64157 1.40572 -5.14416e-21)
(2.70261 1.64258 4.31094e-21)
(3.68191 1.30294 -2.12412e-20)
(3.90872 1.13586 -2.24791e-20)
(2.38745 0.900741 3.81349e-21)
(1.86744 1.49359 2.65081e-20)
(2.96835 1.61268 1.17167e-20)
(2.22845 2.01772 3.09048e-20)
(4.10656 0.915801 2.83123e-19)
(1.32062 1.15977 1.12611e-20)
(0.77677 0.512115 -5.3207e-21)
(4.28026 0.771685 -2.5489e-19)
(1.46754 1.27641 2.25811e-20)
(3.70777 0.558561 -1.4865e-19)
(2.13183 1.57093 -1.56752e-20)
(3.21817 1.54103 -1.03604e-20)
(3.71631 0.326215 -8.46971e-21)
(3.59935 1.0273 3.48349e-21)
(2.61989 0.828027 3.73004e-21)
(3.68827 0.158125 6.55538e-20)
(4.08481 -0.205295 -1.44505e-19)
(1.52865 0.901192 -1.20106e-20)
(3.29901 0.47585 -1.7954e-20)
(3.69919 0.799961 -7.69821e-20)
(1.93467 0.942753 -1.46228e-20)
(1.72504 0.93208 -1.04972e-20)
(4.10592 0.996479 -1.50717e-19)
(3.45508 0.762858 3.74179e-20)
(4.41595 0.544813 -1.38571e-19)
(2.48972 1.87633 -1.07108e-20)
(3.45487 1.6919 -1.40012e-19)
(4.40791 0.446773 -3.78412e-20)
(4.53309 0.350973 -4.28503e-19)
(0.969859 1.20301 7.2416e-21)
(2.75671 1.89831 1.68e-20)
(1.62214 1.80307 -1.16197e-19)
(3.4987 1.58134 2.44925e-20)
(0.336436 0.439907 4.08453e-22)
(4.27026 0.661745 2.61918e-19)
(1.14001 1.38077 -1.63549e-20)
(4.3406 0.588088 -2.6644e-19)
(0.0776604 0.364486 -1.85887e-22)
(1.35601 1.58518 4.00508e-20)
(3.39194 1.7844 -1.5692e-19)
(4.8608 -0.406665 -1.36429e-19)
(1.1878 0.786537 3.08499e-20)
(0.162406 0.401941 6.95169e-23)
(0.636119 0.553845 2.08003e-22)
(2.17729 2.17488 5.99236e-20)
(4.01421 0.660129 -1.60036e-20)
(3.23684 1.79969 3.77697e-20)
(3.221 0.893399 3.1097e-20)
(2.97984 1.00384 3.56308e-21)
(4.88892 -0.385283 -5.56142e-19)
(0.511197 0.175129 1.61864e-20)
(4.72969 -0.0793238 1.21361e-18)
(3.86498 0.430516 2.15794e-20)
(1.16613 1.22488 6.89076e-20)
(1.91532 2.02734 -2.29319e-20)
(4.21327 -0.0715825 -3.53302e-19)
(0.83576 0.840529 2.55993e-20)
(4.78625 -0.116624 7.47839e-20)
(0.402015 0.589859 3.47591e-22)
(4.86144 -0.374097 2.3637e-19)
(2.59789 1.37983 1.60749e-21)
(4.82061 -0.181242 5.20911e-19)
(4.23045 -0.264839 -3.11785e-19)
(0.343497 0.519982 1.37185e-21)
(3.57869 1.32962 2.28441e-19)
(3.00474 1.87028 2.61912e-21)
(4.08274 -0.343372 -2.59533e-19)
(3.12835 2.12396 -2.09772e-20)
(4.87982 -0.304237 -9.65336e-20)
(1.04427 0.707582 -6.13026e-21)
(3.86301 1.35535 1.7854e-19)
(4.33457 -0.00197794 1.31652e-19)
(1.52296 1.08062 2.26271e-20)
(4.52077 0.341837 9.602e-19)
(4.59901 -0.389469 -2.4436e-19)
(4.33084 0.278461 -1.23113e-19)
(4.51533 -0.246562 1.84762e-19)
(4.6124 0.0777679 -1.69263e-18)
(4.44441 -0.350915 3.00349e-19)
(0.727703 0.83015 -2.07831e-20)
(0.0111527 0.105019 3.13277e-22)
(1.31976 1.30541 -1.28084e-21)
(4.75358 -0.200993 -2.78557e-19)
(2.96789 2.2309 -2.17595e-20)
(2.72449 2.12458 -7.83892e-21)
(0.5676 0.630432 8.03187e-21)
(3.08168 0.608963 1.12469e-20)
(0.239624 0.0860633 -2.77669e-22)
(3.33505 1.92204 5.53034e-20)
(3.75157 -0.0600674 -4.3903e-20)
(4.71617 -0.0194131 -6.57153e-19)
(0.385233 0.457317 3.42865e-22)
(4.90178 -0.355979 7.86478e-20)
(0.604898 0.774092 2.72326e-20)
(0.831735 1.02191 -6.58765e-20)
(4.88639 -0.374094 -2.32996e-19)
(4.11875 0.46357 9.68182e-20)
(4.66281 -0.141469 -8.11287e-19)
(4.6052 0.201536 9.91423e-20)
(0.526184 0.474602 1.84484e-21)
(0.109771 0.39274 4.96537e-22)
(2.40548 2.26849 -2.98799e-20)
(3.64608 1.06743 1.10701e-19)
(4.88967 -0.371141 1.40053e-20)
(0.834535 0.957692 6.88559e-20)
(1.92276 1.69744 -2.42951e-20)
(0.513915 0.655768 5.69527e-20)
(4.88508 -0.41635 1.94571e-19)
(1.57542 1.24081 -2.71584e-20)
(0.215839 0.427392 3.84713e-21)
(4.17316 -0.424314 -1.93022e-20)
(0.19657 0.382553 3.85975e-21)
(4.45281 -0.424452 -7.4554e-20)
(4.05918 1.05386 -1.93351e-21)
(3.65268 1.54998 1.61714e-19)
(4.18468 0.458356 -8.37002e-20)
(0.218375 0.193665 -1.88101e-21)
(4.03679 0.258467 -6.28046e-20)
(0.475379 0.623125 -8.8796e-21)
(4.85347 -0.406181 -4.70158e-19)
(4.66806 0.120355 9.67603e-19)
(4.495 -0.0771344 7.15634e-20)
(0.0612375 0.167118 7.48027e-22)
(0.979991 0.955689 -7.13649e-20)
(1.74835 1.11106 6.99773e-21)
(0.496382 0.540129 -1.38252e-21)
(0.24561 0.411769 2.42001e-22)
(0.913522 0.614534 5.79906e-21)
(0.286941 0.0485428 -2.13836e-22)
(0.6241 0.582282 1.62332e-20)
(0.419976 0.216799 -9.07161e-21)
(1.41128 1.49167 -1.28491e-19)
(0.283669 0.468287 1.51228e-22)
(4.80574 -0.414187 -6.18435e-20)
(0.306741 0.40414 -6.31642e-22)
(1.65713 1.5616 1.41815e-20)
(4.71963 -0.279929 8.89609e-19)
(1.05979 1.25277 -6.84358e-20)
(0.471105 0.479483 -5.37354e-20)
(4.70916 -0.400145 2.71936e-19)
(0.278967 0.409642 -7.65745e-22)
(4.79659 -0.347833 2.81055e-19)
(0.0551765 0.299083 2.11914e-21)
(0.725764 0.618192 -2.84559e-20)
(4.5728 -0.391481 -3.47664e-19)
(0.248307 0.445086 -4.91811e-22)
(4.50996 -0.359641 -2.22894e-20)
(4.68027 -0.363043 5.1531e-21)
(3.11693 1.26493 3.8304e-20)
(0.33936 0.476681 1.33662e-22)
(0.533248 0.589744 2.31577e-22)
(0.181706 -0.0287564 -7.46673e-23)
(3.96136 1.24153 -3.17939e-19)
(4.46479 -0.378738 8.61145e-20)
(1.94416 1.87911 -1.0803e-19)
(4.88206 -0.350157 7.90146e-20)
(0.0397702 -0.000534008 -1.39994e-22)
(2.78965 2.28738 1.49343e-20)
(0.100905 -0.0596182 -6.10448e-22)
(1.8061 1.29155 -2.21229e-20)
(3.91852 -0.434113 -1.35772e-19)
(4.19021 0.10474 -1.1849e-19)
(4.88251 -0.343578 -1.99464e-19)
(4.39079 0.253352 4.04571e-19)
(0.0538274 -0.0318372 7.11693e-22)
(4.86804 -0.345636 2.8273e-19)
(0.430454 0.56337 6.78081e-22)
(0.306585 0.490674 -1.44689e-20)
(4.83598 -0.354893 1.43066e-20)
(4.53783 -0.312097 1.83649e-21)
(0.303922 0.451704 1.24685e-22)
(4.27338 -0.235439 -2.79483e-19)
(1.97782 1.13966 5.27178e-21)
(0.566409 0.447382 3.07429e-20)
(2.86283 1.34016 6.21512e-21)
(4.85467 -0.409905 2.95112e-19)
(0.471373 0.486251 -4.61144e-22)
(4.19499 0.845337 5.2744e-20)
(4.79365 -0.369953 -7.71704e-23)
(4.80603 -0.337236 -4.14084e-20)
(4.87589 -0.33523 -2.94755e-20)
(4.44357 -0.421282 -3.16136e-19)
(0.208226 0.417953 -3.10378e-23)
(4.51144 0.286872 -1.80798e-19)
(0.115068 0.362966 -1.90876e-21)
(3.97867 0.942599 4.01266e-20)
(4.90249 -0.398623 7.7238e-20)
(4.72927 -0.34397 1.65651e-20)
(4.11793 -0.447201 1.58946e-19)
(0.687095 0.797004 -8.9927e-20)
(4.7161 -0.379278 -8.50981e-21)
(1.47549 1.4245 -1.03881e-20)
(2.04971 1.34399 -1.01952e-20)
(0.553813 0.540672 -7.01896e-22)
(4.16878 0.244375 6.22308e-20)
(0.33975 0.390605 -4.34317e-22)
(0.357592 -0.0221661 -9.81848e-22)
(0.353717 0.0679989 5.35388e-22)
(1.6405 1.68915 1.28408e-19)
(3.27032 1.97522 1.68566e-19)
(0.285372 0.156606 9.82709e-22)
(4.84708 -0.329844 7.94542e-20)
(0.385568 0.373424 -8.65912e-23)
(0.176118 -0.104273 -1.05063e-21)
(1.00348 1.10351 -1.98372e-21)
(2.22752 1.15312 2.74352e-21)
(3.8695 1.19817 -6.23182e-21)
(4.6922 -0.408247 1.92845e-19)
(0.405523 0.508245 8.21097e-20)
(4.46663 -0.330852 -9.52328e-20)
(4.61087 -0.381744 -2.9334e-21)
(0.0223786 0.0316513 -2.10985e-22)
(3.76605 1.42303 -8.44415e-20)
(1.13761 1.06513 4.05637e-20)
(0.707695 0.723864 3.38164e-20)
(4.71868 -0.324566 -2.04209e-20)
(4.65928 -0.415691 -2.59924e-21)
(0.401701 -0.00379844 3.64329e-22)
(2.84998 0.731378 8.8988e-21)
(0.227787 0.445267 2.24739e-21)
(2.60635 2.30122 2.78545e-22)
(4.16059 0.0899313 -1.853e-19)
(4.43195 -0.386744 -4.33522e-20)
(0.139651 -0.083324 -2.06238e-22)
(0.405942 0.487055 -7.13795e-22)
(4.81621 -0.239912 -1.00146e-18)
(0.395104 0.355517 7.47826e-22)
(4.46138 0.146643 1.47091e-19)
(3.69091 0.118139 -6.82677e-20)
(0.131199 0.139735 1.08188e-21)
(2.32173 1.37826 -2.0257e-21)
(0.565114 0.503102 9.78227e-22)
(4.62779 -0.343799 -9.69312e-21)
(4.24413 -0.430394 -6.98939e-20)
(0.179106 0.421452 1.272e-22)
(4.49577 -0.388206 -3.84592e-22)
(0.481901 0.322521 -7.17755e-22)
(0.0965409 0.299206 -2.47929e-21)
(4.36416 -0.394504 1.98583e-21)
(0.439057 0.118964 -1.17245e-21)
(0.440564 0.0114501 5.31333e-22)
(4.71747 -0.398999 1.05694e-20)
(4.82997 -0.256444 2.4447e-19)
(0.204122 0.29237 -5.98677e-21)
(0.133742 -0.0651388 -2.80265e-22)
(0.0519502 -0.0183931 -1.8325e-22)
(0.490909 0.0519374 3.45637e-22)
(0.0364789 0.0774992 7.41298e-23)
(0.154865 0.414931 -2.91127e-22)
(0.25549 0.466275 1.58026e-21)
(0.43973 0.457083 -1.33595e-22)
(0.011471 0.10828 1.58459e-22)
(0.0144202 0.0681095 -4.19804e-22)
(0.320233 0.516254 -1.91139e-21)
(0.263907 0.277318 1.755e-21)
(0.0069013 0.259272 8.33958e-23)
(0.599076 0.528166 -1.48455e-21)
(4.51423 -0.368566 -5.61012e-20)
(0.470551 0.0287207 1.24688e-21)
(4.4048 -0.439076 8.28601e-21)
(0.0150382 0.153101 -1.09165e-22)
(4.35322 -0.400294 -1.58184e-21)
(4.54185 -0.354669 2.5203e-20)
(4.13083 -0.378892 -2.1262e-20)
(3.84745 -0.462135 -3.83884e-21)
(4.81911 -0.425052 -2.06857e-19)
(0.226371 -0.0500926 6.22822e-22)
(0.375343 0.0225625 -2.07188e-21)
(0.0910989 -0.0389528 -1.74586e-22)
(0.292838 0.42302 1.34056e-21)
(0.0617607 0.0484232 -9.37984e-24)
(0.514609 0.51339 7.30242e-22)
(0.0839878 0.131822 -4.15097e-22)
(0.131422 0.402684 -1.66567e-22)
(0.261005 0.39198 -1.81064e-20)
(4.64687 -0.140774 -2.07012e-20)
(0.138824 0.409469 -1.1823e-21)
(4.3855 -0.37844 6.2902e-20)
(0.320262 0.414128 -3.97136e-22)
(0.107717 0.384638 2.44453e-22)
(3.66788 -0.506635 -3.27455e-20)
(3.93767 -0.400481 -6.74585e-20)
(0.58882 0.579212 6.56095e-21)
(0.00926647 0.2015 -5.50248e-22)
(0.105746 0.220509 3.50102e-22)
(0.0215863 0.228938 7.67826e-23)
(0.32241 0.00496894 5.6505e-22)
(0.218393 0.429933 -1.82407e-22)
(0.00328989 0.246162 7.83038e-22)
(0.362717 0.424361 -3.4709e-22)
(4.66296 -0.358326 -1.64013e-20)
(0.331976 0.249063 -3.15599e-21)
(4.84015 -0.352619 9.191e-21)
(4.42309 -0.358599 8.71839e-20)
(4.18479 -0.415194 -6.81588e-22)
(4.00583 -0.439024 6.58508e-20)
(4.29803 -0.366099 -3.9026e-20)
(4.50307 -0.39715 -2.25486e-20)
(4.57528 -0.40239 -5.57257e-20)
(1.25096 1.42487 3.64751e-21)
(0.590947 0.714214 -1.1671e-20)
(0.228015 0.00566897 7.03909e-22)
(0.173544 -0.0794245 -6.0821e-22)
(4.61142 -0.393817 3.20948e-20)
(0.270291 -0.0236306 -1.76276e-21)
(3.69395 -0.465197 -1.56707e-19)
(0.00828623 0.270008 8.75878e-24)
(0.180291 0.117497 -1.77488e-22)
(0.0798735 0.356305 -1.28083e-22)
(0.360656 0.139527 -8.39743e-22)
(0.428845 0.524812 1.52794e-21)
(4.88022 -0.395088 4.20507e-19)
(0.069694 0.235258 -1.05429e-23)
(4.76602 -0.35461 3.88172e-21)
(4.63685 -0.297388 -1.10601e-19)
(0.576472 0.648344 -9.32571e-22)
(0.185189 0.423675 1.42422e-22)
(0.0438288 0.300548 1.83981e-22)
(3.92863 -0.388101 8.73825e-20)
(0.0640242 0.332023 -1.53001e-22)
(0.160498 0.416699 1.044e-22)
(0.352532 0.500187 -1.7491e-21)
(0.0961572 0.0235478 7.93645e-23)
(0.343015 0.504262 6.93866e-21)
(0.106634 0.0911269 7.99843e-23)
(4.57177 -0.409266 1.79292e-19)
(0.162694 -0.106578 -4.62164e-24)
(0.206612 0.429183 4.0816e-22)
(0.14074 0.0703969 -2.87415e-22)
(0.529979 0.109817 -8.04294e-21)
(3.44304 -0.431051 -1.22288e-19)
(0.681797 0.677692 9.63936e-21)
(0.653316 0.590902 -1.88227e-20)
(3.67412 -0.380988 -1.30921e-19)
(0.42438 0.0333034 -5.77459e-22)
(0.424074 -0.373378 1.27324e-21)
(0.446513 -0.359721 -5.00112e-24)
(0.498563 -0.363235 -8.66151e-22)
(0.535802 -0.366312 4.50017e-22)
(0.575716 -0.369732 -5.2722e-22)
(0.608079 -0.371992 -1.65962e-21)
(0.639354 -0.373846 4.01235e-22)
(0.665839 -0.375448 5.11925e-22)
(0.691038 -0.375637 5.4788e-22)
(0.45725 -0.360036 -8.8688e-22)
(0.479471 -0.35249 -9.47033e-23)
(0.52874 -0.354926 7.49808e-22)
(0.565876 -0.358927 -1.51254e-21)
(0.603557 -0.36236 1.30489e-21)
(0.635191 -0.365289 2.30508e-21)
(0.664626 -0.367496 -1.45832e-21)
(0.689894 -0.369224 1.61095e-21)
(0.712065 -0.369824 -7.66529e-22)
(0.491883 -0.343188 2.50128e-21)
(0.510967 -0.339101 7.44086e-22)
(0.557921 -0.3419 -1.7038e-21)
(0.59429 -0.346992 8.77334e-22)
(0.630216 -0.350914 -2.33371e-21)
(0.660831 -0.354486 -3.83756e-22)
(0.688688 -0.357227 -1.93826e-23)
(0.712552 -0.35938 -7.8676e-22)
(0.733203 -0.360624 -1.38849e-21)
(0.523552 -0.324573 -1.27093e-21)
(0.540043 -0.321724 7.85017e-22)
(0.585245 -0.325157 1.40423e-21)
(0.620886 -0.331174 6.12609e-23)
(0.655336 -0.335721 1.05248e-21)
(0.68495 -0.339915 3.30482e-21)
(0.711477 -0.343167 -2.02169e-21)
(0.734197 -0.345717 3.45578e-22)
(0.75389 -0.347309 8.34638e-22)
(0.552419 -0.303534 1.09328e-22)
(0.566708 -0.300998 -3.23737e-22)
(0.610252 -0.305165 1.18799e-22)
(0.645271 -0.311764 -7.65219e-22)
(0.678557 -0.316936 3.44481e-22)
(0.707337 -0.321667 -7.48624e-22)
(0.732878 -0.325387 3.71764e-22)
(0.754833 -0.328309 1.49759e-21)
(0.774094 -0.330006 3.5712e-22)
(0.578182 -0.279919 2.25473e-22)
(0.590693 -0.277258 -1.8277e-21)
(0.632671 -0.282291 1.49047e-22)
(0.66725 -0.289064 1.84664e-21)
(0.699656 -0.294731 -6.09116e-22)
(0.727815 -0.299863 -8.92049e-22)
(0.752681 -0.303989 -2.92237e-22)
(0.774181 -0.307271 -2.67728e-21)
(0.7931 -0.309486 1.49952e-21)
(0.599499 -0.255056 2.13813e-22)
(0.611801 -0.251114 1.36252e-21)
(0.652433 -0.256912 2.55056e-22)
(0.68678 -0.263308 -9.31009e-22)
(0.718536 -0.269225 2.01442e-22)
(0.746279 -0.274547 -4.21808e-22)
(0.770745 -0.278929 7.3442e-22)
(0.792028 -0.282438 -7.0434e-22)
(0.81085 -0.28494 -4.73844e-22)
(0.615266 -0.228749 -6.41877e-22)
(0.63057 -0.222673 1.2631e-21)
(0.669894 -0.228934 -2.79106e-22)
(0.703979 -0.234493 5.62006e-22)
(0.735175 -0.24041 -4.39426e-22)
(0.76266 -0.24571 1.32404e-21)
(0.786971 -0.25017 1.83276e-21)
(0.808283 -0.253813 -2.46738e-21)
(0.827362 -0.256007 7.3825e-22)
(0.6266 -0.197586 -1.38878e-22)
(0.64765 -0.190661 2.62262e-22)
(0.685294 -0.197442 1.6089e-22)
(0.718827 -0.202299 -6.29848e-22)
(0.749477 -0.208152 -1.7966e-22)
(0.776845 -0.213274 -5.57778e-22)
(0.801214 -0.217614 -3.10713e-22)
(0.82281 -0.221077 2.55732e-21)
(0.842127 -0.223498 -2.82513e-22)
(0.635635 -0.159838 2.93756e-22)
(0.662427 -0.154045 -1.02866e-21)
(0.697947 -0.161802 -5.54509e-22)
(0.730844 -0.166595 1.6902e-22)
(0.761152 -0.172452 -2.06813e-22)
(0.788643 -0.177261 8.95492e-22)
(0.813337 -0.181212 1.31211e-22)
(0.835421 -0.184169 1.74544e-21)
(0.855264 -0.185899 -8.47096e-23)
(0.643687 -0.117682 -2.77111e-22)
(0.67337 -0.114112 -6.8339e-23)
(0.706644 -0.122995 3.73531e-22)
(0.739364 -0.128056 6.36143e-22)
(0.769839 -0.133751 -1.93549e-22)
(0.797847 -0.13799 -2.1036e-22)
(0.823225 -0.141219 -5.61246e-22)
(0.846161 -0.143277 -2.0426e-21)
(0.866858 -0.144107 -3.12439e-22)
(0.650492 -0.0751274 5.21114e-22)
(0.679149 -0.0742688 9.61021e-22)
(0.71094 -0.0832745 -7.38029e-22)
(0.744204 -0.0880239 4.04904e-22)
(0.775425 -0.092877 -7.424e-23)
(0.804318 -0.0960529 1.26542e-21)
(0.830636 -0.0981521 1.23135e-22)
(0.854561 -0.0989939 -1.02875e-21)
(0.87636 -0.0994757 -7.42136e-22)
(0.653358 -0.035567 1.31685e-22)
(0.679807 -0.0367132 -2.02332e-22)
(0.711684 -0.0441881 3.95039e-23)
(0.745928 -0.0475109 2.63542e-22)
(0.778194 -0.0505438 -1.78012e-22)
(0.808141 -0.0519781 -2.30855e-22)
(0.835498 -0.0523537 -4.25974e-22)
(0.860422 -0.0516483 7.89805e-22)
(0.883449 -0.0500891 -4.64919e-22)
(0.650284 0.00124158 -1.85937e-22)
(0.677102 -0.000554732 -1.17313e-23)
(0.709989 -0.00556007 -1.45063e-22)
(0.745249 -0.00660498 4.14569e-22)
(0.778532 -0.00706312 -7.57499e-23)
(0.809486 -0.00621041 -4.41599e-23)
(0.837847 -0.00442129 -2.96462e-22)
(0.863772 -0.00176352 3.63926e-23)
(0.887531 0.00209808 2.72589e-22)
(0.641725 0.0375378 6.06117e-22)
(0.671518 0.0356856 -8.16612e-23)
(0.7062 0.0336071 8.06215e-22)
(0.742443 0.0351764 -1.17349e-21)
(0.776565 0.03761 1.32263e-22)
(0.808362 0.0410125 4.26143e-22)
(0.837612 0.0451986 2.99985e-22)
(0.864504 0.0501503 4.29668e-22)
(0.889256 0.0560866 -1.50556e-21)
(0.626985 0.0758135 2.30462e-22)
(0.662794 0.0736678 -3.49031e-22)
(0.700034 0.0745352 -1.14771e-21)
(0.737236 0.078469 1.54093e-21)
(0.772043 0.0836093 5.25873e-22)
(0.80453 0.0894697 -2.77857e-22)
(0.834535 0.0960026 -3.44175e-23)
(0.8622 0.103214 1.14619e-21)
(0.887485 0.11088 -4.93485e-22)
(0.608391 0.117007 1.17773e-21)
(0.649283 0.114736 -9.3531e-22)
(0.690272 0.117923 1.10486e-21)
(0.728743 0.123552 -7.48398e-22)
(0.764319 0.13085 -7.99247e-22)
(0.797489 0.138854 3.18574e-21)
(0.828201 0.147547 -2.1024e-21)
(0.856579 0.156958 -8.4689e-22)
(0.88295 0.166208 2.05817e-22)
(0.589182 0.158534 -1.53261e-21)
(0.631241 0.157103 1.29116e-21)
(0.675844 0.162609 -5.97745e-22)
(0.716038 0.169604 9.35924e-22)
(0.752714 0.178664 2.14212e-22)
(0.786765 0.188573 -2.54289e-21)
(0.818293 0.199329 2.32198e-22)
(0.8474 0.210881 -1.20528e-21)
(0.874453 0.22268 -1.53081e-21)
(0.569822 0.197749 -2.97774e-22)
(0.609947 0.197871 -2.92505e-22)
(0.656951 0.206344 -6.55513e-22)
(0.698915 0.215053 -2.68062e-21)
(0.736931 0.225873 6.61448e-22)
(0.772091 0.237614 1.11936e-21)
(0.804636 0.250307 1.28649e-21)
(0.834731 0.263763 1.59821e-21)
(0.86264 0.277827 -7.29664e-22)
(0.549453 0.234245 2.48906e-22)
(0.586386 0.235879 8.09157e-23)
(0.634507 0.247617 2.25103e-21)
(0.677775 0.258568 -1.90775e-22)
(0.717071 0.271374 1.10684e-21)
(0.753377 0.285058 -7.52597e-22)
(0.786981 0.299714 -5.27982e-21)
(0.818069 0.315115 -8.10341e-22)
(0.847001 0.331023 -1.03881e-22)
(0.527377 0.26853 5.7088e-22)
(0.560732 0.271073 -2.95645e-21)
(0.609207 0.285758 1.81867e-21)
(0.653156 0.299314 -2.18624e-21)
(0.693478 0.314332 1.65453e-21)
(0.73083 0.330149 -3.70942e-22)
(0.765482 0.346914 1.52544e-21)
(0.797608 0.36439 1.36208e-21)
(0.827175 0.383001 -4.54872e-22)
(0.503771 0.299922 1.24799e-21)
(0.532905 0.303145 2.76666e-21)
(0.581507 0.320246 -4.90259e-21)
(0.625519 0.336714 6.12665e-22)
(0.666498 0.354096 -4.46812e-21)
(0.704672 0.372181 1.29402e-21)
(0.740323 0.391096 5.01479e-22)
(0.773802 0.410603 -7.25427e-22)
(0.804113 0.432547 -3.59518e-22)
(0.478931 0.325899 -9.9041e-22)
(0.503417 0.331733 -2.3257e-21)
(0.552152 0.350962 2.64559e-21)
(0.595559 0.3707 2.7971e-21)
(0.636693 0.390523 3.06572e-21)
(0.675282 0.410922 -2.15588e-22)
(0.711643 0.431904 -1.00151e-21)
(0.746356 0.453538 2.94454e-21)
(0.777713 0.478136 -7.71443e-21)
(0.452185 0.345598 2.22365e-22)
(0.472369 0.356448 1.29009e-21)
(0.52053 0.377467 -7.49743e-22)
(0.562526 0.400464 1.4097e-21)
(0.603217 0.422645 -2.75172e-21)
(0.641819 0.445466 -7.74634e-22)
(0.678623 0.468507 4.18655e-21)
(0.714948 0.492414 -4.32491e-21)
(0.748346 0.522147 4.95268e-21)
(0.423353 0.361186 3.58594e-22)
(0.442519 0.381381 1.8937e-22)
(0.490206 0.405481 8.21927e-22)
(0.530827 0.430403 -1.62142e-21)
(0.570617 0.454152 4.32141e-22)
(0.608119 0.478412 -2.28262e-21)
(0.644292 0.502359 1.58468e-21)
(0.682938 0.526494 -1.40464e-21)
(0.7187 0.558166 -1.26423e-22)
(0.331118 0.289777 -2.88875e-22)
(0.324185 0.287693 -3.54133e-22)
(0.316875 0.285037 -1.12108e-21)
(0.308792 0.281962 1.58664e-21)
(0.299926 0.278427 -1.20255e-21)
(0.290256 0.27439 9.1444e-22)
(0.279777 0.26979 3.5769e-22)
(0.2685 0.264563 -9.82398e-23)
(0.256455 0.258638 -6.69764e-22)
(0.243693 0.251942 -2.82001e-22)
(0.230294 0.244397 3.12764e-22)
(0.216357 0.235925 -3.46266e-22)
(0.202003 0.226452 9.55215e-22)
(0.187372 0.215907 -2.41533e-21)
(0.172609 0.204223 4.19867e-21)
(0.157869 0.191355 -4.74892e-21)
(0.14331 0.177275 4.23181e-21)
(0.129076 0.161982 -1.91606e-21)
(0.115302 0.145519 -6.2648e-22)
(0.102095 0.127984 6.5755e-22)
(0.0895121 0.109537 -2.26943e-22)
(0.0774842 0.0903801 4.96284e-22)
(0.0658612 0.0709371 3.05563e-23)
(0.0544808 0.0516086 -6.91656e-22)
(0.0439509 0.0324816 5.44541e-22)
(0.0364005 0.0131163 -2.90261e-22)
(0.0332795 -0.00702307 3.82166e-22)
(0.0345669 -0.02811 3.01331e-22)
(0.0395832 -0.0503635 -3.66707e-22)
(0.0457538 -0.0738588 9.78312e-24)
(0.0518611 -0.0980956 -3.25594e-22)
(0.0587415 -0.12237 2.98033e-22)
(0.0668979 -0.146451 5.65425e-22)
(0.0764336 -0.170056 -4.64738e-22)
(0.0872986 -0.192798 6.65206e-22)
(0.0994108 -0.214465 -1.10188e-21)
(0.112617 -0.234853 9.02633e-23)
(0.126739 -0.253807 2.37275e-22)
(0.141599 -0.27122 -3.62221e-22)
(0.157022 -0.287022 8.10596e-22)
(0.172857 -0.301193 -4.60299e-22)
(0.188969 -0.313751 -1.95558e-21)
(0.205231 -0.324737 4.00151e-21)
(0.221531 -0.334226 -4.25376e-21)
(0.237768 -0.342326 3.67417e-21)
(0.25383 -0.349151 -2.15685e-21)
(0.269603 -0.354827 1.09914e-21)
(0.284975 -0.359496 -3.84781e-22)
(0.299825 -0.363289 3.4542e-22)
(0.314036 -0.36633 -3.80166e-22)
(0.327507 -0.36874 -5.14984e-22)
(0.340164 -0.370613 -1.36778e-22)
(0.351998 -0.372032 2.88422e-22)
(0.362997 -0.373078 6.79365e-22)
(0.37314 -0.373822 -1.02004e-21)
(0.382431 -0.374325 1.31431e-21)
(0.390894 -0.374629 -8.92474e-22)
(0.398568 -0.374752 -3.06579e-22)
(0.405561 -0.374769 -2.15256e-22)
(0.347574 0.258018 -1.40724e-23)
(0.341319 0.255934 1.96326e-23)
(0.334585 0.253746 -7.13377e-23)
(0.327261 0.251363 1.63607e-22)
(0.319317 0.24879 9.57581e-24)
(0.310749 0.24594 -3.92609e-22)
(0.30156 0.242718 7.01644e-23)
(0.291738 0.239066 -5.96569e-24)
(0.281268 0.234905 2.71755e-22)
(0.270158 0.230147 -5.73237e-23)
(0.258435 0.224696 -5.54757e-23)
(0.246145 0.21845 -1.64774e-22)
(0.23336 0.211305 3.23635e-22)
(0.220168 0.203164 -2.94575e-22)
(0.206684 0.193938 3.07503e-22)
(0.19303 0.183556 -6.07955e-23)
(0.179339 0.171967 -1.80015e-22)
(0.165747 0.159144 2.21041e-22)
(0.152383 0.145086 1.40215e-22)
(0.139362 0.129811 2.68997e-23)
(0.126785 0.11335 6.72916e-24)
(0.114753 0.0957092 -3.59013e-22)
(0.103469 0.0768304 2.9337e-22)
(0.0933422 0.0564811 -1.00184e-22)
(0.0849313 0.0344188 3.92586e-22)
(0.0789114 0.0107402 -1.64795e-22)
(0.0754697 -0.0140563 -2.01573e-23)
(0.0747719 -0.0392782 8.26144e-23)
(0.0768998 -0.0642499 1.13559e-23)
(0.0813256 -0.0886043 -5.11242e-24)
(0.0872494 -0.112451 -6.68603e-23)
(0.0945168 -0.135892 2.99593e-23)
(0.103207 -0.158782 -3.06582e-23)
(0.113222 -0.180953 -7.66818e-23)
(0.124437 -0.202218 -1.88532e-23)
(0.136743 -0.222413 4.39499e-23)
(0.150007 -0.241394 1.3906e-22)
(0.164078 -0.259046 -2.76738e-22)
(0.178804 -0.275287 2.75681e-24)
(0.194032 -0.290065 -5.56931e-23)
(0.209615 -0.303348 4.20688e-23)
(0.225414 -0.315132 2.10017e-22)
(0.241294 -0.325429 -4.50809e-22)
(0.257122 -0.334275 -2.7514e-22)
(0.272763 -0.341728 5.3427e-22)
(0.288088 -0.347867 -4.63949e-22)
(0.302971 -0.352793 3.228e-22)
(0.317294 -0.35663 -5.28433e-23)
(0.330958 -0.359515 -1.54856e-22)
(0.343886 -0.361601 1.86405e-23)
(0.356011 -0.36302 3.13552e-22)
(0.367398 -0.363863 -7.58391e-23)
(0.378116 -0.364203 9.70145e-23)
(0.388114 -0.36416 -4.36168e-22)
(0.397362 -0.363874 6.49173e-23)
(0.405912 -0.363422 1.69472e-22)
(0.413829 -0.362834 -1.2186e-22)
(0.421192 -0.36213 3.42397e-23)
(0.428038 -0.361448 -2.14928e-23)
(0.403312 0.246115 -3.67546e-22)
(0.396964 0.24411 7.224e-23)
(0.390158 0.2419 -3.19697e-22)
(0.382877 0.239462 -7.79872e-23)
(0.375097 0.236744 1.10623e-21)
(0.366795 0.233688 -3.46233e-22)
(0.357954 0.230253 -6.73339e-22)
(0.348554 0.226388 -6.62863e-24)
(0.338584 0.222034 4.04483e-22)
(0.328045 0.217122 -1.04735e-22)
(0.316953 0.211575 1.10026e-21)
(0.305338 0.20531 -1.29874e-21)
(0.29325 0.198241 1.17403e-21)
(0.280757 0.190279 -1.57941e-22)
(0.267948 0.181341 -1.02802e-21)
(0.254925 0.171352 3.08571e-22)
(0.241804 0.160245 1.2146e-21)
(0.22871 0.147968 -4.91412e-22)
(0.215777 0.134478 -1.14166e-22)
(0.203141 0.119739 2.16351e-23)
(0.190954 0.103714 -3.30353e-22)
(0.179392 0.086356 8.37584e-23)
(0.168691 0.0676059 -8.15108e-22)
(0.159172 0.047425 9.78501e-22)
(0.151266 0.0258436 -3.79466e-22)
(0.145486 0.00303943 2.6294e-24)
(0.142222 -0.0206645 5.25614e-23)
(0.141612 -0.0448785 -2.43983e-22)
(0.143546 -0.0691571 1.51004e-22)
(0.147638 -0.0931063 8.13621e-23)
(0.153464 -0.116543 1.88223e-22)
(0.160775 -0.139397 -1.90891e-22)
(0.169433 -0.16156 8.6877e-23)
(0.179315 -0.182906 1.2396e-22)
(0.190301 -0.203313 -3.97291e-22)
(0.20227 -0.222671 1.11951e-21)
(0.215098 -0.240874 -7.276e-22)
(0.22865 -0.257838 -1.67696e-22)
(0.24279 -0.273497 -1.74109e-22)
(0.257379 -0.287805 -5.7954e-23)
(0.27228 -0.300738 -2.85568e-22)
(0.287357 -0.312292 -4.71905e-22)
(0.302476 -0.322485 1.16549e-21)
(0.317504 -0.331354 5.3891e-22)
(0.332315 -0.338956 -1.10831e-21)
(0.346789 -0.345368 -3.50258e-22)
(0.360818 -0.350683 1.1345e-21)
(0.374314 -0.355005 -1.30944e-21)
(0.387206 -0.358448 9.18706e-22)
(0.399451 -0.361126 -3.7751e-23)
(0.41103 -0.363149 3.58216e-22)
(0.421937 -0.364614 5.98658e-23)
(0.432138 -0.365616 -6.14278e-22)
(0.44166 -0.36622 -2.97288e-22)
(0.450561 -0.366487 9.56831e-22)
(0.458868 -0.366487 -2.82602e-23)
(0.466624 -0.366267 -2.77168e-22)
(0.473869 -0.365873 8.25068e-23)
(0.480645 -0.365342 -3.12956e-22)
(0.44158 0.239411 -8.75498e-23)
(0.435237 0.237837 4.29945e-22)
(0.428472 0.236071 -2.07563e-22)
(0.42122 0.234035 1.59014e-22)
(0.41347 0.231703 -1.76497e-22)
(0.405205 0.229032 -9.60547e-24)
(0.396412 0.225975 -1.16487e-22)
(0.387082 0.222478 -3.06146e-22)
(0.377212 0.218478 2.0494e-22)
(0.366807 0.213904 2.65025e-22)
(0.355881 0.208679 2.03951e-22)
(0.344465 0.202718 -7.7381e-22)
(0.332602 0.195933 7.08452e-22)
(0.320352 0.188233 -1.52355e-22)
(0.307794 0.179529 9.68723e-23)
(0.295023 0.169736 -4.31086e-22)
(0.282154 0.158777 4.24239e-22)
(0.269318 0.146583 -1.78017e-22)
(0.256663 0.133096 -2.62397e-22)
(0.244353 0.118266 1.4116e-22)
(0.232574 0.102054 -7.458e-23)
(0.221539 0.0844298 -4.36887e-22)
(0.211497 0.065383 2.81684e-22)
(0.202734 0.0449376 2.92596e-22)
(0.195566 0.0231832 -2.39052e-22)
(0.190298 0.000305879 2.73952e-23)
(0.187156 -0.0234049 2.74651e-22)
(0.186257 -0.0475986 -3.23691e-22)
(0.187591 -0.0719096 1.07562e-22)
(0.191008 -0.096016 -2.91419e-23)
(0.196292 -0.119691 1.36908e-22)
(0.203241 -0.142776 -3.2288e-22)
(0.211684 -0.165134 2.45682e-22)
(0.221458 -0.186641 -6.88083e-24)
(0.232404 -0.207181 -3.13517e-22)
(0.24437 -0.226649 1.24148e-22)
(0.257204 -0.244952 3.48438e-22)
(0.27075 -0.262008 -1.64086e-22)
(0.284861 -0.277755 -1.38108e-22)
(0.299383 -0.292149 2.52502e-22)
(0.314172 -0.305165 -7.99484e-23)
(0.329083 -0.3168 -9.52729e-23)
(0.343978 -0.32707 5.65e-22)
(0.358725 -0.336014 -5.24551e-22)
(0.373204 -0.343687 2.22983e-22)
(0.38731 -0.350166 -4.09661e-23)
(0.400949 -0.355538 7.01226e-22)
(0.414051 -0.359903 -6.52334e-22)
(0.426563 -0.363366 2.67424e-22)
(0.438451 -0.366032 2.18825e-22)
(0.449699 -0.368 2.23617e-22)
(0.460246 -0.36942 -3.12394e-22)
(0.470114 -0.370365 -7.02945e-23)
(0.47941 -0.370845 -9.31949e-23)
(0.488152 -0.370942 -1.49925e-22)
(0.496327 -0.370742 1.08349e-22)
(0.503965 -0.370299 -1.99077e-22)
(0.511102 -0.369657 4.05948e-22)
(0.517797 -0.368879 -1.14633e-22)
(0.490123 0.235628 -6.05249e-22)
(0.483837 0.233884 6.09174e-23)
(0.477064 0.231944 5.9181e-22)
(0.469782 0.229762 -4.25044e-22)
(0.461977 0.227295 1.11947e-22)
(0.45364 0.224499 3.7131e-22)
(0.444766 0.221323 -4.74666e-22)
(0.435353 0.21771 1.78183e-22)
(0.425408 0.213598 5.69013e-22)
(0.414944 0.20892 -1.97801e-22)
(0.403984 0.2036 -5.89596e-22)
(0.39256 0.197559 -1.93371e-22)
(0.38072 0.190714 5.01618e-22)
(0.368523 0.182978 4.47105e-22)
(0.356046 0.174264 -1.04194e-22)