/*--------------------------------*- C++ -*----------------------------------*\
  =========                 |
  \\      /  F ield         | OpenFOAM: The Open Source CFD Toolbox
   \\    /   O peration     | Website:  https://openfoam.org
    \\  /    A nd           | Version:  10
     \\/     M anipulation  |
\*---------------------------------------------------------------------------*/
FoamFile
{
    format      ascii;
    class       volScalarField;
    location    "650";
    object      epsilon;
}
// * * * * * * * * * * * * * * * * * * * * * * * * * * * * * * * * * * * * * //

dimensions      [0 2 -3 0 0 0 0];

internalField   nonuniform List<scalar> 
10435
(
0.00591391
0.00745093
0.00558465
0.00798627
0.0233826
0.0589557
0.00409593
0.00333329
0.00328944
0.0339927
0.00964578
0.0106638
0.015013
0.0115318
0.010774
0.005163
0.011936
0.0458199
0.00329479
0.00582572
0.00389384
0.00711942
0.00638756
0.00669403
0.0201836
0.00322584
0.00635666
0.00708481
0.00567599
0.0406182
0.0131954
0.0114092
0.00320191
0.00571331
0.00537773
0.00663584
0.00650589
0.00688812
0.00175444
0.00443483
0.0670519
0.00484189
0.00960133
0.00688677
0.00799008
0.00570597
0.0648825
0.00850375
0.00273796
0.00633238
0.00383253
0.0249755
0.00174453
0.00419853
0.00206198
0.00504455
0.00701977
0.00749628
0.0102792
0.00579164
0.00210682
0.00690928
0.00738761
0.0238679
0.00732799
0.0079526
0.00880605
0.0095497
0.00339933
0.00730577
0.00408154
0.0050196
0.0059968
0.00778877
0.00976138
0.00890868
0.00771298
0.00365385
0.00292467
0.00872262
0.00721786
0.00542823
0.0017521
0.00433127
0.00761909
0.00728529
0.0070238
0.00750358
0.00851036
0.00682719
0.00818246
0.00909575
0.00514606
0.00796733
0.00684475
0.00682272
0.00981721
0.0100009
0.010922
0.0122915
0.0092271
0.0412198
0.00742485
0.00706508
0.048007
0.00739471
0.00506903
0.0067742
0.00790951
0.00766718
0.00587452
0.0341381
0.00594186
0.0067109
0.0114627
0.0066298
0.0129276
0.00699414
0.00801113
0.0107985
0.0129365
0.00668479
0.00689447
0.00660208
0.0162218
0.00270162
0.0103676
0.00679735
0.0169014
0.00607055
0.00683818
0.0127975
0.00445643
0.0097191
0.00584328
0.00196179
0.00602432
0.00856605
0.00738136
0.00620706
0.00592922
0.0100757
0.00764244
0.0152221
0.00761928
0.00999165
0.00622755
0.0332034
0.0119841
0.0123161
0.00687995
0.00853926
0.00649115
0.0128511
0.0326472
0.00502745
0.0209398
0.00701745
0.035388
0.00844073
0.0111053
0.0104742
0.010231
0.00893943
0.00863421
0.0163564
0.00353542
0.0094874
0.00894018
0.0180809
0.0223592
0.00464007
0.00575094
0.00954551
0.0104168
0.00723328
0.00665442
0.0114387
0.00547102
0.00648578
0.00834561
0.0549943
0.011767
0.00251418
0.0106534
0.00762307
0.0077407
0.00363267
0.0276077
0.0188575
0.0120158
0.00180596
0.00561774
0.00596744
0.0270651
0.00348772
0.0109385
0.00773436
0.010242
0.00591531
0.00868146
0.00703897
0.00988206
0.00761653
0.00774384
0.0137306
0.00895554
0.00906359
0.00767429
0.00807681
0.00570046
0.00580644
0.0141467
0.00945186
0.00636405
0.0115702
0.0075684
0.00296123
0.00325401
0.0108854
0.00584201
0.0118675
0.00858944
0.00851264
0.00416558
0.00491261
0.00241707
0.00829625
0.0170999
0.00865674
0.0110215
0.00410432
0.00280658
0.00895411
0.00668473
0.0119084
0.00755921
0.00394652
0.00799447
0.0157545
0.00656559
0.00344442
0.0035512
0.00482705
0.01182
0.00309513
0.00719005
0.00313216
0.00441398
0.00649525
0.00414132
0.00792943
0.0213343
0.00851047
0.00326314
0.0217354
0.00385013
0.00337757
0.00454312
0.00741448
0.00355304
0.0212719
0.00326127
0.00832341
0.00676997
0.0111938
0.00643234
0.00966562
0.00231236
0.0153161
0.00382997
0.00290637
0.00308408
0.0153056
0.00374586
0.01109
0.00636671
0.0199655
0.00425116
0.00284414
0.0217221
0.0112456
0.00417461
0.00895967
0.0072517
0.00243397
0.0311889
0.00207193
0.00444614
0.00605402
0.00772248
0.0102534
0.00759457
0.00297035
0.00178055
0.00400627
0.0104828
0.00622456
0.0165419
0.0133268
0.010148
0.00834222
0.00461879
0.00496568
0.0136912
0.0108913
0.0120097
0.00911225
0.0109868
0.0044933
0.00519122
0.00605405
0.00610362
0.0332183
0.00387259
0.00420306
0.00288993
0.0144349
0.0100702
0.00997054
0.0540448
0.00662451
0.00676267
0.00186198
0.00277531
0.0118217
0.00427268
0.00535265
0.00993669
0.00696276
0.00459745
0.00668892
0.00447459
0.00453538
0.0107469
0.00814033
0.00441965
0.00447596
0.00498718
0.00553917
0.00474197
0.00501792
0.00212982
0.0057169
0.00552652
0.00613212
0.00866706
0.00672117
0.00191974
0.00274345
0.00459613
0.0124195
0.00610669
0.00658344
0.00269559
0.00247924
0.0133847
0.00838181
0.00452707
0.00511938
0.00447998
0.0027453
0.00532242
0.00235013
0.00621367
0.00517851
0.0086087
0.00999948
0.00507252
0.0027625
0.00237911
0.0056408
0.0165827
0.00231074
0.00268014
0.00624149
0.00703177
0.00653898
0.00503842
0.00373631
0.00726782
0.00225459
0.00291343
0.00887779
0.00306456
0.00263131
0.00846769
0.0110661
0.00258124
0.00563198
0.00450252
0.0083463
0.00575702
0.00528091
0.00429555
0.0049107
0.00480001
0.0189041
0.00702483
0.00670458
0.00597326
0.00726951
0.00348923
0.00446092
0.00675719
0.00299427
0.0091593
0.00431159
0.00418695
0.00663495
0.00257713
0.00655358
0.00460931
0.00402478
0.00520581
0.00877268
0.00596418
0.00583636
0.00412736
0.00441421
0.00589734
0.0060648
0.0329835
0.00313886
0.00224744
0.00210126
0.00499296
7.94971e-06
7.53315e-06
7.11728e-06
6.70776e-06
6.31767e-06
5.90673e-06
5.44701e-06
4.90281e-06
4.21208e-06
8.29861e-06
7.79258e-06
7.26255e-06
6.75844e-06
6.28149e-06
5.79948e-06
5.28175e-06
4.70442e-06
4.04914e-06
8.73942e-06
8.1191e-06
7.47193e-06
6.86787e-06
6.302e-06
5.74453e-06
5.16865e-06
4.55877e-06
3.91506e-06
9.32882e-06
8.5721e-06
7.79571e-06
7.08217e-06
6.4201e-06
5.7816e-06
5.14279e-06
4.4915e-06
3.83063e-06
1.01341e-05
9.22218e-06
8.29566e-06
7.45492e-06
6.68223e-06
5.95053e-06
5.23689e-06
4.5289e-06
3.82407e-06
1.12545e-05
1.01624e-05
9.05179e-06
8.05458e-06
7.14668e-06
6.30057e-06
5.49244e-06
4.70845e-06
3.94329e-06
1.28485e-05
1.15206e-05
1.01712e-05
8.97295e-06
7.89233e-06
6.89902e-06
5.96683e-06
5.08101e-06
4.23731e-06
1.51697e-05
1.34703e-05
1.18001e-05
1.03378e-05
9.03107e-06
7.84258e-06
6.7421e-06
5.71395e-06
4.75667e-06
1.84998e-05
1.62352e-05
1.41427e-05
1.23335e-05
1.07275e-05
9.27543e-06
7.94134e-06
6.70605e-06
5.56746e-06
2.31116e-05
2.01093e-05
1.74915e-05
1.52327e-05
1.32288e-05
1.14176e-05
9.75649e-06
8.22004e-06
6.79855e-06
2.93224e-05
2.55069e-05
2.22791e-05
1.94444e-05
1.69101e-05
1.46072e-05
1.24891e-05
1.05238e-05
8.69575e-06
3.75347e-05
3.30652e-05
2.9163e-05
2.55869e-05
2.23397e-05
1.93616e-05
1.66069e-05
1.40378e-05
1.16378e-05
4.82837e-05
4.38628e-05
3.91668e-05
3.45957e-05
3.03714e-05
2.64617e-05
2.28211e-05
1.94035e-05
1.6196e-05
6.475e-05
5.98932e-05
5.38828e-05
4.78585e-05
4.22605e-05
3.70589e-05
3.21884e-05
2.75837e-05
2.32337e-05
9.09667e-05
8.39218e-05
7.55117e-05
6.73002e-05
5.97681e-05
5.27914e-05
4.62339e-05
3.99786e-05
3.39717e-05
0.000131301
0.000119032
0.000106677
9.53534e-05
8.52097e-05
7.58806e-05
6.70882e-05
5.8637e-05
5.04359e-05
0.000188524
0.00016775
0.000150051
0.000134812
0.000121433
0.000109184
9.75767e-05
8.63139e-05
7.53016e-05
0.000260225
0.00023115
0.000208015
0.000188681
0.000171789
0.000156263
0.000141362
0.00012663
0.000111895
0.000344751
0.000310193
0.000283025
0.000260324
0.000240278
0.00022159
0.000203266
0.000184632
0.000165346
0.000444245
0.000407773
0.000378652
0.000354049
0.000331956
0.000310932
0.000289688
0.000267273
0.00024322
0.000565179
0.000529531
0.000500392
0.000475709
0.000453435
0.000431811
0.000409075
0.000383751
0.000354951
0.000717003
0.00068324
0.000655444
0.000632733
0.000613017
0.000593753
0.000572394
0.000546583
0.000514792
0.000911743
0.000877534
0.000851745
0.000833549
0.00082035
0.000808045
0.000792946
0.000771458
0.000741322
0.00116348
0.00112006
0.00109635
0.00108637
0.0010854
0.00108673
0.00108533
0.0010759
0.0010554
0.00148047
0.00141369
0.0013945
0.00139884
0.00141832
0.00144199
0.00146429
0.00147883
0.00147265
0.000389501
0.000380315
0.00037407
0.000370751
0.000370297
0.00037256
0.000377353
0.000384435
0.000393569
0.000404477
0.000416892
0.000430497
0.000444909
0.000459745
0.00047458
0.000489
0.000502564
0.000514805
0.000525258
0.00053347
0.000538986
0.000541329
0.000539796
0.000532988
0.000520307
0.000503676
0.000483937
0.000461146
0.000434899
0.000407037
0.00037828
0.000348962
0.000319289
0.000289814
0.000260981
0.00023316
0.000206653
0.000181707
0.000158506
0.000137174
0.000117765
0.000100273
8.46248e-05
7.07482e-05
5.8593e-05
4.8107e-05
3.9219e-05
3.18326e-05
2.58197e-05
2.1028e-05
1.72854e-05
1.4416e-05
1.22554e-05
1.06587e-05
9.50813e-06
8.71145e-06
8.20063e-06
7.92818e-06
7.85862e-06
0.000423001
0.000415671
0.000411101
0.000409268
0.000410016
0.000413149
0.000418439
0.000425662
0.00043462
0.000445162
0.000456972
0.000469588
0.000482445
0.000494855
0.000506378
0.000516837
0.000526016
0.000533663
0.000539503
0.000543252
0.000544621
0.000543304
0.000538931
0.000530995
0.000518977
0.000502756
0.0004826
0.000459069
0.000433028
0.000405407
0.000376802
0.000347619
0.000318223
0.000289003
0.00026034
0.000232583
0.000206037
0.000180955
0.000157532
0.000135906
0.000116156
9.83103e-05
8.23577e-05
6.82774e-05
5.60433e-05
4.56072e-05
3.68831e-05
2.97524e-05
2.40494e-05
1.95716e-05
1.61114e-05
1.3474e-05
1.14918e-05
1.00264e-05
8.96816e-06
8.23333e-06
7.75916e-06
7.50205e-06
7.42888e-06
0.00045037
0.000445175
0.000442133
0.000441139
0.000442043
0.000444652
0.000448751
0.000454122
0.00046056
0.000467882
0.000475913
0.000484452
0.000493252
0.000502016
0.000510417
0.000518141
0.000524887
0.000530358
0.000534259
0.000536291
0.000536142
0.000533471
0.00052789
0.000518989
0.000506462
0.000490264
0.000470597
0.000447871
0.000422698
0.000395786
0.000367752
0.000339083
0.000310202
0.000281504
0.000253362
0.000226109
0.000200038
0.00017539
0.000152354
0.000131067
0.000111621
9.40679e-05
7.84296e-05
6.47061e-05
5.28708e-05
4.28613e-05
3.45715e-05
2.78508e-05
2.25108e-05
1.83424e-05
1.5137e-05
1.27036e-05
1.08774e-05
9.52544e-06
8.54469e-06
7.85756e-06
7.40743e-06
7.15524e-06
7.07107e-06
0.000448641
0.000443694
0.000440777
0.000439746
0.000440409
0.000442544
0.000445922
0.00045032
0.000455531
0.000461369
0.000467661
0.000474232
0.000480899
0.00048746
0.000493699
0.00049939
0.000504292
0.000508147
0.000510676
0.000511584
0.000510549
0.000507227
0.000501269
0.000492344
0.000480212
0.000464796
0.000446224
0.000424824
0.000401086
0.000375582
0.000348873
0.000321466
0.000293814
0.000266328
0.000239379
0.000213294
0.000188354
0.000164792
0.000142793
0.000122494
0.000103994
8.73531e-05
7.2601e-05
5.97356e-05
4.87181e-05
3.94662e-05
3.18534e-05
2.57125e-05
2.08484e-05
1.70563e-05
1.41392e-05
1.19204e-05
1.02515e-05
9.0115e-06
8.10669e-06
7.4673e-06
7.04286e-06
6.79853e-06
6.70735e-06
0.000429247
0.000424358
0.000421398
0.000420227
0.000420657
0.000422468
0.000425431
0.000429316
0.000433905
0.000438999
0.000444417
0.00044999
0.000455557
0.000460954
0.00046601
0.000470543
0.000474349
0.000477203
0.000478856
0.000479036
0.000477443
0.000473765
0.000467695
0.000458964
0.000447383
0.000432893
0.000415588
0.000395719
0.000373665
0.000349888
0.000324882
0.000299128
0.000273085
0.000247171
0.000221761
0.000197187
0.000173725
0.000151607
0.000131016
0.000112088
9.49176e-05
7.95581e-05
6.60269e-05
5.43028e-05
4.43244e-05
3.59882e-05
2.91528e-05
2.3647e-05
1.9283e-05
1.58713e-05
1.32349e-05
1.12178e-05
9.68967e-06
8.54544e-06
7.70367e-06
7.10302e-06
6.6986e-06
6.45912e-06
6.36017e-06
0.000395215
0.000389911
0.000386506
0.000384878
0.000384855
0.000386231
0.00038878
0.000392274
0.000396489
0.000401214
0.000406256
0.000411437
0.000416589
0.000421548
0.000426151
0.000430226
0.000433587
0.000436031
0.000437341
0.000437274
0.000435566
0.000431943
0.000426148
0.000417956
0.000407214
0.000393876
0.000378021
0.000359854
0.000339684
0.000317899
0.00029493
0.000271224
0.000247227
0.000223351
0.000199967
0.000177401
0.000155921
0.000135748
0.000117058
9.99711e-05
8.45614e-05
7.08601e-05
5.8859e-05
4.85129e-05
3.97399e-05
3.24247e-05
2.64251e-05
2.15809e-05
1.77241e-05
1.46904e-05
1.2329e-05
1.05074e-05
9.11525e-06
8.0633e-06
7.28188e-06
6.71798e-06
6.33231e-06
6.09719e-06
5.99062e-06
0.000351776
0.000346172
0.000342358
0.000340244
0.000339696
0.000340536
0.000342565
0.000345576
0.000349355
0.000353698
0.000358411
0.000363312
0.000368227
0.000372984
0.000377416
0.000381351
0.000384607
0.000386983
0.000388281
0.000388282
0.000386749
0.000383445
0.00037816
0.000370714
0.000360973
0.000348918
0.000334627
0.000318285
0.000300148
0.000280548
0.000259873
0.000238531
0.000216956
0.00019555
0.000174655
0.000154585
0.000135583
0.000117845
0.000101529
8.67183e-05
7.34486e-05
6.17152e-05
5.14791e-05
4.26734e-05
3.52045e-05
2.8958e-05
2.38065e-05
1.96138e-05
1.6243e-05
1.35626e-05
1.14518e-05
9.80466e-06
8.53152e-06
7.55896e-06
6.82847e-06
6.2947e-06
5.92342e-06
5.68993e-06
5.57421e-06
0.000298191
0.000292242
0.000287952
0.000285272
0.000284113
0.000284337
0.000285776
0.000288256
0.00029158
0.000295544
0.000299986
0.0003047
0.000309505
0.000314219
0.000318672
0.000322715
0.000326167
0.000328796
0.000330426
0.000330813
0.000329744
0.000327006
0.00032247
0.000316021
0.000307498
0.000296942
0.000284428
0.000270146
0.000254274
0.000237115
0.000219039
0.000200422
0.00018172
0.000163306
0.000145442
0.000128424
0.000112459
9.76953e-05
8.4267e-05
7.21812e-05
6.14269e-05
5.19576e-05
4.37061e-05
3.65923e-05
3.05262e-05
2.54035e-05
2.1129e-05
1.75973e-05
1.47096e-05
1.23721e-05
1.0499e-05
9.01354e-06
7.84848e-06
6.9474e-06
6.26336e-06
5.75842e-06
5.40281e-06
5.17446e-06
5.05469e-06
0.000231175
0.000224939
0.000220218
0.000217041
0.000215384
0.000215138
0.000216139
0.000218143
0.000221152
0.000225155
0.000229652
0.00023449
0.000239411
0.000244154
0.000248746
0.000252989
0.000256964
0.000260601
0.000263218
0.000264368
0.000263959
0.000261929
0.000258357
0.000253107
0.000246139
0.000237432
0.000227105
0.00021529
0.000202024
0.000187527
0.000172339
0.000156858
0.000141553
0.000126724
0.000112565
9.90776e-05
8.6545e-05
7.54003e-05
6.54153e-05
5.64439e-05
4.85108e-05
4.15433e-05
3.54516e-05
3.01368e-05
2.55179e-05
2.156e-05
1.81918e-05
1.53651e-05
1.30028e-05
1.10209e-05
9.37434e-06
8.0315e-06
6.95976e-06
6.12148e-06
5.47873e-06
5.00312e-06
4.66965e-06
4.45725e-06
4.34692e-06
0.0040307
0.00356932
0.00316009
0.00278792
0.00244659
0.00213425
0.00185045
0.0015953
0.00136718
0.00116391
0.000994981
0.000865756
0.000773467
0.00070994
0.000660495
0.000618404
0.000582536
0.000552073
0.000527377
0.000509593
0.00049835
0.000489121
0.000476332
0.000454421
0.000417765
0.00383657
0.00347334
0.00310186
0.00274215
0.00240343
0.00209031
0.0018054
0.00154941
0.00132242
0.00112593
0.000962827
0.000833232
0.000733998
0.000659783
0.000604287
0.000562788
0.000532315
0.000510826
0.000496853
0.000489125
0.00048605
0.000484944
0.000482011
0.000472212
0.000448638
0.00384393
0.00345116
0.00306545
0.00269618
0.00234975
0.00203081
0.00174222
0.00148529
0.00126089
0.00106983
0.000911913
0.00078511
0.000685971
0.000610353
0.000554171
0.000514081
0.0004874
0.000471846
0.000465388
0.000465915
0.000471215
0.000478466
0.000483869
0.00048262
0.000468675
0.00388386
0.00344058
0.00302535
0.00263827
0.00228135
0.00195685
0.00166647
0.00141104
0.00119084
0.00100537
0.000852886
0.000730376
0.000634189
0.000560654
0.000506505
0.000469028
0.000445875
0.000434897
0.000433803
0.000440244
0.000451565
0.000464541
0.000474953
0.000477665
0.000466202
0.00392627
0.00343436
0.00298541
0.00257654
0.00220702
0.00187667
0.00158528
0.00133234
0.00111681
0.000936961
0.000790014
0.000672413
0.00058038
0.0005104
0.000459477
0.00042514
0.000405239
0.000397771
0.000400407
0.000410695
0.000425658
0.000441612
0.000453926
0.000457465
0.000446605
0.00395382
0.00341888
0.0029367
0.00250588
0.00212421
0.00178905
0.0014979
0.00124848
0.00103833
0.000864538
0.000723608
0.000611597
0.000524582
0.000459041
0.000412018
0.00038109
0.000364213
0.00035942
0.000364486
0.000376909
0.000393555
0.000410512
0.000422959
0.000425894
0.000413769
0.00397489
0.0033936
0.00287581
0.00242302
0.00203059
0.0016924
0.00140306
0.00115837
0.000954488
0.000787494
0.000653314
0.00054769
0.000466508
0.000406093
0.000363412
0.000336004
0.000321865
0.000319051
0.000325475
0.000338647
0.000355408
0.000371826
0.000383106
0.000384562
0.000371083
0.00400266
0.0033547
0.00279589
0.00232241
0.0019223
0.00158406
0.00129878
0.00106036
0.000863927
0.000704745
0.000578251
0.000479962
0.000405571
0.00035099
0.000313065
0.000289265
0.000277575
0.000276119
0.000282971
0.000295721
0.000311252
0.00032577
0.000334717
0.000333816
0.000318376
0.0040181
0.00328578
0.00268561
0.00219729
0.00179561
0.00146187
0.00118381
0.000953208
0.000765333
0.00061522
0.000497367
0.000407525
0.000341307
0.000293365
0.000260618
0.000240543
0.000230964
0.000230229
0.000236672
0.000248044
0.000261119
0.000272509
0.000277717
0.000271972
0.000252159
0.0242074
0.0201462
1.81641
0.00419915
6.80916e-05
9.29548e-05
0.0180567
8.41961e-06
2.24275
6.17481e-06
4.2228
2.18186e-05
0.000636146
3.82715e-05
0.0134256
0.000105666
8.42654
0.00295421
4.0211e-06
0.163309
0.000256421
4.58814e-05
4.48868
0.000206953
6.0394e-06
1.29129e-05
6.1539e-06
0.00140363
0.327034
6.85822
3.03694e-06
2.13134e-05
2.63817
0.00121024
5.94894
4.48313e-05
0.00563258
0.0139924
0.00611785
3.24183e-05
3.52488
7.93632e-06
2.9424e-05
0.00596141
0.000886684
6.79448e-05
6.65835
6.72121
0.658759
1.10067
6.16856
2.15896
0.000345819
0.00230218
0.0160085
1.95932
2.78595e-05
0.000266743
1.34661e-05
1.80186
0.000114686
1.64823
6.4067e-05
6.53655e-05
8.75804e-06
0.00556245
9.82905e-06
0.000842831
0.00069976
0.887963
1.79263
6.28208e-05
2.37458e-05
0.142658
6.73181e-06
0.000238356
0.0774653
5.6836
4.81478e-06
0.00162958
0.00100876
0.000213646
1.09169e-05
4.62232
7.99605e-05
0.000124949
1.87739e-05
5.31823
2.63121
0.000106218
0.000275868
2.34221e-05
2.4428e-05
2.38628e-05
3.26392e-05
4.21226
1.32612e-05
4.9173
1.56084e-05
1.66014
0.000476597
3.44369
0.000582338
6.29829e-05
1.23923e-05
0.000831571
4.4578
0.000926075
2.57455e-05
6.91463
4.47346e-05
1.69142e-05
4.83081
5.92156e-05
0.000318932
0.64938
1.74076
2.65094e-05
0.000457658
9.83542e-06
2.8545e-06
1.49319e-05
0.000198588
6.02549e-06
2.82986
2.74213e-05
2.24361
0.0347073
4.53893e-06
6.68792
1.01789e-05
0.125661
0.901182
0.00409496
0.00221192
1.90863e-05
0.000782435
0.000254217
9.00497e-05
0.233324
4.97125e-05
0.00533945
2.11153
9.13393e-06
0.49326
0.000153453
0.00636848
0.00369466
0.000106924
6.98928
0.000992966
2.61937e-05
0.00610857
0.0203927
6.36998e-06
4.42785
1.12352e-05
2.86761e-05
0.0703782
1.24503e-05
3.18358e-05
2.06116
3.50617e-05
5.20304
3.76613e-05
5.75968
3.72239e-05
6.25474e-06
0.000169299
1.29889e-05
3.22589e-05
7.14543e-05
0.000947204
5.06405
9.10285e-06
0.00106622
0.00151851
0.626952
0.701127
5.07475e-05
0.00297022
2.08201e-05
0.000371338
0.00349746
0.00427896
9.66074e-06
6.30831
2.68069e-05
1.4602
9.53355e-05
4.69239
1.90676
0.0205614
0.0048915
0.0161862
1.81996
6.47127e-06
4.44071e-05
0.58248
0.0396785
0.0010337
0.000175309
0.000186903
0.000113418
0.000617828
1.38353e-05
1.16981e-05
0.000580696
0.761971
2.31578e-05
1.16471e-05
2.47518e-05
0.00272279
0.00053502
0.00124903
4.65505
3.31652e-05
4.31986e-06
0.000119628
0.000256653
0.000357005
8.09979e-06
6.48003e-06
1.12645
9.49351e-05
1.94594
8.69812e-05
7.94123
2.5588e-05
2.90946e-05
4.09952
4.57992e-05
2.12027e-05
7.82641e-06
0.0060313
9.0394e-06
0.0417855
0.000709904
0.00391611
0.0243585
2.98423e-06
0.000112731
3.26639e-05
0.00316453
2.12138e-05
1.55756e-05
1.99354e-05
0.00170058
9.71056e-05
1.62625e-05
2.62464e-05
0.0011951
6.15975e-06
0.676296
1.4858e-05
6.83437e-06
4.99861
0.0648849
0.0611999
3.8583e-06
0.000986843
5.14636e-06
4.25461e-05
6.13437e-06
0.115266
6.02595e-06
1.608e-05
0.0107044
0.0185522
6.30306e-06
0.000433622
0.0264966
1.86155e-05
4.3973e-06
4.7977e-06
0.0114104
1.59931e-05
3.94869
2.80975e-05
3.08613
0.00713138
0.00105418
0.00061831
6.66332e-05
0.680849
0.000124092
0.000923835
0.000285607
5.29465
5.19983
0.0286359
4.01353e-05
7.89916e-06
5.77139
0.00300353
4.4605
4.13074
1.5259e-05
1.33857e-05
0.808678
2.39036
3.30824e-05
5.27654e-05
0.000132174
4.17464
2.33742e-05
0.000254826
5.11013e-06
0.229252
0.000205932
6.3916e-05
3.02032e-05
1.92707
4.19762e-06
1.9492e-05
0.00467049
7.09396
7.25482e-06
6.15095e-06
0.00545038
0.0651981
2.01804e-05
5.8486e-05
3.03165e-06
2.13075e-05
6.11409e-06
1.63978
0.000988655
1.37112e-05
0.000283441
3.50579e-05
0.0157524
0.000246847
7.31762e-06
4.3696
0.000143339
1.5403e-05
1.222e-05
1.21283e-05
0.000903512
2.6619e-05
2.04905e-05
0.93966
2.43961e-05
0.0978984
3.25422e-05
0.0001179
1.9901e-05
1.74122e-05
6.8564
0.00479285
2.53802e-05
2.70256e-05
0.0529298
5.74445
7.82815e-05
0.00664851
0.00519675
3.10315e-05
7.65248
0.79623
4.81882
1.00528e-05
1.81427
5.17999e-06
1.56088e-05
0.000123744
6.91139
3.35472e-05
1.31427
4.12108e-05
0.0198884
0.295647
3.34465
0.000646074
6.07746e-06
7.24846e-06
4.42056e-05
1.16975e-05
7.52081e-06
4.0733
6.55476e-05
2.85881
0.00705403
0.00585793
0.00478908
4.1381e-05
0.150043
4.18909
4.74051
0.00871257
1.45486e-05
0.000540202
2.2228
0.00275657
4.85981e-06
2.33571e-05
2.68015
2.93388e-05
0.362189
8.7461e-06
2.89902e-05
7.57396e-05
0.561179
1.86584e-05
3.59306e-08
0.0162678
0.000663999
0.00254934
3.02817e-06
0.415019
3.87136e-05
0.760897
8.16482e-05
1.68103e-05
2.7719e-05
0.65846
6.83015
2.09474e-05
2.24132e-05
4.37688e-05
1.26472e-05
0.000132961
0.000730592
0.000126088
4.17925
7.3983e-06
7.56114e-05
4.13762e-06
2.13104e-05
9.7121e-05
7.30157e-06
0.000114725
5.09809e-06
0.0274321
0.000110258
4.43603e-05
4.77424e-06
1.94464e-05
4.14969e-05
1.20846e-05
0.0242359
5.46384
0.00387258
0.000774443
0.332027
0.000912676
0.475569
1.09145e-05
4.53428e-06
3.07196
2.70157e-05
3.40955e-05
0.723075
2.62945e-05
0.81494
7.20674
0.00012788
0.000297405
0.0263623
4.12339e-05
0.00388523
0.274883
0.00229666
3.33714
1.13295e-05
1.74233e-05
1.37123
1.13549e-05
4.23694
0.00134727
1.25599e-05
4.91716
3.90944e-05
6.12837e-06
0.000914319
7.93016e-05
9.93202e-06
0.00375764
0.00178952
0.00140274
0.00656838
1.06859e-06
2.03669e-05
4.43964
5.17165e-05
0.000205779
8.60584e-05
0.323742
5.24377e-05
0.0142487
4.98886e-05
6.65055e-06
1.95536
3.00608e-05
3.02284e-05
0.0133124
0.000103769
2.65557e-05
1.21657
3.15664e-05
0.0275617
5.41689e-05
0.00233648
0.0012962
0.00148655
0.000107043
8.74824e-05
0.0172423
1.91953e-05
4.74027e-05
0.00124277
8.8462e-06
6.39156e-05
9.70471e-06
6.84703
4.02602
0.667465
6.08346e-06
0.00344419
1.61707e-05
5.14135
0.176053
0.0343806
0.00120407
8.81937e-05
3.81638
3.54554
1.34772e-05
9.40634e-05
0.001148
5.20292e-05
0.0212075
1.02407
1.15005e-05
0.00395285
2.85503e-05
0.763659
0.650624
5.66885e-05
0.0051383
7.97309
4.51181e-05
4.44266
2.95826e-05
0.813681
2.31248e-05
0.000246045
9.69012e-05
4.43891
0.00627718
0.00699008
4.46408e-06
0.715774
0.683589
7.08925
6.24722e-06
2.7837e-05
0.000544319
0.84996
4.64937e-06
0.00417404
2.96763e-05
0.000733801
7.61632
4.83169e-06
0.0031518
1.00606e-05
2.12239e-05
0.00129987
2.09208
0.000107607
0.00902167
2.20501e-05
6.01942e-05
5.00165
7.37837
0.891618
0.000342772
0.00146777
0.248516
0.000365254
0.000168976
1.86753e-05
8.45185e-06
2.6842
4.55642e-05
9.14693e-05
0.00594515
0.000138349
0.00016806
0.000131679
5.8524e-05
0.0173551
3.26602e-05
1.2239e-05
0.000969487
0.679372
5.41425e-05
1.99345e-05
0.99946
0.00131235
5.79661e-06
7.29964e-05
0.0277882
1.76518e-05
0.000137997
4.61355e-06
0.000213951
2.53946e-05
3.25943e-05
0.00638245
1.39934e-05
0.000155021
0.000655666
0.000328284
6.95822e-06
0.000112756
0.680801
7.77698e-05
9.29053e-06
1.9765e-05
1.88873e-05
6.62764e-05
1.46613e-05
1.47718
8.42281
0.00120296
2.46995
9.84962e-06
6.4964e-06
1.05839e-05
8.98663e-06
0.000149424
9.80879e-06
0.000391205
0.000105614
6.66636e-06
1.90629e-05
0.0125665
0.00277778
0.000103167
0.00538404
4.31441e-05
8.23401e-05
6.97827e-06
0.000388465
0.00420478
1.37293
0.0170201
0.0506916
7.87031e-06
6.32243e-06
2.59e-05
9.70997e-05
4.09773e-06
7.39953
3.78834e-06
0.00044607
1.66467e-05
0.934918
0.00089859
4.22239
8.12149e-06
1.09682e-05
7.88791e-06
3.81132
0.592472
0.00379056
0.000346617
1.35458e-05
6.48729e-06
6.64618e-05
2.07568
2.88341e-06
1.60743e-05
0.00486838
3.64128e-05
4.30166e-05
7.74992e-06
1.7011e-05
0.000341546
7.39149e-05
1.17002e-05
1.52229e-05
0.000168787
4.30946e-05
0.530776
4.42149
2.05476e-05
0.015931
2.27079e-05
4.19546
8.83494e-06
2.65626e-05
1.74057e-05
1.07789e-05
0.00605672
9.70106e-05
4.96021e-05
1.42072e-05
0.000717571
1.55331e-05
8.91211e-05
5.66915e-05
3.27449
0.0111714
0.000746315
6.0363
0.0181477
0.469039
5.74879
4.59862e-06
1.1152e-05
1.01944e-05
1.46231e-07
4.69643e-05
0.00688108
0.000148927
3.05972e-05
0.000583821
8.93127e-06
3.4698e-06
0.00313225
2.39339e-05
5.25577e-06
9.86894e-06
0.000694761
0.00123694
3.97704
7.41576e-06
0.805132
0.0185529
0.580625
0.0004986
3.77315
5.34768
0.0196641
3.95789e-06
0.000101041
1.18576e-06
0.000528295
2.9679e-05
0.00241862
0.241874
2.00123e-05
0.0986112
0.00365075
5.73528e-06
9.41887e-06
4.79431e-05
8.30406
0.519341
1.41437e-05
0.0225338
0.0206475
0.000460438
1.0603
2.0806e-09
1.44836e-05
0.0034742
2.43639e-06
0.114054
0.00255493
4.71003
0.0181882
7.36626e-06
0.0185743
1.32061e-05
1.87832e-06
0.00354651
0.000146421
0.000326713
1.19394e-05
2.71114e-05
0.003305
0.000108264
7.4262e-06
3.32536e-05
4.87262e-05
0.00155509
3.4586e-05
2.19664
0.0168043
4.73416e-05
0.00422682
7.27744e-05
0.222186
0.000120778
1.30551e-05
4.23458e-05
0.000847593
0.00103095
3.03723e-06
5.32485e-05
6.81669
0.421574
0.0135141
0.000103184
0.00287459
0.00222835
0.0272017
0.452042
0.00451205
8.08665e-05
2.76278e-05
4.4546
1.55458e-05
8.48746e-06
0.000487738
1.88158
1.7749
2.11399e-05
5.60902e-05
1.11964
9.40301e-06
0.824366
0.692349
5.18447e-05
2.14546e-05
3.83842
0.319389
0.152802
3.10142e-05
9.9809e-06
8.40342e-06
0.00207814
0.00606204
2.79381e-05
8.47275e-06
3.76618e-05
0.0114211
2.86886e-05
0.00294945
0.259437
6.98748e-06
2.20068e-05
0.144585
9.32633e-06
0.000509662
1.95948e-05
0.000710318
1.63498e-05
6.95848e-06
0.00219765
5.87491e-05
2.01063e-05
2.53443e-05
0.00137798
0.000525717
4.79693
6.96682e-06
1.40901e-05
2.8793e-05
0.0100463
0.231467
1.06415
1.09659e-05
0.00107348
0.0156343
6.29573e-07
7.32224e-06
6.99739e-05
4.20267
2.11353e-05
0.217141
0.000117705
3.49866e-06
0.00611539
9.00309e-05
0.0446129
0.0421934
0.00281472
2.33105
2.98369
8.0767
1.00299e-05
2.26982
0.00733968
3.44269e-05
0.0154116
3.1814e-05
7.03452e-05
0.0463597
8.78811e-05
0.000209868
0.000674378
0.523192
3.17846e-06
2.32693e-06
2.07139
4.97583e-05
0.000142482
0.01183
0.452483
0.00530393
1.81101e-05
0.000732657
6.12432
4.93284
0.00310035
0.000444466
0.999917
8.44877e-05
1.01278e-05
0.00458037
0.69269
9.92037e-06
0.000777285
3.7416e-05
0.564713
0.000131938
0.00590743
0.116639
1.48501e-05
5.53559e-05
2.06713e-05
0.70111
0.00508532
0.944655
0.583434
0.000125746
0.00163087
0.00280105
0.000307495
0.180154
0.000245788
1.04483e-05
0.000112348
7.32186e-05
7.01862e-06
0.00307059
4.20907
2.47954e-05
0.770159
4.60514e-05
0.0359093
9.81319e-06
3.53277e-05
7.85848e-06
1.2236
0.97948
0.00122092
0.000534212
1.69522e-05
1.54813e-05
0.0263289
3.86461e-06
0.00627956
0.00439447
3.3538
1.75377e-05
0.000638685
0.0287831
0.000120249
0.000145588
0.000175316
3.50861
1.87015e-05
0.000379754
0.0307091
0.0171297
1.76276e-05
0.000308321
4.5249e-06
5.62178e-05
2.37157e-05
2.11059e-05
0.000329475
1.35116e-05
0.00102481
0.710402
0.190145
1.2687
3.33019e-05
0.000698669
0.00370159
2.35691e-06
0.457216
6.90624e-05
0.000141947
4.81074
0.00012319
0.00229935
7.42995e-05
6.55152e-06
0.726203
9.87732e-06
0.000558616
1.21216e-05
0.0189978
0.0237787
1.7883
6.35739e-06
0.0216698
1.83945e-05
0.00108833
0.000100457
1.01405
0.00389752
0.000569705
7.8027
2.2912e-05
6.8485
4.81335e-05
0.651951
0.000181373
8.77126e-06
1.86945e-05
0.00669416
0.0161615
1.39515e-05
2.11886e-05
0.0689967
9.02031e-06
1.7227e-05
6.54552e-06
1.12692e-05
5.95864e-05
6.49638
0.000147548
4.08514e-05
0.0207038
0.00140693
8.07602
7.67812e-06
2.76866e-05
2.10833e-05
5.23571e-05
0.000178207
7.49022e-05
3.63757
6.10011e-05
0.00546698
1.02205e-05
0.000361887
0.0073179
0.807408
2.88007e-05
1.91263e-05
3.88387e-05
0.000168832
1.486e-05
0.000898211
4.59435
0.00217917
0.000786766
1.51405e-05
0.0275043
3.38423
0.000983743
0.025732
0.000126248
0.521467
5.03186
7.50799
6.8266e-05
7.14384e-05
0.000630669
0.967208
0.000136362
0.691822
9.39187e-05
0.00224604
0.361576
6.0569e-06
4.02058e-05
0.000155541
9.61414e-06
3.14209e-06
2.16085e-05
0.333702
5.76051e-06
2.05244
1.57474e-05
2.13819e-05
1.25707e-05
6.67911e-06
0.000388807
1.69796e-05
0.219758
0.00177256
5.87738e-05
0.000115374
0.611019
4.16333
9.78482e-06
1.99758e-05
5.81041e-05
0.00104711
0.00126366
0.000803172
2.66101
1.18484e-05
1.2688e-05
0.000506093
5.02877e-05
0.000535716
0.0240835
1.54542e-05
1.62289e-05
3.22063e-06
0.000161942
0.00302731
0.298062
0.021295
1.4169e-05
0.00074817
3.33779e-06
2.68584
3.16022
3.30826e-05
1.12476e-05
0.0913354
1.87027e-05
2.40476e-05
0.0375307
0.365973
4.86107e-05
1.34067e-05
5.09415e-06
0.00293193
0.291324
1.60147e-05
3.36559e-06
0.15349
0.779124
9.04836e-07
1.98716e-05
1.19366e-05
4.78909e-05
0.00160509
0.000434978
3.30386e-05
0.02937
8.29255e-05
3.32948e-05
4.17384e-05
0.000351473
2.14457e-05
4.96364
0.241196
3.48285
0.117651
0.00407136
0.00799968
2.00862e-05
2.0437
0.000474252
9.53712e-06
0.000307563
2.70957e-05
0.000566176
2.6315e-05
3.68441e-05
8.29941e-06
0.871247
7.18368e-06
0.00127983
0.0253983
0.000145062
0.00078979
0.00121204
7.49539
8.94374e-06
5.35769
4.76788
0.000142019
2.07857e-05
0.00055327
0.000687029
0.000358614
0.0139969
0.447807
3.74878e-05
6.75118e-06
1.55131e-05
0.00511746
2.87746
0.000143499
6.81132e-05
8.05212e-06
9.22225e-06
0.00015114
0.00190853
1.0363e-05
0.000210812
0.000168934
0.786456
3.22077e-05
0.000547743
6.31439
8.25702e-05
0.00112203
0.000373476
0.0384757
0.00105395
0.000659412
0.000465979
3.153e-05
0.0900088
0.741385
5.70176e-05
0.00432487
0.01522
2.59206e-05
0.000229209
3.84318e-05
0.00826305
1.82615e-05
0.00078055
2.25009e-05
0.0244843
0.918561
0.0411626
0.721647
7.62105e-05
0.000152882
0.0635143
0.0149955
0.000180681
7.52633e-05