/*--------------------------------*- C++ -*----------------------------------*\
  =========                 |
  \\      /  F ield         | OpenFOAM: The Open Source CFD Toolbox
   \\    /   O peration     | Website:  https://openfoam.org
    \\  /    A nd           | Version:  10
     \\/     M anipulation  |
\*---------------------------------------------------------------------------*/
FoamFile
{
    format      ascii;
    class       volScalarField;
    location    "650";
    object      k;
}
// * * * * * * * * * * * * * * * * * * * * * * * * * * * * * * * * * * * * * //

dimensions      [0 2 -2 0 0 0 0];

internalField   nonuniform List<scalar> 
10435
(
0.76914
0.847128
0.75539
1.10212
1.34638
1.30959
0.730825
0.761846
0.762827
1.07571
0.985343
1.34666
0.737511
0.583773
0.595057
0.863216
0.573308
0.900998
0.7604
0.820576
0.793448
1.08603
0.892155
1.14782
1.03871
0.334016
0.454882
0.717498
0.401615
0.992707
1.17171
1.05881
0.755122
0.384337
0.950729
0.679785
1.01594
0.478611
0.251522
0.896185
1.10742
0.766142
0.493307
0.962214
1.06555
1.03929
1.22044
0.475531
0.697656
1.05966
0.802689
1.31744
0.244885
0.346575
0.270637
0.373998
1.09651
0.489871
0.501681
1.01328
0.266868
0.786329
0.475476
1.37987
0.980816
0.803276
0.461847
0.521969
0.757227
1.223
0.344305
0.415215
0.364413
0.855249
0.610478
0.479379
1.26471
0.726485
0.728805
0.572895
1.19346
0.681732
0.238612
0.348662
1.24415
0.681115
0.748058
0.965373
0.63604
0.79545
1.03378
1.11062
0.726983
0.666057
0.84706
0.633659
1.18196
0.608354
0.523503
1.26193
0.620812
1.3807
0.70449
0.903496
1.40294
1.03085
0.779308
1.13055
1.27593
0.590129
0.984066
1.33329
0.643702
0.613608
1.19955
1.01354
1.31338
0.725988
0.949443
1.29588
1.34354
0.3986
0.774434
0.488659
1.09525
0.301763
1.24696
0.420335
1.33788
0.47046
0.45397
1.01398
0.840936
0.559177
0.447847
0.223132
0.565769
1.17156
0.886063
0.943118
0.878469
1.10118
0.435342
1.36237
1.15602
0.562079
0.523283
1.36495
0.577593
1.35365
0.434281
1.1473
0.792862
1.3306
1.26672
0.38643
1.17891
0.827713
1.17793
0.857377
1.25521
0.546942
1.09434
1.30673
0.628695
1.36962
0.788463
1.28384
1.31036
1.38574
1.13808
0.316781
0.412499
0.577752
1.32871
0.787534
0.730518
0.552835
0.909609
0.429396
0.913511
1.37288
1.36096
0.286579
1.18532
0.431625
0.431001
0.741405
1.38457
1.34714
1.35293
0.234808
0.450085
0.613717
1.26251
0.749475
0.544735
0.641212
0.52181
0.939699
0.63919
0.469627
0.728755
0.488611
0.750792
1.212
1.01901
1.23397
0.474966
1.21828
0.385757
0.825288
1.37504
1.32953
0.445344
0.585998
0.652638
0.286308
0.33715
0.535555
0.403431
0.560801
0.476716
0.549775
0.367357
0.891705
0.290829
0.610651
1.25353
0.488871
0.545626
0.835637
0.312346
1.21842
0.490671
0.560876
1.17755
0.36622
1.24058
1.13089
0.900197
0.331567
0.303003
0.368292
1.15524
0.744706
0.592856
0.729456
0.32674
0.724426
0.328326
0.669126
0.815253
1.26978
0.724533
1.39051
0.294883
0.720181
0.354216
0.466329
0.716947
1.20737
0.330263
1.29685
0.684549
0.539703
0.843818
1.02052
0.264914
1.2755
0.715218
0.72121
0.722448
0.933795
0.364766
1.32753
0.471772
1.27794
0.796987
0.71915
0.902287
0.546228
0.710229
0.594653
0.704593
0.256021
1.39969
0.270495
0.349204
0.404196
0.558878
0.933663
0.462714
0.721178
0.255901
0.340912
0.55138
0.723727
1.20297
1.03661
0.529686
1.27912
0.703628
0.359272
1.13106
0.596249
0.568568
1.26889
0.933092
0.346467
0.840793
0.440102
0.66663
1.39386
0.825184
0.344985
0.298767
1.29884
0.525365
1.32132
1.40116
0.445207
0.746294
0.230995
0.713842
0.778017
0.395263
0.70059
0.509137
0.48578
0.902394
0.414447
0.341104
0.722916
1.30258
0.498087
0.348355
0.336836
0.351351
0.396508
0.418269
0.402206
0.262218
0.412903
0.397814
0.425819
0.502616
0.496084
0.227299
0.709045
0.341164
0.840458
0.441763
0.702416
0.70472
0.665369
0.695421
0.928077
0.358744
0.370836
0.342164
0.308075
0.383535
0.259245
0.431996
0.43642
0.506376
1.33718
0.426569
0.707087
0.288493
0.456491
0.685597
0.636933
0.260253
0.455505
0.473637
0.475309
0.372941
0.361883
0.536993
0.279146
0.727631
0.497425
0.73258
0.694598
0.705652
0.705719
0.684283
0.70978
0.881726
0.507962
0.371575
0.386053
0.349765
0.712179
0.367531
0.710974
0.522482
0.442653
0.468685
0.442422
0.318401
0.780024
0.475677
0.732322
1.29952
0.323408
0.386828
0.497302
0.669149
0.502072
0.407194
0.350766
0.379145
0.499179
0.416722
0.730014
0.346082
0.392057
0.41178
0.381928
0.722388
0.264884
0.232387
0.601034
0.360929
0.0766257
0.0744297
0.0717042
0.0685728
0.0651622
0.0613184
0.0569667
0.0520163
0.0462446
0.0784701
0.0759016
0.0727532
0.0693228
0.0656775
0.0617141
0.0573463
0.0525355
0.0472695
0.0798806
0.076902
0.0733749
0.0696673
0.0658111
0.0617193
0.0573267
0.0526336
0.0477226
0.0809947
0.0776021
0.0737266
0.0697665
0.0657178
0.0615077
0.0570893
0.0524811
0.0477799
0.0819147
0.0781572
0.0739604
0.0697652
0.0655376
0.0612166
0.056767
0.052211
0.0476242
0.0827696
0.0787189
0.0742202
0.0697975
0.0653962
0.0609656
0.0564773
0.0519531
0.0474602
0.0837632
0.079435
0.0746333
0.0699807
0.0654043
0.0608614
0.0563275
0.051828
0.0474346
0.0852046
0.0804316
0.075302
0.0704108
0.0656566
0.0609956
0.0564067
0.0519205
0.0476168
0.0871819
0.0817667
0.0762986
0.0711667
0.0662342
0.061448
0.0567886
0.0522873
0.0480251
0.0894855
0.0834257
0.0776719
0.0723173
0.0672123
0.062294
0.0575452
0.0529941
0.0487096
0.0918096
0.0853606
0.07946
0.0739302
0.0686683
0.063614
0.0587592
0.0541312
0.0497923
0.0938168
0.0875542
0.0817211
0.0760885
0.0706928
0.0655034
0.0605312
0.0558107
0.0514131
0.0951049
0.0901441
0.0845922
0.0789218
0.0734082
0.0680808
0.0629784
0.0581471
0.0536736
0.0977038
0.0937334
0.0883781
0.0826401
0.0769846
0.0714958
0.0662362
0.0612645
0.0566806
0.102932
0.0989644
0.093451
0.087502
0.0816276
0.0759237
0.0704584
0.0652938
0.0605235
0.111328
0.106204
0.100082
0.0937299
0.0875292
0.0815367
0.0758061
0.0703981
0.0654015
0.122336
0.11531
0.108298
0.101417
0.0948066
0.0884607
0.0824077
0.0767058
0.071453
0.133859
0.125562
0.11784
0.110486
0.103471
0.096756
0.0903497
0.0843053
0.078727
0.144839
0.136322
0.128371
0.120775
0.113475
0.106454
0.0997192
0.0933217
0.0873604
0.155408
0.147501
0.139779
0.132222
0.124828
0.117632
0.110655
0.103953
0.0976312
0.166438
0.15952
0.152285
0.144975
0.137683
0.130482
0.1234
0.116485
0.109845
0.179031
0.173047
0.166319
0.159352
0.152333
0.145319
0.138321
0.131351
0.124513
0.194403
0.188774
0.182349
0.175735
0.16914
0.162529
0.155858
0.149079
0.142287
0.213818
0.207203
0.20068
0.194412
0.188409
0.182458
0.176428
0.17016
0.163734
0.237991
0.2283
0.221397
0.215591
0.210412
0.205412
0.200396
0.195089
0.188927
0.107191
0.106871
0.107414
0.108833
0.111129
0.114277
0.11824
0.122963
0.128389
0.134449
0.141072
0.148179
0.155672
0.163453
0.171406
0.179418
0.187364
0.195106
0.202502
0.209409
0.215672
0.221131
0.225565
0.228591
0.22999
0.230126
0.229124
0.226926
0.223353
0.218831
0.213507
0.207436
0.200644
0.193282
0.18549
0.177402
0.169149
0.160859
0.152653
0.144637
0.136899
0.129497
0.122451
0.115777
0.109513
0.103703
0.0983926
0.0936255
0.0894337
0.0858404
0.0828439
0.0804214
0.0785359
0.0771343
0.0761661
0.0755802
0.0753358
0.0753986
0.0757406
0.110822
0.110851
0.111713
0.113424
0.115972
0.119324
0.123436
0.128256
0.13373
0.139811
0.146416
0.153437
0.160742
0.168172
0.175605
0.182965
0.190161
0.197096
0.203662
0.209746
0.21523
0.219991
0.223887
0.226742
0.228371
0.228671
0.227628
0.225302
0.221843
0.21744
0.212207
0.20622
0.199556
0.192312
0.184603
0.176548
0.16827
0.159887
0.151513
0.143251
0.135188
0.127395
0.119931
0.112859
0.106254
0.100194
0.094749
0.0899802
0.0859127
0.0825218
0.0797562
0.0775488
0.0758384
0.0745677
0.0736857
0.0731493
0.072917
0.0729563
0.0732358
0.112785
0.113112
0.114187
0.116013
0.118575
0.121839
0.125761
0.130284
0.13535
0.140899
0.146869
0.153191
0.159785
0.166562
0.173423
0.180269
0.186999
0.193508
0.199688
0.205425
0.210601
0.215084
0.21873
0.221385
0.222911
0.223228
0.222311
0.22019
0.216954
0.212731
0.207639
0.201775
0.195231
0.188108
0.180514
0.172561
0.164365
0.156037
0.147686
0.13941
0.131305
0.123456
0.115949
0.108873
0.102317
0.0963647
0.0910805
0.0865021
0.082631
0.0794337
0.0768515
0.0748147
0.0732486
0.0720856
0.0712713
0.0707604
0.0705171
0.0705153
0.0707291
0.110017
0.11034
0.111379
0.11313
0.115573
0.118671
0.122375
0.126631
0.13138
0.136561
0.142113
0.147971
0.154067
0.160327
0.166672
0.17302
0.179282
0.185363
0.19116
0.196564
0.201454
0.205702
0.209174
0.211735
0.213265
0.213678
0.212936
0.211051
0.208085
0.20413
0.19929
0.193666
0.18736
0.180478
0.173128
0.16542
0.157464
0.149369
0.141242
0.133184
0.125294
0.11767
0.110409
0.103606
0.0973506
0.091717
0.086755
0.082483
0.078886
0.0759213
0.073528
0.0716375
0.0701842
0.0691033
0.0683393
0.0678493
0.067602
0.0675753
0.0677465
0.104317
0.104588
0.10554
0.107171
0.109458
0.112366
0.115849
0.119851
0.124315
0.12918
0.134384
0.139865
0.145562
0.151408
0.157335
0.163269
0.16913
0.174831
0.180275
0.185359
0.18997
0.193987
0.197286
0.199746
0.201262
0.201755
0.201182
0.199541
0.196867
0.193227
0.188706
0.183401
0.177415
0.170857
0.163837
0.156467
0.148857
0.141117
0.133355
0.125675
0.118179
0.110969
0.104141
0.0977836
0.0919758
0.0867749
0.0822125
0.0782918
0.0749882
0.072256
0.0700373
0.0682701
0.0668946
0.0658571
0.065112
0.0646229
0.0643619
0.0643094
0.0644449
0.0961454
0.0962781
0.0970617
0.098494
0.100556
0.103216
0.106428
0.110141
0.114299
0.118842
0.123711
0.128847
0.134189
0.139674
0.145239
0.150814
0.156324
0.161687
0.166816
0.171612
0.175971
0.179782
0.182931
0.185309
0.18682
0.18739
0.186975
0.185564
0.18318
0.17987
0.175709
0.170786
0.165202
0.159069
0.152498
0.145601
0.138488
0.131269
0.124051
0.116937
0.110024
0.103403
0.0971601
0.0913702
0.0860945
0.0813746
0.0772301
0.0736574
0.0706319
0.068113
0.066052
0.0643955
0.0630931
0.0620997
0.061377
0.0608943
0.0606274
0.0605594
0.0606719
0.0861577
0.0861383
0.0867269
0.0879243
0.0897171
0.0920776
0.0949674
0.0983403
0.102145
0.106326
0.110828
0.115596
0.120572
0.125696
0.130907
0.136139
0.141321
0.146374
0.151212
0.155745
0.159873
0.163493
0.166503
0.168804
0.170305
0.170941
0.170669
0.169477
0.167375
0.164403
0.160628
0.156132
0.151023
0.145413
0.139409
0.133127
0.126672
0.120148
0.113662
0.107302
0.101148
0.0952724
0.0897397
0.0846062
0.0799153
0.0756949
0.0719594
0.0687064
0.0659196
0.0635711
0.0616249
0.0600417
0.0587824
0.0578115
0.0570974
0.0566142
0.0563409
0.056262
0.0563599
0.0741274
0.0739006
0.074233
0.0751326
0.0765929
0.0785942
0.081105
0.0840866
0.0874934
0.0912755
0.0953854
0.0997661
0.104364
0.109121
0.113982
0.118889
0.123776
0.128557
0.133152
0.137459
0.141386
0.144833
0.147721
0.149964
0.151466
0.152176
0.152053
0.151088
0.149274
0.146649
0.143282
0.139257
0.1347
0.129726
0.124421
0.118907
0.113284
0.107639
0.102078
0.0966538
0.0914214
0.0864243
0.0817012
0.077288
0.0732155
0.069497
0.0661538
0.0631854
0.0605897
0.0583575
0.0564739
0.0549184
0.0536665
0.0526953
0.051982
0.0515047
0.0512443
0.0511861
0.0513109
0.0593251
0.0587957
0.0587805
0.0593054
0.0603763
0.0619776
0.064077
0.0666229
0.0696156
0.0730496
0.0768087
0.0808431
0.0850834
0.0894646
0.0939785
0.0985653
0.103225
0.107908
0.112405
0.116564
0.120317
0.123601
0.126386
0.128587
0.130137
0.130974
0.131065
0.130388
0.128897
0.126607
0.123656
0.120152
0.116243
0.112038
0.107616
0.102984
0.0982839
0.093764
0.0893582
0.0850262
0.0808462
0.0768331
0.0729903
0.0693224
0.0658395
0.0625925
0.0595968
0.0568918
0.0544708
0.0522951
0.050378
0.0487495
0.0474278
0.0464092
0.0456699
0.0452003
0.0449834
0.0449997
0.0452232
0.354869
0.327602
0.303735
0.281662
0.26076
0.240862
0.221978
0.204205
0.18756
0.172031
0.158537
0.14779
0.139845
0.134192
0.129561
0.125384
0.121647
0.118368
0.115701
0.113909
0.113074
0.112767
0.112403
0.11134
0.108831
0.336361
0.318432
0.298243
0.277547
0.257076
0.237215
0.218237
0.20032
0.183626
0.168449
0.155229
0.144218
0.135379
0.128435
0.122967
0.118665
0.115362
0.112969
0.111441
0.110753
0.110831
0.111472
0.112323
0.112853
0.112242
0.331714
0.313073
0.292958
0.272281
0.251663
0.231568
0.212346
0.194268
0.177597
0.162623
0.149577
0.138535
0.129432
0.122103
0.116352
0.112025
0.109
0.107165
0.106412
0.106609
0.107608
0.109186
0.111002
0.112565
0.113198
0.329191
0.30831
0.287056
0.265727
0.244695
0.224324
0.204943
0.186843
0.170289
0.155514
0.14265
0.131708
0.12261
0.11524
0.109488
0.105268
0.102494
0.101062
0.100829
0.101622
0.103231
0.105379
0.107679
0.1096
0.110418
0.326647
0.3036
0.280868
0.258569
0.236936
0.216227
0.196708
0.178628
0.162211
0.147624
0.134946
0.124156
0.115176
0.107912
0.102282
0.098224
0.0956653
0.0945094
0.0945956
0.0957236
0.0976308
0.0999785
0.102329
0.104149
0.104831
0.323203
0.298259
0.274033
0.250697
0.228425
0.207386
0.187757
0.169726
0.153458
0.139067
0.126593
0.116002
0.107213
0.100135
0.0946933
0.0908222
0.088447
0.0874687
0.087713
0.0889584
0.0909065
0.0931793
0.0953143
0.0967854
0.0970137
0.319195
0.292281
0.266478
0.242077
0.219186
0.197852
0.178145
0.160184
0.144076
0.129891
0.117648
0.107298
0.0987557
0.0919193
0.0867014
0.0830231
0.0807955
0.0799091
0.0801794
0.0813667
0.0831478
0.0851243
0.0868228
0.0877548
0.0874031
0.315033
0.285554
0.258005
0.232574
0.209149
0.187599
0.167863
0.149991
0.134057
0.120095
0.108105
0.098039
0.0898021
0.0832549
0.0782893
0.0748038
0.0726868
0.0718139
0.0719968
0.0729791
0.0744142
0.0758933
0.0769388
0.0771001
0.0759048
0.310112
0.277603
0.248305
0.222023
0.198255
0.176622
0.156938
0.13916
0.123394
0.109672
0.0979434
0.0882009
0.0803593
0.074152
0.0694622
0.0661688
0.0641157
0.0631729
0.0631654
0.0638258
0.0647508
0.0655581
0.0657078
0.0646066
0.061925
0.67944
0.67474
2.04071
0.185179
0.0299303
0.0359254
0.760361
0.0170781
2.38384
0.0369561
3.08279
0.0264311
0.32985
0.0157734
1.01694
0.0451421
5.67342
0.172372
0.0375742
0.609296
0.171732
0.0508395
3.51864
0.0809486
0.0156996
0.018687
0.0158096
0.118683
0.793563
4.86778
0.0407274
0.0219723
2.94376
0.42791
4.39957
0.0240439
0.868629
1.02611
0.985138
0.0464037
3.05348
0.00310545
0.0337093
0.3403
0.133058
0.0848816
3.97419
3.90738
1.07687
1.7613
3.79375
2.19682
0.233818
0.158391
0.720286
2.1885
0.0146057
0.199894
0.0149535
1.65778
0.0355826
1.91194
0.0289934
0.0515054
0.0172849
0.333073
0.0398451
0.153242
0.344558
1.49045
2.08558
0.0664905
0.0201113
0.622945
0.0159673
0.171772
0.727935
3.74121
0.0117669
0.14633
0.388031
0.0539239
0.0188121
3.14535
0.0313531
0.0383292
0.0193432
3.61687
2.91528
0.0686948
0.0839924
0.0510044
0.0464114
0.0276582
0.0218018
3.09269
0.0185662
3.31431
0.00760843
1.57789
0.0747767
3.04042
0.0833625
0.0720087
0.0152155
0.124717
3.5014
0.368657
0.0143993
4.95223
0.0476523
0.0197878
3.99452
0.0703008
0.224518
1.07821
2.13341
0.0445496
0.278145
0.0140896
0.000570931
0.0192018
0.0801017
0.015476
3.04996
0.0316869
2.27012
0.378398
0.0114325
3.90749
0.0181744
0.613367
1.48236
0.841467
0.182914
0.0193792
0.124653
0.0524708
0.0309136
0.669329
0.0636019
0.879891
1.85043
0.00193288
0.96521
0.0600381
0.210675
0.298849
0.0441371
4.84019
0.171952
0.0197679
0.204003
1.32933
0.0162132
3.06149
0.0163726
0.0440973
1.06324
0.0267583
0.0342336
2.28226
0.0347312
3.43685
0.0426829
3.56912
0.0162697
0.0158229
0.0745774
0.0165277
0.0149554
0.0570085
0.159155
3.31426
0.0452798
0.133982
0.378076
1.22265
1.03243
0.0635928
0.617219
0.0205802
0.245314
0.611933
0.30998
0.00941659
3.75705
0.0147255
2.06909
0.0365486
3.07376
1.74248
0.710316
0.832689
1.09939
2.37245
0.0158183
0.0489435
1.0391
0.402445
0.418183
0.09687
0.0489031
0.0391078
0.0945293
0.0365433
0.0409997
0.0805186
1.22624
0.0423991
0.0150795
0.0264411
0.612058
0.0865395
0.236906
3.54074
0.0207618
0.00927244
0.0988383
0.093182
0.0496035
0.00346608
0.0161862
1.48104
0.0582379
2.24219
0.0602989
5.5035
0.0133707
0.0212194
2.92069
0.0242019
0.0199192
0.0143352
0.958386
0.0379507
1.0948
0.0746743
0.655242
1.36518
0.0395692
0.0356427
0.0378288
0.234375
0.0197004
0.0188324
0.023507
0.190395
0.0435373
0.0248905
0.0122986
0.146397
0.0370793
1.13742
0.0148839
0.0156047
4.05184
0.7466
1.08487
0.0380269
0.153969
0.011722
0.0258384
0.0160068
0.631838
0.0151007
0.0337383
0.231347
0.7457
0.015863
0.201002
0.756746
0.00960434
0.00894228
0.0384257
0.23902
0.0426531
3.46097
0.0153027
2.46941
0.398814
0.18834
0.133711
0.0833063
0.998649
0.0364315
0.13119
0.0887296
3.59018
3.29145
1.14848
0.0377498
0.00251171
3.74955
0.733479
3.47635
3.50375
0.0483136
0.028494
1.09589
2.10579
0.0351074
0.0437133
0.0431952
3.80346
0.0348177
0.166163
0.040266
0.667518
0.051753
0.0686117
0.0616593
2.43921
0.0113345
0.00909024
0.839957
4.15166
0.0373437
0.0156925
1.06773
1.00012
0.0268148
0.0446011
0.0393617
0.0198587
0.0149799
2.05497
0.377802
0.0485118
0.202855
0.0419357
1.08177
0.0394601
0.0374038
3.25482
0.0417563
0.0206105
0.0198014
0.00589762
0.151426
0.0269963
0.0260382
1.12187
0.0594512
0.623771
0.0203678
0.037201
0.0144796
0.0188899
3.96132
0.473126
0.0461735
0.00736409
1.02961
3.75408
0.0534047
1.19913
0.320646
0.0356724
4.20358
1.28269
3.6685
0.0192897
2.15461
0.00243741
0.018573
0.0629797
4.12427
0.0245019
1.95298
0.0697566
1.32161
0.822965
3.33516
0.331035
0.0143643
0.0147321
0.0526884
0.023355
0.0372365
3.52575
0.0500595
3.09089
0.386649
0.34634
0.973596
0.0456471
0.594343
3.12653
3.08737
0.392567
0.0356039
0.119832
2.63641
0.573371
0.0367917
0.0333117
3.00376
0.0431555
0.861599
0.0172506
0.0344533
0.0308003
1.41077
0.0249549
0.000206067
0.865191
0.128068
0.448149
0.038634
1.05645
0.0249183
1.03001
0.0296831
0.0237326
0.0306831
1.03743
3.95909
0.0322149
0.0494889
0.0465294
0.025376
0.0710656
0.0917138
0.067375
2.97774
0.00364413
0.0540207
0.0412213
0.0223017
0.0355337
0.0155702
0.0718912
0.0121355
1.03582
0.0579132
0.0480929
0.00155414
0.0146498
0.0336787
0.0265725
1.38195
3.68556
0.366812
0.359732
0.673433
0.0891642
0.890031
0.0147308
0.0115079
3.13969
0.0295132
0.0333878
1.02006
0.0605205
1.43723
4.04636
0.0378012
0.0866848
0.421643
0.0393526
0.299044
1.02486
0.561762
2.60269
0.0177702
0.016694
1.6873
0.0249945
3.17665
0.174392
0.0178428
3.76319
0.0329597
0.0154163
0.37836
0.0676812
0.0164777
0.325132
0.262459
0.24327
0.981402
0.00122189
0.0257798
3.06295
0.0259039
0.0515771
0.07681
1.39563
0.0632227
1.05123
0.0371393
0.0147304
2.41371
0.0236559
0.0182697
1.01957
0.0335647
0.0440018
1.85955
0.0346715
1.0745
0.0262901
0.185746
0.359725
0.469414
0.0370843
0.0356618
0.855734
0.0223635
0.0472585
0.423329
0.0439968
0.0635648
0.00900279
4.11284
3.7538
1.03244
0.0144363
0.231414
0.047968
3.27806
0.623894
0.291066
0.430814
0.0853781
2.80607
3.15937
0.036531
0.068785
0.136297
0.0658689
0.268588
1.46143
0.0147161
0.447912
0.034366
1.11443
1.11912
0.0400402
1.02982
5.40385
0.0490285
3.46211
0.00805166
1.19797
0.0261227
0.0388068
0.0329266
3.7437
0.923807
0.965801
0.011466
1.19167
1.0673
4.16206
0.0160787
0.057913
0.306491
1.31036
0.0423777
0.827538
0.0352898
0.345846
5.15293
0.0367533
0.234288
0.013891
0.0226474
0.174558
2.54541
0.0933683
0.931763
0.0173232
0.0277324
4.15012
4.15251
1.36179
0.0491699
0.184527
0.664186
0.245882
0.0929269
0.0491447
0.0169581
3.01301
0.0478915
0.0352595
1.11304
0.0849177
0.0523888
0.0425268
0.048828
1.18586
0.0619812
0.0141216
0.386718
1.0412
0.0265381
0.0202316
1.18049
0.111623
0.00296822
0.0520566
0.35655
0.0159265
0.0387988
0.036811
0.0805563
0.0279268
0.0359579
0.975956
0.0185579
0.0700483
0.104625
0.217641
0.0137527
0.0373215
1.06109
0.0609451
0.0172631
0.0264062
0.0557087
0.029592
0.0222327
1.461
4.46357
0.107636
2.86966
0.0179668
0.0157462
0.0171889
0.00649988
0.0602107
0.0136229
0.219198
0.0634968
0.0160485
0.0174237
0.941342
0.224578
0.0225158
0.322141
0.046652
0.0334718
0.011321
0.0954527
0.435108
1.40001
1.17553
1.06491
0.0077528
0.0370605
0.00695326
0.090124
0.0367168
4.16691
0.0401903
0.162377
0.0207695
1.39216
0.123836
3.04285
0.00158969
0.0174522
0.0165007
3.37293
1.03026
0.260266
0.236929
0.0213289
0.0391031
0.0289555
1.90574
0.00190122
0.0229842
0.881697
0.0227265
0.0718163
0.0371861
0.00891083
0.225272
0.0498729
0.0192448
0.0323305
0.0287774
0.0508686
1.03394
3.4719
0.0228079
0.916803
0.0320423
3.15586
0.0171315
0.0585257
0.0250574
0.0166382
1.12297
0.0319971
0.0496886
0.0151826
0.14132
0.0159661
0.0795812
0.0681307
2.4256
0.942742
0.155879
3.6772
1.06114
1.47319
4.25284
0.0379642
0.0165773
0.0174713
0.000459309
0.0344707
0.384701
0.0539383
0.0218051
0.315711
0.0446492
0.0407009
0.246574
0.0275126
0.0413704
0.01761
0.154546
0.417305
3.40396
0.0382348
1.17414
0.642942
1.16931
0.168124
3.23833
3.59725
0.260503
0.00870124
0.0412459
0.00104255
0.123538
0.0306997
0.64206
1.06594
0.0546507
1.01498
0.379804
0.0123342
0.0175427
0.0253205
4.40632
0.897157
0.0199945
0.765085
1.34487
0.26956
1.48372
3.84035e-05
0.0233989
0.264784
0.00194648
0.944296
0.475187
3.6736
1.23729
0.0154267
1.25915
0.0126623
0.00197244
0.259621
0.0481069
0.0604707
0.0251712
0.0326055
0.313442
0.0418169
0.0136781
0.0357881
0.0325549
0.201008
0.0443496
2.02705
1.03281
0.0502386
0.439083
0.0560018
0.669518
0.0406781
0.0501678
0.0691963
0.233908
0.206481
0.00239734
0.0660955
3.96787
0.787402
0.608873
0.0328967
0.320285
0.61627
1.26062
0.810451
0.844732
0.0246201
0.0623033
3.4477
0.00658215
0.0170994
0.102683
2.42378
2.02046
0.0203284
0.0259229
1.7636
0.0168488
1.21352
1.18782
0.0646187
0.0198451
3.37478
0.963076
1.35664
0.0390296
0.0215502
0.00575408
0.291271
0.887777
0.0304881
0.01697
0.0193052
0.581539
0.0271379
0.244517
1.28451
0.0382966
0.026014
0.446406
0.0392265
0.237368
0.0196334
0.212513
0.038288
0.0157981
0.610215
0.0633835
0.0558706
0.042787
0.165469
0.231787
3.40975
0.0107991
0.034958
0.0295415
0.948981
0.670792
1.43513
0.0125715
0.417236
1.05389
0.000914258
0.0153218
0.0232299
2.95239
0.0399666
0.754601
0.0537325
0.00164295
0.741568
0.0380248
0.315579
0.305117
0.269953
2.04675
2.28467
4.35631
0.0393462
2.72638
0.886406
0.0667621
0.736579
0.022054
0.0229821
0.481019
0.0307796
0.0868273
0.17404
0.892933
0.0107376
0.00894345
2.57479
0.019919
0.0450037
0.928707
1.11411
1.02732
0.0515155
0.119321
3.6958
3.82412
0.752379
0.236868
1.72537
0.0333607
0.0096559
0.302574
1.03294
0.0394426
0.155879
0.0228899
1.05262
0.0586081
0.517932
1.32388
0.00360831
0.0226148
0.0526131
0.978674
0.983036
1.36073
1.02226
0.0908408
0.130356
0.205318
0.092797
0.993788
0.191821
0.0206048
0.0369406
0.0294555
0.0076483
0.35175
3.17569
0.0183973
1.08469
0.073662
1.09257
0.0453224
0.022539
0.0166931
1.65291
1.45368
0.106636
0.21095
0.0210437
0.0137257
1.10946
0.0417551
1.16647
0.89193
3.42197
0.019306
0.137811
1.11439
0.0453715
0.0803288
0.0472593
3.53109
0.0440701
0.0644892
1.05143
0.913699
0.0165666
0.0889145
0.0394624
0.0638583
0.0172313
0.0154978
0.204989
0.0124911
0.138043
1.02572
0.641832
1.70024
0.0351609
0.119241
0.361232
0.00882494
0.919493
0.0299542
0.0337752
4.08355
0.0525196
0.213831
0.0312079
0.0158511
1.18443
0.0381577
0.131994
0.00826812
0.699801
0.808321
2.1927
0.0159903
0.745129
0.02169
0.171619
0.0462619
1.31414
0.682181
0.124106
5.38193
0.0240051
3.98697
0.0263797
1.14439
0.0533225
0.017156
0.0432998
0.552809
1.05329
0.0149938
0.0515846
0.532667
0.0198737
0.0540914
0.0157954
0.00722134
0.0425737
3.86246
0.0694229
0.0318944
1.321
0.152796
4.35187
0.00755009
0.060149
0.0191085
0.0438382
0.0873566
0.0250825
3.3014
0.0473687
0.321885
0.0214024
0.0954819
0.354767
1.1186
0.0387148
0.0481375
0.0540325
0.0824271
0.0258809
0.166588
3.05053
0.15154
0.185708
0.0198736
1.14556
3.46072
0.121697
0.449043
0.0484512
1.16541
3.76962
4.17953
0.0278096
0.0285146
0.104615
1.40332
0.093825
1.08397
0.0614984
0.221595
1.14463
0.0133757
0.049018
0.0427804
0.0385979
0.0414597
0.0266992
1.02945
0.0376255
2.55128
0.0387832
0.0207479
0.0121589
0.0367496
0.239805
0.0203677
0.675968
0.416688
0.0272542
0.0643383
1.09671
2.9944
0.0206883
0.0288688
0.0664099
0.178783
0.134677
0.116884
2.24538
0.0178316
0.0407927
0.288965
0.0253092
0.0894745
1.1449
0.0193912
0.0187646
0.00243053
0.0308117
0.579123
0.637131
0.709395
0.0428863
0.107049
0.0413492
2.72932
2.93213
0.0363234
0.039589
1.03874
0.0385061
0.0171129
1.18085
0.98127
0.0374733
0.0400191
0.0115016
0.210603
1.18863
0.0231756
0.0110886
1.22673
1.11446
0.00123947
0.0193459
0.0198709
0.074048
0.198051
0.265767
0.0265996
1.22692
0.0299852
0.0649415
0.0235956
0.220036
0.0183669
3.51226
1.06315
3.49115
1.14348
0.87045
0.208341
0.0226855
2.2717
0.254533
0.017734
0.0978097
0.0202424
0.0941626
0.0290029
0.0233992
0.0144487
1.34881
0.015349
0.137757
1.10979
0.0333471
0.123232
0.17745
4.16992
0.0075143
3.65711
3.28164
0.0386311
0.0156717
0.106882
0.135562
0.0922043
0.694385
0.814143
0.0664563
0.015474
0.0398475
0.642727
2.80047
0.0559556
0.0599598
0.0154045
0.017961
0.0455393
0.15771
0.0390045
0.0459457
0.0398239
1.29186
0.0470834
0.111051
4.7112
0.03725
0.148022
0.0953405
0.296144
0.141041
0.143312
0.283301
0.034595
0.37622
1.0898
0.0261911
0.375033
1.01972
0.0340644
0.0564232
0.0681402
0.904225
0.0222538
0.354319
0.049734
1.12561
1.63919
0.40482
1.24271
0.0481679
0.0429951
0.551323
0.657647
0.0543649
0.069591
0.0226813
3.3916
0.0684703
0.119019
0.0134939
0.0835957
0.289888
0.0182184
0.0188519
0.0190339
1.41987
0.500744
0.036104
0.0840939
0.0376385
0.0254829
0.0317239
1.20249
0.0772404
0.465023
2.46762
0.287655
0.000941748
0.786912
0.7923
0.659401
1.26322
0.0317183
0.681637
2.06245
1.39066
0.00593008
1.10354
0.0369318
2.67528
0.0930123
0.0400544
0.359131
0.938717
3.37293
0.517252
0.12241
0.0337589
0.722785
1.68843
0.0817726
2.13126
0.0809594
0.649829
0.0449098
1.30162
0.0994331
0.01539
0.0324819
0.500854
0.0160427
0.0324006
0.647541
0.0216775
1.02913
0.0111226
0.0450761
1.22831
0.682332
0.0630269
0.256557
1.09749
0.0872543
0.257453
0.0994883
0.0527953
0.16903
0.0171766
1.43921
0.460704
0.00843338
3.32489
0.0487668
0.191441
0.0904619
0.0636064
0.0171125
0.176309
0.445054
0.842537
0.0146339
3.04172
0.0235319
0.257119
3.27871
0.149969
0.0747747
0.906583
0.0552453
0.0273062
0.000832294
1.05769
1.80934
0.0302485
2.56367
0.111466
0.0331977
0.76259
0.0450029
0.0267381
0.388442
0.0731925
0.0235686
0.0617174
0.0193227
0.050546
0.0783627
1.65688
1.47076
0.0780844
0.0404789
0.0148475
0.420753
3.14702
0.0242599
0.0120989
0.118495
2.57447
0.0126463
0.608504
0.37256
0.0172044
0.236295
2.37984
0.0225106
0.0976796
0.0351752
0.109503
0.0233432
0.0250478
0.0623441
0.180894
1.63879
0.00866181
2.22426
0.016549
3.18249
0.0475146
0.751431
0.181726
0.671915
1.24228
0.0437103
0.248863
0.084772
0.0627379
0.0640895
1.20087
1.08517
0.0528812
0.0407026
0.191848
0.0674487
0.0276086
0.010883
3.50728
1.43359
0.426783
2.33793
0.0774524
0.017603
0.468987
0.0847943
1.19742
0.00743321
0.0570262
0.0153571
0.0469104
0.0266011
0.0444281
0.032825
0.133377
3.28093
1.36843
0.0425915
0.12951
0.25613
2.16112
0.0278211
3.7034
1.144
1.61867
0.0625817
0.450846
0.0182433
0.0798968
0.0623716
0.0543277
0.0390578
1.16524
3.43197
0.0702989
0.121975
0.652745
0.130097
1.52054
4.00882
0.0430198
0.0112696
0.0430446
0.108047
0.51902
0.0161003
1.32589
0.398871
0.0555271
0.0466336
0.0729708
0.239205
0.081129
0.0163382
0.0497655
0.0239119
0.0673811
0.277819
0.0760245
3.33767
0.0531621
0.036629
0.116202
0.0396245
0.0234674
1.89308
1.57776
0.0347218
1.57148
0.037694
0.783353
0.0624955
0.0849493
0.0219721
0.0181428
1.20695
0.0478136
0.0646605
0.521754
1.0633
0.038435
0.0399961
0.0360237
0.072656
0.954158
0.0163809
0.0311514
2.6377
0.0325243
0.0383777
0.0624006
2.52806
0.0345269
1.49544
1.25441
0.012813
0.556417
0.0657602
0.00763492
3.17467
0.188776
0.0380313
0.000118117
0.243208
0.0504913
0.0923962
0.0165301
0.994759
5.49606
0.0332025
0.0144309
0.998224
0.0555277
0.513231
0.65585
0.0468614
0.362902
3.14438
0.0374158
0.472571
0.0505813
0.052315
0.0791663
0.0245862
1.18344
1.0095
0.0463893
0.0390062
1.77573
0.044179
0.0822888
0.0506231
0.35551
0.809035
0.0173487
0.0256022
0.0394852
0.0259469
0.0173162
1.69815e-05
0.0327191
0.0803954
4.50329
0.256767
0.0299855
0.722324
0.0572386
0.505997
3.35782
0.724788
1.17622
0.0323964
0.000507094
0.254675
0.0822456
0.0425401
1.12898
0.0449334
0.615978
1.42193
0.291166
0.0621693
4.46232
0.0173142
1.43301
0.0296022
0.0286879
0.617253
0.15362
0.502345
0.0388161
0.0259543
0.0112097
0.0665476
1.08384
0.528192
0.0541655
0.99836
0.206879
1.48381
0.0129202
3.05598
0.0460293
0.0374822
0.15631
0.046592
0.206396
1.30521
0.249177
0.0185578
1.44073
1.18036
0.0689662
0.66352
0.286817
0.00659252
0.189272
1.40634
0.0398244
0.0201929
0.0273652
2.1659
0.0289845
0.00862654
1.08053
0.244403
0.0680896
3.17225
0.469703
0.110591
0.107332
0.791854
0.0462723
0.219653
0.0183885
0.0490374
0.0235619
4.20988
0.048702
0.602519
1.52766
0.0156965
0.433986
4.34017
0.0538605
3.11185
0.0208678
0.198011
0.0759899
0.014634
0.0570473
0.0386288
0.0157615
0.0556136
0.0425316
0.0336579
0.029793
1.39108
0.244575
0.0338953
0.187882
0.0246116
0.0283408
0.0202649
0.0452774
0.0506599
1.20896
0.00817875
1.03114
1.62076
1.13864
0.772893
0.0565559
0.0649088
3.53374
0.0260343
0.327659
0.0444959
0.0218705
0.0806601
3.50073
0.0508708
0.0346304
0.0243066
0.0949673
0.0359555
1.0851
0.235138
0.796091
1.44821
0.0253867
0.0198622
0.239233
0.0412571
0.0484777
0.0140746
0.0615728
0.0178452
0.0378744
0.0635434
0.00839686
0.622568
1.69308
0.779923
0.0471245
0.0377735
0.485058
1.54438
1.16174
0.0177447
0.0316832
0.323329
0.0195278
0.0168876
0.0395202
0.982557
0.3447
0.0211054
0.0261978
0.0502234
0.0151773
1.53609
0.0209158
0.0481675
0.046571
0.0454817
1.26396
0.0437479
1.31464
0.0267843
0.0392009
0.0159161
0.0137626
1.31387
0.133746
0.0184659
2.44356
0.296202
0.238468
0.00946299
0.0289059
0.839305
2.98944
3.16602
0.0208727
0.488727
0.04168
0.0395537
4.43578
1.08677
0.0155962
0.0102396
0.570232
0.959078
0.0371035
0.0167553
1.1975
0.0231422
0.0467105
0.0715462
0.0462839
0.242694
0.0417538
0.0368342
0.0434593
1.11461
0.0367288
0.0178356
0.026059
0.0633617
0.0596549
0.0527618
0.196753
0.38982
0.291767
0.0607092
0.0571293
0.038911
0.0120094
0.0421684
0.0274832
0.232475
0.0407497
0.0481771
0.0742717
0.334817
0.0172168
0.0155128
0.0410359
3.57494
0.0391793
0.428932
0.00821785
0.0418445
0.00167674
0.0445542
0.0464722
2.95585
0.0529179
0.0195734
0.144184
0.0369247
1.17487
0.0299917
0.021707
2.45057
1.94371
0.0167963
1.2692
0.0358249
0.586506
2.39154e-05
1.62203
0.0135345
0.926727
0.0274747
1.5328
0.237754
0.724034
3.72571
4.33255
0.0153081
2.28204