/*--------------------------------*- C++ -*----------------------------------*\
  =========                 |
  \\      /  F ield         | OpenFOAM: The Open Source CFD Toolbox
   \\    /   O peration     | Website:  https://openfoam.org
    \\  /    A nd           | Version:  10
     \\/     M anipulation  |
\*---------------------------------------------------------------------------*/
FoamFile
{
    format      ascii;
    class       volScalarField;
    location    "650";
    object      nut;
}
// * * * * * * * * * * * * * * * * * * * * * * * * * * * * * * * * * * * * * //

dimensions      [0 2 -1 0 0 0 0];

internalField   nonuniform List<scalar> 
10435
(
9.00282
8.66823
9.19577
13.6885
6.97724
2.61813
11.7359
15.6713
15.9211
3.06372
9.05898
15.3054
3.26072
2.65971
2.9579
12.9891
2.47834
1.59454
15.7942
10.4023
14.5513
14.9101
11.2147
17.7135
4.81099
3.11267
2.92962
6.53966
2.55753
2.18355
9.364
8.84344
16.0276
2.32691
15.1271
6.26744
14.2781
2.993
3.24531
16.299
1.64611
10.9106
2.2811
12.0996
12.7891
17.0368
2.06608
2.39326
15.9992
15.9592
15.1305
6.25445
3.09378
2.57478
3.19694
2.49551
15.4151
2.88111
2.20363
15.9551
3.04234
8.05413
2.7542
7.17963
11.815
7.30236
2.18
2.56768
15.181
18.4258
2.614
3.09114
1.99301
8.45198
3.43614
2.3216
18.6638
13.0001
16.3451
3.38646
17.7602
7.7057
2.92461
2.52601
18.2844
5.73108
7.17035
11.178
4.27823
8.34117
11.7548
12.2049
9.24307
5.01133
9.43437
5.29659
12.8073
3.33054
2.25829
11.6603
3.75921
4.16233
6.01595
10.3987
3.68993
12.9334
10.7829
16.981
18.5244
4.08791
14.8361
4.68654
6.2761
5.04944
11.2978
13.9452
12.0089
6.78214
10.1271
13.9961
12.5582
2.13909
7.82908
3.25517
6.65531
3.03354
13.4981
2.33934
9.53136
3.28141
2.71241
7.23058
14.2818
2.89545
3.08919
2.28408
4.78204
14.4207
9.57272
12.897
11.7138
10.8315
2.23189
10.9738
15.7856
2.84577
3.95729
5.05001
2.50542
13.39
2.46717
13.8732
8.71598
12.3994
4.42339
2.67323
5.97352
8.78664
3.52879
7.83802
12.7686
2.57042
10.5348
17.1911
4.12003
10.3218
15.8257
15.6357
17.2853
9.55839
5.21354
1.94642
2.66287
3.14721
15.2534
7.71696
7.21762
2.40468
13.6108
2.55856
8.99936
3.08454
14.1667
2.93992
11.8694
2.19951
2.15983
13.6184
6.24948
8.66134
13.7101
2.74763
3.2454
5.68056
5.30034
14.4949
2.44149
4.78434
2.39267
13.4352
4.23554
2.81993
4.8368
2.82106
6.55126
9.62848
10.4353
15.12
2.64563
16.5385
2.34942
10.5571
12.0287
16.8315
2.80479
2.67113
5.06505
2.49136
3.14391
2.3714
2.50737
2.38506
2.38121
3.19557
2.91571
14.5671
3.14942
4.04526
8.27028
2.48471
2.43104
15.3122
3.1285
14.9216
3.24145
2.37752
16.5091
3.05853
17.3262
7.30597
11.1082
2.87256
2.32681
2.52898
10.1619
16.1262
4.39956
15.2896
2.17679
7.27169
2.34269
5.08178
2.80381
17.0509
14.4785
8.00612
2.03267
13.8204
2.48556
2.63965
13.0202
6.16767
3.01006
18.1852
6.22966
2.34195
9.96256
9.6975
2.73147
9.55996
12.0205
16.107
15.231
5.12736
3.19684
14.3022
3.14623
7.36178
13.4474
16.3655
3.37311
2.38786
10.8749
3.55203
6.1614
2.4237
5.65338
3.17823
2.46842
2.42875
3.64016
7.65167
2.53726
15.7587
3.31003
2.61088
2.61016
7.57328
7.8734
7.25687
2.48828
17.6516
9.64718
2.33943
8.40954
2.93778
2.42257
15.9024
7.13217
2.40437
12.2561
2.8794
6.55277
5.26384
15.825
2.54846
2.77985
10.5181
2.46675
15.7594
3.26939
2.69285
7.41215
2.57912
16.5248
4.60829
3.29089
8.25281
2.34785
3.05028
15.9411
2.31113
2.34026
10.3706
14.2092
2.74291
2.47115
2.28136
2.22777
2.55448
3.32043
2.90146
2.90553
2.68397
2.57721
2.66122
2.62327
3.2954
2.42212
16.4927
2.27917
5.11883
2.87617
6.74494
16.5815
16.0713
3.25185
9.24852
2.55855
2.41762
2.35199
3.11147
2.48739
2.57379
2.70305
3.31015
2.68071
16.0934
3.22848
16.2887
3.14846
3.32481
2.55108
15.8008
2.27445
2.99185
2.87124
3.10945
2.48444
3.15455
3.57088
3.11055
16.3554
2.50837
15.761
16.5021
5.29248
4.05052
16.3262
8.05063
15.5401
2.78235
2.15843
2.53997
2.56316
9.2956
2.53272
2.40655
3.49744
2.63025
3.30973
2.42332
2.61495
12.2754
3.0137
16.1196
16.5939
2.18327
3.21648
3.35464
15.637
3.46175
3.23749
2.75128
2.48522
2.55637
2.6205
8.21793
2.61173
3.13392
2.58772
2.16465
1.42392
2.01179
2.1626
15.4725
2.34816
66.4722
66.1848
65.0156
63.0912
60.489
57.2898
53.6199
49.6681
45.6948
66.7798
66.537
65.5931
63.9953
61.8034
59.1048
56.037
52.8009
49.664
65.7116
65.5556
64.8493
63.6031
61.8532
59.6801
57.2241
54.6916
52.3542
63.2891
63.2269
62.7532
61.8543
60.5434
58.8916
57.0366
55.1896
53.6368
59.5909
59.6138
59.3459
58.7594
57.8498
56.6793
55.381
54.1718
53.3793
54.7846
54.8786
54.7712
54.4352
53.8571
53.0923
52.2667
51.5926
51.4095
49.147
49.2936
49.2876
49.1205
48.781
48.3213
47.8564
47.5796
47.7907
43.0717
43.2235
43.2483
43.1611
42.9595
42.6954
42.4726
42.4605
42.9003
36.9767
37.0627
37.0463
36.9581
36.8053
36.6374
36.5486
36.6918
37.2839
31.183
31.149
31.0415
30.8994
30.734
30.5887
30.5469
30.7484
31.409
25.8714
25.7099
25.506
25.2984
25.0962
24.9334
24.8808
25.0591
25.6601
21.1043
20.8654
20.61
20.364
20.1334
19.9447
19.857
19.9701
20.4418
16.8596
16.6733
16.4431
16.2037
15.9686
15.7643
15.6419
15.6826
16.0087
13.2686
13.2024
13.0461
12.843
12.6216
12.414
12.2669
12.2464
12.4449
10.4824
10.5033
10.4087
10.2391
10.0334
9.82729
9.66379
9.59751
9.70448
8.49541
8.52827
8.45043
8.29206
8.09207
7.88529
7.70913
7.60664
7.63271
7.14469
7.13369
7.03467
6.86654
6.66169
6.45039
6.26371
6.13505
6.10209
6.19705
6.13853
6.00803
5.82276
5.60896
5.39192
5.19714
5.05146
4.98516
5.47657
5.39188
5.24024
5.04293
4.82313
4.60271
4.40286
4.24524
4.15411
4.89293
4.80191
4.64395
4.44415
4.22459
4.0052
3.80414
3.63885
3.52711
4.41124
4.32496
4.17105
3.97637
3.76259
3.54853
3.35022
3.18226
3.05942
4.02328
3.94456
3.79829
3.6119
3.40687
3.20097
3.0083
2.84087
2.71043
3.73058
3.65477
3.51348
3.33447
3.1386
2.94219
2.75714
2.59277
2.45792
3.53648
3.4498
3.30601
3.13122
2.94344
2.75708
2.58116
2.42205
2.28616
3.44322
3.31819
3.16349
2.99045
2.80937
2.63349
2.46828
2.31627
2.18138
2.65494
2.70286
2.77597
2.87531
3.00158
3.15476
3.33447
3.53972
3.76946
4.02218
4.29638
4.59038
4.90223
5.23009
5.57167
5.92471
6.2867
6.65486
7.02632
7.39812
7.76701
8.12979
8.48311
8.82354
9.14959
9.46286
9.76325
10.0502
10.3238
10.5883
10.8456
11.0977
11.3478
11.6013
11.8652
12.148
12.4606
12.8163
13.2314
13.7256
14.3227
15.0514
15.9466
17.052
18.4217
20.1196
22.2162
24.7833
27.8801
31.5375
35.7342
40.3776
45.2953
50.238
54.9124
59.0158
62.2871
64.5351
65.6983
2.6131
2.66054
2.73212
2.8291
2.9522
3.10162
3.27711
3.478
3.70334
3.95189
4.2221
4.51216
4.82006
5.14365
5.48079
5.8294
6.18712
6.55137
6.91939
7.28832
7.65517
8.01696
8.3708
8.71398
9.04433
9.36071
9.6629
9.95163
10.2287
10.4962
10.756
11.0103
11.2626
11.5174
11.7809
12.0612
12.3683
12.7145
13.1152
13.5893
14.1604
14.8576
15.7182
16.7896
18.1305
19.8105
21.9061
24.4914
27.6219
31.3152
35.5334
40.1696
45.0437
49.9112
54.4885
58.4908
61.6717
63.854
64.978
2.54198
2.58658
2.65413
2.74589
2.86262
3.00468
3.17196
3.36397
3.57993
3.81878
4.07922
4.35971
4.65851
4.97367
5.30312
5.64465
5.9959
6.35433
6.71727
7.08191
7.44531
7.80455
8.15674
8.49926
8.82999
9.14765
9.4518
9.74282
10.0219
10.2907
10.5513
10.8062
11.0585
11.3129
11.575
11.8525
12.1548
12.4938
12.8845
13.3456
13.9013
14.5822
15.4275
16.4868
17.8207
19.499
21.5961
24.1801
27.2984
30.9596
35.1162
39.6544
44.393
49.0969
53.5027
57.3503
60.4177
62.544
63.6728
2.42808
2.46958
2.53296
2.61938
2.7296
2.86399
3.02251
3.2048
3.41022
3.63789
3.8867
4.15535
4.4423
4.74586
5.06413
5.39502
5.7363
6.08553
6.44009
6.79722
7.1541
7.50788
7.85576
8.19521
8.52409
8.84095
9.14505
9.43646
9.716
9.98511
10.2458
10.5006
10.7529
11.0072
11.2692
11.5462
11.8476
12.1851
12.5737
13.0326
13.5861
14.2658
15.1115
16.1725
17.5077
19.183
21.2655
23.8137
26.864
30.4147
34.413
38.7466
43.2448
47.6917
51.8489
55.4842
58.4
60.451
61.5837
2.28163
2.31992
2.37896
2.45986
2.56335
2.6898
2.8392
3.01128
3.2055
3.4211
3.65716
3.91255
4.18597
4.47595
4.78078
5.0986
5.42733
5.76467
6.10815
6.45511
6.80286
7.14865
7.48981
7.82385
8.14868
8.46275
8.76514
9.05566
9.33484
9.6039
9.86478
10.1201
10.3735
10.6295
10.8939
11.1741
11.4794
11.8218
12.2162
12.6817
13.2428
13.9304
14.783
15.8472
17.177
18.8309
20.8659
23.3291
26.2454
29.6059
33.3566
37.3933
41.5638
45.6786
49.5299
52.9142
55.6566
57.6259
58.7694
2.10507
2.13959
2.19373
2.2685
2.36463
2.48249
2.6221
2.78325
2.96548
3.16816
3.39049
3.63152
3.89017
4.16514
4.45499
4.75805
5.07243
5.39606
5.7266
6.06157
6.39843
6.73453
7.06733
7.39443
7.71374
8.02369
8.32323
8.61201
8.89041
9.15954
9.42136
9.67868
9.93528
10.196
10.4667
10.7551
11.0704
11.4243
11.8316
12.3104
12.8838
13.5803
14.4346
15.488
16.7867
18.38
20.3142
22.6259
25.3326
28.423
31.8485
35.5187
39.304
43.0436
46.5598
49.6772
52.2419
54.1348
55.3027
1.89917
1.92905
1.97729
2.04489
2.13257
2.24072
2.36945
2.51862
2.68786
2.87665
3.08435
3.31017
3.55319
3.81237
4.08647
4.37406
4.6735
4.98286
5.29994
5.62243
5.94791
6.27389
6.59796
6.91782
7.23144
7.53724
7.83413
8.12166
8.40013
8.67071
8.93555
9.19773
9.46143
9.73172
10.0148
10.3183
10.6513
11.0247
11.4521
11.9495
12.5365
13.2369
14.0793
15.097
16.3269
17.8077
19.5759
21.6608
24.0772
26.8176
29.8458
33.0914
36.4512
39.7932
42.9687
45.8266
48.23
50.0685
51.2861
1.65846
1.68188
1.72233
1.7809
1.85836
1.9552
2.07163
2.20759
2.36285
2.53705
2.72963
2.93993
3.16718
3.41056
3.66918
3.94191
4.22742
4.52387
4.82904
5.14051
5.45601
5.77331
6.09026
6.40475
6.71476
7.01883
7.31576
7.60505
7.88691
8.1628
8.43538
8.70828
8.98625
9.27463
9.57952
9.90863
10.2703
10.6735
11.1289
11.6481
12.2456
12.938
13.7454
14.6918
15.8043
17.1112
18.6412
20.4188
22.4615
24.7738
27.3394
30.115
33.0266
35.972
38.8276
41.4604
43.7436
45.5702
46.8778
1.37019
1.38315
1.41207
1.45844
1.52321
1.60693
1.70968
1.83125
1.97227
2.13303
2.31203
2.50844
2.72138
2.95041
3.19553
3.45612
3.73201
4.02137
4.32017
4.62557
4.93582
5.24929
5.56437
5.87938
6.19249
6.50242
6.80751
7.10713
7.4016
7.69298
7.98534
8.28315
8.59127
8.91489
9.25951
9.63401
10.0454
10.494
10.9858
11.5274
12.1261
12.789
13.525
14.3514
15.2887
16.3545
17.5716
18.9586
20.5369
22.3331
24.3659
26.6309
29.088
31.6661
34.2628
36.7523
38.9997
40.888
42.3431
2.81188
2.70613
2.62745
2.56105
2.50129
2.44644
2.39655
2.35253
2.31577
2.28841
2.27347
2.27058
2.27559
2.28284
2.28731
2.28799
2.28624
2.2841
2.28454
2.2916
2.30907
2.33986
2.38722
2.45518
2.55161
2.65406
2.62742
2.58084
2.52828
2.47477
2.4228
2.37424
2.33091
2.29479
2.26812
2.25238
2.24656
2.24725
2.25015
2.25205
2.25185
2.2501
2.24847
2.24958
2.25699
2.2745
2.30612
2.3557
2.42734
2.52731
2.57629
2.55604
2.51976
2.47473
2.42583
2.37645
2.32931
2.28682
2.25133
2.22482
2.20809
2.20005
2.19798
2.19844
2.1986
2.19705
2.19385
2.19052
2.18981
2.19546
2.21163
2.24247
2.29179
2.36289
2.46065
2.51115
2.48648
2.45132
2.40876
2.36211
2.31438
2.26837
2.22666
2.19162
2.16499
2.14731
2.13756
2.1334
2.13182
2.13007
2.12637
2.12046
2.11365
2.10923
2.11118
2.12393
2.15143
2.19711
2.26331
2.3537
2.44579
2.41546
2.37817
2.33539
2.28926
2.24221
2.19675
2.15541
2.12041
2.09332
2.07456
2.06321
2.0571
2.05338
2.04918
2.04242
2.03255
2.02097
2.01133
2.00799
2.01537
2.03711
2.07613
2.13402
2.21462
2.37781
2.34178
2.30138
2.25726
2.21071
2.1636
2.11813
2.07663
2.04121
2.01328
1.99325
1.98021
1.97207
1.96592
1.95869
1.94804
1.93309
1.91578
1.89972
1.88964
1.88985
1.90351
1.93313
1.97952
2.04715
2.3069
2.2656
2.2223
2.17668
2.12934
2.0817
2.03571
1.99357
1.95729
1.92822
1.90672
1.89188
1.88151
1.87254
1.86164
1.84628
1.82534
1.80125
1.77767
1.7595
1.75072
1.75392
1.77089
1.80226
1.85278
2.23155
2.18758
2.14278
2.09617
2.04802
1.99955
1.95262
1.9095
1.87218
1.84188
1.81894
1.80233
1.78957
1.77732
1.76203
1.74098
1.71306
1.68099
1.64864
1.6209
1.60119
1.59125
1.59168
1.60267
1.6287
2.15406
2.11083
2.06618
2.01907
1.97005
1.92054
1.87248
1.82844
1.79053
1.75955
1.73586
1.71804
1.70282
1.68686
1.66624
1.63816
1.60187
1.56007
1.51724
1.47811
1.44509
1.41943
1.39918
1.38125
1.36867
1.71632
2.03386
0.206344
0.734961
1.18405
1.24961
2.88167
3.11765
0.228042
19.9063
0.202549
2.88168
15.3928
0.585084
6.93261
1.73568
0.343782
0.905176
31.5993
0.204593
10.3512
5.07
0.248241
2.84964
3.67304
2.43388
3.65539
0.903165
0.173305
0.310952
49.1564
2.03864
0.295626
13.6168
0.292836
1.16057
12.056
6.77234
14.277
5.97801
0.238062
0.109363
3.47569
1.74831
1.79704
9.54364
0.213488
0.204441
0.158432
0.253661
0.209989
0.201182
14.2282
0.980764
2.91676
0.220004
0.689155
13.4818
1.49447
0.13727
0.993593
0.199605
1.18088
3.65258
3.07023
1.79496
14.5372
2.50758
15.2693
0.225156
0.218375
6.33371
1.53298
0.244819
3.40858
11.1409
0.615631
0.221637
2.58815
1.1826
13.4335
1.22493
2.91757
0.192628
1.10644
1.0582
1.79369
0.221381
0.290703
3.99847
2.30156
9.99611
7.93602
2.88515
1.31065
0.204362
2.33942
0.201049
0.333791
0.134974
1.0559
0.241594
1.07401
7.40951
1.68137
1.68342
0.247517
13.2081
0.724812
0.319209
4.56843
2.08346
0.297269
7.51151
14.2249
0.161121
0.235316
6.73798
15.214
1.81655
0.0102773
2.22235
2.90785
3.5774
0.295845
3.29544
0.206725
0.371296
2.59163
0.20547
2.92052
0.269453
0.21945
15.5621
1.36135
1.77089
1.7873
0.974704
0.955125
0.172807
7.32347
13.0498
0.145946
0.0368125
0.169985
2.11407
0.627238
2.17557
1.63975
0.301672
2.67994
1.34266
0.613162
7.79889
3.71402
0.190509
2.14733
6.10304
1.44566
5.17583
3.31308
0.227436
3.09635
0.204317
4.35367
0.199052
0.640004
3.6025
2.95666
1.89276
0.624004
4.09349
2.40679
0.195217
20.271
1.51527
8.47198
0.214591
0.136825
7.17206
11.5433
1.83088
14.5854
9.63601
2.02102
0.826075
0.201383
0.728008
0.26387
1.26104
0.181213
0.143312
2.20847
12.7575
6.72045
0.278339
3.47994
4.85489
0.166832
0.367367
15.2258
4.81744
1.15159
1.21363
1.30169
8.687
12.9326
1.00481
0.177604
6.98649
1.75711
2.54211
12.3826
1.2598
4.0441
0.242384
1.16974
1.79127
7.34956
3.04481
0.620288
0.133489
3.63879
0.175252
3.21535
0.23252
3.76215
0.343267
0.628799
1.39282
0.187275
1.15102
1.6842
2.36312
13.706
14.3398
2.5816
0.706944
9.86714
6.88607
47.2199
1.01424
3.94294
1.56226
1.64655
2.0493
2.49466
1.91849
1.75679
3.42863
0.518664
1.61399
20.0883
0.172165
1.34188
3.20668
0.295596
0.773169
1.73082
33.7308
2.16202
2.40296
1.41226
3.75907
0.31171
3.40573
6.37092
0.449996
2.69758
3.59304
8.38559
1.94515
0.445967
1.63664
27.6983
0.45062
10.2379
0.273014
0.750089
0.177834
2.00729
3.0284
2.60238
9.37362
0.131831
0.962613
1.67667
2.48091
0.219098
0.187511
4.14553
3.19555
0.0718785
0.21924
16.1207
0.243841
0.267474
13.7675
5.45896
0.133661
0.166958
3.35307
3.25927
1.27048
0.311876
4.66774
9.75144
28.5553
0.174926
1.17055
6.62873
11.3289
0.277872
2.75449
0.381536
13.5954
0.218674
17.3002
3.60318
18.8251
1.38073
3.20672
3.06113
45.9951
1.66575
3.30314
0.231775
12.9935
15.4476
13.0663
4.51465
6.68594
0.567717
17.2069
0.2182
1.09476
2.48209
2.88778
0.258105
2.28408
2.46411
2.97791
0.120548
13.039
0.357699
1.14732
1.05642
0.948153
1.84436
0.20598
4.20342
7.5602
0.180595
1.80256
0.220801
3.27901
19.4648
1.78059
3.69065
0.207816
0.185971
0.25135
3.33126
0.230292
0.103222
1.98902
2.88483
0.221499
1.61059
0.261189
10.6268
7.90405
0.206173
0.299313
15.2654
3.05556
2.6948
5.65191
4.19671
16.5926
0.274663
3.4408
0.300764
1.90738
1.84291
17.8135
4.53177
0.211886
0.210014
0.180965
1.59193
7.84182
2.39241
0.281427
10.7336
25.0682
4.2758
0.30298
5.71311
0.184466
3.06222
3.68512
1.12728
0.319191
3.00385
0.106364
4.14131
2.2231
7.0902
44.3611
0.242029
1.4435
0.125488
0.97121
3.01549
3.05676
0.147107
0.20654
4.45887
9.83455
4.45178
4.58245
3.41852
1.03618
3.24016
0.190949
0.161547
3.47357
36.9604
2.10051
1.17006
2.98822
4.0545
2.59987
3.52006
2.73773
4.69257
0.0455322
0.993271
2.46001
5.25867
7.09194
0.223745
3.12701
15.0388
0.12293
0.783984
0.149913
1.78933
2.62862
0.288803
2.90176
2.94254
0.129513
12.5367
0.228122
0.204471
1.00566
2.27395
0.606943
3.38014
2.07155
0.343893
12.3666
0.18269
2.50852
1.43957
0.186859
4.95164
0.214353
2.03161
2.2813
0.259203
2.50088
3.49027
14.0915
5.19872
2.46036
2.53189
3.46439
3.79703
13.1971
0.125746
2.93681
0.190184
1.16773
1.16347
6.16999
0.541481
6.86032
6.98017
2.48834
2.93637
0.268155
1.6754
0.993782
7.02778
0.9771
6.56183
0.255813
3.42739
3.77005
1.14836
1.32898
8.98484
13.3406
1.15629
1.30836
3.82229
2.34492
4.24033
12.978
19.6937
5.68944
0.751648
0.222343
0.314998
0.143729
3.0832
1.39937
12.8061
0.188104
0.198985
0.221774
13.873
7.43872
0.18569
0.253373
8.91181
4.52699
1.45639
7.5051
0.306145
0.187702
1.69477
4.5679
3.72297
0.14637
0.173247
2.5453
18.5757
0.329627
4.79501
0.242819
0.197232
0.158736
2.65582
0.550863
1.00695
0.284164
12.236
12.0098
2.65056
0.178558
0.149977
0.219916
3.7244
10.8436
15.5318
0.181814
34.7635
14.766
3.77687
14.67
0.313766
25.1614
1.56741
1.72619
2.17497
2.1097
0.278728
7.29126
8.66097
1.22487
1.1499
0.309921
0.210331
0.187192
0.634799
2.08788
0.15976
14.8971
4.59938
11.6394
3.06229
0.304389
4.5304
1.22326
18.7544
4.69097
1.46979
1.2361
3.66646
7.29262
10.5863
1.46645
13.8832
0.143616
1.1707
1.84798
0.125487
0.854484
0.136792
3.34112
0.41174
1.29329
0.981768
26.434
2.72978
2.76403
3.57018
13.4312
2.21502
2.8487
1.50256
12.986
2.44637
1.11179
0.148844
4.29842
2.88696
3.17511
14.7883
1.18914
3.03428
0.13005
0.212887
0.866777
0.300064
2.9496
3.43493
2.51244
0.423113
2.18359
1.70281
11.0537
3.43577
3.47716
1.4333
6.34634
1.6341
0.442261
1.73471
4.54005
1.22458
1.65297
2.1109
4.05223
0.128486
7.30715
2.01339
0.687333
19.5516
0.168004
7.52845
29.6094
0.211187
38.374
5.31968
2.3322
0.186572
1.53593
0.197354
0.0280048
2.49924
3.10661
0.268647
0.161238
1.60833
14.5756
3.02257
21.213
1.13536
0.157475
0.112824
2.9578
14.3713
1.27659
10.7908
16.0586
0.420095
13.3724
3.02858
2.84889
6.17973
0.441576
5.40406
0.181269
0.245362
2.27851
4.74846
4.06925
0.213647
2.98971
11.6055
3.24656
2.31143
18.7388
0.949825
4.47977
1.46025
2.50485
1.477
6.39562
7.36902
0.16171
7.16015
2.93021
0.201608
5.58423
0.416438
0.283154
28.2075
2.21778
2.69484
0.129841
2.27706
1.93568
1.75818
1.39855
15.3653
20.0889
42.9681
1.74695
2.84638
29.3079
2.82806
3.09401
12.6708
0.262211
17.7421
0.154105
2.00528
0.211936
5.10208
0.250139
0.21778
0.310594
1.72163
1.51533
0.0824969
2.59997
2.85799
15.34
0.422788
13.4319
0.940215
3.55615
2.38733
2.94061
1.20354
0.210428
0.139485
2.54391
2.33791
7.88383
14.2031
0.18686
0.0637964
3.40217
1.81623
0.139958
0.703639
7.95413
0.257871
7.57518
2.90764
7.68222
1.09267
0.186416
1.71049
1.42251
1.00732
4.77603
3.52916
2.67537
1.45365
2.26739
3.46643
1.95755
2.33837
5.11826
0.16835
5.71296
4.79815
4.10508
3.87853
0.181572
1.23304
17.3505
10.1765
5.80959
3.72189
0.170304
7.38378
0.207866
0.132362
2.46893
0.943918
3.21175
15.3392
5.25796
0.130773
14.2333
0.67461
12.645
0.240155
0.250822
3.10045
1.94561
0.281001
0.207
1.75933
1.07826
0.250014
2.71714
0.160775
0.183407
7.24862
1.65207
0.267043
0.261363
1.08403
4.42049
4.18769
0.3546
3.67418
11.7012
2.99439
3.05903
0.890614
2.66498
2.31039
1.8244
0.572384
18.8904
2.76759
0.124045
14.8488
9.9496
1.77049
5.72219
8.06965
3.22804
15.2493
6.15452
13.9726
6.50107
1.78827
9.1975
0.218134
1.50654
7.80585
2.72785
8.06776
0.174956
0.174188
1.2971
14.5953
6.39373
0.119491
2.8855
0.694064
0.186665
6.80187
0.236013
2.2076
0.0694367
8.09319
1.44539
0.200908
0.198577
2.33015
0.161742
0.157447
0.211469
13.8916
0.29473
9.63453
11.6521
3.16834
1.37593
0.675754
0.449186
0.970229
3.23302
4.04239
0.137158
3.26467
3.09364
0.288048
0.717652
1.27932
6.56167
0.246885
17.9084
13.1886
1.74893
0.200725
0.266814
16.4325
11.361
0.267944
1.18554
0.828541
1.7989
0.138628
14.1139
2.81342
1.2603
0.176586
2.34308
4.08685
1.35236
0.0789079
0.831504
12.0521
0.122951
17.1026
0.176406
0.161204
5.90622
0.937755
1.35449
2.52041
0.493386
13.4733
3.65707
1.09316
1.06648
0.750102
3.62651
0.215641
1.22851
0.137492
10.6044
2.99182
18.839
1.29419
3.19137
0.200957
0.194172
0.838231
7.49701
2.35105
1.09523
4.20757
40.6028
19.5013
16.2929
0.314236
1.91273
2.67624
3.88314
1.54073
3.98894
1.14656
0.319834
9.34662
0.985629
3.2399
4.38632
1.40125
2.30773
30.9742
6.52834
1.12678
1.02418
11.4784
1.03928
1.67351
0.133289
0.194985
0.20507
3.34113
1.83155
3.17269
2.97388
0.166425
1.16927
0.723289
0.311965
2.01516
1.7897
1.17974
3.45157
0.17386
13.2668
2.80697
0.507569
2.32
2.47299
0.241971
3.61974
2.30596
2.30182
2.43564
1.91738
0.153274
10.7462
2.43319
0.334098
2.26354
0.208897
1.30118
0.18079
1.41088
3.02003
9.02612
4.10862
6.17818
1.45026
11.3026
0.370105
3.94075
15.2858
3.43052
0.416471
2.73766
0.206681
2.93979
2.24112
7.58576
1.49346
0.211056
0.668177
11.7606
1.55869
3.30349
3.85397
0.755946
0.269667
3.31046
1.70568
4.03363
2.26732
1.5479
0.139476
4.68374
10.9038
6.7653
3.62183
4.05678
2.78068
0.182292
0.948434
3.94512
2.34775
4.29413
0.318504
1.35495
0.705253
1.67351
0.23441
0.25416
0.209398
1.01959
1.02434
1.56181
0.183247
5.81014
0.152855
3.62425
1.96763
0.326119
2.65842
5.37854
1.05898
13.9463
49.2354
2.96902
0.285822
22.118
0.285422
8.59644
1.81193
1.05846
18.1983
13.3115
2.19887
0.187132
8.81583
1.13743
3.22905
0.177162
0.19383
3.93678
3.75488
6.83126
2.74728
1.29182
1.5309
0.17052
2.41526
11.8036
14.8492
1.1464
1.34495
4.89846
2.1898
1.95268
0.165083
0.527612
9.97071
0.122573
2.12687
11.6826
1.37851
46.1018
0.249615
0.244845
3.58936
12.541
1.0632
7.13508
1.09602
3.34383
0.236794
2.59989
10.7512
2.33717
1.36151
0.436473
3.01845
3.28801
0.882391
0.14347
0.152808
1.69507
2.97714
10.3043
2.19936
14.6143
1.9274
4.6129
0.975816
11.4001
1.20052
12.3976
1.4157
0.223674
0.421754
0.314953
1.00024
16.7491
0.488336
2.30592
0.227261
12.2948
2.96781
2.79945
1.36102
1.40944
2.87688
1.33745
2.26389
0.187934
2.95157
1.33449
4.36435
0.689928
1.73053
2.33818
0.208787
0.5682
0.224668
0.203282
0.945739
1.06343
1.85831
2.40738
2.13363
3.10035
0.133215
10.6029
3.19205
9.21184
7.26509
0.2453
1.96373
4.75041
2.65233
3.14823
1.23491
1.17291
13.2125
0.901233
0.844914
0.190986
6.19466
2.02632
0.316354
1.51242
1.75746
2.19045
0.205145
1.69868
2.80319
15.5014
3.41622
0.141527
0.144175
1.08278
2.9269
6.14873
4.02902
1.25005
10.8732
8.90545
2.4407
14.4754
9.8935
4.65728
0.263264
0.358313
0.1926
2.73995
1.08824
0.430708
2.59579
1.4722
5.79116
2.27161
0.233156
11.3458
2.04847
2.23867
7.1465
1.67791
2.1863
1.51949
3.63681
0.179729
0.376688
23.7255
8.5469
41.58
2.58858
1.15573
1.4541
8.93323
6.68526
0.28433
0.82954
0.106675
1.72456
0.216858
0.183782
0.246387
0.790843
15.8586
0.216408
0.132002
0.446902
0.14948
4.80939
0.243014
2.29822
18.0004
14.6517
7.27638
0.199845
12.9769
1.29519
3.23888
2.44109
0.229718
2.96318
0.216349
5.53192
0.188784
10.7715
0.173143
1.42211
1.65358
1.33551
0.274807
2.69197
1.18918
0.152214
2.49261
0.154768
1.11845
4.02601
19.3855
2.10318
4.70668
14.2011
6.46004
5.39158
10.2993
2.78002
13.8732
1.58996
2.92772
0.284253
14.5668
1.56898
0.248452
16.9788
11.1884
2.83834
10.3851
1.23107
11.6336
3.46765
5.74749
1.07497
0.183309
2.99109
11.0319
0.222096
2.42803
5.66966
17.3308
4.35182
3.14778
0.0685909
2.77363
0.237968
0.965859
0.274392
1.93253
1.25777
12.9631
4.35503
2.67892
14.6274
9.73227
3.00352
3.15677
2.37163
4.67071
9.92464
0.282501
0.19892
2.93441
8.89337
1.83039
14.3994
0.198416
1.20837
2.30342
1.47085
0.265092
2.09894
11.7882
14.9849
2.99347
12.0487
0.229237
1.42233
2.78617
6.98412
2.61169
1.2263
2.7448
1.50646
1.24318
0.219019
0.250796
0.251001
3.5365
0.201198
4.23655
8.65479
3.19976
0.165158
0.187567
1.00349
4.20743
4.19137
5.38583
2.79155
0.16161
0.141177
10.3721
4.07405
2.39967
6.15214
2.75745
1.04402
0.245242
0.137038
0.501983
0.248855
6.73445
2.68814
14.3289
2.82999
0.189894
0.470433
1.28766
1.77069
11.6806
1.05756
16.5042
0.9706
2.79369
0.277508
0.181378
13.4789
1.71313
2.84243
0.22481
2.07411
0.322304
0.411583
0.138431
6.65754
0.446172
2.82769
8.11659
6.91974
1.26764
37.9683
2.17451
0.317183
9.92213
1.18216
0.154252
1.79174
0.217414
0.205351
16.0643
2.33277
7.34596
1.31789
13.4671
3.23985
0.188565
1.93959
6.28538
0.773965
4.59094
1.6254
4.70942
1.44843
6.58625
1.20467
3.47545
11.4214
9.72286
0.305426
1.7883
3.60268
2.65774
0.69339
2.9667
0.217429
0.221071
2.14267
0.207682
16.4099
2.08523
6.49368
5.80623
1.58425
2.31996
0.159606
6.44195
4.2944
0.122998
2.71015
41.1534
10.2148
8.51547
6.09869
3.14866
1.08115
3.08498
0.266984
0.958715
14.8547
6.23637
0.284717
0.948899
0.19626
0.22416
3.05872
0.119233
5.68033
0.503145
0.255759
2.72072
23.2427
0.00215603
13.7959
1.02584
5.61785
3.63824
6.41745
0.340655
1.01115
2.28625
0.128284
12.4985
4.75912
15.6003
4.35734
2.06674
0.20118
37.6141
13.7018
6.13077
2.25752
7.03465
1.34283
0.175392
0.134754
4.20384
12.9094
0.205742
4.4737
4.40348
2.89682
2.08006
13.6753
2.87064
1.18697
12.2103
3.14809
2.69896
0.0133121
0.635225
8.4418
0.334871
13.7895
1.08347
15.7371
1.44184
2.36534
0.201691
0.207647
0.130007
3.13615
0.155541
12.8491
7.63217
3.82344
0.164853
1.96833
0.120759
0.195531
15.3521
6.62692
0.213227
2.29629
0.171102
1.08985
3.43319
0.12555
1.43081
2.84994
3.69745
3.74136
2.51548
7.09215
6.86433
6.49855
5.65865
0.850014
1.76741
0.207057
2.6331
0.255693
4.41104
8.19893
1.68138
9.66709
12.1142
0.124126
5.02989
1.89023
0.358652
4.7532
3.06769
0.179289
3.80283
0.519683
4.81612
0.149124
35.0999
0.764176
1.11599
0.245494
2.97071
2.49127
3.9336
8.52662
0.631278
0.244471
12.3868
1.90537
1.13798
3.3538
0.852398
4.04143
0.939147
5.53686
1.85487
0.322227
1.34933
11.4171
0.205736
3.76709
1.67368
0.318376
6.29335
0.197895
2.92839
3.19657
4.17121
3.17162
1.93072
13.001
1.42361
5.64884
4.83454
0.953651
2.37777
0.22359
6.77549
1.10733
2.3549
1.19466
1.07273
1.86153
4.03249
2.03934
5.9796
2.55365
17.5049
0.227211
5.05547
0.517731
3.21645
5.8566
0.222291
2.71083
2.55211
4.39205
2.86877
2.60476
0.199167
4.71163
7.50926
1.17303
1.34481
0.516218
4.44134
1.45256
14.6848
0.661972
1.87331
2.68071
0.71121
21.8601
1.29427
2.11253
0.928959
2.87104
42.774
6.76627
2.45016
2.84786
0.225314
16.2252
0.742725
13.9954
3.58141
0.136919
0.157692
2.09297
2.39315
1.88078
3.15094
3.168
0.666779
0.121399
1.89649
1.61796
3.13367
3.90291
1.8815
0.210273
2.97517
4.42134
1.0945
11.486
0.170014
7.12499
7.60446
3.04499
0.891872
2.75477
1.14461
0.160632
2.01994
1.50113
0.235226
4.56562
2.43403
2.0085
3.1996
6.13732
0.260129
0.241902
2.09566
0.331146
7.13048
22.635
0.329372
0.145907
3.72041
0.656738
2.7223
3.06952
16.0487
2.91477
0.155695
1.57633
3.28984
2.86793
5.70597
0.56109
8.401
4.12246
4.38536
0.741017
22.7315
2.51207
1.16868
11.6887
1.18629
1.42326
12.5454
3.62576
1.5452
6.28414
5.70497
36.6229
3.12802
4.27679
1.05232
7.57816
6.03385
1.43649
3.02613
1.71681
2.03311
3.01964
4.13965
0.227416
1.14671
2.55376
0.206225
11.8516
0.0522034
4.45429
6.70805
0.193411
5.21024
1.56248
2.836
17.1469
5.20249
1.1392
3.19344
0.278338
0.246289
3.19619
0.167456
7.60728
3.17835
0.0595143
0.273888
2.62143
16.3561
2.87946
0.189245
1.43553
9.26728
0.202263
0.214978
1.34923
0.243804
2.59925
3.4237
1.93198
0.176469
3.01157
1.73257
1.02213
0.191547
0.270075
6.97191
0.253069
2.8306
3.90999
1.10395
1.62446
3.14173
5.67123
3.23697
8.13689
11.2188
2.98897
5.45061
0.302426
2.49438
11.1316
0.207254
1.78223
2.70914
2.88645
0.138884
6.38392
3.66469
0.208145
5.17997
0.177047
3.60238
2.57982
1.76978
0.283485
0.936872
5.58762
3.67046
3.25877
5.32262
4.07393
0.235659
2.31988
13.0638
0.596016
0.63548
0.162425
6.77015
0.767622
7.38456
3.5661
1.70394
2.90456
15.0857
0.438568
2.74572
3.23739
2.62351
7.4104
1.12683
4.36665
1.41826
0.716089
10.0523
10.0287
15.0873
0.798775
11.9863
4.74647
0.0317281
7.07711
14.4991
3.32087
1.56433
1.19599
2.77964
1.55082
1.1019
4.7643
7.29502
0.282214
0.283166
0.156926
0.756362
0.0408537
3.07564
5.4455
2.28716
2.77076
0.224217
7.857
0.194509
1.75288
0.18901
4.84449
2.14455
2.2256
17.9238
0.315493
4.29866
0.214189
2.75735
2.64749
2.22528
0.206333
5.73846
1.04895
2.26512
3.11735
4.90438
3.08739
1.51831
1.17613
1.17159
3.07153
0.201604
7.24517
3.6293
10.8235
3.17687
7.94369
0.182511
0.0359892
1.04988
2.8604
3.27801
0.682391
1.45539
0.149077
1.27899
0.887752
4.94071
2.42478
1.06715
2.5428
3.24581
5.79365
0.15947
0.612703
3.54461
7.84141
0.130213
2.51765
3.4389
0.598732
3.1806
1.34999
1.70968
14.5373
4.08808
52.8451
2.03749
8.14024
0.16408
19.1432
0.503014
1.35579
14.9291
0.241469
0.613141
1.41006
2.79163
3.9454
0.19414
0.248354
5.09647
4.41658
10.0776
4.15058
0.250631
0.135725
0.251809
0.135224
0.487986
0.514958
2.88251
0.68015
5.75433
4.97959
2.5794
2.07334
2.08832
0.208605
3.72505
5.79589
0.225761
0.141237
0.622778
5.2637
0.878059
0.299081
0.173336
0.771739
3.18808
1.64297
10.3138
2.1405
5.41386
3.57806
0.00623104
4.26137
1.72324
1.1985
1.61332
3.47793
12.2619
2.96161
0.260885
0.893838
6.15198
2.74714
7.35454
2.0131
0.184124
1.60889
0.202875
3.188
2.43683
5.28729
0.150556
0.950803
1.87061
3.13209
0.243817
1.33207
2.7971
15.3178
0.0500188
2.33228
0.848866
0.502772
2.64071
12.0607
0.245313
2.8047
2.22838
0.203138
2.6499
7.70135
6.53391
2.7506
5.38608
11.7872
0.196679
13.3081
11.578
1.89942
0.201654
7.22751
8.06652
3.16902
1.20597
14.9004
3.28148
0.976567
2.59771
6.46532
0.245525
3.47345
2.89581
2.42132
0.262099
3.0965
0.153551
3.68055
23.9439
0.837838
2.52691
3.29479
0.213603
14.5643
1.52503
0.925102
0.871538
0.206525
0.205327
9.99743
2.99987
1.30036
2.15198
2.63933
2.96891
0.974451
5.9397
1.17421
5.59792
0.215559
12.4359
0.29527
38.6205
1.73182
0.314899
0.806808
4.80995
2.62914
3.16152
1.35263
2.74444
2.3672
3.00658
4.28161
3.80297
1.81279
2.74519
0.235844
5.78422
2.40046
2.85784
0.145505
0.254146
0.244076
0.245378
0.122923
1.89377
0.0602635
4.34742
2.02946
2.07391
0.225774
1.12972
2.39461
0.580886
10.9028
10.804
4.4761
5.21379
2.08153
3.16023
0.8767
0.159444
1.46597
0.254673
0.195926
0.986948
1.7876
5.54843
9.42152
0.88173
3.39934
4.94138
6.06921
3.79256
1.98215
3.06835
0.518669
0.192412
4.76753
4.82069
0.163223
0.262625
0.238376
1.61511
17.4741
0.158605
2.98665
1.34062
1.14669
5.92639
3.11439
2.95278
0.292161
0.216296
1.35792
37.0531
2.88377
0.239415
2.03562
0.28955
0.254244
0.164802
0.26276
0.141614
4.21368
0.275246
9.96996
14.7549
0.338049
0.167667
0.161306
0.669118
18.083
0.259106
32.9373
0.25003
2.77895
0.231504
1.32776
1.92182
0.193641
8.67212
0.216708
2.6394
3.33059
11.6591
4.29442
1.34764
1.65588
1.02104
2.60872
3.18509
0.500158
1.42257
5.06527
1.79051
40.6688
2.45551
0.489113
3.0051
1.86735
0.294532
9.75798
3.81035
5.3564
3.66342
6.2062
0.407793
0.284774
0.129175
0.270414
6.22353
33.5267
3.37177
1.48815
3.03708
2.43907
1.45808
4.23591
0.855656