/*--------------------------------*- C++ -*----------------------------------*\
  =========                 |
  \\      /  F ield         | OpenFOAM: The Open Source CFD Toolbox
   \\    /   O peration     | Website:  https://openfoam.org
    \\  /    A nd           | Version:  10
     \\/     M anipulation  |
\*---------------------------------------------------------------------------*/
FoamFile
{
    format      ascii;
    class       volScalarField;
    location    "650";
    object      p;
}
// * * * * * * * * * * * * * * * * * * * * * * * * * * * * * * * * * * * * * //

dimensions      [0 2 -2 0 0 0 0];

internalField   nonuniform List<scalar> 
10435
(
0.0197612
0.778677
-7.24111
-2.7026
-3.70933
-5.82418
-7.13063
-10.2781
-13.6298
-6.9334
-0.18657
-7.7994
-7.52912
-1.28373
-1.15715
-10.4264
-1.45396
-7.07916
-16.8733
-0.0129563
-9.86527
-2.69517
-9.31448
-12.019
-7.49909
-2.27559
-3.271
-6.8313
-2.71325
-7.32432
-7.70726
-0.483497
-11.4953
-1.84055
-12.8553
0.741155
-12.6929
-4.58166
-1.80818
-15.1802
-6.22786
-8.33091
-0.951895
-0.982432
-11.0257
-15.0119
-6.30901
-1.87952
-14.8684
-4.7181
-10.7736
-7.87293
-2.72297
-2.87565
-0.928595
-2.66777
-14.4482
-2.81989
-1.78931
-11.5011
-2.31997
0.917985
-2.38988
-5.19697
-10.4129
-7.78738
-1.85621
-2.30684
-9.21173
-10.4733
-1.97696
-3.11619
-0.329721
-8.92296
-1.10586
-0.476693
-5.86517
-6.1703
-10.247
-1.0998
-6.65841
-0.612542
-2.3239
-2.27288
-7.83163
0.199483
0.213022
-0.587366
-0.169568
0.279534
-1.28848
-1.99804
-0.765316
-0.267292
0.284228
0.489772
-3.52173
-0.642674
-1.19954
-3.90326
-1.5122
-2.97709
0.0293193
-0.0498981
-3.5255
-1.76709
-1.08316
-5.49468
-8.12403
-0.863805
-3.43059
-2.10868
-0.615718
-0.895001
-0.707528
-1.71578
-4.92077
0.389828
-0.291242
-5.74206
-4.8845
-0.218805
0.504663
0.0353996
-0.484919
-2.23669
-4.76206
-0.224921
-4.07197
-3.1654
0.0608878
-0.000767055
-11.5239
-1.18378
-2.55248
-0.464129
0.575893
-3.49364
0.211654
-0.988537
-0.424258
-11.7694
-1.60663
-6.59961
-3.47256
-0.748455
0.464865
-6.25258
-1.23758
-8.42361
-1.83301
-11.083
0.0374779
-10.3266
-6.12826
-1.79533
-0.955848
0.497468
-6.74728
0.470516
-11.1304
-1.25531
-1.28001
-6.57907
-0.77554
-6.66002
-13.7471
-5.85323
-12.6426
-9.04621
-7.34807
-1.07446
-4.00663
-0.649852
-9.00354
0.779998
0.871634
-1.79552
-2.4323
-1.98562
0.355752
-5.33336
-9.86563
-2.50132
-9.88235
-0.848521
-1.25389
-7.61425
-5.16445
-7.22401
-8.00423
-1.94264
-1.60009
0.773861
-1.5728
-8.1019
-0.908817
-0.0558889
-1.68383
-11.6069
0.0587673
-1.14523
-7.10018
-2.23495
-7.42547
-2.62529
-1.00929
-4.8255
-2.65948
-4.74176
-1.13977
-9.34578
-6.72056
-7.94964
-2.21023
-1.12476
-0.745126
-1.27035
-6.62976
-1.34516
-1.99665
-2.14715
-1.65647
-0.223923
-2.32307
-12.5161
-6.09927
-0.262151
-9.40733
-0.585071
-1.85609
-11.7994
-6.03688
-10.5008
-3.05832
-1.42839
-11.1448
-3.73862
-11.788
-8.02897
-0.415332
-1.99799
-1.31941
-2.66332
-3.71994
-12.2614
0.275004
-7.15743
-7.32819
0.839745
-7.292
-0.580076
-6.93786
-5.95601
-5.30829
-3.32357
-9.64709
-4.56208
-1.99993
-2.25304
-4.78326
-8.00534
-3.258
-12.183
-0.237134
-1.29368
-0.0179308
-9.18401
-1.56255
-3.77962
-5.145
-6.22521
-4.71095
-8.17533
-7.63539
-6.26549
-1.5088
-2.8762
-9.49533
-6.82028
-6.74655
-1.57033
-5.16647
-1.1033
-0.216819
-1.30143
-5.10176
-5.91645
-2.0658
-2.45492
0.221318
0.18213
-2.77204
-5.35844
-5.62827
-8.52328
-0.927469
-0.0390409
-1.82847
-8.57364
-1.94451
-9.36688
-5.21769
-10.3333
-1.362
-1.01553
-0.997624
-9.89685
-7.99451
-1.98752
-1.76747
-2.89991
0.824842
-5.79277
-16.953
-9.5931
-1.24163
-7.99218
-2.0256
-6.45498
-4.30475
-3.94988
-0.0180468
-1.52324
-7.34912
-7.26334
-9.07875
-5.52669
-1.7179
-2.99601
-13.2958
-2.35335
-1.95517
-6.48265
-9.96492
-2.64943
-2.183
-3.59113
-1.31634
-3.33755
-10.0897
-1.83737
-1.96248
-7.50191
-11.9347
-3.07914
-2.44343
-0.481375
-1.24562
-10.637
-1.62683
-7.74896
-6.88793
-5.98994
-8.53689
-11.7461
-6.79838
-8.99929
-2.72904
-1.87753
-4.10081
-1.84575
-2.44673
-2.14237
-4.0653
-10.3191
-2.92336
-9.07616
-1.90001
-12.6788
-2.08118
-10.8178
-7.2968
-13.1577
-1.09774
-8.61389
-4.23934
-3.98328
-1.94214
-2.23188
-10.4607
-4.58408
-9.41828
-2.12543
-7.49485
-9.10641
-6.40936
-6.87475
-10.8895
-6.39004
-12.5394
-0.0781479
-1.53148
-2.39799
-1.17555
-6.04677
-2.17808
-7.24416
-10.5776
-2.72191
-14.2497
-1.4547
-2.39358
-7.50324
-5.07634
-8.39464
-8.67641
-1.11488
-2.10037
-7.62325
-19.8568
-8.36153
-1.92602
-3.02277
-2.40909
-1.75687
-2.19875
-7.27633
-5.93773
-3.56274
-2.76751
-1.0458
-7.77918
-0.914169
-0.786797
-15.563
-1.47301
171.431
45.9853
77.906
53.3183
52.8323
40.9795
35.7803
29.6678
18.9564
150.122
44.2586
65.6295
46.487
45.8751
36.8449
32.3773
27.8195
22.9121
123.188
38.1168
53.7949
39.9238
39.0185
32.8589
29.3452
25.3691
21.1298
97.6568
28.0388
41.2529
32.4804
31.9709
27.904
25.3253
22.346
18.9623
73.5482
17.6801
29.2115
24.7175
24.7672
22.4531
20.8714
19.0253
16.4488
50.2593
9.98211
18.5868
17.4314
17.8733
16.8737
16.0752
15.0178
13.5549
28.637
7.06182
10.1448
11.2079
11.7374
11.6482
11.4386
11.0265
10.4034
10.2268
6.44903
3.73885
6.18883
6.6311
7.12203
7.31196
7.38819
6.38219
-4.23764
4.27744
-1.30567
2.24754
2.67125
3.51933
3.9606
4.25079
4.27798
-14.3896
0.789302
-4.87026
-0.573351
-0.0901289
0.945928
1.54433
2.01618
2.26025
-21.2037
-2.45094
-6.7774
-2.24419
-1.71839
-0.663335
-0.0259961
0.489585
1.05539
-23.8497
-3.0892
-6.81506
-2.81378
-2.38754
-1.47812
-0.921475
-0.506522
0.506441
-21.1207
-1.30445
-5.2163
-2.54393
-2.37399
-1.71396
-1.28175
-0.871412
-0.402031
-17.0869
0.580766
-3.37945
-2.0001
-2.06043
-1.64259
-1.32158
-0.936042
-0.711138
-13.9349
1.46722
-2.00867
-1.53915
-1.71805
-1.47981
-1.24337
-0.931053
-0.65005
-10.7547
1.51107
-1.19178
-1.27956
-1.47013
-1.33415
-1.1465
-0.895147
-0.577505
-8.4315
0.674802
-0.954843
-1.24278
-1.35025
-1.24363
-1.07108
-0.862456
-0.429724
-7.40087
-0.900465
-1.26046
-1.38183
-1.33535
-1.20162
-1.01861
-0.811537
-0.447762
-6.5749
-2.2315
-1.61642
-1.53179
-1.35446
-1.18766
-1.0016
-0.80183
-0.557646
-5.55424
-2.75561
-1.80293
-1.60249
-1.35709
-1.16634
-0.97535
-0.77145
-0.524294
-4.89467
-2.76462
-1.87403
-1.60413
-1.34408
-1.14692
-0.964597
-0.766058
-0.600899
-4.73528
-2.46711
-1.89185
-1.56851
-1.32814
-1.13511
-0.963029
-0.762798
-0.77365
-5.08358
-1.86012
-1.85225
-1.49519
-1.29438
-1.11852
-0.962198
-0.781544
-0.8433
-5.5901
-1.17784
-1.96018
-1.59523
-1.41194
-1.22894
-1.03594
-0.821516
-0.917886
-5.36109
-0.143107
-1.30113
-1.02571
-0.946106
-0.946807
-0.851139
-0.676242
-1.67876
8.14363
7.74869
7.57354
7.76722
8.10892
8.60466
9.24975
10.0547
11.0169
12.1677
13.5826
15.2657
17.1427
19.1596
21.2595
23.3661
25.4233
27.3553
29.0989
30.6079
31.8975
33.1857
34.3846
34.7212
34.4109
34.591
35.6388
37.0915
38.3316
39.6301
41.2723
42.6939
43.5716
44.1565
44.66
45.0908
45.4855
45.9655
46.6138
47.6139
49.2012
51.4088
54.1561
57.5995
61.9819
67.4311
74.0339
81.5867
89.9024
98.9693
108.592
118.591
128.918
139.162
148.784
157.447
164.553
170.192
175.879
0.701893
-0.043097
-0.679178
-1.24711
-1.80619
-2.37566
-2.96228
-3.57521
-4.18353
-4.70933
-5.12626
-5.44494
-5.68818
-5.92863
-6.15881
-6.26729
-6.202
-5.96435
-5.544
-4.92882
-4.1003
-3.0252
-1.71235
-0.200653
1.11448
1.81113
1.86167
1.14679
0.130509
-0.680294
-1.26914
-1.68594
-2.00903
-2.26593
-2.44881
-2.55619
-2.56757
-2.44838
-2.16123
-1.6722
-0.936726
0.0474282
1.04224
1.82848
2.41518
2.81428
3.09242
3.48535
4.2313
5.45129
7.01779
8.45425
9.83485
11.3487
13.2856
16.4554
20.7777
25.7984
32.4258
3.20529
3.10007
2.97843
2.95394
2.99515
3.09871
3.26245
3.48409
3.76338
4.09803
4.48302
4.91417
5.38632
5.89884
6.46769
7.10103
7.79272
8.53529
9.32263
10.1458
10.9969
11.8632
12.7138
13.4822
14.0923
14.57
14.9343
15.1553
15.2263
15.2783
15.3485
15.4364
15.5308
15.6493
15.8136
16.0436
16.3645
16.804
17.3935
18.1618
19.1436
20.3625
21.8404
23.6064
25.722
28.231
31.2414
34.9561
39.4467
44.5728
50.3363
56.3916
62.1291
67.4271
72.4438
77.0704
81.0977
84.8114
86.9447
0.55072
0.208839
-0.0827113
-0.307604
-0.488119
-0.625251
-0.720885
-0.776059
-0.790766
-0.762995
-0.691338
-0.57577
-0.417384
-0.218103
0.0233768
0.313311
0.656447
1.05517
1.51025
2.01805
2.57142
3.15644
3.75113
4.32223
4.82489
5.22263
5.49427
5.63384
5.66051
5.61278
5.51409
5.37861
5.21576
5.03518
4.84604
4.65862
4.48394
4.33454
4.22686
4.17777
4.21038
4.34889
4.62792
5.09006
5.80153
6.82957
8.25122
10.1401
12.5526
15.4736
18.8771
22.8505
27.3173
31.9608
36.4857
40.6915
44.6426
48.3998
51.7429
1.69667
1.58686
1.47598
1.43406
1.43948
1.48931
1.58149
1.71333
1.88179
2.08353
2.31592
2.57625
2.86211
3.17219
3.50528
3.86079
4.23812
4.63509
5.05022
5.47937
5.91711
6.35474
6.78076
7.18139
7.54053
7.84803
8.09615
8.28284
8.41138
8.49265
8.53793
8.55477
8.5543
8.5479
8.5456
8.56272
8.61289
8.7091
8.87557
9.13321
9.51072
10.04
10.7634
11.7266
12.988
14.5991
16.6155
19.0707
21.9756
25.2952
28.9497
32.9031
37.0775
41.2166
45.0902
48.4767
51.3478
53.9717
55.8406
0.773559
0.597214
0.451397
0.357487
0.300767
0.28064
0.296544
0.347035
0.43103
0.546863
0.694468
0.87262
1.0809
1.31848
1.58444
1.87769
2.19709
2.5379
2.90054
3.28023
3.67184
4.06509
4.4491
4.81422
5.14075
5.42373
5.64919
5.81754
5.92586
5.97627
5.97636
5.9226
5.82759
5.70178
5.54264
5.37213
5.19323
5.00256
4.83725
4.71089
4.64992
4.6853
4.85575
5.20686
5.79559
6.663
7.8703
9.44956
11.4287
13.8133
16.5859
19.6712
22.9782
26.3769
29.7369
32.9229
35.7643
38.3763
40.6915
1.11542
1.03361
0.966381
0.943972
0.953634
0.994111
1.06345
1.16099
1.2846
1.431
1.59999
1.78945
1.99977
2.22894
2.4753
2.73879
3.02204
3.31099
3.61599
3.92858
4.25109
4.5699
4.87866
5.18226
5.44394
5.68489
5.87536
6.03183
6.14319
6.20556
6.23816
6.2078
6.14389
6.0672
5.94131
5.83075
5.72364
5.57733
5.49489
5.45386
5.48256
5.60742
5.85619
6.26762
6.90505
7.7585
8.91516
10.3664
12.1508
14.2655
16.6848
19.3485
22.1648
25.0309
27.8286
30.4345
32.7571
34.8586
36.4809
0.952973
0.85207
0.776793
0.740893
0.727659
0.746174
0.78354
0.8582
0.953452
1.04963
1.18934
1.34376
1.52667
1.73771
1.96336
2.22236
2.50431
2.73502
3.01429
3.31391
3.64598
3.96164
4.25564
4.58506
4.80799
5.0504
5.20332
5.35174
5.45404
5.50729
5.55437
5.46438
5.34798
5.25573
4.99879
4.85773
4.7503
4.31776
4.02201
3.74013
3.5011
3.32008
3.21398
3.22511
3.58348
3.91862
4.6743
5.5042
6.52418
7.92003
9.74692
11.9635
14.2699
16.7004
19.2389
21.7395
23.9934
26.1973
28.0871
1.07067
1.06428
1.04965
1.07676
1.1125
1.178
1.24707
1.3151
1.42746
1.60664
1.67786
1.8379
2.03915
2.19899
2.43984
2.55526
2.83556
3.09201
3.34736
3.55967
3.84226
4.07447
4.31702
4.61881
4.76969
5.00261
5.09465
5.2205
5.36895
5.23146
5.41746
5.26451
5.03989
4.96607
4.62348
4.49483
4.09992
3.57923
3.5402
3.24586
3.01803
2.93662
2.76617
2.79609
3.05042
3.24613
3.75262
4.26276
5.60413
7.00716
8.54889
10.2888
12.231
14.7834
17.1075
19.1734
21.153
21.2332
21.9541
-8.59285
-8.42364
-7.83784
-7.05683
-6.26977
-5.63566
-5.11021
-4.4772
-3.77419
-3.23258
-2.78557
-2.25368
-1.7642
-1.31887
-0.715418
-0.0371417
0.555283
1.13866
1.78549
2.50615
3.28476
4.05651
4.8428
6.00089
7.34353
-1.0704
-1.04932
-1.32914
-1.44837
-1.26635
-0.94245
-0.59294
-0.180803
0.206794
0.312482
0.102942
-0.240346
-0.585836
-0.799244
-0.703825
-0.320773
0.131146
0.513059
0.73115
0.734543
0.695015
0.81018
1.11077
1.68978
1.98451
-2.50934
-2.4922
-2.35896
-2.1599
-1.85037
-1.50328
-1.16367
-0.839531
-0.573393
-0.464922
-0.501151
-0.600025
-0.702071
-0.743485
-0.643275
-0.414492
-0.129541
0.169558
0.456388
0.716171
0.987583
1.31156
1.70191
2.18472
2.87208
-1.91671
-1.91071
-1.76544
-1.61361
-1.41164
-1.18847
-0.964183
-0.754562
-0.581408
-0.4766
-0.43627
-0.428242
-0.420204
-0.381076
-0.282859
-0.130659
0.0468763
0.224725
0.384924
0.519819
0.641
0.759219
0.867527
0.92893
1.03847
-1.84105
-1.81823
-1.66748
-1.51922
-1.33854
-1.1504
-0.963752
-0.793267
-0.649769
-0.545061
-0.47661
-0.426539
-0.375498
-0.307702
-0.209255
-0.0821056
0.0613782
0.209071
0.352836
0.489882
0.627907
0.776754
0.948331
1.13936
1.48875
-1.71594
-1.66018
-1.50678
-1.37519
-1.21811
-1.0629
-0.906618
-0.764834
-0.640814
-0.537879
-0.457249
-0.386736
-0.313002
-0.231058
-0.132513
-0.0198951
0.0996681
0.218525
0.330851
0.433274
0.529059
0.619196
0.706083
0.771879
0.921255
-1.53163
-1.56714
-1.39802
-1.28533
-1.14204
-1.01003
-0.870455
-0.746238
-0.633727
-0.530935
-0.447012
-0.368833
-0.283154
-0.194697
-0.0945079
0.0139494
0.1258
0.236725
0.343066
0.441032
0.537235
0.632185
0.736162
0.840018
1.04487
-1.33648
-1.4826
-1.29901
-1.21084
-1.07222
-0.95573
-0.820226
-0.709746
-0.611152
-0.509232
-0.429994
-0.352766
-0.254127
-0.15965
-0.0569372
0.0517253
0.161208
0.268668
0.371149
0.464182
0.560312
0.652352
0.751925
0.849285
1.00492
-1.39583
-1.4695
-1.1998
-1.13714
-1.01643
-0.945982
-0.826918
-0.734103
-0.604229
-0.500487
-0.410328
-0.343893
-0.2604
-0.175226
-0.0608484
0.0464319
0.1568
0.268109
0.398874
0.501387
0.594168
0.700334
0.788961
0.828287
0.923915
-6.99504
-6.76945
6.77366
6.25694
0.299547
0.0944169
-3.95528
0.962037
6.63388
7.50693
-7.12431
0.772443
-34.8757
-1.32654
-9.61419
1.59776
4.73792
6.05253
0.947907
-29.3657
-31.4493
2.53802
-1.19565
3.0109
0.741611
1.65918
0.689575
-1.01071
-9.00487
2.24538
13.0893
2.06235
-4.19221
-20.9053
1.62528
0.722764
-1.13409
-8.4402
-4.08903
3.9
-9.14871
2.37299
2.0863
-1.05966
0.558218
2.50649
-8.2967
-7.26783
-9.17738
-7.31837
-8.16717
-9.30527
-32.6114
5.95507
-3.81768
6.63395
-1.3467
-33.8811
-0.793643
-6.72448
0.867394
6.89808
0.283839
1.94784
0.903543
-1.1324
1.04882
2.85171
-25.9689
-8.14495
6.49554
2.84275
0.289645
-28.7457
-0.0601359
-34.2642
-28.0659
-8.60961
-1.05636
5.84211
-19.3817
0.807975
1.339
-5.90186
0.55761
0.900321
0.377374
-8.71203
-5.09567
0.822644
1.91594
-0.927695
1.86693
0.871659
0.180526
-6.76629
1.63061
-7.68174
2.33339
-6.83026
-0.572404
-9.3555
-0.635085
2.07541
-0.634517
-0.417837
-0.993286
-22.734
1.50283
3.04491
2.08726
1.19789
1.70632
1.76343
-34.1346
-9.15332
-9.49049
4.76164
-32.5538
1.43374
1.78167
1.09061
3.24508
0.902463
-3.82255
2.08912
-9.45622
-29.4846
-1.46713
-7.5239
1.3733
-28.7873
-8.23572
-8.9849
-1.1095
0.333019
0.724683
-0.461996
1.03044
-29.075
0.257694
-4.35179
-7.14136
1.81946
-9.12202
1.36933
6.18213
-29.4023
0.94482
1.55726
-2.60618
-1.92555
6.10249
-16.1067
0.578542
-6.97483
-0.121634
3.91399
-26.1852
3.38537
2.13578
6.55441
1.37777
-7.63372
1.85075
-5.76437
-1.3956
0.371598
2.51068
-0.214273
-1.29483
2.11489
2.7494
-6.11297
-0.182675
-0.838623
-23.2929
-8.33248
-8.21333
2.6949
-15.8835
2.30086
-30.2018
-15.1397
-0.708295
2.6864
-6.25164
1.447
-7.04974
1.13762
-7.11337
-7.2412
3.89856
-2.96644
-11.9977
-6.36006
-0.018545
2.45979
-9.18004
-8.67353
-26.0976
2.56664
0.981252
0.999432
-2.52785
3.72583
3.01143
-0.604675
-8.76676
3.8647
-0.663176
0.963014
-16.1319
-2.63173
-2.3424
-7.41367
-0.107535
2.87785
5.18026
-0.0425702
-0.825859
2.40018
0.71317
6.89259
4.44812
-9.56535
1.76974
4.70543
1.49994
0.252718
-6.64692
0.809708
2.20172
1.51238
-4.80406
5.35878
-25.9104
-0.997914
-16.8061
-14.5836
12.8326
0.827544
2.15989
-0.970675
0.235886
0.631658
2.02346
-0.458296
1.50294
2.34698
1.52705
-0.853125
4.03574
-9.02766
1.86792
-0.00755674
1.65613
-27.7793
-26.143
7.93906
2.00695
-1.52021
1.10443
0.425197
-28.6676
1.0346
3.46872
6.34989
-4.88266
0.420379
-28.3039
4.22928
2.24177
2.87605
1.03908
6.35126
1.99376
6.53872
-1.40775
-8.67873
-1.01347
-2.42456
3.25676
1.81119
-8.07306
1.13087
-0.565855
4.82713
-6.53073
-7.0483
-7.42685
1.59625
2.1949
-7.46119
-15.0458
-7.33733
-1.12114
0.363264
3.3305
-7.78537
-8.15759
2.04316
3.74255
1.01323
1.24494
2.49858
-32.6133
2.54474
-29.1995
0.949051
2.23722
0.0247925
-6.93212
-1.49121
2.23146
-1.01947
-8.395
3.77357
0.806899
-12.8857
-26.7166
1.54214
3.73767
13.0322
0.607492
1.06262
-9.5466
-26.8001
1.50993
-32.8672
1.66307
-12.43
-0.84908
6.59084
-9.18477
0.85474
1.01032
1.3561
1.324
2.48821
0.970897
0.649962
-7.41511
-2.60104
-28.6318
-0.126937
-0.229157
2.32082
0.340101
-7.27094
3.0543
2.15503
1.97892
-26.6296
-7.32677
4.36371
-8.79357
-1.34928
2.07626
-6.0149
-8.75006
-0.856399
2.75146
-9.67593
2.42911
0.202577
2.0854
-8.80215
1.00332
-6.65541
1.62333
-17.1912
-8.69577
5.08987
-29.1091
1.28808
1.2649
1.82469
3.39631
6.16286
-0.716617
1.43134
-2.93487
-1.33644
-1.03949
-13.3946
1.93477
-29.3277
-6.65072
-6.91823
-3.2579
3.6889
-0.158636
2.60413
-14.7401
7.59603
2.19596
-2.43319
3.79299
-8.90751
0.837011
2.24118
0.511403
-6.76392
0.527656
2.71323
-4.03218
-0.0934922
-1.16525
5.40248
4.62351
0.910236
-7.66835
0.914015
1.65197
3.82331
-9.1161
-6.97058
3.71093
0.537571
1.74041
3.17177
0.94233
-0.727507
2.88509
-8.40744
1.35677
3.64504
3.54303
2.09685
0.786042
-0.0518103
-0.524642
-0.968704
-5.01585
2.22687
1.4543
2.17079
2.29127
3.63451
3.2362
-15.1987
-6.91778
-1.5104
-29.8195
7.04875
-0.961743
5.86228
-0.775176
-1.0868
5.18354
2.16961
1.2901
-7.87989
0.712882
-8.08834
-5.66837
1.04883
1.97317
-29.0057
1.36812
-1.78116
4.43887
-15.5238
-8.4669
0.501163
-0.388282
6.97074
3.052
-5.34225
-1.22196
0.356244
-0.276456
3.74052
0.972707
-27.246
-0.417231
0.0266765
-29.3661
-28.6533
-2.53637
-4.75399
2.56484
0.669239
-6.56169
0.407594
0.7295
3.59878
-0.262871
1.99226
-17.1887
1.64692
1.17882
2.87295
0.932219
-0.505023
-13.872
0.879312
2.69731
-7.27734
2.08457
-6.29655
1.04409
-0.991657
-24.9075
-19.4374
1.2129
1.17382
-4.11663
1.8134
2.28256
-12.5035
0.476891
-0.228225
2.69256
-8.79976
0.992265
-8.95189
1.23152
-3.14061
-0.464424
-7.35592
-29.3207
6.85556
-19.4715
3.76451
-8.49091
-7.66221
3.29168
3.12873
-0.703823
1.36167
6.4898
6.18557
1.36624
-1.63765
1.67158
-8.21169
-9.04394
1.57191
-14.0951
3.33412
1.82083
-1.9196
1.9894
6.95385
1.3456
-0.866579
0.886845
6.40796
-4.13748
-5.5289
-1.48702
-8.83628
-8.88245
-8.30497
0.626985
0.42307
-25.7496
-8.74204
-0.376716
-11.8428
1.52139
-28.8962
1.93363
6.98021
-2.96935
-0.909396
2.17598
1.5501
-7.09916
4.48723
-8.42948
-0.420445
0.0832766
2.37974
-7.36947
-8.59906
-0.845006
1.81421
-28.6471
-36.6807
2.33396
-0.141395
1.16744
-1.77821
2.39082
0.0962857
-5.1371
3.71114
0.0233939
0.482583
2.13986
-20.2831
1.28809
-0.936341
-25.5548
-8.92677
0.349701
2.29999
-7.44591
-1.01347
2.46373
3.88092
-29.3312
1.94051
1.04744
5.21601
4.78801
2.16779
2.23988
-2.59704
0.71435
2.47326
-0.592243
-29.4236
3.31218
-0.165726
7.00805
2.41473
0.521467
1.3331
-1.05353
-2.06588
0.130227
-6.85569
-6.19093
-0.996584
-0.899805
-0.267963
0.194396
0.237806
2.61318
1.47499
1.46204
-26.8637
1.42794
0.882453
-1.87636
-21.827
-3.10829
-1.22705
-1.15456
2.28205
0.259532
2.72918
1.93849
-1.27571
-6.98792
-18.9881
-26.4781
2.81895
5.70618
1.93044
3.9286
5.63039
-7.35978
20.4736
-30.9398
2.38224
-8.58226
5.59806
-7.78862
1.86654
0.345582
1.10841
-2.91022
5.79992
-1.0675
-35.122
0.0610318
2.31915
0.65779
-7.97238
2.51243
1.51594
-9.32256
0.740721
1.86434
5.79446
2.29205
-27.8112
3.72042
1.36913
3.41874
-1.21795
1.88402
-8.96047
-1.97989
1.90883
-4.3288
3.65089
-5.47567
1.25612
1.00376
2.31984
1.66591
-3.6408
1.43009
2.25745
-0.753426
3.02527
1.83309
2.89567
3.58745
-6.55421
-17.0756
-2.3567
-7.83049
-6.5047
-0.542535
1.33719
4.20873
-0.042212
0.477519
2.7118
1.39893
-1.80722
1.42978
0.770555
-25.8861
-3.49936
7.38879
-0.472266
2.23312
0.0894305
0.753372
-2.18323
-19.8165
-3.03951
0.657124
-8.3208
-3.79265
-8.48085
-30.8683
-7.67328
-7.05077
6.50391
2.87771
1.37155
2.51025
3.54142
1.25628
-21.7918
-7.11895
-2.50695
-27.053
-1.27378
3.25181
0.856931
0.966823
-5.97761
6.9432
0.880578
-4.09764
-18.196
-28.7645
-8.72679
2.71622
2.61058
-0.167043
2.56521
-7.34229
-1.91484
-0.906541
-17.9927
-0.158283
-21.7308
1.54903
2.76042
-0.788668
-0.00187446
-0.440026
3.42403
1.9602
1.05133
1.06075
1.50331
2.11229
1.16529
1.94443
3.91186
-8.25981
-6.01279
2.36181
2.59451
1.99126
-28.8937
0.591025
3.06865
0.299139
-28.4241
-2.37291
2.59787
0.404468
-7.7071
6.89628
-28.6193
1.18592
-28.9693
-21.1133
-22.4067
7.05261
-9.82975
-1.48146
-0.656759
-1.93381
2.30774
0.810943
1.06001
-5.85198
6.76135
2.08258
0.578672
-7.55383
0.285999
6.90701
4.85485
3.01322
2.17686
6.41712
-8.0499
-5.12679
2.20941
3.30098
2.58488
-29.4811
-5.33007
2.25399
0.583396
-0.475777
-26.685
3.57536
0.574569
-6.25206
1.04266
1.16756
7.00571
0.571597
-23.702
1.24008
-28.3083
3.57737
1.06167
-19.3729
2.65089
-0.942292
2.28525
-0.817367
-27.0592
-8.93113
2.734
3.49677
1.02135
-10.9356
-28.9095
6.81762
1.49622
-27.9155
-8.36076
1.41268
-0.412506
-0.603005
-6.87529
3.92191
-28.1398
1.67237
1.43278
-17.7697
1.32394
6.87436
6.57169
-30.3054
-7.92782
-6.73526
-6.63919
1.08359
-1.04723
-10.3116
-0.271917
-3.81793
0.695446
-0.60977
-29.0008
1.0982
-0.339478
-30.2149
6.97039
3.32775
3.0753
-4.82357
-1.51198
1.32233
-22.1591
-8.11711
-10.9323
-1.96657
1.20771
-7.42498
0.155233
-16.6911
-25.687
-6.12524
-2.05051
2.64811
-3.07941
-8.41128
3.12095
3.55704
-1.98764
5.16337
1.77026
-2.38699
-5.20178
1.90911
-0.400293
-0.430234
-7.59198
-4.91328
-8.49569
-9.38187
4.04073
-1.04608
-2.94532
0.685481
-7.17291
-28.9528
2.68508
0.97878
1.05886
2.80149
-29.0119
-5.37676
1.16408
-7.96631
-0.493371
-25.8917
-1.28944
0.685826
0.996862
6.04793
-8.67465
-1.12224
-26.7146
1.7761
1.89825
-6.66076
4.84302
-6.02163
-10.4848
3.28092
1.19687
3.29199
-6.03735
1.26397
2.61939
0.825578
2.60032
0.796305
-0.660944
-26.0744
-4.43833
-0.454096
1.10078
2.99761
2.375
-0.522348
2.2495
-29.2647
2.56602
1.09636
-8.03989
-29.052
5.8864
1.48234
1.79125
-2.89065
3.08513
-9.35369
0.110934
-0.560759
2.04403
1.3025
1.11805
-2.04199
0.257629
-8.94217
5.61647
3.61805
2.50589
-4.67006
-4.60885
-9.40114
0.789082
-28.1572
1.83856
2.64125
1.51497
-8.02237
-16.2697
2.89566
3.804
3.57075
-7.37672
1.16781
-8.83237
0.372846
0.632013
2.85095
-2.42732
-7.41782
1.42227
-0.826323
-28.9067
3.06933
-2.32396
0.922309
2.48918
1.33038
-7.74229
1.88874
1.36043
-21.0162
-0.752775
-6.71956
2.82604
-3.04512
2.12338
4.14058
2.66815
-0.491247
-3.77039
4.09554
-1.32905
3.14384
0.639812
-3.16726
-7.91021
1.61366
-0.467585
0.81278
2.50544
3.64309
3.54908
-7.33592
5.97277
-30.4318
1.73555
-7.4442
2.19295
-0.775064
-29.0068
1.36561
-8.1077
-1.48437
-6.87935
0.974625
1.09522
-0.662736
-8.5695
2.76108
6.90928
2.70562
1.02601
3.65704
-0.820892
3.56678
-0.303758
5.34401
13.6962
3.85592
-7.90713
4.18826
-5.83579
3.96925
2.16978
2.56098
6.49786
-26.2175
3.50525
-28.7531
-22.3547
0.582221
2.52788
-9.04199
-7.55723
2.86109
3.50413
2.90801
3.53485
5.63483
-0.701745
-8.32398
1.63997
2.22528
-28.4781
0.921769
-2.50147
-8.62463
2.3814
0.434253
2.5811
-0.883966
-20.3036
6.93881
-28.5233
-2.65668
-0.681612
9.57391
-9.33698
-9.46048
2.04893
3.62603
-27.0586
3.32182
-0.582735
0.616801
-8.30458
3.67952
3.91786
3.33178
-1.10055
-6.91233
0.328692
3.39268
-6.3699
-8.05276
2.75346
2.29871
-0.103434
3.68285
1.98717
-30.9821
0.865417
-24.2455
0.94023
0.162235
0.734191
-26.4583
2.13321
-5.40805
3.58564
3.51556
-6.41769
-15.3977
6.56577
1.84381
-9.67976
-26.3263
1.2554
3.48009
1.17661
-0.592548
2.11982
0.843418
1.34367
5.25823
-0.35115
-0.837156
-8.44919
-0.55686
1.1518
2.30545
-6.99779
2.8064
-6.47035
-7.41618
-0.403581
2.27511
1.21063
2.70573
1.00406
-27.4473
6.94544
0.902839
1.08512
2.75304
-20.5952
-9.44849
1.68776
1.05889
-0.252008
2.74102
0.512984
-0.972584
3.73489
-0.476242
-1.53203
-8.62155
1.72455
2.08943
5.96838
1.19902
0.50008
2.43907
6.60026
1.2488
3.4288
-26.9956
1.63689
6.98233
-8.35954
0.510732
-2.7937
-6.18487
2.2718
1.00643
1
-10.4628
1.8975
-28.8563
0.56261
-7.23592
-6.93602
-29.3608
-8.68136
3.72109
0.849375
-28.744
-26.9357
-0.178489
2.40144
3.61504
-2.94683
0.544912
2.14329
3.33826
3.15827
-3.41644
3.49106
0.0351426
2.89215
-8.52896
-28.9736
7.64023
3.95067
8.26448
2.19407
1.03932
1.42832
3.56423
-0.541592
-4.25333
-29.5769
2.585
-27.3359
-8.56812
-29.0727
-7.93321
-1.5462
-17.4253
-9.42326
-7.2658
2.72922
-8.55023
2.73461
6.49445
4.89425
-2.80713
-25.2492
-15.381
-8.30574
-17.727
-0.756373
2.03422
-4.20374
-8.41889
4.26698
-9.68122
2.64064
-29.125
-0.0328684
-8.51889
-2.59602
-0.63506
1.14957
-29.2175
1.15528
-2.09049
-29.005
2.33853
-9.32403
1.62683
1.92188
-8.98838
-4.19782
1.03371
-29.8095
-10.7648
4.31154
-23.4252
4.36367
-1.23045
-0.87784
-0.314213
-7.26432
-25.5987
2.87363
-7.90933
-4.17295
-29.3139
4.23405
0.411812
2.15294
-30.1967
-2.67192
-22.8105
1.95013
-7.53814
0.308654
-23.6109
-9.57689
-2.33411
3.02655
-19.486
2.40114
1.76602
2.45955
-26.0158
-8.44107
0.886859
-7.55708
1.71167
1.10776
-5.20029
1.9746
0.950522
-27.4762
1.79221
2.42997
4.26431
1.12752
2.29223
3.49935
-5.54541
-8.56861
0.824477
3.54479
1.72017
-22.2533
-8.6056
0.90635
-1.58422
-0.617432
-8.65404
-1.64026
-2.07342
-26.4133
0.681206
-25.1511
-9.62656
0.81307
0.547966
3.44541
4.35998
0.649569
1.90423
-0.266692
-0.967075
-8.59574
2.04806
-9.15815
0.726762
-8.12918
2.22768
-16.3738
-2.27552
-28.5415
-8.79009
-0.292471
-1.66201
2.14638
2.20314
1.92963
-8.49944
-8.10895
0.237835
2.2675
2.34282
2.57092
0.960654
1.65561
-6.27982
-7.50121
-28.8271
-9.36208
3.18882
0.60213
-22.5968
3.65059
-8.79342
2.55971
0.777904
-0.572665
1.02756
0.921278
2.29334
0.937158
-2.14768
-3.49044
-8.63847
-0.0903006
0.806366
-28.6114
6.40491
1.12244
1.87135
-7.1539
-7.1579
1.77507
-29.1929
1.33125
3.0564
2.86179
0.642727
11.724
1.15041
0.93656
0.932026
-0.776531
-29.0513
1.74732
-8.49033
-6.76307
1.62597
-1.28491
3.48996
-0.610768
-18.1912
-0.220846
-8.57064
-0.900039
1.38308
-0.629228
3.71052
-1.24158
3.4722
1.98228
1.25009
0.591507
1.24363
-23.6248
2.17699
4.20186
1.21207
1.98565
3.00198
-0.637059
1.41843
5.79966
-8.36637
1.43578
-8.66292
5.20318
-27.0311
2.64332
3.30162
0.8532
0.549237
-8.38691
2.32961
2.00014
6.22604
1.42972
5.56721
4.41563
4.47716
2.67584
-5.61366
1.14233
1.51883
-8.58272
0.996381
3.20406
1.66399
-0.537068
1.47529
-8.6677
-8.2694
3.4853
6.88528
2.77942
2.55506
-7.26854
3.44378
-1.7995
2.24345
-29.1061
-0.425909
3.10357
0.37547
-5.47798
4.33724
-0.290712
1.51379
-7.93411
-0.0815112
2.72859
-21.9987
1.86074
-3.15685
-8.74299
10.0787
-19.115
1.46966
1.63217
3.47869
0.912819
5.47221
-8.36198
2.10421
4.92666
-9.09479
2.22927
3.07959
3.85305
-1.17401
-5.81132
0.625422
0.393021
4.61848
1.69009
0.33048
1.68608
-0.670713
2.97296
3.77418
-27.0169
0.553678
-20.1843
-0.185257
-28.5771
-8.46863
-28.1763
-7.55907
3.90087
2.47271
-27.6625
2.56041
2.09601
-8.95607
1.52295
7.01766
-8.6604
-27.7462
2.0285
-6.903
0.191628
-8.46935
-0.0929089
3.57382
6.18805
-0.897672
-28.5341
2.11555
3.40684
-1.26169
0.797437
-12.0264
-0.524974
0.663085
-6.7683
-0.960122
-8.62738
-0.850117
-8.05587
2.03821
4.25543
1.30077
1.04778
-30.4082
-6.92641
-28.184
0.210779
-6.36245
-24.6441
4.22967
-29.0826
-2.60627
2.74598
-29.4308
-7.97544
3.42503
-0.625399
0.0555488
-9.21009
0.79588
2.9718
-25.7065
-26.1872
-1.11121
-8.80279
-17.4102
0.815348
-0.75925
-4.06633
-0.486858
-29.4999
-0.566912
1.7302
0.969287
2.8257
0.464319
-2.22593
-8.6702
0.594122
-3.53351
5.44899
1.38796
-7.86959
2.34415
-30.1669
2.6507
1.09416
1.32551
5.12337
1.38196
1.25823
3.69116
-0.253956
3.69753
-8.05842
-27.069
1.0311
-30.3147
0.588
0.952213
2.01544
2.02186
1.58496
-10.5917
2.99649
-4.25542
-8.39403
-7.51962
-28.1655
4.07224
2.36187
-5.99368
2.2261
1.19931
1.91714
0.843922
1.14178
-6.98606
3.42594
3.68464
0.707145
-0.586514
-0.948202
-6.62421
-3.34817
-2.53399
-1.41501
1.20984
0.998978
6.03937
0.749222
0.6453
1.3647
-0.64188
1.17109
9.20044
2.6118
2.93918
-3.60612
-8.63223
-17.5799
-0.60309
4.12931
-2.83402
-7.21462
-8.62917
0.165869
1.22574
-1.29479
2.58843
0.723122
-0.638658
-7.73499
-3.28085
0.860322
1.74575
1.95701
-0.638721
-8.52875
0.0694488
2.19106
1.01509
0.751823
-8.5908
2.79997
-15.6539
3.81281
-0.366084
-0.449714
2.49892
-8.30623
-2.62963
2.07312
-9.68417
-28.2237
-1.34146
2.92225
1.77627
-22.4057
-7.92253
-9.11023
1.15136
-29.0274
2.47951
3.98499
3.14921
-8.57056
0.807614
1.21596
-3.30057
-6.42702
5.25447
0.314939
-8.26138
0.908419
4.07898
2.26549
3.46168
6.25269
3.43627
2.36555
3.77605
-6.72503
3.48287
0.548763
0.196521
-0.303053
-2.32594
-0.14866
-28.5282
-2.78495
-3.31077
2.92387
1.62951
3.80862
3.43971
2.00511
0.909744
-27.3389
3.94236
0.0287106
4.12987
5.18708
1.70722
-0.360155
3.71209
-5.669
0.737482
-28.8201
2.02978
3.04193
2.36659
2.23536
1.77348
-8.54818
2.55293
0.149478
3.66011
4.58601
-24.334
1.06307
2.43982
0.128635
-8.48854
0.619623
-8.49801
3.29702
-27.1736
2.72062
-6.50107
3.19705
-3.94427
1.25248
-8.69832
-0.969776
-15.9887
-6.71335
-7.46157
-1.71845
-9.50704
1.21045
-0.0434978
1.1331
-8.55875
3.61992
-0.273484
-29.5287
-7.50485
-7.81936
3.37559
-9.11721
-0.392532
2.04217
0.800791
-2.84858
3.84173
-9.64131
1.98118
1.12816
4.29433
3.07394
2.95465
-4.44112
2.46131
1.95113
-7.9403
-2.93521
0.160509
0.778804
-7.59895
1.74121
2.11615
-9.25794
3.21943
6.12529
-4.10315
2.2454
-0.65017
-29.3067
1.342
2.81682
2.89255
0.749328
3.28415
1.56198
-8.39294
0.408989
-15.5901
-1.15219
-0.723829
-8.26842
-0.818835
-1.47336
3.4894
0.249634
1.71445
0.43181
-28.7806
-8.18089
2.51593
2.13277
1.41044
-20.7328
-0.359954
-2.70503
0.463652
-0.74069
0.786191
2.21579
-3.42824
-0.515243
-24.3773
-25.9252
2.62545
-16.7417
2.11292
-28.7757
-2.84953
0.833938
2.12917
-0.181476
2.18193
1.78758
-19.7262
5.39012
0.52108
-8.48066
-29.3563
2.24918
0.457062
-3.99788
0.603869
-4.57352
-9.62473
1.64991
-7.23323
-29.072
-6.55294
3.73867
0.474767
1.19485
5.73888
-6.84276
3.00496
-8.70869
3.45167
3.80967
-0.808239
-7.57601
-24.6399
1.11309
3.32264
4.28344
2.75787
2.03495
-3.30719
-29.1439
2.11018
1.01055
-8.11217
3.20751
-27.0065
0.779531
1.5608
3.32497
-8.6427
2.32453
1.34172
2.51097
2.70512
-0.986696
1.82875
-7.8577
-0.812019
1.39803
2.2013
1.22257
-29.3065
-0.198346
0.0891029
-9.71546
-8.32924
-0.698031
-28.2664
3.751
-8.20354
-30.0654
3.60366
-0.989982
1.89349
1.72695
0.102742
-26.4748
-2.49631
12.5708
0.336461
-7.53871
5.45717
-7.18879
-28.1644
-2.08861
-0.282293
-1.93827
-0.670389
0.881186
1.33294
3.18863
-28.5507
-6.072
2.26762
-27.9518
-0.448404
-29.3466
6.55318
-7.77592
-8.75384
-7.77407
6.23026
-1.01702
3.67425
-0.584481
-30.4905
-6.622
3.16402
-2.97653
0.248736
-8.06669
2.25654
-3.59352
5.38336
-7.54585
-0.743577
-25.4973
-1.22422
-0.612053
-8.48115
2.69681
-0.251646
2.05232
4.06615
1.76919
-4.70098
3.71717
1.66211
-26.861
0.184644
-1.72256
-0.961016
2.32272
0.816092
-28.6584
-7.00879
-1.18595
-23.3241