/*--------------------------------*- C++ -*----------------------------------*\
  =========                 |
  \\      /  F ield         | OpenFOAM: The Open Source CFD Toolbox
   \\    /   O peration     | Website:  https://openfoam.org
    \\  /    A nd           | Version:  10
     \\/     M anipulation  |
\*---------------------------------------------------------------------------*/
FoamFile
{
    format      ascii;
    class       surfaceScalarField;
    location    "650";
    object      phi;
}
// * * * * * * * * * * * * * * * * * * * * * * * * * * * * * * * * * * * * * //

dimensions      [0 3 -1 0 0 0 0];

internalField   nonuniform List<scalar> 
16133
(
1.90513
0.0242296
-0.202149
-1.72755
-1.61069
0.58658
-0.740202
1.76431
-0.403605
-2.40302
1.80189
1.00474
-0.336396
0.18001
-2.71093
2.8673
-0.45757
-0.250516
3.44532
-2.73725
3.91215
1.61934
-4.85612
-0.675419
-2.44349
0.849504
1.46518
0.128809
0.0541843
-2.37847
0.529276
1.795
-1.36147
2.18044
1.39754
-2.21652
0.830824
2.91516
-0.446188
-3.29984
2.08494
-1.9235
0.55081
-0.712272
2.83558
-0.870893
0.768727
-2.73342
0.0113995
-3.31691
1.96121
1.3443
1.05358
-0.905818
0.324823
-0.472584
1.18507
0.357974
-0.489468
-1.28433
0.927619
-2.50422
2.86092
-0.414182
0.259999
-0.751638
-4.19617
1.42425
3.33747
-0.565585
-3.75364
3.16178
-0.769615
-0.0851917
2.08784
-0.0975186
-0.442761
1.9829
-1.63648
0.0963231
-0.48174
-2.64321
2.78855
-2.70929
2.72557
-1.30061
4.49804
-3.51896
0.127985
-1.10707
-3.06215
3.82274
0.0702266
-0.00288944
0.00476088
-0.0630462
0.0611746
0.0118812
-0.00649266
-0.00884523
0.00345665
-0.300785
-1.65399
1.5393
0.415481
-0.0331563
0.0577943
-0.0544137
0.0297757
-3.86518
2.58415
2.25185
-0.542746
-3.42941
1.72031
-0.659006
0.641526
2.10242
0.805495
-2.14079
1.38948
-0.00582672
0.183636
-0.046211
-0.131599
-2.16502
-2.08975
2.11662
2.13813
-1.10629
0.787523
1.2318
-0.913034
-1.73658
-3.07745
2.64901
-0.0163954
0.0680164
-0.080418
0.0287969
0.0424077
0.0810141
-0.0223751
-0.101047
-3.47816
0.656436
-0.931929
-3.67025
-0.641157
-2.38414
-0.46296
-0.812505
-0.109571
-0.0476229
0.969692
-0.168766
2.46453
-0.031197
-2.26457
2.93702
-1.36335
-3.31026
2.08867
-1.06879
0.907837
-0.665966
-0.394499
-0.190884
0.527867
0.0575145
1.743
0.920884
-0.483438
2.76993
-2.61274
-0.638932
-1.24742
-1.57381
-3.57141
3.48134
-2.46595
2.55602
0.111568
0.042706
-0.111866
-0.022741
0.0352149
0.0644786
-0.0769526
-0.0155126
0.045024
0.0515026
-0.0432625
-0.0248717
0.034978
2.91162
-1.50831
-4.48077
-0.0203974
-0.0594145
0.0868043
-0.00699245
-0.596991
0.882712
-0.304988
0.0192646
2.91054
0.0681651
0.0182456
0.0251569
0.623604
-1.40536
-0.82894
0.044935
-0.0396855
0.0396751
-0.0449247
1.53077
-2.83623
2.60327
-1.29781
1.52332
-1.2956
-2.60701
1.78323
-1.57924
-0.474255
-0.0612177
-0.0615186
0.0894367
0.195333
-0.0943554
-0.190415
0.693217
1.81896
-2.8609
0.47505
-1.13311
0.0374598
0.0104855
-0.0706863
0.0821415
-0.0141993
0.00496638
-0.0729087
-0.877602
0.278579
1.42026
-0.82124
1.6162
-2.41074
-1.81248
0.305834
-0.637399
1.51663
-0.600439
-0.966813
0.784947
0.782294
-3.07256
1.31551
-1.10385
-1.39812
0.95638
1.29125
-1.39538
1.37902
0.821849
1.39534
-1.28607
0.196558
3.06626
-2.89589
0.688663
-0.859053
1.75786
-1.59982
-0.115911
-0.0421285
0.0562023
0.108888
-0.122384
0.0417002
0.0768029
-0.0832882
3.44674
0.579774
-0.960258
-0.836654
0.64013
1.34124
-1.14472
1.65248
-1.46968
-0.638068
0.455266
2.38924
-2.1758
-0.382212
1.06196
-0.631647
0.241222
-0.671535
1.82047
-0.568742
0.400753
2.64012
0.122423
-0.373308
3.23016
-0.410041
1.91172
-0.129634
1.29498
-0.62938
0.396364
2.00663
-0.442482
0.256316
-1.00172
-0.941221
1.12335
2.67401
-0.56721
0.950915
-0.527545
-1.06077
0.883904
-0.096641
0.0954475
-2.38335
2.61496
-0.708669
0.477045
0.989567
-0.670299
2.95399
-2.82957
0.558807
-0.683228
0.465427
-0.375232
0.206054
0.461348
3.16844
-0.675802
-0.123972
2.04878
-0.222248
0.630594
-0.756553
-0.0294356
4.5256
-1.04943
1.42528
-0.194604
0.164666
0.328515
-2.41444
-0.526819
-2.59669
-0.690455
-1.48533
-0.150506
0.0360131
-0.169038
0.108993
0.334247
-1.59426
-2.43866
-0.679568
2.45774
0.83678
1.49069
-2.02721
-0.5541
2.19909
-2.6286
-0.487322
2.43634
1.54397
1.44622
-0.532461
0.659762
-0.343873
-0.916335
1.63474
-0.712791
-0.935677
0.691467
1.33216
-1.08795
-1.93453
2.05811
0.627183
-0.750782
-0.0414947
0.103878
0.00478328
-0.0671666
-0.663263
0.797972
0.854067
-0.992283
3.28839
-2.70213
-0.0437878
0.0405659
-0.0101169
0.0133388
0.908602
-1.04631
-1.80942
-0.784112
-1.95629
-1.1327
0.2046
-0.0167867
0.0763476
0.0225806
-0.0668103
0.130163
0.101683
-0.165036
-0.764892
0.8627
-1.09954
-0.545043
2.84513
-1.81586
-2.22972
-0.240148
-0.00576764
-0.136111
-2.44138
3.32988
0.033506
-0.156621
-0.351141
-0.613693
1.66405
-3.30619
2.25584
2.87409
1.06153
-1.06442
0.551757
-0.548872
1.03019
-1.10361
0.540586
-2.58123
-0.62147
0.859304
-0.652022
2.22618
0.890936
-3.73081
-0.401676
0.0854577
-0.0782804
-1.14665
-3.67191
1.90549
-1.70688
2.67558
1.21465
3.29599
1.80467
-0.117334
0.0188973
0.241171
-0.142734
2.28415
0.492469
-0.718533
0.903981
-1.53263
0.71329
1.69477
-0.875444
4.13078
1.02476
-1.90754
-3.24799
-0.996347
0.188472
-2.37659
2.60807
3.20387
-3.15676
-0.0765587
-0.0431033
1.36514
2.36078
2.47157
-2.01998
1.60241
-1.72322
-2.78246
-0.385169
2.68029
-2.47792
1.63875
-1.05688
1.89605
-2.88894
-3.25348
-0.0189092
-2.13926
0.351381
-0.494834
-0.73415
0.0109499
-0.00472975
-0.00177205
-0.00444817
-0.149166
0.683145
2.8769
-2.81696
0.830999
-1.33815
-0.934691
-0.886358
-0.551965
0.496068
-0.235665
0.291559
-2.23203
-0.422564
-0.0815204
0.123839
0.0154761
-3.64562
-0.669923
-1.82135
0.92612
0.0928217
-0.0661513
-0.724811
-0.968179
1.96387
-2.39382
1.67844
2.32568
2.39316
2.34951
-1.77419
0.130387
0.0587319
-0.132917
-0.0525987
-0.0079759
1.02673
-1.07707
0.392253
-0.704811
1.78313
-2.0581
-0.677451
0.840923
-0.887564
-0.886532
-0.0717217
1.66811
1.18769
0.107626
0.0333306
-0.157352
-2.17868
1.8893
0.155245
-0.991587
1.12083
-1.61243
2.24784
-0.301183
-0.600597
0.0288548
0.0861654
-0.0700852
2.96215
-0.231547
0.0562291
-0.226359
1.95764
1.02488
2.94772
0.00165383
0.0211773
-0.611764
0.99848
-0.242148
1.43825
0.129739
-0.110034
-0.150613
0.130908
-0.0514366
0.0485471
0.147555
0.0613705
-0.0910762
-0.0518148
0.610502
-0.420435
0.305999
0.299378
-0.0589081
-0.206964
0.675654
0.336008
-1.16083
-0.0277815
-0.0770523
0.130834
-0.0260004
1.82844
0.0505632
-0.0551828
0.00461942
-0.6885
-0.870599
2.2878
-3.16119
0.835259
0.801099
0.32887
-0.34453
-0.220006
-1.76536
-0.000873405
0.848122
-3.49527
-0.0364955
0.0443189
0.0122554
-0.0200788
-0.237777
-3.50466
-0.0791004
-0.0177756
0.0690944
-2.6249
-0.404713
-1.95321
3.65461
-2.06429
-0.0295383
-0.116399
0.0688853
0.194682
-0.26036
0.195417
-0.0246571
-0.0547739
0.0361685
-0.598622
1.60457
-0.797568
1.49557
0.921122
-0.633564
0.0156058
-0.0283188
0.012713
-1.17792
-0.989169
0.0285338
-0.041961
0.0134273
1.3419
-2.79085
0.898193
0.821256
-0.349441
0.896528
0.0243268
0.00420694
0.284891
-0.154199
-0.163651
0.282439
0.0828534
-0.29371
1.58145
-0.396553
-0.725112
2.75939
0.146719
-0.0609823
0.04465
0.0227477
0.054653
-0.67907
0.917131
-1.72858
-0.346184
1.35975
-0.235286
2.69828
0.0437484
0.0047986
0.129686
-2.32226
0.899139
-0.525616
-1.64089
1.15304
0.5838
0.151801
-1.59171
1.51362
-0.147639
-0.0360559
0.073661
3.68355
-0.0706954
0.0398962
0.0915308
-0.089727
-0.120091
0.175635
-0.826917
0.145718
0.00697541
-0.0930705
0.0306534
0.0340598
-0.0647133
-0.262002
-2.13098
2.99973
-0.326815
0.329368
0.0933575
-1.43773
0.0083874
0.00721839
-0.843563
-3.05642
0.353702
0.0378286
0.0984851
-0.0964176
-0.319362
-0.135532
0.000760432
-1.03755
-0.195494
-2.55426
-1.38548
-0.0113076
0.123141
0.158393
-0.183067
-0.67268
-0.0227605
0.00751996
-0.0244449
0.0603324
0.142019
-0.14362
-0.186461
-1.82226
-2.27208
0.0400546
0.0036937
0.03862
-1.4423
0.0137013
1.01271
0.0243538
0.00266162
0.058755
0.0817177
-0.102644
0.338986
0.104447
0.0220322
0.0361732
-0.047403
-0.0155084
0.0115165
-0.136056
0.204965
-0.11512
-0.0114786
0.0151363
0.0407302
-0.000675663
-0.00277022
0.00099817
0.0962571
0.0178398
0.00164935
-0.0072338
-0.154117
1.39827
-0.987193
0.967944
0.0312902
-0.108592
-0.00549451
0.0806184
-0.267351
-0.410664
0.698394
0.359736
-0.931719
-0.933631
-0.0232945
0.0329993
-0.0401968
0.0185907
-0.0591364
-0.0189683
0.0202026
-0.00597043
0.000231043
0.0404991
-0.0131379
-0.0474013
1.53826
-0.00949301
0.0325232
-1.40561
0.253857
-1.37169
-0.486669
-0.0565358
0.0045874
-0.0100819
-0.0307399
0.013582
-0.0397421
0.0481976
-0.00843257
0.389067
-0.543181
-0.772057
0.471568
0.00644963
-1.03327
-0.317201
-0.0700601
-0.0332377
-1.09229
-0.994957
-0.0156664
-0.0470892
0.0224063
0.0998495
-0.348143
0.0344142
0.0174771
-0.0357451
1.30666
-0.0136628
0.0275262
-0.0102127
-0.143515
2.78403
-0.441546
-0.221979
-0.620999
-0.176831
-0.623538
-0.0049348
0.128878
-0.123943
-0.00922995
0.135504
-0.131209
-0.0136699
0.147689
-0.143249
-0.0185
0.157659
-0.152829
-0.0237001
0.167242
-0.162042
-0.0294225
0.175803
-0.17008
-0.0356418
0.184159
-0.17794
-0.0424504
0.192256
-0.185447
0.200275
-0.19329
-0.0494353
-0.00392422
0.132802
-0.00793193
0.139512
-0.0119032
0.151661
-0.0162129
0.161969
-0.020794
0.171823
-0.0258501
0.180859
-0.0313249
0.189634
-0.0372386
0.198169
0.206583
-0.0435462
-0.00336208
0.136164
-0.00685095
0.143001
-0.0103372
0.155147
-0.0140871
0.165719
-0.0180857
0.175822
-0.0224611
0.185234
-0.0271857
0.194358
-0.0322591
0.203243
0.211992
-0.0376684
-0.00299949
0.139164
-0.0059413
0.145942
-0.0088905
0.158096
-0.0120523
0.168881
-0.0154495
0.179219
-0.0191641
0.188949
-0.0231779
0.198372
-0.027494
0.207559
0.216629
-0.0321303
-0.00268351
0.141847
-0.00506628
0.148325
-0.00745195
0.160482
-0.0100205
0.171449
-0.0128034
0.182002
-0.0158626
0.192008
-0.0191978
0.201707
-0.0228142
0.211175
0.220531
-0.0267161
-0.00224277
0.14409
-0.00409894
0.150181
-0.0059371
0.16232
-0.00791617
0.173428
-0.0100824
0.184168
-0.0124875
0.194413
-0.0151275
0.204347
-0.0180105
0.214058
0.223671
-0.0211507
-0.00151126
0.145601
-0.00293595
0.151606
-0.00427377
0.163658
-0.00569807
0.174853
-0.00725256
0.185723
-0.00899215
0.196153
-0.0109341
0.206289
-0.0130784
0.216203
0.226036
-0.0154439
-0.000587506
0.146189
-0.0016399
0.152658
-0.0024976
0.164515
-0.00336311
0.175718
-0.0043067
0.186666
-0.00538997
0.197236
-0.00662833
0.207528
-0.00803584
0.21761
0.227571
-0.00957087
0.000225975
0.145963
-0.000372074
0.153256
-0.000689375
0.164833
-0.000972363
0.176001
-0.00129183
0.186986
-0.00170552
0.19765
-0.00225002
0.208072
-0.00292727
0.218287
0.228403
-0.0037592
0.000830329
0.145132
0.000786678
0.1533
0.00109466
0.164525
0.0014436
0.175652
0.00177161
0.186658
0.002008
0.197413
0.00213319
0.207947
0.0021234
0.218297
0.228541
0.00198529
0.00127127
0.143861
0.00188891
0.152682
0.00288884
0.163525
0.00388476
0.174656
0.00485052
0.185692
0.00571936
0.196544
0.00648358
0.207183
0.00711179
0.217669
0.228072
0.00758125
0.00171991
0.142141
0.00311498
0.151287
0.00478301
0.161857
0.00638566
0.173054
0.00792771
0.18415
0.00939528
0.195077
0.0107591
0.205819
0.0120199
0.216408
0.227017
0.0130744
0.00257037
0.139571
0.00470943
0.149148
0.00686846
0.159698
0.00894269
0.17098
0.0109736
0.182119
0.012945
0.193105
0.0148471
0.203917
0.0166526
0.214602
0.225311
0.0183592
0.00373778
0.135833
0.00648424
0.146402
0.00901085
0.157171
0.0114573
0.168533
0.013881
0.179695
0.0162659
0.190721
0.0186054
0.201577
0.0208684
0.212339
0.22313
0.023049
0.00476422
0.131069
0.00808022
0.143086
0.0109619
0.15429
0.0137299
0.165765
0.0164823
0.176943
0.0192263
0.187976
0.0219415
0.198862
0.0245887
0.209692
0.220556
0.027163
0.00536435
0.125704
0.00919867
0.139252
0.0124378
0.15105
0.0155355
0.162668
0.0186109
0.173867
0.0216821
0.184905
0.0247326
0.195811
0.027729
0.206696
0.217625
0.0306597
0.00516937
0.120535
0.00954408
0.134877
0.0131973
0.147397
0.0166871
0.159178
0.0201213
0.170433
0.0235325
0.181494
0.0268993
0.192445
0.0302109
0.203384
0.214429
0.0334071
0.0042432
0.116291
0.0090091
0.130111
0.0131735
0.143233
0.0171295
0.155222
0.02097
0.166593
0.0247401
0.177724
0.0284388
0.188746
0.032053
0.19977
0.210929
0.0355534
0.00333725
0.112954
0.00812865
0.125319
0.0126645
0.138697
0.0170416
0.150845
0.0212805
0.162354
0.0254184
0.173586
0.0294598
0.184704
0.0334112
0.195818
0.207059
0.0372812
0.00282127
0.110133
0.00739339
0.120747
0.0120633
0.134027
0.0167152
0.146193
0.0212655
0.157803
0.0257187
0.169132
0.0300675
0.180355
0.0343016
0.191584
0.202951
0.038409
0.00262511
0.107507
0.00695671
0.116416
0.0116094
0.129374
0.0163912
0.141411
0.0211549
0.15304
0.0258646
0.164423
0.0304957
0.175724
0.0350134
0.187067
0.1986
0.0393643
0.00269011
0.104817
0.00685545
0.11225
0.0114294
0.1248
0.0162327
0.136608
0.0211252
0.148147
0.0260394
0.159508
0.0309298
0.170834
0.035729
0.182267
0.193916
0.0404133
0.00313151
0.101686
0.00712836
0.108253
0.0115714
0.120357
0.0163209
0.131858
0.0212878
0.14318
0.0263814
0.154415
0.0315515
0.165664
0.0366552
0.177164
0.189052
0.0415195
0.00394687
0.0977387
0.0077026
0.104498
0.011969
0.116091
0.0166514
0.127176
0.0216834
0.138148
0.0269441
0.149154
0.0324304
0.160177
0.0378642
0.17173
0.184503
0.0424129
0.0046681
0.00811878
0.0123436
0.0171348
0.0223659
0.0279002
0.03396
0.0406535
0.0483248
-0.110372
-0.000952939
0.111325
-0.109242
-0.0011302
-0.107896
-0.0013455
-0.106295
-0.00160135
-0.104404
-0.00189059
-0.102189
-0.00221545
-0.0996125
-0.0025762
-0.0966439
-0.00296865
-0.0932468
-0.00339703
-0.0894004
-0.00384639
-0.0850985
-0.00430189
-0.0803591
-0.00473943
-0.0752196
-0.00513948
-0.0697259
-0.00549376
-0.0639327
-0.00579312
-0.0578929
-0.00603977
-0.0516692
-0.00622367
-0.0453242
-0.00634502
-0.0389256
-0.00639849
-0.0325436
-0.00638205
-0.0262555
-0.006288
-0.0201549
-0.00610063
-0.0143449
-0.00580991
-0.00888886
-0.00545604
-0.00369838
-0.00519038
0.00140441
-0.0051028
0.00658876
-0.00518426
0.0120336
-0.00544482
0.0177695
-0.00573588
0.0236679
-0.00589836
0.0296165
-0.00594848
0.0355423
-0.00592583
0.0414013
-0.00585886
0.0471508
-0.00574945
0.0527482
-0.00559731
0.0581547
-0.00540645
0.0633311
-0.00517631
0.0682376
-0.00490652
0.0728411
-0.00460342
0.0771122
-0.00427112
0.0810349
-0.00392252
0.0846109
-0.00357605
0.0878852
-0.0032741
0.0909324
-0.00304726
0.0938176
-0.00288493
0.0965986
-0.00278112
0.0993094
-0.00271061
0.101966
-0.00265649
0.104563
-0.0025968
0.107085
-0.00252207
0.109512
-0.00242704
0.11182
-0.00230836
0.114
-0.00217949
0.116036
-0.00203622
0.117923
-0.00188684
0.119657
-0.00173437
0.121235
-0.00157784
0.122664
-0.00142914
-0.00127861
-0.105469
-0.00261281
0.107129
-0.103654
-0.00294584
-0.101673
-0.00332616
-0.0995144
-0.00376015
-0.0971684
-0.00423662
-0.0946169
-0.00476693
-0.0918516
-0.00534154
-0.0888578
-0.00596245
-0.0856317
-0.00662305
-0.0821735
-0.00730469
-0.0784851
-0.00799021
-0.0745673
-0.0086573
-0.0704147
-0.00929206
-0.066028
-0.0098805
-0.0614013
-0.0104198
-0.0565377
-0.0109034
-0.0514478
-0.0113136
-0.0461488
-0.011644
-0.040659
-0.0118883
-0.0350015
-0.0120395
-0.0291933
-0.0120961
-0.0232309
-0.0120631
-0.0170796
-0.0119611
-0.010693
-0.0118427
-0.00411424
-0.0117691
0.00254424
-0.0117613
0.00918081
-0.0118208
0.0156785
-0.0119426
0.0220314
-0.0120888
0.028308
-0.0121749
0.0345291
-0.0121696
0.0406784
-0.0120752
0.0467213
-0.0119017
0.0526291
-0.0116573
0.0583723
-0.0113405
0.0639277
-0.0109618
0.069276
-0.0105246
0.0744112
-0.0100417
0.0793292
-0.00952135
0.0840373
-0.0089793
0.0885479
-0.00843294
0.0928713
-0.00789956
0.097003
-0.00740569
0.100914
-0.00695822
0.104584
-0.00655476
0.107996
-0.00619338
0.111141
-0.00585545
0.114004
-0.00551954
0.116587
-0.00518012
0.118898
-0.00483288
0.120955
-0.0044835
0.122779
-0.00413212
0.124396
-0.00379669
0.125842
-0.00348196
0.127136
-0.00318129
0.128305
-0.00290324
0.129362
-0.00263458
0.130323
-0.0023907
-0.00216425
-0.112459
-0.00451449
0.114361
-0.110392
-0.00501279
-0.108153
-0.0055658
-0.105738
-0.00617423
-0.103134
-0.00684123
-0.100334
-0.0075667
-0.097333
-0.00834269
-0.0941317
-0.00916373
-0.0907295
-0.0100253
-0.0871243
-0.0109098
-0.0833078
-0.0118067
-0.0792672
-0.012698
-0.0749863
-0.0135729
-0.0704493
-0.0144175
-0.0656499
-0.0152192
-0.0605943
-0.015959
-0.0552807
-0.0166271
-0.0497185
-0.0172063
-0.0439153
-0.0176915
-0.037879
-0.0180759
-0.031613
-0.018362
-0.0251211
-0.0185551
-0.0184084
-0.0186738
-0.0115044
-0.0187467
-0.00446959
-0.0188039
0.00263717
-0.0188681
0.00975985
-0.0189434
0.0168386
-0.0190214
0.0238224
-0.0190725
0.0307055
-0.019058
0.0374885
-0.0189525
0.0441595
-0.0187462
0.0506977
-0.0184398
0.0570761
-0.0180357
0.0632771
-0.0175414
0.0692819
-0.0169666
0.0750768
-0.0163194
0.0806544
-0.0156192
0.0860123
-0.0148792
0.0911456
-0.0141127
0.0960558
-0.013343
0.100738
-0.0125821
0.10518
-0.0118472
0.109361
-0.0111391
0.113272
-0.0104654
0.116892
-0.00981412
0.12022
-0.00918347
0.123265
-0.00856461
0.126043
-0.00795833
0.128576
-0.00736528
0.130886
-0.00679353
0.132993
-0.00623951
0.134914
-0.00571756
0.136658
-0.00522597
0.13824
-0.00476369
0.139674
-0.00433643
0.140981
-0.00394233
0.142169
-0.00357834
-0.00324454
-0.118502
-0.00647549
0.120463
-0.116376
-0.0071392
-0.114068
-0.00787364
-0.11157
-0.00867225
-0.108876
-0.00953507
-0.105979
-0.0104632
-0.102875
-0.0114468
-0.0995538
-0.0124853
-0.0960144
-0.0135647
-0.0922495
-0.0146748
-0.0882523
-0.0158039
-0.0840089
-0.0169414
-0.0795159
-0.018066
-0.0747637
-0.0191697
-0.0697542
-0.0202287
-0.0644785
-0.0212347
-0.0589366
-0.022169
-0.0531261
-0.0230169
-0.0470463
-0.0237712
-0.0406987
-0.0244235
-0.0340863
-0.0249744
-0.027216
-0.0254254
-0.0201027
-0.025787
-0.0127787
-0.0260708
-0.00528949
-0.0262931
0.0023078
-0.0264654
0.00995053
-0.0265861
0.0175794
-0.0266502
0.025148
-0.0266412
0.0326278
-0.0265379
0.039999
-0.0263236
0.0472428
-0.02599
0.0543372
-0.0255343
0.061263
-0.0249614
0.0679968
-0.0242753
0.0745242
-0.0234939
0.0808323
-0.0226275
0.0869016
-0.0216886
0.0927227
-0.0207002
0.0982893
-0.0196793
0.10359
-0.0186432
0.108611
-0.0176034
0.113338
-0.0165743
0.117758
-0.0155595
0.121857
-0.0145644
0.12564
-0.0135964
0.129104
-0.0126479
0.132271
-0.0117315
0.135153
-0.01084
0.137778
-0.00999033
0.140165
-0.00918141
0.14234
-0.00841412
0.144311
-0.00768807
0.146098
-0.0070129
0.147717
-0.00638316
0.149187
-0.00580608
0.15052
-0.00527544
0.151728
-0.00478687
-0.00434551
-0.128062
-0.00856842
0.130155
-0.125776
-0.00942565
-0.123292
-0.0103578
-0.120599
-0.0113651
-0.117688
-0.0124459
-0.114554
-0.0135977
-0.111184
-0.014816
-0.107581
-0.0160886
-0.103736
-0.0174095
-0.0996453
-0.0187659
-0.0953037
-0.0201455
-0.0907074
-0.0215377
-0.0858514
-0.0229219
-0.0807344
-0.0242868
-0.0753473
-0.0256158
-0.0696889
-0.0268931
-0.0637558
-0.0281021
-0.0575426
-0.0292301
-0.051052
-0.0302618
-0.0442822
-0.0311933
-0.0372429
-0.0320138
-0.0299442
-0.0327242
-0.0224062
-0.033325
-0.0146576
-0.0338195
-0.00673982
-0.0342109
0.00129728
-0.0345026
0.00940253
-0.0346914
0.0175249
-0.0347726
0.0256177
-0.034734
0.033642
-0.0345622
0.0415648
-0.0342465
0.0493551
-0.0337803
0.056983
-0.0331621
0.0644241
-0.0324026
0.0716564
-0.0315076
0.0786523
-0.0304899
0.0853937
-0.0293689
0.0918654
-0.0281603
0.0980508
-0.0268855
0.10394
-0.0255681
0.109514
-0.0242181
0.114772
-0.0228606
0.1197
-0.0215023
0.124298
-0.020158
0.12857
-0.018836
0.132517
-0.0175436
0.136158
-0.0162893
0.139506
-0.015079
0.14258
-0.0139145
0.145398
-0.0128077
0.147977
-0.0117609
0.150337
-0.010774
0.1525
-0.00985105
0.154475
-0.00898814
0.156283
-0.00819076
0.157932
-0.00745513
0.159435
-0.00677817
0.160803
-0.00615565
-0.00558394
-0.136775
-0.0107296
0.138936
-0.134419
-0.011782
-0.131859
-0.0129172
-0.129081
-0.0141427
-0.126072
-0.0154559
-0.122826
-0.0168433
-0.119334
-0.0183083
-0.115587
-0.0198358
-0.111577
-0.0214193
-0.107302
-0.0230412
-0.102753
-0.0246939
-0.0979279
-0.0263629
-0.0928179
-0.0280319
-0.0874185
-0.0296862
-0.0817272
-0.0313072
-0.0757399
-0.0328805
-0.069453
-0.034389
-0.0628706
-0.0358125
-0.0559893
-0.0371431
-0.0488151
-0.0383676
-0.0413527
-0.0394762
-0.0336187
-0.0404582
-0.0256327
-0.041311
-0.0174257
-0.0420265
-0.0090374
-0.0425992
-0.000514326
-0.0430257
0.00809422
-0.0432999
0.0167398
-0.0434181
0.0253748
-0.043369
0.0339549
-0.0431423
0.0424401
-0.0427317
0.0507889
-0.0421291
0.0589664
-0.0413397
0.0669423
-0.0403785
0.0746837
-0.0392489
0.0821675
-0.0379737
0.0893696
-0.0365709
0.0962607
-0.0350515
0.102828
-0.0334529
0.109055
-0.0317946
0.114934
-0.030097
0.120453
-0.0283798
0.125614
-0.0266638
0.130416
-0.0249601
0.134869
-0.0232888
0.138983
-0.0216578
0.142774
-0.0200799
0.146261
-0.0185656
0.149468
-0.0171216
0.152415
-0.0157548
0.155125
-0.0144711
0.157614
-0.013263
0.159899
-0.0121366
0.161998
-0.0110871
0.163925
-0.0101172
0.165684
-0.00921457
0.167289
-0.00838283
0.168753
-0.00762001
-0.00691099
-0.14715
-0.0129967
0.149417
-0.144676
-0.0142558
-0.141983
-0.0156098
-0.13906
-0.0170657
-0.135896
-0.0186197
-0.132477
-0.0202622
-0.128796
-0.0219899
-0.124841
-0.0237908
-0.120612
-0.0256483
-0.116095
-0.0275576
-0.11129
-0.0294993
-0.10619
-0.0314632
-0.100785
-0.0334361
-0.0950729
-0.0353987
-0.0890479
-0.0373321
-0.0827086
-0.0392198
-0.0760481
-0.0410494
-0.0690781
-0.0427825
-0.0617938
-0.0444274
-0.0542041
-0.0459573
-0.0463119
-0.0473684
-0.0381358
-0.0486344
-0.0296973
-0.0497494
-0.0210228
-0.0507011
-0.0121595
-0.0514625
-0.00315017
-0.052035
0.005953
-0.0524031
0.0151064
-0.0525716
0.0242622
-0.0525248
0.0333712
-0.0522513
0.0423916
-0.0517521
0.0512667
-0.0510042
0.0599563
-0.0500293
0.0684265
-0.0488487
0.0766362
-0.0474586
0.0845648
-0.0459023
0.0921854
-0.0441915
0.0994542
-0.0423203
0.106368
-0.040367
0.112912
-0.0383389
0.119086
-0.0362705
0.12488
-0.0341739
0.130301
-0.0320845
0.13535
-0.0300099
0.140046
-0.0279847
0.144399
-0.0260105
0.148425
-0.0241063
0.15214
-0.0222806
0.155569
-0.0205503
0.158733
-0.0189191
0.161648
-0.0173858
0.164341
-0.0159565
0.166821
-0.0146165
0.169104
-0.0133698
0.171199
-0.0122124
0.173121
-0.0111364
0.17488
-0.0101412
0.176482
-0.00922285
-0.00836813
-0.157678
-0.0153407
0.160022
-0.155134
-0.0167995
-0.152373
-0.0183712
-0.149368
-0.02007
-0.146114
-0.0218738
-0.142589
-0.0237873
-0.138793
-0.0257856
-0.134704
-0.0278802
-0.130307
-0.030045
-0.12562
-0.0322449
-0.120619
-0.0345008
-0.115295
-0.0367873
-0.109644
-0.0390871
-0.103653
-0.0413892
-0.0973221
-0.0436631
-0.0906407
-0.0459012
-0.0836072
-0.048083
-0.0762554
-0.0501343
-0.0685775
-0.0521053
-0.0605751
-0.0539597
-0.052245
-0.0556985
-0.0436175
-0.0572619
-0.0347181
-0.0586488
-0.0255453
-0.0598739
-0.0161883
-0.0608195
-0.00667535
-0.061548
0.00292201
-0.0620005
0.012584
-0.0622335
0.0222542
-0.0621951
0.0318805
-0.0618776
0.0414332
-0.0613048
0.0508164
-0.0603874
0.0599917
-0.0592046
0.0689511
-0.0578081
0.0776025
-0.05611
0.0859641
-0.054264
0.0940253
-0.0522527
0.101664
-0.0499586
0.108924
-0.0476277
0.115804
-0.0452185
0.122298
-0.0427642
0.128415
-0.0402913
0.134137
-0.0378062
0.139487
-0.0353599
0.144505
-0.0330034
0.149159
-0.0306645
0.153497
-0.0284438
0.15751
-0.0262937
0.1612
-0.0242406
0.164606
-0.0223253
0.167755
-0.0205349
0.170668
-0.0188688
0.173356
-0.0173045
0.175832
-0.0158463
0.17811
-0.0144905
0.180202
-0.0132278
0.182109
-0.0120488
0.183854
-0.0109674
-0.00996143
-0.169806
0.17219
-0.0177251
-0.167176
-0.0194285
-0.164309
-0.0212385
-0.161174
-0.0232053
-0.157775
-0.025273
-0.15408
-0.0274817
-0.150079
-0.0297863
-0.145805
-0.0321546
-0.141228
-0.0346219
-0.136254
-0.0372191
-0.131007
-0.0397481
-0.125414
-0.0423799
-0.119429
-0.0450725
-0.11314
-0.0476778
-0.106446
-0.0503573
-0.0994679
-0.0528792
-0.092113
-0.0554379
-0.0843506
-0.0578967
-0.0761937
-0.0602621
-0.0677435
-0.06241
-0.0589565
-0.0644854
-0.0499252
-0.0662933
-0.0405988
-0.0679752
-0.0309274
-0.0695453
-0.021076
-0.0706709
-0.0110748
-0.0715492
-0.00102871
-0.0720466
0.00913597
-0.0723982
0.0193319
-0.072391
0.0293961
-0.0719418
0.0394477
-0.0713563
0.0493029
-0.0702427
0.0588919
-0.0687936
0.0683092
-0.0672254
0.0774014
-0.0652022
0.0861618
-0.0630244
0.09449
-0.0605809
0.102384
-0.0578523
0.110029
-0.0552734
0.117237
-0.0524258
0.124063
-0.0495908
0.130567
-0.0467945
0.136675
-0.0439144
0.142435
-0.0411201
0.147855
-0.038424
0.152921
-0.0357303
0.157655
-0.0331774
0.162027
-0.030666
0.166176
-0.0283894
0.170018
-0.0261677
0.173558
-0.0240746
0.176817
-0.0221279
0.179808
-0.0202951
0.182606
-0.0186446
0.185181
-0.0170656
0.187534
-0.0155813
0.189674
-0.0141879
0.191559
-0.0128529
-0.0116928
-0.0737233
0.00900995
-0.0816157
0.00789228
-0.0884748
0.00685896
-0.0945208
0.00604593
-0.100222
0.00570123
-0.10582
0.00559787
-0.111319
0.00549875
-0.11678
0.00546127
-0.122244
0.00546386
-0.127269
0.00502467
-0.131145
0.00387596
-0.133483
0.00233807
-0.134304
0.000820904
-0.134023
-0.000281287
-0.133279
-0.000743664
-0.132451
-0.000828231
-0.131592
-0.00085916
-0.13059
-0.00100262
-0.129203
-0.00138627
-0.127123
-0.00208001
-0.12433
-0.00279306
-0.121098
-0.00323243
-0.117722
-0.00337611
-0.114546
-0.00317626
-0.0032211
-0.0783386
0.0166622
-0.0859406
0.0154942
-0.0932434
0.0141618
-0.100254
0.0130569
-0.106916
0.0123629
-0.113221
0.0119029
-0.119214
0.0114917
-0.124806
0.0110534
-0.129733
0.0103903
-0.133822
0.00911415
-0.137132
0.007186
-0.139694
0.00489912
-0.141476
0.00260377
-0.142404
0.000646296
-0.142427
-0.000720564
-0.141643
-0.0016121
-0.140191
-0.00231112
-0.138152
-0.00304189
-0.135604
-0.0039344
-0.132651
-0.0050326
-0.129267
-0.00617749
-0.125267
-0.00723241
-0.12045
-0.00819317
-0.114462
-0.00916443
-0.0105537
-0.0857137
0.0254232
-0.0941142
0.0238947
-0.10219
0.0222377
-0.109892
0.0207582
-0.117084
0.0195552
-0.12371
0.0185293
-0.12974
0.0175212
-0.135081
0.0163941
-0.139639
0.0149483
-0.14349
0.0129658
-0.14675
0.0104452
-0.149455
0.00760438
-0.151592
0.00474049
-0.153064
0.00211846
-0.153708
-7.67883e-05
-0.153433
-0.00188629
-0.152267
-0.00347722
-0.150275
-0.0050346
-0.147536
-0.00667333
-0.144126
-0.00844181
-0.14003
-0.0102737
-0.13514
-0.0121226
-0.129324
-0.0140092
-0.122419
-0.0160691
-0.0186123
-0.0929372
0.0350722
-0.102053
0.0330109
-0.110743
0.0309277
-0.118962
0.0289771
-0.126602
0.0271952
-0.133585
0.0255114
-0.139856
0.0237929
-0.145368
0.0219061
-0.150108
0.0196874
-0.154153
0.0170111
-0.157604
0.0138967
-0.160501
0.0105011
-0.162804
0.00704303
-0.164419
0.00373418
-0.165194
0.000697879
-0.165024
-0.00205648
-0.163868
-0.00463259
-0.161752
-0.00715105
-0.158713
-0.0097121
-0.154803
-0.0123516
-0.149995
-0.0150819
-0.144215
-0.0179023
-0.137365
-0.0208597
-0.12939
-0.0240444
-0.0275388
-0.100111
0.0454566
-0.109952
0.042851
-0.119254
0.0402296
-0.127987
0.0377102
-0.136069
0.0352774
-0.143439
0.0328814
-0.150052
0.0304059
-0.155884
0.0277381
-0.160949
0.0247525
-0.165307
0.0213686
-0.169026
0.017616
-0.172131
0.0136056
-0.174571
0.00948315
-0.176256
0.00541967
-0.177077
0.00151804
-0.176919
-0.00221425
-0.175727
-0.00582423
-0.173501
-0.00937705
-0.170257
-0.012956
-0.166018
-0.0165911
-0.160788
-0.0203121
-0.154558
-0.0241322
-0.147338
-0.0280799
-0.13918
-0.0322019
-0.0365639
-0.107331
0.0563703
-0.117831
0.0533505
-0.127724
0.050123
-0.136981
0.0469665
-0.145533
0.0438295
-0.153341
0.0406893
-0.160361
0.0374261
-0.166588
0.0339647
-0.172042
0.0302071
-0.176757
0.0260832
-0.180781
0.0216403
-0.184111
0.0169347
-0.186699
0.0120712
-0.188464
0.00718527
-0.189292
0.00234619
-0.189104
-0.00240235
-0.187845
-0.00708384
-0.185476
-0.0117456
-0.182009
-0.0164238
-0.177444
-0.0211557
-0.171802
-0.0259543
-0.16509
-0.0308439
-0.157336
-0.0358341
-0.148581
-0.0409567
-0.0462093
-0.114426
0.0681523
-0.125678
0.0646019
-0.136194
0.0606392
-0.146002
0.0567746
-0.155059
0.0528864
-0.163346
0.0489764
-0.170809
0.0448893
-0.177465
0.0406206
-0.183327
0.0360686
-0.188415
0.0311708
-0.19276
0.0259853
-0.196348
0.0205228
-0.19911
0.0148332
-0.200965
0.00904053
-0.201835
0.00321623
-0.201635
-0.00260253
-0.200308
-0.00841157
-0.197823
-0.0142297
-0.194171
-0.0200759
-0.189372
-0.0259555
-0.18344
-0.0318854
-0.17642
-0.0378644
-0.168355
-0.043899
-0.159323
-0.0499894
-0.0561152
-0.121513
0.0810739
-0.133583
0.076672
-0.144709
0.0717652
-0.155086
0.0671512
-0.164668
0.0624685
-0.173466
0.0577736
-0.181394
0.0528175
-0.188487
0.0477133
-0.194781
0.042363
-0.200245
0.0366343
-0.204912
0.0306525
-0.208785
0.0243956
-0.211739
0.0177878
-0.21372
0.0110211
-0.214647
0.00414312
-0.214445
-0.00280466
-0.213069
-0.00978803
-0.210483
-0.0168156
-0.206677
-0.023882
-0.201673
-0.0309595
-0.195496
-0.0380621
-0.188199
-0.0451621
-0.17981
-0.0522879
-0.170392
-0.0594071
-0.0664858
-0.129104
0.0950584
-0.141739
0.0893071
-0.153307
0.0833333
-0.164222
0.0780654
-0.174341
0.0725875
-0.183703
0.067136
-0.192113
0.0612272
-0.199659
0.0552588
-0.20639
0.0490943
-0.212255
0.0424994
-0.217224
0.0356213
-0.221359
0.0285306
-0.224555
0.0209837
-0.226673
0.0131387
-0.227665
0.00513527
-0.227485
-0.0029845
-0.226066
-0.0112072
-0.223417
-0.0194647
-0.219474
-0.0278253
-0.214256
-0.0361777
-0.207886
-0.0444318
-0.200386
-0.052662
-0.191785
-0.0608893
-0.182351
-0.0688412
-0.076647
1.26403
0.432379
0.233462
-0.665827
-0.530008
0.652747
-0.122731
0.294182
-0.384109
0.0899276
0.361017
-0.418892
0.0578751
-0.0113197
-0.512423
0.523744
-0.413259
0.725415
-0.312156
0.913981
-0.769532
-0.144467
-0.0457621
-0.209531
0.255294
4.65458
-3.1158
-1.53878
-0.800632
1.67356
-0.872929
-0.972666
0.31664
0.656024
0.894005
-1.62213
0.728119
-0.650494
-0.274957
0.925448
0.126947
-0.129537
0.00258986
2.58319
-2.35919
-0.223998
-0.607972
0.077972
0.139777
-0.0251696
-0.114608
0.2242
0.112874
0.259889
0.0907381
-0.350628
-0.358636
0.221084
0.137552
2.61353
1.09519
-3.7087
-0.463806
0.828385
-0.36458
1.177
-0.91204
-0.26496
-0.882324
0.258401
0.623923
1.00937
0.167629
-1.11335
0.563121
0.550229
-1.0701
0.266529
0.803578
3.11588
-1.92435
-1.19152
-0.0328795
-0.152123
0.185003
0.285125
0.429233
-0.714358
0.803155
-1.92761
1.12448
0.668295
0.902865
-1.57116
1.71306
-3.482
1.76894
-0.302251
-0.0738279
0.376079
0.45006
1.07701
-1.52707
-0.897362
0.24687
-2.48724
0.832301
1.65494
-0.357833
0.677138
-0.319304
1.11485