/*--------------------------------*- C++ -*----------------------------------*\
  =========                 |
  \\      /  F ield         | OpenFOAM: The Open Source CFD Toolbox
   \\    /   O peration     | Website:  https://openfoam.org
    \\  /    A nd           | Version:  10
     \\/     M anipulation  |
\*---------------------------------------------------------------------------*/
FoamFile
{
    format      ascii;
    class       volVectorField;
    location    "650";
    object      U;
}
// * * * * * * * * * * * * * * * * * * * * * * * * * * * * * * * * * * * * * //

dimensions      [0 1 -1 0 0 0 0];

internalField   nonuniform List<vector> 
10435
(
(1.6439 0.162835 -7.09111e-24)
(1.604 0.434196 1.18892e-21)
(3.09829 -0.0275443 -1.35483e-21)
(2.03299 -0.0537103 3.58598e-21)
(2.31806 0.102826 -3.32473e-21)
(2.89553 0.161665 3.39505e-20)
(3.10117 -0.046405 -4.03767e-21)
(3.0841 -0.097432 3.39047e-21)
(3.01496 -0.171091 2.13221e-20)
(3.027 0.102394 -9.66474e-21)
(1.77872 0.323303 -6.73656e-23)
(2.47235 -0.26646 1.21545e-20)
(3.12158 0.00426821 1.00892e-20)
(0.944807 0.367555 3.31228e-21)
(1.04822 0.395664 3.11382e-21)
(3.06148 -0.0775663 -3.88496e-22)
(0.844258 0.321232 -1.17115e-21)
(3.11234 0.0775558 6.31435e-20)
(2.97233 -0.219966 -9.354e-21)
(1.72645 0.100992 -1.87937e-22)
(3.08053 -0.085863 2.35961e-21)
(2.03723 -0.150373 -5.54724e-21)
(3.0565 -0.0549393 2.18367e-20)
(2.72618 -0.460577 -1.00414e-20)
(3.02065 0.0564503 8.75863e-21)
(0.213069 0.337003 3.45308e-22)
(0.0527669 0.0375786 1.05441e-21)
(3.11146 -0.0208687 3.82036e-21)
(0.24182 -0.0964421 -2.0931e-22)
(3.07647 0.103525 6.93898e-20)
(2.92957 -0.057248 1.28512e-20)
(1.87192 0.275576 -3.51933e-22)
(3.07437 -0.109763 -8.6639e-21)
(0.484313 -0.0983509 -1.54641e-21)
(2.99203 -0.194838 6.03773e-21)
(1.34853 0.601924 -1.45866e-21)
(2.9761 -0.174416 1.09397e-20)
(0.156612 0.207621 -4.21349e-21)
(0.348984 0.33195 1.11787e-22)
(2.90514 -0.318451 2.45288e-21)
(3.06396 0.159265 -7.62324e-20)
(3.09147 -0.041486 -4.38292e-21)
(0.625694 0.487437 5.78008e-21)
(1.8672 0.0677847 -3.99482e-21)
(2.9708 -0.134358 -2.0123e-20)
(2.81421 -0.410943 1.80864e-20)
(2.98333 0.166131 -4.82178e-20)
(0.445076 0.387172 2.08332e-20)
(3.02529 -0.13541 6.62643e-21)
(2.02445 -0.253112 -3.12853e-21)
(3.07234 -0.104756 -6.03245e-22)
(2.8118 0.0233435 1.14988e-19)
(0.393451 0.344723 6.5207e-22)
(0.327641 -0.170628 -1.7037e-22)
(0.305428 0.336618 -1.90833e-22)
(0.191722 -0.118614 5.35855e-22)
(2.89914 -0.266466 -3.28632e-20)
(0.164245 0.135441 -1.83788e-21)
(0.690086 0.109002 1.48496e-21)
(2.91542 -0.291125 2.23706e-20)
(0.348882 0.351047 -3.53069e-22)
(1.51702 0.49334 -2.03878e-21)
(0.185089 0.0394175 2.06091e-21)
(2.66657 -0.000669385 -8.77395e-21)
(3.01785 -0.0828485 -3.44508e-20)
(3.08487 -0.00673004 1.86188e-20)
(0.622021 0.0241305 -2.64329e-21)
(0.350836 0.160041 -7.35719e-21)
(3.0913 -0.0828319 -4.18928e-21)
(2.61272 -0.504544 9.65686e-22)
(0.280364 -0.189484 5.22579e-22)
(0.170617 0.294127 -1.89897e-22)
(0.711159 0.600591 -9.71494e-21)
(3.0721 -0.0144791 -2.27905e-20)
(1.15214 0.407223 1.10095e-21)
(0.784929 0.607029 -9.7369e-23)
(2.50311 -0.514725 3.07987e-20)
(3.10309 -0.0544697 9.36765e-21)
(3.07366 -0.111534 1.13738e-21)
(1.20211 0.301209 -6.78448e-21)
(2.1824 -0.388487 3.40614e-21)
(1.57544 0.132853 2.75864e-22)
(0.436685 0.35737 -6.56862e-22)
(0.369677 -0.157965 1.19064e-22)
(2.26684 -0.4411 -7.43994e-21)
(1.33822 0.549827 9.24803e-22)
(1.48658 0.403185 2.88813e-22)
(1.83025 0.169081 6.5225e-22)
(1.21526 0.524626 8.79889e-22)
(1.57426 0.348018 -4.04498e-22)
(1.9151 0.112048 -2.8384e-22)
(2.01041 0.0530179 -7.06988e-22)
(1.6566 0.072085 4.3262e-22)
(1.30318 0.499248 -7.38395e-22)
(1.66073 0.289095 1.08461e-22)
(1.26546 0.644804 8.87663e-23)
(2.10609 -0.0125121 6.51062e-21)
(1.10036 0.499524 -1.51969e-21)
(0.789159 0.181152 1.19794e-21)
(2.21071 -0.0160861 -9.58177e-21)
(1.15564 0.514378 -9.7565e-22)
(2.40864 0.219242 -3.75914e-21)
(1.39419 0.455263 1.89395e-22)
(1.74641 0.228323 2.1538e-22)
(2.54554 0.20346 9.37214e-22)
(1.9489 0.00749272 -4.1871e-22)
(1.734 0.00828178 3.22048e-22)
(2.10367 -0.328271 4.36091e-21)
(2.36843 -0.478245 -1.24412e-20)
(1.3013 0.280157 1.37505e-21)
(1.95117 -0.186667 -1.35641e-21)
(2.27227 0.235623 -2.4047e-21)
(1.48927 0.1883 9.60287e-22)
(1.39781 0.240766 1.04141e-21)
(2.10399 0.0470321 -3.12503e-21)
(1.95957 -0.0866714 1.72693e-21)
(2.30488 -0.072877 -6.01361e-21)
(1.42602 0.502604 5.88394e-22)
(1.77138 0.272602 -1.45021e-21)
(2.29614 -0.152047 -1.8472e-21)
(2.39343 -0.122293 -1.97016e-20)
(0.797609 0.678883 1.08374e-21)
(1.51157 0.449588 -2.18455e-21)
(1.0298 0.758085 -1.62881e-21)
(1.88702 0.342099 2.71871e-22)
(0.285752 0.346537 -4.2002e-22)
(2.20848 -0.0941457 1.13202e-20)
(0.874505 0.721135 7.50161e-23)
(2.32797 0.00471374 -1.23961e-20)
(0.0714908 0.22612 4.2138e-22)
(0.952128 0.746091 1.57255e-22)
(1.78058 0.381885 1.3163e-22)
(3.06313 -0.10003 -8.15013e-21)
(1.10111 0.299741 -5.99955e-21)
(0.153829 0.253042 -1.93642e-23)
(0.585954 0.410876 -3.65997e-23)
(1.18177 0.736407 3.17896e-21)
(2.11971 -0.122044 -4.33489e-22)
(1.68546 0.33144 4.59659e-22)
(1.88255 -0.0245236 1.13873e-21)
(1.8053 0.0383767 -1.46586e-22)
(2.96608 -0.0812271 -4.46266e-20)
(0.55706 -0.0322212 -6.06449e-21)
(2.67237 -0.126431 6.86324e-20)
(2.11904 -0.218401 7.00073e-22)
(0.96042 0.600435 -6.0787e-21)
(1.10585 0.758022 -1.81201e-21)
(2.75472 0.0691125 -3.60184e-20)
(0.804769 0.421071 -5.44236e-21)
(2.64185 -0.207223 4.87627e-21)
(0.380968 0.378007 1.26405e-21)
(2.90638 -0.192724 1.86874e-20)
(1.61786 0.251214 6.78184e-24)
(2.72765 -0.171938 3.73265e-20)
(2.88083 0.0866573 -3.17402e-20)
(0.31198 0.357455 -1.11428e-21)
(2.00048 0.300424 2.77057e-21)
(1.59834 0.391337 7.75361e-22)
(2.96506 0.100474 -3.15038e-20)
(1.59378 0.482914 -5.69189e-22)
(2.82769 -0.183075 -8.07262e-21)
(1.00061 0.277062 1.40408e-21)
(1.95895 0.15873 6.5766e-21)
(2.38423 -0.359627 6.80091e-21)
(1.25759 0.38913 -1.82211e-21)
(2.4354 -0.0600912 5.53088e-20)
(3.05234 -0.13211 -1.8458e-20)
(2.29523 -0.23891 -5.77651e-21)
(2.56526 -0.389604 1.46078e-20)
(2.59305 -0.0665772 -1.27817e-19)
(2.9607 0.0493361 2.57424e-20)
(0.655772 0.552689 2.01246e-21)
(0.0433725 -0.0271127 -7.59738e-22)
(1.03902 0.601819 9.02278e-22)
(2.65396 -0.28803 -1.72627e-20)
(1.50755 0.542208 8.97039e-22)
(1.43177 0.55047 3.36182e-21)
(0.575623 0.321568 -3.08491e-21)
(1.88017 -0.121789 6.47947e-22)
(0.292907 -0.0700562 2.09878e-22)
(1.6909 0.376062 -4.84056e-22)
(2.78902 0.165232 -5.7999e-21)
(2.56014 -0.232785 -4.30217e-20)
(0.333542 0.358799 -1.91667e-22)
(2.90077 -0.131154 5.64115e-21)
(0.558828 0.485204 -6.00406e-21)
(0.726042 0.605791 9.62063e-21)
(3.09809 -0.0599151 -8.01702e-21)
(2.43208 0.0892753 6.41435e-21)
(2.74273 -0.0610351 -5.9308e-20)
(2.44977 -0.182591 5.00429e-21)
(0.475473 0.371095 -6.35421e-22)
(0.0944585 0.260517 -5.12229e-22)
(1.26025 0.700522 -2.50716e-21)
(2.13077 0.266565 2.54345e-21)
(3.09569 -0.0706827 7.37098e-22)
(0.772379 0.519039 -1.32975e-20)
(1.25018 0.586754 -2.20955e-22)
(0.508058 0.367484 -1.95474e-20)
(3.02677 -0.113234 1.37932e-20)
(1.2371 0.456148 2.47021e-21)
(0.218569 0.25117 -1.74903e-21)
(3.11268 -0.0101225 -1.51867e-21)
(0.209373 0.203174 -1.93997e-21)
(3.10218 -0.0106829 -4.74702e-21)
(2.09953 0.107845 6.12062e-22)
(1.85773 0.216314 2.86206e-21)
(2.21039 -0.188418 -3.61958e-21)
(0.259781 0.016112 1.60095e-21)
(2.20364 -0.281726 -3.45423e-21)
(0.437626 0.418523 2.76336e-21)
(3.07491 -0.0430052 -2.72838e-20)
(2.52062 -0.14316 6.93858e-20)
(2.48112 -0.349731 7.09783e-21)
(0.0871171 0.0165808 -4.17653e-22)
(0.903472 0.46685 1.25761e-20)
(1.36819 0.334066 -5.20792e-22)
(0.444684 0.400593 5.60532e-22)
(0.201778 0.329826 -7.42036e-22)
(0.900744 0.235145 -1.35846e-21)
(0.342581 -0.0987155 8.94664e-23)
(0.642215 0.2628 -6.18467e-21)
(0.465571 0.00763251 4.11179e-21)
(1.03824 0.668517 3.11649e-21)
(0.248012 0.338308 -4.61273e-22)
(3.03643 -0.133877 -4.90856e-21)
(0.253563 0.330868 1.55346e-21)
(1.16639 0.603749 -1.84352e-21)
(2.8563 -0.0440597 8.27793e-20)
(0.87101 0.655515 5.92743e-21)
(0.498052 0.21157 2.24204e-20)
(3.05129 -0.132591 1.74835e-20)
(0.228437 0.332844 2.37672e-21)
(2.82506 -0.264535 1.97859e-20)
(0.0651557 0.146877 -2.40024e-21)
(0.736535 0.270211 1.09709e-20)
(2.80055 -0.352212 -2.54499e-20)
(0.211783 0.328877 5.41625e-22)
(2.70033 -0.404855 -1.57628e-21)
(2.95769 -0.0069724 4.29625e-22)
(1.78636 0.1288 1.10325e-21)
(0.29455 0.357887 -9.96599e-23)
(0.481852 0.425853 -7.68925e-23)
(0.24142 -0.139579 2.83338e-23)
(2.02435 0.134196 -1.19097e-20)
(3.05048 -0.131767 5.86911e-21)
(1.18315 0.675096 -2.56118e-21)
(3.10226 -0.0748096 2.43649e-21)
(0.111493 -0.106043 -6.00341e-22)
(1.42148 0.59903 -7.97267e-22)
(0.170315 -0.15875 -6.53855e-22)
(1.34147 0.415033 7.24143e-22)
(3.11013 0.0356254 -1.95778e-20)
(2.28913 -0.330974 -5.94461e-21)
(3.10629 -0.0656122 -4.2849e-21)
(2.50896 0.00445159 2.70296e-20)
(0.118477 -0.136862 2.24908e-21)
(3.10814 -0.0603067 6.53943e-21)
(0.388616 0.395118 -2.01057e-22)
(0.303857 0.293693 5.17948e-21)
(3.10937 -0.0545883 3.81518e-22)
(2.90493 0.0274062 2.69741e-21)
(0.258285 0.346619 -1.39641e-22)
(2.46756 -0.462015 -1.83927e-20)
(1.464 0.279623 -3.11678e-22)
(0.597606 0.163912 -1.14999e-20)
(1.70318 0.190522 7.53032e-23)
(3.00391 -0.0438862 2.39908e-20)
(0.41957 0.375602 2.10456e-22)
(2.20244 0.0621535 1.81286e-21)
(3.10917 -0.0485579 -2.5014e-23)
(3.10338 -0.0843771 -1.0994e-21)
(3.10702 -0.0719233 -8.11077e-22)
(3.05346 0.0381931 -3.11671e-20)
(0.173361 0.325768 1.2464e-21)
(2.37479 -0.1868 -8.78833e-21)
(0.119596 0.211499 2.24365e-21)
(2.17921 0.154494 9.6308e-22)
(3.08147 -0.0679617 3.59341e-21)
(3.09694 -0.0914829 4.31264e-22)
(3.07437 0.0611762 2.24154e-20)
(0.665406 0.433804 2.3908e-20)
(3.11178 -0.0423519 -2.55105e-22)
(1.10776 0.602716 1.84739e-22)
(1.43451 0.365619 3.92948e-22)
(0.501613 0.403315 2.18126e-22)
(2.54823 0.076826 4.65966e-21)
(0.285267 0.321703 1.47551e-22)
(0.414336 -0.145 6.31494e-22)
(0.408575 -0.0917218 -3.60059e-22)
(1.09871 0.68629 8.16406e-22)
(1.68269 0.43086 -8.35172e-22)
(0.334109 -0.0226995 -9.44782e-22)
(3.10664 -0.0782245 2.00223e-21)
(0.33058 0.308998 1.39182e-23)
(0.244162 -0.188872 -1.95126e-21)
(0.87891 0.570176 1.05212e-21)
(1.55703 0.222557 -4.82988e-23)
(2.06223 0.197366 -5.26416e-23)
(3.00838 0.000796704 1.55527e-20)
(0.422022 0.258007 -3.72181e-20)
(2.61471 -0.424222 -5.13903e-21)
(3.11533 -0.038009 -1.15005e-22)
(0.0799054 -0.0740784 -8.13927e-22)
(1.96193 0.241259 -1.39084e-21)
(0.998105 0.494803 -5.92114e-21)
(0.705736 0.359445 -7.15696e-21)
(2.74031 -0.313747 -2.12734e-21)
(3.05164 0.00337357 -3.08773e-22)
(0.457831 -0.136563 -2.83902e-22)
(1.80669 -0.0558547 5.90738e-22)
(0.21789 0.283252 -2.92124e-23)
(1.33947 0.653112 1.45304e-21)
(2.64721 0.0773343 -1.35471e-20)
(3.01795 -0.180369 -3.99512e-21)
(0.20832 -0.17612 -4.60363e-22)
(0.355868 0.371803 1.98783e-22)
(2.79829 -0.112069 -7.3656e-20)
(0.431544 0.12098 -3.34066e-22)
(2.38272 -0.266862 7.40291e-21)
(2.67245 0.187632 -4.51053e-21)
(0.171282 -0.0181635 -1.94142e-21)
(1.52875 0.310036 1.60297e-23)
(0.514376 0.386471 1.97843e-23)
(3.08771 -0.0983769 -3.61191e-22)
(3.10017 0.00972351 -6.46497e-21)
(0.147303 0.319078 5.28908e-22)
(3.11704 -0.0333527 -2.50988e-23)
(0.521296 0.0791167 -3.67214e-22)
(0.111299 0.14461 3.16508e-21)
(2.97396 -0.242262 -4.46537e-22)
(0.489867 -0.0645635 8.39187e-22)
(0.495884 -0.129317 -3.14005e-22)
(3.10652 -0.0372553 4.47003e-22)
(2.74224 -0.246828 1.6427e-20)
(0.23099 0.108727 5.20948e-21)
(0.197037 -0.165256 -8.08281e-22)
(0.122764 -0.127592 -4.3689e-22)
(0.543622 -0.108916 -1.61855e-22)
(0.0749294 -0.0532553 -1.41995e-22)
(0.123807 0.305782 -1.34836e-21)
(0.229506 0.320704 -9.22726e-22)
(0.38793 0.361013 1.38582e-22)
(0.0358771 -0.0154709 8.44517e-22)
(0.0546224 -0.0452558 -1.19313e-21)
(0.302074 0.336071 9.3607e-22)
(0.299653 0.0804101 -1.34259e-21)
(0.0201829 0.107962 2.34242e-22)
(0.548971 0.398752 3.79375e-22)
(3.07156 -0.109956 -2.83339e-21)
(0.524609 -0.120629 -5.97598e-22)
(3.0799 0.0229599 9.24582e-22)
(0.0265267 0.0120516 -2.42464e-22)
(3.1175 -0.0280573 -9.31322e-23)
(3.07974 -0.103793 1.06385e-21)
(3.0294 -0.12977 -9.15573e-22)
(3.1352 -0.00820895 -2.38117e-22)
(3.04794 -0.0279497 -1.39965e-20)
(0.285139 -0.155083 -4.56e-22)
(0.43121 -0.121016 1.42299e-21)
(0.154225 -0.144505 9.22938e-23)
(0.242771 0.339419 -8.60936e-22)
(0.116055 -0.0753213 -4.64261e-24)
(0.462462 0.390262 -2.67475e-22)
(0.122572 -0.0178381 9.60379e-22)
(0.105167 0.286813 -7.15257e-22)
(0.280676 0.191881 1.32304e-20)
(2.57078 -0.318306 -2.80804e-21)
(0.115063 0.286952 9.18685e-22)
(3.0513 -0.120662 3.14788e-21)
(0.269092 0.337339 -9.11923e-23)
(0.0884881 0.26074 1.03668e-21)
(3.14788 0.00111007 -5.30879e-21)
(3.01277 -0.139551 -4.23796e-21)
(0.536585 0.42388 -1.30604e-21)
(0.0232083 0.0498453 -6.88318e-22)
(0.126137 0.0606214 -1.08271e-21)
(0.0385048 0.0810639 8.85544e-23)
(0.378965 -0.127746 -4.53296e-22)
(0.179241 0.328637 7.0912e-25)
(0.0167545 0.0848978 8.78988e-22)
(0.310938 0.342945 3.4587e-22)
(3.08465 -0.100947 -7.92819e-22)
(0.375153 0.0438773 1.96051e-21)
(3.09981 -0.0834697 2.67459e-22)
(3.06616 -0.11186 3.76954e-21)
(3.11975 -0.0217729 -2.50308e-24)
(3.12526 -0.0130732 6.89972e-21)
(3.04909 -0.119695 -1.773e-21)
(3.11303 -0.0288742 -9.92269e-22)
(3.01755 -0.180142 -4.10618e-21)
(0.95461 0.683916 -1.51172e-22)
(0.54091 0.475812 3.34056e-21)
(0.287566 -0.121814 -7.30401e-22)
(0.236112 -0.173836 3.54924e-22)
(3.11162 -0.0339335 1.13705e-21)
(0.328796 -0.142414 1.3154e-21)
(3.13679 0.00428883 -2.4206e-20)
(0.0226059 0.108935 -1.39609e-22)
(0.228455 -0.0408 1.55267e-22)
(0.0663866 0.224775 -1.92981e-22)
(0.412146 -0.0436638 3.41394e-22)
(0.381358 0.387521 -8.30657e-22)
(3.08798 -0.0550556 1.86692e-20)
(0.084131 0.0832626 4.48034e-22)
(3.09368 -0.0924487 1.0578e-22)
(2.65342 -0.352007 -5.4666e-21)
(0.525137 0.451459 2.45963e-22)
(0.15117 0.317569 -8.80517e-23)
(0.0582235 0.147949 3.65294e-22)
(2.99453 -0.161228 8.55153e-21)
(0.0663145 0.191557 -9.8263e-22)
(0.130665 0.304081 5.09822e-23)
(0.312221 0.361408 1.35212e-21)
(0.15574 -0.0951808 -1.23618e-22)
(0.350155 0.281438 -4.77365e-21)
(0.157921 -0.0519378 -5.7899e-23)
(3.10634 -0.0252358 9.16361e-21)
(0.228934 -0.192881 -5.43757e-23)
(0.176684 0.309906 -4.90526e-22)
(0.197842 -0.0694596 2.9808e-22)
(0.577964 -0.0754261 2.97612e-21)
(3.15956 0.0208284 -2.65139e-20)
(0.620161 0.476822 -1.66744e-21)
(0.600998 0.430479 3.01441e-21)
(3.00527 -0.155203 -1.14176e-20)
(0.479107 -0.116836 3.02802e-22)
(0.481266 -0.409409 1.03133e-21)
(0.508059 -0.409659 -9.20125e-23)
(0.564063 -0.41747 -5.5406e-22)
(0.601792 -0.424062 2.90583e-22)
(0.639721 -0.426524 -3.16993e-22)
(0.670626 -0.426485 -8.67795e-22)
(0.700815 -0.424578 1.63384e-22)
(0.728478 -0.421901 2.23563e-22)
(0.757603 -0.41724 2.33816e-22)
(0.514058 -0.402129 -7.65596e-22)
(0.540918 -0.400789 -8.49861e-23)
(0.594069 -0.407579 4.45576e-22)
(0.632188 -0.414533 -7.75669e-22)
(0.668617 -0.417816 6.48889e-22)
(0.699527 -0.419207 1.00887e-21)
(0.728876 -0.418823 -6.19037e-22)
(0.755923 -0.417595 6.67753e-22)
(0.781899 -0.414961 -3.31277e-22)
(0.547683 -0.386717 1.90298e-21)
(0.57361 -0.385552 4.39889e-22)
(0.62417 -0.392459 -8.66185e-22)
(0.662063 -0.399694 4.06731e-22)
(0.697492 -0.403864 -9.7648e-22)
(0.728027 -0.406417 -1.25315e-22)
(0.756576 -0.407376 -2.58195e-23)
(0.78288 -0.407595 -3.16746e-22)
(0.807559 -0.407003 -4.83817e-22)
(0.58089 -0.365205 -8.37127e-22)
(0.605078 -0.364962 1.9158e-22)
(0.653309 -0.372439 5.9312e-22)
(0.690688 -0.380197 2.74091e-23)
(0.725245 -0.385306 4.00651e-22)
(0.755463 -0.388953 1.07835e-21)
(0.783423 -0.391093 -6.46884e-22)
(0.809133 -0.392412 1.07065e-22)
(0.833243 -0.393032 2.00734e-22)
(0.612438 -0.33959 1.33988e-22)
(0.634018 -0.339963 -1.23488e-22)
(0.680236 -0.348247 2.4211e-23)
(0.717144 -0.356645 -1.84527e-22)
(0.75107 -0.362752 9.9847e-23)
(0.781059 -0.367402 -2.36055e-22)
(0.808655 -0.370591 7.97133e-23)
(0.834058 -0.372863 3.64807e-22)
(0.858038 -0.37419 7.57862e-23)
(0.640983 -0.311537 1.0672e-22)
(0.659582 -0.311698 -2.61285e-22)
(0.704096 -0.320897 5.79395e-23)
(0.740739 -0.329767 3.84756e-22)
(0.774289 -0.336825 -1.21293e-22)
(0.804184 -0.342395 -1.6873e-22)
(0.831601 -0.346578 -6.95125e-23)
(0.856874 -0.349785 -5.47134e-22)
(0.880628 -0.352219 2.62327e-22)
(0.664625 -0.282884 7.08869e-23)
(0.6815 -0.281312 1.87204e-22)
(0.724537 -0.29134 5.27327e-23)
(0.761112 -0.300254 -1.67569e-22)
(0.794471 -0.308087 3.44959e-23)
(0.824386 -0.314438 -2.37984e-24)
(0.851761 -0.319508 1.3208e-22)
(0.87699 -0.323575 -1.27546e-22)
(0.900668 -0.326974 -1.00158e-22)
(0.682292 -0.252554 -7.82504e-23)
(0.700207 -0.249067 9.83044e-23)
(0.741722 -0.259847 2.01195e-25)
(0.778166 -0.268493 -2.13267e-24)
(0.811371 -0.276934 -4.34528e-23)
(0.841368 -0.283926 1.63417e-22)
(0.868809 -0.28976 1.9545e-22)
(0.894092 -0.294632 -2.04256e-22)
(0.917873 -0.298399 6.49321e-23)
(0.69485 -0.217836 4.62134e-23)
(0.715918 -0.214112 -1.1459e-23)
(0.75565 -0.225999 -2.12889e-23)
(0.791739 -0.234551 -1.56784e-23)
(0.824771 -0.243593 -1.39638e-23)
(0.854901 -0.251137 -7.34242e-24)
(0.882516 -0.257605 -4.53731e-24)
(0.90801 -0.263032 1.81316e-22)
(0.931826 -0.267673 -1.09762e-23)
(0.703118 -0.178812 -6.7083e-23)
(0.727916 -0.176179 -2.59772e-23)
(0.765735 -0.18968 1.97686e-23)
(0.801426 -0.198599 3.44849e-23)
(0.834397 -0.208315 -1.23381e-23)
(0.864796 -0.216334 1.7458e-23)
(0.892755 -0.223262 1.04184e-23)
(0.918622 -0.229025 4.79721e-23)
(0.94281 -0.233776 -2.02673e-23)
(0.706856 -0.136695 1.26571e-22)
(0.735152 -0.135948 4.19071e-23)
(0.771181 -0.151545 -4.70416e-23)
(0.80677 -0.161172 -1.18167e-23)
(0.839994 -0.171516 -2.86933e-24)
(0.870902 -0.17986 1.33253e-23)
(0.899447 -0.187049 -2.71753e-24)
(0.925972 -0.192924 -2.43538e-23)
(0.950829 -0.197761 -2.08412e-23)
(0.706688 -0.093567 -2.37393e-22)
(0.736964 -0.0954596 -5.73582e-23)
(0.771483 -0.113145 8.18289e-23)
(0.807575 -0.123209 -1.61956e-23)
(0.841481 -0.133762 2.4136e-24)
(0.873159 -0.142091 -2.47645e-23)
(0.902484 -0.149243 3.45458e-24)
(0.9298 -0.154983 8.33452e-24)
(0.955538 -0.160296 -3.36583e-24)
(0.701391 -0.0527283 -5.43186e-23)
(0.732124 -0.0577693 1.76417e-23)
(0.76709 -0.0759366 1.18294e-24)
(0.804255 -0.0855555 -1.14995e-23)
(0.839122 -0.0955 8.7347e-24)
(0.871701 -0.103255 8.22712e-24)
(0.901883 -0.109892 1.14118e-23)
(0.930022 -0.115264 -1.34186e-23)
(0.956871 -0.119859 1.01155e-23)
(0.687231 -0.0152639 6.97174e-23)
(0.722378 -0.022193 -5.96213e-24)
(0.759213 -0.0396086 5.84904e-24)
(0.797549 -0.0480537 -1.64712e-23)
(0.833354 -0.0566634 2.92602e-24)
(0.866786 -0.0633081 1.76018e-24)
(0.897796 -0.0689429 8.98233e-24)
(0.92677 -0.0734646 -1.69582e-24)
(0.954314 -0.0767558 -3.92463e-24)
(0.665831 0.0215069 -2.09587e-22)
(0.708278 0.0133814 5.12647e-23)
(0.748121 -0.00272691 -4.20586e-23)
(0.787714 -0.00982433 5.24768e-23)
(0.824352 -0.0167559 -6.55441e-24)
(0.858517 -0.0219881 -1.78948e-23)
(0.89028 -0.0263155 -1.03715e-23)
(0.920084 -0.0296026 -1.13442e-23)
(0.948463 -0.0317526 1.60879e-23)
(0.638014 0.0590213 -1.63719e-22)
(0.689605 0.050135 -7.27238e-23)
(0.733376 0.0360704 5.76228e-23)
(0.774428 0.0301155 -6.76898e-23)
(0.811873 0.024826 -2.48672e-23)
(0.846686 0.0210259 1.44114e-23)
(0.879111 0.0181043 2.25003e-24)
(0.909614 0.0162058 -3.13616e-23)
(0.938582 0.0151423 1.78706e-23)
(0.604691 0.0994751 -3.44488e-22)
(0.665676 0.0894793 7.14465e-23)
(0.714068 0.0777867 -2.96186e-23)
(0.75687 0.072417 3.91901e-23)
(0.795274 0.068398 4.25956e-23)
(0.830803 0.0658223 -1.72741e-22)
(0.863912 0.0642428 1.04704e-22)
(0.895104 0.0638201 1.91706e-23)
(0.925027 0.0637986 -1.17346e-23)
(0.571178 0.14147 6.20765e-22)
(0.635111 0.131216 -1.15654e-22)
(0.688774 0.121781 4.40232e-23)
(0.733919 0.116621 -7.38993e-23)
(0.773729 0.113482 -1.16018e-23)
(0.810264 0.111918 1.64861e-22)
(0.844234 0.111593 -1.7963e-23)
(0.876194 0.112545 5.13533e-23)
(0.906872 0.114249 2.96566e-23)
(0.541025 0.18008 1.34888e-22)
(0.600768 0.170971 4.14901e-23)
(0.657665 0.164928 9.57546e-23)
(0.705286 0.160603 2.45525e-22)
(0.746874 0.15854 -5.80642e-23)
(0.784727 0.158078 -8.97652e-23)
(0.819771 0.159025 -9.05213e-23)
(0.852673 0.161257 -9.39509e-23)
(0.884186 0.164527 1.40711e-23)
(0.51266 0.213143 -1.17994e-22)
(0.565022 0.205941 8.48618e-25)
(0.622735 0.204252 -2.91453e-22)
(0.672012 0.202037 3.03786e-23)
(0.715224 0.201741 -1.22546e-22)
(0.754416 0.202835 8.42754e-23)
(0.790574 0.205348 4.53454e-22)
(0.824391 0.209154 6.24543e-23)
(0.85658 0.214044 3.2303e-23)
(0.484976 0.24164 -2.46467e-22)
(0.529253 0.236159 7.26335e-22)
(0.586001 0.238599 -3.73662e-22)
(0.635633 0.239467 3.05216e-22)
(0.679861 0.241591 -2.19286e-22)
(0.720097 0.244746 4.61369e-23)
(0.757257 0.249147 -1.8008e-22)
(0.792043 0.254672 -1.27481e-22)
(0.824991 0.261702 4.07085e-23)
(0.457272 0.265847 -7.20746e-22)
(0.493601 0.261958 -5.80301e-22)
(0.548705 0.267654 1.00298e-21)
(0.597478 0.272177 -8.85721e-23)
(0.641915 0.277123 6.56443e-22)
(0.682652 0.282721 -1.83631e-22)
(0.720477 0.28926 -5.54075e-23)
(0.756174 0.296606 8.68372e-23)
(0.789337 0.306553 -2.02818e-23)
(0.42962 0.283764 2.63509e-22)
(0.458422 0.283436 3.76476e-22)
(0.511878 0.291642 -6.26142e-22)
(0.558773 0.30017 -5.60425e-22)
(0.602575 0.308024 -4.90456e-22)
(0.64315 0.316174 2.88785e-23)
(0.68115 0.32485 1.47726e-22)
(0.717468 0.334139 -3.4179e-22)
(0.750995 0.346441 7.8095e-22)
(0.401193 0.294584 -1.97578e-22)
(0.423811 0.300781 -4.29168e-23)
(0.475169 0.310885 2.19477e-22)
(0.519316 0.323184 -3.6638e-22)
(0.56171 0.333648 5.78178e-22)
(0.601585 0.344305 1.07533e-22)
(0.639392 0.355051 -6.17008e-22)
(0.676486 0.366358 6.27811e-22)
(0.710667 0.383231 -1.35038e-22)
(0.370022 0.302184 -6.29092e-22)
(0.391469 0.318168 -1.49502e-23)
(0.440787 0.330847 -3.06623e-23)
(0.48248 0.345031 3.78844e-22)
(0.52304 0.356881 -1.35802e-22)
(0.5613 0.368866 4.46344e-22)
(0.598005 0.380309 -2.00306e-22)
(0.636493 0.391415 2.98122e-22)
(0.673653 0.410306 1.59785e-22)
(0.398358 0.382373 -2.65727e-22)
(0.392349 0.381241 -3.07212e-22)
(0.386292 0.378746 -8.48837e-22)
(0.379669 0.375446 1.18123e-21)
(0.372179 0.371131 -8.83206e-22)
(0.363676 0.365768 6.57282e-22)
(0.354073 0.359208 2.69113e-22)
(0.343295 0.351299 -4.76428e-23)
(0.331294 0.341878 -4.76595e-22)
(0.318027 0.330763 -2.35522e-22)
(0.303381 0.317939 2.37821e-22)
(0.287246 0.303536 -3.05285e-22)
(0.26966 0.287625 7.98875e-22)
(0.25081 0.270298 -2.06438e-21)
(0.230982 0.251611 3.66368e-21)
(0.210532 0.2316 -4.22271e-21)
(0.189835 0.210344 3.85964e-21)
(0.169266 0.187957 -1.71544e-21)
(0.149168 0.164609 -5.73883e-22)
(0.129825 0.140548 6.12691e-22)
(0.111392 0.116096 -2.1411e-22)
(0.0937523 0.0915833 4.55867e-22)
(0.0766244 0.0677304 4.36226e-23)
(0.0603199 0.0450537 -6.4309e-22)
(0.0474947 0.0225567 5.05098e-22)
(0.0402914 -0.000510186 -2.73752e-22)
(0.0384005 -0.0243995 3.36091e-22)
(0.0419025 -0.0494037 2.6988e-22)
(0.0475369 -0.0757743 -3.16595e-22)
(0.0529485 -0.103066 8.53038e-24)
(0.0590372 -0.130474 -2.89074e-22)
(0.0665014 -0.157554 2.54407e-22)
(0.0756639 -0.184066 4.8645e-22)
(0.0864847 -0.209771 -3.80264e-22)
(0.0987806 -0.234316 5.4382e-22)
(0.11234 -0.257516 -9.02609e-22)
(0.126873 -0.279181 6.15313e-23)
(0.142055 -0.29916 1.97773e-22)
(0.15756 -0.317343 -2.90671e-22)
(0.17309 -0.333656 6.53505e-22)
(0.188396 -0.348111 -3.69352e-22)
(0.203357 -0.360644 -1.63088e-21)
(0.21867 -0.371033 3.27081e-21)
(0.234937 -0.379285 -3.52126e-21)
(0.252086 -0.385708 3.05953e-21)
(0.269976 -0.390632 -1.7959e-21)
(0.288393 -0.394363 9.39113e-22)
(0.307088 -0.397165 -3.10982e-22)
(0.325749 -0.399252 3.2025e-22)
(0.344014 -0.400817 -3.13998e-22)
(0.361549 -0.402032 -4.78078e-22)
(0.378082 -0.40303 -1.67061e-22)
(0.393448 -0.403906 2.19913e-22)
(0.407567 -0.404723 6.09059e-22)
(0.420423 -0.405507 -9.03738e-22)
(0.432047 -0.406265 1.17478e-21)
(0.442482 -0.406995 -7.83489e-22)
(0.451786 -0.407686 -2.89615e-22)
(0.460097 -0.40838 -2.2051e-22)
(0.407072 0.327222 -2.71361e-23)
(0.400175 0.323001 -3.10517e-23)
(0.393141 0.31811 1.63945e-23)
(0.385763 0.312567 -1.12856e-22)
(0.377944 0.306394 -1.05438e-22)
(0.369646 0.299545 4.24938e-22)
(0.360843 0.291987 -6.88619e-23)
(0.351506 0.283697 1.38132e-22)
(0.341581 0.274651 -4.97258e-22)
(0.330894 0.264974 -1.68084e-23)
(0.319172 0.254905 2.30687e-22)
(0.306204 0.2445 2.08541e-22)
(0.291915 0.233744 -6.50395e-22)
(0.276407 0.222477 7.82506e-22)
(0.259939 0.21036 -8.23569e-22)
(0.242755 0.197202 3.38562e-22)
(0.225036 0.182907 5.33481e-22)
(0.206995 0.16737 -2.93551e-22)
(0.188877 0.150535 -5.39327e-23)
(0.170929 0.132379 4.51544e-23)
(0.153387 0.112894 7.18297e-24)
(0.136507 0.092025 1.15881e-22)
(0.120766 0.0695776 -3.59756e-23)
(0.107098 0.0450144 -5.55955e-23)
(0.096547 0.0183036 1.40869e-22)
(0.0892668 -0.00991416 -4.62725e-23)
(0.0853677 -0.0388345 1.16069e-24)
(0.0849855 -0.0676191 1.56962e-23)
(0.0878357 -0.0956302 2.30775e-23)
(0.0926528 -0.122921 3.10277e-25)
(0.09899 -0.149697 -1.96971e-23)
(0.106938 -0.175904 -1.6439e-23)
(0.116626 -0.201311 5.71551e-25)
(0.127909 -0.22571 5.86644e-23)
(0.140582 -0.248913 -1.38886e-22)
(0.154445 -0.270779 4.83142e-23)
(0.169281 -0.29121 -9.85317e-23)
(0.184873 -0.310164 9.58217e-23)
(0.201039 -0.327639 4.51084e-25)
(0.217655 -0.343668 -2.13288e-23)
(0.234685 -0.358296 -5.22044e-23)
(0.252215 -0.371548 -7.51113e-24)
(0.270377 -0.383332 -9.03717e-23)
(0.289145 -0.393478 -9.62507e-23)
(0.308333 -0.401867 1.31858e-22)
(0.327682 -0.408459 -1.18849e-22)
(0.3468 -0.413372 4.59043e-23)
(0.365131 -0.4169 2.44515e-23)
(0.382286 -0.419283 -5.78894e-23)
(0.398104 -0.420719 1.98576e-23)
(0.412453 -0.421432 9.02022e-23)
(0.425463 -0.421514 -2.01725e-23)
(0.437343 -0.421034 3.44346e-23)
(0.448189 -0.420112 -1.22875e-22)
(0.458136 -0.418877 2.16734e-23)
(0.46721 -0.417482 4.5325e-23)
(0.475412 -0.416049 -5.24688e-23)
(0.482856 -0.414632 9.41766e-24)
(0.489695 -0.413287 -1.74649e-23)
(0.468925 0.299513 -2.13784e-22)
(0.462517 0.294639 5.17258e-23)
(0.455819 0.289142 -1.61753e-22)
(0.448828 0.2831 -2.87549e-23)
(0.441465 0.27649 5.46845e-22)
(0.433673 0.269338 -1.65718e-22)
(0.42539 0.261687 -3.32096e-22)
(0.416539 0.253593 4.70718e-25)
(0.407023 0.245138 1.98453e-22)
(0.396723 0.236417 -4.92424e-23)
(0.385535 0.22745 5.55617e-22)
(0.37339 0.218165 -6.83886e-22)
(0.360279 0.20843 6.25479e-22)
(0.346251 0.198039 -8.69733e-23)
(0.331372 0.186835 -5.94032e-22)
(0.315702 0.174729 1.91518e-22)
(0.299341 0.161604 7.42065e-22)
(0.282453 0.147334 -2.6905e-22)
(0.265258 0.131793 -7.52154e-23)
(0.248019 0.114856 2.45738e-23)
(0.231049 0.0963962 -1.94984e-22)
(0.214727 0.0762794 4.0478e-23)
(0.199542 0.0543751 -5.53608e-22)
(0.186124 0.0306405 6.64818e-22)
(0.17521 0.00527001 -2.52527e-22)
(0.167363 -0.021342 1.1576e-23)
(0.162822 -0.0487385 3.76259e-23)
(0.16156 -0.0763998 -1.57573e-22)
(0.163184 -0.10378 1.02147e-22)
(0.167121 -0.130572 5.21624e-23)
(0.172997 -0.156705 1.15445e-22)
(0.180616 -0.182101 -1.23024e-22)
(0.189859 -0.206622 5.11049e-23)
(0.200588 -0.230111 6.4636e-23)
(0.212643 -0.252438 -2.47708e-22)
(0.225855 -0.273501 6.74287e-22)
(0.240054 -0.293228 -4.37755e-22)
(0.255082 -0.311577 -8.79054e-23)
(0.270808 -0.328531 -1.21059e-22)
(0.287137 -0.344084 -4.16505e-23)
(0.304011 -0.358224 -1.82023e-22)
(0.321389 -0.370919 -3.35374e-22)
(0.339219 -0.382097 7.47823e-22)
(0.357359 -0.391692 3.69023e-22)
(0.375563 -0.399691 -7.38227e-22)
(0.393525 -0.406144 -2.63259e-22)
(0.41093 -0.411174 7.85773e-22)
(0.427481 -0.414989 -9.3195e-22)
(0.44298 -0.417825 6.40984e-22)
(0.457388 -0.419869 -1.48317e-23)
(0.470716 -0.421314 2.91802e-22)
(0.482942 -0.422325 7.84463e-23)
(0.494266 -0.422883 -4.36468e-22)
(0.504825 -0.422991 -2.30979e-22)
(0.514564 -0.422781 6.97741e-22)
(0.523481 -0.422354 1.04738e-24)
(0.531654 -0.421771 -1.87576e-22)
(0.539173 -0.421086 6.58073e-23)
(0.546097 -0.42032 -2.24299e-22)
(0.512951 0.281111 1.06338e-23)
(0.50665 0.276736 3.7332e-23)
(0.500041 0.271855 -6.1009e-24)
(0.493055 0.26647 -1.02768e-23)
(0.485615 0.260591 1.91016e-23)
(0.477666 0.254254 1.87331e-23)
(0.469146 0.247494 1.8392e-23)
(0.459995 0.240341 6.88206e-23)
(0.450153 0.232817 -4.61855e-23)
(0.43956 0.224923 -3.9738e-23)
(0.428165 0.216627 -4.89724e-23)
(0.415934 0.207871 6.59369e-23)
(0.40286 0.198569 -6.22316e-23)
(0.388968 0.188618 -1.94448e-23)
(0.374311 0.17791 -1.58275e-23)
(0.358977 0.166323 -4.36403e-25)
(0.343085 0.15371 1.37881e-23)
(0.3268 0.139919 -2.14046e-23)
(0.310335 0.124791 -7.14424e-23)
(0.293955 0.108177 1.51344e-23)
(0.277975 0.0899433 -4.01599e-24)
(0.262769 0.0699845 -1.7265e-22)
(0.248774 0.0482464 8.79028e-23)
(0.23647 0.0247642 1.30468e-22)
(0.226331 -0.000282796 -9.6116e-23)
(0.218717 -0.0265679 1.21677e-23)
(0.213839 -0.0536758 1.11192e-22)
(0.211756 -0.0811538 -1.25814e-22)
(0.21235 -0.108575 4.05217e-23)
(0.215367 -0.135621 -1.09861e-23)
(0.220559 -0.162084 5.09433e-23)
(0.227723 -0.1878 -1.14845e-22)
(0.236685 -0.212615 8.21968e-23)
(0.247272 -0.236388 -4.83425e-24)
(0.259307 -0.258993 -9.04021e-23)
(0.272617 -0.280328 1.85053e-23)
(0.28703 -0.300312 9.8092e-23)
(0.302384 -0.318883 -1.47263e-23)
(0.318529 -0.335995 -4.81075e-23)
(0.335324 -0.351611 7.84936e-23)
(0.352631 -0.3657 -1.60021e-24)
(0.370301 -0.378231 -2.60465e-23)
(0.388158 -0.389179 1.63991e-22)
(0.405988 -0.398542 -1.57739e-22)
(0.423549 -0.406361 7.15351e-23)
(0.440603 -0.412728 2.39525e-24)
(0.456933 -0.417781 2.53758e-22)
(0.472382 -0.421691 -2.24611e-22)
(0.486874 -0.424632 1.17668e-22)
(0.500402 -0.426754 1.12323e-22)
(0.512997 -0.428182 1.45277e-22)
(0.524653 -0.429092 -1.33374e-22)
(0.535371 -0.429612 -2.66684e-23)
(0.545217 -0.429796 -5.03983e-23)
(0.554271 -0.429674 -9.04011e-23)
(0.56263 -0.429281 6.16526e-23)
(0.570359 -0.428672 -1.23719e-22)
(0.577492 -0.427904 2.49732e-22)
(0.584106 -0.427025 -6.77247e-23)
(0.571356 0.270182 -2.55057e-22)
(0.565582 0.265501 3.59578e-23)
(0.559368 0.260366 2.1659e-22)
(0.552671 0.254837 -1.49706e-22)
(0.545392 0.248917 3.5163e-23)
(0.537466 0.242636 1.35228e-22)
(0.528831 0.236019 -1.52097e-22)
(0.519436 0.229079 6.45607e-23)
(0.509239 0.221812 2.12415e-22)