/*--------------------------------*- C++ -*----------------------------------*\
  =========                 |
  \\      /  F ield         | OpenFOAM: The Open Source CFD Toolbox
   \\    /   O peration     | Website:  https://openfoam.org
    \\  /    A nd           | Version:  10
     \\/     M anipulation  |
\*---------------------------------------------------------------------------*/
FoamFile
{
    format      ascii;
    class       volScalarField;
    location    "1050";
    object      epsilon;
}
// * * * * * * * * * * * * * * * * * * * * * * * * * * * * * * * * * * * * * //

dimensions      [0 2 -3 0 0 0 0];

internalField   nonuniform List<scalar> 
23845
(
0.0424928
0.0594355
0.0573412
0.0138101
0.0409173
0.00243543
0.0765594
0.01073
0.00177141
0.0258664
0.0239503
0.00206214
0.00339574
0.00212515
0.121943
0.0123395
0.00642173
0.00880734
0.00446603
0.0031457
0.0337986
0.0210353
0.0278725
0.00177771
0.0262075
0.00119082
0.0518725
0.00288338
0.0103242
0.00310768
0.0153621
0.024347
0.135164
0.00938626
0.0020762
0.00256655
0.0205395
0.00208759
0.00218924
0.00196911
0.00407492
0.00612764
0.00284467
0.00593352
0.000848693
0.00407514
0.0282159
0.014271
0.0225162
0.0108336
0.0143743
0.0466779
0.0274385
0.00253701
0.0236216
0.00560071
0.0546664
0.0110475
0.042962
0.0353162
0.0104821
0.00636055
0.0106919
0.0125946
0.0015674
0.00347621
0.0548188
0.000704681
0.000736711
0.00561807
0.0104715
0.0418831
0.00156193
0.105758
0.00132277
0.117952
0.00206836
0.00221868
0.0113059
0.00959807
0.0394837
0.0961371
0.0596941
0.0111026
0.0642746
0.0020907
0.0804749
0.0288021
0.00152602
0.00798016
0.0140421
0.00528827
0.0109604
0.00258242
0.0113588
0.0123687
0.00568342
0.016096
0.00128934
0.0323578
0.00668667
0.0595057
0.0507365
0.0135746
0.0128056
0.0114574
0.00245016
0.00114292
0.0470494
0.00579686
0.0213789
0.00211912
0.0891501
0.0215232
0.00268616
0.0239863
0.00144307
0.0152736
0.010468
0.0128189
0.00216411
0.0174187
0.00569206
0.0214419
0.0632807
0.00131779
0.0104163
0.0107124
0.040027
0.0310626
0.0566022
0.0386393
0.0277065
0.0022605
0.00854503
0.0485246
0.0128609
0.00204166
0.045739
0.00223132
0.0117608
0.00573524
0.00221489
0.00639524
0.00892716
0.00542171
0.01886
0.0853569
0.0189271
0.00935291
0.127344
0.00232769
0.0693768
0.00278547
0.0828243
0.0167922
0.0470366
0.00228228
0.076392
0.011321
0.00723074
0.118715
0.0117127
0.00162857
0.00212164
0.0120221
0.0022988
0.0159077
0.00301774
0.00535258
0.00229441
0.0149727
0.00173504
0.018013
0.00163467
0.011105
0.00610204
0.0221875
0.00109662
0.00225104
0.0325171
0.0285199
0.103283
0.0188685
0.011011
0.004472
0.00608002
0.0109934
0.0104633
0.00588915
0.0117427
0.00220967
0.00216964
0.00239105
0.0079154
0.00211098
0.0122268
0.0106822
0.0212777
0.0228543
0.0137074
0.0023215
0.0167684
0.034285
0.010917
0.0115252
0.0541097
0.00232535
0.0509723
0.00989269
0.0103582
0.0144822
0.00762325
0.00305998
0.0185074
0.021953
0.0290522
0.00669442
0.0175615
0.0527835
0.00182288
0.113286
0.012368
0.0138137
0.00553349
0.126354
0.0135319
0.00223554
0.00242532
0.00420718
0.00242796
0.0200164
0.00215177
0.000829484
0.0418867
0.0102227
0.001498
0.0139595
0.0017624
0.0165944
0.026262
0.0172509
0.0110734
0.0400775
0.0163759
0.0117755
0.0024063
0.000715813
0.0112598
0.115693
0.00432715
0.00222188
0.014171
0.00261404
0.101473
0.0136357
0.0153782
0.012451
0.00274383
0.00192143
0.0328854
0.00230364
0.0103949
0.0207359
0.0181003
0.00170727
0.0111059
0.0257976
0.0198796
0.0131806
0.00221475
0.0136966
0.015609
0.00227534
0.0187543
0.0021451
0.0122401
0.00232684
0.0201417
0.026434
0.0121508
0.00246377
0.0130569
0.0106803
0.00213642
0.0133641
0.0186108
0.00225545
0.0112806
0.095115
0.011096
0.017963
0.0119766
0.012259
0.0111791
0.00211566
0.0165855
0.00243016
0.00212017
0.0111095
0.0815553
0.117453
0.0102132
0.0131146
0.00239106
0.0138683
0.01375
0.0151609
0.00631485
0.0113631
0.0160969
0.0630639
0.00457146
0.00231816
0.032582
0.0113163
0.0149143
0.0295673
0.0134518
0.00204349
0.0143765
0.0151869
0.0266216
0.00313833
0.109014
0.00231569
0.0117301
0.0292131
0.0154971
0.00934242
0.0687775
0.0124792
0.0138088
0.00227982
0.0159434
0.0148559
0.0200736
0.00840561
0.00516811
0.0112482
0.0169424
0.0221389
0.0214459
0.000901865
0.000882902
0.0236617
0.00225481
0.0123611
0.0115135
0.111159
0.0192196
0.0551357
0.0107538
0.0131002
0.0279557
0.00214794
0.00487239
0.00166326
0.0982366
0.0109353
0.028129
0.00145886
0.0181147
0.00922083
0.0104549
0.00231663
0.020525
0.00271383
0.0107587
0.00115563
0.00580928
0.0141328
0.0252181
0.00205714
0.00236644
0.0135877
0.0304024
0.0164568
0.00532976
0.0142582
0.105625
0.00236192
0.02711
0.000830293
0.000860859
0.00215418
0.00245144
0.0111506
0.0131258
0.0110808
0.0610749
0.0051034
0.0166162
0.0150919
0.0168654
0.0118071
0.017632
0.00107678
0.00599755
0.00232565
0.0247132
0.0175555
0.0117255
0.0198512
0.0463036
0.108538
0.00228118
0.0198106
0.0113835
0.0122636
0.125447
0.000771456
0.0853525
0.0221895
0.0505594
0.0361655
0.0212678
0.016702
0.00229146
0.0219118
0.0945445
0.00390861
0.0018978
0.0113888
0.0108544
0.0529503
0.0828473
0.0170871
0.0221937
0.0269639
0.00220369
0.00859009
0.0230722
0.00801921
0.0037688
0.00138552
0.00204801
0.00432131
0.0103706
0.0208597
0.115667
0.0652046
0.0122272
0.0380844
0.0172613
0.0164596
0.00324838
0.0196572
0.0023011
0.0151829
0.0111848
0.0022478
0.0537699
0.00229104
0.000866702
0.0207385
0.0358737
0.0365851
0.0116332
0.00251166
0.053722
0.0125609
0.0127122
0.0330385
0.00244208
0.0022939
0.00245198
0.0191515
0.000949163
0.1116
0.00299642
0.00234356
0.0160089
0.0110406
0.0145366
0.0389325
0.0019178
0.0165918
0.00281391
0.00755158
0.0233322
0.0196314
0.0147377
0.0198915
0.0132277
0.0930056
0.0022052
0.00211352
0.060888
0.0198334
0.00118539
0.0789268
0.0123398
0.0208626
0.0110101
0.025256
0.00146941
0.0329809
0.00137917
0.00229157
0.0741929
0.0126756
0.0258469
0.0234992
0.0113595
0.0113559
0.0186176
0.00309884
0.00284858
0.0221154
0.0145032
0.034745
0.0197353
0.0151443
0.00229502
0.000986038
0.0184205
0.119911
0.0905668
0.00493566
0.0262375
0.0026087
0.0092246
0.0186512
0.00109041
0.0810383
0.105803
0.0131752
0.0305728
0.011524
0.0103875
0.111489
0.0319552
0.0266852
0.00576655
0.0032048
0.00265998
0.0173862
0.0256373
0.0116675
0.0611419
0.002454
0.0242413
0.0251872
0.00762981
0.0240404
0.02015
0.00296281
0.0029518
0.00280787
0.00272413
0.00210629
0.0207716
0.00313782
0.010915
0.0663644
0.00493796
0.0313223
0.00228374
0.00269134
0.01131
0.0116104
0.0408748
0.00331711
0.00486779
0.0183241
0.0128044
0.0014382
0.0103578
0.00272054
0.00103988
0.0819673
0.00461655
0.00242143
0.0146893
0.0313872
0.0175987
0.0827494
0.0119524
0.0275249
0.00117502
0.00208905
0.00816313
0.0729573
0.0193087
0.00452843
0.00159132
0.00168434
0.0123549
0.00162474
0.0280817
0.120651
0.0509952
0.0166019
0.0112748
0.004863
0.000979081
0.00258465
0.00841748
0.00208628
0.0432088
0.00295292
0.0260684
0.106864
0.0176247
0.0325423
0.0126534
0.0268278
0.0883558
0.0157673
0.0235115
0.0501706
0.0555796
0.0312044
0.0239932
0.0511947
0.026643
0.048085
0.00323971
0.00280209
0.0270169
0.0105111
0.0258876
0.0150889
0.0508815
0.0114338
0.00369818
0.00634649
0.0024598
0.0106014
0.00325834
0.00356445
0.0227552
0.00273962
0.00207606
0.100248
0.0513496
0.0148644
0.00121722
0.0160778
0.0399595
0.0122686
0.00290931
0.00290592
0.0385665
0.0316279
0.0372046
0.00251296
0.0308724
0.0531082
0.00262676
0.0021788
0.0250353
0.0118878
0.0112654
0.134528
0.0357172
0.0247978
0.0144149
0.022057
0.0124985
0.00615968
0.00994008
0.0516916
0.00892562
0.00123445
0.00235985
0.0375321
0.0165413
0.0299644
0.00945249
0.0126405
0.021304
0.0136661
0.011801
0.0227097
0.0107663
0.0248355
0.0197427
0.00912067
0.024679
0.00917381
0.00504964
0.00843009
0.00881009
0.0350046
0.00523693
0.00737733
0.0293304
0.0293936
0.00657237
0.0056302
0.0128841
0.0146525
0.0166251
0.0194692
0.0216252
0.0111933
0.023568
0.0101965
0.0230826
0.00872793
0.018078
0.00807816
0.00864579
0.00912862
0.00701348
0.00599261
0.00626518
0.00361671
0.00578511
0.0176725
0.00177778
0.00535019
0.00621077
0.00572079
0.0024946
0.018018
0.00541182
0.0154299
0.0174101
0.0104587
0.00509204
0.00563401
0.00276843
0.0165925
0.0124757
0.026292
0.00217764
0.014722
0.00460099
0.00805115
0.00293473
0.00507157
0.023077
0.00839515
0.0258764
0.00523223
0.00242547
0.00359824
0.00100375
0.0043366
0.0130756
0.0107196
0.00166427
0.00476633
0.0247682
0.00415488
0.00381699
0.00329989
0.080161
0.00488033
0.000814966
0.0333269
0.00598242
0.018484
0.0242461
0.0209899
0.0206092
0.0181998
0.0238771
0.00521211
0.0107811
0.01514
0.0193504
0.00972262
0.0116785
0.00768513
0.0578586
0.00688341
0.00374333
0.0207628
0.0189787
0.0266858
0.017265
0.0166279
0.00345256
0.0441769
0.0198281
0.00872786
0.00604781
0.00796646
0.0154359
0.00216199
0.0175687
0.00402519
0.00383114
0.00599021
0.00423925
0.00386704
0.0056099
0.00543551
0.00878899
0.00524586
0.00448734
0.00509206
0.0371631
0.0104264
0.00369
0.00757886
0.0064857
0.00490931
0.0262344
0.0162341
0.022046
0.0118462
0.00542059
0.00353118
0.00546663
0.00497417
0.0528186
0.0217967
0.0208446
0.00959952
0.00372832
0.0108007
0.0111971
0.0171862
0.00402021
0.00588279
0.00177266
0.00221408
0.00719883
0.00256619
0.00258789
0.00128665
0.00351615
0.00153192
0.00207337
0.00165961
0.00150551
0.00118691
0.0028434
0.00386337
0.00225631
0.00238814
0.00866296
0.00518262
0.0059989
0.0376235
0.0225598
0.00112143
0.00163245
0.00469944
0.0257932
0.0159529
0.0231311
0.0140801
0.00952341
0.00367467
0.00388559
0.00520483
0.00802635
0.00841472
0.00336526
0.00561098
0.00325284
0.00657295
0.00203341
0.100918
0.00214413
0.01852
0.00623898
0.0275672
0.00344817
0.0046563
0.00650232
0.00457827
0.0132856
0.0104499
0.00491318
0.0151818
0.00286948
0.00324883
0.00189477
0.00185654
0.00152588
0.00142227
0.00480678
0.00490322
0.00368685
0.0185242
0.00373174
0.0178895
0.0193333
0.0184826
0.00515335
0.0141586
0.00474142
0.00173639
0.00679682
0.00137092
0.0111141
0.00337589
0.00147484
0.0163794
0.0031332
0.00200519
0.0149723
0.00334172
0.00918035
0.0176663
0.0113075
0.00537607
0.00975995
0.00357574
0.00783292
0.00359718
0.0186341
0.0314477
0.00220618
0.00974354
0.0135599
0.0146053
0.0305465
0.0168833
0.00438451
0.00865378
0.00736353
0.00632226
0.135256
0.017403
0.00573954
0.00500305
0.00292438
0.0224675
0.00511309
0.126957
0.00476098
0.00156766
0.00433322
0.00272176
0.0055841
0.00449121
0.00455977
0.0379646
0.00375597
0.0256526
0.00832676
0.0254515
0.00456003
0.0116248
0.0112667
0.0140282
0.0146596
0.00782
0.0160475
0.00866263
0.0162133
0.0177923
0.020877
0.00786537
0.0196821
0.0187963
0.0107761
0.0296746
0.0237255
0.0166944
0.0236033
0.00359197
0.00696308
0.0084099
0.00608864
0.00279881
0.00552647
0.0140659
0.00604585
0.00344178
0.0164393
0.0135841
0.0172894
0.00676086
0.0325491
0.00331793
0.00507141
0.00543663
0.00491943
0.00939158
0.00201651
0.0166953
0.0312361
0.0541919
0.00307299
0.00455593
0.020146
0.0232697
0.00322629
0.018025
0.0122811
0.0113369
0.0157519
0.0172316
0.00607913
0.0185711
0.0237491
0.0210697
0.0278047
0.0281738
0.0300114
0.00313568
0.00837283
0.00825289
0.00451981
0.0128887
0.0156425
0.00481504
0.0241832
0.00321376
0.100129
0.00331115
0.00327136
0.0107809
0.00312333
0.000788135
0.00219087
0.00157752
0.00484716
0.00390138
0.00433159
0.00527157
0.0259324
0.0107023
0.0035534
0.0113302
0.00786712
0.0248504
0.0220163
0.0505738
0.0197667
0.00357786
0.006044
0.0050859
0.00314061
0.00111877
0.00274261
0.0322816
0.026004
0.00872891
0.012994
0.0102179
0.014618
0.0166794
0.0217754
0.00435078
0.0300172
0.0217837
0.0262625
0.0200261
0.0170089
0.0173801
0.0091055
0.0152746
0.00531822
0.0135686
0.0105253
0.00589711
0.00930092
0.00821055
0.00748861
0.00475465
0.00465983
0.0122076
0.0223248
0.0249041
0.00341515
0.0183582
0.00342715
0.00228196
0.00704933
0.00205411
0.0123094
0.00672127
0.00585809
0.0057324
0.00557051
0.00511595
0.0293432
0.00247845
0.00317398
0.0250757
0.00650511
0.00117251
0.0118517
0.0273597
0.0119868
0.0113238
0.0507524
0.00473585
0.0154881
0.0182148
0.0202262
0.00976333
0.00334406
0.0172726
0.0146638
0.0152549
0.0131971
0.0113957
0.0103784
0.0303458
0.00900027
0.0211088
0.00389765
0.00711613
0.0343636
0.00617277
0.00855113
0.0451895
0.00638987
0.00105825
0.00241052
0.00562772
0.00295515
0.0042413
0.00351739
0.00330593
0.0272746
0.00518379
0.00465267
0.0297153
0.00301134
0.00326252
0.00329879
0.0459493
0.00487745
0.00418682
0.0272233
0.0022241
0.00132567
0.0036905
0.00425081
0.00401875
0.018232
0.00232687
0.00410375
0.0129848
0.0226358
0.0262777
0.0186737
0.0145694
0.00353499
0.00775824
0.00538837
0.00618625
0.00356792
0.0272591
0.00832741
0.00310179
0.00309273
0.00959782
0.00845757
0.0260119
0.0118711
0.0035906
0.00471638
0.00323005
0.0245326
0.00763862
0.00165564
0.022927
0.00380712
0.0120342
0.00339456
0.00234634
0.00293042
0.0106582
0.00482815
0.0038624
0.0209877
0.00340596
0.0259343
0.00799877
0.0026165
0.0167784
0.00448033
0.0139064
0.0147039
0.00979892
0.0188029
0.0108489
0.00328543
0.0122683
0.0115774
0.00269605
0.0064551
0.00424083
0.00363621
0.00864224
0.00122957
0.00170502
0.0108136
0.0014727
0.00298879
0.0138137
0.00138013
0.00248354
0.0178364
0.00230538
0.00184244
0.0155596
0.034707
0.0300157
0.00215972
0.0032771
0.0212372
0.00228192
0.00245099
0.0367262
0.0207847
0.0367234
0.00800289
0.0322385
0.00451049
0.00677807
0.0133235
0.0181282
0.00352079
0.0158699
0.0426936
0.0342909
0.00339457
0.00450467
0.00307133
0.00217076
0.00288814
0.00539892
0.00401305
0.130658
0.0089033
0.00485587
0.0244083
0.00761902
0.0205663
0.00317536
0.0274713
0.00494169
0.00767985
0.0378796
0.00418892
0.0101828
0.00279651
0.00355261
0.0531811
0.00279566
0.0469
0.0159795
0.0240379
0.0161755
0.011949
0.0318804
0.00397109
0.00340435
0.0260869
0.00414652
0.00432795
0.00423735
0.0380306
0.0027717
0.00307015
0.0039417
0.0443989
0.00374989
0.00724023
0.00661522
0.0030183
0.0166623
0.0100092
0.0124434
0.0431924
0.00202663
0.0160748
0.00382349
0.0120981
0.00271817
0.0478122
0.00830945
0.00757802
0.00343293
0.0110684
0.0155672
0.00682938
0.0199881
0.0237618
0.0029749
0.00698782
0.00272814
0.0217397
0.0200298
0.00234643
0.0104602
0.00812669
0.0116032
0.0117683
0.0164632
0.00660679
0.0152689
0.0164653
0.0410892
0.0103059
0.0327156
0.00222071
0.0122975
0.00345218
0.00326379
0.0644431
0.0384928
0.0223007
0.00232693
0.035819
0.00781325
0.00635123
0.0411319
0.00667988
0.0461664
0.0102338
0.0469872
0.0156741
0.00231941
0.105886
0.0145235
0.0137722
0.0116826
0.0402126
0.0459962
0.0029225
0.00430126
0.142451
0.0331851
0.00331913
0.046166
0.0486149
0.00453081
0.0328422
0.00446007
0.0407535
0.00775692
0.0117546
0.00160397
0.035935
0.0369186
0.00213611
0.121869
0.0431591
0.00198955
0.0121117
0.00362128
0.0218655
0.0337882
0.0110755
0.00290639
0.0317252
0.0316834
0.00774915
0.0450268
0.00720916
0.00420211
0.011909
0.0117184
0.0396705
0.00290361
0.00242619
0.0259116
0.00878045
0.00443718
0.00724465
0.00284171
0.0138597
0.0127968
0.0340887
0.0629467
0.0448878
0.00300216
0.0139898
0.00307561
0.0109535
0.0152997
0.00622885
0.010522
0.00201892
0.0434364
0.0182678
0.00315566
0.00293937
0.0143294
0.0285887
0.0463391
0.0513713
0.01768
0.00690826
0.0129589
0.00234765
0.00310056
0.00404032
0.000953947
0.00254022
0.0046072
0.0358008
0.125864
0.00572356
0.00377733
0.0098477
0.0397477
0.00461659
0.0153681
0.00793609
0.0112074
0.00580886
0.0117851
0.0274267
0.028416
0.0151602
0.00280625
0.0161969
0.0812233
0.0113464
0.00394739
0.0112411
0.0267615
0.0151611
0.00270332
0.00304798
0.00751061
0.0124942
0.0138971
0.0123506
0.00202258
0.0134903
0.0040559
0.00269882
0.0580254
0.0130089
0.0336872
0.014583
0.017812
0.0209432
0.00971416
0.00296133
0.0374198
0.00299757
0.00803454
0.00754608
0.0113454
0.0110744
0.0157936
0.00795836
0.0144554
0.030257
0.0113442
0.0200672
0.00266197
0.0506626
0.0027965
0.00266107
0.0268238
0.0248064
0.010477
0.0464594
0.0126867
0.00322068
0.0251156
0.00283024
0.0290904
0.038543
0.00283638
0.0190455
0.0501733
0.00577926
0.0417291
0.0191566
0.0332554
0.00805451
0.0469918
0.0432339
0.00289872
0.00977291
0.0428768
0.00293225
0.00255333
0.0368777
0.00240928
0.0127347
0.0412166
0.029797
0.0848699
0.0013036
0.00214998
0.00226803
0.0534685
0.00263092
0.00303143
0.00790014
0.0147204
0.00387505
0.00249369
0.0026794
0.0130245
0.0129574
0.00261555
0.0113071
0.00233144
0.00244205
0.00206467
0.0750311
0.0235738
0.00255088
0.00294259
0.0208013
0.031917
0.00331481
0.0165316
0.0025081
0.00237296
0.0325621
0.00300441
0.0278193
0.00223637
0.0175464
0.0107367
0.142511
0.013883
0.0987783
0.0660575
0.00254777
0.0460945
0.00317097
0.00279008
0.00671475
0.0231585
0.00292373
0.0137175
0.0228963
0.0042125
0.0039697
0.0156174
0.0489862
0.0125369
0.077473
0.0274016
0.0305397
0.00266163
0.0422905
0.0281515
0.00215858
0.0190073
0.00234168
0.00249881
0.0524527
0.0103308
0.0104005
0.0612204
0.0560794
0.0032387
0.0108966
0.00441908
0.0270313
0.00258942
0.0402519
0.0416536
0.00218156
0.0336251
0.00276105
0.00243214
0.00231353
0.0111866
0.0149304
0.104809
0.0347946
0.00369158
0.0591261
0.00253736
0.00248545
0.00215215
0.0328325
0.0111936
0.00234141
0.00711804
0.062237
0.0146634
0.0167011
0.00273724
0.0110805
0.00370898
0.0041088
0.00541963
0.00108569
0.00525574
0.00180776
0.00237984
0.114354
0.0042622
0.007384
0.00261684
0.011317
0.012134
0.0346097
0.0010979
0.0117888
0.0316122
0.00966611
0.00276944
0.0329563
0.00201455
0.0273346
0.0128045
0.011504
0.00755243
0.00389485
0.0611988
0.0492024
0.00253222
0.00388565
0.0547194
0.0419321
0.0213653
0.00541529
0.0310719
0.00441944
0.0116722
0.00762873
0.0124534
0.00244374
0.00373825
0.00708734
0.0141652
0.0110307
0.00253501
0.0118536
0.0142165
0.0132137
0.0129414
0.0198853
0.0303955
0.0265155
0.00267188
0.0385558
0.0405188
0.0347177
0.000994953
0.0155956
0.0190036
0.0122274
0.0411288
0.00192847
0.00278658
0.0321617
0.10807
0.0165558
0.0596707
0.00167526
0.00242423
0.0049545
0.00376627
0.0130413
0.00363668
0.00243767
0.024264
0.0272846
0.0673826
0.0599505
0.0993548
0.0495895
0.0529472
0.0207618
0.01398
0.0366468
0.00658514
0.0329191
0.0015548
0.0191443
0.0021227
0.0602079
0.0109063
0.00687212
0.0123293
0.00205847
0.00728144
0.00712293
0.00271839
0.0127945
0.00264245
0.0512852
0.0404776
0.00354678
0.0303146
0.0316748
0.0159418
0.0326999
0.147016
0.0108589
0.0110446
0.0639182
0.0106704
0.0239347
0.00123206
0.0605207
0.00131594
0.0142776
0.0122343
0.00430365
0.0383655
0.0298498
0.0016067
0.0115805
0.00374008
0.0726232
0.0309036
0.0070741
0.0976635
0.00654086
0.0270958
0.0031653
0.00735061
0.0586294
0.0173065
0.00833831
0.00224191
0.00300285
0.0146453
0.00424434
0.079343
0.0143379
0.00812686
0.062845
0.0020825
0.0106462
0.0100689
0.00265637
0.0274612
0.0626353
0.0354211
0.0227304
0.0137459
0.0591779
0.00269405
0.0159431
0.00232141
0.00253896
0.0125986
0.00204583
0.0475164
0.0624237
0.0626804
0.0159429
0.0184108
0.0287979
0.0105165
0.00270384
0.00900414
0.00299738
0.0134528
0.00691103
0.0044572
0.00915331
0.124778
0.00236609
0.0826999
0.044706
0.0125604
0.0115167
0.0422018
0.0335724
0.0021686
0.140591
0.0034265
0.00230843
0.00235524
0.132904
0.00367341
0.002317
0.0030143
0.035554
0.00441528
0.011113
0.00729736
0.0111988
0.00847824
0.00285065
0.0260361
0.00426719
0.00436084
0.0306307
0.00193891
0.0105745
0.0037022
0.0406666
0.0134315
0.0021638
0.0215192
0.033335
0.0640975
0.00423499
0.00262085
0.0872117
0.0646555
0.0811428
0.0580025
0.0701405
0.0539845
0.00221046
0.0234397
0.0571848
0.00592669
0.0120324
0.00205444
0.010532
0.025323
0.0106292
0.0162635
0.075488
0.0190594
0.00169233
0.00202511
0.00217808
0.012346
0.0111445
0.0164294
0.0267386
0.0586523
0.00797585
0.00257769
0.0566642
0.104378
0.011325
0.00479065
0.0205269
0.00410716
0.0111541
0.0263017
0.0123775
0.0106451
0.0102776
0.0140157
0.00464352
0.09765
0.0126078
0.0593077
0.0401948
0.0106552
0.0117822
0.0110816
0.0322858
0.00450548
0.0139493
0.022006
0.00551104
0.0116361
0.00662366
0.0282839
0.0124742
0.0282825
0.0552213
0.0501256
0.00599792
0.0487681
0.103258
0.00211126
0.0502303
0.00281714
0.0113234
0.0424182
0.00231191
0.00394689
0.0327108
0.00258866
0.0042498
0.00248815
0.00181407
0.0495277
0.00225774
0.0409939
0.0128692
0.0279373
0.00245198
0.00565207
0.00343944
0.0125377
0.00211422
0.0832193
0.0822484
0.026457
0.0307903
0.0143647
0.0130553
0.0322174
0.0055164
0.0716626
0.069822
0.0275693
0.00748516
0.0021506
0.00229055
0.0259764
0.0317219
0.00396238
0.00250493
0.00412385
0.014103
0.00237815
0.00673778
0.0101113
0.0141827
0.0166129
0.00690212
0.00525027
0.00287608
0.0613769
0.00600312
0.0117662
0.00819415
0.0103962
0.00976825
0.00790173
0.0103353
0.0113015
0.0466784
0.0268904
0.0187009
0.00993754
0.0437877
0.002285
0.0102613
0.00934999
0.00191212
0.00418191
0.0333249
0.0705062
0.0019514
0.0422607
0.0133623
0.0865558
0.0133768
0.0563945
0.00333761
0.0112047
0.0612582
0.0101632
0.0235613
0.0745962
0.0516066
0.00202291
0.0196489
0.00213905
0.0405023
0.0287547
0.01814
0.00243997
0.00555391
0.0431945
0.00404397
0.00919864
0.00701164
0.0329933
0.00232681
0.0241202
0.0019065
0.0742592
0.00203106
0.00154339
0.00711684
0.00768757
0.0618284
0.027662
0.00394089
0.00679963
0.00950659
0.00204922
0.015118
0.00621256
0.0197218
0.0111545
0.0950258
0.00211922
0.00222675
0.0455245
0.0614073
0.0189029
0.144427
0.0552821
0.00393212
0.0259006
0.0786769
0.00252804
0.063981
0.023725
0.0363251
0.00697152
0.0710821
0.0020836
0.0486998
0.00212644
0.0461891
0.0113373
0.00223108
0.0906512
0.00276787
0.04318
0.0374918
0.00599152
0.0027974
0.0987854
0.124796
0.00776586
0.0276194
0.0606943
0.00173121
0.0147923
0.00669851
0.0118273
0.00366495
0.00199193
0.0128729
0.0696012
0.00473269
0.0416221
0.0270443
0.00247662
0.00212272
0.0021696
0.0023914
0.00731055
0.0155491
0.0193476
0.00571891
0.0516384
0.0110824
0.00344773
0.00383201
0.00240001
0.0809381
0.0487034
0.00223579
0.00932371
0.0256228
0.00852416
0.0634074
0.0384138
0.00215946
0.00336871
0.0109962
0.00171912
0.00405127
0.0332312
0.0544299
0.00216425
0.00220821
0.0132989
0.0665032
0.084198
0.00236167
0.00142778
0.107851
0.0142892
0.00152741
0.00220448
0.05322
0.0463732
0.102686
0.0072197
0.0608728
0.0155812
0.115686
0.0631283
0.00236743
0.0374408
0.00235681
0.0168228
0.00263749
0.00295939
0.0104866
0.0153164
0.00900632
0.0253786
0.00132599
0.00725149
0.0139127
0.0396339
0.00603074
0.0858392
0.0267306
0.0403906
0.00263557
0.0920561
0.0230794
0.0105607
0.0116129
0.0121206
0.0421742
0.00134475
0.0308923
0.0501027
0.00138322
0.0190619
0.0111099
0.00259584
0.00261179
0.00221248
0.0112374
0.0058245
0.00290456
0.0527653
0.139843
0.0014916
0.0533594
0.0597265
0.0913845
0.0218039
0.0296947
0.0681089
0.00230094
0.0217414
0.0162857
0.00205281
0.00411097
0.00247822
0.00150323
0.00382096
0.0250573
0.0103198
0.0706397
0.00187875
0.0114673
0.00236329
0.00259933
0.00208722
0.0653037
0.0294619
0.00459898
0.00246035
0.0281083
0.0103531
0.038399
0.0366514
0.0415945
0.0296121
0.00227455
0.00227125
0.0118903
0.00223935
0.0110875
0.00260647
0.020402
0.0475142
0.0149262
0.0677028
0.00285765
0.00206935
0.0214656
0.0285493
0.0171325
0.0143534
0.0115062
0.0120833
0.127144
0.0900496
0.0320037
0.0727941
0.0136045
0.00184125
0.0107459
0.00770516
0.0381797
0.00223678
0.00214087
0.00742997
0.036361
0.0144332
0.0191086
0.0106451
0.011943
0.00231408
0.0670083
0.0255239
0.0266687
0.00226315
0.138281
0.0672926
0.0331299
0.00125782
0.0710527
0.0167542
0.0142001
0.00202593
0.0161874
0.00658353
0.00259534
0.0135214
0.0152577
0.0235884
0.0197768
0.116043
0.0560366
0.00247365
0.0493181
0.0022014
0.0108513
0.00623106
0.040834
0.00254174
0.0021928
0.0740351
0.0102744
0.00227397
0.0713944
0.0260273
0.0242741
0.00227379
0.00225321
0.011114
0.0331739
0.00194972
0.00231486
0.00222052
0.0545362
0.00245426
0.00257904
0.00747727
0.00473297
0.0569628
0.003563
0.0287866
0.0020177
0.0112256
0.0654012
0.0176394
0.0236463
0.0118628
0.0022899
0.00166369
0.00168648
0.00256257
0.0321638
0.00449548
0.0030215
0.0530884
0.0110273
0.0114356
0.0468475
0.0138976
0.00274584
0.00248072
0.00313406
0.012206
0.0158535
0.00147215
0.0412527
0.0098649
0.0847768
0.0741752
0.0132755
0.00465072
0.0720525
0.00254588
0.00204887
0.0130484
0.104493
0.00404451
0.00218791
0.0129613
0.0158151
0.00221701
0.00225806
0.0195752
0.0117766
0.00200903
0.00220559
0.0106557
0.00691671
0.0410986
0.00200381
0.121498
0.0648806
0.00197888
0.0732879
0.0109109
0.0396355
0.0406929
0.0644453
0.0609523
0.0768154
0.0160671
0.00935957
0.00736851
0.0021043
0.0026651
0.0108637
0.00895467
0.0366975
0.0697719
0.00227165
0.00169899
0.00224192
0.00208512
0.00216129
0.00222182
0.0118058
0.00510463
0.0017622
0.0108051
0.00198154
0.00235386
0.00336874
0.00226906
0.031511
0.0314049
0.0171384
0.0167407
0.0108334
0.0329925
0.00656544
0.010423
0.00178141
0.0128452
0.00216604
0.0140449
0.071128
0.014429
0.00443771
0.00195025
0.00658186
0.0386889
0.0384106
0.0110199
0.00255725
0.00801937
0.00224245
0.0585438
0.0108441
0.0167036
0.00321776
0.00349556
0.0121168
0.00809968
0.0345792
0.019022
0.00489855
0.00198914
0.0023946
0.00395646
0.0493345
0.0218586
0.0832195
0.0229598
0.0106474
0.0457582
0.024226
0.0260643
0.0176221
0.047839
0.0110351
0.00294965
0.0663856
0.0634571
0.011233
0.0108487
0.0171969
0.00236455
0.011499
0.00742166
0.0142189
0.0872923
0.0174779
0.0051077
0.00781947
0.0475509
0.076486
0.00195287
0.0126691
0.0128499
0.00486478
0.00226453
0.00229298
0.00108196
0.00454509
0.00279307
0.00222239
0.130477
0.0114806
0.0518981
0.0560517
0.0129306
0.00217878
0.0215803
0.0224541
0.016495
0.00988668
0.0125841
0.00225024
0.0992798
0.0378014
0.0678446
0.000977558
0.00195312
0.00208856
0.0148189
0.0166844
0.0119467
0.00189359
0.0107768
0.0429085
0.00224398
0.00130304
0.0050192
0.0768138
0.00169716
0.00628976
0.0107747
0.0128831
0.00336999
0.0865015
0.0365062
0.0983568
0.0131977
0.0206723
0.0260238
0.0024067
0.0260861
0.133042
0.0124419
0.00702309
0.0127066
0.0549313
0.0193491
0.0145037
0.0109497
0.0284991
0.00227457
0.033883
0.0011136
0.00237995
0.00228544
0.0373576
0.0117946
0.0399119
0.0899927
0.0118587
0.0222352
0.00169616
0.0191431
0.00223978
0.00929139
0.0273159
0.024685
0.00188153
0.00236484
0.0488073
0.00111421
0.0565953
0.00154729
0.0552798
0.00259563
0.0275269
0.00186925
0.0506485
0.0123723
0.0343983
0.056136
0.0232239
0.0255448
0.00109062
0.0484629
0.0302195
0.0233692
0.019508
0.0118505
0.024995
0.0295008
0.00227271
0.0304057
0.0481217
0.00625883
0.0519625
0.0923066
0.00198886
0.0112937
0.00306974
0.0665489
0.00247518
0.0024052
0.00228364
0.0366617
0.127736
0.0261265
0.0124253
0.0191956
0.0020283
0.00940654
0.00306399
0.00592617
0.00238287
0.0109698
0.0101065
0.00966011
0.00216794
0.075675
0.0717364
0.00175704
0.00554681
0.0324501
0.037095
0.027719
0.00210831
0.00222101
0.0102189
0.0349394
0.00259598
0.00200816
0.0838579
0.0252998
0.00176956
0.00597082
0.0216387
0.0209676
0.0361582
0.0344412
0.0270169
0.0105027
0.0105488
0.0475542
0.0548966
0.00293677
0.0117881
0.0107818
0.00225157
0.00286451
0.0104919
0.00258841
0.0264549
0.0511202
0.00330735
0.0331033
0.0968295
0.00309897
0.0148832
0.00384021
0.0328698
0.0199243
0.0094813
0.0112813
0.0895921
0.010373
0.00589361
0.0110466
0.00624535
0.0830006
0.0397301
0.0427449
0.00919685
0.00620659
0.00354721
0.0106208
0.00148645
0.00123481
0.00960086
0.0200329
0.00391412
0.0087666
0.00937091
0.00237561
0.0427109
0.0106754
0.0113031
0.00201928
0.129611
0.00389396
0.00214945
0.00437846
0.0281795
0.00309648
0.00316459
0.0126938
0.00263635
0.00361701
0.00992349
0.0512376
0.00375879
0.0479104
0.0104086
0.00597748
0.0376215
0.0166361
0.00360541
0.11253
0.0121046
0.0670288
0.00416271
0.026064
0.00351299
0.0273947
0.134028
0.00325149
0.0173125
0.00977523
0.0111197
0.00221056
0.00224359
0.00448784
0.00216565
0.00286834
0.00352271
0.0169527
0.0105966
0.00256608
0.00214631
0.00323484
0.017947
0.0321737
0.0339149
0.0147484
0.00916982
0.13515
0.00258359
0.00237384
0.00404818
0.00244609
0.00245538
0.0203592
0.00365141
0.00510283
0.0286152
0.0106295
0.0102516
0.0381993
0.0433506
0.00255116
0.0617076
0.0121888
0.022657
0.0256443
0.017089
0.0162389
0.0386592
0.0028743
0.014337
0.0019931
0.0117935
0.00146253
0.0384894
0.00665923
0.00343919
0.0128093
0.0297357
0.0263995
0.00234336
0.0216204
0.0296855
0.0174935
0.00114815
0.00538617
0.0064023
0.0193836
0.00716492
0.124163
0.0228936
0.00645284
0.0106729
0.00136872
0.00211053
0.00812957
0.00208704
0.0403975
0.0145188
0.00214539
0.00476351
0.032456
0.00681875
0.0490685
0.0215574
0.023811
0.00595675
0.00163646
0.0232574
0.0736995
0.00248571
0.00150214
0.0106445
0.00163549
0.00270779
0.0242156
0.00698893
0.0423876
0.026398
0.0555814
0.00707592
0.0233486
0.00170785
0.00192636
0.00263946
0.0322952
0.000978946
0.000837757
0.0012243
0.0123319
0.0104602
0.00137112
0.0288781
0.0645775
0.0379905
0.00221727
0.0224936
0.0969898
0.0312533
0.00268143
0.0138665
0.00299894
0.0567479
0.0015329
0.0112199
0.0275096
0.0309285
0.00216698
0.00325797
0.0129231
0.0356535
0.0464288
0.0042996
0.0463456
0.00123026
0.00249269
0.0280374
0.0132116
0.00258353
0.0436449
0.0128723
0.00236516
0.0106434
0.026748
0.0110531
0.00164546
0.00229069
0.0267142
0.00981345
0.00220595
0.0259472
0.0620403
0.0365359
0.0126265
0.00151221
0.00242096
0.0140771
0.050521
0.014358
0.0544409
0.0807675
0.0691995
0.00215922
0.00219304
0.00461038
0.00211622
0.00220253
0.0290613
0.0386499
0.00230691
0.00238878
0.00227832
0.00122574
0.021627
0.0157776
0.0128292
0.00108491
0.000963222
0.00107945
0.013961
0.0288637
0.0107344
0.00235947
0.0413883
0.00408599
0.00422229
0.0402453
0.00408558
0.0173061
0.0286747
0.0019741
0.0125739
0.00204508
0.0122968
0.0111716
0.00907382
0.066038
0.002293
0.0246809
0.0307432
0.0134196
0.00403413
0.0762039
0.0882183
0.00237949
0.00179347
0.0109111
0.0125901
0.00609284
0.0351079
0.0731471
0.0136492
0.0188507
0.0847967
0.0271762
0.0104907
0.0456213
0.0397693
0.0730587
0.0434333
0.0115676
0.0528597
0.000939217
0.0029328
0.00179745
0.0133921
0.00172012
0.0656147
0.0228797
0.00221827
0.00191875
0.000749494
0.000832204
0.00186319
0.0140414
0.0220985
0.0111738
0.0258374
0.0261854
0.0149219
0.00169319
0.0020928
0.0128011
0.00436008
0.00236655
0.00225094
0.00288793
0.0163237
0.00219938
0.0104442
0.00212531
0.00403552
0.0228982
0.0012761
0.011429
0.0135672
0.0513769
0.0984144
0.00624218
0.00227717
0.00613292