/*--------------------------------*- C++ -*----------------------------------*\
  =========                 |
  \\      /  F ield         | OpenFOAM: The Open Source CFD Toolbox
   \\    /   O peration     | Website:  https://openfoam.org
    \\  /    A nd           | Version:  10
     \\/     M anipulation  |
\*---------------------------------------------------------------------------*/
FoamFile
{
    format      ascii;
    class       volScalarField;
    location    "1050";
    object      k;
}
// * * * * * * * * * * * * * * * * * * * * * * * * * * * * * * * * * * * * * //

dimensions      [0 2 -2 0 0 0 0];

internalField   nonuniform List<scalar> 
23845
(
0.0801709
0.095675
0.0701813
0.0464806
0.0908572
0.0244478
0.0824428
0.0343871
0.0195759
0.0636529
0.0767494
0.0229156
0.0267679
0.0220578
0.0909714
0.0465402
0.0387947
0.0477991
0.0296952
0.0279959
0.0669937
0.0731925
0.0632018
0.0194887
0.0693543
0.0153857
0.0752066
0.026558
0.0199633
0.0276238
0.0502718
0.0185117
0.086455
0.0487169
0.0230078
0.0256124
0.0158248
0.0230595
0.0234501
0.0208572
0.028013
0.0389964
0.0241544
0.0389566
0.012934
0.0300479
0.0778671
0.0508066
0.0235598
0.0153022
0.030064
0.0720887
0.0196726
0.0244908
0.0179371
0.0352472
0.0938422
0.0366885
0.0767502
0.0737903
0.0270343
0.0401019
0.0443113
0.0245367
0.0180403
0.0274619
0.076703
0.0118598
0.0120444
0.0331889
0.0310253
0.0616239
0.0176633
0.0882758
0.0163334
0.091188
0.0229223
0.0236324
0.0405496
0.0469446
0.0694044
0.0892184
0.096912
0.0373638
0.0678904
0.0230879
0.087433
0.0193742
0.0178291
0.0415088
0.0269412
0.0317344
0.0213639
0.0255925
0.0365179
0.0273996
0.035941
0.053687
0.0161509
0.0834789
0.038523
0.078254
0.0977593
0.0111732
0.0204904
0.0390059
0.0244058
0.0150882
0.0754043
0.0382114
0.0726846
0.0232065
0.0798391
0.0603309
0.0261822
0.0591159
0.0170741
0.0504132
0.0206402
0.0318867
0.0233791
0.0221281
0.0334986
0.0448388
0.0795421
0.0162136
0.0282797
0.0152054
0.0548095
0.078581
0.0548327
0.0915189
0.0827404
0.023147
0.0435643
0.0913436
0.0101948
0.0227977
0.0746117
0.023643
0.0172758
0.0378641
0.0236627
0.0406108
0.0408448
0.0371557
0.0541578
0.0815361
0.034629
0.0439003
0.0879621
0.0219275
0.089255
0.0247865
0.0762511
0.0611532
0.0974052
0.0240896
0.0610307
0.0254107
0.0375164
0.0906794
0.036132
0.018503
0.0203549
0.0516025
0.0236546
0.0228352
0.0272715
0.0370047
0.0235237
0.0473865
0.0191802
0.0436258
0.0185056
0.0387661
0.0338466
0.0700552
0.0147982
0.0239035
0.0846055
0.0799906
0.0891823
0.0691129
0.0446219
0.0306302
0.0388938
0.0362522
0.0183517
0.0380033
0.0223133
0.0225094
0.0222255
0.0239492
0.0387534
0.0217099
0.0163066
0.0186531
0.0133125
0.0737594
0.0570285
0.0228763
0.0344896
0.0893287
0.0362996
0.0361078
0.0666655
0.0239572
0.0811424
0.0503891
0.0500937
0.0213217
0.0372548
0.02726
0.0260506
0.0171995
0.0843921
0.0410453
0.0103618
0.0565792
0.019064
0.090317
0.0158805
0.0534911
0.0377471
0.0890809
0.0105723
0.0226509
0.0244381
0.0284863
0.024716
0.0253607
0.02338
0.0128156
0.0931647
0.0239054
0.0175548
0.0478787
0.0191804
0.0477702
0.021511
0.0526017
0.0383054
0.0929715
0.0236571
0.0463689
0.0240931
0.0119392
0.0376241
0.0908099
0.0313988
0.023793
0.0298909
0.0229523
0.0882414
0.0269093
0.0349248
0.0315095
0.0263947
0.0203733
0.0174822
0.0242326
0.0294293
0.0709465
0.0656413
0.0191294
0.0398321
0.0449915
0.0587626
0.0460286
0.023643
0.0448396
0.0297284
0.0229237
0.0693688
0.0220007
0.0306645
0.0231939
0.0207142
0.0624994
0.0397398
0.0245889
0.032565
0.0458554
0.0233433
0.0293569
0.0466231
0.0223288
0.0360306
0.0837467
0.0389315
0.0272457
0.0253974
0.0305418
0.0375514
0.0232162
0.0306059
0.0240159
0.0232518
0.0221985
0.0611
0.0873001
0.0235947
0.0464319
0.0237608
0.0481812
0.0243782
0.0298331
0.0373201
0.0152721
0.0293615
0.0898694
0.0307984
0.0236703
0.0628607
0.0165662
0.0293147
0.0849053
0.0259137
0.0201839
0.0209236
0.022151
0.0369861
0.0276257
0.0888757
0.0239614
0.042622
0.0751792
0.0353301
0.0494307
0.0789827
0.0511975
0.0288018
0.0241313
0.0341353
0.0486817
0.0531797
0.0469093
0.0360899
0.040755
0.0489307
0.035438
0.0734204
0.0133589
0.0131751
0.0194078
0.0239984
0.0289845
0.0416495
0.0825853
0.0536076
0.0537792
0.014789
0.0310447
0.0199098
0.022139
0.0354813
0.0184509
0.0860298
0.0376156
0.0482673
0.0173615
0.0534659
0.0428971
0.0193909
0.0236541
0.0400465
0.0261525
0.0213255
0.0151726
0.0384236
0.0253033
0.0292517
0.0228906
0.0244981
0.0282875
0.0590549
0.0501338
0.036665
0.0438339
0.0899489
0.0245301
0.0620691
0.0127983
0.0130614
0.0233554
0.0247403
0.0399619
0.0572077
0.0377062
0.0787061
0.0361514
0.0256861
0.0217764
0.0285118
0.0236138
0.0661457
0.0145572
0.0342687
0.0243762
0.0573263
0.0557028
0.0343846
0.0510309
0.0833595
0.0902316
0.0237789
0.0271924
0.0197528
0.0327844
0.0910037
0.0123738
0.0850876
0.0385571
0.098194
0.0643159
0.0615004
0.0658703
0.0239383
0.057302
0.0618917
0.0313601
0.0204083
0.0415283
0.031413
0.0862395
0.0565735
0.0528424
0.0483563
0.0503035
0.0223269
0.0468952
0.0348135
0.0461281
0.0295873
0.0166382
0.0228472
0.0301331
0.0229041
0.0498918
0.0907668
0.0479708
0.0194875
0.0522591
0.0540544
0.0291738
0.0282509
0.0615834
0.0240238
0.0459212
0.0405098
0.0216564
0.0422796
0.0241838
0.0131324
0.0348477
0.0763161
0.0914545
0.032609
0.0241322
0.0794132
0.0449447
0.0102171
0.0767048
0.0247329
0.0239449
0.0243617
0.0258759
0.0137081
0.0811812
0.0270593
0.0239651
0.0530809
0.0304151
0.0264
0.0916403
0.0198953
0.0247104
0.0259541
0.0394568
0.0693692
0.0612999
0.0500321
0.0715837
0.0581
0.0874709
0.0236373
0.0231825
0.0761527
0.0389068
0.0154179
0.0626526
0.0282753
0.0644608
0.0356583
0.0734006
0.0171521
0.0597214
0.0167931
0.0241592
0.0872754
0.0187442
0.0399749
0.0707131
0.0387556
0.039894
0.0680776
0.0249584
0.0266627
0.0389389
0.0496408
0.0425072
0.0158016
0.0512216
0.0231467
0.0139584
0.0584777
0.0811922
0.0745573
0.0349603
0.0152257
0.0245064
0.0488471
0.0296036
0.0146235
0.0841385
0.0891568
0.0267193
0.0639146
0.0227186
0.0245748
0.0697081
0.0870394
0.0639755
0.0347074
0.0253719
0.0251351
0.0336416
0.0764363
0.0413543
0.0684102
0.0236856
0.0604491
0.0609234
0.0380994
0.059363
0.0722128
0.0248311
0.0267486
0.024525
0.0244853
0.0231762
0.0440654
0.0263152
0.0360869
0.0906404
0.0354621
0.0419815
0.0241564
0.0258856
0.0374963
0.042289
0.0824613
0.0287223
0.03519
0.0235965
0.0219157
0.016978
0.0221379
0.0234117
0.0142875
0.0848714
0.0310963
0.0243171
0.0500928
0.0841455
0.0394529
0.0669726
0.0324228
0.0786654
0.015152
0.0230402
0.0393238
0.0773776
0.031174
0.0343169
0.0178152
0.0183536
0.0331553
0.0180932
0.065978
0.0868323
0.0856954
0.0654333
0.0290237
0.0355176
0.0138466
0.0244176
0.0467562
0.0230085
0.0670535
0.0264734
0.0788831
0.0898324
0.0477408
0.0810061
0.0323825
0.0787743
0.0859122
0.059151
0.0699682
0.0985306
0.0928312
0.0845347
0.0329942
0.0911958
0.0814851
0.0988309
0.0281712
0.0255834
0.0797348
0.0272384
0.0761648
0.0590183
0.0967917
0.0551041
0.0267396
0.0407914
0.0219231
0.0428741
0.0261806
0.0278669
0.066483
0.0259925
0.0229973
0.0829518
0.094852
0.0501102
0.0154187
0.064248
0.0859682
0.0556254
0.0269996
0.0241841
0.0771878
0.0846014
0.07116
0.0224857
0.0794265
0.0611848
0.0259428
0.0235816
0.0794345
0.04074
0.0258509
0.0804838
0.0416491
0.068004
0.0356451
0.0736924
0.0553069
0.0356382
0.0492852
0.0992467
0.0456626
0.0155164
0.0214821
0.0916442
0.0545095
0.0820104
0.0409021
0.0579435
0.0705458
0.0603222
0.0560671
0.0768545
0.0535673
0.0794791
0.0673639
0.0462769
0.0757811
0.049419
0.0351929
0.0472998
0.0455393
0.0879344
0.0341391
0.0442447
0.0841621
0.0780317
0.041627
0.0368888
0.0586628
0.0625781
0.0665048
0.0718128
0.0753712
0.0546776
0.0780238
0.0521765
0.0724511
0.0482127
0.0639807
0.0463646
0.0467842
0.0472805
0.0431591
0.0396733
0.04066
0.0268193
0.0368766
0.0562568
0.0192497
0.0355334
0.0381964
0.0388172
0.0247155
0.0666556
0.0377058
0.0639062
0.067833
0.0526561
0.0365185
0.0364846
0.0265651
0.0559296
0.0494659
0.08101
0.0214034
0.0622898
0.0346829
0.0457428
0.0272158
0.0346195
0.0770218
0.0461081
0.0794341
0.0369504
0.0233315
0.0292855
0.0140618
0.0335952
0.055743
0.0322689
0.0183016
0.0352603
0.0794291
0.0328832
0.0304087
0.0286358
0.0821657
0.0344912
0.01267
0.0862342
0.0374722
0.039721
0.0729791
0.0682603
0.0737018
0.0695044
0.0784188
0.0359339
0.0536903
0.0624935
0.070538
0.0509919
0.0489388
0.0451902
0.0991086
0.042663
0.031181
0.0740926
0.0709194
0.0816901
0.0506088
0.0609526
0.029124
0.0971796
0.0663354
0.0463764
0.0399401
0.0460242
0.0289294
0.0220742
0.064548
0.0323072
0.0284649
0.0394177
0.0331355
0.0316674
0.0383719
0.0355194
0.046408
0.0360635
0.0342017
0.0346729
0.0836773
0.0522219
0.0299881
0.0444197
0.0410844
0.0334542
0.081418
0.0618996
0.0723343
0.0527255
0.0364929
0.0292248
0.0360121
0.0348434
0.098406
0.0668398
0.0739028
0.0458441
0.031061
0.0534654
0.0232977
0.0640358
0.0278837
0.0332512
0.0186595
0.0208241
0.0363329
0.0223926
0.0224647
0.0159522
0.0260912
0.0173541
0.0201231
0.018069
0.0171854
0.0153193
0.0235152
0.0273109
0.0210022
0.0216064
0.0393993
0.0366581
0.0395599
0.0608916
0.0766827
0.0148225
0.0186157
0.0343975
0.0729491
0.0651948
0.074076
0.0613553
0.0483805
0.0265769
0.027402
0.0314706
0.0382417
0.0473354
0.0286636
0.0373376
0.02635
0.0356417
0.0227596
0.0886333
0.0233753
0.0595112
0.0390921
0.0829646
0.0299002
0.0321333
0.0347142
0.0295433
0.0470796
0.042686
0.0305502
0.0496882
0.0236637
0.0250943
0.0192371
0.0190022
0.0172375
0.0166541
0.0316251
0.0358348
0.0309491
0.0608573
0.0303133
0.0611442
0.0606517
0.0698354
0.0312381
0.0482966
0.0300477
0.0183738
0.0354046
0.0163633
0.0437377
0.0255669
0.0169569
0.0511955
0.0246354
0.0197795
0.0629397
0.028119
0.0483031
0.0570493
0.0546115
0.036212
0.0509408
0.0288231
0.0455049
0.0305553
0.0668821
0.0353796
0.0237363
0.0509156
0.0598773
0.0622386
0.0846633
0.0667613
0.0334453
0.0403742
0.0440093
0.0405258
0.0902806
0.022243
0.0388088
0.0361636
0.0260949
0.0642607
0.03513
0.0916808
0.0350354
0.0175633
0.0295044
0.023026
0.0370937
0.0341992
0.0316083
0.0923108
0.0311099
0.0604334
0.0402441
0.0803335
0.0342266
0.0478461
0.0545034
0.0604461
0.0620202
0.0415155
0.0561306
0.0477786
0.0654498
0.0686472
0.0739171
0.0453775
0.0690268
0.0698983
0.0487294
0.0840005
0.0756534
0.0660666
0.0668365
0.030481
0.0427963
0.0444408
0.0399003
0.0267549
0.0379885
0.0541978
0.0396344
0.0298494
0.0648342
0.0543893
0.0651293
0.0406726
0.0687801
0.0293008
0.0336249
0.0375437
0.0357693
0.0467479
0.0201795
0.0663392
0.0858614
0.0966118
0.0261893
0.0343424
0.0724437
0.0775284
0.0288447
0.0562992
0.0562327
0.0538977
0.0629281
0.0554077
0.0355239
0.0691345
0.0778691
0.0721221
0.0761854
0.0822905
0.0826982
0.0257676
0.0452217
0.0453622
0.034197
0.0530172
0.0568495
0.0328761
0.0215366
0.0270402
0.0729533
0.0268168
0.0280968
0.0153464
0.0283676
0.0124968
0.0235805
0.0175207
0.0349537
0.0318486
0.0326194
0.0353378
0.0808839
0.0262783
0.0303613
0.054266
0.0403287
0.0731962
0.0671739
0.0948373
0.0716272
0.0304015
0.0384502
0.0363406
0.0273323
0.0148706
0.0256017
0.0845672
0.080163
0.0395912
0.04685
0.0423558
0.0492045
0.0519417
0.0755809
0.0336578
0.0854352
0.0682081
0.0750741
0.0727893
0.0599771
0.067907
0.0473942
0.0638565
0.0373197
0.0602119
0.0530107
0.0394208
0.0497218
0.0467272
0.0444797
0.0352529
0.033985
0.05651
0.0584905
0.0797618
0.0296935
0.0538487
0.0296868
0.0217914
0.0424598
0.02286
0.0569715
0.0419155
0.0379479
0.0385349
0.0343885
0.0341783
0.0827556
0.0223667
0.0285433
0.0629057
0.04001
0.0152534
0.0562798
0.0827253
0.0511699
0.0235663
0.0692107
0.033055
0.0570591
0.0613152
0.0726627
0.0496299
0.0293806
0.0674841
0.0567819
0.0635892
0.0593107
0.0549956
0.0523984
0.0298902
0.0488624
0.0630932
0.031734
0.043355
0.0827278
0.0356669
0.0446715
0.0469347
0.0408965
0.0144476
0.0220555
0.0383606
0.0273452
0.0332223
0.0300882
0.0276273
0.0824752
0.0367799
0.0347972
0.0649733
0.0278504
0.0290095
0.0289697
0.0853546
0.0328268
0.0320729
0.0818375
0.0210557
0.0164097
0.0309371
0.0304682
0.0284368
0.0434027
0.021542
0.0325044
0.0518407
0.0757167
0.0806153
0.0694878
0.0617821
0.0290966
0.0448679
0.0372689
0.0397335
0.0299616
0.082412
0.045864
0.0272208
0.0282289
0.0502874
0.0454965
0.0603301
0.0374794
0.0298504
0.033772
0.0277334
0.073614
0.0422131
0.0179457
0.0751515
0.0314483
0.0436455
0.0293761
0.0240983
0.0274872
0.0491185
0.0345727
0.0277247
0.0706282
0.0291842
0.0734951
0.0440415
0.0236489
0.0645621
0.0331907
0.0559416
0.0584751
0.0467505
0.0646789
0.0517981
0.0290441
0.0548758
0.0555318
0.0229469
0.0412858
0.0291354
0.0265751
0.039443
0.0155902
0.0183121
0.0433869
0.0170268
0.0240864
0.0480462
0.0165147
0.0220165
0.0533375
0.0212353
0.0190236
0.0504756
0.090158
0.0786076
0.0217188
0.0273298
0.0595959
0.0238383
0.0250703
0.0904481
0.0631862
0.0897168
0.0432852
0.0739546
0.0330776
0.0416939
0.0482319
0.0690033
0.0293965
0.0648248
0.0937227
0.0303182
0.0287768
0.0341217
0.0280859
0.023494
0.0272467
0.0375027
0.0323138
0.0906935
0.0485641
0.035532
0.0790192
0.041058
0.073308
0.0286102
0.061754
0.0332484
0.0411476
0.0858131
0.0297188
0.0513281
0.0267929
0.0282256
0.0542856
0.0268191
0.0905838
0.062605
0.0778765
0.042859
0.0426081
0.087415
0.0305387
0.0274368
0.0731326
0.0312431
0.0319409
0.0315718
0.0741835
0.0262654
0.0264897
0.0288473
0.0964208
0.0274403
0.0398273
0.041621
0.0277061
0.0265051
0.0473153
0.0528004
0.0906017
0.022726
0.0128039
0.0294988
0.0248783
0.026407
0.097166
0.0441227
0.0424286
0.0294324
0.0508145
0.0614271
0.0398828
0.0689761
0.0700477
0.0243839
0.0402485
0.0264285
0.066751
0.0639699
0.0238518
0.0497946
0.0445365
0.0520262
0.0492234
0.0633887
0.0418217
0.0580235
0.0620182
0.0832017
0.0507827
0.0815927
0.0227573
0.0573457
0.0297046
0.0268001
0.0684975
0.0864708
0.0653581
0.0235745
0.087762
0.0436159
0.0382088
0.0890049
0.0392946
0.0805196
0.0260027
0.0986891
0.0615025
0.0238059
0.0783879
0.0584875
0.0565488
0.0517159
0.0909598
0.0879835
0.0272423
0.032259
0.0910521
0.0652935
0.0279359
0.0973994
0.0968215
0.0320156
0.0431701
0.0335263
0.0784786
0.0441717
0.0448027
0.0182245
0.0851458
0.0685176
0.0233071
0.0894917
0.0833207
0.0210368
0.0329107
0.0284776
0.0615601
0.0727804
0.0391416
0.0264594
0.0834279
0.064867
0.0445417
0.0918139
0.0417711
0.0330318
0.0543689
0.0512498
0.0861596
0.0272811
0.0227849
0.0776183
0.0436423
0.0331161
0.0432988
0.0251388
0.0597524
0.0556051
0.07659
0.0827106
0.0958639
0.0277264
0.058565
0.0276027
0.0510422
0.0615329
0.0396383
0.0289409
0.0203774
0.0902584
0.0142939
0.0270575
0.0262408
0.056022
0.0811848
0.0939523
0.0930539
0.0675114
0.0426695
0.0586541
0.0232553
0.0278596
0.0307999
0.0136963
0.0255044
0.0340678
0.0776349
0.0802919
0.0354046
0.0284776
0.0472676
0.0701907
0.033626
0.0594196
0.0445172
0.0532373
0.0386013
0.0534915
0.0809703
0.0803659
0.0616921
0.0267293
0.0639692
0.0865489
0.0304863
0.0319566
0.0520683
0.0775991
0.0612115
0.0241229
0.0279973
0.0427084
0.052361
0.0586741
0.0180045
0.0207394
0.0324391
0.0320406
0.0263146
0.0822105
0.0554518
0.0887287
0.0599414
0.0630009
0.0681006
0.0446217
0.0261307
0.0841576
0.0275838
0.0449951
0.0441714
0.0518406
0.0392089
0.0628281
0.0416749
0.0613458
0.0757262
0.0319778
0.0704732
0.0240528
0.0884203
0.0267911
0.0259446
0.0814757
0.0699856
0.0256608
0.0443714
0.0576755
0.0286388
0.0748049
0.0256495
0.0718262
0.0909146
0.026923
0.0673384
0.0975807
0.0357557
0.0794624
0.0688751
0.0878731
0.0421384
0.0832935
0.0962898
0.0257471
0.0470222
0.0581799
0.0258209
0.0238316
0.0790041
0.0247812
0.0512436
0.095471
0.0737913
0.0688076
0.016134
0.0222064
0.023222
0.0510606
0.0240688
0.0242489
0.0409915
0.0426893
0.0307666
0.022332
0.0244906
0.0399959
0.0473979
0.0259004
0.0501519
0.0244086
0.0248626
0.0205752
0.0868016
0.0763868
0.025572
0.0274315
0.0568516
0.0865908
0.0257971
0.0583301
0.0253511
0.024542
0.0514515
0.0258931
0.0820741
0.0238908
0.0599809
0.0351849
0.0899718
0.0203817
0.0878983
0.0920206
0.0239713
0.096703
0.02832
0.0255033
0.0414116
0.0680066
0.0273869
0.0324576
0.0316166
0.0327349
0.0318933
0.0516322
0.00333758
0.0459973
0.0842372
0.0812245
0.0667719
0.026112
0.0955191
0.00229
0.0233845
0.0550201
0.0240955
0.0249962
0.0954844
0.0192287
0.0303206
0.096802
0.0973916
0.0253837
0.0148685
0.0321893
0.0641502
0.0255886
0.0713655
0.0948696
0.0213219
0.0838033
0.0262047
0.0228315
0.023858
0.0183608
0.0498922
0.0869787
0.0541257
0.0306403
0.0974586
0.0250196
0.0243778
0.0234131
0.0836884
0.0350479
0.0239794
0.0396888
0.0949056
0.0305611
0.0657891
0.0255196
0.0387639
0.029658
0.0325972
0.0347128
0.0146345
0.0343507
0.0197502
0.0246642
0.0889343
0.0327175
0.0429992
0.0258726
0.0448919
0.042626
0.0891198
0.0148142
0.040809
0.0743366
0.0413749
0.0255235
0.037682
0.0197773
0.00223512
0.0417829
0.0381852
0.0431473
0.0316565
0.0861076
0.0802499
0.0238008
0.0311211
0.0936819
0.0897115
0.0647122
0.0319669
0.00247274
0.0333998
0.0304547
0.0437325
0.0259405
0.0249933
0.030504
0.0428191
0.0598272
0.0222157
0.0250245
0.0426528
0.0208905
0.0585358
0.0500889
0.0552579
0.0027097
0.0766142
0.0255174
0.0931375
0.0933045
0.0668633
0.013973
0.0478731
0.0542185
0.0437423
0.00381797
0.0202555
0.0260979
0.0801914
0.0877854
0.0652308
0.0913624
0.0188456
0.0225044
0.0318078
0.0311538
0.0312569
0.0289705
0.0245998
0.0674995
0.0741099
0.0881641
0.0939224
0.0767504
0.0658144
0.0965059
0.0223961
0.0480677
0.0920046
0.0358931
0.00297657
0.0176211
0.0523668
0.0231884
0.0524869
0.0246777
0.0423967
0.0565097
0.0200911
0.042284
0.0427847
0.0258445
0.0581261
0.0255598
0.0832593
0.0920669
0.027371
0.0854699
0.0873103
0.050949
0.00236531
0.0893525
0.0366631
0.0262631
0.0944568
0.0190007
0.0773391
0.0156635
0.0503867
0.0160308
0.0315387
0.0456915
0.0287685
0.00347364
0.0856391
0.0183674
0.0410643
0.0309243
0.0879773
0.0669028
0.0361677
0.0860899
0.0407189
0.0614588
0.0247732
0.0435096
0.0905626
0.0124419
0.0414621
0.0212293
0.0244168
0.0600302
0.0327246
0.0671222
0.0608663
0.040837
0.0913356
0.023014
0.0330073
0.0429069
0.0255438
0.0735561
0.0629431
0.00321659
0.047878
0.0398474
0.086911
0.0254087
0.0527761
0.0241572
0.0251697
0.0449778
0.0213842
0.0605212
0.093816
0.0895611
0.0449664
0.0674922
0.0646952
0.0517207
0.023784
0.0477366
0.0250421
0.0452287
0.0420806
0.0315784
0.0428692
0.0913749
0.0244602
0.0833526
0.00430878
0.0572149
0.0159239
0.00400583
0.0676144
0.0235201
0.0838005
0.0262187
0.0238286
0.0245029
0.0882174
0.030476
0.0229221
0.0269309
0.0746481
0.032162
0.0382652
0.0419759
0.0539532
0.0399207
0.0263285
0.0694359
0.0309959
0.0293726
0.0805287
0.0204615
0.0525323
0.0279867
0.00360902
0.0495458
0.0218973
0.0284898
0.0787223
0.0929874
0.0322685
0.0252387
0.0840953
0.090889
0.0869472
0.0866393
0.0831633
0.078447
0.0220454
0.0555075
0.0774211
0.0351674
0.0404342
0.0212747
0.0273098
0.0350292
0.0246818
0.0542506
0.0831273
0.0152766
0.018987
0.0227179
0.0235589
0.0341647
0.0399964
0.0260212
0.00235681
0.0777943
0.0405859
0.0252083
0.0896836
0.0724301
0.0410653
0.0302965
0.0558314
0.0321899
0.0326067
0.0305714
0.0401034
0.0322606
0.0276566
0.0453423
0.0329026
0.0885717
0.0426375
0.0484833
0.0763111
0.0304287
0.0478513
0.0373203
0.0392261
0.029905
0.0322085
0.0601421
0.0340469
0.0341113
0.0357129
0.00245274
0.0343552
0.0745404
0.091305
0.00517118
0.0334929
0.0888244
0.0801851
0.0204789
0.0842943
0.0238205
0.0529585
0.0953078
0.023745
0.0316305
0.088506
0.0248408
0.0307884
0.024824
0.0190543
0.0741203
0.0239065
0.0832669
0.0106846
0.0530191
0.0246426
0.0327514
0.026137
0.0345008
0.0215038
0.0720571
0.0867491
0.0794833
0.0650638
0.043657
0.0326509
0.0882374
0.0340954
0.0883918
0.00831844
0.04442
0.0433579
0.023421
0.0233474
0.0781636
0.068418
0.029938
0.0247651
0.0305131
0.0399936
0.023565
0.0353879
0.045429
0.060229
0.0400861
0.0367088
0.0320915
0.0240285
0.0804549
0.0363348
0.0361248
0.0465215
0.0450746
0.0504851
0.0378269
0.029689
0.0293445
0.00478567
0.00228812
0.0618412
0.0428706
0.0701901
0.0238211
0.0261865
0.0449879
0.0193684
0.02966
0.0844159
0.0810974
0.020699
0.0914194
0.0104974
0.0753147
0.0202804
0.0816972
0.0253676
0.0337596
0.0528087
0.0507208
0.0650583
0.00680792
0.097068
0.0227078
0.0512299
0.0221304
0.0804185
0.0627082
0.053192
0.0239429
0.0332533
0.0721135
0.0316325
0.0404862
0.0418618
0.0742841
0.0242578
0.0550059
0.0195097
0.0818825
0.0213328
0.0178695
0.0382716
0.0386581
0.0843461
0.0605667
0.0307952
0.0390868
0.0482574
0.0228331
0.0536813
0.0388025
0.0241001
0.0152233
0.0882232
0.0231818
0.0224189
0.00437644
0.00509339
0.0257064
0.0873913
0.0772353
0.0287272
0.0660662
0.08725
0.0254047
0.079968
0.0780536
0.0845116
0.0417519
0.0848986
0.0229906
0.0046553
0.023175
0.0510129
0.0371394
0.022476
0.086709
0.0234274
0.0445728
0.0797336
0.0343291
0.0242198
0.0887183
0.0792855
0.0399378
0.00264
0.0946319
0.0190374
0.0306362
0.0407684
0.0336356
0.028906
0.0203788
0.0568441
0.00519292
0.0337126
0.0623845
0.0801424
0.0243857
0.0231634
0.0233516
0.0243847
0.0412347
0.0403414
0.0551026
0.0327796
0.0931416
0.0465379
0.0293334
0.0312753
0.0242908
0.0858023
0.0976136
0.0237159
0.0428857
0.0795498
0.0474336
0.0606924
0.093024
0.020842
0.027647
0.0369766
0.0184936
0.0298418
0.0557333
0.0838734
0.0233365
0.0234949
0.0194872
0.00523312
0.0623276
0.0236012
0.0169211
0.0710508
0.0579259
0.0177914
0.0234885
0.076697
0.0903187
0.0815296
0.042545
0.0793183
0.0514869
0.0878806
0.00551981
0.0220857
0.0927989
0.0230571
0.0130091
0.0257644
0.0254694
0.0431868
0.0504027
0.0435833
0.0777943
0.0162507
0.0400828
0.0592811
0.0640709
0.0354722
0.0873897
0.00241049
0.071921
0.0241754
0.00509783
0.0581773
0.0265071
0.0282919
0.0510787
0.0955335
0.0165131
0.0743053
0.074028
0.0169072
0.0462604
0.052503
0.0233684
0.0241347
0.023692
0.033556
0.0371495
0.0269681
0.00503979
0.0908861
0.0174965
0.0779247
0.00556982
0.0881666
0.056337
0.00275245
0.0628559
0.0240189
0.0639131
0.0516314
0.0228405
0.0283348
0.02512
0.0173963
0.0283434
0.07117
0.0277298
0.00623336
0.0197103
0.0343926
0.0242301
0.0251714
0.0229992
0.079931
0.00267218
0.0297101
0.0250978
0.0538343
0.0305221
0.0354815
0.06931
0.0919887
0.0648806
0.0236085
0.0234545
0.050162
0.023597
0.0358368
0.0253339
0.0558
0.0745311
0.011869
0.00581504
0.0265864
0.0209252
0.0615488
0.0583504
0.0456249
0.0518953
0.0445286
0.0290585
0.086329
0.0879557
0.0443077
0.00625549
0.0311097
0.0198024
0.0516837
0.040154
0.0445591
0.0228722
0.0204786
0.0412368
0.0679564
0.0493632
0.0555264
0.0337048
0.0345588
0.0233218
0.0855726
0.0663712
0.00252191
0.0236404
0.0868675
0.0879669
0.0337462
0.0156771
0.0907964
0.0529354
0.0169005
0.0227143
0.0514383
0.0358774
0.025418
0.0581851
0.01042
0.0723131
0.0171617
0.0899587
0.0459437
0.0249925
0.0545611
0.0236559
0.0344706
0.0343914
0.0712183
0.0252665
0.0236264
0.00533525
0.0276285
0.023582
0.00433649
0.0608326
0.075982
0.0234943
0.023221
0.0351421
0.00274216
0.0206
0.0233922
0.0213906
0.095344
0.023376
0.02509
0.0370657
0.0300013
0.0053736
0.0267357
0.00251261
0.0212678
0.0156538
0.0573444
0.0526992
0.0624162
0.0167557
0.0240166
0.0182357
0.0185327
0.0242938
0.00329917
0.0309455
0.0274067
0.0777416
0.0309127
0.0355145
0.093599
0.0173963
0.0239302
0.0241032
0.0281769
0.0372764
0.0429152
0.0174793
0.0594051
0.048176
0.0849832
0.0822163
0.010012
0.0323098
0.0820925
0.0247134
0.0228536
0.0102809
0.0694029
0.0302865
0.0217627
0.0422653
0.0499082
0.0228757
0.0232572
0.0568085
0.0377017
0.0226342
0.02372
0.0216851
0.0408262
0.0710878
0.0226095
0.074138
0.0046464
0.019864
0.00577108
0.0346014
0.0937664
0.0716088
0.0797773
0.0908022
0.0849672
0.0541665
0.0468148
0.0405379
0.0230867
0.0257674
0.0360039
0.0430418
0.0484501
0.00503471
0.0238261
0.0190164
0.0224466
0.0218327
0.022414
0.0229072
0.0553197
0.0326511
0.0191205
0.0509472
0.0200318
0.0228949
0.0270962
0.0216802
0.0859833
0.0867152
0.0211828
0.0399192
0.0323239
0.0580268
0.0365696
0.0184517
0.0196609
0.00996928
0.0224483
0.0518456
0.0879327
0.047365
0.0297357
0.0206418
0.0395884
0.0332527
0.0937626
0.0380136
0.0243656
0.0431998
0.0235897
0.0849678
0.0330453
0.05392
0.0249314
0.028239
0.0553558
0.0416664
0.0695963
0.05737
0.0310039
0.0211363
0.0235004
0.0290519
0.0786811
0.0165503
0.059412
0.0610069
0.0222141
0.0754814
0.0450456
0.062051
0.0526438
0.0702737
0.0158576
0.0265573
0.0668111
0.086574
0.0274157
0.0149123
0.0545305
0.0225819
0.0377686
0.0396378
0.0110405
0.0877177
0.0134142
0.0327646
0.0385335
0.0764449
0.0715096
0.0206608
0.0322357
0.0447746
0.0337984
0.0236209
0.0237203
0.0146708
0.0299094
0.0265101
0.0237902
0.0904635
0.0540372
0.0751462
0.0780077
0.0189718
0.0223566
0.0570529
0.0593133
0.0189377
0.0441205
0.0436569
0.0239579
0.0700004
0.0687431
0.0831523
0.0138556
0.0205005
0.0218653
0.01173
0.0464416
0.0458339
0.020101
0.0315257
0.0718909
0.0228692
0.016268
0.0309541
0.0766748
0.0183896
0.037326
0.0317501
0.0444364
0.0293039
0.0826382
0.0813795
0.0809703
0.0503807
0.0237205
0.0539797
0.0236786
0.0700239
0.0919237
0.0442138
0.0413871
0.0100323
0.0775856
0.0150712
0.0450445
0.0371488
0.067846
0.0230904
0.0486103
0.014829
0.024249
0.0223244
0.0924929
0.0539698
0.0390088
0.0872576
0.0354694
0.0575656
0.0188241
0.0567468
0.0239172
0.0413377
0.00234629
0.0603435
0.0203744
0.0238181
0.0766964
0.0148299
0.0672822
0.0176235
0.0614348
0.0255215
0.0498375
0.0203445
0.0689538
0.04802
0.0892652
0.0753831
0.0262979
0.0165966
0.0147516
0.0414524
0.0656068
0.0532321
0.060207
0.0457906
0.0614191
0.0723913
0.0231928
0.0777415
0.0738083
0.0341377
0.0755655
0.0698834
0.0211613
0.034356
0.0250632
0.0804909
0.0250703
0.0242553
0.0237473
0.0905956
0.0908608
0.0426768
0.0490296
0.0546451
0.0213276
0.0460615
0.0243609
0.0351205
0.0244471
0.0528612
0.0513857
0.0457918
0.0208635
0.0827782
0.00459935
0.0195464
0.033086
0.0703054
0.0473472
0.0707574
0.0211105
0.0235736
0.0246228
0.0886106
0.0257327
0.022633
0.0595125
0.0796431
0.0190825
0.0363111
0.0600008
0.00716088
0.0661806
0.0900438
0.00223773
0.0205173
0.0517625
0.0756956
0.059776
0.0269015
0.0358622
0.0469136
0.0236727
0.0240107
0.0208079
0.0233277
0.0634191
0.0758553
0.0288432
0.0876001
0.0706218
0.0247846
0.0215038
0.0301168
0.0724867
0.0585471
0.0496563
0.0393073
0.0850383
0.0505421
0.034515
0.0388565
0.0367854
0.0838735
0.0388268
0.0522447
0.0423427
0.0356288
0.02973
0.0317254
0.0174872
0.015821
0.0454647
0.0583955
0.031164
0.0481576
0.0436844
0.024052
0.0755193
0.0341654
0.0451676
0.0212929
0.0904185
0.029361
0.0205034
0.0290358
0.0194812
0.0281037
0.0261701
0.0237757
0.0232486
0.0300864
0.0493504
0.0751929
0.0306881
0.0844581
0.0285471
0.0369085
0.0567869
0.0563129
0.03045
0.0869829
0.0345287
0.0534004
0.0288368
0.0632745
0.025994
0.00240936
0.0919344
0.0287576
0.0527726
0.0497133
0.0346519
0.0235313
0.0236896
0.0322252
0.021115
0.0246698
0.0299227
0.0254468
0.047617
0.0241976
0.023279
0.0266716
0.0138156
0.0681913
0.00443847
0.0552857
0.0487767
0.0898927
0.0254795
0.0241462
0.029203
0.0249933
0.0249741
0.0605555
0.02731
0.033221
0.065046
0.0331904
0.0233608
0.00214535
0.0751575
0.0249559
0.00434436
0.0175955
0.060981
0.0177713
0.0188841
0.027263
0.0712986
0.0246571
0.023617
0.0197733
0.035435
0.0173674
0.0875237
0.039466
0.0267719
0.0336206
0.0715304
0.0195856
0.0238732
0.0752086
0.0850371
0.055891
0.0150625
0.0342792
0.0345759
0.0486056
0.0369849
0.0822507
0.0765147
0.0400471
0.0339085
0.0167951
0.0204002
0.0383047
0.0203929
0.0838454
0.0111254
0.0222283
0.0336047
0.0693872
0.0361399
0.0762423
0.051524
0.0590283
0.0346765
0.0186306
0.0604167
0.0811497
0.0239504
0.0177502
0.028784
0.0186798
0.0247944
0.062372
0.0402641
0.0438101
0.0775491
0.0782893
0.0397682
0.0774366
0.0184752
0.020546
0.0251513
0.0667334
0.0139378
0.012859
0.0157231
0.0424475
0.0317915
0.0167685
0.0705785
0.079561
0.0700627
0.0220025
0.0501346
0.0871509
0.0361107
0.026115
0.0292262
0.0245579
0.0772714
0.0179409
0.0397061
0.0294708
0.0450414
0.0233586
0.0288501
0.0399189
0.00625158
0.00551099
0.029825
0.0439212
0.0157788
0.0244026
0.0461633
0.0434785
0.0232786
0.0739137
0.0495524
0.0241088
0.0258387
0.0275417
0.0384891
0.0184461
0.02347
0.0713164
0.0452082
0.022678
0.0733887
0.0735903
0.0578452
0.0374391
0.0177466
0.0220995
0.0357179
0.0746434
0.0423494
0.0984294
0.0846854
0.0820682
0.0233532
0.0235195
0.0300842
0.0212878
0.0218314
0.0182078
0.0698091
0.024173
0.0247154
0.0240716
0.0157556
0.0634099
0.0123436
0.0356753
0.0147451
0.0137792
0.0146807
0.0102205
0.0628505
0.0350451
0.0243593
0.0748746
0.0319609
0.0290466
0.0735144
0.0313179
0.0236459
0.0731283
0.020625
0.0344027
0.0215086
0.0274244
0.0304473
0.041024
0.0802724
0.0237195
0.0668477
0.0376005
0.0463767
0.0288191
0.0822877
0.0850509
0.0243192
0.019817
0.0295528
0.0103796
0.0361159
0.0675978
0.0844213
0.0483385
0.0148174
0.0848311
0.0176622
0.0293552
0.0547301
0.0518758
0.0864541
0.0752462
0.033376
0.0801265
0.013656
0.0253383
0.0197371
0.0419746
0.0192622
0.0801197
0.0172487
0.0227858
0.0206518
0.0121573
0.0128807
0.0202352
0.037934
0.0574026
0.0399239
0.0643703
0.0542954
0.0398199
0.0190774
0.0209639
0.0368141
0.0294862
0.0239294
0.02366
0.0245022
0.0126482
0.0235199
0.0185218
0.0231809
0.0313892
0.0234144
0.0160641
0.0411586
0.0362818
0.0767666
0.0866613
0.0384975
0.0239899
0.0353887
0.0352618
0.0684586
0.0286222
0.0283266
0.0317175
0.0263337
0.0798381
0.0292666
0.0236515
0.0235388
0.0204763
0.0297693
0.0356124
0.0739892
0.0773402
0.0138134
0.0301572
0.073711
0.0360307
0.0710878
0.079514
0.0383806
0.0732242
0.0724929
0.0670667
0.0418297
0.0188628
0.0121867
0.0126629
0.0407937
0.0680023
0.0236579
0.0530917
0.0724155
0.0664589
0.0123227
0.0243723
0.0329309
0.0167233
0.023702
0.0706229
0.0257132
0.0274126
0.0706265
0.0128304
0.0808507
0.0739882
0.0292595
0.0164271
0.0296134
0.0565972
0.0721022
0.0117533
0.0115422
0.0140163
0.0884049
0.121902
0.136194
0.14096
0.140078
0.135308
0.128034
0.119272
0.10976
0.100065
0.0905584
0.081496
0.0730402
0.0652768
0.0582342
0.0519018
0.0462435
0.0412095
0.0367422
0.0327875
0.0877008
0.120946
0.13526
0.140112
0.139366
0.134742
0.127614
0.118985
0.10959
0.0999806
0.0905408
0.0815271
0.073104
0.0653602
0.0583278
0.051999
0.0463406
0.0413042
0.0368343
0.0328763
0.086965
0.119974
0.134291
0.139239
0.138628
0.134156
0.127177
0.118685
0.10941
0.0998929
0.090524
0.0815616
0.0731731
0.0654504
0.058429
0.0521045
0.046446
0.0414074
0.0369336
0.0329709
0.0862008
0.118977
0.133292
0.138341
0.137866
0.133549
0.126725