/*--------------------------------*- C++ -*----------------------------------*\
  =========                 |
  \\      /  F ield         | OpenFOAM: The Open Source CFD Toolbox
   \\    /   O peration     | Website:  https://openfoam.org
    \\  /    A nd           | Version:  10
     \\/     M anipulation  |
\*---------------------------------------------------------------------------*/
FoamFile
{
    format      ascii;
    class       volScalarField;
    location    "1050";
    object      nut;
}
// * * * * * * * * * * * * * * * * * * * * * * * * * * * * * * * * * * * * * //

dimensions      [0 2 -1 0 0 0 0];

internalField   nonuniform List<scalar> 
23845
(
0.0136132
0.013861
0.0077307
0.0140796
0.0181574
0.0220875
0.00799005
0.00991822
0.01947
0.0140975
0.022135
0.0229186
0.0189905
0.0206053
0.00610796
0.015798
0.0210928
0.0233473
0.0177702
0.0224241
0.0119512
0.0229206
0.0128981
0.0192285
0.0165183
0.017891
0.00981335
0.0220157
0.00347416
0.022099
0.0148061
0.00126675
0.00497694
0.0227567
0.0229469
0.0230034
0.00109731
0.0229243
0.0226067
0.019883
0.0173318
0.0223357
0.0184588
0.0230193
0.0177401
0.0199401
0.01934
0.016279
0.00221865
0.00194527
0.00565914
0.0100199
0.00126942
0.0212777
0.00122585
0.019964
0.0144984
0.0109657
0.0123401
0.0138761
0.0062752
0.0227551
0.0165278
0.00430217
0.0186875
0.0195252
0.0096591
0.0179642
0.0177222
0.0176458
0.00827301
0.00816022
0.0179774
0.00663154
0.0181514
0.00634472
0.0228631
0.022655
0.0130891
0.0206648
0.0109799
0.00745178
0.0141601
0.0113167
0.00645386
0.0229466
0.00854935
0.00117291
0.0187474
0.0194317
0.00465204
0.0171391
0.00374778
0.0228265
0.0105663
0.00546271
0.0204557
0.0161162
0.0182081
0.0193828
0.0199744
0.00926184
0.0169527
0.000827696
0.00295082
0.0119514
0.0218794
0.0179268
0.0108763
0.0226692
0.0222404
0.0228721
0.00643504
0.01522
0.022968
0.0131126
0.0181814
0.0149757
0.00366272
0.00713852
0.022731
0.00252997
0.0177429
0.00843891
0.00899841
0.0179538
0.00690998
0.00194246
0.00675462
0.0178912
0.00478067
0.019509
0.022238
0.0213318
0.019989
0.0154752
0.00072732
0.0229108
0.0109539
0.0225469
0.00228393
0.0224981
0.022752
0.0232097
0.0168191
0.022917
0.0139966
0.00700978
0.00570214
0.0185452
0.00546835
0.0185907
0.0103346
0.0198507
0.00631796
0.0200435
0.0181539
0.0228841
0.00438825
0.00513322
0.0175187
0.0062338
0.0100315
0.0189199
0.0175756
0.0199344
0.0219065
0.00295014
0.0221809
0.0230246
0.0217062
0.0134974
0.0190827
0.00950916
0.0188548
0.0121795
0.0168965
0.0199074
0.0179723
0.0228445
0.019812
0.0201917
0.00693058
0.0227837
0.0162747
0.0188817
0.0223923
0.0107591
0.00289683
0.0220716
0.00381594
0.0206369
0.0204907
0.0215892
0.0170761
0.0200943
0.00195729
0.00293146
0.000749614
0.0214244
0.0213536
0.0202883
0.0063845
0.0209469
0.0108628
0.0101811
0.00739213
0.022214
0.0116253
0.0230994
0.0218033
0.00282523
0.0163858
0.0218563
0.00330015
0.00121278
0.0220632
0.0226494
0.000550242
0.0054583
0.0179437
0.00648046
0.00183516
0.0186422
0.0231745
0.00565227
0.000743403
0.0206552
0.022162
0.0173589
0.0226442
0.00289187
0.0228632
0.0178202
0.0186496
0.00503117
0.0185149
0.0147794
0.0187868
0.0123764
0.00158576
0.0144355
0.0119256
0.0194107
0.00307583
0.0164329
0.021711
0.0179223
0.0113148
0.00641508
0.0205054
0.0229309
0.0056744
0.0181377
0.00690616
0.00477934
0.00713846
0.00717664
0.0228516
0.019442
0.000836432
0.0229418
0.00749864
0.0218465
0.0214245
0.0192905
0.0128574
0.00706195
0.0156328
0.0144665
0.0227156
0.0132115
0.00509577
0.0207857
0.0230925
0.0203081
0.00691399
0.0208076
0.00191727
0.0132994
0.0116974
0.0220862
0.00730978
0.017719
0.0229552
0.00580395
0.0105118
0.0198948
0.0103574
0.00663635
0.0122935
0.00371927
0.0048472
0.00684822
0.0113524
0.0229286
0.00508304
0.0213603
0.0229502
0.00399205
0.00411977
0.00583992
0.00490581
0.0147952
0.0212508
0.0150652
0.00388996
0.00528341
0.0198502
0.00184731
0.00482011
0.0115262
0.0186743
0.0217523
0.010915
0.00218266
0.00518575
0.0219432
0.00449283
0.0179425
0.00274072
0.00290776
0.00462472
0.0218862
0.00652118
0.0223144
0.0139383
0.0174124
0.00724904
0.0235384
0.00816319
0.0189039
0.00540662
0.0229882
0.00657766
0.0143574
0.0126797
0.0235608
0.0226821
0.0132899
0.0127183
0.00510532
0.022622
0.0178091
0.0176945
0.00143268
0.0229878
0.00611672
0.0135598
0.00552211
0.013457
0.00472105
0.00183045
0.00662124
0.00127616
0.0205369
0.0232542
0.0184212
0.00678058
0.0116452
0.00745407
0.0185953
0.0142026
0.0179609
0.00323682
0.0217369
0.00703216
0.0226822
0.00380435
0.0179285
0.0228726
0.00407726
0.00305375
0.0229242
0.022825
0.00530012
0.010324
0.0137454
0.0227007
0.0121282
0.00689393
0.0229285
0.0127898
0.0177549
0.0178356
0.0227895
0.0224714
0.0128895
0.0224401
0.0115478
0.00912846
0.023048
0.0035736
0.00282795
0.00433808
0.00425041
0.0223328
0.0177122
0.0176223
0.0229948
0.011968
0.0159068
0.00907482
0.0118065
0.0135064
0.00675116
0.0223083
0.00335922
0.00308479
0.00788788
0.00594155
0.0178623
0.00763412
0.00602983
0.0171637
0.010294
0.0160057
0.0233804
0.0225069
0.0134867
0.00364645
0.0226451
0.0197518
0.0136286
0.00818197
0.0126412
0.00347689
0.0147075
0.00948241
0.0084461
0.0203587
0.023041
0.00472769
0.0238804
0.020905
0.0179821
0.0229391
0.018911
0.00455265
0.0107397
0.00641041
0.00317628
0.00279528
0.00645385
0.0152346
0.00465381
0.0221127
0.017364
0.0225731
0.0125001
0.0132049
0.0187784
0.00299203
0.0229751
0.0179086
0.00527004
0.0146116
0.0205754
0.0082266
0.0208678
0.0105652
0.0144736
0.000739055
0.0160276
0.0225441
0.0224954
0.0217841
0.00314651
0.0178179
0.00531485
0.0219925
0.0220558
0.01584
0.007541
0.00431505
0.0194135
0.0185754
0.00331212
0.0215448
0.0185544
0.0185618
0.0172271
0.0152866
0.0231848
0.0229674
0.0074039
0.0228029
0.0228852
0.00857199
0.00686902
0.0180482
0.00447605
0.00583105
0.0179253
0.0103938
0.019199
0.018019
0.00973286
0.0184028
0.022923
0.00923983
0.00249464
0.00556429
0.0191509
0.0119002
0.0126135
0.022404
0.0180916
0.0224605
0.00617042
0.0152917
0.00468032
0.00113867
0.0155919
0.0210103
0.0177837
0.0167079
0.00494781
0.005524
0.0222868
0.000795194
0.0207194
0.0232795
0.00422885
0.0176505
0.00786216
0.00676166
0.00487678
0.0120256
0.00403089
0.00523254
0.00392263
0.021337
0.0138038
0.0188006
0.0180779
0.0213759
0.00585857
0.0205102
0.0131918
0.00688884
0.0205749
0.0135664
0.0132627
0.0171224
0.0131926
0.0232914
0.0187297
0.0218151
0.019279
0.0198073
0.0229514
0.00841335
0.0198623
0.0107379
0.0111417
0.0229205
0.00506413
0.0229964
0.0224074
0.0111881
0.0138628
0.0149723
0.0223831
0.0228954
0.00273473
0.00337594
0.0180384
0.0042584
0.0181323
0.0176674
0.00790906
0.0188513
0.0219784
0.0153742
0.0203026
0.00796014
0.00487834
0.00791569
0.0202341
0.0175848
0.0228701
0.0170489
0.00738592
0.00452973
0.0234052
0.01795
0.0179992
0.00800775
0.0181338
0.0139514
0.00562439
0.0129607
0.0232104
0.0067242
0.0233467
0.0176242
0.0207609
0.0233743
0.0228373
0.00936512
0.0213605
0.021483
0.00679638
0.0116386
0.018148
0.00745859
0.0208174
0.00751825
0.0199714
0.0187398
0.0174155
0.0139545
0.0206109
0.00408347
0.0146207
0.0224293
0.0182818
0.0220469
0.0210221
0.0211789
0.00635267
0.0201679
0.0207758
0.0165714
0.0239012
0.0174006
0.0235964
0.0175851
0.0156053
0.0189324
0.0196077
0.0174817
0.0221947
0.0229276
0.00617756
0.0157688
0.0152036
0.0175779
0.0231065
0.0166455
0.0226983
0.022551
0.0181142
0.0139037
0.020367
0.0122495
0.018108
0.0183909
0.00634406
0.0230598
0.0229705
0.0226834
0.0125657
0.00533885
0.00433357
0.00437095
0.0167841
0.00793287
0.0221585
0.0220264
0.0185573
0.021993
0.0171496
0.0210245
0.017553
0.0176
0.0201395
0.0161666
0.0202011
0.0159289
0.023905
0.0210244
0.0239636
0.023974
0.0234083
0.0239869
0.0228915
0.0206866
0.0211322
0.0209429
0.0239596
0.0220746
0.0238852
0.0211853
0.0198808
0.0200295
0.0238817
0.0217349
0.0186437
0.0237285
0.0217524
0.0240389
0.0240534
0.0239433
0.0238395
0.0236425
0.0240383
0.0232474
0.0240293
0.0204668
0.0239693
0.0203794
0.0239498
0.0227843
0.0220395
0.0239031
0.0236386
0.023749
0.0178988
0.0211559
0.0161174
0.018759
0.0212396
0.0211418
0.0237047
0.0220384
0.0221926
0.0236437
0.0238213
0.0237861
0.0238594
0.0235708
0.021264
0.0229421
0.0169674
0.0176519
0.0224645
0.0189331
0.0237198
0.02353
0.02339
0.0227153
0.0212688
0.0231361
0.0227913
0.0219459
0.0234851
0.0201991
0.0214515
0.0177296
0.0234233
0.0213875
0.00874241
0.0181132
0.0234763
0.0229249
0.0234225
0.021803
0.0223646
0.00757985
0.0219387
0.0177278
0.020082
0.0211244
0.00768225
0.0197696
0.0199788
0.0237212
0.0238892
0.0231793
0.0222966
0.0240643
0.023216
0.0231419
0.0240692
0.0184571
0.0239155
0.0152791
0.0237981
0.0233757
0.0237962
0.023851
0.0225062
0.0133514
0.020109
0.0221108
0.0192397
0.0199734
0.0221784
0.023739
0.0239304
0.00487964
0.0202843
0.0213436
0.0233376
0.0190341
0.0233444
0.0233099
0.0233393
0.0236218
0.0208897
0.0220541
0.0223132
0.0234611
0.0212485
0.0169568
0.0235404
0.0219339
0.0234309
0.0234228
0.0205174
0.0227411
0.0212418
0.02136
0.0211206
0.0221112
0.0217683
0.0213511
0.0219666
0.0165005
0.0184469
0.0235814
0.0197043
0.0232896
0.0238198
0.00436278
0.0214738
0.0174058
0.0169151
0.0176773
0.0176271
0.0165037
0.0175858
0.0175508
0.0178002
0.0174247
0.0176933
0.0175774
0.0177054
0.0176555
0.0177953
0.0175025
0.0173759
0.0175943
0.0175932
0.016127
0.0233363
0.0234791
0.00886947
0.0234586
0.0176326
0.0191056
0.0226595
0.0185685
0.0239789
0.0213501
0.0240625
0.0221203
0.0172995
0.017392
0.0171256
0.0163983
0.0239648
0.0219727
0.0223613
0.0192105
0.017394
0.022927
0.00700598
0.0229353
0.0172108
0.0220449
0.0224717
0.0233347
0.0199578
0.0166797
0.0171577
0.0150151
0.0156928
0.0170966
0.0146361
0.0175633
0.0174448
0.0175777
0.0175044
0.0175255
0.017551
0.0187264
0.0235706
0.0233821
0.017994
0.0221614
0.0188085
0.0171247
0.0237482
0.017042
0.0148271
0.0171379
0.0174983
0.016598
0.0175781
0.015491
0.0174265
0.0175464
0.0144015
0.0174331
0.0175597
0.0238123
0.0212948
0.0228736
0.0165805
0.023738
0.0219525
0.0239291
0.0209102
0.0237922
0.0233589
0.0216049
0.00358228
0.022984
0.0239457
0.0237964
0.0238699
0.0211189
0.0237594
0.0229611
0.0169529
0.0236725
0.0233794
0.00542346
0.0025586
0.023617
0.0235262
0.0209566
0.0165417
0.0217228
0.00595859
0.0232039
0.0177094
0.0180803
0.017532
0.0221763
0.0234374
0.0197198
0.0202008
0.0231909
0.0128134
0.0175054
0.0228204
0.0231208
0.0177236
0.0237297
0.0234411
0.0236149
0.0198361
0.0176699
0.023717
0.0237787
0.0238373
0.023554
0.0235616
0.0217875
0.023394
0.0198318
0.0214004
0.0217112
0.0235306
0.0170332
0.0232792
0.023673
0.0211357
0.0235328
0.0230184
0.0235017
0.0187948
0.0233846
0.0232987
0.0230127
0.0195992
0.0220808
0.0220213
0.0130807
0.0232881
0.0200649
0.0233339
0.0234071
0.0209424
0.0181745
0.023724
0.0212414
0.0155013
0.0200877
0.0232984
0.0234453
0.0232473
0.0232098
0.0158261
0.023173
0.0230614
0.0226255
0.0160345
0.0186828
0.0231629
0.0229787
0.0222188
0.0187874
0.021632
0.0205092
0.0190572
0.0219818
0.0224401
0.0232862
0.0196277
0.0185947
0.0202024
0.00172616
0.0204761
0.00478378
0.0195469
0.0217184
0.00196609
0.0231883
0.0178337
0.0228418
0.0175134
0.0226852
0.0233994
0.0221079
0.0213197
0.0227051
0.00580713
0.0233474
0.0233916
0.0186061
0.0194038
0.0184459
0.0160057
0.0233595
0.0232493
0.0220148
0.02337
0.0214083
0.0177893
0.0215088
0.0199385
0.0222408
0.0161614
0.0152027
0.0158017
0.0149061
0.0145577
0.0236102
0.023434
0.021885
0.0192213
0.0193147
0.0238111
0.0190344
0.0238792
0.0222018
0.0240261
0.0235697
0.0240476
0.0240289
0.0237166
0.0239227
0.0239337
0.0237774
0.0235242
0.0223073
0.023543
0.0137919
0.0229912
0.0232357
0.0142155
0.0231439
0.0187286
0.0230171
0.0228967
0.0237312
0.0235255
0.0221239
0.0233139
0.0191062
0.0205502
0.0210053
0.0181663
0.0231018
0.0142026
0.0221475
0.0178592
0.0240529
0.0225117
0.0196593
0.00441404
0.00849439
0.0207644
0.0189189
0.018576
0.0234937
0.0227055
0.0232322
0.0237294
0.0197887
0.0238561
0.0239899
0.0238868
0.0238093
0.00264972
0.0238746
0.0169724
0.0232536
0.0237726
0.0179245
0.0185478
0.021003
0.00438726
0.0235571
0.0177518
0.018162
0.0235332
0.0227733
0.0234209
0.023164
0.020779
0.0224456
0.0234864
0.0234223
0.0127859
0.0231818
0.023215
0.0228968
0.0142698
0.0198842
0.0221124
0.0221415
0.0179402
0.0182813
0.0233409
0.0196546
0.0181098
0.00929912
0.0179491
0.0231711
0.0186272
0.0227945
0.0222582
0.0232717
0.0235791
0.0215546
0.0233534
0.0231995
0.0229683
0.0226442
0.0224239
0.022734
0.0214996
0.0231893
0.0237131
0.0220269
0.0125932
0.0106497
0.0223345
0.0217645
0.0214309
0.0198802
0.0209952
0.0175064
0.0221702
0.0233797
0.0142463
0.0228795
0.0222754
0.0232046
0.0203727
0.0222807
0.017911
0.0213912
0.0225061
0.0187449
0.0218244
0.0192373
0.0223588
0.0221292
0.0202534
0.0209292
0.0200741
0.0200236
0.0222579
0.0231082
0.0220913
0.0239726
0.0175778
0.0237652
0.0180149
0.0174801
0.0162015
0.0177908
0.0177006
0.0156671
0.0177172
0.01747
0.01504
0.0177853
0.0175659
0.0143549
0.0176041
0.0176781
0.0147369
0.0210782
0.0185277
0.019657
0.0205128
0.0150514
0.0224127
0.0230792
0.0200478
0.0172879
0.0197264
0.0210705
0.0152686
0.0218317
0.0230824
0.0157142
0.0236389
0.0220899
0.0238314
0.018517
0.00241252
0.0219555
0.0232617
0.0231149
0.0228847
0.023134
0.0234455
0.0234177
0.00566576
0.0238409
0.0234
0.0230234
0.0199131
0.0235174
0.0232002
0.0124938
0.020133
0.0198417
0.0174962
0.0189759
0.0232855
0.0231029
0.0201828
0.00498718
0.0231551
0.015746
0.0220748
0.0227069
0.0102204
0.0136741
0.021572
0.0211366
0.019901
0.0184519
0.0211869
0.0212156
0.0211713
0.0130234
0.0224008
0.0205701
0.0190007
0.0188457
0.0180718
0.0197175
0.0235681
0.0228892
0.0037946
0.0201301
0.0201642
0.0171044
0.0229359
0.00091787
0.0204829
0.00460434
0.0230889
0.0177718
0.0210861
0.0213799
0.0227107
0.0209958
0.0218148
0.020962
0.0214224
0.0185845
0.0179878
0.0208642
0.023042
0.018446
0.0183872
0.021821
0.0213337
0.0219665
0.0209947
0.0185299
0.0219661
0.0238263
0.0198447
0.0210238
0.0151628
0.022521
0.0183143
0.020989
0.0240674
0.0230037
0.0198058
0.00655263
0.0174824
0.0172394
0.0214954
0.0193527
0.0219129
0.0206877
0.0173337
0.0208036
0.0126392
0.00594623
0.0186552
0.0217193
0.0219905
0.00522276
0.021198
0.0208971
0.020604
0.0185174
0.0151469
0.0228547
0.0217746
0.0052379
0.0115622
0.0211614
0.0184941
0.0173547
0.0203606
0.00510712
0.0226815
0.0136013
0.0226381
0.0153688
0.0186362
0.0181573
0.0114446
0.0228873
0.00591445
0.0144769
0.0200192
0.00804845
0.0201552
0.0155984
0.0141093
0.0124496
0.0216795
0.0197452
0.0119525
0.0230421
0.0168495
0.0217826
0.0233689
0.0223392
0.0201725
0.0168416
0.0230689
0.0192581
0.0209255
0.0195227
0.022244
0.0232903
0.0200148
0.0231847
0.0217456
0.0154873
0.00978121
0.0184257
0.0230461
0.0220652
0.0222953
0.0214066
0.0222727
0.022702
0.0071642
0.0185105
0.0168797
0.00100661
0.0208798
0.0210835
0.019712
0.020749
0.0171439
0.0151702
0.0232014
0.0237196
0.023893
0.0207326
0.0225296
0.0211313
0.0176981
0.0230463
0.0226722
0.0151518
0.00460981
0.0197104
0.0193225
0.020419
0.0111555
0.0220431
0.0206767
0.0224746
0.0227599
0.0230863
0.0218514
0.021514
0.0204561
0.0225942
0.0229135
0.0227379
0.00830014
0.00737216
0.0232837
0.021706
0.0202509
0.0222421
0.0193734
0.0231453
0.0218572
0.0197493
0.0222952
0.00236218
0.0191394
0.00702032
0.0227801
0.0230921
0.0104828
0.0212732
0.0210332
0.0221742
0.020055
0.0199297
0.0184471
0.0207518
0.0170345
0.0228445
0.0226784
0.0232704
0.0213188
0.0124937
0.0224941
0.0196412
0.0234306
0.0170573
0.00811269
0.0222743
0.01956
0.0138886
0.0230997
0.0227657
0.022273
0.0177704
0.00565652
0.00381395
0.023598
0.0229195
0.0200521
0.0209208
0.0159609
0.0193003
0.0229998
0.0214277
0.0170804
0.0199096
0.0136184
0.0222869
0.0208974
0.0198408
0.0132875
0.019301
0.0205823
0.0203622
0.00710503
0.0204638
0.0200189
0.0152327
0.0229403
0.018558
0.0199028
0.0164468
0.00502067
0.0179715
0.0206426
0.0213989
0.00438851
0.0198173
0.0174574
0.0191423
0.011142
0.0219849
0.0179993
0.0201468
0.0110538
0.0156042
0.023083
0.0200201
0.0229988
0.0227815
0.0184535
0.00903769
0.0222766
0.0230718
0.023015
0.0139842
0.0211429
0.0180686
0.0185231
0.0230617
0.022844
0.00731686
0.0200841
0.0217926
0.0229699
0.0184535
0.0103773
0.00511218
0.00269301
0.0070395
0.0115369
0.0202985
0.0182588
0.0227634
0.0209806
0.0229856
0.0179736
0.0230883
0.00691195
0.00392924
0.0228941
0.0230612
0.0153629
2.04659e-05
0.0151886
0.00824328
0.0216691
0.0131391
0.0230555
0.0194169
1.67653e-05
0.0227997
0.0143339
0.0223145
0.0225039
0.0156437
0.00322112
0.00795541
0.0137757
0.0152224
0.0179053
0.00182595
0.0211024
0.0137016
0.022758
0.0113876
0.0194466
0.0187556
0.0187975
0.0223834
0.0192895
0.0221429
0.00271224
0.0150051
0.00649633
0.00757772
0.0228885
0.0144578
0.0222036
0.0215192
0.0229239
0.0191986
0.00987635
0.0221025
0.0199167
0.013025
0.00573251
0.0233242
0.021413
0.012205
0.0213437
0.0232749
0.0200102
0.0177537
0.020206
0.0194199
0.0230052
0.00622486
0.0226032
0.0225358
0.0230222
0.0160268
0.0134768
0.0206535
0.0179901
0.0127141
0.0157324
0.0159391
0.0211705
0.00387766
0.0174743
1.64487e-05
0.0122709
0.0114073
0.0221852
0.0231567
0.0109039
0.01178
0.0201337
0.022433
0.0144349
0.0172739
0.0176403
0.0169832
1.77106e-05
0.0227176
0.00715154
0.0225631
0.00486308
0.0230058
0.022402
0.0232828
0.0227414
0.0040268
0.0222328
0.013813
0.00276277
0.0233378
0.0174479
0.0138197
2.17408e-05
0.0199233
0.0219331
0.020249
0.0193371
0.0115896
0.0176612
0.0132259
0.013922
0.0140835
3.18978e-05
0.0191477
0.021998
0.0179953
0.00641777
0.0231312
0.0125897
0.0190801
0.0188019
0.0183785
0.0231928
0.00674239
0.0207706
0.0223424
0.0168997
0.0181166
0.0103819
0.0132431
0.00533599
0.00786129
0.0158309
0.00217432
0.0148744
0.0207886
0.0176076
2.42228e-05
0.0179735
0.0128918
0.0227979
0.00411804
0.00502546
0.0235405
0.0233104
0.0176483
0.0220992
0.0231292
0.0221141
0.0237662
0.0222511
0.0121651
0.0188467
0.0190103
0.0216879
0.02166
0.0146547
1.53982e-05
0.00488754
0.0111408
0.00562065
0.0125627
0.00304509
0.0224912
0.0179221
0.00377546
0.0175758
0.0062701
0.015358
0.0173078
2.83055e-05
0.0221129
0.0188974
0.0131053
0.0230123
0.00959199
0.0130353
0.0166423
0.0068299
0.0228139
0.0125461
0.0174499
0.0231787
0.01259
0.000805017
0.0185552
0.0180925
0.0178684
0.0221454
0.0227081
0.00511054
0.0232547
0.0184683
0.0119468
0.0228898
0.00921023
0.0164557
0.0221068
0.0177321
0.00569272
2.62889e-05
0.00907626
0.0103961
0.0114877
0.0215676
0.0157233
0.0226248
0.0224565
0.0144515
0.0201167
0.00693766
0.0126896
0.0115173
0.0114143
0.0222678
0.0130806
0.0228928
0.0188292
0.0227773
0.0188296
0.0136854
0.0230602
0.0201354
0.0180699
0.00602222
0.0227577
0.00756095
3.73754e-05
0.0234563
0.00198159
3.42212e-05
0.0122557
0.0229584
0.0044955
0.0180557
0.0221373
0.0229427
0.00527003
0.0227556
0.0204092
0.0216551
0.0141056
0.0210849
0.0118581
0.0217309
0.023394
0.0169174
0.0218852
0.0166662
0.0202633
0.0178056
0.019054
0.0194339
0.0234873
0.0190408
2.88259e-05
0.0164487
0.0199438
0.00339465
0.0167316
0.0121409
0.0221283
0.0218743
0.00729812
0.011499
0.00838501
0.0116473
0.00887437
0.0102595
0.0197878
0.0118302
0.00943367
0.0187807
0.012229
0.0198278
0.00637339
0.00436102
0.00515816
0.0162869
0.00823857
0.00110202
0.0191721
0.0229366
0.022934
0.00850887
0.0129188
0.00370915
1.86963e-05
0.00928653
0.0185873
0.022187
0.012775
0.00452346
0.0134015
0.0172438
0.0136671
0.0227059
0.00857875
0.00319809
0.0116942
0.00879906
0.00669805
0.0132018
0.0209824
0.00723037
0.0129774
0.0035671
0.0130391
0.00782075
0.0174906
0.0113117
0.00428924
0.0178645
0.00669317
0.0147931
0.0189306
0.0089998
0.0173298
1.91428e-05
0.00851559
0.0176811
0.013587
4.80134e-05
0.0168325
0.0145603
0.00560411
0.0178779
0.0127313
0.0181274
0.0222914
0.0192729
0.021949
0.022814
0.0215524
0.0214535
0.0200747
0.0222899
0.0180126
0.00998317
0.0227825
0.0152219
0.00079838
0.00905571
0.0222894
0.0170802
0.0178759
0.00854443
0.0196845
0.0056153
0.00823464
0.0214909
0.0123739
0.0119414
0.00734933
0.0217499
0.0189661
0.00981237
8.91936e-05
0.0064413
0.0226036
0.0229559
0.0214181
0.0211677
0.0132808
0.0203578
0.0220357
0.0203195
0.0102074
0.0210154
0.0167277
0.0183697
0.0230194
0.00870533
0.0175712
0.0176539
0.0180673
0.00949167
0.019793
0.009982
0.0237709
0.0175886
0.0234829
0.0162976
0.00767561
0.0068574
4.41582e-05
1.75227e-05
0.018405
0.0166449
0.0101261
0.0223501
0.00601443
0.0194815
0.0176569
0.0189326
0.0192452
0.00839517
0.0197604
0.0177985
0.000742198
0.00589801
0.00276724
0.0106517
0.0173526
0.00915458
0.00409723
0.0227815
0.0161677
5.59184e-05
0.016432
0.0229411
0.0120213
0.0206063
0.0143706
0.0123079
0.0140377
0.0211452
0.0179189
0.0108355
0.0222691
0.0160374
0.0224936
0.0150525
0.0227607
0.0112896
0.0179683
0.00812595
0.0201658
0.0186206
0.0185229
0.0174958
0.0103558
0.0119351
0.0216577
0.0202216
0.0220468
0.0228972
0.0171552
0.0218117
0.00265053
0.00186987
0.00737169
0.0228223
0.0203143
3.78651e-05
3.8022e-05
0.00314626
0.00475917
0.00971157
0.0188887
0.0151667
0.00870815
0.0229767
0.00899546
0.0231111
0.0176957
0.0225044
0.00912607
0.0228312
4.00508e-05
0.0227316
0.00507063
0.0109498
0.0203783
0.00746444
0.0178462
0.00414095
0.0152612
0.0177023
0.0188724
0.00717095
0.00453345
0.018485
2.27109e-05
0.0132791
0.0188412
0.00571051
0.0223312
0.00860904
0.0205187
0.0187639
0.0225911
3.48698e-05
0.0216132
0.00841535
0.0213742
0.0216099
0.0227487
0.0226202
0.0223781
0.0209324
0.00941973
0.0141241
0.0169097
0.0151202
0.0175883
0.0224613
0.022973
0.0221266
0.0081863
0.0176077
0.0226409
0.0177533
0.0222277
0.0237554
0.00522842
0.0202743
0.018104
0.0204208
0.0111906
0.0179053
0.0197834
0.00841251
0.011632
0.0226468
0.0224983
0.00256994
3.70613e-05
0.00415243
0.0212271
0.0180483
0.00421266
0.0211339
0.0186513
0.0225241
0.00994773
0.0158318
0.00582588
0.0225642
0.00930178
0.0153121
0.00600824
4.34376e-05
0.0185433
0.0207006
0.0203016
0.000905392
0.0226512
0.0197278
0.016007
0.0149278
0.0189817
0.0214621
0.0179245
0.0199403
0.0227333
0.00932174
0.018778
0.00800714
1.95635e-05
0.0115259
0.0199579
2.54074e-05
0.0131985
0.00598787
0.00620338
0.0193731
0.0194763
0.0182498
0.0160854
0.00984403
0.0185993
0.010104
0.0223306
0.0189331
0.020072
0.0228331
0.00901813
0.0213251
0.0225352
4.33231e-05
0.00531616
0.0184711
0.0102419
4.67474e-05
0.00765557
0.0131007
2.29616e-05
0.00522072
0.0225654
0.0169096
0.014732
0.0228721
0.0175767
0.022916
0.0181187
0.0189223
0.0181929
0.006706
4.95038e-05
0.0186105
0.00928347
0.0223581
0.021938
0.0228087
0.00880511
2.18129e-05
0.0172738
0.0230419
0.00927953
0.00809839
0.00295071
0.0117962
0.0183095
0.0127939
0.0220539
0.0217987
0.0190458
0.0223787
0.0104248
0.0221613
0.0137353
0.0105219
0.000849418
4.49512e-05
0.0222614
0.0190436
0.0158832
0.0107333
0.0109352
0.0168867
0.0155091
0.0062893
0.00527545
0.00773194
0.0055208
4.83803e-05
0.00640254
0.0191676
0.0223722
0.0188329
0.0046804
0.0210492
0.0176301
0.020598
0.0114305
0.0151945
0.0145215
0.0096045
0.00900009
0.0211537
0.0098352
0.015533
2.14634e-05
0.0222249
0.00491127
0.0103494
0.00309365
0.0175855
0.0104424
0.0150526
0.00181029
0.02292
0.0147109
0.0175965
0.0224043
0.0225343
0.000640459
0.0199516
0.00134032
0.00627637
0.00339018
0.0227259
0.00543253
0.0228783
0.00985504
0.0170836
0.011179
0.0226048
0.0229106
3.46031e-05
0.00668651
0.02201
2.37058e-05
0.0127964
0.0214053
0.0218482
0.0215378
0.0100006
2.04001e-05
0.0195887
0.0212747
0.0185453
0.0150018
0.0200384
0.0219677
0.0165365
0.0171155
4.56228e-05
0.0180555
1.9738e-05
0.0201758
0.00196459
0.00452521
0.0141699
0.0148277
0.00213
0.0226699
0.0179894
0.0183289
0.020728
3.04568e-05
0.0191718
0.0223736
0.0102459
0.00779913
0.00992641
0.0168306
0.00195982
0.0187699
0.0210772
0.0227994
0.0102456
0.0104554
0.0186785
0.00769904
0.0211744
0.0076671
0.00820163
0.00067957
0.0202019
0.00841784
0.0215909
0.0229423
0.000729028
0.0041487
0.0204115
0.0194823
0.012404
0.0141748
0.0212433
0.0215587
0.0148375
0.0108628
0.0229501
0.0229587
0.00397177
0.0216881
0.0110664
0.0229598
0.0040715
2.99475e-05
0.0179456
4.09001e-05
0.00987577
0.0199642
0.0113411
0.00888811
0.0121743
0.00845856
0.0164349
0.0210742
0.0200718
0.022796
0.0224218
0.010739
0.0186197
0.005757
3.26973e-05
0.0224909
0.0191562
0.0202267
0.0205743
0.0209202
0.0212559
0.0233297
0.0187964
0.0186717
0.0216199
0.0182255
0.0200419
0.0196152
0.0186434
0.0211158
0.0215494
0.00235633
0.00856708
0.00868015
0.00918513
0.0183324
0.00293984
0.0195292
0.000696352
0.0209384
0.0172246
0.0097837
0.0139933
0.0179324
0.0196629
0.0214304
0.00257223
0.0205992
0.0118017
0.0208941
0.0209443
0.0223339
0.0110986
0.00906295
0.0156651
0.0173854
0.0205318
0.0227604
0.0192906
0.0126067
0.0155724
0.0176607
0.0202132
0.0207567
0.0191993
0.0112936
0.0011278
0.00381738
0.0145892
0.00417117
0.0112061
0.00753814
0.0132952
0.014154
0.00929066
0.0020509
0.0215199
0.00605154
0.0106301
0.00602206
0.00184481
0.0155622
0.0194095
0.0111647
0.0190528
0.000771531
0.00793307
0.000926574
0.0189159
0.01709
0.0110606
0.00601713
0.0196726
0.00738198
0.0140412
0.0211334
0.0221746
0.0220843
0.0179037
0.0177139
0.0226456
0.0229201
0.0056449
0.0228909
0.00979275
0.00977078
0.00250519
0.0206462
0.013575
0.014101
0.0019568
0.0177204
0.0136309
0.0229568
0.00444204
0.011251
0.00917223
0.0176746
0.0193662
0.0206018
0.000835654
0.0116345
0.0158259
0.019204
0.00830003
0.0108404
0.0209761
0.0182791
0.0171809
0.00688825
0.0179334
0.0199357
0.00842034
0.0137942
0.0229332
0.00710528
0.016327
0.00599916
0.0173091
0.00244963
0.010077
0.0209669
0.0169171
0.00571621
0.0141407
0.0219505
0.000712885
0.00986244
0.00105651
0.0125906
0.0113431
0.0145365
0.0210962
0.00627649
0.0177719
0.0222363
0.019626
0.0206101
0.0222261
0.00343136
0.0076145
0.00954801
0.013413
0.0188021
0.0151395
0.0229858
0.0165521
1.81381e-05
0.0132761
0.0198565
0.0215902
0.0108469
0.0177643
0.00719885
0.0180658
0.00614476
0.0225846
0.00812075
0.0199282
0.00844873
0.0167739
0.0208483
0.00911064
0.00268009
0.000970463
0.0179577
0.00319103
0.012819
0.0109131
0.0167233
0.0159242
0.013583
0.0159875
0.0213012
0.0178893
0.0101885
0.0167578
0.00989007
0.00476166
0.0202639
0.00940611
0.0184168
0.00876184
0.0228537
0.0220142
0.0222252
0.0201486
0.00581676
0.00627401
0.0174122
0.0140005
0.0201835
0.0202997
0.0174318
0.0187322
0.0225735
0.0229254
0.023514
0.019536
0.0180704
0.00814933
2.65397e-05
0.0195701
0.0177618
0.0137089
0.00543896
0.0162558
0.0190242
0.0225187
0.00533967
0.0202255
0.0229568
0.0229576
0.00380115
0.0225643
0.0185202
0.019874
0.0149736
0.000220104
0.0109018
0.0211871
1.6681e-05
0.00360728
0.0228596
0.0108441
0.00585802
0.0221781
0.00981911
0.0183717
0.0224002
0.0181134
0.00371402
0.0189214
0.0136829
0.0101303
0.0226385
0.0208632
0.00463567
0.0178398
0.00279624
0.0212572
0.0143867
0.0154836
0.0234058
0.0123262
0.00726443
0.0221639
0.0181918
0.0123011
0.0195001
0.00762801
0.00341497
0.00574701
0.0175453
0.0184074
0.0224257
0.00852901
0.0185155
0.0182437
0.0193768
0.0153199
0.0223314
0.0238089
0.018328
0.0219164
0.0120177
0.00984088
0.0162442
0.0202076
0.00567695
0.0199247
0.0176021
0.0173296
0.0012121
0.0229562
0.0194776
0.00400791
0.0184516
0.0225234
0.0220882
0.00993133
0.0225493
0.0133997
0.00704655
0.0205105
0.00771441
0.0171557
0.0231453
0.00605123
0.00886444
0.00382887
0.0179788
0.0138248
0.0173106
1.90712e-05
0.00567546
0.0228911
0.0144777
0.0227542
0.00971859
0.022544
0.0225119
0.0208255
0.0185284
0.019096
0.0228754
0.00343772
0.0192575
0.0205361
0.0227238
0.0197919
0.000957169
0.0130077
5.2278e-05
0.0186519
0.023351
0.00538116
0.0226152
0.022105
0.01896
0.0229834
0.0228613
0.0162103
0.0183833
0.0194651
0.0133072
0.00932725
0.00479097
1.08439e-05
0.0117271
0.0219711
2.75267e-05
0.00228604
0.0147717
0.00110838
0.0018781
0.00411941
0.0118346
0.0190367
0.00350135
0.0176551
0.00958217
0.0185612
0.0179123
0.0210506
0.0187561
0.00794195
0.0154862
0.00130774
0.0218889
0.0235458
0.0219238
0.0160712
0.0177842
0.0196346
0.0168055
0.0109693
0.0171823
0.00490376
0.0230154
0.0223683
0.00969567
0.0185479
0.0177468
0.0162435
0.0179336
0.015662
0.000767262
0.0207276
0.0213362
0.0133508
0.017239
0.0106618
0.0110832
0.01317
0.0181678
0.0190894
0.0141252
0.00804177
0.0207691
0.0188773
0.00700516
0.0192016
0.0204331
0.0144586
0.020877
0.00407524
0.0205034
0.0099247
0.0201155
0.0231139
0.0179875
0.0197225
0.0215699
0.0124106
0.0178597
0.0177639
0.0181732
0.0131497
0.00869609
0.0184567
0.0155245
0.00882189
0.0116289
0.0196503
0.0100567
0.00704791
0.00375507
0.0228905
0.00554394
0.0180992
0.00946956
0.018898
0.0126465
0.00284147
0.00590346
0.022661
0.0229927
0.0110977
9.86552e-05
5.88727e-05
0.0186198
0.00374614
0.0182134
0.0215005
0.00684067
0.0128777
0.0188774
0.0112657
0.0171679
0.0221174
0.00564551
0.00255232
0.0120624
0.0186108
0.0216423
0.0171348
0.0187437
0.0209824
0.0186814
0.00785616
0.00824246
0.00999105
0.018744
0.0181561
0.00815643
0.00992551
0.011242
0.0160165
0.0079914
0.00875971
0.0227321
0.0227013
0.0176678
0.0192728
0.0194752
0.00102669
0.011348
0.0227968
0.0230145
0.0228896
0.0182269
0.0167325
0.000869135
0.00892849
0.0180362
0.0177404
0.0179695
0.000673392
0.0123171
0.0102972
0.0226338
0.0121909
0.0225
0.017984
0.0120857
0.0216059
0.00290774
0.0167848
0.0193937
0.00847144
0.020359
0.00550459
0.00746835
0.0166928
0.00878175
0.0220826
0.016295
0.00413886
0.0144246
0.0185291
0.00799715
0.00737975
0.0223695
0.0197072
0.00720393
0.000770147
0.0192673
0.0117139
0.00876899
0.0154072
0.00104823
0.0076379
0.0010331
0.00739276
0.00590919
0.0060901
0.00920751
0.0117325
0.00866699
0.0109313
0.01787
0.0197021
0.0195053
0.0118404
0.0194131
0.00880482
0.00117032
0.0210647
0.0200051
0.0177479
0.0179429
0.0197788
0.00922334
0.0134197
0.0128384
0.0144332
0.0101324
0.00956354
0.0193452
0.0188998
0.00952849
0.0179468
0.0217767
0.0223826
0.0187097
0.000882024
0.0226367
0.0029562
0.0227553
0.0219737
0.00215479
0.0182
0.0133401
0.00873235
0.0103233
0.00686807
0.0213684
0.0227461
0.0183783
0.0176813
0.0157042
0.00696912
0.00617238
0.0188426
0.00360232
0.00877849
0.00673675
0.0226192
0.0215225
0.0198353
0.0178209
0.0102888
0.0160033
0.00946456
0.0176557
0.00726258
0.0125402
0.0176239
0.0114503
0.00968769
0.0179438
0.0112292
0.0114164
0.0129728
0.0167428
0.00124116
0.0176949
0.0180299
0.0168654
0.0118288
0.0219384
0.00648263
0.0129779
0.00564122
0.0178595
0.022525
0.00922978
0.018148
0.0222505
0.0131586
0.00478361
0.0201075
0.0131907
0.0177854
0.00862758
0.0123113