/*--------------------------------*- C++ -*----------------------------------*\
  =========                 |
  \\      /  F ield         | OpenFOAM: The Open Source CFD Toolbox
   \\    /   O peration     | Website:  https://openfoam.org
    \\  /    A nd           | Version:  10
     \\/     M anipulation  |
\*---------------------------------------------------------------------------*/
FoamFile
{
    format      ascii;
    class       volScalarField;
    location    "1050";
    object      p;
}
// * * * * * * * * * * * * * * * * * * * * * * * * * * * * * * * * * * * * * //

dimensions      [0 2 -2 0 0 0 0];

internalField   nonuniform List<scalar> 
23845
(
-0.128171
-0.170388
-0.254581
-0.251525
-0.14797
3.72679e-06
-0.239013
-0.256858
-0.000840427
-0.0867771
-0.0167432
0.000227543
0.000547752
-0.000329287
-0.246368
-0.042377
0.000954965
0.000297102
-0.00123214
0.000562305
-0.146992
-0.0154147
-0.191998
-0.000397205
-0.0492265
-0.000106368
-0.216028
0.00312023
-0.264485
0.000405164
-0.247361
-0.243644
-0.25692
-6.31742e-06
0.000347538
0.000729639
-0.253774
8.53237e-05
0.00106531
0.000188657
-0.00521776
0.00130309
0.00017703
-3.18861e-07
0.000100174
0.00105393
-0.165558
-0.0326881
-0.236627
-0.267201
-0.24453
-0.247119
-0.236684
0.00094643
-0.246196
0.000473293
-0.19504
-0.254023
-0.150357
-0.231424
-0.26289
0.0024006
-0.0277424
-0.2651
-0.000218456
-0.00134988
-0.22778
-0.000735009
-0.00175933
-0.00363518
-0.259346
-0.259059
-0.000436242
-0.245868
-0.0012689
-0.247516
0.000274319
-0.000392216
-0.253623
-0.000851588
-0.198899
-0.239483
-0.181417
-0.257631
-0.250667
0.000432173
-0.234093
-0.234187
-0.000674037
-0.0013753
-0.248945
-0.012438
-0.266637
0.00187708
-0.251066
-0.253282
-0.00171633
-0.0378984
-0.000336009
-0.148757
0.000128038
-0.24227
-0.110928
-0.274711
-0.269237
-0.256622
-0.000335586
-0.00106602
-0.229268
0.00143879
-0.0131071
-0.000357642
-0.25494
-0.0626396
0.000579092
-0.128232
-0.000436737
-0.0668335
-0.263346
-0.262896
0.000290722
-0.247661
-0.00419176
-0.261367
-0.233476
0.0013241
-0.262007
-0.26846
-0.257296
-0.187029
-0.258991
-0.0597795
-0.038797
-0.000395819
0.00112844
-0.118455
-0.272714
0.000261686
-0.224293
4.45393e-05
-0.263286
0.000775955
0.000521316
0.000379296
-0.0170473
0.00104406
-0.0995333
-0.245938
-0.262463
-0.00501256
-0.242003
0.000808022
-0.223961
-0.000885016
-0.254689
-0.00872599
-0.119798
0.000385342
-0.259732
-0.258057
-0.00810698
-0.250085
-0.249833
-0.000311802
-0.00178355
-0.0034058
-0.000565836
-0.250608
-0.000974451
0.000745543
-0.00089632
-0.252736
9.81406e-05
-0.261091
-0.000462464
-0.252615
-0.0178805
-0.0175548
0.000643265
0.000580313
-0.142514
-0.145548
-0.243735
-0.0100683
-0.0254452
-0.000331943
0.00209536
-0.257053
-0.265688
0.000744898
-0.267179
-0.00182252
-0.000306281
-3.23145e-05
-0.0147302
-0.000597869
-0.272175
-0.26736
-0.281987
-0.016058
-0.00207873
-0.00113029
-0.262572
-0.0517631
-0.257259
-0.250923
-0.256318
4.92901e-05
-0.172855
0.000574673
-0.00231138
-0.255174
-0.028211
-0.00189133
-0.240046
-0.250545
-0.047204
0.0013936
-0.265015
-0.258385
0.000483591
-0.247724
-0.272492
-0.00982502
0.00158114
-0.248011
-0.267907
0.00126363
-0.000259993
-0.00614637
0.000853264
-0.237518
0.000564415
1.76767e-05
-0.133738
-0.262644
-0.000296483
-0.24838
0.00244851
-0.256253
-0.23589
-0.0801789
-0.255551
-0.124818
-0.248493
-0.0331695
-5.35383e-05
0.00211087
-0.251405
-0.241574
0.00150647
0.000677704
-0.245584
-5.0699e-05
-0.23707
-0.251267
-0.262477
-0.251336
0.000291003
-0.000442336
-0.232562
-5.71289e-05
-0.26129
-0.0106364
-0.00750562
0.00138092
-0.251874
-0.262718
-0.233965
-0.250407
0.00035756
-0.254593
-0.242015
0.000892343
-0.0114428
-0.000398386
-0.250813
0.00213713
-0.278057
-0.193212
-0.257288
0.00047377
-0.24677
-0.0107037
0.000478266
-0.263434
-0.258743
1.04918e-05
-0.252225
-0.25152
-0.252324
-0.240293
-0.264673
-0.251517
-0.252231
0.000349482
-0.263654
-0.000388223
0.000273691
-0.260544
-0.262576
-0.244717
-0.263329
-0.249357
-0.000308019
-0.248284
-0.26701
-0.243008
-0.0008846
-0.271275
-0.241273
-0.220199
-0.000180857
0.00357898
-0.254278
-0.264691
-0.263426
-0.0359358
-0.252409
0.000111449
-0.270187
-0.253023
-0.262258
0.00102442
-0.25051
0.000284295
-0.252302
-0.196432
-0.263255
0.00120277
-0.248663
-0.0123507
-0.247166
3.8813e-05
-0.259974
-0.249219
-0.250827
-0.000122405
0.000970896
-0.252451
-0.25398
-0.26235
-0.0156423
0.00077146
0.000484884
-0.28216
0.000318535
-0.251838
-0.252848
-0.246299
-0.247504
-0.263171
-0.268827
-0.249124
-0.236647
0.00230213
0.000830313
-0.0011947
-0.250745
-0.253626
-0.259589
0.00255534
-0.0932713
-0.00867165
-0.264772
-2.63034e-05
-0.260423
-0.000903384
-0.262099
0.000370105
0.00128842
-0.250676
-0.27162
0.000112988
-0.000503396
-0.249511
-0.252644
-0.24989
0.00117632
-0.256917
-0.247954
0.000695131
-0.17985
-0.000456758
7.57699e-05
0.000600832
0.000758611
-0.251858
-0.00161569
-0.25215
-0.230741
0.00184754
-0.267507
-0.270746
-0.240712
-0.258282
-0.00669206
0.000136346
-0.00425305
0.000277666
-0.253059
-0.237622
-0.250362
-0.255362
-0.223253
-0.246257
-0.000183256
-0.268853
-0.267876
-0.262591
-0.250894
0.00109067
-0.234441
-0.262798
-0.12154
-0.253726
-0.231435
-0.00854555
0.000687681
-0.122057
-0.264144
0.000648027
0.00033144
-0.252967
-0.261818
-0.158169
-0.272605
-0.245295
-0.260619
-0.260353
-0.000503305
0.000149265
-0.262289
0.000438023
0.000479766
0.00033837
0.000868786
-0.000121208
-0.264437
-0.260516
-0.249177
-0.268421
-0.269708
-0.26264
-0.241918
-0.263959
0.00101755
-0.219831
0.0012639
-0.255083
-0.254556
0.00161532
-0.275648
0.000798126
-0.000707103
-0.260864
-0.220822
-0.0577908
-0.250638
-0.00257391
-0.194024
-0.252522
-0.270589
-0.209286
0.00148085
-0.000134568
0.000283844
-0.238604
-3.61733e-05
-0.255401
0.00173048
-0.00044911
-0.240616
-0.262403
-0.265926
-0.123694
-0.000902352
-0.246381
-0.000552013
-0.00439138
-0.195407
-0.222395
-0.246032
-0.0163405
-0.00155713
-0.244274
-8.60485e-05
0.000353172
-0.249024
-0.261775
-0.000360185
-0.262443
-0.251793
-0.211459
-0.258851
-0.176954
-0.000781535
-0.255249
-0.000161715
0.00048104
-0.233503
-0.260627
-0.261421
-0.186717
-0.256699
-0.255276
-0.00881327
-0.000646435
1.39978e-05
-0.261626
-0.246173
-0.262432
-0.254652
-0.243695
0.00131393
0.000355262
-0.230252
-0.25527
-0.254538
0.00674206
-0.247241
-0.000123213
0.00043373
-0.264848
-0.00090901
-0.248194
-0.25333
-0.264705
-0.177409
-0.25952
-0.261105
-0.269424
-0.0937516
-0.189831
9.87472e-05
-0.00066352
-0.00104556
-0.263568
-0.1486
-0.254111
-0.259034
0.00325466
-0.178725
-0.179293
-0.0118667
-0.177706
-0.0183856
0.0036793
-0.000207172
0.00100202
-0.00156879
0.000365503
-0.260813
-0.00109195
-0.255215
-0.20647
0.00148123
-0.261233
-3.41036e-05
0.00222714
-0.251182
-0.252894
-0.205717
-0.000368148
0.00288265
-0.271615
-0.268762
-0.000960191
-0.264704
-4.04407e-05
-0.000449699
-0.244187
-0.000771181
0.000909993
-0.0511619
-0.125291
-0.262785
-0.249663
-0.251264
-0.147817
-4.27982e-05
0.000308881
-0.0124066
-0.249621
-0.263949
0.00198807
0.000869323
0.000864308
-0.249599
-0.00145022
-0.199794
-0.250568
-0.153416
-0.00773663
-0.255555
-0.000766805
-0.000741906
0.00340007
0.000560595
0.000347764
-0.25289
-0.000264172
-0.121631
-0.247424
-0.257525
-0.0468222
-0.249113
-0.13507
-0.241214
-0.00771856
-0.193529
-0.123785
-0.202325
-0.123168
-0.263687
-0.12255
-0.0671308
-0.103503
0.000389407
-0.000793012
-0.12596
-0.259466
-0.158766
-0.00313115
-0.150136
-0.00123861
-0.00413012
0.000794956
-0.00138608
-0.054624
0.000601075
0.000810701
-0.212164
-0.000316279
0.000351054
-0.25482
-0.113944
-0.0599019
-0.000454929
-0.00810493
-0.18432
-0.0025472
0.00163792
-0.000577308
-0.116052
-0.0374014
-0.144906
-9.25216e-06
-0.0421627
-0.255328
0.000453747
0.000574738
-0.0733944
-0.256116
-0.264117
-0.266919
-0.262037
-0.0437328
-0.262219
-0.0151237
-0.00394124
-0.00123449
-0.000536673
-0.146704
-0.000577405
-0.00138786
-0.00117107
-0.115511
-0.237518
-0.0287551
-0.0443684
-0.00309948
-0.0115879
-0.00741233
-0.00373318
-0.0448064
-0.00141672
-0.0620176
-0.0129322
-0.000330181
-0.0191588
0.000851055
0.00303418
0.000320836
0.000265807
-0.0437272
0.000394646
0.00146578
-0.037195
-0.0379107
0.00183669
0.000478455
-0.00508667
-0.00925616
-0.0144293
-0.0224021
-0.0381695
-0.00190722
-0.054837
-0.00130543
-0.0187522
0.00032413
-0.00969989
0.000447211
0.000574647
-6.03237e-05
-7.01101e-05
0.00112114
0.000647357
-0.00124054
5.29346e-05
-0.235303
0.00184889
0.000618562
0.000257329
0.000851211
0.000238168
-0.00716256
0.00160737
-0.00934213
-0.0156202
-0.000738825
0.00200015
-0.000324891
0.000521779
-0.0265244
-0.0113432
-0.0812863
0.00210598
-0.00723119
0.000825782
0.000689122
0.000860234
0.000227858
-0.0316761
0.00194392
-0.107421
0.00161541
-0.000202784
-0.000660052
-0.000888053
0.00123745
5.9477e-05
-0.260962
0.0011814
-0.00114187
-0.0676005
0.000919309
0.000888517
0.00102509
-0.235843
-0.00356229
-0.00020982
-0.0409193
0.0014579
-0.261181
-0.0214008
-0.0146122
-0.0286326
-0.0184874
-0.0523228
-0.00432709
-0.00201414
-0.00525633
-0.0142662
-5.65474e-05
-0.00792753
0.00121672
-0.161512
-0.000453823
0.000656582
-0.0384947
-0.0235271
-0.0306776
-0.252545
-0.00862648
-0.00315905
-0.104376
-0.0133946
0.00155752
0.000739698
-7.81646e-05
-0.245434
0.00239945
-0.00713838
0.00193189
-5.18577e-05
0.00136718
0.00261817
0.00099882
0.00107812
-0.00030109
0.000208496
0.00102511
0.00156345
0.00115983
-0.183836
0.00114976
0.00137444
0.00193969
0.00280352
0.000547789
-0.0600861
-0.00289294
-0.0146392
-0.00141171
0.00337813
0.00168605
0.000488671
0.00430013
-0.128182
-0.0277586
-0.0258658
0.000754137
0.000496324
-0.00337299
-0.265195
-0.00859028
-0.00554184
-0.0155067
-0.00050582
-0.00114156
-0.0260456
-0.00179807
-0.00198801
-0.000321462
-0.00386273
-0.00117931
-0.000324403
-0.000841222
-0.00111817
-0.000224743
-0.0015405
-0.00479384
-0.000941121
-0.00159701
-0.0410826
0.00130929
-0.00151772
-0.25641
-0.0440968
0.00041433
-3.12192e-05
0.000705131
-0.0244673
-0.0129207
-0.0160246
-0.00782292
0.000337384
-0.00878725
-0.00537964
-0.00889166
-0.031127
-4.32036e-05
0.00193258
-0.000408748
-0.0010918
-0.00669526
0.00034814
-0.247036
0.000527863
-0.0272798
0.00335473
-0.064334
0.000824766
-0.00108698
-0.0216604
-0.00818131
-0.0877723
-0.0586078
-0.0103976
-0.105941
-0.00166197
-0.00334062
0.000135048
-3.05119e-05
-0.000424021
-0.00012985
-0.000620502
0.000950542
-0.000794917
-0.0247572
0.000853911
-0.0239926
-0.0310847
-0.0182593
-0.0117008
-0.0967674
-0.00936642
-0.000428911
-0.0243798
-0.000180354
-0.0651728
-0.00373368
-0.000451707
-0.115272
-0.00383733
-0.000459792
-0.00823125
0.000989362
0.000673296
-0.232612
-0.00106287
0.000861933
-0.00181475
0.000739877
0.00113457
0.000543096
-0.00829367
-0.268744
0.00055288
-0.000129393
-0.00400385
-0.00682106
-0.110458
-0.0133551
0.0016162
-0.0139032
0.000156428
0.0032605
-0.257241
-0.272564
0.00112511
-0.000123586
0.00320662
-0.222989
0.000308584
-0.250786
0.00193807
-0.00011141
-0.0031124
-0.00208203
0.000872053
0.00077844
0.00119188
-0.100494
0.000494424
-0.139618
-0.0107874
-0.0414357
-0.000235902
-0.0102819
-0.00131257
-0.00620813
-0.00205567
-0.000646356
-0.019943
0.000390229
-0.0115746
-0.0171732
-0.0257502
0.00329001
-0.0102273
-0.0140411
6.19787e-05
-0.031063
-0.0175336
-0.00775622
-0.0392693
0.000402614
0.00134485
0.000797469
0.00136341
0.00147101
0.000365277
-0.0097419
0.000328858
0.00099952
-0.00627794
-0.00548503
-0.00601152
-0.000104898
-0.211218
0.00135478
9.12868e-05
0.0014655
0.000974238
-0.00108959
-0.00210729
-0.0122917
-0.0974668
-0.134657
0.000260097
-0.00172342
-0.0206663
-0.0401904
0.00174903
-0.0456437
-0.00132867
-0.00326233
-0.0096036
-0.0407417
-0.00122184
-0.0125709
-0.0270456
-0.0134428
-0.0317842
-0.0235911
-0.0293157
0.0015381
0.00150864
0.0020876
0.00113793
-0.00747285
-0.0133401
0.000198071
-0.281189
0.00068179
-0.256252
0.00023456
0.000525868
-0.269509
0.00102153
-0.00131992
0.000109061
-0.000252806
-0.00196136
0.000835136
0.00153519
0.00121388
-0.0449044
-0.263786
0.000814534
-0.00124425
-0.00482944
-0.179526
-0.204093
-0.127515
-0.0169136
0.000674811
-0.00159594
0.00252942
0.000475323
-0.000439488
0.00279511
-0.134973
-0.0938274
-0.0380323
-0.085069
-0.0566025
-0.103692
-0.124406
-0.038799
0.0014466
-0.0722506
-0.0211882
-0.0293419
-0.0276694
-0.00982839
-0.0163426
0.000606035
-0.0118593
0.00203618
-0.00723822
-0.00123595
0.000160507
0.00110896
0.000140237
0.00121969
0.000451636
4.39701e-05
-0.00271656
-0.165629
-0.0611703
0.000810215
-0.090738
0.000720524
-0.00222537
0.00372834
0.000347208
0.000511293
0.00290317
-9.96218e-05
0.00178346
-0.00317605
-0.000532614
-0.118708
-0.00154888
0.00123855
-0.0821514
-0.000623138
-0.00073354
-0.00376957
-0.0492841
-0.00146746
-0.259063
-0.254645
0.000500764
-0.0089122
-0.0120557
-0.0219848
0.000228531
0.00152689
-0.0130529
-0.00526201
-0.00907394
-0.00545544
-0.00223372
0.000779914
-0.275549
0.000603065
-0.0347447
0.0010289
0.000951143
-0.0536779
-0.000388423
-2.75439e-05
-0.26357
0.00138583
-9.96508e-06
-0.000119505
0.00150141
0.00207765
0.000937034
0.00125079
0.00121757
-0.0711571
0.00202942
0.00182967
-0.191731
0.000558868
0.0017651
0.00168703
-0.216092
0.00026159
0.000338464
-0.085213
0.000296482
-0.00156585
0.00121303
-0.000364971
-0.00025898
-0.261129
-0.00109299
0.0018754
-0.00921336
-0.0211289
-0.0924093
-0.0144419
-0.00571258
-0.000551447
0.00125445
0.00107925
-0.00169422
0.00138739
-0.0599131
0.00116414
0.00089589
-0.000426356
-0.000393352
0.000774261
-0.246895
-0.259613
0.00129025
-0.000414764
0.000211307
-0.170508
0.000543231
-0.000720932
-0.0168983
0.00065445
-0.251257
0.000677899
0.00214299
0.000577581
-0.00156499
-0.000262719
-0.00281461
-0.0120307
7.04518e-05
-0.0273736
-0.00204057
0.000981049
-0.0037497
0.00237488
-0.00208192
-0.0108756
-0.00473546
-0.0116932
0.000684086
0.00139625
-0.000333395
-0.00255129
-0.00236758
0.00172769
-0.00416537
-0.0033525
-0.0400722
-0.000476117
-0.000696133
-0.0630681
0.000108766
-0.002582
-0.0947048
1.81013e-05
-0.00200344
-0.135162
-0.00131076
-0.000523851
-0.11209
-0.0574912
-0.176413
-0.000993718
0.00397827
-0.0644657
-0.000349163
0.000560297
-0.112336
-0.0299875
-0.0516396
0.000693267
-0.0776202
0.00057539
-0.00225084
-0.0487548
-0.0165901
-0.000340184
-0.014218
-0.0748335
-0.279374
-0.000148506
0.000330756
0.000303318
0.000732405
0.00161687
0.00187902
0.00171512
-0.247508
0.000415874
-0.00142318
-0.0524198
-0.000114236
-0.0258803
-8.18079e-06
-0.158782
-0.000279683
-0.0012748
-0.180844
-0.000760835
0.00258025
0.000233932
-0.00197246
-0.262754
0.000934126
-0.104244
-0.0033269
-0.0259464
-0.259874
-0.252912
-0.0564214
0.00141209
0.000511232
-0.186497
0.00185392
0.00328904
0.000202351
-0.128491
0.000961694
0.000636504
-0.00040559
-0.110584
-0.00148422
0.00101338
-0.000811207
-0.00176238
-0.267161
-0.00367119
-0.00477872
-0.0966971
0.000205346
-0.261722
0.000218466
-0.256862
0.00119387
-0.112736
-0.00093655
0.00151342
0.000689325
-0.000260474
-0.00411505
-0.00438321
-0.0102209
-0.0255526
0.000379552
0.000949292
0.00099763
-0.024682
-0.0223445
-0.000236373
0.000488062
0.000670231
-0.000917454
-0.00519896
-0.00534292
0.00281545
-0.00832469
-0.00670285
-0.0896668
-0.00116196
-0.172392
-0.00155346
-0.00396703
0.00153544
0.00214233
-0.254938
-0.0662576
-0.0342235
-0.00023609
-0.0482806
5.11265e-05
0.0010524
-0.0708595
0.000642011
-0.227058
-0.26225
-0.0981867
-0.00487991
-0.000108692
-0.263839
-0.00308027
-0.00807155
-0.00184878
-0.0582352
-0.19903
-0.00171423
0.000951135
-0.250941
-0.250891
3.94447e-05
-0.0854319
-0.10193
0.000711598
-0.260673
0.000913703
-0.115725
0.000455752
-0.0711641
-0.000337995
-0.0573012
-0.204104
0.000872882
-0.25546
-0.104653
0.00046777
-0.262618
0.00119438
-0.0527412
-0.0971804
-0.254978
-0.00027492
-0.0306302
-0.178525
0.00235007
-0.0897047
0.000800762
0.00212121
0.00313715
-0.00530509
-0.0766405
-0.000345691
0.000467586
-0.139026
-0.00357702
0.00107182
0.00177359
8.57117e-05
0.000824929
0.00155471
-0.0775329
-0.21746
-0.0809961
0.000952884
-0.00479322
0.00059261
-0.000471246
-0.00411695
0.000165255
-0.258552
-0.00085784
-0.0866915
-0.258242
-0.000354481
0.000508629
-0.010254
-0.0298024
-0.0945717
-0.181094
-0.0103009
0.00131152
-0.00435596
-0.00144933
0.00104728
0.000834402
-1.95323e-05
0.000251712
0.00074496
-0.0924749
-0.261266
0.000221339
-8.92384e-05
0.00200106
-0.213825
0.000728895
-0.00532539
-0.00149763
0.00114645
0.00186799
-0.00321026
-0.0250435
-0.0257865
-0.00199671
0.000238904
-0.00531255
-0.243441
-0.25427
-0.000272407
0.00740789
-0.0242788
-0.000614743
0.000213164
0.00011132
0.000296143
-0.00488605
-0.00319764
-0.261678
-0.000488918
-0.245546
0.000644694
0.00139243
-0.193584
-0.00416904
-0.0880368
-0.0029317
-0.010086
-0.0156771
-0.00661737
-0.00287294
-0.0714869
0.00251218
0.000964943
0.00134731
-0.00186684
-0.253062
-0.00467208
-0.00103469
-0.00463952
-0.0565149
-0.253463
-0.0111112
0.00178069
-0.215633
0.000850121
-0.000161932
-0.029627
-0.203429
-0.260241
-0.263565
-0.00243344
0.000371703
-0.0227174
-0.000314824
-0.214953
-0.0645179
0.00154154
-0.00868839
-0.145214
0.000153315
-0.216373
-0.00922994
-0.0401217
-0.00310991
-0.131928
-0.0811976
0.000899797
0.00101859
-0.261114
0.00278966
-0.000426336
-0.0949266
0.00156314
-0.00873583
-0.0941993
-0.0448088
-0.256487
0.000174365
-1.43904e-05
0.00188625
-0.259831
0.000951062
-0.00183584
-0.00212943
-0.258466
0.000935227
-0.00113593
-0.00125703
-0.259921
-0.0479212
0.000406349
-0.00512977
0.000257014
0.000877693
0.00254621
-0.236388
-0.0192246
8.42386e-05
0.00121081
-0.155877
-0.04182
-0.000892322
-0.0149643
0.00031646
0.000906881
-0.258345
0.00237644
-0.0293043
0.00042992
-0.0168603
-0.256767
-0.260484
-0.257154
-0.233912
-0.209139
0.000214747
-0.0891598
0.00140021
-0.000217559
0.00129954
-0.206112
0.00107554
-0.245046
-0.265638
0.00109353
0.0006206
-0.244018
-0.263421
-0.0784403
-0.234778
-0.10195
-0.20514
0.000376181
-0.0978357
-0.268145
0.00134399
-0.245763
0.000675837
0.000476114
-0.174954
-0.265438
-0.260535
-0.189269
-0.155959
-0.000469291
-0.270015
0.000564489
-0.108901
0.000632239
-0.216495
-0.0728301
-0.00189686
-0.165239
0.000487848
-0.000637197
-0.000367663
-0.268492
-0.246004
-0.25659
-0.258902
0.000443935
-0.151393
0.000901736
0.00301878
-0.000340167
-0.044166
-0.260211
0.000909685
-0.0020205
-0.186701
-0.243938
-0.00975605
0.000476168
-0.252888
0.00127185
0.000994732
0.00023387
-0.000248371
0.00102776
-2.55129e-05
0.00146301
-0.244276
0.000958125
0.00213949
0.000101692
-0.0357398
-0.253626
-0.0963778
0.000144787
-0.255598
-0.0676657
-0.0506876
0.000262716
-0.264736
-0.00523596
-0.269486
-0.256997
-0.257868
0.00303131
0.000956713
-0.193034
-0.161856
-0.000445077
0.000485627
-0.151224
-0.173018
-0.214413
-0.01289
-0.266292
0.00361577
-0.254242
-0.00195994
-0.255181
0.000897995
0.00130407
-0.00302213
0.00127942
-0.261229
-0.00147161
-0.252576
-0.256269
-0.00683383
-0.0168381
-0.104865
-0.266417
-0.15917
0.000470397
-0.071518
-0.0675287
-0.19209
-0.000561461
-0.252861
-0.135938
-0.252067
-0.258471
5.80509e-05
0.000541946
-0.0495286
-0.251983
-0.00643057
-0.173911
0.00186133
0.00179352
0.00109225
-0.000908956
-0.26296
0.000417407
0.000442298
-0.214441
-0.0322767
-0.206761
-0.180069
-0.264487
-0.253267
-0.173664
-0.240827
-0.248179
-0.077824
-0.0107024
-0.264702
-0.000403406
-0.25091
0.000937047
-0.261979
-0.264532
0.00128024
-0.000787407
-0.000931542
0.00218517
0.000359796
-0.000166308
-0.00353661
-0.000218322
-0.165139
-0.136693
0.000584597
-0.0739728
-0.0480147
-0.246333
-0.26386
-0.253097
-0.255697
-0.257032
-0.193776
-0.267467
-0.0223207
0.000106379
-0.264611
-6.59256e-05
-0.244673
-0.0771536
-0.00546101
-0.260785
-0.0576665
-0.000815558
-0.254168
0.000534921
-0.223023
-0.120459
-0.0261254
-0.242638
0.00298683
-0.14997
-0.00252186
0.000941762
-0.209221
-0.278851
-0.00177374
-0.0030264
-0.00269928
-0.00724461
0.00134228
-0.250101
-0.00381113
-0.00183198
-0.191419
0.000235068
-0.25983
-0.0246187
0.00217846
-0.0406735
-0.256111
-0.262862
-0.259349
-0.260556
-0.236123
0.000484653
-0.241169
3.123e-05
0.000285579
-0.250898
0.000306788
-0.256423
-0.205554
-0.217372
-0.25787
-0.00715627
-0.242744
0.00133882
0.0012561
0.000183006
-0.00430631
-0.253379
0.00122242
0.00089802
-0.0043902
-0.248296
0.000174745
-0.240991
-0.255973
-0.00162392
-0.265177
-0.258244
-0.203714
0.000559428
-0.25698
-0.00136695
-0.000107923
0.00158962
-0.259735
0.0013323
0.00185296
0.000877022
-0.102324
-0.000185878
-0.252291
0.000985523
-0.00078742
-0.0165665
0.000291512
-0.214519
-0.000529329
-0.000739519
-0.161147
0.000741715
-1.92116e-05
0.00045639
-0.260564
-0.0284455
0.00106682
-0.268502
-0.197981
-0.202077
0.000977124
-0.000722141
-0.249376
-0.199044
-0.241924
-0.179763
-0.246947
-0.243511
0.00324561
-0.251361
-0.224309
-0.000609269
-0.257092
0.00012563
-0.262529
-0.262011
-0.260276
-0.0360073
-0.225216
-0.279778
-0.000832757
0.000389342
0.000504869
-0.247948
-0.251605
-0.245068
-0.270763
-0.221271
-0.00707285
0.00107935
-0.216733
-0.261811
-0.252426
-0.0089246
-0.145243
0.000459411
-0.254422
-0.266828
-0.25788
-0.260286
-0.260132
-0.2537
0.000305613
-0.245666
-0.254731
-0.273918
-0.234045
-0.257368
-0.0149992
-0.253242
-0.261654
-0.00102275
-0.244643
-0.238667
0.00249343
-0.251879
-0.00845477
-0.274873
-0.248033
-0.194606
-0.204484
-0.251349
-0.0156814
-0.20179
-0.2533
0.000650605
-0.222724
-0.000374879
-0.000325378
-0.07622
0.00224962
-0.000547429
-0.0678016
0.000606556
0.000785755
0.000240384
-0.000577091
-0.21122
0.00138197
-0.0937007
-0.273201
-0.259666
7.17323e-05
-0.0172923
-0.000747793
-0.247694
-0.000396491
-0.25461
-0.233377
-0.0236087
-0.24322
-0.257458
-0.247353
-0.0655742
-0.00202621
-0.232754
-0.233346
-0.26012
0.000494933
0.000353089
-2.17753e-05
-0.0153552
-0.21155
-0.000455699
-0.000130375
-0.000197301
-0.260896
0.00033955
-0.0231456
-0.00733674
-0.00291146
-0.261302
-0.00746294
-0.00215679
0.000341514
-0.218446
-0.000299437
-0.249706
0.000466779
-0.0118738
0.00105241
-0.0339009
-0.260923
-0.262967
-0.253614
-0.272078
-0.0196224
-0.0234132
-0.243696
-0.000165924
-0.261588
-0.00549385
-0.000567112
-0.000151045
-0.148454
-0.23868
0.000468301
-0.161409
-0.274154
-0.254621
-0.25794
-0.226128
-0.00237603
-0.260546
-0.263787
0.000632664
-0.0530154
-0.2342
-0.160435
0.000123176
-0.254405
-7.01745e-05
-0.226393
-0.158911
-0.246085
0.000311929
-0.00398417
-0.245017
-0.00110786
-0.0451331
0.00362747
-0.220358
0.000558667
-0.25439
-0.000312793
-0.244189
0.00233959
0.00155269
0.000493972
-0.00943911
-0.233627
-0.250015
-0.00180548
0.000137288
-0.000280475
-0.000151864
-0.0244642
-0.000855365
-0.240556
-0.266523
-0.243429
0.000382014
-0.00111023
-0.255838
-0.248663
-0.240549
-0.264923
-0.235244
0.000363931
-0.229837
-0.234614
-7.47241e-05
-0.238881
-0.0352222
-0.0615848
0.00126722
-0.225854
-0.000452652
-0.253335
0.000569525
-0.260456
-0.251145
-0.00151498
-0.243088
0.000857654
-0.261831
-0.215339
-0.00432996
-0.000324102
-0.2445
-0.260222
-0.00260255
-0.274647
-0.198272
-0.00160027
-0.263368
0.000678496
-0.262159
0.00142648
-0.00219062
-0.00447219
-0.232614
0.000143798
-0.25573
-0.0311782
0.000670663
-0.00076772
0.000942862
0.000428455
-0.000527461
-0.261498
-0.143673
-0.0139825
-0.1302
-0.0133881
0.00045789
0.000506908
0.00234025
-0.232979
-0.132495
0.000508835
-0.00880222
-0.0221374
0.000421474
-0.258082
-0.0677387
0.000894258
-0.00317835
-0.253957
0.000224349
0.000295608
-0.257964
-0.228285
-0.00103929
0.000960079
-0.258964
-0.240261
-0.264388
-0.000145244
-0.00184578
-0.261977
-0.00131317
-0.000264057
-0.00125682
-0.204841
-0.190481
-0.253772
0.000895951
-0.235647
-0.244143
-0.2523
-0.242752
0.00105126
-0.0801345
0.00309442
-0.26122
0.000744357
-0.000992762
-0.0320662
-0.0669455
-0.00402672
-0.0209117
0.000526344
0.000315558
-0.00199814
-0.255463
-0.0041574
-0.241042
-0.272008
-0.179089
-0.000446232
-0.231804
-0.13954
-0.259759
-0.253949
-0.00837728
-0.0808151
0.00246602
-0.0700782
-0.219568
0.00116115
-0.258794
0.000506019
-0.00207196
0.00426569
0.000293746
-0.253493
-0.000525511
0.000799133
-0.250673
-0.251967
-0.00183603
-0.252899
-0.245304
-0.247256
-0.24971
-0.276174
-0.260096
0.000583791
-0.222168
-0.073869
0.000666016
-0.00664561
0.00131049
0.00103607
-3.47582e-05
-0.195959
-0.261018
-0.236111
0.00139358
-0.261259
0.00140767
0.00213451
0.000594196
-0.234299
-0.276689
-0.00798612
0.000466499
-0.258213
-0.259695
-0.271533
-0.241272
-0.148057
-0.206041
-0.00168234
0.00200266
0.00225974
-0.00138741
-0.253272
-0.000821659
-0.109389
-0.201999
-0.276483
-0.238042
0.000310951
0.000833197
-0.231399
-0.254133
-0.257677
-0.0258805
-0.0697819
-0.263274
-0.255988
-0.23962
-0.26243
-0.234547
-0.263163
-2.00034e-05
-0.0042692
-0.0040522
-0.26141
0.000104887
-0.00113657
-1.3768e-05
-0.19085
-0.0603539
-0.245799
-0.25849
-0.250997
-0.000651034
-0.209383
-0.228145
-0.273302
-0.00131715
-0.25664
-0.210814
-0.269467
-0.000264887
-0.212799
-0.24472
-0.274189
0.000691868
-0.0723589
-0.00549052
9.92421e-05
0.00121396
-0.266063
-0.0206536
-0.252784
-0.247701
-0.26971
0.000435359
-0.254681
0.000238932
-0.255169
-0.0115312
-0.183042
-0.000290731
0.000212083
-0.23556
-0.261909
0.00221736
-0.232514
-0.136164
-0.0185775
-0.00198543
0.00175272
-0.253783
-0.278067
-0.000485436
0.000517066
-0.000652846
-0.147463
0.000401975
-7.94486e-05
-0.0293507
-0.00946336
-0.247948
-0.00166966
-0.267955
9.7334e-05
-0.270721
-0.255018
-0.12524
-0.236631
-0.263822
0.000202991
-8.26532e-06
0.001535
0.000690483
-0.278803
0.00103046
0.00188541
-0.23283
-0.262282
-0.251823
-0.165292
-0.273713
-0.00225375
0.00135608
0.00135207
-0.260423
-0.260157
-0.000360839
-0.254866
9.78505e-05
-0.246304
-0.244385
-0.268804
0.000803545
-0.235277
-0.00173067
0.000269131
-0.269288
-0.262924
-0.0011065
4.88599e-05
-0.257576
-0.249
0.00137851
-0.0015988
-0.240984
-0.259161
0.000612543
0.000589239
-0.262263
0.000849198
-0.220593
0.000499991
-0.260329
-0.24284
0.000351316
-0.233398
-0.255918
-0.0742006
-0.2397
-0.238661
-0.183681
-0.234402
-0.0349039
-0.00139194
-0.00365989
4.23671e-05
0.000210009
-0.254736
-0.00400877
-0.258908
-0.240243
-0.000105608
0.000935821
0.000134551
0.000694246
0.00100579
-0.00173242
-0.00257374
-0.00136673
0.00119502
-0.00309634
0.0023405
-0.00284744
0.00374692
-0.000786345
-0.0390354
-0.078431
-0.249382
-0.262374
-0.256179
-0.256468
-0.00204561
-0.266869
-2.00109e-05
-0.270052
-0.00207239
-0.0213756
-0.227108
-0.251586
-0.00139883
0.000748765
0.00223232
-0.276929
-0.0746482
-0.255043
0.000533815
0.000117281
0.0023183
-0.190459
-0.255254
-0.0493187
-0.00268974
0.000844718
-0.00164754
-0.00213213
-0.130294
-0.051554
-0.00270874
0.000566952
0.000563862
-0.00111385
-0.179661
-0.251295
-0.265634
-0.0728275
-0.265298
-0.179986
-0.261583
-0.0957953
-0.24647
-0.249529
-0.265989
-0.00135822
-0.256589
-0.207476
-0.256984
-0.267783
-0.240486
-0.00194905
-0.258111
-0.00175331
-0.266547
-0.240945
-0.260141
-0.00202997
-0.0154303
-0.231332
-0.255445
5.85862e-05
-0.263181
-0.251908
0.00131243
0.00218397
0.00101759
-0.000730591
-0.00367248
0.000408093
0.000671237
-0.25103
0.000346111
-0.223586
-0.23443
-0.259937
0.000149555
-0.246923
-0.242028
-0.275539
-0.00965499
-0.252039
0.000343339
-0.256526
-0.184433
-0.241936
-0.000715274
-0.00192573
-0.00228222
-0.264935
-0.255856
-0.0400395
0.00126446
-0.26141
-0.176959
0.000127753
-0.00152632
-0.00981842
-0.254428
-0.000695614
-0.000477505
-0.25616
-0.252832
0.00153881
-0.253252
-0.197454
-0.254211
-0.01873
-0.27361
-0.255686
-0.00155699
-0.0492509
-0.260203
-0.250918
-0.00254283
-0.271362
-0.235278
-0.256054
-0.257096
-0.256614
-0.230856
-0.000237784
-0.259303
-0.000290755
-0.000711985
0.00189541
-0.0592235
-5.86094e-05
-0.270224
-0.240276
-0.260912
-0.155924
-0.000312043
-0.241091
0.000409694
-0.0237202
-0.273408
-0.243749
0.000234901
-0.000160507
-0.234042
-0.00130814
-0.250989
0.000816324
-0.256878
0.000882731
-0.259037
-0.00239742
-0.254361
-0.0204026
-0.0478807
-0.247956
-0.273439
-0.244863
-1.94478e-05
-0.271015
-0.136584
-0.255764
-0.227551
-0.037226
-0.0969136
-0.0624328
0.0004383
-0.184829
-0.214411
-0.0182743
-0.227614
-0.251044
-0.00246215
-0.253386
-0.00186002
-0.227743
0.000676829
0.000303875
8.62597e-05
-0.0502911
-0.260295
-0.260812
-0.0165976
-0.103273
-0.000964384
-0.000175338
-0.00246625
-0.000620281
0.00018254
0.000409177
0.000917934
-0.000989194
0.0016886
-0.239033
-0.237615
-0.00310521
-0.00444358
-0.235201
-0.26026
-0.0556905
0.00205626
-0.0018555
-0.262752
-0.0409173
0.00100855
0.000344659
-0.264692
-0.0317798
-0.00143337
-0.00125167
-0.0679834
-0.263536
-0.243215
-0.0547651
-0.270775
-0.263604
0.000749945
-0.229453
-0.258912
0.000504102
-0.24987
-0.00758715
0.0004623
-0.000632502
-0.265997
-0.00182687
-0.242079
-0.209153
4.0513e-05
-0.0333108
-0.270815
-0.000357923
-0.254396
0.000560804
-0.225791
-0.239413
0.000668176
-0.255373
-0.244357
0.000361266
-0.000548588
-0.252963
0.000410111
-0.243419
-0.267336
-0.260171
-0.0103187
-0.00542137
-0.00200776
-0.257615
-0.000311326
0.00254977
-0.00145729
-0.0578817
0.000781262
0.000167213
-0.00620107
8.90729e-05
-0.235689
-0.258903
-0.0299391
-0.000140696
-0.239494
0.00206615
-0.000986948
-0.00688243
-0.235297
0.00103395
0.000132667
-0.255575
0.00244143
0.00149065
-0.000571606
-0.216739
0.000615491
-0.138925
-0.260381
0.00133799
-0.260428
-0.0276644
0.000551504
-0.258152
-0.247655
-0.266473
0.000987708
-0.10098
-0.00333782
-0.269416
-0.249176
-0.000584614
-0.0813135
-6.79354e-05
-0.260261
0.000558269
1.28697e-05
-0.000767257
0.00181465
-0.00155666
-9.39588e-05
-0.244219
-0.00533288
0.000546351
-0.000608452
-0.000223559
-0.259129
-0.241241
-0.281201
-0.0115597
0.000330334
-0.25419
0.00285196
-0.000258772
-0.000198499
0.000302857
0.000926884
-0.0462293
-6.68764e-05
-0.000140705
-0.112481
-0.25963
-0.263695
-0.281152
-0.229675
-0.0015361
-0.24571
-0.262319
-0.071089
-0.242426
-0.275589
-0.243613
-0.160017
-0.00315282
-0.252603
-0.000789321
-0.249618
-0.00058454
-0.160845
0.00187766
-0.00103213
-0.249458
-0.223303
-0.238428
-0.000459549
-0.0350095
-0.0389701
-0.0454204
-1.92964e-05
0.000521587
-0.0202919
-0.258844
-0.0109737
-0.256317
-0.0251328
-0.00175325
-0.256141
-0.00133938
-0.00214007
-0.0365818
-0.000708118
-0.199741
-0.275964
0.000424199
0.00167736