/*--------------------------------*- C++ -*----------------------------------*\
  =========                 |
  \\      /  F ield         | OpenFOAM: The Open Source CFD Toolbox
   \\    /   O peration     | Website:  https://openfoam.org
    \\  /    A nd           | Version:  10
     \\/     M anipulation  |
\*---------------------------------------------------------------------------*/
FoamFile
{
    format      ascii;
    class       surfaceScalarField;
    location    "1050";
    object      phi;
}
// * * * * * * * * * * * * * * * * * * * * * * * * * * * * * * * * * * * * * //

dimensions      [0 3 -1 0 0 0 0];

internalField   nonuniform List<scalar> 
38623
(
0.21689
-0.21382
0.078728
-0.081798
-0.0594508
0.0767728
0.12272
-0.140042
-0.00694091
0.0134618
0.0331362
-0.0396571
0.00431671
-0.00237368
-0.0224588
0.0205158
0.0152186
0.0263906
-0.0332606
-0.00834858
-0.1263
-0.25421
0.238312
0.142198
0.0846849
-0.0709258
0.0821037
-0.0958629
-0.0086326
0.00853278
-0.00641008
0.0065099
0.0198746
0.0203404
-0.244114
-0.0359523
0.0793145
-0.320215
0.276853
0.110039
0.124431
-0.111222
-0.123248
-0.219759
0.194433
-0.00537758
0.0307028
0.461496
-0.0463577
-0.468254
0.0531163
-0.229771
0.208839
-0.010438
0.0313697
0.0376571
0.0464617
-0.0520958
-0.032023
0.0440476
-0.293367
-0.0477588
0.297078
-0.014961
0.386286
-0.000223796
-0.371101
-0.00876871
0.264658
-0.00921545
-0.246673
0.00614956
-0.0272104
0.411751
-0.39069
0.402172
-0.282466
0.239217
-0.358923
0.182698
0.138307
-0.0435746
-0.27743
0.108492
0.0805692
-0.0790228
0.317163
-0.271648
-0.00175602
-0.0437592
-0.221708
0.291837
-0.265808
0.195679
0.0429482
0.25155
-0.0438327
-0.250666
-0.0377741
0.577355
-0.550327
0.0107466
0.030655
-0.17813
-0.055517
0.202992
0.223103
-0.178635
-0.491281
0.446813
-0.00919062
-0.000761789
0.00139454
0.00855787
-0.273407
0.2926
0.382979
-0.0149491
-0.0205945
0.0195409
0.0160027
0.00564333
-0.00153993
0.000773239
-0.00487664
0.0286217
-0.0320179
-0.0331431
0.0365394
0.292707
-0.0245834
-0.276893
-0.0102686
-0.0111314
-0.236782
0.258182
-0.340754
-0.172879
0.14565
0.367983
-0.000608536
0.000143973
-0.00719097
0.00765554
0.00534877
-0.235376
-0.147565
0.166575
0.00339857
-0.0224086
-0.0566784
0.0719393
0.318995
-0.334256
0.0663654
0.413122
-0.429852
-0.0496353
0.27135
0.18435
-0.253817
-0.201882
0.331376
-0.185365
0.332865
-0.478876
-0.415441
0.20335
0.336412
-0.124321
0.600266
0.2419
-0.515195
-0.326971
-0.0301354
0.0737605
-0.429613
0.385988
-0.0137588
0.0267599
-0.00123036
-0.0117708
-0.261004
0.193398
0.155327
-0.0877208
-0.000917936
0.00188268
0.000997663
-0.0019624
0.00752913
-0.000497775
-0.0076774
0.000646044
-0.00496572
-0.00134838
0.00145867
0.00485543
-0.0108857
0.0288066
-0.0230734
0.00515253
-0.00187483
0.000703681
-0.00170692
0.00287807
-0.38177
-0.109232
0.294827
0.196175
-0.00101188
0.000439244
0.00621597
-0.0208623
-0.396194
0.402095
0.0395931
-0.0228756
-0.0545499
0.0378324
-0.0043728
-0.00808217
0.00852302
0.00393195
-0.141049
0.185
0.138747
0.00193222
-0.0072435
0.00575112
-0.000439838
-0.00918027
0.00361046
-0.00319402
0.00876384
-0.34117
-0.109376
0.0351042
-0.337396
0.326201
0.0839692
-0.072774
-0.00572156
-0.00746922
0.00879352
0.00439725
-0.247503
-0.323011
0.348806
-0.501524
0.352606
-0.229955
0.378873
-0.168297
0.144031
-0.0249286
0.0491942
-0.537217
0.423362
0.175442
-0.0615864
0.121907
0.54009
-0.0617298
-0.390283
-0.0650769
0.0644886
0.390871
0.00888503
-0.00309143
-0.00897037
0.00317678
0.0144332
-0.00767575
-0.0136984
-0.0502089
-0.0190084
-0.516236
0.585453
0.0605764
-0.0611625
0.0382432
0.401926
-0.380577
-0.268853
0.0410747
-0.0609145
0.0587067
-0.0388668
0.0218886
-0.181327
0.17541
-0.0159718
0.113703
0.18957
-0.194199
-0.109074
-0.0117568
0.00535028
-0.00522194
0.0116285
0.0374491
-0.02949
0.341676
-0.349635
-0.109751
0.224997
-0.20733
0.0920837
0.044715
-0.0560111
-0.0881908
0.0994869
0.0706554
-0.090513
-0.0106029
0.00846839
-0.000413306
0.00254784
-0.0178244
0.0423457
-0.0249391
0.000417773
-0.235623
0.24639
-0.021898
-0.0579635
0.0917597
-0.0988065
0.0650104
-0.00141556
0.000364303
0.000306753
0.000744501
-0.289917
-0.102599
0.136616
0.255901
0.361938
-0.364727
0.0402381
-0.0068691
-0.000323544
0.00656017
0.00063248
-0.423783
0.071989
0.402639
-0.0508448
0.00395136
-0.00743983
-0.00223308
-0.332906
-0.187287
0.201336
0.318857
-0.00685468
-0.00325034
0.00526089
0.00484413
-0.00739999
0.000112126
-5.85638e-05
0.00734643
0.494635
-0.112916
-0.392249
0.0105298
0.0754777
-0.103628
-0.232854
-0.280184
-0.0295225
0.0674759
0.24223
0.00734885
-0.00134396
0.00921373
0.347954
0.0639303
-0.0958233
-0.316061
-0.0383978
-0.103017
-0.0268822
-0.057968
0.0222836
-0.124352
0.160037
-0.00672565
8.46083e-06
0.00672036
-3.17441e-06
0.00127877
0.00749927
-0.00829326
-0.000484783
4.86296e-05
0.00198105
-0.0126326
0.27148
-0.107561
-0.290218
0.226104
0.417722
-0.144636
0.149601
-0.0433629
0.353794
-0.315774
-0.126977
0.0889571
-0.113512
0.154094
0.0903542
-0.130936
-0.273992
0.0795592
0.199782
0.0567045
-0.0402482
-0.0342808
-0.00521295
0.287585
-0.000763654
-0.281608
-0.139394
-0.330744
0.129384
-0.307033
-0.0536557
0.0584274
0.302261
-0.183727
0.370712
-0.554009
0.367024
0.0539829
-0.283072
-0.0559759
0.285065
-0.00014712
0.000307376
-0.00935088
0.00532022
-0.00773566
-0.00421852
0.00663395
-0.119838
0.0233396
0.210202
-0.00018092
0.00577399
0.000229416
-0.00582249
-0.0420434
-0.382384
0.0402588
0.384169
-0.00547341
0.0038944
0.0068663
-0.00528729
-0.0925658
0.085073
-0.0955239
-0.0794543
-0.672957
0.552687
0.199725
-0.00893314
0.00242934
-0.00267648
0.00794037
-0.000138203
-0.00027304
-0.00118517
-0.0100475
-0.00462929
0.015862
0.0171015
-0.010638
-0.0158045
0.00934102
0.00810419
0.00899797
-0.0067874
-0.0103148
0.0288166
0.162889
-0.148151
-0.0435545
0.132208
-0.00056961
-0.0186516
-0.112987
-0.211899
0.201553
0.056716
-0.0463704
0.420666
0.0875173
-0.196911
-0.311272
-0.0982047
0.215354
-0.175118
8.51367e-05
0.00636777
-0.00643682
-1.60879e-05
0.042125
0.174197
0.0513839
-0.120331
-0.169323
0.23827
-0.109051
0.151057
0.00862584
-0.00865876
-0.000114194
0.166408
-0.182729
-0.255999
0.272319
-0.141684
-0.23988
0.21892
0.162645
0.081545
0.301108
-0.112936
-0.269717
0.363218
0.0135899
-0.038335
-0.338473
0.473314
-0.193634
0.0741141
0.288137
-0.0541558
-0.283204
0.0492229
-0.06743
0.0390027
-0.0192222
0.0476495
-0.00353723
0.00270632
0.00672954
-0.00589862
0.023855
-0.371396
0.388454
-0.0409136
0.0465927
-0.00318184
-0.0391052
-0.00430571
0.269999
-0.119857
-0.462408
0.312266
0.0695137
-0.0886172
-0.0568085
0.075912
-0.0504329
0.432848
0.146804
-0.529219
0.0347385
-0.0327333
0.0215759
-0.0235811
-0.0641825
0.0489638
0.292301
-0.277082
0.0153935
0.0803063
-0.0734162
-0.274226
0.156818
0.234343
-0.116934
-0.00991734
0.0107724
-0.00622261
0.00536759
0.00229151
0.010282
-0.00844439
-0.00412908
0.0554196
0.380224
-0.382019
-0.0536244
0.0806517
0.0292743
-0.0446996
-0.0652265
0.00251936
-0.00938136
-0.00134311
0.0082051
-0.162979
0.164898
0.462258
-3.9087e-05
-0.4115
-0.0507183
0.000238335
0.366277
-0.34266
-0.189083
0.188323
-0.0671555
0.0679158
-0.00622725
-0.00168507
0.00704657
0.000865751
-0.229524
0.403479
0.205964
-0.379919
0.280138
0.128413
-0.242142
-0.177352
0.0312735
0.184016
-0.0379373
0.0193374
0.00488776
-0.0199084
-0.234577
-0.31399
0.225556
0.00207654
-0.00713082
-0.00041912
0.285848
-0.547308
0.337301
-0.0758406
-0.0134273
0.000232541
0.0104034
0.00279132
0.334903
0.0523326
-0.335363
-0.0518731
0.052018
0.244261
-0.0546165
-0.241662
-0.265041
-0.0291479
0.276229
0.0179601
-0.201796
0.170259
-0.127966
0.159503
0.00914215
0.00591642
-0.0121526
-0.002906
0.0213493
-0.00476289
-0.00744428
0.0754818
0.0354643
-0.0698715
-0.0968494
-0.131662
0.0771043
0.151407
-0.0423422
0.0910034
-0.399394
0.350733
0.420647
-0.408431
-0.033078
-0.194487
0.0820634
-0.00462098
0.00506858
0.00802079
-0.00741503
-0.000783043
0.00562858
0.00256949
0.286446
-0.197824
-0.00268845
0.00452998
0.00690812
-0.00874965
-0.392183
0.0721821
0.0413953
0.278606
-0.301581
0.36127
-0.116367
-0.295084
0.142567
-0.180888
0.333406
-0.0520944
-0.32413
0.0597863
0.316438
0.152893
-0.203734
-0.294709
0.345549
0.000367943
4.24145e-06
-0.00749036
0.00711818
-0.000532972
0.00712344
-0.00927892
0.00210286
-0.00624814
-0.000528221
0.0046735
0.161954
-0.131849
-0.143617
0.319614
-0.0245319
-0.294844
-0.261751
-0.326031
0.279149
0.308634
-0.00447321
0.00675435
-0.00581838
0.0134267
-0.123679
-0.0331994
0.143451
0.00953111
-0.00708761
-0.0110761
0.00276777
-0.00955627
0.00930786
-0.029954
0.0161922
0.0228215
-0.00905976
-0.0647147
-0.196764
0.0803073
0.181172
0.193878
-0.00360968
-0.0599995
-0.130269
-0.0944858
0.233138
0.0656378
-0.20429
0.307443
-0.0378637
-0.299069
-0.00803394
-0.000740916
0.00816632
0.356002
-0.345159
-0.0531856
-0.443573
0.247208
-0.0331582
-0.00317068
-0.00118994
0.00248578
-0.00449493
0.00113149
0.00925763
-0.00589418
0.111815
-0.00955116
-0.0888376
0.0392461
-0.298871
-0.000186816
0.00725019
-0.00123137
-0.005832
-0.0119196
-0.00957938
0.00754333
0.0139556
0.0810071
-0.0529515
-0.513926
0.48587
-0.0395486
0.0392105
-0.00698215
0.000329988
6.8151e-05
0.00658401
0.314589
-0.0755999
-0.303171
-0.0989048
0.308339
0.0182553
0.0299509
-0.0138205
-0.0343857
-0.000156002
0.00702671
-0.00736848
-0.310415
0.0711253
-0.243726
0.0635227
-0.00447924
0.184683
0.402789
0.0484601
-0.401677
-0.0495714
-0.20005
0.238858
-0.28114
0.242332
-0.00241584
8.23505e-05
-0.00141835
-0.062231
-0.210343
-0.579766
0.602101
-0.0601094
0.0498891
-0.0398589
0.0163604
0.0108501
0.000374801
-0.00676319
-0.00446169
-0.248269
-0.366884
0.0281707
-0.00852996
0.00257148
-0.0222122
0.0615437
-0.470199
0.524791
-0.116135
-0.0117078
-0.0067322
0.0113385
0.00710157
-0.00141292
0.00236703
0.000928566
-0.308114
0.0442673
-0.0522353
0.316081
0.00127723
-0.0122234
0.0109948
0.0123471
-0.000297175
0.0378391
-0.00110758
-0.00613155
-0.121752
-0.320703
0.10506
-0.0870008
0.254247
0.104234
0.0376569
-0.492641
-0.0602109
-0.0112177
0.00253921
-0.000702905
0.0784669
0.0229654
-0.0207806
0.12136
0.459791
-0.429455
-0.151696
0.0762817
-0.224945
0.309658
-0.160994
-0.00499822
-0.00127549
0.0017277
0.00454601
-0.487586
0.487571
-0.0466641
0.0466794
0.100579
-0.0134015
-0.0579029
0.00469542
-0.00766148
0.00185849
0.00668809
-0.00584108
0.00440848
-0.000671292
-0.00677677
0.00303959
-0.0902634
-0.337716
0.0911823
0.336797
-0.303919
-0.213805
0.00066384
0.000698126
-0.0533064
0.0826773
-0.30814
0.278769
0.000606972
-0.00859047
-0.000949642
-0.113616
0.170861
0.0326401
0.261495
-0.245171
0.0564066
-0.362621
0.378153
-0.00998422
-0.00904616
0.00560311
0.00871318
0.0055096
-0.00926457
-0.00495821
-0.0338687
0.00667807
0.00898917
0.0182014
0.00887823
0.0169188
0.178627
-0.253504
-0.119323
0.00538743
0.0188362
-0.00488623
0.000398897
0.000682782
0.00272385
-0.00380553
0.093861
-0.221078
0.292465
-0.165248
0.109486
-0.150794
-0.246957
0.0392372
0.000464444
0.00725432
-0.00737451
-0.000344248
0.0575468
-0.0840145
-0.283947
0.00664612
0.000839776
-0.000714161
-0.00677174
0.274521
-0.317341
0.086601
-0.0437806
0.00767577
-0.0150456
0.00935088
0.0835836
-0.0498547
-0.277455
7.09054e-05
-0.000434659
-0.00460197
-0.0713202
-0.331406
0.0850255
0.317701
0.236305
0.0385807
-0.235629
-0.0392568
0.00721776
0.00534715
-0.00295173
-0.00961319
0.00598277
-0.003657
-0.00560148
0.0032757
0.0905839
-0.363605
0.551303
-0.278282
0.00824598
-0.00874661
0.0032684
-0.0485728
0.0473503
0.0359611
0.00320797
-0.0141931
-0.00265256
-0.00197559
0.00321522
0.00433215
-0.00836691
-0.00343445
0.00326806
-0.00459383
0.00573425
-0.010798
0.00378094
-0.011936
-0.224858
0.0056924
-0.00517136
0.00461428
-0.00513532
-0.357652
0.307637
0.012413
-0.00856532
-0.239471
0.00898957
0.000455908
-0.00897663
-0.000468845
0.00466864
-0.00764952
-0.0091292
0.0121101
-0.030167
-0.0319811
0.0174892
0.0446589
0.0094712
0.00168625
-0.0271861
0.0200714
-0.0141498
0.0212645
-0.122558
-0.393604
-0.0207559
-0.0149602
0.00718286
-0.00154139
0.00315205
-0.00412015
0.376301
0.0524793
-0.0808268
-7.44002e-06
-0.00688957
0.00173431
-0.00346737
0.0549695
0.0475462
-0.033002
-0.396486
0.063462
-0.0607492
0.393774
0.136456
-0.201272
-0.112536
-0.010879
-0.00140324
0.00772517
0.00455707
0.00834102
-0.000476968
0.0060904
0.00545951
0.100428
-0.0423316
-0.0796623
0.0215664
-0.00334178
0.00635213
-0.0373879
0.00701458
0.509938
-0.479565
0.00233033
-0.00863159
0.00663125
-0.00179069
0.000803316
-0.00188429
-0.00503458
0.00109829
0.00582058
-0.366764
-0.285274
0.208464
0.0636418
-0.0337477
-0.228442
0.0207267
0.21351
-0.00579434
0.0126386
0.0125456
-0.0141461
-0.0110381
0.00123957
-0.00600373
0.0218657
0.00434881
0.00696867
-0.00486562
-0.00645186
0.208335
-0.0963233
-0.206497
-0.0801562
-0.0213176
0.0581856
0.0432883
0.00704639
-0.215562
-0.173862
0.382377
-0.0076931
0.00128844
-0.284299
-0.0159171
0.24691
0.00737224
0.0042679
-0.00729133
0.00347906
-0.0233664
-0.0103543
-0.00224278
0.000422519
0.0121746
-0.162803
-0.25799
0.0657316
0.355061
-0.272865
0.315349
0.153572
-0.196056
-0.00913317
0.00883205
-0.0096831
0.00541887
0.0147302
-0.0152613
0.00651443
-0.102779
0.0803361
0.58807
-0.608258
-0.0592666
0.489646
-0.656377
0.225786
-0.0590553
-0.00154965
-0.00724784
0.00142607
0.00737142
-0.104617
-0.175118
0.204991
0.0747437
-0.000469217
-0.00825135
-0.0322092
0.0202976
0.011408
-0.00539088
-0.0163714
-0.004699
0.00540592
0.0111639
-0.0118709
0.00713847
-0.000202467
-0.00746897
-0.00022302
-0.00601141
0.000383406
-0.000846598
0.00283023
0.0498143
0.247137
0.0643184
-0.186222
0.303547
0.226531
-0.343856
0.368381
-0.604759
0.355373
-0.118995
-0.0626553
0.0519299
-0.0134464
0.0103508
0.0114224
0.141892
-0.389402
0.234208
0.0133014
-0.0484313
0.0284543
0.334697
-0.0145696
-0.313081
0.00288885
-0.00135297
-0.00895091
-0.210031
0.0658107
-0.0598774
0.204097
-0.00355325
0.00343401
0.00708792
-0.269738
0.213421
-0.276589
1.3492e-05
0.0431816
0.472921
0.0612525
0.156283
-0.227932
0.00649137
-0.00520106
-0.00209377
0.00339148
0.00390335
-0.0478679
-0.143514
0.162268
0.0291142
-0.391599
0.00137029
-0.00576371
-0.00178461
-0.00357803
-0.00551636
0.00505865
-0.021488
0.29766
-0.203744
-0.0154322
0.00442259
0.00352309
0.0074865
0.0634303
-0.0603181
0.0605297
-0.0228372
-0.300137
0.0148342
0.212491
-0.404262
0.269507
-0.0777366
0.47969
0.0697471
-0.0597912
0.0678937
-0.0595895
0.138348
-0.205108
0.251775
0.192191
0.00628402
0.00789831
0.259376
0.0520145
-0.0521688
-0.259221
-0.00365099
-0.0112859
0.0147121
0.173439
-0.136767
-0.0386748
0.239124
0.0020691
0.00639253
0.0067055
0.00116171
-0.00288065
0.00957966
-0.00645047
0.000255414
-0.0033846
0.0141617
0.221333
-0.202855
-0.558167
-0.446566
0.122648
0.0134615
-0.320598
-0.00674408
0.00309806
0.0238232
0.0214353
-0.0318344
-0.0134241
0.00739395
0.00367462
-0.00282259
0.00842474
-0.00697816
0.00397229
0.00618042
0.0260523
-0.0386575
0.00642476
-0.0442936
0.0709009
0.0488745
-0.166476
-0.0793334
0.1344
0.111409
0.00468371
-0.00755444
-0.000144861
-0.00968979
-0.00296822
0.00389114
-0.00865857
-0.0467297
0.705586
-0.0603038
0.109855
-0.015452
-0.0589385
-0.00435399
0.00570755
0.00601868
0.071795
0.0780838
-0.0573089
-0.0925699
-0.0142546
-0.00777515
0.0111441
0.00426195
-0.0322318
-0.00589878
0.138934
0.0571183
-0.118948
-0.218921
-0.0372711
0.0676839
0.188508
-0.0573738
0.2551
0.0484333
-0.246159
-0.00335787
0.00558672
0.00691076
-0.00913961
0.309312
-0.201766
0.196655
-0.304201
-0.217951
-0.0714571
0.129944
0.159464
0.0118573
-0.00899483
0.00906633
-0.00934543
0.000886074
-0.236436
0.172159
-0.00538803
0.0112182
0.00308687
-0.00891705
-0.018318
-0.00546577
0.0088346
0.00176529
0.00629402
-0.000535353
0.00916695
-0.177406
-0.201317
0.379836
-0.332456
-0.0278658
-0.0195138
-0.00515359
-0.00236515
0.00575424
0.00176451
-0.133898
0.175816
-0.20472
-0.332841
0.35332
-0.179325
0.158847
-0.527011
-0.0616707
0.501056
0.0876254
-0.112886
0.166535
-0.101517
-0.0340841
0.0257622
0.428968
0.00225183
0.00861391
-0.00442872
0.00247336
-0.00170164
0.0512052
-0.0367921
-0.00226352
0.000935103
-0.00202945
-0.0033418
-0.00529723
0.00850728
-0.0130452
0.0153305
-0.0098253
0.00533406
-0.461441
-0.196651
0.291329
0.0119077
-0.0382328
-0.00451732
0.0308425
-0.317816
-0.0427897
0.00468541
0.0072481
-0.00443694
0.0271144
0.484205
-0.561753
-0.00109601
-0.00253604
-0.00175598
0.187992
-0.0733084
-0.2193
-0.154222
0.322591
-0.00526106
0.00835542
0.00207707
0.00603556
0.00788219
-0.102744
0.00407144
-0.00933656
-0.265595
-0.377926
0.0750827
0.145021
-0.076696
-0.143407
0.0197242
0.00922544
4.40018e-06
-0.000125718
-0.00692893
0.00705025
-0.00984419
0.0160155
-0.00688869
0.000717406
-0.318693
-0.00902646
0.0592306
0.268489
-0.0553371
0.19522
-0.248957
0.267341
-0.306316
0.00161627
-0.619509
0.0698659
-0.0586147
-0.0106389
-0.0353908
-0.208746
-0.175552
0.0578553
0.326443
-0.0669369
0.196504
-0.194281
0.0202667
-0.0214391
0.0226077
0.00852745
-0.00651316
0.00472342
0.00631972
0.0105152
0.0375433
-0.032665
0.533396
-0.562868
-0.273321
0.302794
-0.00630119
0.139467
-0.427785
0.511421
-0.0139418
-0.330713
0.343708
0.000946437
-0.0243403
0.0257097
-0.0205655
0.0191961
0.0503594
0.000668455
-0.0391201
-0.0160463
0.00588538
-0.0105949
-0.138622
0.031592
0.151405
-0.0443757
0.214036
-0.0587989
0.0439012
-0.199138
-0.0733811
0.0493549
0.0630289
-0.198263
-0.117471
0.0100104
-0.261617
0.0552527
0.196354
0.0416713
0.019824
-0.0264125
-0.0350828
0.000688534
-0.00164597
0.00764552
-0.0464897
0.365189
0.0184281
0.00329445
-0.0116137
-0.0101089
-0.00653317
0.00504988
-0.00461582
-0.0427409
0.00912388
0.00967701
0.00539552
-0.00554142
0.0214452
-0.0260552
-0.0153809
0.019991
-0.113457
-0.53832
0.124767
0.0116362
-0.0103887
0.00451983
-0.00576738
0.411931
-0.160722
0.127016
0.221697
0.0823085
0.0601176
-0.077007
-0.0654191
-0.00030756
-0.00854415
-0.000462127
0.00931383
3.99192e-05
-0.0010429
0.00773251
0.0204537
-0.0233488
0.00908822
-0.00909515
0.00794361
-0.00793668
-0.0131938
-0.00204713
0.00301759
0.0787082
0.1634
-0.0907014
-0.440376
-0.0436273
0.0311661
0.452838
-0.485381
0.0370079
0.00748281
-0.0209571
-0.0173438
0.0233407
-0.00296307
0.00401831
-0.000210032
-0.000112606
-0.00744122
0.00776386
-0.0167368
0.318665
-0.747474
0.186036
-0.058071
0.0355247
0.0190966
0.0322815
0.00658622
-0.0102461
0.0245263
-0.0211713
0.0169426
-0.153169
-0.308725
0.0447598
0.417134
0.0001146
-0.00505524
0.000445706
0.291
0.207714
-0.359246
-0.0992376
0.0743857
0.00484129
0.00364482
-0.633009
-0.0567108
-0.0577537
0.117654
-0.0241355
-0.0927655
-0.000753034
0.0371533
0.0863908
-0.00494992
-0.0067346
-0.0216841
0.324977
-0.0908016
0.00664458
0.0024523
0.000482776
0.0038236
-0.0101309
0.0185406
0.00973704
-0.0170594
0.00801067
-0.0559276
0.016401
0.0315159
0.262691
0.0211878
-0.243637
-0.040242
-0.392043
0.3792
0.0258327
-0.0129906
-0.0413237
-0.433137
-0.0775259
-0.36757
0.179501
-0.00662707
0.013309
-0.0165266
0.00984465
-0.0133882
-0.00502759
-0.0068305
-0.364868
0.264201
0.0565441
-0.0462244
-0.0415413
-0.0455568
-0.355527
-0.0602649
0.344472
0.296809
-0.0489861
0.0447979
-0.131316
-0.0521037
0.579885
-0.0785344
-0.169975
-0.336444
0.248643
-0.331308
0.283007
0.28894
-0.240639
-0.0333603
0.131789
0.334419
-0.00365276
-0.00407802
0.00114771
0.00658307
-0.362622
-0.170871
0.502455
0.0310391
-0.00571287
-0.000854421
0.0114319
-0.0048646
0.0723274
-0.124155
-0.048934
0.100761
-0.272798
0.179791
0.396554
0.00772295
-0.00225142
-0.264343
-0.0259786
-0.362228
0.101897
0.28631
0.00841696
0.00128354
-0.0192922
-0.00381943
0.0141168
0.0119316
-0.0126131
-0.00916271
-0.383989
-0.157207
0.079754
0.234348
-0.0721674
0.00105297
-0.000212936
0.00586546
0.00579995
-0.00223362
-0.541548
0.00420851
0.00724334
-0.008563
0.0412248
-0.482455
-0.046356
-0.596914
0.540612
-0.0571562
0.177081
0.0254759
-0.0398456
-0.394061
0.149976
0.022367
-0.341419
-0.0467299
0.365782
0.00868432
0.00774729
-0.00494483
0.00627141
-0.00487983
-0.0168636
0.00397332
0.0182962
-0.00722156
-0.00037597
-0.0128129
0.0135347
-0.00227455
-0.546645
0.604676
-0.0557563
0.0130767
-0.363551
0.066935
-0.0589106
0.0298431
0.0339986
0.00430312
-0.154961
0.285079
0.0964122
0.0397054
0.476839
-0.477181
-0.039363
0.548219
-0.52338
-0.000712856
-0.00522765
-0.230993
0.226069
-0.230753
0.255582
0.0129939
-0.0378236
-0.00419409
0.0275022
0.0232846
-0.0282038
0.25917
-0.00471724
-0.226249
0.0648468
0.152795
-0.00828112
-0.000215545
0.0084381
0.043617
-0.25906
-0.564361
-0.0333441
-0.0586715
-0.097049
0.0231809
0.281654
-0.0152061
-0.00179059
-0.0567758
0.169044
-0.17214
0.0598713
-0.0244017
0.0217833
-0.292765
0.203528
0.0102148
-0.00727676
0.00152562
-0.00446362
-0.0488499
0.0570955
0.00868142
0.216584
0.0358624
-0.209499
-0.00438104
-0.00892921
0.00633109
0.0454903
0.076348
0.0704677
0.298015
-0.0761818
0.0277931
0.00724617
-0.0145856
0.0102494
-0.0624117
0.123957
0.031497
-0.0250969
0.0451688
-0.051569
0.0111576
-0.00608722
-0.00456523
0.00481574
0.00405261
0.10934
-0.0286456
0.0912541
-0.171948
-0.0154548
0.0354174
0.0071919
-0.0271545
0.088036
-0.372215
0.396166
-0.306418
0.244217
-0.42336
-0.00474843
0.0149584
-0.0104933
0.00673278
0.00605206
0.0208995
-0.221188
-0.0663631
0.18752
0.100032
0.0843554
-0.0903545
-0.0272616
0.169605
-0.0748891
0.0700327
-0.164749
0.386159
-0.397667
0.0608854
-0.0493771
0.25075
-0.135918
0.183911
-0.298743
0.416213
-0.422531
0.0563317
-0.0500137
0.453302
-0.375212
-0.0557234
0.452337
-0.0209766
-0.338574
-0.0466852
0.506619
-0.0354169
0.000539046
0.030262
-0.167032
-0.375751
0.341647
0.201136
-0.0250273
-0.0414538
-0.100715
0.152746
-0.0259621
-0.320669
-0.517166
0.0259236
-0.0554026
0.176889
-0.0307823
-0.131945
-0.0229472
0.0144634
-0.00215414
0.0720419
0.245357
-0.058023
-0.369681
0.0272886
-0.0420757
0.475099
-0.460312
0.208979
-0.0902934
0.0139782
-0.0311888
-0.184987
0.202198
-0.0412019
0.278237
-0.265238
-0.0467242
0.487937
-0.0386807
0.226035
0.0292299
0.0195512
-0.0156732
-0.327044
0.315301
-0.127651
-0.243722
0.0778804
0.242123
-0.0155793
0.0277024
-0.0275779
-0.000954866
-0.0137249
-0.0090668
0.0278027
0.0164805
-0.0257426
0.00262407
-0.00343148
-0.00215566
0.257481
-0.0446113
0.0055137
-0.00746364
0.0308042
-0.0410479
0.182974
-0.17273
-0.372193
0.191014
0.253221
0.379609
-0.0173278
0.000327346
-0.362609
0.320871
0.0349693
-0.0483977
-0.0480734
0.355499
-0.0444056
0.038983
-0.350076
-0.11052
0.771427
-0.0562305
0.406834
0.0595087
-0.0501296
-0.00165186
0.0136454
0.0258456
-0.0149864
-0.0320405
0.0255878
0.0139386
-0.00237867
-0.212551
0.200991
0.337542
0.170816
-0.0550557
0.214308
-0.180301
0.0218672
-0.0558737
0.246114
-0.197776
0.16171
-0.196723
0.0851993
-0.0501856
0.167026
0.116863
-0.0695816
0.0693705
-0.00246448
0.0138722
-0.0807782
0.173937
-0.0759783
0.071646
0.0379193
-0.0162146
0.0137127
0.239939
0.107585
-0.101411
0.359698
-0.0163843
0.00707456
-0.350388
0.153715
-0.14146
0.121965
-0.13422
0.223394
-0.23669
-0.0661543
0.0794503
0.302856
-0.518713
-0.0928675
0.171814
-0.0689319
0.0956224
-0.198505
0.3593
0.0227166
-0.0223188
0.172443
-0.170222
0.0336414
0.0201328
0.415153
-0.410655
-0.0246306
0.27927
-0.315451
0.0149496
0.0212313
-0.0417569
0.191417
-0.135682
-0.0403716
0.235218
0.226147
-0.206026
0.143748
-0.163868
0.270442
-0.185585
0.201589
0.0523915
-0.0594324
0.168751
0.00713863
0.145043
-0.136327
-0.0158553
-0.0232749
0.122779
-0.108934
0.00943067
0.0924282
-0.0486841
-0.0695917
0.0258475
0.0580422
0.0155349
-0.00420668
0.164092
-0.0719554
0.0349639
-0.0284637
0.0314192
0.07718
0.216354
-0.119596
0.169782
-0.147916
0.202771
-0.0550049
0.0756274
0.23845
0.100853
-0.0993636
0.09007
-0.0521539
0.0137864
-0.0237653
0.318635
-0.308656
0.332367
-0.0240534
0.0177395
-0.326053
0.237288
0.0293911
0.0125904
0.244388
-0.123596
0.129958
0.296697
-0.206469
-0.0632813
0.0647441
-0.409076
0.407613
0.386704
-0.375829
-0.00838631
-0.002489
0.0272163
0.0230503
0.289347
-0.496124
0.233703
0.248228
-0.21149
0.386914
0.0165741
-0.0172023
0.234526
0.145359
-0.135497
-0.325145
-0.123629
0.158555
-0.0925765
0.0837017
0.172275
-0.188667
-0.275997
0.201519
0.263145
0.162429
-0.14938
-0.00591114
0.129186
-0.120869
0.210038
-0.196768
0.0639098
-0.00443697
0.314576
-0.345669
0.0355301
0.416143
-0.0327337
0.00329484
-0.120066
-0.318059
0.10041
0.227096
-0.44251
0.306418
-0.0436501
0.347438
0.0432849
-0.347073
0.0305148
-0.0285439
-0.0175503
0.125169
0.325676
-0.145018
0.0552738
0.154591
-0.0622816
0.31357
-0.312211
0.0609223
-0.00589194
0.301333
-0.321696
-0.168051
0.0610655
-0.427879
-0.0608816
0.427695
0.0536863
-0.0760942
-0.0814673
0.103875
-0.0811851
0.192738
0.268283
-0.00794276
0.00720971
-0.00373056
0.301094
-0.404436
-0.25294
0.483903
-0.252911
-0.406736
0.175744
0.274588
0.417372
-0.333455
-0.0557549
-0.0281619
-0.000564509
0.00144568
-0.00944907
-0.00134204
0.258435
-0.359392
0.029324
-0.0178363
0.191517
-0.117806
0.34366
0.361712
0.190293
-0.357321
-0.194684
-0.263639
0.267203
-0.375778
-0.00801504
-0.0586793
0.461478
-0.113863
0.0474502
-0.0604008
0.0166854
0.0312174
-0.00539683
-0.180644
0.173615
-0.134431
0.0956696
-0.123664
-0.0734406
0.0752832
0.0518438
-0.116093
0.056812
0.116654
-0.0573723
-0.0484496
0.0745974
0.00881609
-0.304075
0.155159
-0.0670451
-0.033635
0.20176
0.00876386
0.0237683
0.158441
0.147993
0.0994227
-0.0310619
-0.0905105
0.0821091
-0.328565
0.336966
-0.193506
0.0538705
-0.0455186
0.0778837
-0.156995
0.170673
0.22361
-0.268807
0.160252
0.170995
-0.0624399
-0.0515505
0.0361522
-0.0846419
0.0609768
-0.0174236
0.0189662
-0.00713568
0.102601
-0.0989375
0.234786
-0.373567
0.377835
0.0989025
-0.10317
0.0377784
0.0486057
0.038419
0.262329
-0.255454
-0.0452934
-0.0715477
0.324701
-0.334339
0.24935
-0.0762489
-0.140023
0.0365874
-0.00513225
0.000918991
0.00293776
-0.425778
0.0135726
-0.196021
0.0986953
0.199927
-0.317054
0.298864
0.163294
-0.145104
0.021301
-0.462159
0.473564
-0.0327054
-0.135505
0.327238
0.210806
-0.336342
-0.111526
0.141582
-0.174546
0.220406
0.285272
-0.141631
-0.329225
0.332262
-0.0236603
-0.259032
0.283894
-0.0607473
0.0408624
-0.31792
-0.25936
0.344402
0.232878
0.00532069
0.00746449
-0.0209122
0.00812698
-0.072771
0.0233323
-0.228983
0.278421
0.44781
0.270198
-0.435848
-0.282159
-0.214541
0.201404
0.205874
0.249121
-0.152681
0.0874709
-0.284538
0.200321
-0.0351204
-0.0167599
0.00343068
-0.299201
-0.0934674
0.17148
-0.21267
0.0293818
0.221797
-0.0385084
-0.233403
0.185368
0.239048
-0.469966
-0.0301649
0.148937
-0.0386009
0.00334
-0.00858378
0.421387
-0.434092
0.0153856
0.272941
0.145765
-0.0471069
0.0242598
-0.101505
0.227235
-0.180784
-0.0547822
0.0518437
-0.0817034
0.0113392
0.369489
-0.0587517
-0.322077
0.240991
0.177625
-0.258364
-0.136387
-0.0900031
0.218381
0.00800819
-0.00737498
-0.00632458
0.0327617
0.410117
-0.0493714
0.334218
-0.0514091
0.503755
-0.498581
-0.0518984
-0.44947
0.456364
-0.0505213
0.346219
0.0625153
-0.0527316
-0.43582
-0.0499929
-0.433103
0.427033
0.0559821
-0.0499112
0.490403
-0.538835
0.103322
-0.0548898
0.378306
0.0571115
-0.0492587
-0.516081
0.538746
0.0306112
-0.053276
0.49907
0.0140347
-0.0508473
0.5148
0.0534336
-0.515681
-0.0525518
-0.573059
0.684018
-0.057106
-0.0538529
-0.482303
0.0500954
0.487762
-0.0555548
0.442716
0.0594994
-0.452836
-0.0493799
-0.0496223
0.0609897
0.396137
-0.0502928
-0.432905
0.440425
0.0426442
-0.0501636
0.0900591
0.302186
-0.0547034
-0.0657829
0.180488
-0.267103
0.25946
-0.166903
0.0125832
-0.00853864
0.00374412
0.0683888
-0.0564801
0.151357
-0.224898
0.215433
0.312189
-0.206895
0.311839
-0.0393781
0.32383
-0.270513
-0.0113425
0.00133491
0.132786
-0.2017
-0.0364599
0.0264677
0.155036
-0.0266489
0.331136
-0.338128
0.358924
0.0291171
-0.0499129
0.442113
0.0172746
-0.0492706
0.360005
0.0244509
-0.0502381
-0.435478
0.36729
-0.053564
0.179277
-0.045438
-0.222318
0.336514
-0.392512
0.402649
-0.161338
-0.00941538
-0.0130799
-0.363616
0.386111
0.0500496
-0.0552205
0.167439
0.0547695
0.0255691
-0.211847
-0.256633
0.0920464
-0.109792
0.274379
0.256714
-0.419984
0.0158996
-0.0375622
-0.0134578
0.23743
-0.257757
-0.252325
0.272652
-0.242132
-0.1572
0.114795
-0.34407
0.356992
0.0394565
-0.0523786
-0.381493
0.421891
-0.0498135
-0.317942
0.325572
-0.0560615
-0.345518
-0.055656
-0.355949
0.360487
0.0457366
-0.0502745
0.316393
-0.318796
0.0577796
-0.0553766
-0.577197
0.466192
0.160356
-0.0493507
-0.384418
0.401977
0.0317753
-0.0493352
-0.535064
-0.0638407
0.649967
-0.0510618
0.476466
0.169069
-0.593438
-0.0520972
0.475521
-0.4535
0.0312327
-0.0532538
0.504763
-0.491612
0.0407031
-0.0538547
0.0601154
-0.391858
-0.0104158
0.00815996
0.316832
0.203768
0.236217
-0.26899
0.214889
0.160015
-0.147669
0.339479
-0.230678
0.366825
-0.24698
-0.0241747
-0.28849
0.0591396
0.105679
-0.108006
-0.360702
0.055245
-0.050492
-0.055705
0.0290407
-0.050047
0.078897
0.44988
-0.0523107
0.0547171
-0.0525687
0.506691
0.0522124
-0.0541406
-0.332724
0.0431001
-0.0558941
0.0432096
-0.049321
-0.0534784
-0.324507
0.0603563
-0.0546451
-0.455652
-0.0720868
-0.0494587
0.0148976
-0.0508916
-0.124359
-0.380382
0.256966
-0.293374
-0.0447783
0.0544403
-0.16238
-0.0284466
-0.270164
0.287628
-0.161128
0.0214924
0.173781
-0.390225
0.273967
-0.235302
0.228099
0.21666
-0.187745
0.00262393
0.00030967
0.00175011
-0.107062
0.102047
-0.238707
-0.161545
-0.00782644
0.0168603
0.141612
0.299903
0.223092
-0.0439836
-0.342145
0.0530499
-0.278562
-0.0415916
0.0586038
-0.0478084
0.0397013
-0.0504966
-0.000377597
0.00491508
-0.266143
0.224895
-0.458347
0.132424
-0.0298783
-0.00168509
0.194205
0.054345
-0.0474319
0.436812
0.0515267
-0.0528084
0.525249
-0.0324291
-0.0653489
-0.427471
0.0591195
-0.0495069
0.235352
-0.34945
0.0834185
-0.335208
0.00965685
0.0265228
0.0371012
0.260442
-0.274454
0.191637
-0.0489578
-0.299277
-0.10605
0.383185
-0.367646
-0.0793231
0.0851046
-0.00203738
-0.308889
0.0829671
0.061229
-0.186351
-0.00414658
0.227774
-0.107128
-0.00284072
0.380784
-0.370868
0.18493
-0.103872
0.133832
-0.0110906
0.00332307
0.0405824
-0.049075
0.0756741
0.0255696
0.104907
-0.0499076
-0.422237
-0.0926735
0.281508
0.00976215
0.144788
-0.156929
0.0419046
-0.0513665
-0.0439409
0.26105
0.302272
-0.202494
-0.279955
0.180176
0.166052
-0.0608274
0.348579
-0.146749
-0.24239
0.0710795
-0.292302