/*--------------------------------*- C++ -*----------------------------------*\
  =========                 |
  \\      /  F ield         | OpenFOAM: The Open Source CFD Toolbox
   \\    /   O peration     | Website:  https://openfoam.org
    \\  /    A nd           | Version:  10
     \\/     M anipulation  |
\*---------------------------------------------------------------------------*/
FoamFile
{
    format      ascii;
    class       volVectorField;
    location    "1050";
    object      U;
}
// * * * * * * * * * * * * * * * * * * * * * * * * * * * * * * * * * * * * * //

dimensions      [0 1 -1 0 0 0 0];

internalField   nonuniform List<vector> 
23845
(
(0.711423 -0.106742 1.18626e-20)
(0.474425 0.0965683 -5.21974e-21)
(0.23908 -0.0114845 2.75055e-20)
(-0.136424 0.0167827 7.30111e-22)
(0.0751488 0.0583216 5.40836e-21)
(0.810159 -0.00716066 -2.2953e-24)
(0.916015 -0.0285079 -1.2874e-20)
(-0.0755928 0.066456 -2.67552e-22)
(0.934923 -0.00776869 6.23896e-24)
(0.852372 0.0963634 -5.84845e-21)
(0.447731 -0.0478641 -5.50106e-21)
(0.750333 -0.000816974 3.92309e-24)
(0.927404 0.0154105 1.69602e-23)
(0.890243 -0.00839806 1.5482e-24)
(0.713493 0.0336416 -2.16565e-20)
(0.933744 0.0732389 -1.04242e-21)
(0.808305 0.0205189 1.6317e-23)
(0.59909 -0.0161907 -8.52917e-24)
(0.948464 -0.0257228 -1.85344e-22)
(0.775152 0.00837724 2.78906e-22)
(0.888608 0.0977188 1.91769e-20)
(0.400441 -0.0361929 -9.81619e-21)
(1.05628 -0.0515272 -3.20371e-21)
(0.941405 -0.00820868 6.91794e-24)
(0.759581 0.0870183 -1.02248e-21)
(0.992914 0.00723954 -1.09385e-23)
(0.937091 0.0519489 1.0707e-20)
(0.80492 -0.00869464 4.33576e-22)
(-0.0526825 -0.117517 7.83141e-21)
(0.80092 0.00953572 -1.68588e-22)
(-0.148771 -0.00883423 3.23186e-20)
(-0.0310751 0.0859393 4.1843e-22)
(0.414809 -0.0196008 1.01233e-20)
(0.64851 -0.0216879 -6.1677e-24)
(0.74717 0.000570965 -1.55751e-23)
(0.740362 0.0042237 2.2345e-22)
(-0.043683 0.116771 -7.185e-21)
(0.749174 -0.000800058 -3.98032e-24)
(0.777749 -0.00416632 -1.82221e-23)
(0.919137 0.00909068 8.4893e-24)
(0.976879 -0.0320493 1.39249e-22)
(0.7351 -0.0159506 3.6238e-22)
(0.948851 -0.0137525 -1.85294e-22)
(0.682059 0.0133606 -1.91627e-22)
(1.01126 -0.007294 -4.61044e-23)
(0.88495 0.0161238 6.1491e-23)
(-0.070649 -0.024975 -1.85753e-21)
(0.891682 -0.0703566 -4.67371e-21)
(-0.0235455 0.00965266 1.56932e-21)
(-0.0595626 -0.115551 3.44533e-21)
(-0.0491206 -0.0440952 7.18761e-22)
(0.154685 -0.014936 -4.02345e-21)
(-0.0220233 -0.0406826 -3.6611e-21)
(0.857507 -0.00901796 -1.5844e-22)
(-0.0342678 0.0957964 7.62942e-21)
(0.865602 0.0205893 1.94072e-23)
(0.209985 0.0702308 2.7196e-20)
(-0.0907314 -0.0367099 1.88072e-20)
(0.78201 0.104046 -3.72456e-20)
(0.00969787 0.0258229 -1.73775e-20)
(-0.0429096 0.10292 2.55785e-21)
(0.695756 0.0151384 6.66622e-23)
(0.922176 0.0624369 -1.15683e-21)
(-0.0377679 -0.0966535 3.36405e-21)
(0.960832 -0.00831488 6.75786e-25)
(0.909484 0.0148984 -1.01733e-22)
(0.978136 0.0343696 1.10226e-20)
(1.01976 0.00676329 9.38577e-23)
(1.01805 -0.00725906 -1.79324e-22)
(0.937684 -0.0328293 5.80509e-23)
(-0.060607 0.0874005 2.72977e-22)
(0.14616 0.00592145 1.6781e-20)
(0.983617 0.00950029 9.03037e-24)
(0.79487 0.0313857 1.24763e-20)
(0.981103 -0.00805339 -2.82664e-22)
(0.656524 0.0324681 -7.78067e-23)
(0.75571 -0.0019415 -5.37142e-24)
(0.774824 -0.00455035 2.34355e-23)
(-0.118691 -0.0226076 3.83031e-21)
(0.78762 0.0304099 2.14391e-24)
(0.967602 0.0693496 -2.58756e-21)
(0.680335 -0.03827 -3.80654e-20)
(0.324361 0.0850179 -4.59301e-21)
(-0.0851224 -0.0533208 -7.94464e-22)
(0.242401 -0.00288191 -7.89842e-21)
(0.748516 0.0017933 -3.69781e-23)
(0.608145 0.0579241 1.45125e-20)
(-0.0176606 -0.0134136 1.70691e-20)
(0.961072 -0.00778797 9.48002e-23)
(0.854484 0.0295683 -1.24895e-22)
(-0.0477894 -0.0816057 -1.27114e-20)
(0.97206 0.0413468 -6.536e-22)
(-0.0482566 -0.106226 1.13531e-20)
(0.749528 -0.00495042 -1.75974e-22)
(-0.087764 -0.0249024 2.81804e-21)
(-0.053546 -0.0918653 -3.56307e-20)
(0.844173 -0.0197386 2.24006e-23)
(0.873085 -0.0729201 -3.63148e-22)
(0.979828 -0.00800828 2.11802e-23)
(-0.0112159 0.0379482 -8.22418e-21)
(0.849284 -0.0235004 6.26418e-23)
(0.97451 0.0308867 3.77776e-21)
(0.405328 -0.0980511 1.50346e-20)
(-0.0689575 -0.0877375 -1.59374e-20)
(-0.0541701 -0.0939589 -2.96546e-20)
(-0.0934723 -0.0452657 5.24072e-21)
(0.830059 -0.00810415 9.57387e-24)
(0.993033 -0.00797396 1.64846e-22)
(1.03478 0.0258548 -1.70231e-21)
(0.710283 0.0139506 1.95512e-22)
(0.496086 -0.0437189 -1.62074e-21)
(0.754189 -0.00214197 -8.00144e-24)
(0.357037 0.0116793 1.60996e-20)
(0.846164 -0.0887031 -2.21968e-21)
(0.744143 0.00477151 -1.11196e-22)
(0.954205 -0.0887737 -2.74053e-21)
(0.978078 -0.00770426 -1.2567e-22)
(0.939703 0.0831579 -5.93234e-21)
(-0.0525083 -0.118995 5.75303e-21)
(-0.0224407 0.084119 -1.59223e-20)
(0.76716 -0.00350331 -2.48551e-23)
(-0.0394437 -0.0935291 -1.97588e-21)
(0.938058 0.0324246 6.57717e-23)
(0.0225304 0.0438588 3.50342e-20)
(0.958664 0.0295175 -3.65316e-21)
(0.987649 0.00763742 -1.76355e-23)
(-0.0458733 0.0994727 2.15357e-21)
(-0.0606384 -0.110957 -1.30153e-20)
(0.12485 0.0227926 1.05753e-21)
(-0.0585258 -0.0339447 1.26826e-20)
(0.128696 0.0275843 1.85956e-20)
(0.469755 0.0847502 5.97557e-22)
(0.316459 -0.0511426 2.71623e-22)
(0.858224 -0.00805464 1.59618e-24)
(0.824736 -0.0289694 3.11061e-23)
(0.572681 -0.106972 4.34824e-21)
(-0.0658883 0.0939723 3.33352e-20)
(0.751674 -0.000963635 1.05529e-23)
(1.02623 -0.0301031 6.4633e-23)
(0.782615 -0.0049311 1.73713e-23)
(-0.0550968 -0.123777 -1.5741e-20)
(0.726128 -0.0138982 -1.20189e-22)
(0.766902 0.00530229 5.17834e-23)
(0.658449 0.0127453 3.50537e-22)
(0.928276 -0.054171 -2.39564e-21)
(0.69862 0.0120912 -2.16331e-22)
(0.953502 -0.0876672 -3.17686e-22)
(0.387552 0.0216257 4.29861e-20)
(0.00877809 0.0734435 -1.30108e-20)
(0.867459 0.039483 2.24784e-22)
(0.436864 0.0173031 -1.68865e-20)
(0.951352 0.0108123 -2.9991e-23)
(0.44331 -0.0644203 1.55121e-20)
(0.90463 -0.0111186 9.21494e-23)
(0.319752 -0.00523629 -5.84996e-21)
(0.728112 0.0505822 -8.69605e-22)
(0.232296 -0.0832105 -5.20146e-21)
(0.750456 -0.00305509 -7.86652e-23)
(0.154579 0.0206925 1.30051e-21)
(-0.0537723 -0.107235 3.75224e-21)
(0.926685 0.0408776 2.95385e-22)
(0.658614 -0.0309274 -1.81916e-21)
(-0.0830018 0.012474 -1.03254e-21)
(0.953129 -0.00799595 1.70631e-23)
(0.993719 -0.0156952 -2.04256e-23)
(0.788638 0.0391255 1.84689e-22)
(0.828531 -0.00733948 -2.70601e-23)
(-0.0447888 0.101154 -5.67007e-21)
(0.796674 -0.00829078 -3.31298e-23)
(0.69631 -0.011289 2.71948e-22)
(0.841527 0.00819627 2.42945e-23)
(-0.117915 0.021556 5.22232e-21)
(0.947366 -0.00868045 1.43898e-23)
(-0.0118822 0.0454954 -7.38851e-21)
(0.958342 0.00855917 2.84492e-22)
(-0.10685 -0.00157017 -4.48899e-21)
(0.975385 0.0494361 6.38984e-22)
(0.671686 0.0610071 1.54872e-21)
(0.993506 -0.00723392 -1.07241e-23)
(0.755053 -0.00337908 2.76677e-23)
(0.0065394 -0.0415014 6.94432e-21)
(-0.0418184 -0.0248232 8.33945e-22)
(0.760882 0.0348115 1.1017e-20)
(0.482134 -0.0359205 -6.67651e-22)
(0.925049 -0.0629228 -3.08091e-21)
(0.91659 0.0201036 1.0885e-23)
(0.724294 0.015514 -7.20987e-23)
(-0.0774908 -0.0605088 2.75618e-21)
(-0.0552975 0.117339 1.84802e-21)
(0.762578 -0.0164846 -4.82923e-23)
(-0.0467505 0.102171 2.95063e-20)
(0.888365 -0.00826586 2.59291e-23)
(0.894232 0.00867218 8.58189e-24)
(0.846328 0.00840206 -1.66044e-23)
(0.936196 0.0502867 -8.63164e-22)
(0.909198 -0.00830551 -7.00978e-23)
(-0.0648707 -0.0926987 -2.74334e-21)
(-0.0557095 0.108417 1.94805e-21)
(-0.0789178 -0.0703833 -1.00752e-20)
(0.562872 -0.0519532 2.61773e-22)
(0.700358 0.0379726 -8.04847e-23)
(0.897637 -0.00917604 -3.21884e-22)
(0.00231712 0.0746183 -6.86465e-21)
(0.349134 0.0681541 1.21349e-21)
(-0.0819963 0.0589477 1.16487e-20)
(-0.0838635 0.0261135 7.35524e-22)
(0.216596 0.00180515 -3.83965e-20)
(0.804878 -0.00606017 -1.59297e-23)
(0.737398 -0.0902644 -1.1465e-20)
(0.610088 0.0199817 -1.80409e-22)
(0.719119 0.0285875 -6.00053e-23)
(-0.0483536 0.114453 1.06483e-20)
(0.97609 -0.0578897 9.71407e-23)
(0.828661 -0.0106305 4.5001e-23)
(-0.0342328 -0.0361215 2.51773e-21)
(-0.0395733 -0.106886 -6.0119e-21)
(0.247184 0.0479833 -3.77004e-21)
(0.701357 0.0163342 -5.77682e-23)
(-0.0525279 0.118285 1.56687e-20)
(0.148701 0.0272535 -1.87722e-22)
(0.978871 -0.0104039 -2.92394e-23)
(0.729489 0.0328955 -6.51673e-21)
(-0.0668536 0.0907796 -2.08398e-20)
(0.815092 0.0514212 -1.0375e-21)
(0.670978 0.0105625 -1.13802e-22)
(0.456992 -0.0209106 2.14893e-20)
(-0.0594189 -0.112392 -7.50492e-21)
(0.886017 -0.00812362 5.94728e-23)
(0.80954 0.00810395 3.96864e-24)
(0.976503 0.0322797 5.60516e-22)
(0.769923 -0.00536033 1.22657e-22)
(-0.0282324 -0.00637684 -9.51905e-21)
(0.753583 -0.00222218 6.41227e-24)
(1.01467 0.00665372 -2.48949e-23)
(0.116519 0.0633139 8.45326e-21)
(-0.0497784 -0.112572 -1.06578e-20)
(0.967326 -0.0086661 6.57882e-23)
(-0.153531 0.00799945 8.83141e-21)
(0.955416 0.00836299 9.67064e-23)
(-0.0796933 -0.0263831 2.20583e-20)
(-0.0222151 0.0248421 8.75355e-21)
(0.940887 -0.0867904 6.64915e-21)
(-0.096947 -0.0431034 -1.28716e-20)
(0.122781 0.0659974 -1.4016e-20)
(-0.0424688 0.0921241 3.16259e-21)
(0.912896 0.065121 -2.45025e-22)
(0.838512 -0.00808719 7.62944e-25)
(1.01824 -0.00665996 2.87552e-22)
(-0.0962825 0.0113831 2.1251e-21)
(0.608404 -0.0301011 5.2329e-21)
(0.852808 -0.0149966 -4.24931e-23)
(0.747567 0.00277538 -1.0614e-23)
(-0.0511337 0.0538898 -4.41536e-21)
(0.965473 0.0146384 -1.72666e-25)
(0.787909 -0.0295252 -8.02159e-21)
(-0.0507868 0.0872525 2.18682e-21)
(-0.00495408 0.0734349 4.23062e-20)
(-0.061505 0.0614266 7.54856e-22)
(0.743227 -0.00468295 1.93775e-23)
(0.932696 -0.00873602 -1.17643e-22)
(-0.0134807 0.000560555 -2.11752e-20)
(0.743604 -0.00212695 -2.20524e-23)
(-0.0501228 0.095229 -3.48548e-21)
(0.544065 -0.0455396 1.95432e-21)
(0.636548 0.0461902 -2.67849e-23)
(0.944345 0.00799359 -2.56116e-23)
(-0.116106 -0.00448314 -3.11628e-21)
(0.0556891 0.0449494 -1.41905e-21)
(-0.140315 -0.00146605 5.53861e-21)
(-0.147707 0.00970511 -1.55835e-20)
(0.76735 -0.00386777 9.87564e-24)
(-0.114198 0.0270904 -3.12013e-21)
(-0.0437787 -0.0145215 -5.12085e-22)
(0.881679 0.00884861 -7.24541e-23)
(0.436982 -0.0319439 -1.12555e-21)
(0.901679 0.00888267 1.05645e-23)
(-0.0589432 -0.0690853 6.94683e-21)
(0.876997 -0.00807717 -3.12366e-23)
(-0.0654266 -0.0720355 3.71705e-21)
(1.05838 0.0550429 1.83208e-20)
(-0.083718 -0.0474213 1.89358e-20)
(0.814081 0.0081957 -1.86686e-23)
(-0.0603575 -0.0340526 1.01421e-20)
(0.876778 -0.049004 6.17261e-23)
(0.744562 0.000149866 -1.58554e-23)
(-0.0206529 -0.0881012 -1.29572e-20)
(-0.0266135 0.0355048 -3.96176e-21)
(0.911948 -0.00811966 -3.94556e-23)
(-0.0850333 0.0381471 -3.90046e-22)
(0.426676 -0.0192998 1.00503e-20)
(-0.108477 0.010151 2.57389e-21)
(-0.0363652 0.0295859 -1.06253e-20)
(-0.0352441 -0.0981496 2.60949e-20)
(-0.060344 0.0724955 -5.24076e-21)
(-0.0962905 0.0235404 3.37808e-22)
(0.748048 -0.00102786 -5.98399e-24)
(-0.0115205 0.0829689 1.67649e-20)
(0.853219 -0.00848192 -9.07105e-23)
(0.747057 0.00158233 -5.40265e-24)
(-0.0527644 -0.117718 -6.93588e-21)
(0.144043 0.0170085 3.1373e-20)
(0.456351 -0.0178768 1.49795e-20)
(-0.0474745 -0.111367 1.91707e-20)
(-0.155894 -0.00100596 8.13251e-20)
(0.860555 0.00845268 2.54502e-23)
(-0.160679 0.00186823 -4.73287e-20)
(-0.0396276 -0.0926701 -1.30633e-20)
(-0.0460082 -0.0290156 -3.16787e-21)
(0.858693 -0.0227118 1.89786e-24)
(-0.064713 0.0977701 4.49883e-21)
(-0.0415077 0.000197695 -1.28493e-20)
(0.325151 -0.0603797 3.17798e-20)
(0.918767 -0.0208249 1.26085e-23)
(0.83742 0.00834598 9.30665e-23)
(0.0525329 0.0014452 3.09814e-20)
(-0.0564161 -0.12209 1.45695e-20)
(-0.0172991 -0.0856517 1.80602e-21)
(0.321279 0.0501025 -1.43082e-20)
(-0.0513275 0.0956391 5.64607e-21)
(0.975031 -0.0114388 1.55878e-23)
(-0.0556691 0.0876657 8.81944e-21)
(-0.0466966 0.108573 -8.10903e-21)
(0.0218659 0.0639096 -2.3043e-20)
(0.813727 -0.00913947 -1.64346e-22)
(0.532436 -0.0280197 -1.24962e-20)
(0.80028 0.00725811 -1.83054e-23)
(-0.136379 -0.00760088 -1.94795e-20)
(-0.0782606 -0.0261982 1.16349e-20)
(-0.00223776 -0.0705841 -6.13553e-22)
(0.569893 0.0159908 4.42205e-22)
(0.339739 -0.0295583 5.23311e-20)
(0.818969 -0.0467051 -1.79135e-22)
(-0.0497912 -0.0670224 9.68731e-21)
(0.738565 -0.0003115 1.86711e-23)
(-0.000688692 -0.0750333 -4.67994e-21)
(-0.139813 0.0132446 -2.27408e-21)
(-0.0717503 -0.0149703 -1.20963e-20)
(0.58804 0.0137321 -2.25177e-22)
(0.722216 0.0111118 2.39334e-22)
(-0.123047 -0.00959247 1.07885e-20)
(-0.0895805 0.0233945 -1.32928e-21)
(0.0150467 0.0698948 -1.32832e-20)
(0.44953 -0.0403156 6.74375e-21)
(1.01258 0.00734163 -4.35485e-23)
(1.01325 -0.00722725 2.06618e-23)
(-0.0698654 0.0672068 -4.85098e-21)
(0.740483 0.00190181 -3.96922e-23)
(-0.0556132 -0.0812054 6.07834e-21)
(-0.128022 -0.0148155 9.21225e-21)
(0.365902 -0.0158172 -4.18628e-21)
(-0.0964997 -0.0114313 1.64415e-20)
(0.121871 -0.0298825 -6.98539e-21)
(-0.0618692 0.109541 2.06659e-20)
(-0.0561129 -0.0534524 -1.08169e-20)
(-0.0210408 0.0418754 2.16214e-20)
(0.892441 0.00862982 5.41051e-23)
(0.685382 -0.00959975 -2.16943e-23)
(0.969862 0.00906497 -3.05977e-23)
(0.47648 0.0261506 -7.52995e-21)
(-0.0965903 -0.0393013 3.61522e-21)
(0.0663493 0.0358164 -1.2262e-20)
(0.966023 0.00758497 -4.43289e-23)
(0.947312 -0.0887279 -7.09903e-21)
(0.88654 -0.0438179 -8.91362e-22)
(-0.0538789 0.119003 1.0709e-20)
(0.838656 -0.00764607 1.75912e-24)
(0.0252011 -0.0569919 -3.13092e-21)
(0.760112 -0.00652195 7.17764e-23)
(-0.0526611 -0.119284 6.74403e-21)
(0.992745 0.00814166 3.33168e-23)
(0.701531 -0.0127056 -4.81806e-23)
(-0.046985 -0.0932103 1.91688e-20)
(-0.0306369 0.0668002 -1.38301e-20)
(0.751287 0.00207968 8.4494e-24)
(0.754551 -0.00408518 4.53741e-23)
(-0.0517696 0.0773817 -3.47709e-21)
(0.0492349 -0.00795303 -2.20418e-20)
(-0.117775 0.0162992 -3.68471e-21)
(0.718268 -0.0127772 -1.20543e-22)
(-0.0857779 0.0362504 6.90757e-21)
(0.65179 -0.0361867 -1.22474e-20)
(0.742885 -0.00255109 -1.14199e-23)
(1.02615 -0.0641905 1.5091e-20)
(1.01565 -0.00719808 3.7063e-23)
(1.0142 0.00702098 -1.12178e-24)
(0.761061 -0.00316128 -1.25528e-23)
(0.785997 -0.005978 -2.34403e-22)
(-0.116235 -0.0173966 -6.38529e-21)
(0.614032 0.0311652 -2.11747e-23)
(-0.0978917 -0.0255209 -1.35143e-20)
(0.941475 -0.0397565 -2.72559e-21)
(0.688989 0.0109463 7.50216e-23)
(-0.0361369 -0.0839809 3.08712e-20)
(-0.0528844 -0.0852036 7.57879e-21)
(-0.038636 0.0149372 9.52352e-21)
(-0.0533495 0.113201 6.66749e-21)
(0.551042 0.0395464 -9.02127e-22)
(0.999989 -0.00759707 -8.85664e-24)
(0.933138 -0.0336413 -2.72069e-22)
(0.736816 -0.000621421 6.54591e-23)
(-0.0253961 -0.00904085 -1.80462e-20)
(-0.159912 0.000630635 4.84143e-20)
(-0.0744322 0.0446904 2.66017e-22)
(-0.0532258 0.0216358 -7.73412e-21)
(0.123063 0.0480002 1.95299e-20)
(0.692164 0.0365886 1.16333e-20)
(0.800107 -0.00587528 1.65728e-24)
(-0.0351327 0.0770424 1.96659e-20)
(-0.0539471 -0.101376 9.8204e-22)
(-0.029762 0.0812166 -1.62288e-20)
(0.548606 -0.0232577 -1.04991e-20)
(1.016 0.00636899 2.32803e-23)
(0.852686 0.03113 9.82918e-21)
(0.0279274 -0.0641679 1.14739e-20)
(0.331343 0.0936407 -1.55009e-20)
(0.0793412 -0.00301736 -1.64206e-20)
(-0.13599 -0.00489975 1.74856e-20)
(0.438352 -0.0266345 -4.4995e-22)
(0.784878 0.00645045 5.81055e-23)
(0.960533 0.0918038 1.38427e-21)
(0.141078 -0.00817022 6.93019e-21)
(0.745556 0.0102219 8.62164e-23)
(0.923228 -0.00803948 5.81418e-24)
(-0.130098 -0.00188803 6.22762e-21)
(-0.0462358 0.0870484 6.58491e-21)
(0.650704 0.10067 5.97301e-20)
(0.109392 0.01326 -6.41472e-21)
(-0.138109 -0.00699789 1.45938e-20)
(0.0107401 0.0329256 1.1607e-20)
(0.0525412 0.0310109 -2.59073e-20)
(0.898142 -0.00818523 4.8203e-24)
(0.63864 0.0184256 4.20599e-23)
(0.01224 -0.070105 -2.52027e-20)
(0.560338 0.00727244 3.33259e-22)
(0.854093 0.0125856 5.46177e-23)
(0.98748 -0.00903124 6.51891e-23)
(0.749186 0.00133859 3.21247e-23)
(0.917665 0.0194037 -9.6894e-24)
(-0.0463608 -0.110168 4.31521e-21)
(-0.0218884 0.0266771 4.20936e-21)
(0.572433 0.0304032 -4.94682e-22)
(0.0512617 -0.0225302 -1.56121e-20)
(-0.0564616 0.0966472 -2.1242e-20)
(0.114704 0.0299904 -5.01348e-21)
(-0.14943 -0.00281133 -8.27491e-21)
(-0.0174377 -0.0839698 -6.69797e-21)
(0.787853 -0.0091176 3.44148e-22)
(-0.162809 0.00383178 -2.32616e-20)
(0.779072 0.00641123 -3.62646e-23)
(-0.0915428 0.0306777 -6.04823e-21)
(-0.122007 0.00249028 3.04488e-21)
(0.944452 -0.0107975 -5.62312e-23)
(0.0218892 0.0355071 -1.60889e-20)
(0.74258 0.00307775 -2.25407e-22)
(1.00987 0.0067973 -1.17354e-22)
(0.0131504 -0.0693601 -1.63557e-21)
(0.00324007 0.0301021 4.93747e-21)
(0.343195 0.0691573 2.30695e-21)
(-0.0681775 0.0635159 1.29973e-20)
(0.872975 -0.00916139 1.92182e-22)
(0.774325 -0.0896298 -6.70266e-21)
(-0.1484 0.00441619 -5.26191e-20)
(-0.0626568 -0.102291 2.27059e-20)
(-0.0387673 -0.0284943 -7.24721e-21)
(0.778576 0.00647514 5.93765e-23)
(0.786735 -0.00560999 -1.55293e-23)
(0.83568 0.00865969 3.22207e-23)
(-0.0313673 -0.0211927 3.50711e-21)
(1.01124 0.00760387 -1.5586e-23)
(0.33874 -0.010892 -4.05524e-21)
(0.80905 0.00853874 -4.51585e-23)
(0.818108 -0.00682799 -1.30659e-23)
(-0.168318 -0.00106341 -3.85427e-21)
(-0.0393894 0.0907678 7.90156e-21)
(-0.0319475 0.0908474 -2.22765e-20)
(0.102002 -0.0611717 7.37845e-21)
(0.957986 -0.00993061 -5.14755e-23)
(-0.0411519 0.0810346 -6.17688e-21)
(0.842112 -0.0092052 -2.79648e-22)
(0.88759 0.0336472 9.73808e-23)
(-0.135461 0.00966013 2.236e-21)
(-0.162443 -3.59908e-05 -2.10692e-20)
(-0.162968 0.00278582 -8.42883e-21)
(0.38284 0.0306699 -3.09844e-21)
(0.56167 0.027574 -8.17848e-24)
(0.530966 0.0336863 -1.07792e-20)
(0.761002 -0.00341644 2.17704e-23)
(0.754727 0.00346856 -2.51784e-23)
(0.276477 0.0238199 -3.69523e-21)
(0.0217645 0.0615082 -9.6405e-21)
(0.989813 0.00801874 -1.80979e-23)
(0.163141 -0.0132399 2.27736e-20)
(-0.0557066 0.0877571 6.94807e-21)
(-0.156468 0.00349924 -1.66992e-20)
(-0.0721135 0.0656694 -7.48749e-21)
(-0.107381 0.0161237 6.77571e-20)
(0.984225 -0.00965797 -2.67895e-22)
(0.0717145 0.00641304 -7.40985e-21)
(0.973473 -0.0077597 5.1476e-24)
(0.748171 0.00344399 1.13249e-22)
(0.460502 -0.0543581 1.8662e-20)
(-0.0526075 0.124487 -1.37228e-20)
(0.0410335 0.0597644 2.10443e-21)
(-0.129706 0.00236754 -1.53171e-20)
(-0.0948033 0.0461769 1.20203e-20)
(-0.108005 -0.0341434 1.31072e-20)
(0.519829 -0.0382442 1.69262e-21)
(0.960549 0.0175651 3.4112e-23)
(0.770911 -0.00768734 -7.14452e-23)
(0.0307117 0.0621674 -2.37117e-20)
(-0.163822 -0.0025391 1.1142e-20)
(0.055007 -0.0532393 -1.81728e-20)
(-0.0450727 -0.117457 3.09403e-20)
(-0.167974 0.000259189 1.04287e-20)
(0.871107 0.00892175 -4.83334e-23)
(1.00982 0.00772466 1.13555e-24)
(-0.165963 -0.00115376 4.78827e-21)
(0.316525 -0.00697994 -9.74557e-21)
(0.284555 -0.00106446 5.26517e-21)
(0.747255 0.0118322 1.76386e-22)
(-0.0333737 -0.100511 2.58308e-20)
(0.877489 -0.0097082 5.73057e-24)
(0.59969 0.0176102 -3.59475e-23)
(-0.0175901 -0.080023 1.16984e-20)
(1.0076 0.00738104 -2.51214e-23)
(0.850099 -0.0369448 5.72578e-21)
(0.745111 -0.0332478 -5.93322e-21)
(-0.0303231 0.0948313 -2.47203e-20)
(0.980639 -0.0723894 1.19056e-22)
(-0.0528067 0.116958 -3.58099e-21)
(-0.0513667 -0.111297 1.0209e-21)
(0.210575 -0.00495424 -5.38186e-21)
(0.114926 -0.0486087 2.42377e-20)
(1.07419 0.0438802 -1.49468e-20)
(0.900147 0.0255916 3.23095e-24)
(0.959627 0.0182723 1.42316e-23)
(0.850727 -0.00949005 1.31842e-22)
(0.00268267 -0.0755304 1.81871e-20)
(-0.0750211 0.00198878 -8.56515e-20)
(-0.119294 -0.0265293 -1.58855e-20)
(0.249932 0.00307469 6.38882e-21)
(0.882329 -0.00900526 -9.45933e-23)
(1.05478 0.0616288 1.58028e-20)
(1.05148 -0.0586039 -2.61988e-21)
(0.93387 -0.0457651 7.20491e-23)
(1.04499 -0.0672505 -7.14814e-21)
(0.353702 0.0282111 1.03661e-21)
(0.93612 -0.0139082 4.44599e-22)
(0.824194 -0.00962213 7.94474e-23)
(0.926319 0.0125155 7.51183e-23)
(0.909266 -0.0113217 5.37427e-23)
(0.745852 0.000279138 3.28384e-23)
(0.0197868 -0.045043 -2.80525e-21)
(0.899928 -0.0129671 -1.79794e-22)
(-0.0860976 0.0519628 -4.25648e-21)
(0.50793 0.0794968 -1.6393e-20)
(0.713495 -0.0107326 -6.16772e-22)
(0.0528465 0.0549164 -1.24142e-20)
(0.738684 0.00149689 -1.23083e-23)
(0.782764 0.00758162 -2.85597e-22)
(-0.0947367 -0.00113165 1.79412e-21)
(-0.134652 0.00560636 -2.17142e-21)
(0.0387911 -0.0385204 -9.83883e-21)
(0.770748 -0.00827326 2.39931e-23)
(0.707642 0.012847 2.15129e-24)
(-0.051534 -0.0769051 -5.39334e-23)
(-0.0484176 0.0967208 5.35857e-22)
(0.984079 0.00742096 6.43772e-23)
(-0.0487433 0.113115 -2.22917e-20)
(0.963812 0.0153173 -1.44235e-23)
(1.00963 -0.0078169 3.86157e-23)
(0.814604 -0.0417003 2.53626e-21)
(0.915759 0.0210143 -6.50357e-24)
(0.82712 0.00829867 1.64628e-22)
(0.917648 -0.0779094 6.95373e-21)
(0.0151744 -0.0377438 -1.7647e-21)
(0.00566446 -0.0578903 -4.56767e-20)
(0.209697 -0.0133255 8.47168e-21)
(-0.065114 -0.0570576 8.418e-21)
(-0.0549986 0.0197588 1.43046e-20)
(1.00704 -0.0083979 3.32157e-23)
(0.754592 -0.00206584 -9.37862e-25)
(0.929503 -0.0480137 5.48332e-22)
(0.327956 0.0206943 8.59513e-21)
(-0.00938537 0.0776908 1.10668e-20)
(0.669136 -0.00584706 3.32877e-22)
(0.985503 0.0092772 6.75552e-25)
(0.978981 -0.00942689 1.03917e-23)
(-0.0655705 -0.0422678 -1.17202e-20)
(0.976186 -0.00933691 3.21424e-22)
(1.08205 -0.0375189 -6.72807e-21)
(0.424818 0.0217642 1.20589e-21)
(0.653932 -0.100109 -4.00199e-21)
(0.468546 -0.0291723 -8.48567e-22)
(-0.0586903 -0.0897711 -3.96974e-21)
(0.669764 -0.00718791 2.93982e-22)
(1.01047 -0.00714593 -6.11647e-23)
(0.872023 -0.00855362 2.99443e-22)
(0.603416 -0.0149596 3.4721e-23)
(0.75958 0.00386786 2.00613e-23)
(0.144536 -0.00995956 8.59036e-21)
(0.851221 -0.0118235 -1.8292e-22)
(-0.0237031 0.00626442 -3.60561e-21)
(0.599024 0.0350939 -9.27639e-21)
(-0.0597766 0.0299768 -1.08163e-21)
(0.63361 0.0858173 -4.29942e-22)
(-0.062675 0.0494327 -1.09102e-21)
(-0.0418043 0.0156955 -2.21759e-20)
(0.8475 -0.0322232 -1.93709e-21)
(0.743172 0.0494868 1.1288e-21)
(-0.132594 -0.00605244 7.55286e-20)
(0.382106 0.0903917 -1.03592e-20)
(0.209172 -0.0663688 -1.8687e-20)
(0.0254021 0.0369619 -5.16504e-21)
(-0.00451356 0.0710039 3.06424e-20)
(0.594272 0.104423 2.4525e-20)
(0.118114 0.0228443 -2.51094e-20)
(0.25813 0.0780628 1.87115e-20)
(0.80877 0.0109096 -1.88053e-22)
(0.863085 -0.0106752 -3.08488e-23)
(-0.0210994 -0.0171013 2.22911e-20)
(-0.0549579 -0.101758 -2.95098e-21)
(-0.082724 -0.0140385 4.04359e-20)
(0.713112 0.042629 1.14234e-23)
(0.21018 0.078053 -3.17455e-20)
(0.480745 0.0121801 9.52662e-23)
(0.979928 -0.0283275 -3.68831e-23)
(0.612232 0.00711958 7.71493e-22)
(0.989505 -0.0187095 1.03893e-23)
(0.977878 -0.0717404 2.69155e-21)
(0.929221 0.0145716 3.35537e-23)
(0.899151 -0.0127191 -1.07834e-22)
(-0.14081 0.0131281 2.54249e-20)
(0.807352 -0.00906668 2.24597e-23)
(0.750153 0.00209637 5.70755e-23)
(0.401986 -0.0147661 3.07102e-20)
(0.484388 0.103228 6.96313e-21)
(0.929465 -0.0807975 2.38872e-21)
(1.00654 -0.00901389 2.40589e-23)
(0.488482 0.0284369 -4.31122e-22)
(0.0357146 -0.0504831 -5.58883e-21)
(0.603136 0.0272078 -3.38762e-22)
(0.766575 -0.00640468 -1.18839e-22)
(0.962187 0.0164488 -6.74397e-24)
(0.739807 -0.106584 -1.45005e-20)
(0.517001 0.0730223 2.02601e-21)
(0.837717 -0.0985184 -4.46478e-21)
(0.967076 0.0139667 -6.12897e-24)
(0.641891 0.0827379 -3.53595e-23)
(0.177079 0.0150929 -1.88854e-21)
(0.730408 0.00316111 7.04109e-23)
(0.743439 0.00127824 -4.23776e-23)
(0.080462 0.00662502 -8.54058e-21)
(-0.103829 -0.0369656 9.19908e-21)
(-0.0363656 -0.100427 -3.27457e-20)
(0.321698 -0.0187393 9.5649e-21)
(0.0458982 -0.0546539 -9.91579e-23)
(0.763861 0.0839138 9.84845e-22)
(-0.0141878 0.070728 2.08003e-20)
(0.479233 0.0452736 -4.38069e-22)
(0.674435 0.0324218 -6.91513e-23)
(0.904437 0.028764 1.26371e-22)
(0.710245 0.0266505 -1.15652e-23)
(0.265455 0.0915387 1.26349e-20)
(0.776716 -0.0270574 1.62966e-25)
(1.0041 -0.0077873 -9.10564e-23)
(0.9907 -0.0177357 -2.57292e-23)
(0.11543 0.0614645 1.76455e-20)
(-0.171065 0.000898874 3.10975e-20)
(0.544568 -0.0730388 -1.14236e-21)
(0.979153 -0.0698425 -6.20545e-22)
(0.451058 0.0137002 -3.69156e-22)
(0.624468 -0.0530238 4.10103e-22)
(0.41234 0.0105778 -2.73122e-22)
(0.455994 0.00875229 4.76979e-22)
(0.188053 0.0131973 1.19821e-20)
(0.483884 0.00768424 -2.41298e-22)
(0.125105 0.0139956 1.69434e-20)
(0.668689 -0.0528671 1.22273e-21)
(0.773031 0.0280844 -6.08235e-23)
(0.577561 -0.0575001 -4.61191e-21)
(0.519458 0.00347714 -1.00802e-22)
(0.771786 0.0143315 3.62204e-22)
(0.543698 0.00561588 1.11991e-22)
(0.77266 0.0271516 6.15477e-24)
(0.501187 0.07916 -4.72742e-21)
(0.868067 0.0191521 1.75171e-23)
(0.567137 0.0024762 -6.19813e-22)
(0.387016 0.0572501 -7.0321e-21)
(0.647569 0.0802481 1.41679e-21)
(0.595288 0.00543309 -6.10515e-22)
(0.789461 -0.016781 7.16848e-23)
(0.422263 0.00460484 6.31164e-22)
(0.376933 0.000212429 3.17345e-22)
(0.33283 -0.00239627 5.43118e-22)
(0.269131 0.00649756 -5.73062e-21)
(0.212773 0.00982045 -6.95336e-21)
(0.463971 0.00237829 -3.22249e-22)
(0.14293 0.0016432 -1.42945e-20)
(0.490766 0.00211044 1.9381e-23)
(0.636015 -0.0577747 8.07353e-22)
(0.529041 0.000257104 -9.02396e-24)
(0.700878 -0.0523355 -1.6302e-22)
(0.547889 0.00225507 8.09868e-23)
(0.65856 -0.0199274 -3.52252e-23)
(0.715344 -0.0247215 3.07547e-24)
(0.576603 0.00125736 -7.88816e-23)
(0.610858 0.00425211 -6.31584e-22)
(0.598384 0.00102774 2.88571e-22)
(0.955365 -0.0208297 -1.17783e-22)
(0.814445 0.018666 -7.2406e-24)
(-0.163196 -0.000108956 -2.70621e-20)
(0.953555 -0.0089915 -6.03841e-23)
(0.817812 -0.0174005 -1.81446e-22)
(0.809227 0.0202067 8.31073e-23)
(0.613964 0.00103578 5.87542e-22)
(0.819471 -0.00784833 2.5534e-22)
(0.55531 -0.0398814 1.98091e-21)
(0.625338 0.00256959 2.40446e-23)
(0.390218 0.0154833 1.3593e-21)
(0.34169 0.013821 4.19405e-22)
(0.508678 0.0120475 2.79896e-22)
(0.633781 -0.000857474 -2.9197e-22)
(0.81211 0.0180465 -2.35212e-24)
(0.734984 -0.00425958 -5.78989e-23)
(0.837411 -0.068889 -1.49592e-21)
(0.858509 -0.0546401 -9.03409e-22)
(0.0800588 -0.019993 3.11304e-20)
(0.943708 -0.011706 -1.84185e-22)
(0.430037 -0.0181795 -3.16997e-22)
(0.650154 0.000580379 -2.66285e-22)
(0.608203 -0.0140364 -5.02191e-23)
(0.752712 -0.00625045 -1.88959e-22)
(0.818908 0.0177194 2.2548e-23)
(0.26802 0.0319063 -1.05296e-22)
(0.654065 0.0193515 -4.88342e-22)
(0.00372079 0.00385563 -4.77774e-21)
(0.642394 0.00589676 1.14348e-22)
(0.898148 -0.00880786 -7.18525e-23)
(0.832197 0.0119722 7.24428e-23)
(1.0013 -0.00727532 -1.3335e-22)
(0.66199 0.00176099 -6.56757e-23)
(0.698095 0.0358446 1.04322e-22)
(-0.0542132 0.0831666 -1.53784e-20)
(0.975885 -0.00889003 1.88662e-22)
(0.65909 0.0059823 -5.65003e-24)
(0.107846 -0.0050241 8.91265e-21)
(0.664736 0.00111272 3.56913e-22)
(0.814598 0.0120106 -1.75975e-23)
(0.782151 0.00991493 1.36435e-22)
(0.387968 -0.0251902 -4.0543e-20)
(0.787187 0.012566 9.72638e-23)
(1.0155 -0.00707417 -3.63977e-23)
(0.513404 0.0757968 2.4663e-21)
(0.812411 0.0189867 -3.62302e-23)
(0.0133319 0.0580018 4.77427e-21)
(0.653961 -0.0646301 -3.89077e-21)
(0.694201 -0.0562479 -3.9549e-21)
(0.242228 0.0109986 -3.71802e-21)
(0.294761 0.0039393 -6.62073e-21)
(0.166227 -0.0179988 3.53525e-20)
(0.760607 0.0147517 -2.12266e-22)
(0.475934 -0.00169786 7.34596e-22)
(0.49033 0.0267866 -2.68213e-22)
(0.405438 0.0313577 2.09678e-21)
(0.502462 -0.000360486 2.25234e-22)
(0.844195 0.0465203 -3.9149e-22)
(0.55777 0.000827706 2.06539e-22)
(0.346081 0.0895419 -3.55998e-20)
(0.584424 0.00443205 3.06087e-23)
(0.680043 0.000902784 1.57355e-22)
(0.222631 -0.0017891 -5.2096e-21)
(0.278844 -0.00675917 3.22193e-21)
(0.308473 0.045504 8.72302e-21)
(-0.104131 -0.0163636 -1.69616e-20)
(0.729332 -0.0503355 1.97219e-21)
(0.805755 0.0120348 4.88087e-23)
(0.223542 0.0782213 1.78486e-20)
(0.695898 0.0568182 -6.55471e-22)
(0.715094 0.0238674 -2.86495e-22)
(0.605856 -0.0014161 5.99018e-23)
(0.552699 -0.00253721 -1.04548e-23)
(-0.0450153 0.0456446 3.32892e-21)
(0.90138 0.00915964 3.20495e-23)
(0.656173 -0.0463004 -1.37126e-21)
(0.675749 0.00411348 8.45289e-23)
(0.920347 0.0172412 -7.4402e-24)
(0.650715 0.0113021 -3.21345e-22)
(0.679102 0.00621425 -2.23862e-22)
(0.677255 0.00246023 -3.0468e-22)
(0.621664 -0.00206283 -6.02117e-22)
(0.830157 -0.0184969 -2.58157e-23)
(0.719868 -0.023495 3.80995e-23)
(0.747889 -0.0141509 1.32867e-22)
(0.6562 0.00190642 2.15034e-22)
(0.822206 -0.0166821 -1.14997e-22)
(0.00515231 0.0460969 1.73213e-20)
(0.54501 0.0167527 7.52753e-23)
(0.803584 -0.0107037 -3.11633e-22)
(0.617174 0.0141615 1.79378e-22)
(0.636655 0.0108152 4.00671e-22)
(0.852289 -0.0172099 1.22187e-22)
(0.167563 -0.0281286 -1.53134e-20)
(0.675875 0.0445734 2.37963e-22)
(0.586421 0.0535095 -4.9462e-22)
(0.743004 0.0356227 1.35268e-22)
(0.759209 0.0153933 2.74491e-22)
(0.819612 0.0126228 -3.33527e-22)
(0.810121 0.0177245 1.58051e-23)
(0.774362 -0.0154826 -4.97657e-23)
(0.377774 -0.0938974 -5.5939e-21)
(0.737516 -0.0679993 8.34993e-21)
(0.279915 -0.0230568 -1.95755e-21)
(0.821129 -0.0330543 1.5892e-22)
(0.685367 0.00369158 1.87308e-22)
(0.510385 -0.0121185 1.67125e-22)
(-0.0435468 0.105051 8.78488e-21)
(0.647372 0.0451613 -4.237e-22)
(0.977761 0.0306639 -2.56393e-22)
(0.973877 0.0469425 3.65685e-22)
(0.997199 0.0127229 3.86244e-24)
(0.991991 0.0163301 -3.144e-23)
(0.976514 -0.0552431 -2.36735e-21)
(0.988318 -0.0196462 8.05834e-23)
(0.988574 0.0192168 1.47414e-25)
(1.00513 0.00997483 1.94705e-23)
(0.981655 -0.0268279 8.39477e-23)
(1.00107 0.0114592 -3.72588e-23)
(0.993196 -0.0149496 -6.01067e-23)
(0.998831 0.0120917 2.70016e-23)
(0.999842 0.00952189 1.5161e-22)
(1.00748 0.00923391 -2.17751e-24)
(0.985173 0.020509 -3.12001e-23)
(0.978686 -0.0302446 9.37366e-23)
(0.992342 -0.0167926 -4.45744e-23)
(0.990383 0.0178525 -4.00017e-23)
(0.981782 -0.0666566 1.71605e-21)
(0.665232 0.00936021 1.3864e-22)
(0.630815 -0.0077299 1.35343e-22)
(0.113038 0.00641857 -2.54778e-20)
(0.184719 -0.0135438 -1.06893e-20)
(1.00643 -0.00795446 1.488e-22)
(0.950826 0.00822886 5.04e-23)
(0.728279 0.0125091 -8.87455e-22)
(0.681921 -0.0733021 1.1215e-21)
(0.348807 -0.000587211 1.81057e-22)
(0.571173 0.0551901 -3.33727e-22)
(0.392356 -0.00131348 -3.80755e-22)
(0.704036 0.0250947 -1.45407e-23)
(0.980312 0.0268092 -4.71147e-22)
(0.977609 0.0292575 -4.50627e-23)
(0.97767 0.0443798 -7.15584e-22)