/*--------------------------------*- C++ -*----------------------------------*\
  =========                 |
  \\      /  F ield         | OpenFOAM: The Open Source CFD Toolbox
   \\    /   O peration     | Website:  https://openfoam.org
    \\  /    A nd           | Version:  10
     \\/     M anipulation  |
\*---------------------------------------------------------------------------*/
FoamFile
{
    format      ascii;
    class       volScalarField;
    location    "300";
    object      epsilon;
}
// * * * * * * * * * * * * * * * * * * * * * * * * * * * * * * * * * * * * * //

dimensions      [0 2 -3 0 0 0 0];

internalField   nonuniform List<scalar> 
10435
(
5.47552e-05
5.21036e-05
0.000141431
0.000253109
0.000421874
0.000304975
0.000154346
0.000341553
0.00045873
0.000207158
9.41321e-05
0.000868105
9.04969e-05
0.00177741
0.0016099
0.000351648
0.00187441
0.000102867
0.000485345
5.64819e-05
0.00032252
0.000288645
0.000315139
0.00106678
0.000242241
0.000269088
0.00139233
9.67337e-05
0.00115761
0.000149608
0.000537481
0.000132964
0.000369891
0.00111414
0.000631701
0.000160515
0.000650134
0.00137999
9.63885e-05
0.000663879
0.000163722
0.000177053
0.00176273
0.000109783
0.000603172
0.000896765
0.000223937
0.00160481
0.00038673
0.000301897
0.000377163
0.000528704
9.93604e-05
0.000651125
0.000122299
0.000970233
0.000871548
0.00165355
0.00168959
0.000810705
0.000132896
5.2323e-05
0.00168326
0.000615276
0.000442258
0.000150407
0.00157547
0.00197426
0.000295974
0.00113595
0.000599374
0.000703079
0.00113459
0.00020466
0.00133733
0.00162201
0.00110893
0.000173509
0.000361731
0.00101195
0.000584501
4.94347e-05
0.000105523
0.000709119
0.000768998
0.000353679
0.000139052
9.5667e-05
0.000984578
7.71218e-05
0.000142799
0.00021661
3.88368e-05
0.000646419
6.2052e-05
0.000383837
0.000315263
0.00151806
0.0016781
0.000408303
0.00127315
0.000344775
0.000313476
6.97218e-05
0.000362996
0.000168682
4.8105e-05
0.000426583
0.000943587
0.000649432
0.000201843
0.000307066
0.000106841
0.000296823
0.000294984
0.000191896
0.000531004
0.000154833
8.12701e-05
0.000570488
0.00063888
0.00126453
8.0379e-05
0.0010561
0.000141842
0.000199953
0.000445508
0.00127397
0.000506004
0.00106454
0.00123432
0.000104262
0.000383851
0.00129152
0.000980799
0.000169615
0.00037332
0.000365587
6.20585e-05
0.000122248
7.83476e-05
0.000528459
0.0014672
0.000791936
0.000413596
0.00171646
0.000725971
0.000495218
0.00197936
0.000893808
0.00123799
0.000792575
6.85793e-05
0.000849411
0.000392517
0.000732135
0.000189983
5.9271e-05
0.000282278
5.15888e-05
0.000833878
0.00147744
0.00017146
0.000886053
0.000925853
0.000635401
0.000436757
0.000644185
0.0010879
0.00072031
0.00032086
0.000809564
0.00126819
0.00156593
0.00100145
4.00229e-05
7.68469e-05
0.00204259
0.000126375
0.00138761
6.66865e-05
0.000360076
0.000908032
0.00018332
0.000688605
0.00141857
0.00144398
0.000210056
0.000473595
0.000679466
0.00075143
0.000117681
0.00088976
0.000147165
0.000249626
0.000251989
0.00191011
0.000713358
0.00190642
0.000480034
0.000971586
0.00136875
9.44064e-05
0.00159119
0.000113356
0.000277661
0.000117493
0.000501344
0.00172364
0.000564079
0.000946177
0.000227482
0.000783427
0.00098848
0.00142601
0.00190102
0.000473536
0.000293416
0.000268424
0.00159928
0.00118466
0.00200893
0.0017362
0.0014043
0.000488814
0.000487241
0.000156374
0.00107869
0.000569421
0.00157536
0.0020542
0.000461818
0.000202809
0.000958115
0.00134439
0.00192044
0.00105552
0.000419298
0.00112832
0.000398352
7.53924e-05
0.000336837
0.000432498
0.000869547
0.000220498
0.000405425
0.000765661
0.000248499
0.000883453
4.09758e-05
0.000687164
0.000576899
0.000106884
0.000732558
0.000209936
0.000600855
0.000698505
0.00018437
0.000630195
0.00141396
0.000161741
0.000422933
0.000286851
0.00107946
0.000191756
0.00196087
6.1187e-05
0.000389351
0.000173304
0.000376624
0.000142624
0.000281495
0.000233055
0.000188495
0.000354862
0.000675774
0.00119343
0.000323303
0.000282042
0.000306695
0.000144207
0.00197518
0.000123178
0.00134725
0.000261414
0.000219229
0.000493237
0.000123197
0.000759095
0.00122366
0.00114741
7.34603e-05
0.00165632
0.000257261
9.74693e-05
0.000573467
0.00182833
8.42328e-05
0.000238873
0.000316841
0.0019735
0.00112756
0.000106828
0.00107003
0.000179516
0.00175653
0.00200304
0.00104785
0.000233916
0.000783194
7.62037e-05
0.00103925
6.43031e-05
0.000505072
0.000525749
0.000645634
0.000248738
0.000736993
0.00199957
0.000775131
0.000369674
0.00148289
0.000115874
0.000132683
0.000326252
0.000111436
0.000461224
9.64081e-05
0.0018769
0.00147879
0.00064941
0.00134064
0.00078434
0.000128331
0.000948992
0.00181505
0.000744627
0.000851975
0.000920864
0.00120421
0.00058205
0.000715514
0.000142156
0.00127186
0.00123081
0.00104121
0.00189364
0.00137907
0.000150814
0.000350478
0.000821182
0.00014338
0.00134159
9.11289e-05
0.000336072
0.000351136
8.0119e-05
0.000285388
0.000756087
0.000960082
0.000814537
0.0001982
0.00111923
0.000191319
0.00138434
0.000721243
0.00182024
0.00101674
0.000704484
0.000371043
0.000153925
0.000883808
7.53238e-05
0.000341199
0.000279551
0.00133142
0.00158865
0.00138653
0.000935491
0.000360552
0.0015101
0.00014407
0.000337104
0.00187582
0.000282071
0.000343515
8.79947e-05
8.48256e-05
0.000350561
0.000100087
0.000567605
0.00147583
0.000996107
0.00101463
0.00067461
0.000109722
0.000853298
8.0427e-05
0.00143632
0.0014807
0.00102906
0.00152149
0.000374398
0.000225077
0.0014756
0.00031411
0.00107782
0.000639585
0.000455134
0.00130818
0.000384435
0.00121311
0.000563605
0.000474355
0.00105224
0.00173907
0.00129342
0.000113602
0.000608081
0.000526302
0.00125007
0.00115956
7.38107e-05
0.000427089
0.00022854
0.000327031
0.000923848
1.55671e-06
1.51568e-06
1.45713e-06
1.31141e-06
1.14856e-06
1.00421e-06
8.79711e-07
7.46839e-07
5.60213e-07
1.57606e-06
1.46755e-06
1.35942e-06
1.2143e-06
1.06157e-06
9.18747e-07
7.85991e-07
6.50758e-07
4.94734e-07
1.524e-06
1.38279e-06
1.24697e-06
1.10069e-06
9.57706e-07
8.2351e-07
6.97313e-07
5.73121e-07
4.43945e-07
1.44714e-06
1.29149e-06
1.14049e-06
9.94961e-07
8.60815e-07
7.37333e-07
6.22204e-07
5.1141e-07
4.01049e-07
1.37645e-06
1.21211e-06
1.05222e-06
9.0848e-07
7.81666e-07
6.67837e-07
5.63092e-07
4.63384e-07
3.64827e-07
1.33167e-06
1.15741e-06
9.90699e-07
8.47983e-07
7.25947e-07
6.18814e-07
5.21355e-07
4.28986e-07
3.37632e-07
1.32437e-06
1.13786e-06
9.63355e-07
8.19008e-07
6.98048e-07
5.935e-07
4.99154e-07
4.09982e-07
3.2205e-07
1.36702e-06
1.16484e-06
9.78763e-07
8.2823e-07
7.03422e-07
5.96391e-07
5.00151e-07
4.09313e-07
3.20134e-07
1.48025e-06
1.25295e-06
1.04872e-06
8.85566e-07
7.50644e-07
6.34957e-07
5.30742e-07
4.31992e-07
3.34617e-07
1.6897e-06
1.42159e-06
1.19076e-06
1.00672e-06
8.5383e-07
7.21859e-07
6.02136e-07
4.87585e-07
3.72952e-07
2.0202e-06
1.69634e-06
1.43125e-06
1.21629e-06
1.03561e-06
8.77815e-07
7.33191e-07
5.93163e-07
4.50937e-07
2.48493e-06
2.11202e-06
1.80912e-06
1.55113e-06
1.33023e-06
1.13459e-06
9.53339e-07
7.75766e-07
5.93178e-07
3.07181e-06
2.72369e-06
2.38093e-06
2.06338e-06
1.78564e-06
1.53669e-06
1.30402e-06
1.0736e-06
8.33919e-07
3.96204e-06
3.64003e-06
3.22803e-06
2.82174e-06
2.46322e-06
2.14049e-06
1.83736e-06
1.53493e-06
1.21745e-06
5.42533e-06
5.00467e-06
4.44862e-06
3.90615e-06
3.4338e-06
3.01088e-06
2.6131e-06
2.21328e-06
1.78686e-06
7.69842e-06
6.9438e-06
6.13406e-06
5.39731e-06
4.77322e-06
4.22049e-06
3.70085e-06
3.17616e-06
2.61298e-06
1.08526e-05
9.50823e-06
8.34805e-06
7.37116e-06
6.56502e-06
5.85756e-06
5.19066e-06
4.51187e-06
3.77994e-06
1.45674e-05
1.26375e-05
1.11256e-05
9.90763e-06
8.91621e-06
8.04818e-06
7.2215e-06
6.3629e-06
5.41433e-06
1.86492e-05
1.62903e-05
1.45227e-05
1.3125e-05
1.19914e-05
1.09958e-05
1.00301e-05
8.9931e-06
7.79772e-06
2.31516e-05
2.05803e-05
1.87014e-05
1.72418e-05
1.60694e-05
1.50407e-05
1.40182e-05
1.28631e-05
1.14517e-05
2.84177e-05
2.58321e-05
2.40032e-05
2.26494e-05
2.16211e-05
2.0753e-05
1.98649e-05
1.87548e-05
1.7222e-05
3.50525e-05
3.26019e-05
3.10001e-05
2.9991e-05
2.94183e-05
2.90772e-05
2.87267e-05
2.80669e-05
2.67769e-05
4.39914e-05
4.17156e-05
4.05632e-05
4.02762e-05
4.07017e-05
4.15642e-05
4.2547e-05
4.32213e-05
4.31171e-05
5.67421e-05
5.43633e-05
5.39711e-05
5.50528e-05
5.74313e-05
6.0715e-05
6.45268e-05
6.82821e-05
7.13699e-05
7.55486e-05
7.21363e-05
7.31194e-05
7.67048e-05
8.2691e-05
9.0459e-05
9.96942e-05
0.000109863
0.000119314
0.00010358
9.85899e-05
9.63877e-05
9.70784e-05
0.0001007
0.000107096
0.000115839
0.000126224
0.000137402
0.000148438
0.000158506
0.000166965
0.000173385
0.000177573
0.000179527
0.000179443
0.000177659
0.000174611
0.000170765
0.000166545
0.000162228
0.000157804
0.000153213
0.000148342
0.000142897
0.000136069
0.000126836
0.000116643
0.00010624
9.5831e-05
8.50857e-05
7.45994e-05
6.46081e-05
5.51387e-05
4.63598e-05
3.84346e-05
3.14289e-05
2.53375e-05
2.01395e-05
1.58014e-05
1.22696e-05
9.46896e-06
7.30527e-06
5.67347e-06
4.46774e-06
3.59064e-06
2.95913e-06
2.5069e-06
2.18321e-06
1.95084e-06
1.78313e-06
1.66154e-06
1.57362e-06
1.5114e-06
1.47028e-06
1.44745e-06
1.44131e-06
1.45123e-06
1.47647e-06
0.00012614
0.000125197
0.000127993
0.000134682
0.000145146
0.000158856
0.000174879
0.000192101
0.000208918
0.000223806
0.000235529
0.000243272
0.000246658
0.000245732
0.000240886
0.00023283
0.000222507
0.000211002
0.000199391
0.000188577
0.000178419
0.000168616
0.000159018
0.000149771
0.000140764
0.000131681
0.000122133
0.000112017
0.000101446
9.0627e-05
7.98531e-05
6.94535e-05
5.96361e-05
5.05285e-05
4.2235e-05
3.483e-05
2.83469e-05
2.27865e-05
1.81262e-05
1.43158e-05
1.12771e-05
8.90937e-06
7.10023e-06
5.73772e-06
4.71994e-06
3.96073e-06
3.39129e-06
2.9591e-06
2.62551e-06
2.36295e-06
2.15242e-06
1.98126e-06
1.84141e-06
1.72823e-06
1.63943e-06
1.57332e-06
1.52844e-06
1.50404e-06
1.49919e-06
0.000133366
0.000133733
0.000138583
0.000148102
0.000162144
0.000179974
0.000200212
0.000221007
0.000240378
0.000256553
0.000268223
0.000274646
0.000275692
0.000271691
0.000263352
0.000251636
0.000237626
0.000222417
0.000206998
0.000192156
0.000178332
0.000165629
0.000153935
0.000143048
0.000132689
0.000122525
0.000112288
0.00010189
9.13887e-05
8.09177e-05
7.06712e-05
6.08718e-05
5.17076e-05
4.33179e-05
3.58045e-05
2.92292e-05
2.361e-05
1.8924e-05
1.5112e-05
1.20846e-05
9.73099e-06
7.93183e-06
6.57103e-06
5.54504e-06
4.76717e-06
4.16839e-06
3.69588e-06
3.31086e-06
2.9863e-06
2.70479e-06
2.45647e-06
2.23683e-06
2.04469e-06
1.88041e-06
1.74466e-06
1.63777e-06
1.55942e-06
1.50887e-06
1.48429e-06
0.000127703
0.000126199
0.000128524
0.000134788
0.000144876
0.000158267
0.000173972
0.000190617
0.000206646
0.000220582
0.000231234
0.000237817
0.000240031
0.000237985
0.000232133
0.000223193
0.000212022
0.000199501
0.000186435
0.000173459
0.000160977
0.000149168
0.000138042
0.0001275
0.000117372
0.000107462
9.76166e-05
8.7776e-05
7.79788e-05
6.83422e-05
5.90371e-05
5.02526e-05
4.21597e-05
3.48905e-05
2.8531e-05
2.31152e-05
1.8626e-05
1.50004e-05
1.21415e-05
9.93212e-06
8.25022e-06
6.98052e-06
6.02204e-06
5.29089e-06
4.71984e-06
4.25659e-06
3.8619e-06
3.50817e-06
3.17831e-06
2.8646e-06
2.56696e-06
2.29039e-06
2.04199e-06
1.82823e-06
1.65319e-06
1.51807e-06
1.4218e-06
1.36211e-06
1.33532e-06
0.000115008
0.000111392
0.000110645
0.000112815
0.000117829
0.000125398
0.000134969
0.000145745
0.000156766
0.00016705
0.000175719
0.000182098
0.000185771
0.00018661
0.000184708
0.000180368
0.000174035
0.000166225
0.000157449
0.00014815
0.000138663
0.000129198
0.000119859
0.000110663
0.00010157
9.25223e-05
8.34838e-05
7.44713e-05
6.55622e-05
5.68866e-05
4.86097e-05
4.09062e-05
3.39325e-05
2.78027e-05
2.25759e-05
1.82517e-05
1.47751e-05
1.20507e-05
9.96138e-06
8.38467e-06
7.20633e-06
6.32702e-06
5.66427e-06
5.15124e-06
4.73449e-06
4.3721e-06
4.03274e-06
3.69552e-06
3.35019e-06
2.9968e-06
2.6442e-06
2.30696e-06
2.00089e-06
1.73873e-06
1.52752e-06
1.36843e-06
1.25848e-06
1.19295e-06
1.16591e-06
0.000100278
9.4801e-05
9.13447e-05
8.9949e-05
9.05749e-05
9.30968e-05
9.72716e-05
0.00010273
0.000108993
0.000115521
0.000121762
0.000127217
0.00013148
0.000134267
0.000135445
0.000134997
0.000133018
0.00012969
0.000125244
0.000119914
0.000113911
0.0001074
0.0001005
9.32871e-05
8.58095e-05
7.81118e-05
7.02534e-05
6.23278e-05
5.44667e-05
4.68347e-05
3.96147e-05
3.29847e-05
2.70934e-05
2.20346e-05
1.78354e-05
1.44605e-05
1.18248e-05
9.81605e-06
8.3153e-06
7.21011e-06
6.40285e-06
5.81247e-06
5.37281e-06
5.02979e-06
4.7389e-06
4.46414e-06
4.17824e-06
3.86368e-06
3.51397e-06
3.13402e-06
2.73912e-06
2.3516e-06
1.99532e-06
1.68952e-06
1.44471e-06
1.26229e-06
1.13743e-06
1.06298e-06
1.03081e-06
8.53403e-05
7.89879e-05
7.40318e-05
7.04983e-05
6.84108e-05
6.77581e-05
6.84672e-05
7.04034e-05
7.33683e-05
7.70929e-05
8.1257e-05
8.55165e-05
8.95355e-05
9.30154e-05
9.57174e-05
9.74764e-05
9.82072e-05
9.78824e-05
9.65338e-05
9.42328e-05
9.10648e-05
8.71149e-05
8.24674e-05
7.71988e-05
7.13815e-05
6.51127e-05
5.85093e-05
5.17226e-05
4.49285e-05
3.83267e-05
3.21212e-05
2.64941e-05
2.15895e-05
1.74787e-05
1.41565e-05
1.15598e-05
9.58552e-06
8.11955e-06
7.05378e-06
6.2917e-06
5.75381e-06
5.37555e-06
5.10391e-06
4.89422e-06
4.70776e-06
4.51166e-06
4.28052e-06
3.99783e-06
3.65852e-06
3.26969e-06
2.85008e-06
2.42718e-06
2.03126e-06
1.68788e-06
1.41166e-06
1.20527e-06
1.06286e-06
9.75206e-07
9.32306e-07
6.89006e-05
6.24462e-05
5.69741e-05
5.2531e-05
4.91685e-05
4.69359e-05
4.58731e-05
4.59454e-05
4.707e-05
4.90977e-05
5.18329e-05
5.50311e-05
5.84391e-05
6.18063e-05
6.49038e-05
6.75444e-05
6.9573e-05
7.08686e-05
7.13819e-05
7.10629e-05
6.99013e-05
6.79009e-05
6.51023e-05
6.15492e-05
5.72807e-05
5.24175e-05
4.70994e-05
4.15154e-05
3.58567e-05
3.0353e-05
2.52172e-05
2.06268e-05
1.67192e-05
1.35352e-05
1.10293e-05
9.12102e-06
7.70387e-06
6.67618e-06
5.95067e-06
5.44839e-06
5.10991e-06
4.8862e-06
4.73648e-06
4.62444e-06
4.51738e-06
4.38417e-06
4.2024e-06
3.95495e-06
3.63707e-06
3.25696e-06
2.83518e-06
2.40147e-06
1.98941e-06
1.62885e-06
1.33766e-06
1.11953e-06
9.67963e-07
8.72343e-07
8.21298e-07
4.78424e-05
4.22324e-05
3.72989e-05
3.31172e-05
2.9786e-05
2.73916e-05
2.59775e-05
2.55069e-05
2.59511e-05
2.72428e-05
2.91483e-05
3.1521e-05
3.41686e-05
3.69043e-05
3.96252e-05
4.21668e-05
4.45134e-05
4.65889e-05
4.80946e-05
4.88855e-05
4.89387e-05
4.82492e-05
4.68742e-05
4.47533e-05
4.1929e-05
3.84617e-05
3.45209e-05
3.02998e-05
2.59552e-05
2.17143e-05
1.78485e-05
1.44967e-05
1.17679e-05
9.63127e-06
8.00605e-06
6.76747e-06
5.8524e-06
5.23403e-06
4.80951e-06
4.51378e-06
4.32398e-06
4.20964e-06
4.14294e-06
4.0946e-06
4.03111e-06
3.93731e-06
3.79025e-06
3.57957e-06
3.30601e-06
2.96362e-06
2.56791e-06
2.14991e-06
1.74856e-06
1.3972e-06
1.11396e-06
9.04782e-07
7.62211e-07
6.74018e-07
6.2658e-07
0.000548336
0.000465244
0.000400277
0.000348186
0.000305838
0.000270956
0.000240859
0.00021393
0.000189731
0.000167852
0.000152317
0.00014476
0.000144358
0.00014948
0.000155519
0.000160229
0.00016283
0.00016264
0.000159845
0.000155513
0.000151183
0.000148
0.000145082
0.00013828
0.000121582
0.000530099
0.000456336
0.0003933
0.000340638
0.000297124
0.000261001
0.000230371
0.000203789
0.000180536
0.000160893
0.000146098
0.000136616
0.000131845
0.00013056
0.000131211
0.000132685
0.000134264
0.000135495
0.000136278
0.000136846
0.00013759
0.000138766
0.000140065
0.00014003
0.00013492
0.000555846
0.000468386
0.000396698
0.000338157
0.000290426
0.000251255
0.000218639
0.00019112
0.000167984
0.000149151
0.000134734
0.000124559
0.000118067
0.000114459
0.000112946
0.00011298
0.0001142
0.000116357
0.000119316
0.000123046
0.000127528
0.000132607
0.000137694
0.000141208
0.000139822
0.000588143
0.000484597
0.000402173
0.000336366
0.000283664
0.000241133
0.000206444
0.000177945
0.000154666
0.000136104
0.000121882
0.000111527
0.000104454
0.000100062
9.78763e-05
9.76169e-05
9.91403e-05
0.000102348
0.000107145
0.000113397
0.000120849
0.000128965
0.000136596
0.000141361
0.000138253
0.000618738
0.000501532
0.000408634
0.000335338
0.000277531
0.00023169
0.000195044
0.000165602
0.000142056
0.000123546
0.000109398
9.89848e-05
9.17175e-05
8.71017e-05
8.48123e-05
8.46837e-05
8.66761e-05
9.07781e-05
9.69453e-05
0.000105005
0.000114512
0.00012449
0.000133004
0.000136712
0.000129852
0.000641702
0.000514844
0.000413059
0.000333027
0.000270635
0.000221926
0.000183669
0.000153496
0.000129759
0.00011131
9.72817e-05
8.69525e-05
7.97307e-05
7.51717e-05
7.30209e-05
7.3148e-05
7.55605e-05
8.02995e-05
8.73567e-05
9.65392e-05
0.000107261
0.000118213
0.000126848
0.000129241
0.000118816
0.000659876
0.000524041
0.000413814
0.000327765
0.000261583
0.00021072
0.000171406
0.000140888
0.000117215
9.90101e-05
8.52712e-05
7.52152e-05
6.82427e-05
6.39146e-05
6.19958e-05
6.23532e-05
6.50021e-05
7.00013e-05
7.73597e-05
8.68651e-05
9.7837e-05
0.000108766
0.000116761
0.000117767
0.000105279
0.000677561
0.000527581
0.000408324
0.00031726
0.000248548
0.00019662
0.000157061
0.000126789
0.000103609
8.59855e-05
7.28188e-05
6.32907e-05
5.68076e-05
5.28769e-05
5.12515e-05
5.17731e-05
5.44324e-05
5.92801e-05
6.63229e-05
7.53268e-05
8.5553e-05
9.5441e-05
0.000102137
0.000101807
8.84867e-05
0.000687838
0.000519936
0.000392509
0.000298685
0.000229545
0.000178148
0.000139493
0.000110213
8.80461e-05
7.14604e-05
5.9213e-05
5.05307e-05
4.48917e-05
4.15713e-05
4.0307e-05
4.09336e-05
4.33616e-05
4.76301e-05
5.37308e-05
6.13995e-05
6.97897e-05
7.74349e-05
8.16503e-05
7.87898e-05
6.47704e-05
6.95043e-05
7.05788e-05
0.00262044
9.46026e-06
4.18828e-06
6.56702e-06
0.00105441
1.68709e-06
0.00550767
6.92917e-07
10.6291
2.15596e-06
8.20921e-05
1.31653e-06
0.00126207
4.05693e-06
0.218862
9.44248e-06
3.31181e-07
0.0837902
1.16252e-05
5.21041e-06
2.93933
6.14278e-06
1.70216e-06
1.29894e-06
1.82116e-06
7.82809e-05
2.63455e-05
0.258926
2.60703e-07
5.43526e-07
0.00110313
0.000124975
0.715405
1.67423e-06
0.000448048
0.00142751
0.000496407
2.15736e-06
0.402529
5.49324e-08
1.67718e-06
0.00068319
8.8554e-05
4.68473e-06
8.57232
4.05344
4.56226e-05
0.000113255
8.34958
0.00904267
1.32565e-05
8.88643e-06
0.000872283
0.00396281
8.41634e-07
9.49647e-06
1.68582e-06
0.00143655
1.68567e-05
0.00180425
3.24242e-06
3.53796e-06
1.57895e-06
0.00084196
3.82699e-07
1.83187e-05
0.000100565
9.81333e-05
0.00323875
7.22573e-06
1.7235e-06
0.0402958
8.6984e-07
9.95487e-06
0.00796713
5.85172
2.22737e-06
8.54487e-06
0.000103102
5.53764e-05
1.49668e-06
8.84773
7.79411e-06
2.16794e-05
1.63288e-06
5.22922
0.00118919
4.32877e-06
1.51301e-05
8.92452e-07
4.11437e-06
2.40737e-06
1.43556e-06
10.602
1.2416e-06
7.97703
1.61586e-06
0.00134349
2.99648e-05
0.148542
4.09001e-05
8.11869e-06
1.50389e-06
8.57634e-05
2.34228
9.07873e-05
1.59466e-06
0.21174
4.09699e-06
7.02082e-07
0.0605958
8.75708e-06
1.11662e-05
4.25326e-05
0.00142366
1.92509e-06
2.76739e-05
7.40419e-07
3.18199e-07
6.55219e-07
5.4325e-06
1.58215e-06
0.00130661
1.42579e-06
0.0109276
0.000381326
1.69938e-07
4.31788
1.4483e-06
0.0261336
0.000105891
0.000281898
0.00027004
1.74317e-06
7.76899e-05
1.03618e-05
6.65177e-06
0.344076
1.47597e-05
0.000370704
0.00270137
3.84505e-07
2.90434e-05
1.08031e-05
9.8273e-06
9.27766e-05
4.04881e-06
0.672934
6.21785e-06
2.28606e-07
9.64706e-06
0.00372563
8.0405e-07
8.00964
2.26562e-06
1.91072e-06
0.0117347
5.15676e-07
1.22438e-06
0.00476671
3.1597e-06
8.08055
3.89877e-06
10.5025
7.24977e-07
1.85531e-06
1.61812e-05
2.1264e-06
1.46345e-06
4.12269e-06
2.35824e-05
9.48019
3.40796e-07
0.000111281
0.000132511
5.17074e-05
0.000227816
1.43672e-05
0.000241836
4.9778e-07
1.49996e-05
0.000232987
0.000743454
3.51862e-07
10.9959
1.68896e-06
0.000186214
3.40485e-06
0.259848
0.00223857
7.26105e-05
0.000298317
0.00173953
0.000405119
8.2493e-07
4.74974e-06
3.40557e-05
3.44869e-05
0.000171375
2.23531e-05
4.47051e-05
4.75776e-06
1.11613e-05
1.89332e-06
4.40406e-07
3.85002e-05
7.49706e-05
1.80555e-06
1.47684e-06
1.63591e-06
0.000234817
1.06748e-05
9.02505e-06
2.61271
1.32038e-06
9.68763e-08
9.94115e-06
1.15204e-05
1.06437e-05
4.30394e-08
8.38848e-07
0.000524438
1.67681e-06
0.00283383
3.68858e-06
0.187975
1.59253e-06
1.5341e-06
7.52337
1.76038e-06
6.41657e-07
8.79941e-07
0.000489806
1.39955e-06
0.00472093
2.60027e-05
0.000244424
0.00567369
1.92952e-07
1.6905e-05
2.78688e-06
0.000438317
1.80208e-06
1.27565e-06
7.66787e-07
0.000179348
3.52296e-06
1.081e-06
1.63043e-06
0.000130595
3.85665e-07
4.69596e-05
1.98942e-06
1.75452e-06
0.0928096
0.00561585
0.00905653
3.16564e-07
3.97106e-05
1.34235e-07
1.90909e-06
8.22748e-07
0.0199308
1.42183e-06
1.7371e-06
9.52566e-06
0.00100685
1.93818e-06
2.88522e-05
8.76856e-05
2.79325e-06
9.40044e-08
5.86694e-07
9.64453e-06
6.56276e-07
0.0221291
4.61716e-07
0.0499916
0.00120842
6.64993e-06
1.28187e-05
4.78202e-06
0.000241105
1.42857e-05
9.62523e-05
4.20913e-06
8.26514
0.747936
0.00559882
3.15947e-06
2.79285e-07
8.53412
0.000329035
1.31158
0.00705783
5.84666e-07
5.83768e-07
0.000554915
0.00991611
1.30917e-06
8.48949e-07
6.82298e-06
0.0169881
2.1268e-06
1.07699e-05
1.84305e-07
0.311295
5.19597e-05
7.58229e-06
5.55224e-06
0.000529195
2.32612e-07
2.47661e-06
0.000245811
8.56194
5.32896e-07
1.72897e-06
0.000634917
0.00738508
2.83084e-06
8.72973e-07
2.5184e-07
1.4671e-06
1.39454e-06
0.00112898
9.94519e-05
5.52702e-07
1.14392e-05
3.62194e-06
0.00162655
7.46094e-06
9.26866e-07
3.23807
2.81881e-05
1.45753e-06
1.70568e-06
2.91972e-07
2.84712e-05
1.783e-06
3.09264e-06
0.000700319
3.61545e-06
0.0125047
1.36224e-06
3.96623e-06
3.64696e-06
2.05122e-06
10.6123
1.05396e-05
3.94014e-06
1.46039e-06
0.00564456
8.30528
1.4836e-06
0.000897674
0.00047284
2.38849e-06
11.7966
8.55042e-05
3.81969
4.89547e-07
0.00211482
3.15763e-08
2.09984e-06
7.91811e-06
7.87514
1.74712e-06
0.000146827
5.53407e-06
0.00352232
3.00636e-05
0.020421
7.84879e-05
1.11561e-06
8.26233e-07
9.09655e-06
2.84743e-07
1.08426e-06
0.00637203
3.30689e-06
0.00125886
0.00085688
0.000595862
0.000637526
4.9004e-06
0.0603942
14.298
0.207774
9.33141e-05
1.83056e-06
3.0288e-05
0.00117935
0.000228507
3.95995e-07
1.99346e-06
0.00100682
1.67729e-06
2.76324e-05
1.75906e-06
2.52306e-06
6.64843e-06
8.72314e-05
3.30863e-06
1.421e-08
0.00141762
4.17321e-05
3.36544e-06
1.90957e-07
0.000325118
1.83201e-06
0.000501444
5.39478e-06
2.52022e-06
9.46007e-07
5.87047e-05
10.4536
4.94058e-07
8.18514e-07
5.20592e-06
3.59685e-07
5.69156e-06
5.50684e-05
8.99338e-06
0.763653
1.75614e-07
1.79614e-06
1.91076e-07
4.76073e-07
3.73281e-06
1.78618e-06
4.66485e-06
3.00679e-06
0.00395635
5.94539e-06
4.21037e-06
2.28343e-07
2.88988e-06
7.23671e-07
5.93206e-07
0.00565801
7.65534
5.35956e-05
0.000107773
2.44426e-05
4.08781e-05
0.000360896
1.51275e-06
1.72129e-06
0.0154946
8.61638e-07
2.99343e-06
0.000401753
3.95874e-06
8.39611e-05
11.8001
2.13673e-05
1.58932e-05
0.000437356
3.28182e-06
0.000655442
0.000251191
0.000218242
0.106465
2.31045e-06
1.80405e-06
0.000955525
5.48073e-07
13.7691
0.00011696
2.47871e-06
3.43811
7.61069e-07
1.58316e-06
9.12636e-05
3.33335e-06
2.50598e-06
0.000111754
7.41667e-05
1.46986e-05
0.000590949
8.1652e-08
2.39474e-06
8.2287
2.24118e-06
5.10755e-05
6.91204e-06
0.000146598
1.25241e-05
0.00124836
2.45032e-06
8.80477e-07
0.000948005
1.6574e-06
1.69117e-06
0.00104053
6.99931e-06
3.30458e-06
0.000127513
1.4098e-06
0.00441821
2.35408e-06
0.000281489
0.000118466
0.000157937
4.51012e-06
3.01206e-06
0.00141627
7.71545e-07
4.1579e-06
0.000133929
3.07343e-07
2.6554e-06
4.83593e-07
7.85037
0.0139759
7.68047e-05
1.07795e-06
4.23132e-05
3.61215e-06
0.89473
0.10858
7.87958e-06
0.000123141
7.14195e-06
0.305424
0.00961113
1.80154e-06
6.44634e-06
0.000121375
1.17897e-05
9.77181e-06
0.000477374
7.46468e-07
2.40949e-05
2.94899e-06
0.000313526
4.2599e-05
2.50239e-06
0.000592617
0.257285
4.76093e-06
2.46258
2.11506e-06
0.000210514
2.42631e-06
7.87073e-06
5.27718e-06
0.0295536
0.000568558
0.000679031
1.69892e-07
5.65024e-05
7.04969e-05
8.31702
8.74552e-07
6.49358e-06
5.47425e-05
0.000140116
2.06862e-07
0.00027654
2.842e-06
7.47705e-05
0.432423
4.12916e-07
4.23103e-05
1.59118e-06
5.36701e-07
6.76415e-05
0.000734437
8.62138e-06
0.000689218
1.72263e-06
2.10405e-06
0.0697947
10.4001
0.000171476
9.77294e-06
9.22696e-05
0.535725
1.40913e-05
2.05293e-05
4.45982e-06
1.49518e-06
0.000995887
4.20941e-06
5.49505e-06
0.000442898
1.3906e-05
1.69666e-05
2.26018e-05
3.42474e-06
0.00239575
7.13935e-06
1.66302e-06
9.65853e-05
9.10046e-05
2.43299e-06
4.20676e-07
0.000779719
5.4078e-05
1.30527e-07
1.51782e-06
0.000203951
2.44104e-06
2.03486e-05
2.63188e-07
3.49575e-06
7.19701e-07
1.66064e-06
0.000557522
1.3246e-06
1.29073e-05
6.07706e-05
1.49585e-05
9.72897e-08
4.40744e-06
0.000118916
4.65751e-06
2.39739e-06
2.89073e-06
3.11089e-06
4.79346e-07
4.78285e-06
0.00108837
11.0758
6.51996e-05
0.000814092
5.57414e-06
1.8498e-06
2.66032e-06
1.4746e-06
1.02172e-05
7.30735e-07
2.54443e-05
4.47872e-06
8.43521e-07
1.70935e-07
0.000924159
4.04159e-05
3.9508e-06
0.000777392
4.05813e-06
5.59646e-06
1.28506e-07
2.30082e-05
4.55746e-05
0.00103741
0.00230612
0.0057061
1.19854e-06
6.65703e-07
1.23419e-06
7.46486e-06
2.45549e-07
10.1683
4.17924e-07
1.43812e-05
5.37172e-07
0.000261635
7.18245e-06
8.27511
2.99792e-07
2.61223e-06
1.53167e-06
0.00398823
0.000391195
0.000539499
1.26456e-05
5.16176e-06
8.46916e-07
4.52618e-06
0.00490573
8.37566e-08
2.32975e-06
0.000319201
1.33854e-06
4.59733e-06
1.17758e-06
2.38612e-06
1.5043e-05
1.22335e-06
1.62681e-06
1.53557e-06
5.1887e-06
7.63419e-06
3.24681e-05
1.43217
5.82896e-07
0.00158489
4.30169e-07
11.4034
1.42296e-06
5.25896e-06
1.09597e-06
1.09249e-06
0.000450645
6.90527e-06
5.13588e-06
1.69972e-06
1.62182e-05
1.73972e-06
7.12511e-06
9.4741e-06
0.00786511
0.000677582
2.20376e-06
3.49752
0.00220945
0.000146641
1.41783
4.96507e-07
2.40624e-06
2.47003e-06
4.64762e-08
2.29226e-06
0.0010929
9.13817e-06
1.20486e-06
6.15328e-05
1.96959e-06
1.91744e-07
0.00053847
9.85639e-07
1.94533e-07
1.57556e-06
1.52255e-06
0.000131989
0.00560272
6.52565e-07
0.000346065
0.000633907
4.52664e-05
1.7767e-05
0.0255709
8.61758
9.48893e-06
8.92849e-08
3.59551e-06
9.95065e-09
1.1167e-05
2.90646e-06
0.000317181
6.74184e-05
3.6588e-06
0.0208638
2.75499e-05
9.4339e-08
1.62908e-06
2.09355e-06
11.7329
6.70505e-05
1.39787e-06
0.0013133
0.00382387
2.58435e-05
0.000621622
5.94154e-10
9.27637e-07
0.000586867
3.12221e-07
7.45907e-05
3.86876e-06
2.86792
0.0027858
1.57945e-06
0.00294969
8.33113e-07
3.9113e-07
0.000530616
1.45493e-05
1.62156e-05
4.09816e-07
2.28534e-06
0.000378861
4.02679e-06
8.2085e-07
1.45877e-06
2.05499e-06
5.86217e-05
1.61917e-06
0.00770699
0.00196639
5.0527e-06
1.07009e-05
4.04895e-06
0.269286
1.89531e-05
2.70889e-06
6.88516e-06
5.43245e-05
4.71457e-06
5.63605e-07
1.0952e-05
9.94276
4.54616e-05
0.000501846
1.00335e-05
0.000109875
0.000244042
0.00450124
4.26677e-05
0.000289052
5.934e-07
3.7124e-06
3.53561
1.138e-06
1.89488e-06
3.83524e-05
0.000427861
0.00260567
8.76589e-07
2.53077e-06
0.000118636
2.673e-06
0.000235887
0.00048973
1.27876e-05
8.22341e-07
0.0198438
4.00836e-05
0.000175205
2.92808e-06
3.03255e-07
1.2225e-06
9.21163e-05
0.000542004
1.09258e-06
2.43152e-06
1.59798e-06
0.000411676
3.29929e-07
0.000505298
0.000110237
6.77686e-07
2.56237e-06
1.10943e-05
8.9032e-07
3.94979e-05
7.87743e-07
4.23607e-05
1.50319e-06
8.2496e-07
0.000263311
7.29375e-06
3.34233e-06
3.03991e-06
0.000159581
4.03993e-05
4.13524
1.22532e-07
1.5137e-06
2.69604e-06
0.000785823
0.330504
0.000483805
7.45028e-07
0.000132658
0.00173152
6.9729e-09
1.06725e-06
1.93764e-06
7.76587
1.52796e-06
0.379868
5.79479e-06
1.61386e-07
0.0002785
3.05159e-06
8.00746e-06
1.15895e-05
7.48612e-05
0.00763629
0.00557212
11.2225
9.2203e-07
0.000678082
0.000474162
4.2534e-06
0.000921269
1.2499e-06
2.21211e-06
0.00161552
5.18336e-06
9.12174e-06
2.11241e-05
5.92092e-05
8.86941e-07
6.39856e-07
0.000562478
4.08459e-07
8.76629e-06
0.000805096
4.62615e-05
0.000768711
3.8083e-06
7.63673e-05
3.32202
2.44942
0.00030862
3.09258e-05
0.00011257
5.3322e-07
4.18736e-07
7.02795e-05
0.000165768
4.41372e-07
1.18527e-05
3.08162e-07
0.000449763
7.78596e-06
0.000352854
0.000199907
3.70533e-07
1.28547e-06
4.67081e-06
0.00040996
0.00023317
0.000449057
3.40201e-05
1.19409e-05
7.62674e-05
3.92893e-05
1.59896e-05
6.72188e-05
8.33167e-06
5.56634e-07
5.70072e-06
3.13617e-06
8.40725e-07
0.000130245
10.4094
1.23043e-06
0.000448311
4.47181e-06
0.0039326
2.13489e-06
1.30185e-06
1.73392e-06
0.000713739
0.000272198
5.50777e-05
3.67522e-05
1.07772e-06
2.62131e-06
0.00438243
2.01427e-07
0.00076915
0.000316856
0.0142536
7.1555e-07
1.24165e-05
0.00521744
5.02979e-06
1.42028e-05
4.00879e-05
0.0138637
7.20663e-07
1.94666e-05
0.00307404
0.00163324
1.77315e-06
1.80534e-05
1.77289e-07
8.85378e-06
1.79629e-06
3.5474e-06
1.84713e-05
5.2253e-07
0.00012694
0.000320608
0.136409
0.000722893
3.36873e-06
5.93095e-05
0.000128498
6.55915e-07
2.7607e-05
2.99153e-06
2.38664e-06
0.0546051
6.08099e-06
0.000357494
3.99786e-07
1.98891e-06
6.13265e-05
1.63229e-06
1.06008e-05
2.89677e-06
0.000832457
0.00162369
0.00126906
8.91652e-07
0.00111129
8.80348e-07
2.5118e-05
3.88764e-06
0.000952258
0.000252778
1.49186e-05
0.226696
2.47651e-07
9.78388
2.03946e-06
4.37363e-05
3.60381e-05
2.12186e-06
9.06586e-07
0.000423358
0.00186236
7.89981e-07
5.20715e-06
0.00460391
2.84121e-07
3.02405e-06
8.76348e-07
2.07335e-06
2.61189e-06
4.74258
1.18547e-05
2.24213e-06
0.00373098
0.000159727
11.3619
1.0235e-06
4.94396e-06
1.30284e-06
1.17593e-06
2.13141e-05
1.43129e-06
0.0033486
1.26267e-06
0.000576825
2.61914e-07
2.15928e-05
7.40752e-05
0.000529747
2.76815e-06
4.6004e-06
1.48224e-06
1.8399e-05
2.87336e-07
1.26486e-05
0.370265
8.16442e-06
2.80167e-05
1.20356e-06
0.00519039
0.00898813
9.66535e-05
0.000529304
5.8399e-06
4.82158e-05
4.28005
10.9144
3.53891e-06
3.4948e-06
5.92393e-05
0.000395401
1.38751e-05
0.000146977
4.12012e-06
0.00029013
0.000238742
4.91761e-06
2.41458e-06
5.89657e-06
1.1054e-06
2.81959e-07
9.15302e-07
4.7243e-05
5.3506e-07
0.000568787
1.55438e-06
7.11435e-07
3.75978e-07
9.26522e-07
1.95942e-05
2.20442e-07
0.255049
0.000154067
3.14947e-06
7.40939e-06
3.80563e-05
7.52015
4.67011e-07
3.08171e-07
8.88627e-06
1.25574e-05
7.81474e-06
7.85338e-05
0.0169576
1.23339e-06
1.33028e-06
3.38593e-05
2.18411e-06
7.73028e-06
0.00401075
4.60597e-07
1.95385e-06
5.1407e-07
5.96944e-06
0.000224734
2.44849e-05
0.000999046
2.2168e-06
6.8478e-05
2.02637e-07