/*--------------------------------*- C++ -*----------------------------------*\
  =========                 |
  \\      /  F ield         | OpenFOAM: The Open Source CFD Toolbox
   \\    /   O peration     | Website:  https://openfoam.org
    \\  /    A nd           | Version:  10
     \\/     M anipulation  |
\*---------------------------------------------------------------------------*/
FoamFile
{
    format      ascii;
    class       volScalarField;
    location    "300";
    object      k;
}
// * * * * * * * * * * * * * * * * * * * * * * * * * * * * * * * * * * * * * //

dimensions      [0 2 -2 0 0 0 0];

internalField   nonuniform List<scalar> 
10435
(
0.0904268
0.11275
0.203358
0.283864
0.414727
0.348845
0.2038
0.289252
0.334874
0.275654
0.171538
0.599371
0.186323
0.196624
0.177039
0.308614
0.213068
0.199222
0.3426
0.107414
0.28582
0.299062
0.298282
0.605818
0.289431
0.177102
0.259542
0.182053
0.218187
0.237444
0.436392
0.211141
0.299886
0.195958
0.428058
0.082096
0.446496
0.273134
0.155166
0.426306
0.253835
0.219754
0.237884
0.17121
0.439716
0.528292
0.297288
0.254884
0.297762
0.301564
0.309756
0.458024
0.149685
0.173945
0.160212
0.19922
0.536288
0.285469
0.213688
0.498393
0.156175
0.0954965
0.275998
0.506257
0.363906
0.215408
0.213784
0.286159
0.269195
0.645812
0.171184
0.221985
0.180042
0.24619
0.152809
0.202667
0.649214
0.21106
0.292876
0.12427
0.452848
0.069176
0.144353
0.176074
0.532676
0.0960698
0.0935342
0.162797
0.130702
0.0985616
0.207168
0.266639
0.0794187
0.111621
0.11083
0.0901567
0.334596
0.169201
0.202122
0.397778
0.150473
0.374629
0.0970249
0.131482
0.386559
0.221539
0.0984276
0.374149
0.599776
0.0975013
0.234309
0.34968
0.0665855
0.0754137
0.329341
0.232343
0.463829
0.0907491
0.151912
0.476301
0.515354
0.171408
0.0946282
0.129597
0.223596
0.167121
0.410739
0.162085
0.455431
0.256579
0.149647
0.18592
0.31814
0.148605
0.246322
0.125854
0.0787671
0.355529
0.124176
0.176857
0.135362
0.419361
0.214368
0.574391
0.373665
0.191271
0.102352
0.449697
0.226615
0.609633
0.23999
0.522235
0.0971395
0.587336
0.388803
0.212124
0.265428
0.10559
0.325189
0.120628
0.561875
0.168578
0.239619
0.592014
0.122954
0.516793
0.331173
0.501067
0.659723
0.551669
0.339136
0.164466
0.234022
0.175164
0.638708
0.0971
0.0851788
0.261725
0.175786
0.237013
0.138073
0.382401
0.616702
0.161632
0.494601
0.224136
0.199394
0.229498
0.443561
0.5263
0.560328
0.139762
0.241297
0.0682447
0.310432
0.249021
0.225872
0.113518
0.263882
0.37125
0.128823
0.267027
0.184969
0.281157
0.192886
0.323252
0.190484
0.4309
0.270956
0.451662
0.211864
0.250936
0.575425
0.63309
0.256039
0.210497
0.0952575
0.15832
0.177148
0.185721
0.216379
0.247187
0.24779
0.161412
0.197233
0.36617
0.164553
0.136039
0.463858
0.188356
0.271337
0.347969
0.169104
0.593393
0.276601
0.227464
0.611958
0.193337
0.651605
0.372438
0.135281
0.179673
0.165593
0.191883
0.280736
0.312434
0.111855
0.244207
0.17685
0.0806391
0.167083
0.106269
0.199129
0.528403
0.226495
0.503337
0.154357
0.214581
0.194281
0.261969
0.204311
0.39495
0.177438
0.650163
0.0822113
0.24867
0.111413
0.349843
0.151674
0.384555
0.196097
0.257567
0.236262
0.250691
0.188413
0.525993
0.26409
0.35604
0.269345
0.268353
0.226157
0.244759
0.187581
0.156315
0.0924816
0.143711
0.454389
0.161142
0.176362
0.213413
0.138699
0.150734
0.256646
0.246802
0.159644
0.169004
0.207824
0.0821134
0.29955
0.32267
0.279384
0.662468
0.180683
0.20135
0.253079
0.191806
0.239021
0.635801
0.27101
0.173399
0.130163
0.24517
0.0706506
0.458754
0.369453
0.172514
0.165659
0.53767
0.274463
0.559632
0.389805
0.254276
0.0906223
0.135135
0.276044
0.197102
0.202633
0.177586
0.251256
0.279851
0.424494
0.212682
0.168244
0.191998
0.61362
0.288448
0.177997
0.178742
0.171879
0.222951
0.215004
0.218621
0.152792
0.23539
0.226707
0.236705
0.283583
0.278021
0.130568
0.285485
0.16687
0.218453
0.251071
0.17797
0.278916
0.279096
0.178255
0.291771
0.182972
0.190112
0.178799
0.168571
0.212003
0.147188
0.246371
0.227134
0.288035
0.64578
0.224152
0.293354
0.163885
0.24234
0.174854
0.270765
0.143841
0.256479
0.275746
0.268716
0.19333
0.188382
0.300329
0.160974
0.282501
0.27064
0.259491
0.280524
0.179682
0.180593
0.281807
0.180389
0.393885
0.171235
0.199125
0.204651
0.175752
0.183312
0.18977
0.179015
0.292715
0.249817
0.253959
0.236432
0.174547
0.242577
0.273663
0.273397
0.654044
0.175797
0.199806
0.277623
0.291953
0.27604
0.211002
0.190703
0.205895
0.275964
0.233712
0.188509
0.171687
0.205712
0.227962
0.186101
0.172532
0.142302
0.128231
0.25965
0.18124
0.0555808
0.0532991
0.0504514
0.0463024
0.041821
0.0373938
0.0330364
0.0283859
0.0226939
0.0605378
0.0572569
0.0535994
0.0492109
0.0445853
0.039936
0.0352484
0.0303378
0.0248661
0.0633016
0.0593982
0.0551435
0.050505
0.0457983
0.0410787
0.0363143
0.0314043
0.0262183
0.0647111
0.0604183
0.0557141
0.0508874
0.0461451
0.0414508
0.0367432
0.031943
0.0269776
0.0653798
0.060772
0.0557222
0.0507688
0.0460232
0.0413966
0.0367929
0.0321204
0.0272973
0.0657285
0.0607914
0.0554714
0.0504347
0.0456972
0.0411385
0.0366309
0.032064
0.0273482
0.0659783
0.0607373
0.0552062
0.050106
0.0453659
0.0408468
0.0363996
0.0319034
0.0272768
0.066322
0.0608398
0.0551355
0.0499675
0.0451954
0.0406696
0.03623
0.0317528
0.0271693
0.0670511
0.0613013
0.0554373
0.0501796
0.0453356
0.040748
0.0362524
0.03172
0.0270812
0.068392
0.0622718
0.0562617
0.0508888
0.0459317
0.0412274
0.0366113
0.0319453
0.0271409
0.0703356
0.0638276
0.0577383
0.0522368
0.0471337
0.0422665
0.0374768
0.0326181
0.0275851
0.0724978
0.0659856
0.0599845
0.0543679
0.0490994
0.0440367
0.0390368
0.0339507
0.0286717
0.0740554
0.0688262
0.0631406
0.0574366
0.0519866
0.0467013
0.0414621
0.0361208
0.0305729
0.0767301
0.0728726
0.0674469
0.0616079
0.0559293
0.0503788
0.0448607
0.0392326
0.0333908
0.0822696
0.0787019
0.0731311
0.0669891
0.0609819
0.0550927
0.0492315
0.0432538
0.0370356
0.0911884
0.0864554
0.080189
0.0735218
0.0670581
0.0607396
0.0544629
0.0480854
0.0414877
0.102516
0.095592
0.0882668
0.0809302
0.0739179
0.0670995
0.0603469
0.0535224
0.0465415
0.11349
0.104925
0.0967057
0.0887611
0.0812165
0.0738962
0.0666525
0.0593479
0.0519192
0.122661
0.113446
0.104828
0.0965341
0.0886037
0.0808747
0.0732016
0.0654516
0.0575668
0.129705
0.120744
0.112233
0.103917
0.0958274
0.0878585
0.0798877
0.0718001
0.0635582
0.135029
0.126906
0.118861
0.110796
0.102785
0.0947816
0.086689
0.0784043
0.0699113
0.139313
0.13227
0.124872
0.117238
0.109518
0.101696
0.0936935
0.0854037
0.0768266
0.14338
0.137283
0.130545
0.123442
0.1162
0.108785
0.101116
0.0930698
0.084677
0.148369
0.142469
0.13621
0.1297
0.123117
0.116363
0.109329
0.101834
0.0939481
0.15587
0.148413
0.142358
0.136525
0.130786
0.124977
0.118991
0.112557
0.105389
0.0389374
0.0371232
0.0359133
0.0353938
0.0356612
0.0368025
0.0388678
0.0418463
0.0456721
0.0502256
0.0553719
0.0609791
0.0669262
0.0731126
0.0794502
0.0858716
0.0923261
0.0987778
0.1052
0.111566
0.117815
0.123797
0.129347
0.134281
0.138329
0.140943
0.141405
0.140388
0.138257
0.135088
0.130587
0.125183
0.119077
0.112308
0.105084
0.097653
0.0901952
0.08283
0.0756858
0.0689068
0.0626373
0.0570084
0.0521202
0.0480334
0.0447667
0.0423001
0.0405838
0.0395489
0.039111
0.0391807
0.0396668
0.040483
0.0415548
0.0428216
0.0442431
0.0457871
0.0474309
0.049158
0.0509505
0.0420482
0.0409189
0.0404805
0.0408224
0.0420248
0.0441343
0.0471513
0.0510365
0.0556494
0.0608186
0.0663694
0.0721418
0.0779968
0.0838187
0.0895188
0.0950428
0.100377
0.10556
0.110671
0.115803
0.120773
0.125346
0.129344
0.132728
0.135373
0.137063
0.137532
0.136654
0.134429
0.130933
0.126341
0.120907
0.114833
0.108282
0.101432
0.0944548
0.0875078
0.0807359
0.0742846
0.0682892
0.0628585
0.0580643
0.0539384
0.050478
0.0476558
0.0454311
0.0437569
0.0425836
0.0418595
0.0415309
0.0415428
0.0418415
0.0423783
0.0431167
0.0440349
0.0451127
0.0463296
0.0476734
0.0491291
0.0424002
0.0415495
0.0414776
0.0422712
0.0439969
0.0466668
0.0502178
0.0545163
0.0593844
0.0646323
0.0700838
0.0755909
0.0810379
0.0863396
0.0914385
0.0963019
0.10092
0.105306
0.109488
0.113495
0.117312
0.120865
0.124037
0.12669
0.128652
0.129718
0.129703
0.128515
0.126153
0.122684
0.118243
0.113023
0.107227
0.101052
0.0946922
0.0883357
0.0821517
0.0762857
0.0708555
0.0659437
0.061592
0.0578029
0.054548
0.0517814
0.0494508
0.0475069
0.0459084
0.0446236
0.0436294
0.0429087
0.0424476
0.0422337
0.0422549
0.0424998
0.0429588
0.0436244
0.0444898
0.0455494
0.0467837
0.0406772
0.0396786
0.0393871
0.0398747
0.0412018
0.04339
0.046403
0.050143
0.0544653
0.0592039
0.0641951
0.0692932
0.0743792
0.0793622
0.0841786
0.0887888
0.0931748
0.0973338
0.10127
0.104982
0.108438
0.111573
0.114292
0.116474
0.117978
0.118652
0.118364
0.117037
0.114664
0.11131
0.107105
0.102233
0.0969063
0.0913403
0.0857459
0.0803126
0.075195
0.0705036
0.0662997
0.0625977
0.0593722
0.0565711
0.0541279
0.0519731
0.0500429
0.0482851
0.0466639
0.0451627
0.0437853
0.0425539
0.0415038
0.040675
0.0401044
0.0398186
0.0398312
0.0401439
0.0407493
0.0416363
0.0427766
0.0374262
0.0362287
0.0356286
0.0356829
0.0364476
0.0379543
0.0401987
0.0431317
0.0466633
0.0506767
0.0550447
0.0596436
0.0643622
0.0691055
0.0737957
0.0783716
0.0827857
0.0869999
0.0909808
0.0946904
0.0980782
0.101076
0.103596
0.105537
0.106785
0.10723
0.106781
0.105392
0.103075
0.0999014
0.0960064
0.091575
0.086824
0.0819776
0.0772445
0.072797
0.0687544
0.0651777
0.0620743
0.0594076
0.0571125
0.0551088
0.0533116
0.0516391
0.0500182
0.0483907
0.0467198
0.0449967
0.0432448
0.0415198
0.0399033
0.0384895
0.0373663
0.0365988
0.03622
0.0362338
0.0366242
0.0373687
0.0384271
0.0333457
0.0319377
0.0310178
0.03064
0.0308507
0.0316865
0.0331628
0.0352673
0.0379575
0.0411661
0.0448089
0.0487944
0.0530297
0.0574257
0.0618993
0.0663738
0.0707786
0.0750471
0.0791149
0.0829159
0.0863767
0.0894151
0.0919404
0.0938555
0.0950624
0.0954754
0.0950317
0.09371
0.0915405
0.088612
0.0850718
0.0811154
0.0769684
0.0728548
0.0689668
0.0654448
0.0623634
0.0597383
0.0575391
0.0557013
0.054142
0.0527709
0.0514965
0.0502313
0.0488956
0.0474251
0.0457798
0.0439524
0.0419757
0.0399251
0.0379129
0.0360737
0.0345381
0.0334055
0.0327264
0.0325046
0.032713
0.0333158
0.0342628
0.0288224
0.0273201
0.0262109
0.025542
0.0253584
0.0256949
0.0265747
0.0280054
0.0299753
0.0324532
0.0353912
0.0387287
0.0423966
0.0463207
0.0504242
0.0546292
0.0588566
0.0630255
0.0670547
0.07086
0.0743517
0.0774343
0.0800096
0.0819777
0.0832414
0.0837267
0.083386
0.082216
0.0802619
0.0776289
0.0744789
0.0710156
0.0674727
0.0640642
0.0609517
0.0582386
0.0559563
0.0540875
0.0525848
0.051371
0.0503605
0.0494639
0.0485919
0.0476583
0.0465817
0.0452941
0.0437533
0.0419501
0.0399194
0.0377423
0.0355429
0.033475
0.0316957
0.0303298
0.029443
0.0290405
0.0290872
0.0295362
0.0303293
0.0236966
0.0221896
0.0209955
0.0201559
0.0197158
0.0197084
0.0201595
0.0210815
0.0224768
0.0243332
0.0266263
0.0293166
0.0323571
0.0356935
0.039266
0.0430117
0.0468592
0.0507251
0.0545279
0.0581707
0.0615582
0.0645865
0.0671577
0.0691679
0.0705043
0.0711034
0.0709223
0.0699737
0.0683039
0.0660398
0.0633547
0.0604544
0.0575818
0.0549226
0.0525762
0.0506067
0.0490075
0.0477421
0.0467647
0.045989
0.045342
0.0447442
0.0441189
0.04339
0.0424872
0.0413407
0.0399185
0.0382054
0.0362337
0.0340845
0.0318835
0.0297866
0.0279559
0.0265273
0.0255736
0.0250981
0.0250588
0.0254019
0.026065
0.017337
0.015935
0.0147732
0.013893
0.0133381
0.0131439
0.0133245
0.0138793
0.0148273
0.0161779
0.0178812
0.0199172
0.0222493
0.0248411
0.0276822
0.0307285
0.0339863
0.037408
0.0408176
0.0440914
0.0471545
0.0499309
0.0523617
0.0543151
0.0556977
0.0564174
0.0564475
0.055806
0.0545082
0.0526793
0.0505876
0.0484263
0.0464386
0.0447059
0.0432441
0.0419722
0.0409163
0.0401853
0.0396118
0.0390756
0.0385835
0.038083
0.0375181
0.0368254
0.0359172
0.0347929
0.0334187
0.0318142
0.0300338
0.0280769
0.0260305
0.024047
0.0223061
0.020949
0.0200353
0.0195841
0.0195514
0.0198834
0.0204973
0.175711
0.163613
0.154244
0.146236
0.138933
0.131962
0.124852
0.117372
0.109602
0.101621
0.0949244
0.09027
0.0874938
0.0860916
0.0846754
0.0827085
0.0801066
0.0767926
0.0728748
0.0686358
0.0644269
0.0604715
0.0565343
0.0517022
0.0447377
0.166562
0.158561
0.150516
0.142791
0.135388
0.128164
0.120911
0.113501
0.10598
0.0986785
0.0922226
0.0869663
0.0828555
0.0795913
0.0767681
0.0741221
0.071499
0.0688014
0.0660052
0.0631496
0.0602947
0.0574562
0.0545082
0.0510693
0.0463152
0.165056
0.155762
0.14697
0.138633
0.130662
0.122923
0.115279
0.107679
0.100237
0.0932259
0.0869409
0.0815365
0.076986
0.0731411
0.0698313
0.0669454
0.0644046
0.062135
0.0600715
0.058159
0.0563386
0.0545162
0.0525058
0.0499276
0.0460713
0.163901
0.15268
0.142643
0.133427
0.124791
0.116546
0.108569
0.100836
0.0934534
0.0866104
0.080475
0.0751194
0.0705158
0.066581
0.0632377
0.0604424
0.0581623
0.0563461
0.0549165
0.0537726
0.052786
0.0517791
0.0504723
0.048394
0.0446337
0.162007
0.149127
0.137817
0.127672
0.11838
0.109696
0.101472
0.0936685
0.0863511
0.0796413
0.0736407
0.0683873
0.0638616
0.0600181
0.0568202
0.0542502
0.0522898
0.0508955
0.0499873
0.0494422
0.0490828
0.0486479
0.047739
0.0457587
0.0417564
0.158792
0.144686
0.132273
0.121295
0.11144
0.102422
0.0940451
0.0862345
0.0790097
0.0724403
0.0665915
0.0614885
0.0571213
0.053464
0.0504956
0.0482032
0.0465675
0.0455448
0.0450529
0.0449553
0.0450426
0.0449966
0.0443348
0.0423734
0.038079
0.154755
0.139456
0.125965
0.114233
0.103925
0.0946843
0.0862507
0.0785018
0.0714131
0.0650163
0.0593563
0.0544546
0.0503096
0.0468993
0.0442016
0.042196
0.0408532
0.0401245
0.0399269
0.0401161
0.0404607
0.0406159
0.0400595
0.0380739
0.033665
0.150428
0.133355
0.118681
0.106286
0.0956652
0.086334
0.0779429
0.0703278
0.063428
0.0572488
0.0518241
0.0471793
0.0433261
0.0402207
0.0378275
0.0361098
0.0350205
0.0345047
0.0344809
0.0348035
0.0352308
0.0354163
0.0348447
0.0328199
0.0284328
0.145155
0.125879
0.110035
0.0971737
0.0864487
0.0771953
0.0689672
0.0615465
0.0548672
0.0489461
0.0437889
0.0394526
0.0359947
0.0332684
0.0312178
0.0297961
0.0289186
0.0285346
0.0285687
0.028879
0.0292086
0.0292413
0.0284562
0.026161
0.0217038
0.169315
0.170539
0.117044
0.0299852
0.00587665
0.00822484
0.168305
0.00883722
0.155878
0.0123633
5.43205
0.00938043
0.122915
0.00751934
0.270234
0.00625927
0.965495
0.0292531
0.0121589
0.470316
0.0507584
0.0162082
1.83071
0.0177231
0.00970075
0.00588841
0.00990315
0.0236268
0.0929691
1.10914
0.0190875
0.00486621
0.32274
0.180038
1.13134
0.00523187
0.22573
0.280942
0.288674
0.011186
0.790894
6.95968e-05
0.00856287
0.0982122
0.0588963
0.0314986
4.22428
2.34427
0.0988542
0.186266
4.19818
0.746914
0.0609734
0.0280446
0.160281
0.136481
0.00694346
0.051376
0.00723134
0.451556
0.00958497
0.103053
0.00541837
0.0106461
0.0084501
0.128874
0.0120874
0.0276972
0.132155
0.170542
0.12678
0.0217763
0.00650522
0.467721
0.00750959
0.0483467
0.515677
3.19518
0.00702305
0.0268832
0.162126
0.0215244
0.00734461
4.16671
0.00695658
0.0115066
0.00693147
2.93745
0.340777
0.0326638
0.0261614
0.0224819
0.010657
0.00978263
0.00532286
5.46512
0.00572466
4.17167
0.001737
0.454715
0.015019
0.679747
0.0176104
0.0257882
0.00720829
0.0467766
1.52695
0.15145
0.00330769
1.06008
0.0137339
0.00543488
0.661319
0.0260949
0.0569853
0.0976061
0.41388
0.0110837
0.0857127
0.00513269
0.000560594
0.00562902
0.0168871
0.00930686
0.334728
0.00789291
0.74389
0.106271
0.0062291
2.46642
0.00736455
0.433005
0.171704
0.262288
0.0559434
0.00707587
0.05289
0.00860784
0.00662078
0.785231
0.0264556
0.223111
0.514123
0.000668024
0.0908677
0.0100321
0.0310551
0.128115
0.00605933
1.33388
0.0157644
0.0089278
0.0308867
0.614431
0.00787108
3.96095
0.00868103
0.00954796
0.928177
0.00479855
0.00756223
0.14684
0.00982638
4.21115
0.0103144
4.57119
0.00718798
0.00983858
0.0159065
0.00809341
0.00735632
0.0121274
0.0279505
4.32788
0.0199427
0.0429382
0.167877
0.125877
0.201915
0.0264768
0.235631
0.00452354
0.0652018
0.216717
0.13924
0.00284008
4.68346
0.00332015
0.196459
0.00537625
0.734626
0.514222
0.103373
0.194653
0.329024
0.240436
0.00744512
0.0152731
0.0933041
0.116481
0.164295
0.0298996
0.0182632
0.00540149
0.0241
0.00923994
0.0125853
0.0157417
0.127132
0.00956198
0.00721194
0.00740735
0.238828
0.0238762
0.0197641
1.64314
0.00510243
0.00314397
0.0334931
0.0509642
0.00983165
2.82163e-05
0.00794297
0.0692361
0.010832
0.514119
0.0192857
0.872453
0.00299351
0.00577868
3.82522
0.00533732
0.00454506
0.0052114
0.273441
0.0122606
0.812097
0.0143233
0.218699
0.550549
0.0181447
0.00972383
0.00902786
0.0814521
0.00691095
0.00668177
0.00561613
0.0981
0.00618078
0.00625588
0.00256789
0.0496864
0.0116385
0.10458
0.00450975
0.00910401
0.732786
0.512636
0.917357
0.0131521
0.0286688
0.0063714
0.00620489
0.00786405
0.452504
0.00866027
0.00799086
0.0313296
0.157891
0.00998841
0.0755842
0.116319
0.0026975
0.00303308
0.0110611
0.0312792
0.012821
0.290215
0.00679908
0.830778
0.173275
0.0162398
0.0256059
0.0303967
0.209691
0.00807701
0.0481675
0.0170618
4.49865
1.01516
0.347567
0.0099341
0.000512617
4.6305
0.280886
1.09117
0.463872
0.0214868
0.00495399
0.345552
0.726825
0.00768946
0.00591763
0.00595364
0.403215
0.00818103
0.0486899
0.0159719
0.757356
0.0194119
0.0230239
0.0238816
0.262583
0.00621926
0.00231684
0.190834
4.1856
0.0112644
0.00967773
0.439769
0.755736
0.00913176
0.00604927
0.0175157
0.006394
0.00841319
0.390397
0.158846
0.0225842
0.0544405
0.00997551
0.309296
0.00931567
0.0122705
2.06973
0.0137546
0.00707399
0.00733004
0.000674764
0.027886
0.00735338
0.0111889
0.390058
0.0237054
0.421667
0.00524106
0.00620367
0.00496472
0.00773824
4.59101
0.0366052
0.0105738
0.00141505
0.76316
4.53109
0.0102292
0.562232
0.0727383
0.0085275
4.83991
0.138513
2.27477
0.00482901
0.481216
2.00072e-05
0.00808933
0.0110833
3.99364
0.00648544
0.190883
0.027562
0.642892
0.101949
0.276612
0.122686
0.00739674
0.00657945
0.0147317
0.00410268
0.0122522
0.437162
0.00991175
0.315506
0.116084
0.0864524
0.428958
0.0113654
0.419358
6.32875
0.68253
0.0587745
0.00869829
0.0641459
0.224264
0.226702
0.0122399
0.00791308
0.289232
0.0084728
0.094575
0.00897307
0.0100299
0.00658274
0.191392
0.0115623
0.000129702
0.232486
0.0664274
0.0297419
0.0169237
0.192539
0.00628492
0.329902
0.00639054
0.00841515
0.00846978
0.10408
4.54829
0.00458529
0.0204761
0.0117834
0.00432243
0.0318623
0.0193066
0.0128519
1.19093
0.000448844
0.00902304
0.0186739
0.00482749
0.00532177
0.00891288
0.0363713
0.00782837
0.282286
0.00953337
0.0141642
0.000429253
0.00469605
0.00605896
0.00504254
0.574526
4.21521
0.0281484
0.138173
0.0379072
0.0168393
0.137411
0.00715351
0.00662292
0.243439
0.00634122
0.00944961
0.288315
0.0238744
0.16251
4.8521
0.0109137
0.0251698
0.159936
0.0103367
0.13506
0.185187
0.233609
0.886554
0.00935616
0.00714968
0.0834045
0.00494241
6.1605
0.092097
0.00925984
2.07257
0.00637812
0.00917742
0.149132
0.0367872
0.00950903
0.141243
0.117121
0.0223448
0.295779
0.000214292
0.009959
4.01084
0.00485255
0.0187165
0.0218782
0.219423
0.0256974
0.313366
0.00793351
0.00695101
0.224943
0.00651408
0.00626652
0.287857
0.00612408
0.0103849
0.186927
0.00808098
0.305837
0.00593684
0.0562371
0.160211
0.20466
0.00534754
0.00547357
0.222283
0.00544011
0.0123219
0.186586
0.0181649
0.0330658
0.00291074
4.03743
0.37929
0.114934
0.00739889
0.0474214
0.0155436
1.10368
0.52042
0.0312599
0.177506
0.0279329
0.979995
0.578182
0.00905
0.0153531
0.0419068
0.0268677
0.0310958
0.0897605
0.00505615
0.0306044
0.010554
0.243841
0.101643
0.00783923
0.41909
1.1611
0.0150859
1.57223
0.00172564
0.0537847
0.00844167
0.00992258
0.00573286
0.333494
0.262531
0.290577
0.00631901
0.114442
0.112482
4.10166
0.00806433
0.0214992
0.108838
0.167493
0.0195921
0.252777
0.0105909
0.128727
1.32323
0.0124667
0.045114
0.00674182
0.0049809
0.0309324
0.296079
0.0306863
0.24439
0.00664872
0.00479006
0.674286
4.51
0.186069
0.00903631
0.0336817
0.896864
0.0646325
0.0272336
0.01569
0.00813235
0.275023
0.0136632
0.00752845
0.372957
0.0225292
0.0169929
0.0141455
0.0107364
0.587873
0.0240155
0.00678222
0.154972
0.123892
0.00491341
0.00444365
0.407818
0.0206166
9.12056e-05
0.00817772
0.0984879
0.00489289
0.00978959
0.0127301
0.0153507
0.00598721
0.00869783
0.28799
0.00699508
0.0137363
0.0341354
0.0609165
0.00321986
0.00672074
0.0479537
0.0130732
0.0100964
0.00914554
0.0234814
0.0102495
0.0134326
0.435265
4.58434
0.0211382
0.258008
0.0133481
0.00958519
0.00991415
0.00267992
0.00999614
0.00483916
0.0742916
0.0209559
0.00778944
0.0082957
0.375139
0.0430753
0.009969
0.119072
0.013766
0.00723873
0.00321316
0.0265494
0.0315256
0.435972
0.54848
0.802728
0.00302601
0.0121473
0.00127295
0.0296124
0.013273
4.46949
0.0146471
0.0532687
0.0050945
0.227392
0.0237879
4.37476
0.000633351
0.00984811
0.00834318
0.45162
0.136866
0.0933155
0.060942
0.0137436
0.0105526
0.0056815
0.649488
0.000124207
0.00808617
0.257877
0.00530648
0.0280804
0.0120618
0.00241662
0.0619488
0.00729316
0.00716115
0.0074738
0.0111701
0.0135665
0.0959113
1.09633
0.005096
0.259272
0.00438308
5.4296
0.00771261
0.0221752
0.00631251
0.00527685
0.381232
0.00633203
0.0135693
0.00728978
0.0265926
0.00472126
0.0231315
0.0259165
0.486196
0.254486
0.0125466
2.19901
0.306703
0.214355
1.22661
0.0108791
0.00898983
0.00993842
0.000260335
0.0075587
0.157162
0.00819201
0.00547747
0.113604
0.0168229
0.0190005
0.116764
0.00634878
0.0172795
0.00824281
0.0122752
0.184525
0.484069
0.00972151
0.258175
0.106582
0.117929
0.0583755
0.604972
4.66651
0.0313057
0.00299808
0.00574467
5.07144e-05
0.0238855
0.00925032
0.261311
0.167811
0.0211133
0.890963
0.0263051
0.00321374
0.00849883
0.00597769
4.78689
0.0426452
0.00710184
0.149989
0.792186
0.0811555
0.354809
1.70807e-05
0.00592164
0.133984
0.000498007
0.174788
0.0324367
1.79368
0.593503
0.00842255
0.611942
0.00372843
0.000800131
0.0978158
0.0148529
0.0108594
0.00450726
0.00941705
0.0637569
0.00569819
0.00501289
0.00818273
0.00675044
0.0291991
0.00821959
0.72672
0.299839
0.0150741
0.0319998
0.011519
0.731131
0.0128321
0.0213881
0.0276751
0.101663
0.0161752
0.00086109
0.0263364
4.43698
0.0399863
0.280648
0.00742167
0.142024
0.231509
0.956767
0.0409712
0.249137
0.00789479
0.0250966
2.15026
0.00119208
0.00935539
0.040577
0.244435
0.116114
0.00491778
0.00505606
0.186126
0.0102314
0.0549552
0.196148
0.0267137
0.00471331
0.275235
0.120689
0.274172
0.00917702
0.00423369
0.00212742
0.130856
0.243367
0.00673036
0.0104035
0.00580753
0.258886
0.00420886
0.0906499
0.219229
0.00972784
0.0086756
0.0338226
0.00939479
0.0911717
0.00495182
0.0892305
0.00815878
0.00742814
0.236796
0.0211778
0.0224905
0.0102619
0.0629333
0.0910013
2.46547
0.00311701
0.00777544
0.00886313
0.245541
0.777915
0.0666964
0.00396371
0.159732
0.295111
4.65282e-05
0.00737883
0.00569158
3.87686
0.00802012
0.858619
0.00804184
0.000313327
0.203403
0.00561561
0.0317977
0.031231
0.116205
0.682138
0.487293
4.67088
0.00946729
0.254027
0.230352
0.0264902
0.171656
0.00549063
0.00618583
0.209248
0.00603367
0.0465169
0.0632741
0.0423059
0.00846679
0.00664001
0.263713
0.00736058
0.00652257
0.336848
0.127319
0.483697
0.0187975
0.0449228
2.11393
1.57627
0.276983
0.0824134
0.19333
0.0103614
0.00289387
0.0537187
0.167577
0.0116304
0.0286189
0.00949237
0.186542
0.00935379
0.113938
0.289174
0.000700905
0.00464947
0.0187412
0.294528
0.254494
0.300743
0.0918938
0.0271804
0.024238
0.0463201
0.0443413
0.166673
0.0487191
0.00500569
0.00553671
0.00567657
0.00286959
0.155353
5.09084
0.00307788
0.304552
0.028565
0.781212
0.0169964
0.00528045
0.00906636
0.0999364
0.234945
0.0202441
0.0844412
0.00583546
0.00426595
0.323837
0.0198869
0.508728
0.281174
0.287439
0.00519065
0.026431
0.327087
0.00612001
0.0194246
0.0173335
0.306535
0.0135778
0.0113406
0.709168
0.251525
0.00714596
0.0374404
0.0156785
0.0233422
0.00685977
0.00517136
0.0641523
0.00318483
0.0496575
0.249752
0.577206
0.111041
0.0103527
0.0339954
0.0633501
0.00662934
0.0896435
0.00542223
0.00461142
0.602045
0.00766872
0.0721051
0.00972867
0.0098978
0.115825
0.0121843
0.0261911
0.00340201
0.131116
0.167566
0.384192
0.00802954
0.402082
0.00554455
0.0280586
0.00660415
0.446222
0.226275
0.0243326
1.06828
0.0038316
4.39798
0.00602689
0.105355
0.0216178
0.00973956
0.0127101
0.126843
0.30018
0.00469924
0.0174436
0.274292
0.00419836
0.022767
0.00776746
0.00258943
0.00810507
2.65029
0.0135459
0.00762071
0.812476
0.0480543
4.70688
0.00254296
0.0231908
0.00497952
0.00930399
0.0234183
0.00456297
0.452765
0.00964218
0.0857204
0.0040716
0.0428564
0.0554527
0.334604
0.00902652
0.0141905
0.0229435
0.0204134
0.00401927
0.0289248
0.84792
0.0269027
0.0721476
0.00586082
0.346353
0.29071
0.0347668
0.183762
0.00670929
0.12781
2.48221
4.63948
0.00601611
0.00592632
0.0358395
0.280999
0.0287034
0.0495987
0.0187629
0.0594096
0.194747
0.0103251
0.0120303
0.0074656
0.0116175
0.0196262
0.00843967
0.133269
0.00995062
0.267234
0.00873673
0.00482117
0.00305436
0.0121535
0.0694416
0.00378757
0.734029
0.182133
0.0051218
0.0117963
0.0993653
3.97446
0.00476767
0.00399963
0.0242713
0.0288999
0.0253658
0.0386881
0.760537
0.00569529
0.00940106
0.0927427
0.00584814
0.0204168
0.346196
0.0047968
0.00777641
0.000773226
0.00947665
0.218772
0.0362902
0.374256
0.00997845
0.0313488
0.0200676
0.545
0.617896
0.00864856
0.00994933
0.922362
0.00762491
0.00699352
0.236133
0.113523
0.00714623
0.011638
0.00372747
0.0649095
0.184777
0.013913
0.00893078
0.237393
0.290971
0.000564904
0.00433784
0.0146104
0.0285863
0.0329569
0.0772231
0.00699739
0.944213
0.00614639
0.0255922
0.00510503
0.0661444
0.0050013
3.71395
0.187903
0.304138
0.229027
0.383705
0.0297014
0.00517651
0.580715
0.0857529
0.00760715
0.0191667
0.0036237
0.0284609
0.00635872
0.00588549
0.00589422
0.17447
0.00736164
0.0390811
0.321452
0.00490394
0.0430179
0.0281124
4.68825
0.00248721
3.97786
4.55934
0.00560635
0.00496066
0.039622
0.0260924
0.0362656
0.326513
0.0402817
0.0263832
0.00736254
0.00976576
0.205337
0.5929
0.00868056
0.0255192
0.00820478
0.00453473
0.0162887
0.042547
0.0108248
0.0065203
0.00880993
0.136766
0.0111861
0.0272841
0.501835
0.0057272
0.0669578
0.0245339
0.0312455
0.0460649
0.0275603
0.0907546
0.0104744
0.0325107
0.216381
0.00503653
0.0690376
0.297528
0.00811136
0.0227647
0.0269706
0.231168
0.00593608
0.133846
0.0147305
0.331726
0.189363
0.124403
0.124148
0.00908034
0.0145015
0.295566
0.312005
0.0174215
0.0194155
0.00494037
3.26229
0.0271003
0.0273478
0.00326667
0.0266774
0.0514945
0.003551
0.0067875
0.00449186
0.353682
0.231202
0.0124056
0.0292115
0.0157108
0.00568084
0.00549773
0.216588
0.0281743
0.0309098
0.242652
0.0970137
0.000239574
0.475243
0.105179
0.672866
0.145594
0.00826501
0.241327
0.555247
0.459686
0.00197336
0.161652
0.00861603
0.189467
0.0176594
0.0105408
0.136507
0.240375
1.98738
0.223747
0.0334493
0.00724933
0.14192
0.203989
0.0167114
0.59693
0.0219069
0.621552
0.0110592
0.235814
0.020433
0.00720025
0.00564722
0.226542
0.00663454
0.0110019
0.897894
0.00537236
0.0927371
0.00311344
0.0112716
0.582641
0.119576
0.0291561
0.0730542
0.315784
0.0245583
0.101453
0.0203257
0.0202694
0.0561755
0.0125867
0.182818
0.175916
0.00285272
0.638093
0.0195144
0.0585841
0.0184427
0.0249872
0.00519112
0.0492158
0.0896576
0.331522
0.00472352
0.92463
0.0149438
0.0968644
2.09609
0.0141497
0.0200245
0.387592
0.0127661
0.00827811
3.62782e-05
0.742038
0.21176
0.00666031
0.321344
0.0299116
0.0055194
0.151037
0.0130988
0.00809379
0.149244
0.0283505
0.00599718
0.0119935
0.00583731
0.0144902
0.0295822
0.199445
0.216113
0.035362
0.0112437
0.0044086
0.163206
1.58803
0.00575881
0.0066153
0.0372879
0.371448
0.00682585
0.0782633
0.143717
0.00924843
0.0770895
0.611542
0.00582444
0.0518314
0.00854826
0.0219795
0.00508575
0.00644523
0.0205182
0.0515654
0.221163
0.00204079
0.314371
0.00771141
4.7625
0.0122925
0.204555
0.0145323
0.893312
0.124454
0.00708224
0.01874
0.0220256
0.0171053
0.0114087
0.195091
0.25975
0.0177303
0.00978878
0.027874
0.0208595
0.00888856
0.00287597
0.88097
0.487092
0.158741
0.398924
0.0238737
0.0091457
0.185467
0.0172177
0.114935
0.00311773
0.0237681
0.00719095
0.0185509
0.00586848
0.0176992
0.00792855
0.0112696
0.419125
0.247493
0.0107602
0.0528097
0.111915
0.132811
0.00732182
0.348665
0.175179
0.483536
0.024766
0.178281
0.00700779
0.0279001
0.0250557
0.0221569
0.0146304
0.216696
0.290195
0.0280883
0.0308681
0.909092
0.0368921
0.181168
2.36983
0.0159091
0.00576179
0.0105993
0.0299628
0.221477
0.00781667
0.153418
0.156988
0.0171293
0.00588314
0.0168717
0.0856971
0.0205855
0.0048051
0.012553
0.00495131
0.0278538
0.107305
0.0287578
0.277346
0.00790651
0.0108315
0.0225459
0.00547133
0.00804684
0.11914
0.192199
0.00713952
0.241727
0.0110474
0.452066
0.0235249
0.0241238
0.00602624
0.00830784
0.240693
0.0142672
0.0138389
0.0905086
0.190311
0.0164029
0.011684
0.00844828
0.0209647
0.23676
0.00238733
0.00985172
0.385715
0.00765962
0.0100386
0.0218975
0.24327
0.00722941
0.263224
0.134454
0.00898576
0.0349276
0.0186035
0.0033028
0.565836
0.0282747
0.0102097
0.000192419
0.0679115
0.00875982
0.0276357
0.00753903
0.29589
0.981721
0.00509099
0.00494021
0.265479
0.0208997
0.0413959
0.244052
0.0127591
0.0652908
1.63324
0.0150481
0.200407
0.0131391
0.007825
0.0252893
0.00613634
0.163253
0.178419
0.0120478
0.01188
0.452392
0.0134411
0.0209708
0.00744332
0.0691598
0.171543
0.00971779
0.00480786
0.0111663
0.00872858
0.0101605
0.000139061
0.00585873
0.0283551
0.661698
0.0755131
0.00626807
0.303919
0.0174686
0.219331
2.03169
0.868538
0.407081
0.00868996
2.9207e-05
0.0812022
0.0275228
0.0102941
0.107292
0.00656834
0.037635
0.193685
0.0956247
0.0250282
4.56756
0.00944229
0.451389
0.00478991
0.00382575
0.0929935
0.0466847
0.215231
0.0110418
0.00388088
0.00582754
0.0252883
0.328932
0.0377559
0.0158538
0.191645
0.0764269
0.187806
0.00943337
0.558258
0.0130276
0.00799619
0.052317
0.011675
0.0611744
0.416815
0.111085
0.00809713
0.206589
0.823254
0.0134291
0.710326
0.0337043
0.00207225
0.074874
0.499633
0.016852
0.00649611
0.00457109
0.330457
0.0109692
0.0061466
0.712521
0.101153
0.0148884
0.68504
0.209028
0.0465692
0.0256046
0.191516
0.00611763
0.0946694
0.0065093
0.0123862
0.00675624
0.609174
0.0183581
0.0816112
0.220283
0.00948607
0.064439
0.46814
0.0157147
4.20009
0.00541953
0.07977
0.0177165
0.00787267
0.00911642
0.0121969
0.004675
0.0226949
0.00711875
0.00486191
0.00541661
0.154816
0.105953
0.00537835
0.0701795