/*--------------------------------*- C++ -*----------------------------------*\
  =========                 |
  \\      /  F ield         | OpenFOAM: The Open Source CFD Toolbox
   \\    /   O peration     | Website:  https://openfoam.org
    \\  /    A nd           | Version:  10
     \\/     M anipulation  |
\*---------------------------------------------------------------------------*/
FoamFile
{
    format      ascii;
    class       volScalarField;
    location    "300";
    object      nut;
}
// * * * * * * * * * * * * * * * * * * * * * * * * * * * * * * * * * * * * * //

dimensions      [0 2 -1 0 0 0 0];

internalField   nonuniform List<scalar> 
10435
(
13.4404
21.9589
26.3162
28.6521
36.6931
35.9122
24.2191
22.0464
22.0013
33.0119
28.1337
37.2445
34.5255
1.95761
1.7522
24.3762
2.17979
34.7247
21.7653
18.3845
22.7966
27.887
25.4094
30.9638
31.1231
10.4905
4.35425
30.8363
3.70116
33.9164
31.8884
30.1752
21.8817
3.10192
26.1057
3.77895
27.5979
4.86538
22.4808
24.6375
35.4192
24.5479
2.88926
24.0307
28.8499
28.0099
35.5198
3.64338
20.6335
27.1108
22.8956
35.7114
20.2948
4.18217
18.8891
3.68157
29.6994
4.43549
2.43233
27.5755
16.5179
15.6865
4.07289
37.4899
26.9492
27.7652
2.61087
3.73296
22.0355
33.0444
4.40018
6.30789
2.5713
26.6532
1.57146
2.27906
34.207
23.1065
21.3415
1.37345
31.5764
8.71207
17.7724
3.9347
33.208
2.34859
5.66246
24.933
1.56154
11.3365
27.0497
29.5401
14.6165
1.7347
17.8157
1.90586
31.9604
1.6973
2.19106
34.8772
1.60059
36.6362
2.70275
22.3156
37.0486
26.1864
18.1254
29.5344
34.3115
1.31743
24.4797
35.8387
3.73477
1.72443
33.093
25.3184
36.4637
4.787
25.5561
35.7897
37.4141
2.0911
10.0263
1.43129
31.7223
12.5712
34.0816
1.85598
36.8922
5.56573
1.63287
29.8379
23.731
1.5389
5.56762
8.40451
1.49572
31.1174
22.3622
23.0275
21.0479
29.9507
2.81885
37.4946
30.383
1.91827
1.29872
36.7524
2.33504
37.4227
4.18707
30.9695
12.3834
36.5509
34.6613
5.53134
33.3749
16.9294
33.7162
25.3854
34.0737
1.73116
30.1385
35.5997
1.46955
37.8293
22.6003
35.077
36.006
38.0259
32.2607
3.00706
3.88662
1.76344
36.6619
21.2018
8.49726
3.01822
22.0066
3.64351
25.7289
36.55
37.6957
12.826
31.9729
3.18725
2.47802
22.5665
37.389
36.6894
37.6044
14.9388
5.88944
2.84823
34.7445
22.1479
2.40386
1.6258
3.28734
25.8406
1.53725
4.68845
32.6165
4.47113
29.5393
33.8696
27.7937
33.3318
3.83349
32.5484
4.26958
24.9127
38.0384
36.4927
4.13743
2.09772
1.7246
7.68827
10.5219
1.94107
3.55694
2.73735
3.18282
1.66976
7.16241
24.7665
15.5844
1.54408
34.0079
2.02686
3.22566
23.5968
12.6899
33.0758
5.12182
2.42475
31.9315
8.02326
33.8671
31.3388
21.8469
8.62555
5.70615
3.81087
32.1686
21.6695
1.47069
21.5991
3.18619
14.2826
3.65636
1.76181
33.3888
34.303
21.9924
37.9481
3.06992
22.477
5.3905
4.36822
23.2278
33.1936
9.87825
35.2437
3.17218
2.83819
18.2581
28.2909
11.9469
35.3388
24.2656
21.2106
21.5562
30.0068
9.00333
36.8468
5.25955
35.2882
23.1497
21.1323
31.9211
2.72967
25.7091
1.63229
2.94459
8.47858
37.6742
18.9697
3.68769
3.34984
1.50894
27.8363
3.57905
21.3091
23.5333
4.48257
2.12608
7.20427
33.8074
29.5745
3.55965
35.0293
27.5039
3.40997
32.1107
1.885
2.56699
34.7206
28.2588
3.45516
20.0099
5.20542
6.98621
37.5016
23.3659
4.14865
9.92963
35.3029
3.39056
36.3641
36.9929
3.92414
6.37861
12.387
21.0206
31.376
8.01215
29.4407
3.02716
4.76642
24.9727
3.03665
3.24802
25.8526
35.7091
4.12563
3.82939
3.37497
2.88729
3.71502
7.14785
6.01183
14.7802
3.92085
3.75821
4.84308
3.82213
5.04442
10.1735
20.9289
3.05182
29.9552
4.22881
31.2811
20.8332
19.9652
35.6936
26.8466
3.98512
3.38806
3.53233
12.9034
3.61418
10.1912
3.94622
6.4376
4.10208
36.9148
6.41886
20.8739
15.7041
5.98046
36.5309
19.3383
6.66114
4.44662
4.30759
4.68706
3.59584
8.85832
5.37567
16.1876
21.3068
3.51429
21.4847
20.6176
33.0214
34.6032
20.3884
29.2608
24.6
1.7881
3.58251
3.71502
4.12089
27.5632
3.79835
35.8608
5.36886
3.79332
5.64068
3.30663
7.32378
23.5292
4.56781
21.4165
35.7199
4.34879
7.89442
5.30254
19.9547
5.65307
7.1095
6.9001
3.62593
3.94121
3.80069
28.1527
4.36271
7.23646
3.74139
2.68809
36.2962
4.2672
6.47539
18.5537
3.2
178.601
168.684
157.214
147.132
137.049
125.319
111.658
97.1007
82.7387
209.278
201.051
190.199
179.49
168.53
156.234
142.267
127.289
112.483
236.64
229.632
219.47
208.567
197.111
184.42
170.204
154.872
139.355
260.429
254.382
244.953
234.238
222.63
209.722
195.283
179.567
163.325
279.493
274.226
265.577
255.341
243.879
230.942
216.367
200.383
183.82
291.979
287.369
279.537
269.97
258.891
246.138
231.635
215.692
199.368
295.825
291.785
284.73
275.889
265.348
253.009
238.892
223.435
207.924
289.59
285.991
279.529
271.31
261.345
249.603
236.199
221.692
207.525
273.351
269.929
263.745
255.904
246.427
235.348
222.86
209.62
197.256
249.14
245.501
239.245
231.515
222.38
211.915
200.345
188.367
177.762
220.394
216.145
209.63
201.911
193.067
183.161
172.405
161.43
151.871
190.361
185.542
179
171.506
163.106
153.828
143.861
133.724
124.728
160.68
156.528
150.7
143.893
136.217
127.736
118.648
109.374
100.877
133.738
131.3
126.832
121.059
114.293
106.715
98.5777
90.2505
82.4222
112.278
111.388
108.198
103.395
97.4697
90.7272
83.4781
76.0773
69.0862
97.2121
96.879
94.346
90.1359
84.7879
78.6725
72.1344
65.519
59.2851
87.1549
86.4939
83.9948
79.9701
74.9041
69.1775
63.1437
57.1423
51.5748
79.5739
78.4046
75.6524
71.5679
66.5812
61.0646
55.3666
49.8194
44.8078
72.6103
71.1033
68.1003
63.9005
58.9217
53.5355
48.0815
42.872
38.249
65.3994
63.7565
60.6196
56.3679
51.4308
46.1892
40.9742
36.0701
31.7479
57.7438
56.1104
52.9729
48.7792
43.9772
38.9592
34.0475
29.4993
25.542
49.8315
48.2976
45.2701
41.2467
36.694
32.0111
27.5027
23.3884
19.8383
42.0583
40.6608
37.812
34.0502
29.8566
25.6251
21.6277
18.0369
14.9666
34.9161
33.6031
30.9387
27.5005
23.7535
20.0712
16.6716
13.6686
11.1302
28.9427
27.4808
24.9443
21.8696
18.617
15.54
12.7821
10.3785
8.37805
1.31735
1.25806
1.20429
1.16138
1.1366
1.13822
1.17373
1.24857
1.36631
1.52949
1.74091
2.00438
2.325
2.70926
3.16448
3.69842
4.31823
5.02909
5.83281
6.72629
7.7005
8.74068
9.82788
10.9397
12.0516
13.1392
14.1883
15.207
16.193
17.1384
18.0378
18.9059
19.752
20.5878
21.4375
22.3301
23.2959
24.3699
25.599
27.044
28.7791
30.89
33.4672
36.6
40.3705
44.849
50.0938
56.1533
63.0588
70.8217
79.4171
88.7722
98.7609
109.191
119.821
130.355
140.477
149.863
158.24
1.26149
1.20364
1.15226
1.1136
1.09508
1.10355
1.14417
1.22032
1.33409
1.48746
1.68319
1.92541
2.21973
2.57314
2.99406
3.49173
4.07539
4.75289
5.52852
6.40022
7.3577
8.38617
9.46866
10.5862
11.717
12.8398
13.9385
15.0038
16.0322
17.0249
17.9904
18.9432
19.9005
20.8844
21.9238
23.0535
24.3126
25.7453
27.3989
29.3177
31.5335
34.0576
36.8779
39.9675
43.305
46.9002
50.8126
55.1527
60.0644
65.6947
72.1619
79.527
87.7769
96.8129
106.45
116.419
126.389
135.999
144.899
1.2132
1.16181
1.11727
1.08585
1.07445
1.08905
1.13362
1.21029
1.32036
1.46543
1.6481
1.87244
2.14385
2.46938
2.85736
3.31696
3.85748
4.48728
5.21209
6.0331
6.94537
7.93798
8.99523
10.0982
11.2264
12.36
13.4837
14.5887
15.6727
16.7407
17.8053
18.8868
20.0123
21.216
22.5389
24.027
25.7265
27.6768
29.8998
32.3861
35.0861
37.9112
40.7537
43.5196
46.1666
48.729
51.3227
54.1293
57.3678
61.263
66.0142
71.7675
78.5904
86.4499
95.1996
104.58
114.236
123.753
132.713
1.16612
1.12279
1.08635
1.06166
1.05458
1.07061
1.11392
1.18714
1.29198
1.43012
1.60397
1.81711
2.07433
2.38189
2.74732
3.17892
3.68519
4.27391
4.95086
5.71836
6.57411
7.51079
8.51654
9.57618
10.6729
11.7906
12.9169
14.0448
15.1748
16.3162
17.4877
18.7184
20.047
21.5209
23.1928
25.1137
27.3213
29.8237
32.5833
35.5072
38.4542
41.2615
43.7865
45.9484
47.7529
49.2956
50.7462
52.3264
54.2878
56.8928
60.3946
65.0114
70.8881
78.0516
86.3708
95.5409
105.11
114.545
123.331
1.09614
1.06046
1.03255
1.01578
1.01468
1.03389
1.07753
1.14879
1.25009
1.38361
1.55187
1.75818
2.0069
2.30321
2.6535
3.0648
3.54418
4.0981
4.73153
5.44693
6.2435
7.1167
8.05856
9.05836
10.1041
11.1848
12.2922
13.4237
14.5846
15.7898
17.0655
18.4504
19.9943
21.7543
23.7866
26.1316
28.7948
31.7269
34.8134
37.8826
40.7371
43.2001
45.1588
46.5895
47.5582
48.2032
48.7129
49.3092
50.239
51.772
54.1958
57.7944
62.803
69.3336
77.2952
86.3472
95.9258
105.35
113.986
0.997967
0.968357
0.947941
0.939343
0.945728
0.970635
1.01756
1.08966
1.1897
1.32027
1.48409
1.68436
1.92496
2.21047
2.54596
2.93704
3.3895
3.90843
4.49784
5.15998
5.89481
6.69976
7.56988
8.49847
9.47818
10.5029
11.5694
12.6804
13.8464
15.089
16.4421
17.953
19.679
21.6798
24.0016
26.6568
29.6011
32.7198
35.8336
38.7286
41.2039
43.1192
44.4219
45.1483
45.405
45.3441
45.1437
44.9993
45.1274
45.7754
47.2288
49.8036
53.8056
59.4447
66.7203
75.3309
84.6752
93.9767
102.496
0.876091
0.850445
0.835196
0.832865
0.84598
0.876947
0.928315
1.00261
1.10221
1.22955
1.38731
1.57855
1.8068
2.07605
2.39072
2.75545
3.1746
3.65233
4.192
4.79559
5.46354
6.19465
6.98626
7.83473
8.73645
9.68959
10.6956
11.7618
12.9044
14.151
15.5424
17.1317
18.9782
21.1331
23.6188
26.4068
29.3985
32.4269
35.281
37.7495
39.6704
40.9633
41.6359
41.7674
41.4818
40.925
40.2501
39.6172
39.2018
39.2097
39.8924
41.5512
44.512
49.0502
55.2684
62.9745
71.6426
80.5109
88.7991
0.733486
0.709634
0.696331
0.696034
0.711515
0.744802
0.797339
0.870567
0.965975
1.08538
1.231
1.4056
1.61242
1.85519
2.13799
2.46505
2.84048
3.26765
3.74879
4.28557
4.87899
5.52905
6.23502
6.99567
7.81025
8.68054
9.61153
10.6146
11.7102
12.9316
14.3253
15.9465
17.8483
20.0576
22.5566
25.2706
28.0581
30.7269
33.076
34.9368
36.2102
36.8761
36.986
36.6407
35.9643
35.0841
34.1267
33.2162
32.4876
32.103
32.2697
33.2513
35.3561
38.8818
44.0029
50.6392
58.3855
66.5716
74.4484
0.565431
0.541131
0.526618
0.524543
0.537545
0.567638
0.615101
0.679709
0.762444
0.864634
0.987245
1.13265
1.30391
1.5049
1.74049
2.01537
2.3354
2.70327
3.11775
3.57907
4.08918
4.65042
5.26425
5.93277
6.65891
7.44802
8.30712
9.25048
10.3025
11.5021
12.9041
14.5592
16.4931
18.6762
21.0222
23.4282
25.7455
27.7678
29.3623
30.4448
30.9857
31.007
30.5784
29.8076
28.8019
27.671
26.5188
25.4479
24.5561
23.9396
23.748
24.2072
25.6099
28.2692
32.4313
38.1509
45.136
52.7898
60.3473
5.06753
5.17841
5.34929
5.52764
5.68014
5.7842
5.82469
5.79563
5.69826
5.53706
5.32415
5.06619
4.77262
4.46251
4.14929
3.8424
3.54687
3.26327
2.99018
2.72633
2.471
2.22374
1.98269
1.7398
1.48157
4.71021
4.9585
5.18425
5.38703
5.55223
5.66415
5.71141
5.68931
5.59924
5.44691
5.23928
4.98243
4.68621
4.36679
4.04235
3.72663
3.42675
3.14424
2.87722
2.62271
2.37802
2.14108
1.90914
1.67626
1.43091
4.41113
4.66188
4.9005
5.1151
5.2906
5.41245
5.47034
5.46005
5.3831
5.24432
5.0491
4.80367
4.51792
4.20643
3.88572
3.57012
3.26896
2.98623
2.72195
2.47406
2.24
2.01711
1.80195
1.58878
1.36624
4.11078
4.32937
4.55337
4.7634
4.94088
5.06969
5.13864
5.14264
5.08204
4.96033
4.78217
4.55373
4.28439
3.98724
3.6772
3.36823
3.07097
2.79185
2.53323
2.29489
2.07509
1.87103
1.67846
1.49106
1.29686
3.8177
3.99075
4.18325
4.37473
4.54448
4.67433
4.75123
4.7683
4.72408
4.62052
4.46137
4.25231
4.00193
3.72203
3.42601
3.12784
2.83908
2.56815
2.31972
2.09521
1.89344
1.71095
1.54214
1.37843
1.20849
3.53642
3.65949
3.81216
3.97602
4.12993
4.2542
4.33389
4.36021
4.32976
4.24294
4.1025
3.91334
3.68309
3.42225
3.1427
2.85885
2.58293
2.32492
2.09118
1.88409
1.70234
1.54147
1.39459
1.25035
1.09835
3.26642
3.34004
3.45094
3.58313
3.716
3.82907
3.90609
3.93665
3.91577
3.84245
3.71855
3.54818
3.33801
3.09724
2.83632
2.56996
2.31082
2.06993
1.85463
1.66738
1.50594
1.36503
1.23697
1.10784
0.968855
3.00575
3.03367
3.10456
3.20466
3.3139
3.41175
3.48118
3.51087
3.49467
3.43044
3.31942
3.16524
2.97397
2.75345
2.51276
2.26667
2.02783
1.80755
1.61338
1.44723
1.30573
1.18281
1.06988
0.952227
0.82225
2.7569
2.74281
2.77622
2.84529
2.93016
3.01054
3.06884
3.09326
3.07722
3.01726
2.91444
2.77229
2.59749
2.39614
2.17603
1.952
1.73577
1.53852
1.36709
1.22248
1.1002
0.993799
0.892561
0.781774
0.654539
37.1214
37.0867
0.470504
8.55369
0.742106
0.927105
2.41783
4.16615
0.397048
19.8532
0.249846
3.67322
16.5636
3.86518
5.20762
0.869146
0.383329
8.1564
40.1762
0.237591
19.946
4.53773
0.10262
4.6021
4.97567
2.40242
4.84664
0.641796
29.5267
0.427604
125.775
3.92107
8.49805
23.3425
0.16102
1.47144
10.2352
4.97621
15.1084
5.21997
0.139856
0.00793582
3.93461
1.27067
3.52542
19.0608
0.187348
0.122021
19.2776
27.5711
0.189976
5.55249
25.2403
7.96553
2.65062
0.423043
5.1555
25.015
2.7917
12.7745
0.490513
0.529748
0.814912
2.88318
4.07004
1.77533
34.36
3.76893
15.6302
26.674
0.446651
5.9065
2.20981
0.488603
5.83492
21.132
3.00398
0.157018
1.99298
7.61201
22.9446
0.752973
3.24379
0.176603
0.558814
0.549654
2.64813
0.148507
8.78885
22.1825
4.0712
50.9711
2.48433
3.57775
1.77628
0.253545
2.37553
0.196345
0.168051
13.8512
0.677509
0.279955
0.682424
7.3722
3.1095
2.29614
0.089588
22.7383
0.617482
0.47766
4.14346
3.78647
0.649564
6.9983
26.1735
20.1593
10.8289
5.74326
23.8926
3.20225
0.0888874
4.35234
4.72447
4.92723
7.71757
3.93243
4.5576
2.66548
20.5496
0.126796
3.37035
0.645697
25.0577
21.9637
1.04307
2.58501
3.2406
0.643566
0.593095
0.161281
4.26776
12.0853
8.8063
0.104454
25.5866
0.838456
8.8323
15.9223
0.816139
0.23796
3.59715
31.3793
8.90004
9.11988
6.9347
0.176291
2.99363
4.29405
6.60742
4.0187
4.20367
0.407108
2.75032
0.197516
2.45584
0.179064
6.41404
4.69559
1.40728
2.77244
3.32803
3.21067
2.9815
0.177818
105.031
1.4911
19.1414
27.5795
16.1063
4.39141
20.6626
3.69967
25.5083
18.1425
2.34701
2.06315
0.179534
0.587407
18.6541
0.764019
0.18692
10.631
13.2452
11.4311
5.601
12.8428
6.04741
4.42003
23.0067
35.4077
14.1758
3.59944
0.671487
0.551909
4.68339
4.05842
32.3678
0.579272
19.4027
4.55753
3.16967
3.01863
21.8616
4.8063
3.89537
0.0930037
1.77459
9.18297
10.1559
20.291
0.817337
0.00166486
6.76901
0.822646
6.2976
8.39453
9.07518
0.36444
0.506426
1.95905
0.175042
1.45641
2.89747
2.77778
13.7387
9.66673
12.5728
0.71009
17.6114
4.80805
153.565
0.503387
2.63205
1.36226
2.38531
3.14989
3.70204
4.8293
0.975937
3.25832
0.363995
1.70134
31.6098
20.9611
0.920073
4.25157
0.52072
4.21158
8.3629
49.1778
1.86276
27.2174
1.81503
6.76502
0.924619
4.7474
3.3083
9.2738
2.2284
4.63279
17.8207
13.8873
0.234453
8.80769
18.7683
9.13005
22.5423
0.342545
9.01091
1.24256
2.23613
3.56931
4.60339
17.3894
16.4133
0.411
2.1694
6.22441
0.220373
0.124007
1.94188
2.81116
0.0846799
0.22612
21.5805
0.0817015
2.74389
71.0688
3.78365
19.3661
4.79469
4.06478
3.71241
0.467556
0.861335
2.83224
19.8111
124.571
0.165833
0.652699
6.29218
9.24492
11.7262
14.9654
0.195063
13.3338
0.184156
21.4299
4.87531
27.4141
6.96029
2.65116
3.77265
109.641
2.50801
4.56805
12.1498
22.834
83.0542
23.3181
2.4727
5.29326
1.04683
14.6201
0.119065
0.604053
3.08997
2.83504
0.140347
2.45815
2.72938
3.64325
19.5526
13.9886
1.27969
1.81479
0.873296
0.608277
2.62733
0.178752
11.442
2.55383
0.1234
9.28631
0.222482
6.34756
31.6924
1.00706
2.74007
0.178715
20.1947
0.121924
4.2871
9.85485
0.00114092
2.80467
1.39624
0.182272
2.1667
22.3343
12.3543
10.5606
31.1151
0.337216
17.2595
4.4138
4.7154
2.14718
5.32017
12.4606
2.69929
2.67377
7.11676
1.41537
1.12889
25.9761
2.37237
0.262069
0.252118
0.201788
3.33175
3.71985
12.2267
3.83812
20.242
34.0495
2.827
7.47798
3.85202
29.1325
4.1195
3.58845
0.586593
37.7934
3.63648
0.106548
3.43143
9.51625
23.6558
134.989
10.2622
1.94051
19.5339
0.681309
2.52888
6.82484
16.6075
0.178103
3.82999
46.1008
2.4004
4.67495
16.0534
0.609185
1.65292
0.167154
0.103246
4.0795
164.25
4.40566
0.682838
4.00271
25.5225
1.83435
1.8127
1.3758
4.28854
0.0726245
0.686794
4.5656
3.85776
5.25047
0.208889
1.33052
15.9434
5.29102
0.624306
4.7087
3.04449
2.29343
0.344225
4.20013
2.68473
18.6216
12.9584
28.3089
0.179563
0.501693
3.58751
5.26383
2.93013
2.50475
12.2873
22.5051
0.664425
3.40989
2.55016
0.655208
4.01127
0.248067
6.52675
3.11331
0.112446
4.81065
4.78805
21.9323
36.5388
3.24741
16.0662
16.6458
3.05717
13.3238
0.0506161
3.72748
0.175947
0.945595
0.617276
6.23244
29.5583
4.7454
7.0796
2.3118
4.93878
4.80373
2.30421
2.08982
7.16705
0.482247
2.93716
24.6621
4.16881
1.90536
1.34751
1.01118
19.5001
23.8685
0.570641
0.8952
3.13985
3.4522
3.2864
23.3951
96.6236
37.057
1.57678
0.186879
0.926414
15.4794
4.57064
4.78316
6.01978
0.122529
0.224492
11.1613
23.0286
9.83233
0.283001
3.13038
4.09163
3.29094
1.30221
5.51061
8.90575
1.51899
3.08228
3.49853
3.39944
17.068
21.8274
2.21021
26.6737
0.471595
4.30224
0.0903413
0.126712
1.23674
2.64334
1.12584
0.56051
0.338695
10.9101
11.1912
21.1529
20.8616
16.1524
0.182052
6.69258
6.40624
19.4752
18.0197
167.003
20.7951
3.55206
19.9459
0.364424
33.8754
4.32931
2.57085
4.16031
1.27309
10.7424
9.83001
7.79928
2.30955
0.981448
0.586284
0.176019
18.1713
0.751967
1.10655
0.135131
26.6805
3.25145
4.96784
3.9809
6.8355
3.9914
0.928287
28.2655
3.28498
1.53173
0.796778
3.02924
12.9828
7.27055
2.48937
22.379
15.1797
0.893033
4.2245
19.1972
0.707389
0.00573567
3.9654
4.28038
0.882669
0.423875
55.4169
6.06678
4.48269
4.10005
13.3886
3.32462
1.31566
1.72567
22.3267
9.59066
0.922337
1.74039
3.30258
3.82681
2.60407
15.9516
19.7243
3.3953
15.6665
0.170773
0.616787
7.35931
2.87675
4.47011
3.32522
0.438339
0.88019
2.88419
19.5223
8.82475
6.4738
36.2341
13.705
4.13188
2.26391
1.64144
4.20276
0.842663
7.23077
2.7572
1.96267
16.4895
11.7404
10.1634
0.687592
19.9491
0.118165
10.5723
64.5719
0.176812
46.2007
17.7579
4.34843
17.7867
7.0906
0.208151
0.120424
3.34146
4.09015
4.60265
4.30963
1.45265
26.4325
3.29339
11.8336
0.641854
7.73894
0.0165773
2.52591
18.7501
1.89333
15.4363
11.1192
0.220276
22.9601
3.91311
2.83708
3.27382
2.1642
2.16976
25.4991
0.0755325
4.00969
3.81728
4.0194
0.232671
3.76228
8.41547
3.27227
2.29391
29.026
0.522574
3.2266
2.81381
3.9243
1.15313
6.75864
6.38052
2.70496
8.60218
6.42878
0.124434
3.83173
28.2003
0.0955066
21.4539
3.02279
3.59894
0.131243
2.24322
2.03402
0.660943
2.24112
18.8764
12.932
169.453
2.27875
3.68049
138.138
3.88113
8.90688
23.2174
3.76408
13.0343
17.3346
1.61281
27.6507
17.2619
1.28815
0.227427
9.29549
9.06049
0.826061
0.0232623
4.59808
2.64967
19.3754
37.593
10.9652
3.42426
2.26048
9.85306
3.99042
1.53613
0.17577
2.44107
3.24727
1.54169
14.7704
22.9366
18.2266
0.044193
3.40212
2.75304
0.0714911
36.862
24.4762
0.100963
11.3799
4.04226
11.4258
1.50173
0.147314
1.62286
1.36465
0.654522
4.46148
3.49238
0.965642
0.725699
2.75521
4.13098
1.99571
1.30895
3.75535
6.16726
4.11481
4.04745
8.61229
2.94939
0.178657
0.781916
15.1983
10.0117
17.1228
4.9946
0.118404
5.69982
0.178201
3.16534
14.1252
0.494077
16.5221
19.7658
18.303
3.5408
19.3261
9.45314
15.2693
0.117696
0.112385
4.15703
3.86376
12.568
0.465688
2.48304
0.909105
26.2811
3.52465
1.15228
7.07054
5.02254
2.43133
0.343579
32.7047
38.6138
2.58859
5.31953
0.333198
16.7298
9.83473
3.73134
4.00615
1.89957
14.6522
4.83227
1.46362
39.2383
12.5674
2.64362
9.28023
8.92216
18.9404
2.80148
16.9163
3.98547
6.01963
19.1656
5.53418
13.6204
3.1177
2.23369
18.4486
0.132294
7.13624
3.59461
2.62235
6.90504
0.16479
0.827516
1.8979
17.3099
4.52676
0.0279422
4.59149
1.50465
0.174186
3.78873
0.174667
1.00442
0.0547487
13.3701
0.930058
11.3642
7.57442
16.2343
5.48408
3.83532
0.174965
8.74881
8.56488
10.0717
14.8483
2.87854
2.17077
1.5568
2.43925
0.632113
21.3494
17.0575
2.72055
7.2742
6.20151
11.1276
11.9376
0.436782
12.6842
31.5361
27.3921
8.35049
2.37831
0.121066
0.0912932
22.3731
19.766
29.8825
18.1205
1.79994
3.69543
15.2465
27.5821
6.21916
26.3156
6.96323
1.01136
3.31119
37.6472
0.119326
1.51352
6.76777
19.0438
24.9991
18.1272
22.3398
5.56826
0.693262
4.91481
11.0667
37.1948
25.6395
4.05136
0.483968
0.924728
0.88151
16.6772
0.224076
0.69293
18.6202
16.4221
13.9669
12.1781
1.92763
4.26656
1.25936
18.2512
0.669676
17.461
2.84371
0.624822
2.15367
176.71
30.2832
22.456
0.521689
3.38881
5.06374
1.84549
0.670189
2.39096
0.674526
0.609993
23.0235
0.594595
14.7242
3.48623
2.59191
6.9882
124.787
5.53855
2.35768
0.678486
20.0525
1.74704
1.74829
17.51
0.219816
1.5351
2.86343
1.75372
2.81087
6.03025
26.1976
0.884514
0.801907
0.597403
0.870389
1.3089
21.307
4.43308
19.6879
8.18551
5.82387
0.359583
1.85862
1.55637
10.4678
6.50772
13.0931
3.14283
2.82092
1.0097
18.8187
18.2296
3.57181
0.453077
5.33535
0.177925
1.60293
22.8409
1.16709
4.02351
16.0373
3.42031
4.35456
2.51583
5.25912
1.47076
5.58341
15.4264
6.19617
0.291058
2.26361
0.133295
1.39307
2.33116
15.9236
1.30116
0.175492
0.568634
9.79034
1.71288
6.62522
2.31572
1.30921
5.50965
6.62676
1.14648
5.69657
7.65534
3.73607
19.0212
2.64907
3.9395
31.9628
2.03836
5.05997
5.95307
0.174759
7.97827
16.7213
2.56857
2.08008
0.846239
1.12552
5.74181
0.69373
30.4919
0.12956
0.177493
0.92046
0.904463
1.95145
17.9728
5.34408
1.50637
7.69008
1.09487
14.2973
1.9511
5.39453
0.850692
10.9888
122.95
7.00372
33.8348
16.6548
11.2999
4.41959
2.94044
2.23316
14.348
22.149
5.85691
0.190128
19.3781
0.749636
1.69025
23.3499
0.189048
4.38053
4.67185
5.96636
5.98598
7.41009
1.71531
3.06985
2.36687
5.97933
22.8625
1.4093
4.85313
2.68944
4.49598
2.78554
0.104673
1.354
19.1672
4.84088
12.6181
4.04243
1.29162
178.861
4.09904
0.989119
2.78523
8.48312
4.14824
3.67136
2.37366
32.7476
31.2838
4.68757
6.82694
7.04916
1.06719
38.5034
3.40593
7.47624
38.1616
18.1721
0.13525
3.63219
3.07786
15.0556
1.07944
23.9628
2.31768
17.5632
0.694588
11.7559
1.54517
20.9939
1.35585
0.185934
14.595
0.425759
37.1415
23.8301
9.39671
3.84067
7.0926
20.6023
3.63667
5.35512
0.804038
1.48858
4.0081
1.93646
4.03218
4.90973
4.80048
1.01185
2.2912
0.851539
1.96351
2.04966
0.177374
0.320738
0.198593
0.220578
0.741091
0.752146
2.92444
3.36752
5.00914
14.8753
3.24433
9.60021
5.74563
5.83641
15.2413
2.07178
0.774939
21.8522
3.77394
4.74153
0.808658
0.812964
10.2114
0.589728
9.57464
21.5566
2.34324
2.09173
0.328734
1.0699
3.24082
2.82575
8.41854
1.53271
5.87643
23.2822
2.8904
10.54
16.3985
0.847596
2.91347
4.54545
2.76104
0.752738
12.0464
8.73004
3.11598
20.6287
3.33541
2.51962
32.0491
1.92647
23.2475
4.5129
0.59931
1.98174
14.129
1.58926
5.49829
5.40958
0.158765
14.9698
2.00299
8.21755
8.83066
3.96799
6.44409
2.22795
4.9025
18.4373
1.58925
26.4058
13.6025
93.6606
4.41011
0.921651
29.5895
12.0671
18.2692
12.1669
13.4455
0.0589475
10.3851
31.9402
0.185998
31.8271
11.0442
23.3002
10.2852
16.7367
0.441121
15.3706
2.76467
0.368235
6.36521
8.93948
19.1124
7.95162
0.125809
23.5922
0.985156
4.08811
1.93707
22.0992
5.62514
8.80007
4.84159
0.199485
3.40394
17.2162
4.65834
3.07251
1.16192
0.609345
5.35317
16.2795
0.13316
4.10269
20.4689
1.11711
3.18419
32.7004
1.5605
25.2107
23.5282
4.69979
4.47191
19.3553
5.97747
10.6296
1.46176
2.78118
36.0204
18.404
8.42254
0.503433
13.0968
20.0386
5.83379
7.41817
0.923428
21.5912
3.04377
14.7013
0.624152
0.168017
3.35936
19.7816
0.119202
4.22845
5.24433
24.5442
3.67875
3.02543
0.00754726
13.3608
20.4989
0.611825
10.2829
1.96849
0.988753
12.3498
3.92262
3.30991
17.6812
11.7873
3.47426
5.61268
4.736
3.60607
17.0228
32.5938
18.8627
12.9647
4.98382
1.68262
20.0086
0.129462
1.62585
34.432
1.48839
9.38408
39.3259
13.1531
15.5306
4.01362
20.3603
5.2341
2.15738
16.5978
3.48515
6.19494
1.59179
3.49476
1.79457
0.909422
20.3057
0.140177
11.0141
7.0012
0.227659
2.87748
13.5433
4.71666
0.137217
21.8805
0.758909
25.9426
2.65295
4.92776
1.30407
16.2335
17.5414
4.38221
2.54389
1.87216
5.85592
3.36546
0.74252
0.0934352
16.2829
3.72975
9.05635
7.37075
3.65125
22.3207
4.71145
23.5506
0.398279
0.845052
3.17349
52.2746
1.09079
77.1464
0.498255
11.2742
5.87917
17.6133
5.09008
2.51472
16.5194
0.437417
2.37402
0.711975
38.0705
12.817
4.853
2.66996
3.0162
10.6617
3.69231
0.840606
60.6467
30.389
1.66857
9.99954
0.784653
0.136248
1.5447
23.5188
0.119106
67.9698
6.90709
5.64706
1.11423
24.0244
4.93315
19.6942
1.97023
2.22169
0.490074
3.25047
1.46289
3.31097
1.12295
2.10097
1.36566
14.0285
20.3413
14.1398
0.395478
0.690791
3.05549
4.90101
0.661716
2.55263
1.1924
22.8453
2.08026
18.9992
15.3961
12.059
5.21537
5.37873
2.40884
3.26223
17.0024
12.1255
3.10709
4.12413
28.128
129.74
6.13479
3.86581
6.0187
1.7616
0.544487
2.69885
9.27915
0.508292
12.0803
5.40319
9.35484
0.43197
18.2396
28.8599
7.55598
5.7313
5.30391
0.46271
3.82734
5.53206
15.6624
0.0519661
23.1896
0.746455
4.92305
7.14525
4.90406
0.405466
0.892416
2.56804
18.0971
9.10892
12.5093
20.6623
3.8266
3.2535
0.128047
72.7224
23.8725
2.09465
1.09823
8.11749
1.83306
4.88939
15.489
3.49743
9.26183
15.3518
4.18386
2.9
3.97669
0.960404
13.8495
3.83953
1.06272
8.77708
2.63618
3.57114
0.0724188
0.973256
11.827
0.404661
22.6044
0.555902
20.8646
1.59773
14.524
0.127264
0.150673
19.3595
6.9168
0.0528058
21.171
9.93356
2.95854
18.9779
1.13754
6.31403
18.995
22.375
4.33314
0.170482
3.09018
18.3002
0.983893
4.87788
3.92133
1.15951
15.3385
3.16463
5.26712
5.9465
5.96688
6.34977
9.568
2.20637
36.6499
1.78359
21.0875
1.8689
4.57971
4.08196
3.878
1.43154
2.86874
20.9476
17.6791
17.0175
2.66984
38.3009
17.3606
5.68079
0.175068
2.57937
0.616124
16.6763
17.4787
143.185
1.83978
1.05778
11.3468
3.62659
5.39822
16.0807
18.2416
1.16413
0.217149
23.0859
4.06845
0.737487
2.8757
0.530126
16.6318
2.0913
2.18566
2.46232
0.50245
1.03067
11.3542
19.4098
5.17068
2.92825
0.329406
2.12281
0.200328
3.80716
16.6861
2.62182
4.43602
0.744728
8.6447
2.43246
24.5219
3.52969
0.848838
4.73453
28.0551
17.5328
0.680643
17.3627
1.18453
1.02576
2.50445
2.99761
0.948509
3.84026
5.29373
26.7287
23.5103
2.91761
1.98272
5.78464
5.4739
0.199187
3.95536
1.12149
4.18733
4.85395
9.04067
0.179173
4.63364
3.4918
1.27848
1.28055
1.29927
2.57437
4.64759
19.4224
34.647
2.34679
3.28012
8.25466
95.9863
0.918327
3.67231
0.520344
3.25618
112.768
5.22486
5.23657
2.90488
20.5815
22.0232
0.501196
8.67959
3.16118
14.2283
15.7827
2.88233
2.4522
0.929169
4.09948
4.19127
0.718437
19.38
3.4366
2.58979
2.76618
3.26909
3.34683
20.5378
3.16991
3.64481
0.582312
45.9519
16.7321
3.22558
8.29285
7.48454
0.672586
2.45465
1.97536
18.8944
4.19229
1.43159
5.14698
17.0828
5.10913
9.65862
3.36618
13.8149
6.50461
0.111538
3.46747
1.15369
3.64757
12.3919
0.44406
15.4943
5.19837
0.232781
2.93386
1.64244
11.209
3.74846
17.9292
2.25879
6.80301
5.61268
4.59485
8.58156
4.53872
2.65732
3.54133
37.6503
37.1315
3.44763
1.07616
11.7588
5.81297
1.49357
22.2415
2.83833
4.24555
3.2843
2.48758
132.669
7.53228
4.09976
1.04145
17.7027
3.64192
1.35328
5.54104
6.7897
2.06701
4.6646
3.49203
0.172742
0.648951
15.4029
0.128044
4.62123
0.054964
4.22956
2.47254
0.168397
4.3311
2.25101
6.15485
14.3549
17.5086
1.02461
3.64052
8.89772
17.8986
4.1906
17.3523
3.68139
15.2854
0.0077259
33.3736
9.64274
23.2747
2.63361
17.9575
1.16356
15.0573
0.179884
0.153739
34.6418
9.16813
4.82807
5.82168
1.52011
18.3535
4.70159
2.75412
14.6375
0.179006
33.3058
8.49096
4.86577
2.54488
2.32211
1.16944
4.02128
4.06666
2.71138
3.63081
35.9527
6.85714
6.15136
4.78463
32.7324
4.33358
5.89937
0.136026
3.78297
3.49664
14.4995
17.0901
2.99682
2.83158
12.8765
4.06559
2.05677
3.11331
4.08362
1.8501
0.661153
0.715441
5.15787
5.35481
4.32637
4.39171
16.5165
22.3217
3.19061
23.3286
1.3745
1.62854
18.8542
7.62756
11.6639
3.47648
4.79733
1.48033
3.77568
15.3151
36.1086
4.12274
4.21918
2.45637
14.3652
0.944902
3.13014
1.17011
1.91267
7.77779
12.2517
20.975
0.600424
20.6391
15.4667
0.0821736
8.3072
19.2886
16.3916
4.2208
1.41786
4.62059
1.91111
0.747712
4.07445
12.3648
0.331957
7.59356
16.3712
11.2163
0.081406
3.9851
4.43876
3.27591
1.5621
0.151344
3.89588
0.179305
13.8522
0.174946
4.00129
3.04902
2.47988
14.7165
37.2176
4.26355
19.2419
5.27009
4.45668
2.77798
0.180173
14.6565
0.478548
8.03199
5.92413
4.31716
4.37056
4.22168
11.5238
0.801133
6.07912
0.191896
3.46225
15.3435
9.45026
2.76892
11.0276
18.6151
0.00171509
0.934808
4.27957
5.08846
0.795344
1.0833
15.3088
0.915947
0.75622
4.2443
4.92593
12.7388
12.4665
4.20375
3.60152
18.3906
1.31554
16.194
3.59742
17.014
16.9059
4.74409
0.985131
4.0957
0.937891
2.45232
22.7326
2.79871
156.695
6.06341
6.60762
6.02814
29.0411
2.03879
14.9985
12.7049
0.124866
1.04233
2.01831
3.31958
2.395
0.191556
0.297133
4.36233
17.0374
5.33094
16.7478
0.356563
19.0978
13.5579
19.4713
7.2739
1.31059
4.18704
1.13404
16.9019
3.00039
9.90386
3.32311
2.89044
0.19327
2.7277
4.68534
1.61269
14.8211
1.66539
15.152
0.820721
6.60404
17.6172
1.95597
5.04139
1.76426
6.42198
2.15602
4.25745
3.66796
0.074339
15.6735
2.46499
32.041
1.44369
1.96571
14.7057
15.6996
5.94799
0.945453
13.8957
2.94851
4.26831
2.84349
17.9373
9.55262
18.422
2.91247
4.3589
4.7183
18.283
0.725432
3.61014
2.68149
0.084571
0.896083
10.0465
25.0131
0.00212239
5.18161
0.774023
7.89215
2.62337
17.5421
0.382798
1.50769
4.47079
0.240824
3.25973
12.19
13.2552
4.25193
3.02662
7.88074
0.178913
5.11827
19.6968
2.05141
0.0626927
3.49327
4.33196
3.56416
19.8122
9.44774
16.5979
0.528052
3.9474
3.19062
5.1983
2.97066
4.81858
1.01586
7.40501
2.55323
4.93231
34.0256
26.3444
8.21515
2.55188
15.582
0.243319
20.5583
3.54655
0.984159
3.77553
0.219869
0.179619
15.4288
4.78494
0.977801
1.65025
2.18828
6.32213
1.87382
5.75077
1.12876
3.4329
0.272314
16.5478
9.77356
89.8754
1.54672
0.330472
0.509727
16.6786
1.82196
3.6577
0.771171
2.64715
8.20588
3.0937
1.77834
24.6637
1.6921
1.68311
3.41032
18.0173
7.39443
14.0005
16.6483
7.08641
31.7765
27.7382
18.3434
8.90934
0.0769634
3.774
1.00471
14.4069
1.90862
0.839087
10.2426
0.983726
4.27067
17.0723
4.13624
17.23
2.28892
4.40285
0.772485
15.7059
1.09145
0.463479
0.198905
0.883302
2.10025
32.1725
5.24114
2.12453
6.90496
4.07599
2.52583
3.56406
2.36302
4.32323
1.38706
18.1136
3.105
22.6818
6.56454
10.0278
30.9999
1.9184
12.5331
4.27664
5.66973
0.699938
15.9577
2.17278
4.51356
4.47275
0.336821
0.929409
1.01488
73.157
3.52919
0.124411
2.23608
9.27941
11.9779
0.149503
30.2381
10.6051
15.5581
7.64555
14.073
16.9191
1.28468
0.153498
17.6591
4.71198
96.5584
6.60089
55.4099
5.54494
2.50902
0.169156
0.940061
2.93532
25.1556
12.2565
30.6471
14.4078
16.0512
61.548
4.05827
7.48157
2.85018
1.15734
4.58071
4.24438
1.39941
4.64145
4.37836
2.56888
146.197
2.79383
39.376
3.52503
27.197
6.06555
6.08008
2.99736
2.28096
15.4658
15.4373
8.62538
11.9078
19.6142
7.6521
12.1101
106.125
2.93288
7.95473
2.68406
4.51082
1.60345
2.74696
10.8781
0.9314
12.2024
1.92566
17.9462
5.90127
3.97159
4.50634
1.42857
6.44525
5.20235
6.17401
3.37151
1.56502
0.504968
4.65653
12.7947
0.709909
4.60118
1.70274
3.26954
17.0414
5.3954
10.4932
4.29034
114.029
0.505093
10.1329
5.34764
8.78079
2.71904