/*--------------------------------*- C++ -*----------------------------------*\
  =========                 |
  \\      /  F ield         | OpenFOAM: The Open Source CFD Toolbox
   \\    /   O peration     | Website:  https://openfoam.org
    \\  /    A nd           | Version:  10
     \\/     M anipulation  |
\*---------------------------------------------------------------------------*/
FoamFile
{
    format      ascii;
    class       volScalarField;
    location    "300";
    object      p;
}
// * * * * * * * * * * * * * * * * * * * * * * * * * * * * * * * * * * * * * //

dimensions      [0 2 -2 0 0 0 0];

internalField   nonuniform List<scalar> 
10435
(
0.246035
-0.875648
-102.179
-8.06317
-15.508
-53.5769
-112.377
-111.706
-108.666
-79.284
-4.45248
-26.3521
-109.326
-0.428878
-0.534539
-94.1122
-0.381789
-94.6759
-104.191
-0.654033
-99.8857
-7.64312
-89.7024
-54.9933
-78.6427
-1.58565
-0.768915
-114.295
0.161728
-91.6923
-60.0755
-5.39565
-109.764
0.571077
-85.1637
-0.350663
-81.2437
-3.70904
-7.38091
-87.4268
-74.3197
-99.5527
0.0349623
-4.16136
-76.2284
-72.8077
-59.8587
-0.743609
-124.493
-11.7876
-101.401
-55.7977
-12.1178
-0.739477
0.532043
0.460488
-77.1017
-0.190138
-0.333979
-72.6161
-6.10891
0.162811
0.511939
-27.3953
-82.719
-95.4307
-0.294577
-0.351427
-108.436
-40.2279
0.398342
-1.3207
0.285744
-92.9763
-0.718386
0.13279
-22.0023
-114.839
-118.242
-0.676349
-17.7141
-0.0232454
-9.54319
0.214997
-21.9727
-0.731162
-0.129219
-3.295
-0.763125
0.519881
-5.48417
-7.71541
-0.585701
-0.903281
0.350781
-0.641979
-9.29568
-0.557202
-0.128455
-12.8992
-0.985435
-17.4966
-0.714005
-1.1592
-22.3847
-6.21055
-2.57328
-13.8717
-22.644
-0.777223
-9.43266
-11.8037
-0.427389
-0.774849
-5.55942
-6.06001
-15.0374
-0.29937
-2.88806
-15.7025
-14.9358
-0.0419372
0.318387
-0.320735
-5.88443
-2.99139
-12.8219
-0.0950386
-15.2009
-0.553624
-0.15253
-4.49242
-96.1905
-0.53382
0.30459
1.58946
-0.582256
-9.52192
-0.912505
-4.48224
-2.59676
-77.0939
0.325999
-31.5714
-8.82274
-0.416446
-0.442491
-41.0799
-0.315994
-35.3154
-0.0441197
-68.0125
0.496919
-50.2831
-51.372
0.479891
-7.45182
0.340539
-64.7066
-2.9392
-58.8917
-0.4122
-5.20183
-18.4658
-0.82544
-24.74
-105.305
-15.8412
-42.9295
-41.6912
-66.7897
-0.0921299
-1.38405
-0.577424
-36.9509
-1.72212
0.135674
-0.39397
-7.39771
1.03509
-2.62008
-40.3994
-36.5832
-4.62359
-62.7997
0.274663
-0.68676
-108.991
-27.61
-41.7033
-28.142
-6.71094
2.54407
-0.553761
-9.84989
-110.021
-0.217645
-0.825297
-0.389538
-86.9199
-0.66387
2.14275
-114.746
0.933295
-100.999
-9.97813
-5.01515
-12.7718
-0.159538
-11.769
0.561075
-96.5591
-25.0803
-26.2122
1.42832
-0.398558
-0.905249
0.320038
-15.3793
-0.353151
0.894014
-0.710841
0.411787
-0.401683
-0.667959
-91.0484
-22.0081
-0.728337
-61.1411
-0.186298
-0.203313
-99.0238
-16.5138
-57.4182
-0.292407
-0.166041
-57.1224
-4.12726
-51.1051
-67.7812
-2.01232
-0.547159
0.241639
0.222686
-12.677
-110.507
-0.628934
-114.488
-7.13706
-0.759956
-7.14412
-0.935444
-92.4922
-15.5643
-119.464
-14.4195
-10.9115
-121.707
-0.967932
-0.173357
-119.11
-61.6066
-4.72079
-38.0809
-0.538037
0.116404
-0.131113
-77.9692
-3.16117
-14.513
-120.558
-117.992
-118.11
-87.4257
-15.8315
-18.0319
2.75871
-13.666
-99.5182
-121.477
-89.2204
-0.382868
-123.569
-0.809582
-0.654011
-2.64274
-26.9983
-27.1903
0.50224
-0.143855
-0.421329
-4.05175
-0.519902
-119.851
-33.6092
-9.5699
-0.356706
0.128386
-9.41226
-78.5119
-0.216512
-36.3713
-125.427
-12.7931
-7.63118
-0.505317
-0.00537544
-49.8638
-87.0842
0.469333
-5.21491
-0.719392
-0.473952
-36.262
-108.22
-10.9748
1.17774
-47.9014
-0.150577
-19.0845
-31.9824
-1.70599
0.00665511
-3.80083
-127.092
-100.361
-17.4209
-126.019
-0.0336569
-0.498087
-84.9972
-0.235926
0.484083
-113.876
-47.5224
-0.238775
0.681212
-0.93163
0.937762
0.0678802
-17.733
0.875437
-4.92427
-8.84962
-16.4889
-1.56036
-0.183293
4.34485
-2.32286
-123.603
0.700033
-93.5527
-7.189
-125.243
-126.675
-134.374
-130.449
-86.955
-0.168507
0.671244
-2.19905
-1.86932
1.41546
-4.19573
-1.67194
-16.4535
-1.14976
-32.5191
1.74377
-123.023
-5.57866
-16.2347
-123.422
-138.102
-1.33361
-9.35289
-2.48836
-2.82902
0.877975
-0.561084
-11.1927
-18.5768
-115.101
0.0675317
-115.24
-132.411
-124.444
-122.38
-132.361
-116.778
-93.4534
-0.0781469
-0.641252
0.455783
2.00045
-118.028
0.599382
-132.616
-13.7643
0.0695871
-22.2965
1.09788
-2.8963
-105.385
-4.36447
-115.835
-38.5396
0.392496
0.316202
-9.00965
-128.736
-10.1584
1.32384
-3.03785
1.11262
0.280467
1.37966
-103.806
-5.49629
-2.46449
0.240902
0.683966
-140.426
-0.113445
-1.14558
-144.913
1.09686
522.164
207.597
256.417
176.253
151.772
105.945
80.9439
59.541
30.9689
543.267
188.283
251.414
180.411
158.595
118.308
93.535
72.4609
49.8504
560.636
160.871
235.339
176.789
157.074
122.003
97.5723
75.5644
52.9724
554.511
132.275
207.497
161.264
145.668
116.822
94.9154
74.4091
53.8289
514.745
99.501
169.443
136.96
126.389
104.492
86.7722
69.9979
52.848
441.125
58.5171
122.551
105.748
100.568
86.0552
73.3332
60.804
48.8265
337.089
14.2901
71.0486
70.8374
70.6825
63.5205
56.1672
48.5648
41.9831
213.624
-14.6695
23.0396
37.0521
40.2486
39.3981
36.8122
33.8297
27.9146
84.4623
-20.7772
-15.2206
8.85688
13.2189
16.9259
17.9597
18.2857
18.8992
-39.2972
-18.2765
-42.6335
-11.4314
-7.4054
-1.10361
2.05858
4.66055
7.31125
-152.813
-20.029
-59.295
-23.1884
-20.1535
-13.0657
-9.2686
-5.95821
-1.73267
-229.721
-13.9009
-62.0697
-26.4742
-25.287
-19.0429
-15.873
-13.288
-7.49644
-243.742
8.16965
-49.6209
-22.9046
-24.6617
-20.3477
-18.1953
-15.8004
-13.2202
-222.827
30.7374
-32.2647
-17.0823
-21.5911
-19.3923
-18.1806
-16.1006
-15.1332
-197.758
41.7603
-18.4708
-12.7237
-18.7277
-18.1139
-17.4789
-15.7989
-14.3076
-167.652
42.3949
-10.3452
-11.1382
-17.2586
-17.4386
-16.928
-15.4135
-13.3336
-143.15
31.0726
-9.00654
-12.54
-17.3988
-17.5427
-16.7717
-15.256
-11.8535
-131.729
7.59463
-14.9144
-16.305
-18.6751
-18.0666
-16.7557
-14.9098
-11.7147
-118.676
-14.7777
-21.3311
-19.8741
-19.8238
-18.3609
-16.5811
-14.4838
-12.0063
-98.5035
-26.1497
-24.4804
-21.4711
-19.8241
-17.7154
-15.5627
-13.2141
-10.5829
-79.9368
-29.1095
-24.5285
-20.825
-18.4478
-16.0656
-13.847
-11.4975
-9.50058
-67.0534
-26.7264
-22.3855
-18.3559
-15.8899
-13.5129
-11.3915
-9.09429
-8.3746
-59.4553
-19.3064
-18.5323
-14.5811
-12.4866
-10.3985
-8.58533
-6.62545
-6.30053
-52.5382
-8.35723
-14.8324
-11.6129
-9.80568
-7.80632
-5.99636
-4.13317
-4.16153
-39.5419
5.02177
-5.07019
-4.04492
-3.96365
-3.74165
-3.24502
-2.28948
-6.40074
6.2826
5.76064
5.26489
4.92326
4.67731
4.52951
4.45716
4.47332
4.63842
4.99927
5.58186
6.43946
7.62964
9.21738
11.2556
13.7706
16.7846
20.2588
24.1074
28.4372
33.4783
38.9726
44.419
49.8192
55.7507
61.1475
64.255
66.6883
70.7917
76.346
82.2837
88.7803
95.8785
102.358
108.293
114.352
120.437
126.367
132.053
137.632
143.182
148.865
154.815
161.358
168.799
177.447
187.79
200.374
215.48
233.67
255.364
280.279
307.352
335.911
366.694
399.922
433.995
468.469
499.747
2.81392
2.01009
1.20664
0.546337
-0.0379409
-0.566649
-1.04239
-1.45355
-1.82816
-2.21126
-2.62872
-3.0989
-3.64054
-4.2711
-5.00182
-5.8423
-6.79302
-7.83981
-8.76218
-9.18955
-9.02448
-8.49277
-7.58244
-5.92389
-3.20724
0.082157
2.9892
5.0396
6.07184
5.55876
4.05914
2.59435
1.40741
0.443123
-0.241545
-0.500043
-0.472156
-0.416413
-0.39195
-0.335858
-0.170413
0.233929
0.993514
2.26619
4.18583
6.94597
10.7341
15.7778
22.3173
30.5553
40.7133
52.8468
66.3888
80.5469
96.2931
114.589
134.399
155.278
177.927
3.62876
3.15128
2.62288
2.22263
1.91144
1.69649
1.5852
1.57702
1.66707
1.85278
2.13412
2.51278
2.99357
3.58351
4.29361
5.13655
6.12767
7.28451
8.63934
10.2001
11.9437
13.8603
16.0074
18.428
21.0733
23.7525
26.1839
28.3901
30.4293
32.27
33.8838
35.4805
37.1594
38.9267
40.8421
42.9797
45.355
47.9384
50.694
53.5878
56.5691
59.6011
62.6429
65.7125
68.8529
72.2228
76.0486
80.6745
86.5187
94.0219
103.617
115.572
130.047
146.805
165.434
185.122
205.802
228.954
249.766
1.91361
1.41348
0.902878
0.479353
0.114973
-0.185342
-0.418184
-0.583531
-0.685763
-0.730277
-0.721906
-0.664098
-0.558156
-0.403341
-0.195756
0.0704746
0.406487
0.827137
1.35803
2.02574
2.83749
3.77914
4.83924
6.00987
7.26122
8.51752
9.6751
10.6512
11.3945
11.8733
12.1158
12.2009
12.2063
12.1898
12.2087
12.3048
12.4877
12.7389
13.0158
13.2656
13.4093
13.3896
13.1471
12.7002
12.1064
11.548
11.27
11.6492
13.1143
16.1675
21.3106
28.9618
39.4244
52.7134
68.701
86.8622
106.67
128.428
149.896
2.38669
2.11229
1.81147
1.57645
1.38709
1.24772
1.16364
1.13836
1.17292
1.26751
1.42227
1.63821
1.9178
2.26477
2.68446
3.18268
3.76587
4.43818
5.20404
6.06234
7.00787
8.02769
9.10685
10.2239
11.3494
12.4438
13.4658
14.3881
15.2001
15.9035
16.5243
17.1034
17.6972
18.356
19.1181
20.0111
21.0204
22.0952
23.1613
24.1164
24.8403
25.2463
25.2634
24.9097
24.246
23.4449
22.7299
22.4392
22.9624
24.779
28.3988
34.2869
42.8161
54.062
67.8533
83.5804
100.585
118.875
135.322
1.75721
1.52848
1.305
1.1236
0.972114
0.852634
0.767489
0.718649
0.706884
0.732869
0.797292
0.901592
1.04844
1.24161
1.48607
1.78728
2.15173
2.58301
3.08669
3.6623
4.30639
5.00612
5.74499
6.50235
7.2451
7.94747
8.57088
9.09295
9.4949
9.77011
9.93355
9.99372
9.99517
9.97446
9.9299
9.88767
9.79595
9.56702
9.17751
8.5411
7.59227
6.30566
4.67322
2.76238
0.665047
-1.48787
-3.50313
-5.13514
-6.0769
-5.92804
-4.2391
-0.548927
5.55825
14.2747
25.5496
38.8765
53.5743
69.3444
84.1703
2.00215
1.88642
1.77582
1.69469
1.63579
1.59913
1.58478
1.59364
1.62626
1.68368
1.76746
1.87969
2.02365
2.2032
2.42272
2.68766
3.00437
3.37066
3.7946
4.27292
4.80639
5.38179
5.98698
6.61578
7.22144
7.80996
8.32893
8.77873
9.13506
9.38829
9.56647
9.6179
9.60296
9.56249
9.41233
9.27358
9.05912
8.60967
8.11172
7.43154
6.56498
5.51384
4.27792
2.90889
1.49751
0.0180938
-1.32992
-2.46728
-3.16304
-3.14037
-2.06884
0.44408
4.78874
11.2348
19.811
30.1371
41.5976
53.7816
64.8574
2.0185
1.93752
1.87319
1.82967
1.80099
1.78799
1.78529
1.79539
1.8161
1.84583
1.89442
1.9585
2.04478
2.15949
2.30309
2.48869
2.71603
2.95506
3.26299
3.62771
4.05998
4.52576
5.01281
5.5637
6.0385
6.55243
6.96415
7.34579
7.63332
7.8229
7.92118
7.67678
7.25567
6.78256
5.87003
5.14661
4.32983
2.60921
1.20581
-0.244275
-1.68165
-3.12539
-4.55806
-5.95349
-6.7598
-7.97374
-8.69137
-9.58281
-10.4902
-10.8263
-10.2462
-8.50732
-5.55492
-0.920714
5.66976
13.8969
23.2079
33.2193
43.079
2.20649
2.19369
2.18167
2.18439
2.19183
2.21269
2.2385
2.26182
2.29568
2.35936
2.40604
2.48665
2.59087
2.70093
2.86427
2.99895
3.23958
3.52049
3.80128
4.10703
4.49219
4.87684
5.32827
5.86075
6.28938
6.83899
7.20266
7.56811
7.90515
7.67074
7.89522
7.28384
6.49752
5.67373
4.11091
2.985
1.40235
-0.475292
-0.862749
-1.83477
-2.40767
-2.5128
-2.92748
-2.50116
-2.4114
-2.39545
-2.06642
-2.44741
-0.986187
0.378646
1.60029
3.05491
5.13832
8.81209
12.9578
18.5328
24.1482
29.9901
30.6401
-10.4119
-10.885
-10.546
-9.9106
-9.57301
-9.52655
-9.35662
-8.46531
-7.22811
-6.4289
-5.51605
-3.81794
-2.0818
-0.710897
0.657308
1.84039
2.5874
3.07159
3.5262
4.04928
4.57385
5.02107
5.38302
5.8506
6.3171
1.80781
1.33668
0.529605
0.464381
0.931336
1.62302
2.60453
3.81795
4.81359
5.03809
4.48817
3.29081
1.9212
1.11252
1.17525
1.90924
2.76795
3.43889
3.82363
3.91667
3.75676
3.50695
3.43387
3.58035
3.73146
-0.397628
-0.681812
-0.670327
-0.521431
-0.149108
0.327349
0.909374
1.53325
2.01276
2.08063
1.85152
1.48914
1.14501
1.00356
1.18226
1.58917
2.04251
2.44507
2.76427
3.00057
3.16515
3.29239
3.42307
3.55651
3.7909
0.550777
0.290778
0.306344
0.364197
0.546053
0.813769
1.15332
1.51429
1.81295
1.95833
1.96633
1.89374
1.82138
1.83532
1.97549
2.20461
2.44854
2.65474
2.79875
2.8768
2.89574
2.86736
2.79326
2.65127
2.52387
0.629923
0.458232
0.475152
0.50411
0.607939
0.767304
0.975457
1.20307
1.40628
1.54898
1.63344
1.68832
1.74912
1.84677
1.99198
2.16399
2.32979
2.4664
2.56496
2.62627
2.65675
2.66211
2.6447
2.582
2.56279
0.715177
0.657103
0.686034
0.692513
0.744414
0.831104
0.958286
1.11127
1.26449
1.40719
1.52942
1.6432
1.76307
1.8932
2.03524
2.17366
2.29258
2.38132
2.43764
2.46268
2.46119
2.4307
2.36448
2.23082
2.09085
0.843789
0.740307
0.791723
0.777273
0.796464
0.833635
0.907144
1.01235
1.12814
1.26583
1.39926
1.53869
1.68868
1.83661
1.98211
2.10971
2.21206
2.28613
2.33488
2.35962
2.36875
2.35775
2.32345
2.24133
2.15304
0.940863
0.765471
0.847843
0.816329
0.826345
0.840822
0.889751
0.964476
1.03843
1.16689
1.29409
1.4402
1.61635
1.77966
1.93137
2.05834
2.15697
2.22805
2.27748
2.30704
2.33162
2.3369
2.32465
2.26887
2.17939
0.763325
0.690147
0.893796
0.84651
0.812294
0.758965
0.732935
0.782827
0.891521
1.0185
1.17289
1.32579
1.48505
1.64922
1.83809
1.96985
2.07631
2.15774
2.2437
2.28898
2.32374
2.35125
2.35234
2.30053
2.22977
-123.803
-129.916
20.9469
9.12414
1.915
1.67119
8.69758
2.85317
21.2852
5.1626
26.0496
2.81203
-150.76
0.984006
14.4734
2.86349
24.2441
8.25418
-5.43781
123.509
13.0654
4.86816
27.2798
3.59498
2.58441
2.89912
2.57571
0.385346
-136.091
26.1172
19.3564
3.05188
19.7647
-41.031
27.7116
2.29369
6.7563
14.0888
5.37883
5.26575
25.1164
3.43323
3.63916
0.0333637
0.564018
-1.83243
22.6507
22.0887
-80.034
-18.3125
23.3072
13.2102
-45.3256
8.49417
8.17344
21.0996
1.0793
-26.0384
1.25085
19.3691
2.53151
20.9798
1.87132
3.09594
2.70914
0.215757
-0.465629
2.61483
-143.21
-47.3303
20.8516
5.86479
1.90518
121.109
1.85551
8.06769
111.35
22.7051
1.68078
8.00981
-44.4903
2.43153
3.0291
27.1041
2.24725
2.5176
1.99078
22.958
17.7725
-2.79858
1.37856
-10.8381
2.78931
2.93707
1.75468
26.5056
2.93704
24.2412
3.4149
15.1494
0.735521
25.1069
0.675106
5.32389
1.3459
1.11766
27.4074
-34.8827
2.98605
25.7695
3.85993
2.92607
24.5877
5.03949
-47.9446
-85.6159
1.35988
5.76096
-89.3411
3.04406
3.12672
2.82895
3.86107
2.72343
20.1906
3.54489
15.4583
116.866
2.03425
21.6417
2.9852
120.478
-48.6618
-2.73517
0.323037
2.01418
0.70354
0.842101
2.6409
123.213
4.19535
3.10078
14.8766
3.14428
-106.602
2.69813
8.39594
53.092
2.64687
27.718
3.77278
2.1459
8.50715
17.6447
2.3435
24.4234
1.66652
5.03161
114.175
4.69401
3.66485
21.1548
2.79587
24.4462
3.61135
27.0257
1.18378
2.23219
3.19715
1.55378
1.09514
3.31208
2.26888
26.6303
-10.3999
0.652817
13.8806
-79.0004
-43.2138
5.71788
-0.824171
3.36416
-52.4114
13.6779
1.31088
3.67616
26.335
2.95468
-2.46268
2.71756
22.487
11.597
3.79312
3.16777
16.3684
9.76017
1.86482
4.66909
-96.0541
-164.083
-170.043
4.02613
2.56812
2.64775
4.83047
4.73325
4.09126
0.693073
-62.3513
5.01317
1.35755
2.88913
-2.52537
4.47002
3.33226
26.9976
1.45787
3.96721
7.52587
-4.33
0.623683
3.44965
2.47388
20.3422
6.35649
10.255
1.33137
23.9115
2.98046
1.87635
25.0242
2.35678
3.1924
2.98095
3.5197
4.99017
87.7001
0.473893
6.36102
12.4222
24.6875
2.48213
3.73838
0.410186
1.91566
2.39227
3.21549
0.929872
2.83513
3.69615
2.99449
0.76312
4.67044
-76.3339
3.16788
1.81064
25.2816
109.136
110.23
3.89338
1.52777
1.93378
2.69807
2.2134
118.77
2.81772
4.50249
9.14208
8.03122
2.28602
15.6577
5.00732
3.37677
3.98207
-4.5279
9.06424
2.84182
22.1225
0.984737
19.8767
0.444875
3.57909
3.45489
-1.39858
-46.2672
2.63909
1.11222
6.77523
26.4646
22.9558
11.9314
2.90083
3.33342
25.6389
-72.1034
27.2852
23.8148
-4.03983
4.75926
-22.4577
15.023
3.6629
4.54623
2.57913
22.5107
3.86519
15.8627
0.807791
123.218
2.46082
5.48466
0.317945
8.95338
2.33768
3.36801
3.67416
22.1825
4.42052
2.67683
-28.1608
104.606
2.97221
4.5544
15.7542
2.24038
2.81162
0.848387
-37.1546
1.05342
-22.5993
3.38354
15.8605
0.703011
5.15998
22.9453
2.47835
2.81714
2.93514
2.91081
1.99197
2.90274
2.76419
2.62411
-5.65859
117.679
1.4684
1.13687
3.40551
2.03456
23.4533
0.589335
2.73817
3.23109
96.4936
25.8756
6.13473
-24.8353
-0.185235
3.60535
26.4114
-59.5809
27.4015
3.98725
5.553
3.46933
1.95632
3.18983
22.2494
2.61839
-2.05119
1.07522
17.0702
-130.893
21.9116
-131.266
3.03286
2.96537
3.46833
4.63949
4.92712
23.6499
2.75141
21.7712
-0.120347
-0.0680315
-55.2956
3.5389
123.368
26.2134
23.8383
6.72175
4.6733
-2.48978
20.2873
5.12825
4.19407
3.7245
20.8566
4.83929
-127.348
2.69791
3.78546
2.19691
-48.3973
2.64078
3.66527
9.19795
-1.53201
-1.84424
5.81932
12.3687
2.53523
-20.9637
2.54139
3.06224
5.33025
-75.0526
23.5178
4.76436
-4.68879
3.65947
4.52036
-1.0428
0.615142
3.58153
20.8992
2.92748
4.46953
8.08508
3.08635
2.59859
1.79796
-9.36675
1.6881
11.5923
3.21394
3.43971
3.32291
3.37272
4.80761
4.61846
11.6295
26.1497
-0.611105
-141.513
17.5183
0.447278
13.6304
1.23944
1.70642
21.7937
3.48851
2.70374
-27.2764
-1.23058
-49.8981
26.9437
2.62121
1.40708
101.752
2.79634
0.276226
10.6525
-5.72161
20.3386
2.41051
1.35452
20.8473
4.50259
27.4
-1.8525
2.2002
27.3981
4.98927
2.80702
-72.2286
-9.7688
1.82259
48.04
40.1812
3.49998
7.98608
3.5467
2.75232
25.2874
2.02722
2.38475
5.46748
-0.301058
5.65886
15.3978
2.84254
2.92484
18.9896
2.56602
1.17464
17.5153
2.59161
3.54495
-11.8953
3.69431
11.3633
2.64819
0.378651
13.0502
-32.5815
2.69739
2.73936
9.11939
2.97559
4.21868
-20.0889
-4.21479
-9.0916
3.64208
22.4009
22.3699
-70.4713
2.94877
5.43867
-0.974153
21.9144
123.364
11.6325
-49.3789
5.35905
20.4542
23.4958
4.5035
4.31968
0.805871
4.85882
9.89616
19.0142
3.00439
-0.799261
3.26044
-37.9929
-84.7712
2.7903
-36.1798
25.2399
4.17411
27.2968
3.23727
19.8199
2.85325
0.674136
2.58194
22.2724
5.50398
7.72395
1.98527
-72.6709
-68.4305
22.1985
2.44206
1.58481
-126.784
-42.7183
-3.3126
-6.2768
3.19871
-92.7887
26.4601
2.45366
5.28056
1.27119
3.06943
1.10491
10.8008
6.17415
14.6746
1.32829
1.63149
23.942
22.8521
-44.615
0.636443
1.11426
123.214
-68.4186
3.71558
0.589932
3.00069
21.1249
4.4978
1.63189
-7.14412
4.83895
1.53652
2.25126
3.23763
20.4164
2.36256
1.2592
-58.7352
-64.7626
1.95399
3.19319
1.44713
0.327925
3.487
4.62885
114.517
3.19922
2.61794
5.51432
6.73156
3.43034
3.76047
7.99172
2.58879
3.25077
0.83172
-20.7167
4.50563
1.20247
19.5818
3.69258
2.42267
2.76898
-3.9333
2.56212
2.25042
17.9327
25.9712
0.395984
21.0942
1.99519
2.02627
2.05013
3.5649
2.78113
3.03664
-2.20721
0.563888
2.64333
1.86867
24.3333
4.91312
0.769639
0.19498
4.46834
1.80107
3.66017
1.74514
-0.68384
12.1541
21.469
94.518
3.76134
3.92753
3.21042
5.03088
4.1584
22.6204
22.1245
41.2967
3.4324
-38.0384
7.69407
25.0331
3.1703
2.12956
2.89023
21.6907
14.7389
0.33089
-57.1536
2.23359
-1.9686
2.22262
13.3469
3.51911
2.89035
4.38106
2.28461
-0.948354
4.91044
3.39501
-30.136
4.48717
2.91422
4.49372
0.793445
3.58777
-103.564
27.2806
2.90229
9.75554
4.73507
26.9363
2.95784
0.9648
3.69729
3.00855
-6.18812
2.78802
4.25652
1.22359
2.92657
3.11471
4.82493
7.32449
23.4269
16.9382
3.1626
20.9906
13.075
0.667881
28.0675
-2.87288
1.71629
2.30362
3.66425
2.73951
-0.285421
2.66177
2.39213
-117.865
-5.90564
16.3599
-0.380854
3.56958
-3.36328
2.69138
3.05711
-28.4263
22.541
-0.135377
-34.4793
8.33028
-86.665
40.6124
26.0337
25.9342
9.93888
3.90317
2.79298
3.50256
3.90471
2.79281
-109.396
-80.8926
-3.61064
116.534
-0.633431
4.38935
2.8504
2.58009
26.4592
18.6854
2.72611
9.0479
28.8788
-51.4952
-26.4637
3.66735
3.82003
0.491857
3.55219
-95.7862
-2.70976
27.4206
17.9763
1.7041
11.3649
3.06484
3.70301
0.607589
1.56113
0.817478
4.68226
3.5769
0.38702
2.67874
2.99224
3.74051
2.59477
1.10691
4.88574
12.6633
12.3456
4.52608
-0.0991749
3.2312
122.967
2.23845
0.802277
0.820429
28.7451
3.10335
3.57388
3.94803
22.497
17.6636
57.5491
2.68795
45.0897
-95.626
65.1201
18.5495
4.94437
1.01396
-4.00294
27.2327
3.4063
2.71372
0.577471
7.88683
20.9421
3.16605
2.247
-20.5724
2.09661
19.7051
13.06
6.37383
3.19509
21.9681
-106.285
-46.3845
3.72601
4.55801
3.5473
41.4601
3.40315
3.68107
2.4586
1.11452
57.5073
4.71495
0.537446
-55.3369
-0.901315
2.74393
14.7235
0.699798
2.87374
2.9197
30.8022
4.87538
2.83837
-98.2596
5.45714
-3.54165
3.4097
0.809611
13.7128
22.6141
3.65233
4.7961
2.51005
12.226
123.149
20.1691
3.0144
-113.124
14.021
2.95926
1.56977
0.967982
24.797
4.89931
122.921
2.91482
2.96069
15.936
2.77751
11.2549
11.3009
54.882
14.7478
21.898
24.3333
1.73403
20.1126
13.7467
-3.65427
8.13803
2.26459
0.963563
111.344
2.6865
-7.36151
43.44
18.6234
4.66202
4.13285
13.7927
1.25602
2.61232
25.5034
-93.6952
-51.7158
-2.15934
1.07064
21.4709
27.5496
-67.6115
-4.13456
-14.2273
2.76221
3.59546
5.44637
-52.7157
4.91939
4.23016
2.11274
13.2395
2.93605
5.39551
-45.5522
3.19589
1.12459
0.204908
-30.3494
-7.89588
-33.2024
-99.1285
5.52849
0.281163
5.64977
-0.963186
-78.2187
-22.6318
4.04175
2.63775
2.66376
3.73714
41.0125
26.6193
2.84555
-24.8209
-5.58366
80.2673
-3.59458
2.23663
2.87177
19.4849
-35.5136
0.323565
21.4276
2.9638
3.20319
12.1307
11.9
-12.7307
-8.09832
21.8849
2.90994
3.64907
11.9772
2.71712
3.73393
2.46413
22.0724
-0.00120134
0.707032
72.0181
9.63106
1.3391
0.080258
5.59654
5.8816
1.19074
3.36443
-3.72465
3.4911
0.986768
-36.288
123.101
19.5495
2.86041
1.44123
4.4377
4.3204
-121.411
1.66155
0.850025
23.5194
2.76475
0.891213
2.43151
2.12933
-70.0361
5.0189
4.32764
3.49688
8.17218
9.0596
2.52556
2.6096
60.8969
2.97353
2.01134
2.83062
-18.6011
4.13367
2.88952
25.2185
4.7298
22.7645
2.79045
-80.7716
2.1675
2.5543
4.57318
5.76463
13.6515
3.01094
0.489492
116.459
4.31369
-6.10143
2.71849
3.49336
2.62167
21.0454
3.05292
2.72404
26.4363
0.709595
24.7442
3.75641
-3.18498
3.24735
5.81363
3.65424
0.995745
21.1054
6.05371
-0.0702341
4.43177
-0.127775
6.55766
-25.2698
3.42456
0.844297
-3.80322
3.42635
4.78295
4.04025
22.2026
8.42091
44.0422
2.96345
12.1248
22.105
0.630137
98.2637
2.73518
-83.527
27.3357
23.7246
2.56731
2.66876
0.917939
-33.7407
4.36513
19.225
2.81041
0.785613
11.5143
1.71103
4.72047
1.0242
5.11996
22.6817
5.34812
-102.05
0.873155
11.1579
5.18044
3.17304
3.49188
5.20669
-25.6994
4.7856
122.719
9.34021
2.16536
3.44925
-89.1098
24.267
4.16334
4.65021
6.09279
3.90641
7.98002
0.711558
18.1202
2.96653
2.41908
-77.9476
2.50453
4.60936
12.9034
3.32018
2.1033
3.56331
0.736949
1.50538
16.9103
64.923
-0.224767
0.666664
23.5102
19.2125
23.6364
3.66263
3.98339
116.127
4.69834
1.18833
-5.18377
-107.955
4.89138
4.25116
4.63584
0.265519
-78.3407
2.54915
4.82141
-63.2285
-32.1025
3.69668
3.20643
2.09139
3.09033
1.10857
-59.9973
2.44275
64.6349
2.58534
-0.67737
2.27906
-13.0492
3.26731
26.8569
8.48059
21.8938
-80.2267
-74.5745
10.1151
2.83654
9.68483
-17.357
2.9403
4.2783
2.85056
0.750633
3.47317
2.43594
2.99136
15.5859
1.57839
0.564846
11.2985
0.836025
1.04502
1.55128
24.0252
3.74159
26.5514
25.5544
0.945153
3.38379
1.0925
2.54124
0.362937
49.088
17.9919
1.50743
2.84572
4.54237
19.1659
21.3082
2.76786
-2.30681
1.57272
3.88794
2.21984
0.397405
4.34715
0.841092
1.00237
-61.6201
3.04092
1.69455
22.9045
2.74146
1.1898
2.14611
11.0907
1.09941
4.01624
-103.562
3.02954
13.7462
-38.1755
2.19753
4.9079
12.4727
3.75743
2.54715
-0.0660878
13.3843
3.08183
-87.8313
1.6871
13.4453
-25.3378
117.096
-72.0194
4.86998
2.49359
114.416
57.9356
1.50766
4.36484
4.90955
27.0646
-2.38593
1.78301
4.50064
4.92137
4.98632
4.67731
1.68368
4.15037
-28.3993
115.644
5.75456
4.60766
3.88105
3.39244
2.68276
-3.00681
4.52335
-1.098
13.4335
83.1175
3.56515
84.0332
-131.142
123.125
-76.3421
1.25481
-55.0081
6.04389
4.65092
3.68268
-50.5189
3.89466
21.5078
6.80898
-4.12568
-102.707
16.9251
20.7158
-20.8321
0.657793
3.48527
8.59342
-28.9515
5.86044
10.5252
4.14658
123.209
0.913712
-38.0506
4.46228
1.30968
2.71785
121.246
2.91004
2.71047
123.507
3.50472
-87.5639
3.06099
3.84932
-25.4919
8.33191
-1.23481
-48.9608
15.2917
5.39757
3.13006
5.94855
-2.50733
0.663966
1.9444
-46.188
-110.813
3.99895
26.187
-5.87413
3.76134
5.81003
2.07455
3.32178
2.15277
5.08665
31.7933
3.22758
21.2354
2.48275
-3.20105
22.9682
3.81445
4.6506
-77.3216
3.62751
3.15597
3.49093
81.3102
-20.617
2.53626
12.4506
1.43337
2.69451
-1.14589
3.79816
2.95437
-115.941
2.05417
3.71961
5.97324
2.90405
4.44319
1.89108
-15.0762
-36.2039
-1.79573
4.18296
3.04463
-88.5051
21.0125
2.48507
1.93733
0.820731
8.51341
1.99018
-1.73217
-136.9
2.54064
-13.5843
14.797
2.42526
-0.678697
4.53072
5.90543
2.18264
3.13997
1.17376
0.373684
-30.355
3.26687
2.67243
2.52757
24.5756
4.11161
13.9171
3.49561
123.183
-69.9217
1.0115
-0.305732
3.4984
4.26611
3.09431
-43.8001
-34.0616
1.64485
3.69921
1.4306
5.22748
2.97045
3.07551
27.2203
4.279
107.623
6.72467
5.21961
2.54543
-68.9733
4.3432
-74.6549
3.52249
2.44305
1.38198
-1.80826
2.51041
1.59468
2.55967
2.63437
21.3112
-36.099
-0.638835
1.0244
41.9909
20.9163
2.67768
22.2983
-86.7086
15.0638
5.13552
110.932
2.85857
5.0451
5.59375
2.34226
15.5916
-1.86886
22.6409
1.83779
0.57154
123.497
1.40854
-37.2934
24.3671
-0.667071
1.65676
4.92382
0.772864
-23.8111
1.74879
-51.742
0.276105
3.58684
0.738313
4.55566
0.253986
4.57683
3.22566
2.99696
2.11514
-0.976602
-7.60869
0.633248
21.8166
2.61962
3.36148
3.41496
0.767974
2.86919
19.947
-37.2953
2.77049
-31.8812
4.1347
80.6295
5.8915
5.10091
2.49498
2.43466
-38.4325
3.41448
3.39264
11.5766
-2.20833
3.29034
4.58059
5.141
4.81895
10.0886
2.83134
2.9616
9.73879
2.60136
3.49737
4.89933
18.5147
2.79248
-32.4802
-73.3666
4.88076
15.7901
4.90577
3.51512
22.0096
3.55822
-4.4969
3.35817
-38.2641
0.887055
4.64999
2.15138
11.5912
24.3455
1.11047
2.90878
-31.1129
-0.484855
-0.182794
-86.3446
3.95589
5.52565
20.9818
4.81898
-37.1496
3.02394
2.91051
5.74291
2.5088
14.9059
-49.7663
4.06918
4.55841
-8.59787
4.07389
4.13078
4.64032
-0.208155
-1.24691
2.50045
1.96666
4.42765
3.1131
2.15539
3.085
0.810305
3.83343
23.3716
-37.926
2.23621
-104.006
1.29847
58.4182
20.7115
122.987
-8.36289
5.5539
3.49392
-24.5268
4.27044
3.85039
-73.4339
2.83508
16.8709
-43.5711
-96.1765
5.24657
24.6327
1.93993
-17.4098
1.39148
4.62847
12.5139
0.581527
52.2169
3.52638
4.58725
1.718
4.53573
18.3371
-0.622487
3.38222
-87.7268
0.760878
-41.6299
1.72104
21.0982
4.13653
5.05768
1.15258
1.68607
-9.70802
14.6222
31.5809
1.93678
-41.4446
56.2778
5.96132
123.42
3.87074
3.70571
37.6003
-8.49036
5.65673
0.991654
1.56534
4.22671
2.85088
4.13013
60.7946
15.2316
0.444896
25.7794
-14.7246
0.682046
0.608792
8.56166
0.837201
38.6367
1.12548
3.22483
2.61349
23.3306
2.21069
-1.39281
-35.3291
2.48139
6.67171
22.6117
3.22704
24.7767
3.54736
46.7261
3.89082
2.82699
2.64572
4.79532
2.99065
-0.743487
4.70835
1.11351
4.91803
-52.7411
23.69
2.66439
55.0628
2.10504
2.60268
3.12029
3.90949
2.85483
15.0124
4.11735
-7.39498
-34.2275
13.472
115.501
5.78825
4.88862
26.5432
3.45347
0.431729
3.97216
2.80633
0.10775
23.848
4.53017
4.85083
2.26539
0.808388
0.680009
11.9287
4.89855
-5.61984
-3.8834
2.81353
2.82775
8.10301
-3.46982
2.37424
3.00986
0.712803
2.78429
8.98657
6.06659
4.02426
7.1852
-26.5238
-85.7099
0.751446
4.13504
5.18524
8.94188
-47.6757
1.92616
2.66849
-0.189515
3.82793
2.62557
0.761183
-16.4442
5.40506
2.53112
3.14395
3.22636
1.26233
-36.3559
2.2631
4.32062
2.59159
-3.08458
-40.9242
3.41334
15.3967
5.42693
0.953546
1.93928
3.41679
-19.666
3.98003
3.23038
14.605
34.2193
-0.37168
3.95961
3.15726
28.7046
19.3244
25.82
2.91437
118.319
3.66867
-2.66175
23.4289
-47.0549
2.67258
2.84745
6.85138
9.64242
4.92102
2.15285
-32.8186
2.52936
5.8232
2.00406
4.70187
8.87794
3.90611
3.71147
4.73166
-76.5267
2.81073
2.36566
1.76417
-1.64947
4.5975
1.38544
-14.0736
4.50028
5.5263
5.28567
4.00828
4.54175
4.9527
3.92851
2.54389
18.921
4.95303
1.70427
5.7266
4.86962
2.98551
1.6142
4.64659
26.7785
2.35397
55.2167
3.25828
1.62071
3.43117
4.28255
2.96608
20.7133
4.91336
1.77876
4.42594
4.51409
49.8179
2.67923
3.75988
17.4842
-10.6452
2.51925
-35.5556
4.44197
50.081
3.67044
-21.0655
4.31061
-7.33734
2.80225
-20.458
0.322534
12.1546
24.317
21.9469
2.48392
7.15586
2.927
1.86319
2.87103
-17.8208
4.3853
1.55032
75.5224
23.6298
-85.6698
5.00833
17.3011
1.95895
3.42301
2.3908
4.89938
4.63669
13.8804
3.48145
-1.40822
4.44582
4.23121
4.66897
-9.80688
3.51637
2.56401
20.828
5.17403
1.96565
-0.860145
-1.27857
4.36833
3.76306
0.0508431
4.55431
17.9894
8.58268
3.37316
0.967328
121.308
2.90124
4.64068
4.10464
2.61701
4.82879
0.699248
-22.708
2.22321
-11.5427
0.494087
0.897302
-20.555
-0.841987
1.6746
4.78918
2.13006
3.04475
2.26627
-153.207
-144.193
3.65389
3.60329
2.71016
19.6756
0.995402
4.59009
2.26883
0.954265
2.45669
1.52071
-7.42017
0.838673
-15.2503
39.8708
3.59771
18.0208
-0.91305
45.7386
5.11824
2.49859
3.38483
1.33844
3.33181
3.35105
18.5391
21.6358
18.4068
-40.8726
87.2039
3.3644
2.32301
8.99399
2.38795
9.90036
22.7494
3.07624
23.6426
67.6026
25.5344
4.74486
2.19597
2.73744
5.19613
-41.5932
4.34206
-28.3128
4.20531
4.9692
1.388
22.8271
30.6645
2.64281
4.54444
6.1076
4.21833
3.45954
5.71125
79.7215
3.29375
2.78064
23.6839
4.57591
51.5739
1.14278
2.95746
4.69626
-55.7237
3.40604
2.90764
3.67457
3.89528
0.485028
3.13179
-1.02625
0.580097
2.93141
4.64572
2.91922
77.2535
-4.42054
1.96696
14.9976
-6.38088
0.851208
45.1085
4.91235
-34.8844
51.3566
4.38354
0.552133
3.33732
3.09096
1.79936
-61.8415
3.59643
28.8651
-0.208134
12.027
13.164
-20.3259
115.601
2.97174
-3.27548
27.2049
0.788337
2.49997
2.92571
3.9551
122.637
26.8479
3.95027
36.6559
1.71541
36.5194
21.7192
-8.76684
-2.67544
-15.5111
8.92655
0.628931
4.47514
0.88795
35.5638
13.4161
4.29929
5.12627
1.96176
23.8566
3.79046
8.29413
19.7662
3.81019
0.902352
33.1607
0.190894
19.4024
-13.2071
3.66653
1.71472
3.19839
4.38242
3.01566
10.3286
4.59851
3.07213
41.0427
1.85795
2.56962
0.344134
3.41938
-1.74927
48.9231
20.6165
0.190699
25.5182
2.88086
4.93049
3.10509
-16.2444
86.5012
-29.9071
2.99694
3.36632
4.18771
-29.0735
0.182171
5.18647
2.95442
27.1613
3.11284
1.86532
-87.8277
3.47185
4.84538
0.943919
8.73317
2.96229
-1.32533
21.1724
3.03114
3.35275
25.1983
3.05007
16.6874
24.7712
1.76077
14.153
2.89666
23.6877
-0.296455
4.40526
2.59624
3.421
4.81533
3.92285
3.358
2.63862
-0.469754
44.1727
3.19996
3.36695
3.87344
16.5176
3.76146
4.11519
2.81636
16.5392
3.13417
18.1721
-7.39183
-1.2029
8.19665
7.36113
47.8676
122.313
-7.25282
3.87594
1.09398
112.181
25.2002
22.6299
10.0176
4.44899
3.28371
1.54732
1.73359
6.42898
3.55426
5.08978
2.13562
4.79327
122.225
4.50951
16.162
5.61661
3.02273
22.6785
3.11202
35.8464
1.71472
2.15234
2.83748
2.89444
4.45645
2.22356
11.9005
0.354967
3.07462
9.39453
18.4817
48.3575
4.50266
2.5262
-0.182028
14.7897
-61.594
-28.895
8.16292
3.72455
3.29026
3.47817
0.915941
61.1712
20.7529
2.12459
4.17816
0.610751
1.55866
9.60258
3.98304
31.3966
2.55051
1.77225
3.09619
-4.63572
3.1151
122.084
24.4958
0.144738
0.748667
-0.125704
3.36414
1.04515
2.55311