/*--------------------------------*- C++ -*----------------------------------*\
  =========                 |
  \\      /  F ield         | OpenFOAM: The Open Source CFD Toolbox
   \\    /   O peration     | Website:  https://openfoam.org
    \\  /    A nd           | Version:  10
     \\/     M anipulation  |
\*---------------------------------------------------------------------------*/
FoamFile
{
    format      ascii;
    class       surfaceScalarField;
    location    "300";
    object      phi;
}
// * * * * * * * * * * * * * * * * * * * * * * * * * * * * * * * * * * * * * //

dimensions      [0 3 -1 0 0 0 0];

internalField   nonuniform List<scalar> 
16133
(
1.48091
-0.0684845
-0.0301154
-1.38373
-1.35804
0.301325
-0.358347
1.41505
-0.553976
-1.91844
1.49758
0.974832
-0.167652
0.0324715
-2.00641
2.14158
-0.665319
0.156417
2.57749
-2.06859
3.09838
1.39177
-3.81699
-0.673165
-2.1302
0.598452
1.269
0.262738
-0.0320315
-2.21559
0.571769
1.67584
-1.46881
2.17521
1.43041
-2.13682
0.471162
2.49075
-0.195098
-2.76682
1.55638
-1.4798
0.410561
-0.487165
2.36891
-0.790929
0.666005
-2.24398
-0.238542
-2.64044
1.54715
1.33182
1.004
-0.878262
0.0173667
-0.143125
1.12668
0.00402734
-0.126719
-0.983323
0.741096
-2.38393
2.62614
-0.146715
-0.00171496
-0.729838
-3.61583
0.712739
2.77435
0.128746
-3.73317
3.19066
-0.926311
-0.0868609
1.58124
-0.0134471
-0.483107
1.81257
-1.5364
0.206929
-0.306769
-1.95915
2.09826
-2.52364
2.53725
-0.996928
4.25738
-3.2438
0.443553
-1.45715
-2.6198
3.20464
-0.113671
-0.00306915
0.00500863
-0.0674527
0.0655133
0.00630946
-0.00841347
-0.00583775
0.00794158
-0.0500989
-1.4255
1.28031
0.195291
-0.0385993
0.0667453
-0.0721117
0.0439654
-2.96092
1.83584
1.94795
-0.569705
-2.98487
1.60661
-0.532356
0.548495
1.54023
0.745076
-2.104
1.32689
0.00372109
0.201895
-0.0601176
-0.145499
-1.95266
-2.16929
2.119
2.00294
-1.10462
0.342963
1.17116
-0.409511
-1.49528
-3.03172
2.57433
-0.0075629
0.0722419
-0.0870709
0.0223925
0.046336
0.0868639
-0.0241978
-0.109003
-3.36536
0.883687
-1.2515
-2.91884
-0.237186
-2.1268
-0.557378
-0.675949
0.129087
-0.173171
0.720026
-0.135744
1.83209
0.0127979
-1.70915
2.76475
-1.12797
-3.13207
2.34095
-1.44896
0.67245
-0.492913
-0.383789
-0.0661541
0.455034
-0.00509417
1.73444
0.928487
-0.487723
2.11709
-1.9472
-0.476662
-1.11262
-1.58608
-3.05561
2.88389
-2.04041
2.21212
0.120141
0.0469557
-0.120761
-0.023546
0.0364608
0.0792587
-0.0921737
-0.0164299
0.04818
0.0551138
-0.0574597
-0.03033
0.0491904
2.62775
-1.28457
-4.37492
-0.00733623
-0.0625757
0.0890958
-0.0191843
-0.621122
0.893926
-0.170317
-0.102497
2.7994
0.0732224
0.0199643
0.0269546
0.276297
-1.25857
-0.375769
0.0400966
-0.0573141
0.0591544
-0.0419379
1.15965
-2.20815
2.27738
-1.22888
1.26837
-1.02727
-2.42191
1.60082
-1.09734
-0.492034
-0.00335089
-0.125744
0.141446
0.169833
-0.129183
-0.1821
0.732162
1.65218
-2.50632
0.665031
-1.40253
0.0461486
0.0149312
-0.0846259
0.0871026
-0.0131047
0.00437208
-0.07837
-0.757742
0.104762
1.16548
-0.51251
1.22655
-1.99813
-1.65032
-0.05268
-0.191002
1.37035
-0.331984
-0.810327
0.394386
0.74792
-2.5831
1.34373
-1.26696
-1.35725
0.801001
1.1547
-1.39132
1.31366
0.822729
1.25906
-1.19769
-0.114061
2.51207
-2.28524
0.533704
-0.760539
1.37053
-1.29339
0.0689851
-0.146119
0.0616865
0.116913
-0.131644
0.0422293
0.093472
-0.0992407
2.94136
0.498452
-0.927745
-0.367886
0.227795
1.23346
-1.09337
1.39614
-1.27363
-0.254663
0.132177
1.79058
-1.66704
-0.259288
0.960044
-0.63546
-0.0167894
-0.30781
1.48818
-0.239511
0.147483
1.95581
0.149178
-0.314424
2.41256
-0.424296
1.44797
-0.145928
1.14938
-0.2257
0.0363526
1.58438
-0.189631
0.0934348
-0.479586
-0.992931
0.67686
2.03685
-0.301155
1.03285
-0.196881
-1.02699
0.862125
0.125472
-0.0936841
-1.82385
2.0447
-0.383385
0.162531
0.717661
-0.320278
2.16148
-2.04533
0.747501
-0.863649
0.103554
-0.19449
0.111834
0.652078
2.37945
-0.87004
-0.0251432
1.51913
-0.158013
0.447666
-0.615825
0.0318422
4.01069
-1.10119
1.24501
0.135152
-0.121109
0.18562
-1.77381
-0.359012
-1.87503
-0.835612
-1.24724
0.100425
-0.146572
0.134415
-0.136653
0.129409
-1.27641
-1.79867
-0.385744
1.98719
0.443252
1.32176
-1.58186
-0.341431
1.66399
-2.03936
-0.281585
1.93521
1.0874
1.23567
-0.33588
0.679117
-0.484241
-0.526866
1.38836
-0.306114
-1.00269
0.847789
0.73759
-0.58271
-1.42946
1.50174
0.58796
-0.66026
-0.0446341
0.111237
0.00526436
-0.0718673
-0.385896
0.789673
0.439071
-0.549631
2.70198
-2.10231
-0.0449282
0.0434465
-0.010835
0.0123168
0.35437
-0.567399
-1.37287
-0.588942
-1.90793
-1.08381
-0.109868
-0.0195143
0.0775861
0.0290311
-0.0740122
0.131379
0.109979
-0.167346
-0.904655
0.970558
-0.54551
-0.325983
2.1664
-1.47503
-1.65768
-0.128188
0.00136612
-0.0777931
-2.23718
3.05716
0.0633328
-0.167254
-0.388114
-0.471925
1.4703
-2.86732
1.86895
2.21994
1.02712
-1.00848
0.198618
-0.217272
0.519483
-0.576365
0.203885
-2.09985
-0.322032
0.83441
-0.659095
1.93547
0.782319
-3.1897
-0.351678
0.06054
-0.0926515
-0.953861
-3.46278
1.51595
-1.39858
2.33972
1.06605
2.7623
1.51335
-0.110265
0.0160588
0.24366
-0.149454
1.66059
0.566615
-0.725478
0.667933
-1.27685
0.406179
1.3384
-0.467741
3.76074
0.855158
-1.67074
-2.94516
-0.961573
-0.104874
-1.76013
1.88431
2.72626
-2.60328
-0.091142
0.328081
1.17741
2.03528
1.75411
-1.87949
1.52893
-1.75344
-2.17355
-0.255777
2.14774
-2.25979
1.41435
-0.881818
1.72726
-2.26404
-2.81143
-0.094624
-1.85724
0.243757
-0.468579
-0.532922
0.0177246
-0.0113042
0.000286761
-0.00670721
0.158349
0.671883
2.579
-2.48539
0.688715
-1.19463
-0.440566
-0.393525
-0.434543
0.365261
-0.314918
0.384193
-1.63731
-0.264693
-0.107117
0.14456
0.0293022
-2.82138
-0.79172
-1.62792
0.807131
0.0993733
-0.070785
-0.637343
-1.01995
1.73359
-2.07089
1.53503
1.78995
2.10593
1.85668
-1.41194
0.138854
0.0645663
-0.141734
-0.0554717
-0.00897091
1.06285
-0.50181
0.576281
-0.790732
1.55401
-1.84181
-0.728672
0.801023
-0.900745
-0.41834
-0.152682
1.45876
1.02895
0.0998958
0.0537152
-0.161174
-1.83061
1.54197
0.164801
-0.625955
0.801277
-1.1784
1.70899
-0.401196
-0.393042
0.0172762
0.110822
-0.088002
2.3606
-0.238521
0.0879466
-0.201106
1.637
0.832191
2.56007
-0.0080244
0.0320584
-0.263808
0.955088
0.0920221
1.2198
0.136707
-0.111584
-0.158016
0.132892
-0.0546559
0.0515868
-0.101169
0.0596996
-0.11079
-0.0560271
0.519727
-0.52266
0.368188
0.332759
-0.0363176
-0.233111
0.402949
0.608212
-0.852822
-0.0302442
-0.0822384
0.139194
-0.0267118
1.66983
0.0536432
-0.0584629
0.00481972
-0.754554
-0.454009
2.00216
-2.77491
0.471264
0.715724
0.249535
-0.288783
-0.275675
-1.79575
-0.00101265
0.6498
-3.25742
-0.0339617
0.0465572
0.00897364
-0.0215691
-0.0846396
-3.28157
-0.084867
-0.0192113
0.0738339
-2.35098
-0.265555
-1.65827
3.17026
-1.59594
-0.0313788
-0.124219
0.073359
0.187691
-0.257336
0.20635
-0.0278298
-0.0696493
0.0400193
-0.570496
1.56801
-0.891793
1.3843
0.814377
-0.64466
0.0247614
-0.0413092
0.0165479
-1.13114
-0.439271
0.03814
-0.0530989
0.0149588
1.15733
-2.40569
0.477997
0.826204
-0.412562
0.477706
0.0334995
0.00464054
0.323995
-0.161096
-0.161014
0.275268
0.191495
0.0161605
1.30408
-0.443443
-0.456914
2.48681
0.155856
-0.0660922
0.0490904
-0.230793
0.1864
-0.680182
0.893562
-1.57641
-0.360747
1.35328
-0.441104
2.29247
0.0463967
0.00519003
0.187387
-1.72311
0.991264
-0.536606
-1.52734
0.783439
0.375547
0.267666
-1.3394
1.27705
-0.152107
-0.0400332
0.0805568
2.91974
-0.0748931
0.0387977
0.109286
-0.105855
-0.139457
0.202877
-0.521626
0.173454
-0.0116191
-0.099091
0.0376004
0.0398739
-0.0774745
-0.0106531
-1.5577
2.59968
-0.30002
0.407106
0.218451
-1.19175
0.011509
0.0132524
-0.699882
-2.82308
0.160443
0.0366429
0.11441
-0.112255
-0.195966
-0.142148
0.0100056
-0.461812
-0.408993
-2.58178
-1.3085
-0.0154986
0.131011
0.114035
-0.219878
-0.850929
-0.0250216
0.000307191
-0.0326
0.0666369
0.148959
-0.151029
-0.212143
-1.72923
-1.97857
0.0423293
0.00406713
0.191542
-1.20056
0.00637399
1.10131
0.0418524
-0.00721207
0.0618414
0.0925166
-0.117715
0.420919
0.101104
0.0471454
0.0476294
-0.0605005
-0.0219399
0.0141302
-0.144782
0.212232
-0.127568
-0.0201335
0.0203384
0.0428479
-0.000518637
-0.00654515
0.00683185
0.0827418
0.0150781
0.000684255
-0.00678876
-0.159483
1.36055
-0.983027
0.936134
0.0396164
-0.122557
-0.00158166
0.255737
-0.269516
-0.384961
0.684417
0.428054
-0.95514
-0.638172
-0.0249546
0.034564
-0.0384127
0.013366
-0.0632009
-0.0294596
0.0258739
-0.0127076
0.000595484
0.0422523
0.0298455
-0.0505043
1.51347
-0.0102011
0.0332814
-1.11141
0.393183
-1.36638
-0.445897
-0.0454001
0.00550794
-0.00708968
-0.0290638
0.0147482
-0.0399164
0.0514919
-0.00640544
0.420388
-0.568895
-0.761842
0.594335
-0.0961923
-0.909082
-0.30564
-0.0881196
-0.0393065
-0.867027
-0.417764
-0.0131942
-0.0583927
0.0224464
0.102807
-0.300395
0.0366986
0.0188604
-0.0347633
1.33656
-0.0143244
0.033861
-0.0194338
-0.183095
1.87769
0.478889
-0.239998
-0.528975
-0.17542
-0.522913
-0.00507152
0.136972
-0.131901
-0.0109452
0.147724
-0.14185
-0.0176175
0.160861
-0.154189
-0.0249543
0.171031
-0.163694
-0.0325861
0.179889
-0.172257
-0.040574
0.187251
-0.179263
-0.048817
0.193912
-0.185669
-0.0574442
0.199831
-0.191204
0.205231
-0.196812
-0.0658623
-0.00513485
0.142107
-0.0104145
0.153003
-0.0161267
0.166573
-0.0223523
0.177257
-0.0288291
0.186366
-0.0356279
0.19405
-0.0426299
0.200914
-0.049855
0.207056
0.212582
-0.0572069
-0.00506638
0.147173
-0.00979609
0.157733
-0.0147589
0.171536
-0.0200339
0.182532
-0.0255272
0.19186
-0.031256
0.199779
-0.0371394
0.206798
-0.0431569
0.213074
0.218731
-0.0493049
-0.00478598
0.151959
-0.00906166
0.162008
-0.0133625
0.175837
-0.0177989
0.186968
-0.0223974
0.196458
-0.0271728
0.204554
-0.0320754
0.211701
-0.0370959
0.218094
0.223905
-0.0422704
-0.00440605
0.156365
-0.00820585
0.165808
-0.0118445
0.179476
-0.0154974
0.190621
-0.0192516
0.200212
-0.0231499
0.208453
-0.0271846
0.215735
-0.0313606
0.22227
0.228261
-0.0357164
-0.00397923
0.160344
-0.00722119
0.16905
-0.0101577
0.182412
-0.0130253
0.193489
-0.01596
0.203147
-0.0190274
0.21152
-0.0222326
0.218941
-0.0255915
0.225629
0.231811
-0.0291415
-0.00346989
0.163814
-0.00603839
0.171619
-0.00822397
0.184598
-0.0103072
0.195572
-0.0124317
0.205272
-0.014678
0.213767
-0.0170818
0.221344
-0.0196504
0.228198
0.234575
-0.0224141
-0.00268962
0.166504
-0.00455983
0.173489
-0.0059896
0.186028
-0.00728008
0.196863
-0.0086043
0.206596
-0.0100514
0.215214
-0.0116563
0.222949
-0.013438
0.229979
0.236494
-0.015357
-0.00154252
0.168046
-0.00274421
0.174691
-0.0034374
0.186721
-0.00396049
0.197386
-0.00449657
0.207132
-0.00514074
0.215858
-0.00595834
0.223767
-0.00696075
0.230982
0.237699
-0.00816634
-0.000227491
0.168274
-0.000728722
0.175192
-0.000656738
0.186649
-0.000405158
0.197134
-0.000149764
0.206877
-1.37343e-05
0.215722
-5.05106e-05
0.223804
-0.00029903
0.23123
0.238155
-0.000754779
0.000986732
0.167287
0.00132975
0.174849
0.00225457
0.185724
0.00329154
0.196097
0.00432285
0.205845
0.00522316
0.214821
0.00595172
0.223075
0.00646169
0.23072
0.237882
0.00673513
0.00205647
0.16523
0.00343262
0.173473
0.00524574
0.183911
0.00705019
0.194293
0.00879533
0.2041
0.0104221
0.213195
0.0118739
0.221623
0.0131395
0.229454
0.236895
0.0141258
0.00329852
0.161932
0.00576364
0.171007
0.00832747
0.181347
0.0107726
0.191848
0.0131341
0.201739
0.0153699
0.210959
0.0174577
0.219535
0.0193634
0.227549
0.235169
0.0210896
0.00473793
0.157194
0.00817661
0.167569
0.0113346
0.178189
0.0142994
0.188883
0.0171554
0.198883
0.0198813
0.208233
0.0224735
0.216943
0.0249014
0.225121
0.232921
0.0271494
0.00602433
0.15117
0.0103034
0.16329
0.0139864
0.174506
0.0173875
0.185482
0.0206492
0.195621
0.0237906
0.205091
0.0268033
0.21393
0.0296524
0.222272
0.23026
0.0323131
0.00686562
0.144304
0.011834
0.158321
0.0159882
0.170352
0.0198085
0.181662
0.0234628
0.191967
0.0269891
0.201565
0.0303894
0.21053
0.0336426
0.219018
0.227159
0.0367434
0.0068576
0.137447
0.0124717
0.152707
0.0171175
0.165706
0.0214108
0.177368
0.0255058
0.187872
0.0294576
0.197613
0.0332657
0.206722
0.0369343
0.21535
0.223685
0.0404084
0.00602944
0.131417
0.0120986
0.146638
0.0173332
0.160472
0.0221831
0.172518
0.0267902
0.183264
0.0312248
0.193179
0.0355114
0.202435
0.0396537
0.211207
0.219718
0.0436209
0.00514575
0.126272
0.0112777
0.140506
0.0169581
0.154792
0.0223289
0.167148
0.0274593
0.178134
0.0324142
0.188224
0.0372266
0.197623
0.0419276
0.206506
0.215104
0.0465424
0.0045551
0.121717
0.0104886
0.134573
0.0163734
0.148907
0.0221238
0.161397
0.0276991
0.172559
0.0331351
0.182788
0.0384571
0.192301
0.0436833
0.20128
0.209966
0.0488209
0.00418476
0.117532
0.00986501
0.128893
0.0157883
0.142983
0.0217666
0.155419
0.0276793
0.166646
0.0335262
0.176941
0.0393219
0.186505
0.0450759
0.195526
0.204275
0.0507668
0.0039565
0.113575
0.0094374
0.123412
0.0153182
0.137103
0.0213898
0.149347
0.0275195
0.160516
0.033682
0.170778
0.0398736
0.180313
0.0460947
0.189305
0.197991
0.0523788
0.00405044
0.109525
0.0093235
0.118139
0.0150668
0.131359
0.0210965
0.143317
0.0273244
0.154288
0.0337125
0.16439
0.0402446
0.173781
0.0468728
0.182678
0.191319
0.0535443
0.00480934
0.104715
0.0096604
0.113288
0.0150829
0.125937
0.0209451
0.137455
0.0271764
0.148056
0.0337189
0.157847
0.0405713
0.166929
0.0475723
0.175677
0.184927
0.0539644
0.00562426
0.00990921
0.0150846
0.0208961
0.0272181
0.0340359
0.0414819
0.0498129
0.0593202
-0.138417
-0.000793391
0.13921
-0.137499
-0.000917966
-0.136466
-0.0010332
-0.135313
-0.00115284
-0.134039
-0.0012739
-0.132621
-0.00141845
-0.131003
-0.00161772
-0.129107
-0.00189559
-0.12684
-0.0022673
-0.124117
-0.00272344
-0.120852
-0.00326498
-0.116976
-0.00387543
-0.112443
-0.0045335
-0.107221
-0.00522155
-0.101311
-0.00590989
-0.0947261
-0.00658541
-0.0875013
-0.00722459
-0.0796833
-0.00781816
-0.0713354
-0.00834751
-0.0625644
-0.00877121
-0.0535491
-0.00901484
-0.04451
-0.00903934
-0.0356543
-0.00885518
-0.0271868
-0.00846774
-0.019314
-0.00787246
-0.0121539
-0.00716017
-0.00557209
-0.00658148
0.00068123
-0.0062534
0.00682923
-0.00614764
0.0131145
-0.00628538
0.019657
-0.00654217
0.0263946
-0.00673764
0.033249
-0.0068541
0.040157
-0.00690813
0.0470494
-0.00689209
0.0538488
-0.00679943
0.0605019
-0.00665308
0.0669785
-0.00647646
0.0732498
-0.00627134
0.0792744
-0.00602435
0.0850044
-0.00573014
0.0903906
-0.00538588
0.0953832
-0.00499265
0.0999489
-0.00456545
0.104065
-0.0041162
0.107737
-0.00367178
0.110982
-0.00324467
0.11384
-0.0028578
0.116356
-0.00251628
0.118581
-0.00222562
0.120569
-0.00198713
0.122359
-0.00178995
0.123996
-0.00163733
0.125513
-0.00151705
0.126938
-0.00142447
0.128286
-0.00134845
0.129561
-0.00127491
0.130768
-0.00120737
-0.00113254
-0.137711
-0.00232318
0.139241
-0.135995
-0.00263339
-0.134043
-0.0029855
-0.131806
-0.0033902
-0.129242
-0.00383768
-0.126311
-0.00434948
-0.123003
-0.00492648
-0.119318
-0.00558004
-0.115277
-0.00630828
-0.110898
-0.00710304
-0.106201
-0.00796245
-0.101207
-0.00886965
-0.0959282
-0.00981193
-0.0903853
-0.0107647
-0.0845855
-0.0117096
-0.0785404
-0.0126307
-0.0722649
-0.0134999
-0.065787
-0.0142963
-0.0591491
-0.0149851
-0.0524206
-0.0154999
-0.0456424
-0.0157927
-0.0388153
-0.0158666
-0.0319237
-0.0157464
-0.0249342
-0.0154574
-0.0177702
-0.0150362
-0.0103443
-0.0145864
-0.00269103
-0.0142345
0.00506454
-0.0140091
0.0128194
-0.0139023
0.0204375
-0.0139036
0.027873
-0.0139775
0.0351728
-0.0140376
0.042355
-0.0140362
0.0494095
-0.0139626
0.0563155
-0.013798
0.0630523
-0.0135362
0.0695756
-0.0131764
0.0758303
-0.0127311
0.0817612
-0.0122022
0.0873325
-0.0115955
0.0925214
-0.010919
0.0973201
-0.0101843
0.101745
-0.00941724
0.105818
-0.00863818
0.109572
-0.00787052
0.113044
-0.00714361
0.116271
-0.00647134
0.119277
-0.00586466
0.122095
-0.00533416
0.124743
-0.00487347
0.127236
-0.00448013
0.129582
-0.00413641
0.131782
-0.00383661
0.133836
-0.00357099
0.135735
-0.00332394
0.137485
-0.00309787
0.139082
-0.00287192
0.140533
-0.0026584
-0.00244974
-0.146763
-0.00415015
0.148589
-0.144703
-0.00469316
-0.14237
-0.00531859
-0.139729
-0.00603084
-0.136732
-0.00683499
-0.13335
-0.00773125
-0.129569
-0.00870787
-0.125394
-0.0097551
-0.120834
-0.0108681
-0.115909
-0.0120282
-0.110645
-0.0132261
-0.105073
-0.0144419
-0.0992227
-0.0156619
-0.0931225
-0.0168648
-0.0868001
-0.0180319
-0.0802943
-0.0191365
-0.0736343
-0.0201598
-0.0668645
-0.0210661
-0.0600218
-0.0218277
-0.0531118
-0.0224101
-0.0460981
-0.0228063
-0.0389433
-0.0230216
-0.0316151
-0.0230745
-0.0240865
-0.0229862
-0.0163318
-0.0227907
-0.00836882
-0.0225495
-0.000279182
-0.022324
0.00785956
-0.0221479
0.0159846
-0.0220273
0.0240312
-0.0219502
0.0319372
-0.0218835
0.0396784
-0.0217789
0.047241
-0.0215987
0.0545947
-0.0213164
0.0617122
-0.0209155
0.0685623
-0.0203865
0.0751118
-0.0197259
0.081328
-0.0189472
0.0871873
-0.0180615
0.0926765
-0.0170847
0.0978058
-0.0160483
0.102599
-0.0149774
0.107089
-0.013907
0.111311
-0.0128602
0.11531
-0.0118696
0.119112
-0.0109454
0.122744
-0.0101036
0.126225
-0.00934566
0.129562
-0.00867175
0.132759
-0.00807055
0.135813
-0.00753372
0.138718
-0.00704188
0.14147
-0.00658763
0.14405
-0.00615135
0.14645
-0.00572391
0.148659
-0.0053073
0.150686
-0.00489929
0.152527
-0.00449916
-0.00411121
-0.150837
-0.00620946
0.152897
-0.148551
-0.00697923
-0.145997
-0.00787284
-0.143141
-0.00888652
-0.139955
-0.0100212
-0.136412
-0.0112743
-0.132495
-0.0126246
-0.128191
-0.0140597
-0.123508
-0.0155507
-0.11846
-0.0170762
-0.113071
-0.0186153
-0.107361
-0.0201516
-0.101368
-0.0216555
-0.0951166
-0.0231159
-0.0886467
-0.0245017
-0.0819825
-0.0258007
-0.0751552
-0.026987
-0.0681838
-0.0280376
-0.061074
-0.0289374
-0.0538143
-0.02967
-0.0463864
-0.030234
-0.0387758
-0.0306323
-0.0309716
-0.0308786
-0.0229686
-0.0309894
-0.0147647
-0.0309945
-0.00638313
-0.0309312
0.00212062
-0.0308277
0.0106769
-0.0307043
0.0192119
-0.0305622
0.0276513
-0.0303898
0.0359305
-0.0301627
0.0440018
-0.0298503
0.051826
-0.029423
0.0593701
-0.0288606
0.0666
-0.0281455
0.0734942
-0.0272808
0.0800375
-0.0262693
0.086216
-0.0251258
0.0920371
-0.0238828
0.0975253
-0.0225729
0.102711
-0.0212338
0.107631
-0.0198978
0.112324
-0.0185997
0.116824
-0.0173601
0.121151
-0.0161973
0.125331
-0.0151252
0.129364
-0.0141363
0.133254
-0.0132363
0.136988
-0.0124052
0.14056
-0.0116425
0.143954
-0.0109279
0.147158
-0.0102461
0.150154
-0.00958292
0.152939
-0.00893629
0.155509
-0.00829395
0.157865
-0.00766337
0.160008
-0.00704274
0.161946
-0.00643678
-0.00585945
-0.157269
-0.00841983
0.159479
-0.154821
-0.00942736
-0.152117
-0.0105772
-0.149127
-0.0118764
-0.145824
-0.0133241
-0.142187
-0.0149113
-0.138192
-0.0166195
-0.133836
-0.0184158
-0.129112
-0.0202743
-0.124026
-0.0221627
-0.118588
-0.0240533
-0.112815
-0.0259244
-0.106726
-0.027745
-0.100344
-0.0294978
-0.0936848
-0.0311605
-0.086773
-0.0327125
-0.079627
-0.0341329
-0.0722583
-0.0354063
-0.0646808
-0.0365147
-0.0568952
-0.0374557
-0.0489084
-0.0382208
-0.0407214
-0.0388193
-0.0323397
-0.0392603
-0.0237709
-0.0395583
-0.0150348
-0.0397306
-0.00616854
-0.0397975
0.0027771
-0.0397733
0.0117396
-0.0396669
0.02065
-0.0394726
0.029437
-0.0391769
0.0380332
-0.0387589
0.0463782
-0.0381953
0.0544208
-0.0374656
0.062124
-0.0365639
0.0694635
-0.0354851
0.0764217
-0.0342391
0.0830032
-0.0328509
0.0892286
-0.0313512
0.0951272
-0.0297815
0.100742
-0.0281873
0.106108
-0.0266007
0.111275
-0.025064
0.11627
-0.0235951
0.121123
-0.0222133
0.125849
-0.0209231
0.130446
-0.019722
0.134912
-0.0186024
0.139227
-0.0175514
0.143372
-0.0165505
0.147322
-0.0155924
0.151056
-0.0146618
0.154556
-0.0137461
0.157814
-0.0128406
0.160815
-0.011938
0.163568
-0.0110467
0.166075
-0.0101709
0.16835
-0.00931735
0.170408
-0.00849446
-0.00770926
-0.161659
-0.0107409
0.16398
-0.159115
-0.0119713
-0.156333
-0.0133594
-0.153289
-0.0149206
-0.14996
-0.0166532
-0.146336
-0.0185353
-0.1424
-0.0205558
-0.138138
-0.0226772
-0.133542
-0.0248705
-0.128609
-0.0270957
-0.123334
-0.0293279
-0.117721
-0.0315382
-0.111766
-0.0336991
-0.105477
-0.0357874
-0.0988603
-0.037777
-0.0919241
-0.0396487
-0.0846761
-0.0413809
-0.0771313
-0.0429511
-0.0692941
-0.0443519
-0.0611773
-0.0455726
-0.0527888
-0.0466093
-0.0441464
-0.0474618
-0.0352672
-0.0481395
-0.0261789
-0.0486467
-0.0169167
-0.0489928
-0.00752816
-0.0491861
0.00192768
-0.0492292
0.0113827
-0.049122
0.0207611
-0.048851
0.029983
-0.0483989
0.0389715
-0.0477474
0.0476521
-0.0468761
0.0559685
-0.045782
0.0638837
-0.0444793
0.0713782
-0.0429796
0.0784607
-0.0413216
0.0851554
-0.0395458
0.0914952
-0.037691
0.0975339
-0.0358204
0.103321
-0.0339742
0.108908
-0.032188
0.114332
-0.0304878
0.119628
-0.028891
0.12481
-0.0273956
0.129887
-0.0260002
0.13485
-0.0246857
0.139681
-0.023433
0.144352
-0.0222224
0.148835
-0.0210337
0.153096
-0.0198533
0.157108
-0.0186735
0.160843
-0.0174818
0.164289
-0.0162867
0.167444
-0.0150924
0.170314
-0.0139176
0.172909
-0.0127657
0.17525
-0.0116586
0.177364
-0.0106079
-0.00960885
-0.167659
-0.013161
0.170079
-0.165021
-0.0146091
-0.162154
-0.0162271
-0.159044
-0.0180299
-0.155683
-0.0200141
-0.152057
-0.0221617
-0.148158
-0.024455
-0.143973
-0.0268618
-0.139498
-0.0293455
-0.134709
-0.031885
-0.129594
-0.0344424
-0.124139
-0.0369934
-0.118326
-0.0395118
-0.112146
-0.0419674
-0.105591
-0.0443321
-0.0986595
-0.0465803
-0.0913467
-0.0486936
-0.0836674
-0.0506305
-0.0756226
-0.0523967
-0.0672289
-0.0539663
-0.0584959
-0.0553423
-0.0494485
-0.0565092
-0.0401144
-0.0574736
-0.030528
-0.0582332
-0.0207429
-0.058778
-0.0108147
-0.0591143
-0.000816364
-0.0592275
0.00917644
-0.0591148
0.0190774
-0.0587519
0.0287946
-0.0581161
0.0382401
-0.057193
0.047318
-0.0559541
0.0559664
-0.0544304
0.064153
-0.052666
0.0718673
-0.050694
0.0791432
-0.0485976
0.0860231
-0.0464257
0.0925448
-0.0442127
0.0987828
-0.0420585
0.104793
-0.039984
0.11063
-0.0380255
0.116329
-0.0361866
0.12192
-0.0344828
0.127416
-0.0328914
0.132824
-0.0314077
0.138128
-0.0299902
0.143308
-0.028613
0.148328
-0.0272425
0.153155
-0.025861
0.157752
-0.0244499
0.162075
-0.0229968
0.166104
-0.0215107
0.169809
-0.019992
0.173186
-0.0184694
0.17624
-0.0169709
0.178991
-0.0155166
0.181462
-0.0141304
0.18368
-0.0128253
-0.0115985
-0.173684
-0.0156321
0.176155
-0.17102
-0.0172725
-0.168152
-0.0190957
-0.165062
-0.02112
-0.161753
-0.0233227
-0.158219
-0.0256962
-0.154466
-0.028208
-0.150479
-0.0308484
-0.146232
-0.0335927
-0.141706
-0.0364108
-0.136862
-0.0392869
-0.131661
-0.0421938
-0.126083
-0.0450899
-0.120095
-0.0479552
-0.11368
-0.0507474
-0.106821
-0.0534396
-0.0995145
-0.0559999
-0.0917805
-0.0583644
-0.0836184
-0.0605588
-0.0750324
-0.0625524
-0.066028
-0.0643466
-0.0566386
-0.0658986
-0.0469005
-0.0672117
-0.0368331
-0.0683007
-0.026534
-0.0690771
-0.0160528
-0.0695955
-0.00549275
-0.0697876
0.00507874
-0.0696863
0.0155531
-0.0692263
0.0258325
-0.0683956
0.0358259
-0.0671865
0.0453829
-0.0655111
0.0544406
-0.0634882
0.0630018
-0.0612272
0.0710284
-0.0587208
0.0786174
-0.0561867
0.0858331
-0.0536415
0.0926535
-0.0510332
0.0992035
-0.0486086
0.105543
-0.0463238
0.111718
-0.0442007
0.117769
-0.0422375
0.123698
-0.0404114
0.129527
-0.0387201
0.135287
-0.0371678
0.140921
-0.0356241
0.146438
-0.034131
0.151786
-0.0325896
0.156899
-0.0309745
0.161758
-0.029309
0.166333
-0.0275715
0.170591
-0.025769
0.174505
-0.0239059
0.178068
-0.0220319
0.181288
-0.0201908
0.184185
-0.0184142
0.18678
-0.0167256
0.189108
-0.0151527
-0.0136943
-0.181347
0.1838
-0.0180847
-0.178674
-0.0199458
-0.175812
-0.0219575
-0.17276
-0.0241729
-0.169546
-0.0265364
-0.166158
-0.0290847
-0.162583
-0.0317824
-0.158845
-0.0345865
-0.154908
-0.0375303
-0.150637
-0.0406818
-0.146063
-0.0438607
-0.141109
-0.0471475
-0.135712
-0.0504868
-0.129905
-0.0537625
-0.12359
-0.0570619
-0.116848
-0.0601816
-0.109583
-0.0632653
-0.101769
-0.0661783
-0.0934529
-0.0688751
-0.0846894
-0.071316
-0.0754464
-0.0735896
-0.0658116
-0.0755335
-0.0557378
-0.0772854
-0.0452181
-0.0788205
-0.0344207
-0.0798744
-0.0233964
-0.0806199
-0.0123145
-0.0808695
-0.00115733
-0.0808435
0.00990553
-0.0802891
0.0206601
-0.0791501
0.031199
-0.0777255
0.0412262
-0.0755383
0.050719
-0.0729811
0.0597533
-0.0702615
0.0682353
-0.0672029
0.0762748
-0.0642262
0.0838916
-0.0612583
0.0911443
-0.058286
0.0982703
-0.0557346
0.105127
-0.0531806
0.11181
-0.0508832
0.118392
-0.0488205
0.124806
-0.0468253
0.131143
-0.0450564
0.137329
-0.0433547
0.14335
-0.0416451
0.149207
-0.0399879
0.154758
-0.0381401
0.160193
-0.0364095
0.1654
-0.0345155
0.170306
-0.0324778
0.174867
-0.0303305
0.179041
-0.0280795
0.182884
-0.0258748
0.186335
-0.0236423
0.189439
-0.0215176
0.192183
-0.0194697
0.19466
-0.0176296
-0.0158472
-0.0855737
0.00809896
-0.0924164
0.00684265
-0.0984468
0.00603014
-0.104266
0.00581957
-0.110237
0.00597034
-0.116437
0.00620029
-0.122934
0.00649621
-0.129753
0.00681946
-0.136803
0.00704978
-0.143502
0.00669919
-0.149017
0.00551489
-0.152622
0.00360428
-0.154091
0.00146913
-0.154018
-7.2667e-05
-0.153334
-0.000684846
-0.152678
-0.000655744
-0.152253
-0.000424763
-0.151984
-0.000269416
-0.151655
-0.000328763
-0.150966
-0.000689631
-0.149589
-0.00137662
-0.147375
-0.00221447
-0.144612
-0.00276298
-0.141906
-0.0027063
-0.00269555
-0.0917133
0.0151862
-0.098863
0.0139922
-0.105887
0.0130543
-0.112767
0.0126991
-0.119559
0.012762
-0.126326
0.0129673
-0.133025
0.0131956
-0.139505
0.0132996
-0.145432
0.0129761
-0.150527
0.0117949
-0.154777
0.00976427
-0.1583
0.00712707
-0.161146
0.00431573
-0.163129
0.0019094
-0.164125
0.00031116
-0.164233
-0.000547752
-0.163658
-0.000999675
-0.162557
-0.00137067
-0.161015
-0.00187017
-0.15907
-0.00263534
-0.156749
-0.00369753
-0.153991
-0.00497263
-0.150497
-0.00625687
-0.145693
-0.00750987
-0.00914831
-0.100695
0.0237069
-0.108812
0.0221093
-0.11666
0.0209023
-0.124194
0.0202333
-0.131395
0.0199623
-0.138269
0.0198419
-0.144742
0.0196686
-0.150671
0.0192283
-0.155937
0.0182424
-0.160607
0.0164645
-0.164756
0.0139131
-0.16844
0.010811
-0.171667
0.00754315
-0.174298
0.00454014
-0.17611
0.00212349
-0.176979
0.000320936
-0.176933
-0.00104614
-0.176066
-0.00223729
-0.174474
-0.00346238
-0.172225
-0.00488404
-0.169352
-0.00657077
-0.165797
-0.00852768
-0.161352
-0.0107022
-0.155703
-0.0131592
-0.0162614
-0.108874
0.0333398
-0.117851
0.0310869
-0.126356
0.0294068
-0.134404
0.0282818
-0.141979
0.0275368
-0.149059
0.0269221
-0.155591
0.0262003
-0.161504
0.0251409
-0.166772
0.0235108
-0.171464
0.021157
-0.175667
0.0181161
-0.179436
0.0145791
-0.182743
0.0108506
-0.185474
0.00727068
-0.187428
0.0040781
-0.188462
0.00135477
-0.18851
-0.0009981
-0.187591
-0.00315693
-0.185737
-0.00531609
-0.182997
-0.00762387
-0.179355
-0.0102126
-0.174731
-0.0131517
-0.168929
-0.0165045
-0.161695
-0.0203937
-0.0250593
-0.116381
0.0438657
-0.126157
0.0408634
-0.135289
0.0385385
-0.143827
0.0368196
-0.151777
0.0354868
-0.159136
0.0342814
-0.165881
0.0329448
-0.171981
0.0312413
-0.177447
0.0289764
-0.182328
0.0260381
-0.186683
0.022471
-0.19054
0.0184356
-0.193853
0.0141641
-0.196519
0.00993681
-0.198401
0.00595988
-0.199353
0.00230706
-0.199292
-0.00105993
-0.198194
-0.00425431
-0.196053
-0.00745681
-0.192862
-0.010815
-0.188594
-0.0144807
-0.183191
-0.0185551
-0.176575
-0.0231209
-0.168683
-0.0282855
-0.0342629
-0.12335
0.0549602
-0.133804
0.0513176
-0.143525
0.0482593
-0.152556
0.0458505
-0.160918
0.0438491
-0.168628
0.0419912
-0.17568
0.0399968
-0.182068
0.0376295
-0.187815
0.0347231
-0.19294
0.0311636
-0.197479
0.02701
-0.201422
0.0223778
-0.204727
0.0174693
-0.207305
0.0125153
-0.209025
0.00767979
-0.209788
0.00306976
-0.209513
-0.00133517
-0.208129
-0.00563766
-0.205607
-0.00997873
-0.201896
-0.0145261
-0.196956
-0.0194209
-0.190725
-0.0247859
-0.183152
-0.0306943
-0.174208
-0.0372302
-0.0444905
-0.129637
0.0668817
-0.14082
0.0625013
-0.151135
0.0585735
-0.160669
0.0553851
-0.169471
0.052651
-0.177573
0.050093
-0.184978
0.0474015
-0.191698
0.0443503
-0.197754
0.0407786
-0.203151
0.0365613
-0.207896
0.0317547
-0.211957
0.026439
-0.215275
0.0207863
-0.217762
0.0150024
-0.219332
0.00925021
-0.219893
0.00363025
-0.219365
-0.00186285
-0.217685
-0.00731708
-0.21479
-0.012874
-0.210634
-0.0186827
-0.205156
-0.0248989
-0.198331
-0.0316108
-0.190146
-0.038879
-0.180668
-0.0467084
-0.0550798
-0.135458
0.0797825
-0.147374
0.0744174
-0.158234
0.0694339
-0.16826
0.0654109
-0.177498
0.0618888
-0.186001
0.0585964
-0.193773
0.0551732
-0.200828
0.0514051
-0.207216
0.0471674
-0.212892
0.0422365
-0.217856
0.0367194
-0.222067
0.0306491
-0.22542
0.0241398
-0.227863
0.0174456
-0.229301
0.0106877
-0.22967
0.0039989
-0.228909
-0.00262312
-0.22695
-0.00927643
-0.223719
-0.0161043
-0.219175
-0.0232273
-0.213254
-0.0308203
-0.205947
-0.0389178
-0.197246
-0.04758
-0.187234
-0.0567206
-0.0661589
-0.141303
0.0935177
-0.153706
0.0868203
-0.164941
0.0806689
-0.175389
0.0758585
-0.185039
0.0715389
-0.193953
0.0675109
-0.202089
0.063309
-0.209478
0.0587936
-0.216177
0.0538673
-0.22213
0.0481889
-0.227327
0.0419167
-0.231664
0.0349854
-0.235111
0.0275864
-0.237563
0.0198982
-0.238889
0.0120136
-0.239116
0.00422677
-0.238159
-0.00358015
-0.235992
-0.0114436
-0.232464
-0.0196327
-0.227576
-0.0281149
-0.221342
-0.0370544
-0.213726
-0.0465342
-0.204746
-0.0565593
-0.194626
-0.066841
-0.0769853
0.741636
-0.433031
0.237236
0.195832
-1.02768
0.83755
0.19013
0.289975
-0.366207
0.076232
0.352879
-0.399742
0.046861
-0.0545982
-0.503614
0.558208
-0.406871
0.689294
-0.282423
0.124146
0.203872
-0.328025
-0.0633257
-0.192822
0.256148
3.02977
-1.85552
-1.17425
-0.733383
1.5266
-0.793219
-0.619913
0.129548
0.490363
0.814853
-1.47427
0.659418
-0.457924
-0.504017
0.961936
0.136987
-0.138124
0.0011373
0.852757
-0.688896
-0.163971
-0.74858
-0.279098
0.136346
-0.0150572
-0.121288
0.0463406
0.214837
-0.0118586
0.19944
-0.187582
-0.385656
0.22424
0.161416
1.15168
0.497371
-1.64886
-0.380512
0.762435
-0.381923
1.11423
-0.873637
-0.24059
-0.842775
0.205781
0.636994
0.970732
0.143494
-1.04983
0.444084
0.605744
-0.500319
-0.0227208
0.52304
1.32675
-1.00561
-0.321118
-0.0444871
-0.146468
0.190955
0.367846
0.374556
-0.742402
0.683454
-1.35435
0.670908
0.507279
0.548719
-1.056
0.653975
-1.60561
0.95153
-0.305052
-0.0610475
0.3661
0.575905
0.857415
-1.43332
-0.946912
0.488989
-2.22323
0.523577
1.69966
-0.338764
0.656664
-0.3179
0.187096
0.46327
-0.649989
0.825201
-1.4639
0.638667