/*--------------------------------*- C++ -*----------------------------------*\
  =========                 |
  \\      /  F ield         | OpenFOAM: The Open Source CFD Toolbox
   \\    /   O peration     | Website:  https://openfoam.org
    \\  /    A nd           | Version:  10
     \\/     M anipulation  |
\*---------------------------------------------------------------------------*/
FoamFile
{
    format      ascii;
    class       volVectorField;
    location    "300";
    object      U;
}
// * * * * * * * * * * * * * * * * * * * * * * * * * * * * * * * * * * * * * //

dimensions      [0 1 -1 0 0 0 0];

internalField   nonuniform List<vector> 
10435
(
(1.27457 0.0426772 -2.0981e-23)
(1.25934 0.192464 -6.32654e-22)
(2.64395 -0.308965 -8.41397e-21)
(1.52604 0.029772 5.32692e-21)
(1.78484 0.288172 -3.88006e-21)
(2.29314 0.21481 2.53269e-20)
(2.68516 -0.312913 -3.3762e-20)
(2.90199 -0.222709 2.56748e-20)
(3.02825 -0.249085 1.07709e-19)
(2.52049 -0.100557 -1.17809e-20)
(1.33874 0.225441 -2.4828e-21)
(2.07161 -0.181662 1.77939e-20)
(2.48865 -0.41432 1.77036e-20)
(0.844457 0.0817106 1.54816e-21)
(0.914562 0.0841746 3.06965e-21)
(2.81633 -0.259842 -3.43734e-21)
(0.777666 0.0759782 -5.39647e-22)
(2.46934 -0.318533 5.16458e-20)
(3.01776 -0.319294 -4.63626e-20)
(1.31366 0.0450466 -8.72792e-22)
(2.84945 -0.250724 1.63536e-20)
(1.53505 -0.0563503 -8.6683e-21)
(2.75929 -0.251961 9.61672e-20)
(2.637 -0.66729 -2.53516e-20)
(2.57426 -0.137875 1.51369e-20)
(0.22889 0.360516 1.74983e-22)
(0.0688022 0.00545737 2.39476e-22)
(2.55527 -0.370344 1.38889e-20)
(0.287591 -0.146104 3.58982e-24)
(2.49805 -0.190463 6.70141e-20)
(2.59838 -0.125508 2.63649e-20)
(1.3959 0.250105 -1.89898e-22)
(2.94368 -0.211466 -5.67485e-20)
(0.527553 -0.138291 1.5885e-22)
(2.90441 -0.348075 2.61121e-20)
(1.15577 0.228724 -1.0992e-21)
(2.83007 -0.322905 3.5382e-20)
(0.184246 0.198423 -6.48078e-22)
(0.378041 0.355233 6.31919e-23)
(2.92769 -0.495945 1.38103e-20)
(2.43091 -0.0522588 -5.21669e-20)
(2.69844 -0.293579 -2.60054e-20)
(0.603243 0.266433 2.23262e-22)
(1.40084 0.0706207 -8.00926e-21)
(2.75578 -0.264795 -5.88749e-20)
(2.78991 -0.633957 5.3338e-20)
(2.37588 0.099642 -3.01014e-20)
(0.461904 0.273412 3.54643e-21)
(3.02914 -0.147456 4.03095e-20)
(1.53258 -0.168071 -4.48114e-21)
(2.89939 -0.24467 -4.68007e-21)
(2.37465 0.0791768 1.50149e-19)
(0.427101 0.368939 3.43341e-22)
(0.372096 -0.229057 3.92686e-24)
(0.327089 0.360165 -1.29216e-22)
(0.232644 -0.172207 -6.663e-23)
(2.79477 -0.414983 -1.03716e-19)
(0.198225 0.113555 -1.3507e-22)
(0.68764 -0.00180618 3.21417e-22)
(2.87131 -0.469129 6.73864e-20)
(0.376176 0.37613 -2.50138e-22)
(1.22708 0.193653 9.7759e-23)
(0.227088 0.00465186 3.91254e-22)
(2.20631 0.131375 -8.00142e-21)
(2.76643 -0.243863 -1.2382e-19)
(2.62129 -0.287916 5.74213e-20)
(0.640358 -0.0358116 -2.62729e-22)
(0.395442 0.0986289 -1.87204e-21)
(2.85066 -0.236395 -3.24725e-20)
(2.44422 -0.674936 2.4933e-21)
(0.322801 -0.244153 -8.32101e-23)
(0.187077 0.311087 1.05027e-22)
(0.670918 0.361475 -1.23013e-21)
(2.66484 -0.256442 -8.22031e-20)
(0.985198 0.0862648 2.87991e-21)
(0.719975 0.291823 1.74902e-22)
(2.25528 -0.629723 5.79773e-20)
(2.70786 -0.300595 8.81078e-20)
(2.96952 -0.181271 7.64111e-21)
(1.02414 0.017361 -1.11826e-20)
(1.74254 -0.334352 5.39885e-21)
(1.22125 0.000654711 9.32751e-23)
(0.47449 0.379344 -3.76632e-22)
(0.416133 -0.216673 -2.63918e-24)
(1.8702 -0.423183 -1.16861e-20)
(1.13843 0.199332 -9.66978e-21)
(1.21657 0.127576 7.66285e-23)
(1.38187 0.12148 1.32745e-21)
(1.03689 0.172329 1.4159e-21)
(1.26232 0.122113 -3.7509e-22)
(1.43307 0.121537 -7.90197e-22)
(1.50265 0.117378 -1.10362e-21)
(1.25777 0.00548194 7.37517e-22)
(1.09945 0.160848 -7.17309e-21)
(1.30199 0.120662 4.32376e-22)
(1.10816 0.25775 -2.88482e-21)
(1.59072 0.0921101 9.32796e-21)
(0.947937 0.151027 -2.0643e-21)
(0.755582 0.0118384 2.55074e-22)
(1.69041 0.121393 -1.03264e-20)
(0.991081 0.162365 -5.01937e-21)
(1.81097 0.412815 -2.86804e-21)
(1.16081 0.141668 2.60919e-21)
(1.34028 0.120718 9.02021e-23)
(1.9308 0.401129 5.26428e-22)
(1.45588 0.0550811 8.72947e-23)
(1.29533 0.00299727 3.3966e-22)
(1.63125 -0.253162 6.61173e-21)
(2.0301 -0.504841 -2.1188e-20)
(1.08153 0.0141348 2.21413e-21)
(1.45195 -0.103385 -2.34674e-21)
(1.69859 0.407184 -1.39802e-21)
(1.18238 -0.00217633 1.41889e-21)
(1.13593 0.0044938 2.47478e-21)
(1.58012 0.154225 -3.65123e-21)
(1.46084 -0.0129945 2.58383e-21)
(1.80128 0.0806808 -6.03778e-21)
(1.19102 0.178354 1.21364e-21)
(1.34549 0.165406 -4.44657e-21)
(1.80815 -0.0153112 -1.97359e-21)
(1.91657 0.026999 -2.35395e-20)
(0.741518 0.355357 6.80616e-22)
(1.23391 0.165009 -6.25048e-22)
(0.953747 0.358039 5.45517e-21)
(1.40485 0.338281 6.07241e-22)
(0.304008 0.372007 -3.76727e-22)
(1.7014 0.0349651 1.26434e-20)
(0.808523 0.360639 -4.52102e-23)
(1.81333 0.177909 -1.25661e-20)
(0.0803215 0.22886 7.72969e-23)
(0.880412 0.356965 -1.37305e-21)
(1.33459 0.300602 -3.23133e-21)
(2.86201 -0.260623 -4.10005e-20)
(0.960916 0.0173023 -4.5944e-21)
(0.173645 0.260447 3.90276e-23)
(0.613539 0.396974 4.78587e-23)
(1.07538 0.319111 -7.73006e-21)
(1.61405 -0.0125933 -6.05395e-22)
(1.30705 0.158679 1.42887e-21)
(1.40158 0.018313 2.54043e-21)
(1.35424 0.0378604 1.28057e-23)
(2.6829 -0.190539 -1.1466e-19)
(0.589076 -0.0706253 1.50451e-21)
(2.28438 -0.0384922 9.92496e-20)
(1.62831 -0.115393 1.09361e-21)
(0.852561 0.238571 -5.55269e-21)
(1.02114 0.347897 2.92868e-21)
(2.2495 0.187082 -3.69087e-20)
(0.739862 0.147669 -1.96362e-21)
(2.28716 -0.147211 7.1951e-21)
(0.401619 0.314983 4.88498e-22)
(2.71566 -0.300768 5.7436e-20)
(1.2766 0.0804886 1.44607e-23)
(2.39294 -0.134949 6.31102e-20)
(2.40471 0.0876196 -3.26457e-20)
(0.330664 0.35384 -2.22787e-22)
(1.48603 0.369283 4.64596e-21)
(1.27125 0.158431 5.87702e-22)
(2.47528 0.0102375 -3.28767e-20)
(1.23321 0.236534 -3.9687e-22)
(2.55542 -0.216684 -1.41659e-20)
(0.8962 0.0156623 1.03723e-21)
(1.46073 0.187311 8.21266e-21)
(1.99895 -0.308764 8.63215e-21)
(1.05508 0.0774179 -4.99352e-21)
(1.95342 0.108048 5.67433e-20)
(2.97722 -0.233989 -9.43985e-20)
(1.83252 -0.124494 -7.16761e-21)
(2.27952 -0.423551 2.41139e-20)
(2.15591 0.0746309 -1.50133e-19)
(2.53389 -0.0617161 3.98076e-20)
(0.631099 0.392454 -7.24231e-22)
(0.0657112 -0.0689169 -2.78414e-22)
(0.910447 0.230522 -1.77205e-22)
(2.35001 -0.280693 -3.10934e-20)
(1.19901 0.224634 -5.10643e-22)
(1.19422 0.206359 -2.00524e-22)
(0.57439 0.152584 -9.37401e-22)
(1.38832 -0.0516698 1.30237e-21)
(0.341998 -0.114374 -2.06222e-23)
(1.29505 0.203523 1.35158e-21)
(2.18528 0.299126 -2.98573e-21)
(2.1786 -0.153025 -6.12291e-20)
(0.357742 0.384441 -9.26548e-23)
(2.6327 -0.203973 1.46696e-20)
(0.549689 0.318684 -3.87108e-22)
(0.6805 0.325758 1.70293e-21)
(2.75585 -0.280101 -7.87959e-20)
(1.89206 0.282299 4.7842e-21)
(2.34664 0.0149947 -8.55799e-20)
(2.00904 -0.057211 4.91508e-21)
(0.513697 0.38901 -3.01314e-22)
(0.10549 0.270393 -2.00047e-23)
(1.11564 0.282452 3.6832e-21)
(1.58464 0.395921 2.53395e-21)
(2.80393 -0.255519 4.15304e-21)
(0.710769 0.22551 -3.35947e-21)
(1.07736 0.221072 6.93059e-21)
(0.51591 0.212911 -4.23462e-21)
(2.83291 -0.275963 5.23473e-20)
(1.0445 0.125286 5.90539e-21)
(0.250862 0.233456 2.51094e-22)
(2.53192 -0.381955 -4.01659e-21)
(0.245286 0.180185 6.92546e-22)
(2.58026 -0.337444 -1.68275e-20)
(1.57458 0.222081 3.62144e-22)
(1.39151 0.176954 5.65461e-21)
(1.72075 -0.0692962 -4.36299e-21)
(0.308762 -0.0218644 9.6716e-23)
(1.73841 -0.183627 -4.56042e-21)
(0.449237 0.3606 -1.62197e-22)
(2.72303 -0.262837 -1.36084e-19)
(2.09119 -0.0137211 8.92052e-20)
(2.12916 -0.317141 9.80291e-21)
(0.114703 -0.0201344 2.34047e-23)
(0.807886 0.153975 5.904e-21)
(1.12464 0.0542178 -2.01443e-21)
(0.468835 0.40345 1.53298e-22)
(0.213237 0.351376 -5.35632e-22)
(0.831712 0.0129082 -5.12307e-23)
(0.39051 -0.146126 -6.21868e-23)
(0.633943 0.0917049 -1.35033e-21)
(0.508803 -0.0377521 -3.58136e-22)
(0.924515 0.284085 1.03693e-20)
(0.267217 0.359551 -3.05205e-22)
(2.89182 -0.285497 -1.75294e-20)
(0.266286 0.353017 1.25956e-21)
(1.01306 0.230827 -2.97336e-21)
(2.49134 -0.0523978 1.27333e-19)
(0.792511 0.301962 2.32598e-21)
(0.522981 0.101233 1.24087e-21)
(2.94208 -0.265606 9.29372e-20)
(0.240651 0.354816 1.52816e-21)
(2.62833 -0.353123 5.152e-20)
(0.0778815 0.136719 -5.20751e-23)
(0.703693 0.0736814 2.49987e-21)
(2.67943 -0.503631 -6.9078e-20)
(0.228317 0.352165 1.89464e-22)
(2.52352 -0.529033 -2.84121e-21)
(2.58432 -0.106225 1.08236e-21)
(1.35658 0.0791253 2.49249e-21)
(0.314417 0.38246 -4.38658e-23)
(0.497125 0.40632 1.83933e-22)
(0.283594 -0.19588 1.67282e-23)
(1.51007 0.206099 -1.37565e-20)
(3.00736 -0.198885 3.53228e-20)
(1.05049 0.28346 1.54232e-20)
(2.8005 -0.243407 2.75317e-20)
(0.149147 -0.160599 -3.93908e-22)
(1.17083 0.229387 4.8496e-22)
(0.211674 -0.216811 -6.50292e-22)
(1.11501 0.105512 4.87536e-21)
(2.51777 -0.334805 -2.61005e-20)
(1.85978 -0.251499 -8.29492e-21)
(2.75565 -0.273547 -7.3588e-20)
(2.01083 0.179047 2.77784e-20)
(0.15752 -0.194318 1.45536e-21)
(2.71901 -0.290143 9.92596e-20)
(0.405576 0.380891 8.11283e-23)
(0.336798 0.254374 -1.91128e-21)
(2.68504 -0.310089 4.48194e-21)
(2.49618 -0.0192833 1.97821e-21)
(0.275493 0.372938 -6.71444e-23)
(2.172 -0.507116 -3.50756e-20)
(1.18196 0.0402656 -5.63929e-22)
(0.609095 0.0466629 -4.52336e-22)
(1.31686 0.0815546 2.97258e-22)
(2.69017 -0.198911 6.23539e-20)
(0.450507 0.396424 2.40361e-22)
(1.67593 0.210528 1.96326e-21)
(2.65878 -0.327405 6.45035e-24)
(2.84307 -0.210909 -1.59865e-20)
(2.7795 -0.252414 -1.02106e-20)
(2.58978 -0.219142 -6.40185e-20)
(0.183532 0.346231 8.60177e-22)
(1.91348 -0.0572485 -1.1045e-20)
(0.138226 0.212488 1.81371e-22)
(1.64358 0.30354 1.13771e-21)
(2.80705 -0.263414 2.33722e-20)
(2.88636 -0.186501 6.63268e-21)
(2.54223 -0.249197 2.98461e-20)
(0.636225 0.201709 4.73604e-21)
(2.626 -0.344158 -2.45418e-21)
(0.963776 0.2299 1.94238e-21)
(1.17497 0.0891097 1.68781e-21)
(0.529979 0.402166 1.21692e-22)
(2.01466 0.266465 4.02399e-21)
(0.299938 0.341892 2.89141e-22)
(0.461749 -0.201426 -1.323e-22)
(0.456462 -0.13562 8.00979e-23)
(0.981685 0.293354 -1.05245e-20)
(1.27715 0.265484 3.89926e-21)
(0.384778 -0.0622528 -5.4023e-23)
(2.81053 -0.229671 3.02765e-20)
(0.351212 0.327755 2.57058e-22)
(0.286246 -0.238804 -1.34455e-21)
(0.789214 0.233965 8.36318e-22)
(1.23247 0.0377349 4.22398e-23)
(1.54016 0.295569 -1.69423e-22)
(2.63458 -0.156822 3.47548e-20)
(0.453664 0.160055 -2.3608e-21)
(2.38194 -0.512419 -8.94478e-21)
(2.5896 -0.357805 -7.37841e-22)
(0.112709 -0.123058 -7.00625e-22)
(1.46006 0.279773 -2.27672e-21)
(0.875499 0.156216 -3.75178e-21)
(0.673328 0.134265 -7.59563e-22)
(2.51861 -0.382967 -4.15516e-21)
(2.64167 -0.214712 -5.98962e-22)
(0.504977 -0.189582 4.20185e-23)
(1.3366 -0.0150035 1.14457e-21)
(0.243672 0.283721 8.27564e-22)
(1.14591 0.24994 -5.96465e-22)
(2.11832 0.241546 -1.21311e-20)
(3.01004 -0.29237 -1.95881e-20)
(0.249411 -0.231119 -3.04733e-22)
(0.379312 0.395596 3.58712e-23)
(2.45937 -0.0956313 -1.42184e-19)
(0.472683 0.051535 1.50147e-22)
(1.95316 -0.167817 9.91339e-21)
(2.04653 0.36655 -3.07902e-21)
(0.214042 -0.0590369 -4.78456e-22)
(1.23053 0.0805203 -8.84046e-24)
(0.550368 0.395746 4.86497e-23)
(2.93282 -0.168192 -3.94149e-21)
(2.55669 -0.331887 -1.35992e-20)
(0.156079 0.337893 3.78189e-22)
(2.56171 -0.370911 -7.07635e-23)
(0.554434 0.00864825 2.11314e-22)
(0.134808 0.130327 2.64365e-22)
(2.9762 -0.401806 -3.42726e-21)
(0.531418 -0.0992581 -5.42236e-23)
(0.541202 -0.178249 8.6829e-23)
(2.6382 -0.332987 2.27354e-21)
(2.46222 -0.259519 3.11785e-20)
(0.275688 0.0754165 5.6921e-22)
(0.237694 -0.222121 -5.13916e-22)
(0.160908 -0.18404 -3.24544e-22)
(0.582583 -0.14665 6.42109e-23)
(0.104783 -0.0988343 -8.67426e-24)
(0.130766 0.322359 -1.08056e-21)
(0.249202 0.333369 -1.39112e-23)
(0.419189 0.384485 1.49531e-22)
(0.0553595 -0.0513891 6.02263e-22)
(0.0807623 -0.0880247 -1.13456e-21)
(0.326026 0.316967 1.44873e-23)
(0.348809 0.0383479 -6.79487e-23)
(0.0256823 0.0898244 1.71372e-22)
(0.582182 0.39802 1.75447e-22)
(2.97991 -0.155048 -2.45977e-20)
(0.567014 -0.164249 2.28263e-22)
(2.58198 -0.276036 2.25502e-21)
(0.0382854 -0.0194422 -1.63518e-22)
(2.53815 -0.383221 -2.6434e-22)
(2.95737 -0.150832 1.06655e-20)
(2.99469 -0.108645 -1.02945e-20)
(2.4302 -0.449823 -7.0565e-22)
(2.69553 -0.230335 -4.78947e-20)
(0.328096 -0.213167 1.17698e-22)
(0.478253 -0.170518 -1.86403e-22)
(0.193581 -0.200861 -5.3535e-23)
(0.259759 0.362613 -3.98025e-22)
(0.152572 -0.123797 -2.45197e-24)
(0.49265 0.402626 -1.0456e-22)
(0.158661 -0.058757 3.01422e-22)
(0.111399 0.300427 -4.90438e-22)
(0.324778 0.149294 1.65907e-21)
(2.24028 -0.296043 -3.51326e-21)
(0.126362 0.302711 -5.67855e-23)
(3.01155 -0.149987 2.97351e-20)
(0.288112 0.360311 -1.39501e-22)
(0.0951717 0.269179 8.1913e-22)
(2.38923 -0.469662 -7.0529e-21)
(2.97786 -0.0950347 -3.6213e-20)
(0.5582 0.405618 -3.91871e-22)
(0.0282813 0.0238676 -4.96124e-22)
(0.157314 0.0298358 -5.25491e-22)
(0.0490164 0.0584877 1.02462e-22)
(0.425991 -0.181088 1.13253e-22)
(0.193122 0.3513 -5.91461e-23)
(0.020232 0.0602307 6.55324e-22)
(0.33277 0.368335 2.07321e-22)
(2.93394 -0.18867 -6.12284e-21)
(0.423814 -0.0020176 1.13696e-22)
(2.84108 -0.223642 3.33762e-21)
(2.98036 -0.13228 4.0373e-20)
(2.51125 -0.398945 -2.79569e-22)
(2.47686 -0.424746 1.51217e-20)
(2.99689 -0.122365 -1.8658e-20)
(2.57209 -0.36262 -4.83441e-21)
(2.96797 -0.320436 -2.11605e-20)
(0.863491 0.306939 -1.93988e-22)
(0.538444 0.367514 6.83075e-22)
(0.333117 -0.175266 6.74015e-23)
(0.277451 -0.230425 -1.10582e-22)
(2.59868 -0.348698 7.28542e-21)
(0.374213 -0.199345 -2.46634e-22)
(2.41976 -0.465945 -3.13175e-20)
(0.0305332 0.0871052 -8.36049e-23)
(0.275822 -0.0831825 -1.16467e-23)
(0.0720731 0.225899 -1.784e-22)
(0.460203 -0.0829572 -1.27924e-22)
(0.40406 0.398946 -2.51289e-22)
(2.75269 -0.269324 1.19193e-19)
(0.104081 0.0585889 2.52954e-22)
(2.88726 -0.205479 1.45818e-21)
(2.39752 -0.403638 -1.30126e-20)
(0.531654 0.394943 -8.28328e-23)
(0.16298 0.338305 5.65604e-24)
(0.069134 0.135313 3.37336e-22)
(3.0163 -0.146512 5.39532e-20)
(0.0743808 0.186823 -5.98981e-22)
(0.141783 0.322667 9.33015e-23)
(0.332641 0.375522 4.09176e-22)
(0.195637 -0.146001 1.67076e-23)
(0.385588 0.212619 -6.56432e-22)
(0.199664 -0.0969913 2.67693e-23)
(2.5988 -0.339269 3.81771e-20)
(0.271057 -0.2457 -2.49256e-23)
(0.191236 0.330801 -1.0578e-22)
(0.242657 -0.116028 -3.68116e-23)
(0.608225 -0.106481 -8.35417e-22)
(2.39732 -0.485833 -1.99326e-20)
(0.613501 0.404514 -7.76701e-22)
(0.619424 0.399779 1.1546e-21)
(2.95054 -0.0978648 -7.4259e-20)
(0.524027 -0.162735 -1.03022e-22)
(0.506244 -0.438605 1.05749e-21)
(0.553487 -0.443869 -5.7838e-23)
(0.620115 -0.443272 -7.97529e-22)
(0.667554 -0.438278 4.6195e-22)
(0.710967 -0.428483 -5.22039e-22)
(0.744445 -0.416931 -1.06849e-21)
(0.774142 -0.404131 2.04046e-22)
(0.79831 -0.390966 1.97292e-22)
(0.8226 -0.375345 2.20739e-22)
(0.551238 -0.424326 -1.17047e-21)
(0.597354 -0.431448 -1.06321e-22)
(0.661031 -0.433147 6.05977e-22)
(0.706039 -0.432232 -1.11311e-21)
(0.744797 -0.425373 7.6609e-22)
(0.774988 -0.416601 1.12491e-21)
(0.80074 -0.406259 -6.31368e-22)
(0.821618 -0.395535 7.77779e-22)
(0.839568 -0.38305 -3.23934e-22)
(0.595147 -0.407463 2.23475e-21)
(0.638557 -0.413848 5.43722e-22)
(0.699945 -0.416728 -1.11019e-21)
(0.742811 -0.418195 4.71956e-22)
(0.778334 -0.413976 -1.25345e-21)
(0.805749 -0.407686 -1.61104e-22)
(0.828321 -0.399722 -1.87949e-23)
(0.846258 -0.391235 -3.18059e-22)
(0.86068 -0.38176 -4.6966e-22)
(0.636956 -0.387984 -1.19987e-21)
(0.67733 -0.392006 1.90005e-22)
(0.736354 -0.39535 7.31961e-22)
(0.77731 -0.398311 1.22007e-24)
(0.810252 -0.396268 4.43509e-22)
(0.835342 -0.39214 1.24279e-21)
(0.855347 -0.386244 -7.13351e-22)
(0.870898 -0.379565 1.29711e-22)
(0.883062 -0.372063 1.4416e-22)
(0.676618 -0.364731 4.0482e-23)
(0.713623 -0.366106 -1.10127e-22)
(0.769699 -0.369755 2.84238e-23)
(0.808705 -0.373723 -2.60541e-22)
(0.839482 -0.373597 1.15514e-22)
(0.862696 -0.371414 -2.45131e-22)
(0.880784 -0.36739 8.61073e-23)
(0.894658 -0.362323 3.63225e-22)
(0.905546 -0.356237 8.20113e-23)
(0.714007 -0.336788 1.15069e-22)
(0.746838 -0.336283 -2.63392e-22)
(0.799374 -0.340514 6.69038e-23)
(0.83636 -0.345409 4.59579e-22)
(0.8653 -0.34711 -1.37138e-22)
(0.887062 -0.346756 -1.79845e-22)
(0.903779 -0.344524 -7.46809e-23)
(0.916511 -0.341039 -5.11261e-22)
(0.926417 -0.336624 2.65621e-22)
(0.748456 -0.304579 1.90894e-22)
(0.775947 -0.303042 2.33806e-22)
(0.824636 -0.308368 5.85058e-23)
(0.859709 -0.314264 -1.91668e-22)
(0.887182 -0.317771 3.72629e-23)
(0.907922 -0.319169 -8.80441e-24)
(0.923754 -0.318658 1.18431e-22)
(0.935763 -0.31671 -1.29498e-22)
(0.945088 -0.313826 -9.48864e-23)
(0.778087 -0.270322 -1.70973e-22)
(0.800017 -0.26754 3.28438e-23)
(0.844934 -0.274368 8.10339e-24)
(0.878399 -0.281165 -6.41195e-24)
(0.904822 -0.286403 -4.2615e-23)
(0.924968 -0.289458 1.58194e-22)
(0.940352 -0.290597 1.76146e-22)
(0.952001 -0.290186 -1.77644e-22)
(0.961046 -0.288436 5.13191e-23)
(0.800699 -0.235043 1.11457e-23)
(0.818919 -0.230668 -1.67566e-23)
(0.860263 -0.239305 -1.3286e-23)
(0.892402 -0.246765 -6.92997e-24)
(0.918142 -0.253584 -1.33487e-23)
(0.938086 -0.258152 -1.43764e-24)
(0.953427 -0.260827 1.07785e-24)
(0.965115 -0.261769 1.44568e-22)
(0.974054 -0.261487 -9.879e-24)
(0.815348 -0.197317 -3.4308e-23)
(0.832979 -0.19211 2.81501e-23)
(0.870853 -0.203193 2.96911e-23)
(0.901839 -0.2113 3.17094e-23)
(0.927202 -0.219587 -1.02e-23)
(0.947297 -0.225503 4.4956e-24)
(0.962976 -0.229564 7.78144e-24)
(0.975072 -0.231755 1.80346e-23)
(0.984427 -0.232476 -2.13913e-23)
(0.822036 -0.155607 1.19727e-22)
(0.841854 -0.151149 1.89509e-23)
(0.876491 -0.165752 -5.11418e-23)
(0.906682 -0.174801 -1.98806e-23)
(0.932046 -0.184469 -1.01712e-24)
(0.952648 -0.191527 1.67063e-23)
(0.969029 -0.196775 7.41002e-24)
(0.981915 -0.200067 1.58987e-23)
(0.992036 -0.201821 -1.9602e-23)
(0.821851 -0.110533 -2.30062e-22)
(0.844642 -0.108704 -4.27023e-23)
(0.876629 -0.127519 8.21569e-23)
(0.906827 -0.137552 -1.9455e-23)
(0.932732 -0.148258 3.23666e-24)
(0.954206 -0.156084 -4.59431e-23)
(0.971568 -0.162181 4.65635e-25)
(0.985461 -0.166324 3.35017e-23)
(0.996604 -0.16941 1.44825e-23)
(0.814338 -0.0652343 -6.69561e-23)
(0.839738 -0.0676711 1.4096e-23)
(0.871369 -0.0895511 3.26081e-24)
(0.902563 -0.0999613 -1.22599e-23)
(0.929535 -0.110915 9.88323e-24)
(0.952162 -0.118885 1.15066e-23)
(0.970684 -0.125251 2.04404e-23)
(0.985717 -0.129861 -3.4602e-23)
(0.998241 -0.133164 2.26017e-23)
(0.796657 -0.0220562 9.41217e-23)
(0.827848 -0.0283208 -9.60523e-24)
(0.861678 -0.051621 4.56687e-24)
(0.894536 -0.0616899 -1.49466e-23)
(0.922867 -0.0720533 3.19862e-24)
(0.946771 -0.0795305 2.31081e-24)
(0.966522 -0.0855674 1.55266e-23)
(0.982745 -0.0900555 -2.57296e-24)
(0.996201 -0.0929566 -1.36226e-23)
(0.76973 0.0199653 -2.65561e-22)
(0.809978 0.0110311 7.07751e-23)
(0.847966 -0.0123428 -3.60864e-23)
(0.882991 -0.0217341 4.44471e-23)
(0.912847 -0.0310125 -7.49959e-24)
(0.938058 -0.0376189 -2.40347e-23)
(0.959054 -0.0429475 -1.76733e-23)
(0.976557 -0.0468711 -2.47841e-23)
(0.991415 -0.0494074 7.73917e-23)
(0.735255 0.061905 -2.46506e-22)
(0.786387 0.0514799 -1.2506e-22)
(0.82992 0.0295268 5.43159e-23)
(0.867558 0.0208312 -5.44411e-23)
(0.899101 0.0127125 -2.90761e-23)
(0.925664 0.00699814 1.76491e-23)
(0.947904 0.00244662 1.3416e-24)
(0.966606 -0.000814518 -7.01514e-23)
(0.982543 -0.00306399 3.78091e-23)
(0.693791 0.106053 -5.05598e-22)
(0.75678 0.0944196 5.34271e-23)
(0.806739 0.0747868 -3.24512e-24)
(0.847349 0.0664007 3.30745e-23)
(0.880827 0.0591052 4.88374e-23)
(0.9089 0.0540009 -2.28612e-22)
(0.932491 0.0500328 1.57299e-22)
(0.95245 0.0473449 5.11943e-23)
(0.969807 0.0451818 -2.09704e-23)
(0.651341 0.151156 8.29879e-22)
(0.719822 0.139727 -5.15929e-23)
(0.776956 0.122573 4.962e-23)
(0.821143 0.114186 -7.17191e-23)
(0.857037 0.107296 -1.4426e-23)
(0.886964 0.102485 2.18996e-22)
(0.912147 0.0988492 -2.47522e-23)
(0.933542 0.096436 1.00076e-22)
(0.952362 0.0947259 1.05093e-22)
(0.611778 0.192337 1.88871e-22)
(0.678725 0.182742 2.89822e-24)
(0.74071 0.169519 7.65139e-23)
(0.788571 0.161769 2.52399e-22)
(0.827239 0.155475 -6.37285e-23)
(0.859344 0.150978 -1.18568e-22)
(0.88636 0.147589 -1.35144e-22)
(0.909388 0.145229 -1.62956e-22)
(0.929742 0.143658 5.12105e-23)
(0.573758 0.227651 -1.50271e-22)
(0.635801 0.220628 1.94202e-23)
(0.699924 0.212581 -2.99742e-22)
(0.750582 0.206728 3.22821e-23)
(0.791827 0.201736 -1.42115e-22)
(0.826124 0.197981 9.70363e-23)
(0.855021 0.19508 6.53978e-22)
(0.879663 0.192977 1.05635e-22)
(0.901295 0.19154 3.73509e-23)
(0.536705 0.258227 -2.61798e-22)
(0.592522 0.253464 6.43711e-22)
(0.656542 0.250606 -3.4013e-22)
(0.7086 0.247613 3.1372e-22)
(0.751747 0.244635 -2.3497e-22)
(0.787903 0.242164 2.71785e-23)
(0.818539 0.240095 -2.49285e-22)
(0.844837 0.238404 -2.24074e-22)
(0.868043 0.237484 4.21314e-23)
(0.499977 0.284644 -6.47033e-22)
(0.549086 0.281608 -4.5333e-22)
(0.61182 0.283172 9.7398e-22)
(0.663931 0.28365 -1.35813e-22)
(0.70809 0.283235 7.22805e-22)
(0.745487 0.282564 -2.39616e-22)
(0.777442 0.281715 -6.65198e-23)
(0.805168 0.280642 9.06174e-23)
(0.82916 0.280943 -4.44893e-23)
(0.464684 0.305187 5.45586e-22)
(0.506094 0.304744 3.07509e-22)
(0.567047 0.309975 -6.08079e-22)
(0.617967 0.314544 -5.48755e-22)
(0.662135 0.317058 -5.34317e-22)
(0.699985 0.318515 8.01904e-23)
(0.732675 0.319088 9.75272e-23)
(0.761423 0.318874 -3.4724e-22)
(0.786137 0.320088 9.13682e-22)
(0.431485 0.316218 1.16694e-22)
(0.464804 0.32231 -1.78887e-23)
(0.52299 0.330931 2.328e-22)
(0.571331 0.339989 -2.83635e-22)
(0.614423 0.345545 4.67856e-22)
(0.651991 0.349276 1.35119e-22)
(0.685001 0.351365 -5.94002e-22)
(0.714823 0.352114 6.38642e-22)
(0.740134 0.355999 -2.75599e-22)
(0.396281 0.321337 -2.50282e-22)
(0.426906 0.339616 2.7873e-23)
(0.481946 0.351852 6.04397e-23)
(0.527272 0.36347 1.82746e-22)
(0.568239 0.370707 -1.06177e-22)
(0.604345 0.375302 2.33762e-22)
(0.636688 0.377261 -1.36907e-22)
(0.667943 0.376407 3.68802e-22)
(0.697107 0.381557 1.37047e-23)
(0.492427 0.485157 -4.64849e-22)
(0.484663 0.486789 -5.09404e-22)
(0.475554 0.488809 -1.32113e-21)
(0.465202 0.491226 1.86684e-21)
(0.453734 0.493673 -1.34659e-21)
(0.441645 0.495623 9.71124e-22)
(0.429591 0.496336 3.2763e-22)
(0.417917 0.495038 -1.00279e-22)
(0.406439 0.491442 -5.6612e-22)
(0.394792 0.485461 -2.5589e-22)
(0.382614 0.476869 2.42782e-22)
(0.369486 0.46557 -3.10076e-22)
(0.35504 0.451532 7.66597e-22)
(0.339013 0.434732 -1.97197e-21)
(0.321291 0.415136 3.4687e-21)
(0.301947 0.392723 -4.00679e-21)
(0.281208 0.367468 3.72591e-21)
(0.259428 0.339368 -1.58214e-21)
(0.23706 0.308511 -5.93686e-22)
(0.21438 0.27497 6.13749e-22)
(0.191319 0.239589 -2.28212e-22)
(0.167959 0.20343 4.94084e-22)
(0.144724 0.167232 7.69877e-23)
(0.12189 0.13175 -7.8094e-22)
(0.0991393 0.0977258 5.87478e-22)
(0.077438 0.0664656 -3.58798e-22)
(0.0604466 0.0371043 4.12509e-22)
(0.0505227 0.00806926 3.2519e-22)
(0.0472598 -0.0205975 -3.69707e-22)
(0.0510861 -0.0493895 1.01365e-23)
(0.0591558 -0.0789937 -3.52626e-22)
(0.0684497 -0.10953 3.01661e-22)
(0.0790467 -0.140169 6.26007e-22)
(0.0912466 -0.170646 -4.85664e-22)
(0.104917 -0.200789 7.52706e-22)
(0.119809 -0.230115 -1.23444e-21)
(0.136174 -0.258152 8.00806e-23)
(0.154279 -0.284605 2.82977e-22)
(0.173834 -0.309338 -4.23316e-22)
(0.194342 -0.332254 9.53915e-22)
(0.215289 -0.353271 -5.2851e-22)
(0.236179 -0.37232 -2.27193e-21)
(0.256561 -0.389335 4.41538e-21)
(0.276096 -0.404277 -4.55853e-21)
(0.294575 -0.417148 3.78791e-21)
(0.311915 -0.427974 -2.13116e-21)
(0.32815 -0.436819 1.06006e-21)
(0.343409 -0.443797 -3.45713e-22)
(0.357849 -0.449044 3.39106e-22)
(0.371637 -0.452722 -3.36715e-22)
(0.384925 -0.455034 -5.09583e-22)
(0.397788 -0.45618 -1.85454e-22)
(0.41035 -0.456297 2.37295e-22)
(0.422749 -0.455514 6.81496e-22)
(0.434957 -0.45404 -1.03022e-21)
(0.44683 -0.452128 1.36249e-21)
(0.458227 -0.449985 -9.06194e-22)
(0.469041 -0.447773 -3.55731e-22)
(0.479244 -0.445541 -2.84961e-22)
(0.512614 0.443853 -6.76145e-23)
(0.50363 0.442387 -1.74207e-23)
(0.493668 0.440436 -1.42443e-22)
(0.482682 0.437921 4.59809e-23)
(0.470525 0.434417 -1.67081e-22)
(0.457386 0.429528 2.50617e-22)
(0.443613 0.422739 -2.76893e-23)
(0.429492 0.413896 1.84712e-22)
(0.415106 0.403176 -6.02614e-22)
(0.400482 0.390653 -3.83214e-23)
(0.385628 0.376533 2.78298e-22)
(0.370486 0.361049 3.11193e-22)
(0.354963 0.344404 -9.39655e-22)
(0.338988 0.32674 1.1073e-21)
(0.322556 0.308115 -1.23348e-21)
(0.305727 0.288527 4.28651e-22)
(0.288632 0.267946 8.83073e-22)
(0.271443 0.2464 -5.01027e-22)
(0.254191 0.223874 -1.70584e-22)
(0.236443 0.200899 4.5932e-23)
(0.217673 0.177963 -1.95857e-24)
(0.198029 0.154795 3.77877e-22)
(0.178128 0.130897 -1.91053e-22)
(0.158557 0.105908 -4.54634e-23)
(0.139934 0.0793935 8.44291e-23)
(0.123779 0.0506604 -2.03043e-23)
(0.112088 0.0192397 -8.06812e-25)
(0.105086 -0.0138787 3.12754e-23)
(0.102535 -0.0477256 2.43864e-23)
(0.104352 -0.081348 -1.62475e-24)
(0.110311 -0.1139 -3.81949e-23)
(0.119172 -0.145237 -4.37825e-24)
(0.130317 -0.17549 -8.3665e-24)
(0.143595 -0.204551 3.75829e-23)
(0.158691 -0.232292 -1.41808e-22)
(0.17524 -0.258627 6.03349e-23)
(0.193014 -0.283409 -6.54248e-23)
(0.21177 -0.306394 3.07249e-23)
(0.231115 -0.32737 4.10155e-24)
(0.250574 -0.346256 -2.81118e-23)
(0.269694 -0.363087 -5.42925e-23)
(0.288122 -0.377986 -1.99525e-23)
(0.305656 -0.391128 -8.85674e-23)
(0.322251 -0.402699 -9.07109e-23)
(0.338001 -0.41286 1.14099e-22)
(0.353092 -0.42173 -1.34169e-22)
(0.367752 -0.429386 7.88808e-23)
(0.382186 -0.43587 1.04058e-23)
(0.396557 -0.441213 -1.11495e-22)
(0.41094 -0.445451 1.45359e-24)
(0.425326 -0.448648 2.63415e-22)
(0.439631 -0.450897 -4.16073e-23)
(0.453722 -0.452293 1.22129e-22)
(0.467531 -0.452886 -4.73176e-22)
(0.480941 -0.452741 4.36085e-23)
(0.493736 -0.452007 1.75661e-22)
(0.505656 -0.450922 -1.41573e-22)
(0.51662 -0.449678 3.03554e-23)
(0.526723 -0.448318 -2.82558e-23)
(0.574769 0.425657 -4.84361e-22)
(0.567878 0.42129 1.54217e-22)
(0.560566 0.415797 -2.76713e-22)
(0.552848 0.409268 3.45787e-23)
(0.544456 0.401477 9.53743e-22)
(0.535257 0.392372 -2.82337e-22)
(0.525131 0.381955 -4.42813e-22)
(0.513994 0.370332 1.4896e-23)
(0.501834 0.357561 2.39528e-22)
(0.488707 0.343717 -6.09476e-23)
(0.474702 0.32889 6.66833e-22)
(0.459909 0.313181 -8.15327e-22)
(0.444417 0.296687 7.64286e-22)
(0.428308 0.279496 -7.85234e-23)
(0.41166 0.26169 -7.46389e-22)
(0.39454 0.243348 2.1608e-22)
(0.376998 0.224564 9.42683e-22)
(0.359034 0.205466 -2.86599e-22)
(0.340542 0.186195 -7.29952e-23)
(0.321381 0.166871 5.15969e-23)
(0.301683 0.147128 -2.16684e-22)
(0.281867 0.126463 4.92957e-23)
(0.262419 0.104424 -6.60075e-22)
(0.243783 0.0807528 7.48749e-22)
(0.226597 0.0551251 -2.84938e-22)
(0.211861 0.0273601 1.12814e-23)
(0.200667 -0.0022644 4.45452e-23)
(0.193663 -0.0330982 -2.03671e-22)
(0.191033 -0.0645064 1.21424e-22)
(0.192669 -0.0958624 6.74812e-23)
(0.198057 -0.126531 1.57593e-22)
(0.206438 -0.156103 -1.56548e-22)
(0.21719 -0.184409 6.92108e-23)
(0.229831 -0.211303 9.31347e-23)
(0.243919 -0.236643 -3.2376e-22)
(0.25904 -0.260336 8.9362e-22)
(0.274844 -0.282307 -5.59968e-22)
(0.291007 -0.302487 -1.12106e-22)
(0.307207 -0.320845 -1.51675e-22)
(0.323173 -0.337423 -5.10283e-23)
(0.338736 -0.352328 -2.11941e-22)
(0.353848 -0.365705 -3.68146e-22)
(0.368573 -0.377713 8.1496e-22)
(0.383053 -0.388493 3.765e-22)
(0.397468 -0.398152 -7.66182e-22)
(0.411997 -0.406755 -2.49834e-22)
(0.426783 -0.414331 8.09399e-22)
(0.441914 -0.420884 -9.5939e-22)
(0.4574 -0.426417 6.85938e-22)
(0.473169 -0.43095 -2.12268e-23)
(0.48907 -0.434541 3.17423e-22)
(0.50489 -0.437284 9.99963e-23)
(0.520385 -0.439307 -5.14848e-22)
(0.535303 -0.440752 -2.99197e-22)
(0.549395 -0.441761 9.00826e-22)
(0.562482 -0.442451 2.87053e-23)
(0.574479 -0.442913 -2.31733e-22)
(0.585384 -0.443264 1.04105e-22)
(0.595178 -0.443551 -3.00984e-22)
(0.612836 0.396136 -4.50359e-23)
(0.606771 0.390542 4.36141e-22)
(0.600613 0.383744 -1.76446e-22)
(0.594292 0.375836 5.25219e-23)
(0.587521 0.366766 -3.72073e-23)
(0.580073 0.356635 3.66538e-23)
(0.571706 0.345571 4.49291e-23)
(0.562211 0.3337 1.65778e-22)
(0.551445 0.321129 -7.81132e-23)
(0.539352 0.307943 -9.8546e-23)
(0.525946 0.2942 -1.03848e-22)
(0.511302 0.279947 2.03397e-22)
(0.495531 0.265215 -1.73439e-22)
(0.478768 0.250026 -9.4304e-24)
(0.46116 0.234391 -2.70134e-23)
(0.44286 0.218313 1.55761e-23)
(0.424014 0.201781 5.32696e-24)
(0.404763 0.18476 -2.37274e-23)
(0.385237 0.167163 -8.62542e-23)
(0.365587 0.14881 1.89193e-23)
(0.346041 0.129436 -4.9479e-24)
(0.32693 0.108773 -2.0925e-22)
(0.308656 0.0866063 9.98528e-23)
(0.291689 0.0627613 1.58573e-22)
(0.276599 0.0371131 -1.1262e-22)
(0.26404 0.00968036 1.29018e-23)
(0.254628 -0.0192731 1.41777e-22)
(0.248739 -0.0492647 -1.57633e-22)
(0.2465 -0.0797242 5.12054e-23)
(0.247829 -0.110057 -1.41521e-23)
(0.252431 -0.139706 6.54673e-23)
(0.259841 -0.168239 -1.46489e-22)
(0.26956 -0.195364 1.01495e-22)
(0.281101 -0.220872 -5.11575e-24)
(0.293988 -0.244621 -1.06516e-22)
(0.307774 -0.266542 1.86695e-23)
(0.322077 -0.286624 1.18219e-22)
(0.33659 -0.304909 -1.63653e-23)
(0.351111 -0.321488 -5.71884e-23)
(0.365543 -0.3365 8.89764e-23)
(0.3799 -0.350101 -4.64407e-24)
(0.394281 -0.362442 -2.77055e-23)
(0.408832 -0.373648 1.58519e-22)
(0.423705 -0.383806 -1.43638e-22)
(0.439029 -0.39296 6.25333e-23)
(0.454884 -0.401119 2.00336e-23)
(0.471285 -0.40827 1.34461e-22)
(0.488178 -0.414387 -1.1772e-22)
(0.505437 -0.419461 7.52136e-23)
(0.522863 -0.423515 6.15888e-23)
(0.540195 -0.426624 1.12993e-22)
(0.557132 -0.428917 -8.40232e-23)
(0.573365 -0.430566 -1.39138e-23)
(0.588612 -0.431759 -4.64979e-23)
(0.60266 -0.432677 -1.07789e-22)
(0.615379 -0.433468 7.24809e-23)
(0.626714 -0.434238 -1.72931e-22)
(0.636713 -0.43508 3.53163e-22)
(0.645442 -0.436032 -8.16104e-23)
(0.661778 0.370131 -7.5543e-22)
(0.65723 0.363296 1.14137e-22)
(0.65282 0.355181 5.99661e-22)
(0.648492 0.345988 -4.18545e-22)
(0.643923 0.335775 8.36932e-23)
(0.638796 0.324756 2.56469e-22)
(0.632749 0.313175 -3.24411e-22)
(0.625437 0.301254 1.10186e-22)
(0.616597 0.289151 3.32583e-22)
(0.606082 0.276945 -7.79825e-23)
(0.593854 0.264643 -2.92237e-22)