/*--------------------------------*- C++ -*----------------------------------*\
  =========                 |
  \\      /  F ield         | OpenFOAM: The Open Source CFD Toolbox
   \\    /   O peration     | Website:  https://openfoam.org
    \\  /    A nd           | Version:  10
     \\/     M anipulation  |
\*---------------------------------------------------------------------------*/
FoamFile
{
    format      ascii;
    class       volScalarField;
    location    "50";
    object      epsilon;
}
// * * * * * * * * * * * * * * * * * * * * * * * * * * * * * * * * * * * * * //

dimensions      [0 2 -3 0 0 0 0];

internalField   nonuniform List<scalar> 
10435
(
5.44863e-14
4.59595e-14
7.20247e-14
4.57981e-14
3.93676e-14
4.44267e-14
6.91443e-14
7.1942e-14
5.28824e-14
5.59854e-14
4.42916e-14
5.11998e-14
6.86567e-14
8.0509e-14
6.85992e-14
6.68958e-14
1.04552e-13
5.49545e-14
3.58426e-14
5.52772e-14
7.26655e-14
4.96848e-14
6.33272e-14
4.92252e-14
6.20817e-14
8.76154e-13
7.55962e-13
7.39746e-14
5.10143e-12
5.28893e-14
5.36589e-14
4.36192e-14
7.06947e-14
3.41712e-13
5.58732e-14
4.57274e-14
5.80374e-14
6.26532e-13
1.6956e-11
4.14855e-14
4.36451e-14
6.86816e-14
1.90937e-13
4.45201e-14
5.90982e-14
4.47037e-14
4.4256e-14
3.61008e-13
5.86627e-14
6.7629e-14
6.9872e-14
4.93921e-14
6.76855e-12
5.07469e-12
7.88284e-12
2.12543e-12
5.34262e-14
9.68544e-13
1.63046e-13
4.81163e-14
1.13321e-11
4.69349e-14
1.44417e-12
4.9705e-14
6.18027e-14
6.92655e-14
2.16288e-13
7.45589e-13
7.42299e-14
5.06473e-14
1.4729e-11
8.6623e-13
1.61342e-13
6.37612e-14
5.44903e-14
1.18934e-13
5.29614e-14
7.0839e-14
7.06194e-14
6.22544e-14
6.59698e-14
7.43045e-14
1.55127e-12
1.28945e-12
6.23614e-14
3.72644e-14
4.23929e-14
4.57932e-14
4.40448e-14
4.13415e-14
4.64557e-14
4.68771e-14
7.29158e-14
4.27198e-14
4.48422e-14
4.41669e-14
4.65305e-14
5.20416e-14
1.26554e-13
4.53384e-14
4.5154e-14
5.25183e-14
3.97482e-14
4.52661e-14
5.16197e-14
4.35054e-14
7.37404e-14
6.69661e-14
5.91598e-14
6.53944e-14
6.91246e-14
5.35586e-14
7.29393e-14
7.15838e-14
4.54958e-14
5.02662e-14
4.75412e-14
3.91401e-14
4.14074e-14
4.87122e-14
4.87555e-14
1.12873e-13
3.90528e-14
5.82934e-14
6.4098e-14
8.27027e-12
4.67702e-14
8.82375e-14
4.45073e-14
8.79039e-13
6.90499e-14
6.39511e-14
6.94331e-14
7.09837e-14
6.39805e-13
3.28128e-13
6.5834e-14
4.49579e-14
4.16321e-14
5.05141e-14
5.40831e-14
5.92986e-14
2.59819e-13
4.74905e-14
5.01261e-14
6.47125e-14
6.16604e-14
4.83513e-14
1.08234e-13
5.16476e-14
3.93851e-13
5.51555e-14
4.46314e-14
5.19656e-14
4.88959e-14
1.51728e-12
6.21809e-14
3.9577e-14
4.88113e-14
6.57396e-14
5.43134e-14
8.03892e-14
4.03635e-14
4.78352e-14
4.9152e-14
4.52244e-14
6.61342e-14
4.74892e-14
5.32091e-14
4.68062e-14
6.05524e-14
2.31734e-13
1.26488e-12
5.35145e-14
5.41993e-14
6.52953e-14
4.65013e-14
2.53353e-13
7.00423e-14
1.76519e-12
4.50339e-14
4.80651e-14
4.95275e-14
8.77002e-12
5.47578e-14
2.13668e-13
1.53673e-13
6.93969e-14
4.06024e-14
4.94493e-14
4.97538e-14
6.36931e-13
8.08221e-13
6.57147e-14
5.95102e-14
7.35838e-14
1.02732e-13
4.27306e-14
3.0138e-13
6.32245e-14
4.50066e-14
8.05437e-13
7.0934e-14
7.7532e-13
7.3205e-14
4.31375e-14
4.20453e-14
4.78556e-14
1.96652e-12
4.99861e-14
3.48347e-13
6.70251e-14
4.89184e-14
5.14191e-14
6.64413e-13
7.83469e-14
5.00992e-14
4.10013e-13
6.34362e-13
9.81664e-14
9.98902e-13
1.82862e-13
2.83872e-13
5.64924e-14
4.77884e-12
6.24636e-14
7.72056e-13
4.5196e-14
5.35619e-14
9.31014e-14
3.33651e-13
6.22845e-14
7.38807e-13
5.44518e-14
5.68565e-13
1.3315e-13
5.3346e-14
1.02721e-12
5.18998e-14
5.83153e-14
4.57063e-14
4.04624e-12
3.48612e-13
9.82173e-12
4.35453e-14
6.62684e-14
4.20865e-14
7.56393e-14
1.06034e-12
6.7125e-14
1.07305e-12
4.26971e-14
6.49949e-14
5.07654e-14
6.96859e-14
4.54479e-14
9.01594e-13
7.08829e-14
5.22033e-13
5.49052e-13
7.09485e-14
5.76003e-14
2.30857e-12
5.49598e-14
5.33082e-14
1.85403e-13
4.47209e-14
5.9212e-14
7.87851e-13
4.24097e-14
6.87551e-14
7.50645e-14
7.55822e-14
6.4694e-14
6.22163e-13
4.95037e-14
7.06142e-13
4.23946e-14
6.99153e-14
7.20597e-14
6.41697e-14
1.55911e-13
7.22776e-14
5.03116e-14
4.33306e-14
3.83981e-13
4.59331e-14
1.75506e-12
5.6092e-13
4.67679e-13
5.03397e-14
6.56752e-14
7.77186e-13
7.50304e-14
1.85726e-12
2.33249e-12
8.12249e-14
5.30796e-14
4.20189e-14
5.83784e-14
3.18895e-13
5.37634e-14
7.45609e-14
1.57517e-12
4.36403e-14
6.57324e-14
1.41685e-13
5.58313e-14
6.25219e-14
4.04839e-13
7.26047e-14
7.23768e-13
6.73247e-14
4.67591e-14
5.41754e-14
8.40849e-13
2.56446e-12
5.02036e-14
3.4276e-13
5.10325e-14
4.89714e-14
1.64939e-12
4.36801e-14
4.079e-13
7.1971e-14
6.76685e-14
6.82738e-13
7.48352e-14
2.34498e-13
6.64036e-13
4.63238e-14
2.97935e-13
3.606e-13
7.26325e-14
5.5028e-14
1.53024e-12
1.59866e-12
9.67911e-13
3.06122e-13
7.51201e-13
8.94094e-13
1.55366e-12
2.4403e-12
3.30392e-12
2.32838e-12
9.76761e-13
9.66172e-13
2.23874e-12
3.47923e-13
7.35149e-14
3.44316e-13
6.70499e-14
3.94836e-12
7.39221e-14
7.32701e-14
5.98724e-14
7.46253e-14
6.35587e-14
8.87027e-12
4.28225e-13
1.55395e-12
1.14697e-12
8.78611e-13
5.07904e-13
5.45418e-13
1.24242e-12
8.81593e-13
5.40325e-14
7.78081e-13
6.78961e-14
2.20492e-12
1.81483e-12
7.47989e-14
4.40039e-14
3.35275e-13
5.66386e-12
8.22084e-13
1.42563e-12
7.18145e-13
7.55682e-13
4.4113e-12
1.18387e-11
7.16411e-14
4.4968e-13
7.47823e-14
7.38794e-14
7.11826e-14
7.21044e-14
6.72775e-14
7.53699e-14
5.88474e-14
7.0025e-14
2.51746e-13
4.19703e-12
7.06831e-12
7.52919e-14
2.10995e-12
7.46343e-14
2.83845e-12
3.63845e-12
2.49955e-12
3.58199e-13
1.00646e-12
6.68061e-14
5.66645e-13
7.29026e-14
5.51855e-14
2.84021e-13
6.28815e-13
2.66312e-12
3.83169e-14
2.23799e-12
6.65819e-13
2.72258e-12
1.37825e-12
4.45766e-13
1.0337e-12
7.5267e-14
4.64581e-12
8.49551e-13
4.1477e-12
2.63902e-13
5.77521e-14
2.5329e-13
2.97602e-13
3.99048e-14
3.60292e-13
7.08685e-13
7.07128e-13
6.52249e-13
6.16699e-13
5.72161e-13
5.43917e-13
4.92623e-13
5.06868e-13
5.78303e-13
7.06442e-13
7.02392e-13
6.49732e-13
6.11861e-13
5.65649e-13
5.37849e-13
4.90265e-13
4.92876e-13
5.32438e-13
7.0655e-13
6.95093e-13
6.41559e-13
6.03649e-13
5.61496e-13
5.33757e-13
4.82071e-13
4.74934e-13
4.97651e-13
7.07476e-13
6.82931e-13
6.34562e-13
5.9567e-13
5.5407e-13
5.27131e-13
4.73346e-13
4.5635e-13
4.66975e-13
7.11101e-13
6.72807e-13
6.27067e-13
5.87661e-13
5.43742e-13
5.17383e-13
4.60131e-13
4.32547e-13
4.42797e-13
7.14528e-13
6.55471e-13
6.13043e-13
5.75264e-13
5.30335e-13
5.06311e-13
4.30463e-13
4.12463e-13
4.23505e-13
7.23667e-13
6.40201e-13
5.98371e-13
5.61628e-13
5.13668e-13
4.85472e-13
4.33678e-13
3.95387e-13
4.08528e-13
7.3744e-13
6.23285e-13
5.81324e-13
5.43074e-13
5.00196e-13
4.865e-13
4.33948e-13
3.80033e-13
3.87506e-13
7.42394e-13
5.97023e-13
5.63274e-13
5.28242e-13
4.87215e-13
4.8505e-13
4.37618e-13
3.68354e-13
3.65949e-13
7.69598e-13
5.81451e-13
5.46935e-13
5.09439e-13
4.76274e-13
4.85157e-13
4.41892e-13
3.61575e-13
3.47632e-13
8.27071e-13
5.70515e-13
5.32531e-13
4.97386e-13
4.70047e-13
4.87322e-13
4.50178e-13
3.55683e-13
3.36024e-13
8.58581e-13
5.60254e-13
5.21809e-13
4.8876e-13
4.64614e-13
4.82683e-13
4.53429e-13
3.47578e-13
3.25997e-13
8.43336e-13
5.49771e-13
5.17073e-13
4.80247e-13
4.59231e-13
4.83794e-13
4.523e-13
3.4655e-13
3.16699e-13
8.29513e-13
5.37885e-13
5.11587e-13
4.71824e-13
4.49203e-13
4.79601e-13
4.53398e-13
3.39066e-13
3.1027e-13
8.31729e-13
5.24933e-13
5.03028e-13
4.59227e-13
4.30587e-13
4.59056e-13
4.48869e-13
3.46146e-13
2.97379e-13
8.51644e-13
5.11408e-13
4.83169e-13
4.33102e-13
4.08794e-13
4.14361e-13
4.30941e-13
3.51056e-13
2.91135e-13
9.79043e-13
5.14808e-13
4.61571e-13
3.97845e-13
3.72167e-13
3.77218e-13
4.11705e-13
3.51218e-13
2.82911e-13
1.22655e-12
5.28648e-13
4.47614e-13
3.83584e-13
3.44733e-13
3.49969e-13
3.80618e-13
3.50678e-13
2.92584e-13
2.12321e-12
5.80426e-13
4.41458e-13
3.71834e-13
3.46534e-13
3.2062e-13
3.52214e-13
3.46176e-13
3.08959e-13
4.16699e-12
7.65668e-13
4.50162e-13
3.81075e-13
3.53452e-13
3.19246e-13
3.22608e-13
3.3525e-13
3.13106e-13
8.36544e-12
1.29366e-12
4.86225e-13
3.83381e-13
3.61071e-13
3.27717e-13
3.04074e-13
3.19439e-13
3.10889e-13
1.17155e-11
2.50295e-12
6.20946e-13
4.06624e-13
3.74116e-13
3.4219e-13
3.13546e-13
2.96722e-13
3.05681e-13
9.69828e-12
4.76128e-12
8.82422e-13
4.41692e-13
3.77342e-13
3.50672e-13
3.26471e-13
3.02482e-13
2.93914e-13
2.14863e-12
5.62533e-12
1.817e-12
6.53353e-13
4.21443e-13
3.59173e-13
3.31128e-13
3.1117e-13
2.91088e-13
1.47775e-12
8.93626e-12
2.19396e-12
6.2497e-13
4.1768e-13
3.58853e-13
3.30921e-13
3.15536e-13
2.82342e-13
7.04397e-13
7.02852e-13
6.96158e-13
6.96193e-13
6.99371e-13
7.12066e-13
7.31072e-13
7.63221e-13
8.05285e-13
8.68891e-13
9.58646e-13
1.07788e-12
1.2352e-12
1.41391e-12
1.60207e-12
1.78065e-12
1.94806e-12
2.07563e-12
2.12875e-12
2.12971e-12
2.16277e-12
2.141e-12
2.01261e-12
1.87535e-12
1.88338e-12
2.07037e-12
2.29529e-12
2.28553e-12
2.35544e-12
2.37147e-12
2.39678e-12
2.40322e-12
2.26017e-12
2.08465e-12
2.01404e-12
2.06001e-12
2.07676e-12
2.07578e-12
2.04888e-12
2.02777e-12
1.92889e-12
1.78896e-12
1.6382e-12
1.47986e-12
1.32217e-12
1.17696e-12
1.05456e-12
9.55191e-13
8.75443e-13
8.19933e-13
7.772e-13
7.48213e-13
7.26603e-13
7.1237e-13
7.05252e-13
7.06069e-13
7.05521e-13
7.12122e-13
7.14255e-13
7.16442e-13
7.15126e-13
7.14694e-13
7.17772e-13
7.2557e-13
7.4079e-13
7.62722e-13
7.9064e-13
8.192e-13
8.51522e-13
8.84551e-13
9.0308e-13
8.88656e-13
8.42804e-13
7.77025e-13
7.1353e-13
6.56504e-13
6.15547e-13
5.92449e-13
5.80476e-13
5.7929e-13
5.82189e-13
5.84661e-13
5.88616e-13
5.972e-13
6.04335e-13
6.20866e-13
6.26686e-13
6.28514e-13
6.24204e-13
6.18776e-13
6.10709e-13
6.00367e-13
5.87645e-13
5.76818e-13
5.69924e-13
5.71801e-13
5.80545e-13
5.95888e-13
6.18416e-13
6.54201e-13
6.9525e-13
7.37362e-13
7.81632e-13
8.15693e-13
8.28851e-13
8.23436e-13
8.11357e-13
7.97052e-13
7.77862e-13
7.5615e-13
7.3525e-13
7.21817e-13
7.12399e-13
7.05535e-13
7.03733e-13
7.02999e-13
7.06486e-13
7.08185e-13
6.58881e-13
6.52109e-13
6.41797e-13
6.42191e-13
6.3848e-13
6.39542e-13
6.39993e-13
6.39699e-13
6.38566e-13
6.34006e-13
6.19819e-13
5.90092e-13
5.51384e-13
5.05051e-13
4.59798e-13
4.1751e-13
3.87538e-13
3.67416e-13
3.61291e-13
3.59777e-13
3.67412e-13
3.76771e-13
3.81854e-13
3.85815e-13
3.89284e-13
3.91678e-13
3.9274e-13
3.89813e-13
3.83085e-13
3.82677e-13
3.81704e-13
3.80622e-13
3.78457e-13
3.75589e-13
3.71628e-13
3.68614e-13
3.6725e-13
3.66584e-13
3.68752e-13
3.72748e-13
3.85146e-13
4.03216e-13
4.27854e-13
4.62951e-13
4.97696e-13
5.32362e-13
5.63891e-13
5.83392e-13
5.99276e-13
6.07457e-13
6.10521e-13
6.11004e-13
6.13545e-13
6.13769e-13
6.15325e-13
6.27314e-13
6.3058e-13
6.43883e-13
6.51917e-13
6.28844e-13
6.26498e-13
6.16716e-13
6.16234e-13
6.05804e-13
6.01686e-13
5.86138e-13
5.7201e-13
5.45848e-13
5.17849e-13
4.82338e-13
4.4928e-13
4.18406e-13
3.88866e-13
3.69347e-13
3.49403e-13
3.34561e-13
3.24145e-13
3.19007e-13
3.17707e-13
3.22696e-13
3.27983e-13
3.29874e-13
3.30606e-13
3.3029e-13
3.29753e-13
3.25787e-13
3.23283e-13
3.16909e-13
3.19191e-13
3.20361e-13
3.23481e-13
3.23686e-13
3.26318e-13
3.26829e-13
3.26994e-13
3.27542e-13
3.27186e-13
3.27214e-13
3.25983e-13
3.30765e-13
3.32902e-13
3.46076e-13
3.65151e-13
3.86224e-13
4.14457e-13
4.4898e-13
4.73216e-13
5.06395e-13
5.29586e-13
5.48913e-13
5.60457e-13
5.72245e-13
5.77102e-13
5.81085e-13
5.93513e-13
5.94247e-13
6.09285e-13
6.16252e-13
5.83218e-13
5.79938e-13
5.66699e-13
5.63922e-13
5.45487e-13
5.31603e-13
4.97225e-13
4.70623e-13
4.38808e-13
4.10294e-13
3.86132e-13
3.6471e-13
3.50771e-13
3.41028e-13
3.36538e-13
3.3214e-13
3.21818e-13
3.17997e-13
3.12843e-13
3.10763e-13
3.11014e-13
3.13069e-13
3.13552e-13
3.12998e-13
3.10059e-13
3.06477e-13
2.98379e-13
2.98168e-13
2.93575e-13
2.96525e-13
3.01081e-13
3.0747e-13
3.08283e-13
3.1344e-13
3.15163e-13
3.15979e-13
3.1806e-13
3.18687e-13
3.18045e-13
3.16551e-13
3.17775e-13
3.17313e-13
3.25633e-13
3.32814e-13
3.42897e-13
3.51326e-13
3.67283e-13
3.82841e-13
4.05949e-13
4.28304e-13
4.59058e-13
4.79861e-13
5.09248e-13
5.16688e-13
5.31734e-13
5.49185e-13
5.4984e-13
5.66838e-13
5.71492e-13
5.45817e-13
5.4507e-13
5.16966e-13
4.98356e-13
4.70135e-13
4.52692e-13
4.29203e-13
4.06094e-13
3.90242e-13
3.71843e-13
3.59137e-13
3.45507e-13
3.38313e-13
3.34854e-13
3.31916e-13
3.34882e-13
3.34076e-13
3.31996e-13
3.30855e-13
3.19414e-13
3.19788e-13
3.11371e-13
3.11035e-13
3.09315e-13
3.02327e-13
2.96754e-13
2.87698e-13
2.87558e-13
2.84984e-13
2.86581e-13
2.94301e-13
3.03182e-13
3.06619e-13
3.13862e-13
3.15188e-13
3.14334e-13
3.24269e-13
3.30129e-13
3.35132e-13
3.35412e-13
3.35326e-13
3.36374e-13
3.36342e-13
3.33123e-13
3.36085e-13
3.36236e-13
3.4556e-13
3.57506e-13
3.68654e-13
3.80315e-13
4.00465e-13
4.17829e-13
4.40079e-13
4.64342e-13
4.83475e-13
5.13735e-13
5.26627e-13
5.45918e-13
5.46527e-13
4.9348e-13
4.88541e-13
4.55514e-13
4.4827e-13
4.23418e-13
4.09326e-13
4.08185e-13
3.86855e-13
3.85956e-13
3.70042e-13
3.69201e-13
3.65895e-13
3.60915e-13
3.60067e-13
3.58995e-13
3.53194e-13
3.49119e-13
3.35002e-13
3.34973e-13
3.24829e-13
3.25957e-13
3.18206e-13
3.17653e-13
3.12527e-13
2.96755e-13
2.96282e-13
2.93403e-13
2.94651e-13
2.95146e-13
2.97955e-13
3.04613e-13
3.07654e-13
3.07381e-13
3.15574e-13
3.15489e-13
3.1769e-13
3.28177e-13
3.39273e-13
3.46361e-13
3.51653e-13
3.51423e-13
3.60195e-13
3.59975e-13
3.6218e-13
3.63087e-13
3.58478e-13
3.61306e-13
3.61641e-13
3.69973e-13
3.72647e-13
3.88162e-13
3.90314e-13
4.07926e-13
4.27374e-13
4.31216e-13
4.62659e-13
4.64372e-13
4.9186e-13
4.96143e-13
5.00836e-13
4.90301e-13
4.74176e-13
4.72261e-13
4.56667e-13
4.54526e-13
4.46759e-13
4.41061e-13
4.26872e-13
4.26674e-13
4.15628e-13
4.09053e-13
3.96153e-13
3.86418e-13
3.83746e-13
3.7365e-13
3.55416e-13
3.37027e-13
3.34883e-13
3.29953e-13
3.29719e-13
3.26715e-13
3.26814e-13
3.24791e-13
3.03553e-13
2.94445e-13
2.97032e-13
2.99251e-13
3.00911e-13
3.03566e-13
3.09225e-13
3.13418e-13
3.13374e-13
3.23272e-13
3.24894e-13
3.31259e-13
3.47957e-13
3.53211e-13
3.54529e-13
3.60977e-13
3.59576e-13
3.75226e-13
3.77091e-13
3.78854e-13
3.9076e-13
3.9193e-13
4.0553e-13
4.14775e-13
4.25334e-13
4.286e-13
4.31101e-13
4.31115e-13
4.39087e-13
4.40397e-13
4.52656e-13
4.64961e-13
4.73536e-13
5.00834e-13
5.07214e-13
6.03329e-13
6.00508e-13
5.87603e-13
5.7235e-13
5.55844e-13
5.34211e-13
5.1526e-13
5.08951e-13
4.80104e-13
4.54205e-13
4.33844e-13
4.23693e-13
4.1305e-13
4.0198e-13
3.93418e-13
3.93098e-13
3.82799e-13
3.45846e-13
3.34234e-13
3.31736e-13
3.30717e-13
3.288e-13
3.3682e-13
3.29624e-13
3.08327e-13
2.99662e-13
2.99972e-13
3.0373e-13
3.06479e-13
3.07481e-13
3.15725e-13
3.17596e-13
3.18619e-13
3.26395e-13
3.32882e-13
3.44374e-13
3.59744e-13
3.63789e-13
3.58152e-13
3.69467e-13
3.68178e-13
3.84203e-13
3.86982e-13
3.86739e-13
4.03106e-13
4.16726e-13
4.38937e-13
4.40596e-13
4.39407e-13
4.50553e-13
4.60749e-13
4.76063e-13
5.07325e-13
5.31183e-13
5.54955e-13
5.72375e-13
5.89639e-13
5.96128e-13
5.90704e-13
1.71513e-12
2.48642e-12
9.31906e-12
1.19162e-11
6.92811e-12
3.37075e-12
1.65585e-12
9.93723e-13
8.1885e-13
7.65128e-13
7.64521e-13
7.56997e-13
7.82203e-13
7.97629e-13
7.95376e-13
7.45867e-13
7.1864e-13
7.16715e-13
7.08389e-13
6.96399e-13
6.96155e-13
6.93959e-13
6.93905e-13
6.94456e-13
6.98354e-13
7.76347e-12
5.78879e-12
4.44162e-12
2.43777e-12
1.1515e-12
6.99812e-13
5.63097e-13
5.30975e-13
5.32269e-13
5.34849e-13
5.38618e-13
5.41067e-13
5.41769e-13
5.49569e-13
5.59254e-13
5.7257e-13
5.97154e-13
6.19074e-13
6.4079e-13
6.55799e-13
6.75228e-13
6.88507e-13
6.99404e-13
7.10191e-13
7.15672e-13
2.4131e-12
1.66162e-12
9.53662e-13
5.95725e-13
4.77012e-13
4.46286e-13
4.419e-13
4.41102e-13
4.58272e-13
4.80161e-13
4.85404e-13
4.86236e-13
4.86746e-13
5.02594e-13
5.14373e-13
5.4223e-13
5.57063e-13
5.76574e-13
5.95827e-13
6.09425e-13
6.27529e-13
6.38031e-13
6.50314e-13
6.56595e-13
6.5939e-13
6.96854e-13
5.78807e-13
4.68216e-13
4.09361e-13
3.9498e-13
3.78564e-13
3.78708e-13
3.771e-13
4.04114e-13
4.27799e-13
4.58633e-13
4.70924e-13
4.79971e-13
4.86923e-13
4.94506e-13
5.06964e-13
5.23493e-13
5.41844e-13
5.618e-13
5.76996e-13
5.90658e-13
6.0195e-13
6.15835e-13
6.23641e-13
6.27683e-13
4.38161e-13
4.14499e-13
3.89854e-13
3.70496e-13
3.64889e-13
3.5379e-13
3.49881e-13
3.44191e-13
3.68123e-13
4.06854e-13
4.35486e-13
4.48188e-13
4.52178e-13
4.55142e-13
4.59184e-13
4.67021e-13
4.86571e-13
4.96685e-13
5.16511e-13
5.28204e-13
5.47117e-13
5.57375e-13
5.66657e-13
5.7519e-13
5.79433e-13
3.74063e-13
3.63832e-13
3.55047e-13
3.44636e-13
3.37594e-13
3.232e-13
3.16922e-13
3.38563e-13
3.75333e-13
4.18473e-13
4.65012e-13
4.90104e-13
4.95047e-13
4.94907e-13
4.95867e-13
4.90644e-13
4.8674e-13
4.83881e-13
4.75949e-13
4.93981e-13
5.12174e-13
5.21273e-13
5.27051e-13
5.3275e-13
5.4218e-13
3.44175e-13
3.3926e-13
3.2945e-13
3.17357e-13
3.07972e-13
3.26467e-13
3.51774e-13
3.76212e-13
4.07587e-13
4.34324e-13
4.48685e-13
4.52928e-13
4.54751e-13
4.48227e-13
4.45524e-13
4.33389e-13
4.20282e-13
4.11041e-13
4.01937e-13
4.30328e-13
4.44886e-13
4.6454e-13
4.75174e-13
4.82658e-13
4.91488e-13
3.24486e-13
3.1526e-13
3.06979e-13
3.03316e-13
3.27255e-13
3.38421e-13
3.4415e-13
3.46447e-13
3.48542e-13
3.46043e-13
3.45046e-13
3.40821e-13
3.38507e-13
3.36799e-13
3.32503e-13
3.28241e-13
3.4402e-13
3.57583e-13
3.81229e-13
3.98164e-13
4.27349e-13
4.51247e-13
4.7257e-13
4.93937e-13
5.01206e-13
2.85054e-13
2.93307e-13
2.98984e-13
3.11925e-13
3.15537e-13
3.15441e-13
3.07469e-13
2.91612e-13
2.88215e-13
2.87531e-13
3.01291e-13
3.07244e-13
3.18117e-13
3.23107e-13
3.31566e-13
3.37808e-13
3.49885e-13
3.64189e-13
3.86287e-13
4.08666e-13
4.27634e-13
4.52e-13
4.84846e-13
5.20304e-13
5.84544e-13
6.3707e-14
7.44707e-14
1.42826e-13
1.27934e-13
2.86225e-13
3.14083e-13
1.03746e-13
1.2265e-13
1.05197e-13
2.65688e-13
6.15243e-06
8.07264e-14
2.34178e-13
1.38049e-13
1.13964e-13
3.45233e-13
1.26689e-13
1.30178e-13
4.1832e-13
2.37733e-07
3.40423e-13
1.87253e-13
4.39796e-10
1.88449e-13
1.32873e-13
1.08216e-13
1.34696e-13
1.66479e-13
2.66946e-13
1.49409e-09
3.79784e-13
9.69817e-14
2.59884e-10
1.07951e-13
6.04163e-10
2.58222e-13
9.12457e-14
1.09018e-13
8.58093e-14
2.21617e-13
1.14273e-07
3.42897e-13
1.36144e-13
1.23561e-13
2.35652e-13
3.31466e-13
2.15131e-05
5.06575e-05
3.65204e-13
1.25167e-09
2.03908e-05
5.79482e-08
2.79711e-13
1.29729e-13
1.02759e-13
1.13724e-13
1.34221e-13
3.04481e-13
1.41766e-13
1.62193e-06
3.04312e-13
1.43099e-13
2.93066e-13
2.21969e-13
1.23329e-13
2.07117e-13
2.81e-13
1.49584e-13
2.06318e-13
4.80956e-08
1.09206e-13
2.30573e-13
2.22513e-13
2.39268e-07
1.32844e-13
3.32462e-13
8.46319e-08
3.39194e-05
1.31012e-13
1.28032e-13
1.58906e-13
4.34941e-13
1.25526e-13
0.381175
3.02318e-13
2.90053e-13
2.0588e-13
3.08126e-05
4.31395e-10
2.86682e-13
2.26665e-13
3.11828e-13
2.6493e-13
7.38825e-14
2.23438e-13
2.8325e-06
1.03746e-13
6.98615e-05
1.78522e-13
8.24553e-07
2.67294e-13
2.98805e-08
2.63838e-13
2.50775e-13
1.5618e-13
3.25111e-13
2.72068e-10
1.78974e-13
1.37083e-13
6.62637e-13
1.78224e-13
7.86103e-14
1.54353e-11
2.72776e-13
2.76723e-13
3.51281e-13
1.28849e-06
2.39781e-13
2.94452e-13
8.85534e-14
5.25191e-13
8.35826e-14
1.84471e-13
1.26458e-13
2.18778e-10
1.31023e-13
3.16937e-07
1.31003e-08
1.51414e-13
0.000232548
1.16894e-13
3.3003e-07
9.51648e-08
7.48714e-14
2.1996e-13
2.16962e-13
2.25745e-13
2.60832e-13
3.08994e-13
6.87271e-07
2.49083e-13
8.54026e-14
8.03955e-06
4.17391e-13
3.8267e-13
3.81274e-13
1.18824e-13
5.5852e-08
3.49748e-13
4.05945e-08
1.10745e-13
1.53678e-13
1.28532e-13
4.00987e-11
1.07127e-13
0.261594
1.6343e-13
2.0306e-13
1.53631e-06
1.64453e-13
1.27381e-13
1.10989e-13
1.98588e-13
2.22728e-05
1.79894e-13
0.0112213
1.30759e-13
1.49216e-13
3.55283e-13
1.75142e-13
1.35484e-13
2.23352e-13
1.53373e-13
0.054608
3.27866e-13
2.86853e-13
1.11237e-13
3.57227e-11
3.76975e-09
2.32929e-13
1.05066e-13
1.04928e-13
2.90074e-13
2.06266e-12
3.1609e-13
9.60356e-14
0.00376665
1.48881e-13
6.63075e-10
3.36118e-13
2.74882e-06
7.33748e-06
9.44809e-14
9.10151e-14
6.94511e-11
5.18224e-10
1.3888e-13
1.721e-13
3.84297e-13
1.92952e-13
1.24837e-13
3.19582e-13
4.30009e-13
3.89104e-13
1.17068e-13
1.76488e-13
2.83805e-13
2.35353e-13
6.65511e-13
2.22273e-13
1.4451e-13
7.26216e-14
1.02811e-13
1.27623e-13
1.04641e-13
4.7389e-08
2.34606e-13
1.06917e-13
2.83984e-13
3.22137e-13
1.91312e-13
2.83021e-13
1.03369e-13
1.40202e-13
1.42254e-13
2.18913e-06
2.44419e-13
1.30184e-13
1.43055e-13
2.26335e-13
0.588747
2.55797e-13
9.55172e-14
9.44166e-14
8.41898e-14
2.20441e-13
3.23451e-06
1.73471e-13
1.87549e-13
1.70958e-13
3.67558e-13
2.92066e-13
1.7588e-13
2.1176e-13
2.20236e-13
1.83227e-13
1.12941e-13
3.1651e-13
3.12185e-13
1.38878e-13
1.5637e-13
2.93756e-13
2.51982e-13
3.23153e-13
9.71527e-14
1.46485e-13
1.48685e-11
6.72039e-08
1.64864e-06
4.27659e-13
1.46298e-13
1.48682e-13
2.46473e-13
1.20006e-13
3.40865e-07
1.18207e-13
1.66945e-13
1.19393e-13
1.11391e-13
1.55236e-13
2.96415e-13
9.6019e-14
1.52146e-13
9.84006e-14
4.24548e-13
1.18429e-13
2.64861e-13
1.20953e-13
1.26033e-13
7.79155e-06
2.49553e-13
1.03976e-13
1.54794e-13
3.19751e-13
1.91959e-08
4.29588e-13
3.31017e-13
1.40861e-13
4.52279e-07
4.9915e-06
1.28232e-13
2.17062e-13
4.23483e-13
1.21768e-06
6.5172e-14
5.75483e-08
1.52582e-08
3.12258e-13
1.73647e-13
2.1991e-08
2.08685e-05
1.3284e-13
1.62237e-13
4.63083e-13
6.11927e-10
1.65219e-13
3.41389e-13
3.24172e-13
4.61122e-07
4.54196e-13
2.30472e-13
3.13912e-13
1.06784e-09
3.05979e-13
1.67327e-13
9.01803e-14
1.77391e-05
2.19794e-13
1.29934e-13
7.09122e-14
5.05438e-06
1.39888e-13
1.53144e-13
3.69296e-13
2.18859e-13
1.14713e-13
4.44041e-07
1.79115e-13
3.27162e-13
2.52659e-13
1.86632e-13
3.05473e-11
1.84567e-13
2.34217e-13
9.23916e-06
3.58281e-13
1.7102e-13
1.20607e-13
4.06396e-13
1.53071e-13
7.14306e-14
8.48327e-14
1.16759e-06
3.44184e-13
4.88361e-07
2.27216e-13
2.80553e-13
1.05304e-13
2.15951e-13
0.000918306
1.00607e-13
2.39035e-13
2.58228e-13
5.86712e-06
9.58088e-07
1.43722e-13
6.9233e-14
1.10425e-13
1.73086e-13
0.000797484
3.05823e-12
1.35917e-09
1.2753e-13
1.94552e-06
3.47818e-13
2.08834e-13
3.03922e-13
3.95142e-05
2.28603e-13
6.35685e-10
3.00555e-13
3.52114e-10
1.93317e-13
1.20025e-13
2.45863e-13
1.08035e-13
9.20836e-14
2.17046e-13
1.3532e-13
2.23937e-13
6.85742e-09
2.29402e-13
3.94117e-10
1.2913e-13
1.1678e-13
5.95665e-14
1.90719e-13
2.98509e-07
6.49055e-07
3.0061e-06
1.28209e-13
1.79122e-13
3.46986e-13
8.9927e-14
1.05209e-13
3.3573e-13
1.6398e-13
2.03631e-10
1.99449e-13
2.92972e-13
1.19179e-13
1.40112e-13
2.99818e-13
1.11825e-11
8.24807e-14
5.00898e-13
1.05692e-13
3.5051e-13
9.04095e-14
3.57668e-13
9.55405e-14
2.38009e-13
9.66651e-08
2.88914e-13
1.31631e-13
1.42623e-13
4.72666e-12
0.00081332
1.70749e-13
3.00907e-13
1.90933e-13
1.41792e-13
2.7692e-13
2.36248e-13
2.95108e-13
1.31798e-05
5.2044e-13
1.72689e-13
3.50922e-13
9.91697e-14
3.54557e-13
1.46206e-13
3.0407e-13
1.31882e-13
1.18845e-13
2.84132e-13
1.75278e-13
5.14842e-13
9.26597e-14
1.41406e-13
1.59625e-13
1.94742e-13
3.29085e-07
1.04302e-13
1.58383e-13
1.33961e-13
1.6943e-13
9.88399e-14
1.40977e-13
1.31795e-13
1.16425e-13
1.28724e-13
2.05738e-13
1.06787e-07
3.42068e-13
8.3093e-09
0.00171054
3.17554e-13
2.15447e-13
3.39073e-08
2.0905e-13
3.0891e-13
8.73732e-14
9.45839e-14
7.70408e-06
1.75072e-13
1.86668e-13
1.38695e-13
1.58949e-13
2.25614e-07
3.12045e-13
1.69245e-13
9.69713e-10
1.41696e-13
1.23603e-13
1.34725e-13
3.096e-13
1.55678e-13
4.72327e-08
3.48083e-09
1.05358e-13
8.81024e-14
4.06162e-13
8.00074e-14
0.599196
2.67867e-13
4.50831e-13
2.38797e-13
9.74351e-14
2.24443e-13
2.52884e-10
2.18737e-13
9.18317e-14
1.02775e-13
2.03816e-13
2.0573e-13
2.73954e-10
3.89294e-13
2.04897e-13
1.96477e-09
1.2752e-13
1.21706e-13
2.67195e-13
2.13579e-13
2.39459e-13
9.93836e-14
3.66665e-13
3.35982e-13
1.04938e-13
1.05097e-13
1.64741e-13
1.42564e-13
3.23732e-13
3.0737e-13
9.59021e-14
5.39588e-05
1.14598e-09
1.69751e-10
1.0584e-13
1.32628e-13
3.34055e-13
7.64736e-06
1.11022e-07
1.35704e-13
9.99554e-14
2.67496e-13
1.11417e-05
3.09536e-09
1.84421e-13
2.37011e-13
2.81159e-13
2.3255e-13
1.12418e-13
1.1124e-13
8.8184e-14
1.00772e-13
1.35425e-13
3.97223e-09
3.20164e-13
2.3974e-13
7.04969e-14
3.31408e-11
1.62865e-13
1.13358e-09
2.19884e-13
1.28001e-13
1.69274e-13
1.80026e-13
3.66278e-13
1.22328e-13
9.18726e-14
9.53774e-14
2.30435e-13
4.61696e-11
3.7418e-11
2.01265e-05
1.01596e-13
3.10238e-13
2.927e-13
3.57327e-11
3.40078e-13
8.52971e-14
1.46266e-13
1.81304e-13
4.31819e-08
3.08036e-13
1.15567e-13
1.30327e-13
1.03128e-13
1.4307e-13
2.82237e-09
2.81303e-13
1.02776e-13
1.97776e-13
2.73487e-13
4.77676e-11
0.000579972
5.75675e-11
1.9706e-13
1.38577e-13
0.0100941
3.11922e-13
2.98034e-13
3.31389e-13
1.15932e-13
3.1877e-10
1.55009e-13
3.11938e-13
7.72488e-14
2.8706e-13
3.37423e-13
3.52072e-13
2.2039e-13
2.74569e-09
3.13476e-13
1.33397e-13
1.49261e-13
5.99936e-10
2.74982e-13
9.82483e-14
6.60679e-07
1.50674e-13
2.97834e-13
1.70198e-13
1.66841e-08
9.29845e-14
4.36393e-13
3.00831e-13
1.41997e-13
1.27078e-13
1.33828e-13
8.58549e-14
1.71606e-13
3.54696e-13
3.07423e-13
2.54026e-13
1.34334e-13
2.94186e-13
1.31509e-13
2.2493e-13
1.31724e-13
1.42884e-13
3.71578e-13
1.30475e-13
9.54177e-14
3.52307e-07
0.000170383
1.75658e-13
1.26661e-10
1.21673e-13
1.51314e-13
1.45325e-13
1.41833e-13
3.75446e-13
9.05295e-14
2.48887e-13
2.36526e-13
9.75439e-14
1.51035e-13
3.09211e-08
1.11337e-13
1.35172e-13
1.89974e-13
1.6299e-13
3.11377e-13
1.13272e-13
1.92669e-13
9.9851e-14
3.12092e-07
2.84063e-09
5.82018e-06
8.405e-14
2.75336e-13
2.86133e-13
2.6965e-13
3.02994e-13
0.000335342
5.88649e-13
3.98842e-13
1.12771e-13
1.07635e-10
1.33909e-13
0.000204351
5.33695e-13
1.3589e-13
1.12854e-13
1.29669e-09
9.79448e-14
2.11222e-13
2.98518e-13
9.52362e-14
3.87466e-13
2.85959e-13
2.39524e-05
3.757e-13
1.2773e-13
8.23248e-14
2.33933e-13
3.14497e-13
2.07952e-13
1.61965e-13
2.41215e-13
1.5519e-13
1.20893e-13
1.75488e-13
1.32077e-13
1.9375e-13
3.20605e-13
2.66082e-09
1.00093e-13
1.04551e-13
1.52495e-13
5.18856e-08
1.10988e-13
3.26341e-13
1.32141e-13
1.03271e-13
7.64708e-14
3.40463e-13
1.68796e-13
1.48758e-13
1.53041e-13
9.04282e-14
2.47861e-13
2.62927e-13
3.98733e-06
1.56594e-10
1.12862e-13
0.000297874
1.11617e-13
4.3083e-13
4.74985e-10
4.33263e-13
1.56423e-13
1.30999e-13
3.82941e-13
2.21937e-13
2.2872e-13
4.26604e-13
2.17234e-13
2.68877e-13
4.06411e-13
3.65066e-13
2.15268e-13
1.33696e-13
3.28338e-13
1.3704e-13
1.12156e-13
1.50868e-13
6.43656e-09
3.47457e-13
2.0885e-09
1.34661e-13
3.98379e-13
3.52474e-13
5.96527e-09
1.40234e-06
1.18807e-13
1.0415e-13
3.54281e-13
4.30044e-13
1.58372e-13
1.76457e-13
5.50807e-14
9.02837e-14
3.37798e-13
2.37826e-06
1.04997e-13
1.33549e-13
1.38558e-13
2.33101e-13
0.000351289
1.16055e-13
1.59143e-13
1.23941e-13
1.98218e-09
2.44019e-13
4.86655e-09
6.33183e-13
1.27836e-13
2.58015e-13
3.60985e-13
7.1921e-14
9.10747e-14
2.45869e-10
8.10013e-10
1.49349e-13
7.68539e-10
9.74471e-14
2.04012e-13
2.40733e-13
3.2975e-13
2.536e-13
1.50809e-13
1.26267e-13
1.05062e-13
3.58888e-13
9.12729e-14
1.32767e-13
2.22123e-13
1.36362e-13
1.91298e-13
1.56928e-05
1.06644e-13
1.72478e-13
1.02746e-13
2.26907e-13
2.25022e-07
3.37877e-13
3.7814e-13
2.98441e-13
1.2883e-10
1.03924e-13
2.88773e-13
2.42884e-13
0.000339936
1.1559e-13
3.18869e-07
3.08086e-13
3.17031e-08
7.10688e-14
4.20697e-08
1.38745e-13
8.56471e-14
1.23388e-13
3.37183e-13
1.87869e-09
2.00574e-13
1.24238e-13
2.34165e-13
2.04719e-10
1.19459e-13
9.74274e-14
2.72677e-13
2.2727e-09
1.4193e-13
1.14356e-13
9.61758e-14
2.34556e-13
9.64686e-14
1.20594e-13
1.57461e-13
8.8911e-14
1.75196e-13
1.32008e-13
1.56563e-13
1.13103e-08
9.05979e-14
1.52434e-13
1.28686e-13
2.12791e-13
6.93108e-07
1.51216e-13
1.43437e-13
1.96156e-14
3.68693e-13
1.67667e-13
1.40428e-13
3.46899e-13
2.7251e-13
9.10553e-14
1.28374e-11
2.10361e-13
9.59072e-14
6.16435e-14
2.25613e-13
3.69954e-13
1.9401e-13
3.27458e-13
2.72633e-13
1.67829e-05
1.13092e-13
1.81826e-13
1.90175e-13
1.15241e-13
5.26438e-07
1.28647e-13
9.14743e-14
9.66819e-14
1.15598e-13
6.62685e-13
1.42321e-13
2.14947e-13
1.0506
2.11625e-13
0.000182532
3.14713e-13
5.26724e-13
2.07942e-14
3.179e-13
1.66345e-13
1.14756e-13
1.07547e-08
3.22728e-05
9.49183e-06
0.000365723
3.0746e-13
3.48216e-11
1.01732e-13
3.26659e-13
9.9858e-14
2.16186e-13
1.98211e-13
3.97651e-07
3.11788e-13
3.20902e-13
9.6397e-13
1.24836e-13
1.22182e-13
1.02703e-13
1.7964e-10
1.25796e-13
4.70729e-13
1.20376e-08
1.76907e-13
5.96884e-14
3.31155e-13
2.11985e-13
0.000148646
2.37918e-10
7.04261e-14
2.46803e-13
5.80497e-11
1.24017e-13
9.58319e-14
1.08669e-13
1.29879e-08
2.56105e-13
1.36485e-13
1.42233e-13
9.76377e-14
3.31063e-13
1.03354e-13
5.69907e-14
4.39101e-13
2.10078e-13
3.30655e-13
1.48995e-07
8.17132e-14
3.12757e-09
3.87541e-13
2.57067e-13
1.45887e-13
1.4061e-13
2.81188e-13
7.48393e-14
3.29366e-13
1.37616e-13
3.77104e-13
3.10095e-13
8.38869e-14
9.74297e-09
5.60299e-08
1.82281e-13
7.44652e-08
3.1694e-13
5.61922e-06
4.01557e-13
2.25698e-13
1.16684e-13
1.12362e-13
1.91665e-10
1.61902e-13
3.00302e-13
9.80197e-14
1.00894e-13
1.16371e-13
3.66063e-13
7.1098e-14
7.50911e-14
1.10615e-13
8.46809e-14
1.49043e-13
1.25686e-13
4.00441e-13
2.79205e-13
4.2175e-13
2.54187e-12
2.64287e-13
2.60145e-13
2.63955e-06
1.01436e-13
1.7531e-13
2.50541e-13
3.19512e-13
2.2657e-13
1.82551e-13
1.07301e-13
2.65784e-13
1.04262e-13
1.84436e-13
4.89125e-08
6.14402e-08
1.1302e-13
2.0661e-13
1.83376e-13
1.03169e-13
8.54567e-14
3.63129e-13
2.8579e-13
2.18488e-13
6.35017e-12
3.29918e-13
1.42117e-13
1.30262e-13
1.51349e-13
1.34715e-11
2.03787e-13
1.41944e-13
1.29427e-13
1.20872e-13
1.18455e-13
2.05045e-06
9.86447e-14
1.41099e-07
9.63939e-14
1.48526e-13
3.08151e-13
1.75963e-07
9.54546e-14
1.66528e-13
3.25686e-13
1.51235e-13
0.000201366
2.61518e-13
3.12718e-13
3.95971e-13
1.26361e-13
2.45603e-13
1.058e-13
1.08103e-13
8.75243e-14
3.20312e-13
5.85716e-07
1.31718e-13
3.89234e-13
9.45429e-14
1.51376e-13
2.50095e-13
0.000808096
3.43396e-13
2.07801e-13
5.90126e-09
2.70028e-13
0.000353674
8.62462e-14
3.24329e-13
9.66821e-14
1.45128e-13
3.11134e-13
2.09144e-13
6.17588e-10
1.42859e-13
1.28244e-13
1.3556e-13
2.5266e-13
1.22001e-13
2.61024e-08
1.80879e-13
3.15418e-13
2.9131e-13
3.29658e-13
1.38491e-13
1.37804e-13
5.30712e-06
1.29994e-13
2.98228e-12
1.01103e-13
1.25079e-13
2.84312e-12
2.76449e-13
3.12761e-08
3.79693e-13
1.90503e-13
2.44009e-09
0.000739843
2.69971e-13
2.99567e-13
3.23328e-13
6.06415e-10