/*--------------------------------*- C++ -*----------------------------------*\
  =========                 |
  \\      /  F ield         | OpenFOAM: The Open Source CFD Toolbox
   \\    /   O peration     | Website:  https://openfoam.org
    \\  /    A nd           | Version:  10
     \\/     M anipulation  |
\*---------------------------------------------------------------------------*/
FoamFile
{
    format      ascii;
    class       volScalarField;
    location    "50";
    object      k;
}
// * * * * * * * * * * * * * * * * * * * * * * * * * * * * * * * * * * * * * //

dimensions      [0 2 -2 0 0 0 0];

internalField   nonuniform List<scalar> 
10435
(
2.25161e-13
2.16036e-13
2.7201e-13
2.13443e-13
1.90632e-13
1.92448e-13
2.71598e-13
2.76283e-13
2.29197e-13
2.33184e-13
2.05029e-13
2.26275e-13
2.72674e-13
2.91827e-13
2.61876e-13
2.63249e-13
3.34331e-13
2.34675e-13
1.79372e-13
2.26436e-13
2.77677e-13
2.1971e-13
2.54716e-13
2.20466e-13
2.52579e-13
1.74643e-12
1.45628e-12
2.81823e-13
4.2243e-12
2.24211e-13
2.25824e-13
2.01363e-13
2.75955e-13
6.00706e-13
2.34842e-13
2.19685e-13
2.39272e-13
1.28294e-12
1.12477e-11
1.96742e-13
1.97586e-13
2.68619e-13
5.04476e-13
2.1665e-13
2.42362e-13
2.05731e-13
1.97607e-13
7.21916e-13
2.46474e-13
2.49319e-13
2.70908e-13
2.11374e-13
4.71117e-12
3.61834e-12
7.67394e-12
2.69215e-12
2.27144e-13
1.91216e-12
4.03034e-13
2.1541e-13
7.76136e-12
2.21172e-13
2.43461e-12
2.08683e-13
2.54012e-13
2.68663e-13
4.74268e-13
1.07471e-12
2.82073e-13
2.26653e-13
9.22911e-12
1.4562e-12
3.99602e-13
2.62687e-13
2.41756e-13
3.51936e-13
2.29445e-13
2.72439e-13
2.7583e-13
2.4797e-13
2.35951e-13
2.60204e-13
1.4133e-12
1.2611e-12
2.38372e-13
2.04081e-13
2.14608e-13
2.2438e-13
2.28787e-13
2.16028e-13
2.21573e-13
2.22551e-13
2.57236e-13
2.23815e-13
2.22104e-13
2.11602e-13
2.24695e-13
2.3655e-13
3.59974e-13
2.18292e-13
2.37931e-13
5.7723e-14
2.10406e-13
2.22875e-13
9.60532e-14
2.08181e-13
2.58201e-13
2.41044e-13
2.33052e-13
2.55352e-13
2.53189e-13
2.75643e-13
2.58473e-13
2.59082e-13
2.17506e-13
2.22039e-13
2.16705e-13
2.06385e-13
2.1223e-13
2.244e-13
2.1503e-13
3.45365e-13
2.0629e-13
2.38397e-13
2.42604e-13
7.80358e-12
2.24984e-13
2.97043e-13
2.07431e-13
1.58823e-12
2.62402e-13
2.41469e-13
2.6977e-13
2.48408e-13
1.20791e-12
5.91846e-13
2.60209e-13
2.16229e-13
2.10467e-13
2.21659e-13
2.20119e-13
2.42714e-13
5.10738e-13
2.11988e-13
2.21907e-13
2.79039e-13
2.50723e-13
2.0301e-13
3.80293e-13
2.21902e-13
6.95978e-13
2.32654e-13
2.20696e-13
2.21118e-13
2.10779e-13
1.59855e-12
2.42266e-13
2.10286e-13
2.10081e-13
2.45059e-13
2.29351e-13
2.87116e-13
2.06071e-13
2.21391e-13
2.18697e-13
2.10959e-13
2.60688e-13
2.2362e-13
2.22626e-13
2.04746e-13
2.45422e-13
4.91218e-13
1.98866e-12
2.54592e-13
2.25401e-13
2.44108e-13
2.21134e-13
6.51103e-13
2.53658e-13
1.62429e-12
2.12514e-13
2.98946e-13
2.19707e-13
6.34338e-12
2.32239e-13
4.85489e-13
4.09201e-13
2.71265e-13
1.87836e-13
2.1436e-13
2.1861e-13
8.24873e-13
1.50091e-12
2.6023e-13
2.29743e-13
2.79532e-13
3.75194e-13
2.20723e-13
7.27302e-13
2.536e-13
2.1976e-13
1.36745e-12
2.77545e-13
1.66952e-12
2.77248e-13
2.05665e-13
2.12024e-13
2.21447e-13
2.01533e-12
2.2094e-13
6.21127e-13
2.64392e-13
2.15673e-13
2.21976e-13
1.37385e-12
3.10895e-13
2.21861e-13
6.65385e-13
1.09488e-12
3.03055e-13
1.05374e-12
4.6949e-13
5.44673e-13
2.44861e-13
5.03286e-12
2.526e-13
1.18393e-12
2.28693e-13
2.25033e-13
3.16062e-13
7.16852e-13
2.51946e-13
1.13487e-12
2.34533e-13
1.30816e-12
3.86659e-13
2.19277e-13
1.70264e-12
2.14641e-13
2.40611e-13
2.19519e-13
3.57884e-12
6.17895e-13
7.09806e-12
2.06372e-13
2.64982e-13
2.04205e-13
2.82679e-13
1.6801e-12
2.53271e-13
1.54766e-12
2.16401e-13
2.61815e-13
2.17075e-13
2.72915e-13
2.01041e-13
1.39268e-12
2.71665e-13
7.52758e-13
8.96661e-13
2.7258e-13
2.35347e-13
2.88549e-12
2.284e-13
2.23688e-13
4.56944e-13
2.2193e-13
2.4328e-13
9.26376e-13
2.04271e-13
2.70935e-13
2.81724e-13
2.82741e-13
2.58342e-13
1.09214e-12
2.22341e-13
1.39907e-12
1.97202e-13
2.71656e-13
2.77503e-13
2.57895e-13
4.81007e-13
2.71104e-13
2.42368e-13
2.12278e-13
6.42906e-13
1.87859e-13
2.14577e-12
7.66689e-13
6.9869e-13
2.22881e-13
2.43368e-13
9.36666e-13
2.82468e-13
2.12828e-12
2.40125e-12
3.22157e-13
2.23225e-13
1.96938e-13
2.5017e-13
8.12457e-13
2.1805e-13
2.78999e-13
2.29162e-12
2.01631e-13
2.84052e-13
4.27492e-13
2.29768e-13
2.5053e-13
6.5606e-13
2.52128e-13
1.18016e-12
2.5813e-13
1.91889e-13
2.31664e-13
1.19566e-12
2.14921e-12
2.14681e-13
6.57974e-13
2.26721e-13
6.09586e-13
2.77478e-12
2.19232e-13
6.59402e-13
2.79904e-13
2.66218e-13
1.19645e-12
2.82481e-13
5.0237e-13
1.3545e-12
2.09429e-13
5.55648e-13
6.1745e-13
2.71617e-13
2.29679e-13
2.41327e-12
2.09149e-12
1.59684e-12
5.60839e-13
1.43571e-12
1.49522e-12
2.15396e-12
2.00151e-12
4.04908e-12
2.98993e-12
1.12944e-12
1.17943e-12
3.33367e-12
6.12934e-13
2.81417e-13
6.01129e-13
2.65046e-13
4.53675e-12
2.8071e-13
2.81804e-13
2.50225e-13
2.86178e-13
2.54657e-13
5.7443e-12
6.69832e-13
2.10901e-12
1.823e-12
1.59163e-12
7.34998e-13
1.21598e-12
1.98541e-12
1.7407e-12
2.23002e-13
1.46872e-12
2.67681e-13
1.22453e-12
2.6624e-12
2.89596e-13
2.11835e-13
5.98329e-13
6.08454e-12
1.59806e-12
2.20894e-12
8.65079e-13
1.31852e-12
5.28831e-12
9.85254e-12
2.78713e-13
6.84439e-13
2.83628e-13
2.81294e-13
2.79902e-13
2.77599e-13
2.66178e-13
2.82873e-13
2.4323e-13
2.54897e-13
5.18645e-13
3.09903e-12
5.25586e-12
2.79864e-13
1.68389e-12
2.86714e-13
3.71444e-12
3.53022e-12
3.41173e-12
6.14289e-13
1.08949e-12
2.64317e-13
1.20767e-12
2.77316e-13
2.25232e-13
5.48956e-13
1.26577e-12
3.6567e-12
1.90904e-13
3.24177e-12
1.31155e-12
2.52386e-12
2.05133e-12
9.36433e-13
1.89801e-12
2.79837e-13
4.33272e-12
1.48738e-12
4.41096e-12
5.07396e-13
2.47486e-13
5.08676e-13
5.57546e-13
1.97631e-13
6.16048e-13
8.61701e-13
8.71048e-13
8.35078e-13
8.0083e-13
7.73747e-13
7.48881e-13
7.1082e-13
7.20066e-13
7.71833e-13
8.62306e-13
8.66047e-13
8.3327e-13
7.97875e-13
7.72204e-13
7.45279e-13
7.01948e-13
7.14815e-13
7.42099e-13
8.6153e-13
8.60642e-13
8.29114e-13
7.92773e-13
7.69427e-13
7.39951e-13
7.03071e-13
7.04554e-13
7.20093e-13
8.68933e-13
8.51712e-13
8.22526e-13
7.87049e-13
7.64364e-13
7.40917e-13
7.02063e-13
6.93039e-13
6.97472e-13
8.71166e-13
8.43743e-13
8.15778e-13
7.80482e-13
7.52557e-13
7.35272e-13
6.93928e-13
6.72106e-13
6.77719e-13
8.74893e-13
8.30575e-13
8.03546e-13
7.73274e-13
7.44505e-13
7.22914e-13
6.80415e-13
6.57681e-13
6.68576e-13
8.83293e-13
8.20472e-13
7.94367e-13
7.65877e-13
7.31304e-13
7.30403e-13
6.88446e-13
6.43709e-13
6.49982e-13
9.05438e-13
8.03467e-13
7.80909e-13
7.50381e-13
7.23386e-13
7.32082e-13
6.98329e-13
6.12139e-13
6.2964e-13
9.21102e-13
7.80598e-13
7.64481e-13
7.38242e-13
7.14243e-13
7.57697e-13
7.18269e-13
5.99433e-13
6.07573e-13
9.42447e-13
7.80564e-13
7.53023e-13
7.19424e-13
6.96034e-13
7.60783e-13
7.38623e-13
5.99231e-13
5.95298e-13
1.01335e-12
7.82047e-13
7.30448e-13
7.04228e-13
6.83387e-13
7.69679e-13
7.44576e-13
6.06004e-13
5.80593e-13
1.02691e-12
7.80998e-13
7.17832e-13
6.92527e-13
6.85841e-13
7.68091e-13
7.49939e-13
6.09388e-13
5.73402e-13
1.05731e-12
7.81143e-13
7.13497e-13
6.84367e-13
6.85649e-13
7.69121e-13
7.50363e-13
6.12322e-13
5.62478e-13
1.0359e-12
7.79365e-13
7.10811e-13
6.79404e-13
6.8209e-13
7.59169e-13
7.469e-13
6.16008e-13
5.54867e-13
1.06169e-12
7.77013e-13
7.11323e-13
6.73876e-13
6.67732e-13
7.17293e-13
7.29503e-13
6.21638e-13
5.3893e-13
1.08076e-12
7.74165e-13
7.09787e-13
6.6596e-13
6.51087e-13
6.68419e-13
6.99911e-13
6.28354e-13
5.42162e-13
1.14482e-12
7.70118e-13
7.04051e-13
6.50215e-13
6.20851e-13
6.28692e-13
6.79735e-13
6.30535e-13
5.43311e-13
1.4019e-12
7.78687e-13
6.9493e-13
6.27957e-13
5.95051e-13
6.01214e-13
6.465e-13
6.2705e-13
5.62296e-13
2.04006e-12
8.15795e-13
6.93398e-13
6.18817e-13
5.95414e-13
5.72575e-13
6.00969e-13
6.19874e-13
5.84688e-13
3.39376e-12
9.65127e-13
7.02284e-13
6.27876e-13
6.02697e-13
5.64088e-13
5.78665e-13
6.07358e-13
5.85459e-13
5.17861e-12
1.24662e-12
7.23773e-13
6.32662e-13
6.09828e-13
5.74147e-13
5.55972e-13
5.83252e-13
5.83786e-13
7.27204e-12
1.92396e-12
8.05481e-13
6.55926e-13
6.26273e-13
5.92454e-13
5.57609e-13
5.51871e-13
5.65329e-13
6.92913e-12
3.36484e-12
9.73943e-13
6.80268e-13
6.3279e-13
6.09018e-13
5.76004e-13
5.47992e-13
5.45335e-13
2.74753e-12
3.89202e-12
1.56779e-12
8.21019e-13
6.7086e-13
6.19925e-13
5.96695e-13
5.60674e-13
5.4155e-13
1.82995e-12
6.01543e-12
1.81434e-12
8.05664e-13
6.70156e-13
6.20022e-13
5.97868e-13
5.75579e-13
5.36432e-13
8.62892e-13
8.63034e-13
8.62606e-13
8.66274e-13
8.73313e-13
8.86472e-13
9.05421e-13
9.33904e-13
9.73948e-13
1.03082e-12
1.11287e-12
1.22117e-12
1.35551e-12
1.51172e-12
1.67461e-12
1.82588e-12
1.95373e-12
2.06782e-12
2.15017e-12
2.17908e-12
2.196e-12
2.19491e-12
2.17215e-12
2.12771e-12
2.18222e-12
2.37586e-12
2.61589e-12
2.60482e-12
2.69364e-12
2.69815e-12
2.67226e-12
2.65804e-12
2.48774e-12
2.3061e-12
2.21303e-12
2.20388e-12
2.20406e-12
2.19196e-12
2.16539e-12
2.09429e-12
1.99761e-12
1.87787e-12
1.74657e-12
1.59831e-12
1.45169e-12
1.32004e-12
1.20889e-12
1.11634e-12
1.04529e-12
9.92157e-13
9.52442e-13
9.24971e-13
9.04147e-13
8.89495e-13
8.78084e-13
8.70645e-13
8.66326e-13
8.64979e-13
8.64758e-13
8.81376e-13
8.8175e-13
8.87511e-13
8.96132e-13
9.10657e-13
9.30169e-13
9.57196e-13
9.90343e-13
1.02839e-12
1.06943e-12
1.11331e-12
1.14124e-12
1.14307e-12
1.10836e-12
1.04925e-12
9.80959e-13
9.32091e-13
8.99152e-13
8.85668e-13
8.7918e-13
8.84307e-13
9.00541e-13
9.19701e-13
9.26343e-13
9.54593e-13
9.67855e-13
9.97203e-13
1.00653e-12
1.01068e-12
1.00584e-12
9.96112e-13
9.81021e-13
9.61453e-13
9.35699e-13
9.0565e-13
8.90823e-13
8.85816e-13
8.87102e-13
8.97644e-13
9.11208e-13
9.46802e-13
9.78659e-13
1.02004e-12
1.0616e-12
1.08573e-12
1.08461e-12
1.06629e-12
1.04066e-12
1.01688e-12
9.88967e-13
9.61883e-13
9.37056e-13
9.16278e-13
9.00031e-13
8.87771e-13
8.78977e-13
8.73905e-13
8.70955e-13
8.70926e-13
8.40196e-13
8.39119e-13
8.38059e-13
8.39444e-13
8.42946e-13
8.5013e-13
8.61111e-13
8.70621e-13
8.79393e-13
8.80393e-13
8.72936e-13
8.52052e-13
8.18801e-13
7.77123e-13
7.31518e-13
6.87735e-13
6.5351e-13
6.39146e-13
6.33661e-13
6.38926e-13
6.46172e-13
6.6445e-13
6.74626e-13
6.83551e-13
6.93578e-13
7.01992e-13
7.06155e-13
7.04769e-13
6.97837e-13
6.97528e-13
6.96538e-13
6.93915e-13
6.88858e-13
6.80535e-13
6.67993e-13
6.60478e-13
6.54155e-13
6.47802e-13
6.44771e-13
6.50026e-13
6.56655e-13
6.7776e-13
7.05638e-13
7.38278e-13
7.72499e-13
8.03077e-13
8.2326e-13
8.38863e-13
8.47375e-13
8.48591e-13
8.46021e-13
8.41311e-13
8.33836e-13
8.27976e-13
8.25107e-13
8.24452e-13
8.24095e-13
8.27912e-13
8.31762e-13
8.10142e-13
8.09981e-13
8.11473e-13
8.14872e-13
8.16686e-13
8.16652e-13
8.14941e-13
8.08479e-13
7.94256e-13
7.69603e-13
7.39861e-13
7.07114e-13
6.78281e-13
6.5115e-13
6.27043e-13
6.08102e-13
5.90744e-13
5.80703e-13
5.77357e-13
5.80346e-13
5.83979e-13
5.95881e-13
6.00704e-13
6.0458e-13
6.08439e-13
6.09761e-13
6.09816e-13
6.07298e-13
5.99831e-13
6.00468e-13
6.01436e-13
6.04223e-13
6.04938e-13
6.04383e-13
6.02525e-13
6.00685e-13
5.98249e-13
5.93576e-13
5.90028e-13
5.89091e-13
5.87519e-13
5.9707e-13
6.08049e-13
6.24882e-13
6.50825e-13
6.81402e-13
7.12196e-13
7.41222e-13
7.66144e-13
7.84875e-13
7.95754e-13
8.0296e-13
8.06945e-13
8.08035e-13
8.05179e-13
8.02543e-13
8.0016e-13
8.00968e-13
8.01111e-13
7.82228e-13
7.82795e-13
7.79606e-13
7.76877e-13
7.69546e-13
7.57272e-13
7.40234e-13
7.15636e-13
6.85551e-13
6.5568e-13
6.30455e-13
6.07307e-13
5.93924e-13
5.89395e-13
5.80438e-13
5.80575e-13
5.77181e-13
5.67815e-13
5.657e-13
5.66072e-13
5.6537e-13
5.66973e-13
5.68651e-13
5.70199e-13
5.71499e-13
5.72753e-13
5.72186e-13
5.69924e-13
5.62617e-13
5.63477e-13
5.66017e-13
5.70782e-13
5.7285e-13
5.73873e-13
5.74603e-13
5.74842e-13
5.7786e-13
5.78621e-13
5.77548e-13
5.72756e-13
5.7078e-13
5.76345e-13
5.76561e-13
5.84789e-13
5.95633e-13
6.10704e-13
6.27256e-13
6.41864e-13
6.64336e-13
6.84507e-13
7.04201e-13
7.24334e-13
7.43054e-13
7.57983e-13
7.60952e-13
7.66586e-13
7.66812e-13
7.73339e-13
7.73526e-13
7.62573e-13
7.61035e-13
7.51007e-13
7.33997e-13
7.12673e-13
6.93689e-13
6.74529e-13
6.56102e-13
6.34898e-13
6.15539e-13
5.98446e-13
5.84402e-13
5.74636e-13
5.75308e-13
5.72187e-13
5.72844e-13
5.75749e-13
5.76289e-13
5.76123e-13
5.69694e-13
5.6509e-13
5.56074e-13
5.55436e-13
5.56058e-13
5.52993e-13
5.57499e-13
5.57532e-13
5.56518e-13
5.48365e-13
5.50017e-13
5.5428e-13
5.57174e-13
5.59846e-13
5.58369e-13
5.62781e-13
5.63763e-13
5.72317e-13
5.76807e-13
5.79849e-13
5.80147e-13
5.81202e-13
5.80168e-13
5.75947e-13
5.81961e-13
5.86849e-13
5.90548e-13
5.9629e-13
5.95923e-13
6.1135e-13
6.25059e-13
6.41217e-13
6.57083e-13
6.81145e-13
6.99912e-13
7.16428e-13
7.33317e-13
7.37854e-13
7.50823e-13
7.51043e-13
7.16694e-13
7.16209e-13
6.94703e-13
6.8426e-13
6.67902e-13
6.58035e-13
6.42881e-13
6.31343e-13
6.17068e-13
6.09965e-13
5.96029e-13
5.96588e-13
5.9187e-13
5.91775e-13
5.89823e-13
5.9096e-13
5.89951e-13
5.84214e-13
5.82365e-13
5.72104e-13
5.71238e-13
5.63805e-13
5.58808e-13
5.57614e-13
5.4523e-13
5.52359e-13
5.56143e-13
5.54478e-13
5.49914e-13
5.5403e-13
5.55806e-13
5.57433e-13
5.56675e-13
5.5167e-13
5.64951e-13
5.66693e-13
5.78115e-13
5.79607e-13
5.88028e-13
5.96118e-13
5.96692e-13
6.02123e-13
6.03101e-13
6.03661e-13
6.00559e-13
5.9106e-13
5.94396e-13
5.94654e-13
6.05625e-13
6.08464e-13
6.18759e-13
6.28271e-13
6.41975e-13
6.60265e-13
6.63789e-13
6.86695e-13
6.88895e-13
7.09905e-13
7.12677e-13
7.11641e-13
7.01861e-13
6.86742e-13
6.82864e-13
6.68269e-13
6.68682e-13
6.62395e-13
6.54518e-13
6.44632e-13
6.43974e-13
6.35963e-13
6.33179e-13
6.24774e-13
6.18342e-13
6.09942e-13
6.11651e-13
6.02517e-13
5.85438e-13
5.8237e-13
5.7966e-13
5.74982e-13
5.68852e-13
5.69715e-13
5.67271e-13
5.53604e-13
5.40932e-13
5.5075e-13
5.53078e-13
5.52668e-13
5.52062e-13
5.57041e-13
5.57218e-13
5.52204e-13
5.6095e-13
5.74249e-13
5.79955e-13
5.91241e-13
5.95254e-13
5.93891e-13
6.01486e-13
6.02213e-13
6.13961e-13
6.17108e-13
6.18537e-13
6.19358e-13
6.23974e-13
6.37088e-13
6.39084e-13
6.45335e-13
6.51107e-13
6.5047e-13
6.56433e-13
6.63567e-13
6.68934e-13
6.74637e-13
6.90589e-13
6.9228e-13
7.09669e-13
7.18826e-13
7.94829e-13
7.94714e-13
7.79798e-13
7.73445e-13
7.57528e-13
7.43264e-13
7.27275e-13
7.20917e-13
6.97559e-13
6.71374e-13
6.5613e-13
6.47458e-13
6.3674e-13
6.2857e-13
6.21943e-13
6.2333e-13
6.16636e-13
5.92863e-13
5.81325e-13
5.81137e-13
5.7453e-13
5.70156e-13
5.77457e-13
5.73513e-13
5.56173e-13
5.46585e-13
5.55937e-13
5.57272e-13
5.55833e-13
5.52547e-13
5.59521e-13
5.59986e-13
5.61713e-13
5.66222e-13
5.81121e-13
5.88472e-13
5.99649e-13
6.00961e-13
5.95898e-13
6.07474e-13
6.07976e-13
6.21095e-13
6.21805e-13
6.20475e-13
6.34525e-13
6.43596e-13
6.5381e-13
6.57155e-13
6.52932e-13
6.66931e-13
6.77533e-13
6.93614e-13
7.17725e-13
7.34465e-13
7.51963e-13
7.6601e-13
7.76112e-13
7.81876e-13
7.81346e-13
2.11597e-12
2.97044e-12
6.59135e-12
7.21203e-12
4.44322e-12
2.82313e-12
1.65482e-12
1.23827e-12
1.05024e-12
9.82984e-13
9.87383e-13
9.72388e-13
1.00649e-12
9.89769e-13
9.95405e-13
9.29763e-13
9.0375e-13
8.90659e-13
8.71168e-13
8.65706e-13
8.62982e-13
8.62774e-13
8.58988e-13
8.58975e-13
8.60091e-13
5.36494e-12
3.99398e-12
3.17304e-12
1.90583e-12
1.16915e-12
9.10729e-13
8.02045e-13
7.7662e-13
7.74035e-13
7.77976e-13
7.83508e-13
7.87517e-13
7.90688e-13
7.91225e-13
7.92152e-13
7.91228e-13
7.89718e-13
7.94163e-13
8.18602e-13
8.3787e-13
8.47712e-13
8.59693e-13
8.69893e-13
8.76224e-13
8.82302e-13
1.97344e-12
1.41423e-12
1.03937e-12
7.97704e-13
7.21182e-13
6.95866e-13
6.89913e-13
6.9273e-13
7.10679e-13
7.26017e-13
7.30392e-13
7.31036e-13
7.30255e-13
7.27596e-13
7.33791e-13
7.41992e-13
7.63098e-13
7.77574e-13
7.88494e-13
8.0363e-13
8.11884e-13
8.2455e-13
8.32096e-13
8.40771e-13
8.43756e-13
8.52948e-13
7.67311e-13
7.03884e-13
6.49829e-13
6.36113e-13
6.18138e-13
6.17779e-13
6.19556e-13
6.42517e-13
6.74375e-13
6.87017e-13
6.93946e-13
6.99169e-13
7.05091e-13
7.12752e-13
7.28191e-13
7.38652e-13
7.55993e-13
7.70341e-13
7.7971e-13
7.9024e-13
7.95853e-13
8.02111e-13
8.07524e-13
8.10732e-13
6.80541e-13
6.62058e-13
6.36058e-13
6.16674e-13
6.10734e-13
5.99142e-13
5.94168e-13
5.90276e-13
6.1755e-13
6.55925e-13
6.89082e-13
7.06852e-13
7.12649e-13
7.12103e-13
7.10392e-13
7.10151e-13
7.18627e-13
7.23992e-13
7.39436e-13
7.48541e-13
7.6189e-13
7.6857e-13
7.75655e-13
7.79069e-13
7.81949e-13
6.30441e-13
6.17283e-13
6.03717e-13
5.92489e-13
5.83945e-13
5.70452e-13
5.66123e-13
5.90016e-13
6.25432e-13
6.69598e-13
7.30051e-13
7.67112e-13
7.79391e-13
7.77736e-13
7.79804e-13
7.71314e-13
7.49246e-13
7.30106e-13
7.25886e-13
7.1899e-13
7.33313e-13
7.4229e-13
7.47479e-13
7.50818e-13
7.5897e-13
6.0201e-13
5.90057e-13
5.78842e-13
5.65228e-13
5.58451e-13
5.77336e-13
6.06836e-13
6.4478e-13
6.80727e-13
7.06383e-13
7.29733e-13
7.44155e-13
7.4749e-13
7.46269e-13
7.355e-13
7.23132e-13
6.99629e-13
6.77952e-13
6.68295e-13
6.61374e-13
6.87188e-13
6.97784e-13
7.05145e-13
7.10056e-13
7.14968e-13
5.79784e-13
5.65228e-13
5.49869e-13
5.58311e-13
5.86283e-13
6.06581e-13
6.19312e-13
6.2476e-13
6.27647e-13
6.24425e-13
6.15821e-13
6.07033e-13
6.02809e-13
6.01777e-13
5.96112e-13
5.99253e-13
5.94879e-13
5.98236e-13
6.16206e-13
6.47993e-13
6.62695e-13
6.86882e-13
6.99112e-13
7.10128e-13
7.13549e-13
5.35405e-13
5.42214e-13
5.53528e-13
5.69492e-13
5.8317e-13
5.82649e-13
5.79414e-13
5.54156e-13
5.4169e-13
5.41704e-13
5.40048e-13
5.56844e-13
5.64274e-13
5.74943e-13
5.80525e-13
5.89053e-13
5.94493e-13
6.08088e-13
6.235e-13
6.46103e-13
6.63354e-13
6.83859e-13
7.04443e-13
7.35245e-13
7.82497e-13
2.70754e-13
2.90295e-13
3.77583e-13
3.49212e-13
5.16818e-13
5.51204e-13
3.06789e-13
3.27822e-13
3.17667e-13
5.02031e-13
0.0418091
2.71829e-13
5.83172e-13
3.56139e-13
7.64669e-09
5.83519e-13
2.47696e-13
3.49653e-13
6.46538e-13
0.0201187
5.77923e-13
4.13991e-13
0.000143386
4.03077e-13
3.31272e-13
2.95299e-13
3.32766e-13
3.82173e-13
5.80477e-13
7.09424e-05
6.16408e-13
3.01092e-13
0.0004474
3.28521e-13
1.74077e-05
5.02917e-13
2.86085e-13
1.36252e-09
2.79251e-13
4.56234e-13
0.00545964
5.66778e-13
3.50621e-13
3.49278e-13
4.74739e-13
5.78844e-13
0.0825937
0.144167
2.6221e-06
0.00151627
0.0646041
0.00650308
5.29479e-13
3.47663e-13
3.05125e-13
3.23489e-13
3.50857e-13
5.52178e-13
3.57822e-13
0.0391674
5.41469e-13
3.80728e-13
5.25293e-13
4.65813e-13
3.32072e-13
4.37323e-13
5.14023e-13
3.80617e-13
5.47654e-13
0.00100472
3.13046e-13
4.60674e-13
4.56872e-13
0.023617
3.57224e-13
5.66326e-13
0.0160421
0.0624475
3.51894e-13
3.49992e-13
4.33694e-13
6.54364e-13
3.39702e-13
1.05308
5.47412e-13
5.3363e-13
4.39727e-13
0.0544209
0.000533152
5.24775e-13
4.66326e-13
5.43546e-13
5.06269e-13
2.58944e-13
4.56786e-13
0.0276642
2.93404e-13
0.0896817
3.95155e-13
0.0273186
4.93655e-13
0.00297631
4.9694e-13
4.85215e-13
3.75469e-13
5.66451e-13
0.000112428
4.6213e-13
3.48062e-13
1.92636e-07
4.12146e-13
2.67137e-13
9.69798e-06
4.98905e-13
5.29472e-13
2.95359e-13
0.0123486
4.79071e-13
5.71584e-13
2.88588e-13
7.11762e-13
2.75417e-13
4.1041e-13
3.16167e-13
0.000318274
3.44415e-13
0.0132829
0.00315837
3.9823e-13
0.222004
3.38913e-13
0.0250291
0.0029678
2.59903e-13
4.60696e-13
4.43764e-13
4.73913e-13
4.96118e-13
5.4704e-13
0.0607691
4.81042e-13
2.76159e-13
0.0581341
6.49507e-13
6.65701e-13
6.14967e-13
3.40381e-13
0.001428
5.87929e-13
0.000224126
3.10004e-13
3.95665e-13
3.38648e-13
0.000168494
3.06956e-13
1.77497
3.87212e-13
4.40322e-13
0.0343715
3.97119e-13
3.44628e-13
3.1178e-13
4.34952e-13
0.0487092
4.06384e-13
0.644704
3.46367e-13
3.61059e-13
5.91627e-13
4.01807e-13
3.53421e-13
4.5424e-13
3.81758e-13
0.701685
5.6551e-13
5.26403e-13
4.70364e-08
2.72669e-05
0.000837615
4.62893e-13
3.13277e-13
3.13129e-13
5.37207e-13
4.35733e-08
5.62614e-13
3.03896e-13
0.621708
3.51338e-13
0.000160432
5.77644e-13
0.071267
0.0502293
2.92176e-13
2.81572e-13
6.90457e-05
0.000772431
3.65178e-13
3.94543e-13
6.47131e-13
5.00411e-13
3.75682e-13
5.61868e-13
6.43314e-13
6.31008e-13
3.2755e-13
4.11254e-13
5.18451e-13
4.78263e-13
1.6174e-06
4.58937e-13
3.60214e-13
2.62629e-13
3.01527e-13
3.26723e-13
3.17604e-13
0.00272576
4.72013e-13
3.15159e-13
5.27153e-13
5.87657e-13
4.33868e-13
5.13064e-13
2.98108e-13
3.64775e-13
3.67363e-13
0.0186397
4.87931e-13
3.64394e-13
3.64196e-13
4.60047e-13
2.55427
4.99064e-13
2.99507e-13
2.9499e-13
2.73952e-13
4.56437e-13
0.0128127
3.77799e-13
2.20784e-11
1.79374e-08
5.90457e-13
5.3606e-13
3.92769e-13
4.6536e-13
4.54853e-13
4.05725e-13
3.16908e-13
5.71144e-13
5.55806e-13
3.53522e-13
3.76103e-13
5.36551e-13
5.08963e-13
6.7928e-05
2.84134e-13
3.6635e-13
8.73504e-06
0.016183
0.0247656
6.48811e-13
3.75588e-13
3.83617e-13
4.93983e-13
3.17609e-13
0.0222229
3.20834e-13
3.95594e-13
3.36398e-13
3.27417e-13
3.65056e-13
5.46372e-13
2.92519e-13
3.7367e-13
3.01906e-13
6.4617e-13
3.27178e-13
4.9691e-13
3.40854e-13
3.50448e-13
0.0781689
5.05286e-13
3.17766e-13
3.80351e-13
5.68258e-13
0.00231013
6.46926e-13
5.7466e-13
3.7595e-13
0.00969343
0.0946547
3.41427e-13
4.53645e-13
6.39605e-13
0.0214465
2.43251e-13
0.00270552
0.00137125
5.47416e-13
4.0512e-13
0.0037025
0.0714173
3.4852e-13
3.9004e-13
6.91071e-13
5.55065e-05
3.95579e-13
5.80957e-13
5.60277e-13
0.0438879
6.69956e-13
4.70036e-13
5.55044e-13
0.000648522
6.11588e-13
3.92717e-13
2.80153e-13
0.0862214
4.88657e-13
3.24893e-13
2.51647e-13
0.0291423
3.58789e-13
3.74183e-13
6.04259e-13
4.55358e-13
3.23336e-13
0.00827064
4.66573e-13
5.61665e-13
4.96886e-13
4.141e-13
0.000100112
4.25255e-13
4.71829e-13
0.0461276
5.99968e-13
3.92626e-13
3.47731e-13
6.29559e-13
3.82106e-13
2.64716e-13
2.77379e-13
0.0170023
5.83271e-13
0.0203766
4.66542e-13
5.22406e-13
3.03225e-13
4.36149e-13
0.59958
3.0388e-13
4.73149e-13
4.86291e-13
0.0261081
0.0216969
3.74473e-13
2.4658e-13
3.26417e-13
3.89867e-13
0.511157
0.000145024
0.000370292
3.42154e-13
0.0161364
5.69272e-13
4.36965e-13
5.52263e-13
0.088942
4.5755e-13
0.000160147
5.40173e-13
0.000201831
5.02747e-13
3.29945e-13
5.67558e-13
3.15303e-13
2.87218e-13
4.62307e-13
3.52444e-13
4.76526e-13
0.00101742
4.62863e-13
0.000336193
3.57887e-13
3.24734e-13
2.29172e-13
4.27088e-13
0.0191218
0.0151399
0.0785732
3.49055e-13
4.14435e-13
6.16675e-13
3.0913e-12
3.53011e-13
5.68014e-13
3.93243e-13
0.0002206
4.38748e-13
5.7486e-13
3.27203e-13
3.6049e-13
5.47116e-13
0.000120105
2.80112e-13
6.94618e-13
3.0376e-13
6.1535e-13
2.84516e-13
5.85537e-13
2.88176e-13
4.76648e-13
0.00513067
5.27433e-13
3.42387e-13
3.63018e-13
4.24049e-06
0.518246
3.99182e-13
5.42535e-13
4.2708e-13
3.70321e-13
5.16217e-13
4.78452e-13
5.45159e-13
0.087921
7.15671e-13
4.07206e-13
5.83447e-13
3.03947e-13
5.90534e-13
3.70709e-13
5.36274e-13
3.49283e-13
3.31286e-13
5.36348e-13
4.15239e-13
7.04235e-13
2.92871e-13
3.6595e-13
3.95229e-13
1.4503e-09
0.0103877
3.07005e-13
4.64695e-13
3.63218e-13
3.91326e-13
2.97221e-13
3.60209e-13
3.52522e-13
3.26045e-13
3.36813e-13
4.39543e-13
0.00586037
5.82735e-13
0.000123634
0.545745
5.54198e-13
4.53583e-13
0.00318692
4.47983e-13
5.52294e-13
2.88211e-13
3.00119e-13
0.0798921
4.03565e-13
4.13762e-13
3.75575e-13
3.96953e-13
0.0140583
5.65201e-13
3.97985e-13
0.00026407
3.6809e-13
3.23016e-13
3.83232e-13
5.44968e-13
3.77148e-13
0.00196323
0.000354058
3.14714e-13
2.79103e-13
6.17898e-13
2.76758e-13
2.03851
4.99253e-13
6.67343e-13
4.81537e-13
1.5503e-06
4.66961e-13
0.000114468
4.68289e-13
2.87986e-13
2.04683e-12
4.49263e-13
4.34796e-13
9.21367e-05
6.10894e-13
4.3713e-13
0.00127068
3.46147e-13
3.3525e-13
5.20568e-13
4.5185e-13
1.50169e-09
3.33041e-13
6.0462e-13
5.74631e-13
3.06495e-13
3.11127e-13
3.92418e-13
4.14372e-13
5.60991e-13
5.43911e-13
3.00409e-13
0.0869819
0.000137705
0.000106832
3.08698e-13
3.51527e-13
5.69489e-13
0.103169
0.0167535
3.45375e-13
3.22027e-13
5.15854e-13
0.0945801
0.00196031
4.19207e-13
4.88634e-13
5.21958e-13
4.74958e-13
3.2675e-13
3.07961e-13
2.86268e-13
3.0391e-13
3.65548e-13
0.00163656
1.16038e-08
4.74286e-13
2.52831e-13
2.84306e-08
3.86502e-13
0.000280359
4.40404e-13
3.47241e-13
4.03943e-13
3.92735e-13
5.93027e-13
3.50305e-13
2.86385e-13
3.00441e-13
5.05929e-13
0.000407293
3.00895e-05
0.0846401
3.01599e-13
5.48904e-13
6.08425e-13
0.000740205
5.77219e-13
2.777e-13
3.6141e-13
4.96443e-13
0.000437085
5.53557e-13
3.22083e-13
3.51106e-13
3.08957e-13
3.68244e-13
0.000735926
5.23452e-13
3.27024e-13
4.2547e-13
5.18283e-13
2.13692e-05
0.468531
0.00146993
4.39409e-13
3.54577e-13
0.684494
5.63213e-13
5.46091e-13
5.67774e-13
3.23104e-13
0.000212441
3.87769e-13
5.45145e-13
2.66799e-13
5.4371e-13
5.68676e-13
5.78422e-13
4.56937e-13
0.00088538
5.56697e-13
3.49435e-13
4.10511e-13
0.000366998
4.98945e-13
3.02551e-13
0.0147382
3.65908e-13
5.39805e-13
4.06215e-13
0.00291974
2.91219e-13
6.54115e-13
5.41511e-13
3.76939e-13
3.37849e-13
3.52295e-13
2.77956e-13
3.88472e-13
5.89948e-13
5.37733e-13
4.97385e-13
3.50589e-13
5.36531e-13
3.55622e-13
4.61841e-13
3.49846e-13
3.60133e-13
6.02029e-13
3.47238e-13
2.96465e-13
0.0221835
0.352932
4.01223e-13
9.13714e-05
3.34981e-13
3.67594e-13
3.68347e-13
3.55589e-13
6.0921e-13
2.93963e-13
4.99539e-13
4.76854e-13
2.91528e-13
3.94691e-13
0.000823411
3.206e-13
3.5645e-13
4.29286e-13
3.88374e-13
5.48441e-13
3.21446e-13
4.46435e-13
3.0167e-13
0.0188077
0.000740432
0.0233281
2.78235e-13
5.01394e-13
5.16778e-13
5.16826e-13
5.46201e-13
0.317393
7.76981e-13
1.03953e-13
3.19957e-13
0.00181991
3.49294e-13
0.183937
7.13784e-13
3.58082e-13
3.16098e-13
0.000451467
2.96488e-13
4.50368e-13
5.53426e-13
2.94147e-13
6.16573e-13
5.23852e-13
0.0606423
5.95823e-13
3.30478e-13
2.7188e-13
4.7268e-13
5.51478e-13
4.61568e-13
3.77838e-13
4.83302e-13
3.80798e-13
3.35365e-13
4.0549e-13
3.52602e-13
4.32215e-13
6.32408e-13
0.000518668
3.05255e-13
3.09402e-13
3.76651e-13
0.00559166
3.19346e-13
5.63733e-13
3.47102e-13
3.10874e-13
2.63862e-13
5.74973e-13
3.9093e-13
3.70072e-13
3.80687e-13
2.90757e-13
4.93864e-13
4.90328e-13
0.0484233
4.37602e-05
3.26431e-13
0.226653
3.28702e-13
4.22171e-06
5.15438e-05
6.56478e-13
3.77728e-13
3.50095e-13
5.99457e-13
4.61503e-13
4.7119e-13
6.50096e-13
4.54447e-13
5.94026e-13
6.3315e-13
5.91034e-13
4.63727e-13
3.4673e-13
5.61248e-13
3.47816e-13
3.25777e-13
4.30176e-13
0.000815796
5.83533e-13
0.00152141
3.61007e-13
1.54044e-08
4.00489e-09
0.00180526
0.0182465
3.28963e-13
3.04937e-13
5.98179e-13
6.42106e-13
3.82337e-13
4.08493e-13
2.2886e-13
2.82771e-13
5.73892e-13
0.051478
3.06594e-13
3.44102e-13
3.4946e-13
4.70906e-13
0.387461
3.38919e-13
3.80817e-13
3.34606e-13
0.000207015
5.09601e-13
0.00532704
7.88344e-13
3.44068e-13
5.21513e-13
5.8158e-13
2.70702e-13
2.86294e-13
9.73304e-05
0.00030983
3.58553e-13
0.0002578
2.85552e-13
4.29655e-13
4.80757e-13
5.60288e-13
4.86796e-13
3.59332e-13
3.54783e-13
3.05365e-13
6.00636e-13
2.88966e-13
3.51215e-13
4.65199e-13
3.56525e-13
4.2974e-13
0.0584009
3.12674e-13
3.98873e-13
3.04881e-13
4.65208e-13
0.0431825
5.60114e-13
6.05656e-13
5.37631e-13
5.563e-05
3.23525e-13
5.18903e-13
4.7226e-13
0.261182
3.32922e-13
0.00847683
5.45809e-13
0.00125485
2.52201e-13
0.000720652
3.66029e-13
2.77802e-13
3.41505e-13
5.75545e-13
0.00040879
4.2808e-13
3.32426e-13
4.73224e-13
0.000622867
3.28378e-13
2.9965e-13
5.20314e-13
0.00211612
3.6296e-13
3.37609e-13
2.91917e-13
4.75786e-13
3.02718e-13
3.59915e-13
4.36985e-13
8.75129e-09
3.9659e-13
3.45657e-13
3.78198e-13
0.000345056
2.84769e-13
3.65591e-13
3.54092e-13
4.45816e-13
0.00925039
3.81507e-13
3.77151e-13
6.11824e-10
6.00492e-13
3.96462e-13
3.68378e-13
5.8297e-13
5.38218e-13
2.82711e-13
2.49386e-05
4.31362e-13
2.87348e-13
2.34176e-13
4.57704e-13
6.01887e-13
4.20065e-13
5.88562e-13
5.44002e-13
0.0487195
3.16874e-13
4.1153e-13
4.18888e-13
4.55513e-11
0.0596042
3.49458e-13
2.86885e-13
3.0483e-13
2.66206e-08
8.10448e-13
3.63621e-13
4.48765e-13
2.98129
4.46856e-13
0.243864
5.58174e-13
7.08131e-13
9.63971e-08
5.61708e-13
3.85062e-13
3.16386e-13
0.00063538
0.0749817
0.0727207
0.518618
5.46998e-13
5.90166e-05
3.17411e-13
5.60702e-13
3.06487e-13
4.53692e-13
4.34667e-13
0.00799409
5.48346e-13
5.84237e-13
2.59556e-08
3.47483e-13
3.50353e-13
3.13041e-13
0.000344802
3.40575e-13
7.01953e-13
0.00050044
4.62003e-13
2.21354e-13
5.67006e-13
4.53193e-13
0.205559
9.07423e-05
2.54955e-13
4.95467e-13
8.69456e-05
3.37231e-13
3.08044e-13
3.09951e-13
0.00039278
4.99882e-13
3.53855e-13
3.8273e-13
2.92904e-13
5.71966e-13
3.09584e-13
2.25748e-14
6.53119e-13
4.51165e-13
5.67101e-13
0.00749598
2.7947e-13
0.00192776
6.52787e-13
5.09676e-13
3.67605e-13
3.71374e-13
5.15637e-13
2.76274e-13
5.74051e-13
3.56643e-13
6.15531e-13
5.43394e-13
2.64484e-13
0.000572337
0.00395167
4.09254e-13
0.00489591
5.61737e-13
0.0138449
6.28498e-13
4.62102e-13
3.24431e-13
3.11771e-13
0.00245965
3.78575e-13
1.37296e-08
2.92364e-13
2.92359e-13
3.38889e-13
5.95671e-13
2.5659e-13
2.60628e-13
7.61387e-11
2.82927e-13
3.68929e-13
3.38621e-13
6.31553e-13
5.28046e-13
6.47127e-13
2.44291e-06
4.95668e-13
4.88043e-13
0.00890722
3.06151e-13
3.99259e-13
4.98709e-13
5.58039e-13
4.57806e-13
4.10307e-13
3.07591e-13
5.13378e-13
3.01178e-13
4.25697e-13
0.00377621
0.0196387
3.08602e-13
4.47699e-13
4.27423e-13
3.0926e-13
2.81801e-13
6.62042e-13
5.26556e-13
4.66253e-13
4.21685e-07
5.70158e-13
3.7117e-13
3.46087e-13
3.6148e-13
0.000108018
4.37952e-13
3.59402e-13
3.27263e-13
3.30972e-13
3.26757e-13
0.0116635
2.92725e-13
0.0143851
2.95607e-13
3.75621e-13
5.51339e-13
0.00706166
2.9048e-13
3.89141e-13
3.4759e-10
3.7766e-13
0.211859
5.18234e-13
2.42275e-09
6.32494e-13
3.41633e-13
4.66029e-13
3.11082e-13
1.15846e-09
2.94982e-13
5.55105e-13
0.0144718
3.47871e-13
6.12994e-13
2.86867e-13
3.62381e-13
4.93342e-13
0.305738
5.8271e-13
4.43794e-13
0.000453961
4.95889e-13
0.494815
2.74378e-13
5.62198e-13
3.00891e-13
3.80085e-13
5.57513e-13
4.46703e-13
0.000316172
3.82506e-13
3.52856e-13
3.51298e-13
5.0736e-13
3.35982e-13
0.00370912
4.05034e-13
5.53675e-13
5.3249e-13
5.74298e-13
3.55823e-13
3.54877e-13
0.0861257
3.61018e-13
6.18311e-06
2.92998e-13
3.37616e-13
2.52884e-06
5.14878e-13
0.00406383
6.13096e-13
3.13006e-12
0.000646439
0.641666
5.2352e-13
5.39997e-13
5.57751e-13
0.00223198
5.24339e-13
3.35617e-13
4.74322e-13
3.45138e-13
2.82888e-13
3.32305e-13
4.58155e-13
5.24879e-13
4.98737e-13
6.25972e-13
3.61215e-13
4.03178e-13
6.04108e-13
0.000516735
4.38033e-13
3.01382e-13
3.06664e-13
4.82368e-13
4.85118e-13
3.79281e-13
0.0476663
8.835e-09