/*--------------------------------*- C++ -*----------------------------------*\
  =========                 |
  \\      /  F ield         | OpenFOAM: The Open Source CFD Toolbox
   \\    /   O peration     | Website:  https://openfoam.org
    \\  /    A nd           | Version:  10
     \\/     M anipulation  |
\*---------------------------------------------------------------------------*/
FoamFile
{
    format      ascii;
    class       volScalarField;
    location    "50";
    object      nut;
}
// * * * * * * * * * * * * * * * * * * * * * * * * * * * * * * * * * * * * * //

dimensions      [0 2 -1 0 0 0 0];

internalField   nonuniform List<scalar> 
10435
(
8.37416e-14
9.13947e-14
9.24548e-14
8.9528e-14
8.308e-14
7.50284e-14
9.6015e-14
9.54926e-14
8.94027e-14
8.74105e-14
8.54186e-14
9.00009e-14
9.74648e-14
9.52026e-14
8.99738e-14
9.32348e-14
9.62198e-14
9.01929e-14
8.07886e-14
8.3481e-14
9.54979e-14
8.74415e-14
9.22068e-14
8.88663e-14
9.24854e-14
3.13304e-13
2.52482e-13
9.66301e-14
3.14818e-13
8.55437e-14
8.55343e-14
8.36616e-14
9.69468e-14
9.50398e-14
8.88359e-14
9.49876e-14
8.87804e-14
2.36436e-13
6.71505e-13
8.39732e-14
8.05044e-14
9.45527e-14
1.19959e-13
9.4886e-14
8.94533e-14
8.52113e-14
7.94097e-14
1.29927e-13
9.32016e-14
8.27221e-14
9.45328e-14
8.14118e-14
2.95124e-13
2.32195e-13
6.72351e-13
3.06898e-13
8.69138e-14
3.39759e-13
8.96636e-14
8.67925e-14
4.78417e-13
9.3801e-14
3.69388e-13
7.88526e-14
9.39598e-14
9.37865e-14
9.35962e-14
1.3942e-13
9.64684e-14
9.1287e-14
5.20461e-13
2.20319e-13
8.90738e-14
9.74009e-14
9.65336e-14
9.37274e-14
8.9462e-14
9.42991e-14
9.69617e-14
8.88938e-14
7.59522e-14
8.2008e-14
1.15884e-13
1.11003e-13
8.2004e-14
1.0059e-13
9.77778e-14
9.89488e-14
1.06957e-13
1.01596e-13
9.51124e-14
9.5091e-14
8.16741e-14
1.05534e-13
9.90073e-14
9.12401e-14
9.76544e-14
9.67692e-14
9.21532e-14
9.45911e-14
1.12837e-13
5.70992e-15
1.0024e-13
9.87624e-14
1.60861e-14
8.96564e-14
8.13679e-14
7.80875e-14
8.26265e-14
8.9739e-14
8.34641e-14
1.27675e-13
8.24347e-14
8.4392e-14
9.35867e-14
8.82723e-14
8.8902e-14
9.79436e-14
9.78992e-14
9.30357e-14
8.53528e-14
9.51064e-14
9.80724e-14
8.77457e-14
8.26408e-14
6.6269e-13
9.74036e-14
8.99971e-14
8.70081e-14
2.58261e-13
8.9746e-14
8.2057e-14
9.4333e-14
7.82377e-14
2.05241e-13
9.60764e-14
9.2563e-14
9.35977e-14
9.57597e-14
8.75386e-14
8.06295e-14
8.94101e-14
9.03581e-14
8.51647e-14
8.84141e-14
1.08289e-13
9.17536e-14
7.67134e-14
1.20258e-13
8.58057e-14
1.10688e-13
8.83233e-14
9.82177e-14
8.46789e-14
8.17755e-14
1.51575e-13
8.49515e-14
1.00559e-13
8.1376e-14
8.22164e-14
8.71643e-14
9.22907e-14
9.46864e-14
9.22179e-14
8.75765e-14
8.85658e-14
9.24822e-14
9.47696e-14
8.38314e-14
8.06067e-14
8.95239e-14
9.37133e-14
2.81393e-13
1.09009e-13
8.43647e-14
8.21344e-14
9.46427e-14
1.50597e-13
8.26757e-14
1.34517e-13
9.02562e-14
1.67339e-13
8.77168e-14
4.12936e-13
8.86479e-14
9.92798e-14
9.80658e-14
9.54312e-14
7.82072e-14
8.36312e-14
8.64485e-14
9.61446e-14
2.50854e-13
9.27457e-14
7.98247e-14
9.55705e-14
1.23324e-13
1.02613e-13
1.57964e-13
9.15495e-14
9.65752e-14
2.08946e-13
9.77359e-14
3.23551e-13
9.45016e-14
8.8249e-14
9.62264e-14
9.22248e-14
1.85882e-13
8.78905e-14
9.96761e-14
9.38644e-14
8.55783e-14
8.62439e-14
2.55673e-13
1.11032e-13
8.84247e-14
9.71831e-14
1.70076e-13
8.4202e-14
1.00043e-13
1.08485e-13
9.4057e-14
9.55194e-14
4.77034e-13
9.19352e-14
1.63398e-13
1.04147e-13
8.50903e-14
9.65677e-14
1.38614e-13
9.17231e-14
1.56894e-13
9.09155e-14
2.70882e-13
1.01055e-13
8.11194e-14
2.53997e-13
7.98922e-14
8.93491e-14
9.48874e-14
2.84889e-13
9.85665e-14
4.61673e-13
8.80246e-14
9.53605e-14
8.91731e-14
9.50788e-14
2.39591e-13
8.60061e-14
2.00897e-13
9.87101e-14
9.49189e-14
8.354e-14
9.61951e-14
8.00381e-14
1.93614e-13
9.3706e-14
9.76911e-14
1.31791e-13
9.42512e-14
8.65435e-14
3.24593e-13
8.54256e-14
8.44764e-14
1.01356e-13
9.91206e-14
8.99588e-14
9.80331e-14
8.85507e-14
9.6088e-14
9.51605e-14
9.51921e-14
9.28473e-14
1.72541e-13
8.98759e-14
2.49475e-13
8.25568e-14
9.49967e-14
9.618e-14
9.32819e-14
1.33558e-13
9.15191e-14
1.05081e-13
9.3596e-14
9.68784e-14
6.91484e-14
2.36112e-13
9.43148e-14
9.39427e-14
8.88129e-14
8.11647e-14
1.01598e-13
9.57069e-14
2.19496e-13
2.22482e-13
1.14997e-13
8.44887e-14
8.30726e-14
9.64851e-14
1.86293e-13
7.95917e-14
9.39584e-14
3.00056e-13
8.38438e-14
1.10474e-13
1.16085e-13
8.51031e-14
9.03506e-14
9.56857e-14
7.87987e-14
1.73192e-13
8.90728e-14
7.08725e-14
8.91573e-14
1.53017e-13
1.62109e-13
8.26218e-14
1.13676e-13
9.06527e-14
6.8292e-13
4.20124e-13
9.90299e-14
9.59375e-14
9.79722e-14
9.42609e-14
1.88701e-13
9.59656e-14
9.68613e-14
2.48663e-13
8.52143e-14
9.32653e-14
9.51525e-14
9.14165e-14
8.62784e-14
3.42526e-13
2.46262e-13
2.37099e-13
9.24751e-14
2.46957e-13
2.25044e-13
2.68757e-13
1.47746e-13
4.46607e-13
3.45552e-13
1.17539e-13
1.29579e-13
4.46768e-13
9.71822e-14
9.69546e-14
9.44541e-14
9.42949e-14
4.69153e-13
9.59367e-14
9.75459e-14
9.41189e-14
9.87707e-14
9.18284e-14
3.34796e-13
9.4298e-14
2.5761e-13
2.60773e-13
2.59495e-13
9.57266e-14
2.43986e-13
2.85545e-13
3.09331e-13
8.28329e-14
2.49515e-13
9.49802e-14
6.12052e-14
3.51523e-13
1.0091e-13
9.17798e-14
9.60995e-14
5.88282e-13
2.79582e-13
3.08038e-13
9.37867e-14
2.07052e-13
5.70571e-13
7.37967e-13
9.75877e-14
9.3758e-14
9.68146e-14
9.63917e-14
9.90561e-14
9.61874e-14
9.47803e-14
9.55491e-14
9.04794e-14
8.35062e-14
9.61657e-14
2.05945e-13
3.51734e-13
9.36242e-14
1.20947e-13
9.91289e-14
4.3747e-13
3.08268e-13
4.19112e-13
9.48123e-14
1.06143e-13
9.41187e-14
2.31649e-13
9.49402e-14
8.27331e-14
9.54918e-14
2.29312e-13
4.51887e-13
8.56016e-14
4.22617e-13
2.32517e-13
2.10569e-13
2.7478e-13
1.77047e-13
3.13648e-13
9.36375e-14
3.63666e-13
2.34366e-13
4.22183e-13
8.77998e-14
9.545e-14
9.19404e-14
9.40087e-14
8.80902e-14
9.48018e-14
9.4298e-14
9.6567e-14
9.62239e-14
9.35943e-14
9.41722e-14
9.27975e-14
9.23096e-14
9.20643e-14
9.27116e-14
9.47301e-14
9.61049e-14
9.61788e-14
9.36396e-14
9.48768e-14
9.29437e-14
9.04527e-14
9.33022e-14
9.30886e-14
9.45454e-14
9.59057e-14
9.6435e-14
9.37035e-14
9.48921e-14
9.23219e-14
9.22847e-14
9.40672e-14
9.37765e-14
9.60512e-14
9.55984e-14
9.59551e-14
9.35922e-14
9.49028e-14
9.37267e-14
9.37165e-14
9.47239e-14
9.37567e-14
9.60536e-14
9.52298e-14
9.55153e-14
9.32912e-14
9.37407e-14
9.40428e-14
9.41867e-14
9.39906e-14
9.3355e-14
9.64125e-14
9.47211e-14
9.47924e-14
9.35496e-14
9.4065e-14
9.28963e-14
9.67954e-14
9.43818e-14
9.49917e-14
9.70315e-14
9.46354e-14
9.49107e-14
9.39966e-14
9.37036e-14
9.89015e-14
9.83593e-14
9.43188e-14
9.30727e-14
1.00054e-13
9.32163e-14
9.44116e-14
9.33142e-14
9.41548e-14
9.91468e-14
1.01141e-13
8.87403e-14
9.20766e-14
1.02855e-13
9.18559e-14
9.33805e-14
9.28553e-14
9.42354e-14
1.06524e-13
1.06101e-13
8.77926e-14
9.0786e-14
1.03871e-13
9.43076e-14
9.33091e-14
9.14366e-14
9.15476e-14
1.0737e-13
1.11115e-13
8.93784e-14
9.17469e-14
1.11742e-13
9.6481e-14
9.0173e-14
8.97377e-14
8.94199e-14
1.09407e-13
1.10835e-13
9.29246e-14
9.02851e-14
1.10541e-13
9.79846e-14
8.88743e-14
8.83122e-14
9.11167e-14
1.10003e-13
1.11631e-13
9.61564e-14
9.07712e-14
1.19302e-13
9.989e-14
8.86083e-14
8.77721e-14
9.21331e-14
1.10045e-13
1.12036e-13
9.73727e-14
8.99099e-14
1.16427e-13
1.01633e-13
8.88855e-14
8.80477e-14
9.32145e-14
1.08153e-13
1.10736e-13
1.00723e-13
8.93061e-14
1.21972e-13
1.03513e-13
9.05282e-14
8.89971e-14
9.31936e-14
1.00872e-13
1.06703e-13
1.00475e-13
8.79017e-14
1.23437e-13
1.05473e-13
9.38426e-14
9.21612e-14
9.33288e-14
9.70422e-14
1.02308e-13
1.01222e-13
9.08672e-14
1.20479e-13
1.03684e-13
9.66523e-14
9.56406e-14
9.32137e-14
9.43032e-14
1.01003e-13
1.01879e-13
9.39052e-14
1.4421e-13
1.03229e-13
9.71005e-14
9.25214e-14
9.24418e-14
9.29546e-14
9.88304e-14
1.00911e-13
9.72572e-14
1.76414e-13
1.03195e-13
9.80209e-14
9.2687e-14
9.20737e-14
9.2027e-14
9.22867e-14
9.98971e-14
9.95839e-14
2.4876e-13
1.09489e-13
9.8605e-14
9.31064e-14
9.24932e-14
8.97036e-14
9.34161e-14
9.90292e-14
9.85245e-14
2.88523e-13
1.08115e-13
9.69638e-14
9.39626e-14
9.26967e-14
9.05295e-14
9.1489e-14
9.58445e-14
9.86611e-14
4.0625e-13
1.33101e-13
9.40371e-14
9.52269e-14
9.43546e-14
9.23178e-14
8.92483e-14
9.23777e-14
9.40973e-14
4.45558e-13
2.14016e-13
9.67461e-14
9.42937e-14
9.5505e-14
9.51924e-14
9.14636e-14
8.93494e-14
9.10645e-14
3.16203e-13
2.42351e-13
1.21748e-13
9.28542e-14
9.61097e-14
9.62978e-14
9.67723e-14
9.09215e-14
9.06765e-14
2.0395e-13
3.64435e-13
1.35036e-13
9.34741e-14
9.67722e-14
9.6414e-14
9.72142e-14
9.44937e-14
9.17266e-14
9.51345e-14
9.5375e-14
9.61966e-14
9.70114e-14
9.81465e-14
9.93236e-14
1.00921e-13
1.02848e-13
1.06014e-13
1.10063e-13
1.16272e-13
1.24515e-13
1.33878e-13
1.45467e-13
1.5754e-13
1.68503e-13
1.76348e-13
1.85403e-13
1.95463e-13
2.00663e-13
2.00676e-13
2.02516e-13
2.10991e-13
2.17263e-13
2.27564e-13
2.45378e-13
2.68314e-13
2.67184e-13
2.77237e-13
2.76284e-13
2.68146e-13
2.64589e-13
2.4644e-13
2.29596e-13
2.18852e-13
2.12203e-13
2.10525e-13
2.08318e-13
2.05968e-13
1.94669e-13
1.86189e-13
1.77408e-13
1.67589e-13
1.55362e-13
1.43451e-13
1.33247e-13
1.24723e-13
1.17422e-13
1.12329e-13
1.0805e-13
1.05048e-13
1.02914e-13
1.01257e-13
9.99594e-14
9.83944e-14
9.66223e-14
9.57403e-14
9.45582e-14
9.42278e-14
9.75853e-14
9.78477e-14
9.91903e-14
1.00693e-13
1.02866e-13
1.05117e-13
1.08113e-13
1.11644e-13
1.16191e-13
1.20879e-13
1.2611e-13
1.29798e-13
1.3233e-13
1.31182e-13
1.27515e-13
1.21376e-13
1.19103e-13
1.18208e-13
1.19161e-13
1.19843e-13
1.21493e-13
1.25368e-13
1.30206e-13
1.31206e-13
1.37328e-13
1.39504e-13
1.44149e-13
1.45494e-13
1.46271e-13
1.45872e-13
1.4432e-13
1.41829e-13
1.38574e-13
1.34091e-13
1.27975e-13
1.25317e-13
1.23505e-13
1.21998e-13
1.21699e-13
1.20836e-13
1.23325e-13
1.23984e-13
1.26997e-13
1.29767e-13
1.30064e-13
1.27737e-13
1.24269e-13
1.2013e-13
1.1676e-13
1.13163e-13
1.10123e-13
1.07483e-13
1.04681e-13
1.02337e-13
1.00537e-13
9.88073e-14
9.77725e-14
9.66342e-14
9.63959e-14
9.64265e-14
9.71784e-14
9.84904e-14
9.87556e-14
1.0016e-13
1.01705e-13
1.04276e-13
1.06641e-13
1.08994e-13
1.10028e-13
1.10648e-13
1.10727e-13
1.09432e-13
1.07618e-13
1.04743e-13
1.01957e-13
9.91819e-14
1.00066e-13
1.00023e-13
1.0212e-13
1.02279e-13
1.0546e-13
1.07268e-13
1.08995e-13
1.11216e-13
1.13234e-13
1.14271e-13
1.14678e-13
1.14408e-13
1.14428e-13
1.14395e-13
1.13857e-13
1.12846e-13
1.10976e-13
1.08063e-13
1.06509e-13
1.04868e-13
1.03028e-13
1.01466e-13
1.02021e-13
1.00761e-13
1.02531e-13
1.0474e-13
1.05961e-13
1.07913e-13
1.09031e-13
1.08174e-13
1.08559e-13
1.07837e-13
1.0669e-13
1.05513e-13
1.04259e-13
1.0199e-13
1.00525e-13
9.95769e-14
9.75187e-14
9.69298e-14
9.58085e-14
9.551e-14
9.39338e-14
9.42479e-14
9.60961e-14
9.69785e-14
9.90879e-14
9.97576e-14
1.01975e-13
1.02844e-13
1.04014e-13
1.02937e-13
1.02139e-13
1.00162e-13
9.89611e-14
9.81308e-14
9.5808e-14
9.52508e-14
9.38785e-14
9.36291e-14
9.40442e-14
9.5409e-14
9.51136e-14
9.7434e-14
9.84499e-14
9.95036e-14
1.00874e-13
1.01478e-13
1.02732e-13
1.02675e-13
1.0218e-13
1.01665e-13
1.0162e-13
1.01575e-13
1.01751e-13
1.00745e-13
9.99707e-14
9.93109e-14
9.83422e-14
9.69169e-14
9.57539e-14
9.58102e-14
9.39218e-14
9.63777e-14
9.61499e-14
9.62423e-14
9.87033e-14
1.00826e-13
1.01675e-13
1.04491e-13
1.04321e-13
1.0469e-13
1.03824e-13
1.03535e-13
1.02412e-13
1.01824e-13
1.00412e-13
9.76672e-14
9.69683e-14
9.47659e-14
9.37279e-14
9.44232e-14
9.50949e-14
9.65251e-14
9.63224e-14
9.77073e-14
9.70865e-14
9.91806e-14
9.79385e-14
9.63935e-14
9.43042e-14
9.26436e-14
9.10148e-14
9.05064e-14
9.16782e-14
9.0099e-14
9.13351e-14
9.31656e-14
9.12502e-14
9.20636e-14
9.28019e-14
9.24971e-14
9.24118e-14
9.28166e-14
9.34874e-14
9.48046e-14
9.6334e-14
9.87525e-14
9.80426e-14
9.70398e-14
9.63681e-14
9.57675e-14
9.5363e-14
9.58018e-14
9.45628e-14
9.42852e-14
9.41198e-14
9.44885e-14
9.4551e-14
9.43909e-14
9.32692e-14
9.227e-14
9.42148e-14
9.18764e-14
9.24782e-14
9.31187e-14
9.55421e-14
9.6412e-14
9.68524e-14
9.78468e-14
9.84571e-14
9.72228e-14
9.84022e-14
9.75783e-14
1.00077e-13
9.80083e-14
9.63042e-14
9.62463e-14
9.49563e-14
9.42286e-14
9.58868e-14
9.56313e-14
9.81904e-14
9.72953e-14
9.723e-14
9.56686e-14
9.54071e-14
9.54021e-14
9.29641e-14
9.17052e-14
8.97496e-14
8.89628e-14
8.78432e-14
8.89586e-14
8.87751e-14
8.81908e-14
8.93026e-14
9.00306e-14
9.02888e-14
9.14475e-14
8.98702e-14
8.93778e-14
8.92691e-14
8.99667e-14
9.10343e-14
9.42615e-14
9.724e-14
9.69337e-14
9.49644e-14
9.50054e-14
9.39529e-14
9.21554e-14
9.19983e-14
8.94016e-14
9.04383e-14
9.10007e-14
9.09099e-14
9.07027e-14
9.02935e-14
9.03111e-14
9.06627e-14
9.00592e-14
8.8762e-14
9.15011e-14
9.22243e-14
9.33488e-14
9.2605e-14
8.94007e-14
9.12438e-14
9.24574e-14
9.24034e-14
9.30001e-14
9.48835e-14
9.49493e-14
9.55462e-14
9.42078e-14
9.30423e-14
9.29374e-14
9.28883e-14
9.36785e-14
9.44978e-14
9.5354e-14
9.40036e-14
9.48198e-14
9.52076e-14
9.1127e-14
9.27311e-14
8.87915e-14
9.04901e-14
8.65992e-14
8.75457e-14
8.73556e-14
8.75331e-14
8.72161e-14
8.89908e-14
8.97223e-14
9.16935e-14
9.11219e-14
9.06855e-14
9.00983e-14
8.99068e-14
8.84738e-14
8.95411e-14
9.0158e-14
9.26788e-14
9.48749e-14
9.39081e-14
9.22137e-14
9.27171e-14
9.12727e-14
9.09006e-14
9.07338e-14
8.67962e-14
9.10501e-14
9.09777e-14
9.16562e-14
8.91169e-14
8.98484e-14
9.0948e-14
9.11828e-14
9.05887e-14
9.0939e-14
9.05531e-14
8.94012e-14
8.77089e-14
8.80074e-14
8.8002e-14
8.92237e-14
8.94159e-14
8.87714e-14
9.1017e-14
9.09278e-14
9.18061e-14
9.19619e-14
9.17294e-14
9.19778e-14
9.2215e-14
9.21342e-14
9.10059e-14
9.04235e-14
8.95138e-14
8.88647e-14
8.80128e-14
8.85366e-14
8.83901e-14
8.74151e-14
8.7613e-14
8.74748e-14
8.75791e-14
8.82096e-14
8.868e-14
8.90516e-14
8.7252e-14
9.01127e-14
9.19273e-14
9.15249e-14
9.11481e-14
9.16511e-14
9.02416e-14
8.91399e-14
8.93834e-14
8.91702e-14
9.08668e-14
8.94383e-14
9.1907e-14
9.19983e-14
9.1355e-14
9.03578e-14
9.03113e-14
8.91599e-14
8.75747e-14
8.76038e-14
9.13487e-14
9.13823e-14
9.04161e-14
9.02844e-14
8.95373e-14
9.02013e-14
9.07718e-14
9.0413e-14
9.08904e-14
9.08869e-14
8.83518e-14
8.9406e-14
9.00778e-14
8.86227e-14
8.81218e-14
8.90217e-14
8.8332e-14
8.99561e-14
9.0253e-14
9.14458e-14
9.04929e-14
9.23135e-14
9.10863e-14
9.05025e-14
9.1685e-14
9.424e-14
9.46553e-14
9.31373e-14
9.40675e-14
9.29151e-14
9.30714e-14
9.23875e-14
9.19045e-14
9.12157e-14
8.93142e-14
8.93077e-14
8.9046e-14
8.83413e-14
8.84597e-14
8.8489e-14
8.89566e-14
8.93985e-14
9.1468e-14
9.09976e-14
9.16236e-14
8.98279e-14
8.89813e-14
8.91014e-14
8.98071e-14
9.02922e-14
8.97274e-14
9.27282e-14
9.20213e-14
9.07257e-14
8.93638e-14
8.92414e-14
8.88632e-14
8.9125e-14
8.84042e-14
9.1303e-14
9.05031e-14
8.99589e-14
8.9348e-14
8.92314e-14
8.98923e-14
9.03563e-14
9.03646e-14
8.99209e-14
8.95929e-14
8.98922e-14
8.9458e-14
8.76484e-14
8.8214e-14
8.73196e-14
8.88501e-14
8.96684e-14
9.09524e-14
9.13847e-14
9.13989e-14
9.17018e-14
9.22636e-14
9.19401e-14
9.22952e-14
9.30163e-14
2.34944e-13
3.19382e-13
4.19584e-13
3.92844e-13
2.56462e-13
2.12803e-13
1.48842e-13
1.38869e-13
1.2123e-13
1.13658e-13
1.14769e-13
1.12416e-13
1.16558e-13
1.10538e-13
1.12116e-13
1.0431e-13
1.02289e-13
9.96138e-14
9.64217e-14
9.68557e-14
9.62809e-14
9.65389e-14
9.57009e-14
9.56221e-14
9.53358e-14
3.33669e-13
2.48009e-13
2.04011e-13
1.34096e-13
1.06837e-13
1.06669e-13
1.02815e-13
1.02232e-13
1.01305e-13
1.01846e-13
1.02577e-13
1.0316e-13
1.03858e-13
1.02523e-13
1.00984e-13
9.84051e-14
9.39942e-14
9.16895e-14
9.4118e-14
9.6344e-14
9.57831e-14
9.66097e-14
9.73748e-14
9.72965e-14
9.78957e-14
1.45249e-13
1.0833e-13
1.0195e-13
9.61345e-14
9.81305e-14
9.76519e-14
9.69409e-14
9.7911e-14
9.91896e-14
9.87981e-14
9.89124e-14
9.89175e-14
9.86027e-14
9.47994e-14
9.42127e-14
9.13812e-14
9.40803e-14
9.43782e-14
9.39117e-14
9.53749e-14
9.45359e-14
9.59035e-14
9.58223e-14
9.68948e-14
9.71704e-14
9.39606e-14
9.15486e-14
9.52355e-14
9.28396e-14
9.22009e-14
9.08394e-14
9.06994e-14
9.1611e-14
9.19407e-14
9.56767e-14
9.26216e-14
9.20331e-14
9.16625e-14
9.18908e-14
9.24586e-14
9.41361e-14
9.38019e-14
9.493e-14
9.50663e-14
9.48278e-14
9.51533e-14
9.46995e-14
9.40258e-14
9.41063e-14
9.42446e-14
9.51299e-14
9.51723e-14
9.33974e-14
9.23784e-14
9.19995e-14
9.13181e-14
9.08114e-14
9.11072e-14
9.32383e-14
9.51726e-14
9.8132e-14
1.00332e-13
1.01084e-13
1.00272e-13
9.89125e-14
9.71866e-14
9.55221e-14
9.49794e-14
9.52717e-14
9.54712e-14
9.54877e-14
9.53809e-14
9.55564e-14
9.49692e-14
9.49721e-14
9.56284e-14
9.42563e-14
9.23898e-14
9.16733e-14
9.0906e-14
9.06169e-14
9.1015e-14
9.25401e-14
9.37963e-14
9.64281e-14
1.03154e-13
1.08062e-13
1.10435e-13
1.09998e-13
1.10369e-13
1.09129e-13
1.03799e-13
9.91463e-14
9.96367e-14
9.41842e-14
9.4494e-14
9.51315e-14
9.54086e-14
9.52333e-14
9.56199e-14
9.47698e-14
9.23629e-14
9.15318e-14
9.0603e-14
9.11385e-14
9.18883e-14
9.42153e-14
9.94564e-14
1.02322e-13
1.03397e-13
1.06814e-13
1.10037e-13
1.10581e-13
1.11824e-13
1.09279e-13
1.08592e-13
1.04818e-13
1.00636e-13
1.00005e-13
9.14822e-14
9.5531e-14
9.43325e-14
9.41773e-14
9.4013e-14
9.36058e-14
9.32349e-14
9.12053e-14
8.86444e-14
9.24911e-14
9.45301e-14
9.78506e-14
1.00303e-13
1.01399e-13
1.01723e-13
1.01408e-13
9.89177e-14
9.73062e-14
9.66125e-14
9.67706e-14
9.6184e-14
9.84622e-14
9.25798e-14
9.00763e-14
8.96414e-14
9.4912e-14
9.24882e-14
9.41007e-14
9.30831e-14
9.1885e-14
9.14269e-14
9.05066e-14
9.02115e-14
9.22304e-14
9.35765e-14
9.70024e-14
9.68585e-14
9.82698e-14
9.47768e-14
9.16278e-14
9.18507e-14
8.71207e-14
9.08294e-14
9.00816e-14
9.20758e-14
9.14777e-14
9.24448e-14
9.091e-14
9.13793e-14
9.05745e-14
9.19341e-14
9.26107e-14
9.31188e-14
9.2115e-14
9.35081e-14
9.42738e-14
1.03563e-13
1.01844e-13
8.98376e-14
8.57894e-14
8.39864e-14
8.70607e-14
8.1649e-14
7.8859e-14
8.63344e-14
8.53752e-14
25.5703
8.23797e-14
1.30704e-13
8.26892e-14
4.61766e-05
8.87647e-14
4.35856e-14
8.45237e-14
8.99336e-14
153.233
8.83007e-14
8.2375e-14
4.20731
7.75934e-14
7.43316e-14
7.25227e-14
7.3989e-14
7.89594e-14
1.13603e-13
0.303164
9.00414e-14
8.41302e-14
69.3195
8.99791e-14
0.0451412
8.81539e-14
8.07276e-14
1.53261e-06
8.17895e-14
8.45309e-14
23.4762
8.43151e-14
8.12677e-14
8.88593e-14
8.60757e-14
9.09758e-14
28.5387
36.9258
1.69436
165.312
18.4217
65.6811
9.0205e-14
8.38539e-14
8.15414e-14
8.28147e-14
8.2543e-14
9.01241e-14
8.12843e-14
85.1255
8.67106e-14
9.11664e-14
8.47384e-14
8.79776e-14
8.04717e-14
8.31059e-14
8.46255e-14
8.71629e-14
1.30833e-13
1.889
8.07626e-14
8.28365e-14
8.44259e-14
209.802
8.64532e-14
8.68228e-14
273.671
10.3472
8.50653e-14
8.61073e-14
1.06529e-13
8.86036e-14
8.27376e-14
0.261842
8.92085e-14
8.83581e-14
8.45271e-14
8.6506
59.3019
8.64546e-14
8.63449e-14
8.52708e-14
8.70713e-14
8.16797e-14
8.40448e-14
24.317
7.46799e-14
10.3613
7.87202e-14
81.4595
8.20542e-14
26.6815
8.42391e-14
8.44943e-14
8.12391e-14
8.88249e-14
4.18137
1.07394e-13
7.95376e-14
0.00504015
8.57783e-14
8.17016e-14
0.548393
8.21244e-14
9.11763e-14
2.23506e-14
10.6512
8.61443e-14
9.98592e-14
8.46436e-14
8.6815e-14
8.16783e-14
8.21772e-14
7.11425e-14
41.6716
8.14819e-14
50.1019
68.5311
9.42636e-14
19.0744
8.84355e-14
170.836
8.32981
8.11987e-14
8.68418e-14
8.16887e-14
8.95411e-14
8.49281e-14
8.71628e-14
483.593
8.36113e-14
8.03691e-14
37.8332
9.09634e-14
1.04226e-13
8.92707e-14
8.77539e-14
3.28593
8.89481e-14
0.111368
7.80998e-14
9.16822e-14
8.03023e-14
63.721
7.91581e-14
1.08392
8.25675e-14
8.59328e-14
69.2087
8.6306e-14
8.39154e-14
7.88243e-14
8.57378e-14
9.58716
8.26228e-14
3.33364
8.25743e-14
7.86291e-14
8.86674e-14
8.29635e-14
8.29737e-14
8.31426e-14
8.55206e-14
0.811466
8.77863e-14
8.69401e-14
0.00179004
1.87314
16.7502
8.27906e-14
8.40696e-14
8.41003e-14
8.95398e-14
8.28428e-05
9.01263e-14
8.65488e-14
9.23552
7.46198e-14
3.49351
8.93454e-14
166.293
30.9464
8.13182e-14
7.83986e-14
6.17785
103.62
8.64196e-14
8.14051e-14
9.80752e-14
1.16801e-13
1.01752e-13
8.89055e-14
8.66187e-14
9.20971e-14
8.24818e-14
8.62476e-14
8.52388e-14
8.74695e-14
0.353772
8.52828e-14
8.08102e-14
8.54793e-14
7.95894e-14
7.52786e-14
8.67584e-14
14.1105
8.54693e-14
8.36094e-14
8.80689e-14
9.64828e-14
8.85558e-14
8.3708e-14
7.73744e-14
8.5416e-14
8.53826e-14
14.284
8.76646e-14
9.17971e-14
8.34466e-14
8.41578e-14
0.997353
8.76313e-14
8.45228e-14
8.29486e-14
8.02294e-14
8.50572e-14
4.56789
7.40518e-14
2.33917e-10
0.000169385
8.53675e-14
8.85499e-14
7.89403e-14
9.20399e-14
8.45467e-14
8.08568e-14
8.0031e-14
9.2757e-14
8.90588e-14
8.09922e-14
8.14145e-14
8.8202e-14
9.25218e-14
1285.09
7.47883e-14
8.24596e-14
0.461855
350.724
33.4823
8.85893e-14
8.67818e-14
8.90799e-14
8.91041e-14
7.56526e-14
130.395
7.83716e-14
8.43665e-14
8.53047e-14
8.66152e-14
7.72624e-14
9.06398e-14
8.02037e-14
8.25959e-14
8.3366e-14
8.85134e-14
8.13489e-14
8.39037e-14
8.64496e-14
8.7701e-14
70.5808
9.20777e-14
8.74022e-14
8.41119e-14
9.08913e-14
25.0212
8.76798e-14
8.97872e-14
9.03052e-14
18.6978
161.546
8.18165e-14
8.53281e-14
8.6942e-14
33.9956
8.17129e-14
11.4475
11.0911
8.63699e-14
8.50636e-14
56.103
21.9967
8.22939e-14
8.43939e-14
9.28174e-14
0.453139
8.5241e-14
8.89776e-14
8.71512e-14
375.938
8.8939e-14
8.62752e-14
8.83261e-14
35.4475
1.10019e-13
8.29537e-14
7.83288e-14
37.7173
9.77764e-14
7.31138e-14
8.03721e-14
15.1224
8.28207e-14
8.22834e-14
8.89842e-14
8.52676e-14
8.2024e-14
13.8643
1.09383e-13
8.67832e-14
8.79468e-14
8.26925e-14
29.5286
8.81837e-14
8.55446e-14
20.7268
9.04222e-14
8.1125e-14
9.02318e-14
8.77742e-14
8.58456e-14
8.82917e-14
8.16256e-14
22.2828
8.89596e-14
76.5181
8.62154e-14
8.75476e-14
7.85834e-14
7.92787e-14
35.2329
8.26072e-14
8.42902e-14
8.24198e-14
10.4561
44.2213
8.7813e-14
7.90395e-14
8.68397e-14
7.9034e-14
29.4869
618.944
9.07937
8.26179e-14
12.0453
8.38551e-14
8.22876e-14
9.03175e-14
18.0179
8.24208e-14
3.6311
8.73744e-14
10.4121
1.17672e-13
8.16311e-14
1.17915e-13
8.28198e-14
8.06276e-14
8.86242e-14
8.26153e-14
9.12621e-14
13.5858
8.40523e-14
25.8103
8.92704e-14
8.12696e-14
7.93533e-14
8.60765e-14
110.241
31.784
184.837
8.55288e-14
8.62993e-14
9.86376e-14
9.56388e-12
1.06602e-13
8.6491e-14
8.48739e-14
21.5084
8.68641e-14
1.01517e-13
8.08496e-14
8.34745e-14
8.98553e-14
116.1
8.56158e-14
8.66934e-14
7.8571e-14
9.72271e-14
8.05828e-14
8.62723e-14
7.82295e-14
8.59099e-14
24.5087
8.6658e-14
8.01527e-14
8.31591e-14
0.34239
29.7202
8.39898e-14
8.80371e-14
8.59765e-14
8.70459e-14
8.66069e-14
8.72069e-14
9.06373e-14
52.786
8.85724e-14
8.64181e-14
8.7304e-14
8.38414e-14
8.85208e-14
8.45945e-14
8.5122e-14
8.32549e-14
8.31125e-14
9.11203e-14
8.85342e-14
8.66969e-14
8.33113e-14
8.52354e-14
8.8072e-14
9.72078e-07
29.5101
8.13281e-14
1.22707e-13
8.86342e-14
8.13447e-14
8.04393e-14
8.28328e-14
8.48624e-14
8.21768e-14
7.93159e-14
8.45142e-14
28.945
8.93454e-14
0.165559
15.6707
8.70472e-14
8.5944e-14
26.9583
8.64003e-14
8.88692e-14
8.55629e-14
8.5706e-14
74.564
8.37245e-14
8.25417e-14
9.15324e-14
8.92198e-14
78.8389
9.21365e-14
8.42287e-14
6.47196
8.60584e-14
7.59732e-14
9.81111e-14
8.63342e-14
8.22316e-14
7.34417
3.24122
8.46074e-14
7.95764e-14
8.46012e-14
8.61611e-14
0.624167
8.37462e-14
8.89051e-14
8.73924e-14
2.22001
8.74374e-14
4.66324
9.02296e-14
8.12819e-14
3.66873e-12
8.9126e-14
8.27017e-14
2.78888
8.62773e-14
8.39317e-14
73.9615
8.45642e-14
8.31125e-14
9.12786e-14
8.60345e-14
8.47558e-07
1.00444e-13
8.97301e-14
8.84516e-14
8.05669e-14
8.28948e-14
8.41276e-14
1.08396e-13
8.74921e-14
8.66237e-14
8.46916e-14
12.6194
1.48926
6.05109
8.10331e-14
8.38539e-14
8.73766e-14
125.265
227.532
7.91099e-14
9.33731e-14
8.95322e-14
72.2587
111.733
8.57608e-14
9.06653e-14
8.72091e-14
8.73045e-14
8.54744e-14
7.6731e-14
8.36372e-14
8.24883e-14
8.88039e-14
60.6839
3.78503e-05
8.44467e-14
8.16078e-14
2.19508e-06
8.25502e-14
6.24048
7.93872e-14
8.47798e-14
8.67547e-14
7.71093e-14
8.64133e-14
9.02839e-14
8.03447e-14
8.51759e-14
9.99707e-14
323.37
2.17767
32.0351
8.058e-14
8.7406e-14
1.13824e-13
1380.01
8.81751e-14
8.13694e-14
8.03711e-14
1.22342e-13
0.398174
8.95295e-14
8.07877e-14
8.51308e-14
8.33031e-14
8.53029e-14
17.2702
8.76642e-14
9.36508e-14
8.23769e-14
8.83974e-14
0.860368
34.0653
3377.98
8.81824e-14
8.1653e-14
4.17747
9.15255e-14
9.00549e-14
8.755e-14
8.1045e-14
12.7422
8.73038e-14
8.5743e-14
8.29316e-14
9.26838e-14
8.62577e-14
8.55264e-14
8.52634e-14
25.6951
8.89765e-14
8.23812e-14
1.01612e-13
20.2052
8.14785e-14
8.38523e-14
29.5897
7.99737e-14
8.80525e-14
8.72568e-14
45.9861
8.20863e-14
8.82417e-14
8.77274e-14
9.00544e-14
8.08386e-14
8.34661e-14
8.09895e-14
7.91464e-14
8.83109e-14
8.46524e-14
8.76493e-14
8.23482e-14
8.80664e-14
8.65495e-14
8.53455e-14
8.36242e-14
8.16928e-14
8.77865e-14
8.31702e-14
8.29008e-14
125.713
65.7958
8.24795e-14
5.93228
8.30022e-14
8.03711e-14
8.4027e-14
8.02348e-14
8.89671e-14
8.5909e-14
9.02357e-14
8.65233e-14
7.84159e-14
9.28283e-14
1.97343
8.30858e-14
8.45965e-14
8.73053e-14
8.32876e-14
8.6939e-14
8.20989e-14
9.30995e-14
8.20263e-14
102.007
17.3699
8.41519
8.28951e-14
8.21749e-14
8.40008e-14
8.91519e-14
8.86162e-14
27.0364
9.23011e-14
2.43848e-15
8.17011e-14
2769.45
8.20001e-14
14.9005
8.59178e-14
8.49219e-14
7.96837e-14
14.1468
8.07746e-14
8.64248e-14
9.23403e-14
8.17656e-14
8.83033e-14
8.63688e-14
13.818
8.50425e-14
7.6955e-14
8.08102e-14
8.5958e-14
8.70327e-14
9.2204e-14
7.93293e-14
8.71516e-14
8.40945e-14
8.37296e-14
8.43245e-14
8.47194e-14
8.67765e-14
1.12271e-13
9.09924
8.37843e-14
8.24066e-14
8.37267e-14
54.2347
8.26967e-14
8.76428e-14
8.20574e-14
8.42236e-14
8.19408e-14
8.73913e-14
8.14854e-14
8.2858e-14
8.52257e-14
8.41391e-14
8.85626e-14
8.22962e-14
52.926
1.10059
8.49724e-14
15.5215
8.71195e-14
3.72316
0.503403
8.95224e-14
8.20919e-14
8.42067e-14
8.44554e-14
8.63696e-14
8.73639e-14
8.91605e-14
8.55619e-14
1.18113e-13
8.87749e-14
8.61184e-14
8.99059e-14
8.09292e-14
8.63437e-14
7.94504e-14
8.51652e-14
1.10392e-13
9.30575
8.82007e-14
99.7474
8.71029e-14
5.3609e-05
4.0954e-06
49.1691
21.3672
8.19774e-14
8.03532e-14
9.08984e-14
8.62866e-14
8.30721e-14
8.51086e-14
8.55825e-14
7.97083e-14
8.77497e-14
100.283
8.05734e-14
7.97952e-14
7.93239e-14
8.56183e-14
38.4621
8.90777e-14
8.2014e-14
8.13008e-14
1.94583
9.57809e-14
524.799
8.83374e-14
8.33445e-14
9.48697e-14
8.43281e-14
9.17001e-14
8.09968e-14
3.46766
10.6659
7.74727e-14
7.78294
7.53084e-14
8.14377e-14
8.6409e-14
8.56804e-14
8.40986e-14
7.70562e-14
8.97176e-14
7.988e-14
9.04703e-14
8.23367e-14
8.36177e-14
8.76852e-14
8.38938e-14
8.68846e-14
19.5605
8.25067e-14
8.3019e-14
8.14217e-14
8.58399e-14
745.821
8.35674e-14
8.73055e-14
8.7167e-14
2.16194
9.06444e-14
8.39186e-14
8.26429e-14
18.0606
8.62994e-14
20.2814
8.70266e-14
4.47021
8.05484e-14
1.11103
8.69076e-14
8.10964e-14
8.50676e-14
8.84167e-14
8.0055
8.22273e-14
8.00531e-14
8.60705e-14
170.559
8.12403e-14
8.2945e-14
8.93562e-14
177.33
8.35385e-14
8.97041e-14
7.97435e-14
8.68601e-14
8.54935e-14
9.66757e-14
1.09145e-13
7.7523e-05
8.07981e-14
8.1458e-14
8.22228e-14
0.947429
8.05584e-14
7.89133e-14
8.76886e-14
8.40619e-14
11.1112
8.66264e-14
8.92508e-14
1.71749e-06
8.80224e-14
8.4372e-14
8.69714e-14
8.81722e-14
9.56704e-14
7.89991e-14
4.36021
7.9609e-14
7.74835e-14
8.00644e-14
8.35695e-14
8.81302e-14
8.18559e-14
9.52076e-14
9.76935e-14
12.7286
7.99072e-14
8.38284e-14
8.30395e-14
1.62045e-09
607.363
8.54347e-14
8.09764e-14
8.64993e-14
0.000551733
8.92044e-14
8.36125e-14
8.43237e-14
0.761398
8.49201e-14
29.3224
8.90978e-14
8.56813e-14
0.0402187
8.93251e-14
8.02221e-14
7.85058e-14
3.37841
15.6789
50.1428
66.1889
8.75843e-14
9.00207
8.91312e-14
8.66188e-14
8.46608e-14
8.56913e-14
8.57882e-14
14.4637
8.67948e-14
9.57301e-14
6.28988e-05
8.70503e-14
9.04161e-14
8.58743e-14
59.5632
8.29851e-14
9.4208e-14
1.87243
1.0859e-13
7.38801e-14
8.7375e-14
8.71974e-14
25.5835
3.11483
8.30684e-14
8.95202e-14
11.7203
8.25307e-14
8.91167e-14
7.95657e-14
1.06906
8.78133e-14
8.25675e-14
9.26889e-14
7.90815e-14
8.8935e-14
8.34588e-14
8.04799e-16
8.74306e-14
8.72035e-14
8.75363e-14
33.9412
8.60242e-14
106.94
9.89618e-14
9.09461e-14
8.3366e-14
8.82777e-14
8.51009e-14
9.17892e-14
9.0046e-14
8.31845e-14
9.04235e-14
8.56994e-14
7.50496e-14
3.0259
25.0832
8.26967e-14
28.9705
8.96049e-14
3.07006
8.85328e-14
8.51511e-14
8.11848e-14
7.78565e-14
2840.83
7.96699e-14
5.64939e-05
7.84834e-14
7.62449e-14
8.88203e-14
8.72368e-14
8.33423e-14
8.14134e-14
4.71669e-09
8.50754e-14
8.21896e-14
8.21072e-14
8.96445e-14
8.98799e-14
8.93649e-14
0.211303
8.36662e-14
8.24032e-14
2.70518
8.31618e-14
8.18359e-14
8.93424e-14
8.77171e-14
8.32539e-14
8.29998e-14
7.93569e-14
8.92458e-14
7.83002e-14
8.84298e-14
26.2382
564.96
7.58376e-14
8.73102e-14
8.96634e-14
8.34336e-14
8.36338e-14
1.08631e-13
8.73143e-14
8.95484e-14
0.0025202
8.86802e-14
8.72456e-14
8.27552e-14
7.7702e-14
77.9501
8.47068e-14
8.19001e-14
7.44748e-14
8.1564e-14
8.11221e-14
5.9711
7.81787e-14
131.99
8.15871e-14
8.54947e-14
8.87804e-14
25.5055
7.95572e-14
8.18408e-14
3.33871e-08
8.48774e-14
20.0608
9.24258e-14
1.6893e-06
9.09268e-14
8.31286e-14
7.95858e-14
8.232e-14
1.1173e-06
8.9476e-14
8.65804e-14
32.1809
8.26864e-14
8.68849e-14
7.83386e-14
7.80758e-14
8.75858e-14
10.4106
8.89921e-14
8.53019e-14
3.14293
8.19601e-14
62.3052
7.85602e-14
8.77071e-14
8.42782e-14
8.95884e-14
8.99094e-14
8.58685e-14
14.5677
9.21748e-14
8.73781e-14
8.19335e-14
9.16935e-14
8.3274e-14
47.4353
8.16278e-14
8.74715e-14
8.76009e-14
9.00438e-14
8.22788e-14
8.225e-14
125.791
9.0235e-14
1.15374
7.64199e-14
8.20169e-14
0.202438
8.63052e-14
47.5227
8.90977e-14
4.62857e-12
15.4132
50.0865
9.13677e-14
8.76052e-14
8.65926e-14
739.356
9.2008e-14
8.72799e-14
8.87506e-14
8.46411e-14
8.48028e-14
8.16453e-14
8.4545e-14
8.82475e-14
8.46661e-14
8.77763e-14
8.34826e-14
1.08803e-13
8.81224e-14
80.3068
7.96202e-14
8.26508e-14
8.08627e-14
9.08471e-14
8.83745e-14
8.72304e-14
730.858
3.64523e-05
8.5749e-14
9.04353e-14
9.8636e-07
17.9307
8.36347e-14
8.31752e-14
8.34186e-14
8.42789e-14
8.14987e-14
8.49301e-14
32.7832
8.39937e-14
8.72819e-14
1.10819e-13
8.67484e-14
8.24948e-14
8.54262e-14
8.20915e-14
8.37707e-14
8.03852e-14
8.1379e-14
1.65064e-14
8.46965e-14
108.327
8.84709e-14
8.56361e-14
8.73703e-14
11.7268
24.4222
8.03121e-14
8.58787e-14
127.808
8.56402e-14
8.19498e-14
8.6454e-14
1.23273e-13
8.64306e-14
8.4257e-14
8.79412e-14
8.84282e-14
0.00768211
8.44565e-14
9.14548e-14
1.58921e-05
43.0949
8.27671e-14
8.60169e-14
8.16123e-14
8.91661e-14
8.45801e-14
9.18832e-14
8.38067e-14
1.98077
8.67349e-14