/*--------------------------------*- C++ -*----------------------------------*\
  =========                 |
  \\      /  F ield         | OpenFOAM: The Open Source CFD Toolbox
   \\    /   O peration     | Website:  https://openfoam.org
    \\  /    A nd           | Version:  10
     \\/     M anipulation  |
\*---------------------------------------------------------------------------*/
FoamFile
{
    format      ascii;
    class       volScalarField;
    location    "50";
    object      p;
}
// * * * * * * * * * * * * * * * * * * * * * * * * * * * * * * * * * * * * * //

dimensions      [0 2 -2 0 0 0 0];

internalField   nonuniform List<scalar> 
10435
(
0.0160218
0.0565776
-0.496403
-0.131844
-0.310489
-0.735989
-0.449949
-0.442346
-0.477315
-0.698019
-0.0134744
-0.363585
-0.578922
0.144214
0.137676
-0.457768
0.147169
-0.753501
-0.507478
0.00170498
-0.444529
-0.170522
-0.467924
-0.494592
-0.596163
0.0245363
0.0897353
-0.525626
0.0464827
-0.684584
-0.542664
-0.057262
-0.441955
0.066832
-0.466877
0.112809
-0.473647
0.0662814
0.0388645
-0.509963
-0.792312
-0.461426
0.172839
-0.0523142
-0.479445
-0.510817
-0.765752
0.165745
-0.469696
-0.200246
-0.443409
-0.598981
0.0130642
0.0462302
0.0442851
0.0505946
-0.474405
0.0728126
0.134255
-0.46555
0.0397877
0.0804028
0.0473361
-0.506332
-0.480077
-0.516273
0.112165
0.153397
-0.433524
-0.476969
0.0826463
0.0237482
0.145181
-0.475604
0.12573
0.173772
-0.434336
-0.438396
-0.450897
0.115676
-0.276278
0.0360252
0.0298994
0.0484374
-0.321948
0.11283
0.0752071
-0.0178495
0.132423
0.0492565
-0.0551814
-0.109409
0.00332996
0.117736
0.0274902
0.126142
-0.164031
0.140312
0.147093
-0.224169
0.133677
-0.397104
0.0984105
0.00833372
-0.483674
-0.0913969
-0.0417698
-0.232424
-0.369495
0.104171
-0.185666
-0.305931
0.0638708
0.0842897
-0.162093
-0.142194
-0.277858
0.0956459
0.00791997
-0.276898
-0.31263
0.147399
0.0781789
0.156365
-0.0951627
0.0393538
-0.223673
0.161762
-0.301701
0.0848999
0.156703
-0.0409383
-0.445549
0.125588
0.0355935
0.0713533
0.143202
-0.183776
0.0381089
-0.107399
-0.0515304
-0.485572
0.113654
-0.472549
-0.209115
0.1513
0.152648
-0.584925
0.160332
-0.445879
0.117412
-0.477243
0.0351696
-0.467581
-0.645193
0.0363606
-0.156155
0.0596903
-0.678369
0.039169
-0.483781
0.133666
-0.085775
-0.347463
0.117967
-0.3549
-0.448386
-0.288309
-0.420236
-0.458559
-0.61258
0.131111
0.072845
0.14305
-0.445271
0.0707014
0.0980988
0.180596
-0.163276
0.0480333
0.0247869
-0.653713
-0.40797
0.0387956
-0.502443
0.161292
0.151481
-0.422393
-0.398761
-0.516767
-0.344275
0.0404783
0.0565129
0.129328
-0.228466
-0.432611
0.155202
0.12741
0.186879
-0.46765
0.118728
0.0600802
-0.550886
0.0818329
-0.526841
-0.168403
-0.0358195
-0.237537
0.0463081
-0.256272
0.107995
-0.439529
-0.391829
-0.379443
0.0641476
0.152706
0.0966961
0.0438799
0.0156155
0.140682
0.0494493
0.165236
0.109659
0.148203
0.0137177
-0.455788
0.0256361
0.1374
-0.541361
0.161062
0.173514
-0.454681
0.0214889
-0.483065
0.109128
0.142572
-0.483728
0.00580018
-0.466704
-0.556295
-0.0156691
0.00994677
0.0699216
0.0612227
-0.15036
-0.454256
0.136112
-0.410762
0.0474923
0.0937804
0.0543316
0.10305
-0.622311
-0.303038
-0.439406
-0.400822
0.0488366
-0.456758
0.0591736
0.110342
-0.462492
-0.579435
0.0105469
-0.395907
0.0748944
0.161776
0.0149996
-0.511646
0.041098
-0.227213
-0.469659
-0.434052
-0.447438
-0.553302
0.0149072
-0.314798
0.0711081
-0.233877
-0.448079
-0.436651
-0.637853
0.1757
-0.482884
0.14335
0.0847595
0.0439204
-0.456652
0.030978
0.0545327
0.0632255
0.140848
0.00214873
0.0622849
-0.447057
0.0331123
0.0651493
0.153436
0.0467887
-0.161274
-0.546156
0.182113
-0.446641
-0.499341
0.0501814
-0.111708
0.14719
0.177838
-0.467355
-0.523056
0.0621133
-0.10977
0.0269746
0.112244
-0.536936
-0.472665
0.0608803
0.0262061
-0.510164
0.152585
-0.328564
-0.587817
0.0428234
0.0597632
0.0537339
-0.445624
-0.57041
0.0209537
-0.520665
0.135697
0.0927138
-0.467175
0.0754615
0.0674132
-0.471617
-0.464726
0.0726364
0.0569727
0.0513384
0.0701578
0.0583346
0.0317142
0.0200595
0.0517215
0.0714463
0.0567719
0.0584537
0.0937471
0.110625
0.0581417
-0.432136
0.0659688
-0.54284
0.0866025
-0.533194
-0.451709
-0.478561
-0.610752
-0.495041
0.0604613
0.0598089
0.0514567
0.0364492
0.0513863
0.0490044
0.0503788
0.0456499
0.113914
-0.416939
0.0431064
-0.451898
0.0388923
0.0605525
-0.618697
-0.487544
0.0577449
0.101459
0.0612902
0.10313
0.0507559
0.0204051
0.109082
0.0304204
-0.433305
0.111208
-0.420998
-0.464486
-0.550585
-0.567381
-0.467082
-0.508746
-0.466168
0.153746
0.131089
0.0466558
0.0592122
-0.490243
0.0518392
-0.625404
0.115296
0.0350877
0.0869594
0.0795626
0.0222752
-0.459092
0.0938687
-0.427448
-0.454855
0.10346
0.0250466
0.112601
-0.506651
0.100211
0.0345163
0.010293
0.0480887
0.159975
0.0477963
-0.495309
0.0648343
0.0210353
0.0439897
0.0883078
-0.690305
0.0932233
0.0686511
-0.507812
0.0630015
0.0372725
0.162053
0.208731
0.27426
0.303534
0.327372
0.325174
0.326681
0.331894
0.00957465
0.140953
0.178395
0.243774
0.269396
0.296023
0.303272
0.313258
0.319495
-0.0244915
0.114357
0.14649
0.214474
0.239683
0.269937
0.281538
0.294112
0.300299
-0.0591084
0.0829728
0.114906
0.186988
0.213301
0.246402
0.25938
0.272957
0.280967
-0.0895318
0.0557657
0.0874667
0.162135
0.188726
0.223811
0.237949
0.252818
0.261576
-0.116417
0.0313704
0.0619412
0.138593
0.165002
0.201875
0.216982
0.232774
0.24167
-0.140478
0.00832628
0.0376371
0.115913
0.142083
0.180676
0.196512
0.213006
0.222842
-0.160892
-0.011987
0.0155692
0.0948084
0.120581
0.160676
0.177117
0.194541
0.205322
-0.177104
-0.029472
-0.00376003
0.0755232
0.10116
0.142405
0.159465
0.17803
0.189923
-0.187626
-0.0409206
-0.0193354
0.0600679
0.0842358
0.126191
0.143813
0.163383
0.177263
-0.192774
-0.0486009
-0.0308904
0.0478893
0.0700702
0.112072
0.130015
0.149946
0.165038
-0.1915
-0.0551026
-0.0398059
0.0373694
0.0584551
0.100122
0.118034
0.137813
0.152451
-0.183044
-0.0555968
-0.0445136
0.0298807
0.0496107
0.0904112
0.107861
0.127368
0.142311
-0.166205
-0.0511731
-0.0437146
0.0260162
0.0434021
0.082504
0.0991554
0.11835
0.130823
-0.142986
-0.0417073
-0.0383359
0.0256822
0.0400787
0.0771718
0.0920598
0.111248
0.122343
-0.113979
-0.0281351
-0.0295547
0.0278559
0.0386418
0.0737748
0.0867139
0.105127
0.115924
-0.0793796
-0.012479
-0.0180205
0.0317653
0.0389861
0.0700798
0.0827436
0.0998941
0.110568
-0.0408376
0.00513952
-0.00363329
0.0373004
0.0414511
0.0677585
0.0803537
0.0956886
0.10615
-0.00111781
0.0241396
0.0117162
0.0437507
0.045208
0.0679008
0.0785842
0.0920993
0.101151
0.0325049
0.0427127
0.0271522
0.0494965
0.049338
0.0681697
0.0761194
0.0890924
0.0970374
0.0539304
0.0551505
0.0368123
0.0533527
0.0529345
0.0676342
0.0746363
0.0863524
0.093924
0.0619741
0.0584301
0.0382605
0.0547719
0.0549354
0.0663592
0.0736691
0.0826037
0.091697
0.0604211
0.0571525
0.0392235
0.0559936
0.0550808
0.0643647
0.0715359
0.0797778
0.0897359
0.053916
0.0512089
0.0363613
0.0524125
0.0521252
0.0609764
0.0681949
0.0771853
0.0845738
0.0467412
0.0635684
0.0517042
0.0521005
0.0519409
0.0596763
0.0652474
0.0752587
0.0819807
0.106718
0.132155
0.155793
0.180143
0.20473
0.230087
0.256084
0.283115
0.311114
0.340253
0.370182
0.400913
0.432194
0.463807
0.495222
0.526109
0.555973
0.584478
0.611201
0.636011
0.658769
0.679599
0.698447
0.715207
0.729276
0.740195
0.749304
0.755886
0.758728
0.758586
0.755226
0.748072
0.738161
0.725668
0.709659
0.690752
0.669442
0.646089
0.620861
0.593966
0.565563
0.53592
0.505345
0.474197
0.442828
0.41154
0.380639
0.350339
0.320989
0.292719
0.265584
0.239517
0.214527
0.190458
0.167247
0.144664
0.122376
0.100431
0.0767705
0.22938
0.251628
0.272631
0.294264
0.315838
0.337841
0.359896
0.382563
0.405538
0.428536
0.451063
0.473973
0.497033
0.519895
0.542314
0.56431
0.585659
0.606335
0.626176
0.645149
0.663061
0.679771
0.694905
0.708278
0.719702
0.729016
0.73616
0.741021
0.743306
0.743027
0.74008
0.734454
0.726393
0.716025
0.703459
0.68899
0.672811
0.655216
0.636465
0.616781
0.596285
0.575139
0.553446
0.531418
0.509171
0.486854
0.464488
0.441829
0.419063
0.39657
0.374575
0.352868
0.331503
0.310436
0.28974
0.269271
0.248904
0.228618
0.206796
0.261691
0.27814
0.294033
0.310774
0.327916
0.345896
0.364426
0.383624
0.40295
0.422838
0.443306
0.46435
0.485445
0.506653
0.527696
0.548556
0.569032
0.589078
0.608482
0.627122
0.644713
0.661042
0.675794
0.688751
0.69969
0.708519
0.715157
0.719496
0.721414
0.720968
0.718113
0.712849
0.705293
0.695578
0.683816
0.67021
0.654935
0.638233
0.620291
0.601372
0.581664
0.561415
0.54076
0.51987
0.498891
0.477905
0.457065
0.436464
0.416114
0.396108
0.376635
0.357723
0.339508
0.321973
0.305198
0.288963
0.273238
0.257791
0.241484
0.319186
0.332471
0.34573
0.359723
0.374322
0.389596
0.405042
0.420967
0.43706
0.4534
0.469772
0.48641
0.503168
0.520074
0.536903
0.553712
0.570326
0.586717
0.602709
0.618221
0.63301
0.646873
0.659503
0.670674
0.680145
0.687785
0.693482
0.697176
0.698774
0.698363
0.695953
0.691557
0.685248
0.677134
0.667345
0.656071
0.64346
0.629723
0.615043
0.599686
0.583826
0.567679
0.551343
0.534945
0.518511
0.502104
0.485728
0.46942
0.453194
0.437056
0.421111
0.40525
0.389634
0.374496
0.360077
0.346124
0.332664
0.3193
0.305428
0.337097
0.346563
0.356935
0.368283
0.380506
0.393486
0.40688
0.420904
0.435159
0.449768
0.464543
0.4797
0.495103
0.51081
0.526605
0.542459
0.558114
0.573495
0.588409
0.602789
0.616437
0.629198
0.640821
0.6511
0.659795
0.666793
0.671994
0.675377
0.676859
0.676521
0.674421
0.670565
0.664993
0.657769
0.648988
0.638807
0.62735
0.614803
0.60134
0.587197
0.572539
0.557562
0.542361
0.527078
0.511789
0.496592
0.481549
0.466655
0.451865
0.437138
0.422646
0.408527
0.395019
0.382179
0.370121
0.358721
0.348233
0.338187
0.328243
0.350861
0.361202
0.37251
0.384183
0.395823
0.407276
0.418826
0.430899
0.443333
0.456325
0.469551
0.483062
0.496689
0.510566
0.524529
0.538561
0.552416
0.566012
0.57914
0.591764
0.603739
0.614952
0.62519
0.634322
0.64207
0.648337
0.653014
0.656109
0.657532
0.65731
0.655558
0.65226
0.647466
0.641204
0.633571
0.624729
0.614798
0.603943
0.592359
0.580202
0.567599
0.554699
0.541602
0.528445
0.5153
0.502249
0.489286
0.47644
0.463771
0.451389
0.439376
0.427717
0.416182
0.404739
0.393635
0.382628
0.372201
0.361807
0.352098
0.340972
0.353364
0.364918
0.37684
0.388883
0.401324
0.413825
0.426528
0.439206
0.452088
0.464989
0.478074
0.491179
0.504424
0.51768
0.53099
0.544063
0.556836
0.569083
0.580758
0.591832
0.60214
0.611369
0.619649
0.626702
0.632423
0.636687
0.639515
0.640885
0.640791
0.639367
0.636565
0.632415
0.626875
0.620063
0.612217
0.603363
0.593563
0.583091
0.572039
0.560523
0.548583
0.536397
0.524087
0.511727
0.499391
0.487132
0.475038
0.463073
0.451253
0.439536
0.427893
0.416448
0.405187
0.39424
0.383501
0.37298
0.362197
0.350502
0.340498
0.354626
0.367137
0.379987
0.392403
0.404754
0.416882
0.429077
0.441137
0.453275
0.465312
0.477523
0.489782
0.502028
0.514317
0.52638
0.538027
0.549406
0.560553
0.571348
0.581603
0.590934
0.599175
0.606624
0.612944
0.617986
0.621847
0.624376
0.625636
0.625675
0.624451
0.622183
0.618755
0.613992
0.608129
0.601314
0.593511
0.584989
0.575688
0.565688
0.555329
0.544751
0.533856
0.522908
0.5119
0.500949
0.48991
0.478833
0.467742
0.456638
0.445759
0.434965
0.424082
0.412979
0.401681
0.390125
0.378242
0.366108
0.352509
0.339244
0.351896
0.363554
0.376026
0.387702
0.400008
0.411852
0.42362
0.436596
0.448956
0.460866
0.472683
0.484084
0.495546
0.507315
0.51838
0.530494
0.542156
0.552392
0.562018
0.570763
0.57874
0.586315
0.593746
0.599577
0.604149
0.60803
0.610753
0.612166
0.612265
0.610816
0.608575
0.605531
0.601301
0.596232
0.590077
0.582454
0.575158
0.567287
0.557686
0.547561
0.537725
0.52719
0.516823
0.505523
0.494926
0.48465
0.473789
0.463453
0.452673
0.441637
0.431005
0.420154
0.409451
0.398645
0.387315
0.376518
0.366059
0.3552
0.0676565
0.0766061
0.079066
0.0770999
0.0651983
0.0380509
-0.000919717
-0.0440636
-0.0841521
-0.119582
-0.148306
-0.170897
-0.186456
-0.193491
-0.192868
-0.185767
-0.172849
-0.153998
-0.130403
-0.102919
-0.0722712
-0.0382351
-0.000507576
0.0356163
0.0644119
0.0909736
0.0866549
0.0787156
0.0758027
0.0669985
0.0494926
0.0263611
0.00450653
-0.0155113
-0.032492
-0.0467705
-0.0564275
-0.0604546
-0.0590982
-0.0514852
-0.0425786
-0.0295028
-0.00979642
0.0132977
0.0394837
0.0672559
0.097902
0.132094
0.161007
0.184114
0.0617964
0.0581901
0.0531318
0.0497221
0.0428571
0.0289304
0.00949381
-0.00838812
-0.0243561
-0.036773
-0.0457573
-0.0507771
-0.0508262
-0.0455949
-0.0356732
-0.0227663
-0.00558222
0.0155755
0.040218
0.0675457
0.0963963
0.127053
0.161482
0.195783
0.22847
0.0609208
0.0642287
0.0639877
0.0605632
0.0559359
0.0488434
0.039531
0.0304463
0.02298
0.0180374
0.0155124
0.0162166
0.020481
0.0282166
0.0393719
0.0529396
0.0697565
0.090337
0.113576
0.139129
0.165721
0.193456
0.223335
0.255197
0.288698
0.0584781
0.0585592
0.0584828
0.0557932
0.0509193
0.0441513
0.0374007
0.0311267
0.0268424
0.026225
0.0272718
0.0305052
0.0376527
0.0471607
0.0596361
0.0747009
0.092597
0.113318
0.136687
0.162092
0.188763
0.215847
0.244189
0.275841
0.312897
0.0631061
0.062877
0.0632386
0.0629601
0.0618593
0.0600313
0.0570843
0.0550879
0.0559366
0.0582016
0.0609876
0.0665459
0.074961
0.0854516
0.0980452
0.112878
0.129906
0.149345
0.170802
0.19392
0.218204
0.242847
0.267731
0.294376
0.325544
0.0679973
0.0668676
0.0663645
0.0660073
0.0644232
0.0638441
0.0640597
0.0635971
0.0645444
0.0673959
0.0723237
0.0795741
0.0889255
0.100162
0.113231
0.127952
0.144499
0.162969
0.183239
0.205288
0.228297
0.251471
0.275153
0.296341
0.315483
0.0712213
0.0697925
0.0692852
0.070077
0.0717468
0.0720934
0.0734381
0.0754768
0.0786405
0.0828514
0.0888801
0.0970764
0.106719
0.118012
0.130814
0.14477
0.160078
0.177175
0.196324
0.217176
0.238881
0.260653
0.282894
0.30189
0.31394
0.0762584
0.0757262
0.0753588
0.0745021
0.0749727
0.0758404
0.0784017
0.0813699
0.0859779
0.0907731
0.097613
0.107092
0.117071
0.129499
0.142829
0.156921
0.171202
0.186739
0.204242
0.223042
0.243847
0.26402
0.284053
0.304349
0.317863
-0.653754
-0.65871
0.668976
0.356658
0.183302
0.151623
-0.180996
0.355635
0.703147
0.351485
951.85
0.278863
-0.496336
0.0408259
-0.49093
0.462732
1.35623
0.350115
0.376486
1436.98
-0.938004
0.56088
39.3142
0.183951
0.290768
0.471063
0.286275
0.0685727
-1.45658
1.81421
0.297929
0.49159
22.3428
-0.636411
3.43199
0.311167
-0.28457
-0.455926
-0.350748
0.231481
418.031
0.448939
0.527015
0.104862
0.115889
0.586756
1643.58
1821.88
-3.40808
-7.67374
1733.16
500.595
-0.756252
0.343612
-0.181394
0.677659
0.0375533
-0.836261
0.101745
-799.196
0.294571
0.660855
0.175901
0.543484
0.365313
0.0966477
0.197636
0.198768
-0.500748
-4.60787
0.651958
0.57959
0.206145
497.159
0.181418
-0.925917
48.0933
829.07
0.0592005
0.340834
-0.645948
0.280284
0.423395
4157.42
0.228771
0.269592
0.248846
792.21
32.1712
0.120099
0.141875
0.1339
0.463157
0.283409
0.194014
856.956
0.474329
1676.41
0.45647
-639.08
0.0789303
407.687
0.0772603
0.583735
0.113612
0.0800019
34.4982
-0.636829
0.383122
1.68503
0.551435
0.32729
1.76539
0.581332
-0.780616
-3.18403
248.324
0.233066
-0.596602
0.372179
0.42388
0.323294
0.194355
0.311284
20.6436
0.522319
447.411
287.158
0.0464327
1939.86
0.419792
588.879
-7.70939
-0.575643
0.0772628
0.238928
0.121724
0.0886205
0.348675
-728.818
0.561265
-0.280654
-234.579
0.427342
-2.00989
0.475367
0.355431
11.7432
0.450768
3.33347
-0.0716157
0.00476405
0.357144
-0.567215
0.24495
4027.98
0.174238
0.255976
189.921
0.358178
0.522206
0.681233
0.502718
1643.04
0.4803
4134.3
0.0370163
0.235843
0.517226
0.165645
0.0460616
0.555486
0.184664
4148.69
0.159846
0.0732569
-0.887085
-2.13049
-60.7782
0.565477
-0.738497
0.490594
-0.723113
-0.825743
0.083757
0.433222
4107.35
0.379815
47.9589
0.421491
632.087
-245.253
0.134658
-0.257987
-0.866797
33.0626
0.189979
0.557753
-2.50929
-0.938395
-0.501785
0.571223
0.28192
0.411709
-0.0509454
0.357919
0.189133
0.0756828
-3.09652
0.256514
0.116324
0.303949
-0.702269
-0.0506971
-0.0771215
232.707
0.14917
0.398089
0.605382
0.110056
0.0770774
0.448451
0.265272
0.603208
0.301114
289.806
0.149007
1.30249
0.388413
0.203022
4044.65
0.322078
0.487306
0.426404
-0.328364
0.352659
106.412
0.0661965
-0.788888
0.195405
0.253906
0.283119
0.481158
0.0896639
0.21917
0.312451
0.499988
0.0956809
0.464391
0.450037
0.391698
0.0734078
0.245556
-2.9305
0.466947
0.193136
2.08028
-123.356
187.732
0.369427
0.171598
0.0343689
0.410938
0.237843
276.644
0.331861
0.398787
0.368496
-0.175454
0.243629
-0.919502
0.124071
0.459287
0.397803
0.411111
0.363271
0.181431
0.843509
0.0358826
402.896
0.105023
-0.0718961
0.203199
0.588057
-92.5637
0.351681
0.0739842
0.312297
385.239
828.834
-0.150441
0.513817
0.447147
575.486
-0.558828
213.656
26.1694
0.145877
0.351125
-624.726
115.5
0.519159
0.26872
0.410331
1.31741
0.44724
-0.960708
0.194838
435.427
0.300538
0.580922
0.535302
48.6593
0.0469908
0.458643
-0.252231
1469.99
0.251352
0.304676
-0.495738
140.323
0.496119
0.26815
0.302053
0.254669
0.341929
254.32
-0.662469
0.146862
-0.832728
0.472639
-0.59852
0.0778502
0.356345
712.305
0.267885
0.407136
0.445014
0.377392
0.183797
0.308366
0.262374
-914.168
0.525428
252.077
0.147027
0.1119
0.465362
0.221475
3675.71
0.165051
0.460935
0.443582
119.144
462.143
0.301575
-0.446116
0.0911162
0.481822
4101.58
-3.03501
52.0505
0.428229
288.117
0.446639
0.232172
0.519938
1093.67
0.41085
37.7245
0.563967
4.44499
-1.30997
0.785142
-0.505892
0.351224
0.341712
0.496535
0.352897
0.344906
18.7152
0.5372
14.3239
0.107457
0.100393
-0.527824
0.487763
1334.2
738.38
459.733
-0.120023
0.369853
0.105758
0.458787
-0.780961
0.360663
0.452081
8.67595
0.265255
-1.49483
0.343552
0.530072
0.219386
-1.23999
0.247705
0.425527
-0.232109
0.105286
-0.0254696
0.254665
0.140806
0.403407
-705.524
0.346784
0.483885
0.294753
-4.58839
3422.75
0.311383
0.139173
0.49369
0.348986
0.123477
0.0740368
0.535655
1102.05
0.380472
0.244804
0.209206
0.491636
0.410045
0.18658
0.115179
0.0790384
-0.170378
0.516026
0.55171
0.44615
0.465854
0.284452
0.369039
0.244543
378.806
0.0577826
-0.511093
0.51564
0.0662609
0.341355
0.107491
0.0612036
0.750704
0.504586
0.49572
-545.645
0.530584
-3.6364
4154.42
0.296644
0.142379
343.804
0.518773
0.0825371
0.106005
-0.704934
571.645
0.260801
0.135576
0.627034
0.377924
677.173
0.0964203
0.232958
33.366
0.289374
0.32464
-0.559952
0.117931
0.195912
6.29283
-0.857783
-0.0869578
-0.408417
0.440178
0.266451
4090.93
0.214915
0.306171
0.589619
-0.339453
0.569681
-0.792231
0.495196
0.335555
0.407445
0.406506
0.120039
-0.663104
0.374359
0.445323
33.1909
0.525276
-0.172989
0.382098
0.0818804
-0.8459
-0.66172
0.40809
0.426538
-0.221506
0.494786
0.532841
-0.669786
0.164833
0.118389
0.431633
1054.2
1.3697
-6.29891
0.346412
-0.0992958
0.484887
885.676
1465.5
0.412198
-0.593376
0.598246
828.067
171.484
0.348135
0.568146
0.0772815
0.573613
0.372126
0.509541
0.369093
0.0396679
0.528206
-302.595
-2.78686
0.50018
-0.509272
1.61594
0.554997
49.8236
0.446037
0.575248
0.464188
0.0779005
0.383898
0.878467
-0.320431
-0.407186
0.0402691
-2.96249
-4.65354
1367.32
0.25743
0.52173
-0.54652
268.138
0.200143
-0.589141
0.528344
-0.526617
2.10489
0.355483
-0.101262
0.0962464
0.495754
0.171628
49.3429
0.602994
-0.540484
0.130735
0.160447
1.5631
3101.73
-72.0526
0.0754905
0.173164
-1547.04
-0.71228
0.568173
0.486839
0.382487
4.41578
0.548774
0.147462
-0.311507
0.572992
0.134274
0.214557
0.540178
6.36451
0.535794
0.0916471
-0.587561
-6.42474
0.201696
0.485886
-817.761
0.0632897
0.445919
0.250661
135.493
0.471104
0.337406
0.246575
0.319312
0.502883
0.527535
-0.368604
0.323487
0.51516
0.0766004
-0.806916
0.340877
0.1183
0.561122
0.560756
0.276547
0.492146
0.505212
-0.00952238
0.210951
-763.547
4231.34
0.0678996
1.3962
0.160938
0.214078
0.225926
0.438774
0.48206
0.373851
-0.846547
0.145906
0.28468
0.00713719
2.70895
-0.100151
0.0528835
0.103117
0.550792
0.165024
0.421415
0.146177
0.0529672
-769.367
0.12136
127.038
0.404043
0.357968
0.4399
0.601502
0.251238
2845.8
0.371713
-1.05028
0.474988
608.314
0.335645
1570.5
0.431012
0.237634
0.375794
47.4285
0.369943
0.0912003
-0.746856
0.195658
0.430232
0.217178
44.5959
0.443527
0.48092
-0.558696
0.311298
0.566203
0.323811
0.458331
-0.789157
0.258027
0.444557
0.395193
0.0530695
0.492243
-2.04595
51.2506
0.495844
-0.258465
0.307351
433.053
0.398823
0.52376
0.458326
0.461582
-0.300314
0.365514
0.535552
0.10306
0.188935
0.470935
0.592335
0.579985
-713.228
-0.708495
-0.055835
1778.98
-0.330118
-0.38543
4.37913
0.407518
0.18463
0.262485
0.425913
0.48108
0.113769
0.451771
0.323122
-0.530606
0.454115
0.227117
0.136947
0.491061
0.189634
0.340062
-0.0448157
-0.700349
56.8745
0.419059
-323.691
-0.142554
-1.99993
-1.03466
188.016
478.533
0.377842
0.39043
0.443787
0.443378
0.202633
0.486185
-0.544735
-1.11835
0.507495
106.635
0.0441526
0.34539
0.347674
0.380559
4257.16
0.529252
0.398875
-0.150589
3.98332
-0.668209
450.722
0.425803
0.447991
0.125907
0.440124
-0.902714
-0.0388498
28.6454
7.03794
0.173773
9.2065
0.394394
0.419335
0.0832484
0.138105
0.0859215
0.358273
0.524963
0.1601
0.435141
0.422112
0.524331
0.465657
0.179555
0.263428
88.4701
-0.334786
0.553345
0.170043
0.550832
-762.242
0.207335
0.479363
0.563854
-1.01004
-0.0688732
0.437901
0.573719
3142.63
0.505641
45.9733
0.343797
0.977564
-0.553406
57.1744
0.523422
-0.578749
0.0231565
0.533131
63.8091
0.454941
0.329265
0.124834
27.5269
0.663733
0.486699
0.276416
-80.349
0.228808
0.5666
0.252003
0.571721
0.484876
0.823967
-1.28048
-0.826359
0.465716
0.371547
0.439316
-0.811331
-0.298515
0.503355
0.277195
0.116175
43.192
0.293908
0.151896
-1.02193
0.423301
0.465437
0.464644
0.429006
-0.869254
0.338498
-0.892019
0.293794
0.304313
-0.55193
0.575382
0.509347
0.438402
0.0761676
-0.861115
779.211
0.420167
0.348083
0.477208
-0.537928
-1065.22
0.594808
0.391294
-0.524511
-0.422738
0.388613
0.148397
0.103011
4082
0.278723
-1243.27
0.489958
0.389039
-0.797274
0.440265
0.418873
0.380537
5.12233
47.1973
-529.547
3897.66
0.427432
1.73807
-0.575625
0.550904
-0.191459
0.331888
0.100173
459.13
0.369144
0.107681
-1.06446
0.533148
0.327456
0.357955
29.6273
0.0236113
0.40812
0.731447
-1.57493
-0.528751
0.496467
0.130338
1689.77
15.0079
-0.556398
-0.809897
5.12012
-0.0113492
0.437035
-0.115744
-20.0002
0.207588
0.236065
-0.00161658
0.253203
0.495981
-0.165805
-0.822675
0.433965
0.118685
0.500457
-591.037
-0.228566
-352.196
-2.68437
0.593104
0.0657497
-0.0918174
0.115408
-1.0423
-0.851855
0.423642
0.397807
0.390363
0.402289
-1.29413
384.714
0.344941
-571.379
0.569444
99.7602
0.461985
0.297732
0.355522
0.529275
54.9762
0.0635466
-0.924403
0.487887
0.463589
-0.184761
0.214321
-0.452239
-0.55713
0.753402
0.335136
0.208606
-0.153874
0.440968
0.556469
0.272948
0.784388
0.172388
0.0840724
86.7658
-0.246489
0.134162
0.120817
0.207301
0.575256
0.121978
0.469537
-0.857657
0.446291
0.137164
-357.116
914.508
0.515206
0.510741
0.148905
-0.129523
0.368959
-1.956
0.155868
0.09663
1.51637
0.477387
0.155715
-0.0107852
0.225901
-3.15923
0.351229
0.226979
0.448145
-0.159368
-0.156496
231.757
0.276068
-85.4757
0.49151
0.187834
0.474108
-389.077
-0.735349
0.186513
1.54303
0.29586
2879.44
0.407991
-2.5697
0.200674
0.303554
0.189288
-0.174392
-0.39139
0.369508
0.495524
437.877
0.379763
0.499491
0.293077
0.447076
0.507308
1837.41
0.52014
0.473806
11.0545
0.0761937
3980.23
0.407133
0.528081
0.483325
0.292735
0.549893
0.110093
53.2434
0.304323
0.0961454
0.361922
0.11671
-0.118761
-560.265
0.456339
0.480116
0.132338
0.54413
0.332833
0.230871
498.664
0.35074
-1.04741
0.482721
-0.161828
0.748921
0.0747757
394.972
0.450596
-1.73888
71.9931
3563.1
0.35681
0.373553
0.0786868
-166.593
0.591127
0.549221
0.155668
0.165826
0.0646963
0.109208
0.218845
0.106097
0.384624
0.304375
0.304669
-1.30357
0.41886
26.8941
0.28826
0.487633
0.444181
0.321747
-0.760245
0.309646
-225.066
-0.895883
0.221219
0.535267
-2.46341
2315.43
0.408061
0.315274
0.579098
0.232957
0.334559
0.075978
183.048
0.465656
0.4363
-0.609524
0.363992
-0.0482026
-0.220424
0.469035
0.241284
0.439172
0.0803518
-0.824662
0.487146
-30.4975
0.454301
0.0765474
0.230051
306.757
362.927
0.489023
0.419453
294.725
0.292033
0.119466
-0.146619
-1.39117
0.282901
0.392986
0.33665
0.0834301
-1.1328
0.22142
0.329284
-0.925028
-513.901
0.420387
0.483002
0.179128
0.574627
0.174002
-0.671109
0.442137
71.5455
0.364169
0.546236
0.284733
-0.813274
0.477967
265.877
0.0646042
0.784245
-0.891141
-0.545836
0.386252
0.495079
300.159
-0.771192
0.40447
0.22159
0.342294
0.0794746
0.501781
0.369286
0.356719
0.365512
0.154191
0.0743912
-0.199678
0.0939815
0.135004
0.175675
3785.94
0.408094
310.944
1377.4
0.107981
0.471547
0.129993
0.185386
0.125358
-3.55648
0.518514
0.552762
0.30935
0.262678
-1.01982
367.01
0.470354
0.129528
0.167115
0.424475
0.227647
0.0787133
0.401058
0.0946092
0.0150857
-12.6039
0.464516
0.151133
1.02247
0.444961
0.119057
0.152113
0.386723
0.142977
0.22576
-0.589149
0.513453
0.462977
-138.437
0.266076
-0.131519
-0.363836
0.460751
0.29074
0.556697
-0.572662
0.494765
-0.54574
0.484325
-0.215953
2.41336
397.327
-2.604
0.274375
0.27488
430.718
-4.76916
0.126086
0.580577
0.302106
185.15
0.555316
0.156758
0.329888
0.596666
-0.114173
0.30904
0.176002
0.409201
-237.085
476.388
0.301441
0.595492
0.289764
0.493656
0.409209
-0.142266
0.588514
-0.0128804
13.5586
38.9696
0.438262
35.9255
-1.24016
445.076
-1.82437
0.0180484
-0.572889
292.91
-600.024
0.420173
-21.2367
0.450434
0.73897
0.321894
0.436797
-0.53482
-0.678686
1504.78
-0.678919
0.0755149
0.515547
-0.162304
-26.9234
0.288796
307.334
0.584766
1091.62
0.465414
-358.517
-0.0531021
0.117352
0.427653
729.163
0.322214
-0.0142729
-1600.38
0.474304
-3.14437
0.418522
0.525355
-0.426464
-0.145549
0.124954
-0.712195
-0.477621
0.585708
-0.820657
0.28786
0.500502
0.0761434
0.156932
-1.23237
-0.540538
0.39519
180.666
0.477736
-0.889312
0.291482
0.541793
0.476034
-0.908814
-0.146909
1.66216
0.467109
701.233
0.216248
-0.812032
688.258
-0.0560895
0.584028
-0.54647
0.557887
0.510392
0.444717
98.3379
-200.801
0.332586
63.0565
0.150426
0.420855
-0.219159
0.547569
0.292478
-0.525047
0.576522
0.463272
0.298856
0.315408
0.546132
0.581543
-0.612742
-576.961
0.120277
0.401474
0.460017
-0.568676
1139.56
0.360454
0.0317681
0.0755842
122.283
0.0288219
-0.146574
-0.509292
0.315667
-0.808652
324.463
0.365626
0.108279
0.393693
0.292231
0.270688
0.502887
0.110243
0.0824391
76.6637
0.451986
187.931
0.266711
1297.33
0.523108
-0.75283
-0.0616845
-1510.7
-5.17012
0.103399
-0.0177364
0.559535
0.571443
0.51558
-157.198
-387.831
0.498735
0.485468
0.181227
0.579041
0.290873
0.429284
150.345
-430.471
361.213
201.514
0.591478
0.287215
-0.578951
0.199434
-2.49764
0.443426
0.268362
0.124303
0.147317
0.354048
0.162743
0.308675
-0.040134
37.2274
-240.731
0.454604
0.127817
-0.513986
0.652369
0.455001
0.901268
-1.17079
-359.747
0.570213
442.67
0.434849
0.592579
0.556777
0.259926
0.359976
-0.116724
0.850128
0.568278
0.0740922
-1611.07
0.147766
-5.70934
2654.43
0.168185
0.0542575
0.240272
0.077488
-0.65906
0.16876
92.1233
0.123534
0.507054
0.0844241
0.570343
0.0825536
0.57306
0.471474
0.478131
0.245279
0.128463
-0.774086
0.580749
0.758921
0.455915
0.523888
0.206276
0.0881996
0.487708
0.540546
-6.14334
0.477714
210.808
0.390053
-181.126
0.572515
0.590134
0.372905
0.27695
-271.167
0.175343
0.563252
0.322215
-0.0543436
0.24591
0.392364
0.346075
0.585088
-0.172881
0.347464
0.495459
97.2917
0.32243
0.412223
0.573037
0.531482
0.357826
411.921
-2.13814
0.321386
0.469684
0.576593
0.441735
127.3
0.226209
0.420037
0.447276
-0.749874
0.0926456
0.588699
0.225577
-0.358968
1.41528
0.119272
0.430373
-449.77
0.511467
0.158495
-0.557636
0.54265
-0.128568
1049.55
0.310858
-0.625915
0.481725
0.493602
0.592192
0.389175
0.357064
-24.4139
0.535061
0.38159
263.69
0.549933
0.566636
0.257763
0.0923655
-0.232975
0.288041
0.194802
0.39906
0.498745
0.249245
0.415174
0.0917662
0.592334
1.30341
-0.7142
0.236363
-0.557789
0.112885
61.8851
1343.42
-1451.08
-728.905
0.300151
0.444436
-0.756899
0.59521
0.514495
-3.38893
0.477932
0.509929
-1656.96
-0.566119
0.565117
4127.79
0.212974
-245.748
0.139499
0.312389
0.34508
0.0773303
15.0258
0.528151
0.327963
0.0568324
0.577147
-1.08711
0.0181412
0.503278
-0.879762
0.0765203
-902.03
0.104966
194.802
0.546699
0.306207
0.146627
0.468928
-0.843282
-971.999
-1.11386
0.21268
-1.06344
77.0447
0.295932
345.856
-0.104543
0.418422
-0.997119
-315.162
0.214514
0.104687
0.15172
199.564
0.277681
0.380921
83.6
-0.877646
0.0600152
339.727
-0.69365
0.121894
0.0711923
-0.200538
0.0947158
-0.905282
0.116475
0.47921
0.414792
1.41707
0.201508
-0.152793
-595.138
0.262409
-0.125953
1.00112
0.499299
1647.73
0.451776
-1.07547
0.561955
0.350221
0.463812
0.369739
0.364955
0.135627
0.272426
0.117176
0.291379
-3.12078
-0.9439
0.404593
-1.10747
0.223261
0.385886
0.486787
0.521898
0.481072
-0.195914
0.373659
-0.230499
-14.3764
-0.246057
156.687
0.295194
0.57583
312.734
0.489876
0.164822
0.547183
0.280524
0.123871
3803.26
0.228765
0.342472
0.258592
0.0790378
0.0755475
-0.22736
-0.103305
-0.180357
-0.511004
0.433379
0.404466
0.334008
0.180876
0.21997
0.364817
0.0808955
0.423185
0.269524
0.574463
0.375222
-0.173164
-17.5139
-0.553726
0.0859808
0.335986
-0.157994
-413.222
-45.3294
0.209079
0.475554
0.0895401
0.437375
0.305833
0.0853664
-730.01
-0.123984
0.353072
0.502649
0.545461
0.123598
-324.506
0.193981
0.542489
0.302346
0.154764
-211.078
0.44214
-2.77237
0.303162
0.103786
0.127374
0.450862
-345.428
-0.0606128
0.479501
324.531
-0.987062
0.0281171
0.391203
0.51527
0.670505
150.095
384.193
0.323606
539.816
0.425102
0.429668
1.38468
-29.5679
0.287736
0.356175
-0.165907
-0.166707
0.312691
0.240161
-429.485
0.392196
0.306918
0.153348
0.241293
0.347745
0.419266
0.46786
0.26975
-0.950416
0.253318
0.276833
0.173753
0.539772
-0.0313927
0.119062
-0.855319
-0.134487
-0.111562
0.549804
0.524303
0.227988
0.339369
0.544156
0.369734
-0.925174
0.279024
0.14634
0.291931
0.234143
0.471809
0.15367
0.278979
243.785
0.235814
-38.241
0.449222
0.449264
0.448046
0.549908
0.460523
943.783
0.56025
0.194971
0.235613
0.288214
76.9314
0.404677
0.449935
0.300458
98.3743
0.289963
-417.328
0.378588
16.7769
0.425045
-0.500639
0.350591
-0.210301
0.474962
947.345
0.0904867
-0.756169
3833.46
2189.6
0.0158967
225.757
0.336597
0.188812