/*--------------------------------*- C++ -*----------------------------------*\
  =========                 |
  \\      /  F ield         | OpenFOAM: The Open Source CFD Toolbox
   \\    /   O peration     | Website:  https://openfoam.org
    \\  /    A nd           | Version:  10
     \\/     M anipulation  |
\*---------------------------------------------------------------------------*/
FoamFile
{
    format      ascii;
    class       surfaceScalarField;
    location    "50";
    object      phi;
}
// * * * * * * * * * * * * * * * * * * * * * * * * * * * * * * * * * * * * * //

dimensions      [0 3 -1 0 0 0 0];

internalField   nonuniform List<scalar> 
16133
(
1.13367
-0.286405
0.17779
-1.01332
-0.951519
0.157744
-0.239444
1.03518
-0.247465
-0.761387
0.588243
0.419841
-0.273769
0.199301
-1.50456
1.58059
-0.185711
-0.146026
1.78693
-1.45548
1.7501
0.320946
-2.20231
0.129543
-0.843772
0.247661
0.487849
0.108556
0.128677
-0.849252
0.119522
0.600966
-0.214359
0.785593
0.327009
-0.898261
-0.112656
1.36157
0.238769
-1.48958
1.20209
-1.11873
0.216908
-0.298339
1.49376
-0.488907
0.405552
-1.41161
-0.228326
-1.08145
0.602415
0.706687
0.724027
-0.675555
-0.0659919
0.0173706
0.771235
-0.0800236
0.0328231
-0.450292
0.362792
-0.971316
1.05849
0.00203229
-0.0916816
-0.586041
-1.98321
-0.0651192
1.34993
0.696161
-1.25457
0.972536
0.0672942
-0.299308
1.23448
0.199442
-0.119766
0.691623
-0.582625
0.0101421
-0.309539
-1.46454
1.50115
-1.11398
1.07569
-0.411754
1.6804
-1.38936
-0.0510573
-0.239943
-1.35319
1.49929
-0.259562
-0.00446965
0.0135166
0.0408404
-0.049954
0.0274109
0.0164842
-0.0134212
-0.0305031
0.062132
-0.601752
0.50706
0.0314811
-0.0123733
0.0743978
-0.0529771
-0.00901227
-1.20013
0.577259
0.911342
-0.381716
-1.51905
0.989843
-0.291539
0.298953
1.19622
0.337122
-0.664249
0.455944
0.00211672
0.27239
-0.0727261
-0.201748
-0.882484
-0.722405
0.758281
0.846892
-0.685428
0.122259
0.749485
-0.185467
-0.716711
-1.21526
1.04999
-0.0492518
-0.0635457
0.075974
0.0368222
0.0495016
-0.0297653
0.000614327
-0.0203511
-1.23248
0.0479464
-0.0691455
-1.50434
0.541718
-0.878976
-0.212384
-0.465301
0.260939
-0.114793
0.319324
0.0743023
1.37026
-0.189314
-1.25396
1.2611
-0.524213
-1.45237
0.624491
-0.17564
-0.059737
0.305547
-0.268691
0.0258133
0.201374
0.0413184
0.581969
0.120327
0.0832222
1.44524
-1.42223
-0.331865
-0.479612
-0.489563
-1.59469
1.89887
-1.39256
1.08815
0.0642446
0.0892565
-0.104012
-0.0362054
0.0788328
0.061334
-0.103949
0.00632099
-0.0227833
-0.0133286
0.0262481
0.0127999
-0.0514371
1.1733
-0.641903
-1.74577
-0.0641466
0.0520722
-0.0499767
0.0620831
-0.652783
0.826815
-0.0311488
-0.14302
1.07548
0.0412854
0.0433139
-0.0204077
0.133276
-0.842018
-0.241745
-0.00272064
0.0327851
-0.0308735
0.000749299
0.88021
-1.60523
1.2515
-0.526925
0.591176
-0.444084
-1.12324
0.715486
-0.354108
-0.563009
0.104509
-0.194401
0.0589536
-0.0022268
-0.107279
0.0502626
0.201427
0.609749
-1.2133
0.10958
-0.284503
-0.00711407
-0.00974272
-0.0193966
-0.0473388
-0.000760291
-0.00363568
0.0517094
-0.664487
-0.0855502
0.897423
-0.147048
0.480956
-0.851658
-0.752615
-0.125641
0.0152224
0.881752
-0.0885553
-0.595474
0.100042
0.584563
-1.39038
0.488496
-0.311089
-0.493406
0.309014
0.432307
-0.363532
0.527574
0.173311
0.879773
-0.831916
-0.173493
1.45517
-1.44229
0.313039
-0.327987
1.12732
-1.03654
0.271175
-0.361307
0.118991
0.110885
-0.140653
0.0905681
0.128308
-0.140035
1.55241
0.224509
-0.323345
-0.101704
0.0239608
0.678308
-0.599779
0.809658
-0.706757
-0.0507758
-0.0512718
1.29636
-1.15157
-0.0690815
0.517772
-0.362373
-0.0873229
-0.0680048
0.912231
-0.0532872
-0.0481665
1.46375
-0.0676675
-0.098258
1.81198
-0.147646
1.2034
-0.362203
0.623668
-0.0157053
-0.0897215
1.03213
-0.0288195
-0.0899163
-0.167352
-0.619664
0.676132
1.51738
-0.381243
0.619967
-0.011188
-0.59332
0.710445
0.235298
-0.119127
-1.34618
1.49687
-0.422695
0.271794
0.337158
-0.0794792
1.47072
-1.46906
0.21292
-0.215393
-0.0588347
-0.0304371
-0.0880217
0.118192
1.51346
-0.161931
-0.20147
1.25345
-0.348631
0.331496
-0.328468
-0.0716639
1.94373
-0.319604
0.906253
0.202762
-0.228963
0.276462
-1.36825
-0.329455
-1.40815
-0.246252
-0.953261
0.256785
-0.339562
0.240161
-0.286992
0.197426
-0.866248
-1.38933
-0.391681
1.41473
0.473845
0.750238
-1.06119
-0.180544
1.17414
-1.49135
-0.272404
1.37132
0.888327
0.824898
-0.299349
0.597395
-0.562888
-0.122685
0.828943
-0.131142
-0.750316
0.656013
0.223536
-0.129046
-1.19691
1.22114
0.293692
-0.316416
0.024318
-0.0354753
-0.0121854
0.0232217
-0.396959
0.611846
0.0858783
-0.0999288
1.80662
-1.47954
0.0379478
-0.0427109
0.0118553
-0.00709009
-0.0373194
-0.100923
-1.16322
-0.32527
-0.699509
-0.777253
-0.134771
0.0194904
-0.0368371
-0.0300399
-0.135873
0.121493
0.169004
-0.154606
-0.685024
0.741754
-0.223546
-0.343291
1.5424
-0.933399
-1.29919
-0.278751
0.210729
-0.274703
-1.13192
1.51922
0.14778
-0.208952
-0.501838
-0.370521
0.829055
-1.71928
1.26062
1.48893
0.574333
-0.570002
0.00655696
-0.0103608
0.142742
-0.171711
0.527552
-1.24286
-0.0708842
0.495437
-0.422313
1.1714
0.453692
-1.99669
-0.245057
0.0449074
-0.0686484
-0.4696
-1.6241
1.02141
-0.891175
1.41716
0.583141
1.61995
0.599618
-0.044721
0.000157087
0.177787
-0.133221
1.2967
0.225312
-0.299376
0.070302
-1.05856
0.264101
1.12892
-0.333674
1.98324
0.454013
-0.837736
-1.59901
-0.729655
-0.113578
-1.29279
1.44544
1.49079
-1.5079
-0.0559687
0.332162
0.752538
1.30743
1.38693
-0.807361
0.646936
-0.503862
-1.47333
-0.189574
1.38924
-1.0572
0.730437
-0.507929
0.83396
-1.64702
-1.67816
-0.209097
-1.07434
0.0509271
-0.497362
-0.218033
-0.0332144
0.0380474
-0.014542
0.0096914
0.193634
0.369505
1.4168
-1.36982
0.405745
-0.967858
-0.329673
-0.223351
-0.11386
0.12674
-0.225944
0.212845
-1.31595
-0.330511
-0.167383
0.205476
0.0363286
-1.66482
-0.0111296
-0.989264
0.485488
0.102073
-0.0364705
-0.525005
-0.321059
0.643145
-0.815589
0.824153
1.17536
1.11962
1.32886
-0.993321
0.141889
0.125801
-0.148712
0.0483884
0.00911962
0.823657
-0.266891
0.168079
-0.278798
0.598235
-0.718094
-0.411864
0.441234
-0.509309
-0.106108
-0.0274702
0.669768
0.582046
0.00644348
-0.0689774
0.0131478
-0.782419
0.61604
-0.121289
-0.164846
0.278124
-0.882444
1.23001
-0.148911
-0.328322
-0.041149
0.110043
-0.071573
1.47296
-0.286437
0.167986
-0.126556
0.677567
0.503853
1.39226
0.0490968
-0.0549221
-0.0409638
0.55394
0.184634
0.808361
0.202459
-0.0852551
-0.188841
0.0717205
0.0332666
-0.0377558
-0.110918
0.0978228
-0.170333
-0.0948027
0.361666
-0.526234
0.291145
0.399155
0.0610332
-0.312385
0.153393
0.493456
-0.453198
-0.00014473
-0.00745477
-0.0120769
0.0194895
0.728475
-0.028305
0.0285524
-0.000280539
-0.443418
-0.1339
1.268
-1.69905
0.169731
0.500878
0.0718108
-0.0119537
-0.286056
-0.568385
0.00494794
0.383347
-1.55388
0.00357397
-0.045195
0.0161047
0.0254923
0.0108992
-1.41329
0.0504268
0.00403998
-0.0546098
-1.10697
-0.197532
-0.79328
1.57378
-1.13094
-0.0284681
-0.0452909
0.0662934
0.119026
-0.216785
0.300252
-0.00109733
-0.0140892
0.0414034
-0.302715
0.610417
-0.583091
0.466838
0.299926
-0.168514
-0.0428791
0.0529174
-0.0100672
-0.895195
-0.31393
-0.0300177
0.0318724
-0.00194774
0.677156
-1.17493
0.0276851
0.263485
-0.0901326
0.532619
-0.0313841
0.00134062
0.100321
-0.21211
-0.0794601
0.0552619
0.0548101
0.157762
0.907909
-0.485583
-0.0864479
1.16154
0.13103
-0.117729
0.128592
0.0225939
0.0661018
-0.136376
0.2351
-0.549824
-0.0845068
0.813186
-0.373241
1.0587
-0.0385332
0.000792843
0.0783371
-1.26412
0.350406
-0.064947
-0.527764
0.215284
0.120269
0.110263
-0.51345
0.776363
-0.143351
-0.0887411
0.146855
1.82598
0.0348818
0.0779097
0.160216
-0.147515
-0.20508
0.30507
-0.332766
0.242499
-0.0781288
0.0355009
-0.0195681
-0.0154399
0.035014
0.166084
-1.1872
1.22771
0.0193522
0.111477
0.103892
-0.451014
-0.00968345
-0.0331994
-0.400929
-1.35118
0.00283135
0.0654305
0.16107
-0.148564
-0.33701
0.0126801
-0.0296784
-0.29474
0.0561311
-0.844009
-0.557992
0.0122865
0.187833
-0.0180807
-0.270208
-0.0950963
-0.00218702
0.0170921
0.0178235
0.126898
0.14899
-0.150072
0.071501
-0.593985
-0.919877
-0.0379621
-0.000523853
0.110264
-0.461197
0.0436993
0.279485
0.0854438
-0.0219838
0.0903665
0.124675
-0.149591
0.183227
-0.0360959
-0.0448119
-0.0400195
0.0369365
0.025879
-0.00435478
-0.198447
0.282892
-0.157162
0.0462006
-0.0178554
-0.0408097
0.00290437
0.023508
-0.0380592
-0.0333241
0.00434234
0.00633471
0.00542843
-0.152322
0.383495
-0.197339
0.341545
0.0450838
-0.15315
-0.0215813
0.15752
0.00601765
0.10109
0.0283775
0.230428
-0.460561
-0.209657
-0.0169004
0.0641438
-0.0759801
0.0319892
0.0335869
0.0490495
-0.012928
0.0290404
0.000816525
-0.0415663
-0.115932
0.0455969
0.53341
0.0105146
-0.0324439
-0.459387
0.246711
-0.405782
0.07732
0.0515642
-0.0120274
-0.00958109
0.00791015
-0.0211063
-0.0860889
-0.0451032
-0.00323245
0.035329
-0.108531
-0.103702
0.311963
-0.0600231
-0.369965
-0.306111
-0.106363
0.0128962
-0.327999
0.0373739
0.00219684
-0.0181624
-0.0205914
0.0474377
-0.132482
-0.0333966
-0.0122091
0.0276815
0.64989
0.0151096
-0.00674908
0.0339238
-0.240913
0.633031
0.753912
-0.379182
-0.250754
-0.158615
0.304573
-0.00313308
0.194308
-0.191175
-0.00757523
0.197223
-0.192784
-0.0135016
0.188051
-0.18213
-0.0208464
0.181712
-0.174374
-0.0294223
0.171308
-0.16274
-0.0382634
0.15921
-0.150371
-0.0449994
0.148069
-0.141324
-0.0496845
0.145969
-0.141291
0.15014
-0.143349
-0.0564705
-0.00256935
0.196865
-0.00671111
0.201358
-0.0121087
0.193444
-0.0183298
0.187928
-0.0255037
0.178479
-0.0328304
0.166536
-0.0389413
0.154179
-0.0443483
0.151393
0.157657
-0.0518629
-0.0020296
0.198902
-0.00565722
0.204988
-0.0103991
0.198187
-0.015641
0.193169
-0.0218212
0.184659
-0.0281516
0.172867
-0.033765
0.159801
-0.0392737
0.156892
0.164359
-0.045952
-0.0012875
0.200181
-0.00439606
0.208092
-0.00837916
0.202166
-0.0128667
0.197654
-0.01814
0.189931
-0.0236283
0.178356
-0.0288265
0.164995
-0.0341245
0.162222
0.170372
-0.0401236
-0.000483399
0.200671
-0.00302077
0.210632
-0.006188
0.205334
-0.00993385
0.201401
-0.0143567
0.194354
-0.0190923
0.183092
-0.0237549
0.169666
-0.0284454
0.166923
0.175435
-0.0334658
0.000365843
0.200299
-0.00152781
0.212522
-0.00386579
0.207669
-0.00684683
0.204379
-0.0104727
0.19798
-0.0145402
0.18716
-0.0185154
0.17365
-0.0222436
0.170677
0.179383
-0.0261774
0.00126946
0.199039
9.25141e-05
0.213704
-0.00142037
0.209185
-0.00366366
0.206625
-0.00651845
0.200837
-0.00991401
0.190561
-0.0131407
0.176882
-0.0159315
0.173492
0.182477
-0.019009
0.00221028
0.196825
0.00181185
0.214101
0.00108146
0.209914
-0.000412509
0.208119
-0.00250176
0.202928
-0.00526154
0.193319
-0.00779924
0.17945
-0.00985867
0.175572
0.184749
-0.0121081
0.00323022
0.193607
0.00361423
0.213723
0.00367203
0.209859
0.00288142
0.208913
0.00153198
0.20428
-0.000571545
0.195432
-0.00259465
0.18148
-0.00429868
0.177333
0.186423
-0.00596019
0.00416848
0.189435
0.00548745
0.212403
0.00628683
0.209061
0.00628958
0.20891
0.00566053
0.20491
0.00410381
0.196991
0.00229888
0.183312
0.000420026
0.179226
0.188095
-0.00124053
0.00521006
0.184236
0.0075776
0.210042
0.0091934
0.207448
0.00999618
0.208109
0.00991301
0.204995
0.00867169
0.198232
0.00668189
0.185317
0.00432928
0.181615
0.190098
0.00232393
0.00638307
0.177851
0.00963914
0.206786
0.0122286
0.204859
0.0137362
0.206601
0.0140941
0.204633
0.012937
0.199403
0.0105208
0.187752
0.00771264
0.184442
0.192143
0.00566272
0.0077598
0.170103
0.0117311
0.202819
0.0152048
0.201387
0.0173471
0.204458
0.0179892
0.203992
0.0166279
0.200769
0.0137903
0.190616
0.0109269
0.187329
0.193948
0.00914345
0.00877651
0.161325
0.0136711
0.197926
0.0179668
0.197091
0.0206649
0.201758
0.0214479
0.203207
0.0197887
0.202446
0.0168566
0.193555
0.0146662
0.189548
0.193891
0.0147162
0.00984435
0.15149
0.0154994
0.192274
0.0203733
0.192216
0.0235026
0.198626
0.0245523
0.202158
0.0230239
0.203981
0.0203095
0.196294
0.0190432
0.190807
0.192619
0.0203229
0.0112641
0.140225
0.0174068
0.186131
0.0225892
0.187031
0.0260462
0.195165
0.0276287
0.20058
0.027013
0.204605
0.0247472
0.198571
0.0243411
0.191223
0.190245
0.0267187
0.0132185
0.127009
0.0197379
0.17961
0.0250609
0.181705
0.0289773
0.191246
0.0314533
0.198104
0.0320662
0.20401
0.0306074
0.200039
0.0305187
0.191341
0.18709
0.0336613
0.0161701
0.110832
0.0230184
0.172758
0.0283217
0.176397
0.0328252
0.186738
0.0366354
0.194305
0.0387105
0.201937
0.03847
0.200302
0.0381311
0.191681
0.184357
0.0408515
0.0199728
0.0908586
0.0275551
0.165172
0.0328517
0.171094
0.0378604
0.181729
0.0429992
0.189166
0.0471079
0.197846
0.0486995
0.19871
0.0481679
0.19221
0.182811
0.0496893
0.0242092
0.0666385
0.0341423
0.155236
0.0389785
0.166256
0.044234
0.176472
0.0503288
0.183079
0.0565089
0.191671
0.0603656
0.194859
0.0608584
0.191706
0.182674
0.0609772
0.0267939
0.0398499
0.0412739
0.140754
0.0463269
0.161196
0.0518449
0.170959
0.0584179
0.176511
0.0661557
0.183942
0.0723886
0.188626
0.0753192
0.18877
0.182651
0.0753432
0.0269263
0.0129108
0.0475492
0.120124
0.054057
0.154694
0.060016
0.16499
0.0667262
0.169818
0.0751382
0.175526
0.0833678
0.180401
0.0891997
0.182929
0.180472
0.0913711
0.0230079
-0.0101075
0.0510803
0.0920551
0.0613677
0.144389
0.0680214
0.158357
0.0747888
0.163033
0.0833549
0.166975
0.092676
0.171078
0.100901
0.174678
0.175538
0.105836
0.016297
-0.0263971
0.051151
0.0571945
0.0670557
0.128496
0.0745992
0.1508
0.0816031
0.156042
0.0901713
0.158405
0.0997561
0.161497
0.109648
0.164786
0.167822
0.117364
0.00910551
0.0459515
0.0704325
0.0805814
0.087913
0.0962514
0.105434
0.115613
0.124816
-0.186838
-0.000384953
0.187248
-0.186423
-0.000424927
-0.185913
-0.000480101
-0.18533
-0.000587058
-0.184553
-0.000752069
-0.183548
-0.00100619
-0.182147
-0.00137592
-0.180261
-0.00188427
-0.177664
-0.00257359
-0.174228
-0.00343089
-0.169805
-0.00440001
-0.164346
-0.00545135
-0.157756
-0.00656612
-0.150085
-0.00765977
-0.141423
-0.00863932
-0.131954
-0.00945387
-0.121873
-0.010059
-0.111423
-0.0104298
-0.100852
-0.0105492
-0.0903918
-0.0104333
-0.0802344
-0.010134
-0.0704319
-0.00976808
-0.0608657
-0.00953888
-0.0513108
-0.00951205
-0.0415758
-0.0096979
-0.0314313
-0.0100912
-0.0208542
-0.0105247
-0.00990828
-0.0108586
0.00119344
-0.0110235
0.0123653
-0.0110947
0.0235937
-0.0112004
0.034868
-0.0112332
0.0460392
-0.0111618
0.0570549
-0.0109843
0.0678303
-0.0107703
0.078407
-0.0105485
0.0887905
-0.0103825
0.0991
-0.0102821
0.109282
-0.0101798
0.119312
-0.0100037
0.129019
-0.00970474
0.138295
-0.0092507
0.146925
-0.00862882
0.15482
-0.00786969
0.161801
-0.00698081
0.167879
-0.00605264
0.172984
-0.00510496
0.177182
-0.00417244
0.180484
-0.00330661
0.183093
-0.00258128
0.185068
-0.00199183
0.186617
-0.00151768
0.187756
-0.00115943
0.18868
-0.000889197
0.189348
-0.000694432
0.189954
-0.000558473
0.190423
-0.000460974
0.19082
-0.000403474
-0.000354982
-0.185623
-0.0018852
0.187127
-0.18396
-0.00210588
-0.182037
-0.00239388
-0.179834
-0.00279636
-0.177245
-0.00333021
-0.174205
-0.00404789
-0.170599
-0.00497017
-0.166356
-0.0061243
-0.16143
-0.00748695
-0.15586
-0.00899501
-0.149693
-0.0105517
-0.143061
-0.012075
-0.136097
-0.013515
-0.128966
-0.0147796
-0.121761
-0.0158284
-0.11453
-0.0166723
-0.107228
-0.0173443
-0.0997719
-0.0178684
-0.0920552
-0.0182486
-0.0839979
-0.0184704
-0.0755641
-0.0185487
-0.0667558
-0.0185503
-0.0576828
-0.0185911
-0.0483699
-0.0187936
-0.0388181
-0.0192212
-0.0290191
-0.0198508
-0.0189459
-0.0205613
-0.00854128
-0.0212091
0.00209324
-0.0216139
0.0127411
-0.0216932
0.0231853
-0.0216259
0.0334392
-0.0214562
0.0434691
-0.0211834
0.0532925
-0.0207827
0.0628038
-0.0202788
0.0720223
-0.0197432
0.0808773
-0.0192359
0.0894043
-0.0187856
0.0975859
-0.0183621
0.105525
-0.0179169
0.113219
-0.0173994
0.120763
-0.0167672
0.128132
-0.0159971
0.135365
-0.0150721
0.142347
-0.0139632
0.149054
-0.0127261
0.155321
-0.0113701
0.161117
-0.00993225
0.166313
-0.00850239
0.170949
-0.00718281
0.174955
-0.00600714
0.178455
-0.00498529
0.181415
-0.00413495
0.184009
-0.00345097
0.186202
-0.00290703
0.188175
-0.00249281
0.189887
-0.00216697
0.191405
-0.00192556
-0.00173446
-0.174456
-0.00331521
0.175896
-0.17275
-0.00382635
-0.170652
-0.00447655
-0.168142
-0.00531181
-0.165092
-0.00636563
-0.161484
-0.00765512
-0.157282
-0.00915749
-0.152547
-0.0108533
-0.147348
-0.0126697
-0.141838
-0.0144971
-0.13612
-0.0162555
-0.130317
-0.0178686
-0.124545
-0.0192719
-0.118866
-0.0204486
-0.113246
-0.0214341
-0.107605
-0.0223016
-0.101784
-0.0231522
-0.0956156
-0.0240244
-0.0889504
-0.0248996
-0.0817043
-0.0257006
-0.0738671
-0.0263718
-0.0654827
-0.0269169
-0.0566314
-0.0274247
-0.0473927
-0.0280104
-0.0378526
-0.0287424
-0.0280641
-0.0296124
-0.018084
-0.0305174
-0.00795042
-0.0313049
0.00227226
-0.0318109
0.0125149
-0.031904
0.0226418
-0.03174
0.032606
-0.0313978
0.0423107
-0.030885
0.0517413
-0.0301941
0.0608261
-0.0293628
0.0695731
-0.0284709
0.077921
-0.027586
0.0858866
-0.0267307
0.0933915
-0.0258698
0.100459
-0.024963
0.107062
-0.0240083
0.113335
-0.0230152
0.119327
-0.0219949
0.125205
-0.0209202
0.130998
-0.0197597
0.136771
-0.0184657
0.142433
-0.0170347
0.148018
-0.0154817
0.153348
-0.0138364
0.158357
-0.0121578
0.162856
-0.0105193
0.166865
-0.00896612
0.170281
-0.00757151
0.17323
-0.006372
0.175665
-0.00536449
0.17775
-0.00454314
0.179472
-0.003886
0.18091
-0.00336725
-0.0029545
-0.164441
-0.00549423
0.166635
-0.161852
-0.00643389
-0.158775
-0.007543
-0.155237
-0.0088603
-0.151227
-0.010364
-0.146873
-0.012014
-0.142283
-0.0137342
-0.137641
-0.0154936
-0.133042
-0.0172563
-0.128541
-0.018993
-0.124118
-0.0206624
-0.119746
-0.0222343
-0.11534
-0.0236652
-0.110833
-0.0249462
-0.10617
-0.0260834
-0.101303
-0.0271603
-0.0961603
-0.0282821
-0.0906466
-0.0295267
-0.084644
-0.0308899
-0.0780562
-0.0322779
-0.0708281
-0.0335868
-0.0629711
-0.03476
-0.0545614
-0.0358233
-0.0457087
-0.0368477
-0.0365271
-0.0379092
-0.0271031
-0.0390165
-0.0175365
-0.0400683
-0.00788189
-0.0409359
0.00181733
-0.0414944
0.0115515
-0.0416138
0.0212002
-0.0413832
0.0306932
-0.0408734
0.039937
-0.0401266
0.0489199
-0.0391613
0.0575751
-0.03802
0.0659132
-0.0367935
0.0738645
-0.0355406
0.0813991
-0.0342487
0.0883972
-0.0328749
0.0948556
-0.031401
0.100717
-0.0298775
0.106103
-0.0283787
0.111065
-0.0269627
0.115795
-0.0256226
0.120344
-0.0243141
0.124898
-0.0229874
0.129453
-0.0215921
0.134128
-0.0201203
0.138846
-0.0185574
0.143649
-0.016926
0.148356
-0.0152386
0.152944
-0.0135226
0.1572
-0.0118445
0.161133
-0.0102741
0.164584
-0.00883637
0.167655
-0.00757366
0.170266
-0.00649314
0.172491
-0.00559611
-0.00483751
-0.151329
-0.00796431
0.153809
-0.148464
-0.00931456
-0.145246
-0.0107478
-0.14181
-0.012301
-0.138247
-0.0139107
-0.134753
-0.0155066
-0.131384
-0.0170839
-0.128225
-0.0186483
-0.125247
-0.0202153
-0.122408
-0.0218256
-0.11954
-0.023518
-0.116467
-0.0252996
-0.113004
-0.0271149
-0.109055
-0.0288897
-0.104572
-0.0305552
-0.0996202
-0.032104
-0.0942816
-0.0336114
-0.0886055
-0.0351962
-0.0825691
-0.0369166
-0.0760898
-0.0387476
-0.0690802
-0.0405884
-0.0614794
-0.0423523
-0.0533079
-0.0439844
-0.0446732
-0.0454712
-0.0357317
-0.0468424
-0.0265941
-0.0481406
-0.017358
-0.0492941
-0.00808256
-0.0501918
0.00121696
-0.0507842
0.0105759
-0.0509567
0.0199166
-0.0507185
0.0291595
-0.0501028
0.0382327
-0.0492012
0.0471125
-0.0480292
0.0556987
-0.0466091
0.0639553
-0.0450374
0.0718014
-0.0433929
0.0792145
-0.0416478
0.0860916
-0.0397588
0.0924497
-0.0377442
0.0982481
-0.0356867
0.103586
-0.0336977
0.10844
-0.0318274
0.112915
-0.0300728
0.116983
-0.0283895
0.120762
-0.0267369
0.12426
-0.0250961
0.127643
-0.0234704
0.130943
-0.0218626
0.134323
-0.0202762
0.137761
-0.0186918
0.141361
-0.0170965
0.144979
-0.0154857
0.148611
-0.0138782
0.152038
-0.0122898
0.155269
-0.0107646
0.158133
-0.00935509
0.160631
-0.00809906
-0.00694639
-0.13866
-0.010293
0.141008
-0.136263
-0.0117292
-0.133845
-0.0131477
-0.13153
-0.0146217
-0.129291
-0.0161266
-0.127175
-0.0176221
-0.125121
-0.0191192
-0.123123
-0.0206439
-0.121103
-0.0222223
-0.119024
-0.0239016
-0.116772
-0.0257581
-0.114228
-0.0278405
-0.111212
-0.0301237
-0.107587
-0.0325108
-0.103274
-0.0348611
-0.0983112
-0.0370641
-0.0928191
-0.0390968
-0.0869518
-0.0410578
-0.0807735
-0.0430895
-0.0742708
-0.0452467
-0.0673694
-0.0474835
-0.0599899
-0.0497254
-0.0520738
-0.0518969
-0.0436623
-0.0538762
-0.0349558
-0.0555427
-0.0261085
-0.0569785
-0.0172106
-0.0581863
-0.00832213
-0.0590696
0.000584872
-0.0596856
0.00958059
-0.0599393
0.0186302
-0.0597677
0.0276666
-0.0591299
0.0366206
-0.0581562
0.0453971
-0.0567969
0.0538401
-0.0550565
0.0619139
-0.0531024
0.0695659
-0.0510506
0.07679
-0.0488615
0.0835544
-0.0465331
0.0899175
-0.0440931
0.095858
-0.0416386
0.101413
-0.0392364
0.106494
-0.0369183
0.11111
-0.0346651
0.115172
-0.0324626
0.11876
-0.0302971
0.121845
-0.028188
0.124581
-0.0261716
0.126983
-0.0242705
0.129237
-0.0224922
0.131357
-0.0208249
0.133537
-0.0192389
0.135746
-0.0177119
0.138117
-0.0162151
0.140543
-0.0147363
0.143098
-0.0132778
0.145622
-0.0118735
0.148074
-0.0105526
-0.00924347
-0.132614
-0.0115024
0.133822
-0.131506
-0.0128618
-0.130405
-0.0142393
-0.129312
-0.0157264
-0.128115
-0.0173112
-0.126757
-0.0189827
-0.125153
-0.0207101
-0.123307
-0.0224905
-0.121197
-0.0243206
-0.118884
-0.0262152
-0.116401
-0.0282355
-0.113723
-0.0305178
-0.110733
-0.033108
-0.107291
-0.0359537
-0.103256
-0.0388922
-0.0985362
-0.0417808
-0.0931407
-0.0444883
-0.0872022
-0.0469956
-0.0808184
-0.049469
-0.0740494
-0.0520129
-0.066938
-0.0545936
-0.0595071
-0.0571553
-0.0516891
-0.0597128
-0.0433605
-0.0622022
-0.0347203
-0.0641827
-0.0260034
-0.0656915
-0.0172989
-0.0668892
-0.00866202
-0.0676982
-2.55152e-05
-0.0683218
0.0087279
-0.0686829
0.0175816
-0.0686218
0.0265039
-0.0680449
0.0354054
-0.0670582
0.0440949
-0.065479
0.0524172
-0.0633822
0.0604124
-0.0610878
0.0680397
-0.0586846
0.0753213
-0.0561339
0.082294
-0.0535139
0.088973
-0.0507619
0.0952756
-0.0479532
0.101141
-0.045088
0.106445
-0.042237
0.111209
-0.0394107
0.115379
-0.0366468
0.119028
-0.0339225
0.122134
-0.0313064
0.124836
-0.0288418
0.127117
-0.0265626
0.129124
-0.024463
0.130812
-0.0225271
0.132331
-0.0207196
0.133626
-0.0190234
0.134867
-0.0174203
0.136027
-0.0159153
0.137288
-0.0144974
0.138576
-0.0131551
0.139921
-0.0118974
-0.0106464
-0.133686
-0.0123144
0.134496
-0.132887
-0.0136816
-0.131986
-0.0151318
-0.130963
-0.0167607
-0.129738
-0.018524
-0.128295
-0.0204345
-0.126557
-0.0224403
-0.124513
-0.0245427
-0.122082
-0.0267474
-0.119383
-0.0289193
-0.116507
-0.0311056
-0.113488
-0.0335388
-0.110284
-0.0363085
-0.106841
-0.0393983
-0.10304
-0.0426854
-0.0988319
-0.0459871
-0.0939856
-0.0493289
-0.0884013
-0.0525729
-0.0821408
-0.0557252
-0.0752261
-0.0589278
-0.0677992
-0.0620209
-0.0601456
-0.0648109
-0.0522966
-0.0675638
-0.0439657
-0.0705324
-0.0352628
-0.0728862
-0.0265096
-0.0744419
-0.0178142
-0.0755868
-0.00923085
-0.0762835
-0.000667895
-0.0768743
0.00801601
-0.0773645
0.016778
-0.0773764
0.0256532
-0.0768972
0.0345159
-0.0759134
0.0431357
-0.0740871
0.051431
-0.0716738
0.0594757
-0.069128
0.0671951
-0.0664056
0.0746985
-0.0636306
0.0819947
-0.0608088
0.0889326
-0.0576906
0.0953202
-0.0543478
0.101158
-0.0509141
0.106351
-0.0474371
0.111034
-0.044083
0.115109
-0.0407362
0.118706
-0.0375038
0.121871
-0.0344876
0.124753
-0.0317034
0.127378
-0.0292023
0.129824
-0.0268821
0.131945
-0.0246598
0.133765
-0.0225068
0.135247
-0.0205189
0.136572
-0.018711
0.137691
-0.0170546
0.138744
-0.0155067
0.139666
-0.0140692
0.140505
-0.0127293
-0.0114326
-0.136657
0.138133
-0.0137955
-0.135158
-0.0152048
-0.133716
-0.0165591
-0.132171
-0.0183242
-0.130634
-0.0200474
-0.128976
-0.0221064
-0.127161
-0.0242453
-0.125243
-0.026465
-0.122938
-0.0290362
-0.12038
-0.0314786
-0.117549
-0.0339199
-0.114446
-0.0366401
-0.110974
-0.0397666
-0.107327
-0.0430357
-0.10333
-0.0466633
-0.0993256
-0.0499857
-0.094975
-0.053656
-0.0900528
-0.0574882
-0.0843267
-0.0614353
-0.0776387
-0.0656138
-0.0700233
-0.0696373
-0.0619662
-0.0728676
-0.0538597
-0.0756645
-0.0454143
-0.0789706
-0.0365833
-0.081709
-0.0275963
-0.0834267
-0.0187142
-0.0844659
-0.00998249
-0.0849917
-0.00135049
-0.0854929
0.00738744
-0.086079
0.0161907
-0.0861552
0.025085
-0.0857707
0.0339962
-0.0848123
0.0427107
-0.0827853
0.0511343
-0.0801092
0.0593983
-0.0773673
0.067339
-0.0743481
0.0751672
-0.0714158
0.0826295
-0.0682777
0.0894921
-0.0645313
0.0956369
-0.0604983
0.101284
-0.0565326
0.106348
-0.0525182
0.111022
-0.0487317
0.114867
-0.0446009
0.118383
-0.0409915
0.121638
-0.0377664
0.124874
-0.0349151
0.12814
-0.0324917
0.131147
-0.0298651
0.13353
-0.0270636
0.135475
-0.0244273
0.137061
-0.0221273
0.138575
-0.0201953
0.139831
-0.0183349
0.140928
-0.0165597
0.141778
-0.0149083
0.142294
-0.013244
-0.0124865
0.0222143
0.0127567
0.00667779
0.0156312
-0.0166982
0.0233646
-0.0438855
0.027262
-0.0711207
0.0272268
-0.0952132
0.0241341
-0.114605
0.0193822
-0.129902
0.0153307
-0.142264
0.0123511
-0.152795
0.0105564
-0.162077
0.00927169
-0.170386
0.00833356
-0.177791
0.0073957
-0.183844
0.00607602
-0.188751
0.00490421
-0.192598
0.00386947
-0.195524
0.0029283
-0.197407
0.00190197
-0.198356
0.000949634
-0.198367
2.86593e-05
-0.197531
-0.00084065
-0.195861
-0.00165188
-0.193471
-0.00237144
-0.190606
-0.00286031
-0.00335949
-0.0556812
0.0490653
-0.0923867
0.0523252
-0.121214
0.0522174
-0.142003
0.0480425
-0.155822
0.0410648
-0.164947
0.0332497
-0.171849
0.0263054
-0.178251
0.0217218
-0.184508
0.0186269
-0.190499
0.0165347
-0.196066
0.0148602
-0.200908
0.013162
-0.204793
0.0113033
-0.207957
0.00922769
-0.210179
0.00714784
-0.21131
0.00499421
-0.211462
0.00309905
-0.210829
0.00126533
-0.209384
-0.000485381
-0.207209
-0.00215231
-0.204341
-0.0037055
-0.200829
-0.00516693
-0.196738
-0.00644118
-0.192103
-0.0074958
-0.00833622
-0.127352
0.0724494
-0.144164
0.0691614
-0.154657
0.0626929
-0.161174
0.0545811
-0.166013
0.0458817
-0.170432
0.0376962
-0.175439
0.0312837
-0.180422
0.0267379
-0.185549
0.0237214
-0.190579
0.0216009
-0.19543
0.0196773
-0.199666
0.0174361
-0.203096
0.0146988
-0.205521
0.0116881
-0.206984
0.00858529
-0.207568
0.00560953
-0.207395
0.00290678
-0.206391
0.000289089
-0.204604
-0.00229641
-0.201913
-0.00482319
-0.198383
-0.00726382
-0.193941
-0.0095899
-0.188664
-0.0117071
-0.182618
-0.0135366
-0.0150548
-0.150117
0.0825393
-0.157959
0.0770125
-0.164768
0.0694964
-0.170862
0.0606831
-0.176458
0.0514747
-0.181651
0.042882
-0.186479
0.0361177
-0.190687
0.0309377
-0.194182
0.0272247
-0.197176
0.0245872
-0.199919
0.0224317
-0.202349
0.0198528
-0.204245
0.0166058
-0.205505
0.0129371
-0.206031
0.00912545
-0.205794
0.0053651
-0.20474
0.0018688
-0.202942
-0.00151627
-0.200383
-0.00484833
-0.19704
-0.00817887
-0.192902
-0.0114025
-0.187925
-0.0145648
-0.182028
-0.0175916
-0.175014
-0.0205302
-0.0234306
-0.155165
0.0902033
-0.162247
0.0840975
-0.169168
0.0764356
-0.176051
0.0675586
-0.18286
0.0582804
-0.189301
0.0493273
-0.194561
0.0413672
-0.198107
0.0344951
-0.200059
0.0291705
-0.201057
0.0256042
-0.201489
0.0228352
-0.201673
0.0200585
-0.201917
0.0168172
-0.201913
0.0129618
-0.201502
0.00869354
-0.20046
0.00435347
-0.198712
0.000105723
-0.196193
-0.00401184
-0.192953
-0.00810585
-0.188934
-0.0121853
-0.184111
-0.0162468
-0.17832
-0.0203478
-0.171457
-0.0244182
-0.163474
-0.0284989
-0.0330875
-0.157129
0.0987928
-0.165679
0.0926708
-0.174334
0.0850962
-0.182972
0.0761988
-0.19106
0.0663774
-0.197597
0.0558492
-0.201777
0.0455644
-0.203685
0.0363997
-0.203879
0.0293922
-0.202594
0.0242875
-0.200241
0.0205155
-0.197829
0.017593
-0.19569
0.0147201
-0.193853
0.0110964
-0.191945
0.00682044
-0.189815
0.00221258
-0.187179
-0.00249435
-0.184006
-0.00719558
-0.180223
-0.0118609
-0.175816
-0.0166165
-0.170659
-0.0213904
-0.164762
-0.0262224
-0.158016
-0.0311485
-0.150241
-0.0362323
-0.0423175
-0.159571
0.1088
-0.169262
0.102373
-0.178597
0.0944403
-0.18682
0.0844189
-0.193172
0.0727256
-0.197173
0.0598696
-0.198744
0.0471518
-0.198413
0.0360939
-0.196885
0.0278696
-0.194482
0.0219025
-0.191469
0.0174684
-0.187968
0.0141123
-0.184434
0.0111743
-0.181336
0.00800633
-0.178804
0.00431862
-0.176626
4.5033e-05
-0.174388
-0.00470043
-0.171649
-0.00991971
-0.16811
-0.0153959
-0.163723
-0.0209948
-0.158495
-0.0266095
-0.152706
-0.032001
-0.146562
-0.0372269
-0.140248
-0.0425376
-0.0487481
-0.163452
0.11912
-0.172883
0.111826
-0.18073
0.102291
-0.186172
0.0898696
-0.188803
0.075371
-0.189171
0.0602392
-0.188796
0.0467885
-0.188851
0.0361652
-0.189132
0.0281793
-0.189051
0.0218271
-0.187863
0.0162896
-0.185366
0.0115982
-0.182151
0.00795833
-0.178901
0.00479065
-0.176257
0.00166982
-0.174339
-0.00182512
-0.172836
-0.00616341
-0.171132
-0.0115918
-0.168585
-0.0179181
-0.164803
-0.0247745
-0.159661
-0.0317295
-0.153486
-0.038142
-0.146706
-0.0439895
-0.13997
-0.0492672
-0.0542306
-0.166089
0.128068
-0.173243
0.118988
-0.177598
0.106636
-0.178893
0.0911455
-0.178491
0.0749644
-0.178854
0.06063
-0.181009
0.048966
-0.184501
0.0396994
-0.187787
0.0315023
-0.190264
0.024299
-0.191553
0.0175538
-0.19135
0.0113778
-0.189752
0.00636151
-0.186934
0.0019668
-0.18409
-0.0011195
-0.181619
-0.00423896
-0.179771
-0.00799297
-0.17825
-0.0130878
-0.17643
-0.0197302
-0.173693
-0.0274931
-0.169486
-0.0359197
-0.16378
-0.0438113
-0.156435
-0.0513128
-0.147291
-0.0584125
-0.063401
0.184207
-0.802066
0.19534
0.605308
-1.48609
1.14717
0.338609
0.239003
-0.309924
0.0709562
0.287864
-0.336962
0.0490937
-0.465168
-0.220345
0.685508
-0.385087
0.61734
-0.232201
-0.350726
0.683858
-0.333566
-0.0557201
-0.172817
0.228521
-0.296538
0.337394
-0.0409129
-0.676768
1.45931
-0.782606
0.0202149
-0.137795
0.117601
0.697143
-1.4036
0.706441
-0.793314
0.362901
0.429804
0.110657
-0.109862
-0.000788493
-0.539035
0.551263
-0.0132402
-0.979897
-0.506418
0.110956
-0.0129882
-0.097961
-0.926247
0.299326
-0.284938
0.40781
-0.122996
-0.367927
0.237897
0.130037
-0.256477
-0.219118
0.475389
-0.220171
0.666998
-0.446858
1.00259
-0.820192
-0.182355
-0.792295
0.182294
0.610022
0.895283
0.107315
-0.885383
0.413953
0.471403
0.106872
-0.238739
0.132527
-0.487096
0.250794
0.235493
-0.0438057
-0.114262
0.158072
0.438034
0.320411
-0.75847
1.04657
-0.726808
-0.31965
0.480997
-0.0221182
-0.459418
-0.32321
0.492697
-0.168608
-0.264092