/*--------------------------------*- C++ -*----------------------------------*\
  =========                 |
  \\      /  F ield         | OpenFOAM: The Open Source CFD Toolbox
   \\    /   O peration     | Website:  https://openfoam.org
    \\  /    A nd           | Version:  10
     \\/     M anipulation  |
\*---------------------------------------------------------------------------*/
FoamFile
{
    format      ascii;
    class       volVectorField;
    location    "50";
    object      U;
}
// * * * * * * * * * * * * * * * * * * * * * * * * * * * * * * * * * * * * * //

dimensions      [0 1 -1 0 0 0 0];

internalField   nonuniform List<vector> 
10435
(
(0.902122 -0.145719 -1.22582e-21)
(0.890361 0.112584 1.12894e-20)
(1.07346 -0.179294 -1.83713e-20)
(1.10372 -0.109451 2.40178e-20)
(1.21476 0.0337081 -1.42233e-20)
(1.26614 -0.182169 1.05418e-19)
(1.05179 -0.107558 -6.59731e-20)
(1.04796 0.102344 4.81671e-20)
(0.992658 0.163393 1.70553e-19)
(1.28844 -0.354175 -3.23912e-20)
(1.00285 0.106917 -1.59414e-21)
(1.28793 -0.120427 7.03892e-20)
(1.00751 -0.405848 4.17823e-20)
(0.603762 -0.0376047 -2.22247e-20)
(0.615267 -0.0355637 -2.26108e-20)
(1.15908 -0.0407384 -2.63453e-21)
(0.596646 -0.0420951 8.1273e-21)
(1.12395 -0.503823 1.1085e-19)
(0.906101 0.11512 -7.50269e-20)
(0.958787 -0.15307 -2.0751e-21)
(1.08622 0.0353775 3.42962e-20)
(1.09626 -0.135649 -5.42691e-20)
(1.18978 -0.0989577 1.43185e-19)
(1.01503 -0.0900764 -7.84043e-20)
(1.27249 -0.314606 3.65459e-20)
(-0.0922813 -0.285608 -3.09402e-21)
(-0.142835 0.173731 -2.54786e-20)
(1.02359 -0.277118 5.27003e-20)
(0.226782 -0.0249022 1.63597e-21)
(1.18785 -0.418264 1.50637e-19)
(1.35598 -0.186438 5.44953e-20)
(1.05203 0.0998451 -2.51769e-21)
(1.03964 0.144271 -1.01655e-19)
(0.727108 -0.174169 6.87702e-21)
(1.12589 0.00222357 3.56414e-20)
(0.690568 0.0781266 -1.21345e-20)
(1.19486 -0.0432099 4.71286e-20)
(-0.27714 0.0254555 3.96447e-20)
(0.0312736 -0.102072 -4.08605e-21)
(0.941722 0.0278623 1.79833e-20)
(1.20119 -0.453138 -1.79747e-19)
(1.0925 -0.109998 -4.79722e-20)
(0.411932 0.072463 -4.84004e-20)
(0.998661 -0.107013 -2.90739e-20)
(1.27685 -0.0912263 -9.69002e-20)
(0.96993 -0.046931 1.1569e-19)
(1.26367 -0.287702 -1.33933e-19)
(0.285721 0.158636 -3.10207e-19)
(0.972807 0.2429 6.76631e-20)
(1.073 -0.147415 -2.47858e-20)
(1.08613 0.0738424 -6.46903e-21)
(1.38872 -0.170858 3.62039e-19)
(0.485314 0.0700592 -2.59548e-21)
(0.541346 -0.0826393 1.48822e-21)
(-0.107541 -0.175963 2.53673e-21)
(-0.0840213 0.173605 -9.44646e-21)
(1.14464 -0.0656843 -1.39189e-19)
(-0.273964 0.0335424 1.9311e-20)
(0.660621 -0.0812818 -3.74279e-21)
(1.05552 -0.0267009 1.22891e-19)
(0.280237 -0.00273767 2.0001e-21)
(0.827839 0.108505 -2.35918e-20)
(-0.0877372 0.0428593 -4.44887e-20)
(1.38464 -0.116946 -3.11116e-20)
(1.24779 -0.0987179 -1.88831e-19)
(1.12595 -0.23599 1.08701e-19)
(0.695806 -0.126797 1.03204e-20)
(0.101678 -0.129762 9.16327e-20)
(1.039 0.0603712 -6.02147e-20)
(1.0169 -0.112135 5.55076e-21)
(0.0920774 0.0406423 -2.28831e-20)
(-0.148189 -0.147343 4.61681e-21)
(0.657035 0.0985384 8.67065e-20)
(1.1568 -0.193354 -1.21632e-19)
(0.619214 -0.0321373 -8.89465e-21)
(0.557356 0.0466777 9.03811e-21)
(1.03391 -0.12903 3.25821e-19)
(1.04282 -0.0693286 1.78372e-19)
(0.996244 0.190307 1.77927e-20)
(0.685066 -0.0514828 4.5763e-20)
(1.06809 -0.14939 2.98453e-20)
(0.939595 -0.186553 -2.98207e-22)
(0.700865 0.189901 3.10936e-21)
(0.723252 -0.180837 -6.97558e-22)
(1.06599 -0.147424 -5.98238e-20)
(0.588899 0.027891 9.96476e-20)
(0.656793 -0.0171105 1.19173e-20)
(0.94267 -0.0348702 3.74479e-21)
(0.534237 -0.0105271 -9.19268e-21)
(0.713456 -0.0286834 -1.14724e-20)
(1.0255 -0.033104 -3.87406e-22)
(1.10719 -0.0278946 -3.88975e-21)
(0.985382 -0.189458 2.66185e-21)
(0.570431 -0.00792135 4.51831e-20)
(0.784261 -0.0379793 1.92667e-21)
(0.63251 0.0590514 2.51769e-20)
(1.18862 -0.0513565 5.40746e-20)
(0.502065 -0.0257578 2.06748e-20)
(0.64668 -0.0637121 -7.4052e-21)
(1.25566 -0.015642 -6.04739e-20)
(0.512661 -0.0199778 2.90966e-20)
(1.19731 0.0472257 -3.87125e-20)
(0.61096 -0.00885647 -2.44666e-20)
(0.862685 -0.0389502 3.09747e-21)
(1.21438 0.0115891 -3.74663e-21)
(1.05325 -0.104402 -2.28128e-21)
(1.01987 -0.175676 1.76049e-21)
(1.07132 -0.148869 3.32593e-20)
(1.05295 -0.145306 -7.70205e-20)
(0.735315 -0.0837474 -1.05819e-20)
(1.07492 -0.148275 -1.26585e-20)
(1.18227 0.0695898 -1.27605e-20)
(0.876586 -0.165385 -1.18934e-20)
(0.803739 -0.125086 -8.71219e-21)
(1.17579 0.00880912 -3.55243e-20)
(1.07876 -0.137281 1.48884e-20)
(1.3208 -0.0439724 -3.81202e-20)
(0.633842 0.0331566 6.39075e-21)
(0.905598 0.0511192 1.19369e-21)
(1.29492 -0.0922195 -1.09766e-20)
(1.3773 -0.0741357 -1.23379e-19)
(0.626619 0.0475641 6.16929e-21)
(0.692344 0.0410509 -5.44707e-20)
(0.615221 0.0292422 -9.27804e-20)
(1.12074 0.126994 5.36034e-22)
(-0.0370473 -0.172061 4.85643e-21)
(1.2507 -0.0759138 6.58964e-20)
(0.612831 0.0280282 -1.5422e-20)
(1.26365 0.00557821 -6.97765e-20)
(-0.104736 -0.176554 -1.02131e-20)
(0.603681 0.0204328 4.07746e-20)
(1.09001 0.135765 -8.80286e-21)
(1.12085 0.0207893 -6.48363e-20)
(0.65805 -0.0346007 3.78357e-20)
(-0.161663 -0.11159 6.31002e-22)
(0.766947 0.173488 2.80803e-22)
(0.726073 0.0858958 7.10405e-20)
(1.1453 -0.119297 -1.96235e-21)
(0.830467 0.0509218 1.48441e-21)
(1.05257 -0.143521 1.48538e-20)
(1.01189 -0.150974 -8.45307e-22)
(1.31324 -0.152586 -1.89299e-19)
(0.70678 -0.156461 2.43415e-20)
(1.4088 -0.130077 3.88218e-19)
(1.10795 -0.13856 9.1703e-21)
(0.461977 0.0297619 1.09385e-19)
(0.657305 0.0528227 -2.63076e-20)
(1.33434 -0.129453 -1.17482e-19)
(0.428102 -0.0131933 5.84274e-20)
(1.40018 -0.126619 2.52556e-20)
(0.334386 0.20937 -3.25683e-22)
(1.27633 -0.0978388 7.95822e-20)
(0.78944 -0.0833321 -2.94181e-22)
(1.40069 -0.138739 1.7129e-19)
(1.35302 -0.230648 -1.14544e-19)
(0.355175 0.219527 4.66324e-21)
(1.14464 0.112014 3.64001e-20)
(0.759311 0.0475847 1.5877e-20)
(1.32499 -0.303753 -1.09869e-19)
(1.01245 0.1469 -2.35808e-21)
(1.36517 -0.138969 -3.28594e-20)
(0.645577 -0.0304982 -8.39058e-21)
(1.06239 0.0433984 3.64783e-20)
(1.11768 -0.144175 6.65154e-20)
(0.649561 -0.0459392 2.22182e-20)
(1.35163 -0.0484256 2.28852e-19)
(1.05284 0.129674 -1.26207e-19)
(1.1921 -0.13594 -4.539e-20)
(1.1311 -0.14042 8.68178e-20)
(1.40235 -0.0959295 -4.30758e-19)
(1.33621 -0.266406 1.38287e-19)
(0.698157 0.14155 -3.11601e-20)
(-0.113412 0.223707 1.12574e-20)
(0.470019 0.0216898 2.00433e-21)
(1.3058 -0.129868 -1.11975e-19)
(0.965966 0.148286 8.30815e-21)
(0.759759 0.0965863 5.12581e-20)
(0.225671 -0.0234432 3.33025e-20)
(1.07044 -0.152851 7.25665e-21)
(0.493041 -0.19269 -8.30686e-22)
(0.949059 0.109955 -3.47171e-21)
(1.26003 -0.101681 -1.47279e-20)
(1.37193 -0.116152 -2.07007e-19)
(0.305347 0.0429029 1.34306e-21)
(1.35137 -0.140771 2.68249e-20)
(0.517903 0.133637 5.9033e-20)
(0.59121 0.0697667 -6.10819e-20)
(1.04907 -0.036237 -1.14512e-19)
(1.22253 0.0155885 2.39656e-20)
(1.41189 -0.151116 -2.40742e-19)
(1.37618 -0.0958561 2.8365e-20)
(0.75002 0.203146 2.87163e-21)
(-0.111793 -0.223257 7.5952e-21)
(0.802007 0.117395 -5.08288e-20)
(1.16423 0.0946337 2.71648e-20)
(1.03989 0.00527172 9.10458e-21)
(0.371999 0.0225599 1.55837e-19)
(0.556075 0.0250513 -4.73493e-20)
(0.134298 0.0541028 3.42112e-19)
(1.19457 -0.0366256 7.7331e-20)
(0.573551 -0.0296649 -3.8055e-20)
(-0.133368 0.0737583 8.11237e-20)
(1.0317 -0.329553 -1.19857e-20)
(-0.352844 0.0305611 3.8877e-20)
(1.06375 -0.270355 -4.08068e-20)
(1.14389 0.0471213 -9.57961e-22)
(0.977789 0.0527589 1.27508e-20)
(1.17428 -0.128545 -2.51806e-20)
(0.265437 -0.14082 -1.27253e-20)
(1.11204 -0.141862 -2.73854e-20)
(0.512443 0.222375 -2.28043e-20)
(1.13718 -0.11972 -1.77209e-19)
(1.4137 -0.105245 2.72729e-19)
(1.15726 -0.140917 3.38838e-20)
(-0.139185 0.181145 7.24967e-21)
(0.453209 -0.0138167 -1.37689e-19)
(0.705509 -0.0715907 7.51275e-21)
(0.677248 0.232077 -1.89758e-21)
(-0.108867 -0.258903 2.51202e-21)
(0.642092 -0.0433775 8.5503e-21)
(0.65272 -0.215484 -5.03876e-22)
(0.474389 -0.0583225 3.28717e-20)
(0.606836 -0.182888 -2.39756e-20)
(0.551642 0.0383046 -1.53712e-19)
(0.00338721 -0.102026 -1.16668e-21)
(1.14049 0.0215184 -2.87291e-20)
(-0.119907 -0.181635 -9.42294e-21)
(0.527381 0.0248521 2.38988e-20)
(1.39139 -0.183806 2.63222e-19)
(0.580195 0.0392935 -8.58919e-20)
(0.330379 -0.0981446 -2.77245e-19)
(1.09768 0.0780182 1.33569e-19)
(-0.109995 -0.217645 -9.68839e-21)
(1.25222 -0.108037 1.07186e-19)
(-0.161022 -0.0393232 9.77203e-20)
(0.576913 -0.0497815 -6.25495e-20)
(1.09522 -0.0888406 -1.66586e-19)
(-0.105675 -0.258289 -1.39608e-21)
(1.0897 -0.114359 -1.33347e-20)
(1.33681 -0.221492 1.5207e-21)
(0.936312 -0.105987 7.97972e-21)
(0.247751 0.0314895 2.07152e-22)
(0.646364 0.213396 1.33144e-21)
(0.0511738 0.101966 -7.46445e-22)
(1.10515 0.0519926 -5.64444e-20)
(1.02104 0.187937 5.10184e-20)
(0.595073 0.0443018 -1.25306e-19)
(1.00785 0.0354022 4.96553e-20)
(-0.101632 0.233364 2.73261e-21)
(0.918135 0.145321 -8.3536e-21)
(-0.1043 0.189052 -8.9317e-22)
(0.623456 -0.040011 -2.63528e-20)
(1.07726 -0.43343 -9.74645e-20)
(1.11495 -0.145015 -5.42299e-20)
(0.988392 -0.00359578 -1.13338e-19)
(1.30831 -0.0470489 1.2126e-19)
(-0.107267 0.212988 -1.09324e-20)
(0.992864 -0.028515 1.55484e-19)
(0.535228 0.260817 1.60296e-21)
(0.0551005 0.154044 -1.32754e-19)
(1.00494 -0.063004 8.47738e-21)
(1.3674 -0.229261 -2.58565e-21)
(-0.0410095 -0.230335 9.14898e-22)
(1.06963 -0.142132 -1.34688e-19)
(0.76789 -0.102816 4.87987e-21)
(0.565146 -0.0925861 8.72143e-20)
(0.864036 -0.0986296 5.98547e-22)
(1.28019 -0.170699 1.1364e-19)
(0.694571 0.225607 -9.79086e-22)
(1.20036 0.0316288 1.24782e-20)
(1.00177 -0.0954739 -2.17836e-23)
(0.948371 0.115685 -2.60877e-20)
(0.971391 0.0319967 -1.92085e-20)
(1.2141 -0.296942 -1.23764e-19)
(-0.112115 -0.290271 -2.41255e-21)
(1.32735 -0.0973261 -6.69668e-20)
(-0.202836 -0.0824974 -3.71492e-20)
(1.16018 0.0699336 9.07314e-21)
(1.11412 -0.0256198 3.98543e-20)
(0.958126 0.155887 1.09425e-20)
(1.16575 -0.370978 7.23973e-20)
(0.309229 0.00587501 -2.3048e-19)
(0.9858 -0.133451 -5.26415e-21)
(0.498511 0.0255218 -1.65573e-20)
(0.671521 -0.0523084 -1.27637e-20)
(0.718259 0.206519 -1.06325e-21)
(1.2675 -0.0336183 1.9316e-20)
(-0.154419 -0.165287 -3.24722e-21)
(0.761687 -0.190451 -3.17445e-21)
(0.689679 -0.204579 1.41339e-21)
(0.57623 0.0365472 1.39691e-19)
(1.05426 0.144336 -5.32116e-22)
(0.52789 -0.222843 2.88102e-21)
(0.948569 0.0785391 4.88384e-20)
(-0.143539 -0.142993 -2.01172e-21)
(-0.098577 0.158985 1.43903e-20)
(0.438017 0.031084 -1.42929e-21)
(0.836783 -0.127881 3.12927e-21)
(1.12954 0.0891224 -1.9189e-21)
(1.2919 -0.225248 7.77097e-20)
(-0.0716223 -0.0640528 1.86072e-18)
(1.09166 -0.132369 -6.34811e-20)
(0.96004 -0.167124 -1.89599e-21)
(-0.0907153 0.245966 2.88827e-21)
(1.09483 0.102052 -1.24368e-20)
(0.478074 -0.0176087 6.75035e-20)
(0.417144 -0.0184233 9.32183e-20)
(1.21718 -0.122921 -8.99042e-21)
(1.21792 -0.230306 3.13926e-23)
(0.762685 -0.179822 1.12025e-21)
(1.05128 -0.161003 6.01054e-21)
(-0.0930569 0.0919529 2.11976e-20)
(0.866001 0.138164 1.99049e-20)
(1.27874 -0.065225 -6.38428e-20)
(1.03268 0.104606 -2.33054e-20)
(-0.105257 0.175823 2.63238e-21)
(0.529276 0.192889 -9.73427e-22)
(1.40127 -0.161868 -3.15968e-19)
(0.417845 -0.152889 1.45815e-21)
(1.21882 -0.133212 6.36366e-20)
(1.22119 -0.031485 -2.73286e-20)
(-0.0643262 0.111222 2.92058e-20)
(0.725188 -0.0698252 -2.96024e-21)
(0.754562 0.19421 1.77791e-21)
(0.961619 0.19594 -7.06828e-21)
(1.08457 -0.337461 -4.02525e-20)
(-0.112499 -0.305504 -1.36079e-21)
(0.954816 -0.202391 -2.48557e-22)
(0.584428 -0.138358 -3.54187e-21)
(-0.248647 0.039774 -5.9805e-20)
(1.01101 0.0377194 9.6292e-22)
(0.692683 -0.175064 -3.35122e-21)
(0.765782 -0.164182 1.80864e-21)
(1.03011 -0.155403 6.82378e-21)
(1.3463 -0.126434 9.10939e-20)
(-0.10499 -0.0471212 -8.91378e-20)
(-0.126089 0.201426 5.36066e-21)
(-0.105279 0.231193 1.6398e-21)
(0.773724 -0.157887 7.65259e-22)
(-0.117326 0.251755 2.13947e-21)
(-0.104487 -0.308173 3.80072e-21)
(-0.177064 -0.0462285 4.14957e-20)
(0.586205 0.16665 -1.33051e-22)
(-0.0695116 0.238118 -8.07888e-21)
(-0.0761498 0.244042 4.35401e-21)
(0.215959 0.201953 -1.16429e-20)
(0.227347 -0.164105 1.22332e-20)
(-0.108519 0.0181831 -8.4558e-21)
(0.759003 0.18676 -2.50575e-21)
(0.983505 0.225923 -4.23668e-20)
(0.772228 -0.157011 3.71653e-21)
(1.14486 -0.311687 3.77575e-21)
(-0.0739358 0.198333 3.16955e-21)
(0.965386 -0.245186 -7.88776e-22)
(0.943959 0.223078 2.17992e-20)
(0.949082 0.300424 -1.70726e-20)
(0.923759 -0.349411 -8.84739e-22)
(1.21797 -0.168609 -8.73698e-20)
(0.32766 -0.0152191 6.28905e-21)
(0.732193 -0.193377 -7.24416e-21)
(-0.11658 0.219606 -2.3183e-21)
(-0.10665 -0.235232 1.01019e-20)
(-0.113177 0.245229 5.6833e-23)
(0.717782 0.216551 1.23297e-21)
(-0.110776 0.200696 -9.42486e-21)
(-0.091036 -0.301168 4.04619e-21)
(-0.216058 0.0509755 -1.94302e-19)
(1.235 -0.136101 -8.23133e-21)
(-0.103607 -0.272966 -1.49974e-20)
(0.995858 0.245938 4.64647e-20)
(-0.120015 -0.205764 -2.68274e-21)
(-0.0780939 -0.274401 -5.3174e-21)
(0.929236 -0.39686 -2.12554e-20)
(0.897708 0.308622 -6.04021e-20)
(0.723323 0.192038 1.19096e-20)
(-0.0416601 0.122484 1.28846e-20)
(-0.191631 0.10154 1.10636e-20)
(-0.131376 0.116177 -1.13832e-22)
(0.719757 -0.203079 1.49441e-21)
(-0.105945 -0.311143 -8.53493e-22)
(-0.0268059 0.0566985 -2.20786e-20)
(-0.0492742 -0.166953 -4.65896e-21)
(1.00366 0.174344 -1.35899e-20)
(0.473005 -0.207535 -1.61417e-20)
(0.998914 0.0895651 6.07915e-21)
(0.949132 0.26418 6.99664e-20)
(0.96875 -0.279764 -3.98199e-22)
(0.953595 -0.333106 3.87215e-20)
(0.961815 0.290391 -3.25533e-20)
(1.00011 -0.225541 -2.06439e-20)
(1.08373 0.0629425 -2.9133e-20)
(0.591832 0.0405917 6.19931e-21)
(0.572203 0.173816 -2.4041e-20)
(0.468314 -0.120877 4.01508e-21)
(-0.0714002 0.131901 -1.36304e-20)
(1.00074 -0.190367 2.49216e-20)
(0.632341 -0.169884 -6.43505e-21)
(0.987859 -0.458136 -1.23452e-19)
(-0.0283199 0.00561222 9.49442e-21)
(0.19391 -0.0478381 -1.21276e-21)
(-0.0692847 -0.202826 1.42927e-21)
(0.640743 -0.19933 -2.24408e-21)
(0.593891 0.264497 1.97758e-21)
(1.09931 -0.0731172 2.09132e-19)
(-0.190015 0.0896787 -5.88342e-21)
(1.00988 0.127786 2.87144e-21)
(1.17629 -0.135758 -5.767e-20)
(0.638058 0.183969 -5.49093e-22)
(-0.113935 -0.315869 1.14579e-21)
(-0.0834775 -0.0607825 -3.60252e-21)
(0.900768 0.212004 6.22842e-20)
(-0.0791809 -0.16807 2.20405e-20)
(-0.105314 -0.316215 1.02435e-21)
(0.369941 0.183158 -2.13686e-21)
(-0.102924 0.224475 1.60238e-21)
(-0.0882541 0.114846 5.60357e-20)
(-0.0764877 0.17407 1.03812e-21)
(1.02733 -0.215128 1.16913e-19)
(-0.120587 0.137334 1.21169e-21)
(-0.125178 -0.247319 2.60888e-21)
(0.00826538 0.130991 -6.47811e-21)
(0.76869 -0.15011 -2.43969e-20)
(1.02374 -0.51876 -7.54252e-20)
(0.744244 0.166051 1.17494e-20)
(0.761397 0.177162 -2.50692e-20)
(0.885337 0.27242 -1.72757e-19)
(0.742701 -0.173214 -2.07703e-21)
(0.682974 -0.687997 4.96018e-21)
(0.741535 -0.614485 3.35371e-21)
(0.686855 -0.57037 -1.23019e-20)
(0.69443 -0.489241 6.1607e-21)
(0.661505 -0.423387 -1.02814e-20)
(0.647506 -0.337579 -3.99795e-20)
(0.624697 -0.279803 9.95319e-21)
(0.618005 -0.26227 1.32977e-20)
(0.623549 -0.255106 1.65842e-20)
(0.720491 -0.660359 1.58961e-21)
(0.785631 -0.584185 2.05606e-22)
(0.731426 -0.554414 6.89167e-21)
(0.735484 -0.479158 -2.11058e-20)
(0.698976 -0.424976 1.94273e-20)
(0.673838 -0.347328 4.10252e-20)
(0.636554 -0.288066 -2.70186e-20)
(0.625139 -0.261992 3.35194e-20)
(0.644009 -0.254654 -1.68252e-20)
(0.760151 -0.631136 -2.28382e-21)
(0.827951 -0.550932 3.51946e-21)
(0.772535 -0.53478 -1.26539e-20)
(0.772962 -0.463642 1.11299e-20)
(0.733241 -0.419429 -3.16019e-20)
(0.70037 -0.346852 -6.98878e-21)
(0.653424 -0.288727 6.18261e-22)
(0.640442 -0.260911 -1.34523e-20)
(0.665423 -0.255691 -2.93678e-20)
(0.797286 -0.598491 3.85662e-21)
(0.869702 -0.51576 6.34112e-21)
(0.811298 -0.513673 9.54367e-21)
(0.808478 -0.443399 1.99157e-21)
(0.765317 -0.408471 1.2254e-20)
(0.726744 -0.340478 4.71722e-20)
(0.673307 -0.286237 -3.20744e-20)
(0.660056 -0.258414 5.98133e-21)
(0.686771 -0.254567 1.64756e-20)
(0.829475 -0.561106 7.32189e-22)
(0.907208 -0.475854 -2.90857e-21)
(0.845961 -0.487526 1.05737e-21)
(0.840945 -0.418734 -5.68177e-21)
(0.795045 -0.393282 3.4797e-21)
(0.75237 -0.329742 -8.94349e-21)
(0.693764 -0.280869 5.36002e-21)
(0.679287 -0.25385 2.26794e-20)
(0.70534 -0.251679 6.09046e-21)
(0.856768 -0.51955 -8.4932e-23)
(0.940133 -0.431631 -2.41885e-21)
(0.876794 -0.457493 6.85322e-22)
(0.870292 -0.390164 1.27117e-20)
(0.822465 -0.374562 -5.35347e-21)
(0.776973 -0.315165 -9.57053e-21)
(0.713882 -0.272252 -3.06596e-21)
(0.696602 -0.246736 -3.49181e-20)
(0.721168 -0.24742 2.15044e-20)
(0.878759 -0.474267 -2.35403e-21)
(0.96833 -0.38397 1.91612e-22)
(0.903769 -0.42425 1.88498e-21)
(0.896434 -0.357872 -4.19062e-21)
(0.847539 -0.35247 1.27157e-21)
(0.800327 -0.296887 -3.33233e-21)
(0.732511 -0.260583 7.87829e-21)
(0.711811 -0.236529 -7.02917e-21)
(0.735301 -0.240545 -5.26367e-21)
(0.894816 -0.425684 2.83554e-21)
(0.991257 -0.333706 -1.41161e-21)
(0.926732 -0.38781 -1.13204e-21)
(0.91923 -0.322072 6.67399e-22)
(0.869946 -0.327172 -2.51284e-21)
(0.821948 -0.274997 8.94076e-21)
(0.749786 -0.245985 1.489e-20)
(0.725377 -0.222636 -2.19332e-20)
(0.74889 -0.228382 7.3752e-21)
(0.904019 -0.3744 1.38631e-21)
(1.00663 -0.281163 -3.54722e-22)
(0.945283 -0.348067 -1.38576e-22)
(0.937095 -0.283494 -1.57798e-21)
(0.889306 -0.298553 -1.04582e-22)
(0.841477 -0.24973 -2.4996e-21)
(0.76539 -0.228676 -1.99505e-21)
(0.738077 -0.204743 1.93212e-20)
(0.761572 -0.210283 -2.17239e-21)
(0.906087 -0.320798 -1.98712e-21)
(1.01829 -0.227081 1.40559e-21)
(0.959227 -0.306022 6.26836e-22)
(0.95217 -0.24321 1.02455e-21)
(0.905306 -0.267238 -8.48453e-22)
(0.858111 -0.221852 3.65233e-21)
(0.780256 -0.208377 6.81744e-22)
(0.751556 -0.181864 1.01501e-20)
(0.774253 -0.186092 -8.17452e-22)
(0.900595 -0.265822 2.2897e-21)
(1.01806 -0.172578 6.34271e-22)
(0.9681 -0.262629 -6.07551e-22)
(0.95913 -0.202816 8.92552e-22)
(0.917641 -0.234004 -3.3194e-22)
(0.872262 -0.191966 -2.94788e-22)
(0.795668 -0.184374 -2.07013e-21)
(0.767288 -0.153951 -9.69476e-21)
(0.78886 -0.156803 -2.0951e-21)
(0.886459 -0.211681 -3.40329e-21)
(1.01245 -0.118518 -1.46342e-21)
(0.970351 -0.217661 7.5248e-22)
(0.962582 -0.16238 4.5785e-22)
(0.927255 -0.198462 -6.7648e-23)
(0.8853 -0.159662 3.33682e-21)
(0.812974 -0.155576 6.2347e-22)
(0.785206 -0.122039 -3.76257e-21)
(0.804034 -0.122363 -3.38268e-21)
(0.862632 -0.161241 -6.82588e-22)
(0.999961 -0.0656928 3.29965e-22)
(0.96722 -0.171325 -1.19609e-23)
(0.96106 -0.121155 2.74926e-22)
(0.934402 -0.160067 -1.29804e-22)
(0.897982 -0.123498 -4.19804e-22)
(0.832197 -0.120779 -1.08492e-21)
(0.803597 -0.0860625 2.41047e-21)
(0.819188 -0.0870471 -1.77589e-21)
(0.829616 -0.108009 8.21333e-22)
(0.98045 -0.0142767 -2.06116e-23)
(0.957339 -0.123736 1.68793e-22)
(0.955715 -0.078459 2.78554e-22)
(0.938974 -0.11825 -5.96873e-23)
(0.910394 -0.0828625 -6.94829e-23)
(0.851181 -0.080705 -6.49023e-22)
(0.819142 -0.0490906 5.17269e-23)
(0.827474 -0.0513313 8.3475e-22)
(0.788745 -0.0590363 -2.21779e-21)
(0.95419 0.0344349 4.27073e-22)
(0.941552 -0.0754857 -4.90099e-22)
(0.945679 -0.0336329 -4.60885e-22)
(0.94196 -0.0724711 8.72466e-23)
(0.923302 -0.0395469 6.47615e-22)
(0.86813 -0.0391039 5.58281e-22)
(0.829574 -0.012649 9.9808e-22)
(0.826739 -0.0186219 -4.23197e-21)
(0.739591 -0.0182803 -1.07839e-21)
(0.922827 0.0780648 -1.6433e-22)
(0.921558 -0.0281778 3.58228e-22)
(0.932204 0.0117527 5.13234e-22)
(0.940168 -0.0247219 4.69003e-22)
(0.932211 0.00389333 -3.05023e-22)
(0.882804 4.63314e-05 -9.87227e-23)
(0.834186 0.0217891 2.5328e-21)
(0.822046 0.00996602 -1.13381e-21)
(0.681261 0.0135167 -1.62658e-21)
(0.888999 0.113465 4.40593e-22)
(0.898745 0.0159824 -4.08102e-22)
(0.915649 0.0542489 -4.50701e-22)
(0.934326 0.0200127 -1.01182e-21)
(0.933413 0.0437395 4.02315e-21)
(0.89424 0.035026 -3.34721e-21)
(0.83657 0.0519178 -1.89901e-21)
(0.812262 0.0363275 3.37988e-22)
(0.611607 0.0318455 2.93365e-21)
(0.855138 0.1362 7.40906e-23)
(0.875091 0.05451 -2.86529e-23)
(0.896354 0.0900963 8.45292e-22)
(0.92264 0.0583692 4.6389e-22)
(0.931033 0.0763303 -3.18226e-21)
(0.902747 0.0638834 2.50296e-22)
(0.840392 0.0746073 -2.3189e-21)
(0.801721 0.0599958 -3.55084e-21)
(0.527659 0.0325532 -6.24181e-22)
(0.824354 0.148144 -1.70155e-22)
(0.852059 0.084164 -4.8303e-22)
(0.876013 0.11653 -2.491e-21)
(0.905166 0.0895273 6.02168e-22)
(0.923293 0.100495 1.61176e-21)
(0.907848 0.0856676 1.93227e-21)
(0.850729 0.0883616 2.87042e-21)
(0.797092 0.0790162 -1.78783e-21)
(0.422824 0.0208762 3.64949e-23)
(0.794902 0.140657 5.00134e-23)
(0.8331 0.104149 1.74573e-21)
(0.857513 0.13257 -8.30294e-23)
(0.884218 0.112756 1.04744e-21)
(0.907814 0.117076 -1.08731e-21)
(0.904792 0.102056 -7.78729e-21)
(0.865775 0.0967664 -1.3533e-21)
(0.804507 0.0905845 2.12687e-24)
(0.297134 0.00320074 3.03511e-21)
(0.754354 0.12613 -5.62259e-21)
(0.820606 0.117292 2.39142e-21)
(0.843644 0.14155 -3.2005e-21)
(0.863532 0.128657 2.36408e-21)
(0.886779 0.128668 -6.09641e-22)
(0.896714 0.114857 2.01048e-21)
(0.876556 0.104323 2.08993e-21)
(0.823185 0.0959307 -9.41518e-22)
(0.164137 -0.0190471 1.23878e-20)
(0.687148 0.106826 5.9091e-21)
(0.807812 0.124726 -6.09543e-21)
(0.830921 0.148219 7.20517e-22)
(0.844837 0.140196 -6.29682e-21)
(0.862884 0.13796 1.79416e-21)
(0.878024 0.125578 8.37751e-22)
(0.873689 0.11387 -1.28513e-21)
(0.842603 0.101308 -8.94154e-22)
(0.0252476 -0.0380107 -1.25703e-20)
(0.586147 0.0854034 -5.8871e-21)
(0.792421 0.133055 3.39207e-21)
(0.818397 0.157399 4.37502e-21)
(0.828743 0.151195 4.67812e-21)
(0.8393 0.147239 -1.88436e-22)
(0.853195 0.136519 -1.67874e-21)
(0.860599 0.125986 5.24198e-21)
(0.84843 0.111391 -1.4966e-20)
(-0.0810978 -0.0513648 2.4592e-21)
(0.436802 0.045519 4.01763e-21)
(0.740877 0.125122 -1.12708e-21)
(0.795751 0.166861 2.15041e-21)
(0.808843 0.164996 -4.34236e-21)
(0.813788 0.159013 -1.34924e-21)
(0.823977 0.149408 7.25023e-21)
(0.83453 0.139208 -7.60341e-21)
(0.836501 0.128678 9.22084e-21)
(-0.128918 -0.0865777 3.68028e-21)
(0.27294 0.0204727 7.71622e-22)
(0.679682 0.13327 2.06945e-21)
(0.780296 0.182477 -2.61161e-21)
(0.792881 0.183115 6.79003e-22)
(0.790466 0.17342 -3.87738e-21)
(0.795084 0.164197 2.71641e-21)
(0.802928 0.153692 -2.60081e-21)
(0.810766 0.150386 -1.54366e-21)
(0.62679 0.686333 -9.6119e-22)
(0.618694 0.695201 -3.15341e-21)
(0.607391 0.701431 -1.43739e-20)
(0.596088 0.707589 2.06356e-20)
(0.584314 0.712843 -1.64355e-20)
(0.572245 0.71683 1.34057e-20)
(0.55979 0.718896 5.93172e-21)
(0.546872 0.718415 -1.23867e-21)
(0.533232 0.714658 -1.08038e-20)
(0.518511 0.706925 -4.0925e-21)
(0.502336 0.694658 4.6747e-21)
(0.484569 0.677572 -5.5497e-21)
(0.464855 0.655581 1.73292e-20)
(0.442609 0.628954 -4.88791e-20)
(0.417419 0.598308 8.91706e-20)
(0.38912 0.564493 -1.07984e-19)
(0.357723 0.52836 1.02501e-19)
(0.323474 0.490744 -5.13177e-20)
(0.286948 0.452379 -2.03301e-20)
(0.249121 0.413865 2.11627e-20)
(0.211498 0.375484 -8.1381e-21)
(0.176556 0.337046 2.18128e-20)
(0.147862 0.297653 -2.72108e-22)
(0.125303 0.256451 -3.73463e-20)
(0.108099 0.213609 3.17331e-20)
(0.096275 0.169279 -2.12744e-20)
(0.0879237 0.118345 4.05966e-20)
(0.0826702 0.0694599 4.33787e-20)
(0.0802339 0.0177697 -8.58205e-20)
(0.0799167 -0.0327099 2.00372e-21)
(0.0833191 -0.0847827 -3.84251e-20)
(0.0908146 -0.137317 2.72066e-20)
(0.101803 -0.191166 3.87439e-20)
(0.115774 -0.241515 -2.91505e-20)
(0.13335 -0.290806 3.5078e-20)
(0.154322 -0.338056 -4.73937e-20)
(0.179434 -0.382763 5.08296e-21)
(0.208728 -0.425225 6.99339e-21)
(0.240505 -0.465876 -1.0892e-20)
(0.273369 -0.504896 2.1942e-20)
(0.306213 -0.542249 -1.03226e-20)
(0.338141 -0.577629 -4.31983e-20)
(0.368505 -0.610594 8.64099e-20)
(0.396955 -0.640568 -8.51966e-20)
(0.42326 -0.66699 7.03104e-20)
(0.447561 -0.689422 -3.96135e-20)
(0.469993 -0.707667 2.00513e-20)
(0.490455 -0.721617 -7.57971e-21)
(0.509057 -0.731374 5.94385e-21)
(0.526173 -0.737296 -7.04853e-21)
(0.542115 -0.739952 -7.61981e-21)
(0.557058 -0.739922 -1.54098e-21)
(0.571171 -0.737742 4.81252e-21)
(0.584525 -0.733884 9.35962e-21)
(0.597204 -0.728829 -1.396e-20)
(0.609273 -0.722998 1.64389e-20)
(0.620582 -0.71655 -1.06485e-20)
(0.631724 -0.710255 -2.50388e-21)
(0.639756 -0.701637 -2.79861e-22)
(0.683639 0.601519 1.16564e-22)
(0.673248 0.605285 3.06567e-21)
(0.6603 0.605929 -6.76633e-21)
(0.647573 0.605412 1.6919e-20)
(0.634752 0.60265 5.66887e-21)
(0.622179 0.597178 -4.60282e-20)
(0.609888 0.588281 8.14707e-21)
(0.597964 0.575513 -6.66014e-21)
(0.586939 0.55852 4.02122e-20)
(0.57645 0.537966 -2.4604e-21)
(0.563952 0.515437 -1.51996e-20)
(0.549242 0.492067 -2.15193e-20)
(0.533077 0.468412 5.78686e-20)
(0.514048 0.445674 -6.67228e-20)
(0.491705 0.42474 7.38665e-20)
(0.46614 0.405502 -2.65312e-20)
(0.438097 0.387292 -5.339e-20)
(0.407939 0.369168 4.34104e-20)
(0.376156 0.350039 2.00406e-20)
(0.343375 0.328929 -3.62304e-22)
(0.310546 0.304986 8.61845e-22)
(0.279121 0.277619 -7.29121e-20)
(0.250989 0.24669 5.84443e-20)
(0.227985 0.212533 -1.22253e-20)
(0.211162 0.175454 6.9674e-20)
(0.200328 0.135987 -3.76305e-20)
(0.193955 0.0947712 -7.32252e-21)
(0.190958 0.0518697 3.04003e-20)
(0.189906 0.00819682 -4.68958e-21)
(0.18996 -0.0358933 -2.89653e-21)
(0.193287 -0.07986 -1.99761e-20)
(0.200349 -0.122968 1.45429e-20)
(0.210744 -0.164524 -8.47903e-21)
(0.223792 -0.204559 -3.04463e-20)
(0.239698 -0.242653 2.31381e-20)
(0.258731 -0.278342 -4.15049e-22)
(0.281068 -0.311265 3.98918e-20)
(0.30651 -0.3411 -5.93494e-20)
(0.334408 -0.367876 1.54686e-22)
(0.363785 -0.39199 -5.59141e-21)
(0.393548 -0.414108 1.42819e-20)
(0.422661 -0.434987 3.6333e-20)
(0.450279 -0.455353 -5.92431e-20)
(0.476122 -0.475837 -3.16277e-20)
(0.49913 -0.496621 7.05936e-20)
(0.520284 -0.517349 -6.01192e-20)
(0.539128 -0.538019 4.7554e-20)
(0.555227 -0.558341 -1.32803e-20)
(0.569496 -0.577049 -1.53813e-20)
(0.584128 -0.592922 7.74125e-23)
(0.598576 -0.605674 3.46405e-20)
(0.612735 -0.615412 -9.22207e-21)
(0.626686 -0.622319 7.43332e-21)
(0.640416 -0.626647 -3.98936e-20)
(0.653863 -0.628744 6.98587e-21)
(0.667074 -0.629137 1.43131e-20)
(0.679753 -0.627983 -7.03935e-21)
(0.692454 -0.626287 2.91324e-21)
(0.702512 -0.621924 5.93416e-23)
(0.638475 0.546697 -9.68229e-21)
(0.631245 0.546962 2.29255e-21)
(0.622827 0.54332 -1.2391e-20)
(0.615347 0.536919 -3.77215e-21)
(0.608738 0.526895 4.19244e-20)
(0.603187 0.512986 -1.30347e-20)
(0.598728 0.49504 -2.5934e-20)
(0.595452 0.473817 -1.34901e-21)
(0.591384 0.450946 1.53832e-20)
(0.585295 0.428354 -4.82095e-21)
(0.577026 0.407122 4.60742e-20)
(0.56596 0.388037 -5.35563e-20)
(0.551238 0.371887 5.0481e-20)
(0.533301 0.358786 -5.23541e-21)
(0.512815 0.347876 -4.58182e-20)
(0.490816 0.337998 1.20667e-20)
(0.468271 0.327806 5.89819e-20)
(0.44553 0.31613 -2.49008e-20)
(0.422362 0.302136 -4.33297e-21)
(0.398387 0.285326 1.43669e-21)
(0.373704 0.265321 -2.14969e-20)
(0.349315 0.24185 7.33492e-21)
(0.326944 0.214752 -5.89076e-20)
(0.308362 0.184213 7.62027e-20)
(0.294708 0.150755 -3.45356e-20)
(0.286179 0.115129 -2.02336e-21)
(0.281943 0.0780815 5.6242e-21)
(0.280508 0.0403614 -3.65782e-20)
(0.280276 0.0025767 2.48328e-20)
(0.280345 -0.0353419 1.34436e-20)
(0.282583 -0.0732825 2.61843e-20)
(0.287495 -0.110558 -2.02814e-20)
(0.294902 -0.146604 8.92924e-21)
(0.304364 -0.181131 1.27453e-20)
(0.315805 -0.213913 -2.93385e-20)
(0.329593 -0.244625 7.88349e-20)
(0.346157 -0.2729 -4.66429e-20)
(0.365442 -0.298425 -1.15108e-20)
(0.386786 -0.32104 -8.25374e-21)
(0.409271 -0.340741 -2.75826e-21)
(0.43212 -0.357739 -1.49875e-20)
(0.454795 -0.372507 -2.1217e-20)
(0.476867 -0.385815 5.42902e-20)
(0.497817 -0.398595 2.47874e-20)
(0.517159 -0.411924 -4.84808e-20)
(0.534221 -0.426545 -1.47985e-20)
(0.548833 -0.442726 4.63001e-20)
(0.561366 -0.460528 -5.26125e-20)
(0.571881 -0.479661 3.59893e-20)
(0.58074 -0.499139 -1.45817e-21)
(0.588645 -0.517789 1.26311e-20)
(0.596025 -0.534593 1.72194e-21)
(0.603331 -0.54881 -2.4032e-20)
(0.610936 -0.560004 -1.07444e-20)
(0.618945 -0.568114 3.62142e-20)
(0.627386 -0.573442 -1.93638e-21)
(0.635999 -0.576152 -1.1194e-20)
(0.645132 -0.577149 2.6992e-21)
(0.652875 -0.574862 -8.13589e-21)
(0.646889 0.452887 -5.13477e-21)
(0.642557 0.445303 3.095e-20)
(0.637707 0.434184 -1.49097e-20)
(0.633808 0.41969 1.16515e-20)
(0.630903 0.402197 -1.31398e-20)
(0.628678 0.382557 -1.63218e-21)
(0.625969 0.362298 -9.0736e-21)
(0.622641 0.343013 -2.53118e-20)
(0.618416 0.3257 1.63569e-20)
(0.612448 0.311211 2.09481e-20)
(0.603526 0.3001 1.82504e-20)
(0.591365 0.2924 -6.38196e-20)
(0.576044 0.287407 5.96628e-20)
(0.557906 0.283996 -1.08053e-20)
(0.537756 0.28095 9.7325e-21)
(0.517016 0.277158 -3.90972e-20)
(0.497084 0.271575 3.90335e-20)
(0.478621 0.263564 -1.57428e-20)
(0.461249 0.252854 -2.14907e-20)
(0.444003 0.239398 1.45056e-20)
(0.426163 0.223054 -8.47528e-21)
(0.407952 0.203584 -3.90153e-20)
(0.390587 0.180796 2.95877e-20)
(0.375727 0.154849 2.9531e-20)
(0.364646 0.126249 -2.79397e-20)
(0.357672 0.0957581 3.33866e-21)
(0.354169 0.0641697 4.08141e-20)
(0.353045 0.0322182 -5.67717e-20)
(0.353058 0.000447928 2.20177e-20)
(0.353178 -0.0314116 -5.68365e-21)
(0.354629 -0.0633856 2.23411e-20)
(0.357968 -0.0947887 -4.62531e-20)
(0.363201 -0.125152 3.18318e-20)
(0.370124 -0.154273 -4.63953e-22)
(0.37889 -0.181942 -3.46051e-20)
(0.389965 -0.207836 1.48289e-20)
(0.4036 -0.231615 3.31501e-20)
(0.419367 -0.252977 -1.8143e-20)
(0.436315 -0.27171 -1.09054e-20)
(0.453574 -0.287665 2.00315e-20)
(0.470846 -0.300776 -8.39674e-21)
(0.488303 -0.311092 -7.77674e-21)
(0.506174 -0.318936 4.37509e-20)
(0.524323 -0.324947 -4.03295e-20)
(0.542227 -0.330063 1.66456e-20)
(0.559256 -0.335307 -4.87896e-21)
(0.574802 -0.341696 5.44e-20)
(0.588418 -0.35007 -5.24394e-20)
(0.599856 -0.360991 1.96952e-20)
(0.609337 -0.374499 1.63048e-20)
(0.617042 -0.39033 1.46431e-20)
(0.622902 -0.407702 -2.47463e-20)
(0.627974 -0.425267 -6.09484e-21)
(0.633293 -0.441698 -6.42517e-21)
(0.638701 -0.456192 -1.04144e-20)
(0.644398 -0.468312 7.97102e-21)
(0.650472 -0.477742 -1.31045e-20)
(0.657199 -0.484638 2.65915e-20)
(0.662874 -0.488536 -5.61084e-21)
(0.625482 0.369702 -2.45965e-20)