/*--------------------------------*- C++ -*----------------------------------*\
  =========                 |
  \\      /  F ield         | OpenFOAM: The Open Source CFD Toolbox
   \\    /   O peration     | Website:  https://openfoam.org
    \\  /    A nd           | Version:  10
     \\/     M anipulation  |
\*---------------------------------------------------------------------------*/
FoamFile
{
    format      ascii;
    class       volScalarField;
    location    "1150";
    object      epsilon;
}
// * * * * * * * * * * * * * * * * * * * * * * * * * * * * * * * * * * * * * //

dimensions      [0 2 -3 0 0 0 0];

internalField   nonuniform List<scalar> 
10435
(
0.110533
0.36839
0.405406
0.327187
0.821447
0.75061
0.350404
0.196588
0.109506
0.597438
0.586764
0.366915
0.529708
0.0383528
0.0412897
0.304277
0.0364163
0.617442
0.0745505
0.133627
0.248455
0.226538
0.359522
0.119677
0.547985
0.0142348
0.0236611
0.454167
0.0221964
0.624694
0.480699
0.686316
0.165915
0.0226787
0.21032
0.128609
0.263434
0.0238605
0.00969685
0.0926528
0.686476
0.36399
0.0252971
0.247637
0.335638
0.106552
0.705711
0.0237185
0.0872729
0.147153
0.218109
0.642265
0.00940721
0.0181415
0.0107377
0.0202355
0.221713
0.0256366
0.032788
0.167096
0.0105733
0.269621
0.0259066
0.670734
0.352727
0.448988
0.0299594
0.0292177
0.227438
0.121955
0.0177405
0.0189425
0.0168769
0.429394
0.0459545
0.0257851
0.132071
0.315629
0.137256
0.042909
0.145405
0.0735329
0.00913593
0.0185995
0.142619
0.0919926
0.117978
0.318768
0.0577855
0.15628
0.384768
0.452795
0.0863345
0.0698624
0.203676
0.0891516
0.467197
0.0448316
0.0344117
0.590971
0.0502075
0.947166
0.0895121
0.258173
0.906826
0.291199
0.10008
0.147171
0.141779
0.0476057
0.139528
0.966277
0.0626367
0.0540774
0.600754
0.20852
0.572226
0.126371
0.395481
0.446986
0.536095
0.0206129
0.174654
0.0394351
0.904094
0.0124503
0.459367
0.0238787
0.705665
0.022502
0.0300508
0.818286
0.255159
0.0395347
0.0211499
0.00860583
0.0817667
0.340167
0.312384
0.183871
0.158385
0.414773
0.0273794
0.53932
0.232778
0.0365943
0.0553999
0.716982
0.0348005
0.428347
0.0206703
0.308721
0.13422
0.453657
0.650542
0.0174169
0.958465
0.237503
0.632152
0.56823
0.3949
0.0372197
0.568146
0.236174
0.0526773
0.64035
0.159911
0.332577
0.228524
0.623105
0.568185
0.013784
0.0217372
0.041105
0.333536
0.43294
0.188171
0.0312782
0.127862
0.0243467
0.476646
0.791374
0.420014
0.0116456
0.394087
0.0206079
0.0215246
0.293774
0.837249
0.591088
0.463567
0.00900223
0.0210783
0.126512
0.975096
0.259419
0.0308203
0.069138
0.0277006
0.290767
0.05582
0.0232804
0.489367
0.0251183
0.458898
0.712345
0.484634
0.337736
0.0267414
0.230775
0.0174916
0.377971
0.532751
0.266222
0.0235402
0.0368851
0.0616321
0.0117535
0.0144687
0.0356579
0.0228553
0.0337587
0.0290547
0.0404143
0.0161443
0.238509
0.011899
0.054732
0.543234
0.0282819
0.0316344
0.196911
0.0131024
0.288355
0.0243648
0.0349553
0.192757
0.0160118
0.186892
0.518485
0.206601
0.0141122
0.0126993
0.0198285
0.65499
0.127896
0.0637823
0.230186
0.0173398
0.304363
0.0172681
0.0670126
0.552924
0.22897
0.262736
0.72329
0.0156445
0.287322
0.0155218
0.023064
0.312645
0.57542
0.0140129
0.170713
0.0739374
0.0332382
0.168385
0.419916
0.0105493
0.714114
0.340096
0.186293
0.231646
0.511992
0.0159563
0.434126
0.0229184
0.840135
0.290367
0.163661
0.550561
0.0302394
0.367276
0.0468602
0.0830509
0.0101889
0.793607
0.0107795
0.0190034
0.0234759
0.0476192
0.701347
0.0268423
0.206978
0.00990392
0.0173922
0.0331227
0.0902817
0.827309
0.491484
0.0290285
0.192673
0.39203
0.0189003
0.770742
0.0401735
0.0336562
0.269021
0.471859
0.0192093
0.114406
0.0208673
0.199197
0.776836
0.139418
0.0178864
0.0123377
0.494905
0.0308858
0.337968
0.864385
0.02429
0.105391
0.008871
0.140765
0.500906
0.0175608
0.416573
0.0314434
0.0246843
0.136838
0.0251223
0.0192193
0.381096
0.361454
0.0270128
0.0184225
0.0179163
0.0207509
0.0210967
0.0188938
0.0182754
0.0103594
0.021684
0.0208519
0.0200221
0.0283619
0.0249448
0.00874591
0.118102
0.019616
0.500161
0.0231603
0.44333
0.12031
0.0744497
0.521349
0.415767
0.0190842
0.0210122
0.0182433
0.0128166
0.0205888
0.010311
0.0231714
0.0200725
0.0269949
0.30631
0.0195425
0.104924
0.0117338
0.0213704
0.548534
0.0586197
0.0104624
0.0235215
0.0250421
0.0242836
0.020722
0.0157596
0.0272634
0.0112145
0.153137
0.0292153
0.204894
0.104127
0.471355
0.499179
0.0903313
0.424949
0.174621
0.0328967
0.0167126
0.0212621
0.018297
0.402949
0.0199741
0.55776
0.026073
0.0246686
0.0222968
0.0263276
0.0134453
0.330525
0.0245414
0.178452
0.253858
0.0138884
0.0171333
0.024407
0.0638142
0.0242711
0.0183223
0.0152395
0.0204804
0.0259135
0.0226065
0.425002
0.0178219
0.017485
0.0226027
0.0236928
0.613313
0.0108372
0.00911483
0.0433589
0.0207189
7.22812e-05
6.89998e-05
6.43816e-05
5.91069e-05
5.35738e-05
4.78154e-05
4.1867e-05
3.57873e-05
2.96735e-05
7.7665e-05
7.33589e-05
6.78182e-05
6.18068e-05
5.56423e-05
4.94259e-05
4.3213e-05
3.71149e-05
3.1319e-05
8.45395e-05
7.91882e-05
7.26547e-05
6.57873e-05
5.89095e-05
5.21332e-05
4.55365e-05
3.92383e-05
3.34184e-05
9.38221e-05
8.7298e-05
7.95687e-05
7.16547e-05
6.38812e-05
5.63606e-05
4.91748e-05
4.24249e-05
3.62467e-05
0.000106713
9.87531e-05
8.94928e-05
8.02234e-05
7.12579e-05
6.27067e-05
5.4639e-05
4.71212e-05
4.02163e-05
0.000124889
0.000115054
0.000103754
9.26598e-05
8.20598e-05
7.20619e-05
6.27141e-05
5.40515e-05
4.60911e-05
0.000150832
0.000138385
0.000124276
0.000110667
9.77977e-05
8.57652e-05
7.45937e-05
6.43043e-05
5.49147e-05
0.00018839
0.000171889
0.000153835
0.000136741
0.00012072
0.000105832
9.20731e-05
7.94654e-05
6.80638e-05
0.000242872
0.000219845
0.00019636
0.000174506
0.00015415
0.000135279
0.000117858
0.000101897
8.74625e-05
0.000319943
0.000287674
0.000257237
0.00022909
0.000202887
0.000178538
0.000155992
0.000135229
0.000116244
0.000424194
0.00038192
0.000343534
0.000307438
0.000273556
0.000241844
0.000212302
0.000184898
0.00015958
0.000559104
0.000510705
0.000464141
0.00041838
0.000374701
0.000333386
0.000294603
0.000258359
0.000224635
0.000731915
0.000685133
0.000629801
0.000572283
0.000516343
0.000462885
0.000412328
0.000364764
0.000320321
0.000970826
0.000920535
0.000852502
0.000779966
0.000708803
0.000640404
0.000575362
0.000513849
0.000456134
0.00129905
0.00123056
0.00114258
0.00105066
0.000960965
0.000874752
0.000792521
0.000714342
0.000640124
0.00172708
0.00162136
0.00150559
0.00139009
0.00127884
0.0011723
0.00107062
0.000973832
0.000881794
0.00224031
0.00208851
0.00194127
0.00180004
0.00166544
0.0015369
0.0014142
0.00129736
0.00118679
0.0028073
0.0026214
0.00244599
0.00228003
0.00212214
0.00197128
0.00182684
0.00168868
0.00155722
0.00342107
0.00321487
0.00301777
0.00283034
0.00265107
0.00247903
0.00231342
0.00215386
0.00200039
0.00408713
0.00387193
0.0036592
0.00345428
0.00325678
0.00306618
0.00288148
0.00270215
0.00252855
0.00481871
0.00460168
0.00437723
0.00415845
0.00394677
0.00374161
0.00354138
0.0033448
0.00315165
0.00563501
0.00541654
0.00518103
0.00495144
0.00473068
0.00451687
0.00430698
0.00409845
0.00389027
0.00656471
0.00633
0.00607968
0.00584227
0.00561938
0.00540537
0.00519476
0.0049832
0.00476959
0.007643
0.0073517
0.0070785
0.00683812
0.00662333
0.00642115
0.00622242
0.00602011
0.0058128
0.00889878
0.00847548
0.0081771
0.00794477
0.00775389
0.00757957
0.00740932
0.00723458
0.00702577
0.000876274
0.000858989
0.000846034
0.000837366
0.000832969
0.000832741
0.000836572
0.000844253
0.000855588
0.00087027
0.000887981
0.000908333
0.000930851
0.000955043
0.000980301
0.00100601
0.0010315
0.00105607
0.00107902
0.00109963
0.00111715
0.00113071
0.00113914
0.00114048
0.00113365
0.00112036
0.00110113
0.00107552
0.00104201
0.0010031
0.000959714
0.000912193
0.000861076
0.000807321
0.000751807
0.000695379
0.000638844
0.000582955
0.00052841
0.00047583
0.000425745
0.000378597
0.000334712
0.000294321
0.00025756
0.000224493
0.000195158
0.000169545
0.00014755
0.000129003
0.000113652
0.000101191
9.12916e-05
8.36314e-05
7.79205e-05
7.39081e-05
7.13977e-05
7.02445e-05
7.03252e-05
0.000893594
0.000878689
0.000867807
0.000860944
0.000858042
0.000858977
0.000863551
0.000871472
0.000882505
0.000896406
0.000912878
0.00093157
0.000952067
0.000973899
0.000996542
0.00101942
0.00104194
0.00106344
0.0010833
0.00110084
0.0011154
0.00112629
0.00113273
0.00113377
0.00112834
0.00111581
0.001096
0.00106917
0.00103612
0.000997915
0.000955268
0.000908693
0.000858756
0.000806144
0.00075161
0.000695936
0.000639905
0.000584268
0.000529732
0.000476932
0.000426432
0.000378709
0.000334155
0.000293072
0.000255677
0.000222106
0.000192426
0.000166615
0.000144554
0.000126037
0.000110752
9.83665e-05
8.85334e-05
8.09166e-05
7.52159e-05
7.11687e-05
6.85741e-05
6.72888e-05
6.71811e-05
0.00089246
0.000878843
0.00086881
0.00086235
0.000859428
0.000859968
0.000863855
0.000870924
0.000880964
0.000893721
0.000908899
0.000926153
0.000945091
0.000965269
0.000986197
0.00100734
0.00102814
0.00104798
0.00106625
0.0010823
0.00109545
0.001105
0.00111013
0.00111001
0.00110388
0.00109126
0.00107196
0.00104615
0.00101432
0.000977229
0.000935626
0.000890146
0.000841421
0.000790124
0.000736961
0.000682662
0.000627951
0.000573537
0.000520085
0.00046821
0.000418467
0.000371342
0.000327249
0.00028653
0.00024945
0.000216187
0.000186826
0.000161344
0.000139607
0.000121378
0.000106355
9.41842e-05
8.45135e-05
7.70059e-05
7.13603e-05
6.73224e-05
6.46886e-05
6.33113e-05
6.30592e-05
0.000868069
0.000855384
0.000846068
0.000840086
0.000837378
0.000837848
0.000841375
0.000847801
0.000856936
0.000868552
0.000882381
0.000898115
0.000915399
0.000933833
0.000952971
0.000972321
0.000991351
0.00100949
0.00102614
0.00104066
0.00105239
0.00106062
0.00106465
0.00106375
0.00105731
0.00104486
0.00102625
0.00100159
0.000971265
0.000935883
0.000896092
0.000852548
0.000805903
0.00075682
0.000705974
0.00065404
0.00060169
0.000549575
0.000498317
0.000448498
0.000400651
0.000355256
0.000312735
0.000273444
0.000237665
0.000205586
0.000177297
0.000152772
0.000131875
0.000114371
9.99652e-05
8.83068e-05
7.90383e-05
7.18296e-05
6.63917e-05
6.24804e-05
5.98981e-05
5.85002e-05
5.81597e-05
0.000829723
0.000818131
0.000809642
0.000804219
0.000801801
0.000802294
0.000805579
0.000811507
0.000819898
0.000830537
0.000843177
0.000857531
0.000873274
0.000890039
0.000907413
0.000924943
0.000942131
0.000958441
0.000973302
0.000986111
0.00099624
0.00100304
0.00100588
0.00100414
0.000997324
0.000985068
0.000967226
0.000943878
0.000915316
0.000881999
0.000844484
0.000803379
0.000759316
0.000712937
0.000664888
0.000615808
0.000566326
0.00051705
0.000468571
0.00042144
0.000376169
0.00033322
0.000293005
0.000255868
0.00022208
0.00019182
0.000165165
0.000142082
0.000122434
0.000105994
9.24654e-05
8.15185e-05
7.28164e-05
6.60442e-05
6.09237e-05
5.72215e-05
5.47504e-05
5.3372e-05
5.29651e-05
0.000776903
0.00076615
0.000758287
0.000753276
0.000751055
0.000751528
0.000754575
0.000760048
0.000767768
0.000777528
0.000789089
0.000802179
0.000816492
0.000831684
0.00084737
0.000863128
0.000878495
0.00089297
0.000906029
0.00091712
0.000925671
0.000931101
0.000932855
0.000930417
0.000923355
0.000911385
0.000894387
0.00087243
0.000845741
0.000814693
0.000779763
0.000741493
0.000700478
0.000657326
0.000612637
0.000567014
0.000521036
0.000475271
0.000430278
0.000386576
0.000344642
0.000304908
0.000267753
0.000233496
0.00020238
0.000174559
0.000150091
0.000128935
0.000110952
9.59221e-05
8.35653e-05
7.35738e-05
6.56351e-05
5.94591e-05
5.47856e-05
5.13975e-05
4.91221e-05
4.7831e-05
4.74122e-05
0.000711584
0.000701643
0.000694352
0.000689683
0.00068759
0.00068798
0.000690741
0.000695731
0.000702778
0.000711675
0.000722194
0.000734073
0.000747023
0.000760716
0.000774794
0.00078887
0.000802514
0.000815258
0.000826626
0.000836116
0.000843212
0.000847401
0.000848218
0.000845229
0.000838057
0.000826483
0.00081042
0.00078994
0.000765218
0.000736561
0.000704392
0.000669193
0.000631535
0.000591992
0.000551099
0.000509426
0.000467491
0.000425815
0.000384939
0.000345326
0.000307398
0.000271539
0.00023808
0.000207302
0.000179411
0.000154528
0.000132694
0.000113853
9.78665e-05
8.45266e-05
7.35755e-05
6.47317e-05
5.77133e-05
5.22567e-05
4.81292e-05
4.51354e-05
4.31198e-05
4.19663e-05
4.15745e-05
0.000631779
0.000622342
0.000615349
0.000610803
0.000608672
0.000608882
0.000611322
0.000615861
0.000622316
0.00063047
0.00064012
0.00065098
0.000662767
0.000675165
0.000687851
0.000700509
0.000712756
0.000724119
0.000734179
0.000742422
0.000748384
0.000751607
0.000751759
0.000748525
0.000741498
0.000730567
0.000715655
0.000696862
0.000674258
0.000648109
0.000618834
0.000586878
0.000552851
0.000517297
0.000480613
0.000443359
0.000406008
0.000369
0.000332886
0.000298012
0.000264737
0.000233377
0.000204204
0.000177451
0.000153293
0.000131804
0.000113019
9.68591e-05
8.31839e-05
7.17955e-05
6.24628e-05
5.494e-05
4.89822e-05
4.43629e-05
4.08819e-05
3.83701e-05
3.66917e-05
3.57451e-05
3.54417e-05
0.000534538
0.000525237
0.000518263
0.000513703
0.000511574
0.000511773
0.000514125
0.00051835
0.000524475
0.000532526
0.000541885
0.000552263
0.000563295
0.000574594
0.000586119
0.000597538
0.000608816
0.000619801
0.000629491
0.000637072
0.000642242
0.000644747
0.000644543
0.000641326
0.000634864
0.000624975
0.00061167
0.000594965
0.00057473
0.000551092
0.000524724
0.000496153
0.00046599
0.000434789
0.000402867
0.000370267
0.000337659
0.000306116
0.000275553
0.000246008
0.000217947
0.000191637
0.000167254
0.000144937
0.000124803
0.000107014
9.15548e-05
7.84146e-05
6.73737e-05
5.81495e-05
5.05482e-05
4.4413e-05
3.95749e-05
3.58497e-05
3.30657e-05
3.10944e-05
2.9825e-05
2.91664e-05
2.90394e-05
0.0177966
0.0160305
0.0144126
0.0128959
0.0114608
0.0101071
0.00884106
0.0076699
0.00659798
0.00562554
0.00477222
0.00405682
0.00347503
0.00300567
0.00261107
0.00227171
0.00198794
0.00175827
0.00157621
0.00142998
0.00130879
0.00120425
0.00110962
0.00101916
0.000927296
0.0169893
0.0156736
0.0142338
0.0127793
0.0113594
0.0100007
0.00872343
0.00754165
0.00646499
0.00550256
0.004664
0.00395262
0.00336225
0.00287902
0.0024845
0.00216257
0.00190166
0.00169221
0.00152527
0.00139154
0.00128195
0.00118854
0.00110473
0.0010249
0.000943885
0.016998
0.0156056
0.0141412
0.0126662
0.0112219
0.00983931
0.00854306
0.00735064
0.00627416
0.00532184
0.00449686
0.00379651
0.00321315
0.00273536
0.00234943
0.0020413
0.00179752
0.00160569
0.00145483
0.00133525
0.00123819
0.00115594
0.00108196
0.00101083
0.000938233
0.0171616
0.0156118
0.0140552
0.0125204
0.0110359
0.00962703
0.00831606
0.0071196
0.00604861
0.00510841
0.00429843
0.0036131
0.00304364
0.0025791
0.00220697
0.00191376
0.00168554
0.00150902
0.0013724
0.00126552
0.00117958
0.00110703
0.00104143
0.000977523
0.000910933
0.0173556
0.0156559
0.0139879
0.0123734
0.010835
0.0093934
0.00806603
0.00686602
0.00580102
0.00487303
0.00407869
0.00341052
0.00285856
0.00241133
0.00205609
0.00177917
0.00156645
0.00140439
0.00128087
0.00118549
0.00110947
0.00104538
0.000987018
0.000929492
0.000869117
0.0175163
0.0156839
0.0139033
0.0122043
0.010609
0.00913363
0.00779033
0.00658777
0.00552977
0.00461515
0.00383823
0.0031898
0.00265853
0.00223179
0.001896
0.00163691
0.00144018
0.00129223
0.00118098
0.00109611
0.00102898
0.000972425
0.00092057
0.000868818
0.000813627
0.0176607
0.0156879
0.0137873
0.0120012
0.0103496
0.00884218
0.00748469
0.00628111
0.00523174
0.00433249
0.00357556
0.00295004
0.00244291
0.0020398
0.00172591
0.00148628
0.00130631
0.00117255
0.00107319
0.000998182
0.000939164
0.000889322
0.000843111
0.000796245
0.000745704
0.0178126
0.015654
0.0136191
0.0117467
0.0100443
0.00851025
0.00714255
0.00594048
0.00490225
0.0040213
0.00328771
0.00268899
0.00221026
0.00183435
0.00154511
0.00132677
0.0011645
0.00104523
0.000957629
0.000892072
0.00084053
0.000796617
0.000755023
0.000711636
0.000664261
0.0179266
0.0155425
0.0133701
0.0114223
0.00968179
0.0081306
0.00675939
0.00556123
0.00453639
0.00367755
0.00297086
0.00240369
0.00195933
0.00161485
0.0013533
0.00115834
0.00101472
0.000910217
0.000834481
0.000778337
0.000733794
0.000695349
0.000657179
0.000614402
0.000566566
0.597044
0.577097
5.79385
1.17951
0.000437715
0.000649254
0.0337694
7.62304e-05
4.40459
3.89294e-05
2.95611
0.000421556
0.00375261
0.00170736
0.0269202
0.000377219
3.07637
0.937001
2.51659e-05
0.099884
0.00531668
0.000191889
3.31111
0.00228573
7.26595e-05
0.000122228
6.67317e-05
0.00990405
0.844867
2.88199
2.93517e-05
0.000165715
2.60159
0.00642479
2.84173
0.000247574
0.0195719
0.027226
0.0213691
0.000392969
3.95386
9.11911e-05
0.000152617
0.0250972
0.00495537
0.000290899
4.68936
5.5761
1.39519
1.44709
4.30104
3.37709
0.00319215
0.807778
0.0312706
4.27558
0.00144521
0.00344714
0.000258551
3.32779
0.00039734
6.26228
0.000440751
0.000294672
7.84933e-05
0.023204
0.000184702
0.00959648
0.00425116
1.4057
3.84512
0.000265312
0.000200822
0.0888116
6.95803e-05
0.0047839
0.0660386
4.98202
7.54365e-05
0.613203
0.00564116
0.000571385
9.17103e-05
2.94728
0.00038792
0.000438663
0.000153007
4.82798
2.66192
0.00149616
0.00262649
0.000500455
6.30768e-05
0.000457085
0.000265898
2.97778
0.000129648
3.36796
0.000220246
3.24346
0.00349868
3.88477
0.00416612
0.000265469
0.000196464
0.0052597
3.53975
0.00548422
0.000238445
2.89027
0.000218236
0.000435594
3.48531
0.000249545
0.00316235
1.34494
2.72887
0.000328537
0.002942
0.000312808
1.78462e-05
0.000414932
0.00224872
8.24477e-05
2.77845
0.000150629
3.39797
0.0554184
0.000197672
5.55005
8.78588e-05
0.0842401
1.4658
0.0163679
0.0124865
0.000157083
0.0046422
0.00202997
0.000341706
0.113783
0.000163823
0.0204185
3.45994
2.74986e-05
1.01338
0.000446234
1.41788
0.0227939
0.000378325
2.81213
0.00653107
0.000803081
1.42684
0.0409522
0.000112811
2.86267
0.000125437
0.000305963
0.0595721
0.000104205
0.000149205
3.91032
0.000209363
3.60655
0.000103888
3.67274
0.00172832
6.22962e-05
0.000480198
0.000152952
0.00150323
0.000307286
0.00976044
3.23535
0.000194357
0.00674775
0.0114552
1.12995
2.00196
0.00017091
0.0127892
0.000164843
0.00305941
0.0148758
0.0188868
0.000118831
4.03005
0.000223451
1.70595
0.000358055
4.72726
3.34815
1.30941
0.0199541
0.0329008
1.95586
6.77752e-05
0.00018507
1.1688
0.684405
0.00880961
0.000509076
0.000526399
0.000382217
0.00489315
7.5615e-05
0.000227813
0.00421582
1.5072
0.000241455
0.000184029
0.000508254
0.011952
0.00450536
0.00800842
4.5095
0.000340119
8.77481e-05
0.000419386
0.0025732
0.00364666
0.000107036
0.000141595
6.13054
0.0179372
2.99898
0.00123897
3.06033
0.000214839
0.000232804
2.63764
0.000250876
0.000172852
0.000106112
0.0211288
5.05027e-05
0.0522714
0.00620382
0.0153766
0.0433012
3.93063e-05
0.000402987
0.000106064
0.0160005
0.000177947
0.000133723
0.000152003
0.00729599
0.000364457
9.68501e-05
0.000176531
0.00738522
8.42461e-05
1.33429
0.000191155
6.7463e-05
3.33602
0.0621244
0.0575012
2.51502e-05
0.00820415
0.000258165
0.000259131
9.43678e-05
0.0797674
9.56375e-05
7.88344e-05
1.79922
0.034653
6.17239e-05
0.00730181
1.3847
0.000232506
8.96977e-05
2.71475e-05
1.80025
0.000304217
4.38852
0.00148896
3.87209
0.0266126
0.00688303
0.00769569
0.000287576
2.03277
0.00039127
0.00580918
0.0809136
4.19694
4.95894
0.0450705
0.000226092
6.51543e-05
4.47259
0.0276031
4.39419
4.06649
0.000335394
0.000109693
2.47238
3.53793
0.000146612
0.000697169
0.000406789
3.71687
8.99552e-05
0.00571625
9.78031e-05
0.113881
0.000530663
0.000268685
0.00011838
2.12111
0.000154453
0.000245575
0.0212255
5.191
9.27326e-05
7.37013e-05
0.0370357
0.0595249
0.000133081
0.000815812
2.91126e-05
0.000166074
9.49423e-05
2.64934
0.00590618
0.000297466
0.00368168
9.8974e-05
0.0315377
0.00288631
4.27848e-05
4.42229
0.000475043
0.000134828
9.84409e-05
1.61917e-05
0.0082209
0.000538714
0.000364519
2.7186
0.000106452
0.0750765
0.000349542
0.000988244
0.00019058
0.000152946
4.47965
0.433282
6.51776e-05
0.000216545
0.056045
4.52227
0.0134112
0.0690804
0.02362
0.00010921
4.93812
1.51772
2.89038
9.02396e-05
2.89217
6.75315e-05
0.000137251
0.00041143
5.32135
0.000231641
1.57884
0.000180743
0.040713
0.82676
3.13495
0.00376683
0.000131967
0.000251185
9.65267e-05
0.000122481
4.68087e-05
3.978
0.000297088
2.75262
0.027807
0.0252941
0.0514058
0.000105186
0.0966317
2.67944
4.75889
0.0240033
7.71243e-05
0.00389388
2.45376
0.0127358
3.10314e-05
9.38386e-05
2.53792
0.000302724
0.872059
7.85997e-05
0.000155304
0.00039137
1.05161
0.000317372
6.23898e-08
0.030067
0.00433676
0.0259034
3.99639e-05
1.84852
0.000247202
2.45862
0.000327634
0.000120015
0.00265554
1.54656
4.47642
0.000217688
0.000480613
0.000110004
0.000121819
0.00170464
0.00514187
0.000417161
4.38376
7.37908e-06
0.000940175
7.02008e-05
0.00016015
0.000359386
7.38573e-05
0.00158119
6.77335e-05
0.0436745
0.000388505
0.000213175
4.74275e-05
0.00018166
0.00140284
9.53616e-05
0.0431612
4.45824
0.0248179
0.00473066
5.29879
0.00727059
2.51707
0.000184277
7.76914e-05
3.09669
0.000137777
0.000209134
2.28975
0.000112544
1.3088
4.5962
0.000418612
0.00277103
0.0489473
0.000226699
0.0176339
1.76542
0.0108461
3.98384
0.000101072
0.000237703
6.44182
9.16499e-05
2.72527
0.00647707
0.000114877
2.8633
0.00153524
8.3039e-05
0.00496862
0.0012516
0.000101436
0.0224865
0.0166129
0.00819949
0.0199728
7.29766e-06
0.000381554
2.84677
0.000318197
0.000520158
0.000339513
1.33659
0.000189231
0.0316018
0.000267534
0.000215237
2.33885
0.000218108
0.000435592
0.0300047
0.000363857
7.36603e-05
1.53727
0.00015226
0.0437069
0.000281558
0.0130821
0.0103256
0.00772842
0.000372838
0.000346884
0.0315204
0.000155485
0.000145306
0.00694816
0.000191169
0.00107942
0.000123756
5.27416
3.61105
1.64899
0.000145262
0.0144528
5.76968e-05
4.92051
0.102574
3.14437
0.00634284
0.000345882
4.21968
3.80093
7.84327e-05
0.000358668
0.00722417
0.000203583
2.16931
3.2453
0.00034795
0.0311746
0.000157622
2.11048
1.27628
0.000284112
0.0356358
2.91539
0.000178263
3.86072
0.00028318
5.35705
0.000170376
0.00300191
0.000355186
4.25963
0.0200518
0.0198048
0.000186877
1.38329
1.60323
5.32362
0.00011775
9.59834e-05
0.00317238
1.73167
8.25414e-05
0.0158013
0.000158717
0.0041182
2.84643
3.17951e-05
0.0130252
0.000208406
0.000162092
0.0105598
2.29875
0.00039289
0.0214461
0.000306868
0.00047335
3.42931
4.91098
1.79199
0.00340998
0.0115333
0.10932
0.00292062
0.000496791
6.16845e-05
7.79283e-05
2.51521
0.000165043
0.000672105
0.0504969
0.000445594
0.00109854
0.000550686
0.000276282
0.0391272
0.000119296
0.000289844
0.00525694
1.70416
0.000345547
0.000155104
2.74868
0.00973037
8.1829e-05
0.00093285
0.0511232
0.00020198
0.000411502
6.4329e-05
0.0515145
0.000140715
0.000153718
0.0204945
0.000123499
0.000458803
0.00437996
0.00380251
0.000153013
0.000923654
5.50089
0.000321985
8.28226e-05
0.000132128
8.58135e-05
0.00140781
0.000202643
3.14034
5.65878
0.00882182
2.34851
9.86801e-05
6.33316e-05
9.95436e-05
0.000135099
0.000442221
0.000297068
0.0052153
0.00142775
0.000177172
0.000699806
0.0333614
0.0118383
0.00265587
0.0229087
0.000172668
0.000562838
9.24476e-05
0.0032934
0.0302899
3.06453
0.038456
0.0552252
0.000156719
3.79085e-05
0.000181322
0.000369
5.50376e-05
4.94965
2.49169e-05
0.00976338
0.00012216
1.96505
0.360589
2.87557
1.96546e-05
0.000100736
7.61797e-05
3.85975
2.6222
0.0181324
0.00303931
0.000175412
3.17049e-05
0.000367374
3.38736
3.69093e-05
0.000117205
0.0170202
0.000223042
0.000195302
5.42422e-05
0.00022355
0.0036118
0.00103658
9.66913e-05
8.0364e-05
0.0033671
9.64551e-05
1.04836
4.01615
0.000159213
0.0291638
0.000251895
2.83537
8.0813e-05
0.000100196
0.000101038
0.000116919
0.0624742
0.000353013
0.000145124
0.000263722
0.0079445
0.000185788
0.000347994
0.000236002
4.05084
0.0275809
0.00599162
5.26731
0.0316787
1.35151
2.85925
2.6416e-05
0.000119398
9.12587e-05
2.48152e-07
0.00026309
0.0263165
0.000434668
0.000205195
0.00337779
4.28482e-05
5.21409e-05
0.010734
0.000123874
0.000101704
8.94322e-05
0.00606747
0.00716785
4.02077
3.35466e-05
2.13793
0.0352503
1.07966
0.010183
3.974
4.17763
2.17442
9.01091e-05
0.000368805
1.57908e-05
0.00640782
0.000193588
0.0321509
0.825827
8.19045e-05
0.0664583
0.0253811
0.000139674
8.47024e-05
0.0002666
5.43884
4.7021
0.000125071
0.0390921
0.0414271
0.0033733
2.36225
3.12534e-09
9.50472e-05
0.0112294
2.34282e-05
0.720633
0.026979
3.05477
0.0396417
7.63388e-05
0.0400043
0.000292607
1.7414e-06
0.0171212
0.000955128
0.0025177
0.00010821
0.000150726
0.0275943
0.000378387
0.000114199
0.000151212
0.000272574
0.0160238
0.000370832
3.43984
0.0298794
0.000168565
0.325379
0.000311504
0.107624
0.000539352
6.09647e-05
0.000179199
0.0111163
0.00729972
2.88611e-05
0.000213271
4.53163
4.40733
0.0367264
0.000362493
0.019761
0.0196849
0.0461645
5.55546
0.016183
0.0024256
0.000122989
3.38136
0.000221342
7.63716e-05
0.00358818
1.95544
5.24197
0.000181138
0.000281848
1.49839
8.80519e-05
5.01172
2.11465
0.000192378
0.000179616
5.10277
0.857303
0.895956
9.7219e-05
0.000101113
0.000128079
0.0172185
0.0195508
0.000131112
7.5595e-05
0.000525689
0.034249
0.000714062
0.0126698
0.880694
3.24695e-05
0.000160827
4.56521
3.75679e-05
0.00649217
0.000438131
0.0105872
0.000135918
0.000217211
0.0228312
0.00024859
8.73851e-05
7.47721e-05
0.00813644
0.00710836
4.61159
9.33822e-05
8.72078e-05
0.000193689
0.0227571
0.110982
5.59483
0.000273507
0.00678516
0.0291583
1.4468e-06
7.58358e-05
0.000923968
2.6877
0.000194728
0.0886185
0.000398257
5.69132e-06
0.0199289
0.000351857
3.48163
2.5039
0.0206334
3.5148
3.90407
5.33177
3.92385e-05
2.19138
0.0194994
0.000154003
0.0302456
0.000211229
0.000973258
0.0598822
0.000339838
0.00228364
0.0119926
5.3127
0.000178808
0.000124949
2.09111
0.00193097
0.000419478
0.0316628
0.95793
0.0668384
6.89863e-05
0.00457441
5.3166
3.00249
0.0236677
0.00517837
1.34636
0.00165588
0.000120162
0.0158133
1.89564
0.000174633
0.0219328
0.000989765
2.12475
0.000420383
0.0171167
0.837734
3.14421e-05
0.000650554
7.31545e-05
2.33841
0.0541634
2.21714
1.19938
0.000427744
0.0112008
0.0129633
0.00278931
0.778497
0.00343389
8.81932e-05
0.000378758
0.00031945
0.000146691
0.0198821
2.91813
0.00029061
2.32067
0.000210128
0.050136
4.55595e-05
0.000219116
7.32584e-05
3.17111
1.96816
0.0091476
0.00840038
0.000148049
0.000207503
0.0425023
6.1466e-05
0.0515123
0.018173
3.10102
0.000435791
0.00905241
0.045079
0.000395476
0.000453778
0.000521346
3.17179
0.00036731
0.00290522
0.0480136
0.0307903
0.000248661
0.00276801
8.12721e-05
0.000230749
0.000358164
0.000200633
0.00473346
0.000129875
0.00573682
2.15128
0.103967
3.04373
0.00019734
0.00478544
0.0131422
0.000131793
0.975712
0.000524073
0.00141487
3.56601
0.000404645
0.0111911
0.0016235
6.30575e-05
1.44624
5.48923e-05
0.0107993
0.000164778
0.0356843
0.0403227
2.67665
0.000146301
0.0436248
0.000155285
0.0120385
0.00037028
2.65471
0.0148495
0.0057303
2.92212
0.000562727
4.5788
0.000272486
1.24162
0.000727009
7.8399e-05
0.00032905
0.0183595
0.0294786
0.000362316
6.95116e-05
0.0686634
9.50349e-05
7.82575e-05
0.000180893
0.000165904
0.000289246
5.43362
0.000448748
0.000246679
0.0415964
0.00855948
5.31185
0.000122978
0.000109688
0.000190491
0.00744104
0.000503475
0.000855168
3.73061
0.00960138
0.023944
0.000110034
0.00303118
0.0218339
2.41136
9.25399e-05
5.93751e-05
0.00074641
0.000487013
0.000162829
0.0225289
4.65442
0.810188
0.0125428
0.000139553
0.0439483
3.10891
0.00637502
0.0480525
0.000404913
1.01281
2.77311
4.9272
0.000304703
0.000313251
0.00419388
2.14651
0.000448157
4.75478
0.00127638
0.0132779
1.67533
5.93198e-05
0.000506623
0.0012753
4.4548e-05
2.86839e-05
0.00190508
0.875848
2.94605e-05
2.10914
0.000135639
0.000176039
0.00012352
4.92568e-05
0.0037322
0.000463925
0.103973
0.0118833
0.000333465
0.000398846
1.18249
2.78217
8.71934e-05
0.000234134
0.000241143
0.0311876
0.507013
0.00523674
3.67069
0.000117246
4.41785e-05
0.00317912
0.000268757
0.00445891
0.0402623
0.000121764
0.00013945
3.39294e-05
0.00230786
0.0137773
4.25478
0.0435185
4.68584e-05
0.00499767
4.7577e-05
3.35106
3.69023
0.000114502
4.28786e-05
0.0651062
0.000161604
0.000377781
1.17588
0.885859
0.0019986
5.37259e-05
0.000183545
0.015551
0.871529
0.000229846
0.00019502
0.800569
2.25652
8.95711e-07
0.000158314
0.000136112
0.000216513
0.0139967
0.00313354
0.000228577
0.0471069
0.000331329
0.000141063
0.000239999
0.00419242
0.000194929
4.12547
1.67081
3.15574
0.747785
0.0555667
1.74027
0.000157924
3.14206
0.00460879
8.39876e-05
0.00496126
0.000351965
0.00388122
0.000133534
0.000234596
0.000288327
2.44826
7.38596e-05
0.00800956
0.0415684
0.0014961
0.00488943
0.0121955
4.90213
0.000102776
4.44393
3.34299
0.00122487
0.000192273
0.00388813
0.00681317
0.00301558
0.0366867
4.93795
0.000153502
0.000212924
0.000162439
0.0199233
3.526
0.000431154
0.00110914
8.761e-05
9.059e-05
0.000563738
0.0114794
4.33532e-05
0.00176479
0.00336205
1.45103
7.86809e-05
0.00427741
3.78555
0.000340473
0.00564914
0.00327418
2.5175
0.00607027
0.0134796
0.00288075
0.000188293
4.07995
2.03531
0.00028872
0.0144296
0.0279862
9.86026e-05
0.00057937
0.000166399
0.0207105
0.000149537
0.00433888
6.46824e-05
0.0406316
1.3013
0.0588601
1.31835
0.00298145
0.00047871
0.0658025
0.0380725
0.00121355
0.000309755
0.000723082
2.8145
0.000167202
0.00482376
0.000206173
0.000345076
0.0159728
0.000370689
0.000213258
8.82428e-05
2.3592
0.065846
4.49845e-05
0.000310766
3.26828e-05
0.000135164
0.00033056
1.35116
0.000263518
0.0294069
1.93456
0.0334248
4.08694e-06
0.0496658
0.806249
0.108987
1.06643
0.00277943
0.0148848
3.01665
2.99687
7.5615e-05
1.85366
8.95087e-05
4.1239
0.111433
3.54137e-05
0.00446665
0.0263595
4.81758
0.00925601
0.00673476
0.000143706
0.0358319
1.72363
0.0207463
3.12003
0.000386794
0.107145
5.20065e-05
2.03212
0.00487977
0.000196493
0.000320352
0.0759939
0.000305845
0.00149741
0.118647
0.000118289
1.30752
0.000207425
0.000140714
0.0846968
0.0365418
0.00120198
0.00330464
0.03209
0.000428367
0.00651761
0.0337341
7.37968e-05
0.00954378
8.68981e-05
1.11763
0.00853509
9.16926e-05
4.12297
5.7071e-05
0.00483821
0.0302772
0.000130761
0.000204402
0.00447755
0.0158716
0.0317371
0.000215591
4.6184
0.000238074
0.00578929
4.41463
0.00591954
0.000345924
0.0457453
0.000283701
0.000137667
1.48568e-05
0.0503644
1.82119
0.000334038
2.45722
0.00430205
0.000332731
0.0202088
0.000210352
0.000485457
0.00551403
0.000219368
0.000104445
0.014097
0.000399624
0.00015604
0.00024926
1.27474
1.87169
0.00208943
6.21316e-05
0.000145085