/*--------------------------------*- C++ -*----------------------------------*\
  =========                 |
  \\      /  F ield         | OpenFOAM: The Open Source CFD Toolbox
   \\    /   O peration     | Website:  https://openfoam.org
    \\  /    A nd           | Version:  10
     \\/     M anipulation  |
\*---------------------------------------------------------------------------*/
FoamFile
{
    format      ascii;
    class       volScalarField;
    location    "1150";
    object      k;
}
// * * * * * * * * * * * * * * * * * * * * * * * * * * * * * * * * * * * * * //

dimensions      [0 2 -2 0 0 0 0];

internalField   nonuniform List<scalar> 
10435
(
1.24593
1.384
1.68214
1.76167
1.98393
1.84389
1.63594
1.45239
1.25079
1.772
1.64413
1.89718
1.6919
0.873585
0.898017
1.65428
0.85471
1.73752
1.1347
1.33184
1.5532
1.64474
1.7159
1.42116
1.78108
0.540019
0.697799
1.67683
0.644962
1.74915
1.85305
1.76127
1.38848
0.651994
1.55047
1.03418
1.6551
0.715809
0.428659
1.24794
1.78503
1.66835
0.685707
1.57892
1.75057
1.34781
1.80384
0.673261
1.15314
1.50199
1.50909
1.88992
0.416657
0.579184
0.455822
0.602253
1.61578
0.733441
0.80622
1.48525
0.447298
1.25933
0.724401
1.94211
1.74197
1.71696
0.761946
0.768303
1.50357
1.4596
0.573129
0.637474
0.538322
1.73461
0.931114
0.677543
1.50961
1.60108
1.31149
0.923355
1.55442
1.11699
0.405163
0.58643
1.55948
1.02819
1.1688
1.60587
0.951891
1.26978
1.71583
1.81824
1.1841
1.00635
1.37963
0.946188
1.89463
0.898151
0.832222
1.9685
0.922246
2.01434
1.07973
1.49333
1.9857
1.67702
1.25303
1.53493
1.55967
0.959239
1.4502
2.02711
1.05584
1.00315
1.91777
1.57959
1.99447
1.11783
1.5786
1.95134
1.9956
0.590849
1.2215
0.72454
1.89454
0.494639
1.93883
0.624736
1.99479
0.71497
0.674191
1.78072
1.58231
0.894392
0.677421
0.377637
0.84891
1.81966
1.45895
1.50145
1.41792
1.8127
0.72391
1.95442
1.68919
0.803911
0.779776
1.89425
0.824767
1.92107
0.629502
1.74886
1.2756
1.91413
1.84328
0.584151
1.97504
1.33767
1.80185
1.47841
1.85171
0.871103
1.80149
1.73593
0.974961
2.00195
1.38878
1.85779
1.70036
1.9791
1.81521
0.483019
0.638454
0.838047
1.83733
1.32179
1.13923
0.785124
1.389
0.685131
1.51231
1.89102
1.92792
0.471747
1.82984
0.611308
0.615108
1.58609
1.97679
1.93542
1.96729
0.397573
0.687359
0.935269
2.02019
1.54744
0.760337
0.954416
0.732496
1.66607
0.970158
0.694791
1.68512
0.723498
1.69475
1.92701
1.69386
1.84944
0.730947
1.71166
0.567933
1.70267
1.98829
1.77661
0.684308
0.84169
1.02795
0.459225
0.546193
0.851591
0.658916
0.821068
0.755176
0.799035
0.57219
1.57766
0.483475
0.900642
1.88898
0.698489
0.79484
1.48524
0.512958
1.74191
0.742614
0.83765
1.58756
0.576963
1.59395
1.83457
1.47801
0.526906
0.474068
0.60096
1.86538
1.29366
0.874868
1.49354
0.516503
1.17349
0.534569
1.02904
1.71198
1.72124
1.5375
1.98117
0.474151
1.56591
0.538224
0.679691
1.59258
1.84982
0.530642
1.61032
1.09035
0.814646
1.37539
1.78928
0.43775
1.97006
1.61721
1.4154
1.49321
1.75669
0.582781
1.94965
0.711522
1.97109
1.6115
1.36926
1.73352
0.76204
1.63507
0.870836
1.09867
0.420381
1.96178
0.4544
0.592494
0.667872
0.818723
1.63499
0.726796
1.45195
0.435291
0.564651
0.777806
1.16382
1.92489
1.80022
0.760149
1.62321
1.64639
0.558091
1.85232
0.866734
0.815149
1.73408
1.76475
0.594776
1.32276
0.658666
1.04342
1.93267
1.3557
0.56661
0.482823
1.90823
0.786871
1.86866
1.9442
0.689721
1.18188
0.390501
1.31454
1.70503
0.623533
1.65551
0.789467
0.731428
1.37399
0.691258
0.593409
1.65242
1.8475
0.744807
0.568736
0.537977
0.616316
0.617618
0.652454
0.613218
0.437835
0.638829
0.61438
0.63057
0.757516
0.756123
0.383997
1.25281
0.598527
1.72785
0.682926
1.66368
1.25836
1.09646
1.68015
1.75599
0.592809
0.626456
0.552208
0.506063
0.603687
0.427476
0.669063
0.673897
0.742593
1.81781
0.657903
1.21376
0.480188
0.698598
1.68979
1.02269
0.422662
0.700568
0.718969
0.726254
0.622562
0.576569
0.822403
0.46604
1.34921
0.763666
1.45384
1.20755
1.67001
1.67501
1.15985
1.66592
1.45641
0.734176
0.54453
0.630221
0.577049
1.65838
0.609572
1.69767
0.794898
0.693141
0.712905
0.714246
0.501425
1.64411
0.722862
1.40491
1.72819
0.492774
0.609663
0.752907
1.0536
0.761747
0.635062
0.545418
0.603385
0.718302
0.652841
1.67759
0.572857
0.611707
0.651911
0.66317
1.72819
0.42457
0.387985
0.938323
0.619812
0.108192
0.105747
0.101862
0.0972336
0.0922674
0.087044
0.081644
0.0761727
0.070761
0.108087
0.105181
0.101088
0.0964119
0.0914532
0.0863421
0.0811737
0.076093
0.0712971
0.107658
0.104411
0.100155
0.0954404
0.0905281
0.0855472
0.0806098
0.075864
0.0715009
0.10713
0.103625
0.0992242
0.0944844
0.0896294
0.084778
0.0800438
0.0755596
0.0714778
0.106694
0.102983
0.0984453
0.0936828
0.0888778
0.0841382
0.0795669
0.0752722
0.0713563
0.106526
0.102641
0.0979663
0.0931697
0.088393
0.083735
0.0792832
0.0751237
0.0713286
0.106837
0.102771
0.0979406
0.0930821
0.0883013
0.083688
0.0793148
0.0752539
0.0715678
0.107954
0.103573
0.0985335
0.0935708
0.0887469
0.0841368
0.0798001
0.075801
0.0722029
0.110201
0.105237
0.0999286
0.094816
0.0899071
0.0852544
0.0809056
0.0769163
0.0733454
0.113608
0.10791
0.102328
0.0970357
0.0920034
0.0872612
0.0828476
0.0788066
0.075178
0.117869
0.111699
0.105958
0.100493
0.0953116
0.0904367
0.0859073
0.0817589
0.0780172
0.122633
0.116774
0.111088
0.105499
0.100159
0.0951173
0.0904286
0.0861298
0.0822502
0.128177
0.123555
0.118091
0.112418
0.106906
0.101666
0.0967785
0.0922898
0.0882456
0.136677
0.132818
0.127442
0.121629
0.115896
0.110411
0.105277
0.100553
0.0962982
0.149274
0.14517
0.139518
0.133412
0.127371
0.121573
0.116129
0.111103
0.106533
0.16605
0.160716
0.154416
0.147848
0.141397
0.135214
0.129405
0.12404
0.11916
0.185835
0.179008
0.171915
0.164799
0.157871
0.15125
0.145033
0.139299
0.134124
0.20702
0.199362
0.191637
0.184005
0.176598
0.169524
0.162875
0.156734
0.151184
0.229316
0.221397
0.213282
0.205235
0.197398
0.189898
0.18283
0.176276
0.170307
0.252897
0.245071
0.236737
0.228368
0.220173
0.212306
0.204868
0.197946
0.191628
0.278139
0.270537
0.26203
0.253386
0.244902
0.236748
0.229017
0.221781
0.215122
0.305553
0.298027
0.289237
0.280307
0.271604
0.263271
0.255364
0.247926
0.241029
0.335907
0.32777
0.318392
0.309123
0.300289
0.291924
0.28401
0.276547
0.269617
0.370171
0.359819
0.34936
0.339722
0.330905
0.32272
0.315026
0.30774
0.300955
0.409372
0.393651
0.381761
0.371913
0.363383
0.355671
0.348483
0.341656
0.33452
0.189699
0.189739
0.19045
0.191834
0.1939
0.19664
0.200044
0.204081
0.208725
0.213924
0.219628
0.225775
0.232284
0.239078
0.246052
0.253107
0.26013
0.267005
0.273614
0.279837
0.285544
0.290591
0.294787
0.297834
0.299548
0.300132
0.299624
0.297925
0.294774
0.290502
0.285215
0.278933
0.271711
0.263676
0.254957
0.245686
0.236002
0.226043
0.21595
0.205861
0.195908
0.18621
0.176871
0.167977
0.159595
0.151778
0.144581
0.13806
0.132246
0.12716
0.1228
0.119137
0.116129
0.11372
0.111854
0.110475
0.109537
0.109
0.10883
0.190436
0.19081
0.191812
0.193451
0.19573
0.198639
0.202156
0.20624
0.210858
0.215968
0.221523
0.227464
0.23372
0.240212
0.246854
0.253548
0.260191
0.266677
0.272893
0.278726
0.28406
0.288773
0.292731
0.295771
0.297718
0.298444
0.297887
0.296048
0.293001
0.288872
0.283735
0.277637
0.270639
0.262827
0.254305
0.245192
0.235617
0.225712
0.215616
0.205462
0.195381
0.185498
0.175926
0.16677
0.158121
0.150059
0.142659
0.135977
0.130051
0.124897
0.120486
0.116785
0.113742
0.111295
0.109383
0.10794
0.106918
0.106281
0.105986
0.188288
0.188748
0.189789
0.19142
0.193645
0.196459
0.199847
0.203786
0.208244
0.213179
0.218543
0.224277
0.230315
0.236582
0.242993
0.249458
0.255878
0.262152
0.268171
0.273823
0.27899
0.283547
0.287354
0.290265
0.292143
0.292884
0.292428
0.290759
0.287913
0.283966
0.278995
0.273069
0.266257
0.258643
0.250325
0.24141
0.232016
0.222269
0.212294
0.202222
0.19218
0.182292
0.17268
0.163458
0.154733
0.146603
0.139149
0.132433
0.126489
0.12132
0.116904
0.113196
0.11014
0.107673
0.105733
0.104262
0.103209
0.102535
0.102201
0.182565
0.183032
0.184059
0.185654
0.187815
0.190536
0.193801
0.197588
0.201868
0.2066
0.211742
0.217238
0.223026
0.229037
0.235193
0.241408
0.247588
0.253635
0.259441
0.264895
0.26988
0.274271
0.27794
0.280757
0.2826
0.283373
0.283014
0.281503
0.278862
0.275141
0.270408
0.264732
0.258187
0.250857
0.242834
0.23422
0.225121
0.215654
0.205938
0.196097
0.186254
0.176535
0.167064
0.157963
0.149346
0.141315
0.133958
0.127336
0.12148
0.116395
0.112058
0.108423
0.105424
0.102999
0.101088
0.0996355
0.0985933
0.0979227
0.0975858
0.174459
0.174928
0.175933
0.177479
0.179568
0.18219
0.185331
0.18897
0.193078
0.197617
0.202545
0.207811
0.213357
0.219116
0.225014
0.23097
0.236895
0.242692
0.248259
0.253487
0.258262
0.262465
0.265978
0.268683
0.270475
0.271269
0.271008
0.269666
0.267251
0.263795
0.259352
0.253983
0.247764
0.240773
0.233101
0.224842
0.216099
0.20698
0.197602
0.188084
0.178548
0.169121
0.159926
0.151088
0.142722
0.134931
0.127799
0.121386
0.115722
0.110808
0.106619
0.103107
0.100213
0.097874
0.0960303
0.094627
0.093617
0.0929633
0.0926291
0.163994
0.164412
0.165348
0.16681
0.168795
0.171297
0.1743
0.177782
0.181715
0.186063
0.190783
0.195827
0.201137
0.206651
0.212297
0.217996
0.223664
0.229207
0.234527
0.239522
0.244083
0.248099
0.25146
0.254061
0.255806
0.25662
0.256449
0.255267
0.253074
0.24989
0.245757
0.240732
0.234882
0.228286
0.221027
0.213195
0.204887
0.196206
0.187266
0.178182
0.169074
0.160065
0.151278
0.142834
0.134846
0.127413
0.120616
0.11451
0.109124
0.104457
0.100482
0.0971544
0.0944181
0.0922138
0.0904814
0.0891675
0.0882274
0.0876254
0.0873266
0.151454
0.151792
0.152633
0.153981
0.155839
0.158199
0.161047
0.164362
0.168115
0.172271
0.176788
0.181616
0.186702
0.191981
0.197387
0.202844
0.208269
0.213573
0.218663
0.223438
0.227799
0.23164
0.234862
0.237371
0.239077
0.239914
0.239832
0.238808
0.236832
0.23392
0.230106
0.225439
0.219988
0.213828
0.207034
0.199694
0.191898
0.183741
0.175339
0.1668
0.158237
0.149766
0.141504
0.133567
0.126064
0.119087
0.112713
0.106992
0.101951
0.0975883
0.0938791
0.0907812
0.0882417
0.0862036
0.0846109
0.083413
0.0825669
0.0820385
0.0817946
0.136615
0.136802
0.137481
0.138662
0.140351
0.142541
0.145219
0.148364
0.151947
0.15593
0.160271
0.164916
0.16981
0.174889
0.18009
0.185345
0.190578
0.195696
0.20061
0.205216
0.209417
0.213114
0.216227
0.218678
0.220369
0.22125
0.221273
0.22042
0.218665
0.216019
0.212521
0.208214
0.203182
0.197498
0.191217
0.184431
0.177224
0.16968
0.161922
0.15404
0.146136
0.138316
0.130687
0.123359
0.116436
0.11
0.104129
0.0988643
0.0942285
0.0902193
0.0868159
0.0839818
0.0816694
0.0798281
0.0784074
0.0773601
0.0766449
0.076229
0.0760795
0.119072
0.118994
0.119419
0.120375
0.121873
0.123901
0.126436
0.129429
0.132884
0.1368
0.141069
0.145627
0.150402
0.155319
0.160355
0.165441
0.170553
0.175644
0.180526
0.18505
0.189137
0.192719
0.195759
0.198179
0.199904
0.200876
0.20106
0.200425
0.198912
0.196508
0.193301
0.189355
0.184754
0.179587
0.173898
0.167686
0.161075
0.154292
0.147337
0.140225
0.133095
0.126045
0.119155
0.112519
0.106226
0.100389
0.0950729
0.0903513
0.0862128
0.0826058
0.0795144
0.0769344
0.0748451
0.073205
0.0719641
0.071087
0.070537
0.0702785
0.0702784
0.592127
0.550286
0.51287
0.477566
0.443493
0.410518
0.378812
0.348666
0.320362
0.294121
0.270724
0.251036
0.235278
0.223046
0.213157
0.204937
0.198533
0.194071
0.191447
0.190208
0.189867
0.190011
0.190256
0.190211
0.189387
0.564037
0.537805
0.506549
0.473571
0.440236
0.407279
0.375292
0.344777
0.316178
0.289978
0.266725
0.246822
0.230382
0.217221
0.206925
0.199089
0.193432
0.189712
0.187673
0.186986
0.187265
0.188128
0.18921
0.190148
0.190529
0.559665
0.532588
0.501743
0.468936
0.435376
0.401967
0.369465
0.338505
0.309641
0.283378
0.260122
0.240118
0.223439
0.21
0.199584
0.191908
0.186642
0.183434
0.181934
0.181777
0.182594
0.184003
0.185628
0.187104
0.188073
0.56026
0.52991
0.497363
0.463473
0.429096
0.395021
0.361986
0.330647
0.301571
0.275227
0.251944
0.231907
0.215174
0.201691
0.191305
0.183769
0.178746
0.175848
0.174683
0.174853
0.175974
0.177661
0.17953
0.181211
0.182322
0.561914
0.528391
0.493533
0.45794
0.422299
0.387296
0.353595
0.321809
0.292464
0.265977
0.242631
0.222577
0.20586
0.192427
0.182131
0.174723
0.169864
0.167149
0.166166
0.16649
0.167723
0.169474
0.171364
0.173044
0.174194
0.563065
0.526739
0.489479
0.451978
0.41489
0.378827
0.344372
0.312073
0.282404
0.255732
0.232306
0.212255
0.195602
0.182274
0.172103
0.164821
0.160074
0.157447
0.156516
0.156843
0.158022
0.159664
0.161402
0.162905
0.16387
0.563835
0.524691
0.484918
0.445405
0.406794
0.369605
0.334329
0.301456
0.271411
0.244522
0.221012
0.200989
0.184447
0.171271
0.161257
0.154105
0.149438
0.146835
0.14586
0.146073
0.147059
0.148433
0.149836
0.150957
0.151554
0.564433
0.521981
0.479519
0.437972
0.39785
0.359534
0.323412
0.289912
0.259451
0.232324
0.208733
0.188773
0.172408
0.159443
0.149626
0.142618
0.138014
0.135387
0.1343
0.134309
0.134987
0.135943
0.13681
0.137273
0.137166
0.564281
0.518106
0.472921
0.429444
0.38793
0.348549
0.311598
0.277407
0.246473
0.219099
0.19542
0.175571
0.1595
0.146823
0.137258
0.130426
0.125873
0.123183
0.121942
0.1217
0.121984
0.122429
0.122561
0.121914
0.120435
1.71308
1.70208
5.24045
1.87465
0.0731877
0.0862295
1.24205
0.0382081
4.44441
0.0687319
2.77649
0.0773411
0.575393
0.12565
1.33135
0.110341
3.1531
1.59512
0.0655454
0.849517
0.505808
0.105395
3.1137
0.193051
0.0312372
0.0523901
0.0309671
0.365012
1.89533
2.93825
0.0665962
0.0657662
3.42787
0.67909
2.88074
0.0651661
1.12845
1.338
1.17772
0.0967887
3.85576
0.0128074
0.0814683
0.703819
0.278269
0.148886
3.63075
4.07022
2.34636
2.58651
3.43786
3.4324
0.516377
1.4353
1.19341
4.41887
0.114903
0.498781
0.0426164
3.09211
0.0842081
5.52788
0.0718409
0.116445
0.0395702
0.649445
0.0781679
0.33245
0.589509
2.50649
4.19558
0.129816
0.0487876
0.906492
0.0327682
0.497215
1.02405
3.98209
0.0305889
1.19101
0.650154
0.107901
0.0469023
2.69939
0.0748091
0.086741
0.0468448
3.94533
3.46913
0.151091
0.204329
0.098713
0.0799858
0.0811072
0.0546097
2.8011
0.0530898
2.96646
0.0310128
3.05832
0.190329
3.86264
0.211343
0.135393
0.0387783
0.26552
3.26842
0.643822
0.0315734
2.96137
0.106191
0.0666588
3.33598
0.132065
0.508673
2.31378
3.40437
0.0919039
0.534695
0.0437193
0.00379101
0.0652146
0.190491
0.0318543
3.5191
0.078655
3.47241
0.769756
0.0432
4.06713
0.0446568
0.912571
2.54727
1.02619
0.429544
0.046453
0.269396
0.137586
0.0831792
0.84551
0.111487
1.12906
3.1611
0.00555975
2.04634
0.126433
2.15122
0.752763
0.108878
2.87055
0.487285
0.101165
2.14909
1.53419
0.0372321
2.65475
0.0361464
0.0900224
1.16075
0.0664327
0.0824702
4.19147
0.0892892
3.09756
0.0849241
3.0724
0.134008
0.0304308
0.143446
0.0380941
0.112925
0.123261
0.340561
2.85117
0.0783207
0.300773
0.785899
2.21209
2.653
0.112745
0.930256
0.0638392
0.520347
0.975636
0.577868
0.0343411
3.24059
0.0310564
2.82228
0.0983571
3.72111
3.1156
2.24021
1.10285
1.42401
3.02555
0.0322517
0.102392
2.18069
1.7634
0.670018
0.168196
0.101615
0.100969
0.32423
0.0726133
0.0815935
0.2101
2.4754
0.085041
0.0381919
0.0825712
0.904357
0.302703
0.58599
4.03128
0.0552225
0.040564
0.169692
0.195142
0.179512
0.0150342
0.0396253
5.55707
0.232085
3.50029
0.143746
3.16037
0.0278508
0.0523495
2.52886
0.0668763
0.0621144
0.0379996
1.16794
0.0711686
1.23529
0.26003
1.00389
1.60308
0.0660316
0.0834324
0.0823422
0.509723
0.047213
0.048188
0.0662864
0.339576
0.108556
0.0711337
0.0231663
0.32134
0.0699205
2.32651
0.0483764
0.0306375
3.21772
1.04409
1.18211
0.0656564
0.335471
0.0489617
0.0797897
0.0350312
0.936878
0.0325291
0.0733093
2.55172
1.2388
0.0304913
0.571298
2.34467
0.0354833
0.0386578
0.0667124
2.5691
0.0877705
4.25685
0.124075
3.42696
0.707769
0.513563
0.304699
0.147642
2.65369
0.0921842
0.281008
0.402432
3.49628
3.82055
1.56894
0.0949052
0.00948909
3.61315
0.923765
4.0189
3.86938
0.088142
0.0679035
2.82101
3.2711
0.0833462
0.108738
0.105454
3.71444
0.0779298
0.50284
0.0703405
0.841587
0.106106
0.132265
0.102978
3.15218
0.0393561
0.0340382
1.1061
3.89311
0.0710833
0.0315074
1.16188
1.16346
0.0686357
0.114123
0.0660126
0.0489524
0.0325912
3.35753
0.660946
0.0856608
0.507203
0.0838404
1.40423
0.152871
0.0698226
3.82439
0.0915867
0.0572318
0.0504092
0.0052167
0.328857
0.084658
0.072173
2.85093
0.0993883
0.942611
0.0547451
0.0964689
0.0482354
0.0442328
3.46162
1.07683
0.0803128
0.0202194
1.19166
3.65526
0.209798
1.32723
0.698442
0.0813072
3.6558
2.50694
2.85549
0.0628133
3.45002
0.0111266
0.0430415
0.131925
4.00693
0.0755619
2.70515
0.121682
1.51547
1.89201
3.44535
0.574928
0.0340937
0.0434774
0.089007
0.0639306
0.0698761
3.8483
0.115079
3.4936
0.749151
0.721004
1.14419
0.0866895
0.849921
2.65718
3.73022
0.863492
0.0726887
0.242419
3.21129
0.91384
0.067023
0.077559
3.36285
0.0891468
1.92448
0.0386791
0.0827372
0.0738449
2.17064
0.0672197
0.000275504
1.2755
0.256982
0.854629
0.0657529
2.87742
0.0768023
2.79188
0.0805068
0.0613423
0.115394
2.42977
3.46527
0.0763166
0.09771
0.0878322
0.0657859
0.161197
0.237884
0.137065
3.65226
0.00308352
0.127189
0.0686305
0.0667763
0.0964877
0.0310857
0.154456
0.0301557
1.49758
0.126222
0.106129
0.00708404
0.0489715
0.116919
0.0662997
1.59995
3.66481
0.771856
0.600474
5.17586
0.290886
3.45637
0.038452
0.0306698
3.44725
0.0777903
0.0874717
2.74469
0.101398
2.4168
3.4947
0.087546
0.210685
0.835059
0.0970205
0.557002
2.79876
0.860388
3.48446
0.0394457
0.0425048
5.68147
0.0652054
2.70358
0.318766
0.0395869
2.84693
0.117646
0.032051
0.619347
0.138379
0.0348862
0.78227
0.706744
0.592704
1.18253
0.00326939
0.0735435
2.64329
0.0642573
0.106536
0.145753
2.39614
0.115752
1.38289
0.0978194
0.0411019
3.14901
0.0725181
0.054024
1.35344
0.0908007
0.08083
2.67036
0.0828623
1.51907
0.0787952
0.441335
0.756632
0.734738
0.098221
0.0974371
1.28369
0.0643254
0.0933736
0.704413
0.0779155
0.130114
0.0323524
3.98723
3.71088
2.48785
0.0350863
0.614442
0.0800446
3.811
0.852038
3.65603
0.670141
0.154287
3.57506
3.92254
0.0722772
0.138076
0.310795
0.12129
2.95759
3.92719
0.0467797
0.857531
0.0830221
2.72945
2.2808
0.102605
1.13262
2.99722
0.101075
3.46386
0.0254443
5.20624
0.0724168
0.156653
0.090864
4.13099
1.16002
1.18893
0.0426649
2.38042
2.47204
3.97807
0.0371357
0.094901
0.553293
2.64885
0.0699006
1.03397
0.0842902
0.586203
2.91354
0.0671035
0.603378
0.0401413
0.0666719
0.371572
3.2708
0.163854
1.22634
0.0469667
0.0708482
3.31856
3.67574
2.70595
0.172215
0.386384
0.881589
0.516617
0.164146
0.0815105
0.0390145
3.33387
0.0974414
0.0860422
1.29092
0.156255
0.115256
0.0926957
0.112215
1.44009
0.102924
0.0447085
0.631659
2.52093
0.0657917
0.0638577
2.87501
0.367502
0.0132065
0.125087
0.757345
0.0512118
0.0939331
0.0676896
0.341918
0.0760037
0.0843876
1.17978
0.0470543
0.138938
0.23356
0.52159
0.0526522
0.0950022
5.2902
0.12831
0.0367083
0.0677443
0.0921066
0.148462
0.0540875
3.0112
3.98653
0.334573
3.21715
0.0391826
0.0304411
0.0366715
0.0252728
0.127039
0.0413
0.555595
0.152546
0.0422665
0.0920531
1.28876
0.58059
0.158475
0.644547
0.0978736
0.0810186
0.0459378
0.229745
0.842306
2.98213
1.44705
1.20647
0.0240398
0.0688301
0.0175698
0.159897
0.0668005
3.69933
0.0666023
0.533445
0.0675876
2.81303
0.846472
2.71282
0.00467424
0.0376094
0.0371498
3.90534
3.53049
0.552442
0.513887
0.0504773
0.0685553
0.0704635
3.18057
0.00789881
0.0596098
1.08574
0.061807
0.125939
0.069884
0.0341162
0.522073
0.126754
0.0489442
0.072109
0.186377
0.0880528
2.08939
3.59553
0.0662859
1.29598
0.0780164
2.75608
0.0404154
0.0967256
0.0719224
0.0470404
1.3302
0.0871454
0.0951786
0.042769
0.313461
0.0511382
0.14903
0.128276
3.41741
1.29028
0.465222
3.97249
1.39909
2.41618
2.87875
0.0662594
0.0362562
0.037645
0.000570618
0.0941037
0.703946
0.118796
0.0605002
0.561203
0.0744625
0.0672562
0.421794
0.0757824
0.0708578
0.0414237
0.467346
0.712519
3.93323
0.0688614
2.77204
1.15496
2.15644
0.547344
3.9606
3.47303
2.94429
0.0377467
0.105129
0.00449894
0.287543
0.0820401
0.892608
1.92494
0.0903243
1.13626
0.785982
0.0494013
0.0406663
0.0760647
3.87255
4.88995
0.0542706
1.27785
1.47869
0.543186
3.02584
4.53939e-05
0.0692799
0.4313
0.00622847
1.82061
0.88083
2.96782
1.47998
0.0311424
1.48805
0.036034
0.00166878
0.536734
0.107372
0.156231
0.0652083
0.0796739
0.543733
0.105471
0.0363286
0.0841271
0.0925183
0.405924
0.0938443
3.25047
1.36607
0.100185
0.934334
0.122323
0.875049
0.0900607
0.082434
0.12076
0.64781
0.544444
0.00737706
0.123074
3.50175
4.72568
1.02145
0.0852487
0.777075
0.819888
1.35807
5.31526
1.06061
0.184077
0.104994
3.14122
0.0279858
0.0374406
0.236005
3.01874
4.96726
0.0620657
0.0665224
2.63695
0.0349861
5.02539
3.09723
0.117876
0.0614985
4.64263
1.94318
1.96028
0.081909
0.0617527
0.0227295
0.7415
1.1429
0.0787338
0.0350948
0.0592859
1.00539
0.0912933
0.447111
1.96618
0.068515
0.0708828
4.70265
0.0705449
0.596051
0.0640105
0.617744
0.0757108
0.044718
0.830581
0.124953
0.0925652
0.080306
0.34647
0.601164
3.87105
0.0439606
0.0716991
0.0804843
1.25255
0.861173
5.2927
0.036176
0.642223
1.37068
0.000983718
0.0320669
0.0785082
2.5481
0.0804904
0.982636
0.120908
0.00247883
1.11214
0.101005
3.90405
3.29503
0.719154
3.23958
3.35218
3.8465
0.0711114
3.11871
1.17717
0.114554
1.19707
0.062438
0.0798992
0.866412
0.0858961
0.183915
0.566552
5.20175
0.0358207
0.0295769
3.10758
0.157691
0.107074
1.28265
2.05194
1.221
0.0850287
0.269007
3.98368
2.94261
0.924142
0.569543
2.47088
0.167496
0.0352856
0.705299
2.61086
0.0775987
0.376619
0.116325
3.11586
0.126296
0.923347
1.90701
0.00634315
0.0686785
0.0864745
2.74617
1.25596
2.90814
2.19878
0.162439
0.408797
0.569307
0.204604
1.8785
0.491739
0.063956
0.0973131
0.0860717
0.0239775
0.811225
2.80841
0.0466531
2.78145
0.129809
1.25201
0.0755837
0.0600683
0.0364617
3.82804
2.84588
0.346776
0.595997
0.0604333
0.045341
1.53132
0.0683117
1.26691
1.05081
3.48498
0.0645026
0.315288
1.55089
0.109642
0.15112
0.0992162
3.53205
0.0921044
0.168617
1.25337
1.31014
0.0427348
0.205493
0.0689346
0.123127
0.0488344
0.0504553
0.532944
0.0450834
0.303257
2.70354
0.86426
3.71994
0.0887649
0.276296
0.749053
0.0294341
2.00991
0.0753857
0.104215
3.44246
0.119037
0.416516
0.166041
0.0305506
2.41881
0.0716662
0.319094
0.0321836
1.21084
1.31977
3.40771
0.0393703
1.10149
0.0627095
0.360555
0.112046
2.95635
1.00367
0.283992
3.00967
0.0821778
3.53087
0.0810713
2.26585
0.108761
0.0369507
0.0902096
0.962759
1.37315
0.0467989
0.0847463
0.890156
0.0601233
0.0892388
0.0417623
0.0293101
0.106091
4.03801
0.138567
0.0893329
1.45236
0.345714
3.83345
0.0216752
0.100152
0.059246
0.168033
0.157586
0.0784059
3.89472
0.183845
0.689426
0.0616466
0.214318
0.809807
2.82149
0.0810063
0.0802695
0.113579
0.152508
0.0680346
0.385729
3.70193
1.42756
0.588881
0.0570514
1.56033
3.53101
0.284419
0.86303
0.113395
2.10672
2.78725
3.66889
0.0786291
0.0823154
0.229864
2.90132
0.165665
4.90427
0.146558
0.433712
2.71821
0.0304475
0.10479
0.109827
0.0716527
0.067019
0.10006
1.97196
0.0672148
3.12917
0.0759522
0.0632453
0.0444154
0.0689977
0.535716
0.0733261
0.895743
0.818145
0.0670916
0.133743
2.20744
2.64555
0.0626874
0.0743286
0.127029
0.414216
1.04851
0.259785
3.32952
0.0498095
0.0731105
0.545781
0.0743115
0.31523
1.53011
0.0652413
0.0440394
0.00809946
0.131357
0.938835
4.62034
1.07742
0.0746635
0.247326
0.0672964
3.73325
3.82719
0.0822871
0.0722249
1.15183
0.0774848
0.0495481
2.19509
1.9655
0.132472
0.0743191
0.0463137
0.495718
1.9721
0.0574342
0.0367257
1.87786
2.77834
0.00114124
0.0619212
0.0449776
0.131138
0.403879
0.534071
0.0800236
1.32556
0.0837228
0.11041
0.0617036
0.533544
0.0575528
3.50634
2.71264
3.48643
1.83364
1.10686
2.40908
0.0656909
3.52104
0.568694
0.0426298
0.248595
0.0541379
0.215005
0.0773222
0.0699509
0.0444161
3.34748
0.0317339
0.325353
1.52585
0.106203
0.279234
0.370156
3.65267
0.018913
3.6704
2.97293
0.104008
0.0512029
0.247082
0.302497
0.215729
1.08571
5.0104
0.11373
0.0433661
0.0783355
1.05262
3.76816
0.12195
0.133314
0.0319049
0.0607444
0.0968142
0.401496
0.071927
0.124959
0.241224
2.46825
0.0832755
0.260761
3.75216
0.100204
0.298208
0.229463
3.2913
0.311551
0.339761
0.535518
0.0871248
4.36422
2.6894
0.0664179
0.772742
1.34008
0.0788679
0.111269
0.117766
1.20439
0.0630679
0.594403
0.0821902
1.52562
2.43816
0.790491
2.35933
0.163225
0.0936506
0.911915
1.055
0.120066
0.136622
0.083659
2.78281
0.118341
0.274815
0.0530326
0.152614
0.693152
0.0668969
0.0463644
0.0607059
2.98956
0.869649
0.0672645
0.150794
0.0654734
0.0734515
0.0910147
2.3928
0.140413
0.874997
2.98131
0.720239
0.00221349
1.10615
1.87578
0.857467
2.17572
0.21107
0.862055
3.42775
2.97109
0.0162615
2.61906
0.079324
4.23031
0.455677
0.0701423
0.595098
1.28131
3.829
0.798217
0.291372
0.0819631
1.23007
2.78952
0.291514
3.46101
0.151577
0.85621
0.0768555
2.79689
0.340829
0.0386402
0.0930568
0.838191
0.0513153
0.153405
0.822801
0.0690669
2.27508
0.0320986
0.0910837
1.3875
1.19482
0.137205
0.534086
1.41905
0.158784
0.613802
0.345531
0.0871714
0.373476
0.0370817
2.24583
0.675418
0.035622
3.99164
0.0806209
0.521623
0.324888
0.106543
0.0542888
0.497891
0.850618
1.21485
0.0477778
3.69468
0.0582558
0.598481
3.84969
0.450867
0.143886
1.09022
0.119998
0.0702148
0.00424579
1.23828
2.88466
0.079652
3.37039
0.262061
0.093796
1.06038
0.102346
0.081805
0.618408
0.130952
0.0707596
0.234607
0.065276
0.0978933
0.139147
2.38857
2.80205
0.177683
0.0760995
0.0456465
0.64264
3.73052
0.0713591
0.0529012
0.267755
3.50758
0.0597829
0.963621
0.61243
0.0379888
0.555448
3.56966
0.0668358
0.205603
0.0737064
0.38897
0.0601058
0.067976
0.136861
0.448458
2.85569
0.0305523
3.33913
0.0427081
2.87554
0.0916727
1.10613
0.505223
0.897457
2.40152
0.11424
0.626344
0.155749
0.127828
0.132916
2.7011
2.73425
0.0863494
0.0842654
0.391368
0.132189
0.0830485
0.0335835
4.01197
2.98684
0.830684
3.4848
0.145471
0.0394845
0.688137
0.202867
2.29728
0.0293241
0.11165
0.0372089
0.0908351
0.0758173
0.0813177
0.0810464
0.433247
3.84141
2.84017
0.0737906
0.281236
0.700926
4.02569
0.0818202
3.63338
1.96058
3.06765
0.116483
0.843406
0.0458665
0.145817
0.107068
0.10823
0.0658783
2.32715
3.56287
0.123851
0.302441
0.822895
0.295463
2.63251
4.11754
0.0806011
0.0396806
0.0873682
0.254147
0.781415
0.0333993
2.5759
0.725899
0.0907504
0.137068
0.143066
0.510902
0.152233
0.0521602
0.0843872
0.0601727
0.156177
0.612945
0.136167
3.45444
0.11836
0.0904652
0.276635
0.124986
0.0610645
3.64916
2.69856
0.0953638
2.89677
0.0698473
1.11581
0.119542
0.155961
0.0654668
0.0422871
2.76633
0.105315
0.133157
3.3357
2.30562
0.0660219
0.0747238
0.0720436
0.140191
1.44093
0.0381998
0.0811523
3.53995
0.0819224
0.0703832
0.122168
2.99959
0.0900084
2.91471
2.21941
0.0445618
4.43377
0.131329
0.0296206
3.92531
0.421942
0.0672564
0.000704509
0.53033
0.130179
0.164224
0.037321
1.30962
3.07179
0.0882836
0.0392523
2.71512
0.0916067
1.07508
0.849063
0.0954755
0.784447
3.73386
0.0657822
0.721469
0.0859147
0.119466
0.147068
0.0749673
3.39534
2.61999
0.0935154
0.0724771
3.26077
0.0982994
0.153321
0.13257
0.742177
1.08832
0.0376723
0.0639261
0.0728872
0.0667922
0.0367388
0.00166874
0.111283
0.145926
3.28716
0.541266
0.072525
0.994817
0.128423
0.946561
3.82284
0.959879
2.87029
0.121829
0.00174848
0.557376
0.149928
0.088141
2.39577
0.110573
5.2292
2.72944
0.542396
0.112288
3.99091
0.0377971
3.04429
0.0773677
0.0761452
3.50388
0.353413
0.948185
0.0944556
0.0694241
0.0363618
0.126009
1.41213
0.944456
0.0906505
1.80926
0.434537
2.69501
0.0301549
3.87775
0.0961868
0.0742616
0.335324
0.0788773
0.524611
2.94354
0.677058
0.0430026
2.15708
1.3245
0.264475
0.846752
0.648294
0.0192695
0.588829
2.98982
0.0680976
0.067603
0.0711636
3.33782
0.0837672
0.0307312
1.28255
0.627512
0.28166
3.92171
0.774072
0.24631
0.268624
1.2459
0.129141
0.643338
0.0560706
0.0861664
0.0715519
3.42341
0.102119
0.955445
2.82483
0.0309361
0.914796
3.35833
0.0887183
2.77637
0.0670477
0.61472
0.146518
0.0330237
0.122647
0.0722336
0.0493399
0.121577
0.0919462
0.09133
0.10451
2.37706
0.651653
0.0937903
0.601275
0.0612996
0.0836236
0.061436
0.0904835
0.117193
1.54587
0.0282912
1.31797
2.70261
1.51044
1.034
0.21687
0.129316
3.50084
0.0742748
0.554483
0.0958989
0.0662026
0.187769
3.04461
0.110075
0.0716066
0.0616848
0.220786
0.159323
1.4876
0.615611
1.12017
2.26985
0.0771319
0.0527704
2.08427
0.0742921
0.101128
0.0426193
0.165179
0.0440583
0.0654638
0.119741
0.029513
1.0862
2.86566
1.00502
0.142187
0.0710136
0.897079
3.03601
2.64805
0.0398526
0.087824
0.706271
0.0639927
0.0353297
0.128751
2.76637
0.765823
0.060793
0.0675985
0.113604
0.0364328
2.76673
0.0487097
0.0958532
0.0997388
0.0898268
2.73897
0.0797428
1.54118
0.0981474
0.107871
0.0347623
0.0489279
2.96361
0.419732
0.0575842
3.60326
0.742206
0.623993
0.041748
0.0735793
1.21507
3.82482
3.90883
0.0693963
0.850805
0.0787657
0.0686586
3.29187
2.63848
0.0316965
0.0150698
1.03068
1.45196
0.0698146
0.0341876
2.81552
0.0705286
0.181291
0.173691
0.096057
2.34289
0.0772029
0.0809645
0.0965543
1.8584
0.0685083
0.0403289
0.0661901
0.106985
0.226863
0.118838
0.508725
0.778254
0.707708
0.103628
0.0951119
0.067119
0.0407889
0.0941067
0.0798266
0.62456
0.0837092
0.106136
0.272159
1.53359
0.0517952
0.0322652
0.0938275
3.65527
0.0874372
0.8842
0.0269258
0.0737348
0.00705815
0.0968983
0.0818908
3.64592
0.104947
0.0474071
0.352467
0.0696161
1.33966
0.0879953
0.0675621
2.9817
2.9855
0.0344666
2.80894
0.0733644
1.01415
1.37626e-05
2.38617
0.0516887
1.21819
0.0736149
3.08287
0.543545
1.07131
3.23548
4.13204
0.101919
3.47659
0.0470659
0.0341443
0.0797298
3.04679
0.171953
0.038858
0.713435
2.64183
2.02998
0.156093
3.7503
0.0350829
0.143121
0.0662462
0.498639
0.133741
1.64632
0.082014
0.104181
0.0735859
0.0298964
0.145292
2.36505
0.0637148
0.0737512
4.02439
0.608925
0.0343501
0.18573
2.97105
0.100885
0.085167
3.34558
0.158899
3.90975
1.2402
0.0719782
0.408537
0.823085
0.0381954
0.138412
0.0595567
0.0348006
0.152769
0.142388
2.79486
0.0405447
0.842738
0.273142
0.0843998
2.94689
0.999975
0.134005
0.0730001
0.0303644
0.0466241
0.0349725
0.710799
1.77448
0.0646795
0.0798149
0.0959592
1.08632
0.118572
0.855475
0.111806
0.0716604
0.11319
0.128677
1.17685
0.114853
0.597502
1.11691
0.000173725
1.32361
0.0981901
0.846476
0.522504
0.0805881
0.0760176
0.137334
0.0520147
0.126485
1.15764
3.46932
3.06917
2.71653
0.749724
0.00504589
0.0342807
1.24447
0.0435444
1.40247
3.95596
0.0782119
2.76826
0.85609
2.62633