/*--------------------------------*- C++ -*----------------------------------*\
  =========                 |
  \\      /  F ield         | OpenFOAM: The Open Source CFD Toolbox
   \\    /   O peration     | Website:  https://openfoam.org
    \\  /    A nd           | Version:  10
     \\/     M anipulation  |
\*---------------------------------------------------------------------------*/
FoamFile
{
    format      ascii;
    class       volScalarField;
    location    "1150";
    object      nut;
}
// * * * * * * * * * * * * * * * * * * * * * * * * * * * * * * * * * * * * * //

dimensions      [0 2 -1 0 0 0 0];

internalField   nonuniform List<scalar> 
10435
(
1.26397
0.467955
0.628172
0.853682
0.431236
0.40766
0.687398
0.965729
1.28579
0.473017
0.414623
0.882863
0.486357
1.79084
1.7578
0.809455
1.80545
0.440056
1.55436
1.19469
0.873868
1.07472
0.737059
1.51886
0.521004
1.84377
1.85211
0.557192
1.68667
0.44079
0.642901
0.40679
1.04577
1.68699
1.0287
0.748446
0.935881
1.93267
1.70544
1.51275
0.417744
0.688223
1.67282
0.906044
0.821729
1.53439
0.414966
1.71997
1.37127
1.37977
0.939725
0.500513
1.66089
1.66419
1.74149
1.61319
1.05978
1.88847
1.78416
1.18817
1.70304
0.529381
1.82301
0.506102
0.774253
0.590917
1.74405
1.81828
0.894593
1.5722
1.66641
1.93077
1.54537
0.630655
1.69793
1.60231
1.55298
0.730961
1.12782
1.78826
1.49555
1.52708
1.61715
1.66407
1.5347
1.03428
1.04212
0.728097
1.41123
0.928533
0.688644
0.657121
1.46161
1.30465
0.84106
0.903791
0.691501
1.61941
1.8114
0.59013
1.52464
0.38555
1.17217
0.777394
0.391334
0.86922
1.41195
1.44077
1.54417
1.73955
1.35655
0.382731
1.6018
1.6748
0.550983
1.07692
0.625647
0.889901
0.567105
0.766678
0.66857
1.52425
0.768863
1.19808
0.357303
1.76864
0.736482
1.47104
0.507501
2.04455
1.3613
0.348761
0.883112
1.82104
1.95277
1.49142
0.793212
0.876057
0.61325
1.10344
1.14244
0.712987
1.72261
0.637432
1.10321
1.58944
0.98781
0.45041
1.75922
0.775415
1.7254
0.891631
1.09108
0.726872
0.470058
1.76329
0.366282
0.678067
0.462229
0.346184
0.781452
1.83488
0.514101
1.14834
1.62403
0.56329
1.08551
0.933993
1.13866
0.565742
0.521924
1.52334
1.68772
1.53775
0.910906
0.363198
0.620748
1.77369
1.35803
1.7352
0.431844
0.406682
0.796447
1.71988
0.764673
1.63203
1.58201
0.770702
0.420056
0.570347
0.751394
1.58025
2.01732
0.622277
0.376687
0.830744
1.68817
1.18577
1.74327
0.859181
1.51753
1.86621
0.522239
1.87554
0.563297
0.46916
0.532826
0.911479
1.79817
1.14258
1.65961
0.690315
0.667845
1.06704
1.79034
1.72861
1.54306
1.61482
1.85569
1.83041
1.70968
1.79728
1.76654
1.4218
1.82517
0.939217
1.76799
1.33384
0.591169
1.55257
1.79739
1.00825
1.80741
0.947037
2.03707
1.80657
1.17677
1.87111
1.22349
0.584218
0.951619
1.77057
1.59274
1.63925
0.478125
1.17767
1.08001
0.872161
1.38466
0.407198
1.48938
1.42215
0.477064
1.16452
0.809757
0.488397
1.29334
0.768078
1.67967
1.80273
0.730118
0.535198
1.8085
1.36709
1.44715
1.79698
1.01109
0.686174
1.63483
0.489142
0.692112
0.967842
0.866282
0.542461
1.91567
0.788024
1.98809
0.416205
0.804927
1.03103
0.491239
1.72833
0.655119
1.4565
1.30806
1.56099
0.436451
1.72394
1.66256
1.71004
1.26688
0.343035
1.77112
0.916685
1.72185
1.64987
1.64384
1.35025
0.403074
0.59345
1.79149
1.23075
0.622287
1.48315
0.40065
1.68296
1.77686
1.00599
0.594012
1.65744
1.37643
1.87114
0.491902
0.432742
1.18644
1.61543
1.70052
0.662186
1.80423
0.929885
0.393566
1.76263
1.19286
1.54708
1.10482
0.522336
1.99258
0.592128
1.78394
1.95059
1.24167
1.71184
1.64897
0.644839
0.849879
1.84825
1.58021
1.45386
1.64745
1.6273
2.02779
1.85185
1.66544
1.69384
1.62919
1.78731
1.82092
2.06276
1.51738
1.19608
1.64362
0.53721
1.81237
0.561898
1.18454
1.45334
0.487315
0.667478
1.65729
1.68094
1.50434
1.79837
1.59307
1.59502
1.7387
2.03624
1.8385
0.970909
1.99336
1.26366
1.76858
2.05534
0.468493
1.60577
1.53672
1.87793
1.85777
1.95482
1.68335
1.89845
2.23271
1.74305
1.06984
1.79655
0.928425
1.26034
0.532513
0.505846
1.34032
0.587779
1.09324
1.47466
1.59677
1.68122
1.63791
0.614274
1.67427
0.465055
2.1811
1.75284
2.05146
1.74392
1.683
0.736041
1.91626
0.995443
1.05885
1.57357
1.95246
2.09031
1.56558
2.15167
1.98105
1.75683
1.5999
1.79197
1.69677
0.595971
1.65722
1.92603
1.69222
1.67061
0.438271
1.49701
1.48636
1.82755
1.66876
14.5748
14.5858
14.5047
14.3958
14.3017
14.2611
14.3291
14.5919
15.1867
13.5383
13.5727
13.561
13.5353
13.5281
13.5748
13.7233
14.0405
14.6076
12.3388
12.3902
12.4258
12.4613
12.5206
12.634
12.8428
13.2009
13.7683
11.0093
11.0706
11.1362
11.2129
11.318
11.4771
11.7261
12.1116
12.6858
9.60068
9.66554
9.74641
9.84604
9.9769
10.1605
10.4281
10.8217
11.3948
8.17767
8.24099
8.3251
8.43142
8.56934
8.75691
9.0207
9.39698
9.93466
6.81068
6.86904
6.94672
7.04622
7.17543
7.34951
7.59013
7.92611
8.39438
5.56749
5.61673
5.68007
5.76268
5.87177
6.02003
6.22467
6.5075
6.89344
4.50026
4.53378
4.57687
4.63656
4.71938
4.83554
4.99851
5.22539
5.53562
3.6307
3.64303
3.66355
3.69913
3.75488
3.83843
3.96004
4.13331
4.37576
2.94764
2.94014
2.9413
2.95635
2.98874
3.04367
3.12859
3.25373
3.43276
2.42085
2.40307
2.39293
2.39427
2.40955
2.44238
2.49814
2.5842
2.71043
2.02022
2.00532
1.99285
1.9875
1.99208
2.00966
2.04436
2.10154
2.18798
1.73178
1.72472
1.71464
1.70702
1.70552
1.71323
1.73366
1.7709
1.82973
1.54378
1.54132
1.53327
1.52466
1.51942
1.52066
1.53149
1.5552
1.59568
1.43684
1.43378
1.42534
1.41525
1.40704
1.40362
1.40769
1.42195
1.44923
1.38736
1.38086
1.3702
1.3579
1.34686
1.33964
1.33863
1.34611
1.36421
1.37397
1.36456
1.35128
1.33647
1.32264
1.31207
1.30693
1.30926
1.321
1.38341
1.37222
1.35664
1.33938
1.32285
1.30919
1.30042
1.29841
1.30496
1.40835
1.39604
1.37844
1.3588
1.33962
1.32303
1.31092
1.30505
1.30704
1.44489
1.43146
1.41171
1.38956
1.36769
1.34821
1.33292
1.32349
1.32153
1.49115
1.47582
1.45322
1.42816
1.40343
1.38105
1.36266
1.3498
1.344
1.54691
1.52748
1.50067
1.47205
1.44422
1.41891
1.39748
1.38125
1.37169
1.61356
1.58498
1.55184
1.51899
1.4879
1.45976
1.43541
1.41581
1.40236
1.69492
1.64551
1.60408
1.56691
1.53268
1.50209
1.47512
1.45214
1.43348
3.69599
3.77197
3.85848
3.95527
4.06227
4.17904
4.30518
4.43993
4.58274
4.73267
4.88893
5.05067
5.21678
5.3864
5.55825
5.73123
5.90412
6.07561
6.2444
6.40924
6.56867
6.72131
6.86568
7.00011
7.12354
7.23617
7.33763
7.42741
7.50492
7.57174
7.62862
7.67639
7.7164
7.75066
7.78162
7.81236
7.84654
7.88838
7.94286
8.01569
8.11325
8.24277
8.41176
8.62821
8.90022
9.23541
9.64005
10.118
10.6676
11.281
11.9417
12.624
13.2953
13.917
14.4509
14.8621
15.1246
15.2223
15.1575
3.65257
3.72917
3.81565
3.91209
4.01836
4.1342
4.25918
4.39274
4.53423
4.68294
4.83803
4.99863
5.16375
5.33236
5.50334
5.67553
5.84771
6.01863
6.18698
6.35147
6.51076
6.66354
6.80851
6.94434
7.06984
7.18416
7.28679
7.37765
7.45714
7.52595
7.58477
7.63447
7.6763
7.71202
7.7439
7.77475
7.80799
7.84767
7.89856
7.96614
8.05672
8.17738
8.33595
8.54089
8.80092
9.12448
9.51865
9.98757
10.5303
11.139
11.7969
12.4788
13.1516
13.7771
14.3163
14.734
15.0033
15.108
15.0485
3.5752
3.64835
3.7313
3.82416
3.92688
4.03927
4.16099
4.29152
4.43025
4.57647
4.72934
4.88799
5.05143
5.21863
5.38846
5.55979
5.73138
5.90198
6.0703
6.23502
6.39481
6.54833
6.69426
6.83132
6.9584
7.07467
7.17962
7.27305
7.35515
7.4264
7.48746
7.5392
7.58282
7.61991
7.65254
7.68329
7.71532
7.75242
7.7991
7.86064
7.94321
8.05389
8.20068
8.39239
8.63828
8.94742
9.32752
9.78329
10.3144
10.9136
11.565
12.2441
12.9182
13.5497
14.0996
14.5323
14.82
14.9454
14.9075
3.45561
3.52481
3.60374
3.69256
3.79125
3.8997
4.0176
4.1445
4.27983
4.42292
4.57298
4.72912
4.89039
5.05575
5.22412
5.39431
5.56513
5.73531
5.90355
6.06851
6.22886
6.38326
6.53039
6.66902
6.79808
6.9167
7.02432
7.12067
7.20579
7.28003
7.34394
7.39836
7.44437
7.48346
7.51752
7.54892
7.58058
7.61607
7.65969
7.71654
7.79269
7.89521
8.03219
8.21266
8.44621
8.74233
9.1092
9.5521
10.0715
10.6608
11.3053
11.9809
12.6556
13.2924
13.8524
14.2997
14.6058
14.752
14.7365
3.30138
3.36617
3.44066
3.52504
3.61937
3.72355
3.83736
3.96038
4.0921
4.23187
4.37893
4.53243
4.69143
4.85491
5.02177
5.19086
5.36096
5.5308
5.69908
5.86445
6.02557
6.18111
6.32977
6.47034
6.60177
6.72322
6.83405
6.93393
7.02279
7.10083
7.16852
7.22659
7.27605
7.31826
7.35498
7.38841
7.4213
7.45706
7.49981
7.55457
7.62732
7.72511
7.85611
8.02945
8.25492
8.5422
8.89981
9.33342
9.844
10.4257
11.0645
11.7371
12.4125
13.054
13.623
14.0836
14.4067
14.5731
14.5797
3.11552
3.17536
3.24496
3.32455
3.41422
3.51396
3.62354
3.74263
3.87073
4.00724
4.15142
4.30245
4.45939
4.62124
4.78691
4.95523
5.125
5.29493
5.46371
5.62999
5.79243
5.9497
6.10051
6.24368
6.37816
6.50311
6.61788
6.72207
6.81552
6.89837
6.97097
7.034
7.0884
7.13544
7.17676
7.21444
7.25111
7.29001
7.33518
7.39154
7.46498
7.56254
7.69237
7.86367
8.08628
8.37002
8.72357
9.15291
9.65933
10.2375
10.874
11.5463
12.2241
12.8711
13.4492
13.9224
14.2617
14.4475
14.4759
2.90119
2.95547
3.01966
3.09406
3.17883
3.27397
3.37935
3.49465
3.61942
3.75306
3.89487
4.04401
4.19957
4.36052
4.52578
4.69419
4.86452
5.03549
5.20574
5.37393
5.53871
5.69874
5.85275
5.99961
6.13825
6.26784
6.38773
6.49748
6.59689
6.68602
6.76524
6.83516
6.89671
6.95112
6.99995
7.04521
7.0894
7.13567
7.18798
7.25111
7.33088
7.43423
7.56931
7.74532
7.97216
8.25966
8.6166
9.04906
9.55857
10.1402
10.7807
11.4582
12.1427
12.7983
13.3871
13.8737
14.2291
14.4337
14.4832
2.65873
2.70644
2.76441
2.83308
2.91265
3.00323
3.1047
3.21677
3.33901
3.47084
3.61151
3.76011
3.91568
4.07717
4.24351
4.41356
4.58613
4.75988
4.93338
5.1052
5.274
5.43846
5.59739
5.7497
5.8943
6.03042
6.15738
6.27475
6.38229
6.48008
6.56856
6.64838
6.72053
6.78623
6.84696
6.90485
6.9623
7.02223
7.08859
7.16596
7.2601
7.37788
7.5274
7.71801
7.95969
8.26224
8.6344
9.08199
9.60655
10.2034
10.8597
11.5538
12.2553
12.9281
13.534
14.0373
14.4092
14.6307
14.6982
2.38718
2.42624
2.47651
2.53867
2.61304
2.69971
2.79842
2.90857
3.03012
3.16283
3.3052
3.45607
3.61423
3.77861
3.94841
4.12251
4.30008
4.47978
4.65945
4.8376
5.01301
5.18445
5.35099
5.5116
5.66508
5.81083
5.9481
6.07652
6.19585
6.30639
6.40887
6.504
6.59259
6.67599
6.75573
6.83475
6.91544
6.99913
7.09025
7.19356
7.31499
7.46123
7.63999
7.86173
8.13723
8.4756
8.88535
9.36945
9.92878
10.5613
11.2571
11.9943
12.7394
13.4536
14.096
14.6265
15.014
15.2407
15.3073
1.77311
1.7001
1.64253
1.59169
1.54455
1.50065
1.46078
1.4265
1.39995
1.38398
1.38222
1.39807
1.43367
1.48967
1.56612
1.66392
1.78446
1.92787
2.09279
2.27704
2.47898
2.69826
2.93593
3.19499
3.48118
1.68531
1.66083
1.62242
1.57945
1.53553
1.49277
1.45309
1.41857
1.39167
1.37533
1.37281
1.38716
1.42073
1.47503
1.55106
1.64955
1.77079
1.91415
2.07825
2.26134
2.46199
2.67999
2.91659
3.17502
3.46135
1.65844
1.63585
1.6022
1.56251
1.52022
1.47794
1.43806
1.40297
1.37532
1.35805
1.35422
1.36681
1.3984
1.45099
1.52592
1.62375
1.74417
1.886
2.04764
2.2272
2.42343
2.63607
2.86628
3.11696
3.39302
1.64613
1.6188
1.58399
1.54409
1.50157
1.45878
1.41811
1.38203
1.35322
1.33456
1.32905
1.33965
1.36908
1.41954
1.49245
1.58818
1.706
1.84426
2.00108
2.1743
2.36271
2.56605
2.78538
3.02332
3.28423
1.63736
1.60501
1.56719
1.52536
1.48133
1.43716
1.39507
1.35748
1.32704
1.30657
1.29901
1.30733
1.33425
1.38203
1.452
1.54428
1.65777
1.79044
1.94009
2.10436
2.28199
2.47273
2.67768
2.89941
3.14219
1.62899
1.59213
1.55093
1.50648
1.46027
1.4141
1.37007
1.33051
1.29801
1.27534
1.26541
1.27114
1.29522
1.33979
1.40598
1.49363
1.60128
1.72653
1.86689
2.01986
2.1841
2.35939
2.54685
2.74905
2.97041
1.62008
1.57937
1.53497
1.48775
1.43903
1.39046
1.34406
1.30213
1.26722
1.24205
1.2295
1.23242
1.25336
1.29427
1.356
1.43805
1.53858
1.65489
1.78417
1.92385
2.07246
2.2297
2.39657
2.57575
2.77212
1.60969
1.56649
1.51952
1.46967
1.41828
1.36704
1.31795
1.27336
1.23582
1.20799
1.1927
1.19271
1.21036
1.2473
1.30405
1.37973
1.47214
1.57829
1.6951
1.81992
1.95107
2.0879
2.2311
2.38318
2.54915
1.59858
1.55439
1.50551
1.45312
1.39892
1.34477
1.29278
1.2454
1.20523
1.1748
1.15691
1.15417
1.16858
1.20144
1.25293
1.32171
1.40527
1.50036
1.60372
1.71259
1.82503
1.94003
2.05712
2.1772
2.3041
0.442376
0.451807
0.426592
0.268153
1.10136
1.03072
4.11144
1.72356
0.403613
10.9215
0.234701
1.27705
7.94032
0.832224
5.92584
2.90483
0.290857
0.244393
15.3644
0.650266
4.33085
5.20996
0.263525
1.46744
1.20863
2.02102
1.29333
1.21072
0.382668
0.269605
13.599
2.34901
0.406493
6.46008
0.262826
1.54377
5.85566
5.91794
5.8417
2.14553
0.338408
0.161886
3.91397
1.7764
1.40635
6.85822
0.253001
0.267391
0.355139
0.416079
0.247313
0.313974
7.51783
0.229527
4.09906
0.411026
0.8222
6.49538
0.632192
0.258581
1.60616
0.439164
1.05388
4.1414
1.79534
1.63593
2.97734
1.03653
7.35726
0.402237
0.412018
5.71669
1.06672
0.832722
1.38887
4.65102
1.42918
0.286457
1.11632
0.208196
6.74382
1.83386
2.1588
0.222512
1.2984
1.54369
1.29079
0.290164
0.406901
1.37322
1.43063
1.75237
9.12849
1.29528
1.00941
0.237141
1.95658
0.235154
0.393023
0.259537
0.931851
0.345656
0.964906
6.21476
0.688869
1.20635
0.27161
6.80236
0.376267
0.27308
4.65039
0.91807
0.287373
6.2903
7.36395
0.358246
0.382236
2.3138
8.74604
0.549935
0.0724783
0.922475
1.4523
1.10764
0.401148
3.69646
0.319363
0.962264
0.849696
0.268239
2.04283
0.889727
0.398399
5.7904
1.32989
1.23635
1.40702
0.839269
1.8223
0.565459
6.82833
5.6189
0.259927
0.101168
0.371901
3.22403
0.293748
2.23738
2.82008
0.263716
3.27208
1.14694
0.291323
5.17275
1.10593
0.221573
0.937446
2.38382
2.03552
3.81169
4.10254
0.404355
3.42721
0.239437
6.24797
0.231316
0.93515
1.33785
3.85654
0.853896
0.763485
4.44992
1.06945
0.226136
2.84051
1.20659
4.85259
0.389751
0.316418
6.69375
6.08981
2.22508
7.96509
5.75886
1.59126
0.893184
0.234521
0.388476
0.42022
2.43167
0.26362
0.260929
0.344942
5.4858
5.54702
0.421226
1.38127
5.09847
0.366175
0.408912
4.58626
5.00139
1.76541
2.40056
1.93357
6.27576
2.63012
0.94235
0.365899
2.69565
0.713341
1.20731
6.15859
1.8304
3.85902
0.32434
0.806945
1.68767
6.17949
1.33189
0.795305
0.190051
0.99802
0.453352
0.270261
0.367687
1.50098
0.293731
0.324941
1.05944
0.218211
1.60445
2.00888
1.22471
5.8104
9.02619
2.62735
0.980916
5.89866
5.3414
9.98351
1.5546
5.75335
1.46143
1.12739
1.56285
2.60159
1.42244
2.91006
4.70211
0.273612
1.25837
5.22277
0.365092
1.10185
1.25223
0.279325
1.57927
2.18717
15.4261
1.23458
0.835717
2.21114
1.17038
0.990337
0.99577
6.13542
0.325705
3.9857
1.35563
4.02288
0.357316
0.487369
1.49946
14.7546
0.329968
2.27906
0.371623
0.930525
0.27297
1.6941
3.44866
1.08577
6.82198
0.311784
1.95469
1.22339
0.180139
0.262134
0.264914
4.91545
3.58541
0.124379
0.262696
2.78232
0.33081
0.331364
2.08475
3.7831
0.289692
0.272196
4.26426
1.5264
2.46037
0.334081
6.07608
3.981
4.55303
0.559744
1.90941
5.85984
8.06213
0.421601
0.902546
0.424611
5.18765
0.262776
4.90394
1.21225
3.28056
2.04667
3.18585
1.43681
13.4715
1.29864
1.0069
0.382952
6.65683
2.22009
6.28868
6.39188
5.62719
0.728696
10.2552
0.297659
1.58919
2.18643
2.3232
0.151267
1.18396
1.19735
1.28609
0.269072
8.35142
1.06513
0.771673
0.847527
1.09874
1.15132
0.240745
0.240862
8.90664
0.169915
2.28039
0.265902
0.295379
2.295
1.85877
5.44801
0.243583
0.37268
0.253892
3.93504
0.370392
0.164992
1.21479
3.80715
0.271547
2.21836
0.417145
7.37286
5.07695
0.389683
0.340784
7.89757
0.79273
0.677292
7.38659
3.00324
9.38802
0.335054
4.01191
0.399065
1.81647
1.84969
2.29207
6.43011
0.672791
0.237158
0.263152
2.79568
6.16574
1.35829
0.378241
5.90142
13.0283
5.76933
0.401034
2.36269
0.382228
1.71306
3.967
1.25399
0.40324
1.28135
0.109493
4.86983
1.37051
2.5377
9.73652
0.403112
2.14753
0.285327
1.78041
2.8218
0.451292
0.343563
0.241426
2.40794
1.78782
6.31161
3.19737
1.37191
0.990492
4.05311
0.273853
0.115967
1.54857
6.03858
2.50588
2.33145
1.17752
1.35791
1.20831
4.62161
3.69076
4.75523
0.0952302
1.18815
0.877008
4.14851
5.33779
0.271132
2.16048
6.85975
0.45502
1.04742
0.427157
0.722118
1.08966
0.345374
3.9529
3.29271
0.296102
8.22208
0.401652
0.239145
1.6478
1.44167
1.28218
3.73698
1.58347
0.399324
6.14265
0.27429
1.38551
0.684043
0.450978
4.1752
0.241386
1.41191
1.22775
0.254759
0.811371
1.11338
6.94823
1.37695
1.07983
2.44926
2.70596
3.85594
6.30127
0.131823
1.27578
0.220892
1.16786
1.96381
5.63148
0.386606
6.37249
5.44634
3.21895
0.706398
0.381582
2.17002
0.603026
5.49456
2.03935
7.98278
0.417477
4.05854
4.75171
1.98461
1.33999
4.98997
6.28662
2.32879
2.46324
4.70513
2.39509
5.40019
6.42728
2.85806
1.41155
0.761182
0.271288
0.343212
0.33781
0.762718
2.35099
9.99436
0.26565
0.636977
0.382585
6.37223
6.19399
0.272602
0.364323
5.99443
4.78395
1.20338
6.50358
0.362909
0.427713
0.566033
2.12296
3.93562
0.317695
0.366833
3.33497
3.23985
0.277321
5.15783
0.279702
0.205759
0.45537
2.7702
0.735731
2.09204
0.360561
6.03976
6.42369
0.876656
0.368669
0.343051
0.267535
1.05406
8.44477
8.68495
0.364664
5.32761
6.08927
4.02878
7.50984
0.2684
12.746
2.51558
0.695847
2.46811
1.17673
0.418851
6.15013
6.31125
0.646951
0.954373
0.289025
0.247608
0.367743
0.782766
1.16501
0.639847
8.2244
4.88125
9.69381
1.75793
0.397708
5.17763
0.991352
2.97014
4.93138
1.08831
1.40429
4.10194
4.7703
7.99187
0.620667
6.83085
0.335623
1.1274
2.36617
0.270643
1.2492
0.191828
1.50957
1.00974
1.16862
1.92978
6.41032
0.204247
3.69464
4.16942
6.11239
1.61353
3.78669
1.12091
6.43917
1.6306
0.879428
0.457882
4.6018
1.46427
3.12604
8.8975
1.40906
1.29928
0.259863
0.252761
1.142
0.396637
1.40023
1.31687
1.21587
0.425496
3.28456
0.516756
5.32697
1.46687
0.907487
1.08979
4.48066
2.56268
0.851051
1.63211
4.99299
1.04961
2.05441
1.44241
2.10806
0.261174
4.90056
2.37212
0.33188
11.2477
0.153224
6.23582
7.29696
0.248836
16.0224
2.62314
3.36547
0.362425
0.178836
0.230336
0.100046
1.26372
1.63048
0.355632
0.427806
1.51482
7.81995
1.3073
13.3413
1.21636
0.268777
0.152135
2.72855
6.23342
1.54145
7.30896
8.10327
0.468585
6.79174
1.39497
2.22976
5.82317
0.928474
7.23442
0.374778
0.289706
2.48375
5.18316
2.17468
0.24111
1.81909
8.40379
4.60772
1.70333
2.54903
1.93616
5.61802
0.624242
1.11312
1.26682
5.74404
6.27508
0.259473
5.43255
3.25101
0.269637
5.5612
0.388761
0.260855
14.9579
0.990856
1.3976
0.118091
3.02937
1.6947
2.92205
1.60542
8.3917
11.6462
7.80779
1.4917
4.17252
4.44302
1.72682
3.23975
6.3745
0.346284
12.7217
0.323481
3.40577
0.38764
2.64781
0.355252
0.259855
0.358808
1.42309
2.69708
0.115361
1.16128
3.12907
2.23033
0.403819
8.96487
1.74843
2.19057
1.57255
1.75718
1.95321
0.248159
0.457677
2.11941
3.75938
4.75021
7.872
0.348825
0.059339
4.54482
1.49088
0.149028
0.413964
2.58822
0.2595
4.97281
1.14341
4.98162
0.399377
0.143927
1.51435
1.08633
0.872517
3.53657
3.7904
0.964262
2.64587
1.04011
4.2124
2.82627
0.925477
2.13738
0.276436
5.62107
5.35896
0.241466
4.32312
0.64032
1.35345
10.0318
7.32412
3.39764
3.65463
0.169706
6.39206
0.243534
0.456032
2.5568
1.80434
2.75017
3.07339
3.59568
0.45769
6.256
1.25725
8.06692
0.262632
0.318459
1.65195
1.39704
0.419421
0.423626
1.91398
1.41307
0.417659
1.25111
0.453518
0.408273
6.50035
1.89508
0.380158
0.396402
0.386005
6.21091
3.39429
0.363032
2.87388
6.01305
4.25523
1.46634
0.601751
2.6562
1.05047
1.42004
0.395062
13.0119
2.81168
0.435981
11.9222
4.92516
0.841667
3.24398
3.79561
0.82856
2.71943
5.65268
8.82471
7.76244
1.32782
4.57572
0.292449
1.86254
5.30536
3.00995
6.20464
0.601412
0.450619
0.430641
5.47085
5.79896
0.0601973
1.22034
0.600365
0.217417
2.99435
0.980626
3.30359
0.0971677
5.58569
2.6095
0.393994
0.390251
2.25587
0.268732
0.259048
0.249748
11.5987
0.399462
6.39585
7.6689
4.26401
1.66107
0.590336
1.12822
1.95397
1.33306
2.40884
0.458381
0.64584
0.630106
0.415632
1.15899
2.4598
4.67636
0.395583
2.00747
9.43215
1.42375
0.268644
0.259552
3.24761
5.63771
0.408117
1.52483
0.932547
2.83118
0.323633
3.1033
0.582039
1.23042
0.411236
3.41491
4.48283
0.390699
0.11517
0.652531
9.19978
0.290253
2.62112
0.343307
0.362784
5.55189
1.34279
2.25019
1.35075
0.407953
6.33761
4.17416
2.25021
2.08719
0.352735
2.97895
0.243253
0.674052
0.300035
7.21722
2.81392
11.2855
1.48204
1.63328
0.415896
0.370353
1.18314
3.80567
2.22019
0.891664
4.96548
6.83279
2.80431
5.46844
0.352483
0.859249
0.988311
4.80212
2.73575
4.52941
1.69934
0.35399
2.0786
0.88078
2.94467
5.01723
0.660997
1.37299
5.2623
5.91297
0.599256
1.14197
5.40041
1.40848
1.44276
0.305783
0.646597
0.409174
3.59343
1.43572
3.84237
0.591634
0.372626
0.975953
0.690851
0.299087
3.15159
1.39519
1.52835
1.33213
0.364086
8.42093
0.84856
0.565736
3.69777
3.88768
0.390459
0.953529
2.50306
2.27918
0.971883
3.05146
0.296303
6.10544
1.26671
0.278986
1.08007
0.245049
2.17087
0.372147
1.46438
1.56739
2.2258
4.54377
5.75667
0.544034
9.2988
1.0386
3.42331
9.1585
0.867742
0.466037
3.50211
0.270078
3.85089
2.9116
4.56391
1.25669
0.248987
0.343826
8.23003
1.65839
0.341508
4.43915
0.646976
0.365945
0.316821
1.78658
3.10838
1.3638
2.70318
0.297123
6.38192
9.76651
1.55547
4.29823
2.55841
0.594382
0.264993
0.226383
2.48831
2.09911
4.98576
0.360937
1.14203
1.39501
2.85806
0.39439
0.252131
0.245874
1.82613
1.94676
1.13388
0.352941
5.51156
0.455261
1.51454
1.27502
0.396924
1.40652
1.95075
0.851236
10.3724
14.0929
0.472991
0.399586
13.8017
0.417825
3.82772
2.04499
1.43738
8.69852
6.92064
1.04307
0.694527
5.06951
1.21487
4.03625
0.370871
0.226409
4.0562
2.12369
6.0224
0.495125
0.195148
1.15987
0.271805
1.90445
10.8891
8.43279
1.84924
2.00572
5.23349
3.14606
1.25172
0.174012
0.672884
5.75779
0.451558
2.4007
10.7071
1.10158
8.56701
0.374312
0.357231
5.32222
10.949
1.83399
3.34367
0.584866
0.368796
0.392485
0.790248
9.25251
1.05177
1.42218
0.401623
1.29166
0.622447
0.396431
0.307876
0.130867
2.17972
1.33764
7.14856
1.04886
8.19229
2.52142
3.35703
1.90402
7.77765
1.42775
6.11109
1.52932
0.268211
0.396371
0.346659
0.404662
1.98433
0.300143
2.45926
0.355115
6.31558
1.94739
1.12107
0.749457
1.07194
4.02956
1.87719
0.615796
0.411926
1.2271
1.18944
5.04085
0.678511
1.43523
1.01115
0.244951
0.313238
0.272837
0.237944
0.794856
1.2272
1.41313
1.20875
1.38896
2.89178
0.457551
7.58369
0.79491
3.39992
5.00522
0.362426
3.10436
1.44215
1.04569
3.66585
1.49638
1.26382
10.74
0.796309
1.55768
0.377871
7.93244
1.43069
0.334716
2.65416
1.41677
1.44733
0.387266
1.43911
0.770751
8.95951
3.62821
0.420147
0.319831
1.37511
3.72441
5.77514
5.67746
1.92326
7.50123
6.30354
2.39392
7.3287
9.39931
5.15553
0.411142
0.955466
0.380002
0.804243
1.64889
1.13739
2.63109
1.06911
5.42329
0.871124
0.247634
7.53831
1.40909
1.22771
6.07457
2.70719
1.08654
0.907206
3.7586
0.34095
1.03372
9.05214
6.5853
11.8047
3.59239
2.25536
0.381373
6.73354
2.34318
0.413497
1.39678
0.107895
2.21724
0.39277
0.607158
0.399503
1.44257
4.49333
0.350538
0.265097
0.314744
0.333045
6.32685
0.390551
0.167704
12.5035
7.13572
5.60552
0.273896
6.19527
1.13453
4.20732
3.80042
0.406309
0.368656
0.345532
5.34598
0.615786
10.222
0.346451
2.14247
0.68387
2.43283
0.832051
0.774882
1.41443
0.513541
3.62944
0.356276
0.447047
5.30623
2.04571
3.51604
1.40957
7.76857
5.64762
5.2971
5.20249
0.318527
9.2673
1.31537
1.42413
0.406161
4.81038
1.2455
0.347804
10.25
5.06141
0.313758
7.8129
1.29771
4.98276
4.1029
4.18526
0.952939
0.266014
1.28295
5.56824
0.302134
3.09066
5.38639
2.33844
4.56804
3.22308
0.109203
2.74005
0.411221
1.70939
0.416061
1.43672
2.37967
5.00751
4.48164
1.24065
6.242
7.03547
4.31447
0.351398
0.959618
5.5273
6.99093
0.402807
0.377537
1.3599
8.38868
1.29251
5.93508
0.277457
1.81789
0.869325
1.15295
0.407046
0.89122
4.05326
6.38789
1.62269
6.03763
0.352252
1.84286
1.33843
6.39532
0.264936
1.37184
2.84493
1.05828
1.34404
0.396713
0.283687
0.404804
1.00141
0.234936
5.68957
5.82387
3.45035
0.690408
0.375791
0.828986
2.85871
4.64951
5.18941
3.74488
0.339269
0.310481
9.04075
5.93488
0.895684
5.60916
1.26577
0.52027
0.327538
0.267856
1.1682
0.393568
5.88932
1.51241
5.72491
1.41399
0.377993
0.506573
1.82686
0.720727
1.99322
1.79383
2.50948
1.61925
3.03744
0.374217
0.354336
11.1131
1.42207
2.44071
0.404688
2.64723
0.349864
0.40188
0.260746
6.20911
1.10907
2.05664
6.44908
6.88351
1.74543
15.7584
0.376057
0.370633
7.20549
1.11984
0.514657
1.42969
0.397251
0.266009
2.58019
0.770556
2.54578
1.09282
6.16985
1.40198
0.373485
1.72093
7.66357
0.763179
4.84188
1.47406
4.93414
1.28958
8.22822
1.27269
1.39687
5.86333
6.97163
0.346382
2.95353
3.81534
1.16819
0.713246
2.78623
0.397501
0.399986
2.98144
0.384393
11.5094
2.40803
5.98072
5.49014
1.90419
1.43207
0.331345
1.82424
4.63124
0.417066
0.369112
8.67684
8.81306
5.57317
5.5842
4.3997
0.581856
3.27259
0.406894
1.67844
11.6625
5.7434
0.397329
1.94007
0.369893
0.393689
0.575285
0.446101
5.35614
0.533015
0.36719
0.501777
13.9738
0.0183125
7.30742
0.851741
5.41708
1.21912
5.85895
0.284636
0.820671
1.27575
0.299473
8.80617
0.249095
3.12822
5.14623
3.13171
0.280296
12.7037
6.21808
7.87237
3.33429
6.02219
2.02668
0.418821
0.319179
5.23577
9.81781
0.355371
4.66714
4.76773
1.32623
1.94846
4.94983
1.51761
1.08091
10.2077
3.10243
1.34366
0.105102
0.662918
6.55974
0.297379
7.43762
1.3185
1.95794
1.03139
2.48474
0.275899
0.905215
0.27595
0.415832
0.116501
6.69937
6.26626
5.32121
0.357614
3.07895
0.453758
0.376084
8.80064
6.4046
0.253236
1.1304
0.317857
0.877262
1.91191
0.427488
1.24996
2.73688
3.92926
2.28288
0.838729
6.17682
5.48157
2.02334
7.29085
0.413549
1.42458
0.388814
1.35119
0.373133
4.99112
4.14632
1.43792
9.75506
5.76753
0.261766
3.21306
1.11077
0.399526
3.45433
0.308072
0.57695
3.99496
0.364386
2.78884
0.283058
6.03792
0.570463
0.904538
0.399198
1.32769
0.518277
3.21614
4.38874
1.09031
0.345697
6.19416
1.39239
1.06118
4.41201
0.782348
2.73983
0.582358
7.39852
2.24677
0.300626
1.42187
4.42256
0.384453
1.22921
2.91648
0.320865
7.81056
0.231174
4.01853
2.32731
4.62372
0.90761
3.07023
9.17816
0.577549
1.50799
2.11409
0.789451
0.895876
0.398139
3.77046
2.24387
1.9635
1.18594
2.03995
1.91855
5.4465
3.16581
5.41443
0.617722
2.24206
0.404847
5.29781
1.35072
0.346479
5.4528
0.26637
3.92094
1.10794
4.80745
1.17093
1.37206
0.231397
1.84802
4.83189
1.32611
1.05919
0.743363
5.08233
2.408
2.97475
0.383884
2.41431
2.16794
0.294891
3.39509
1.49841
0.580136
0.856969
1.98167
10.43
6.15203
0.527801
3.9709
0.40201
2.19501
0.759647
8.03796
4.21324
0.262495
0.339029
1.095
2.9645
1.90815
3.95019
1.54521
0.709158
0.286354
2.97249
1.77329
3.12759
4.25348
0.754588
0.390345
1.30434
5.3121
1.82993
2.05372
0.346493
8.36606
5.21791
0.39194
0.773801
1.41394
1.58266
0.311284
2.8126
1.53494
0.360294
3.22215
2.26269
1.80446
3.38557
4.43991
0.382893
0.340963
0.96189
0.949036
7.90628
13.4838
0.294634
0.327633
1.11888
0.300983
3.83943
4.35883
7.43528
1.32469
0.321379
2.05149
0.312087
1.46727
2.16091
0.315236
8.69974
5.88146
1.93524
0.403769
6.09658
1.44523
0.989286
7.92547
1.5824
1.03574
5.87214
4.10152
2.5975
6.74958
6.99942
6.86269
0.578888
4.58543
1.91102
3.9766
2.63946
1.12727
0.362067
0.260286
1.65662
1.30688
1.90304
0.277227
1.43131
2.55746
0.227248
10.8775
0.116187
4.77639
8.31362
0.276771
5.49396
1.01641
0.667548
6.49425
3.64139
2.19317
4.25809
0.393688
0.414589
1.50048
0.338217
6.43139
2.9201
0.0306611
0.407546
1.90781
2.66837
2.96119
0.346876
1.49796
5.92962
0.235339
0.26474
1.06107
0.387476
0.696794
1.38679
1.02802
0.328371
1.3931
0.771595
1.53375
0.223289
0.398954
6.00905
0.379152
1.43796
4.46838
1.49637
2.49561
1.43139
5.27756
4.47743
1.67835
8.77295
0.576714
5.28474
0.397575
3.46037
10.5783
0.271172
2.73378
1.20836
1.34717
0.271933
7.00308
5.32147
0.34777
5.19215
0.433215
4.55382
3.74024
1.39742
0.840765
0.517661
5.32628
3.5836
1.55183
5.24781
1.42854
0.410461
1.32301
6.16481
1.09424
0.579309
0.317456
1.84336
1.02456
4.15217
1.31951
1.24905
1.3664
3.60698
0.411269
3.72346
3.78858
3.26077
5.15541
0.885181
4.50829
1.53264
0.551847
7.52316
7.13413
2.49488
0.741332
6.20122
3.70594
0.0379841
5.38258
8.48163
2.89282
2.44474
2.07661
3.60264
1.08482
1.17549
4.843
5.23933
0.347666
0.390548
0.332364
1.36153
0.0783502
1.42327
5.43614
1.48649
4.14681
0.293255
8.6641
0.226413
2.113
0.21936
1.97322
1.36336
2.69639
7.26675
0.403905
4.14267
0.39066
1.15459
0.832573
0.925796
0.24135
4.23171
2.18325
1.18379
0.271785
4.91156
3.66734
2.59492
1.74056
1.18994
0.840985
0.235765
5.39198
3.15598
7.72739
3.43176
6.38188
0.367265
0.102006
0.569305
3.71278
3.59159
0.992618
1.14738
0.275717
1.18478
0.479132
5.33762
0.763277
1.62117
1.34776
1.27277
5.4238
0.301153
0.617288
3.0585
4.63339
0.307254
2.08426
1.541
0.901892
3.62387
0.887021
0.983555
8.19056
4.04136
12.7762
1.3768
6.27054
0.417431
2.8237
1.31995
1.96269
9.40065
0.25693
0.65973
1.9795
1.68681
4.49981
0.770048
0.338673
5.06474
3.30256
8.27632
2.88565
0.385174
0.279045
0.412772
0.286423
0.331166
0.819474
1.29926
0.642012
2.99472
5.29458
1.93381
3.05606
1.14212
0.245525
5.46916
5.52188
0.39022
0.267393
0.577139
3.9625
1.38177
0.392331
0.315184
0.7438
1.36902
1.6534
9.61573
1.70284
5.48166
1.71919
0.092016
3.46842
1.03648
1.15184
1.57141
4.18549
7.93983
2.77844
0.377794
1.45328
4.47137
1.92529
3.02679
2.04375
0.336344
2.16608
0.37698
3.24242
3.47373
5.1572
0.3132
1.40886
2.86234
3.25298
0.32475
0.989842
0.927067
8.80717
0.132425
0.849601
0.740817
0.327561
2.85872
7.69483
0.381873
3.72487
3.18886
0.237312
2.66401
5.48428
4.72891
1.01077
5.32984
10.5267
0.228653
11.2268
6.17456
2.72615
0.269415
5.75848
8.33534
4.46977
1.66435
10.083
2.45364
0.82918
3.78281
6.91795
0.373975
5.06314
1.39481
3.46963
0.389751
2.98084
0.25948
0.370289
14.0309
0.238723
3.77201
2.97222
0.839301
2.21659
0.476507
0.764145
1.70315
0.24255
0.239936
6.13357
1.41669
1.30017
1.20067
1.12931
0.220354
1.27764
5.52885
1.23698
2.58454
0.826412
3.19073
0.41126
10.0645
1.12046
0.330942
0.409797
2.91162
1.29019
1.37661
0.740836
2.16119
1.18952
1.358
4.93763
2.86723
1.42279
4.10735
0.355678
3.80616
1.09376
2.98781
0.27657
0.389881
0.403157
0.414742
0.263827
1.96205
0.106663
4.5333
1.20326
2.3072
0.33671
1.25279
1.81665
0.813413
10.5444
6.21373
4.62401
3.38036
2.75378
1.40792
0.371053
0.28775
1.04101
0.785855
0.228856
1.55083
1.35238
1.43191
9.49318
0.557086
0.967904
5.23527
7.75818
1.75506
1.43852
1.3966
0.905002
0.358926
4.6176
0.316324
0.414881
0.393282
0.400464
1.2076
10.586
0.263717
0.310462
2.53008
1.57949
7.73461
1.42369
3.78804
0.360435
0.31895
1.28222
11.3181
4.2845
0.311239
1.78627
0.409819
0.411387
0.53798
0.409873
0.258321
3.43751
0.389815
6.22445
6.08644
0.947455
0.537469
0.298355
1.37949
2.52246
0.386574
12.1002
0.379952
2.38688
0.245705
1.73172
2.05728
0.379792
5.93643
0.389212
0.846692