/*--------------------------------*- C++ -*----------------------------------*\
  =========                 |
  \\      /  F ield         | OpenFOAM: The Open Source CFD Toolbox
   \\    /   O peration     | Website:  https://openfoam.org
    \\  /    A nd           | Version:  10
     \\/     M anipulation  |
\*---------------------------------------------------------------------------*/
FoamFile
{
    format      ascii;
    class       volScalarField;
    location    "1150";
    object      p;
}
// * * * * * * * * * * * * * * * * * * * * * * * * * * * * * * * * * * * * * //

dimensions      [0 2 -2 0 0 0 0];

internalField   nonuniform List<scalar> 
10435
(
0.000962202
-0.256773
-11.0732
-2.50302
-6.55736
-10.6449
-11.2138
-11.0124
-10.9364
-10.6833
-1.55215
-6.53126
-10.8925
0.904237
0.960682
-10.6322
0.775273
-10.8015
-11.0668
-0.347385
-11.3263
-2.65626
-10.759
-8.88743
-10.5704
-0.0177844
-0.29415
-11.1943
-0.62606
-10.732
-9.55656
-2.34892
-11.3165
0.103985
-10.1616
0.849524
-10.0538
-1.55717
0.580895
-9.7851
-11.1945
-11.3761
1.0681
-1.21683
-9.88617
-9.82626
-10.8434
0.465096
-11.0409
-3.09668
-10.9953
-9.57749
0.0977455
-0.774307
0.947591
-0.841069
-9.64767
-0.471204
0.305694
-9.80029
0.258468
0.208656
-0.202394
-8.80572
-10.3306
-11.0091
0.185324
0.0134454
-11.3847
-8.38039
-0.0340729
-0.668883
1.49017
-10.7572
0.873992
1.38564
-7.16451
-11.4781
-11.483
0.761212
-4.79424
0.0333856
0.300874
-0.297705
-5.70017
0.889655
0.510801
-1.05508
1.15017
0.221684
-1.67703
-2.34463
-0.290967
0.907865
-0.116603
1.0733
-3.44159
1.21574
0.894586
-4.39653
0.703102
-8.11039
0.747883
-0.54817
-8.97541
-1.82048
-0.669138
-3.89847
-6.82274
0.713694
-2.35622
-7.05094
0.323212
0.475329
-3.07036
-1.94252
-5.19542
0.662055
-0.941872
-5.03485
-5.79806
1.49891
0.383829
1.53716
-3.57449
0.159763
-4.22663
1.57747
-5.70537
-1.15198
1.65409
-2.49785
-10.6852
0.808788
-0.419825
1.34976
1.37319
-3.32135
-0.401778
-1.33067
-0.804157
-9.79028
0.476386
-7.85968
-3.44528
1.30649
1.54462
-9.52296
0.974088
-8.25431
0.381979
-9.58703
0.0769525
-8.46674
-10.2096
0.284784
-4.75163
0.0392576
-10.5001
-0.721147
-9.02931
0.805914
-2.40136
-6.06431
0.937087
-6.86714
-11.0214
-5.03787
-7.78117
-8.11818
-10.4429
0.898386
-1.59585
1.31026
-8.01338
-0.00913792
0.567805
0.549846
-1.70089
-0.0178848
-0.843753
-10.2374
-7.21046
0.0530235
-9.89731
1.10188
0.975482
-11.3686
-7.41513
-8.93752
-6.49985
0.471737
0.0528509
1.16025
-5.92003
-11.3963
1.19334
1.05677
0.606133
-10.4285
1.19141
0.71675
-11.083
-0.149633
-11.0961
-4.0756
-1.6153
-4.16866
-0.419159
-4.33296
0.818351
-10.7214
-7.12301
-6.64513
0.114283
1.06011
0.650557
0.69588
-1.91043
0.748613
-0.134014
0.334701
0.419521
1.39409
-0.12724
-10.6047
-1.51005
1.15845
-9.61746
1.33306
0.403206
-10.7728
-1.61672
-9.18004
-1.08932
0.689656
-9.53057
-0.957256
-8.68341
-10.1685
-0.708497
0.217166
0.721837
-0.768831
-3.35718
-11.2782
1.27391
-11.5793
-3.63203
0.510721
-3.84933
0.764371
-11.082
-5.21112
-11.8068
-7.18962
-5.24896
-11.8801
0.291312
0.00336405
-11.9746
-10.0776
-0.511518
-7.18062
0.550876
0.813591
-0.269457
-10.4684
0.66134
-4.88471
-11.6857
-12.6217
-12.4713
-10.7454
-2.34368
-5.86371
0.00409685
-5.3796
-11.2212
-12.45
-11.0377
0.761263
-11.5531
0.936915
0.62303
0.860959
-8.55248
-1.19288
-0.159855
-0.376626
1.50292
-1.55283
-0.584911
-12.4038
-0.850557
-4.84151
1.20888
0.300444
-4.2499
-10.3091
0.338743
-7.98991
-11.5176
-4.54879
-3.2987
1.09064
1.14147
-8.68328
-10.5378
-0.0807355
-1.16239
-0.531538
0.868839
-8.81512
-10.4073
-5.4635
0.648674
-9.17422
0.209751
-5.82397
-9.80574
-1.39484
0.379784
0.730713
-12.0407
-11.0203
-3.26909
-11.4503
0.432553
-0.554911
-10.5384
-0.362735
-0.036525
-11.2403
-8.55034
-0.31407
-0.254055
-1.68324
0.349545
-1.5384
-4.19389
0.17123
0.489935
-3.79296
-5.4243
-0.475285
-0.161102
1.03585
0.885769
-11.5511
0.146243
-10.7678
-3.6954
-11.3466
-12.6682
-12.5012
-11.1685
-10.6923
-0.767233
-0.00157231
-1.63347
0.48803
-1.0425
0.360757
-1.27944
-4.67056
-0.404436
-7.29714
-0.0485939
-11.4307
0.432917
-5.21196
-10.876
-12.836
0.841694
-5.86262
-1.41048
-0.857247
-0.0800614
-0.313039
-7.77746
-0.858918
-11.956
0.0650649
-11.672
-12.4109
-11.2453
-11.108
-12.6134
-11.3301
-10.3615
1.4804
0.654865
-0.427581
0.424038
-11.2908
-0.289538
-11.1225
-5.78375
-0.567116
-7.31165
0.469739
0.0827708
-10.9037
-1.80417
-11.7363
-8.43758
0.850222
-0.249112
-3.82723
-10.2655
-4.11547
0.000133572
-0.400345
-0.91483
0.412428
-0.222798
-11.1572
-3.09205
-0.938521
-0.671191
0.756035
-10.956
1.06656
1.23885
-11.1752
0.311903
35.4881
12.1189
18.9301
13.768
15.1426
13.2298
12.9627
12.0598
9.92919
29.5654
10.2577
15.3455
11.7712
12.6378
11.4078
11.1655
10.444
9.78716
23.4821
7.93601
12.3086
9.9746
10.5483
9.75201
9.51679
8.95602
8.30969
18.3717
5.9547
9.56746
8.14569
8.58274
8.13126
7.97803
7.61028
7.11819
13.6763
4.42805
7.24173
6.49891
6.85728
6.6468
6.587
6.40469
6.04752
9.43344
3.44206
5.38356
5.13397
5.41995
5.36658
5.37327
5.30121
5.13472
5.95143
3.16855
4.03464
4.09521
4.29677
4.33711
4.38789
4.3955
4.35803
3.40971
3.3245
3.12302
3.35007
3.46962
3.55962
3.63462
3.69596
3.5873
1.70279
3.22173
2.46385
2.81393
2.88897
3.00597
3.09282
3.16778
3.19932
0.625522
2.70564
1.97508
2.43212
2.50284
2.6355
2.73034
2.81793
2.86417
-0.00302675
2.15274
1.68443
2.18861
2.26749
2.40202
2.49797
2.58764
2.67885
-0.130119
1.94068
1.62051
2.06876
2.14075
2.25947
2.34427
2.41735
2.57037
0.172198
2.02591
1.72809
2.03354
2.0805
2.1729
2.24372
2.3177
2.39399
0.456833
2.15881
1.85729
2.02186
2.0436
2.11015
2.16942
2.24247
2.28744
0.612795
2.23684
1.94592
1.99952
2.00362
2.04947
2.09969
2.16373
2.222
0.754215
2.23461
1.97604
1.95126
1.94806
1.98117
2.02666
2.08343
2.15728
0.775304
2.07077
1.91463
1.86457
1.86955
1.89983
1.94483
1.99478
2.10138
0.674754
1.75932
1.76643
1.74217
1.76924
1.80631
1.85609
1.90942
2.00582
0.602054
1.44785
1.59336
1.60449
1.65472
1.70142
1.7554
1.81226
1.8819
0.583056
1.216
1.42581
1.46597
1.53395
1.59122
1.65098
1.7145
1.7919
0.514588
1.0457
1.26283
1.33141
1.41016
1.47629
1.53992
1.61067
1.66123
0.342226
0.945845
1.10333
1.20194
1.28397
1.35694
1.42431
1.50594
1.47991
0.00775188
0.959501
0.96318
1.09219
1.17114
1.24628
1.31485
1.39749
1.34969
-0.421595
1.01797
0.75073
0.90575
0.988225
1.07634
1.17185
1.2847
1.22058
-0.542016
1.39416
0.971327
1.10657
1.14819
1.15034
1.20397
1.30559
0.657279
12.4058
12.4185
12.7106
13.183
13.7336
14.3826
15.1232
15.9523
16.86
17.8307
18.8513
19.9029
20.9574
21.9991
23.0045
23.9441
24.8033
25.5617
26.2022
26.7198
27.151
27.6462
28.0343
27.8072
27.3501
27.3756
27.9852
28.8752
29.5608
30.2232
31.0261
31.5812
31.7837
31.7979
31.7049
31.5177
31.2531
30.9716
30.6969
30.489
30.3892
30.4405
30.6941
31.1725
31.7808
32.427
33.1685
34.0271
34.8483
35.6356
36.5044
37.3919
38.2175
38.9552
39.4566
39.5851
39.3361
38.9025
38.758
1.82271
1.36677
1.03798
0.721767
0.436487
0.19605
-0.0219941
-0.258091
-0.492857
-0.681457
-0.813349
-0.886883
-0.899286
-0.84954
-0.737275
-0.562639
-0.325629
-0.0232634
0.351488
0.809799
1.36966
2.05794
2.86402
3.83427
4.70006
5.10782
5.07467
4.52474
3.77982
3.2041
2.7993
2.51362
2.2975
2.13297
2.01048
1.92066
1.86169
1.83704
1.84938
1.90025
1.98864
2.10812
2.25319
2.42234
2.56726
2.60321
2.51627
2.36083
2.2515
2.19663
2.1775
2.3411
2.77214
3.51513
4.56809
5.64978
6.64546
7.74446
9.24559
6.0194
6.1426
6.23716
6.37558
6.54253
6.73594
6.95317
7.1948
7.46386
7.75992
8.08156
8.42624
8.79164
9.17391
9.57024
9.9774
10.3925
10.8136
11.2404
11.6723
12.1097
12.5493
12.9726
13.3484
13.633
13.8406
13.9824
14.0351
13.9809
13.9095
13.842
13.7726
13.6964
13.621
13.5528
13.4975
13.4614
13.4521
13.4768
13.5416
13.653
13.8141
14.0294
14.3
14.6252
15.0038
15.439
15.9262
16.5418
17.2484
17.8744
18.4504
19.0651
19.6828
20.2407
20.6954
21.0477
21.3691
21.4391
2.82996
2.66298
2.56726
2.4954
2.44422
2.41706
2.41382
2.43482
2.48144
2.55581
2.66028
2.79691
2.96696
3.17184
3.41155
3.68558
3.99253
4.32958
4.69373
5.07998
5.48223
5.89121
6.29309
6.66912
6.99143
7.2368
7.39368
7.46093
7.45296
7.39788
7.31148
7.20197
7.07456
6.9335
6.78161
6.62223
6.45832
6.29361
6.13337
5.98295
5.84943
5.74017
5.66523
5.63485
5.66144
5.75685
5.93482
6.20622
6.56725
7.07335
7.73759
8.45965
9.16946
9.8631
10.5765
11.3122
12.013
12.6866
13.4048
4.12452
4.16327
4.20686
4.28023
4.37412
4.48734
4.61878
4.76766
4.9329
5.1132
5.30788
5.51606
5.73645
5.96876
6.21172
6.46454
6.72615
6.99454
7.26848
7.54534
7.82172
8.09255
8.35099
8.58965
8.79888
8.97324
9.10809
9.20276
9.25915
9.28438
9.28513
9.26508
9.22964
9.18393
9.13089
9.07687
9.0256
8.98025
8.94933
8.93834
8.95427
9.00465
9.09817
9.24344
9.45019
9.72546
10.0762
10.504
10.9996
11.5819
12.2767
13.0097
13.6968
14.3144
14.8779
15.3862
15.8133
16.1986
16.4342
3.02165
2.94572
2.91111
2.90127
2.91118
2.94239
2.99562
3.071
3.1689
3.28876
3.43174
3.59728
3.78537
3.99517
4.22521
4.47363
4.73819
5.01309
5.29813
5.58889
5.88131
6.1677
6.441
6.69622
6.92001
7.1116
7.26246
7.37533
7.44936
7.48688
7.49415
7.46859
7.41811
7.3486
7.25621
7.15393
7.04059
6.91098
6.78525
6.66644
6.56408
6.48781
6.44856
6.45859
6.53235
6.67557
6.9019
7.21362
7.61326
8.09729
8.66009
9.27556
9.93023
10.6047
11.2423
11.8218
12.3571
12.8692
13.3503
3.30499
3.29621
3.30805
3.34541
3.40106
3.47514
3.56582
3.67425
3.79913
3.93747
4.0904
4.25612
4.43592
4.62746
4.82866
5.03922
5.26185
5.48151
5.70938
5.93755
6.16911
6.39255
6.60451
6.812
6.98593
7.14692
7.27292
7.37993
7.46018
7.51105
7.54802
7.54727
7.52833
7.50446
7.4474
7.39962
7.34784
7.26167
7.20586
7.15812
7.13111
7.1319
7.16797
7.25024
7.39997
7.6015
7.88458
8.23515
8.65965
9.15026
9.69372
10.2688
10.8605
11.4564
12.0087
12.4902
12.9032
13.2793
13.5765
3.03732
2.97304
2.93803
2.93427
2.94241
2.98029
3.02689
3.11407
3.21611
3.30456
3.43963
3.58298
3.75269
3.94559
4.14565
4.37319
4.61997
4.80165
5.01942
5.24752
5.49891
5.72839
5.93555
6.17512
6.32462
6.49563
6.59752
6.70548
6.78608
6.83555
6.89511
6.87158
6.84477
6.84484
6.73603
6.71745
6.72807
6.5231
6.40967
6.29884
6.21131
6.14588
6.1082
6.11283
6.26541
6.3757
6.64808
6.91615
7.2232
7.622
8.11404
8.68588
9.24288
9.80712
10.3768
10.9318
11.429
11.9436
12.3463
2.95897
2.97737
2.97222
3.02187
3.06914
3.15063
3.21314
3.26839
3.3825
3.57713
3.62382
3.76745
3.96328
4.10483
4.32646
4.40643
4.65209
4.84275
5.056
5.20643
5.42549
5.59093
5.75735
5.97798
6.06977
6.23127
6.29302
6.3933
6.52242
6.45727
6.63649
6.59948
6.50124
6.55361
6.41538
6.46641
6.29814
6.04774
6.15606
6.05659
5.997
5.9996
5.92886
5.94666
6.05856
6.11231
6.30047
6.48109
6.91934
7.33307
7.73624
8.18159
8.65494
9.24833
9.78885
10.2295
10.6751
10.4955
11.0063
-4.87916
-4.81858
-4.41931
-3.87999
-3.24023
-2.62586
-2.1175
-1.62681
-1.11858
-0.69138
-0.358397
-0.0261373
0.274253
0.54378
0.957978
1.5601
2.22324
2.91513
3.68863
4.57634
5.58333
6.72191
8.06793
9.80784
11.438
0.558725
0.634034
0.496831
0.347477
0.347222
0.509451
0.733815
0.980745
1.20601
1.274
1.16532
0.994755
0.831328
0.733617
0.807169
1.0569
1.3108
1.42408
1.48068
1.63804
1.90062
2.21035
2.53791
2.9133
3.02008
-0.555332
-0.493768
-0.399213
-0.283392
-0.0990134
0.136498
0.377775
0.601616
0.786165
0.881035
0.885144
0.848744
0.806713
0.795582
0.872661
1.05059
1.28447
1.53933
1.83225
2.19557
2.63456
3.14687
3.73635
4.41025
5.26092
-0.106279
-0.0694637
0.031331
0.129941
0.258331
0.408286
0.563507
0.70791
0.828272
0.907027
0.944909
0.961629
0.976007
1.00669
1.07486
1.18634
1.32898
1.49192
1.67898
1.89801
2.14644
2.41235
2.67785
2.90318
3.1419
-0.0360164
-0.00313714
0.102216
0.20583
0.330729
0.463441
0.597125
0.718683
0.821519
0.898154
0.949533
0.986689
1.02204
1.06708
1.13526
1.23329
1.36073
1.51629
1.70256
1.92239
2.17808
2.47015
2.80543
3.17968
3.70259
0.0824553
0.130028
0.23626
0.331
0.44387
0.555632
0.66937
0.770978
0.859499
0.931343
0.985737
1.03046
1.07474
1.12409
1.18811
1.27222
1.37865
1.50849
1.66259
1.83954
2.0397
2.25762
2.49271
2.72282
3.03161
0.225631
0.221764
0.336844
0.418978
0.524982
0.6213
0.724973
0.813948
0.894143
0.963367
1.01668
1.06246
1.11047
1.16027
1.22165
1.29935
1.39645
1.51591
1.65882
1.82186
2.01066
2.21991
2.4605
2.72546
3.10222
0.362357
0.291689
0.428988
0.495712
0.60062
0.684167
0.785635
0.863638
0.935321
1.00232
1.05033
1.09228
1.14449
1.19416
1.2528
1.32589
1.41549
1.525
1.65482
1.80008
1.97507
2.16417
2.39945
2.66002
2.98639
0.360933
0.33755
0.530972
0.571318
0.671195
0.722407
0.823764
0.885148
0.972346
1.03696
1.08664
1.11768
1.16047
1.20139
1.26065
1.327
1.40909
1.51149
1.65931
1.8016
1.9565
2.14252
2.34076
2.44933
2.64782
-11.4066
-11.282
2.46865
5.41175
1.47537
1.3879
-2.80139
1.92155
1.46282
6.28466
-11.713
1.89117
-12.694
0.660775
-7.54288
3.24965
-5.99733
5.38732
6.32967
-15.6069
-17.0382
3.71416
-10.8882
3.32322
1.88207
2.68036
1.84864
0.850778
-10.1501
-8.86709
6.63982
3.21475
-13.6404
-11.7918
-9.50056
1.76553
-3.88449
-7.27024
-5.84386
3.9074
-12.7219
3.75481
3.10179
0.721448
1.90606
5.16996
-11.3315
-9.46535
-9.48614
-12.7412
-11.3127
-11.7829
-15.4662
5.43282
-2.59982
1.62753
0.641586
-16.4427
1.12449
-8.41394
1.97521
3.19433
1.49064
3.32302
1.87973
0.660376
2.97331
3.33041
-10.2429
-11.4927
1.04035
4.31267
1.56929
-14.9787
1.47812
-17.9234
-14.1792
-11.4087
0.774605
5.503
-11.5645
2.15407
2.17887
-8.31104
1.64035
2.0404
1.54794
-11.5998
-13.8273
2.3724
2.73596
2.3077
5.16354
1.9463
1.47269
-11.5624
2.57421
-11.0147
3.68138
-8.52891
1.14446
-13.1901
1.10919
3.75998
1.20043
1.11664
-10.8851
-13.5426
2.513
-8.27326
3.15594
2.19421
-9.39372
3.65113
-16.1462
-9.39617
-12.8219
4.24009
-13.4748
2.3844
2.90409
2.10836
3.49103
1.98317
-13.4314
3.12061
-12.0139
-16.3921
0.493829
-9.75911
2.31233
-15.1115
-11.1065
-9.03463
0.606417
1.56301
1.98884
1.24918
2.20726
-15.0953
2.31288
-4.74387
-9.07226
2.93756
-9.86135
2.83926
5.00365
-15.7953
2.08265
-9.60878
-0.674513
0.16597
4.91619
-7.96066
1.82463
-9.47293
1.43318
4.01176
-12.1474
4.49578
3.32227
1.10282
2.54833
-11.0424
3.74975
-8.18056
0.590772
1.67978
4.25041
1.41813
0.65959
3.45304
3.14011
-8.49108
2.55519
0.841661
-14.198
-10.6458
-8.92748
4.3286
-11.4898
3.5886
-14.6217
-11.412
1.18842
4.20801
-8.57646
2.4623
-13.494
2.58289
-9.19839
-9.23016
-1.61629
-3.85119
-8.09694
-13.5511
1.50305
3.60455
-9.55343
-10.2425
-10.5119
3.95353
2.32715
2.3873
-0.435988
4.45647
3.43576
1.17792
-10.1922
4.0302
1.18607
2.01667
-11.4971
-0.588463
-0.741019
-12.4522
1.37982
4.36192
6.35964
1.84804
1.09123
3.80038
1.90026
3.27142
5.29212
-12.6943
2.75947
-5.68957
2.49756
1.53582
-9.16515
1.88578
3.41404
2.37866
-5.46864
5.03229
-11.9463
0.900419
-11.768
-7.41251
5.36577
1.88904
3.89496
0.785938
1.55193
1.75809
3.07969
1.20649
2.99324
3.92911
2.54936
0.890112
3.73331
-10.0257
2.9191
1.50031
-9.28299
-13.8869
-12.1445
9.34982
2.73756
0.498497
2.33312
1.73098
-14.9502
2.06015
4.82294
4.75482
-3.66113
1.70551
-16.1282
-2.08778
3.54028
4.37206
6.95637
4.68033
3.16332
0.278247
0.5712
-11.0238
0.770799
-0.586995
3.60532
4.79694
-8.61507
2.56481
0.99117
5.44444
-12.0063
-9.1433
-5.17811
2.75347
3.48843
-12.0446
-10.0587
-12.5719
-11.1806
2.60801
4.3341
-9.3187
-10.2988
3.10381
4.18013
2.50489
-10.0508
4.34472
-17.4472
3.19733
-15.2575
2.35125
3.78402
4.25456
-13.7678
0.651629
3.51082
-3.41907
-11.3018
3.76401
1.90328
-8.44489
-12.7458
2.54325
4.16369
6.51809
1.73273
2.08225
-12.92
-13.7219
2.88052
-16.0212
3.54999
-8.23915
1.08938
5.70032
-11.9756
2.00001
2.02653
2.26797
2.38657
3.07687
2.01394
1.81384
-9.19519
3.30183
-14.9804
1.40171
1.30804
3.6386
1.62645
-9.65877
1.35655
5.29844
3.15458
-12.5141
-12.0765
5.25092
-7.79215
0.3745
3.81094
-8.36004
-10.3957
-10.8045
4.37354
-12.839
3.83966
1.52332
3.52909
-11.7985
2.15375
-13.1403
4.99298
-8.3722
-10.2818
-4.45697
-11.2082
2.21112
2.22874
4.29779
4.45561
5.21453
-10.981
2.64988
-13.12
0.541388
0.768536
-8.88295
3.99629
-15.6321
-12.0224
-8.96389
-1.32369
4.71279
1.63855
-9.52908
-11.5573
7.40759
3.91673
-13.0284
4.0628
-9.88966
1.86379
3.2803
1.57326
-12.0851
1.74102
4.24045
-3.53623
1.63547
-0.361659
4.0444
-6.1975
2.02203
-9.06248
2.04483
2.61766
4.90129
-9.22107
-9.46079
4.38337
2.66193
3.47362
4.27226
2.35416
1.03878
4.53784
-10.6894
2.42244
3.94866
3.25878
3.23329
1.86547
1.48396
1.89259
0.796843
-3.53469
3.72765
2.59618
3.453
3.57733
4.52589
4.3922
-7.3382
-12.3179
0.126309
-11.8329
4.82682
0.976653
-2.12535
1.12775
0.740971
-4.39081
3.45811
2.39953
-9.20362
4.88399
-11.4869
-8.06712
2.27651
2.72667
-15.5988
2.50529
0.128682
-6.25366
-11.4997
-10.7027
1.67116
1.32573
3.68477
4.35757
-11.4892
0.846014
1.6225
-10.5889
4.60676
2.01005
-12.9124
2.02834
1.49426
-15.6681
-15.6627
-0.844164
-6.48732
4.02972
1.81791
-9.00208
1.57432
2.08149
5.03695
-10.2384
3.53102
-9.98366
2.94992
2.14942
-9.23142
2.06942
1.27372
-8.85655
2.00457
5.06466
-13.052
3.13628
-4.52348
2.27499
0.799008
-14.9687
-11.7866
2.84651
2.57379
-3.30263
2.73493
3.53556
-11.0953
2.80728
2.1271
4.24344
-11.8489
-10.3339
-9.01622
2.17376
-1.19947
5.08228
-9.50227
-15.5833
5.21296
-11.373
5.31903
-10.7911
-13.4355
4.19254
4.42961
0.972227
3.42448
4.30838
-0.297426
2.33695
-0.0731824
2.59637
-9.43751
-9.68495
2.79865
-9.4576
-8.08416
2.85101
-11.3285
3.16071
3.78782
2.51009
1.07524
2.05134
-0.153646
-5.23853
-6.5568
0.527743
-10.0337
-9.20643
-11.1778
1.83427
4.621
-11.3744
-10.8048
2.65277
-9.82068
2.42852
-12.7778
-8.92453
6.87636
-0.99624
1.02651
3.42764
2.44128
-13.8828
5.84035
-7.99047
1.34028
1.40456
-8.937
-9.81475
-10.6617
1.04314
2.5662
-14.5771
-16.195
3.72091
4.81314
2.04567
-12.7757
3.51929
1.39843
-5.11426
5.026
1.36763
1.56939
3.41903
-9.66155
4.70292
1.02734
-12.3118
-9.35045
1.48614
3.59117
-9.17124
0.926224
3.90806
4.11949
-16.0738
3.03573
2.36184
4.00159
5.42312
3.4092
3.4509
-5.7062
1.82694
4.14601
1.05846
-15.9955
4.45894
1.31554
4.19087
3.6902
1.69324
2.32477
4.432
0.0386245
1.52696
-8.58806
-8.48068
0.82334
-12.331
1.33385
1.60042
1.56099
4.13877
2.98903
2.40965
-15.5866
2.56031
1.9936
0.230038
-11.3475
-1.21286
0.76245
0.681487
3.32336
1.49404
4.21935
2.66903
0.17509
-8.75609
-9.4995
-12.4407
4.38036
5.73996
3.10028
5.61423
4.15219
-9.85546
12.0906
-17.1691
3.90529
-10.6597
5.54669
-11.3166
3.00858
1.61697
2.02757
-12.3872
-2.27841
0.662222
-16.1217
1.49614
7.2775
1.7543
-10.1103
3.9661
2.48303
-9.23883
1.82285
5.02497
4.90282
3.5929
-14.8898
4.12226
2.23832
4.81363
0.711185
4.16547
-9.76208
-11.424
2.96782
-4.13532
4.32458
-11.6541
2.18463
4.79254
3.84715
2.58073
-5.08839
3.10285
3.69229
1.15191
3.29875
2.8401
4.43897
5.16999
-8.41318
-10.4063
-0.504825
-10.092
-5.79401
-10.7577
-9.68905
8.32637
1.45112
1.66463
4.23762
2.65121
0.0816591
3.09493
1.90757
-11.4602
4.22098
4.04219
1.28505
3.64699
2.66974
1.79555
-0.367844
-13.0839
-12.2313
5.88582
-9.7356
-2.0614
-10.6874
-17.08
-13.0778
-12.222
4.44296
4.33854
2.9043
3.96621
3.63074
2.38845
-9.49935
-11.251
3.64971
-12.7403
0.306094
4.42678
1.84929
2.16172
-8.25928
3.91442
1.89411
-2.55613
-8.72427
-13.9074
-10.9059
4.24347
4.37119
1.48461
4.04012
-10.6052
-0.725717
-10.9323
-8.57367
1.4213
-9.97767
2.5046
4.29912
1.02412
1.33439
1.27425
4.50464
2.79897
2.01074
2.41116
2.38565
3.15746
2.33001
2.69517
4.08826
-10.4268
-5.4442
3.52182
1.55921
3.24911
-14.9769
1.70418
6.92946
3.83846
-15.9731
-0.604197
4.09526
2.35422
-10.213
3.70934
-14.847
2.53764
-15.6559
-10.545
-10.5548
4.77326
-9.19259
0.433131
4.2045
-11.2583
3.64822
1.85822
2.20755
-13.8192
2.35415
3.23936
1.57565
-12.5247
1.59021
3.51597
-5.80829
4.57195
3.41017
0.345413
-10.5955
-11.4426
4.1779
4.50979
4.09156
-15.9693
-5.14181
3.67543
1.73656
1.31612
-13.6466
4.44243
1.86628
-11.6678
6.77063
2.24155
4.89056
5.67709
-14.5634
2.24454
-16.0392
4.0759
2.08399
-10.253
4.04522
4.48947
4.48813
0.84883
-16.0394
-11.6522
4.2281
4.31525
2.13502
-8.49513
-14.88
2.83863
2.4538
-10.5558
-6.77527
2.49389
1.29112
1.23352
-9.28855
4.22282
-14.0175
3.15255
2.49938
-11.3737
2.82004
5.12077
3.77557
-16.5942
-10.1026
-8.64209
-8.98015
5.34931
-12.4981
-8.90575
4.07646
-2.80404
1.72592
1.25904
-15.5776
2.39559
1.72125
-16.6977
4.01695
4.57576
4.50023
-13.7114
0.494608
3.12103
-11.5998
-10.6106
-9.68603
4.08327
2.28035
-9.64119
-10.3901
-9.87803
-15.1117
-12.7089
0.0658891
4.16261
-1.23943
-8.95793
3.48781
4.11191
0.120124
-4.96496
3.28008
-1.63916
-11.1764
3.06964
1.32026
4.46862
-8.55489
-3.99289
-10.3201
-9.39308
5.40472
0.881292
-0.911236
2.1243
-10.9637
-15.4375
4.1731
2.36738
2.32371
4.35761
-15.5089
-11.7495
2.21408
-9.38931
3.40751
-11.8834
5.02296
1.76779
1.97677
-0.916676
-10.899
0.694735
-15.5851
2.78926
2.95036
-4.96453
3.5609
-7.73401
-9.23937
-8.06035
2.21298
3.63119
-4.11509
2.8161
4.04796
2.03743
-8.89698
2.80734
1.05921
-12.0703
-3.86326
1.31476
2.30069
3.26821
3.78942
1.28538
3.51301
-15.9539
4.0475
2.14857
-9.1479
-15.215
-1.77329
2.61242
2.57318
-1.3865
4.46743
-9.57986
1.40742
1.22988
-9.13631
2.69193
2.22655
0.0601024
1.61686
-10.0532
5.24592
3.9442
3.96767
-3.3917
-3.15267
-12.8716
1.91962
-14.2556
2.91412
3.17495
2.95281
-9.80513
-11.2432
3.18716
-7.41806
4.44344
-9.99306
2.53217
-9.90978
1.56773
1.73688
3.41462
-1.68435
-6.55765
2.38894
4.30225
-15.4376
4.40413
4.02233
1.99777
3.93793
2.44566
-10.0331
3.40163
2.60724
-9.60192
0.931663
-9.01314
4.37384
2.57865
3.26545
5.12345
4.17397
1.27763
-12.8773
5.12342
0.469999
4.34212
2.0324
-1.22116
-9.37636
3.35613
4.54895
2.58326
4.06234
4.50338
3.94862
-9.45909
5.49345
-16.7904
2.73868
-5.28187
-9.60123
0.947314
-15.5671
2.91424
-11.0115
-10.8771
-9.28055
2.12901
2.36573
0.901855
-10.6217
4.24749
3.60778
3.15846
2.1733
-7.5221
0.951252
3.77427
1.27009
5.89735
7.00064
4.89133
-10.7674
8.36511
-13.9683
4.18325
3.36101
4.00783
5.14504
-14.4468
4.4727
-14.7961
-13.8534
1.66506
4.00028
-9.91318
-10.6636
4.40541
4.28867
4.43049
3.99231
5.47544
0.965184
-10.6038
2.46884
6.11755
-13.3286
2.04148
-0.454961
-6.09297
3.84021
1.61145
4.06369
1.082
-12.7258
4.17839
-14.6457
3.3546
1.01855
4.50712
-13.3758
-13.5442
3.65377
6.29775
-12.6973
3.96182
1.26966
-6.05902
-10.5203
4.59561
5.15204
4.50116
0.704324
-11.3548
1.64834
4.59683
-11.3775
-9.40708
4.28933
3.59056
1.40673
6.24512
2.72441
-15.0522
1.89635
-11.0541
2.10399
4.36062
1.80243
-14.6914
3.30905
-12.0184
-6.90398
-7.56099
-11.2474
-9.93671
5.54778
2.91629
-12.6159
-14.8253
2.16472
3.91697
2.2155
1.05379
3.4091
1.93602
2.30096
-4.47192
1.33046
0.897175
-6.25519
1.25155
2.2099
2.87042
-9.3325
4.36411
-12.237
-11.3129
1.24292
3.54076
2.28455
3.17902
2.20366
-13.8937
3.89861
4.4333
2.11278
3.57689
-12.2715
-13.2983
3.37627
2.55138
1.40157
4.29834
1.61588
0.82297
5.50922
1.22502
0.358839
-10.4201
4.37503
2.71692
-2.32262
2.5218
1.87264
2.94773
3.98388
2.25383
3.94152
-12.3243
2.82782
5.23443
-9.48737
1.5233
-1.31996
-6.01963
4.03857
2.49077
4.41869
-8.59042
2.88284
-12.059
4.85479
-5.74192
-12.5769
-16.1291
-10.4307
4.576
2.02717
-15.1875
-13.7933
1.19251
3.98707
4.56192
-11.3416
4.42888
2.73447
4.43758
4.88221
-1.63398
4.47807
1.43852
4.34214
-10.6328
-15.5354
5.20338
5.79432
5.28948
3.49935
2.30444
-7.6483
5.56131
0.0878844
-13.5107
-16.2494
4.06127
-13.4183
-10.1468
-15.175
-11.051
0.407115
-10.3221
-12.0974
-9.09573
4.28152
-9.47487
4.80821
0.820388
5.47185
4.99166
-10.9543
-9.79199
-10.629
-11.8481
0.979052
3.26877
-2.83138
-11.9711
5.09678
-12.5758
4.14517
-15.2149
4.85315
-10.2761
-0.533118
1.21557
2.45867
-15.806
2.15134
0.0360336
-14.8909
3.79516
-9.46619
2.55223
3.23732
-7.4474
-2.6265
2.49832
-14.9337
-7.726
5.73363
-14.5334
5.10848
4.48345
0.863305
1.2933
-11.9508
-10.7368
4.37211
-13.6714
3.41651
-16.4086
5.1225
4.16601
3.33335
-16.6399
-1.50175
-11.8186
3.02775
-9.70058
1.63752
-14.5822
-12.4967
-0.502271
4.49497
-10.2246
3.76434
2.70963
3.88817
-11.9913
-12.3141
1.95501
-13.7481
2.54817
2.45328
-3.86851
3.1263
2.00497
-11.4077
4.666
4.11533
5.16366
2.14086
3.5458
5.80451
-12.5696
-10.9232
2.24282
4.92231
2.65405
-10.8328
-10.963
2.05491
0.434648
1.06646
-13.9786
0.403534
-1.85752
-10.7786
1.79021
-14.6884
-12.6498
1.92516
2.05916
4.72641
5.13113
1.72449
2.90157
1.22226
0.846816
-11.7053
3.22524
-13.1496
1.88032
-12.006
3.72833
-10.9206
-0.530615
-14.4504
-10.2596
1.3219
-0.210882
3.5818
3.65685
3.40317
-9.88691
-9.32819
4.47168
4.22444
2.95349
3.99723
2.02296
2.60875
-12.988
-9.44951
-15.2763
-13.1313
4.87433
1.69885
-11.1535
3.70953
-10.3536
4.06172
2.09225
1.21527
2.78245
2.05981
3.01857
2.04578
-0.283601
-12.8607
-10.6081
5.66801
2.02231
-15.4031
0.479839
2.31335
-9.58768
-11.2041
-9.06649
3.31704
-15.9772
2.22628
4.98995
4.62887
1.89411
8.93285
-6.46193
-10.8227
4.09697
0.996429
-14.8994
2.59228
-11.7768
-8.89576
3.00331
0.639361
3.80909
1.09091
-11.7402
1.38672
-10.4819
1.08141
3.89245
1.16985
5.16982
0.510241
4.84227
3.07666
4.1138
1.67518
2.50159
-14.3408
5.01579
-6.2968
2.73331
3.12428
3.47507
1.20429
2.27639
-1.93637
-11.6393
2.75134
-11.3245
6.30267
-13.259
4.02814
4.64007
1.95975
1.69141
-9.89574
3.16991
3.3369
0.00625785
-5.29779
4.00029
5.32652
4.86759
4.13098
-4.06159
2.18733
2.64742
-14.1187
2.16382
5.82382
3.08109
-12.1455
3.17129
-10.9915
-10.8509
4.66271
3.96842
4.14626
4.04743
-13.616
3.7758
5.47062
3.56169
-15.0912
1.20471
4.48698
1.69629
-5.44804
-6.56556
1.2772
2.42321
-9.02464
4.59785
1.23137
-9.46807
3.02273
-1.47081
-11.1133
6.51172
-11.6858
4.24616
3.04407
4.9924
2.02372
-3.67706
-8.80024
3.37001
5.58443
-11.6609
3.35768
4.5073
4.19919
0.671707
-4.28722
1.7546
1.5646
5.90142
2.73161
1.60514
2.78397
1.19827
4.88618
-7.23462
-14.2135
1.6054
-10.6109
1.24742
-14.9551
-10.8195
-13.9605
-9.23603
4.95801
3.90065
-15.0692
4.45353
3.60033
-9.62066
2.92205
4.59826
-10.8717
-12.6228
3.57619
-9.10184
1.53188
-10.4856
1.34867
4.32525
-0.151347
0.859195
-14.9854
3.22555
4.30898
0.66848
2.69391
-8.02756
0.190554
2.89217
-11.0633
0.74102
-11.2904
0.925119
-13.6055
3.1067
4.44333
2.2925
5.34452
-16.3469
-8.60916
-15.7293
1.51819
-12.1444
-11.0758
5.19001
-15.0549
-1.03708
4.29939
-16.3901
-9.98183
3.3879
1.24815
1.423
-12.9601
1.91285
4.43325
-11.8103
-15.407
0.788099
-13.1181
-12.0938
2.07334
1.02592
-3.05942
1.22996
-16.2803
1.28283
4.1919
2.0925
-8.4333
1.6191
-2.0096
-11.2628
1.80527
-1.79087
-3.33499
4.18899
-11.3106
3.83716
-16.6412
4.05289
2.11596
2.90469
5.19618
2.37911
2.67192
4.07121
1.33146
4.54267
-11.4862
-15.6067
2.41088
-16.6076
1.69214
2.16268
3.13651
3.3907
3.04261
-6.89449
4.45918
-3.66
-11.8547
-5.68927
-14.2485
5.11361
3.86106
-12.2039
3.64923
2.08422
2.94452
1.92601
2.36182
-9.51455
3.74215
4.43495
1.79779
1.08982
1.02812
-5.01003
-1.52764
-2.37562
-10.7893
2.42628
1.99435
4.43467
2.92712
1.82611
2.30918
1.11513
2.0825
5.01492
4.07772
4.44578
-2.40702
-11.9096
-9.8035
1.22058
4.30727
-1.69677
-9.10706
-9.79914
1.52493
2.41585
0.637906
4.11453
1.81498
1.21553
-9.16549
-1.54586
1.96727
2.59183
3.27472
1.21882
-11.2731
1.51201
3.27305
2.36091
2.7822
-10.2052
5.16254
-7.85071
4.8998
1.29939
1.2191
3.9286
-10.1836
-0.673515
3.22882
-12.8617
-15.5108
0.269548
4.34627
2.77037
-11.8588
-13.7598
-13.2557
2.17325
-15.5736
4.35625
8.26117
-7.897
-9.56264
1.92912
2.25761
-2.06166
-4.78612
4.53636
1.6094
-9.79649
2.03403
5.11576
2.90519
3.81198
4.5439
5.40879
4.32975
4.09632
-11.2591
3.64906
1.71036
1.45256
4.04813
-0.231903
1.26812
-15.6866
-1.43399
-1.47793
4.57898
3.69638
3.48015
4.61746
3.01999
2.04976
-15.7531
4.1887
1.31853
5.0912
2.2187
2.68713
1.31621
4.14454
-12.2516
1.82508
-15.2463
3.21587
7.18134
3.75493
3.29694
4.48516
-10.8522
3.769
1.46924
4.09144
4.11438
-11.0317
2.37915
3.93304
-11.8054
-12.7043
1.75759
-10.1487
4.464
-14.0823
4.24863
-12.5838
4.36513
-3.2849
2.28612
-10.9549
0.829303
-11.2058
-9.185
-9.79147
0.345792
-13.0748
2.18392
1.48192
2.16237
-10.708
3.85167
1.38441
-16.1457
-10.2329
-10.8414
4.94466
-13.4915
1.25697
3.39505
1.90158
-0.874577
4.0835
-5.70465
3.17358
2.7225
4.97123
4.47329
4.32952
-12.5916
3.98499
5.4356
-10.2567
-1.05019
1.54653
2.20318
-9.50547
3.63401
3.70572
-11.8168
4.63947
-0.453337
-3.33527
3.63235
1.00249
-15.9679
2.35441
4.23314
4.34152
1.82959
4.62219
2.69041
-12.2385
1.6553
-11.3547
0.734179
1.19536
-10.0912
0.0271246
0.475165
4.20512
1.62964
2.69026
1.66776
-10.295
-10.4373
4.09342
3.18499
2.62687
-12.2163
1.24594
-1.68339
1.67703
1.1911
4.06851
5.08829
-2.62469
1.2332
-14.3571
-13.2359
4.12535
-9.87734
6.27017
-15.3772
-0.870175
1.87255
3.34728
1.23959
3.39702
3.17223
-11.664
-3.51352
-11.6798
-9.78086
-16.0237
3.56332
1.6786
-4.18034
1.75067
-3.03698
-12.6911
4.12539
-9.95295
-15.4808
-8.95147
3.9817
1.64807
2.3845
4.57869
-12.0913
4.41477
-11.5824
3.76473
4.58885
1.06742
-10.2984
-12.9082
2.64626
4.46505
5.2506
4.18895
3.10001
-1.46624
-15.6231
3.28712
2.03876
-11.3019
4.33745
-13.7054
4.41505
2.63319
5.07565
-10.224
3.68068
2.36446
4.03809
4.17758
0.890524
2.83033
-9.88696
0.957203
2.4165
3.21305
2.20395
-15.8515
1.65559
1.53005
-6.45823
-10.4397
1.19713
-14.9664
4.34275
-9.20403
-16.4621
3.76907
0.948102
2.91915
2.69786
1.49175
-13.0242
-0.978959
5.75824
1.81295
-7.07871
-3.98968
-8.44793
-14.2035
-0.0151563
5.10559
-11.0695
1.21101
2.02366
2.22481
4.72996
-14.5562
-12.8947
3.66267
-15.2065
3.4877
-16.0489
0.78481
-9.56561
-12.9873
-9.38256
3.71704
0.954576
4.09466
1.23394
-16.9294
-5.16685
4.40971
-1.19349
1.54877
-11.3278
4.00627
-3.86932
-3.48749
-9.51839
1.19497
-13.0846
0.58389
-12.1208
-10.5945
4.23217
1.37367
3.14935
5.67979
2.72304
-4.7269
4.21788
2.75554
-13.8895
1.51587
0.33488
0.79675
3.72917
4.95833
-15.0605
-13.6202
0.678787
-12.4146
2.29667
4.00746
3.13676
-10.9033
-13.534
-11.2771
2.79849
3.69996
4.06242
-9.70273
0.660595
-1.11492
2.61822
-12.9327
2.7695
0.614384
-13.9929
3.85143
4.54208
1.26719
3.98675
2.5044
5.71232
-0.979315
3.11961
3.77584
-11.8441
2.82127
-11.2482
-12.047
0.678445
-6.13753
5.34414
-9.7684
5.27524
-11.3523
2.1791
3.70675
4.76652
5.14275
3.05895
0.0679494
6.23868
-16.3722
2.98244
3.71527
2.4645
-13.2084
3.69934
3.64887
3.1181
-13.8413
2.54333
-9.05255
-6.34521
6.44895
5.50251
-2.69286
-14.4252
-14.5708
-2.06008
4.40298
1.29249
-13.3053
-11.533
-10.4
-10.6379
3.78028
3.2289
2.77421
0.759404
5.3274
4.11254
4.5228
1.64674
4.13529
-14.6183
3.51024
-13.7169
4.65869
2.60213
-2.85055
2.66918
-16.4627
0.869623
1.49866
2.18759
2.3303
4.46695
1.47017
-5.37968
-0.0493244
2.79078
-3.41333
-12.9436
-10.6089
4.48333
-0.193732
-9.76354
-13.4114
-11.4402
-12.2203
-8.77893