/*--------------------------------*- C++ -*----------------------------------*\
  =========                 |
  \\      /  F ield         | OpenFOAM: The Open Source CFD Toolbox
   \\    /   O peration     | Website:  https://openfoam.org
    \\  /    A nd           | Version:  10
     \\/     M anipulation  |
\*---------------------------------------------------------------------------*/
FoamFile
{
    format      ascii;
    class       surfaceScalarField;
    location    "1150";
    object      phi;
}
// * * * * * * * * * * * * * * * * * * * * * * * * * * * * * * * * * * * * * //

dimensions      [0 3 -1 0 0 0 0];

internalField   nonuniform List<scalar> 
16133
(
1.87285
0.427496
-0.673528
-1.62697
-1.65762
1.52277
-1.87401
2.00883
-0.721187
-2.97746
2.27315
1.42551
0.0394659
-0.395444
-3.23833
3.59427
-1.29209
0.271249
5.52218
-4.50128
5.6173
1.6784
-7.17948
-0.116187
-3.08161
0.9397
1.84667
0.295249
-0.0624525
-2.59846
0.696521
1.96439
-1.39313
2.02537
1.47309
-2.10531
0.524051
4.18638
-0.0312708
-4.67912
2.81456
-2.41104
1.68597
-2.08951
3.76006
-1.48593
1.29479
-3.56893
-0.22248
-4.31432
2.54691
1.98986
0.84858
-0.742581
0.64065
-0.746653
0.926553
0.707452
-0.785435
-1.34587
0.953898
-3.05526
3.44724
-0.656177
0.564176
-0.650588
-5.9634
1.28945
4.40918
0.264694
-3.46485
2.80516
-0.733433
0.290434
2.14743
-0.565013
-0.585716
2.25189
-1.90851
0.242341
-0.222889
-3.08627
3.34859
-3.46634
3.56082
-1.44034
4.73385
-3.87014
-0.0934891
-0.77022
-4.29601
5.14085
-0.320752
-0.00240158
0.00287895
-0.0719851
0.0715072
0.03188
-0.00604307
-0.0204838
-0.00535367
-0.212558
-2.22279
2.02484
0.41051
-0.0308846
0.0551055
-0.029801
0.00557998
-4.72296
2.94597
2.83966
-0.888627
-4.61731
2.6663
-2.0543
1.8346
3.03427
0.782408
-2.32217
1.47731
-0.0399291
0.164135
-0.0059367
-0.118269
-2.37225
-2.28914
2.42706
2.23435
-0.839992
1.38336
1.01161
-1.55499
-1.97771
-3.57483
3.18031
-0.0434848
0.083139
-0.097319
0.0576648
0.0426689
0.0892741
-0.0230493
-0.108894
-3.42267
0.661635
-0.703813
-4.96763
0.213408
-3.06463
-0.738162
-0.876955
-0.323891
0.0992988
1.10154
-0.775649
2.79573
0.417282
-2.43739
3.72121
-1.58489
-4.11403
2.05596
-0.74477
0.581031
0.0686463
-0.424222
-0.33157
0.603756
0.152033
1.61842
1.0045
-0.597539
3.21436
-2.97969
-0.457583
-1.34903
-1.83514
-5.20697
5.47105
-3.79277
3.52873
0.121477
0.0414841
-0.120292
-0.0235221
0.0368425
0.0510305
-0.0643509
-0.0164078
0.0500247
0.0556572
-0.0271176
-0.0206752
0.0169083
3.22142
-1.75796
-5.03828
-0.05927
-0.0787776
0.118662
0.0193858
-0.528082
0.778669
-0.553328
0.302734
2.98825
0.0741828
0.0168324
0.0304613
1.44785
-1.28552
-1.81997
0.0816685
-0.0128968
0.007557
-0.0763289
2.44351
-4.35691
3.88355
-1.97014
1.69023
-1.43535
-3.65559
2.46093
-1.78278
-0.471957
-0.228095
0.171967
0.00736373
0.28226
-0.0396441
-0.24998
0.908757
2.03966
-3.34399
0.274847
-0.800998
0.0299358
0.00612576
-0.0595838
0.104217
-0.0285847
0.0106491
-0.0862814
-0.902236
0.418248
1.44984
-0.965851
1.83944
-3.04857
-2.44644
0.681156
-0.99921
1.2446
-0.73005
-0.94589
1.01596
0.659972
-3.83057
1.29001
-0.803445
-1.82493
1.14126
1.62338
-1.4951
1.34134
0.936161
1.18127
-1.0735
0.573374
3.55541
-3.37436
0.491591
-0.67268
1.70068
-1.48456
-0.536745
0.320624
0.0539696
0.118875
-0.13136
0.0456581
0.0600749
-0.0688906
3.94324
0.36124
-0.749095
-1.33846
1.12202
1.09255
-0.876111
1.48887
-1.27169
-1.18599
0.968803
2.77744
-2.36361
-1.18952
0.86164
-0.428715
0.515181
-0.948108
1.73549
-1.18922
0.942599
3.27693
0.761543
-1.26106
4.36421
-1.48278
1.92258
0.205588
1.07869
-1.02236
0.805311
2.04194
-1.12765
0.821185
-1.52563
-0.652827
0.826506
3.71932
-0.181671
0.560141
-0.759964
-0.79939
0.781556
-0.417572
0.414682
-3.61735
3.97093
-0.440285
0.0866782
1.03458
-0.903156
4.74149
-4.58969
1.18382
-1.33558
0.929019
-1.11718
0.795491
0.778461
4.98441
-1.02139
0.31894
2.13762
0.0753959
0.422451
-0.582462
-0.382609
5.12201
-0.796183
1.23022
-0.595113
0.546153
0.0357437
-2.68992
-0.32553
-4.24006
-1.64168
-1.32904
-0.568757
0.41323
-0.591013
0.492187
0.0134607
-2.80434
-2.73159
-0.529447
3.75249
0.747855
1.28992
-2.25225
-1.58489
2.64759
-3.67604
-0.268832
3.41539
1.97881
2.26975
-0.49608
0.537735
-0.180055
-1.08773
1.52646
-1.42578
-0.712408
0.421852
1.69387
-1.40333
-2.93432
3.28124
1.98018
-2.32705
-0.0505249
0.117788
0.00719827
-0.0744619
-0.397029
0.669144
1.06343
-1.19484
5.35053
-4.33142
-0.0601637
0.0499218
-0.0122217
0.0224638
1.25324
-1.29651
-2.57225
-2.41632
-2.30365
-0.941969
0.575918
-0.0154666
0.109568
0.0101158
-0.0568899
0.140953
0.0920043
-0.176067
-0.492863
0.596915
-1.6297
-0.251501
3.66407
-1.84667
-2.39374
0.0794212
-0.462245
0.215924
-3.22055
4.47534
-0.0727712
-0.152571
-0.246616
-0.757422
2.39679
-4.95636
3.317
3.51952
0.819985
-0.859706
0.796852
-0.757136
1.43896
-1.50998
1.24299
-4.00646
-0.823519
0.691468
-0.524131
3.05885
1.33125
-5.14754
-0.504465
0.139669
-0.0594272
-1.36769
-4.5043
1.84798
-1.5789
3.74391
1.71174
4.90171
2.24776
-0.163489
0.0390587
0.284703
-0.160273
3.73641
1.68527
-2.14038
0.803632
-1.80706
1.9871
2.21795
-2.39796
5.47687
1.32842
-2.53907
-4.26622
-0.852616
0.551294
-3.07251
3.42432
3.92073
-3.87362
-0.429742
-0.533423
1.18291
3.76639
3.56296
-2.04667
1.56032
-1.83581
-3.63349
-0.13225
3.49687
-2.8337
2.0886
-1.53078
2.27587
-4.12108
-5.19219
-0.318832
-3.17352
0.452219
-0.497261
-0.857194
0.00201553
0.00890854
-0.00860297
-0.00232137
-0.446149
0.506168
3.72722
-3.60161
1.20563
-1.38383
-2.29725
-1.69969
-0.661609
0.627686
-0.107648
0.141566
-2.41343
-0.197089
-0.0360305
0.11042
-0.0192839
-5.54081
-0.395672
-2.84662
1.45913
0.0984812
-0.0748235
-0.790276
-1.29788
2.34773
-2.87478
2.9395
3.7665
3.40778
3.20131
-2.41749
0.142497
0.0539722
-0.1425
-0.0675047
-0.00812548
0.816565
-1.77465
1.41285
-1.91646
2.02316
-2.41228
-0.50065
0.693089
-0.610954
-1.28753
0.0414455
1.81528
1.01634
0.159192
-0.0016862
-0.20099
-2.92023
2.48519
0.18306
-1.08868
1.32681
-2.35343
3.5727
-1.20582
-0.366468
0.0799941
0.052792
-0.0511179
3.64463
-0.236419
0.00816931
-0.276216
2.33563
1.54225
3.67326
0.0272814
0.00661397
-0.84316
0.787972
-0.6711
1.263
0.12823
-0.126508
-0.161301
0.159579
-0.0584342
0.0560326
0.493116
0.0847226
-0.0656442
-0.0551091
0.66539
-0.222154
0.184445
0.254145
-0.148458
-0.17846
0.807094
-0.043517
-1.20973
-0.0256286
-0.090927
0.155083
-0.0385278
1.9387
0.0568984
-0.0615397
0.00464133
-0.410106
-1.14896
3.52406
-4.61262
1.00978
0.713626
0.466089
-0.444699
-0.129041
-1.94311
-0.00153592
1.09405
-4.26993
-0.062171
0.0595363
0.0273105
-0.0246758
-0.402772
-4.03773
-0.0930949
-0.0181053
0.0855714
-3.15638
-0.606505
-2.59829
4.94578
-2.10415
-0.0275723
-0.136909
0.0735543
0.237756
-0.291489
0.181962
-0.0233925
-0.0396462
0.0359213
-1.73345
1.53832
-0.501395
1.7852
1.04036
-0.802399
0.00397264
-0.0132007
0.00922765
-1.06643
-2.13737
0.0187847
-0.0317659
0.0129816
1.15055
-3.89127
0.866414
1.07306
-0.498116
1.31027
0.0144406
0.00434405
0.409084
-0.162152
-0.199958
0.33794
0.193899
-0.741462
1.43571
-0.309395
-0.61098
3.65099
0.166248
-0.0608836
0.0371326
-0.672025
0.175674
-0.82618
1.10296
-1.93033
-0.449587
2.20998
-0.729699
3.66059
0.051728
0.00430421
0.501807
-3.76046
1.27731
-0.64911
-1.77939
1.26468
0.742458
0.303049
-2.0174
1.33811
-0.161054
-0.0303619
0.0649074
5.85524
-0.0779476
0.0473864
0.0718199
-0.0735483
-0.0956037
0.140397
-2.44379
0.112056
0.0783567
-0.100997
0.0245517
0.0294981
-0.0540499
-0.728008
-3.28101
4.01406
-0.39589
0.222221
0.231973
-1.83939
0.00588088
-0.00190847
-1.17273
-3.70372
0.23579
0.0461174
0.0797281
-0.0784591
-0.0598924
-0.165557
-0.0253175
-1.94955
-0.121368
-2.57012
-1.371
-0.0072142
0.12782
0.283345
-0.130127
-0.67777
-0.0299315
0.0325632
-0.0155289
0.0531987
0.154531
-0.153757
-0.289467
-1.9054
-3.14249
0.0484578
0.00327014
0.179129
-1.87444
0.0384234
1.07976
-0.0402939
0.0518567
0.0605014
0.0685606
-0.0829445
0.551001
0.153381
-0.0271625
0.0246038
-0.0350146
-0.00827264
0.00951259
-0.134173
0.22039
-0.0921537
0.0034777
0.0113116
0.050435
-0.00197731
0.00422984
-0.0128333
0.166529
0.0336044
0.00536288
-0.0116568
-0.164745
1.4635
-1.06764
0.945488
0.0136074
-0.0872786
-0.0188764
0.261934
-0.328102
-0.492918
0.765515
0.586157
-1.39425
-1.12844
-0.0233308
0.0347151
-0.0519769
0.0361013
-0.0663227
-0.00327852
0.0159838
0.00866144
-0.00143304
0.0518681
-0.0940831
-0.0582887
1.47518
-0.0116567
0.0437427
-1.82143
0.49208
-1.22792
-0.546006
-0.0856287
0.00413894
-0.0230153
-0.0503292
0.0172595
-0.0458012
0.057706
-0.0176524
0.508069
-0.693072
-0.83573
0.796446
-0.0794189
-1.38452
-0.329888
-0.0489888
-0.0284096
-1.36781
-0.960031
-0.0293091
-0.0378386
0.031521
0.125247
-0.424143
0.04169
0.0192861
-0.0539848
0.979704
-0.0185761
0.0231424
0.00911628
0.0256305
3.28458
0.164523
-0.194267
-0.727137
-0.187891
-0.770124
-0.00419364
0.120112
-0.115918
-0.00860778
0.125373
-0.120958
-0.0129636
0.136842
-0.132486
-0.017667
0.146495
-0.141791
-0.02254
0.156378
-0.151504
-0.0277467
0.165306
-0.160099
-0.0331504
0.174061
-0.168657
-0.0388116
0.182357
-0.176696
0.190376
-0.184762
-0.0444262
-0.00364332
0.123756
-0.00763563
0.129365
-0.011531
0.140737
-0.0157281
0.150692
-0.0200117
0.160661
-0.0245752
0.16987
-0.0293171
0.178803
-0.0342666
0.187307
0.195526
-0.0394166
-0.0033834
0.12714
-0.00676245
0.132745
-0.0101352
0.14411
-0.0137344
0.154291
-0.0174318
0.164359
-0.0213409
0.173779
-0.0254087
0.182871
-0.0296571
0.191555
0.19996
-0.0340905
-0.0030422
0.130182
-0.005873
0.135576
-0.0086999
0.146937
-0.0116864
0.157278
-0.0147803
0.167453
-0.0180478
0.177046
-0.0214608
0.186284
-0.0250494
0.195144
0.203761
-0.0288508
-0.0026209
0.132803
-0.00490786
0.137862
-0.00717409
0.149203
-0.0095576
0.159661
-0.0120416
0.169937
-0.0146771
0.179682
-0.0174628
0.189069
-0.0204302
0.198111
0.206938
-0.0236067
-0.00207348
0.134876
-0.00382117
0.13961
-0.00553674
0.150919
-0.00733173
0.161456
-0.0092141
0.171819
-0.0112286
0.181696
-0.013377
0.191218
-0.0156918
0.200426
0.209455
-0.0182095
-0.0012695
0.136146
-0.00254756
0.140888
-0.00376136
0.152133
-0.00501568
0.16271
-0.00631591
0.173119
-0.00771171
0.183092
-0.00922871
0.192735
-0.0108902
0.202088
0.211299
-0.0127342
-0.000214117
0.13636
-0.00114247
0.141817
-0.00191049
0.152901
-0.00264802
0.163448
-0.00338697
0.173858
-0.0041886
0.183894
-0.00507979
0.193626
-0.0060953
0.203103
0.212418
-0.00721361
0.000729602
0.13563
0.000167558
0.142379
-0.000124963
0.153193
-0.000343189
0.163666
-0.000526228
0.174041
-0.000737856
0.184105
-0.00102516
0.193913
-0.00140671
0.203485
0.212925
-0.00191403
0.00122242
0.134408
0.00116166
0.142439
0.00144978
0.152905
0.00180046
0.163315
0.00218388
0.173657
0.00252507
0.183764
0.0027966
0.193642
0.00296589
0.203315
0.212851
0.00303942
0.00131565
0.133092
0.00187854
0.141876
0.00281348
0.15197
0.00374012
0.162388
0.00466019
0.172737
0.00550765
0.182916
0.00627048
0.192879
0.00691318
0.202672
0.212349
0.00741597
0.0013359
0.131756
0.00257907
0.140633
0.00407853
0.15047
0.00550174
0.160965
0.00686023
0.171379
0.00814025
0.181636
0.0093143
0.191705
0.0103851
0.201601
0.211481
0.0112529
0.00173575
0.13002
0.00353138
0.138837
0.00536117
0.14864
0.00709534
0.159231
0.00875493
0.169719
0.0103241
0.180067
0.0117955
0.190233
0.0131503
0.200247
0.210223
0.0144083
0.00245098
0.12757
0.00459676
0.136691
0.00658039
0.146656
0.00847046
0.157341
0.010284
0.167905
0.0120024
0.178349
0.0136206
0.188615
0.0151162
0.198751
0.208836
0.0165032
0.0031232
0.124447
0.00552103
0.134293
0.00758074
0.144597
0.00952148
0.1554
0.0113817
0.166045
0.0131584
0.176572
0.0148312
0.186942
0.0163731
0.197209
0.207405
0.0178033
0.00346272
0.120984
0.00607255
0.131684
0.00818144
0.142488
0.0101481
0.153433
0.0120249
0.164168
0.0138119
0.174785
0.0154897
0.185264
0.0170373
0.195661
0.205973
0.0184696
0.00320106
0.117783
0.00603094
0.128854
0.00825781
0.140261
0.0103055
0.151385
0.0122308
0.162243
0.0140451
0.17297
0.0157243
0.183585
0.0172689
0.194117
0.204611
0.0186311
0.00254581
0.115238
0.00546156
0.125938
0.00787611
0.137846
0.01007
0.149191
0.0120945
0.160218
0.0139693
0.171095
0.0156872
0.181867
0.017241
0.192563
0.203241
0.0186106
0.00198247
0.113255
0.0047865
0.123134
0.00731103
0.135321
0.00964426
0.146858
0.0117937
0.158069
0.0137732
0.169116
0.0155785
0.180062
0.017216
0.190926
0.201758
0.0186984
0.00165967
0.111596
0.00427751
0.120516
0.00681459
0.132784
0.00924223
0.14443
0.0115075
0.155804
0.0136072
0.167016
0.0155313
0.178137
0.0172723
0.189184
0.20021
0.0188211
0.00150559
0.11009
0.00399543
0.118026
0.00651568
0.130264
0.00900645
0.14194
0.011384
0.153426
0.0136236
0.164776
0.0157057
0.176055
0.0175963
0.187294
0.198565
0.0192405
0.00153992
0.10855
0.00397427
0.115592
0.00648363
0.127755
0.00902109
0.139402
0.0115135
0.150934
0.0139194
0.162371
0.0162056
0.173769
0.0183083
0.185191
0.196663
0.0202102
0.00186626
0.106684
0.00424362
0.113214
0.00673476
0.125264
0.0093098
0.136827
0.011929
0.148314
0.0145386
0.159761
0.0171059
0.171202
0.0194919
0.182805
0.194623
0.0215321
0.00248377
0.1042
0.00476672
0.110932
0.00722196
0.122808
0.00985444
0.134195
0.0126235
0.145545
0.0154588
0.156926
0.0183783
0.168282
0.0211142
0.180069
0.192813
0.0229244
0.00320297
0.00524079
0.0077572
0.0105914
0.0136366
0.0168054
0.0203425
0.0243441
0.0292652
-0.0925914
-0.001283
0.0938744
-0.0911386
-0.00145278
-0.0894985
-0.00164007
-0.0876512
-0.00184732
-0.0855838
-0.00206744
-0.0832842
-0.00229963
-0.0807442
-0.00253999
-0.0779615
-0.00278271
-0.0749297
-0.00303174
-0.0716514
-0.00327835
-0.068129
-0.00352233
-0.0643703
-0.00375869
-0.0603865
-0.00398372
-0.0561882
-0.00419834
-0.0517922
-0.00439583
-0.0472141
-0.00457811
-0.0424756
-0.00473839
-0.0375996
-0.00487599
-0.0326161
-0.00498339
-0.0275621
-0.00505397
-0.0224869
-0.00507512
-0.0174595
-0.00502734
-0.0125604
-0.0048991
-0.00785422
-0.00470609
-0.00328686
-0.00456727
0.00128514
-0.00457195
0.00599748
-0.00471225
0.0110054
-0.00500792
0.0163364
-0.00533086
0.0218626
-0.00552609
0.0274727
-0.00560999
0.0330927
-0.00561991
0.0386701
-0.00557738
0.0441553
-0.00548507
0.0495015
-0.00534607
0.0546681
-0.00516653
0.0596174
-0.00494924
0.064315
-0.00469757
0.068736
-0.00442091
0.0728611
-0.00412505
0.0766839
-0.00382271
0.080209
-0.00352512
0.08345
-0.00324085
0.0864324
-0.00298247
0.0891936
-0.00276103
0.091791
-0.00259744
0.0942711
-0.00247994
0.0966667
-0.00239556
0.0989838
-0.00231695
0.101217
-0.00223285
0.10336
-0.00214344
0.105399
-0.00203881
0.107322
-0.00192263
0.109111
-0.00178931
0.110757
-0.00164526
0.112255
-0.00149831
0.113608
-0.00135337
0.114829
-0.00122073
-0.0010888
-0.090804
-0.00271757
0.0922386
-0.0892502
-0.00300659
-0.087569
-0.00332129
-0.0857501
-0.00366623
-0.0837881
-0.00402948
-0.0816698
-0.0044179
-0.0793892
-0.00482063
-0.0769313
-0.00524057
-0.0742869
-0.00567624
-0.0714448
-0.00612041
-0.0683955
-0.00657166
-0.0651319
-0.00702228
-0.0616462
-0.00746949
-0.0579405
-0.00790405
-0.0540145
-0.00832184
-0.0498728
-0.00871985
-0.0455237
-0.00908754
-0.0409792
-0.00942052
-0.0362504
-0.00971214
-0.0313516
-0.00995271
-0.0262915
-0.0101353
-0.0210614
-0.0102574
-0.0156314
-0.010329
-0.00995508
-0.0103824
-0.00406096
-0.0104614
0.00195164
-0.0105845
0.00799295
-0.0107535
0.0139504
-0.0109653
0.0198102
-0.0111906
0.0256342
-0.01135
0.0314376
-0.0114134
0.0371998
-0.011382
0.0428837
-0.0112612
0.0484571
-0.0110584
0.0538853
-0.0107742
0.0591395
-0.0104207
0.0641941
-0.0100038
0.0690347
-0.00953817
0.0736477
-0.00903382
0.0780286
-0.00850599
0.0821757
-0.00796972
0.0860877
-0.00743715
0.0897742
-0.00692734
0.0932401
-0.00644838
0.096487
-0.00600797
0.0995038
-0.00561421
0.102282
-0.00525794
0.104815
-0.00492845
0.107112
-0.00461433
0.109182
-0.0043025
0.111043
-0.00400491
0.11272
-0.00371587
0.114233
-0.003436
0.115609
-0.00316502
0.116863
-0.00289877
0.118015
-0.00265078
0.119074
-0.00241255
0.120051
-0.00219711
-0.00199658
-0.0986671
-0.00431588
0.100265
-0.0969428
-0.00473082
-0.0950857
-0.00517847
-0.0930937
-0.00565817
-0.0909513
-0.00617195
-0.0886494
-0.00671979
-0.0861738
-0.00729619
-0.0835147
-0.00789966
-0.0806599
-0.00853104
-0.0775991
-0.00918123
-0.0743233
-0.0098475
-0.0708256
-0.01052
-0.0671008
-0.0111943
-0.0631437
-0.0118612
-0.0589513
-0.0125143
-0.0545282
-0.013143
-0.0498723
-0.0137434
-0.0449902
-0.0143027
-0.0398862
-0.0148162
-0.0345637
-0.0152752
-0.0290222
-0.0156768
-0.0232612
-0.0160184
-0.0172824
-0.0163079
-0.0111046
-0.0165602
-0.00477246
-0.0167936
0.00166669
-0.0170237
0.00816455
-0.0172514
0.0146668
-0.0174676
0.0211212
-0.0176451
0.0275178
-0.0177466
0.0338517
-0.0177474
0.0401062
-0.0176365
0.0462575
-0.0174126
0.0522761
-0.017077
0.0581392
-0.0166373
0.0638221
-0.0161036
0.069304
-0.0154858
0.0745698
-0.014804
0.0796089
-0.0140729
0.08441
-0.0133071
0.0889704
-0.0125301
0.0932876
-0.0117544
0.097359
-0.0109987
0.101179
-0.0102689
0.104751
-0.00957987
0.108065
-0.00892742
0.111121
-0.00831424
0.113926
-0.0077337
0.116495
-0.00718339
0.118844
-0.00665155
0.12098
-0.00614029
0.122916
-0.00565271
0.124678
-0.00519786
0.126282
-0.00476862
0.127748
-0.00436481
0.129089
-0.0039914
0.130322
-0.00364604
0.131451
-0.00332602
-0.00303132
-0.105224
-0.00595296
0.106861
-0.103457
-0.00649777
-0.101546
-0.00708958
-0.0994816
-0.00772272
-0.0972555
-0.00839799
-0.0948572
-0.00911813
-0.0922764
-0.00987697
-0.0894985
-0.0106776
-0.0865179
-0.0115117
-0.0833239
-0.0123752
-0.0799084
-0.013263
-0.0762571
-0.0141713
-0.0723658
-0.0150856
-0.068223
-0.016004
-0.0638274
-0.0169099
-0.0591705
-0.0178
-0.0542534
-0.0186605
-0.049076
-0.0194801
-0.0436401
-0.0202521
-0.0379487
-0.0209666
-0.0320058
-0.0216197
-0.0258174
-0.0222068
-0.0193954
-0.0227299
-0.0127647
-0.023191
-0.005961
-0.0235972
0.00096841
-0.0239531
0.0079695
-0.0242525
0.0149896
-0.0244878
0.0219857
-0.0246412
0.0289301
-0.0246911
0.035802
-0.0246193
0.0425812
-0.0244157
0.0492437
-0.0240751
0.0557673
-0.0236006
0.0621249
-0.022995
0.068297
-0.0222757
0.0742645
-0.0214533
0.0800029
-0.0205424
0.0854974
-0.0195674
0.0907384
-0.0185481
0.0957137
-0.0175054
0.100414
-0.0164549
0.104831
-0.0154159
0.10896
-0.0143979
0.112792
-0.0134116
0.116333
-0.0124681
0.11958
-0.011562
0.12255
-0.0107038
0.125251
-0.00988366
0.127709
-0.00910946
0.12994
-0.00837161
0.131963
-0.00767588
0.133792
-0.00702678
0.135454
-0.00643034
0.136966
-0.00587698
0.138344
-0.00536968
0.1396
-0.00490131
0.140743
-0.00446949
-0.00407966
-0.114417
-0.00773573
0.1162
-0.11248
-0.00843544
-0.110384
-0.00918561
-0.108119
-0.0099874
-0.105676
-0.0108414
-0.103045
-0.0117483
-0.100215
-0.0127079
-0.0971783
-0.0137138
-0.0939246
-0.0147654
-0.0904434
-0.0158564
-0.0867254
-0.016981
-0.0827622
-0.0181345
-0.0785448
-0.019303
-0.0740686
-0.0204802
-0.0693235
-0.021655
-0.0643079
-0.0228156
-0.0590194
-0.0239491
-0.053455
-0.0250445
-0.0476197
-0.0260874
-0.0415143
-0.027072
-0.0351496
-0.0279845
-0.0285358
-0.0288207
-0.021691
-0.0295747
-0.0146393
-0.0302427
-0.0074155
-0.0308211
-6.16815e-05
-0.0313069
0.00737836
-0.0316926
0.0148604
-0.0319698
0.0223432
-0.032124
0.0297918
-0.0321396
0.0371758
-0.0320033
0.0444658
-0.0317058
0.0516329
-0.0312422
0.0586519
-0.0306197
0.0654987
-0.0298418
0.0721431
-0.0289201
0.0785629
-0.0278731
0.0847385
-0.0267181
0.0906499
-0.0254788
0.0962839
-0.0241822
0.101622
-0.0228438
0.106661
-0.0214933
0.111388
-0.0201431
0.115803
-0.0188131
0.119907
-0.0175154
0.123698
-0.0162597
0.127191
-0.0150545
0.130392
-0.0139046
0.133317
-0.0128092
0.135984
-0.0117767
0.138419
-0.0108065
0.140642
-0.00989833
0.14267
-0.00905543
0.144512
-0.00827187
0.146187
-0.00755212
0.14771
-0.00689208
0.149095
-0.00628673
0.150358
-0.00573255
-0.00522608
-0.123105
-0.00960152
0.124971
-0.121078
-0.0104618
-0.118885
-0.0113788
-0.116511
-0.0123616
-0.113942
-0.0134106
-0.111172
-0.0145181
-0.108188
-0.0156918
-0.104978
-0.0169236
-0.101531
-0.018213
-0.0978378
-0.0195494
-0.0938874
-0.0209314
-0.0896717
-0.0223503
-0.0851791
-0.0237956
-0.0804021
-0.0252572
-0.0753364
-0.0267207
-0.0699774
-0.0281746
-0.0643226
-0.0296039
-0.0583777
-0.0309894
-0.0521426
-0.0323225
-0.0456257
-0.0335888
-0.0388342
-0.034776
-0.031785
-0.0358699
-0.0244966
-0.036863
-0.0169965
-0.0377429
-0.00931905
-0.0384985
-0.00150403
-0.0391219
0.00640658
-0.0396032
0.0143721
-0.0399354
0.0223524
-0.0401044
0.0303097
-0.0400969
0.0382102
-0.0399039
0.0460179
-0.0395135
0.0537016
-0.0389259
0.0612329
-0.038151
0.0685792
-0.0371881
0.0757159
-0.0360568
0.0826157
-0.0347729
0.0892456
-0.033348
0.0955884
-0.0318216
0.101623
-0.0302169
0.107339
-0.0285594
0.112719
-0.026874
0.117763
-0.0251865
0.122462
-0.0235125
0.126822
-0.0218751
0.130846
-0.020284
0.134544
-0.0187521
0.137929
-0.0172893
0.141021
-0.0159014
0.143838
-0.0145944
0.146406
-0.0133741
0.148741
-0.0122338
0.150864
-0.0111782
0.152794
-0.0102014
0.154549
-0.00930704
0.15614
-0.00848367
0.157586
-0.00773246
0.158904
-0.00705015
-0.0064214
-0.133083
-0.0115949
0.135077
-0.130915
-0.0126302
-0.128561
-0.0137329
-0.12601
-0.0149121
-0.123253
-0.0161685
-0.120272
-0.0174985
-0.117059
-0.0189046
-0.1136
-0.0203826
-0.10989
-0.0219234
-0.105912
-0.0235273
-0.101661
-0.0251824
-0.097128
-0.0268834
-0.0923012
-0.0286223
-0.0871746
-0.0303838
-0.0817433
-0.032152
-0.0760053
-0.0339126
-0.0699553
-0.0356539
-0.063607
-0.0373377
-0.0569593
-0.0389703
-0.0500233
-0.0405248
-0.0428042
-0.041995
-0.0353215
-0.0433527
-0.0275955
-0.044589
-0.0196486
-0.0456899
-0.0115227
-0.0466243
-0.00325375
-0.0473909
0.00511422
-0.0479712
0.0135468
-0.048368
0.0220056
-0.0485631
0.0304499
-0.0485412
0.0388472
-0.0483013
0.0471509
-0.0478172
0.0553278
-0.0471028
0.063349
-0.0461722
0.071175
-0.0450141
0.0787844
-0.0436661
0.0861461
-0.0421346
0.0932104
-0.0404123
0.0999674
-0.0385786
0.106394
-0.0366432
0.112479
-0.0346452
0.118207
-0.0326018
0.123574
-0.030553
0.128573
-0.0285118
0.133214
-0.0265157
0.137499
-0.0245694
0.14144
-0.0226936
0.145048
-0.0208972
0.148345
-0.0191977
0.15135
-0.0176001
0.154082
-0.0161059
0.156571
-0.014723
0.158832
-0.0134387
0.160887
-0.0122568
0.162754
-0.0111733
0.16445
-0.0101796
0.16599
-0.00927316
0.167388
-0.00844817
-0.00768987
-0.143188
-0.013703
0.145296
-0.140904
-0.0149144
-0.138428
-0.0162086
-0.135738
-0.0176027
-0.132826
-0.0190804
-0.12967
-0.0206541
-0.12627
-0.0223053
-0.122597
-0.0240549
-0.118638
-0.0258829
-0.114406
-0.0277587
-0.109879
-0.0297104
-0.105045
-0.0317168
-0.0998997
-0.0337677
-0.094431
-0.0358525
-0.0886382
-0.0379448
-0.0825124
-0.0400385
-0.0760504
-0.0421159
-0.0692894
-0.0440987
-0.0622262
-0.0460335
-0.0548652
-0.0478858
-0.0472055
-0.0496548
-0.0392784
-0.0512798
-0.0311073
-0.0527601
-0.0226847
-0.0541124
-0.0140926
-0.0552164
-0.00535186
-0.0561317
0.00347639
-0.0567995
0.0123831
-0.0572748
0.021324
-0.0575039
0.0302535
-0.0574708
0.0391543
-0.057202
0.0479483
-0.0566112
0.0566072
-0.0557617
0.0651295
-0.0546945
0.0734265
-0.0533112
0.0815128
-0.0517524
0.089373
-0.0499949
0.0968751
-0.0479144
0.104051
-0.0457548
0.110882
-0.0434742
0.11735
-0.0411131
0.123449
-0.0387005
0.129146
-0.0362499
0.134452
-0.0338181
0.139399
-0.0314621
0.143947
-0.0291178
0.148143
-0.0268895
0.15198
-0.0247345
0.155461
-0.0226788
0.158623
-0.0207622
0.161494
-0.0189769
0.164101
-0.0173294
0.166464
-0.0158023
0.168607
-0.0143996
0.17055
-0.0131168
0.172315
-0.0119446
0.173914
-0.0108713
0.17537
-0.00990449
-0.00901597
-0.154349
0.156559
-0.0159124
-0.151929
-0.0173348
-0.149299
-0.0188388
-0.146425
-0.0204761
-0.143309
-0.0221969
-0.139913
-0.0240498
-0.136232
-0.0259864
-0.132298
-0.0279886
-0.128079
-0.0301024
-0.123482
-0.032356
-0.118617
-0.0345753
-0.11343
-0.0369037
-0.107872
-0.0393254
-0.102032
-0.041693
-0.0958155
-0.0441607
-0.0893356
-0.0465184
-0.0825211
-0.0489305
-0.0753414
-0.0512783
-0.0677884
-0.0535865
-0.0599706
-0.0557035
-0.0518493
-0.0577761
-0.0435171
-0.059612
-0.0349302
-0.061347
-0.0260284
-0.0630142
-0.0169644
-0.0642804
-0.00776639
-0.0653297
0.00148728
-0.0660531
0.0108735
-0.066661
0.0203292
-0.0669597
0.0297007
-0.0668423
0.0390994
-0.0666007
0.0483898
-0.0659016
0.0574846
-0.0648565
0.0665118
-0.0637217
0.0753214
-0.0621209
0.0838919
-0.0603228
0.0921091
-0.0582121
0.0999549
-0.0557602
0.107606
-0.0534054
0.11484
-0.0507088
0.121698
-0.0479713
0.128212
-0.0452139
0.134291
-0.0423292
0.139966
-0.0394931
0.145239
-0.036735
0.150087
-0.0339661
0.154531
-0.0313333
0.15857
-0.0287736
0.162325
-0.0264338
0.165732
-0.0241695
0.168803
-0.0220479
0.171572
-0.0200982
0.174062
-0.018292
0.17634
-0.0166781
0.178402
-0.0151786
0.18026
-0.0138027
0.181939
-0.0125502
0.183394
-0.0113597
-0.0103832
-0.0646502
0.0106001
-0.0740711
0.00942084
-0.0823124
0.0082413
-0.0893052
0.0069928
-0.0954207
0.0061156
-0.101104
0.00568288
-0.106513
0.00540952
-0.111693
0.00518013
-0.116648
0.00495514
-0.121019
0.00437089
-0.124215
0.00319626
-0.125953
0.00173762
-0.126326
0.000373183
-0.125739
-0.000587105
-0.124768
-0.000970642
-0.123683
-0.00108537
-0.122313
-0.00136939
-0.12032
-0.00199296
-0.117635
-0.00268513
-0.114455
-0.00317954
-0.110941
-0.00351446
-0.107147
-0.00379433
-0.103074
-0.00407296
-0.0987436
-0.00433001
-0.00486917
-0.0685337
0.01955
-0.0772782
0.0181652
-0.085485
0.016448
-0.0932111
0.0147188
-0.100428
0.0133324
-0.107062
0.0123166
-0.113116
0.011464
-0.11855
0.0106138
-0.12318
0.00958531
-0.126873
0.0080635
-0.12968
0.00600302
-0.131634
0.00369185
-0.132711
0.00145066
-0.132859
-0.00043939
-0.132042
-0.00178767
-0.130382
-0.00274498
-0.128103
-0.00364838
-0.12541
-0.00468672
-0.12234
-0.00575516
-0.118797
-0.00672166
-0.114731
-0.00758128
-0.110111
-0.00841442
-0.104892
-0.0092913
-0.0989331
-0.0102891
-0.0115637
-0.0743841
0.0295831
-0.0839222
0.0277033
-0.092959
0.0254847
-0.101483
0.023243
-0.109351
0.0212001
-0.116431
0.0193963
-0.122663
0.0176965
-0.127994
0.0159446
-0.132368
0.0139598
-0.135866
0.0115607
-0.138611
0.00874884
-0.140654
0.00573473
-0.141993
0.00278894
-0.142562
0.000130184
-0.142244
-0.00210578
-0.140995
-0.00399371
-0.138925
-0.00571875
-0.136193
-0.0074185
-0.132876
-0.00907245
-0.128961
-0.0106366
-0.12443
-0.0121127
-0.119279
-0.0135652
-0.11352
-0.0150499
-0.107167
-0.0166425
-0.0184652
-0.0800051
0.0406976
-0.0904128
0.0381109
-0.100207
0.0352789
-0.109364
0.0324002
-0.117771
0.0296067
-0.125306
0.0269308
-0.131892
0.0242831
-0.137495
0.021547
-0.142117
0.0185827
-0.145847
0.0152907
-0.148794
0.0116953
-0.151007
0.00794799
-0.152468
0.00424962
-0.153121
0.000783014
-0.152869
-0.00235802
-0.151677
-0.00518481
-0.149594
-0.0078022
-0.146719
-0.0102936
-0.143108
-0.0126834
-0.138786
-0.0149589
-0.133744
-0.0171547
-0.127993
-0.0193162
-0.121546
-0.0214969
-0.114446
-0.0237421
-0.0260501
-0.0856046
0.0527539
-0.0969312
0.0494374
-0.107521
0.0458691
-0.117347
0.0422258
-0.126316
0.0385759
-0.134344
0.0349582
-0.141367
0.0313066
-0.147368
0.0275474
-0.152368
0.0235833
-0.156438
0.0193601
-0.159659
0.014916
-0.162072
0.0103619
-0.163659
0.00583574
-0.16437
0.00149471
-0.164156
-0.00257196
-0.162977
-0.00636414
-0.160856
-0.00992297
-0.157862
-0.0132876
-0.154048
-0.0164973
-0.149451
-0.0195567
-0.1441
-0.0225057
-0.138034
-0.0253814
-0.131313
-0.0282187
-0.124015
-0.0310394
-0.0338654
-0.0912769
0.0655717
-0.103489
0.0616497
-0.114874
0.0572539
-0.125395
0.0527472
-0.134974
0.0481543
-0.143555
0.0435395
-0.151081
0.0388321
-0.157549
0.0340154
-0.162987
0.0290211
-0.16744
0.0238131
-0.170975
0.0184517
-0.173614
0.0130007
-0.175344
0.00756604
-0.176133
0.00228356
-0.17593
-0.00277553
-0.174726
-0.00756742
-0.172544
-0.0121054
-0.169414
-0.0164172
-0.165396
-0.0205159
-0.160523
-0.0244288
-0.154845
-0.0281838
-0.1484
-0.0318269
-0.141232
-0.0353867
-0.133392
-0.0388792
-0.0422871
-0.0968715
0.0794987
-0.110084
0.074862
-0.122304
0.0694741
-0.133565
0.064008
-0.143804
0.0583934
-0.152994
0.0527297
-0.161062
0.0469
-0.168033
0.0409868
-0.173926
0.0349139
-0.178779
0.0286662
-0.182647
0.0223197
-0.185547
0.0159009
-0.18745
0.00946885
-0.188328
0.00316109
-0.188168
-0.00293506
-0.186958
-0.00877804
-0.184712
-0.0143509
-0.181471
-0.0196583
-0.177278
-0.0247095
-0.172193
-0.0295138
-0.166259
-0.034117
-0.159537
-0.0385492
-0.152057
-0.0428671
-0.14388
-0.0470563
-0.05109
-0.102568
0.0947881
-0.116824
0.0891181
-0.129862
0.0825122
-0.141889
0.0760353
-0.152826
0.06933
-0.16267
0.0625735
-0.171307
0.0555378
-0.178793
0.0484726
-0.185168
0.041289
-0.190427
0.033925
-0.194628
0.0265209
-0.197815
0.0190877
-0.199907
0.0115603
-0.200901
0.0041559
-0.200795
-0.00304106
-0.19958
-0.00999324
-0.197283
-0.0166486
-0.193933
-0.023008
-0.189577
-0.0290654
-0.18428
-0.0348107
-0.178094
-0.0403028
-0.171091
-0.0455522
-0.163266
-0.0506924
-0.154654
-0.0556685
-0.0604477
-0.108747
0.111382
-0.123809
0.10418
-0.137546
0.0962484
-0.150356
0.0888452
-0.162031
0.0810051
-0.1726
0.0731425
-0.181817
0.0647554
-0.189826
0.0564818
-0.196696
0.0481581
-0.202393
0.0396228
-0.206907
0.031034
-0.210368
0.0225497
-0.212691
0.013883
-0.2138
0.00526415
-0.213752
-0.00308828
-0.212546
-0.0111994
-0.210192
-0.0190029
-0.206759
-0.0264405
-0.202233
-0.0335923
-0.196668
-0.040375
-0.190214
-0.0467573
-0.182904
-0.0528615
-0.174728
-0.0588693
-0.165958
-0.0644383
-0.0698466
1.40099
2.16006
0.201549
-2.36161
0.551023
0.206099
-0.757137
0.273459
-0.371751
0.0982923
0.338011
-0.405312
0.0673012
-0.49806
-0.507962
1.00602
-0.45445
0.755332
-0.300881
2.39061
-2.66018
0.269568
-0.0372174
-0.199924
0.237141
5.08481
-3.4544
-1.63041
-0.866849
1.8437
-0.976848
-0.8024
0.264667
0.537735
1.19851
-1.93358
0.735067
-1.22883
0.304913
0.923919
0.113637
-0.115304
0.00166758
4.73598
-4.57019
-0.165784
-0.265101
0.816149
0.134517
-0.0266467
-0.10787
-0.085319
-0.0992669
0.359227
0.215791
-0.575018
-0.341073
0.222552
0.118521
2.97019
1.99271
-4.9629
-0.542164
0.842431
-0.300268
1.2775
-1.02304
-0.25446
-0.958291
0.343366
0.614925
1.11548
0.162013
-1.17609
0.781699
0.394389
-0.889135
0.141523
0.747613
4.9638
-2.73136
-2.23243
-0.0284388
-0.144653
0.173092
0.176616
0.503099
-0.679715
-0.791111
0.0114671
0.779624
0.820867
0.690443
-1.51131
2.87103
-5.14715
2.27612
-0.288845
-0.0741781
0.363023
0.0910861
1.48244
-1.57353
-0.897208
-0.331624
-2.77265
1.3474
1.42525
-0.332727
0.636365
-0.303638
2.04776
-1.75691