/*--------------------------------*- C++ -*----------------------------------*\
  =========                 |
  \\      /  F ield         | OpenFOAM: The Open Source CFD Toolbox
   \\    /   O peration     | Website:  https://openfoam.org
    \\  /    A nd           | Version:  10
     \\/     M anipulation  |
\*---------------------------------------------------------------------------*/
FoamFile
{
    format      ascii;
    class       volVectorField;
    location    "1150";
    object      U;
}
// * * * * * * * * * * * * * * * * * * * * * * * * * * * * * * * * * * * * * //

dimensions      [0 1 -1 0 0 0 0];

internalField   nonuniform List<vector> 
10435
(
(1.6689 0.502811 1.30329e-22)
(2.00283 1.22797 -5.84651e-21)
(3.98942 -0.325588 -2.66709e-20)
(2.60058 0.319407 4.40725e-20)
(3.82639 0.529 -2.95078e-20)
(4.17148 -0.236235 2.25021e-19)
(3.89781 -0.29472 -9.47324e-20)
(3.3966 -0.286833 5.19826e-20)
(2.90628 -0.286479 1.61815e-19)
(4.17928 -0.414619 -6.54463e-20)
(2.57124 1.21317 -3.69848e-20)
(3.35482 -0.110238 1.24479e-19)
(4.07313 -0.396686 7.28265e-20)
(0.844258 0.631136 -3.33654e-21)
(0.931796 0.669094 -4.16844e-21)
(3.68233 -0.309681 -7.15916e-21)
(0.762735 0.574219 1.15272e-21)
(4.02002 -0.457602 2.52486e-19)
(2.67548 -0.277561 -5.94881e-20)
(1.82547 0.434598 -4.7335e-21)
(3.55689 -0.294727 3.93252e-20)
(2.51053 0.107811 -6.70892e-20)
(3.82599 -0.323146 2.84883e-19)
(2.86836 -0.296106 -6.72277e-20)
(4.17369 -0.387167 7.52639e-20)
(0.237628 0.39421 1.25532e-23)
(0.0426054 0.133268 2.69623e-22)
(4.06613 -0.347037 5.97866e-20)
(0.211034 -0.00920165 -9.50679e-23)
(4.09726 -0.447849 3.2387e-19)
(3.98545 -0.3001 1.17413e-19)
(2.86236 1.16139 -5.59591e-21)
(3.27051 -0.287913 -1.07253e-19)
(0.456005 0.0209853 -9.16747e-23)
(3.28885 -0.29438 6.24543e-20)
(1.3462 1.10986 -2.40828e-21)
(3.46177 -0.300245 9.30365e-20)
(0.150014 0.315897 -1.86013e-21)
(0.370447 0.369273 -1.01903e-22)
(2.75284 -0.266179 1.85538e-20)
(4.05944 -0.462095 -3.58574e-19)
(3.91214 -0.315143 -7.81707e-20)
(0.56986 0.655959 -3.36334e-21)
(2.17941 0.481257 -5.23314e-20)
(3.67628 -0.30173 -2.01817e-19)
(2.82178 -0.274762 1.13092e-19)
(4.14176 -0.361671 -2.65668e-19)
(0.421639 0.533874 -9.19985e-21)
(2.85915 -0.311104 4.89554e-20)
(2.41407 -0.0766991 -2.26102e-20)
(3.42419 -0.294065 -8.18227e-21)
(4.20378 -0.195031 9.86594e-19)
(0.410472 0.389015 -9.23893e-23)
(0.299233 -0.111274 -2.64088e-23)
(0.329913 0.376592 -2.64291e-23)
(0.160393 -0.0480585 2.40827e-22)
(3.28748 -0.291167 -2.70709e-19)
(0.154529 0.249918 -4.02015e-22)
(0.656527 0.338533 -1.00206e-22)
(3.09079 -0.278234 1.67941e-19)
(0.369282 0.400151 1.4036e-22)
(1.74729 1.19937 -5.13247e-21)
(0.167927 0.154807 7.86591e-22)
(4.11474 -0.0537413 -8.19811e-20)
(3.77212 -0.321949 -3.88581e-19)
(4.05874 -0.359517 2.11154e-19)
(0.597974 0.220498 6.68082e-22)
(0.327294 0.314764 -1.64737e-21)
(3.52542 -0.286587 -7.07527e-20)
(2.84295 -0.306622 4.93628e-21)
(0.250844 -0.139725 -1.17665e-24)
(0.18172 0.381134 -2.3973e-23)
(0.659616 0.730608 2.06136e-20)
(4.01173 -0.344508 -2.66088e-19)
(1.02459 0.693324 -1.8547e-21)
(0.697758 0.786352 2.15437e-21)
(2.82493 -0.318031 2.71024e-19)
(3.83568 -0.27809 2.29577e-19)
(3.16346 -0.292709 1.48435e-20)
(1.11287 0.593109 9.22503e-21)
(2.6331 -0.228131 2.74211e-20)
(1.5747 0.427774 4.5436e-22)
(0.449162 0.408563 3.27249e-22)
(0.340289 -0.0888135 5.1527e-24)
(2.71623 -0.276911 -5.5501e-20)
(1.24717 0.954237 2.85735e-20)
(1.43435 0.827523 3.11526e-21)
(2.20119 0.714727 1.0597e-20)
(1.06959 0.834939 -1.03197e-21)
(1.59546 0.815815 -2.24526e-21)
(2.43699 0.661648 -7.44129e-21)
(2.71434 0.586568 -1.09487e-20)
(1.70812 0.352102 1.89242e-21)
(1.1716 0.839892 9.05904e-21)
(1.77781 0.792987 3.73523e-21)
(1.20032 1.06469 1.18117e-20)
(2.93078 0.454823 1.3923e-19)
(0.957505 0.771878 2.86044e-21)
(0.744306 0.434731 -1.37911e-21)
(3.29847 0.441629 -1.49737e-19)
(1.00977 0.802905 6.20938e-21)
(3.94179 0.536444 -1.14289e-19)
(1.29153 0.835571 -6.20274e-21)
(1.98044 0.758171 -1.3633e-21)
(4.05507 0.33002 -7.69545e-21)
(2.38647 0.40859 -5.77857e-22)
(1.84911 0.265588 9.65258e-22)
(2.53526 -0.164726 3.0057e-20)
(2.78566 -0.297158 -7.72058e-20)
(1.21569 0.577543 -2.48002e-21)
(2.28164 0.00630023 -8.57945e-21)
(3.79639 0.764167 -4.94154e-20)
(1.44798 0.489076 -3.07319e-21)
(1.32927 0.542508 -2.14952e-21)
(3.10697 0.604637 -8.32937e-20)
(2.33916 0.198367 1.85215e-20)
(3.44065 0.281486 -8.96965e-20)
(1.39117 0.971577 -1.75948e-23)
(2.23867 0.965716 -4.71279e-20)
(3.25204 0.138337 -2.23952e-20)
(3.53139 0.144412 -2.77713e-19)
(0.723371 0.833608 2.42271e-21)
(1.56043 0.986916 -1.4471e-20)
(0.931782 1.02087 -3.52287e-20)
(3.14548 1.32359 8.50298e-21)
(0.309385 0.402689 -7.12025e-23)
(3.10823 0.277873 1.45332e-19)
(0.782064 0.900637 -4.16372e-21)
(3.6816 0.393667 -1.84529e-19)
(0.075834 0.319206 2.56552e-22)
(0.849683 0.962748 1.11198e-20)
(2.88017 1.41813 -7.94272e-20)
(3.53429 -0.298583 -9.91829e-20)
(1.01657 0.587826 6.41716e-21)
(0.157019 0.351346 1.00942e-23)
(0.581373 0.487768 8.67959e-23)
(1.14757 1.14971 3.7378e-20)
(2.79238 0.198948 -5.87282e-21)
(1.98798 0.986451 1.2733e-20)
(2.16335 0.280237 1.41782e-20)
(1.99092 0.359686 1.04086e-21)
(3.87432 -0.301983 -4.27554e-19)
(0.529476 0.130417 3.13307e-21)
(3.88507 -0.116587 8.5267e-19)
(2.66748 0.00806337 1.04204e-20)
(0.830318 0.830205 1.83588e-20)
(1.03051 1.08647 -1.09901e-20)
(4.22229 -0.101805 -2.92448e-19)
(0.712204 0.650487 6.47945e-21)
(3.67331 -0.168323 5.15854e-20)
(0.37291 0.504462 8.81424e-22)
(3.56077 -0.29168 1.7292e-19)
(1.63184 0.650979 3.63603e-22)
(3.78728 -0.186993 3.78264e-19)
(4.23134 -0.282582 -2.55279e-19)
(0.318745 0.458378 -1.49383e-22)
(3.38403 1.16362 1.47462e-19)
(1.76026 0.992692 7.46987e-21)
(4.21822 -0.353558 -2.27383e-19)
(2.30839 1.48458 -1.07423e-20)
(3.75227 -0.26546 -7.04986e-20)
(0.928711 0.560094 -1.44033e-21)
(2.8089 0.85201 9.69169e-20)
(3.02142 -0.185109 7.66596e-20)
(1.13286 0.687383 5.9704e-21)
(3.76874 0.196127 6.80416e-19)
(3.18608 -0.292443 -1.6891e-19)
(3.08516 -0.0179639 -6.8573e-20)
(3.15309 -0.273426 1.16814e-19)
(3.95019 -0.00396816 -1.26202e-18)
(4.19085 -0.353401 2.54277e-19)
(0.629 0.663626 -6.74403e-21)
(0.0236564 0.0574191 -4.21689e-22)
(0.900382 0.850456 6.66098e-22)
(3.47862 -0.233143 -1.88669e-19)
(2.01453 1.45547 1.53412e-21)
(1.52588 1.15669 2.32969e-20)
(0.524325 0.515363 1.97969e-21)
(2.14138 0.0896912 5.09282e-21)
(0.26519 0.0364764 3.36124e-23)
(2.282 1.2326 1.72637e-20)
(4.18059 -0.0896233 -3.71068e-20)
(3.56501 -0.1348 -4.45963e-19)
(0.354021 0.417114 1.78836e-23)
(3.79953 -0.284629 5.99536e-20)
(0.526949 0.627236 6.64153e-21)
(0.661302 0.760886 -1.73553e-20)
(3.76162 -0.273319 -1.83505e-19)
(3.98685 0.376425 6.77331e-20)
(4.06663 -0.154399 -6.34908e-19)
(3.49699 0.0144747 6.24498e-20)
(0.483848 0.429474 3.67555e-22)
(0.103521 0.348754 -1.88454e-22)
(1.29777 1.22186 -3.4085e-20)
(3.60614 0.97261 8.35979e-20)
(3.64326 -0.27291 1.05368e-20)
(0.678783 0.71945 1.63707e-20)
(1.1262 0.935347 -1.02139e-20)
(0.469454 0.537855 1.07991e-20)
(3.59052 -0.306423 1.45312e-19)
(1.09617 0.760491 -6.8886e-21)
(0.213319 0.367838 3.58452e-22)
(4.08819 -0.369195 -1.779e-20)
(0.200247 0.324493 1.27175e-22)
(4.07133 -0.361896 -6.57249e-20)
(3.28755 0.722331 -1.87594e-21)
(2.50783 0.927867 6.78321e-20)
(2.95469 0.0795642 -4.28937e-20)
(0.237463 0.139928 3.34125e-22)
(2.79913 -0.081733 -3.46362e-20)
(0.432937 0.534113 -1.77741e-21)
(3.90741 -0.324497 -3.73427e-19)
(3.70565 -0.00831337 6.98984e-19)
(3.16547 -0.200945 5.07753e-20)
(0.0721348 0.115575 6.54534e-23)
(0.789122 0.707689 -1.77584e-20)
(1.26322 0.649999 1.9182e-21)
(0.45345 0.480911 -2.27383e-22)
(0.225771 0.380093 -3.13461e-22)
(0.843504 0.507787 1.19541e-21)
(0.314105 0.0011726 -2.20922e-23)
(0.587801 0.482239 2.77343e-21)
(0.43832 0.165476 -1.22936e-21)
(0.907177 0.917879 -3.59043e-20)
(0.262651 0.420483 -2.14829e-22)
(3.42907 -0.297672 -4.48804e-20)
(0.282385 0.372139 5.57198e-22)
(1.0265 0.909225 3.32712e-21)
(4.08223 -0.271343 7.19022e-19)
(0.765453 0.852441 -1.84313e-20)
(0.459884 0.398327 -7.38699e-21)
(3.3009 -0.289968 1.92963e-19)
(0.256361 0.377631 9.96864e-22)
(3.46834 -0.274814 2.00308e-19)
(0.0601096 0.248085 -1.00564e-21)
(0.675947 0.510466 -4.40987e-21)
(3.16868 -0.29376 -2.28012e-19)
(0.229322 0.402893 1.72104e-22)
(3.11262 -0.294318 -1.40471e-20)
(4.10593 -0.342151 4.02583e-21)
(1.98446 0.545416 1.4536e-20)
(0.31238 0.431113 -7.08916e-24)
(0.484227 0.516605 6.64262e-23)
(0.211481 -0.0711488 -2.05277e-23)
(3.0545 0.825856 -1.78083e-19)
(3.06641 -0.29604 5.70336e-20)
(1.08051 1.02022 -4.16758e-20)
(3.60855 -0.268415 5.87903e-20)
(0.0692585 -0.0413315 -4.58482e-22)
(1.7345 1.38761 -3.75806e-21)
(0.134774 -0.0994422 -6.88417e-22)
(1.21607 0.742305 -6.73906e-21)
(4.08802 -0.41939 -1.28339e-19)
(2.91163 -0.151084 -6.57903e-20)
(3.69957 -0.254014 -1.58059e-19)
(3.98108 0.169331 3.06353e-19)
(0.0804482 -0.0725925 1.86273e-21)
(3.76739 -0.263827 2.25997e-19)
(0.394349 0.49485 1.36955e-22)
(0.294976 0.4211 -2.07812e-21)
(3.8376 -0.270121 1.15737e-20)
(4.17733 -0.313853 7.3082e-22)
(0.27952 0.411633 -4.02443e-23)
(2.92171 -0.290055 -1.6717e-19)
(1.38649 0.608599 1.18346e-21)
(0.556113 0.37528 5.27908e-21)
(1.80065 0.602721 2.04698e-21)
(3.94581 -0.332446 2.31815e-19)
(0.43257 0.439908 -7.26441e-23)
(3.47524 0.582561 3.31325e-20)
(3.89268 -0.276895 4.92498e-23)
(3.45327 -0.270744 -3.09531e-20)
(3.62614 -0.259759 -2.24337e-20)
(4.14412 -0.39686 -2.75592e-19)
(0.192579 0.385179 6.6452e-22)
(3.34979 0.0445178 -1.12317e-19)
(0.116488 0.312668 8.72427e-22)
(3.61421 0.765501 2.66407e-20)
(3.69067 -0.291194 5.83784e-20)
(3.34663 -0.283265 1.21849e-20)
(4.13041 -0.424134 1.43885e-19)
(0.594583 0.62893 -2.04419e-20)
(3.94451 -0.291231 -7.10361e-21)
(0.965959 0.878144 -3.17012e-21)
(1.33679 0.718877 -3.37254e-21)
(0.506449 0.480362 -1.64164e-22)
(4.10902 0.173728 4.77208e-20)
(0.31313 0.359666 -1.24558e-22)
(0.384755 -0.0658118 3.28153e-23)
(0.379857 0.0207799 -2.9064e-23)
(0.975338 0.97088 3.86528e-20)
(2.59838 1.47815 7.03486e-20)
(0.307985 0.105066 -2.4218e-22)
(3.53516 -0.263728 6.03896e-20)
(0.355579 0.343879 -7.63692e-23)
(0.210291 -0.143382 -1.75579e-21)
(0.762196 0.785637 -1.74966e-22)
(1.52294 0.560537 8.93655e-22)
(3.3798 0.949647 -5.49581e-21)
(4.08293 -0.351065 1.56098e-19)
(0.392638 0.423796 9.59079e-21)
(3.08194 -0.303173 -5.59574e-20)
(3.98666 -0.305137 -2.42066e-21)
(0.0433422 -0.00917132 -5.61683e-22)
(3.13021 1.09022 -4.85999e-20)
(0.867265 0.749339 9.86456e-21)
(0.634246 0.581827 8.61223e-21)
(3.3635 -0.275721 -1.28455e-20)
(4.07372 -0.357202 -1.9798e-21)
(0.428018 -0.0484414 -3.97239e-23)
(1.99341 0.178038 3.51298e-21)
(0.218775 0.388684 7.72718e-22)
(1.48822 1.3056 1.51465e-20)
(4.17093 0.0482509 -1.48865e-19)
(3.03119 -0.280515 -2.82492e-20)
(0.17397 -0.123973 -4.02533e-22)
(0.372653 0.440591 -1.5214e-22)
(3.9378 -0.231411 -7.73766e-19)
(0.40246 0.291701 7.12308e-23)
(3.20631 -0.0786147 8.75457e-20)
(4.12472 0.100613 -5.86523e-20)
(0.149274 0.0864324 -9.28071e-22)
(1.47721 0.688866 -8.1786e-22)
(0.518677 0.451492 4.1599e-22)
(3.22497 -0.284938 -6.60542e-21)
(4.10542 -0.392824 -6.15251e-20)
(0.16701 0.386156 3.58613e-22)
(4.02095 -0.317565 -3.30748e-22)
(0.491235 0.265487 -5.82106e-22)
(0.103687 0.248806 1.37986e-21)
(2.97764 -0.27384 1.46341e-21)
(0.46196 0.0726437 5.59703e-23)
(0.465983 -0.0335821 1.72054e-23)
(3.96079 -0.307457 8.38067e-21)
(3.60274 -0.24131 1.76661e-19)
(0.21491 0.235809 1.06942e-21)
(0.164799 -0.106232 -6.68812e-22)
(0.0822142 -0.0624501 -3.76528e-22)
(0.514455 0.00743194 3.99259e-23)
(0.0522719 0.0291705 -9.28454e-23)
(0.143994 0.377785 -8.99248e-22)
(0.239197 0.413893 -2.89531e-23)
(0.40445 0.416589 2.12543e-23)
(0.0198785 0.0613365 6.48562e-22)
(0.0295405 0.0245471 -8.58919e-22)
(0.301279 0.44936 -1.58469e-22)
(0.277962 0.219905 -1.86213e-22)
(0.0115618 0.207778 2.01274e-22)
(0.548839 0.470047 -4.00158e-22)
(3.1091 -0.297507 -3.5745e-20)
(0.495058 -0.0163102 1.18759e-22)
(4.11923 -0.395673 7.70536e-21)
(0.0214659 0.100257 -2.21773e-22)
(4.05194 -0.330669 -1.32912e-21)
(3.13745 -0.293732 1.62618e-20)
(2.81205 -0.302172 -1.23776e-20)
(4.03914 -0.376516 -4.11095e-21)
(3.96082 -0.334486 -1.67273e-19)
(0.255955 -0.090917 -8.62009e-23)
(0.40198 -0.0231655 9.11652e-23)
(0.119854 -0.0821891 1.60669e-24)
(0.269261 0.388951 -1.70299e-24)
(0.0847077 0.00236458 -1.01798e-23)
(0.471344 0.460567 1.47932e-22)
(0.100485 0.0795122 5.13712e-22)
(0.121713 0.364698 -5.25203e-22)
(0.264086 0.328414 1.27286e-21)
(3.3429 -0.213836 -1.40594e-20)
(0.12881 0.368177 2.2846e-22)
(3.00169 -0.301023 3.95902e-20)
(0.29498 0.381143 -1.86652e-22)
(0.101004 0.345241 7.4664e-22)
(3.99387 -0.398505 -3.33286e-20)
(2.67935 -0.3153 -3.57491e-20)
(0.536142 0.508591 1.87357e-21)
(0.0178923 0.147547 -7.8868e-22)
(0.115568 0.168225 -5.97164e-22)
(0.0295321 0.177745 8.8649e-23)
(0.350033 -0.0401362 -9.82206e-23)
(0.200942 0.392733 -4.33591e-23)
(0.0102313 0.191254 1.04478e-21)
(0.334086 0.389724 7.26501e-23)
(3.26216 -0.286867 -1.1004e-20)
(0.348977 0.193655 -4.84839e-23)
(3.50302 -0.272251 6.69401e-21)
(3.03329 -0.294256 5.5346e-20)
(4.06984 -0.345922 -7.94634e-22)
(4.06718 -0.365703 6.32344e-20)
(2.93446 -0.295077 -2.40659e-20)
(4.03199 -0.330472 -1.93684e-20)
(3.1603 -0.282813 -3.79489e-20)
(0.835227 0.906926 1.05028e-21)
(0.523382 0.596629 -2.73536e-21)
(0.257338 -0.0394884 -2.46371e-22)
(0.204478 -0.118483 2.13363e-23)
(3.99942 -0.319007 2.63245e-20)
(0.299235 -0.0669123 2.25241e-22)
(4.01625 -0.403044 -1.5057e-19)
(0.0136819 0.215429 -9.07419e-23)
(0.202827 0.0656128 4.09827e-23)
(0.0756813 0.314561 -1.71191e-22)
(0.384369 0.0903786 -1.2876e-22)
(0.393008 0.469395 1.10928e-22)
(3.81628 -0.297895 3.17253e-19)
(0.0776834 0.184382 3.18709e-22)
(3.38738 -0.278587 2.7616e-21)
(3.27691 -0.283199 -6.92349e-20)
(0.519225 0.555512 -2.24329e-22)
(0.171079 0.385859 -1.3546e-23)
(0.0504168 0.24988 3.02954e-22)
(2.66829 -0.309705 4.67225e-20)
(0.0659633 0.286798 -7.52795e-22)
(0.148374 0.377812 6.36411e-23)
(0.325033 0.447319 1.66671e-22)
(0.122798 -0.0213113 -7.13803e-23)
(0.331662 0.425966 -3.83735e-22)
(0.129414 0.0402776 -1.515e-23)
(4.0278 -0.336669 1.50926e-19)
(0.19513 -0.144973 -3.95927e-23)
(0.192297 0.387045 -1.81747e-22)
(0.167147 0.0212148 1.10177e-22)
(0.55053 0.0666667 -1.70382e-21)
(3.92915 -0.417763 -1.13344e-19)
(0.6091 0.571215 3.05254e-21)
(0.593661 0.514007 -6.14269e-21)
(2.51281 -0.303018 -5.63811e-20)
(0.450007 -0.0123239 -4.30861e-23)
(0.444898 -0.386561 1.07153e-21)
(0.469152 -0.378554 -5.44766e-23)
(0.523095 -0.385369 -6.09343e-22)
(0.560524 -0.391699 3.19928e-22)
(0.599825 -0.396888 -3.49901e-22)
(0.631691 -0.400396 -1.07827e-21)
(0.662296 -0.402921 2.43282e-22)
(0.688718 -0.404853 3.19353e-22)
(0.714626 -0.40518 3.30043e-22)
(0.47789 -0.375344 -6.95139e-22)
(0.501954 -0.370372 -5.15388e-23)
(0.552818 -0.375813 5.03975e-22)
(0.59035 -0.382606 -9.18345e-22)
(0.627673 -0.387889 8.31352e-22)
(0.658883 -0.392177 1.40062e-21)
(0.687999 -0.395283 -8.86218e-22)
(0.713644 -0.397637 9.13133e-22)
(0.737011 -0.398757 -4.51885e-22)
(0.512263 -0.358876 1.9492e-21)
(0.533523 -0.356113 4.82402e-22)
(0.581674 -0.361593 -1.0404e-21)
(0.6185 -0.369029 5.2723e-22)
(0.65422 -0.374789 -1.31059e-21)
(0.684699 -0.379783 -1.88832e-22)
(0.712668 -0.383581 -3.49014e-23)
(0.73739 -0.386591 -4.56815e-22)
(0.759757 -0.388706 -7.08183e-22)
(0.544459 -0.339189 -8.94915e-22)
(0.562861 -0.337535 2.74147e-22)
(0.608749 -0.343511 7.82744e-22)
(0.644783 -0.351661 4.78654e-23)
(0.679189 -0.35805 5.79605e-22)
(0.708953 -0.363697 1.63645e-21)
(0.736009 -0.368122 -9.85031e-22)
(0.76004 -0.371689 1.52835e-22)
(0.781925 -0.374385 3.67153e-22)
(0.574049 -0.316531 1.53264e-22)
(0.589497 -0.31536 -1.57117e-22)
(0.633301 -0.322108 3.55067e-23)
(0.668628 -0.330867 -3.07261e-22)
(0.702033 -0.337959 1.6007e-22)
(0.731253 -0.344233 -3.72696e-22)
(0.757711 -0.349256 1.45358e-22)
(0.781376 -0.353345 6.24754e-22)
(0.803196 -0.356325 1.31427e-22)
(0.600344 -0.291307 1.37963e-22)
(0.612925 -0.290215 -5.6005e-22)
(0.65484 -0.297998 8.59019e-23)
(0.689681 -0.307129 7.22868e-22)
(0.722393 -0.314888 -2.37722e-22)
(0.751263 -0.321729 -3.39318e-22)
(0.777371 -0.327345 -1.23573e-22)
(0.800886 -0.331989 -1.03752e-21)
(0.822595 -0.335704 5.20548e-22)
(0.621731 -0.265113 9.24333e-23)
(0.632808 -0.262978 4.20794e-22)
(0.673147 -0.271845 9.94663e-23)
(0.707781 -0.280889 -3.52093e-22)
(0.740045 -0.289151 7.52918e-23)
(0.768735 -0.296432 -9.29448e-23)
(0.794683 -0.302569 2.77083e-22)
(0.818164 -0.307728 -2.58524e-22)
(0.839902 -0.312071 -1.81133e-22)
(0.636652 -0.238191 -2.00624e-22)
(0.64959 -0.234049 3.79629e-22)
(0.68852 -0.243844 -6.87568e-23)
(0.723001 -0.252337 1.39295e-22)
(0.754909 -0.2609 -1.40463e-22)
(0.783522 -0.268475 4.48549e-22)
(0.809452 -0.275033 5.86887e-22)
(0.833016 -0.280685 -7.25309e-22)
(0.854983 -0.285123 2.15749e-22)
(0.645707 -0.207192 6.36936e-24)
(0.663989 -0.202305 7.25433e-23)
(0.701304 -0.213205 2.73339e-23)
(0.735387 -0.22122 -1.76306e-22)
(0.766905 -0.230056 -5.74109e-23)
(0.795498 -0.237835 -1.45848e-22)
(0.821521 -0.244699 -8.04039e-23)
(0.845308 -0.25062 7.57581e-22)
(0.867372 -0.255681 -7.40675e-23)
(0.650978 -0.169872 2.20547e-23)
(0.675611 -0.166454 -3.25688e-22)
(0.711029 -0.179033 -1.462e-22)
(0.744587 -0.187224 7.08145e-23)
(0.775804 -0.19648 -6.53706e-23)
(0.80451 -0.204415 2.54134e-22)
(0.830793 -0.211414 4.29753e-23)
(0.854935 -0.217375 4.86996e-22)
(0.877372 -0.222279 -3.61188e-23)
(0.653641 -0.127858 1.75767e-23)
(0.683007 -0.127057 1.7571e-23)
(0.716579 -0.141684 7.91997e-23)
(0.749971 -0.150586 1.81654e-22)
(0.781278 -0.160268 -5.92923e-23)
(0.810393 -0.168223 -5.24335e-23)
(0.837209 -0.175122 -1.63264e-22)
(0.862001 -0.180818 -5.92248e-22)
(0.885088 -0.185415 -9.99727e-23)
(0.654326 -0.0845033 -1.24561e-23)
(0.685089 -0.0868707 2.73424e-22)
(0.717285 -0.102942 -1.82932e-22)
(0.751215 -0.112231 1.19787e-22)
(0.783164 -0.121835 -2.22572e-23)
(0.813027 -0.129413 3.86415e-22)
(0.840621 -0.135852 4.11264e-23)
(0.866221 -0.140966 -3.13687e-22)
(0.890195 -0.145658 -2.27601e-22)
(0.651512 -0.0437503 9.73445e-24)
(0.681072 -0.0489806 -5.83373e-23)
(0.713719 -0.0644933 1.42126e-23)
(0.748735 -0.0730804 8.46762e-23)
(0.781684 -0.0816163 -5.64961e-23)
(0.812491 -0.0881297 -7.54358e-23)
(0.840976 -0.0935064 -1.40155e-22)
(0.86741 -0.0977076 2.61511e-22)
(0.89246 -0.101098 -1.49273e-22)
(0.642212 -0.00650862 -2.4305e-23)
(0.673076 -0.0128091 -7.74576e-24)
(0.707178 -0.0263301 -4.95457e-23)
(0.743316 -0.0332001 1.44615e-22)
(0.777274 -0.0397286 -2.64909e-23)
(0.809011 -0.044476 -1.54238e-23)
(0.838379 -0.0481676 -1.06173e-22)
(0.865656 -0.0508384 1.23384e-23)
(0.89127 -0.0522319 9.85072e-23)
(0.62779 0.0296664 1.16397e-22)
(0.661877 0.023258 -2.6646e-24)
(0.698149 0.0124894 2.92827e-22)
(0.735356 0.00788354 -4.3499e-22)
(0.770168 0.00392177 4.89687e-23)
(0.802691 0.00140011 1.60968e-22)
(0.832848 -0.00020311 1.13834e-22)
(0.860957 -0.000888314 1.64968e-22)
(0.887365 -0.000512571 -5.90114e-22)
(0.608004 0.0666931 -4.89534e-24)
(0.647538 0.0604627 -1.78944e-22)
(0.686546 0.0529756 -4.39678e-22)
(0.724764 0.0506967 5.99445e-22)
(0.760254 0.049397 2.04426e-22)
(0.793387 0.0492306 -1.08802e-22)
(0.824171 0.0498666 -1.64996e-23)
(0.852882 0.0513391 4.65722e-22)
(0.879633 0.0533795 -1.9705e-22)
(0.584395 0.106088 2.65267e-22)
(0.629058 0.10011 -3.46264e-22)
(0.671569 0.0957611 4.46171e-22)
(0.710922 0.0954034 -2.97101e-22)
(0.747071 0.0964418 -3.25302e-22)
(0.780746 0.0984763 1.28342e-21)
(0.812077 0.101286 -8.61927e-22)
(0.841311 0.104952 -3.59034e-22)
(0.868852 0.108535 8.19625e-23)
(0.560726 0.145922 -3.23539e-22)
(0.606279 0.141124 4.76451e-22)
(0.652259 0.139821 -2.28511e-22)
(0.693061 0.141135 3.57162e-22)
(0.730076 0.144186 8.54097e-23)
(0.76439 0.148235 -1.02837e-21)
(0.796287 0.153114 9.17715e-23)
(0.825993 0.158802 -5.02161e-22)
(0.853955 0.16466 -6.55725e-22)
(0.538265 0.183164 -4.06922e-23)
(0.580933 0.180348 -1.02623e-22)
(0.628903 0.182744 -2.22861e-22)
(0.671102 0.186122 -1.03198e-21)
(0.70911 0.191229 2.65692e-22)
(0.744166 0.197264 4.37063e-22)
(0.776685 0.204128 5.20416e-22)
(0.806947 0.211659 6.59447e-22)
(0.835394 0.219583 -3.12462e-22)
(0.515852 0.217162 5.07589e-23)
(0.554221 0.216351 3.70342e-23)
(0.602679 0.222784 8.01758e-22)
(0.645682 0.228834 -6.51809e-23)
(0.684504 0.236264 4.12641e-22)
(0.720233 0.244429 -2.79036e-22)
(0.753319 0.253333 -2.08545e-21)
(0.784031 0.262785 -3.30053e-22)
(0.812762 0.272501 -2.46105e-23)
(0.492776 0.248591 1.00455e-22)
(0.526509 0.249201 -8.52026e-22)
(0.574524 0.259287 5.47775e-22)
(0.617569 0.268376 -7.52984e-22)
(0.656824 0.278335 5.75597e-22)
(0.693016 0.288774 -1.12944e-22)
(0.726566 0.299776 5.7644e-22)
(0.757762 0.311111 5.37502e-22)
(0.786783 0.323171 -1.68469e-22)
(0.468949 0.276984 1.11958e-22)
(0.497721 0.278839 8.44919e-22)
(0.54499 0.291917 -1.48751e-21)
(0.587374 0.304258 2.39212e-22)
(0.626593 0.316824 -1.53644e-21)
(0.662915 0.329616 4.63139e-22)
(0.69673 0.342726 1.84645e-22)
(0.728467 0.355874 -2.62378e-22)
(0.757365 0.370846 -1.60712e-22)
(0.444324 0.300458 -3.32296e-22)
(0.468153 0.305191 -7.17961e-22)
(0.514717 0.320762 7.46074e-22)
(0.555806 0.336501 8.49405e-22)
(0.594481 0.351598 1.02203e-21)
(0.63052 0.36667 -8.35028e-23)
(0.664285 0.381727 -3.35062e-22)
(0.696383 0.39669 1.07326e-21)
(0.725382 0.413832 -2.88292e-21)
(0.418273 0.318473 -7.90595e-23)
(0.437709 0.327979 4.66108e-22)
(0.483044 0.345519 -1.88071e-22)
(0.522203 0.364451 3.57704e-22)
(0.559842 0.381843 -7.95991e-22)
(0.595293 0.399165 -2.7128e-22)
(0.628835 0.416094 1.42941e-21)
(0.661646 0.432936 -1.49954e-21)
(0.691369 0.454431 2.04783e-21)
(0.390842 0.332705 -2.23191e-22)
(0.408853 0.350835 5.21485e-23)
(0.453117 0.371278 2.98975e-22)
(0.490477 0.391946 -4.14388e-22)
(0.526712 0.410664 9.89753e-23)
(0.560645 0.429088 -6.76567e-22)
(0.593072 0.446578 5.3942e-22)
(0.627254 0.463025 -4.11232e-22)
(0.65871 0.486127 -1.52766e-23)
(0.348157 0.308603 -2.76652e-22)
(0.341263 0.306289 -3.34681e-22)
(0.334062 0.303132 -1.02672e-21)
(0.326079 0.299439 1.45143e-21)
(0.31724 0.295108 -1.09939e-21)
(0.307491 0.290105 8.32254e-22)
(0.296798 0.284386 3.29422e-22)
(0.285148 0.277912 -8.29431e-23)
(0.27256 0.270618 -6.11756e-22)
(0.259077 0.262432 -2.69079e-22)
(0.244776 0.253286 2.92178e-22)
(0.229765 0.243112 -3.32816e-22)
(0.214185 0.231849 9.01736e-22)
(0.198206 0.219443 -2.27528e-21)
(0.182009 0.205848 3.96335e-21)
(0.165791 0.191041 -4.4863e-21)
(0.149751 0.175027 4.0096e-21)
(0.134073 0.157838 -1.80199e-21)
(0.118916 0.139559 -5.85508e-22)
(0.104399 0.120345 6.20221e-22)
(0.0905523 0.100417 -2.14366e-22)
(0.0772087 0.0800239 4.63355e-22)
(0.0641603 0.0597826 3.28903e-23)
(0.0513888 0.0400959 -6.42532e-22)
(0.0411634 0.0201996 5.06416e-22)
(0.0357086 -0.00043635 -2.75074e-22)
(0.0347285 -0.0221431 3.52443e-22)
(0.0386002 -0.045079 2.82341e-22)
(0.044434 -0.0694814 -3.39394e-22)
(0.0499088 -0.0949804 9.09186e-24)
(0.0559286 -0.120709 -3.04425e-22)
(0.0631841 -0.146305 2.75407e-22)
(0.0719643 -0.171507 5.19816e-22)
(0.0822466 -0.19599 -4.19508e-22)
(0.0939049 -0.219427 5.94413e-22)
(0.106768 -0.241599 -9.9002e-22)
(0.120607 -0.262302 7.60979e-23)
(0.135178 -0.281377 2.13709e-22)
(0.150246 -0.29871 -3.19543e-22)
(0.165597 -0.314227 7.12604e-22)
(0.181062 -0.327908 -4.06763e-22)
(0.196524 -0.339768 -1.72731e-21)
(0.211917 -0.349873 3.51371e-21)
(0.227194 -0.358315 -3.75973e-21)
(0.242561 -0.365108 3.25673e-21)
(0.258447 -0.370254 -1.91108e-21)
(0.274894 -0.373975 9.77284e-22)
(0.291595 -0.376637 -3.33982e-22)
(0.308204 -0.378524 3.12267e-22)
(0.324425 -0.379879 -3.29285e-22)
(0.339939 -0.380915 -4.68118e-22)
(0.354524 -0.381795 -1.38901e-22)
(0.368024 -0.382631 2.44041e-22)
(0.380335 -0.38349 6.10432e-22)
(0.391397 -0.384381 -9.08441e-22)
(0.401329 -0.385214 1.16728e-21)
(0.410316 -0.385885 -7.83595e-22)
(0.41844 -0.386369 -2.70315e-22)
(0.425782 -0.386757 -1.91495e-22)
(0.362575 0.26968 -1.58292e-23)
(0.356343 0.26669 -2.64954e-24)
(0.349689 0.26349 -2.28285e-23)
(0.34248 0.259997 3.6675e-23)
(0.334657 0.256237 -3.18145e-23)
(0.326136 0.252207 -4.31949e-23)
(0.316845 0.247908 6.21549e-24)
(0.306779 0.243247 4.47221e-23)
(0.295974 0.238077 -2.50774e-23)
(0.284449 0.232311 -3.99665e-23)
(0.27221 0.225859 5.70291e-23)
(0.259291 0.218617 -1.99292e-23)
(0.245756 0.210482 -6.0232e-23)
(0.231694 0.201348 1.33911e-22)
(0.217227 0.191122 -1.37355e-22)
(0.202494 0.179722 1.00177e-22)
(0.187648 0.167092 9.85945e-23)
(0.17285 0.153201 1.45237e-23)
(0.158251 0.138044 6.10208e-23)
(0.143989 0.121636 3.36321e-23)
(0.13019 0.103994 7.03154e-24)
(0.117003 0.08508 -1.58426e-22)
(0.104792 0.0647442 1.51074e-22)
(0.0942206 0.0425164 -7.84714e-23)
(0.0861037 0.0183834 2.74052e-22)
(0.0806208 -0.00719858 -1.09183e-22)
(0.0779565 -0.0335421 -9.29687e-24)
(0.0782933 -0.0599083 4.76742e-23)
(0.0815246 -0.0856935 1.74158e-23)
(0.0864937 -0.110936 -2.24964e-24)
(0.092801 -0.135824 -4.21537e-23)
(0.100544 -0.160285 5.74981e-24)
(0.109783 -0.184104 -1.42969e-23)
(0.120394 -0.207071 -6.46683e-24)
(0.132222 -0.22899 -8.08771e-23)
(0.145106 -0.2497 4.58403e-23)
(0.158867 -0.269074 1.30316e-23)
(0.173322 -0.28703 -7.65014e-23)
(0.188306 -0.303519 2.16831e-24)
(0.203679 -0.318524 -3.46903e-23)
(0.219342 -0.332043 -1.23368e-23)
(0.235229 -0.344083 6.93467e-23)
(0.251311 -0.35465 -2.14155e-22)
(0.267587 -0.36375 -1.50596e-22)
(0.284062 -0.371365 2.53043e-22)
(0.300655 -0.377453 -2.13142e-22)
(0.317149 -0.382028 1.13818e-22)
(0.333267 -0.385186 7.82005e-24)
(0.348583 -0.387263 -6.53111e-23)
(0.362883 -0.388432 2.89173e-23)
(0.376321 -0.388721 8.6032e-23)
(0.388829 -0.388362 -2.12275e-23)
(0.400281 -0.387612 3.68807e-23)
(0.410731 -0.386654 -1.42534e-22)
(0.420203 -0.385615 1.97723e-23)
(0.428818 -0.384544 6.41584e-23)
(0.436755 -0.383448 -6.37097e-23)
(0.444061 -0.382335 1.37309e-23)
(0.450825 -0.381291 -1.78207e-23)
(0.420737 0.25329 -2.95233e-22)
(0.414502 0.250373 6.03256e-23)
(0.407818 0.2472 -2.52499e-22)
(0.400664 0.243783 -5.86528e-23)
(0.39299 0.240089 8.71963e-22)
(0.384755 0.236088 -2.71842e-22)
(0.37593 0.231728 -5.30851e-22)
(0.366498 0.226929 -1.80486e-24)
(0.356437 0.221636 3.18769e-22)
(0.345729 0.215794 -8.03383e-23)
(0.334366 0.209336 8.64203e-22)
(0.322362 0.202185 -1.0313e-21)
(0.309754 0.194254 9.33271e-22)
(0.296602 0.185452 -1.28962e-22)
(0.282993 0.175685 -8.33422e-22)
(0.269037 0.164866 2.57251e-22)
(0.254865 0.152911 9.93924e-22)
(0.240625 0.13975 -3.92474e-22)
(0.226478 0.125321 -9.74916e-23)
(0.212602 0.109561 2.0236e-23)
(0.199198 0.0924083 -2.65629e-22)
(0.186511 0.0737806 6.23721e-23)
(0.174878 0.0535969 -6.79446e-22)
(0.16474 0.0318318 8.17991e-22)
(0.156673 0.00862339 -3.14397e-22)
(0.151173 -0.0157311 6.92034e-24)
(0.148464 -0.0408563 4.46324e-23)
(0.148554 -0.0663113 -1.97673e-22)
(0.151123 -0.0916044 1.25459e-22)
(0.155667 -0.116446 6.58101e-23)
(0.161854 -0.140765 1.49155e-22)
(0.169512 -0.164478 -1.55087e-22)
(0.178525 -0.187452 6.78127e-23)
(0.188773 -0.209543 9.21812e-23)
(0.200119 -0.230621 -3.17179e-22)
(0.212425 -0.250572 8.79047e-22)
(0.225545 -0.269304 -5.72792e-22)
(0.239339 -0.286747 -1.25155e-22)
(0.253684 -0.302856 -1.4272e-22)
(0.268475 -0.317599 -4.65959e-23)
(0.283627 -0.330955 -2.22174e-22)
(0.299068 -0.34291 -3.81841e-22)
(0.314734 -0.353449 9.17983e-22)
(0.330546 -0.362565 4.27021e-22)
(0.346409 -0.370252 -8.77356e-22)
(0.362182 -0.376528 -2.82833e-22)
(0.377676 -0.38146 9.03414e-22)
(0.392678 -0.385166 -1.04291e-21)
(0.407022 -0.387848 7.27623e-22)
(0.420482 -0.389754 -2.74483e-23)
(0.433056 -0.390993 2.92989e-22)
(0.444797 -0.391612 5.43624e-23)
(0.45566 -0.391766 -4.70467e-22)
(0.465658 -0.391609 -2.35237e-22)
(0.474867 -0.391226 7.37089e-22)
(0.483385 -0.390664 -1.33672e-23)
(0.491274 -0.389962 -2.06587e-22)
(0.498578 -0.389172 6.52102e-23)
(0.505348 -0.388322 -2.38185e-22)
(0.460668 0.244095 -4.68911e-23)
(0.454439 0.241701 2.59549e-22)
(0.44779 0.239076 -1.22501e-22)
(0.440653 0.236157 9.06908e-23)
(0.432999 0.232921 -9.78079e-23)
(0.4248 0.229338 9.43795e-25)
(0.416028 0.225366 -6.28806e-23)
(0.406664 0.22096 -1.56021e-22)
(0.396693 0.216068 1.0274e-22)
(0.386108 0.21063 1.39243e-22)
(0.374913 0.204572 9.75007e-23)
(0.363126 0.197815 -4.13819e-22)
(0.35078 0.190266 3.73598e-22)
(0.337931 0.181829 -9.42771e-23)
(0.324654 0.172403 4.66045e-23)
(0.311053 0.161887 -2.35645e-22)
(0.297251 0.150184 2.36558e-22)
(0.283401 0.137203 -1.05207e-22)
(0.269678 0.122863 -1.7307e-22)
(0.256287 0.107092 8.19871e-23)
(0.243459 0.0898277 -4.11892e-23)
(0.231467 0.0710267 -3.09149e-22)
(0.220627 0.0506765 1.88598e-22)
(0.211295 0.0288236 2.12327e-22)
(0.20383 0.00561781 -1.68766e-22)
(0.198523 -0.018673 1.98972e-23)
(0.195554 -0.0437006 1.91977e-22)
(0.194977 -0.0690797 -2.23564e-22)
(0.196699 -0.0944396 7.35479e-23)
(0.200494 -0.1195 -1.98902e-23)
(0.206141 -0.14408 9.30926e-23)
(0.213451 -0.168033 -2.17008e-22)
(0.222259 -0.191223 1.62746e-22)
(0.232403 -0.213524 -5.81245e-24)
(0.243722 -0.23482 -2.00921e-22)
(0.25606 -0.255009 7.14719e-23)
(0.269265 -0.274004 2.20875e-22)
(0.283188 -0.291732 -8.92541e-23)
(0.297699 -0.308137 -9.07292e-23)
(0.312673 -0.323172 1.60978e-22)
(0.327997 -0.336801 -3.88206e-23)
(0.343559 -0.348998 -5.58055e-23)
(0.359246 -0.359746 3.41043e-22)
(0.374933 -0.36904 -3.14005e-22)
(0.390486 -0.376899 1.35075e-22)
(0.405759 -0.383365 -1.29091e-23)
(0.420602 -0.388518 4.04612e-22)
(0.434881 -0.39247 -3.65078e-22)
(0.44848 -0.39535 1.60461e-22)
(0.461268 -0.397389 1.33761e-22)
(0.473094 -0.398816 1.52904e-22)
(0.484064 -0.399669 -1.8132e-22)
(0.494328 -0.399965 -3.84916e-23)
(0.503933 -0.399798 -5.96605e-23)
(0.512898 -0.399279 -9.64503e-23)
(0.521216 -0.398511 6.74213e-23)
(0.528917 -0.397563 -1.31599e-22)
(0.536058 -0.396478 2.68329e-22)
(0.542713 -0.395313 -7.42728e-23)
(0.512596 0.238981 -4.41754e-22)
(0.506487 0.236392 4.72866e-23)
(0.499874 0.233577 4.27241e-22)
(0.492733 0.230507 -3.05938e-22)
(0.485033 0.227144 7.9377e-23)
(0.476758 0.223453 2.69577e-22)
(0.46789 0.219393 -3.37029e-22)
(0.45842 0.214916 1.2787e-22)
(0.448343 0.209966 4.09739e-22)
(0.437663 0.204481 -1.35897e-22)