/*--------------------------------*- C++ -*----------------------------------*\
  =========                 |
  \\      /  F ield         | OpenFOAM: The Open Source CFD Toolbox
   \\    /   O peration     | Website:  https://openfoam.org
    \\  /    A nd           | Version:  10
     \\/     M anipulation  |
\*---------------------------------------------------------------------------*/
FoamFile
{
    format      ascii;
    class       volScalarField;
    location    "1100";
    object      epsilon;
}
// * * * * * * * * * * * * * * * * * * * * * * * * * * * * * * * * * * * * * //

dimensions      [0 2 -3 0 0 0 0];

internalField   nonuniform List<scalar> 
10435
(
0.0849319
0.284495
0.354251
0.251969
0.757292
0.723588
0.295357
0.143947
0.0738853
0.563134
0.484244
0.289357
0.492957
0.0337729
0.035718
0.245713
0.0325677
0.583767
0.0496704
0.101504
0.191903
0.169626
0.301792
0.0864617
0.506985
0.0128953
0.0215763
0.409963
0.0201381
0.592536
0.420864
0.585689
0.117626
0.0206243
0.15855
0.0982603
0.206463
0.021897
0.00869338
0.064021
0.654067
0.308789
0.0230967
0.189113
0.274059
0.0760185
0.679119
0.0218605
0.0569034
0.108186
0.163675
0.595839
0.00844267
0.0162481
0.00965235
0.0182911
0.169233
0.023549
0.02998
0.122709
0.0095205
0.20423
0.0237558
0.615188
0.292845
0.401321
0.0274977
0.0269619
0.172066
0.08873
0.0158585
0.0172985
0.015378
0.377377
0.0389543
0.0230556
0.096483
0.25924
0.0942082
0.0363283
0.10695
0.0572664
0.00821154
0.0166951
0.105045
0.0724853
0.0920207
0.247426
0.0474387
0.120555
0.302652
0.361663
0.0660763
0.0563836
0.156402
0.0694927
0.375845
0.038077
0.0311664
0.497457
0.041943
0.90187
0.0709193
0.19869
0.871733
0.223354
0.0755387
0.108134
0.104683
0.0394693
0.103057
0.912277
0.049757
0.0438829
0.504128
0.156352
0.480955
0.0978804
0.311261
0.358448
0.446534
0.0183968
0.133912
0.032561
0.807394
0.0112557
0.369135
0.0209312
0.624807
0.0205654
0.0256233
0.710982
0.198268
0.0341447
0.0193591
0.00779352
0.062588
0.262729
0.241451
0.138097
0.119416
0.352994
0.0251059
0.463854
0.174326
0.0316475
0.0439747
0.6772
0.031139
0.351796
0.0190444
0.247042
0.103521
0.378881
0.611149
0.0159676
0.875252
0.181902
0.597677
0.457032
0.326066
0.0327309
0.470744
0.178228
0.0436858
0.557752
0.113244
0.25704
0.172948
0.550352
0.524452
0.012629
0.0197683
0.0349829
0.26376
0.332731
0.14208
0.0286587
0.0948868
0.0221976
0.379672
0.762279
0.339421
0.0105258
0.329656
0.0189214
0.0194577
0.236388
0.781711
0.527354
0.377523
0.00810803
0.0192525
0.0941027
0.910542
0.202478
0.0276064
0.0555832
0.0254703
0.232253
0.0460737
0.0214126
0.448741
0.0231153
0.413861
0.621236
0.390618
0.260957
0.0245356
0.172873
0.0160909
0.321828
0.448814
0.203132
0.0214754
0.0324895
0.0500144
0.0106996
0.0131027
0.0318591
0.0207593
0.0308071
0.0267108
0.034091
0.0147219
0.183185
0.0107246
0.0449637
0.485353
0.0248607
0.0291232
0.145276
0.0118386
0.226902
0.0222808
0.0316541
0.144787
0.0145661
0.139423
0.466505
0.157572
0.012832
0.0116113
0.0178721
0.55908
0.0871658
0.0510314
0.175113
0.0156978
0.225751
0.0155105
0.0542612
0.517102
0.171773
0.206814
0.658874
0.0141018
0.231369
0.0142282
0.0212551
0.257202
0.526846
0.0127115
0.126527
0.0587882
0.0304971
0.128831
0.36256
0.00954163
0.629581
0.285832
0.135611
0.177175
0.469862
0.0144784
0.348278
0.0209834
0.768832
0.232468
0.116092
0.514123
0.0274597
0.315057
0.0392259
0.0659988
0.00925062
0.74546
0.00969104
0.0170938
0.0213665
0.0392336
0.589052
0.0246076
0.154279
0.00887755
0.015532
0.0291491
0.0704628
0.74231
0.440811
0.0267787
0.143865
0.342353
0.0171523
0.67719
0.0347687
0.0304686
0.208565
0.422555
0.0173063
0.0854738
0.0191493
0.146203
0.733787
0.09776
0.0160187
0.0111953
0.426026
0.0284765
0.262859
0.83357
0.0221847
0.0823512
0.00800599
0.0972544
0.46029
0.0159611
0.369774
0.0289372
0.0226181
0.0972787
0.0229595
0.0173319
0.328832
0.291242
0.0248592
0.0165596
0.0161861
0.0188101
0.0191738
0.0172007
0.0167204
0.00934157
0.0196998
0.0189334
0.0184091
0.02612
0.0227708
0.00790828
0.0793823
0.017722
0.458598
0.021065
0.399476
0.0813133
0.0479164
0.484065
0.360394
0.017146
0.0190149
0.016449
0.0115795
0.0186858
0.00934259
0.0211219
0.0183007
0.0248975
0.237885
0.0178243
0.0695362
0.010574
0.0195072
0.511907
0.037287
0.00952765
0.0214267
0.0229325
0.0221601
0.0187213
0.0143074
0.0248583
0.0101019
0.107041
0.0268956
0.151619
0.0690668
0.430474
0.460967
0.0590311
0.377948
0.127176
0.0283085
0.0153601
0.0192298
0.0164014
0.353267
0.0179966
0.521225
0.0238013
0.0225271
0.0203691
0.0241059
0.0122591
0.273022
0.0224387
0.12825
0.194831
0.0127426
0.0155772
0.0223034
0.0408476
0.0221777
0.0166831
0.0139106
0.0185543
0.0239175
0.0205742
0.376804
0.015937
0.0159253
0.0205493
0.0216174
0.577146
0.00991051
0.00828137
0.0274544
0.0187529
5.98365e-05
5.69977e-05
5.31022e-05
4.87196e-05
4.41896e-05
3.95225e-05
3.47266e-05
2.98244e-05
2.48673e-05
6.39602e-05
6.03074e-05
5.56692e-05
5.06999e-05
4.56662e-05
4.0635e-05
3.56316e-05
3.07256e-05
2.60507e-05
6.92936e-05
6.47916e-05
5.93504e-05
5.36958e-05
4.80911e-05
4.26125e-05
3.73043e-05
3.22448e-05
2.75658e-05
7.65622e-05
7.10935e-05
6.46811e-05
5.81843e-05
5.18601e-05
4.57842e-05
4.00047e-05
3.45865e-05
2.96269e-05
8.67135e-05
8.00573e-05
7.23973e-05
6.48044e-05
5.75188e-05
5.06133e-05
4.41257e-05
3.80939e-05
3.25554e-05
0.000101079
9.28754e-05
8.35486e-05
7.44727e-05
6.58634e-05
5.77899e-05
5.02727e-05
4.33247e-05
3.6947e-05
0.00012165
0.000111291
9.96612e-05
8.85325e-05
7.80778e-05
6.83559e-05
5.93683e-05
5.11166e-05
4.36033e-05
0.000151546
0.000137834
0.000122956
0.000108967
9.59365e-05
8.38904e-05
7.28081e-05
6.26913e-05
5.35728e-05
0.00019513
0.000175995
0.000156614
0.000138692
0.000122094
0.000106785
9.27179e-05
7.98853e-05
6.83293e-05
0.00025717
0.000230287
0.000205084
0.000181912
0.000160456
0.000140616
0.000122332
0.000105572
9.03217e-05
0.00034178
0.000306337
0.000274371
0.00024448
0.000216564
0.000190556
0.000166436
0.000144168
0.000123703
0.00045244
0.000411376
0.000372311
0.000334124
0.00029784
0.000263656
0.000231695
0.000201959
0.00017443
0.000595479
0.000555549
0.000508782
0.000460353
0.000413425
0.000368717
0.00032657
0.00028706
0.000250303
0.000796409
0.000753339
0.000695353
0.000633669
0.00057332
0.000515441
0.000460521
0.000408704
0.000360242
0.00107753
0.00101847
0.0009427
0.000863696
0.00078679
0.000712978
0.000642653
0.000575865
0.000512573
0.00145055
0.00135821
0.00125737
0.00115707
0.00106071
0.000968518
0.000880554
0.000796794
0.000717168
0.00190457
0.00176989
0.00164029
0.00151658
0.001399
0.00128681
0.00117962
0.00107741
0.000980579
0.00241063
0.00224411
0.00208865
0.00194241
0.00180368
0.00167114
0.00154405
0.00142216
0.00130585
0.00296131
0.00277587
0.00260066
0.00243503
0.00227701
0.00212531
0.00197892
0.0018373
0.00170048
0.00356142
0.0033678
0.00317868
0.00299757
0.00282341
0.00265517
0.00249159
0.00233193
0.00217645
0.00422332
0.00402838
0.0038292
0.00363625
0.00344997
0.00326922
0.00309204
0.00291692
0.00274352
0.00496489
0.0047692
0.00456087
0.0043592
0.00416589
0.00397844
0.0037935
0.00360824
0.00342148
0.00581258
0.00560286
0.00538231
0.00517505
0.0049815
0.0047956
0.00461161
0.00442495
0.00423423
0.00679866
0.00653834
0.00629866
0.00609073
0.00590679
0.00573392
0.00556298
0.00538677
0.00520357
0.00794869
0.00757016
0.00730992
0.00711192
0.00695259
0.00680784
0.00666559
0.00651718
0.00633465
0.000819442
0.000803354
0.000791441
0.000783668
0.000780022
0.000780406
0.000784705
0.000792716
0.000804235
0.000818961
0.000836573
0.000856692
0.000878845
0.000902549
0.000927203
0.000952199
0.000976878
0.00100055
0.00102253
0.00104211
0.00105854
0.001071
0.00107827
0.00107854
0.00107093
0.00105707
0.00103744
0.00101157
0.00097836
0.000940127
0.000897731
0.000851511
0.000802003
0.00075014
0.000696777
0.000642729
0.000588769
0.000535617
0.000483931
0.00043429
0.000387179
0.000342992
0.000302008
0.000264409
0.000230273
0.000199645
0.000172549
0.000148962
0.000128776
0.000111816
9.78336e-05
8.65257e-05
7.75721e-05
7.06581e-05
6.55047e-05
6.18715e-05
5.95687e-05
5.84576e-05
5.84223e-05
0.000838571
0.000824771
0.000814853
0.000808823
0.00080663
0.00080816
0.000813223
0.00082154
0.000832785
0.00084672
0.000863055
0.000881446
0.000901491
0.00092273
0.00094465
0.000966698
0.000988279
0.00100878
0.00102756
0.001044
0.00105745
0.00106724
0.00107261
0.00107264
0.00106634
0.00105314
0.00103292
0.00100601
0.000973243
0.000935655
0.000893931
0.000848581
0.000800166
0.000749356
0.000696887
0.000643516
0.000589991
0.00053703
0.000485296
0.000435384
0.000387808
0.000343001
0.000301306
0.00026298
0.000228199
0.000197074
0.000169654
0.000145907
0.000125715
0.000108844
9.49802e-05
8.3794e-05
7.49501e-05
6.81211e-05
6.30167e-05
5.93936e-05
5.70491e-05
5.58471e-05
5.56684e-05
0.000840335
0.000827831
0.000818743
0.000813067
0.000810769
0.00081178
0.000815986
0.000823228
0.000833295
0.000845932
0.000860842
0.000877684
0.000896073
0.000915575
0.000935711
0.000955964
0.00097578
0.000994578
0.00101176
0.00102669
0.00103873
0.00104718
0.00105127
0.0010502
0.00104326
0.00103002
0.00101036
0.000984478
0.000952905
0.000916403
0.000875695
0.000831412
0.000784172
0.000734634
0.000683485
0.000631428
0.000579159
0.000527347
0.00047662
0.00042755
0.000380644
0.000336344
0.000295023
0.000256984
0.000222458
0.000191602
0.00016448
0.000141054
0.000121176
0.000104598
9.10097e-05
8.00586e-05
7.13979e-05
6.46999e-05
5.96741e-05
5.60779e-05
5.3718e-05
5.24545e-05
5.21663e-05
0.000818828
0.000807183
0.000798744
0.000793479
0.000791328
0.000792198
0.000795968
0.000802483
0.000811554
0.000822956
0.000836426
0.000851662
0.00086832
0.000886011
0.000904303
0.00092272
0.000940747
0.000957833
0.000973395
0.000986822
0.000997469
0.00100466
0.00100772
0.00100596
0.000998787
0.000985817
0.000966914
0.000942233
0.000912196
0.000877401
0.000838497
0.00079613
0.00075094
0.000703575
0.000654687
0.000604928
0.000554937
0.000505331
0.000456694
0.000409564
0.000364435
0.000321744
0.000281877
0.000245156
0.000211835
0.000182079
0.000155956
0.000133426
0.000114336
9.84412e-05
8.54387e-05
7.49758e-05
6.67002e-05
6.02906e-05
5.54682e-05
5.20007e-05
4.9701e-05
4.8433e-05
4.80795e-05
0.000783437
0.000772792
0.000765097
0.000760315
0.000758385
0.000759213
0.000762679
0.000768637
0.000776907
0.00078728
0.000799512
0.000813327
0.000828409
0.000844403
0.000860913
0.000877501
0.000893689
0.00090896
0.000922764
0.00093452
0.000943625
0.000949457
0.000951406
0.000948899
0.000941459
0.000928771
0.00091072
0.000887415
0.000859169
0.00082645
0.000789816
0.000749867
0.000707224
0.000662514
0.000616359
0.000569375
0.000522158
0.000475286
0.000429309
0.000384742
0.000342057
0.000301679
0.000263987
0.000229296
0.000197849
0.000169803
0.000145214
0.000124033
0.000106109
9.1203e-05
7.90134e-05
6.92085e-05
6.14563e-05
5.545e-05
5.09222e-05
4.76508e-05
4.54595e-05
4.42188e-05
4.38174e-05
0.000733671
0.000723757
0.000716591
0.000712137
0.000710331
0.000711078
0.000714255
0.000719715
0.000727281
0.000736748
0.000747882
0.000760422
0.000774071
0.000788498
0.000803334
0.000818173
0.000832572
0.000846051
0.000858107
0.000868211
0.000875815
0.000880363
0.000881327
0.000878219
0.000870639
0.000858333
0.00084121
0.000819361
0.000793032
0.000762605
0.000728557
0.000691427
0.000651799
0.000610264
0.000567402
0.000523792
0.000479984
0.000436511
0.0003939
0.000352632
0.000313148
0.000275847
0.000241075
0.000209124
0.000180212
0.000154472
0.000131943
0.000112566
9.61908e-05
8.25868e-05
7.14711e-05
6.25358e-05
5.54741e-05
5.00043e-05
4.58775e-05
4.28878e-05
4.08734e-05
3.97148e-05
3.93096e-05
0.000671575
0.000662359
0.000655666
0.000651469
0.000649717
0.000650317
0.000653158
0.000658095
0.000664956
0.000673541
0.000683625
0.000694956
0.000707252
0.000720203
0.000733462
0.000746661
0.000759388
0.000771196
0.00078163
0.000790211
0.000796446
0.000799849
0.000799974
0.000796417
0.000788826
0.000777009
0.000760903
0.000740597
0.000716282
0.000688274
0.000656998
0.000622931
0.000586634
0.000548662
0.000509535
0.000469796
0.000429939
0.000390452
0.000351841
0.000314535
0.000278924
0.000245358
0.000214139
0.00018552
0.000159683
0.000136731
0.000116683
9.94709e-05
8.4947e-05
7.28962e-05
6.30595e-05
5.51586e-05
4.89189e-05
4.40868e-05
4.0441e-05
3.77976e-05
3.60115e-05
3.49752e-05
3.45972e-05
0.00059512
0.000586301
0.000579812
0.000575652
0.000573788
0.000574146
0.000576613
0.000581056
0.000587295
0.000595116
0.000604323
0.000614638
0.00062579
0.000637474
0.000649384
0.000661217
0.000672607
0.000683103
0.000692305
0.000699723
0.000704916
0.00070745
0.000707012
0.000703307
0.000695959
0.000684875
0.000669999
0.000651446
0.000629303
0.000603843
0.000575484
0.000544667
0.000511987
0.000477973
0.000443008
0.000407624
0.000372271
0.000337359
0.000303403
0.000270717
0.000239631
0.000210426
0.000183347
0.000158599
0.000136334
0.000116606
9.94339e-05
8.47288e-05
7.23441e-05
6.2081e-05
5.37111e-05
4.69949e-05
4.16968e-05
3.76013e-05
3.45199e-05
3.22949e-05
3.08005e-05
2.99433e-05
2.9643e-05
0.000501237
0.000492468
0.000485915
0.000481664
0.000479728
0.000480004
0.000482319
0.0004864
0.000492272
0.000499959
0.000508857
0.000518689
0.000529104
0.000539728
0.000550529
0.000561188
0.000571683
0.000581872
0.000590778
0.000597619
0.000602115
0.000604031
0.00060334
0.000599755
0.000593067
0.000583115
0.000569924
0.000553526
0.00053381
0.000510915
0.000485506
0.0004581
0.000429295
0.000399623
0.000369385
0.000338619
0.000307959
0.000278424
0.000249912
0.000222444
0.000196445
0.000172151
0.00014971
0.000129236
0.000110827
9.46175e-05
8.05811e-05
6.86937e-05
5.87414e-05
5.04558e-05
4.36511e-05
3.81762e-05
3.38697e-05
3.05592e-05
2.80854e-05
2.63289e-05
2.5188e-05
2.45796e-05
2.44321e-05
0.0158573
0.0142486
0.0127815
0.0114135
0.0101253
0.00891591
0.00778972
0.00675208
0.00580562
0.0049493
0.00420074
0.00357684
0.00307301
0.00266928
0.00233049
0.00203851
0.00179355
0.00159469
0.00143714
0.00131107
0.00120652
0.0011157
0.00103239
0.000951267
0.000867083
0.0151464
0.0139353
0.0126237
0.0113083
0.0100316
0.00881655
0.00768003
0.00663316
0.00568305
0.00483678
0.00410231
0.00348204
0.00296974
0.0025523
0.00221263
0.00193602
0.00171212
0.00153257
0.0013897
0.00127552
0.00118202
0.00110198
0.00102932
0.000958781
0.000885366
0.0151763
0.0138888
0.0125489
0.0112102
0.00990847
0.00867017
0.00751573
0.006459
0.00550921
0.00467244
0.00395058
0.00334033
0.00283411
0.00242111
0.00208874
0.00182434
0.00161595
0.00145267
0.00132487
0.00122402
0.00114239
0.001073
0.00100981
0.000947701
0.000882519
0.0153483
0.0139115
0.0124825
0.0110853
0.00974404
0.0084799
0.00731087
0.00624987
0.00530488
0.00447916
0.00377097
0.00317429
0.00268049
0.00227921
0.00195904
0.00170791
0.00151352
0.00136417
0.00124944
0.00116034
0.00108906
0.00102871
0.000973339
0.00091795
0.00085832
0.015548
0.0139687
0.0124331
0.0109594
0.00956647
0.0082707
0.00708568
0.0060209
0.00508115
0.00426652
0.00357254
0.00299137
0.00251327
0.00212743
0.00182227
0.00158562
0.00140506
0.00126866
0.00116575
0.0010871
0.00102483
0.000972165
0.000923342
0.000873714
0.000819744
0.0157161
0.0140104
0.0123673
0.0108129
0.00936557
0.0080375
0.00683713
0.00576967
0.00483625
0.00403384
0.00335573
0.00279243
0.00233292
0.00196537
0.0016775
0.00145666
0.00129025
0.00116636
0.00107433
0.00100502
0.000950647
0.000904663
0.000861585
0.00081705
0.000767648
0.0158685
0.0140289
0.0122714
0.0106339
0.00913301
0.00777458
0.00656082
0.00549243
0.00456707
0.00377888
0.00311909
0.00257658
0.00213877
0.00179233
0.00152391
0.00132025
0.00116857
0.00105711
0.000975484
0.00091476
0.000867423
0.000827229
0.000788999
0.000748666
0.000703292
0.0160282
0.0140111
0.0121254
0.0104058
0.00885674
0.0074734
0.00625039
0.00518382
0.00426918
0.00349813
0.00285986
0.00234172
0.00192948
0.00160732
0.00136073
0.0011758
0.00103959
0.000940698
0.000869202
0.000816563
0.000775549
0.000740307
0.000705875
0.000668375
0.000625529
0.016152
0.013919
0.0119017
0.0101105
0.00852571
0.00712687
0.00590142
0.00483942
0.00393798
0.00318788
0.00257455
0.00208517
0.00170389
0.00140974
0.00118761
0.00102318
0.000903165
0.000816977
0.000755572
0.000710863
0.000675612
0.000644777
0.00061288
0.000575281
0.00053146
0.560756
0.540676
6.07238
0.842104
0.000378288
0.000556913
0.0331251
6.09922e-05
4.75282
3.35552e-05
3.03807
0.000312646
0.00313313
0.00140334
0.0258021
0.000347231
3.25543
0.642066
2.15052e-05
0.105791
0.0044963
0.000171821
3.36784
0.0019619
5.33043e-05
9.92811e-05
4.97539e-05
0.00877052
0.793495
2.97271
2.41736e-05
0.000141057
2.57835
0.00547848
2.917
0.000219921
0.0171829
0.0261281
0.0184945
0.000321327
3.94562
7.45016e-05
0.00013336
0.0224734
0.00444003
0.000263626
4.84297
5.71009
1.35159
1.39505
4.44047
3.32771
0.00273438
0.535081
0.0305642
4.58978
0.00117986
0.002912
0.000202003
3.24274
0.000362258
6.46789
0.00037872
0.000266158
6.31565e-05
0.0211267
0.000144761
0.00782418
0.00349388
1.351
4.10363
0.000239479
0.000169552
0.0932702
5.12672e-05
0.00402503
0.0674772
5.06728
5.53297e-05
0.385293
0.00485215
0.000528817
7.49996e-05
3.04017
0.000343426
0.000398636
0.000130114
4.89618
2.6391
0.00126094
0.00230648
0.000396187
5.75674e-05
0.000340545
0.000225196
3.05905
0.000105502
3.47092
0.000184042
3.15257
0.00300873
3.87426
0.00359997
0.000239811
0.000154303
0.00455629
3.59078
0.00474871
0.000220093
2.98622
0.000194681
0.000345986
3.50814
0.000225166
0.00269773
1.30033
2.69644
0.000267317
0.0025387
0.000252826
1.93287e-05
0.000324397
0.00191964
6.01092e-05
2.7557
0.00013088
3.35142
0.0562695
0.000145465
5.68283
7.11247e-05
0.0881053
1.41305
0.0138792
0.0111707
0.000133221
0.00415331
0.00172457
0.000311932
0.121401
0.000148244
0.0176303
3.38955
2.62329e-05
0.962756
0.000414674
1.05712
0.0214623
0.000348457
2.91269
0.00581464
0.000640712
1.0596
0.0396266
7.75989e-05
2.95146
0.000101497
0.000250426
0.0604367
8.67616e-05
0.00013196
4.19879
0.000185286
3.71776
9.52833e-05
3.7973
0.00142366
4.72926e-05
0.000446498
0.000123816
0.00122774
0.000278165
0.00804104
3.3404
0.000149654
0.00588834
0.0103335
1.07354
1.95319
0.000154585
0.0114511
0.000140392
0.00263063
0.0135881
0.0170846
9.82933e-05
4.17162
0.000209996
1.66262
0.000328914
4.77408
3.26868
1.14998
0.0171461
0.0318159
1.92016
4.99438e-05
0.000165539
1.12005
0.637597
0.00652371
0.000472135
0.000485714
0.000352807
0.00439674
6.51056e-05
0.00017889
0.00364611
1.46411
0.00019718
0.000144139
0.000390205
0.0105832
0.00403531
0.00706217
4.53764
0.000282244
7.00525e-05
0.000384618
0.00222207
0.00313215
8.7492e-05
9.71845e-05
6.16066
0.0119831
2.96403
0.0010472
3.22581
0.000197868
0.000197576
2.71746
0.000223476
0.00014689
8.30371e-05
0.0183347
4.37353e-05
0.0520996
0.00542145
0.0140543
0.0421847
3.14073e-05
0.000366209
9.6536e-05
0.0144217
0.000150396
0.000113913
0.00012825
0.00660848
0.000334653
8.51464e-05
0.000164198
0.00645459
6.71162e-05
1.28854
0.00015812
5.26466e-05
3.36866
0.0631027
0.0580589
2.14371e-05
0.00701151
0.000192096
0.000232279
6.55661e-05
0.0830105
6.99604e-05
6.91649e-05
1.40356
0.0340383
4.70421e-05
0.00634574
1.23971
0.000196137
7.17076e-05
2.3269e-05
1.41334
0.000241176
4.81579
0.00121898
3.84534
0.0243476
0.00611191
0.00629545
0.000260433
1.98009
0.000360856
0.00504216
0.0465317
4.30212
5.02771
0.0445194
0.00020108
4.21682e-05
4.5924
0.0195294
4.41373
4.06741
0.000261279
9.12729e-05
2.39787
3.48227
0.000130337
0.000569209
0.000377042
3.6983
8.09736e-05
0.00483608
7.5556e-05
0.121498
0.000492871
0.000242673
0.000106112
2.08871
0.00011299
0.000207958
0.0179242
5.35356
7.42429e-05
5.44161e-05
0.0281168
0.0602092
0.000113524
0.000664741
2.40611e-05
0.000142046
7.0178e-05
2.6164
0.00512941
0.000230883
0.00312017
9.06702e-05
0.0304647
0.00245667
3.70517e-05
4.44891
0.000433321
0.000115309
8.09699e-05
1.94647e-05
0.00694609
0.00041739
0.000265961
2.61705
9.4833e-05
0.0777275
0.000288855
0.000833959
0.00016089
0.000128474
4.63938
0.304766
5.95863e-05
0.000191302
0.0563085
4.63909
0.00907806
0.0509629
0.020852
9.90118e-05
5.1224
1.47339
2.95676
7.66892e-05
2.85727
5.55224e-05
0.00011519
0.000379208
5.46959
0.000205935
1.53311
0.000162367
0.0393585
0.7733
3.14329
0.00315063
9.78889e-05
0.000189247
8.91637e-05
0.000100516
4.02091e-05
3.97375
0.000268456
2.7293
0.0248867
0.022409
0.0366893
9.67989e-05
0.102155
2.75212
4.80787
0.02315
6.67307e-05
0.00343345
2.44393
0.0114743
2.67477e-05
8.43352e-05
2.51426
0.000248147
0.819905
6.34912e-05
0.000135564
0.000344606
0.998063
0.000229511
5.1378e-08
0.0292389
0.00384577
0.0207209
3.19735e-05
1.83813
0.000220814
2.37815
0.000298065
0.000100987
0.00188265
1.5044
4.6354
0.000178153
0.000380678
0.000101267
0.000100386
0.00145162
0.00447379
0.000384378
4.4053
8.67725e-06
0.000777161
5.4627e-05
0.000136804
0.000330276
5.81679e-05
0.00133294
4.97099e-05
0.0432012
0.000357016
0.000190167
2.76978e-05
0.000153297
0.00107415
7.99375e-05
0.0420145
4.56313
0.0208636
0.0038467
4.87356
0.00638785
2.48046
0.000143354
5.68484e-05
3.11885
0.000121881
0.000185008
2.22297
0.000100442
1.25243
4.7661
0.000383063
0.00243699
0.0490645
0.000201727
0.0158908
1.74493
0.00957717
3.96807
8.38035e-05
0.000191023
6.53902
7.69498e-05
2.79852
0.00583618
9.53212e-05
2.93073
0.00116309
6.10868e-05
0.00420144
0.00103829
8.228e-05
0.0211454
0.0152714
0.00729087
0.0177092
6.09651e-06
0.000280165
2.93524
0.000276274
0.000483965
0.000308782
1.33013
0.000170862
0.0304425
0.000240298
0.000158824
2.33759
0.000193069
0.000352255
0.0288357
0.00033443
6.73319e-05
1.48814
0.000134083
0.0431999
0.000253906
0.0117246
0.00926263
0.00665708
0.000343563
0.000317867
0.0307539
0.000130626
0.000132064
0.00603082
0.000147246
0.000888787
0.000102868
5.41902
3.58824
1.6068
0.000107076
0.0136789
5.13719e-05
4.98672
0.108813
2.56047
0.00534759
0.000314885
4.22524
3.7899
6.7015e-05
0.000327127
0.00632395
0.000183507
1.78317
3.34065
0.000284293
0.0255087
0.00013757
2.06405
1.22897
0.000256152
0.0269042
3.03601
0.000159752
3.91123
0.000246906
5.32126
0.000148505
0.00255712
0.00032602
4.67306
0.0177391
0.0178168
0.000137252
1.33766
1.56191
5.47962
8.08905e-05
8.62421e-05
0.00270278
1.69234
6.3939e-05
0.0136437
0.000138827
0.00346552
2.95235
2.73496e-05
0.0122494
0.000160407
0.000137954
0.00892389
2.27079
0.000359387
0.0201061
0.000247458
0.000402057
3.44809
5.08641
1.75323
0.00292254
0.00972984
0.116452
0.00251149
0.000460425
5.52134e-05
6.19042e-05
2.49149
0.000148454
0.000573962
0.0384349
0.000410678
0.000946777
0.000492896
0.000248685
0.0378183
0.000107245
0.000224437
0.00446398
1.66222
0.00029892
0.000132396
2.64991
0.00858551
6.7181e-05
0.000768126
0.0515693
0.000168578
0.000380278
5.12056e-05
0.0311519
0.000123682
0.000135561
0.0180139
0.000104645
0.000425655
0.00377996
0.00324544
0.000121094
0.00078094
5.36118
0.000292145
6.75249e-05
0.000112687
7.59704e-05
0.0011716
0.000143618
3.04211
5.86779
0.0077939
2.32547
7.01334e-05
4.88098e-05
8.16258e-05
0.000113304
0.000410563
0.000241754
0.00449168
0.00121478
0.000123074
0.000553062
0.0320924
0.0110783
0.0022277
0.0208275
0.000154469
0.000483804
7.53145e-05
0.00291242
0.0250126
2.96341
0.0371634
0.0554002
0.000136086
3.28302e-05
0.000162256
0.000336716
4.39922e-05
5.12568
2.1066e-05
0.00853387
0.000105821
1.92878
0.207019
2.95831
1.96728e-05
8.29568e-05
5.97732e-05
3.84812
2.61641
0.0164068
0.00260548
0.000123871
2.75227e-05
0.000321733
3.31777
3.04817e-05
9.79467e-05
0.0148611
0.000196777
0.000175493
4.58822e-05
0.000187674
0.00308835
0.000847263
7.88863e-05
7.0042e-05
0.00285121
8.90967e-05
0.996839
4.05819
0.000134939
0.0282655
0.000205613
2.90932
6.43941e-05
8.97272e-05
8.90685e-05
9.36736e-05
0.0468346
0.000323475
0.000132176
0.00020673
0.00656835
0.000153902
0.000316776
0.000212781
4.03457
0.0263598
0.00525336
5.37199
0.030772
1.34332
2.92926
2.26357e-05
9.70173e-05
7.50088e-05
2.13394e-07
0.000236051
0.0240313
0.000403948
0.000180306
0.00286332
3.727e-05
4.10433e-05
0.00975796
0.000109924
7.84052e-05
7.36911e-05
0.00528305
0.00625942
4.01627
2.94329e-05
2.09499
0.0344753
1.02345
0.00894824
3.96892
4.2857
1.77476
7.17499e-05
0.000339244
1.30575e-05
0.00530813
0.000170349
0.0214905
0.773368
7.28187e-05
0.06812
0.0211533
0.000110054
6.92481e-05
0.000239428
5.64475
4.55595
0.000106313
0.0385792
0.0400514
0.00291493
2.32538
1.89233e-09
8.29826e-05
0.0102583
1.94807e-05
0.677264
0.0214306
3.11292
0.0383223
6.00377e-05
0.0386695
0.000246533
1.5751e-06
0.015457
0.000823574
0.00214852
8.96533e-05
0.000130882
0.022071
0.00034878
8.93267e-05
0.000133894
0.000245157
0.0127995
0.000304276
3.37859
0.0289257
0.000151831
0.217053
0.000282193
0.114545
0.000480268
5.34827e-05
0.000161109
0.00993982
0.00641004
2.42733e-05
0.000192203
4.6902
4.22344
0.0357091
0.00033194
0.0184057
0.0139486
0.0451968
5.21394
0.0141409
0.00202716
0.000109764
3.44192
0.000184117
6.14778e-05
0.0031836
1.92171
5.53625
0.000153218
0.000250385
1.44515
7.16345e-05
5.01744
2.12169
0.000173588
0.000152365
5.57164
0.800529
0.868065
8.86039e-05
8.3475e-05
0.000107425
0.0158786
0.0173358
0.000116818
6.09408e-05
0.000427266
0.0331366
0.000558444
0.0112268
0.839747
2.83827e-05
0.000139645
4.0067
3.32397e-05
0.00565803
0.000359866
0.00941546
0.000112163
0.000154571
0.0157421
0.00022403
7.75634e-05
6.81432e-05
0.00712226
0.00621183
4.65644
7.5927e-05
7.40643e-05
0.000170389
0.0214868
0.118301
5.65739
0.00022727
0.00532477
0.0281265
1.06495e-06
5.82903e-05
0.00076012
2.77031
0.000159894
0.0934105
0.000367221
5.78219e-06
0.0186273
0.000322635
2.86086
2.14058
0.0192786
3.45553
3.87446
5.52934
3.48409e-05
2.16829
0.0180729
0.00013794
0.0294959
0.000186164
0.000800044
0.0610073
0.000310658
0.00196103
0.0106824
5.07881
0.000128023
9.12796e-05
2.06024
0.00160128
0.000389546
0.0303944
0.899054
0.0476574
6.13656e-05
0.00409453
5.42501
3.06154
0.0173021
0.00447937
1.30056
0.00139213
9.93506e-05
0.0149842
1.85055
0.000137409
0.0155289
0.000802519
2.11993
0.000388744
0.016063
0.809895
2.67129e-05
0.000535821
6.53836e-05
2.26413
0.0408648
2.18005
1.15149
0.000392839
0.00990645
0.0122202
0.00243191
0.728303
0.00288769
7.51561e-05
0.000349386
0.000290922
0.000126631
0.0185257
2.99261
0.000261697
2.25878
0.000189011
0.0497256
3.97595e-05
0.00019267
5.77839e-05
3.28271
1.93102
0.00807326
0.0073703
0.000122846
0.000172126
0.0419
4.80739e-05
0.0386892
0.0151728
3.07593
0.000352059
0.0072361
0.0445788
0.000365545
0.000419231
0.000479136
3.14336
0.000292183
0.00248647
0.0474072
0.0299629
0.000199257
0.002424
6.31061e-05
0.000207932
0.000287414
0.000169579
0.00404492
0.000108007
0.00515319
2.09462
0.1104
3.13976
0.000174116
0.00426883
0.0122059
9.70588e-05
0.924996
0.000446489
0.00118569
3.57324
0.000373808
0.00988104
0.00136143
4.86877e-05
1.40255
4.74457e-05
0.0083044
0.000138113
0.0350851
0.0398701
2.64644
0.000100727
0.042902
0.000129847
0.00969732
0.000340167
2.5854
0.0134729
0.00487453
3.03732
0.000440571
4.7383
0.000245181
1.19251
0.000652418
6.35279e-05
0.000262882
0.0173101
0.028474
0.000303109
6.23313e-05
0.0707063
7.85025e-05
6.91445e-05
0.000126496
0.000139126
0.000261028
5.55825
0.000415646
0.000220379
0.0402494
0.00753403
5.50914
0.000107088
9.81633e-05
0.000160859
0.00513802
0.000467897
0.000707385
3.71531
0.00656816
0.0213513
9.03487e-05
0.00266043
0.0209878
2.34596
8.41975e-05
5.33285e-05
0.000605503
0.000452122
0.000133013
0.0160218
4.69676
0.532395
0.0112376
0.000114736
0.0433504
3.08058
0.00556529
0.0480348
0.000374661
0.954004
2.84932
5.10683
0.000276063
0.000284674
0.00361602
2.11104
0.00041247
4.71638
0.00108251
0.0114276
1.66929
4.32745e-05
0.000416206
0.00107814
3.93088e-05
2.37178e-05
0.00135615
0.817823
2.5557e-05
2.07902
0.000111618
0.000149346
0.000102414
4.1583e-05
0.00320884
0.000360922
0.110455
0.0107425
0.000291559
0.000366573
1.13286
2.86351
7.35609e-05
0.000190596
0.000217449
0.021241
0.306875
0.00453706
3.62588
9.45731e-05
3.95365e-05
0.0027422
0.000241394
0.0039791
0.0395222
0.000104772
0.000117516
2.83183e-05
0.00194482
0.0125141
3.9777
0.0428161
4.19281e-05
0.00433003
3.76136e-05
3.32729
3.67352
0.000103892
3.82531e-05
0.0665748
0.000133126
0.000302577
1.11014
0.829237
0.00150904
4.78691e-05
0.000140871
0.0139976
0.819946
0.000163487
0.000138875
0.764683
2.20237
8.007e-07
0.000134804
9.59366e-05
0.000194873
0.0115137
0.00270546
0.00020305
0.0462898
0.000302191
0.000126409
0.000211623
0.0035896
0.000164781
4.21451
1.65195
3.13354
0.712205
0.038492
1.28323
0.000133463
3.1036
0.00399019
6.76868e-05
0.00402282
0.000309513
0.00334212
0.000118343
0.000208689
0.00022535
2.4777
5.68145e-05
0.00705003
0.0409236
0.00125367
0.00438052
0.00992944
5.08139
9.08412e-05
4.54266
3.44162
0.00103202
0.000162559
0.00346292
0.00575265
0.00265626
0.0356284
4.70084
0.000137877
0.000152484
0.000132044
0.0186167
3.50357
0.000400071
0.000922141
6.9332e-05
7.63845e-05
0.000509054
0.0102473
3.85123e-05
0.00149379
0.00283705
1.40421
7.23505e-05
0.00378831
4.14795
0.000311384
0.00508326
0.0028871
2.13887
0.00544016
0.0101579
0.00248241
0.000165685
3.49938
1.98989
0.000255934
0.0135059
0.0269531
8.89616e-05
0.000538322
0.000149367
0.0193554
0.0001249
0.00365515
5.84078e-05
0.03993
1.24883
0.0600418
1.26827
0.00225711
0.000438602
0.0674539
0.0370959
0.00104323
0.000280739
0.000551904
2.883
0.000149931
0.00425828
0.00016077
0.000314095
0.0151496
0.000288797
0.000176792
7.39262e-05
2.32047
0.0676238
3.7347e-05
0.000281956
2.68044e-05
0.00011847
0.000301884
1.31754
0.000237996
0.0234864
1.90207
0.0325368
3.49501e-06
0.0493714
0.752715
0.116041
1.00684
0.00233495
0.0116328
2.97465
2.89766
6.5395e-05
1.813
8.10052e-05
4.47853
0.0624667
3.09927e-05
0.00371306
0.0251456
4.88134
0.00806712
0.00589527
0.000127711
0.0352469
1.67486
0.0139393
3.07709
0.000353773
0.113963
4.67338e-05
1.99592
0.00436818
0.000154995
0.0002918
0.0790377
0.000229408
0.00125142
0.126558
0.000103008
1.26217
0.000170398
0.000127924
0.0622741
0.035853
0.001001
0.00285003
0.0310642
0.00039364
0.00569994
0.0217104
6.54905e-05
0.00842198
6.22041e-05
1.0611
0.0065638
7.32582e-05
4.12477
5.00983e-05
0.00411527
0.0195811
0.000117595
0.000172617
0.00376684
0.0148844
0.0304685
0.000180013
4.65834
0.00016931
0.00504335
4.43968
0.00525544
0.000314863
0.0324131
0.000255828
0.000117185
1.22776e-05
0.0499885
1.77408
0.000303741
2.43251
0.00382496
0.000303984
0.0169799
0.000187152
0.000367833
0.00444687