/*--------------------------------*- C++ -*----------------------------------*\
  =========                 |
  \\      /  F ield         | OpenFOAM: The Open Source CFD Toolbox
   \\    /   O peration     | Website:  https://openfoam.org
    \\  /    A nd           | Version:  10
     \\/     M anipulation  |
\*---------------------------------------------------------------------------*/
FoamFile
{
    format      ascii;
    class       volScalarField;
    location    "1100";
    object      k;
}
// * * * * * * * * * * * * * * * * * * * * * * * * * * * * * * * * * * * * * //

dimensions      [0 2 -2 0 0 0 0];

internalField   nonuniform List<scalar> 
10435
(
1.19958
1.35378
1.6287
1.68395
1.9758
1.83653
1.55983
1.32332
1.12408
1.76474
1.60298
1.80928
1.67009
0.857523
0.880693
1.55233
0.839527
1.71555
1.02697
1.27652
1.43535
1.55971
1.63623
1.32274
1.77206
0.522968
0.678227
1.64231
0.624434
1.73503
1.81165
1.71631
1.2561
0.631081
1.42653
1.01333
1.54307
0.698402
0.41286
1.13884
1.76129
1.59645
0.675651
1.51288
1.65836
1.24452
1.79325
0.661461
1.03502
1.42562
1.38288
1.8923
0.401392
0.556677
0.439636
0.581994
1.50049
0.715936
0.789797
1.36388
0.431649
1.22885
0.706173
1.93713
1.65568
1.67893
0.744363
0.753335
1.38186
1.36892
0.550482
0.620114
0.529963
1.68733
0.912082
0.668978
1.42064
1.5119
1.18136
0.901964
1.47373
1.07843
0.390449
0.564064
1.47755
1.00716
1.13786
1.55297
0.933675
1.23259
1.66159
1.76583
1.13835
0.985152
1.33598
0.929581
1.83646
0.882085
0.815803
1.93157
0.905451
1.98003
1.05427
1.4441
1.96211
1.605
1.19973
1.45611
1.47553
0.935201
1.37812
1.98557
1.02336
0.975504
1.88453
1.50044
1.94987
1.09237
1.54119
1.87798
1.94386
0.58378
1.19111
0.716742
1.81064
0.478397
1.87163
0.6182
1.9815
0.69593
0.667252
1.69776
1.46505
0.874886
0.659893
0.364813
0.835189
1.7362
1.42178
1.42923
1.35376
1.74814
0.705235
1.91746
1.59974
0.792165
0.769783
1.89865
0.81168
1.85112
0.616695
1.64882
1.23269
1.85306
1.84377
0.569503
1.90069
1.30275
1.79889
1.41007
1.77449
0.852941
1.77155
1.64026
0.952929
1.98058
1.25546
1.76675
1.59954
1.95788
1.808
0.473489
0.619491
0.825008
1.74429
1.26768
1.11331
0.772736
1.32213
0.6651
1.47864
1.88189
1.85133
0.456097
1.75588
0.601176
0.606776
1.48653
1.97039
1.91636
1.89916
0.383363
0.668805
0.915749
1.95995
1.43551
0.749522
0.936914
0.720816
1.55929
0.950104
0.678949
1.65891
0.707217
1.6605
1.90644
1.65973
1.76101
0.712696
1.61923
0.555639
1.63167
1.94511
1.67815
0.665179
0.82801
1.00177
0.44545
0.528894
0.834418
0.637965
0.807412
0.737524
0.788079
0.556018
1.45641
0.466978
0.885593
1.86459
0.69009
0.781141
1.35495
0.4961
1.64011
0.723052
0.823047
1.47747
0.559988
1.48959
1.81019
1.4191
0.511109
0.461196
0.579717
1.84286
1.16306
0.86139
1.37601
0.499728
1.13436
0.514889
1.00496
1.69319
1.62722
1.4312
1.97258
0.457598
1.46869
0.524684
0.665466
1.50505
1.84281
0.514167
1.51594
1.05897
0.799904
1.32457
1.73354
0.423154
1.9535
1.54052
1.29084
1.37816
1.73981
0.564943
1.87411
0.693244
1.94832
1.5068
1.24205
1.71837
0.750857
1.57016
0.856918
1.06963
0.406969
1.95904
0.438329
0.570283
0.647157
0.80731
1.56069
0.708053
1.33147
0.419275
0.542189
0.766822
1.12566
1.89423
1.77222
0.746889
1.52169
1.59208
0.540755
1.81343
0.852036
0.802222
1.63162
1.73338
0.572704
1.26215
0.642612
1.01539
1.93108
1.22537
0.544886
0.467691
1.86575
0.771616
1.77777
1.9253
0.670685
1.14649
0.376778
1.18717
1.68163
0.605029
1.61084
0.773376
0.712935
1.24991
0.671388
0.571436
1.59074
1.76093
0.727931
0.547944
0.519863
0.594946
0.598978
0.633681
0.597091
0.422704
0.619531
0.595552
0.616141
0.740818
0.735473
0.370743
1.12707
0.57675
1.70626
0.662789
1.62784
1.1337
0.986579
1.65553
1.70137
0.570778
0.604821
0.532965
0.489375
0.584911
0.413487
0.649951
0.655054
0.727305
1.72089
0.639612
1.08975
0.463736
0.679528
1.66449
0.924429
0.409879
0.680573
0.700426
0.70625
0.600772
0.559047
0.799401
0.449918
1.21945
0.74668
1.32987
1.08606
1.6412
1.6503
1.04239
1.62233
1.32669
0.725435
0.533757
0.608911
0.555086
1.60626
0.587604
1.67271
0.773211
0.673776
0.693764
0.694961
0.487012
1.55539
0.703673
1.27645
1.62614
0.481002
0.591643
0.732799
0.950689
0.74139
0.616818
0.530219
0.583932
0.704754
0.633504
1.63216
0.550414
0.594164
0.632084
0.642883
1.69673
0.413288
0.375597
0.856218
0.598195
0.104715
0.102235
0.0983915
0.0938591
0.0890381
0.083988
0.0787678
0.0734593
0.0681679
0.104692
0.101784
0.0977351
0.0931528
0.0883298
0.083377
0.0783697
0.0734312
0.0687376
0.104354
0.101115
0.0969032
0.0922774
0.0874892
0.0826502
0.0778537
0.0732292
0.0689519
0.103908
0.100408
0.0960491
0.0913925
0.0866494
0.081923
0.07731
0.0729276
0.0689164
0.103529
0.0998171
0.0953176
0.0906314
0.0859259
0.081295
0.0768267
0.072617
0.0687597
0.103379
0.0994884
0.0948488
0.0901208
0.0854317
0.0808674
0.0765029
0.0724144
0.0686696
0.103656
0.0995847
0.0947859
0.0899884
0.0852842
0.0807513
0.0764523
0.0724518
0.0688101
0.104672
0.100288
0.0952796
0.0903714
0.0856144
0.0810737
0.076801
0.0728555
0.0692987
0.106735
0.101773
0.0964947
0.091431
0.0865813
0.0819898
0.0776983
0.0737593
0.0702313
0.109859
0.104166
0.0986121
0.093363
0.0883839
0.0836971
0.0793372
0.0753468
0.0717672
0.113731
0.107555
0.101835
0.0964076
0.0912741
0.0864505
0.081973
0.0778777
0.0741933
0.117994
0.112091
0.106416
0.100859
0.0955611
0.0905673
0.0859291
0.0816855
0.0778699
0.122822
0.11817
0.11272
0.107077
0.101604
0.0964084
0.0915688
0.0871347
0.0831564
0.130443
0.126593
0.121244
0.115464
0.109771
0.104327
0.0992365
0.0945628
0.0903707
0.142075
0.138023
0.132417
0.126352
0.120352
0.114593
0.109188
0.104205
0.0996912
0.157898
0.15264
0.146396
0.139877
0.133469
0.127323
0.121547
0.116216
0.111378
0.176817
0.170041
0.163005
0.155941
0.149061
0.142477
0.136287
0.130577
0.125427
0.197163
0.189538
0.181874
0.174304
0.166952
0.159919
0.153296
0.14717
0.141629
0.218611
0.210734
0.202698
0.194732
0.186968
0.17952
0.172483
0.16594
0.15997
0.241335
0.233581
0.225359
0.217105
0.209009
0.201217
0.193826
0.186921
0.180597
0.265734
0.258242
0.24989
0.241404
0.233061
0.225018
0.217362
0.210163
0.203505
0.292327
0.284956
0.276375
0.267657
0.259148
0.250976
0.243189
0.235826
0.228955
0.321876
0.313954
0.304854
0.295863
0.287289
0.27915
0.271421
0.264091
0.257238
0.355335
0.345295
0.335201
0.32592
0.317438
0.309557
0.302129
0.29506
0.288435
0.393668
0.378466
0.36705
0.357644
0.349533
0.342211
0.335385
0.328883
0.322021
0.182532
0.182565
0.183288
0.184702
0.186819
0.189629
0.193119
0.197258
0.202016
0.20734
0.213177
0.219462
0.226114
0.233049
0.240163
0.247352
0.254501
0.261491
0.268199
0.274506
0.280274
0.28536
0.28956
0.292583
0.294264
0.294806
0.294239
0.292454
0.289243
0.284924
0.279596
0.273279
0.26603
0.257981
0.24926
0.240005
0.230354
0.220449
0.210432
0.200441
0.190606
0.181046
0.171857
0.16312
0.154887
0.147211
0.140144
0.133742
0.128037
0.123052
0.118786
0.11521
0.112283
0.109946
0.108145
0.106822
0.10593
0.105427
0.105281
0.183533
0.1839
0.184912
0.186583
0.188915
0.191898
0.195507
0.199705
0.204441
0.209674
0.215353
0.221418
0.227797
0.234409
0.241164
0.247965
0.254706
0.261278
0.267568
0.273461
0.278839
0.283579
0.287545
0.29057
0.292481
0.293155
0.292537
0.290634
0.28753
0.283351
0.278168
0.272031
0.265004
0.257173
0.248645
0.239541
0.229991
0.220129
0.210093
0.200017
0.190029
0.180252
0.170796
0.16176
0.153229
0.145284
0.137998
0.131431
0.125627
0.120591
0.116293
0.112697
0.109754
0.107399
0.10557
0.104206
0.103247
0.102657
0.102397
0.181707
0.182169
0.183226
0.184888
0.187158
0.19003
0.193488
0.197509
0.202058
0.207091
0.212556
0.218393
0.224533
0.230898
0.237404
0.243958
0.250459
0.256805
0.262885
0.268585
0.273787
0.278363
0.282172
0.285068
0.286914
0.287611
0.287102
0.285377
0.282477
0.278481
0.273469
0.267507
0.260669
0.25304
0.244718
0.235813
0.226444
0.216735
0.206813
0.196808
0.186843
0.177043
0.167524
0.1584
0.149777
0.141753
0.134412
0.127816
0.121997
0.116957
0.112669
0.109084
0.106143
0.103782
0.101937
0.100548
0.0995625
0.0989419
0.0986468
0.176234
0.176703
0.177744
0.179365
0.181565
0.184335
0.187659
0.191514
0.195866
0.200676
0.205898
0.211474
0.217342
0.223431
0.229661
0.235944
0.242187
0.248289
0.254143
0.259635
0.264646
0.269051
0.272721
0.275524
0.277342
0.278079
0.277677
0.276121
0.273435
0.269674
0.264907
0.259203
0.252641
0.245304
0.237286
0.228687
0.219618
0.210193
0.20053
0.190752
0.18098
0.17134
0.161954
0.152944
0.144424
0.136498
0.129255
0.122756
0.117032
0.112083
0.107885
0.104382
0.101507
0.0991952
0.0973834
0.0960162
0.0950438
0.0944274
0.0941295
0.168349
0.168818
0.169833
0.171402
0.173521
0.176184
0.179374
0.183067
0.187233
0.191833
0.196824
0.202152
0.207758
0.213575
0.219528
0.225534
0.231505
0.237341
0.242941
0.248195
0.252987
0.257198
0.260709
0.263402
0.265173
0.265939
0.265644
0.264268
0.261818
0.258333
0.253865
0.24848
0.242253
0.235266
0.227607
0.219374
0.210668
0.201597
0.192277
0.182825
0.173363
0.164015
0.154906
0.146161
0.137896
0.130216
0.123205
0.116923
0.111397
0.106626
0.102579
0.0992051
0.09644
0.0942178
0.0924759
0.0911586
0.0902185
0.0896183
0.0893221
0.15808
0.158493
0.159435
0.160911
0.162919
0.165451
0.168491
0.172015
0.175993
0.180387
0.185153
0.190242
0.195596
0.20115
0.206832
0.212565
0.218261
0.223829
0.229169
0.234178
0.238747
0.242764
0.24612
0.248709
0.250437
0.251228
0.251032
0.249825
0.247608
0.244405
0.24026
0.235229
0.229385
0.222805
0.215572
0.207779
0.199521
0.1909
0.182029
0.173022
0.163999
0.155081
0.146391
0.138051
0.130176
0.122864
0.116197
0.11023
0.104989
0.100468
0.0966378
0.0934489
0.0908407
0.0887512
0.0871186
0.0858878
0.0850145
0.0844633
0.0841999
0.145718
0.146047
0.146886
0.148241
0.150112
0.152491
0.155364
0.158706
0.162489
0.166675
0.171221
0.176077
0.181188
0.186491
0.191916
0.197389
0.202827
0.208141
0.213237
0.218015
0.222375
0.22621
0.229423
0.231919
0.233609
0.234427
0.234327
0.233285
0.231296
0.228375
0.22456
0.219902
0.21447
0.208341
0.20159
0.194307
0.186578
0.1785
0.170186
0.161745
0.153286
0.144926
0.136782
0.128968
0.121594
0.114753
0.108519
0.102945
0.0980514
0.0938352
0.0902678
0.0873032
0.0848854
0.0829554
0.0814557
0.080335
0.0795505
0.0790684
0.0788564
0.131022
0.131193
0.131862
0.13304
0.13473
0.136926
0.139614
0.142772
0.146367
0.150362
0.154714
0.159369
0.16427
0.169355
0.174558
0.179813
0.185045
0.190159
0.195067
0.199666
0.203857
0.207542
0.210642
0.213077
0.214753
0.215619
0.215628
0.214765
0.213006
0.210362
0.206875
0.202591
0.197594
0.19196
0.185742
0.179035
0.17192
0.164481
0.15684
0.149083
0.141314
0.133633
0.126148
0.118967
0.112195
0.10591
0.100191
0.0950767
0.0905881
0.0867207
0.0834508
0.0807396
0.0785376
0.0767928
0.0754542
0.0744743
0.0738124
0.0734363
0.073314
0.113541
0.113439
0.113845
0.114786
0.116272
0.118292
0.12082
0.123807
0.127258
0.131169
0.135432
0.139982
0.144747
0.149652
0.154675
0.159747
0.164847
0.169926
0.174795
0.179302
0.183373
0.186937
0.18996
0.192363
0.194074
0.195035
0.195212
0.194574
0.193066
0.190674
0.187492
0.183584
0.179038
0.173943
0.168344
0.162238
0.155749
0.149106
0.142304
0.135354
0.128394
0.121518
0.114805
0.108344
0.102223
0.0965525
0.0913967
0.0868262
0.0828283
0.0793509
0.0763776
0.0739037
0.0719078
0.0703483
0.0691752
0.0683535
0.0678472
0.0676209
0.0676429
0.567894
0.527112
0.490742
0.45656
0.423683
0.391972
0.361568
0.33273
0.305704
0.280676
0.258412
0.239765
0.224936
0.21351
0.204294
0.196614
0.190606
0.186405
0.183959
0.182875
0.182666
0.182908
0.183212
0.183183
0.182324
0.540998
0.515128
0.484615
0.452612
0.420404
0.388684
0.358003
0.328815
0.30152
0.276563
0.254465
0.235609
0.220088
0.20771
0.198057
0.190734
0.185472
0.182048
0.180231
0.179718
0.180143
0.181126
0.182303
0.1833
0.183683
0.53701
0.510199
0.479974
0.44805
0.415568
0.38338
0.352188
0.32257
0.29503
0.270033
0.247951
0.229004
0.213249
0.200589
0.19081
0.18364
0.178772
0.175874
0.174618
0.174658
0.175641
0.177194
0.178939
0.180501
0.181506
0.537805
0.507704
0.475727
0.442676
0.409349
0.376485
0.344762
0.314776
0.287043
0.261984
0.239895
0.220931
0.205131
0.192433
0.182687
0.17566
0.171041
0.168462
0.167556
0.167938
0.169241
0.171085
0.173083
0.174855
0.176003
0.539595
0.506294
0.471974
0.437196
0.402596
0.368806
0.33643
0.306018
0.27804
0.252864
0.230735
0.211774
0.196004
0.183365
0.173715
0.166822
0.16237
0.159981
0.159263
0.159809
0.161231
0.163141
0.165157
0.166921
0.1681
0.540855
0.504714
0.46796
0.431257
0.395211
0.360374
0.327266
0.296371
0.268102
0.242773
0.220593
0.201657
0.185967
0.173444
0.163925
0.157163
0.152826
0.150526
0.149863
0.150413
0.151779
0.153575
0.15543
0.157004
0.157983
0.54172
0.502708
0.463403
0.424674
0.38711
0.351171
0.317278
0.285849
0.257246
0.231741
0.20951
0.190627
0.175065
0.162704
0.153347
0.146715
0.142457
0.140178
0.139468
0.139898
0.141064
0.142581
0.144087
0.145264
0.145858
0.54243
0.500017
0.457969
0.417189
0.378129
0.341098
0.306405
0.274403
0.245437
0.219742
0.197469
0.178677
0.163309
0.151165
0.142006
0.135515
0.131314
0.129004
0.12817
0.128384
0.129227
0.130309
0.131259
0.131763
0.131626
0.542385
0.496112
0.451274
0.408554
0.36813
0.330084
0.294625
0.262
0.232627
0.206741
0.184425
0.165772
0.150711
0.138858
0.129946
0.12362
0.119457
0.117068
0.116062
0.116006
0.116431
0.116975
0.11716
0.116517
0.114977
1.68405
1.6748
5.37874
1.46428
0.0681967
0.0804324
1.22156
0.0348955
4.64511
0.0659173
2.79475
0.0694619
0.558507
0.112469
1.32178
0.104373
3.24729
1.21862
0.0629166
0.81981
0.475195
0.09992
3.11542
0.184707
0.0285958
0.0475085
0.0284497
0.344463
1.82409
2.97171
0.0640414
0.0605153
3.35075
0.663491
2.9051
0.0605584
1.11535
1.32865
1.16503
0.0912576
3.80581
0.0113698
0.0760786
0.682296
0.267334
0.14333
3.66323
4.07661
2.27171
2.48958
3.46852
3.3602
0.493922
1.07834
1.17229
4.60191
0.102454
0.47304
0.0382635
2.98681
0.0791195
5.62143
0.066846
0.110294
0.0361174
0.629044
0.0736343
0.322875
0.572829
2.41765
4.3565
0.123896
0.0451779
0.87994
0.0299829
0.467131
1.0017
3.97394
0.0270711
0.878188
0.634044
0.102587
0.0427505
2.72388
0.0699626
0.0816559
0.0433614
3.9298
3.39349
0.141529
0.195456
0.0920972
0.0770877
0.0729685
0.0505706
2.81888
0.0481513
2.99042
0.0278574
2.94941
0.17703
3.8115
0.196952
0.129582
0.0351636
0.249734
3.26345
0.627066
0.031396
2.99512
0.100319
0.0613057
3.31583
0.126366
0.48541
2.23867
3.34141
0.0866586
0.515766
0.0404075
0.00426218
0.0595629
0.182055
0.0290251
3.44231
0.0732496
3.40271
0.738529
0.0370733
4.07339
0.0406236
0.886431
2.46152
1.01014
0.408754
0.0430161
0.258908
0.127351
0.0778374
0.813902
0.106893
1.11527
3.06512
0.00563869
1.96967
0.120529
1.72476
0.721891
0.102935
2.90958
0.465023
0.0881475
1.71885
1.52724
0.0333683
2.67716
0.0334073
0.0849507
1.14766
0.0621228
0.0773529
4.3701
0.0835841
3.12296
0.0812346
3.10358
0.120496
0.0281354
0.137455
0.0351119
0.100522
0.11706
0.332214
2.87819
0.0738866
0.282939
0.76258
2.12683
2.57117
0.108028
0.913774
0.058676
0.499005
0.957905
0.556302
0.0309941
3.27515
0.0312146
2.7319
0.0925142
3.68708
3.01434
2.01476
1.08841
1.41567
2.93999
0.0295502
0.0969709
2.10348
1.71322
0.649024
0.162071
0.0963455
0.095149
0.300825
0.0690999
0.0766997
0.195624
2.40265
0.0803354
0.0346268
0.0751206
0.888295
0.279771
0.565309
3.99797
0.0508272
0.0365488
0.163599
0.183851
0.165174
0.013386
0.0352808
5.53771
0.208931
3.43784
0.135483
3.24983
0.0276547
0.0484985
2.54915
0.0621539
0.0570191
0.0342226
1.15512
0.0681858
1.22239
0.242221
0.987034
1.59781
0.0632993
0.0783899
0.0783918
0.488328
0.0437303
0.0444348
0.0609045
0.327783
0.102576
0.066639
0.0231609
0.302761
0.0664264
2.25147
0.0439237
0.0284151
3.20703
1.02236
1.16932
0.0630527
0.329101
0.0419285
0.0742718
0.0316134
0.911589
0.0295263
0.0695689
2.10772
1.21728
0.0281874
0.541557
2.13626
0.0320771
0.0348231
0.0639867
2.13104
0.0823525
4.48989
0.111099
3.35885
0.688697
0.491825
0.29428
0.142032
2.56839
0.086656
0.264384
0.338396
3.5121
3.79696
1.55929
0.089078
0.00791373
3.63308
0.877573
3.97984
3.81825
0.0825621
0.063637
2.723
3.18709
0.0783431
0.101856
0.0996523
3.65083
0.0741061
0.471226
0.0667912
0.80986
0.100776
0.126355
0.099041
3.07071
0.0339489
0.0308035
1.09059
3.92398
0.0674964
0.0288145
1.12553
1.14817
0.0633795
0.106836
0.0634289
0.0453251
0.0295852
3.29373
0.644039
0.080417
0.481469
0.0802167
1.39575
0.139784
0.0669603
3.78917
0.086426
0.052683
0.045977
0.00601634
0.321665
0.0773215
0.0645226
2.73408
0.0955331
0.917551
0.0503077
0.0893318
0.0439261
0.0409623
3.49889
0.911541
0.0774051
0.018502
1.17717
3.67291
0.189211
1.27018
0.675716
0.0771931
3.69806
2.43322
2.86911
0.0581312
3.3871
0.0100098
0.0398523
0.125797
4.02823
0.0701911
2.6125
0.11693
1.50808
1.82101
3.43213
0.558043
0.0308406
0.039188
0.0857591
0.0593909
0.0669251
3.79262
0.108931
3.41554
0.728405
0.698867
1.08074
0.0830882
0.820576
2.67446
3.69702
0.831175
0.0690876
0.230305
3.16312
0.896298
0.0643353
0.0735873
3.28434
0.0840728
1.85141
0.0354063
0.0772519
0.0690015
2.07787
0.059974
0.000245344
1.26028
0.244819
0.829536
0.062976
2.82846
0.0714047
2.68854
0.0752558
0.0563378
0.103975
2.35449
3.50238
0.0714389
0.0911801
0.0841602
0.0613113
0.151483
0.22214
0.130893
3.60905
0.00347287
0.119831
0.0655018
0.0615264
0.0906813
0.0288291
0.144613
0.0268012
1.48447
0.120088
0.100301
0.00639394
0.0445898
0.107514
0.0620309
1.5949
3.67659
0.74797
0.583796
4.83477
0.272217
3.37743
0.0347242
0.0270599
3.45001
0.0728308
0.0818056
2.65029
0.0974799
2.3264
3.53463
0.0823972
0.202069
0.806457
0.091159
0.535107
2.73692
0.84402
3.42243
0.0364618
0.0388165
5.7075
0.0608787
2.72079
0.306578
0.0366596
2.86173
0.107895
0.0291893
0.60355
0.129182
0.0323309
0.752378
0.675739
0.571394
1.17105
0.00299076
0.0658513
2.66613
0.0597774
0.101176
0.139545
2.35333
0.110711
1.37323
0.0918956
0.0368898
3.11346
0.0672757
0.0489632
1.34319
0.0851695
0.0777629
2.57571
0.0776187
1.50737
0.0734012
0.420498
0.733489
0.718955
0.0924189
0.0915851
1.26769
0.0589844
0.0888917
0.688024
0.0734454
0.121361
0.0292538
4.00883
3.64262
2.41178
0.031673
0.584316
0.0769357
3.78656
0.822199
3.12058
0.654624
0.148217
3.52354
3.86591
0.0687363
0.131798
0.29255
0.116057
2.52938
3.98066
0.0434921
0.831948
0.0775038
2.65134
2.20471
0.0965992
1.09503
3.05279
0.0957971
3.45382
0.02344
5.1332
0.0671897
0.143225
0.0851922
4.35622
1.14782
1.17788
0.0366348
2.30565
2.39777
4.00534
0.0332539
0.0913317
0.535671
2.57946
0.0666511
1.01897
0.0787803
0.569767
2.95858
0.0644031
0.574255
0.0358825
0.0613796
0.365906
3.19359
0.157738
1.21492
0.0427644
0.0657227
3.29769
3.71499
2.63732
0.15834
0.381097
0.851113
0.495437
0.158008
0.0784006
0.0354883
3.25549
0.0924377
0.0801367
1.25451
0.150017
0.108146
0.0873624
0.106119
1.43058
0.0990209
0.0397667
0.615912
2.44499
0.0612036
0.0587202
2.76055
0.346443
0.0118445
0.117666
0.725706
0.04666
0.088462
0.0644568
0.298038
0.0709451
0.079127
1.16796
0.0433392
0.132909
0.218939
0.497023
0.0480492
0.0881145
5.14878
0.122074
0.0338812
0.0625388
0.0884901
0.13283
0.0481549
2.89745
4.0307
0.314779
3.14149
0.0351042
0.0282096
0.0339804
0.0228528
0.121105
0.0382414
0.529437
0.143942
0.0375034
0.07994
1.27502
0.552288
0.143461
0.623927
0.0926205
0.0755392
0.0415072
0.221369
0.817386
2.8665
1.43771
1.19286
0.0224318
0.0660421
0.016026
0.153818
0.0637027
3.73849
0.0639899
0.49855
0.0625847
2.74703
0.619232
2.73207
0.00436415
0.0348307
0.0337699
3.84311
3.48634
0.531171
0.491836
0.0449543
0.0657589
0.06573
3.08758
0.00712488
0.05462
1.07178
0.0573416
0.121042
0.0667959
0.0307555
0.498399
0.118918
0.0445406
0.0682619
0.170039
0.0847789
2.01165
3.57804
0.0609566
1.28281
0.0729221
2.77228
0.0367183
0.0930414
0.0673793
0.0424757
1.28569
0.08162
0.0907708
0.0384643
0.30417
0.0464942
0.142821
0.122671
3.35155
1.27817
0.44455
3.96698
1.39016
2.37152
2.89927
0.0635557
0.033549
0.0347973
0.000522574
0.0882404
0.684565
0.112945
0.0560421
0.54392
0.0714443
0.0643677
0.41323
0.071004
0.0673094
0.0380004
0.447124
0.695601
3.87802
0.0661031
2.69796
1.12463
2.07287
0.512874
3.9081
3.49068
2.50612
0.0340043
0.0992114
0.00406498
0.277569
0.0765135
0.832358
1.85067
0.0868152
1.1214
0.761882
0.0449438
0.0372517
0.070774
3.9177
4.72631
0.0498901
1.2543
1.47055
0.523357
2.96093
3.47111e-05
0.0647261
0.421791
0.00566119
1.76793
0.85511
2.97479
1.47152
0.0288547
1.47981
0.0337462
0.00158259
0.515128
0.10067
0.144869
0.0608056
0.074204
0.538803
0.0995763
0.032739
0.0789897
0.0866553
0.398569
0.0884172
3.1644
1.35655
0.0951789
0.802457
0.116124
0.845646
0.0847461
0.0791391
0.116013
0.617632
0.523857
0.00674607
0.117706
3.53815
4.52771
0.998257
0.0799087
0.747535
0.782442
1.34752
5.03845
1.04639
0.168382
0.100933
3.14389
0.0250624
0.0343181
0.225956
2.93392
5.11969
0.0569369
0.0619516
2.54025
0.0324292
4.97822
3.07087
0.112802
0.0564283
4.88359
1.86629
1.91641
0.078184
0.0572574
0.0205572
0.711531
1.13041
0.0739457
0.0323892
0.0537271
0.981704
0.0840708
0.441923
1.90119
0.0657478
0.0657117
4.2441
0.0677572
0.569846
0.059805
0.586553
0.0717048
0.0397369
0.786399
0.119122
0.0889507
0.0771695
0.327245
0.573911
3.84403
0.0396599
0.0679548
0.0749972
1.24152
0.830663
5.29108
0.0336322
0.624321
1.36189
0.000578712
0.0294537
0.0710707
2.56918
0.076053
0.960842
0.114872
0.00242597
1.09602
0.095104
3.35455
2.89965
0.687501
3.15255
3.27909
3.88975
0.068329
3.04485
1.16478
0.110122
1.17698
0.0578487
0.0721931
0.839001
0.0803707
0.172972
0.531806
4.99008
0.0317153
0.0260456
3.02526
0.143109
0.101299
1.26903
1.96727
1.14631
0.0817318
0.259653
3.97926
2.95186
0.886616
0.544864
2.37997
0.151246
0.031815
0.676083
2.53165
0.0731698
0.35261
0.102266
3.07465
0.120273
0.901538
1.87076
0.00574366
0.0626194
0.0831725
2.64598
1.21679
2.84177
2.12167
0.156189
0.386949
0.539721
0.193608
1.81223
0.465247
0.0593601
0.0915473
0.0804523
0.0223001
0.782747
2.82403
0.0465269
2.69187
0.124771
1.23909
0.0725286
0.0557275
0.0332709
3.90563
2.77903
0.326393
0.566128
0.0551755
0.0411444
1.52117
0.0653265
1.22345
1.03358
3.42084
0.0597626
0.303276
1.54017
0.103748
0.144937
0.0939681
3.4604
0.086275
0.156392
1.23961
1.29645
0.0389443
0.195184
0.065573
0.117499
0.0442263
0.0460482
0.506141
0.0407687
0.294951
2.61598
0.834877
3.79073
0.0830735
0.2685
0.724751
0.025872
1.93387
0.0700417
0.0953479
3.41026
0.113051
0.411341
0.150217
0.0283085
2.34539
0.0686096
0.303562
0.0289789
1.18626
1.29826
3.34477
0.0350522
1.08109
0.0574001
0.351547
0.106036
2.86635
0.987658
0.275632
3.06194
0.0755686
3.56725
0.0755236
2.18845
0.10303
0.0339901
0.0847039
0.941327
1.3643
0.0439298
0.0815414
0.863592
0.0555935
0.0857187
0.0370999
0.0263747
0.100031
4.04194
0.132501
0.0835734
1.44374
0.326317
3.87692
0.0202721
0.0963166
0.0542775
0.151463
0.151532
0.0714571
3.82931
0.165508
0.667327
0.0571168
0.203544
0.777839
2.73029
0.077352
0.0772341
0.105913
0.14644
0.0633262
0.362447
3.66625
1.06665
0.554925
0.0519203
1.55089
3.4563
0.267125
0.835224
0.107488
2.02054
2.80902
3.70959
0.0733669
0.0768617
0.215601
2.8365
0.159428
4.82249
0.138459
0.429456
2.67369
0.0272213
0.0987757
0.101753
0.0688278
0.0644862
0.0900305
1.89129
0.0644774
3.04736
0.0719758
0.0580824
0.0401296
0.0659776
0.513143
0.0671803
0.867623
0.796061
0.0625059
0.12755
2.12987
2.66502
0.058141
0.0692631
0.121338
0.384958
0.765384
0.243858
3.25135
0.0450781
0.0703045
0.527366
0.0691454
0.292528
1.52171
0.0602194
0.0407683
0.00736661
0.119274
0.920789
4.34834
1.05615
0.0717869
0.231728
0.0644971
3.67493
3.77286
0.0781011
0.069441
1.13751
0.073258
0.0447694
2.09641
1.88772
0.121678
0.0714055
0.0419187
0.474423
1.89358
0.0511319
0.0324709
1.83183
2.69493
0.00107318
0.0568461
0.0401153
0.126018
0.39809
0.514194
0.0744849
1.31473
0.0782814
0.10615
0.0573253
0.508724
0.0527052
3.5143
2.6532
3.42844
1.79262
1.02934
1.9197
0.060353
3.45723
0.546135
0.0387859
0.236887
0.0531676
0.201186
0.0724307
0.0649156
0.0405102
3.34888
0.0291997
0.306604
1.51598
0.0970128
0.270567
0.362525
3.69342
0.017847
3.67944
2.99523
0.0960203
0.0467278
0.23755
0.294272
0.205732
1.06495
4.7876
0.109323
0.0386135
0.0741563
1.03369
3.71163
0.11604
0.124674
0.0295236
0.0560205
0.0914749
0.381082
0.0691359
0.115346
0.223608
2.39212
0.0802179
0.253146
3.94874
0.0942888
0.28725
0.221278
2.88142
0.304059
0.322648
0.516881
0.0814694
3.87
2.61129
0.061868
0.747633
1.33044
0.0748597
0.105933
0.113189
1.19234
0.0577328
0.578177
0.0791417
1.51651
2.34109
0.760187
2.28037
0.150748
0.0884597
0.885937
1.03304
0.112588
0.13046
0.0764438
2.79757
0.113756
0.267613
0.0482852
0.146502
0.663315
0.0612108
0.0427965
0.0560919
2.92278
0.842422
0.0642927
0.144955
0.062777
0.0684226
0.085263
2.31847
0.134783
0.848504
2.89867
0.68779
0.00204609
1.08616
1.80633
0.827198
2.08499
0.194479
0.839073
3.36123
2.85714
0.0151503
2.5451
0.0756276
4.44095
0.370617
0.0673073
0.578733
1.26936
3.80629
0.782151
0.273772
0.0769917
1.20676
2.70564
0.265656
3.39399
0.1453
0.82611
0.0739382
2.73028
0.31761
0.0351176
0.0872328
0.809597
0.0460861
0.137163
0.787708
0.0641295
2.19889
0.0291792
0.086651
1.32301
1.1666
0.128257
0.513364
1.41101
0.152517
0.589005
0.311481
0.0837692
0.353257
0.0333028
2.14934
0.65565
0.0321015
3.943
0.077393
0.493466
0.29334
0.102476
0.0496547
0.468626
0.827007
1.19882
0.0434805
3.65821
0.0518458
0.57455
3.81434
0.428725
0.137642
1.02806
0.113847
0.0648196
0.00382609
1.22458
2.80112
0.0744989
3.29793
0.254214
0.0879842
1.04408
0.0965073
0.0740529
0.601639
0.125737
0.06609
0.213391
0.0592619
0.0932221
0.133778
2.30211
2.73251
0.167521
0.0730591
0.041202
0.62606
3.69459
0.0663096
0.0452157
0.251333
3.44175
0.0511444
0.943705
0.595508
0.0348913
0.531458
3.507
0.0619397
0.194112
0.0700871
0.343847
0.0558322
0.0625561
0.128313
0.427442
2.77888
0.0280765
3.27243
0.0378886
2.8963
0.087509
1.09056
0.484234
0.86892
2.32496
0.105701
0.605764
0.149581
0.121719
0.126825
2.63139
2.65151
0.0831349
0.0804138
0.382685
0.12617
0.075035
0.0303148
3.97472
2.87612
0.802013
3.42254
0.139349
0.0364004
0.671749
0.194159
2.21839
0.0264139
0.106294
0.0339318
0.0849251
0.0706537
0.0764092
0.0759783
0.413236
3.77151
2.77484
0.0708838
0.271421
0.669239
4.17943
0.0762413
3.55982
1.88227
2.96059
0.111305
0.815201
0.0416409
0.139953
0.102755
0.102879
0.0633062
2.23271
3.48412
0.118944
0.284379
0.788202
0.288157
2.54982
4.12928
0.0757337
0.0343925
0.0824563
0.238126
0.765693
0.0304947
2.50327
0.706816
0.0875006
0.126122
0.136781
0.489321
0.145967
0.0474901
0.0813747
0.0559242
0.146825
0.590496
0.130804
3.4121
0.11248
0.0847442
0.266262
0.114486
0.0559792
3.72612
2.6159
0.0894631
2.82652
0.0670844
1.09602
0.114082
0.149694
0.0606003
0.0390497
2.6955
0.0987782
0.126896
3.12165
2.18021
0.0631533
0.0717462
0.0684091
0.134033
1.42507
0.0390264
0.0756515
3.47408
0.0767776
0.0676226
0.116469
2.93267
0.0844802
2.8489
2.13165
0.0396329
4.13443
0.125223
0.0266962
3.86761
0.393487
0.0645089
0.00382828
0.508355
0.120591
0.15798
0.0335459
1.29947
3.13864
0.0815978
0.0353354
2.62252
0.088086
0.928887
0.81172
0.0905878
0.756072
3.69633
0.0631138
0.705913
0.0828312
0.113406
0.140984
0.0696787
3.37876
2.5381
0.0888691
0.0696079
3.19546
0.0926791
0.147099
0.124291
0.7194
1.07187
0.0347186
0.0593947
0.0700657
0.0615564
0.0339985
0.00183634
0.101378
0.140122
3.27262
0.520291
0.0677674
0.917933
0.120214
0.920858
3.79846
0.936983
2.76086
0.10958
0.00152824
0.535418
0.143927
0.0838473
2.32229
0.104546
4.83258
2.65896
0.524161
0.107449
4.0349
0.035016
2.96879
0.0716337
0.0708623
3.32524
0.33384
0.922713
0.0886591
0.0645554
0.0315913
0.120426
1.40323
0.91481
0.0873301
1.76352
0.412997
2.61864
0.0269296
3.81882
0.091053
0.0703643
0.328368
0.0759461
0.498456
2.82507
0.646823
0.0398178
2.0704
1.31334
0.239614
0.815608
0.626276
0.017875
0.555732
2.89053
0.0649247
0.0609499
0.0659063
3.27247
0.0752975
0.0271246
1.26952
0.600204
0.262247
3.87261
0.757184
0.235804
0.251757
1.22744
0.11906
0.611206
0.0506698
0.0829623
0.0663409
3.39094
0.0965195
0.937
2.75321
0.0283736
0.8827
3.45911
0.0855577
2.79704
0.0622899
0.580901
0.140278
0.0299289
0.116774
0.0692798
0.0465143
0.11353
0.0865271
0.0842649
0.095976
2.28848
0.622709
0.0880249
0.566067
0.0569809
0.0780748
0.0562737
0.0861944
0.11118
1.53897
0.0251198
1.26976
2.61723
1.50235
1.01247
0.196983
0.123285
3.5113
0.0693919
0.55027
0.0905531
0.0591891
0.177695
3.07411
0.103807
0.0677659
0.0573552
0.206498
0.145472
1.47774
0.585645
1.09017
2.22147
0.0716917
0.0484501
1.68432
0.0701863
0.0956779
0.0390441
0.152994
0.0399997
0.0627056
0.114379
0.0261072
1.06303
2.78615
0.938981
0.130764
0.0679095
0.87394
2.9263
2.57699
0.0369026
0.0821157
0.683337
0.0592719
0.0324897
0.117829
2.66286
0.736656
0.0562075
0.0622909
0.107503
0.0332097
2.69125
0.0433734
0.0911197
0.0944421
0.0840159
2.67141
0.0767522
1.53428
0.0875174
0.0994397
0.0310767
0.0443863
2.88409
0.396844
0.0526944
3.54226
0.713055
0.600947
0.0376408
0.068134
1.19933
3.76292
3.86111
0.0639102
0.822911
0.0756466
0.0658503
3.27379
2.56268
0.0289008
0.0176625
1.00625
1.43601
0.0666514
0.0316719
2.74098
0.0653967
0.162796
0.165203
0.0905943
1.92547
0.074243
0.0770726
0.0907821
1.80223
0.0652004
0.0372343
0.0614082
0.102865
0.206466
0.111249
0.482078
0.755038
0.676859
0.0994747
0.0915331
0.0640553
0.0361576
0.0886136
0.0744593
0.595835
0.0789751
0.0996532
0.247967
1.24168
0.0469363
0.0295869
0.0880731
3.65765
0.08229
0.856807
0.0248493
0.0708907
0.00617239
0.0914515
0.078908
3.60073
0.099767
0.0438638
0.331931
0.0663394
1.32852
0.0822996
0.0628982
2.92217
2.90358
0.0317516
2.74081
0.0698014
0.990936
9.2634e-06
2.29196
0.047167
1.18147
0.0683466
3.01762
0.522074
1.05546
3.26903
4.16168
0.0899403
3.41482
0.0424601
0.0310931
0.074719
2.97624
0.163146
0.0356824
0.680863
2.66275
1.94502
0.149933
3.69149
0.0314819
0.136887
0.0616339
0.471966
0.125838
1.64105
0.0772734
0.0971662
0.0705871
0.0262086
0.139025
2.28807
0.0588149
0.0709475
4.02644
0.580946
0.0318542
0.175112
2.86239
0.0969975
0.0809482
3.27819
0.152637
3.9307
1.22248
0.0670466
0.387427
0.793872
0.0382753
0.132203
0.0549647
0.0319366
0.146488
0.133515
2.70881
0.0375085
0.826826
0.253785
0.0760285
2.87083
0.967823
0.120507
0.0690402
0.0280792
0.0421449
0.0323655
0.683098
1.72436
0.0598497
0.0745044
0.0900798
1.06855
0.110069
0.833901
0.106104
0.0642623
0.108796
0.123594
1.13939
0.105569
0.575747
1.09757
0.000160919
1.31229
0.0943615
0.818571
0.494995
0.0750914
0.0708893
0.128963
0.0475308
0.120292
1.14172
3.50565