/*--------------------------------*- C++ -*----------------------------------*\
  =========                 |
  \\      /  F ield         | OpenFOAM: The Open Source CFD Toolbox
   \\    /   O peration     | Website:  https://openfoam.org
    \\  /    A nd           | Version:  10
     \\/     M anipulation  |
\*---------------------------------------------------------------------------*/
FoamFile
{
    format      ascii;
    class       volScalarField;
    location    "1100";
    object      nut;
}
// * * * * * * * * * * * * * * * * * * * * * * * * * * * * * * * * * * * * * //

dimensions      [0 2 -1 0 0 0 0];

internalField   nonuniform List<scalar> 
10435
(
1.52486
0.579781
0.673927
1.01287
0.463946
0.419516
0.741393
1.09488
1.53915
0.497731
0.47757
1.01817
0.50923
1.95959
1.95436
0.882638
1.94771
0.453745
1.91101
1.44482
0.966226
1.29073
0.798405
1.82123
0.557445
1.9088
1.91874
0.59212
1.7426
0.457239
0.701855
0.452654
1.20722
1.73793
1.15515
0.940508
1.03794
2.00479
1.76465
1.82324
0.426859
0.742829
1.77884
1.08925
0.903142
1.83369
0.426166
1.80132
1.69435
1.69074
1.05154
0.540874
1.71751
1.71651
1.80217
1.66664
1.19736
1.95893
1.87259
1.36432
1.76135
0.665458
1.88928
0.548973
0.842477
0.632143
1.8135
1.89439
0.998793
1.90078
1.71975
2.00068
1.64374
0.678998
1.92201
1.74699
1.88261
0.793577
1.33328
2.01547
1.82768
1.82778
1.67088
1.71518
1.87047
1.25947
1.2663
0.877252
1.65387
1.13421
0.821002
0.775952
1.765
1.54916
1.02707
1.11912
0.807598
1.83908
1.92188
0.675006
1.75919
0.391241
1.41053
0.944628
0.397473
1.038
1.7149
1.76469
1.87182
1.99431
1.65859
0.388944
1.8943
1.95167
0.634025
1.29591
0.711458
1.0972
0.686802
0.885524
0.761587
1.66725
0.95351
1.41994
0.365444
1.82998
0.85408
1.64325
0.565568
2.11951
1.56382
0.364869
0.974301
2.01754
2.02444
1.53691
1.00304
1.03261
0.75349
1.33127
1.38122
0.77916
1.78293
0.713366
1.32123
1.78457
1.21276
0.479088
1.90418
0.876638
1.79728
0.990415
1.32106
0.815682
0.500623
1.82807
0.371478
0.839699
0.487286
0.391543
0.869134
2.00043
0.600019
1.3586
1.87078
0.632978
1.25266
1.09293
1.33143
0.626863
0.560963
1.5977
1.74721
1.75107
1.03818
0.434679
0.785121
1.8752
1.65801
1.79354
0.518277
0.418134
0.908803
1.7787
0.841725
1.71907
1.70298
0.841322
0.446994
0.626747
0.85985
1.63135
2.091
0.802034
0.379692
0.915962
1.83148
1.42134
1.83593
0.942183
1.76332
1.93753
0.551939
1.94737
0.599602
0.52654
0.634696
1.06955
1.86318
1.365
1.72683
0.74453
0.758693
1.24774
1.8543
1.8992
1.80587
1.66907
1.9214
1.96688
1.76451
1.90451
1.83277
1.63961
1.88998
1.04212
1.83002
1.56982
0.644692
1.72401
1.88566
1.13735
1.87103
1.06697
2.11179
1.92603
1.35692
1.93756
1.43233
0.632168
1.15024
1.83221
1.64866
1.69239
0.546706
1.39669
1.30859
0.97312
1.43176
0.512995
1.53831
1.67514
0.498975
1.38734
0.891376
0.531505
1.3364
0.83907
1.74136
1.87513
0.792632
0.580121
1.87178
1.63464
1.71678
1.88825
1.22566
0.745984
1.68895
0.545527
0.74725
1.10585
0.964806
0.579794
1.98396
0.907626
2.06129
0.444357
0.879004
1.19597
0.516903
1.84783
0.704276
1.6848
1.56018
1.61136
0.463348
1.78432
1.71232
1.76412
1.49508
0.372154
1.83361
1.03418
1.78216
1.7034
1.81554
1.61844
0.435031
0.641244
1.87484
1.44856
0.666344
1.53434
0.437051
1.87919
1.90098
1.14878
0.639952
1.70569
1.67737
1.94083
0.63468
0.457376
1.38235
1.66812
1.75843
0.735382
1.88174
1.08211
0.400218
1.82484
1.43651
1.59587
1.30424
0.552934
2.06411
0.631554
1.86023
2.02249
1.44539
1.76696
1.69563
0.692579
0.95824
1.91839
1.6318
1.50272
1.69359
1.68405
2.10105
1.91901
1.72146
1.7535
1.68599
1.85597
1.891
2.13795
1.56425
1.4402
1.68929
0.571347
1.87686
0.597001
1.42258
1.82819
0.50958
0.722869
1.71007
1.73142
1.55418
1.86139
1.64782
1.64702
1.79999
2.11023
1.91214
1.12043
2.06568
1.53703
1.8304
2.1304
0.487098
2.06268
1.58696
1.94552
1.92538
2.02576
1.7351
1.96598
2.31367
1.80346
1.2503
1.86565
1.04979
1.53702
0.563145
0.53174
1.65663
0.62674
1.2456
1.6731
1.66931
1.7353
1.69076
0.65731
1.72672
0.483125
2.26068
1.81371
2.12664
1.80319
1.74126
0.797482
1.98603
1.14338
1.22153
1.6341
2.02243
2.16691
1.99138
2.23059
2.05248
1.8189
1.65395
1.86896
1.75557
0.636287
1.71086
1.99511
1.74983
1.72069
0.448932
1.55114
1.53315
2.40325
1.71736
16.4926
16.5038
16.4076
16.2739
16.1463
16.0632
16.0797
16.2841
16.818
15.4228
15.4607
15.4429
15.4038
15.3767
15.397
15.5133
15.7944
16.3234
14.1437
14.2021
14.2395
14.2723
14.3247
14.4276
14.6232
14.9676
15.5226
12.6919
12.763
12.8367
12.9199
13.0299
13.1929
13.4463
13.8395
14.4279
11.1245
11.2009
11.2945
11.4076
11.5526
11.7518
12.0386
12.4585
13.0704
9.5158
9.5915
9.69098
9.81513
9.97324
10.1844
10.4777
10.8932
11.4866
7.94907
8.01986
8.11342
8.23215
8.38402
8.5855
8.86071
9.24227
9.77298
6.50664
6.56729
6.64498
6.74542
6.87626
7.05164
7.29116
7.62008
8.06767
5.25451
5.29676
5.3508
5.42474
5.5258
5.66567
5.86006
6.12928
6.49676
4.22373
4.24058
4.26747
4.31253
4.3816
4.4836
4.63079
4.83975
5.13219
3.40607
3.39864
3.40169
3.42154
3.46219
3.52984
3.63359
3.78617
4.00491
2.76949
2.74879
2.73747
2.74007
2.75944
2.79993
2.86817
2.97351
3.12867
2.27998
2.26222
2.24757
2.24152
2.24734
2.26871
2.3108
2.38041
2.48638
1.92285
1.91456
1.90264
1.89354
1.89157
1.90046
1.92458
1.96913
2.04035
1.68596
1.68344
1.67401
1.66359
1.65687
1.6576
1.6696
1.69707
1.74502
1.54691
1.54387
1.53406
1.52186
1.51149
1.50643
1.51
1.52557
1.55677
1.47738
1.47029
1.45789
1.44311
1.42939
1.41977
1.41713
1.42429
1.44393
1.45133
1.44076
1.42533
1.40772
1.39081
1.3773
1.36976
1.37067
1.38247
1.45245
1.43983
1.42186
1.40157
1.38169
1.36473
1.35303
1.34885
1.35439
1.47184
1.45805
1.43796
1.41518
1.39251
1.3724
1.35703
1.34848
1.34871
1.50481
1.48993
1.46769
1.44238
1.41699
1.3939
1.37519
1.36279
1.35858
1.54907
1.53233
1.50727
1.47908
1.45088
1.42493
1.40311
1.38717
1.37889
1.60418
1.58331
1.55403
1.52233
1.49115
1.46243
1.43773
1.41854
1.4065
1.67146
1.64117
1.60548
1.56963
1.53536
1.50409
1.47679
1.45457
1.43892
1.75472
1.70291
1.65875
1.61867
1.58151
1.54818
1.51877
1.49371
1.47329
3.65933
3.73397
3.82023
3.91792
4.02697
4.14697
4.27747
4.41769
4.56699
4.72438
4.88899
5.05986
5.23581
5.41585
5.59861
5.78289
5.96735
6.15058
6.33117
6.50777
6.67883
6.84286
6.99828
7.14336
7.2771
7.39967
7.5107
7.60964
7.6961
7.77166
7.83713
7.8934
7.94195
7.98498
8.02519
8.06594
8.11129
8.16592
8.23536
8.32602
8.44508
8.60073
8.80157
9.05688
9.37628
9.7693
10.2443
10.8069
11.4572
12.1876
12.9803
13.8063
14.6272
15.397
16.0688
16.5988
16.9538
17.1123
17.0752
3.61519
3.69038
3.77654
3.87377
3.982
4.10095
4.23018
4.36909
4.51695
4.67296
4.83623
5.00579
5.18056
5.35941
5.54112
5.72442
5.908
6.09048
6.27049
6.44662
6.61745
6.78157
6.93761
7.08417
7.22003
7.34431
7.45654
7.55668
7.64518
7.7228
7.79027
7.84851
7.8989
7.94336
7.98436
8.02498
8.06898
8.12082
8.18576
8.26995
8.38045
8.52529
8.71348
8.9549
9.26004
9.63942
10.1024
10.6553
11.2986
12.0245
12.815
13.6414
14.4648
15.2393
15.9172
16.4546
16.8171
16.9832
16.9515
3.53618
3.60787
3.69037
3.78386
3.88832
4.00356
4.12923
4.26479
4.40957
4.56277
4.72352
4.89081
5.06359
5.24071
5.42097
5.60312
5.78583
5.96775
6.14749
6.32366
6.49481
6.65954
6.81643
6.96416
7.10158
7.22784
7.34242
7.44517
7.53631
7.61638
7.68608
7.74636
7.7985
7.84423
7.8858
7.926
7.9683
8.01683
8.07658
8.15341
8.25425
8.38714
8.56131
8.78714
9.07581
9.43862
9.88566
10.4238
11.0542
11.7698
12.5535
13.3768
14.2017
14.9826
15.6719
16.2254
16.6079
16.7966
16.7888
3.41373
3.48142
3.5598
3.64908
3.7493
3.86034
3.98188
4.11345
4.25445
4.40412
4.56161
4.72595
4.89611
5.07095
5.2493
5.42989
5.61142
5.79254
5.97184
6.14793
6.31936
6.48472
6.64262
6.79179
6.93108
7.05963
7.17686
7.28252
7.37668
7.45973
7.53228
7.59521
7.64971
7.69735
7.74019
7.78079
7.82232
7.86868
7.92458
7.9957
8.08884
8.21205
8.37469
8.58741
8.86178
9.20955
9.64132
10.1646
10.7813
11.4854
12.2604
13.0789
13.9031
14.6884
15.3875
15.9559
16.3578
16.569
16.5857
3.25581
3.31906
3.3929
3.47759
3.57321
3.6797
3.7968
3.9241
4.06103
4.20689
4.36087
4.52203
4.68936
4.86176
5.03805
5.21699
5.39728
5.57756
5.75644
5.93251
6.10433
6.2705
6.42965
6.58053
6.72202
6.85327
6.97363
7.08278
7.18066
7.26751
7.34383
7.41041
7.46834
7.51909
7.56453
7.60703
7.64958
7.69587
7.75044
7.81885
7.90779
8.02532
8.18086
8.38517
8.64998
8.98727
9.40791
9.91977
10.5253
11.2191
11.9856
12.7983
13.6204
14.4081
15.1145
15.6952
16.1142
16.3467
16.3875
3.06545
3.1237
3.19254
3.27227
3.36299
3.4647
3.5772
3.70011
3.83292
3.97496
4.12546
4.28353
4.44816
4.61828
4.79273
4.97027
5.14961
5.3294
5.50823
5.6847
5.85739
6.0249
6.18585
6.33904
6.48336
6.61795
6.74213
6.8555
6.95795
7.04958
7.13085
7.20244
7.26539
7.32105
7.37118
7.41802
7.46438
7.51381
7.57073
7.64056
7.72993
7.84679
8.00056
8.20199
8.46285
8.79511
9.20978
9.71489
10.3132
10.9999
11.76
12.5679
13.3879
14.177
14.8889
15.48
15.9143
16.1669
16.2318
2.84562
2.89826
2.96156
3.03588
3.1214
3.21816
3.326
3.44462
3.57353
3.71209
3.85956
4.01506
4.1776
4.34612
4.51946
4.6964
4.87565
5.05585
5.23559
5.41345
5.588
5.75783
5.92163
6.0782
6.22645
6.3655
6.49469
6.61356
6.72194
6.81991
6.90787
6.9865
7.05681
7.12011
7.17806
7.23284
7.28712
7.34433
7.40877
7.48572
7.58165
7.70439
7.86326
8.06895
8.3331
8.66764
9.08344
9.58857
10.186
10.871
11.6294
12.4362
13.2566
14.0483
14.766
15.367
15.8156
16.0875
16.1762
2.59613
2.64205
2.69893
2.76723
2.8472
2.93896
3.04241
3.15725
3.28303
3.41914
3.5648
3.71905
3.8809
4.04924
4.22298
4.40091
4.58179
4.76421
4.94668
5.12771
5.30586
5.47974
5.64815
5.80995
5.96399
6.10947
6.24569
6.37222
6.48882
6.5956
6.69306
6.78193
6.86327
6.93842
7.00895
7.07714
7.14557
7.21739
7.29686
7.38899
7.50011
7.63789
7.81147
8.03153
8.30968
8.65753
9.08576
9.60196
10.209
10.9026
11.6692
12.4843
13.3136
14.115
14.8436
15.4569
15.92
16.2093
16.319
2.31476
2.35175
2.40056
2.46194
2.53627
2.62367
2.72385
2.83623
2.96077
3.09723
3.24405
3.40001
3.56386
3.7345
3.91113
4.09261
4.27808
4.46615
4.65453
4.84162
5.02615
5.20684
5.38275
5.5528
5.71577
5.87103
6.01779
6.15566
6.28443
6.40441
6.51648
6.62141
6.72013
6.8141
6.90493
6.99578
7.08921
7.18662
7.29267
7.41248
7.55249
7.71997
7.92348
8.17467
8.48579
8.86744
9.32977
9.87705
10.5113
11.2314
12.0276
12.876
13.7399
14.575
15.3343
15.971
16.4479
16.7429
16.8549
1.83041
1.755
1.69577
1.64369
1.59557
1.55091
1.51043
1.47566
1.44876
1.43255
1.43068
1.44648
1.48183
1.53704
1.61179
1.7067
1.82308
1.96101
2.11926
2.29576
2.48898
2.69873
2.92624
3.17476
3.4504
1.73909
1.71379
1.67436
1.63041
1.58565
1.54219
1.50194
1.46699
1.43977
1.42323
1.42059
1.4348
1.46797
1.52133
1.59556
1.69117
1.80828
1.94623
2.10368
2.27896
2.47087
2.67936
2.90589
3.15391
3.42971
1.71018
1.68678
1.65224
1.61169
1.56863
1.52571
1.48532
1.44986
1.42196
1.40453
1.4006
1.413
1.44411
1.49569
1.56878
1.6637
1.77997
1.91636
2.07132
2.24301
2.43042
2.63354
2.85373
3.09407
3.3597
1.69602
1.66759
1.63177
1.59098
1.54772
1.50434
1.46322
1.42684
1.39785
1.3791
1.37351
1.38392
1.41284
1.46224
1.53325
1.62602
1.73961
1.87231
2.0223
2.18753
2.36703
2.56078
2.77004
2.99765
3.24812
1.6854
1.65155
1.6125
1.56966
1.52486
1.48012
1.43764
1.39983
1.36929
1.34879
1.3412
1.34933
1.37573
1.4224
1.4904
1.57961
1.68872
1.81565
1.95826
2.11435
2.2829
2.46393
2.65873
2.87009
3.10243
1.67517
1.63637
1.59363
1.548
1.50095
1.45421
1.40984
1.37014
1.33762
1.315
1.30509
1.31065
1.33418
1.37757
1.44168
1.5261
1.62915
1.74839
1.88146
2.026
2.18096
2.34637
2.52356
2.71529
2.92618
1.66439
1.62125
1.57495
1.52637
1.47671
1.42758
1.3809
1.33891
1.30408
1.27904
1.26655
1.26931
1.28967
1.3293
1.38878
1.46735
1.56299
1.67295
1.79463
1.92557
2.06464
2.21177
2.36818
2.53672
2.72249
1.65214
1.60598
1.55675
1.50533
1.45294
1.40114
1.35184
1.30729
1.26993
1.24232
1.22715
1.227
1.244
1.27951
1.33379
1.40567
1.4928
1.5922
1.70096
1.81666
1.93792
2.06433
2.19673
2.33779
2.49274
1.6392
1.59145
1.53997
1.48584
1.43059
1.37592
1.32381
1.27659
1.23677
1.20668
1.189
1.18611
1.19976
1.23097
1.27965
1.34422
1.42199
1.50977
1.60453
1.70379
1.80584
1.90994
2.01569
2.12392
2.23868
0.455178
0.466909
0.42879
0.229153
1.10649
1.04548
4.05428
1.79683
0.408585
11.6542
0.231381
1.38894
8.96027
0.811237
6.09406
2.82361
0.291524
0.20816
16.5664
0.57177
4.51992
5.22964
0.259373
1.56506
1.38066
2.04606
1.4641
1.2176
0.37739
0.267363
15.2694
2.33657
0.391909
7.23189
0.260392
1.50081
6.51582
6.08071
6.60504
2.33257
0.330386
0.156164
3.90607
1.86431
1.44865
7.01345
0.249379
0.261938
0.343638
0.399857
0.243839
0.30537
8.02973
0.195583
4.04671
0.415267
0.800701
6.91588
0.652308
0.247598
1.55522
0.439717
1.06188
4.11348
1.85891
1.68567
3.37094
1.19914
8.45251
0.389381
0.416245
5.76881
1.08341
0.747147
1.57816
4.87923
1.33832
0.280485
1.19206
0.180147
7.4567
1.79111
2.19314
0.219645
1.28275
1.50536
1.30054
0.283874
0.392717
1.42967
1.49071
1.92679
9.29043
1.40714
1.02206
0.233781
1.97788
0.23188
0.379497
0.248341
0.93746
0.337478
0.96976
6.30178
0.721201
1.23193
0.266937
7.45237
0.403074
0.270365
4.65247
0.977654
0.282066
6.38262
7.86071
0.346871
0.372657
2.52836
9.43054
0.581227
0.0845869
0.984275
1.55392
1.26139
0.387
3.68961
0.31093
0.872378
0.850366
0.262778
2.08824
0.802658
0.385915
6.61666
1.34613
1.25007
1.45257
0.846385
1.74808
0.491092
6.93682
6.34955
0.249457
0.109082
0.362672
3.15295
0.253266
2.18529
2.73666
0.261582
3.3471
1.09144
0.250942
5.29745
1.29138
0.218551
0.989627
2.59356
1.96142
4.00329
4.08088
0.409356
3.3935
0.236099
6.23315
0.228293
0.91787
1.50645
3.80842
0.896137
0.740723
4.4336
1.23528
0.223194
3.28311
1.22359
5.06484
0.379219
0.304622
6.79436
6.56257
2.2071
8.51908
6.07753
1.63027
0.879581
0.231419
0.417589
0.403999
2.34195
0.256281
0.250182
0.317689
6.21814
5.6692
0.405134
1.57356
5.1124
0.355536
0.414305
5.81126
5.00713
1.71999
2.30948
1.85242
6.60052
2.95968
0.944624
0.354854
2.94573
0.748663
1.30157
6.71026
1.74571
4.07265
0.317024
0.823776
1.71619
6.2629
1.36904
0.783938
0.184323
1.15271
0.447998
0.327854
0.358866
1.57753
0.294664
0.347861
1.07144
0.215214
1.55578
1.99201
1.26939
6.54971
9.56748
2.58124
0.973983
6.23875
5.44677
11.4818
1.5102
5.7292
1.48815
1.14438
1.55997
2.60305
1.46323
2.82969
4.69389
0.294025
1.27813
5.91694
0.354062
1.09813
1.38029
0.274784
1.49074
2.11952
16.691
1.39024
0.82365
2.13737
1.37184
0.900965
1.12152
6.29777
0.284864
3.91792
1.52008
4.15958
0.331306
0.472144
1.52199
15.8359
0.289186
2.53082
0.376744
0.911303
0.264051
1.75324
3.56194
1.23805
6.97139
0.299833
1.87286
1.24766
0.221485
0.258044
0.258074
4.91526
3.55153
0.133666
0.258674
3.54912
0.322974
0.322591
2.348
3.99319
0.2783
0.262525
4.23813
1.64037
2.37043
0.324358
6.1039
4.13245
5.31388
0.485839
1.85447
5.92119
8.31972
0.406295
0.918024
0.410647
5.97215
0.258853
5.52267
1.37321
4.05496
1.97056
3.1846
1.54534
15.0488
1.30164
1.12251
0.373175
7.2778
2.52085
6.68654
6.38716
5.75519
0.715829
10.891
0.290455
1.55139
2.1663
2.34964
0.167363
1.34063
1.28914
1.40879
0.257071
8.66144
0.974829
0.788553
0.861212
1.07934
1.17542
0.237488
0.245374
9.04972
0.161049
2.21488
0.261715
0.354928
2.84916
1.97071
5.41643
0.240279
0.361651
0.250565
3.96577
0.361366
0.162415
1.24089
3.75583
0.267004
2.15316
0.400667
7.5787
5.20062
0.385939
0.337275
8.89571
0.874492
0.730334
7.4236
3.15825
10.0253
0.325777
3.97804
0.38469
1.91876
1.96159
2.86512
6.41876
0.593226
0.233909
0.255855
2.68582
6.4375
1.39033
0.368455
6.30116
13.9269
5.77882
0.386124
2.56357
0.376258
1.77701
3.962
1.24347
0.389334
1.41047
0.105443
4.88891
1.40265
2.98886
11.1636
0.391711
2.07812
0.27355
1.71006
2.82863
0.516814
0.331643
0.238168
2.57821
1.96556
6.29486
3.37017
1.42272
0.992703
4.0116
0.266105
0.125094
1.6629
7.06872
2.49039
2.24078
1.28594
1.41204
1.30049
4.59081
3.63543
4.76125
0.132841
1.16729
0.968508
4.3322
5.44894
0.266606
2.41335
7.97398
0.431666
1.04404
0.413887
0.757005
1.15925
0.343471
3.91684
3.2555
0.284379
8.51444
0.38892
0.235922
1.59513
1.50796
1.19299
3.70747
1.62173
0.386356
6.69438
0.265664
1.42777
0.709886
0.448354
4.33476
0.23807
1.44942
1.2689
0.251491
0.900801
1.25528
7.80317
1.44653
1.14336
2.40935
2.69105
4.03027
6.96939
0.132046
1.39302
0.217951
1.16406
1.90364
5.67572
0.374729
6.45623
5.57505
3.16288
0.77115
0.373217
2.10983
0.612527
5.63105
1.95212
8.08288
0.401231
4.04392
4.73371
1.90975
1.35728
5.22752
6.98815
2.23747
2.3749
4.70293
2.39711
5.38492
7.06437
3.29706
1.49144
0.748729
0.266905
0.332804
0.325802
0.843196
2.24641
10.3699
0.258772
0.559133
0.342289
7.21221
6.27895
0.264454
0.354909
6.34517
4.77907
1.21802
6.6059
0.322908
0.426896
0.59882
2.442
3.92975
0.306515
0.355962
3.27862
4.01117
0.276271
5.17012
0.274491
0.200274
0.445661
2.73595
0.721989
2.00354
0.365478
6.6844
7.00831
0.880061
0.357672
0.331285
0.263493
1.23036
8.70496
9.55493
0.353846
6.25303
6.84916
4.0235
8.43081
0.266834
13.6492
2.42291
0.722412
2.45785
1.35029
0.404226
6.23095
6.60712
0.665129
0.966908
0.283846
0.2442
0.35705
0.772081
1.34341
0.559846
8.79608
4.88025
10.0193
1.83102
0.382838
5.18022
1.00698
3.68525
4.93201
1.11177
1.3936
4.07545
4.87037
8.22847
0.634144
7.64816
0.323674
1.12782
2.34392
0.258822
1.25817
0.187945
1.62224
0.919122
1.16233
1.85206
7.30233
0.256627
3.66254
4.15678
6.81535
1.61542
3.73504
1.14131
6.85048
1.7159
0.894787
0.445031
4.59081
1.53002
3.1237
9.27656
1.35537
1.45317
0.24837
0.24919
1.14419
0.381947
1.58138
1.46733
1.27313
0.414833
3.21503
0.544425
5.61645
1.53505
1.02854
1.03991
4.55905
2.478
0.831487
1.68219
4.99822
1.06149
2.05878
1.51433
2.40402
0.249548
5.00578
2.31158
0.33278
11.9567
0.14246
6.32404
8.30201
0.245405
17.4938
2.62129
3.33124
0.352116
0.166701
0.227083
0.0871316
1.31618
1.7171
0.34543
0.418095
1.5477
8.35592
1.4683
14.1404
1.20858
0.258603
0.149885
2.7413
6.95665
1.50386
7.51376
8.7518
0.453614
7.23885
1.50218
2.26335
5.98743
0.912662
7.26034
0.365362
0.283923
2.47825
5.23975
2.32761
0.237752
1.88435
8.68302
4.58745
1.73343
3.17651
1.85351
5.61026
0.644104
1.26771
1.26414
5.79528
6.36492
0.250574
5.57802
3.38568
0.26365
5.65219
0.376806
0.258263
16.0604
1.04412
1.45285
0.115174
2.96874
1.75507
2.84218
1.56769
9.29913
12.3259
9.08523
1.57495
4.12778
5.20054
1.76361
3.40576
6.9571
0.337008
13.3615
0.312702
3.30184
0.377848
2.64561
0.346339
0.255882
0.318498
1.45041
2.61128
0.113893
1.3063
3.093
2.90145
0.398578
9.31516
1.66145
2.46967
1.65187
1.80354
1.88285
0.244715
0.441273
2.10709
3.67023
4.85944
8.4569
0.339316
0.0573037
4.54375
1.56085
0.148065
0.415348
3.07081
0.255852
5.08536
1.2481
5.0967
0.415736
0.143111
1.54506
1.10749
0.879136
3.71162
3.78631
1.1838
2.5586
1.07992
4.19395
2.75669
1.11701
2.31233
0.26674
5.72574
5.36985
0.267005
4.30074
0.561882
1.34586
10.5393
7.51862
3.45401
3.85307
0.168739
6.48751
0.240217
0.43685
2.51158
1.7313
2.73246
3.95017
3.61579
0.438198
6.96866
1.25878
8.35309
0.25845
0.30704
1.72414
1.44335
0.403138
0.426103
1.90423
1.37955
0.401868
1.32127
0.444537
0.400022
6.59721
1.88084
0.385245
0.391583
0.380775
6.20906
3.53468
0.354048
2.86958
6.63398
4.21269
1.54929
0.608038
2.61755
1.13908
1.5656
0.387389
13.7073
2.78293
0.404602
12.4307
5.16526
0.894493
3.28863
4.12561
0.919397
3.53562
5.70061
9.18088
7.86523
1.35323
4.77213
0.285602
1.86445
5.61144
2.97092
6.45618
0.524931
0.445363
0.44793
6.58805
5.93492
0.0283034
1.33944
0.598055
0.214439
3.25569
0.88951
3.23404
0.0916054
5.80406
2.52306
0.35401
0.35351
2.20655
0.258853
0.249769
0.246271
12.0605
0.384818
6.75618
7.91226
4.2269
1.61783
0.5863
1.03845
1.87136
1.37312
2.38276
0.441261
0.707121
0.668863
0.399807
1.15109
2.37079
4.76862
0.387424
2.48152
9.79714
1.48192
0.262692
0.256149
4.08898
5.96489
0.391972
1.47888
0.916927
2.74542
0.311709
3.50665
0.720597
1.17286
0.401339
3.34902
4.5539
0.388913
0.111148
0.658628
9.52211
0.2783
3.26078
0.33339
0.351836
5.58892
1.36029
2.14537
1.3872
0.405842
6.74621
4.21957
2.15887
2.00236
0.353442
2.97653
0.239845
0.744479
0.28872
7.41277
2.77887
11.9075
1.45067
1.72411
0.418207
0.359949
1.18761
3.91369
2.23036
0.885149
4.97032
7.98935
3.48198
6.33671
0.342399
0.913031
1.14397
4.78907
2.65008
4.50969
1.65861
0.342849
2.29275
0.885296
2.91722
5.04861
0.685042
1.41448
6.13228
5.97571
0.612485
1.12537
5.7
1.38499
1.51937
0.29404
0.568223
0.411901
3.56721
1.51993
3.87304
0.620678
0.363879
0.988883
0.690071
0.292924
3.07712
1.54115
1.49171
1.48135
0.352985
8.92926
0.998684
0.547233
3.60979
3.80466
0.380464
1.09781
2.45182
2.28369
1.14698
2.97481
0.286004
6.51622
1.40272
0.277809
1.16657
0.241706
2.09373
0.361454
1.46434
1.63675
2.45635
4.60707
5.88322
0.57301
9.60048
0.949295
3.5433
9.56393
0.979289
0.449997
3.45008
0.264536
3.80154
2.85239
4.66082
1.27202
0.245546
0.345382
8.50541
1.6483
0.401849
4.41673
0.649648
0.355214
0.375349
1.87713
3.24974
1.40155
2.59451
0.285982
6.39568
10.067
1.66736
4.26878
2.71341
0.737939
0.257566
0.192334
2.46626
2.11454
4.99355
0.349007
1.15394
1.30705
2.77537
0.385149
0.249236
0.242518
1.75483
1.86773
1.15695
0.343014
5.54601
0.443789
1.59388
1.45252
0.38542
1.5411
2.10977
0.864292
10.8463
15.7798
0.537914
0.393642
14.6402
0.402005
4.17714
2.03301
1.41518
9.42149
7.38537
1.12542
0.613366
5.30922
1.20603
3.99435
0.360387
0.223227
4.13581
2.26533
6.09364
0.627906
0.171807
1.17962
0.262395
1.93377
11.2515
9.12786
1.78255
1.93549
5.27307
3.1151
1.27289
0.172469
0.658348
6.09763
0.427816
2.34468
11.0618
1.11612
9.95356
0.3653
0.348741
5.28416
11.3451
1.74921
3.6282
0.596168
0.356303
0.386757
0.883001
9.58628
1.12263
1.44717
0.393573
1.43927
0.683291
0.39494
0.296789
0.129455
2.15745
1.50966
7.33422
1.23877
8.7954
2.45911
3.36072
1.82507
8.02236
1.39757
6.48875
1.5172
0.263738
0.383516
0.337599
0.40608
2.47736
0.258466
2.45629
0.346604
6.72741
2.00026
1.25543
0.821973
1.08997
3.98975
1.81736
0.65541
0.407375
1.35064
1.20008
5.05421
0.675643
1.50406
1.19123
0.241611
0.315567
0.268222
0.234606
0.804044
1.20888
1.4666
1.35479
1.43408
2.86484
0.438837
7.80142
0.880032
3.74819
5.16563
0.353885
3.02913
1.51703
1.13148
3.69769
1.47939
1.27548
11.1699
0.801604
1.58618
0.366753
8.00468
1.52244
0.338319
2.5696
1.4609
1.52636
0.349357
1.52949
0.922354
9.68614
3.60534
0.385188
0.308408
1.346
3.72474
5.91048
5.66939
1.87612
7.7196
6.61062
2.40174
8.23112
9.65123
5.18365
0.394979
0.866221
0.369013
0.906133
1.60569
1.04723
2.58913
1.09357
5.45629
0.952936
0.244321
7.7679
1.51364
1.30516
6.1499
2.61385
1.16763
0.932388
3.83041
0.331328
0.944501
9.96118
6.707
13.2324
3.55659
2.16732
0.367183
6.8698
2.75888
0.397571
1.30851
0.107806
2.15056
0.390126
0.530702
0.38859
1.45784
5.44698
0.341823
0.253547
0.315892
0.321554
6.35463
0.396333
0.1979
13.1555
8.11835
5.767
0.267121
6.82504
1.14424
4.17736
3.71845
0.393373
0.455659
0.336917
5.37093
0.538958
10.5281
0.336136
2.0784
0.716101
2.34702
0.746356
0.833246
1.35305
0.441249
3.59325
0.344771
0.449702
5.28247
2.52964
3.41635
1.47901
8.32231
5.76826
5.31837
5.47786
0.402196
9.64347
1.33355
1.60467
0.391826
5.89428
1.26601
0.339231
10.7602
5.32547
0.395501
8.03708
1.28552
5.24709
4.13553
4.24524
0.945208
0.258552
1.42885
5.89086
0.294937
3.14768
5.41529
2.93464
4.55972
3.2269
0.10731
2.69989
0.398045
1.64452
0.402412
1.5206
2.29193
5.77802
4.47886
1.34176
7.32589
7.20382
4.28813
0.42603
1.02703
5.53057
7.16009
0.387025
0.366756
1.40382
8.63568
1.30503
6.96323
0.270063
1.75602
0.850733
1.16987
0.395169
0.863333
4.7747
7.54182
1.68432
6.41089
0.343879
1.78873
1.37334
6.59164
0.338469
1.34838
2.84928
1.08457
1.362
0.384827
0.276781
0.393495
1.14445
0.231625
5.66803
6.08481
3.59688
0.608221
0.364793
0.839574
3.19078
4.63596
5.21093
3.69112
0.328423
0.299142
9.30284
5.91011
1.08335
5.65448
1.37144
0.51749
0.319742
0.256577
1.07831
0.383474
5.95147
1.5562
6.68797
1.52119
0.367252
0.490741
1.79148
0.7589
2.22051
1.7266
2.86381
1.56381
3.18699
0.362681
0.344184
11.5504
1.47596
2.40544
0.410277
2.58771
0.338664
0.394451
0.249682
6.2835
1.01928
2.10105
6.55698
6.97979
1.7141
17.1734
0.360941
0.357639
7.38806
1.12596
0.442491
1.52388
0.38489
0.260813
2.93954
0.781833
2.79168
1.10466
6.87414
1.58089
0.362473
1.78886
7.7326
0.761417
4.83884
1.50108
4.93495
1.28552
8.31623
1.25872
1.4526
6.23069
7.13571
0.339235
2.87404
3.79581
1.31005
0.708712
2.79895
0.401593
0.387471
2.91611
0.373491
12.0765
2.35083
6.04509
5.52362
1.85353
1.45737
0.320686
1.97265
4.6198
0.392041
0.351339
9.98272
9.12933
5.91405
5.62652
4.35018
0.651783
3.24449
0.394906
1.6167
12.1628
5.79583
0.38359
1.8577
0.359679
0.382806
0.636697
0.419808
5.38636
0.51742
0.357585
0.638166
14.8642
0.120934
7.8088
0.861729
5.44561
1.41808
6.01918
0.284502
0.833179
1.31549
0.287598
9.12541
0.263746
3.99131
5.14209
3.05721
0.272799
14.0261
6.9939
7.93596
3.26612
6.09402
1.95875
0.412048
0.307122
5.22256
10.2549
0.346275
4.67079
4.75992
1.43164
2.09986
5.74512
1.57672
1.08533
10.5968
3.10515
1.40428
0.0627651
0.656269
6.67844
0.292994
7.96398
1.29842
2.49079
1.05587
2.4382
0.269058
0.81603
0.264368
0.478391
0.112942
7.15264
6.35763
5.28758
0.346295
3.00387
0.428583
0.365174
9.55341
6.48269
0.249621
1.17984
0.308327
0.891404
2.04054
0.40563
1.26353
2.70606
3.91018
2.42481
0.862224
6.25836
5.60553
2.38975
7.32762
0.416655
1.44872
0.377237
1.47152
0.363428
4.99188
4.48749
1.53944
10.0043
6.10833
0.249933
3.24706
1.1398
0.385665
3.46487
0.380461
0.50215
4.1382
0.364813
2.79334
0.272413
7.04236
0.569694
0.918091
0.388395
1.44369
0.52693
3.2072
4.56014
1.08616
0.337444
6.74785
1.43506
1.06614
4.3831
0.785042
2.73369
0.588859
7.43349
2.19129
0.294591
1.4194
5.14036
0.373396
1.4195
2.80773
0.323992
7.88034
0.227937
4.00504
2.28982
4.6088
1.00597
2.99457
9.64327
0.610592
1.60158
2.28298
0.799796
0.984418
0.385902
3.8665
2.15356
1.90101
1.18073
1.95803
1.91341
5.42
3.09197
5.49718
0.640183
2.80099
0.391928
5.34671
1.25844
0.417038
5.48908
0.262036
3.87903
1.32378
4.80968
1.27682
1.41585
0.228276
1.9914
5.1344
1.30528
1.07419
0.727903
5.10199
2.30632
3.65488
0.372121
2.35319
2.16377
0.255695
3.93159
1.48665
0.615572
0.8594
2.03189
11.8521
6.22708
0.538221
3.92161
0.389636
2.79235
0.755901
8.59604
4.24528
0.251264
0.327906
1.13517
2.91067
2.0381
3.96286
1.6335
0.702772
0.274367
2.88774
1.73254
3.13266
4.23347
0.797543
0.378794
1.46737
5.30769
1.77286
2.28758
0.335938
8.49493
5.33909
0.44696
0.78045
1.58571
1.5576
0.301276
2.81873
1.52636
0.351811
3.24893
2.47345
1.84399
3.38605
4.5191
0.372543
0.332887
1.02687
0.860892
8.04945
14.34
0.289869
0.31606
1.29435
0.364299
3.78645
4.30478
8.09251
1.40627
0.310808
1.99257
0.368498
1.5364
2.34586
0.275016
8.9047
5.86992
2.08575
0.401923
6.89774
1.48218
0.99981
8.18417
1.49815
1.05936
6.22733
4.17036
2.49476
6.81921
7.03966
7.96319
0.638961
4.58586
1.83576
4.09978
2.86322
1.14713
0.44541
0.230093
1.6697
1.44574
2.04814
0.272248
1.41058
2.51846
0.222211
11.2424
0.11469
4.78038
8.41307
0.268959
5.51865
1.03757
0.810814
7.18047
3.6654
2.10707
4.25485
0.380991
0.401209
1.59601
0.327867
6.67328
2.89815
0.0274839
0.391542
1.99623
3.31519
2.93351
0.337545
1.53135
6.23313
0.232176
0.260314
1.03003
0.377785
0.747389
1.58503
1.10886
0.318931
1.50131
0.808588
1.44905
0.220199
0.391031
6.07883
0.369794
1.61213
4.44585
1.45538
2.42249
1.53991
5.34124
4.43775
1.82224
9.15168
0.603636
5.30705
0.382788
3.44218
10.9075
0.265558
2.65848
1.28136
1.3873
0.260734
7.07799
5.28212
0.338937
5.20719
0.429316
4.54101
3.70016
1.42113
0.754519
0.560679
5.35286
3.67041
1.65173
5.26659
1.49489
0.397081
1.35844
6.79637
1.08962
0.571799
0.307462
2.18683
1.00859
4.45764
1.49062
1.25615
1.44319
4.71151
0.416375
3.71229
3.77601
3.20953
5.32497
0.900093
4.62632
1.52938
0.546343
7.72613
7.314
3.09258
0.743132
6.61256
3.73485
0.0419552
5.51799
8.8305
2.88019
2.36166
1.99906
3.57512
1.11212
1.16179
4.84577
5.39881
0.348576
0.378005
0.321441
1.27295
0.121148
1.51222
5.5486
1.50452
4.07777
0.286798
8.83479
0.223312
2.04961
0.216422
2.13145
1.38466
2.64243
7.98825
0.389242
4.24959
0.379385
1.29075
0.930917
0.987549
0.238068
4.30006
2.09257
1.2581
0.335393
4.91875
3.65271
2.48939
1.66178
1.17898
0.922411
0.232491
5.65805
3.14665
7.9574
3.40243
6.48353
0.356364
0.106695
0.612176
3.71352
3.64078
0.985659
1.14652
0.264996
1.19398
0.515037
5.35386
0.814428
1.53913
1.38217
1.40177
5.50187
0.291107
0.609556
3.05292
4.95768
0.295291
2.02896
1.64763
0.890679
3.61527
0.886974
1.0126
8.85325
4.22742
14.5164
1.41228
6.54328
0.406454
3.50769
1.22781
1.95308
9.8107
0.253131
0.651425
1.91705
1.74927
4.47966
0.685385
0.330496
5.07663
3.32859
8.50849
2.88913
0.390781
0.267745
0.400154
0.275137
0.29289
0.804257
1.40596
0.639603
3.0221
5.34271
2.01585
2.99405
1.17877
0.24207
5.43155
5.66684
0.392718
0.256312
0.56834
4.00921
1.40187
0.378084
0.305769
0.733764
1.53272
1.64706
9.91375
1.72109
5.58064
1.84625
0.110573
3.48362
1.06297
1.12485
1.61285
4.15055
8.21102
2.75232
0.367517
1.48149
4.55636
1.97378
3.30522
2.04164
0.327081
2.09639
0.366554
3.24537
3.43703
5.17491
0.30249
1.43257
2.78666
3.22938
0.317208
0.987723
0.953597
9.46595
0.131445
0.933667
0.746596
0.288339
2.82028
7.94766
0.388911
3.67147
3.16119
0.233968
2.67165
5.67462
4.83623
1.0609
5.38904
10.8887
0.225553
11.6605
6.65352
2.65661
0.259619
6.00596
8.52904
4.4276
1.63946
10.5268
2.42381
0.821299
3.74848
6.99632
0.365069
5.02078
1.50396
3.40649
0.379141
2.98146
0.249751
0.361208
14.9244
0.202318
3.70053
2.95555
0.75234
2.74896
0.478803
0.773877
1.61541
0.239125
0.236675
6.49443
1.5236
1.29082
1.36491
1.20494
0.272659
1.25627
5.56599
1.22585
2.79416
0.740095
3.57963
0.3957
11.3786
1.13179
0.334602
0.404776
2.92408
1.39585
1.56371
0.81454
2.19661
1.25809
1.53473
4.94257
3.16744
1.43084
4.03774
0.34734
3.84443
1.16216
3.15763
0.265661
0.380013
0.390544
0.399721
0.251909
1.98989
0.140192
4.52579
1.38636
2.25302
0.328607
1.23895
1.88347
0.800638
10.8622
6.63469
4.62676
3.42684
2.69155
1.58227
0.371203
0.277594
1.04244
0.701614
0.225647
1.59174
1.37708
1.51329
9.74199
0.559556
1.09038
5.31084
7.82772
1.88685
1.51118
1.50422
0.891376
0.349226
4.78498
0.297074
0.400408
0.382111
0.388564
1.2294
11.1289
0.253947
0.385774
2.44091
1.49616
7.78969
1.53121
3.76129
0.364762
0.310868
1.27537
12.6172
4.23888
0.304596
1.79489
0.395401
0.399138
0.464975
0.393691
0.24767
3.44645
0.377798
6.58939
6.85189
0.859102
0.464678
0.288399
1.29105
2.8953
0.376381
13.2784
0.37073
2.4128
0.242475
1.70753
2.05018
0.369642
6.20298
0.384129
0.856392
0.295584
2.07811
4.54163
1.15416
0.751389
0.827016
3.48728
1.67421
0.726153