/*--------------------------------*- C++ -*----------------------------------*\
  =========                 |
  \\      /  F ield         | OpenFOAM: The Open Source CFD Toolbox
   \\    /   O peration     | Website:  https://openfoam.org
    \\  /    A nd           | Version:  10
     \\/     M anipulation  |
\*---------------------------------------------------------------------------*/
FoamFile
{
    format      ascii;
    class       volScalarField;
    location    "1100";
    object      p;
}
// * * * * * * * * * * * * * * * * * * * * * * * * * * * * * * * * * * * * * //

dimensions      [0 2 -2 0 0 0 0];

internalField   nonuniform List<scalar> 
10435
(
0.00160225
-0.104711
-10.7083
-2.39023
-6.05228
-10.1211
-10.861
-10.6373
-10.6055
-10.3709
-1.2616
-6.32476
-10.6063
0.776986
0.855271
-10.2664
0.627168
-10.5281
-10.8022
-0.333624
-10.9672
-2.58819
-10.4112
-8.68252
-10.1681
-0.240375
-0.584083
-10.8973
-0.834193
-10.2973
-9.19227
-1.98582
-10.945
-0.0683805
-9.83389
0.893659
-9.73164
-1.82909
0.389977
-9.51807
-10.7202
-11.066
0.926211
-1.16022
-9.55599
-9.56941
-10.4279
0.280453
-10.6932
-3.08187
-10.6235
-9.16823
-0.110645
-0.966282
0.768348
-1.01746
-9.37007
-0.700314
0.126958
-9.50429
0.0553362
0.308431
-0.417345
-8.37972
-9.9819
-10.6532
0.00874241
-0.192678
-11.0152
-8.2018
-0.231689
-0.898963
1.37496
-10.4153
0.784699
1.27746
-7.00877
-11.1255
-11.106
0.654107
-4.73053
-0.0158768
0.104714
-0.482575
-5.61027
0.901848
0.523602
-0.965328
1.12684
0.246748
-1.55298
-2.17659
-0.33153
0.892029
-0.0716665
1.09877
-3.24723
1.15047
0.74936
-4.10955
0.60736
-7.46211
0.74892
-0.483728
-8.369
-1.73906
-0.700221
-3.85891
-6.69156
0.63296
-2.35521
-6.4117
0.265978
0.397646
-2.77529
-1.89341
-4.89614
0.689057
-0.800886
-4.82034
-5.51877
1.39809
0.42833
1.50105
-3.0142
-0.0435695
-4.0302
1.49012
-5.2868
-1.38202
1.59595
-2.01579
-10.3176
0.687585
-0.622476
1.21395
1.38899
-3.18725
-0.302602
-1.29837
-0.783262
-9.45674
0.309157
-7.51067
-3.35959
1.207
1.53849
-9.07871
0.836503
-7.9789
0.200643
-9.28875
0.0858194
-8.16269
-9.7779
0.0924377
-4.14213
0.108139
-10.1149
-0.419691
-8.71568
0.67141
-2.13964
-5.9202
0.882234
-6.51025
-10.6614
-4.87679
-7.58382
-7.74035
-10.0924
0.764983
-1.85239
1.24249
-7.765
0.194787
0.633899
0.371993
-1.71349
-0.206256
-0.625819
-9.74361
-6.94265
-0.15819
-9.59142
0.954642
0.855675
-11.0213
-6.86
-8.56139
-6.26085
0.286454
-0.134109
1.19895
-5.28264
-11.0318
1.06772
1.04934
0.430732
-10.0798
1.17044
0.550721
-10.7901
-0.366554
-10.7614
-3.6895
-1.41865
-4.026
-0.636794
-4.236
0.660794
-10.3444
-6.82541
-6.47536
-0.116753
0.939497
0.60119
0.522424
-2.2203
0.602243
-0.315825
0.147715
0.242683
1.35467
-0.334743
-10.2531
-1.79044
1.13016
-9.23532
1.23663
0.215971
-10.4168
-1.90319
-8.89405
-1.28931
0.529054
-9.25171
-1.19486
-8.4527
-9.7901
-0.669888
0.0139763
0.551149
-0.949318
-3.03691
-10.9136
1.27722
-11.2102
-3.97142
0.634127
-4.14962
0.728165
-10.7333
-5.09585
-11.4584
-6.69557
-5.64245
-11.5355
0.105629
-0.202773
-11.6674
-9.65496
-0.745784
-7.07139
0.529973
0.653277
-0.244028
-10.1287
0.484998
-4.49581
-11.3698
-12.2706
-12.134
-10.4462
-2.69201
-5.64537
-0.174431
-4.86489
-10.874
-12.0881
-10.6386
0.601327
-11.2384
0.862611
0.605819
0.701312
-8.05313
-1.46483
-0.335439
-0.565887
1.47993
-1.15678
-0.799787
-12.0424
-1.11203
-5.11953
1.09414
0.291222
-3.76332
-9.92726
0.147184
-7.77897
-11.2202
-5.01667
-2.85583
0.987086
1.008
-8.42405
-10.1629
-0.252923
-1.18845
-0.761391
0.939921
-8.27055
-10.0936
-5.79977
0.46621
-8.82567
0.0160888
-5.641
-9.21856
-1.64416
0.376809
0.557738
-11.6646
-10.6811
-3.67936
-11.1721
0.256138
-0.788324
-10.2335
-0.554678
-0.207695
-10.9049
-8.2811
-0.534741
-0.444801
-1.88187
0.186974
-1.75486
-4.64185
-0.0214879
0.300341
-4.13196
-5.93794
-0.711526
-0.372611
0.862697
0.727913
-11.1724
-0.0193004
-10.3679
-3.97499
-11.0808
-12.3027
-12.1173
-10.9064
-10.3605
-0.952847
-0.173317
-1.86685
0.28057
-1.19989
0.164857
-1.56922
-5.12533
-0.631094
-7.07163
-0.249892
-11.0672
0.229282
-5.68092
-10.6408
-12.4611
0.689839
-6.14115
-1.68955
-1.17
-0.254736
-0.527982
-8.10154
-1.1062
-11.5959
-0.131996
-11.3046
-12.0122
-10.9965
-10.856
-12.2273
-11.0391
-10.0322
1.41921
0.484602
-0.622112
0.256255
-10.95
-0.473954
-10.7979
-6.21892
-0.779849
-7.89057
0.298786
-0.114993
-10.5105
-2.10668
-11.372
-8.18309
0.69503
-0.450679
-4.17009
-9.97455
-4.4975
-0.194197
-0.624652
-1.06074
0.224076
-0.430716
-10.8216
-3.32625
-1.1791
-0.883668
0.61145
-10.595
0.925863
1.10498
-10.7969
0.149816
40.0107
13.0035
20.8487
15.0213
16.4943
14.2881
13.9054
12.8203
10.3808
33.3929
11.1284
16.9014
12.8244
13.7491
12.3153
11.9813
11.1116
10.3186
26.4682
8.62619
13.5198
10.8371
11.4452
10.5062
10.1944
9.51573
8.74203
20.5947
6.36993
10.4198
8.78565
9.25453
8.71675
8.51166
8.06194
7.47154
15.2026
4.57807
7.76298
6.91734
7.31117
7.0576
6.97026
6.74123
6.31146
10.3158
3.4039
5.62631
5.35468
5.6764
5.60992
5.60663
5.51011
5.30574
6.27765
3.06793
4.06976
4.15781
4.38831
4.43371
4.48596
4.48515
4.43291
3.31006
3.24967
3.01844
3.29676
3.43433
3.53855
3.62132
3.68522
3.55029
1.31563
3.14669
2.26256
2.67847
2.7638
2.89907
2.99653
3.07753
3.1083
0.0760308
2.571
1.70844
2.24216
2.32093
2.4734
2.58038
2.67706
2.72667
-0.630778
1.94755
1.38649
1.96977
2.05675
2.21015
2.31795
2.4171
2.51805
-0.752521
1.71551
1.32767
1.84369
1.92228
2.05653
2.15111
2.23163
2.40313
-0.358996
1.82596
1.46865
1.81771
1.86734
1.9705
2.0485
2.12961
2.21337
0.0175505
1.98655
1.63181
1.81895
1.84018
1.91339
1.97788
2.05766
2.10614
0.231503
2.07731
1.74396
1.80697
1.80921
1.85897
1.91302
1.98252
2.0454
0.422073
2.07732
1.7879
1.76521
1.76028
1.79596
1.84461
1.90592
1.98525
0.478187
1.90512
1.73187
1.68143
1.68602
1.71865
1.76676
1.8207
1.93489
0.393656
1.57628
1.58147
1.55919
1.58814
1.62819
1.68141
1.73871
1.84128
0.332962
1.2499
1.40508
1.42113
1.47534
1.5259
1.58376
1.64482
1.71927
0.329109
1.01289
1.23602
1.28291
1.35627
1.41829
1.48258
1.55084
1.63359
0.270794
0.843089
1.07263
1.14925
1.23418
1.30574
1.37432
1.45011
1.50462
0.10085
0.747401
0.913131
1.02102
1.10957
1.18861
1.26158
1.34909
1.3247
-0.240036
0.77044
0.773862
0.91306
0.998534
1.08012
1.15492
1.24394
1.19721
-0.678854
0.840082
0.559564
0.725049
0.814269
0.909528
1.01309
1.13411
1.07105
-0.796239
1.23363
0.792088
0.937161
0.984503
0.990718
1.05219
1.16323
0.496949
12.2351
12.2014
12.4523
12.908
13.4461
14.0899
14.8341
15.6777
16.6096
17.6133
18.6759
19.7773
20.8877
21.989
23.0557
24.0552
24.9712
25.781
26.4661
27.0226
27.4953
28.0222
28.4071
28.1773
27.7461
27.8177
28.4654
29.3626
30.0724
30.7827
31.6205
32.195
32.4048
32.4216
32.3283
32.1388
31.8713
31.5902
31.3226
31.1357
31.0774
31.201
31.5897
32.2229
32.9696
33.8007
34.7964
35.9087
36.9758
38.0411
39.2146
40.4338
41.5927
42.6079
43.454
44.0181
44.0295
43.6511
43.5596
1.65642
1.16641
0.803702
0.454518
0.135951
-0.140051
-0.374228
-0.603576
-0.852537
-1.07424
-1.23251
-1.32847
-1.359
-1.32227
-1.21736
-1.04413
-0.802441
-0.4893
-0.0976429
0.383722
0.973428
1.69659
2.54404
3.5409
4.40774
4.80574
4.74294
4.16605
3.40983
2.82695
2.41698
2.12753
1.90789
1.74064
1.61715
1.52946
1.47753
1.46685
1.50213
1.58663
1.7205
1.89619
2.1099
2.36138
2.54746
2.57134
2.44135
2.24298
2.12335
2.04629
1.94525
1.99993
2.37683
3.03565
4.09794
5.52521
6.81991
7.97282
9.62203
5.80767
5.91524
5.99435
6.12094
6.27869
6.46557
6.6796
6.91893
7.18606
7.48317
7.80908
8.16105
8.5368
8.93229
9.34454
9.76998
10.2053
10.6482
11.0978
11.5531
12.0137
12.4752
12.9175
13.3073
13.6028
13.8185
13.9636
14.0136
13.961
13.8928
13.8287
13.7625
13.6892
13.6172
13.5536
13.5051
13.479
13.4843
13.5292
13.6212
13.7678
13.9725
14.2408
14.574
14.9688
15.4263
15.948
16.5636
17.3534
18.2318
19.0177
19.7437
20.5134
21.2902
22.0091
22.6157
23.074
23.4858
23.6163
2.60658
2.42397
2.31229
2.22731
2.16487
2.12826
2.11755
2.13309
2.17499
2.24546
2.34694
2.48163
2.65098
2.85659
3.09868
3.3769
3.68995
4.03503
4.409
4.80662
5.22133
5.64317
6.05738
6.44386
6.77404
7.02457
7.18392
7.25162
7.24356
7.18775
7.10009
6.98887
6.85942
6.71622
6.56238
6.40155
6.23702
6.07284
5.91458
5.76784
5.64001
5.53876
5.47479
5.45905
5.50485
5.62605
5.83908
6.15734
6.58196
7.18431
7.97099
8.81392
9.64687
10.4561
11.2775
12.1384
12.9658
13.755
14.5856
3.90967
3.93726
3.96912
4.03353
4.12029
4.22812
4.35587
4.50264
4.66725
4.84831
5.04504
5.25647
5.48126
5.71902
5.96843
6.2286
6.49837
6.77561
7.05896
7.34556
7.63177
7.9122
8.17965
8.42636
8.64246
8.8224
8.96149
9.05923
9.11797
9.14496
9.14704
9.12794
9.0933
9.04848
8.99665
8.94455
8.89625
8.85526
8.83071
8.82866
8.85693
8.92401
9.03999
9.21504
9.46092
9.78669
10.2015
10.7086
11.2975
11.9952
12.8277
13.7039
14.5363
15.2882
15.9714
16.5932
17.1203
17.5936
17.8891
2.80438
2.71863
2.67375
2.6558
2.65899
2.68478
2.73385
2.80624
2.90222
3.02117
3.16418
3.33063
3.52047
3.73286
3.96632
4.21896
4.48855
4.7692
5.0607
5.35846
5.65825
5.95209
6.23263
6.49459
6.72427
6.92085
7.07559
7.19134
7.26729
7.30583
7.31332
7.28705
7.23518
7.16377
7.06887
6.96391
6.84774
6.71502
6.5867
6.46619
6.36372
6.28991
6.25697
6.27881
6.37198
6.54399
6.81092
7.17654
7.64461
8.21178
8.87206
9.59438
10.3652
11.1683
11.9254
12.5992
13.221
13.8202
14.3782
3.09546
3.07946
3.08345
3.11473
3.16549
3.2358
3.32381
3.43057
3.55471
3.69319
3.84707
4.01448
4.19663
4.39116
4.59591
4.81057
5.03782
5.26249
5.4958
5.72969
5.96719
6.19658
6.41431
6.62737
6.80612
6.97144
7.10088
7.21068
7.29295
7.34505
7.38275
7.3816
7.3617
7.33667
7.27756
7.2281
7.17482
7.08635
7.02969
6.98229
6.95761
6.9637
7.00917
7.1065
7.27932
7.51243
7.83859
8.24395
8.73623
9.30724
9.94243
10.6175
11.3116
12.0169
12.6777
13.2514
13.7424
14.1858
14.5359
2.83223
2.7617
2.72039
2.71156
2.71573
2.75029
2.79462
2.87996
2.98094
3.06936
3.20489
3.34939
3.52075
3.71588
3.91866
4.14947
4.39975
4.58506
4.80743
5.04068
5.29772
5.53278
5.74525
5.99032
6.14379
6.3188
6.42341
6.53386
6.61621
6.66672
6.72704
6.70164
6.67231
6.67037
6.55638
6.53487
6.54335
6.32926
6.20965
6.09322
6.00123
5.93334
5.89596
5.90539
6.0734
6.20147
6.50603
6.81195
7.16646
7.62603
8.19252
8.85013
9.49504
10.1492
10.8095
11.4518
12.0232
12.6097
13.0743
2.77473
2.78828
2.77921
2.82462
2.86862
2.94706
3.0085
3.06332
3.17628
3.36968
3.41705
3.56184
3.75865
3.9014
4.12506
4.2066
4.4551
4.64986
4.86577
5.0196
5.24241
5.41117
5.58153
5.80654
5.9007
6.06575
6.12859
6.23034
6.3613
6.29289
6.47467
6.43376
6.33096
6.38069
6.23517
6.28243
6.10609
5.84483
5.95133
5.84567
5.78127
5.78292
5.71032
5.73101
5.85604
5.92285
6.13586
6.34625
6.83496
7.30311
7.76765
8.28352
8.83103
9.51487
10.135
10.6514
11.173
10.9809
11.5439
-5.15012
-5.06558
-4.64712
-4.08187
-3.4226
-2.81018
-2.31103
-1.81974
-1.3037
-0.870237
-0.534511
-0.197905
0.108001
0.382779
0.802927
1.40615
2.06967
2.76286
3.5359
4.42194
5.42448
6.5525
7.88146
9.61383
11.2616
0.381062
0.456682
0.308685
0.158144
0.178414
0.361166
0.596097
0.852268
1.08572
1.15453
1.04156
0.864996
0.69343
0.589581
0.663681
0.921247
1.19046
1.32237
1.37561
1.51263
1.76475
2.07239
2.40233
2.79318
2.89859
-0.737545
-0.675047
-0.576658
-0.453686
-0.256641
-0.0111266
0.23629
0.465263
0.653746
0.749008
0.750619
0.710591
0.664509
0.650357
0.727003
0.906454
1.14335
1.40178
1.69242
2.04882
2.48076
2.98544
3.56626
4.23198
5.07755
-0.280048
-0.241427
-0.13595
-0.0321344
0.103435
0.259883
0.420102
0.568511
0.69177
0.771792
0.809609
0.825604
0.839044
0.869218
0.937822
1.05038
1.19411
1.35714
1.54096
1.75358
1.99392
2.25022
2.50435
2.71578
2.94188
-0.204326
-0.168898
-0.058754
0.0494003
0.179403
0.31659
0.453838
0.578205
0.683064
0.760843
0.812616
0.849771
0.885013
0.930062
0.998506
1.09674
1.22385
1.37788
1.56045
1.77424
2.02201
2.30438
2.62844
2.98958
3.50107
-0.0819044
-0.0308202
0.0801308
0.17861
0.295232
0.410171
0.5265
0.630185
0.720233
0.793194
0.848259
0.893462
0.938224
0.98802
1.05247
1.13667
1.24238
1.37021
1.52041
1.6914
1.88359
2.09164
2.31541
2.53214
2.82769
0.0665981
0.0649247
0.184845
0.269931
0.378719
0.477226
0.582695
0.673149
0.754401
0.824635
0.878607
0.924995
0.973775
1.02424
1.08622
1.16408
1.26049
1.37799
1.51727
1.67487
1.85635
2.05668
2.2878
2.53855
2.90154
0.208533
0.138788
0.280766
0.349488
0.456492
0.541641
0.644467
0.72353
0.795655
0.863519
0.911986
0.954481
1.00785
1.05842
1.11794
1.19143
1.28062
1.38852
1.5152
1.65562
1.82388
2.00448
2.22851
2.47645
2.79193
0.209118
0.18852
0.387359
0.428595
0.529006
0.580304
0.681398
0.743412
0.831735
0.897201
0.947636
0.978907
1.02246
1.06426
1.12509
1.19227
1.27455
1.37613
1.52157
1.65999
1.80915
1.98688
2.17543
2.28226
2.47707
-10.9386
-10.9289
2.78616
5.25805
1.35035
1.25952
-3.00219
1.77876
1.9168
6.29317
-11.5322
1.72189
-12.3903
0.490985
-8.09255
3.05079
-5.24576
5.23672
6.16341
-17.8409
-18.8501
3.51142
-10.496
3.17556
1.73497
2.50207
1.70226
0.705367
-9.88544
-8.28342
6.85099
3.00605
-13.2993
-12.4045
-8.96871
1.63352
-3.86727
-7.75655
-5.89526
3.77405
-12.5819
3.52315
2.90576
0.585708
1.78076
4.9422
-11.1931
-9.34982
-9.27963
-12.4182
-11.1715
-11.6267
-16.5376
5.2744
-2.77955
2.04618
0.471445
-17.8705
0.952945
-8.29263
1.83957
3.4501
1.36507
3.13335
1.73755
0.511511
2.79687
3.16558
-9.59009
-11.2263
1.48837
4.11032
1.43759
-17.164
1.31109
-19.822
-16.2801
-11.2692
0.584807
5.32263
-12.0957
2.00751
2.02958
-8.22898
1.51485
1.90641
1.42177
-11.458
-13.5183
2.24353
2.60573
2.11925
4.89484
1.77891
1.34162
-11.3732
2.39853
-10.8675
3.45746
-8.40278
1.00714
-13.0418
0.968993
3.549
1.0332
0.984407
-10.4795
-14.3837
2.3407
-7.647
2.9748
2.02348
-8.8445
3.4262
-17.3382
-9.19109
-12.6402
4.1257
-13.8479
2.22066
2.71359
1.93679
3.33668
1.8371
-13.0803
2.92604
-11.8562
-18.5741
0.304292
-9.6404
2.15462
-17.2864
-10.867
-9.36393
0.462438
1.43467
1.87474
1.10733
2.05648
-17.3311
2.03939
-4.77978
-8.93429
2.74851
-9.63035
2.65204
4.92202
-17.7608
1.91575
-9.0605
-0.827753
-0.0186085
4.85783
-9.0266
1.67277
-9.37036
1.28671
3.86694
-14.1087
4.28207
3.1094
1.58124
2.37365
-10.892
3.4765
-8.09501
0.419702
1.5331
4.05237
1.26682
0.49246
3.26476
3.0061
-8.40757
2.35987
0.700683
-15.5924
-10.3901
-8.74824
4.10225
-12.3662
3.36603
-15.4595
-12.3544
1.05901
3.95665
-8.49511
2.28706
-13.1677
2.40047
-9.08096
-9.08411
-1.04422
-3.90728
-8.8739
-13.2333
1.33803
3.40444
-9.33817
-9.95532
-9.71739
3.76834
2.18169
2.21068
-0.616255
4.2795
3.31309
1.03687
-9.97593
3.88037
1.01659
1.84265
-12.3237
-0.766039
-0.869609
-12.2888
1.24214
4.10599
6.19567
1.70647
0.941352
3.56808
1.74813
3.48136
4.99778
-12.5278
2.6308
-4.94804
2.32252
1.40468
-9.06498
1.74895
3.20259
2.22044
-5.56559
4.92441
-13.8076
0.750856
-12.7336
-8.31645
5.5355
1.75949
3.64052
0.639004
1.41769
1.6232
2.88451
1.07769
2.80688
3.67643
2.37162
0.744857
3.60078
-9.80598
2.7334
1.34463
-8.75237
-15.9708
-14.0826
9.45969
2.60304
0.309603
2.17225
1.57586
-17.1059
1.91321
4.6102
4.71642
-3.88779
1.55573
-17.8204
-1.46973
3.32465
4.11273
6.80424
4.64791
3.00923
0.900171
0.40183
-10.8634
0.62745
-0.727697
3.42679
4.54905
-8.44036
2.39783
0.857503
5.17795
-11.8025
-9.02744
-5.63652
2.58156
3.2786
-11.8664
-9.97682
-12.4029
-10.7995
2.43794
4.12705
-9.13941
-10.1391
2.8993
3.98143
2.32322
-9.51689
4.09694
-19.3694
3.05074
-17.4895
2.20409
3.57893
3.93488
-13.4883
0.459913
3.29511
-3.39804
-11.161
3.62408
1.75651
-8.47023
-14.7154
2.36471
3.96397
6.71472
1.6071
1.93493
-12.7278
-14.7153
2.73381
-17.407
3.2794
-8.99224
0.935571
5.66323
-11.8316
1.86721
1.8822
2.10551
2.20603
2.93167
1.83784
1.64705
-9.03103
2.92145
-17.1299
1.265
1.17215
3.41674
1.49175
-9.55751
1.5876
5.04006
2.95284
-14.4492
-11.8951
4.95706
-7.70185
0.23419
3.55577
-8.27202
-10.1763
-10.399
4.11798
-12.6624
3.60225
1.38866
3.34467
-11.6577
1.99919
-12.7979
4.72805
-9.5026
-10.0187
-3.69812
-10.8941
2.06331
2.06988
4.01748
4.2348
5.15963
-10.5813
2.46897
-12.7329
0.390622
0.641588
-8.74179
3.72451
-17.8607
-11.8197
-8.85169
-1.52455
4.52087
1.50052
-8.79832
-12.4506
7.44098
3.66055
-12.602
3.90358
-9.64167
1.7216
3.08855
1.45032
-11.6922
1.57429
3.9874
-3.7153
1.50279
-0.440653
3.96343
-5.35588
1.86902
-8.89152
1.89727
2.44496
4.60376
-9.02392
-9.34932
4.18574
2.5131
3.21099
4.05452
2.22842
0.898814
4.34073
-10.5435
2.24329
3.76788
3.13034
3.02762
1.70921
1.3282
1.73058
0.60656
-3.85993
3.53746
2.40446
3.24757
3.35728
4.25837
4.17498
-8.25441
-12.1181
0.0111616
-11.6593
4.82253
0.824517
-1.4773
0.953742
0.550098
-3.61906
3.23277
2.23329
-9.02421
4.59042
-11.2208
-7.9785
2.13408
2.60423
-17.7127
2.33218
-0.0234008
-5.41183
-12.2829
-10.5512
1.53976
1.17271
3.88877
4.12693
-11.2585
0.696777
1.48866
-10.1622
4.33615
1.86426
-13.5459
1.8714
1.34988
-17.6153
-17.5456
-0.977729
-6.618
3.78448
1.64962
-8.90775
1.44777
1.93014
4.84768
-9.5451
3.30334
-10.982
2.77125
1.99276
-8.48074
1.9139
1.12135
-9.73978
1.85275
4.82534
-12.7233
2.93501
-4.89701
2.11652
0.653691
-16.3967
-12.4751
2.65362
2.39588
-3.48515
2.55373
3.31755
-11.6014
2.63407
1.96712
3.9905
-11.7094
-9.78884
-8.82384
2.02397
-1.38124
4.77279
-9.38096
-17.8117
5.11405
-11.8604
5.13075
-10.6391
-13.2499
3.99476
4.25115
0.83416
3.17838
4.32595
0.238056
2.16978
-0.190573
2.41755
-9.2513
-9.47563
2.62781
-9.44606
-7.42583
2.65013
-10.9621
2.95651
3.93361
2.34089
0.921922
1.90032
0.499392
-5.27041
-6.68047
0.337458
-9.8166
-9.00801
-11.0377
1.68279
4.30457
-10.9287
-10.5886
2.43113
-10.2151
2.24745
-13.1642
-8.37303
6.88418
-1.1743
0.849331
3.21263
2.32717
-13.6099
5.6662
-8.46139
1.18756
1.27501
-8.34782
-9.70411
-10.4472
0.893953
2.47428
-16.8118
-17.2095
3.53627
4.48897
1.90152
-12.3115
3.31333
1.27004
-5.15942
4.84698
1.23796
1.44227
3.23863
-10.9465
4.4167
0.851153
-12.9626
-9.15586
1.3623
3.37326
-9.01057
0.77597
3.66878
3.93702
-18.2542
2.84229
2.20577
3.91236
5.14586
3.19059
3.24194
-5.76178
1.69248
3.94871
0.919156
-17.2916
4.21209
1.18332
4.28769
3.5089
1.556
2.15346
4.10106
-0.144696
1.35804
-8.45744
-8.39357
0.678425
-11.8092
1.1593
1.44823
1.42363
3.88964
2.79895
2.24531
-17.0053
2.43423
1.84095
0.0436806
-12.7455
-1.38181
0.59771
0.530074
3.12539
1.3676
3.96728
2.56114
0.0814138
-8.61713
-10.7256
-14.35
4.12063
5.66322
2.90299
5.4227
4.07869
-9.73874
12.5851
-19.2111
3.65979
-10.4502
5.34
-11.167
2.8144
1.48058
1.88156
-12.0479
-1.63076
0.517964
-17.2163
1.327
7.13766
1.63043
-9.9483
3.72254
2.31189
-9.63202
1.68757
4.7745
4.82954
3.37322
-15.9833
3.9205
2.08121
4.60308
0.551843
3.88947
-9.5427
-11.0549
2.7751
-4.32694
4.12595
-11.4232
2.03158
4.49961
3.599
2.41208
-5.08737
2.92262
3.46433
0.981225
3.14636
2.6552
4.24577
4.96932
-8.30376
-11.4466
-0.655035
-9.96409
-6.16167
-10.0885
-9.17484
8.28776
1.30696
1.53049
3.98495
2.47961
-0.0897749
2.89774
1.76658
-11.1453
3.85289
4.03307
1.16751
3.4106
2.45343
1.65419
-0.511422
-13.957
-11.9066
5.64687
-9.54601
-2.34551
-10.4271
-19.0983
-12.9074
-12.0276
4.44575
4.0811
2.71579
3.72233
3.47709
2.21819
-9.32467
-10.8988
3.26356
-14.7626
0.215432
4.17706
1.70878
2.0047
-8.1742
4.03101
1.74921
-2.83962
-10.0075
-14.6565
-10.7108
3.98979
4.11441
1.36885
3.79439
-10.3162
-0.8377
-10.5116
-9.7239
1.26487
-11.2349
2.33735
4.04394
0.88264
1.20271
1.13358
4.28919
2.62288
1.98601
2.23166
2.22978
2.95726
2.16485
2.59144
3.93176
-10.2647
-5.75579
3.31456
1.72447
3.06771
-17.203
1.57818
6.73966
3.54488
-17.7675
-0.741512
3.84735
2.10491
-10.0996
3.83305
-16.7448
2.37952
-17.5605
-10.5378
-12.1936
4.77645
-9.62895
0.270198
3.87923
-10.8881
3.42666
1.71676
2.09461
-13.4738
2.68881
3.0344
1.45156
-12.2251
1.45222
3.69343
-4.99395
4.35475
3.19715
0.927057
-10.3079
-10.8687
3.91077
4.28153
3.84473
-17.863
-5.25125
3.44067
1.59849
1.16475
-15.5005
4.18918
1.78045
-11.2585
6.57729
2.08
4.84642
5.41655
-15.9449
2.07255
-17.8546
3.90255
1.92957
-10.1895
3.84441
4.15141
4.23147
0.708238
-17.6148
-11.5111
3.97354
4.12267
1.96823
-9.03884
-17.1205
3.06979
2.2875
-10.6646
-7.2472
2.31337
1.11855
1.08239
-9.19535
4.06077
-16.1977
2.96291
2.31517
-12.4315
2.63217
5.04243
3.86315
-18.5788
-9.94301
-8.52547
-8.88096
5.09469
-11.9726
-9.45791
3.76388
-2.98311
1.59475
1.10632
-17.7118
2.23274
1.57008
-18.6959
4.11817
4.29894
4.22666
-13.347
0.322291
2.9221
-12.9728
-10.3517
-9.48747
3.71561
2.17188
-9.51731
-9.93947
-9.8662
-16.3995
-12.3267
-0.115624
3.91288
-1.40994
-8.77195
3.34295
3.88667
-0.065122
-4.18679
3.09213
-1.72058
-10.6546
2.86635
1.1749
4.13151
-8.39654
-4.06372
-10.1221
-9.18384
5.22357
0.732396
-1.09719
2.0013
-10.6618
-16.7499
3.9257
2.19304
2.16124
4.09898
-17.38
-11.5123
2.03332
-9.20629
3.10957
-13.7063
4.7217
1.63631
1.83115
-0.339985
-10.6903
0.546845
-17.2566
2.60314
2.76326
-5.37375
3.47358
-7.64551
-9.50696
-7.35632
2.04082
3.44349
-4.50359
2.62616
3.86302
1.89954
-8.24008
2.64622
0.918883
-13.8811
-4.05753
1.15996
2.18241
3.12204
3.583
1.12889
3.2979
-17.4306
3.80254
2.03915
-8.96601
-17.4457
-1.12343
2.43929
2.48411
-1.51085
4.19985
-9.35584
1.27842
1.08347
-8.5562
2.50622
2.13596
-0.121432
1.46702
-9.83654
5.15982
3.73114
3.72828
-3.64493
-3.40674
-12.6908
1.76834
-16.1545
2.72069
3.02966
2.76707
-9.62911
-12.1321
3.04345
-6.7477
4.1925
-9.87019
2.3584
-9.68919
1.43533
1.59948
3.28886
-1.76935
-6.98247
2.22167
3.95167
-17.587
4.16857
3.65539
1.84428
3.69931
2.27703
-9.90621
3.21117
2.43313
-10.9765
0.791026
-8.92214
4.1152
2.17617
3.06302
4.82335
3.98579
1.13002
-12.5641
4.82196
0.321228
4.11311
1.90686
-1.41651
-9.20155
3.08671
4.21202
2.44531
3.87276
4.29371
3.74097
-9.33347
5.32718
-18.7861
2.55599
-5.73686
-8.95804
0.806262
-17.6658
2.72227
-10.7244
-10.5021
-9.17571
1.98021
2.20618
0.768697
-10.4179
4.05312
3.75986
3.05262
2.09086
-6.68902
0.762191
3.63611
1.13465
5.79777
7.21256
4.59692
-10.4893
8.31224
-13.6337
4.02631
3.15302
3.76483
5.10051
-15.4423
4.21495
-17.016
-15.1873
1.54208
3.81521
-9.69365
-10.5261
4.15712
4.07897
4.22315
3.7932
5.29517
0.825199
-10.4405
2.30477
5.90253
-13.7398
1.89467
-0.628965
-6.59608
3.59587
1.48513
3.8171
0.924551
-13.8354
4.2491
-16.5692
2.94245
0.877982
4.55947
-13.2166
-13.3848
3.39986
6.13859
-14.692
3.78817
1.11138
-5.32671
-10.2582
4.3205
4.98094
4.2385
0.556986
-10.9978
1.48464
4.31929
-10.959
-9.2261
4.03441
3.36894
1.23524
6.03263
2.62332
-15.8592
1.74272
-12.7532
1.95036
4.0516
1.67175
-15.8673
3.1032
-11.7781
-6.10919
-6.84593
-10.8535
-9.72791
5.38013
2.72041
-12.4555
-15.9787
2.0143
3.70025
2.03606
0.915719
3.1835
1.79061
2.1392
-3.6953
1.16103
0.755417
-6.72679
1.10511
2.09751
2.74924
-9.23646
4.10577
-12.0269
-11.15
1.1031
3.32409
2.17554
3.01601
2.08383
-15.7235
3.99569
4.14606
1.95705
3.40068
-13.5324
-13.1438
3.17936
2.42382
1.24155
4.04695
1.48918
0.678192
5.34147
1.08413
0.201033
-10.1925
4.09858
2.60128
-1.56859
2.34669
1.77039
2.84667
4.04728
2.15351
3.7225
-12.2448
2.6465
5.14527
-9.30114
1.3987
-1.44774
-6.34941
3.78116
2.33545
4.14299
-9.15063
2.69765
-12.466
4.54879
-6.21615
-12.2178
-18.307
-10.1956
4.30298
1.88993
-17.3283
-15.6372
1.06041
3.78422
4.29513
-11.0213
4.14155
2.62677
4.18278
4.68069
-1.80427
4.22026
1.30148
4.09696
-10.4363
-17.6856
5.21223
5.60077
5.34148
3.27366
2.13808
-6.85811
5.36035
0.0365716
-13.1001
-18.3619
3.81512
-15.3762
-9.89613
-17.407
-10.7798
0.243461
-10.5283
-11.9306
-8.9449
4.02692
-9.28195
4.55622
1.33072
5.21375
4.64203
-11.0188
-10.7291
-10.4887
-12.6233
0.838709
3.05178
-3.06606
-11.7257
4.80632
-12.4039
3.94989
-17.4505
4.54305
-10.0757
-0.707386
1.04914
2.28716
-17.9972
1.98855
-0.147488
-17.1426
3.55245
-9.25917
2.38719
3.00886
-7.35306
-2.89853
2.36813
-15.8421
-8.38949
5.54978
-15.8278
4.82381
4.13206
0.718247
1.1182
-11.6152
-10.8559
4.11233
-13.4796
3.00557
-18.0092
4.8335
3.85544
3.12708
-18.3357
-1.61114
-13.3023
2.83571
-9.56994
1.47338
-15.8337
-12.351
-0.647606
4.3022
-10.0836
3.57452
2.52555
3.64897
-13.8371
-12.0693
1.8158
-13.5075
2.41947
2.27792
-3.99505
2.93819
1.83342
-11.5353
4.41627
3.85817
4.86916
1.97097
3.32937
5.59865
-12.1367
-10.7073
2.11813
4.72862
2.48255
-11.0301
-10.817
1.90532
0.24543
0.926579
-13.7705
0.215001
-1.921
-10.4663
1.64979
-15.8614
-12.4932
1.77852
1.93241
4.52281
4.85261
1.59737
2.71378
1.08542
0.704807
-11.4735
3.02251
-12.9556
1.72603
-11.8494
3.4924
-11.8799
-0.668952
-16.6791
-10.0369
1.18413
-0.31927
3.3929
3.45676
3.21305
-9.68901
-9.14526
4.15116
3.96387
2.83568
3.79966
1.8532
2.44139
-12.764
-9.28624
-17.4166
-12.9524
4.67242
1.56442
-11.6115
3.56896
-10.1249
3.81677
1.94666
1.05127
2.62894
1.91115
2.885
1.90883
-0.431063
-12.5355
-10.4055
5.35858
1.90788
-17.3361
0.99111
2.14391
-8.99331
-10.8379
-8.92334
3.08875
-18.1089
2.06983
4.7825
4.39481
1.75316
9.13424
-5.69929
-10.2555
3.82305
0.855252
-17.1527
2.48758
-11.5251
-8.79742
2.85811
0.451817
3.66754
0.952008
-12.4795
1.21551
-10.2596
0.944687
3.59972
1.02459
4.98279
0.360795
4.66011
2.88656
3.80929
1.55127
2.38058
-15.5139
4.77643
-5.5605
2.54363
2.94685
3.27762
1.05632
2.11001
-1.28862
-11.3938
2.57099
-11.1064
6.2168
-15.1879
3.81794
4.4576
1.81351
1.56229
-9.7001
3.0426
3.14913
0.483902
-4.55956
3.94892
5.17727
4.71556
3.93549
-4.36256
2.00572
2.47511
-13.9059
2.01993
5.65271
2.8676
-11.5747
2.98876
-10.7829
-10.5977
4.37931
4.05238
3.95418
3.80365
-13.4113
3.59553
5.18272
3.33175
-16.1176
1.06849
4.30362
1.53994
-5.7049
-5.83402
1.13963
2.26681
-8.85128
4.27459
1.44673
-9.49967
2.80912
-1.63239
-10.9678
6.64887
-12.3334
3.95664
2.86012
4.80088
1.87418
-2.95034
-8.6229
3.15012
5.46366
-11.4787
3.16174
4.32385
3.99736
0.541585
-4.42455
1.61636
1.4401
5.77284
2.54847
1.46672
2.59203
1.0479
4.68239
-6.54877
-15.0819
1.48284
-10.4337
1.11547
-16.8869
-10.6772
-16.1504
-9.0746
4.66092
3.65893
-16.2072
4.24296
3.3599
-9.41356
2.74031
4.60272
-10.6547
-12.6577
3.34542
-9.01663
1.39519
-10.2994
1.2158
4.11531
0.340079
0.7155
-16.8689
3.05042
4.09444
0.479931
2.45883
-8.84188
0.136351
2.58263
-10.7035
0.598199
-11.0596
0.736169
-13.4247
2.90308
4.292
2.19577
5.06314
-17.8205
-8.47312
-17.5391
1.38739
-11.7397
-12.7564
4.8947
-17.3053
-1.16389
4.04423
-18.3126
-9.80509
3.25451
1.09176
1.29209
-12.7689
1.74438
4.16717
-13.5673
-16.9539
0.636034
-12.9637
-12.9001
1.95366
0.884023
-3.24349
1.08995
-18.1889
1.12803
3.91334
1.93914
-7.81643
1.49071
-2.10059
-11.0437
1.65346
-1.98538
-2.57343
3.89519
-11.1635
3.58702
-18.6417
3.86513
1.96437
2.71064
5.08311
2.20963
2.54324
3.8992
1.19385
4.27974
-11.2107
-17.2974
2.23565
-18.6533
1.56864
2.00218
2.93757
3.16107
2.85744
-7.57773
4.19227
-3.68501
-11.6073
-6.14638
-16.3612
4.8134
3.65777
-11.9764
3.41299
2.05272
2.74549
1.7592
2.2451
-9.40521
3.58933
4.25253
1.66947
0.951078
0.870624
-5.3823
-1.70402
-2.45528
-10.1207
2.26259
1.84885
4.41748
2.74633
1.69395
2.14654
0.973029
1.92708
5.08793
3.86524
4.17977
-2.56802
-11.6792
-9.6518
1.07492
4.15367
-1.8034
-8.9595
-9.60335
1.38925
2.24814
0.497155
3.86486
1.67556
1.06765
-8.99356
-1.71223
1.82532
2.42173
3.08874
1.04925
-11.0453
1.34539
3.06561
2.2114
2.62783
-10.0054
4.93319
-8.87017
4.60294
1.15953
1.03997
3.68864
-9.99749
-0.835172
3.02666
-12.7053
-17.3221
0.156336
4.09129
2.58052
-13.2866
-13.5694
-13.1019
2.00052
-17.7441
4.11469
8.19556
-7.24415
-9.37065
1.78392
2.08053
-2.21592
-5.11082
4.43534
1.46902
-9.60631
1.88336
4.81477
2.78549
3.65821
4.5208
5.20726
4.07033
3.925
-10.8876
3.4993
1.5747
1.32519
3.72707
-0.414845
1.13418
-17.0717
-1.55102
-1.65858
4.34925
3.42386
3.3585
4.33647
2.82661
1.89772
-17.4181
4.02982
1.18877
4.79733
2.40994
2.50994
1.14372
3.96106
-12.0132
1.69901
-17.1687
3.01302
7.00049
3.52808
3.1016
4.2077
-10.7042
3.56199
1.33888
3.86388
3.99402
-12.6703
2.20826
3.68634
-11.1806
-12.4583
1.61794
-9.95372
4.25769
-15.8961
3.99488
-12.2022
4.12165
-3.36055
2.12564
-10.7637
0.687725
-12.1359
-9.08046
-9.67552
0.164023
-12.9006
2.02226
1.31544
1.98659
-10.5194
3.67315
1.2336
-18.2347
-10.1135
-10.5444
4.75231
-13.3273
1.07859
3.20959
1.76412
-1.0428
3.90072
-6.37919
2.9517
2.58379
4.81874
4.20245
4.14288
-12.0878
3.73432
5.19415
-10.1263
-1.21717
1.40393
2.07418
-9.34248
3.37422
3.45923
-11.642
4.45416
0.0722489
-3.51783
3.39574
0.864788
-18.1599
2.18109
4.04146
4.09719
1.68732
4.43854
2.57369
-11.9882
1.51851
-12.0875
0.580513
1.03804
-9.90468
-0.0286903
0.307173
4.02227
1.47655
2.51597
1.52977
-9.96497
-10.1295
3.84111
2.98598
2.45551
-13.4597
1.10619
-1.78108
1.54335
1.03045
3.77948
4.84646
-2.70682
1.08969
-15.4751
-14.9064
3.87671
-10.8993
6.02573
-17.2544
-1.04407
1.72495
3.12955
1.10665
3.18806
2.9765
-12.8555
-2.76988
-11.0438
-9.58837
-18.1327
3.34995
1.53809
-4.33587
1.61553
-3.29202
-12.5424
3.84701
-9.83149
-17.4744
-8.86194
3.8223
1.51676
2.21927
4.50272
-11.7269
4.1759
-11.362
3.56664
4.32119
0.88811
-10.1716
-14.447
2.46517
4.20593
4.95445
3.99301
2.89787
-1.65061
-17.6726
3.08328
1.87976
-11.1618
4.1299
-15.4968
4.12164
2.4681
4.87854
-10.0116
3.46003
2.19159
3.78531
3.92838
0.741311
2.64886
-9.71677
0.814523
2.24405
3.01423
2.04021
-17.9216
1.50618
1.37838
-7.07584
-10.2482
1.0436
-16.804
4.16593
-9.02536
-18.4936
3.61313
0.795229
2.72105
2.52448
1.35644
-13.5165
-1.10188
5.91789
1.68094
-7.43637
-3.25009
-8.35066
-16.3251
-0.188874
4.80357
-10.7108
1.06051
1.87106
2.06931
4.5422
-16.7677
-12.6698
3.47086
-17.0062
3.14866
-17.9395
1.33208
-9.39339
-12.769
-9.21085
3.7897
0.79755
3.8854
1.08531
-18.8677
-5.56451
4.16342
-1.3509
1.41496
-11.184
3.75437
-3.98214
-2.77595
-9.35847
1.03795
-14.6943
0.436712
-11.58
-10.4125
3.9798
1.20162
2.95315
5.51611
2.54808
-4.9363
4.02157
2.57151
-15.6206
1.38208
0.154447
0.653578
3.54434
4.6694
-16.9489
-13.4097
0.526768
-13.8687
2.13729
3.85043
2.94109
-10.7138
-15.4958
-11.0685
2.60839
3.46358
3.86579
-9.51388
0.515224
-1.27744
2.44874
-12.7264
2.59104
0.423464
-14.3526
3.6142
4.27243
1.12463
4.02939
2.3439
5.45707
-0.36236
2.93791
3.53387
-11.6744
2.63325
-12.3511
-13.4119
0.487403
-6.71777
5.12788
-9.6537
4.95753
-12.1932
2.02683
3.48208
4.58331
4.9425
2.83372
-0.109679
5.99226
-18.3446
2.79216
3.4727
2.17778
-13.0486
3.46275
3.47902
2.93046
-13.6485
2.3817
-8.9222
-5.64703
6.31156
5.33787
-2.88591
-16.2643
-16.7673
-2.1262
4.14179
1.15239
-15.3478
-11.3723
-10.2804
-11.4753
3.62197
3.02813
2.67921
0.568699
5.03869
3.86474
4.33691
1.52163
3.96076
-16.8194
3.36279
-13.3285
4.65858
2.43414
-2.10148
2.49776
-18.3657
0.679556
1.33124
2.00864
2.16868
4.20634
1.3027
-5.91055
-0.158437
2.61223
-3.67859
-12.7902
-12.2044
4.22049