/*--------------------------------*- C++ -*----------------------------------*\
  =========                 |
  \\      /  F ield         | OpenFOAM: The Open Source CFD Toolbox
   \\    /   O peration     | Website:  https://openfoam.org
    \\  /    A nd           | Version:  10
     \\/     M anipulation  |
\*---------------------------------------------------------------------------*/
FoamFile
{
    format      ascii;
    class       surfaceScalarField;
    location    "1100";
    object      phi;
}
// * * * * * * * * * * * * * * * * * * * * * * * * * * * * * * * * * * * * * //

dimensions      [0 3 -1 0 0 0 0];

internalField   nonuniform List<scalar> 
16133
(
1.83851
0.362892
-0.595691
-1.6058
-1.5458
1.34967
-1.66724
1.86335
-0.678015
-2.84744
2.16764
1.35782
-0.0372743
-0.287946
-3.09388
3.41911
-1.21784
0.204479
5.31428
-4.3009
5.56026
1.66268
-7.09368
-0.129261
-2.92541
0.894567
1.75417
0.276672
-0.0570136
-2.45735
0.656545
1.85782
-1.33016
1.94358
1.40112
-2.01454
0.522394
4.09029
-0.052137
-4.56054
2.6239
-2.23605
1.49715
-1.88502
3.55723
-1.36767
1.18822
-3.37779
-0.205177
-4.22002
2.48596
1.93923
0.855416
-0.749721
0.630476
-0.736172
0.933376
0.692115
-0.770077
-1.28044
0.905758
-2.88214
3.25682
-0.649319
0.556467
-0.656872
-5.87585
1.28831
4.35816
0.229379
-3.35028
2.71963
-0.699508
0.223225
2.09633
-0.481048
-0.551221
2.12807
-1.80217
0.225323
-0.276736
-2.96442
3.20387
-3.27489
3.3685
-1.37404
4.53417
-3.69687
-0.0895405
-0.747746
-4.13842
4.95599
-0.295161
-0.00240618
0.00296211
-0.0713103
0.0707542
0.0300346
-0.00613567
-0.0194155
-0.00448343
-0.213139
-2.13661
1.95029
0.399466
-0.0313194
0.0556966
-0.0323455
0.00796834
-4.68324
2.89768
2.69767
-0.833085
-4.3924
2.52783
-1.87289
1.64834
2.84846
0.742955
-2.19931
1.39934
-0.0373592
0.166138
-0.00911918
-0.11966
-2.24839
-2.16384
2.29011
2.12213
-0.812141
1.27515
0.966813
-1.42983
-1.87392
-3.37288
2.99842
-0.0414855
0.0824993
-0.0964241
0.0554104
0.0424897
0.0885675
-0.0229267
-0.108131
-3.2971
0.621963
-0.675137
-4.92375
0.188378
-2.90783
-0.69559
-0.874985
-0.316479
0.0934001
1.09806
-0.658691
2.6835
0.326735
-2.35155
3.51154
-1.50563
-3.87983
1.9541
-0.717033
0.588251
0.0482658
-0.424142
-0.326087
0.602686
0.147542
1.55457
0.955935
-0.566916
3.08964
-2.87645
-0.489927
-1.27664
-1.73193
-5.02752
5.27859
-3.62979
3.37873
0.120621
0.0413739
-0.119505
-0.0234554
0.0366982
0.0526394
-0.0658821
-0.0163049
0.0496095
0.0552629
-0.0289391
-0.0212709
0.0188906
3.05958
-1.66495
-4.7675
-0.0564244
-0.0776589
0.116974
0.0171092
-0.533724
0.786512
-0.54749
0.294702
2.84984
0.0736728
0.0168251
0.0301229
1.29387
-1.21235
-1.62734
0.0792187
-0.0154956
0.0103361
-0.0740592
2.35919
-4.17207
3.70674
-1.89385
1.60359
-1.36693
-3.47899
2.35566
-1.72411
-0.474352
-0.221777
0.162404
0.0122617
0.279381
-0.0436552
-0.247987
0.85675
1.92786
-3.18222
0.27073
-0.785376
0.0308922
0.00667667
-0.0610243
0.102693
-0.0275527
0.0102159
-0.085356
-0.898959
0.412985
1.44211
-0.956136
1.75629
-2.91248
-2.32279
0.659165
-0.973763
1.24798
-0.720346
-0.941959
1.0041
0.6582
-3.62379
1.23747
-0.795906
-1.72618
1.0818
1.53895
-1.41891
1.27533
0.886547
1.1885
-1.08195
0.552619
3.4008
-3.23412
0.520976
-0.687674
1.6847
-1.47876
-0.478154
0.272208
0.0538618
0.118084
-0.130572
0.0452827
0.061959
-0.0705435
3.76738
0.388682
-0.755278
-1.25332
1.04959
1.06478
-0.861055
1.45097
-1.24647
-1.09338
0.888873
2.63955
-2.25829
-1.03997
0.853254
-0.431155
0.490584
-0.912677
1.67964
-1.07801
0.849315
3.10231
0.637956
-1.10072
4.11045
-1.29611
1.89417
0.153421
1.06335
-0.970132
0.760041
1.96265
-1.0029
0.719884
-1.42677
-0.638685
0.859715
3.50269
-0.251975
0.570284
-0.740973
-0.803073
0.788527
-0.409212
0.407198
-3.39018
3.73158
-0.482515
0.141098
1.01616
-0.877033
4.65971
-4.48828
1.12561
-1.29701
0.866456
-0.980417
0.684756
0.746677
4.91216
-0.999124
0.227575
2.09485
0.0225441
0.460899
-0.605386
-0.323465
4.88628
-0.795435
1.23535
-0.565388
0.518539
0.098289
-2.60842
-0.366326
-4.12217
-1.58393
-1.32961
-0.520161
0.371
-0.551427
0.457166
0.0565828
-2.58707
-2.63856
-0.552967
3.52667
0.75786
1.24655
-2.12157
-1.40204
2.48362
-3.46572
-0.307648
3.22038
1.9056
2.12033
-0.499272
0.534227
-0.183669
-1.07091
1.46135
-1.29281
-0.699257
0.414277
1.63168
-1.34669
-2.78036
3.13956
1.82351
-2.18269
-0.0499581
0.116764
0.00706382
-0.0738696
-0.445556
0.659969
1.04316
-1.16891
5.05021
-4.08787
-0.0589211
0.0493249
-0.0120952
0.0216914
1.21832
-1.2576
-2.40986
-2.24337
-2.17305
-0.950578
0.56074
-0.0156457
0.107125
0.0112138
-0.0569908
0.140339
0.0920038
-0.175352
-0.478202
0.571362
-1.51993
-0.309812
3.47692
-1.75232
-2.32467
0.0128444
-0.374819
0.146471
-3.04313
4.23518
-0.0670834
-0.153457
-0.253811
-0.729191
2.26135
-4.68976
3.15762
3.35495
0.8173
-0.858871
0.780937
-0.739369
1.36629
-1.4302
1.21709
-3.88541
-0.816209
0.697085
-0.530199
2.89036
1.24063
-4.86017
-0.500449
0.137006
-0.0606989
-1.29588
-4.2489
1.80278
-1.54916
3.54351
1.60819
4.76344
2.17783
-0.161187
0.0378043
0.282682
-0.159299
3.60501
1.55987
-2.02532
0.79115
-1.65847
1.77474
2.05371
-2.16998
5.1721
1.25321
-2.39997
-4.02533
-0.860323
0.540221
-2.88005
3.23226
3.71838
-3.67806
-0.363792
-0.4977
1.18029
3.53957
3.41623
-1.94274
1.48509
-1.74165
-3.44107
-0.176835
3.31024
-2.69368
1.96744
-1.42662
2.15285
-3.92709
-4.93474
-0.297923
-3.04935
0.448582
-0.496306
-0.851235
0.00297976
0.0075339
-0.00793523
-0.00257845
-0.427952
0.504282
3.51654
-3.40075
1.12483
-1.26818
-2.05753
-1.53836
-0.660112
0.626048
-0.114141
0.148204
-2.35209
-0.243484
-0.0401775
0.11222
-0.0163464
-5.47375
-0.402835
-2.6549
1.35196
0.0979402
-0.0742256
-0.788086
-1.22433
2.22128
-2.72313
2.79986
3.64004
3.23457
3.04242
-2.28976
0.141632
0.0539564
-0.141727
-0.0664189
-0.00814797
0.767009
-1.62548
1.31407
-1.83121
1.9128
-2.28038
-0.50725
0.695138
-0.607352
-1.22383
0.0359735
1.71986
1.00905
0.156241
0.000856064
-0.198583
-2.82638
2.40807
0.182316
-1.05808
1.27713
-2.21589
3.35927
-1.08681
-0.40971
0.0765902
0.0557722
-0.0531438
3.46621
-0.2363
0.0101423
-0.274292
2.21695
1.43118
3.47542
0.0248886
0.00812572
-0.831302
0.792212
-0.628804
1.25767
0.128092
-0.125713
-0.160558
0.158178
-0.0578965
0.0554902
0.484672
0.08308
-0.0682167
-0.0550408
0.667316
-0.231221
0.189953
0.258211
-0.143971
-0.181324
0.786119
-0.0287937
-1.18527
-0.0257402
-0.0900286
0.153552
-0.0377836
1.83692
0.056394
-0.0610173
0.00462326
-0.413368
-1.10666
3.36443
-4.3781
0.995035
0.706327
0.463323
-0.442749
-0.134715
-1.83775
-0.00150251
1.03315
-4.02885
-0.0600254
0.058523
0.0259196
-0.0244172
-0.398769
-3.82388
-0.0921126
-0.0180457
0.0844181
-2.98472
-0.568435
-2.49292
4.72283
-2.04161
-0.0276133
-0.135626
0.0732105
0.235844
-0.29005
0.182298
-0.0236444
-0.0414074
0.0361127
-1.57069
1.4673
-0.496226
1.68715
0.983343
-0.757695
0.00527626
-0.0149621
0.00968585
-0.985648
-1.90988
0.0200359
-0.0331458
0.0131099
1.14029
-3.78702
0.85531
1.01477
-0.470397
1.28135
0.0156722
0.00436368
0.386899
-0.161643
-0.198418
0.336281
0.182043
-0.686213
1.42372
-0.315388
-0.594942
3.46319
0.165023
-0.0606837
0.0372932
-0.587503
0.164236
-0.781164
1.04247
-1.82469
-0.424886
2.12271
-0.686602
3.51988
0.0511785
0.00431169
0.431344
-3.57435
1.20177
-0.614171
-1.68343
1.23338
0.739015
0.285989
-1.92234
1.32053
-0.160271
-0.0304548
0.0650128
5.66807
-0.0773222
0.0466829
0.0739085
-0.0753088
-0.0980004
0.143721
-2.24118
0.115194
0.0736164
-0.100249
0.0253976
0.0301359
-0.0555335
-0.660241
-3.10128
3.83273
-0.394514
0.220188
0.218546
-1.75862
0.0061864
-0.00091015
-1.09941
-3.49788
0.233647
0.0453755
0.0816265
-0.0803191
-0.110771
-0.163804
-0.0235649
-1.757
-0.111198
-2.44922
-1.30696
-0.00774823
0.127337
0.278954
-0.134289
-0.672778
-0.0294476
0.030484
-0.016532
0.0532477
0.15372
-0.153011
-0.273826
-1.80577
-3.02915
0.0478761
0.00330236
0.167423
-1.79777
0.0362745
1.02258
-0.0360135
0.0486942
0.060415
0.0698537
-0.0848932
0.521972
0.150949
-0.0236386
0.0260293
-0.0365638
-0.00912205
0.00983214
-0.134534
0.219638
-0.0942231
0.00192081
0.0117995
0.0497519
-0.00187586
0.0034886
-0.0114238
0.163066
0.0322085
0.00499634
-0.0112852
-0.164014
1.38955
-1.01423
0.900017
0.0151783
-0.089297
-0.0175595
0.246307
-0.311128
-0.469893
0.730105
0.567521
-1.35155
-1.11126
-0.0233928
0.0346248
-0.051002
0.0346282
-0.065749
-0.00494197
0.0165486
0.00724046
-0.0013057
0.0510576
-0.0893092
-0.0575087
1.409
-0.0115163
0.0429096
-1.79054
0.473657
-1.18861
-0.522923
-0.0846987
0.00424029
-0.0217998
-0.0488243
0.0170332
-0.0453102
0.0570202
-0.0168035
0.480121
-0.65452
-0.79557
0.764671
-0.0731249
-1.32517
-0.329362
-0.0512736
-0.0290644
-1.30977
-0.962573
-0.0280886
-0.0390062
0.0308144
0.123872
-0.421356
0.0411653
0.0191572
-0.0525058
0.964108
-0.0182193
0.0237808
0.00725708
0.0145204
3.2583
0.137292
-0.194523
-0.723138
-0.187218
-0.739172
-0.00427625
0.120854
-0.116577
-0.00866554
0.126214
-0.121824
-0.0129951
0.137768
-0.133438
-0.017661
0.147482
-0.142816
-0.022503
0.157375
-0.152533
-0.0276851
0.166308
-0.161126
-0.0330814
0.175062
-0.169666
-0.038759
0.183374
-0.177696
0.19143
-0.185768
-0.0444206
-0.00367056
0.124524
-0.00765591
0.130199
-0.0115316
0.141644
-0.0156967
0.151647
-0.0199522
0.16163
-0.0244948
0.170851
-0.0292324
0.1798
-0.0341998
0.188341
0.196625
-0.0393944
-0.0033751
0.127899
-0.00675491
0.133579
-0.0101139
0.145003
-0.0136893
0.155223
-0.0173656
0.165307
-0.0212615
0.174747
-0.0253315
0.18387
-0.0296016
0.192611
0.201104
-0.0340805
-0.00302769
0.130927
-0.00585567
0.136407
-0.00866971
0.147817
-0.0116386
0.158192
-0.0147191
0.168387
-0.0179821
0.17801
-0.0214052
0.187293
-0.0250211
0.196227
0.204952
-0.0288691
-0.00261394
0.133541
-0.00489199
0.138685
-0.00714408
0.150069
-0.00951392
0.160562
-0.011991
0.170864
-0.0146297
0.180649
-0.0174327
0.190096
-0.0204324
0.199227
0.208175
-0.0236561
-0.00207546
0.135616
-0.00380981
0.140419
-0.00550965
0.151769
-0.0072931
0.162345
-0.00917291
0.172744
-0.0111961
0.182672
-0.0133661
0.192266
-0.015715
0.201576
0.210739
-0.0182784
-0.00127695
0.136893
-0.0025374
0.14168
-0.00373349
0.152965
-0.00497662
0.163588
-0.00627611
0.174044
-0.00768251
0.184078
-0.00922141
0.193805
-0.0109145
0.203269
0.212622
-0.012798
-0.000219403
0.137113
-0.00112461
0.142585
-0.00187194
0.153712
-0.00259659
0.164313
-0.00333357
0.174781
-0.00414375
0.184889
-0.00505279
0.194714
-0.0060928
0.204309
0.213769
-0.00723926
0.000740567
0.136372
0.000208321
0.143117
-5.99033e-05
0.15398
-0.000261613
0.164515
-0.000437877
0.174957
-0.000651348
0.185102
-0.000947289
0.19501
-0.00134141
0.204703
0.21429
-0.00186241
0.00126659
0.135105
0.00124283
0.143141
0.00155988
0.153663
0.00193358
0.164141
0.00233319
0.174557
0.00268489
0.18475
0.00296308
0.194731
0.00313769
0.204528
0.214211
0.00321668
0.00140056
0.133705
0.00200932
0.142532
0.00298309
0.152689
0.003945
0.163179
0.00489722
0.173605
0.00577476
0.183873
0.00656744
0.193939
0.00724211
0.203854
0.213673
0.00778015
0.00144972
0.132255
0.00275605
0.141226
0.00431412
0.151131
0.00579294
0.1617
0.00720692
0.172191
0.0085437
0.182536
0.00977731
0.192705
0.0109122
0.202719
0.212735
0.0118503
0.00187012
0.130385
0.00375332
0.139342
0.00566489
0.14922
0.00748002
0.159885
0.00922362
0.170447
0.0108811
0.180878
0.0124467
0.191139
0.0139028
0.201263
0.211368
0.0152696
0.00260203
0.127783
0.00485796
0.137086
0.00694691
0.147131
0.00894464
0.157887
0.0108713
0.168521
0.0127094
0.17904
0.0144552
0.189394
0.0160871
0.199631
0.209835
0.0176198
0.00327622
0.124507
0.00580611
0.134557
0.00799471
0.144942
0.0100677
0.155814
0.0120665
0.166522
0.013989
0.177118
0.0158161
0.187567
0.0175208
0.197926
0.208232
0.0191235
0.00361194
0.120895
0.00636603
0.131802
0.00862105
0.142687
0.0107381
0.153697
0.0127713
0.164489
0.0147216
0.175167
0.0165702
0.185718
0.0182959
0.1962
0.206614
0.0199145
0.00333809
0.117556
0.00631742
0.128823
0.00869767
0.140307
0.0109052
0.15149
0.0129959
0.162398
0.0149818
0.173181
0.0168383
0.183862
0.0185658
0.194473
0.205063
0.0201169
0.00265415
0.114902
0.00571879
0.125758
0.00828908
0.137737
0.0106454
0.149133
0.0128371
0.160206
0.014884
0.171134
0.0167786
0.181967
0.0185135
0.192738
0.203507
0.0200696
0.00206453
0.112838
0.00500481
0.122818
0.00767918
0.135062
0.0101698
0.146643
0.0124811
0.157895
0.0146263
0.168989
0.0166009
0.179992
0.0184113
0.190927
0.201847
0.0200713
0.00172658
0.111111
0.00446057
0.120084
0.00713254
0.13239
0.00970456
0.144071
0.0121192
0.15548
0.0143722
0.166736
0.0164528
0.177912
0.018353
0.189027
0.200136
0.0200635
0.00156386
0.109547
0.00414952
0.117498
0.00678509
0.129755
0.00940176
0.141454
0.0119112
0.152971
0.0142873
0.16436
0.0165107
0.175688
0.0185469
0.186991
0.198343
0.0203403
0.00159199
0.107955
0.00410507
0.114985
0.00670963
0.12715
0.00935184
0.138812
0.0119552
0.150367
0.0144774
0.161838
0.0168862
0.173279
0.0191178
0.184759
0.196306
0.0211541
0.00191716
0.106038
0.00435784
0.112545
0.0069248
0.124583
0.00958307
0.136153
0.012291
0.147659
0.0149946
0.159134
0.0176644
0.170609
0.0201622
0.182261
0.194148
0.0223207
0.00253772
0.1035
0.00487008
0.110212
0.00738405
0.122069
0.0100803
0.133457
0.0129167
0.144823
0.0158226
0.156228
0.018823
0.167609
0.0216517
0.179433
0.192241
0.023559
0.00325115
0.00533277
0.00789682
0.0107818
0.0138779
0.0170951
0.0206902
0.0247707
0.0297933
-0.0937016
-0.001275
0.0949766
-0.0922536
-0.00144796
-0.0906135
-0.00164016
-0.0887596
-0.00185389
-0.0866775
-0.00208211
-0.0843536
-0.00232392
-0.0817783
-0.00257527
-0.0789495
-0.00282884
-0.0758617
-0.00308772
-0.0725177
-0.003344
-0.0689206
-0.00359712
-0.065079
-0.00384157
-0.0610058
-0.0040732
-0.0567132
-0.00429259
-0.0522205
-0.00449271
-0.0475451
-0.00467538
-0.0427113
-0.00483373
-0.0377442
-0.00496714
-0.032676
-0.00506819
-0.0275456
-0.00513033
-0.0224047
-0.00514084
-0.0173241
-0.00508059
-0.0123843
-0.00493978
-0.00764186
-0.00474239
-0.00303436
-0.00460745
0.00158319
-0.00461754
0.00635044
-0.00476721
0.0114166
-0.00506617
0.0167985
-0.0053819
0.0223684
-0.00556985
0.0280164
-0.00564791
0.0336696
-0.00565325
0.0392766
-0.00560693
0.0447877
-0.00551112
0.0501563
-0.00536851
0.0553411
-0.00518483
0.0603036
-0.00496247
0.0650081
-0.00470445
0.0694281
-0.00441996
0.0735428
-0.00411473
0.0773447
-0.00380175
0.0808377
-0.003493
0.0840355
-0.00319778
0.0869651
-0.00292965
0.0896748
-0.00270961
0.0922323
-0.0025575
0.0946857
-0.00245334
0.0970666
-0.00238092
0.0993794
-0.00231266
0.101618
-0.00223821
0.103775
-0.00215699
0.105835
-0.00206023
0.107786
-0.00195138
0.10961
-0.00182329
0.111293
-0.00168372
0.11283
-0.00153627
0.114216
-0.00138614
0.115464
-0.00124868
-0.00111288
-0.0916363
-0.00273075
0.0930921
-0.0900583
-0.00302601
-0.0883499
-0.00334851
-0.0865009
-0.00370291
-0.0845059
-0.00407714
-0.0823518
-0.00447794
-0.0800331
-0.00489398
-0.0775356
-0.0053264
-0.0748496
-0.00577368
-0.0719639
-0.00622969
-0.0688686
-0.00669239
-0.0655567
-0.00715354
-0.06202
-0.00760982
-0.0582611
-0.00805148
-0.0542798
-0.00847402
-0.050081
-0.00887417
-0.0456735
-0.00924119
-0.04107
-0.00957073
-0.0362818
-0.00985629
-0.0313237
-0.0100885
-0.0262034
-0.0102611
-0.0209113
-0.0103727
-0.0154156
-0.0104355
-0.00967483
-0.0104831
-0.00372333
-0.0105589
0.00233973
-0.0106806
0.00842233
-0.0108498
0.0144178
-0.0110616
0.0203177
-0.0112818
0.0261814
-0.0114336
0.0320222
-0.0114887
0.0378182
-0.0114492
0.0435319
-0.0113206
0.0491307
-0.01111
0.0545801
-0.0108179
0.0598512
-0.010456
0.0649189
-0.0100301
0.0697694
-0.00955493
0.0743899
-0.00904047
0.0787776
-0.00850242
0.0829324
-0.0079565
0.0868552
-0.00741582
0.0905581
-0.00690062
0.0940488
-0.00642036
0.0973235
-0.00598429
0.100365
-0.00559933
0.103166
-0.00525421
0.105719
-0.00493383
0.108032
-0.00462512
0.110111
-0.00431717
0.111976
-0.00402252
0.113653
-0.00373729
0.115163
-0.00346074
0.11653
-0.00319108
0.117772
-0.00292565
0.118912
-0.00267555
0.119959
-0.00243334
0.120925
-0.00221491
-0.00201203
-0.0994241
-0.00435284
0.101046
-0.0976741
-0.00477602
-0.0957894
-0.00523323
-0.0937685
-0.00572379
-0.091596
-0.00624965
-0.0892634
-0.00681055
-0.0867568
-0.0074006
-0.0840652
-0.00801796
-0.0811752
-0.00866369
-0.0780765
-0.00932836
-0.0747602
-0.0100087
-0.0712193
-0.0106944
-0.0674487
-0.0113804
-0.0634431
-0.0120571
-0.0591995
-0.0127176
-0.0547228
-0.0133508
-0.0500111
-0.0139529
-0.0450711
-0.0145108
-0.0399073
-0.0150201
-0.0345234
-0.0154724
-0.0289189
-0.0158655
-0.0230939
-0.0161978
-0.0170513
-0.0164781
-0.0108119
-0.0167225
-0.00442152
-0.0169493
0.0020719
-0.017174
0.00861898
-0.0173969
0.0151648
-0.0176075
0.0216604
-0.0177773
0.0280966
-0.0178698
0.0344683
-0.0178604
0.0407579
-0.0177388
0.0469413
-0.017504
0.0529885
-0.0171572
0.0588769
-0.0167061
0.0645818
-0.0161609
0.0700831
-0.0155314
0.0753661
-0.0148379
0.0804213
-0.0140956
0.0852383
-0.0133195
0.0898155
-0.0125337
0.0941513
-0.0117516
0.098243
-0.0109923
0.102085
-0.0102622
0.105677
-0.00957622
0.109007
-0.0089293
0.112075
-0.00832278
0.11489
-0.00774857
0.117468
-0.00720288
0.119824
-0.00667325
0.121964
-0.00616285
0.123903
-0.00567612
0.125663
-0.00522118
0.127263
-0.00479073
0.128722
-0.00438513
0.130056
-0.00400921
0.131284
-0.00366133
0.132408
-0.00333902
-0.00304212
-0.105955
-0.00601235
0.107615
-0.104164
-0.00656717
-0.102227
-0.00717035
-0.100135
-0.00781611
-0.0978792
-0.0085052
-0.0954496
-0.0092402
-0.0928355
-0.0100147
-0.0900219
-0.0108315
-0.0870034
-0.0116822
-0.0837697
-0.0125621
-0.0803127
-0.0134658
-0.0766182
-0.0143889
-0.072682
-0.0153166
-0.0684925
-0.0162466
-0.0640485
-0.0171617
-0.0593411
-0.0180582
-0.0543717
-0.0189223
-0.0491399
-0.0197426
-0.0436476
-0.0205124
-0.0378979
-0.0212221
-0.0318949
-0.0218685
-0.0256452
-0.0224475
-0.0191617
-0.0229617
-0.0124703
-0.0234138
-0.00560836
-0.0238113
0.00137612
-0.0241585
0.00842855
-0.0244493
0.0154964
-0.0246753
0.0225374
-0.0248184
0.0295245
-0.0248568
0.0364369
-0.0247728
0.0432542
-0.0245562
0.0499525
-0.0242022
0.0565093
-0.0237141
0.062898
-0.0230948
0.0690989
-0.0223618
0.0750938
-0.0215263
0.0808585
-0.0206026
0.0863789
-0.019616
0.0916459
-0.0185865
0.0966476
-0.0175354
0.101375
-0.0164786
0.105818
-0.0154357
0.109972
-0.014416
0.113826
-0.01343
0.117384
-0.0124879
0.120645
-0.0115837
0.123624
-0.0107272
0.126329
-0.00990802
0.128789
-0.00913333
0.13102
-0.0083936
0.133039
-0.00769575
0.134863
-0.00704425
0.136517
-0.00644515
0.138021
-0.00588934
0.139392
-0.00537973
0.140639
-0.00490902
0.141775
-0.00447497
-0.0040831
-0.115201
-0.00781747
0.117006
-0.113239
-0.00852947
-0.111116
-0.00929326
-0.108822
-0.01011
-0.106347
-0.01098
-0.103683
-0.0119041
-0.100816
-0.0128816
-0.097742
-0.0139058
-0.0944482
-0.0149759
-0.090925
-0.0160853
-0.0871632
-0.0172275
-0.0831545
-0.0183977
-0.07889
-0.0195811
-0.0743652
-0.0207715
-0.0695699
-0.021957
-0.0645024
-0.0231257
-0.0591603
-0.0242644
-0.0535408
-0.0253621
-0.0476487
-0.0264045
-0.0414851
-0.0273858
-0.0350608
-0.0282928
-0.0283867
-0.0291216
-0.0214814
-0.0298669
-0.0143698
-0.0305254
-0.00708755
-0.0310935
0.000322631
-0.0315687
0.00781649
-0.0319432
0.0153496
-0.0322084
0.022881
-0.0323498
0.0303758
-0.0323516
0.0378038
-0.0322008
0.0451357
-0.031888
0.0523423
-0.0314088
0.0593987
-0.0307705
0.0662808
-0.0299769
0.0729586
-0.0290397
0.0794102
-0.0279779
0.0856164
-0.0268088
0.0915571
-0.0255567
0.0972194
-0.0242488
0.102585
-0.0229006
0.107648
-0.0215422
0.112398
-0.0201859
0.116834
-0.0188513
0.120954
-0.0175502
0.124758
-0.0162921
0.128259
-0.0150848
0.131464
-0.0139327
0.134391
-0.0128348
0.137057
-0.0117995
0.13949
-0.0108262
0.141709
-0.00991483
0.143734
-0.00906902
0.145571
-0.00828218
0.147241
-0.00755896
0.148757
-0.00689593
0.150136
-0.00628811
0.151393
-0.00573173
-0.00522333
-0.12394
-0.00970517
0.125828
-0.12189
-0.0105799
-0.11967
-0.0115129
-0.117267
-0.0125129
-0.114667
-0.0135804
-0.111863
-0.0147074
-0.108844
-0.0159013
-0.105596
-0.0171538
-0.102108
-0.0184639
-0.0983724
-0.0198206
-0.0943777
-0.0212222
-0.0901159
-0.0226595
-0.0855757
-0.0241214
-0.0807494
-0.0255977
-0.0756329
-0.0270735
-0.0702217
-0.0285369
-0.0645131
-0.029973
-0.058513
-0.0313622
-0.0522213
-0.0326962
-0.0456465
-0.0339607
-0.0387958
-0.0351435
-0.0316865
-0.0362309
-0.0243378
-0.0372157
-0.0167775
-0.0380857
-0.00904083
-0.0388302
-0.00116796
-0.0394416
0.0067987
-0.0399098
0.0148182
-0.040228
0.0228504
-0.040382
0.0308574
-0.0403586
0.0388056
-0.0401489
0.0466587
-0.0397411
0.0543857
-0.0391358
0.0619582
-0.038343
0.0693437
-0.0373624
0.0765177
-0.0362137
0.0834531
-0.0349133
0.090117
-0.0334727
0.0964921
-0.0319318
0.102557
-0.0303138
0.108301
-0.0286445
0.113707
-0.0269486
0.118773
-0.0252518
0.123492
-0.0235697
0.127867
-0.0219252
0.131902
-0.0203275
0.135607
-0.0187896
0.138996
-0.0173212
0.142089
-0.015928
0.144906
-0.0146162
0.147471
-0.0133913
0.149803
-0.0122469
0.151921
-0.0111876
0.153846
-0.0102071
0.155596
-0.00930876
0.157182
-0.00848233
0.158623
-0.00772874
0.159936
-0.00704441
-0.00641388
-0.134014
-0.0117207
0.13603
-0.131821
-0.0127727
-0.129441
-0.0138937
-0.126861
-0.0150927
-0.124071
-0.01637
-0.121057
-0.0177219
-0.117807
-0.0191507
-0.114309
-0.0206517
-0.110558
-0.0222154
-0.106537
-0.0238417
-0.102241
-0.0255183
-0.0976608
-0.0272394
-0.0927855
-0.0289968
-0.0876087
-0.0307745
-0.0821256
-0.0325565
-0.0763343
-0.0343282
-0.0702298
-0.0360775
-0.0638256
-0.0377664
-0.0571206
-0.0394012
-0.0501261
-0.0409552
-0.0428473
-0.0424222
-0.035304
-0.0437742
-0.027517
-0.0450027
-0.0195091
-0.0460937
-0.0113227
-0.0470166
-0.0029942
-0.0477701
0.00543188
-0.0483359
0.0139209
-0.048717
0.0224341
-0.0488952
0.030931
-0.0488555
0.0393788
-0.0485968
0.0477308
-0.0480931
0.0559536
-0.0473586
0.0640184
-0.0464078
0.0718858
-0.0452297
0.0795343
-0.0438622
0.0869331
-0.0423121
0.0940324
-0.040572
0.100822
-0.0387216
0.107279
-0.0367706
0.113393
-0.0347581
0.119145
-0.0327013
0.124533
-0.03064
0.129551
-0.0285872
0.134206
-0.0265803
0.138502
-0.0246239
0.142451
-0.0227388
0.146064
-0.0209339
0.149363
-0.0192268
0.152369
-0.0176227
0.155101
-0.0161228
0.157589
-0.014735
0.159848
-0.0134464
0.161902
-0.0122608
0.163767
-0.0111739
0.165462
-0.0101774
0.167002
-0.00926854
0.168399
-0.00844142
-0.00768123
-0.14423
-0.01385
0.146359
-0.141922
-0.0150803
-0.139421
-0.0163951
-0.136702
-0.0178114
-0.13376
-0.0193126
-0.130571
-0.0209108
-0.127134
-0.0225872
-0.123424
-0.0243623
-0.119424
-0.0262155
-0.11515
-0.0281158
-0.110577
-0.0300911
-0.105696
-0.0321198
-0.100502
-0.034191
-0.0949828
-0.036294
-0.0891376
-0.0384017
-0.0829577
-0.0405081
-0.0764402
-0.042595
-0.0696226
-0.044584
-0.0625013
-0.0465224
-0.055081
-0.0483755
-0.0473606
-0.0501426
-0.0393719
-0.0517629
-0.0311385
-0.0532362
-0.0226535
-0.0545787
-0.0139993
-0.0556708
-0.00519737
-0.056572
0.00369073
-0.057224
0.0126557
-0.057682
0.0216529
-0.0578924
0.0306369
-0.0578396
0.0395902
-0.0575501
0.0484343
-0.0569372
0.0571406
-0.0560649
0.0657078
-0.054975
0.074047
-0.0535689
0.082173
-0.0519883
0.0900707
-0.0502099
0.0976077
-0.048109
0.104816
-0.0459303
0.111678
-0.0436319
0.118173
-0.0412538
0.124297
-0.0388251
0.130016
-0.0363591
0.135342
-0.0339128
0.140305
-0.0315433
0.144867
-0.0291861
0.149074
-0.026946
0.15292
-0.02478
0.156408
-0.022715
0.159577
-0.0207908
0.162453
-0.0189995
0.165065
-0.0173469
0.167434
-0.0158156
0.169583
-0.0144093
0.171532
-0.0131232
0.173303
-0.0119481
0.174906
-0.0108716
0.176366
-0.00990187
-0.00901114
-0.155556
0.157785
-0.0160788
-0.153113
-0.0175236
-0.150457
-0.0190513
-0.147554
-0.0207138
-0.144406
-0.0224608
-0.140976
-0.0243408
-0.137258
-0.0263055
-0.133284
-0.0283359
-0.129023
-0.030477
-0.12438
-0.0327578
-0.11947
-0.0350019
-0.114235
-0.0373547
-0.108627
-0.039799
-0.102735
-0.0421861
-0.0964649
-0.0446715
-0.0899303
-0.0470427
-0.0830585
-0.0494667
-0.0758194
-0.0518232
-0.068206
-0.0541359
-0.0603272
-0.0562543
-0.0521439
-0.0583258
-0.0437493
-0.0601576
-0.035099
-0.0618865
-0.0261332
-0.0635446
-0.0170057
-0.0647982
-0.00774483
-0.0658329
0.00156986
-0.0665387
0.0110155
-0.0671277
0.0205283
-0.0674051
0.0299542
-0.0672655
0.039406
-0.0670019
0.0487461
-0.0662773
0.0578885
-0.0652073
0.06696
-0.0640465
0.0758103
-0.0624193
0.0844188
-0.0605967
0.0926714
-0.0584624
0.10055
-0.0559875
0.108231
-0.0536118
0.115495
-0.0508952
0.12238
-0.0481389
0.128919
-0.0453639
0.135022
-0.0424621
0.140719
-0.0396098
0.146013
-0.0368373
0.150881
-0.0340544
0.155344
-0.0314094
0.159402
-0.0288379
0.163175
-0.0264882
0.166599
-0.0242149
0.169687
-0.0220866
0.172472
-0.0201319
0.174977
-0.0183213
0.177273
-0.0167046
0.179351
-0.0152015
0.181225
-0.0138222
0.182919
-0.0125657
0.184388
-0.0113711
-0.0103913
-0.0659248
0.0103912
-0.0751322
0.00920743
-0.083151
0.00801874
-0.0899444
0.00679334
-0.0959319
0.00598747
-0.101548
0.00561604
-0.10692
0.00537172
-0.112083
0.0051637
-0.117043
0.00495949
-0.121431
0.00438795
-0.124655
0.00322405
-0.126428
0.00177303
-0.126833
0.000405029
-0.12627
-0.000562729
-0.12532
-0.000950708
-0.124261
-0.00105887
-0.122946
-0.00131475
-0.121044
-0.0019021
-0.118442
-0.00260204
-0.115313
-0.00312941
-0.111835
-0.00347719
-0.108079
-0.00375616
-0.104052
-0.00402744
-0.0997802
-0.00427157
-0.00480365
-0.0698157
0.0191826
-0.0783911
0.0177828
-0.0864448
0.0160724
-0.0940418
0.0143903
-0.101142
0.013088
-0.107678
0.0121514
-0.113664
0.0113583
-0.119059
0.0105588
-0.123674
0.00957437
-0.127373
0.00808647
-0.1302
0.0060516
-0.132185
0.00375774
-0.133304
0.00152396
-0.133503
-0.000364075
-0.132743
-0.00171002
-0.131142
-0.00265978
-0.128911
-0.00354573
-0.126247
-0.00456656
-0.123207
-0.00564228
-0.119704
-0.0066325
-0.115669
-0.00751145
-0.111067
-0.00835819
-0.105847
-0.00924755
-0.0998573
-0.0102615
-0.0115689
-0.0757743
0.0290747
-0.0851631
0.0271716
-0.094058
0.0249673
-0.102449
0.0227816
-0.11019
0.0208286
-0.11716
0.0191213
-0.123312
0.0175102
-0.128591
0.0158384
-0.132941
0.0139238
-0.136437
0.0115824
-0.139201
0.00881565
-0.141277
0.00583407
-0.142662
0.00290842
-0.143287
0.000260851
-0.143028
-0.00196828
-0.141838
-0.00385002
-0.139816
-0.00556801
-0.137116
-0.00726612
-0.133824
-0.00893464
-0.12993
-0.010526
-0.125409
-0.0120323
-0.120252
-0.0135161
-0.114462
-0.0150372
-0.108046
-0.016677
-0.0185691
-0.0815119
0.0400431
-0.091769
0.0374287
-0.101417
0.0346154
-0.110436
0.0318003
-0.118713
0.0291055
-0.126135
0.0265433
-0.132635
0.0240102
-0.138179
0.0213826
-0.142771
0.0185163
-0.146497
0.0153075
-0.14946
0.0117791
-0.151708
0.00808194
-0.153217
0.00441733
-0.153927
0.000970718
-0.153734
-0.00216072
-0.152599
-0.00498531
-0.15056
-0.00760682
-0.147715
-0.0101112
-0.144122
-0.0125273
-0.139808
-0.0148405
-0.134759
-0.0170813
-0.12898
-0.0192945
-0.122481
-0.0215365
-0.115302
-0.0238561
-0.0262562
-0.0872185
0.0519528
-0.0983904
0.0486006
-0.108827
0.045052
-0.118506
0.0414796
-0.127341
0.0379403
-0.135253
0.0344553
-0.142187
0.0309441
-0.148127
0.0273222
-0.153095
0.0234848
-0.157159
0.0193716
-0.160398
0.0150177
-0.162848
0.0105322
-0.164484
0.00605327
-0.165253
0.00173989
-0.165098
-0.00231579
-0.163973
-0.00611086
-0.161895
-0.00968467
-0.15893
-0.0130765
-0.15513
-0.0163264
-0.150533
-0.0194378
-0.145166
-0.0224485
-0.139065
-0.0253951
-0.132287
-0.0283143
-0.124914
-0.0312294
-0.0341644
-0.0929892
0.0646228
-0.105041
0.0606525
-0.116265
0.0562755
-0.126632
0.0518473
-0.136072
0.0473795
-0.144535
0.0429186
-0.151969
0.0383785
-0.158376
0.0337287
-0.163782
0.028891
-0.168231
0.0238208
-0.171787
0.0185737
-0.174466
0.0132105
-0.176249
0.00783619
-0.177097
0.00258819
-0.176953
-0.00245984
-0.175803
-0.00726062
-0.173663
-0.0118248
-0.170561
-0.0161782
-0.166555
-0.0203329
-0.161678
-0.0243143
-0.155978
-0.0281486
-0.149492
-0.0318815
-0.142263
-0.0355427
-0.134344
-0.0391486
-0.0426811
-0.0986718
0.0784014
-0.111718
0.0736988
-0.123771
0.068328
-0.134872
0.0629483
-0.144967
0.0574753
-0.154037
0.0519882
-0.162013
0.0463545
-0.168923
0.0406388
-0.174787
0.034754
-0.179639
0.0286733
-0.183532
0.0224662
-0.186476
0.0161548
-0.188436
0.00979624
-0.189377
0.00352904
-0.18928
-0.00255693
-0.188125
-0.00841571
-0.185923
-0.0140264
-0.182711
-0.0193906
-0.178529
-0.0245145
-0.173438
-0.0294051
-0.167481
-0.0341055
-0.160718
-0.0386453
-0.153179
-0.0430817
-0.144925
-0.047402
-0.0515763
-0.104441
0.0935453
-0.118529
0.087787
-0.131396
0.0811953
-0.14326
0.0748122
-0.154051
0.0682656
-0.163772
0.0617096
-0.172318
0.0549002
-0.179743
0.0480643
-0.186091
0.0411021
-0.191353
0.0339354
-0.195585
0.0266975
-0.198822
0.0193923
-0.200977
0.0119514
-0.202042
0.0045934
-0.202003
-0.00259529
-0.200848
-0.00957096
-0.198598
-0.0162768
-0.19528
-0.0227088
-0.190937
-0.0288568
-0.185635
-0.0347074
-0.179425
-0.0403159
-0.172379
-0.0456909
-0.164495
-0.0509654
-0.155809
-0.0560887
-0.0610256
-0.110678
0.11
-0.125577
0.102687
-0.139144
0.0947623
-0.151788
0.0874561
-0.163314
0.0797916
-0.173759
0.0721543
-0.182886
0.0640267
-0.190836
0.0560148
-0.197681
0.0479467
-0.203386
0.0396407
-0.207935
0.0312469
-0.211455
0.0229118
-0.21385
0.0143466
-0.215037
0.00577996
-0.215064
-0.00256769
-0.213925
-0.0107101
-0.211624
-0.0185777
-0.208228
-0.0261048
-0.20372
-0.0333651
-0.198154
-0.0402736
-0.191677
-0.0467925
-0.184327
-0.0530409
-0.176096
-0.0591962
-0.16726
-0.0649248
-0.0705011
1.39521
1.94783
0.23353
-2.18135
0.37498
0.280794
-0.655785
0.275717
-0.373688
0.0979714
0.340557
-0.407339
0.0667822
-0.462397
-0.510144
0.97254
-0.448127
0.75291
-0.304784
2.26643
-2.45664
0.19021
-0.0375483
-0.201483
0.239031
5.04341
-3.42428
-1.61912
-0.863027
1.83063
-0.967608
-0.809495
0.268195
0.5413
1.1835
-1.91202
0.728521
-1.20201
0.278367
0.923642
0.114672
-0.116497
0.00182451
4.59693
-4.42105
-0.175881
-0.318321
0.693308
0.135281
-0.0268726
-0.108408
-0.0699775
-0.087351
0.353734
0.207517
-0.561251
-0.342558
0.223213
0.119346
2.94246
1.94157
-4.88403
-0.523699
0.831895
-0.308195
1.26756
-1.00821
-0.259355
-0.950271
0.334625
0.615646
1.10198
0.165579
-1.17093
0.772104
0.398825
-0.940873
0.156236
0.784637
4.85409
-2.68701
-2.16708
-0.0285061
-0.145669
0.174175
0.186484
0.496531
-0.683015
-0.607069
-0.163522
0.770585
0.811817
0.698915
-1.51073
2.80183
-5.04997
2.24814
-0.290353
-0.074695
0.365048
0.112074
1.45316
-1.56523
-0.897336
-0.304672
-2.74089