/*--------------------------------*- C++ -*----------------------------------*\
  =========                 |
  \\      /  F ield         | OpenFOAM: The Open Source CFD Toolbox
   \\    /   O peration     | Website:  https://openfoam.org
    \\  /    A nd           | Version:  10
     \\/     M anipulation  |
\*---------------------------------------------------------------------------*/
FoamFile
{
    format      ascii;
    class       volVectorField;
    location    "1100";
    object      U;
}
// * * * * * * * * * * * * * * * * * * * * * * * * * * * * * * * * * * * * * //

dimensions      [0 1 -1 0 0 0 0];

internalField   nonuniform List<vector> 
10435
(
(1.63039 0.446109 9.73335e-23)
(1.84144 1.08651 -2.35292e-21)
(3.80317 -0.298524 -2.47123e-20)
(2.46191 0.243559 3.70666e-20)
(3.66176 0.481404 -2.70724e-20)
(4.12508 -0.226404 2.12789e-19)
(3.70106 -0.272889 -8.71765e-20)
(3.21182 -0.268071 4.52393e-20)
(2.78137 -0.266984 1.34436e-19)
(4.07555 -0.387917 -6.17467e-20)
(2.37244 1.07754 -2.79689e-20)
(3.15978 -0.134004 1.0982e-19)
(3.98248 -0.367418 6.91623e-20)
(0.848386 0.622218 -2.62695e-21)
(0.933906 0.656329 -3.37059e-21)
(3.47818 -0.28463 -6.55149e-21)
(0.768051 0.567707 9.31546e-22)
(3.97978 -0.432303 2.42599e-19)
(2.59091 -0.258351 -4.79122e-20)
(1.77282 0.372884 -3.86071e-21)
(3.36007 -0.273294 3.51942e-20)
(2.3896 0.0514889 -5.58493e-20)
(3.61976 -0.296271 2.63188e-19)
(2.74252 -0.284453 -5.62012e-20)
(4.02555 -0.361944 7.05365e-20)
(0.235612 0.390111 5.593e-23)
(0.0440485 0.124197 3.90435e-22)
(3.91705 -0.321026 5.58387e-20)
(0.215356 -0.0176452 -1.13849e-22)
(4.03431 -0.421246 3.07544e-19)
(3.78158 -0.2749 1.08319e-19)
(2.66157 1.03955 -5.12571e-21)
(3.09765 -0.269659 -9.16334e-20)
(0.459568 0.0117734 -2.68634e-22)
(3.11163 -0.270619 5.56413e-20)
(1.27332 1.01973 -2.67517e-21)
(3.26819 -0.27571 8.44288e-20)
(0.15174 0.308505 -2.2459e-21)
(0.368058 0.366254 -7.5434e-23)
(2.6532 -0.248277 1.52846e-20)
(4.02941 -0.4351 -3.39823e-19)
(3.71462 -0.290875 -7.23506e-20)
(0.572105 0.650243 -2.31788e-21)
(2.07881 0.399109 -4.31155e-20)
(3.4701 -0.277381 -1.85275e-19)
(2.70796 -0.258961 9.48159e-20)
(4.10173 -0.344546 -2.5256e-19)
(0.424409 0.528684 -5.94308e-21)
(2.74204 -0.289561 3.92323e-20)
(2.31032 -0.113734 -1.87912e-20)
(3.23634 -0.272916 -7.25637e-21)
(4.04165 -0.184616 9.25291e-19)
(0.408235 0.385799 7.84159e-24)
(0.302838 -0.11828 -4.81869e-23)
(0.327559 0.373371 -4.61841e-23)
(0.164671 -0.055601 2.87987e-22)
(3.10793 -0.270347 -2.42288e-19)
(0.156778 0.24188 -6.07126e-22)
(0.661537 0.332473 6.48547e-23)
(2.93647 -0.25809 1.46826e-19)
(0.367073 0.396667 7.71809e-23)
(1.61653 1.06985 -6.74099e-21)
(0.170854 0.145859 9.79227e-22)
(3.94433 -0.0568839 -7.61713e-20)
(3.56448 -0.295512 -3.58351e-19)
(3.88127 -0.329728 1.97807e-19)
(0.602105 0.212981 3.18818e-22)
(0.331428 0.307631 -2.34893e-21)
(3.33132 -0.26736 -6.28341e-20)
(2.71628 -0.302525 4.0839e-21)
(0.254776 -0.146006 7.99097e-23)
(0.181193 0.375004 -5.20792e-23)
(0.658247 0.72396 1.76018e-20)
(3.82011 -0.315842 -2.4855e-19)
(1.02356 0.675003 -1.51864e-21)
(0.696744 0.776064 1.8744e-21)
(2.69359 -0.319184 2.25464e-19)
(3.63591 -0.258827 2.0966e-19)
(3.00272 -0.27457 1.24269e-20)
(1.11425 0.576106 7.2102e-21)
(2.50749 -0.250751 2.25323e-20)
(1.55379 0.385825 4.44332e-22)
(0.447103 0.405272 2.04635e-22)
(0.343854 -0.0964855 2.00417e-23)
(2.58411 -0.292436 -4.58593e-20)
(1.20529 0.891905 2.42599e-20)
(1.38929 0.760167 2.74389e-21)
(2.07822 0.613055 8.55882e-21)
(1.05497 0.800991 -7.50539e-22)
(1.5335 0.735553 -2.18216e-21)
(2.29349 0.560527 -5.92478e-21)
(2.54989 0.489991 -9.2009e-21)
(1.67649 0.305751 1.63885e-21)
(1.14993 0.79709 7.60976e-21)
(1.69669 0.702015 2.94491e-21)
(1.14821 0.994508 9.70754e-21)
(2.75566 0.369216 1.15813e-19)
(0.953365 0.751854 2.32058e-21)
(0.749813 0.429237 -1.12812e-21)
(3.10298 0.366715 -1.2901e-19)
(1.00104 0.776781 5.21826e-21)
(3.86138 0.508838 -1.04776e-19)
(1.25993 0.781262 -5.21912e-21)
(1.87892 0.65994 -8.30751e-22)
(3.9904 0.316686 -7.10826e-21)
(2.26646 0.327636 -5.06996e-22)
(1.80469 0.217281 7.71263e-22)
(2.41898 -0.194452 2.47648e-20)
(2.65025 -0.308391 -6.4462e-20)
(1.21408 0.554671 -1.89844e-21)
(2.19197 -0.0361643 -7.18095e-21)
(3.69639 0.723442 -4.40801e-20)
(1.43558 0.453184 -2.34138e-21)
(1.32315 0.51319 -1.62872e-21)
(2.91367 0.51521 -7.093e-20)
(2.23547 0.13653 1.53791e-20)
(3.24298 0.22315 -7.87718e-20)
(1.33265 0.893264 3.03731e-22)
(2.08442 0.843589 -3.58862e-20)
(3.0624 0.0843936 -1.94608e-20)
(3.33075 0.1006 -2.44192e-19)
(0.71829 0.82101 2.19418e-21)
(1.48091 0.892335 -1.3748e-20)
(0.905413 0.981462 -2.96029e-20)
(2.98611 1.22427 6.38232e-21)
(0.307279 0.398777 -1.12843e-22)
(2.92609 0.208064 1.24564e-19)
(0.772425 0.881902 -3.54206e-21)
(3.48774 0.340314 -1.64139e-19)
(0.0759054 0.312002 2.91397e-22)
(0.83322 0.935034 9.49888e-21)
(2.70242 1.29878 -6.41878e-20)
(3.33783 -0.275457 -8.9199e-20)
(1.02019 0.575635 4.96082e-21)
(0.157424 0.344296 5.4084e-24)
(0.57998 0.484623 7.77747e-23)
(1.0878 1.07408 3.09771e-20)
(2.63848 0.133303 -4.68186e-21)
(1.8587 0.868074 9.66283e-21)
(2.0776 0.216001 1.17672e-20)
(1.92247 0.295439 7.96069e-22)
(3.66622 -0.276567 -3.95486e-19)
(0.533419 0.121947 2.16729e-21)
(3.67971 -0.120721 7.69024e-19)
(2.53123 -0.0401129 8.72212e-21)
(0.825271 0.813457 1.52721e-20)
(0.989482 1.03055 -9.35497e-21)
(4.09272 -0.102066 -2.7475e-19)
(0.716416 0.643163 5.25041e-21)
(3.46427 -0.173177 4.61632e-20)
(0.374468 0.499333 9.45151e-22)
(3.35917 -0.27087 1.57075e-19)
(1.58344 0.583363 2.79972e-22)
(3.57696 -0.184179 3.43063e-19)
(4.10862 -0.260381 -2.38595e-19)
(0.318762 0.453107 -2.79126e-22)
(3.24517 1.08448 1.29904e-19)
(1.65655 0.883947 6.66654e-21)
(4.10893 -0.329946 -2.14294e-19)
(2.111 1.3287 -8.44234e-21)
(3.54191 -0.250616 -6.44316e-20)
(0.933589 0.551449 -1.14883e-21)
(2.61693 0.741213 8.06068e-20)
(2.85364 -0.208105 6.56247e-20)
(1.12814 0.662694 4.90065e-21)
(3.56819 0.158107 6.14467e-19)
(3.02225 -0.272371 -1.45682e-19)
(2.90837 -0.0596169 -5.86024e-20)
(2.97789 -0.274241 1.01296e-19)
(3.75404 -0.0184673 -1.15992e-18)
(4.03641 -0.329884 2.37102e-19)
(0.628506 0.659005 -5.88664e-21)
(0.0260897 0.0489073 -4.81404e-22)
(0.891957 0.829157 7.88066e-22)
(3.27679 -0.233355 -1.67499e-19)
(1.82815 1.29508 3.64089e-21)
(1.42637 1.04571 2.14854e-20)
(0.529411 0.509947 1.52366e-21)
(2.06691 0.0435944 4.18306e-21)
(0.269169 0.0275218 5.83674e-23)
(2.09631 1.08942 1.18573e-20)
(4.13182 -0.0877079 -3.5141e-20)
(3.35921 -0.149684 -3.97754e-19)
(0.351991 0.413287 -9.75817e-24)
(3.58955 -0.263378 5.50831e-20)
(0.528388 0.622291 5.2756e-21)
(0.660049 0.752791 -1.44797e-20)
(3.55992 -0.253769 -1.67748e-19)
(3.84212 0.342029 6.18216e-20)
(3.87373 -0.151829 -5.87662e-19)
(3.29565 -0.0194052 5.51226e-20)
(0.482014 0.426164 2.45518e-22)
(0.103105 0.342187 -2.44304e-22)
(1.21195 1.12195 -2.85996e-20)
(3.48781 0.913202 7.65004e-20)
(3.44329 -0.254025 9.519e-21)
(0.680927 0.711162 1.30802e-20)
(1.09705 0.887054 -8.73178e-21)
(0.473381 0.53254 7.59766e-21)
(3.38919 -0.280839 1.32654e-19)
(1.087 0.731278 -5.53636e-21)
(0.215085 0.361036 9.64578e-23)
(3.9634 -0.341801 -1.67599e-20)
(0.2026 0.317232 -1.7443e-22)
(3.91225 -0.333797 -6.16436e-20)
(3.08817 0.63473 -1.59416e-21)
(2.33235 0.807675 5.42379e-20)
(2.78838 0.0256053 -3.63803e-20)
(0.241146 0.131046 5.10205e-22)
(2.65052 -0.120719 -2.935e-20)
(0.433648 0.529514 -1.27011e-21)
(3.70585 -0.298581 -3.46413e-19)
(3.4992 -0.0320595 6.31454e-19)
(2.98579 -0.21618 4.50377e-20)
(0.074226 0.10632 -2.04231e-24)
(0.791354 0.697396 -1.43777e-20)
(1.25341 0.617449 1.56315e-21)
(0.452256 0.477138 -1.31976e-22)
(0.223742 0.376469 -3.65679e-22)
(0.848908 0.501385 9.14918e-22)
(0.31796 -0.00769603 -7.74428e-24)
(0.593467 0.476931 1.85662e-21)
(0.442626 0.15724 -6.36397e-22)
(0.893045 0.890528 -3.03875e-20)
(0.261642 0.415201 -2.47609e-22)
(3.23942 -0.273641 -4.04208e-20)
(0.280013 0.36884 6.68669e-22)
(1.00731 0.872367 2.57625e-21)
(3.88495 -0.253151 6.71024e-19)
(0.760278 0.836898 -1.54293e-20)
(0.465056 0.392309 -4.07961e-21)
(3.12372 -0.268283 1.69995e-19)
(0.25409 0.374183 1.16416e-21)
(3.27198 -0.259949 1.79665e-19)
(0.061295 0.239541 -1.2385e-21)
(0.681714 0.504942 -2.81825e-21)
(3.00159 -0.277796 -1.98309e-19)
(0.227908 0.397806 2.26997e-22)
(2.94853 -0.284691 -1.20699e-20)
(3.9199 -0.315502 3.82074e-21)
(1.90261 0.465205 1.18458e-20)
(0.310873 0.426521 -1.94028e-23)
(0.483738 0.512812 4.83898e-23)
(0.215586 -0.0786491 -1.37888e-23)
(2.85503 0.721708 -1.51906e-19)
(2.91801 -0.276608 4.7749e-20)
(1.04434 0.967524 -3.5216e-20)
(3.4103 -0.252223 5.22484e-20)
(0.0746366 -0.0487218 -4.86092e-22)
(1.5767 1.23865 -4.73444e-21)
(0.139818 -0.106981 -6.94179e-22)
(1.20088 0.70511 -5.61423e-21)
(3.99802 -0.390532 -1.22469e-19)
(2.75268 -0.180615 -5.5612e-20)
(3.49948 -0.238341 -1.43559e-19)
(3.8029 0.145722 2.80188e-19)
(0.0853815 -0.0803746 1.94919e-21)
(3.56806 -0.247574 2.0667e-19)
(0.394052 0.490266 9.5829e-23)
(0.297088 0.414891 -1.16289e-21)
(3.6401 -0.252626 1.06265e-20)
(4.01006 -0.291319 7.27431e-22)
(0.277708 0.407213 -5.40069e-23)
(2.77126 -0.296733 -1.42597e-19)
(1.36966 0.567604 9.01521e-22)
(0.561597 0.369376 3.50493e-21)
(1.7363 0.527429 1.64228e-21)
(3.74196 -0.304954 2.1451e-19)
(0.430814 0.436271 -4.28284e-23)
(3.27827 0.51075 2.87517e-20)
(3.69897 -0.257655 5.43254e-23)
(3.26487 -0.255442 -2.71193e-20)
(3.42782 -0.244965 -2.00248e-20)
(3.98566 -0.367335 -2.59615e-19)
(0.190997 0.381148 7.35676e-22)
(3.15503 0.0030395 -9.78461e-20)
(0.117565 0.305007 1.09637e-21)
(3.44402 0.697388 2.34639e-20)
(3.48757 -0.268385 5.31114e-20)
(3.16706 -0.267155 1.05172e-20)
(4.01567 -0.392472 1.36238e-19)
(0.598535 0.62291 -1.58547e-20)
(3.75806 -0.270593 -6.59248e-21)
(0.953325 0.849935 -2.71856e-21)
(1.31352 0.671832 -2.77528e-21)
(0.505108 0.477011 -1.22485e-22)
(3.97248 0.153652 4.39346e-20)
(0.310681 0.356579 -9.81812e-23)
(0.388197 -0.0740728 1.12665e-22)
(0.383667 0.0117382 -7.1885e-23)
(0.952341 0.932976 3.26475e-20)
(2.40577 1.33832 5.21991e-20)
(0.312006 0.0961732 -3.38715e-22)
(3.34141 -0.249085 5.34717e-20)
(0.353076 0.340993 -7.52855e-23)
(0.215066 -0.149634 -1.79561e-21)
(0.761242 0.773336 -5.65527e-23)
(1.49655 0.51113 7.31217e-22)
(3.19772 0.861534 -4.86665e-21)
(3.89618 -0.322542 1.44882e-19)
(0.396978 0.417745 4.27027e-21)
(2.91765 -0.297404 -4.77038e-20)
(3.81092 -0.283883 -2.24767e-21)
(0.0474395 -0.0164171 -5.99118e-22)
(2.93648 0.984718 -4.10055e-20)
(0.866606 0.734737 7.93134e-21)
(0.639442 0.57603 6.97564e-21)
(3.17307 -0.265311 -1.13782e-20)
(3.89041 -0.32846 -1.81079e-21)
(0.431394 -0.0571256 -7.17765e-23)
(1.93457 0.129768 2.87844e-21)
(0.219629 0.382041 6.72842e-22)
(1.36847 1.17909 1.35138e-20)
(4.04508 0.0392315 -1.38131e-19)
(2.88743 -0.260828 -2.43257e-20)
(0.178879 -0.130933 -4.15898e-22)
(0.370966 0.436541 -1.06845e-22)
(3.72982 -0.220686 -7.10613e-19)
(0.407191 0.284586 2.14085e-23)
(3.02081 -0.110632 7.56847e-20)
(4.07063 0.096384 -5.50264e-20)
(0.152513 0.0771126 -1.09335e-21)
(1.44278 0.631185 -6.81957e-22)
(0.517062 0.448283 3.76827e-22)
(3.05726 -0.268861 -5.55935e-21)
(3.97209 -0.36363 -5.77777e-20)
(0.165729 0.381531 3.84053e-22)
(3.85754 -0.295335 -3.08558e-22)
(0.495988 0.258333 -5.77325e-22)
(0.105397 0.240782 1.66841e-21)
(2.84181 -0.253773 1.25931e-21)
(0.465684 0.0635226 1.50021e-22)
(0.469283 -0.04258 -2.35684e-23)
(3.77378 -0.283942 7.72311e-21)
(3.39591 -0.234413 1.59361e-19)
(0.218001 0.227658 1.63489e-21)
(0.169262 -0.113388 -6.97958e-22)
(0.087762 -0.0700502 -3.91475e-22)
(0.517705 -0.0019135 1.62589e-23)
(0.0551027 0.0206285 -1.04509e-22)
(0.142737 0.372666 -9.63809e-22)
(0.238938 0.40803 -1.57446e-22)
(0.402403 0.413048 3.5442e-23)
(0.0216499 0.0534256 6.89509e-22)
(0.0324967 0.0169886 -9.08398e-22)
(0.302254 0.443581 -1.74897e-23)
(0.281799 0.21176 -3.37451e-22)
(0.0126863 0.198812 2.10991e-22)
(0.547345 0.466878 -3.14399e-22)
(2.95469 -0.279157 -2.93846e-20)
(0.498308 -0.0255382 3.03384e-23)
(3.96558 -0.36428 7.35043e-21)
(0.022069 0.0913185 -2.28397e-22)
(3.90486 -0.3069 -1.2335e-21)
(2.97986 -0.276535 1.34096e-20)
(2.70369 -0.282961 -9.73821e-21)
(3.95349 -0.347071 -3.94357e-21)
(3.76098 -0.305754 -1.55078e-19)
(0.259835 -0.0982064 -1.42581e-22)
(0.405547 -0.0320666 2.60277e-22)
(0.124494 -0.0895287 1.53223e-23)
(0.267059 0.38527 -1.19312e-22)
(0.088641 -0.00576126 -9.99449e-24)
(0.469816 0.457067 9.88026e-23)
(0.103514 0.0702241 5.91863e-22)
(0.120634 0.359151 -5.59999e-22)
(0.267305 0.321217 2.80202e-21)
(3.14947 -0.221394 -1.248e-20)
(0.127901 0.362292 3.43964e-22)
(2.86223 -0.281482 3.22369e-20)
(0.292693 0.377723 -1.70144e-22)
(0.100369 0.339099 7.9576e-22)
(3.92951 -0.365893 -3.19496e-20)
(2.59557 -0.293765 -2.75048e-20)
(0.535045 0.505204 1.53699e-21)
(0.0186791 0.138117 -7.94857e-22)
(0.117572 0.159357 -6.7605e-22)
(0.0309107 0.168913 8.96844e-23)
(0.353674 -0.0486852 -1.50536e-22)
(0.199204 0.388165 -3.29493e-23)
(0.0112311 0.18128 1.04819e-21)
(0.331822 0.386213 1.09007e-22)
(3.09043 -0.269811 -9.31718e-21)
(0.353264 0.18549 1.92614e-22)
(3.31066 -0.255747 5.87207e-21)
(2.88968 -0.276923 4.50801e-20)
(3.94303 -0.320291 -7.69459e-22)
(3.96301 -0.338046 6.02204e-20)
(2.8056 -0.277149 -1.93304e-20)
(3.86753 -0.306708 -1.80044e-20)
(2.99911 -0.260977 -3.30068e-20)
(0.824629 0.88429 8.94293e-22)
(0.524027 0.592362 -2.10707e-21)
(0.261446 -0.0477312 -3.19735e-22)
(0.208751 -0.125258 7.25892e-23)
(3.82315 -0.295779 2.4319e-20)
(0.303058 -0.0748826 3.83172e-22)
(3.95213 -0.374108 -1.42943e-19)
(0.0148611 0.205697 -9.96038e-23)
(0.206634 0.0565265 5.81964e-23)
(0.0753093 0.307612 -1.76204e-22)
(0.388347 0.0814039 -7.44402e-23)
(0.391851 0.465139 -4.96592e-24)
(3.61342 -0.274767 2.90267e-19)
(0.0789996 0.1757 3.41339e-22)
(3.20379 -0.262079 2.38534e-21)
(3.09176 -0.277164 -5.9986e-20)
(0.519132 0.551642 -1.68667e-22)
(0.169626 0.380938 -2.61573e-23)
(0.0517358 0.241193 3.15828e-22)
(2.58458 -0.289645 3.62713e-20)
(0.0665079 0.279117 -8.01931e-22)
(0.147126 0.372494 6.11077e-23)
(0.32409 0.442434 3.26315e-22)
(0.12722 -0.0291449 -8.0795e-23)
(0.334887 0.4198 -9.31648e-22)
(0.133355 0.0312596 -2.22759e-23)
(3.85547 -0.311048 1.40414e-19)
(0.199764 -0.151274 -4.20003e-23)
(0.191222 0.381566 -2.31034e-22)
(0.171513 0.0124908 1.4043e-22)
(0.553824 0.0574516 -1.2225e-21)
(3.89388 -0.395576 -1.07428e-19)
(0.608527 0.567795 2.60723e-21)
(0.592395 0.510833 -5.25466e-21)
(2.4633 -0.284398 -4.20453e-20)
(0.453439 -0.0214482 -1.09578e-24)
(0.448122 -0.388317 1.06121e-21)
(0.472474 -0.381066 -6.15549e-23)
(0.5266 -0.3882 -5.91228e-22)
(0.564002 -0.394889 3.11081e-22)
(0.603108 -0.400197 -3.38355e-22)
(0.634811 -0.403759 -1.03519e-21)
(0.665267 -0.406253 2.30716e-22)
(0.691668 -0.408101 3.036e-22)
(0.717703 -0.40832 3.1389e-22)
(0.480996 -0.37759 -6.90049e-22)
(0.505182 -0.372866 -5.22753e-23)
(0.556221 -0.378562 4.87877e-22)
(0.593756 -0.385622 -8.79129e-22)
(0.630933 -0.391026 7.96183e-22)
(0.662026 -0.395374 1.33232e-21)
(0.691069 -0.398483 -8.41871e-22)
(0.716777 -0.400811 8.64013e-22)
(0.74035 -0.401888 -4.28765e-22)
(0.515233 -0.36128 1.921e-21)
(0.53677 -0.358565 4.6628e-22)
(0.585053 -0.364254 -9.96631e-22)
(0.621903 -0.371857 5.0218e-22)
(0.657527 -0.377716 -1.24069e-21)
(0.687951 -0.382761 -1.75927e-22)
(0.71593 -0.386577 -3.53307e-23)
(0.740799 -0.389592 -4.32204e-22)
(0.763458 -0.391718 -6.62906e-22)
(0.547465 -0.341437 -8.72213e-22)
(0.566219 -0.339839 2.45182e-22)
(0.612182 -0.346013 7.41128e-22)
(0.648244 -0.354268 4.59373e-23)
(0.682598 -0.360733 5.46015e-22)
(0.712367 -0.366416 1.52466e-21)
(0.739513 -0.37086 -9.16378e-22)
(0.763773 -0.374444 1.41508e-22)
(0.786029 -0.377178 3.35369e-22)
(0.577178 -0.318493 1.54602e-22)
(0.592971 -0.317432 -1.47763e-22)
(0.636816 -0.324379 3.09462e-23)
(0.672179 -0.333224 -2.78369e-22)
(0.705575 -0.340379 1.47825e-22)
(0.734861 -0.346679 -3.4674e-22)
(0.761481 -0.351718 1.31318e-22)
(0.785445 -0.355826 5.70047e-22)
(0.807702 -0.35885 1.18412e-22)
(0.603621 -0.292978 1.31743e-22)
(0.61648 -0.292025 -4.79758e-22)
(0.658428 -0.300008 8.12087e-23)
(0.693323 -0.30923 6.49429e-22)
(0.726072 -0.317051 -2.13548e-22)
(0.755064 -0.323913 -3.03853e-22)
(0.781398 -0.329542 -1.12598e-22)
(0.80527 -0.334207 -9.34941e-22)
(0.827458 -0.337973 4.62881e-22)
(0.625155 -0.266526 8.46899e-23)
(0.636398 -0.264538 3.5908e-22)
(0.676776 -0.273606 8.90972e-23)
(0.71149 -0.282758 -3.1301e-22)
(0.743843 -0.291087 6.68585e-23)
(0.772708 -0.298392 -7.24709e-23)
(0.798932 -0.304547 2.47444e-22)
(0.822811 -0.30973 -2.30554e-22)
(0.845057 -0.314134 -1.63593e-22)
(0.640198 -0.239398 -1.69877e-22)
(0.653156 -0.235407 3.16621e-22)
(0.692141 -0.24541 -5.42103e-23)
(0.726737 -0.254031 1.09822e-22)
(0.758786 -0.262672 -1.20087e-22)
(0.787622 -0.270282 3.89441e-22)
(0.813867 -0.276865 5.04827e-22)
(0.837854 -0.282549 -6.13962e-22)
(0.860339 -0.287056 1.83216e-22)
(0.649291 -0.208293 1.68255e-23)
(0.667464 -0.203551 5.79406e-23)
(0.704861 -0.214672 1.75647e-23)
(0.739104 -0.22283 -1.43067e-22)
(0.770813 -0.231759 -4.84552e-23)
(0.799667 -0.239589 -1.16747e-22)
(0.826032 -0.246495 -6.44864e-23)
(0.850252 -0.252463 6.35931e-22)
(0.872831 -0.257607 -6.03765e-23)
(0.654455 -0.17098 1.16247e-24)
(0.678938 -0.167699 -2.68484e-22)
(0.714482 -0.180522 -1.13673e-22)
(0.74824 -0.188861 6.32617e-23)
(0.779689 -0.19823 -5.45085e-23)
(0.808684 -0.206244 2.05543e-22)
(0.835324 -0.213313 3.64272e-23)
(0.8599 -0.219348 3.95629e-22)
(0.882844 -0.224358 -3.26756e-23)
(0.656793 -0.129013 4.15183e-23)
(0.686149 -0.12835 2.43645e-23)
(0.719904 -0.143279 5.44587e-23)
(0.753525 -0.152349 1.43387e-22)
(0.785087 -0.162185 -4.8095e-23)
(0.814502 -0.170263 -3.93534e-23)
(0.841677 -0.177282 -1.31066e-22)
(0.866893 -0.183101 -4.77403e-22)
(0.890475 -0.187852 -8.36163e-23)
(0.656996 -0.0856236 -5.99852e-23)
(0.68804 -0.088159 2.10574e-22)
(0.720441 -0.104667 -1.32397e-22)
(0.754619 -0.114181 9.38628e-23)
(0.786832 -0.124013 -1.75444e-23)
(0.816998 -0.131784 3.07984e-22)
(0.844944 -0.138413 3.39455e-23)
(0.870953 -0.143716 -2.51681e-22)
(0.895402 -0.14861 -1.83919e-22)
(0.653664 -0.0447631 -1.7503e-24)
(0.683719 -0.0502734 -4.44369e-23)
(0.716625 -0.0663569 1.17735e-23)
(0.751916 -0.0752537 6.7379e-23)
(0.785136 -0.0841133 -4.47817e-23)
(0.816245 -0.0909094 -6.04268e-23)
(0.845075 -0.0965618 -1.13026e-22)
(0.871905 -0.101032 2.1199e-22)
(0.897415 -0.104703 -1.20273e-22)
(0.643671 -0.00744354 -8.723e-24)
(0.675316 -0.0141176 -7.3165e-24)
(0.709752 -0.0283212 -4.00903e-23)
(0.746191 -0.0355959 1.17583e-22)
(0.780428 -0.0425478 -2.15789e-23)
(0.81247 -0.0476681 -1.25561e-23)
(0.842178 -0.0517181 -8.71803e-23)
(0.869843 -0.0547309 9.97881e-24)
(0.895911 -0.0564617 8.14833e-23)
(0.628518 0.0288281 6.65066e-23)
(0.663608 0.0219721 5.31124e-24)
(0.7003 0.0104182 2.40536e-22)
(0.737838 0.00531038 -3.59519e-22)
(0.772946 0.000839418 4.04603e-23)
(0.805782 -0.00212877 1.33875e-22)
(0.836283 -0.00415189 9.49999e-23)
(0.864778 -0.00522946 1.3835e-22)
(0.891633 -0.00521958 -4.98965e-22)
(0.608049 0.0658817 -2.79727e-23)
(0.648664 0.0591899 -1.61751e-22)
(0.688175 0.0508737 -3.67936e-22)
(0.726766 0.0480202 5.0373e-22)
(0.76258 0.0461573 1.71917e-22)
(0.796044 0.0455001 -9.16016e-23)
(0.827184 0.0456861 -1.43939e-23)
(0.856292 0.0467497 3.97741e-22)
(0.883495 0.0484285 -1.67416e-22)
(0.583735 0.105279 1.76214e-22)
(0.62956 0.0988223 -2.8723e-22)
(0.672613 0.0936761 3.8045e-22)
(0.712376 0.0927085 -2.52071e-22)
(0.748881 0.0931665 -2.77961e-22)
(0.78291 0.0946976 1.0951e-21)
(0.814617 0.0970582 -7.39442e-22)
(0.844261 0.10033 -3.118e-22)
(0.872262 0.103574 6.98135e-23)
(0.559443 0.145132 -2.0272e-22)
(0.60609 0.139853 3.95868e-22)
(0.652666 0.1378 -1.92751e-22)
(0.693911 0.138499 3.01158e-22)
(0.731312 0.140979 7.31377e-23)
(0.766007 0.144537 -8.8316e-22)
(0.798301 0.148989 7.83468e-23)
(0.828437 0.154313 -4.36665e-22)
(0.856873 0.159867 -5.76017e-22)
(0.53656 0.182301 -1.63039e-23)
(0.58009 0.179047 -8.37294e-23)
(0.628651 0.180773 -1.81283e-22)
(0.671314 0.183567 -8.76206e-22)
(0.709736 0.188143 2.28205e-22)
(0.745195 0.193725 3.74271e-22)
(0.778131 0.200205 4.50481e-22)
(0.808838 0.207418 5.75136e-22)
(0.837769 0.215088 -2.77167e-22)
(0.513852 0.216096 3.14448e-23)
(0.552827 0.214915 3.27793e-23)
(0.601816 0.220785 6.67298e-22)
(0.645273 0.226326 -5.34388e-23)
(0.684519 0.233295 3.49569e-22)
(0.720665 0.24107 -2.36519e-22)
(0.75418 0.249652 -1.80402e-21)
(0.785345 0.258847 -2.88343e-22)
(0.814558 0.26837 -1.73442e-23)
(0.490575 0.247254 5.65009e-23)
(0.524695 0.247557 -6.57583e-22)
(0.573149 0.257179 4.31855e-22)
(0.616608 0.265856 -6.25374e-22)
(0.656273 0.275442 4.80744e-22)
(0.692874 0.28557 -9.12263e-23)
(0.72685 0.296318 4.94623e-22)
(0.758503 0.307456 4.68312e-22)
(0.788014 0.319379 -1.45707e-22)
(0.466616 0.275351 5.92492e-24)
(0.495608 0.276943 6.71934e-22)
(0.543224 0.289637 -1.1832e-21)
(0.585961 0.301665 2.061e-22)
(0.625554 0.313952 -1.2842e-21)
(0.662258 0.326519 3.9231e-22)
(0.696473 0.339449 1.58537e-22)
(0.728648 0.35246 -2.25095e-22)
(0.758015 0.36736 -1.46511e-22)
(0.441933 0.298483 -2.73561e-22)
(0.465854 0.303013 -5.79189e-22)
(0.512688 0.31826 5.79613e-22)
(0.554063 0.333781 6.81887e-22)
(0.59306 0.348692 8.50273e-22)
(0.629434 0.363625 -7.24391e-23)
(0.663553 0.378572 -2.81574e-22)
(0.696052 0.393455 9.27249e-22)
(0.725492 0.410574 -2.51615e-21)
(0.415876 0.316116 -1.05149e-22)
(0.435333 0.325506 3.98516e-22)
(0.480874 0.342773 -1.39613e-22)
(0.520253 0.361565 2.68669e-22)
(0.55816 0.37885 -6.33767e-22)
(0.593886 0.396115 -2.30926e-22)
(0.627712 0.412997 1.21296e-21)
(0.660867 0.429804 -1.28151e-21)
(0.690986 0.451339 1.83449e-21)
(0.388387 0.330034 -2.76995e-22)
(0.406468 0.348085 4.10906e-23)
(0.450896 0.368297 2.57381e-22)
(0.488444 0.388877 -3.14267e-22)
(0.524911 0.40755 7.12816e-23)
(0.559069 0.425991 -5.4854e-22)
(0.591693 0.443483 4.61276e-22)
(0.626142 0.459928 -3.39271e-22)
(0.657972 0.48308 -2.53537e-24)
(0.3516 0.312954 -2.76632e-22)
(0.344746 0.310638 -3.33489e-22)
(0.337604 0.307423 -1.01584e-21)
(0.329685 0.30365 1.43499e-21)
(0.320901 0.299199 -1.08626e-21)
(0.31119 0.294038 8.21436e-22)
(0.300509 0.288124 3.25899e-22)
(0.288837 0.281418 -8.04584e-23)
(0.276184 0.27387 -6.03962e-22)
(0.262594 0.26541 -2.67695e-22)
(0.248144 0.255971 2.89477e-22)
(0.23294 0.245486 -3.31769e-22)
(0.217128 0.233898 8.96446e-22)
(0.200884 0.221158 -2.2627e-21)
(0.184396 0.207222 3.94362e-21)
(0.167871 0.192073 -4.46582e-21)
(0.151519 0.17572 3.99417e-21)
(0.135531 0.158203 -1.79308e-21)
(0.120074 0.139614 -5.82615e-22)
(0.10527 0.120116 6.17771e-22)
(0.0911406 0.0999351 -2.13588e-22)
(0.0775166 0.0793471 4.6088e-22)
(0.0641948 0.0589659 3.32746e-23)
(0.0513361 0.0391136 -6.38898e-22)
(0.0412253 0.0190142 5.03602e-22)
(0.0359119 -0.00185402 -2.74247e-22)
(0.0351538 -0.0238067 3.50045e-22)
(0.0390931 -0.0470223 2.80332e-22)
(0.0448539 -0.0716897 -3.36393e-22)
(0.0503146 -0.0973958 9.02065e-24)
(0.0563699 -0.123311 -3.02268e-22)
(0.0636944 -0.149066 2.72947e-22)
(0.0725657 -0.174406 5.14911e-22)
(0.0829508 -0.199005 -4.1444e-22)
(0.0947149 -0.222537 5.86528e-22)
(0.107677 -0.244786 -9.77137e-22)
(0.121599 -0.265545 7.44328e-23)
(0.136224 -0.284654 2.10867e-22)
(0.151307 -0.302001 -3.14386e-22)
(0.16662 -0.317508 7.00641e-22)
(0.181986 -0.331156 -3.99798e-22)
(0.197285 -0.342958 -1.70017e-21)
(0.212457 -0.352999 3.45625e-21)
(0.227426 -0.361347 -3.70162e-21)
(0.242674 -0.367925 3.20654e-21)
(0.258684 -0.372777 -1.88123e-21)
(0.275298 -0.376228 9.63908e-22)
(0.292208 -0.378646 -3.28488e-22)
(0.309086 -0.38031 3.09326e-22)
(0.325598 -0.381463 -3.24035e-22)
(0.341417 -0.382325 -4.64041e-22)
(0.356318 -0.383057 -1.40261e-22)
(0.37015 -0.383767 2.39304e-22)
(0.382792 -0.38452 6.04502e-22)
(0.394195 -0.38534 -9.00591e-22)
(0.404347 -0.386214 1.16226e-21)
(0.413398 -0.387027 -7.80624e-22)
(0.421557 -0.387663 -2.7024e-22)
(0.428932 -0.388179 -1.92007e-22)
(0.365486 0.272595 -1.64884e-23)
(0.359256 0.269442 -5.41746e-24)
(0.352624 0.266053 -1.77631e-23)
(0.34545 0.262346 2.11723e-23)
(0.337674 0.258351 -3.85251e-23)
(0.32921 0.254075 3.15822e-24)
(0.31997 0.249514 -2.69869e-24)
(0.309912 0.244637 5.07715e-23)
(0.299065 0.2393 -6.27663e-23)
(0.287476 0.23336 -3.82569e-23)
(0.275159 0.226746 7.16364e-23)
(0.262138 0.219349 -6.90698e-25)
(0.248475 0.211064 -1.11354e-22)
(0.234257 0.201787 1.90953e-22)
(0.219607 0.191419 -1.96484e-22)
(0.204667 0.179879 1.21525e-22)
(0.189595 0.167106 1.35046e-22)
(0.174556 0.153068 -1.19165e-23)
(0.159709 0.137756 5.12827e-23)
(0.145198 0.121184 3.46496e-23)
(0.131157 0.103363 7.14142e-24)
(0.117754 0.0842467 -1.3493e-22)
(0.105378 0.063662 1.34631e-22)
(0.0947128 0.0411556 -7.59041e-23)
(0.0865543 0.0167524 2.60003e-22)
(0.08108 -0.00907138 -1.0253e-22)
(0.0784772 -0.0356187 -8.02804e-24)
(0.0789148 -0.0621502 4.37292e-23)
(0.0821802 -0.088098 1.81061e-23)
(0.087165 -0.113511 -1.93796e-24)
(0.0935024 -0.138564 -3.94385e-23)
(0.101297 -0.163175 3.08045e-24)
(0.110605 -0.187125 -1.24875e-23)
(0.121295 -0.2102 1.36997e-24)
(0.133205 -0.232206 -8.77496e-23)
(0.146167 -0.252981 4.60385e-23)
(0.159993 -0.272405 -6.22246e-25)
(0.174496 -0.290397 -5.49353e-23)
(0.189508 -0.306917 1.923e-24)
(0.204892 -0.321954 -3.28296e-23)
(0.220556 -0.335513 -1.73104e-23)
(0.23645 -0.347605 5.89177e-23)
(0.252568 -0.358239 -1.96908e-22)
(0.26895 -0.367417 -1.44738e-22)
(0.285633 -0.375085 2.39012e-22)
(0.30251 -0.381176 -1.99832e-22)
(0.319329 -0.385687 1.01959e-22)
(0.335728 -0.388797 1.12549e-23)
(0.35125 -0.39084 -5.99363e-23)
(0.365736 -0.391942 2.98276e-23)
(0.379326 -0.392146 7.03837e-23)
(0.391999 -0.391661 -1.83582e-23)
(0.403621 -0.390762 2.96147e-23)
(0.414165 -0.389644 -1.1083e-22)
(0.423752 -0.388449 1.41563e-23)
(0.432386 -0.387275 5.27757e-23)
(0.440232 -0.386131 -5.93039e-23)
(0.447486 -0.384987 1.25437e-23)
(0.454224 -0.383904 -1.74405e-23)
(0.423972 0.255267 -2.87617e-22)
(0.417759 0.252179 5.92171e-23)
(0.411104 0.248821 -2.44929e-22)
(0.403987 0.245212 -5.6329e-23)
(0.396352 0.241325 8.44913e-22)
(0.388154 0.237138 -2.631e-22)
(0.379356 0.232604 -5.14207e-22)
(0.369935 0.227657 -1.29328e-24)
(0.359876 0.222212 3.08518e-22)
(0.349158 0.216221 -7.74522e-23)
(0.337768 0.20962 8.3594e-22)
(0.325713 0.202334 -9.99194e-22)
(0.313028 0.194278 9.04539e-22)
(0.299769 0.185358 -1.25236e-22)
(0.286022 0.17548 -8.10743e-22)
(0.271898 0.164552 2.5116e-22)
(0.257531 0.152488 9.6904e-22)
(0.243073 0.139213 -3.80855e-22)
(0.228693 0.124659 -9.55007e-23)
(0.214576 0.108761 2.02623e-23)
(0.200934 0.0914491 -2.58404e-22)
(0.188026 0.0726401 5.99844e-23)
(0.176205 0.0522522 -6.64681e-22)
(0.16593 0.0302679 8.0035e-22)
(0.157783 0.00683745 -3.07155e-22)
(0.152249 -0.0177325 7.46331e-24)
(0.14954 -0.0430574 4.37723e-23)
(0.149644 -0.0686848 -1.92539e-22)
(0.152221 -0.094131 1.22573e-22)
(0.156772 -0.119122 6.4091e-23)
(0.162972 -0.143585 1.44858e-22)
(0.170654 -0.167435 -1.51097e-22)
(0.1797 -0.190535 6.56952e-23)
(0.189987 -0.212739 8.86467e-23)
(0.201376 -0.233915 -3.08207e-22)
(0.213721 -0.253951 8.52083e-22)
(0.226876 -0.272759 -5.55242e-22)
(0.240699 -0.290272 -1.20398e-22)
(0.255068 -0.306448 -1.39239e-22)
(0.269885 -0.321259 -4.5471e-23)
(0.285073 -0.334686 -2.15564e-22)
(0.300575 -0.346711 -3.72727e-22)
(0.316337 -0.357315 8.91638e-22)
(0.332295 -0.36648 4.16117e-22)
(0.348359 -0.374182 -8.53726e-22)
(0.364372 -0.380429 -2.76613e-22)
(0.380118 -0.385285 8.80353e-22)
(0.395369 -0.388893 -1.01876e-21)
(0.409918 -0.391475 7.10678e-22)
(0.423544 -0.393301 -2.61187e-23)
(0.436266 -0.394455 2.88892e-22)
(0.448154 -0.39497 5.49787e-23)
(0.459131 -0.39502 -4.59563e-22)
(0.469203 -0.394768 -2.31123e-22)
(0.478452 -0.394305 7.21607e-22)
(0.486961 -0.393687 -1.16058e-23)
(0.49484 -0.392943 -2.01393e-22)
(0.502141 -0.392115 6.41369e-23)
(0.508904 -0.391232 -2.32786e-22)
(0.464162 0.245539 -4.20158e-23)
(0.457952 0.242999 2.39856e-22)
(0.451326 0.240219 -1.12481e-22)
(0.444215 0.237141 8.24026e-23)
(0.436588 0.233743 -8.81906e-23)
(0.428413 0.229996 2.31862e-24)
(0.419659 0.225865 -5.626e-23)
(0.410304 0.221303 -1.37481e-22)
(0.400329 0.216261 9.00903e-23)
(0.389727 0.210679 1.23792e-22)
(0.378498 0.20449 8.4517e-23)
(0.366657 0.197611 -3.70155e-22)
(0.354236 0.189953 3.33107e-22)
(0.341288 0.181416 -8.72615e-23)
(0.327888 0.171898 4.05901e-23)
(0.31414 0.161294 -2.12483e-22)
(0.300169 0.149503 2.14412e-22)
(0.286131 0.136429 -9.66951e-23)
(0.272207 0.121987 -1.62751e-22)
(0.258608 0.106099 7.51333e-23)
(0.245575 0.0886997 -3.73298e-23)
(0.23339 0.0697438 -2.94705e-22)
(0.22238 0.0492196 1.77996e-22)
(0.212908 0.0271788 2.03281e-22)
(0.205338 0.00377949 -1.608e-22)
(0.199961 -0.0207024 1.90496e-23)
(0.196949 -0.0459122 1.82699e-22)
(0.196351 -0.0714606 -2.12333e-22)
(0.198062 -0.0969784 6.97382e-23)
(0.201855 -0.12219 -1.88586e-23)
(0.207508 -0.146914 8.82112e-23)
(0.214834 -0.171004 -2.05199e-22)
(0.223667 -0.194324 1.53477e-22)
(0.233844 -0.216747 -5.68866e-24)
(0.245202 -0.238155 -1.88346e-22)
(0.257583 -0.258449 6.55804e-23)
(0.270835 -0.277543 2.06725e-22)
(0.284812 -0.295367 -8.09574e-23)
(0.299383 -0.311864 -8.55553e-23)
(0.314432 -0.326989 1.51026e-22)
(0.329848 -0.340705 -3.44547e-23)
(0.345527 -0.352982 -5.18111e-23)
(0.361357 -0.363795 3.17864e-22)
(0.377215 -0.373136 -2.92623e-22)
(0.392961 -0.381013 1.26192e-22)
(0.408437 -0.387467 -1.02709e-23)
(0.42348 -0.392577 3.76891e-22)
(0.43794 -0.396462 -3.38582e-22)
(0.4517 -0.399257 1.51114e-22)
(0.464612 -0.401219 1.27329e-22)
(0.47652 -0.402577 1.48378e-22)
(0.487553 -0.403358 -1.70875e-22)
(0.497857 -0.403583 -3.59908e-23)
(0.507479 -0.40335 -5.71717e-23)
(0.516454 -0.402765 -9.27296e-23)
(0.52478 -0.401935 6.45195e-23)
(0.532478 -0.400934 -1.2705e-22)
(0.539608 -0.399805 2.59022e-22)
(0.546247 -0.398604 -7.14468e-23)
(0.516624 0.24014 -4.24115e-22)
(0.510545 0.237407 4.59406e-23)
(0.503963 0.234439 4.08763e-22)
(0.496851 0.231214 -2.92392e-22)
(0.489177 0.227695 7.56065e-23)
(0.48092 0.223849 2.57892e-22)
(0.472062 0.219638 -3.20959e-22)
(0.46259 0.215016 1.22092e-22)
(0.452498 0.209929 3.91416e-22)
(0.441788 0.204316 -1.28408e-22)
(0.430473 0.198108 -3.9698e-22)