/*--------------------------------*- C++ -*----------------------------------*\
  =========                 |
  \\      /  F ield         | OpenFOAM: The Open Source CFD Toolbox
   \\    /   O peration     | Website:  https://openfoam.org
    \\  /    A nd           | Version:  10
     \\/     M anipulation  |
\*---------------------------------------------------------------------------*/
FoamFile
{
    format      ascii;
    class       volScalarField;
    location    "1157";
    object      epsilon;
}
// * * * * * * * * * * * * * * * * * * * * * * * * * * * * * * * * * * * * * //

dimensions      [0 2 -3 0 0 0 0];

internalField   nonuniform List<scalar> 
23845
(
0.0425015
0.0594282
0.0573177
0.013806
0.0409163
0.00243619
0.0765736
0.010726
0.00177283
0.0258603
0.0239492
0.00206228
0.00339639
0.00212641
0.121928
0.0123371
0.00642131
0.00880705
0.00446832
0.00314566
0.0337916
0.021033
0.0278757
0.00177912
0.026201
0.00119201
0.0518642
0.00288298
0.010319
0.00310781
0.0153591
0.0243379
0.135144
0.00938665
0.00207626
0.00256642
0.020532
0.00208772
0.00218972
0.00197038
0.00407685
0.00612837
0.00284641
0.00593294
0.000849667
0.00407556
0.0282081
0.014276
0.0225073
0.010828
0.0143682
0.0466602
0.027427
0.0025381
0.023613
0.0056006
0.0546627
0.0110434
0.0429529
0.0353134
0.0104768
0.00635994
0.0106898
0.0125902
0.00156881
0.00347688
0.0548108
0.000705601
0.000737597
0.00562068
0.0104672
0.0418634
0.00156152
0.105743
0.00132408
0.117942
0.00206858
0.00221912
0.0113025
0.00959676
0.0394773
0.0961374
0.0596884
0.0110987
0.0642775
0.00209069
0.080468
0.0287905
0.00152743
0.00797921
0.0140358
0.00528799
0.0109556
0.00258271
0.0113545
0.0123629
0.00568521
0.0161013
0.00129069
0.0323568
0.00668899
0.059497
0.0507353
0.0135692
0.0128012
0.0114536
0.002451
0.00114415
0.0470438
0.00579634
0.0213781
0.00211934
0.0891529
0.0215298
0.00268601
0.0239913
0.0014444
0.0152706
0.0104627
0.0128118
0.00216448
0.0174107
0.00569166
0.0214306
0.0632715
0.00131891
0.0104113
0.010707
0.0400047
0.0310534
0.0565693
0.0386351
0.0277025
0.00226156
0.00854775
0.0485298
0.0128545
0.00204181
0.0457444
0.00223184
0.0117546
0.00573581
0.00221484
0.00639462
0.00893045
0.00542122
0.0188642
0.0853575
0.0189147
0.00935133
0.127343
0.0023287
0.0693706
0.00278694
0.082794
0.016789
0.04703
0.00228249
0.0763535
0.0113156
0.00722976
0.118721
0.0117084
0.00162999
0.00212309
0.01202
0.00229966
0.0159016
0.00301189
0.00535282
0.00229497
0.0149679
0.00173645
0.0180044
0.00163599
0.0111012
0.00610158
0.0221835
0.00109783
0.00225131
0.0325083
0.0285124
0.10327
0.0188673
0.0110147
0.00447224
0.00607951
0.0109893
0.0104582
0.0058901
0.0117357
0.00221091
0.00217072
0.00239163
0.00791422
0.00211231
0.0122222
0.0106764
0.0212743
0.0228559
0.0137054
0.0023228
0.016758
0.0342832
0.010913
0.011521
0.0541101
0.00232605
0.0509811
0.00989175
0.0103569
0.0144765
0.00762544
0.00306052
0.0184996
0.0219426
0.0290518
0.00669377
0.0175549
0.0527535
0.00182433
0.113272
0.0123606
0.0138107
0.00553295
0.126338
0.0135246
0.00223678
0.00242558
0.00420722
0.00242843
0.0200083
0.002152
0.000830452
0.0418859
0.0102176
0.00149936
0.0139558
0.00176367
0.0165909
0.0262521
0.0172551
0.0110696
0.0400769
0.0163696
0.011773
0.0024072
0.000716658
0.0112559
0.115694
0.0043287
0.00222182
0.0141654
0.0026148
0.101489
0.0136304
0.0153693
0.0124462
0.00274414
0.00192283
0.0328725
0.00230378
0.0103901
0.0207366
0.0180977
0.00170866
0.0111024
0.0257823
0.0198737
0.013177
0.00221512
0.0136922
0.0156026
0.00227628
0.0187526
0.00214622
0.0122348
0.00232804
0.0201391
0.026431
0.0121471
0.00246406
0.0130515
0.0106844
0.00213648
0.0133597
0.0186027
0.00225682
0.0112766
0.0950924
0.0110924
0.017956
0.011972
0.0122542
0.0111752
0.00211578
0.0165745
0.0024312
0.00212016
0.011104
0.0815153
0.117434
0.0102082
0.0131115
0.00239173
0.0138649
0.0137457
0.0151545
0.00631713
0.0113568
0.0160904
0.0630526
0.0045737
0.00231869
0.0325788
0.0113104
0.0149101
0.0295667
0.0134465
0.002045
0.0143671
0.015181
0.0266032
0.00313931
0.109003
0.00231585
0.0117269
0.0292042
0.015493
0.00934164
0.0687567
0.0124831
0.0138028
0.00227987
0.0159393
0.0148515
0.0200702
0.00840489
0.00516767
0.0112448
0.0169364
0.0221238
0.0214443
0.00090283
0.000883867
0.0236481
0.00225478
0.0123555
0.0115102
0.111129
0.0192164
0.0551395
0.0107484
0.0130947
0.027945
0.00214905
0.00487224
0.00166439
0.0982347
0.0109315
0.0281131
0.00146026
0.0181189
0.00922446
0.0104499
0.00231755
0.0205215
0.00271416
0.0107532
0.00115681
0.00580959
0.0141263
0.0252011
0.00205713
0.00236672
0.0135824
0.0303993
0.0164515
0.00533025
0.014253
0.105622
0.00236208
0.0271136
0.000831226
0.000861834
0.0021545
0.00245201
0.011147
0.0131244
0.0110768
0.0610855
0.00510293
0.0166126
0.0150881
0.0168587
0.0118023
0.0176303
0.00107794
0.00600028
0.00232571
0.0247098
0.0175525
0.0117212
0.0198435
0.0463004
0.108528
0.00228183
0.0197971
0.0113788
0.0122573
0.125442
0.000772389
0.0853396
0.0221865
0.0505546
0.0361506
0.0212614
0.0167002
0.00229151
0.0219078
0.0945534
0.00390837
0.00189919
0.0113855
0.0108493
0.0529409
0.0828069
0.0170842
0.0221831
0.0269499
0.00220498
0.00858924
0.0230697
0.00801855
0.00376921
0.00138682
0.00204804
0.00432161
0.0103657
0.0208508
0.11566
0.0652111
0.0122198
0.0380623
0.0172584
0.0164558
0.00324891
0.0196535
0.0023011
0.0151775
0.0111814
0.00224924
0.0537392
0.00229099
0.00086777
0.0207355
0.0358712
0.036583
0.0116287
0.00251281
0.0537316
0.0125577
0.0127057
0.0330279
0.00244207
0.00229444
0.00245242
0.0191436
0.000950121
0.111566
0.00299661
0.00234437
0.0160057
0.0110351
0.0145271
0.038923
0.00191928
0.0165854
0.00281424
0.00755064
0.0233289
0.0196268
0.014734
0.0198908
0.0132265
0.0930018
0.00220552
0.00211348
0.060887
0.0198213
0.00118665
0.0789338
0.0123349
0.0208587
0.0110058
0.0252532
0.00147075
0.0329661
0.00138053
0.0022915
0.0741852
0.0126704
0.0258296
0.0234945
0.0113555
0.0113524
0.0186173
0.00309942
0.00284922
0.0221011
0.0145
0.0347451
0.0197258
0.0151408
0.00229592
0.000987
0.018416
0.119877
0.0905319
0.00493539
0.0262252
0.00260999
0.00922376
0.0186479
0.00109143
0.0810515
0.105814
0.013167
0.0305781
0.0115191
0.0103823
0.111446
0.0319482
0.0266824
0.00576622
0.00320534
0.00266098
0.0173824
0.0256332
0.0116642
0.0611435
0.00245529
0.0242385
0.0251902
0.00763285
0.0240437
0.0201493
0.0029646
0.00295858
0.00280875
0.00272557
0.00210634
0.020768
0.00313933
0.0109111
0.0663569
0.00493932
0.0313012
0.00228372
0.00269137
0.011306
0.0116071
0.0408624
0.00331676
0.00486736
0.0183211
0.0127964
0.00143934
0.0103525
0.00272128
0.00104093
0.0819791
0.00461673
0.00242181
0.0146936
0.0313787
0.0175947
0.0827559
0.0119473
0.0275224
0.00117612
0.00208926
0.0081663
0.0729581
0.0192955
0.0045283
0.00159232
0.00168568
0.0123498
0.00162613
0.0280837
0.120651
0.0510021
0.0166002
0.0112696
0.004863
0.000980113
0.00258586
0.00841721
0.00208624
0.0431906
0.00295374
0.0260652
0.106857
0.0176178
0.032536
0.0126486
0.0268246
0.0883715
0.0157643
0.023506
0.0501652
0.055567
0.0312035
0.0239764
0.0511859
0.0266413
0.0480824
0.00323979
0.00280013
0.0270108
0.0105061
0.0258818
0.0150865
0.0508787
0.0114329
0.00370005
0.00634593
0.00246136
0.0106039
0.00325903
0.00356617
0.0227524
0.00274036
0.00207604
0.100222
0.0513426
0.0148685
0.00121837
0.0160768
0.0399482
0.0122674
0.0029101
0.00290658
0.0385754
0.0316241
0.037213
0.00251377
0.0308665
0.0530802
0.00262667
0.0021788
0.0250316
0.0118842
0.0112607
0.134492
0.0357177
0.0247917
0.0144072
0.0220553
0.012497
0.00615927
0.00993886
0.0516877
0.00892762
0.00123561
0.00236149
0.0375316
0.0165376
0.0299666
0.00945473
0.0126394
0.0213064
0.0136648
0.0117999
0.0227079
0.0107654
0.0248332
0.0197455
0.00911954
0.0246808
0.00917303
0.00504942
0.0084294
0.00880904
0.0350005
0.00523695
0.00737672
0.029329
0.0293879
0.00657181
0.00563132
0.0128828
0.014651
0.0166233
0.0194673
0.0216234
0.0111922
0.023565
0.0101955
0.0230854
0.00872718
0.0180812
0.0080775
0.00864618
0.00912973
0.00701292
0.00599211
0.00626467
0.00361877
0.00578487
0.0176679
0.0017792
0.00535157
0.00621041
0.00572035
0.00249537
0.0180185
0.00541141
0.0154288
0.017409
0.0104579
0.00509174
0.0056338
0.00276861
0.0165981
0.0124802
0.0262866
0.0021792
0.0147202
0.00460072
0.00805088
0.00293495
0.00507149
0.0230764
0.00839428
0.025873
0.00523181
0.00242683
0.00359853
0.00100488
0.00433631
0.0130738
0.010715
0.00166565
0.00476596
0.0247641
0.00415462
0.00381712
0.00329984
0.0801409
0.00488017
0.000815891
0.0333229
0.00598212
0.0184734
0.0242502
0.020994
0.0206075
0.0181979
0.0238729
0.00521175
0.01078
0.0151389
0.0193497
0.00972172
0.0116761
0.0076845
0.0578525
0.00688283
0.00374314
0.0207603
0.0189759
0.0266855
0.0172617
0.0166314
0.00345258
0.0441753
0.0198244
0.00872688
0.00604738
0.00796581
0.0154298
0.00216312
0.0175707
0.00402492
0.00383163
0.00598964
0.00423893
0.00386681
0.00560959
0.0054371
0.00879008
0.00524656
0.00448706
0.00509343
0.0371617
0.0104256
0.00369079
0.00757817
0.0064851
0.00491098
0.0262292
0.0162317
0.0220432
0.0118445
0.00542026
0.00353133
0.00546645
0.00497492
0.0528163
0.0218025
0.0208411
0.00960268
0.00372807
0.0107997
0.0111906
0.0171838
0.00402031
0.00588237
0.00177346
0.00221475
0.00720099
0.00256782
0.00258844
0.00128754
0.00351798
0.00153277
0.0020752
0.00166044
0.00150639
0.00118782
0.00284387
0.00386526
0.00225748
0.00238876
0.00866508
0.00518214
0.00599871
0.0376061
0.0225563
0.00112253
0.00163389
0.00469908
0.0257991
0.0159512
0.0231283
0.0140786
0.00952228
0.00367488
0.00388572
0.00520462
0.00802543
0.008414
0.00336541
0.00561054
0.00325461
0.00657577
0.00203342
0.100909
0.00214425
0.0185153
0.00623848
0.0275615
0.00344802
0.00465813
0.00650444
0.00458024
0.0132879
0.0104523
0.00491519
0.0151842
0.00287119
0.00325061
0.00189621
0.00185795
0.00152715
0.0014235
0.00480907
0.00490295
0.00368676
0.0185299
0.00373178
0.0178944
0.0193393
0.01848
0.00515538
0.0141609
0.00474343
0.00173775
0.00679894
0.00137214
0.0111164
0.00337769
0.0014761
0.016382
0.00313499
0.00200579
0.0149705
0.00334204
0.00917941
0.017663
0.0113065
0.00537709
0.00975906
0.00357622
0.00783237
0.003597
0.0186357
0.0314268
0.0022062
0.00974272
0.0135588
0.0146041
0.0305455
0.0168823
0.00438414
0.00865706
0.00736291
0.00632213
0.13526
0.0173915
0.00573905
0.00500269
0.0029256
0.0224608
0.00511431
0.126947
0.00476056
0.0015685
0.00433333
0.00272227
0.00558502
0.00449105
0.00456169
0.037964
0.0037557
0.0256577
0.00832539
0.0254468
0.00455963
0.0116291
0.0112659
0.0140272
0.0146586
0.00781916
0.016053
0.00866193
0.0162124
0.017791
0.0208761
0.00786469
0.0196833
0.0187938
0.0107743
0.0296734
0.0237256
0.0166924
0.0235975
0.003592
0.00696248
0.00840895
0.0060881
0.00279893
0.00552599
0.0140703
0.00604579
0.00344172
0.0164383
0.0135815
0.0172905
0.00676027
0.0325514
0.00331782
0.00507148
0.00543662
0.00491902
0.00939036
0.00201751
0.0166931
0.0312353
0.0541851
0.00307376
0.00455555
0.0201452
0.023269
0.00322624
0.0180205
0.0122801
0.0113359
0.0157505
0.0172274
0.00607875
0.0185703
0.0237487
0.021068
0.0277992
0.028172
0.0300078
0.00313642
0.0083719
0.00825201
0.00452026
0.0128863
0.015639
0.0048152
0.0241816
0.00321446
0.100135
0.00331189
0.00327229
0.0107757
0.00312326
0.000789166
0.0021908
0.00157881
0.00484622
0.00390125
0.00433244
0.00527144
0.0259319
0.0106975
0.00355333
0.0113293
0.00787016
0.0248446
0.0220118
0.0505665
0.0197639
0.00357762
0.00604355
0.00508582
0.00314162
0.00111992
0.00274344
0.0322807
0.0260014
0.00872777
0.0129923
0.0102167
0.0146162
0.0166774
0.0217722
0.00435061
0.0300166
0.0217885
0.0262667
0.0200232
0.0170135
0.0173779
0.00910446
0.0152731
0.00531793
0.013567
0.0105243
0.00589676
0.00930012
0.00820988
0.00748806
0.00475438
0.00465959
0.0122067
0.0223222
0.0248996
0.00341492
0.0183547
0.00342688
0.0022835
0.00704862
0.00205408
0.0123085
0.00672067
0.00585767
0.0057324
0.00557038
0.00511765
0.0293357
0.00247929
0.00317404
0.0250829
0.00650454
0.0011737
0.0118504
0.0273545
0.0119903
0.0113182
0.0507313
0.00473738
0.0154925
0.0182202
0.020223
0.00976228
0.00334406
0.0172703
0.014661
0.015253
0.0131956
0.0113945
0.0103775
0.0303458
0.00899953
0.0211152
0.00389737
0.00711564
0.0343572
0.00617547
0.00855309
0.0451611
0.00638961
0.00105935
0.00241134
0.00562751
0.00295549
0.00424124
0.00351752
0.00330646
0.0272688
0.00518362
0.00465253
0.0297117
0.00301127
0.00326233
0.00329884
0.0459463
0.00487933
0.00418748
0.0272217
0.00222568
0.00132701
0.00369048
0.0042527
0.00401898
0.0182281
0.00232848
0.00410343
0.012989
0.0226329
0.0262723
0.0186715
0.0145678
0.00353665
0.00775802
0.00538846
0.00618649
0.00356856
0.0272584
0.00832786
0.00310213
0.00309254
0.00959705
0.00845867
0.0260087
0.0118671
0.00359425
0.00471627
0.00323042
0.0245289
0.00764048
0.00165697
0.0229254
0.00380705
0.012031
0.003395
0.002347
0.0029303
0.0106566
0.00482852
0.00386451
0.020985
0.00340835
0.025929
0.00799792
0.00261746
0.0167767
0.00448115
0.0139097
0.0147016
0.00979748
0.0187994
0.0108499
0.00328552
0.0122695
0.0115762
0.00269771
0.00645468
0.00424305
0.00363642
0.00864121
0.00123047
0.00170583
0.0108123
0.00147356
0.00298922
0.013812
0.00138103
0.00248412
0.0178342
0.00230603
0.00184322
0.0155577
0.0347063
0.0300142
0.00216112
0.00327831
0.0212319
0.00228253
0.00245095
0.0367174
0.0207795
0.0367193
0.00800473
0.0322466
0.00451041
0.0067774
0.0133276
0.0181257
0.00352181
0.0158679
0.0426948
0.0342701
0.00339543
0.0045049
0.00307114
0.00217097
0.00288816
0.00539878
0.00401286
0.130644
0.00890256
0.00485575
0.0244069
0.00761825
0.0205655
0.00317517
0.0274668
0.0049418
0.00768241
0.0378783
0.00419131
0.0101819
0.00279654
0.00355405
0.0531845
0.00279561
0.046892
0.0159774
0.0240373
0.0161716
0.0119457
0.0318799
0.00396927
0.003405
0.0260845
0.00414811
0.00432898
0.00423754
0.0380221
0.00277208
0.00307087
0.00394215
0.0443925
0.00375022
0.00724278
0.00661493
0.00301854
0.0166511
0.0100121
0.0124465
0.0431855
0.00202672
0.0160686
0.00382394
0.0120932
0.0027182
0.0478102
0.00831133
0.00757726
0.00343097
0.0110668
0.0155652
0.00682885
0.0199855
0.0237566
0.00298076
0.00698726
0.00272802
0.0217349
0.0200253
0.00234732
0.0104621
0.00812783
0.0116054
0.0117724
0.0164645
0.00660628
0.0152725
0.0164676
0.041097
0.0103048
0.0327061
0.00222167
0.0122962
0.00345239
0.00326538
0.0644137
0.0384858
0.0222952
0.00232793
0.0358223
0.00781441
0.00635309
0.0411251
0.00668171
0.0461633
0.0102289
0.0469833
0.0156757
0.00232025
0.105891
0.0145259
0.0137748
0.0116851
0.0402159
0.0459836
0.00292234
0.00430124
0.142442
0.0331819
0.00332039
0.0461609
0.0486092
0.0045325
0.0328417
0.00445975
0.0407443
0.00775752
0.0117569
0.00160523
0.0359402
0.0369135
0.00213606
0.121883
0.0431496
0.00199082
0.0121073
0.00362289
0.0218724
0.0337978
0.0110718
0.00290673
0.0317279
0.0316784
0.00774839
0.0450197
0.00721039
0.00420211
0.0119076
0.0117164
0.0396766
0.00290373
0.00242698
0.0259064
0.00878341
0.00443699
0.00724397
0.00284266
0.0138586
0.0127983
0.0340807
0.0629379
0.0448877
0.00300227
0.013991
0.00307814
0.0109554
0.0153005
0.00622937
0.0105172
0.00202502
0.0434416
0.0182609
0.00315692
0.00294001
0.0143332
0.0285901
0.0463413
0.05136
0.0176791
0.00690784
0.0129574
0.00234886
0.0031012
0.00404058
0.00095495
0.00254015
0.00460761
0.0358093
0.125829
0.00572575
0.00377917
0.00985037
0.0397424
0.00461748
0.0153709
0.00793526
0.0112062
0.00580909
0.0117835
0.0274244
0.0284122
0.0151588
0.00280608
0.0161964
0.0812193
0.0113413
0.00394747
0.0112396
0.0267576
0.0151594
0.00270484
0.00304803
0.00751178
0.0124919
0.0138955
0.0123443
0.00202407
0.0134848
0.0040556
0.00269875
0.0580153
0.013011
0.0336866
0.0145841
0.0178087
0.0209394
0.00971244
0.00296254
0.0374268
0.00299739
0.00803508
0.00754595
0.0113473
0.0110708
0.0157939
0.00795746
0.0144541
0.0302639
0.0113393
0.0200655
0.0026629
0.0506488
0.00279641
0.00266096
0.0268201
0.0248039
0.0104719
0.0464301
0.0126856
0.00322109
0.0251115
0.00283099
0.029081
0.0385442
0.00283623
0.019043
0.050165
0.00577909
0.0417157
0.0191549
0.0332532
0.00805719
0.0469999
0.0432307
0.00289956
0.00977151
0.0428764
0.00293356
0.00255428
0.0368693
0.00240943
0.0127321
0.0412154
0.0298048
0.0848321
0.00130485
0.00215123
0.0022688
0.0534726
0.00263242
0.00303316
0.00789918
0.0147165
0.00386735
0.00249533
0.00268107
0.0130207
0.0129549
0.00261551
0.0113102
0.00233139
0.00244238
0.00206528
0.0750263
0.0235726
0.00255089
0.0029424
0.0207988
0.0319148
0.00331531
0.0165279
0.00250813
0.00237285
0.0325605
0.00300583
0.0278176
0.00223633
0.0175424
0.0107325
0.142502
0.0138775
0.098791
0.066052
0.00254886
0.0460933
0.0031713
0.00279079
0.00671496
0.0231525
0.00292358
0.013712
0.022894
0.00421217
0.00396939
0.0156144
0.0489687
0.0125392
0.0774613
0.0273948
0.0305365
0.0026617
0.0422847
0.0281399
0.00215853
0.0190044
0.00234183
0.00249883
0.0524495
0.0103256
0.010396
0.0612137
0.0560762
0.00324153
0.0108909
0.00441922
0.0270251
0.00258931
0.0402572
0.0416513
0.00216949
0.0336156
0.00276108
0.00243365
0.00231382
0.0111802
0.0149263
0.104826
0.034776
0.00369129
0.0591254
0.00253803
0.00248646
0.0021521
0.0328365
0.011189
0.0023417
0.00711742
0.0622298
0.0146577
0.0167002
0.00273774
0.0110769
0.00371219
0.00410886
0.00541958
0.00108656
0.00525764
0.00180916
0.0023799
0.114338
0.00426193
0.00738325
0.00261696
0.0113207
0.0121304
0.0346019
0.00109913
0.0117849
0.0316046
0.00966494
0.00277005
0.0329341
0.00201601
0.0273228
0.0128009
0.0114998
0.00755167
0.00389499
0.0611899
0.0491928
0.00253315
0.00388592
0.0547114
0.0419207
0.02136
0.00541735
0.0310598
0.00441986
0.0116676
0.00762794
0.0124485
0.00244381
0.00374077
0.00708667
0.0141639
0.0110259
0.00253518
0.0118502
0.0142096
0.0132127
0.0129461
0.0198817
0.0303784
0.0265129
0.00267274
0.0385539
0.0405145
0.0347122
0.000995986
0.0155923
0.0190063
0.0122243
0.0411067
0.00192989
0.00278683
0.0321682
0.108067
0.0165548
0.0596622
0.00167661
0.00242585
0.0049569
0.00376639
0.0130369
0.00363674
0.00243779
0.0242567
0.0272908
0.0673748
0.0599497
0.0993599
0.0495891
0.0529386
0.0207537
0.013977
0.0366461
0.006588
0.0329006
0.00155626
0.0191375
0.002123
0.0601729
0.0109003
0.00687181
0.0123286
0.00205919
0.00728073
0.00712296
0.00271858
0.0127932
0.00264314
0.051293
0.0404676
0.00354737
0.030314
0.0316705
0.0159371
0.0326879
0.147012
0.0108549
0.0110399
0.0639154
0.0106655
0.0239338
0.00123322
0.060486
0.00131713
0.014272
0.0122328
0.00430562
0.0383444
0.0298441
0.00160812
0.0115769
0.00374033
0.0726203
0.0308967
0.00707341
0.0976489
0.0065412
0.0271009
0.00316708
0.00735057
0.0586253
0.0173021
0.00833708
0.0022428
0.00300048
0.0146435
0.00424477
0.0793493
0.0143369
0.0081302
0.0628372
0.00208246
0.0106418
0.0100723
0.00265663
0.0274679
0.0626393
0.0354014
0.0227269
0.0137401
0.059174
0.0026945
0.0159392
0.0023214
0.00253954
0.0125956
0.00204716
0.047492
0.0624127
0.0626757
0.0159366
0.018409
0.0287949
0.0105155
0.00270549
0.00900452
0.00299912
0.0134496
0.00691115
0.00445748
0.00915693
0.124771
0.00236601
0.0826874
0.0446825
0.0125594
0.0115117
0.0421869
0.0335762
0.00216867
0.140594
0.00342695
0.00230918
0.00235517
0.132902
0.00367366
0.00231805
0.00301461
0.035545
0.00441654
0.0111092
0.00729667
0.0111982
0.00847683
0.00285091
0.0260338
0.0042688
0.0043631
0.0306293
0.00194017
0.0105739
0.00370275
0.0406521
0.0134284
0.00216502
0.0215168
0.0333333
0.064091
0.00423487
0.00262173
0.0872278
0.064655
0.0811349
0.0579929
0.0701383
0.0539668
0.00221155
0.0234305
0.0571951
0.00592641
0.0120282
0.00205582
0.0105272
0.0253212
0.0106245
0.0162595
0.0754998
0.0190484
0.00169376
0.00202516
0.0021782
0.0123409
0.011141
0.016423
0.0267249
0.0586622
0.00797899
0.00257788
0.0566509
0.104386
0.0113216
0.00479051
0.0205298
0.00410759
0.0111498
0.0263005
0.012373
0.0106407
0.0102727
0.0140124
0.00464363
0.0976431
0.0126038
0.0593128
0.0401819
0.0106504
0.0117796
0.0110778
0.0322638
0.00450552
0.0139437
0.0219988
0.00551096
0.0116314
0.00662648
0.0282699
0.0124692
0.0282805
0.0552178
0.0501014
0.00600005
0.0487652
0.103262
0.0021128
0.0502156
0.00281783
0.0113243
0.0424143
0.00231232
0.00394725
0.0327041
0.00258919
0.00425016
0.0024883
0.00181509
0.0495371
0.00225767
0.0409851
0.0128633
0.0279342
0.00245264
0.00565168
0.00344132
0.0125328
0.0021156
0.0832245
0.0822399
0.0264543
0.0307788
0.014361
0.0130503
0.0322112
0.00551883
0.0716586
0.0697979
0.0275521
0.00748583
0.00215059
0.00229158
0.025977
0.0317187
0.00396281
0.00250525
0.00412424
0.0140989
0.00237899
0.00673716
0.0101094
0.0141821
0.0166088
0.00690126
0.00525278
0.00287176
0.0613861
0.00600536
0.0117618
0.00819357
0.0103941
0.00976771
0.00790388
0.0103306
0.0112955
0.0466549
0.0268779
0.0186966
0.00993566
0.0437852
0.00228515
0.0102566
0.00934862
0.00191287
0.00418226
0.0333157
0.070496
0.00195267
0.0422498
0.0133553
0.0865227
0.0133701
0.0563913
0.00333793
0.0112003
0.0612634
0.0101635
0.0235685
0.0745682
0.0515981
0.00202291
0.0196454
0.00214016
0.0404899
0.0287598
0.0181341
0.00244112
0.00555359
0.0431916
0.00404509
0.00919756
0.00701096
0.0329823
0.00232717
0.0241167
0.00190796
0.0742723
0.0020324
0.00154469
0.00711981
0.00768643
0.0618135
0.0276512
0.00395063
0.00679913
0.00950771
0.0020492
0.0151143
0.00621374
0.0197141
0.0111495
0.095036
0.00211917
0.00222783
0.0455087
0.0613788
0.0188955
0.144409
0.0552908
0.00393389
0.0258921
0.0786742
0.00252818
0.0639908
0.0237207
0.0363184
0.00697221
0.0710878
0.00208357
0.048683
0.00212684
0.0461606
0.0113331
0.00223214
0.090638
0.00278693
0.0431521
0.0374895
0.00599101
0.00279828
0.0987753
0.124802
0.00776482
0.027608
0.0606893
0.00173262
0.014783
0.0066993
0.0118217
0.00366546
0.00199334
0.0128733
0.0695712
0.00473373
0.0416204
0.0270445
0.00247717
0.00212271
0.00217009
0.00239152
0.0073124
0.0155451
0.0193452
0.00572101
0.0516427
0.01108
0.00344763
0.00383171
0.00240026
0.0809267
0.0486961
0.00223578
0.00932745
0.0256205
0.00852355
0.0634119
0.0384115
0.00216037
0.003369
0.0109923
0.00172051
0.00405307
0.0332145
0.0544148
0.00216428
0.00220879
0.0132936
0.0664731
0.0842057
0.00236276
0.0014289
0.107809
0.014287
0.00152878
0.00220456
0.053229
0.046371
0.102656
0.00722036
0.0608647
0.0155771
0.115684
0.0631065
0.00236839
0.0374341
0.00235785
0.0168141
0.00263788
0.00296073
0.0104898
0.0153203
0.00900958
0.0253759
0.00132726
0.00725084
0.0139127
0.0396316
0.00603335
0.0858371
0.0267176
0.0403993
0.00263696
0.0920209
0.0230754
0.0105561
0.0116082
0.0121241
0.0421696
0.00134605
0.0308996
0.0501127
0.00138467
0.0190581
0.0111086
0.00259678
0.00261313
0.00221277
0.0112327
0.00582595
0.00290448
0.0527471
0.139835
0.00149293
0.0533563
0.0597061
0.0913786
0.0217961
0.029684
0.0680742
0.00230144
0.0217387
0.0162825
0.00205306
0.00411107
0.0024784
0.00150423
0.00382289
0.0250504
0.0103152
0.0706102
0.00188015
0.0114622
0.00236341
0.00259967
0.00208755
0.0652935
0.029447
0.0045989
0.00246027
0.0280949
0.0103485
0.0383746
0.0366483
0.0415842
0.0296155
0.00227494
0.00227217
0.0118942
0.00223951
0.0110835
0.00260724
0.0204065
0.0475056
0.0149212
0.0676733
0.00285773
0.00206783
0.021463
0.0285371
0.0171288
0.0143585
0.0115048
0.0120788
0.12712
0.0900423
0.0320027
0.0727641
0.0135964
0.00184266
0.0107446
0.00770422
0.0381546
0.00223793
0.00214156
0.00742927
0.0363671
0.0144303
0.0191025
0.010641
0.0119382
0.0023152
0.0670156
0.0255214
0.0266565
0.00226342
0.138281
0.0672931
0.0331304
0.00125898
0.0710466
0.0167493
0.0141913
0.00202612
0.0161915
0.00658645
0.00259537
0.0135218
0.0152518
0.0235844
0.0197673
0.116058
0.0560039
0.00247353
0.0493207
0.00220161
0.0108469
0.00623048
0.0408431
0.00254223
0.00219275
0.0740077
0.0102696
0.00227481
0.0713664
0.0260226
0.0242714
0.00227429
0.00225422
0.0111097
0.0331642
0.00195098
0.00231562
0.00222154
0.0545373
0.00245653
0.0025799
0.00747649
0.00473509
0.0569433
0.0035634
0.0287705
0.00201894
0.0112206
0.0653654
0.0176421
0.0236436
0.0118578
0.00229032
0.00166475
0.00168785
0.00256337
0.0321476
0.00449788
0.00302145
0.0530819
0.0110227
0.0114312
0.0468459
0.0138935
0.00274751
0.00248146
0.00313379
0.0122009
0.0158467
0.00147358
0.0412323
0.00986686
0.0847751
0.0741636
0.0132698
0.00465093
0.0720411
0.00254684
0.00204894
0.0130414
0.104501
0.00404597
0.00218891
0.0129568
0.015812
0.00221811
0.00225874
0.0195724
0.0117721
0.00200916
0.00220568
0.0106509
0.00691799
0.0411052
0.00200388
0.121506
0.0648506
0.00198037
0.073258
0.0109068
0.0396331
0.0406781
0.0644561
0.0609549
0.0768234
0.016063
0.00936158
0.00737089
0.00210461
0.00266567
0.0108596
0.00895323
0.0366974
0.069747
0.00227171
0.00170034
0.00224323
0.0020864
0.00216249
0.00222269
0.0118051
0.00510699
0.00176337
0.0108037
0.00198251
0.00235491
0.00337046
0.00227013
0.0315101
0.0313981
0.0171303
0.0167321
0.0108292
0.0329897
0.00656829
0.0104176
0.00178279
0.0128394
0.00216705
0.0140415
0.0711218
0.0144259
0.00443781
0.00195151
0.00658321
0.0386906
0.0384049
0.0110161
0.002558
0.00801852
0.00224311
0.0585518
0.0108395
0.0167088
0.00321809
0.00349609
0.012117
0.00810258
0.0345875
0.0190173
0.00490096
0.00199048
0.00239581
0.00395842
0.0493254
0.0218506
0.0831788
0.0229667
0.0106425
0.0457672
0.024223
0.0260587
0.017619
0.047837
0.0110293
0.00295007
0.0663541
0.0634641
0.0112277
0.0108436
0.0171922
0.00236598
0.011495
0.00742457
0.0142111
0.087286
0.0174712
0.00510771
0.00781829
0.0475456
0.07649
0.00195426
0.0126646
0.0128468
0.00486479
0.00226529
0.00229332
0.00108319
0.0045474
0.00279297
0.00222255
0.130467
0.0114806
0.0518901
0.0560441
0.012924
0.00218002
0.0215773
0.0224464
0.0164915
0.00989056
0.0125809
0.00225035
0.0992401
0.0378085
0.0678276
0.000978693
0.00195439
0.00208971
0.0148109
0.0166807
0.0119504
0.00189485
0.0107723
0.0429005
0.00224494
0.00130442
0.00501899
0.0767862
0.00169859
0.00628943
0.01077
0.0128793
0.00336977
0.0864818
0.0364951
0.0983594
0.0131946
0.0206585
0.026012
0.00240749
0.0260934
0.133035
0.0124385
0.00702244
0.0127006
0.0549389
0.0193419
0.0145002
0.0109458
0.0284966
0.0022757
0.0338821
0.00111456
0.00238064
0.00228679
0.0373541
0.0117956
0.0399136
0.089981
0.0118545
0.0222383
0.00169743
0.0191373
0.00223983
0.00929466
0.0273029
0.0246762
0.00188292
0.0023658
0.048812
0.00111536
0.0565701
0.00155114
0.0552822
0.00259557
0.0275242
0.00187062
0.0506475
0.0123769
0.0343966
0.0561161
0.0232222
0.0255332
0.00109191
0.0484666
0.0302131
0.0233593
0.0195051
0.0118483
0.0250017
0.0294936
0.00227351
0.0304041
0.0481136
0.00626096
0.0519549
0.0922684
0.00199013
0.0112896
0.00307135
0.0665384
0.00247544
0.00240602
0.00228387
0.0366614
0.127737
0.0261242
0.0124225
0.0191921
0.00202964
0.00940917
0.00306445
0.00592878
0.00238286
0.0109699
0.0101059
0.00966331
0.00216881
0.0756898
0.0717103
0.00175848
0.00554647
0.0324391
0.0370714
0.0277122
0.00212093
0.00222155
0.0102141
0.0349406
0.00259614
0.0020082
0.0838659
0.0252964
0.00177095
0.00597059
0.0216454
0.0209598
0.0361437
0.0344371
0.0270047
0.0104979
0.010549
0.0475593
0.0548669
0.00293688
0.0117836
0.0107797
0.00225169
0.00286452
0.0104864
0.00259
0.0264456
0.051111
0.00330721
0.0331022
0.0967912
0.00309358
0.0148761
0.00384045
0.0328588
0.0199215
0.00948087
0.0112776
0.0895784
0.010374
0.00589633
0.0110428
0.00624502
0.082988
0.0397043
0.0427195
0.00919517
0.00620932
0.00354714
0.0106166
0.00148779
0.00123614
0.00959936
0.0200279
0.00391401
0.00876593
0.0093745
0.00237646
0.0427079
0.010671
0.0113009
0.00202061
0.129616
0.00389447
0.0021516
0.00437844
0.0281679
0.00309631
0.00316632
0.0126877
0.00263801
0.00361687
0.00992457
0.051247
0.00375864
0.0479004
0.010404
0.00597938
0.0376199
0.0166319
0.00360515
0.11251
0.0121001
0.0670349
0.00416495
0.0260712
0.00351325
0.0273799
0.134018
0.00325128
0.0173092
0.0097756
0.0111154
0.0022106
0.00224365
0.00448802
0.00216716
0.00286919
0.00352249
0.0169454
0.0106001
0.00256696
0.00214669
0.00323557
0.0179378
0.0321624
0.0338987
0.0147452
0.00916948
0.135141
0.00258401
0.00237412
0.00404858
0.002446
0.0024553
0.0203655
0.00365547
0.00510486
0.0286229
0.0106251
0.0102466
0.0381908
0.0433538
0.00255148
0.0616779
0.0121838
0.0226514
0.0256329
0.017078
0.0162325
0.0386676
0.00287516
0.0143302
0.00199384
0.0117889
0.00146393
0.0384884
0.00665874
0.00344108
0.0128044
0.0297334
0.0263883
0.00234379
0.0216168
0.0296814
0.0174991
0.00114907
0.00538836
0.00640176
0.0193799
0.00716784
0.124168
0.02289
0.00645365
0.0106685
0.00137018
0.00211202
0.00813164
0.00208857
0.0403954
0.0145107
0.00214648
0.00476468
0.0324531
0.00682159
0.0490626
0.0215537
0.0238072
0.00595634
0.00163789
0.0232546
0.0736987
0.00248653
0.00150362
0.0106401
0.00163696
0.00270951
0.0242097
0.00699077
0.0423896
0.0264001
0.0555883
0.00707825
0.0233446
0.00170888
0.00192774
0.00263995
0.0322887
0.000980204
0.00083877
0.00122562
0.0123286
0.0104556
0.0013725
0.0288865
0.0645887
0.0379831
0.00221849
0.02249
0.0969757
0.0312531
0.00268165
0.0138611
0.00299956
0.0567458
0.00153436
0.0112163
0.0274912
0.0309088
0.00216698
0.00325775
0.012918
0.035638
0.0464213
0.00430195
0.0463485
0.00123164
0.00249327
0.0280352
0.0132082
0.00258517
0.0436397
0.0128769
0.00236593
0.0106378
0.0267305
0.0110494
0.00164686
0.00229164
0.026706
0.00981705
0.00220712
0.0259403
0.0620405
0.0365339
0.0126224
0.00151363
0.00242264
0.0140729
0.0505311
0.0143523
0.0544377
0.0807551
0.0691887
0.00215919
0.00219302
0.00461272
0.00211682
0.00220411
0.0290503
0.0386425
0.00230684
0.00238872
0.00227824
0.00122713
0.0216335
0.0157693
0.0128249
0.00108624
0.000964352
0.00108067
0.0139553
0.0288592
0.0107302
0.00235993
0.0413745
0.0040858
0.00422294
0.0402485
0.00408566
0.0172983
0.0286726
0.00197534
0.0125691
0.00204631
0.0122895
0.0111671
0.00907709
0.0660509
0.00229379
0.0246785
0.0307427
0.0134165
0.00403545
0.0761923
0.0882345
0.00238009
0.0017949
0.0109067
0.0125839
0.00609535
0.0351133
0.0731379
0.0136465
0.0188413
0.084811
0.027166
0.010486
0.0456227
0.0397456
0.073051
0.0434287
0.0115632
0.0528503
0.000940384
0.00293365
0.00179887
0.0133872
0.00172155
0.0656052
0.0228713
0.0022192
0.0019201
0.000750418
0.000833328
0.00186454
0.0140373
0.0221032
0.0111702
0.0258288
0.026182
0.0149149
0.00169463
0.00209425
0.0127953
0.00436011
0.00236706
0.00225155
0.00288964
0.0163143
0.00219939
0.0104391
0.00212527
0.0040355
0.0228835
0.00127741
0.0114255
0.0135605
0.0513871
0.09843
0.0062437