/*--------------------------------*- C++ -*----------------------------------*\
  =========                 |
  \\      /  F ield         | OpenFOAM: The Open Source CFD Toolbox
   \\    /   O peration     | Website:  https://openfoam.org
    \\  /    A nd           | Version:  10
     \\/     M anipulation  |
\*---------------------------------------------------------------------------*/
FoamFile
{
    format      ascii;
    class       volScalarField;
    location    "1157";
    object      k;
}
// * * * * * * * * * * * * * * * * * * * * * * * * * * * * * * * * * * * * * //

dimensions      [0 2 -2 0 0 0 0];

internalField   nonuniform List<scalar> 
23845
(
0.0801782
0.0956642
0.0701644
0.046472
0.0908518
0.024454
0.0824419
0.034379
0.0195859
0.0636443
0.0767481
0.0229186
0.0267713
0.0220671
0.0909661
0.0465361
0.0387941
0.0477992
0.0297038
0.0279971
0.0669864
0.073188
0.0631992
0.0194985
0.0693437
0.0153935
0.0752015
0.0265641
0.019956
0.0276258
0.050264
0.0185069
0.0864446
0.0487188
0.0230102
0.0256133
0.0158207
0.0230624
0.0234551
0.0208658
0.0280197
0.0390007
0.0241634
0.0389554
0.0129407
0.0300506
0.0778553
0.0508145
0.0235533
0.0152965
0.0300553
0.0720736
0.0196666
0.0244988
0.0179325
0.0352476
0.0938338
0.0366788
0.0767394
0.0737829
0.0270265
0.0401006
0.0443071
0.0245294
0.01805
0.0274656
0.076699
0.0118664
0.0120506
0.0331974
0.0310174
0.0616076
0.0176705
0.08827
0.0163424
0.0911833
0.0229259
0.0236372
0.0405404
0.0469415
0.0693997
0.0892159
0.0969025
0.0373539
0.0678872
0.0230899
0.087426
0.0193685
0.0178389
0.0415068
0.0269327
0.0317338
0.0213568
0.0255962
0.0365084
0.0273907
0.0359491
0.0536949
0.0161602
0.0834737
0.0385319
0.07825
0.0977583
0.0111699
0.0204847
0.0389962
0.0244127
0.0150968
0.0754016
0.0382104
0.0726841
0.0232099
0.0798371
0.0603386
0.026183
0.0591174
0.0170829
0.0504086
0.0206326
0.0318769
0.0233835
0.0221209
0.0334978
0.0448259
0.0795381
0.0162211
0.0282717
0.0151999
0.0547921
0.0785686
0.0548134
0.0915104
0.0827344
0.0231553
0.0435733
0.0913488
0.010191
0.0228008
0.0746084
0.0236482
0.0172692
0.0378682
0.0236645
0.0406093
0.0408519
0.0371548
0.05416
0.0815329
0.0346166
0.0438967
0.0879602
0.0219332
0.0892492
0.0247964
0.0762329
0.0611464
0.097398
0.0240929
0.0610114
0.025402
0.0375141
0.090676
0.036123
0.0185128
0.0203623
0.0515977
0.0236618
0.0228294
0.0272774
0.0370071
0.0235289
0.0473774
0.0191899
0.0436144
0.0185143
0.038757
0.0338457
0.070047
0.0148067
0.0239071
0.0845931
0.0799789
0.0891763
0.0691111
0.0446283
0.0306317
0.0388928
0.0362421
0.018346
0.0380084
0.0223056
0.0225184
0.0222327
0.0239542
0.0387508
0.0217193
0.0163019
0.0186468
0.0133107
0.073762
0.0570237
0.0228853
0.034478
0.0893234
0.0362912
0.036099
0.0666604
0.0239635
0.0811473
0.0503865
0.0500904
0.0213163
0.0372589
0.0272667
0.026043
0.0171935
0.084389
0.0410439
0.0103588
0.05656
0.0190725
0.0903116
0.0158745
0.0534848
0.037746
0.0890702
0.010568
0.0226598
0.0244411
0.0284866
0.0247206
0.0253536
0.0233835
0.0128221
0.0931594
0.0238968
0.0175641
0.0478703
0.0191881
0.0477613
0.0215051
0.0526048
0.0382957
0.092967
0.0236511
0.0463641
0.0241004
0.011945
0.0376152
0.0908057
0.0314077
0.0237946
0.0298833
0.0229561
0.0882418
0.0269025
0.0349138
0.0315017
0.0263982
0.020383
0.0174769
0.0242354
0.0294213
0.0709477
0.0656354
0.0191387
0.039823
0.044977
0.0587525
0.0460203
0.0236474
0.0448308
0.0297201
0.0229306
0.0693651
0.0220085
0.0306552
0.0232025
0.0207116
0.0624972
0.0397302
0.0245921
0.0325559
0.0458647
0.0233457
0.0293484
0.0466119
0.022338
0.036022
0.0837318
0.0389226
0.0272385
0.0253896
0.0305342
0.0375426
0.023219
0.0305948
0.0240237
0.0232538
0.0221905
0.0610815
0.0872882
0.0235863
0.0464239
0.0237666
0.0481731
0.0243716
0.0298246
0.037329
0.0152666
0.0293536
0.0898601
0.0308077
0.0236752
0.0628525
0.0165599
0.0293069
0.0849017
0.0259071
0.0201925
0.0209156
0.0221453
0.0369717
0.027632
0.088867
0.0239643
0.0426135
0.0751669
0.0353209
0.0494286
0.0789684
0.0512069
0.0287931
0.0241336
0.0341266
0.0486729
0.0531713
0.0469073
0.0360894
0.040746
0.0489208
0.0354246
0.073418
0.0133652
0.0131816
0.0194008
0.0240002
0.0289755
0.0416407
0.08257
0.0535994
0.0537772
0.0147841
0.0310357
0.0199043
0.0221474
0.035483
0.0184582
0.0860262
0.0376059
0.0482524
0.017371
0.0534686
0.0429064
0.0193851
0.0236616
0.040038
0.0261568
0.0213177
0.0151807
0.0384264
0.0252951
0.0292402
0.0228927
0.0245018
0.0282804
0.0590466
0.0501243
0.036667
0.0438246
0.0899455
0.0245331
0.0620673
0.0128047
0.0130679
0.0233594
0.0247455
0.0399527
0.057204
0.0376967
0.0787051
0.0361506
0.0256804
0.0217715
0.0285043
0.0236077
0.0661414
0.0145652
0.0342772
0.0243785
0.0573179
0.0556953
0.0343763
0.05102
0.0833515
0.0902264
0.023785
0.0271817
0.0197466
0.032775
0.0909974
0.0123803
0.085082
0.0385496
0.0981852
0.0643017
0.06149
0.0658666
0.0239405
0.0572975
0.0618928
0.0313603
0.0204182
0.0415196
0.0314045
0.0862276
0.0565573
0.0528346
0.0483437
0.0502893
0.0223361
0.046893
0.0348074
0.0461264
0.0295902
0.0166465
0.0228495
0.0301349
0.0228961
0.0498801
0.0907627
0.0479714
0.0194804
0.0522418
0.0540468
0.0291667
0.0282566
0.0615755
0.0240258
0.0459117
0.040501
0.0216741
0.0422656
0.0241853
0.0131398
0.0348407
0.076309
0.0914488
0.0326011
0.0241405
0.0794166
0.0449365
0.0102133
0.0766918
0.0247348
0.0239503
0.0243661
0.0258685
0.0137144
0.0811649
0.0270617
0.0239717
0.0530731
0.0304065
0.0263903
0.0916285
0.0199044
0.0247041
0.0259613
0.0394546
0.0693614
0.061291
0.0500238
0.0715809
0.0580968
0.0874659
0.0236413
0.0231843
0.0761466
0.0388939
0.0154265
0.0626526
0.0282682
0.0644526
0.0356498
0.0733937
0.0171605
0.059707
0.0168025
0.0241606
0.0872682
0.0187392
0.0399602
0.0707038
0.0387471
0.0398846
0.0680777
0.0249611
0.0266677
0.0389252
0.0496329
0.0425028
0.0157956
0.0512136
0.0231532
0.0139645
0.0584689
0.0811757
0.0745385
0.0349602
0.0152202
0.0245148
0.0488448
0.0295973
0.0146296
0.0841386
0.0891558
0.02671
0.0639145
0.0227126
0.0245661
0.069692
0.0870288
0.0639737
0.0347006
0.0253745
0.0251427
0.0336335
0.0764279
0.0413452
0.0684063
0.0236944
0.060447
0.0609211
0.0381069
0.0593613
0.07221
0.0248402
0.0267541
0.02453
0.0244943
0.0231786
0.0440564
0.0263244
0.0360785
0.0906304
0.0354654
0.0419655
0.0241581
0.0258877
0.0374871
0.0422806
0.0824482
0.0287272
0.0351894
0.0235924
0.0219077
0.0169854
0.0221311
0.0234153
0.0142943
0.084871
0.0310975
0.0243209
0.050098
0.0841333
0.0394437
0.0669722
0.0324133
0.0786587
0.015159
0.0230437
0.0393312
0.0773735
0.031162
0.0343178
0.0178215
0.0183624
0.0331459
0.0181019
0.0659743
0.0868306
0.0856999
0.0654306
0.0290144
0.0355189
0.0138534
0.024426
0.0467563
0.0230104
0.0670381
0.026481
0.0788757
0.0898276
0.0477304
0.0809953
0.0323745
0.0787667
0.085913
0.0591445
0.0699582
0.0985215
0.0928208
0.0845301
0.0329812
0.0911828
0.0814799
0.0988246
0.0281733
0.0255916
0.0797242
0.0272291
0.0761546
0.0590126
0.0967839
0.0551013
0.0267465
0.0407901
0.0219304
0.042877
0.0261843
0.027876
0.066476
0.0259983
0.0229994
0.0829364
0.0948405
0.0501149
0.0154257
0.0642447
0.0859556
0.0556221
0.0270043
0.0241873
0.0771956
0.0845937
0.0711646
0.0224897
0.079416
0.0611656
0.0259439
0.0235836
0.0794265
0.0407307
0.0258425
0.0804699
0.0416452
0.0679937
0.0356346
0.0736879
0.055303
0.0356375
0.0492822
0.0992387
0.0456698
0.0155236
0.0214895
0.09164
0.0545014
0.0820142
0.0409049
0.0579405
0.070551
0.0603184
0.0560639
0.0768499
0.0535648
0.0794732
0.0673705
0.0462742
0.075785
0.0494169
0.0351929
0.047298
0.0455368
0.0879261
0.0341401
0.0442432
0.0841576
0.0780215
0.0416257
0.0368948
0.0586593
0.0625743
0.0665004
0.071808
0.0753666
0.0546746
0.0780173
0.0521739
0.0724575
0.0482108
0.0639881
0.0463629
0.0467863
0.0472851
0.0431578
0.0396722
0.040659
0.0268281
0.0368767
0.0562479
0.0192591
0.0355404
0.038196
0.0388164
0.0247219
0.066657
0.0377051
0.0639027
0.0678297
0.0526536
0.0365183
0.0364848
0.0265682
0.055939
0.0494753
0.0810002
0.0214098
0.062286
0.0346828
0.0457429
0.02722
0.0346203
0.0770188
0.0461059
0.0794264
0.0369496
0.0233405
0.0292877
0.0140697
0.0335951
0.0557385
0.0322606
0.0183101
0.0352597
0.0794209
0.0328832
0.0304103
0.0286371
0.0821521
0.0344915
0.0126763
0.086226
0.0374721
0.0397089
0.0729868
0.0682687
0.0736976
0.0694999
0.0784109
0.0359336
0.0536875
0.0624903
0.0705352
0.0509896
0.0489336
0.0451887
0.0990988
0.0426616
0.0311814
0.0740871
0.0709135
0.0816874
0.0506004
0.0609607
0.0291257
0.0971742
0.0663278
0.046374
0.0399394
0.0460228
0.0289219
0.0220818
0.0645531
0.0323071
0.0284675
0.0394164
0.0331351
0.0316675
0.0383715
0.0355269
0.0464127
0.0360711
0.0342015
0.0346809
0.0836714
0.0522196
0.0299942
0.0444178
0.0410829
0.0334623
0.0814091
0.0618938
0.0723281
0.0527213
0.0364925
0.0292269
0.0360125
0.0348527
0.0984043
0.0668495
0.0738961
0.0458537
0.0310612
0.0534632
0.02329
0.0640302
0.0278842
0.0332504
0.0186634
0.0208271
0.0363372
0.0223999
0.022467
0.0159572
0.0260982
0.0173585
0.0201307
0.0180732
0.0171902
0.0153245
0.0235171
0.0273177
0.0210092
0.021609
0.0394023
0.0366572
0.0395603
0.0608762
0.0766759
0.0148295
0.0186253
0.0343971
0.0729584
0.0651907
0.0740697
0.0613514
0.0483777
0.0265778
0.0274026
0.0314702
0.03824
0.0473336
0.0286655
0.037337
0.0263592
0.0356497
0.0227618
0.0886261
0.0233781
0.0595027
0.0390912
0.0829551
0.0299008
0.0321421
0.034719
0.0295494
0.0470804
0.0426883
0.0305561
0.0496883
0.0236711
0.0251013
0.0192445
0.0190097
0.0172447
0.0166612
0.0316345
0.0358347
0.0309499
0.0608673
0.0303143
0.0611538
0.0606612
0.0698299
0.0312438
0.048297
0.0300538
0.0183812
0.035409
0.0163705
0.0437394
0.0255739
0.0169641
0.0511952
0.0246429
0.019786
0.0629355
0.0281223
0.0483007
0.0570416
0.0546092
0.0362176
0.0509387
0.0288264
0.0455038
0.0305557
0.0668859
0.0353659
0.0237384
0.0509133
0.0598742
0.062235
0.0846587
0.0667582
0.0334449
0.0403816
0.0440077
0.0405264
0.0902784
0.0222342
0.0388077
0.036163
0.0261031
0.0642501
0.0351189
0.0916765
0.0350347
0.0175676
0.0295107
0.0230282
0.0370982
0.0341996
0.0316174
0.0923065
0.0311099
0.0604346
0.0402411
0.0803256
0.0342261
0.0478555
0.0545009
0.0604432
0.062017
0.0415135
0.0561408
0.0477767
0.0654468
0.0686435
0.0739136
0.0453757
0.0690293
0.0698932
0.0487253
0.0839987
0.0756545
0.0660623
0.0668265
0.0304827
0.0427947
0.0444386
0.039899
0.0267574
0.0379875
0.0542076
0.0396354
0.0298508
0.0648325
0.0543836
0.0651315
0.0406714
0.0687762
0.0293018
0.0336261
0.0375447
0.0357686
0.0467449
0.020185
0.0663344
0.085857
0.0966008
0.026194
0.0343419
0.0724407
0.0775253
0.028846
0.0562917
0.0562297
0.0538948
0.0629242
0.0554003
0.0355231
0.0691316
0.0778663
0.0721176
0.0761754
0.0822856
0.0826906
0.0257716
0.0452194
0.04536
0.034199
0.0530118
0.0568423
0.0328776
0.0215349
0.0270443
0.0729532
0.0268209
0.0281035
0.0153412
0.0283688
0.0125041
0.0235821
0.0175279
0.0349577
0.0318494
0.0326248
0.0353383
0.0808811
0.0262695
0.0303624
0.0542634
0.0403381
0.0731861
0.067165
0.0948254
0.0716217
0.0304017
0.0384495
0.0363413
0.0273397
0.0148785
0.0256089
0.0845622
0.0801564
0.0395892
0.046848
0.042354
0.0492025
0.0519397
0.0755745
0.0336582
0.0854315
0.0682171
0.0750821
0.0727831
0.0599867
0.0679022
0.0473916
0.0638527
0.0373196
0.060208
0.0530081
0.0394204
0.04972
0.0467256
0.0444786
0.0352528
0.033985
0.0565073
0.0584885
0.0797534
0.0296938
0.053844
0.0296869
0.0217969
0.042458
0.0228621
0.0569687
0.041914
0.0379473
0.038536
0.034389
0.0341863
0.0827438
0.022371
0.0285452
0.0629123
0.0400088
0.0152614
0.0562766
0.0827169
0.0511791
0.0235581
0.0691946
0.0330648
0.0570688
0.0613252
0.0726566
0.0496271
0.0293822
0.0674791
0.0567757
0.0635849
0.0593069
0.0549928
0.0523963
0.0298882
0.0488607
0.0631028
0.031734
0.0433541
0.0827168
0.0356763
0.0446788
0.0469171
0.0408966
0.0144535
0.0220596
0.0383611
0.0273487
0.033223
0.0300903
0.0276311
0.0824653
0.0367803
0.0347977
0.0649708
0.0278517
0.02901
0.0289727
0.0853469
0.0328356
0.0320783
0.0818322
0.0210642
0.0164191
0.0309386
0.0304773
0.0284393
0.0433933
0.0215506
0.0325042
0.0518504
0.0757119
0.0806055
0.0694836
0.0617789
0.0291036
0.0448683
0.0372704
0.0397354
0.0299656
0.0824083
0.0458662
0.0272242
0.0282294
0.0502852
0.0455013
0.060322
0.0374694
0.0298553
0.0337728
0.0277367
0.0736062
0.0422204
0.017953
0.0751471
0.0314494
0.0436372
0.0293792
0.0241044
0.0274881
0.0491147
0.0345786
0.0277335
0.0706221
0.0291888
0.0734853
0.0440394
0.0236545
0.0645579
0.0331961
0.0559501
0.0584697
0.0467471
0.0646715
0.0518016
0.0290462
0.0548795
0.0555287
0.0229543
0.0412852
0.0291443
0.026576
0.0394413
0.0155953
0.0183161
0.043385
0.0170314
0.0240882
0.0480441
0.0165195
0.022019
0.0533355
0.0212381
0.0190273
0.0504736
0.0901541
0.0786019
0.0217283
0.0273382
0.0595877
0.023844
0.0250718
0.0904365
0.0631769
0.0897085
0.0432923
0.0739637
0.0330785
0.0416923
0.0482376
0.068998
0.0294023
0.0648203
0.093725
0.0303074
0.0287829
0.0341248
0.0280863
0.0234974
0.0272484
0.0375032
0.0323142
0.0906886
0.0485621
0.0355325
0.0790149
0.0410565
0.0733048
0.0286107
0.0617498
0.0332497
0.0411565
0.0858075
0.0297279
0.0513256
0.0267948
0.0282344
0.0542831
0.0268204
0.0905716
0.0626006
0.0778733
0.0428494
0.0425994
0.0874114
0.0305467
0.0274406
0.0731259
0.0312503
0.0319489
0.0315737
0.074173
0.02627
0.0264942
0.0288498
0.0964135
0.0274422
0.0398364
0.0416211
0.0277093
0.026495
0.0473241
0.0528088
0.0905901
0.0227288
0.0128005
0.0295018
0.0248719
0.0264088
0.0971644
0.0441299
0.042427
0.0294365
0.0508105
0.0614222
0.0398819
0.0689701
0.0700381
0.0243926
0.0402475
0.0264293
0.0667418
0.0639612
0.023859
0.0498009
0.0445416
0.0520334
0.0492334
0.0633919
0.0418206
0.0580322
0.0620245
0.0832097
0.0507798
0.0815802
0.0227643
0.0573423
0.0297073
0.0268091
0.0684784
0.0864592
0.0653484
0.0235824
0.0877665
0.0436211
0.0382167
0.0889934
0.0393023
0.0805117
0.0259936
0.0986818
0.0615071
0.0238129
0.0783873
0.0584938
0.0565559
0.0517241
0.0909639
0.0879709
0.0272429
0.0322603
0.0910481
0.0652854
0.0279436
0.0973906
0.0968113
0.0320239
0.043165
0.0335262
0.0784668
0.0441744
0.0448042
0.0182328
0.085154
0.0685142
0.0233089
0.0894907
0.083308
0.0210455
0.0329009
0.0284866
0.0615687
0.0727891
0.0391322
0.0264629
0.083433
0.0648629
0.0445397
0.0918022
0.0417768
0.0330332
0.0543654
0.0512452
0.0861671
0.0272834
0.0227911
0.0776086
0.0436516
0.0331165
0.043297
0.025144
0.0597494
0.0556101
0.0765783
0.0827026
0.0958638
0.0277288
0.0585687
0.0276078
0.0510482
0.0615347
0.0396414
0.0289314
0.0203738
0.0902647
0.0142902
0.0270656
0.0262448
0.056031
0.0811869
0.0939553
0.0930439
0.0675084
0.0426689
0.0586507
0.0232639
0.0278643
0.0308021
0.013703
0.0255056
0.0340719
0.0776438
0.0802767
0.0354136
0.0284868
0.047276
0.0701874
0.0336314
0.0594269
0.0445152
0.0532342
0.0386029
0.0534877
0.0809652
0.080358
0.0616883
0.02673
0.063969
0.086543
0.0304768
0.0319585
0.0520646
0.0775909
0.0612071
0.0241332
0.0279991
0.0427138
0.0523559
0.0586701
0.0179977
0.0207489
0.0324301
0.0320406
0.0263157
0.0822011
0.0554582
0.0887245
0.0599444
0.0629938
0.0680927
0.0446177
0.0261388
0.0841662
0.0275842
0.0449977
0.0441722
0.0518468
0.0391996
0.0628292
0.0416729
0.0613431
0.0757359
0.0319681
0.0704687
0.0240583
0.0884077
0.0267919
0.0259458
0.0814702
0.0699788
0.0256519
0.0443548
0.057673
0.0286419
0.0747966
0.0256541
0.0718138
0.0909169
0.0269236
0.0673325
0.0975731
0.035756
0.0794488
0.0688707
0.0878672
0.0421475
0.0832997
0.0962826
0.0257523
0.047019
0.058174
0.0258295
0.0238376
0.078992
0.0247841
0.0512378
0.0954658
0.0738012
0.0687881
0.0161423
0.0222156
0.0232281
0.0510589
0.0240747
0.024256
0.0409892
0.0426798
0.0307722
0.0223406
0.0244937
0.0399862
0.0473936
0.0259018
0.0501605
0.0244102
0.0248665
0.0205823
0.0867944
0.0763827
0.0255737
0.0274321
0.0568495
0.0865851
0.0257994
0.0583226
0.0253531
0.0245434
0.0514444
0.0259021
0.0820717
0.0238924
0.059973
0.0351749
0.0899673
0.0203764
0.0878981
0.0920158
0.0239772
0.0967013
0.0283238
0.025508
0.0414137
0.0679964
0.0273875
0.0324488
0.0316115
0.0327347
0.0318931
0.0516244
0.0033364
0.0459983
0.084231
0.0812129
0.0667698
0.0261142
0.0955124
0.00228907
0.0233862
0.0550124
0.0240984
0.0249982
0.0954763
0.0192217
0.0303127
0.0967951
0.0973894
0.0253924
0.0148634
0.032191
0.0641418
0.0255898
0.0713624
0.0948667
0.0213562
0.0837907
0.0262067
0.0228403
0.0238615
0.0183544
0.0498836
0.086979
0.0541097
0.0306404
0.0974568
0.0250256
0.0243852
0.0234149
0.0836944
0.0350392
0.0239831
0.0396877
0.0948952
0.0305533
0.0657861
0.0255241
0.0387552
0.0296653
0.0325991
0.0347134
0.0146401
0.0343592
0.0197602
0.0246664
0.0889286
0.0327176
0.0429975
0.0258751
0.0448978
0.0426176
0.0891086
0.0148228
0.0408005
0.0743252
0.0413731
0.0255281
0.0376673
0.019785
0.00223417
0.0417735
0.0381766
0.0431455
0.0316588
0.0860977
0.080239
0.023807
0.0311254
0.09367
0.089699
0.0647026
0.0319725
0.00247179
0.0334035
0.0304472
0.0437306
0.025934
0.0249957
0.0305086
0.0428174
0.0598237
0.0222097
0.0250272
0.0426445
0.0208831
0.0585329
0.0500982
0.0552536
0.0027082
0.0766074
0.025524
0.093132
0.093296
0.0668591
0.0139797
0.0478646
0.0542176
0.0437339
0.00381593
0.0202651
0.0261008
0.0802004
0.0877824
0.0652276
0.091351
0.0188545
0.0225117
0.0318171
0.031156
0.0312477
0.0289788
0.0246023
0.0674883
0.074119
0.0881548
0.0939208
0.0767497
0.0658084
0.0964977
0.0223902
0.0480597
0.0920004
0.0359017
0.00297491
0.0176268
0.0523564
0.0231924
0.0524684
0.0246699
0.0423967
0.0565085
0.0200943
0.0422824
0.0427861
0.0258473
0.058123
0.0255653
0.0832644
0.0920551
0.0273742
0.0854659
0.087304
0.05094
0.00236445
0.0893498
0.0366532
0.0262563
0.0944536
0.0189943
0.0773354
0.0156712
0.0503693
0.0160379
0.0315305
0.0456895
0.0287752
0.00347175
0.0856305
0.0183774
0.0410558
0.0309271
0.0879758
0.0668943
0.0361665
0.0860844
0.0407215
0.0614595
0.0247804
0.0435108
0.0905537
0.0124396
0.0414592
0.021234
0.0244254
0.0600258
0.0327283
0.0671216
0.0608645
0.0408466
0.0913249
0.0230159
0.0329991
0.0429133
0.0255466
0.0735656
0.0629407
0.00321482
0.0478691
0.0398377
0.0869026
0.0254129
0.0527677
0.0241591
0.0251749
0.0449696
0.0213937
0.0605031
0.0938079
0.0895522
0.0449563
0.0674878
0.0646875
0.0517178
0.0237933
0.0477386
0.0250513
0.0452201
0.0420823
0.0315804
0.0428787
0.0913712
0.0244616
0.0833479
0.00430654
0.0572131
0.0159193
0.00400444
0.0676116
0.0235226
0.0838001
0.0262208
0.0238351
0.0245043
0.0882152
0.0304794
0.0229291
0.0269342
0.0746364
0.0321698
0.0382558
0.0419744
0.0539522
0.0399177
0.0263316
0.0694293
0.0310052
0.0293812
0.0805232
0.0204697
0.0525312
0.0279896
0.00360775
0.04954
0.021905
0.0284853
0.0787163
0.0929773
0.0322693
0.0252454
0.0840951
0.0908876
0.0869393
0.0866283
0.083157
0.0784325
0.0220529
0.0554957
0.0774203
0.0351685
0.0404255
0.0212842
0.0273006
0.0350238
0.0246751
0.0542435
0.0831272
0.0152707
0.018997
0.0227203
0.0235617
0.0341552
0.0399876
0.0260145
0.00235562
0.0777945
0.0405953
0.0252109
0.0896724
0.0724307
0.0410567
0.0302963
0.0558302
0.0321937
0.0325988
0.030568
0.0400945
0.0322505
0.0276471
0.0453335
0.0329041
0.0885663
0.0426289
0.048483
0.0762977
0.030419
0.047846
0.0373117
0.0392107
0.029906
0.0322
0.0601311
0.0340495
0.0341017
0.0357206
0.00245154
0.0343459
0.0745342
0.0912966
0.00516871
0.0334982
0.0888167
0.080184
0.0204874
0.084281
0.0238238
0.0529618
0.0952997
0.0237493
0.031634
0.088496
0.0248454
0.0307908
0.0248266
0.01906
0.0741211
0.0239081
0.0832545
0.010681
0.0530107
0.0246485
0.0327505
0.0261457
0.0344918
0.0215133
0.072056
0.0867424
0.0794779
0.0650508
0.0436477
0.0326427
0.0882285
0.0341048
0.0883841
0.00831561
0.0444048
0.0433609
0.023423
0.0233555
0.0781653
0.0684161
0.0299408
0.0247685
0.0305157
0.0399838
0.023571
0.0353867
0.0454247
0.0602285
0.0400766
0.0367068
0.0320999
0.0240373
0.0804566
0.0363438
0.0361156
0.0465204
0.0450701
0.0504844
0.0378306
0.0296792
0.0293357
0.00478328
0.00228707
0.0618329
0.0428668
0.0701826
0.023824
0.0261792
0.0449847
0.0193719
0.029662
0.0844034
0.0810936
0.0207076
0.0914073
0.0104933
0.0752959
0.0202731
0.0816892
0.0253688
0.0337495
0.052808
0.0507223
0.065068
0.0068054
0.0970602
0.02271
0.0512211
0.0221379
0.0804054
0.0627085
0.0531821
0.023951
0.0332527
0.0721056
0.0316371
0.0404845
0.0418602
0.0742708
0.024262
0.0549973
0.0195182
0.0818807
0.0213424
0.017878
0.0382811
0.0386555
0.0843339
0.0605541
0.0308011
0.0390859
0.0482619
0.0228351
0.0536743
0.0388081
0.0240938
0.0152187
0.0882222
0.0231836
0.0224262
0.00437495
0.00509105
0.0256996
0.0873824
0.0772331
0.0287368
0.0660544
0.0872473
0.0254077
0.079965
0.0780461
0.0845003
0.0417555
0.0848985
0.0229926
0.00465372
0.0231797
0.0509943
0.03713
0.0224833
0.0867029
0.0234362
0.0445559
0.0797268
0.0343279
0.0242244
0.0887127
0.0792857
0.0399354
0.00263892
0.0946226
0.019047
0.0306256
0.0407726
0.0336264
0.0289093
0.0203879
0.0568459
0.00519071
0.0337187
0.0623775
0.0801428
0.0243904
0.0231656
0.0233568
0.0243872
0.0412422
0.0403317
0.0551004
0.0327851
0.0931457
0.0465329
0.0293345
0.0312752
0.0242942
0.0857959
0.0976063
0.0237179
0.042895
0.0795463
0.0474325
0.0606905
0.093018
0.0208468
0.0276555
0.0369681
0.0185023
0.0298509
0.0557179
0.0838603
0.0233388
0.0235006
0.0194821
0.00523078
0.0623281
0.0236093
0.0169282
0.0710335
0.0579208
0.0178007
0.0234911
0.0766996
0.0903119
0.0815131
0.0425483
0.0793151
0.0514783
0.0878784
0.00551794
0.022091
0.0927897
0.0230641
0.0130039
0.0257688
0.025478
0.0431918
0.0504064
0.0435927
0.0777885
0.016259
0.040081
0.0592818
0.0640633
0.0354817
0.0873856
0.00240934
0.0719246
0.0241842
0.00509591
0.0581729
0.0265001
0.0282848
0.0510879
0.0955285
0.016522
0.0743143
0.0740285
0.0169172
0.0462511
0.0524998
0.0233737
0.0241437
0.0236957
0.0335462
0.0371563
0.0269696
0.00503809
0.0908827
0.0175053
0.077917
0.00556795
0.0881605
0.0563259
0.00275148
0.0628361
0.0240239
0.063906
0.0516267
0.0228443
0.0283354
0.025123
0.0174031
0.0283529
0.071159
0.0277224
0.00623079
0.0197194
0.0343837
0.0242328
0.0251749
0.0230035
0.0799256
0.00267084
0.02971
0.025099
0.0538204
0.0305122
0.0354684
0.069302
0.0919768
0.0648779
0.0236128
0.0234621
0.0501718
0.0236001
0.0358283
0.0253397
0.055802
0.0745238
0.0118662
0.00581253
0.0265886
0.0209381
0.0615417
0.058337
0.0456156
0.0519044
0.0445267
0.0290495
0.0863175
0.0879495
0.044302
0.00625294
0.0310996
0.019812
0.0516805
0.0401519
0.044542
0.0228808
0.0204817
0.0412354
0.067956
0.0493588
0.0555163
0.0336967
0.0345492
0.0233301
0.0855735
0.0663643
0.00252077
0.0236441
0.0868661
0.0879644
0.0337439
0.0156842
0.0907874
0.0529263
0.0168938
0.0227176
0.0514418
0.0358859
0.0254201
0.0581868
0.0104169
0.0723049
0.0171556
0.0899578
0.045928
0.0249939
0.0545577
0.0236593
0.0344606
0.0343901
0.0712212
0.0252711
0.023628
0.00533331
0.027619
0.0235891
0.00433481
0.0608277
0.0759759
0.0234993
0.023229
0.0351323
0.00274137
0.0206083
0.0233984
0.0213964
0.0953468
0.023385
0.0250963
0.0370642
0.030008
0.00537179
0.0267377
0.00251123
0.0212764
0.0156487
0.057325
0.0526986
0.062409
0.016751
0.0240212
0.0182417
0.0185416
0.0243
0.00329752
0.0309547
0.0274085
0.0777388
0.0309028
0.0355048
0.0935928
0.0173922
0.0239395
0.0241088
0.0281775
0.0372673
0.0429049
0.017489
0.0593884
0.0481827
0.0849784
0.0822114
0.0100088
0.0323116
0.0820871
0.0247205
0.0228562
0.0102768
0.0694038
0.0302949
0.0217701
0.0422564
0.0499001
0.0228842
0.0232631
0.0568009
0.0376929
0.0226372
0.0237226
0.0216791
0.0408321
0.071086
0.0226122
0.0741389
0.00464428
0.0198726
0.00576875
0.0345932
0.0937632
0.0715947
0.0797751
0.0908035
0.0849654
0.0541593
0.0468218
0.0405466
0.0230908
0.0257724
0.0359941
0.0430385
0.0484448
0.00503294
0.0238285
0.0190254
0.0224559
0.0218421
0.022423
0.0229139
0.0553188
0.0326605
0.0191279
0.0509437
0.020037
0.022902
0.0271055
0.0216861
0.0859817
0.0867047
0.0211757
0.039908
0.032316
0.0580188
0.036579
0.0184458
0.0196702
0.00996588
0.0224557
0.0518391
0.0879245
0.0473567
0.029735
0.0206503
0.0395948
0.0332519
0.0937558
0.0380051
0.0243712
0.0431979
0.023596
0.0849713
0.0330354
0.053927
0.0249333
0.0282427
0.0553572
0.0416758
0.0696014
0.0573622
0.0310123
0.021146
0.0235091
0.0290613
0.0786716
0.016546
0.0593945
0.0610139
0.0222066
0.0754849
0.0450373
0.062044
0.0526358
0.0702665
0.0158516
0.0265608
0.0667915
0.0865755
0.0274066
0.0149075
0.0545214
0.022591
0.0377587
0.0396474
0.0110359
0.0877116
0.0134106
0.0327653
0.0385309
0.0764425
0.0715077
0.0206705
0.0322262
0.0447661
0.0337995
0.0236275
0.0237243
0.0146793
0.0299179
0.0265114
0.0237931
0.0904556
0.0540381
0.0751416
0.0780044
0.0189648
0.0223656
0.0570451
0.0593021
0.0189343
0.0441297
0.0436482
0.0239606
0.0699823
0.0687439
0.0831393
0.0138635
0.0205086
0.0218734
0.0117252
0.0464325
0.0458393
0.0201088
0.0315157
0.0718839
0.0228762
0.0162774
0.0309538
0.076657
0.0183978
0.0373257
0.0317403
0.0444279
0.0293041
0.0826248
0.0813665
0.0809688
0.0503745
0.0237111
0.0539665
0.0236846
0.070034
0.0919199
0.0442055
0.0413858
0.0100288
0.0775823
0.0150672
0.0450354
0.0371404
0.067839
0.0230988
0.048604
0.0148345
0.0242552
0.0223337
0.0924884
0.0539732
0.0390069
0.0872517
0.0354593
0.0575641
0.0188322
0.0567369
0.0239195
0.0413441
0.00234518
0.0603317
0.0203844
0.0238257
0.0766921
0.0148377
0.0672643
0.0176299
0.0614312
0.0255231
0.0498294
0.0203539
0.0689473
0.0480284
0.089263
0.075368
0.0262948
0.016591
0.0147606
0.0414517
0.0655991
0.05322
0.0601996
0.0457865
0.0614242
0.0723801
0.0231991
0.0777357
0.0738026
0.0341427
0.0755615
0.0698645
0.0211701
0.0343478
0.0250725
0.0804849
0.025074
0.0242618
0.0237508
0.0905958
0.0908576
0.0426696
0.0490239
0.0546405
0.0213373
0.04607
0.0243617
0.0351299
0.024449
0.0528622
0.0513847
0.045801
0.020868
0.0827785
0.00459771
0.0195562
0.0330853
0.0702925
0.0473299
0.0707465
0.021093
0.0235791
0.0246159
0.0886116
0.0257357
0.0226354
0.0595133
0.0796377
0.0190917
0.036311
0.0600079
0.00715882
0.0661665
0.0900382
0.00223674
0.0205114
0.0517639
0.0756917
0.0597566
0.0269037
0.0358529
0.0469089
0.0236755
0.0240196
0.0208013
0.0233371
0.063407
0.0758482
0.0288438
0.0875981
0.0706036
0.024793
0.0214963
0.0301192
0.0724737
0.0585398
0.049656
0.0392988
0.0850329
0.0505461
0.0345244
0.0388471
0.0367855
0.0838684
0.0388121
0.0522266
0.042339
0.0356382
0.029731
0.0317175
0.0174962
0.0158301
0.0454612
0.0583875
0.0311648
0.0481562
0.043694
0.0240589
0.0755115
0.0341553
0.0451635
0.0213025
0.0904156
0.029364
0.0205113
0.0290359
0.0194754
0.0281042
0.0261795
0.0237676
0.0232577
0.0300872
0.0493548
0.0751917
0.0306885
0.0844457
0.0285396
0.0369167
0.0567799
0.0563051
0.0304501
0.0869712
0.0345202
0.0534003
0.0288456
0.0632806
0.0259951
0.00240807
0.0919297
0.028758
0.0527679
0.0497151
0.0346417
0.0235337
0.023692
0.032227
0.0211308
0.0246745
0.0299229
0.0254391
0.0476265
0.0242036
0.0232836
0.0266758
0.0138101
0.0681783
0.00443637
0.055279
0.0487766
0.0898872
0.025484
0.0241498
0.0292052
0.0249944
0.0249753
0.0605643
0.0273186
0.0332302
0.0650515
0.0331803
0.0233539
0.00214488
0.0751529
0.0249594
0.00434229
0.0175907
0.0609727
0.0177654
0.0188766
0.027256
0.0713027
0.0246619
0.0236091
0.0197767
0.0354255
0.0173772
0.0875183
0.0394652
0.0267813
0.0336121
0.0715237
0.0195796
0.0238776
0.0752018
0.0850308
0.0558991
0.0150679
0.0342883
0.0345748
0.0485964
0.0369924
0.0822504
0.0765086
0.0400513
0.0338984
0.0168051
0.020408
0.038308
0.0204014
0.0838387
0.011121
0.022236
0.033612
0.0693796
0.0361475
0.0762395
0.0515151
0.0590245
0.0346756
0.0186407
0.0604091
0.0811444
0.0239564
0.0177603
0.0287766
0.0186897
0.0248031
0.0623635
0.0402716
0.0438075
0.0775536
0.0782855
0.0397769
0.0774298
0.018481
0.0205558
0.0251557
0.066726
0.0139467
0.0128661
0.0157324
0.0424385
0.0317815
0.0167781
0.070588
0.0795598
0.070055
0.0220095
0.0501256
0.087145
0.0361071
0.0261187
0.0292188
0.0245609
0.0772643
0.0179508
0.0396976
0.0294594
0.0450253
0.0233607
0.0288504
0.0399096
0.00624889
0.00551013
0.0298343
0.0439196
0.0157883
0.0244075
0.0461559
0.0434695
0.0232879
0.073911
0.0495615
0.0241153
0.0258309
0.0275312
0.0384806
0.0184555
0.0234777
0.0713046
0.0452179
0.0226867
0.0733776
0.0735851
0.0578378
0.0374291
0.0177566
0.0221082
0.0357082
0.0746431
0.0423397
0.0984271
0.0846793
0.0820615
0.0233552
0.0235214
0.0300926
0.0212963
0.0218408
0.0182028
0.069802
0.0241746
0.0247168
0.0240731
0.0157652
0.0634194
0.0123386
0.0356654
0.0147544
0.0137872
0.0146894
0.0102173
0.0628465
0.035035
0.024364
0.0748611
0.0319611
0.0290193
0.0735102
0.0313197
0.0236384
0.0731219
0.0206329
0.034394
0.0215171
0.0274154
0.0304397
0.0410308
0.0802731
0.0237262
0.066841
0.0375962
0.0463686
0.0288287
0.0822831
0.0850514
0.0243248
0.0198266
0.0295454
0.0103758
0.0361253
0.0675962
0.0844142
0.0483342
0.0148117
0.0848313
0.0176574
0.0293454
0.0547257
0.0518581
0.0864462
0.075244
0.033366
0.080117
0.0136642
0.0253432
0.0197471
0.0419653
0.0192718
0.0801158
0.0172442
0.0227927
0.020661
0.0121638
0.0128888
0.0202444
0.0379241
0.0574043
0.0399153
0.0643584
0.0542868
0.0398095
0.0190871
0.020973
0.0368046
0.0294977
0.0239342
0.023666
0.0245114
0.0126431
0.023522
0.0185152
0.0231829
0.0313902
0.0234055
0.016073
0.0411501
0.0362719
0.0767699
0.086662
0.0385043
0.0239942
0.0353879
0.0352604
0.0684465
0.0286126
0.0283177
0.0317186
0.0263259
0.0798373
0.0292572
0.0236536
0.0235444
0.0204863
0.0297697
0.0356022
0.0739828
0.0773343
0.0138212
0.0301476
0.0737063
0.036029
0.0710848
0.0795066
0.0383895
0.0732212
0.0724902
0.067072
0.0418262
0.0188568
0.0121932
0.0126706
0.0407905
0.0680004
0.0236625
0.053086
0.0724135
0.0664391
0.0123291
0.0243776
0.0329209
0.0167322
0.0237084
0.070621
0.0257046
0.0274167
0.0706222
0.0128374
0.0808453
0.0739861
0.0292601
0.0164226
0.029614
0.0565918
0.0720976
0.0117603
0.0115481
0.014025
0.0884021
0.121899
0.136191
0.140956
0.140074
0.135303
0.12803
0.119268
0.109755
0.10006
0.0905536
0.0814911
0.0730353
0.065272
0.0582294
0.0518971
0.046239
0.0412051
0.0367381
0.0327836
0.087698
0.120943
0.135256
0.140108
0.139362
0.134738
0.127609
0.11898
0.109585
0.0999758
0.0905359
0.0815222
0.0730991
0.0653553
0.058323
0.0519943
0.046336
0.0412999
0.0368301
0.0328723
0.0869623
0.119971
0.134287
0.139235
0.138624
0.134151
0.127173
0.118681
0.109405
0.0998881
0.0905191
0.0815567
0.0731682
0.0654455
0.0584242
0.0520998
0.0464415
0.041403
0.0369294
0.0329669
0.0861981
0.118974
0.133289
0.138337
0.137862
0.133545
0.12672
0.11837