/*--------------------------------*- C++ -*----------------------------------*\
  =========                 |
  \\      /  F ield         | OpenFOAM: The Open Source CFD Toolbox
   \\    /   O peration     | Website:  https://openfoam.org
    \\  /    A nd           | Version:  10
     \\/     M anipulation  |
\*---------------------------------------------------------------------------*/
FoamFile
{
    format      ascii;
    class       volScalarField;
    location    "1157";
    object      nut;
}
// * * * * * * * * * * * * * * * * * * * * * * * * * * * * * * * * * * * * * //

dimensions      [0 2 -1 0 0 0 0];

internalField   nonuniform List<scalar> 
23845
(
0.0136129
0.0138595
0.00773014
0.0140785
0.0181557
0.0220919
0.0079884
0.00991725
0.0194745
0.014097
0.0221354
0.0229231
0.0189917
0.0206104
0.00610797
0.0157983
0.0210936
0.0233482
0.0177714
0.0224263
0.0119511
0.0229203
0.0128955
0.0192327
0.0165173
0.0178911
0.00981359
0.0220288
0.00347338
0.0221012
0.0148044
0.00126656
0.00497648
0.0227575
0.0229511
0.0230062
0.00109714
0.0229287
0.0226115
0.0198866
0.0173319
0.0223379
0.0184612
0.0230201
0.0177383
0.0199416
0.0193395
0.0162784
0.00221831
0.00194482
0.00565826
0.0100196
0.00126918
0.0212825
0.00122567
0.0199649
0.0144967
0.010964
0.0123392
0.0138744
0.00627469
0.0227557
0.0165279
0.00430117
0.0186908
0.0195268
0.00965952
0.0179605
0.017719
0.0176467
0.00827226
0.00815975
0.0179966
0.00663161
0.0181535
0.00634458
0.0228678
0.0226597
0.0130872
0.0206648
0.0109802
0.00745135
0.0141587
0.0113147
0.00645297
0.0229507
0.0085487
0.0011727
0.0187508
0.0194321
0.00465122
0.0171395
0.00374695
0.0228306
0.0105648
0.00546171
0.0204585
0.0161157
0.0182103
0.019381
0.0199766
0.00926223
0.0169527
0.000827537
0.0029502
0.0119493
0.0218843
0.0179278
0.0108768
0.02267
0.0222408
0.0228766
0.00643452
0.0152193
0.0229706
0.0131105
0.0181836
0.014976
0.0036619
0.00713812
0.0227357
0.00252948
0.0177433
0.00843855
0.0089988
0.0179551
0.00690942
0.00194204
0.00675411
0.0178909
0.00478008
0.0195075
0.022238
0.021337
0.0199909
0.0154753
0.000727152
0.0229154
0.0109516
0.0225516
0.00228338
0.0225008
0.0227559
0.0232102
0.0168187
0.0229179
0.0139946
0.00700917
0.00570182
0.0185453
0.00546815
0.0185923
0.0103342
0.0198559
0.00631726
0.0200428
0.0181538
0.0228882
0.00438769
0.00513218
0.017519
0.00623305
0.0100303
0.0189236
0.0175762
0.0199342
0.0219117
0.00294978
0.0222336
0.0230266
0.0217106
0.0134966
0.0190865
0.00950875
0.0188571
0.0121779
0.0168969
0.0199064
0.0179731
0.0228486
0.0198115
0.0201911
0.00693056
0.0227839
0.0162739
0.0188826
0.022393
0.0107572
0.00289646
0.0220739
0.00381557
0.0206419
0.0204939
0.0215929
0.0170764
0.020099
0.00195692
0.00293108
0.000749535
0.0214244
0.0213531
0.0202929
0.00638418
0.0209456
0.0108618
0.0101799
0.00739094
0.022219
0.0116247
0.0230992
0.0218033
0.00282489
0.0163846
0.0218632
0.00329962
0.00121251
0.0220618
0.02265
0.000550133
0.0054577
0.0179454
0.00648046
0.00183487
0.0186418
0.0231754
0.00565163
0.000743199
0.02066
0.0221651
0.0173592
0.0226484
0.00289143
0.0228675
0.0178176
0.0186478
0.00503006
0.0185178
0.0147782
0.0187884
0.0123744
0.00158548
0.0144337
0.0119237
0.0194091
0.00307546
0.016433
0.021716
0.0179187
0.0113133
0.00641439
0.0205096
0.0229346
0.00567375
0.0181384
0.00690512
0.00477881
0.00713812
0.00717585
0.0228552
0.0194463
0.00083626
0.0229458
0.00749802
0.0218465
0.0214237
0.0192936
0.0128557
0.00706158
0.0156321
0.0144652
0.0227201
0.0132106
0.00509504
0.0207897
0.0230921
0.0203119
0.00691282
0.0208124
0.00191704
0.0133
0.0116953
0.0220893
0.00730869
0.0177195
0.0229593
0.00580248
0.0105114
0.0198991
0.0103562
0.00663556
0.012292
0.00371877
0.00484605
0.00684749
0.011351
0.0229329
0.00508272
0.0213649
0.0229542
0.00399117
0.0041193
0.00583931
0.00490471
0.0147936
0.0212552
0.0150638
0.00388905
0.00528262
0.0198525
0.00184701
0.00481944
0.0115259
0.0186765
0.0217565
0.0109132
0.00218213
0.00518443
0.0219418
0.00449234
0.0179444
0.00274039
0.00290742
0.00462431
0.0218893
0.00652058
0.0223184
0.0139365
0.0174121
0.00724721
0.0235383
0.0081627
0.0189051
0.00540572
0.022992
0.00657596
0.0143564
0.0126779
0.0235609
0.0226833
0.0132881
0.0127177
0.00510496
0.0226222
0.0178069
0.0176925
0.00143247
0.0229915
0.00611564
0.0135579
0.00552153
0.0134552
0.00472037
0.00183014
0.00662018
0.00127595
0.0205419
0.0232571
0.0184233
0.00678014
0.0116433
0.00745369
0.0185978
0.0142007
0.0179616
0.00323643
0.021742
0.00703037
0.022687
0.0038035
0.0179292
0.0228748
0.0040765
0.00305341
0.0229284
0.0228292
0.00529954
0.0103221
0.0137446
0.0227011
0.0121275
0.00689362
0.0229325
0.0127874
0.0177525
0.0178332
0.022794
0.0224757
0.0128877
0.0224396
0.0115461
0.00912662
0.0230491
0.00357279
0.00282738
0.00433749
0.00424995
0.0223321
0.0177125
0.0176231
0.0229986
0.0119661
0.0159053
0.0090738
0.0118061
0.0135047
0.00675098
0.0223134
0.00335888
0.00308412
0.00788742
0.00594097
0.0178595
0.00763426
0.00602828
0.0171622
0.0102937
0.0160051
0.0233804
0.0225107
0.013487
0.00364625
0.0226468
0.0197565
0.0136269
0.00818135
0.0126399
0.00347659
0.0147057
0.00948203
0.00844572
0.0203634
0.0230411
0.00472653
0.0238806
0.0209068
0.0179833
0.0229434
0.0189119
0.00455162
0.0107393
0.00641022
0.00317604
0.00279495
0.00645333
0.0152329
0.00465264
0.022118
0.0173627
0.0225769
0.0124994
0.0132032
0.0187969
0.00299176
0.0229786
0.0179068
0.00526869
0.0146099
0.020574
0.00822572
0.0208726
0.0105642
0.0144721
0.000738879
0.0160273
0.0225476
0.0225002
0.0217881
0.00314603
0.0178162
0.0053143
0.021995
0.0220605
0.0158386
0.00754048
0.00431472
0.0194132
0.0185781
0.00331173
0.0215543
0.0185547
0.0185602
0.0172261
0.0152853
0.0231838
0.0229669
0.00740336
0.0228073
0.0228893
0.00857075
0.00686869
0.0180491
0.00447566
0.00583044
0.0179241
0.0103929
0.0191975
0.0180205
0.00973251
0.0184054
0.0229266
0.00923927
0.00249434
0.0055639
0.0191497
0.0118991
0.0126115
0.0224045
0.0180922
0.022464
0.00617007
0.0152902
0.00467935
0.00113837
0.0155906
0.0210139
0.0177819
0.016707
0.00494721
0.00552335
0.0222879
0.000794996
0.0207234
0.0232794
0.00422782
0.0176487
0.00786089
0.0067608
0.00487645
0.0120235
0.00403046
0.00523141
0.00392232
0.0213364
0.0138045
0.0187942
0.0180785
0.0213808
0.00585702
0.020509
0.0131898
0.00688786
0.0205794
0.0135671
0.0132601
0.0171224
0.0131901
0.0232905
0.0187322
0.0217741
0.0192808
0.0198114
0.0229555
0.00841138
0.0198665
0.0107367
0.0111405
0.0229184
0.00506368
0.023
0.0224107
0.0111866
0.0138612
0.014972
0.0223932
0.0228967
0.00273423
0.0033756
0.0180398
0.00425799
0.0181329
0.0176663
0.00790785
0.0188521
0.0219817
0.0153729
0.0203022
0.0079582
0.0048779
0.0079144
0.0202325
0.0175845
0.0228747
0.0170488
0.00738505
0.00452939
0.0234071
0.0179515
0.0180022
0.00800652
0.0181358
0.0139488
0.00562414
0.0129603
0.0232108
0.00672296
0.0233485
0.0176231
0.0207654
0.0233751
0.0228416
0.00936477
0.0213668
0.0214817
0.00679607
0.011638
0.0181467
0.00745774
0.0208159
0.00751706
0.0199708
0.0187388
0.0174141
0.0139546
0.0206092
0.0040831
0.014619
0.0224278
0.0182804
0.0220495
0.0210503
0.021178
0.00635138
0.020167
0.0207751
0.0165696
0.0239008
0.0174008
0.023597
0.0175857
0.0156036
0.0189337
0.0196111
0.0174801
0.0221986
0.0229318
0.00617691
0.0157671
0.0152022
0.0175773
0.0231057
0.0166454
0.0226979
0.0225528
0.0181148
0.0139033
0.0203657
0.0122483
0.0181086
0.0183896
0.00634344
0.0230625
0.0229744
0.0226821
0.0125636
0.0053376
0.00433323
0.00437008
0.0167832
0.00793249
0.0221575
0.022026
0.0185579
0.0219931
0.0171481
0.0210264
0.0175529
0.0175999
0.020138
0.0161654
0.0202014
0.0159273
0.0239045
0.0210252
0.0239629
0.0239735
0.0234073
0.0239867
0.0228903
0.0206878
0.0211323
0.0209436
0.0239596
0.0220756
0.0238853
0.0211855
0.0198794
0.0200305
0.0238821
0.0217337
0.0186424
0.023729
0.0217552
0.0240384
0.0240529
0.0239428
0.0238387
0.0236416
0.024038
0.0232464
0.0240292
0.0204678
0.0239694
0.0203805
0.0239501
0.0227854
0.0220411
0.0239035
0.0236393
0.0237496
0.0179003
0.0211569
0.0161165
0.0187625
0.0212425
0.0211426
0.0237056
0.022043
0.0221929
0.0236446
0.0238205
0.0237853
0.0238592
0.023572
0.021265
0.0229459
0.0169674
0.0176522
0.0224637
0.0189308
0.0237198
0.0235312
0.0233909
0.0227206
0.02127
0.023135
0.0227915
0.0219445
0.0234861
0.0202033
0.021453
0.0177295
0.0234247
0.0213871
0.00874169
0.018115
0.0234774
0.022924
0.0234238
0.0218046
0.0223669
0.00757923
0.0219398
0.0177254
0.0200805
0.0211253
0.00768193
0.0197704
0.0199797
0.0237205
0.0238885
0.0231788
0.0222977
0.0240641
0.0232152
0.0231409
0.0240692
0.0184569
0.0239159
0.0152777
0.0237985
0.0233775
0.0237955
0.0238505
0.0225049
0.0133495
0.0201101
0.0221132
0.0192382
0.0199725
0.0221785
0.0237398
0.0239308
0.00487905
0.0202877
0.0213446
0.023339
0.0190353
0.0233451
0.0233112
0.0233409
0.0236227
0.0208924
0.0220558
0.0223196
0.0234624
0.0212527
0.0169551
0.0235401
0.021938
0.0234311
0.0234233
0.0205204
0.0227407
0.0212409
0.021359
0.0211203
0.0221121
0.0217705
0.0213522
0.021975
0.0165007
0.0184473
0.0235811
0.019706
0.0232913
0.02382
0.0043624
0.021473
0.017406
0.0169155
0.0176767
0.0176268
0.0165026
0.0175861
0.0175506
0.0177989
0.0174249
0.0176925
0.0175752
0.0177047
0.0176549
0.0177937
0.0175025
0.017376
0.0175969
0.017593
0.0161255
0.0233373
0.0234803
0.00886909
0.0234581
0.0176319
0.0191086
0.0226607
0.018569
0.0239784
0.0213491
0.0240621
0.0221203
0.0172997
0.0173922
0.0171259
0.0163988
0.0239651
0.0219748
0.0223623
0.0192135
0.0173943
0.0229314
0.00700543
0.0229395
0.0172102
0.0220456
0.0224712
0.0233367
0.0199608
0.0166789
0.0171574
0.0150129
0.015691
0.0170962
0.0146338
0.0175638
0.017445
0.0175779
0.0175049
0.0175255
0.0175509
0.0187285
0.0235718
0.0233839
0.0179944
0.0221626
0.0188093
0.0171248
0.0237478
0.0170416
0.0148249
0.0171376
0.0174986
0.016597
0.017578
0.0154891
0.0174268
0.0175464
0.0143991
0.0174337
0.0175659
0.0238121
0.0212976
0.0228736
0.0165791
0.0237382
0.021955
0.0239293
0.0209121
0.0237928
0.0233607
0.0216055
0.00358189
0.0229879
0.0239456
0.0237958
0.0238691
0.0211173
0.0237586
0.0229625
0.0169527
0.0236728
0.0233806
0.00542303
0.00255829
0.0236178
0.0235271
0.0209609
0.0165411
0.0217039
0.00595847
0.023205
0.0177085
0.0180876
0.0175319
0.0221781
0.0234389
0.0197228
0.0201992
0.0231926
0.0128114
0.0175056
0.0228201
0.0231221
0.017724
0.0237292
0.0234404
0.023614
0.0198363
0.0176702
0.023717
0.0237779
0.0238365
0.0235527
0.0235617
0.0217877
0.0233937
0.0198317
0.0214003
0.0217118
0.0235304
0.0170323
0.0232816
0.0236733
0.0211359
0.0235334
0.0230217
0.0235025
0.0187957
0.023386
0.0233012
0.0230129
0.0195988
0.0220809
0.022022
0.0130782
0.0232905
0.020066
0.0233352
0.0234082
0.0209425
0.0181754
0.0237238
0.0212397
0.0154997
0.0200898
0.0232997
0.0234442
0.0232462
0.0232123
0.0158258
0.0231726
0.0230611
0.0226248
0.0160343
0.0186831
0.023162
0.0229774
0.0222178
0.0187862
0.0216308
0.0205079
0.0190586
0.021982
0.0224403
0.0232865
0.0196273
0.0185942
0.0202036
0.00172601
0.0204779
0.00478348
0.0195485
0.0217225
0.00196569
0.0231908
0.0178311
0.0228457
0.0175135
0.0226947
0.0234013
0.0221108
0.0213209
0.022704
0.00580579
0.0233496
0.0233912
0.0186075
0.0194029
0.0184447
0.016004
0.0233592
0.0232511
0.0220157
0.0233713
0.0214129
0.0177899
0.0215144
0.0199367
0.0222393
0.0161619
0.0152033
0.0158023
0.0149067
0.0145584
0.0236097
0.0234356
0.0218835
0.0192221
0.0193157
0.0238106
0.0190353
0.0238788
0.0222019
0.0240256
0.0235708
0.0240473
0.0240289
0.0237176
0.023923
0.0239341
0.023778
0.0235254
0.0223085
0.0235425
0.0137926
0.0229905
0.0232377
0.0142157
0.0231459
0.0187254
0.0230175
0.022901
0.0237307
0.023526
0.0221248
0.0233153
0.0191072
0.0205531
0.0210047
0.0181671
0.0231046
0.0142015
0.0221482
0.0178598
0.0240527
0.0225114
0.0196607
0.00441311
0.00849396
0.02077
0.0189198
0.0185767
0.0234935
0.0227054
0.0232347
0.0237291
0.0197882
0.0238558
0.0239897
0.0238869
0.0238096
0.00264939
0.023875
0.0169724
0.0232551
0.0237733
0.0179231
0.0185495
0.0210049
0.00438674
0.0235582
0.0177481
0.0181627
0.0235346
0.0227764
0.0234222
0.0231665
0.0207815
0.022445
0.0234877
0.0234236
0.0127865
0.0231843
0.0232173
0.0229012
0.0142682
0.0198871
0.0221163
0.0221399
0.017942
0.0182837
0.0233433
0.0196576
0.0181119
0.00929707
0.017951
0.0231725
0.0186282
0.0227945
0.0222573
0.0232717
0.0235792
0.0215548
0.0233545
0.0232009
0.0229696
0.0226461
0.0224225
0.022735
0.0215027
0.0231916
0.023713
0.0220287
0.0125915
0.0106476
0.0223191
0.0217659
0.0214334
0.0198789
0.0209974
0.0175066
0.0221692
0.0233818
0.0142447
0.0228814
0.0222804
0.0232071
0.0203725
0.0222865
0.0179125
0.0213902
0.0224973
0.0187438
0.0218247
0.0192393
0.0223582
0.0221323
0.0202547
0.0209286
0.0200742
0.0200228
0.0222589
0.0231109
0.022092
0.0239725
0.0175782
0.0237661
0.0180166
0.0174802
0.016202
0.0177893
0.0176999
0.0156677
0.0177164
0.0174701
0.0150406
0.0177843
0.0175657
0.0143556
0.0176039
0.0176775
0.0147376
0.0210768
0.018526
0.0196614
0.0205179
0.015051
0.0224174
0.0230823
0.0200474
0.0172872
0.0197249
0.0210726
0.0152684
0.0218332
0.0230829
0.0157131
0.0236386
0.0220922
0.0238312
0.0185173
0.00241227
0.0219593
0.0232648
0.023117
0.0228891
0.0231368
0.0234468
0.0234195
0.00566577
0.0238409
0.0234012
0.0230222
0.0199137
0.0235162
0.0232024
0.0124941
0.0201341
0.0198437
0.0174945
0.0189767
0.0232853
0.0231058
0.0201872
0.00498639
0.0231577
0.0157445
0.0220745
0.0227057
0.0102183
0.0136721
0.0215706
0.0211573
0.0199028
0.0184502
0.0211885
0.0212211
0.0211729
0.0130226
0.0224056
0.0205723
0.0190018
0.0188456
0.0180727
0.0197196
0.0235692
0.0228927
0.00379428
0.0201319
0.0201655
0.0171028
0.0229403
0.000917733
0.0204846
0.00460385
0.0230918
0.017772
0.0210881
0.0213803
0.0227298
0.0209956
0.0218142
0.0209627
0.0214215
0.0185835
0.0179652
0.0208647
0.0230445
0.0184451
0.0183864
0.021826
0.0213352
0.0219684
0.0209965
0.0185309
0.0219665
0.0238269
0.0198459
0.0210251
0.0151628
0.0225209
0.018314
0.0209928
0.024067
0.0230064
0.0198095
0.00655195
0.0174809
0.0172386
0.0215004
0.0193529
0.0219149
0.0206902
0.0173321
0.0208061
0.0126376
0.00594492
0.018654
0.0217203
0.0219954
0.00522245
0.0211992
0.0208984
0.0206061
0.0185175
0.0151467
0.022857
0.0217763
0.00523777
0.0115604
0.0211649
0.0184928
0.0173531
0.0203636
0.00510599
0.0226831
0.0136003
0.0226392
0.0153669
0.0186385
0.0181582
0.0114451
0.0228913
0.00591365
0.0144757
0.020023
0.00804658
0.020159
0.0155979
0.0141087
0.0124477
0.0216827
0.0197459
0.0119528
0.0230423
0.0168479
0.0217848
0.023371
0.022339
0.0201722
0.0168419
0.0230719
0.0192623
0.0209245
0.0195245
0.0222455
0.0232906
0.0200165
0.023184
0.021747
0.0154862
0.00978067
0.0184257
0.0230491
0.0220661
0.0222853
0.021408
0.0222729
0.0227036
0.0071628
0.0184483
0.01688
0.00100646
0.020884
0.0210853
0.0197132
0.020749
0.0171442
0.0151703
0.0232005
0.0237205
0.0238929
0.0207373
0.0225325
0.0211329
0.0176966
0.0230491
0.0226757
0.0151517
0.00460936
0.0197129
0.0193256
0.0204208
0.011156
0.0220459
0.020678
0.0224749
0.0227596
0.0230874
0.0218512
0.021513
0.0204548
0.0225935
0.022916
0.0227386
0.00829941
0.00737085
0.0232861
0.0217058
0.0202496
0.0222415
0.019379
0.0231479
0.0218593
0.019749
0.0222947
0.00236162
0.0191429
0.00701931
0.0227818
0.0230946
0.0104823
0.0212748
0.0210316
0.0221748
0.0200542
0.0199287
0.0184472
0.0207562
0.0170347
0.0228465
0.0226794
0.0232717
0.0213202
0.0124919
0.0224945
0.0196415
0.0234306
0.0170577
0.00811129
0.0222733
0.0195622
0.0138884
0.0231019
0.0227687
0.022273
0.0177687
0.00565532
0.0038135
0.0235981
0.0229215
0.0200509
0.0209228
0.0159606
0.0193007
0.0230022
0.0214268
0.0170806
0.0199104
0.0136181
0.022286
0.020896
0.0198428
0.0132872
0.0192995
0.0205846
0.0203623
0.00710365
0.0204682
0.0200216
0.0152315
0.0229443
0.0185577
0.0199012
0.0164469
0.00502006
0.0179727
0.0206476
0.0214029
0.00438788
0.0198157
0.0174577
0.0191426
0.0111399
0.0220366
0.0180013
0.0201394
0.0110517
0.0156044
0.0230858
0.0200215
0.0230022
0.0227856
0.0184608
0.00903675
0.0222754
0.0230748
0.0230174
0.0139848
0.0211415
0.0180692
0.0185225
0.023065
0.0228476
0.00731523
0.0200885
0.0217926
0.0229736
0.0184529
0.0103755
0.00511199
0.00269269
0.00703856
0.0115367
0.0202999
0.0182587
0.022767
0.020983
0.0229872
0.0179728
0.0230905
0.006911
0.00392835
0.0228957
0.0230628
0.0153613
2.04588e-05
0.0151865
0.00824331
0.0216683
0.0131396
0.0230587
0.0194168
1.67586e-05
0.0228037
0.0143321
0.0223184
0.0225073
0.015642
0.0032204
0.00795472
0.0137753
0.0152225
0.0179019
0.00182564
0.021104
0.0137012
0.022761
0.0113851
0.0194465
0.0189205
0.0187972
0.0223865
0.0192925
0.0221467
0.00271189
0.0150039
0.00649533
0.00757727
0.0228903
0.0144575
0.0222083
0.0215236
0.0229278
0.019199
0.00987556
0.0221066
0.0199173
0.0130237
0.00573181
0.0233233
0.0214167
0.0122036
0.0213359
0.0232772
0.0200111
0.0177532
0.0202087
0.0194243
0.0230089
0.00622492
0.0226047
0.0225362
0.0230256
0.0160258
0.0134755
0.020653
0.0179909
0.012713
0.0157313
0.0159397
0.0211734
0.00387726
0.0174752
1.64418e-05
0.0122689
0.0114064
0.0221856
0.0231593
0.010903
0.0117791
0.0201368
0.0224378
0.0144333
0.0172739
0.0176394
0.0169827
1.77039e-05
0.0227205
0.0071508
0.0225634
0.00486256
0.0230095
0.0223937
0.0232832
0.0227409
0.00402637
0.022236
0.0138116
0.00276218
0.0233372
0.0174481
0.01382
2.17289e-05
0.0199217
0.0219372
0.0202475
0.0193356
0.0115899
0.0176598
0.0132239
0.0139195
0.0140817
3.1881e-05
0.0191517
0.0220008
0.0179957
0.00641751
0.0231303
0.0125884
0.0190828
0.0188016
0.0183803
0.0231953
0.00674072
0.0207822
0.022346
0.0168992
0.018117
0.0103809
0.0132428
0.00533562
0.00785993
0.0158308
0.00217402
0.0148727
0.0207872
0.0176084
2.42096e-05
0.0179684
0.0128913
0.0228025
0.00411754
0.00502504
0.0235416
0.0233108
0.0176479
0.0220997
0.0231306
0.0221172
0.0237663
0.0222548
0.0121647
0.0188465
0.0190116
0.0216863
0.0216599
0.0146538
1.53928e-05
0.0048874
0.0111389
0.00562009
0.0125624
0.00304444
0.0224899
0.0179229
0.00377502
0.0175755
0.0062693
0.0153586
0.0173078
2.82903e-05
0.0221126
0.0189012
0.0131039
0.023015
0.00959203
0.0130349
0.0166428
0.00683006
0.0228156
0.012544
0.0174502
0.0231801
0.0125884
0.000804925
0.0185554
0.0180933
0.0178952
0.0221449
0.0227109
0.00511003
0.023255
0.0184694
0.0119455
0.0228939
0.00920943
0.0164549
0.0221094
0.0177323
0.00569193
2.62746e-05
0.0090743
0.0103954
0.0114862
0.0215711
0.0157222
0.0226285
0.0224606
0.0144498
0.0201215
0.00693709
0.0126896
0.0115158
0.0114137
0.0222671
0.0130788
0.0228925
0.0188323
0.0227783
0.0188325
0.0136834
0.0230617
0.0201367
0.0180707
0.00602207
0.0227613
0.00756124
3.73562e-05
0.0234566
0.0019813
3.42096e-05
0.0122533
0.0229625
0.00449536
0.0180562
0.0221421
0.022946
0.00526986
0.0227592
0.0204124
0.021658
0.0141048
0.021089
0.0118564
0.0217314
0.0233945
0.0169177
0.0218883
0.0166645
0.0202678
0.0178068
0.0190523
0.0194368
0.0234878
0.019042
2.8816e-05
0.0164487
0.0199465
0.00339395
0.0167299
0.0121395
0.02213
0.0218786
0.00729674
0.0114987
0.0083843
0.0116463
0.00887329
0.0102591
0.0197915
0.0118299
0.00943177
0.0187828
0.0122279
0.0198323
0.00637196
0.00435999
0.00515765
0.0162866
0.00823728
0.0011018
0.0191762
0.022941
0.0229382
0.00850763
0.0129172
0.00370871
1.8687e-05
0.009285
0.0185885
0.0221901
0.0127748
0.0045232
0.0133999
0.0172441
0.0136646
0.0227089
0.00857786
0.00319752
0.0116933
0.00879724
0.00669663
0.0131998
0.0209838
0.00722999
0.0129763
0.00356675
0.0130387
0.00781928
0.0174905
0.0113104
0.0042888
0.0178655
0.00669229
0.0147925
0.0189338
0.00899838
0.0173299
1.91336e-05
0.0085144
0.0176793
0.0135854
4.79908e-05
0.0168318
0.0145587
0.00560375
0.0178796
0.012731
0.018128
0.0222924
0.0192714
0.0219532
0.0228169
0.021552
0.0214571
0.0200761
0.0222933
0.0180132
0.00998151
0.0227863
0.0152206
0.000798204
0.00905386
0.0222942
0.0170806
0.0178779
0.00854329
0.0196889
0.00561476
0.00823422
0.0214901
0.0123736
0.0119393
0.00734846
0.0217497
0.0189682
0.00981121
8.91638e-05
0.00644089
0.0226048
0.0229599
0.0214232
0.0211681
0.0132814
0.0203595
0.0220389
0.020321
0.0102053
0.0210187
0.0167281
0.0183697
0.0230201
0.00870331
0.0175715
0.0176548
0.0181077
0.00949065
0.0197954
0.00998067
0.0237715
0.0175886
0.0234835
0.0162963
0.00767399
0.00685695
4.41365e-05
1.75148e-05
0.0184043
0.0166452
0.0101245
0.022354
0.00601389
0.0194816
0.0176563
0.0189336
0.0192448
0.00839559
0.0197639
0.0177983
0.000742023
0.00589733
0.00276662
0.0106503
0.0173527
0.00915263
0.00409676
0.0227822
0.0161676
5.5898e-05
0.016432
0.0229456
0.0120193
0.0206096
0.0143703
0.0123058
0.0140371
0.0211496
0.0179194
0.0108338
0.0222694
0.0160379
0.0224941
0.0150521
0.0227649
0.0112877
0.0179702
0.00812416
0.0201707
0.0186225
0.0185243
0.0174961
0.0103553
0.0119348
0.0216127
0.0202223
0.0220484
0.0229016
0.0171549
0.0218139
0.00265018
0.00186958
0.00737072
0.0228264
0.0203176
3.78525e-05
3.80048e-05
0.00314585
0.00475878
0.00970948
0.0188928
0.0151662
0.00870792
0.0229808
0.00899342
0.0231109
0.0176943
0.0225061
0.0091253
0.0228356
4.00374e-05
0.0227365
0.00507008
0.0109482
0.0203817
0.00746448
0.0177375
0.00414047
0.0152595
0.0177027
0.0188737
0.00717077
0.00453326
0.0184853
2.27018e-05
0.0132776
0.0188449
0.00571019
0.0223331
0.00860847
0.0205205
0.0187674
0.0225919
3.48551e-05
0.0216163
0.00841379
0.0213744
0.0216134
0.022753
0.0226252
0.0223816
0.0209346
0.00941764
0.0141247
0.0169091
0.0151203
0.0175882
0.0224636
0.0229747
0.0221304
0.00818622
0.0176078
0.0226447
0.0177539
0.0222277
0.023756
0.00522772
0.0202729
0.0181048
0.0204317
0.0111894
0.0179075
0.0197866
0.0084121
0.0116316
0.022651
0.0225034
0.00256963
3.7045e-05
0.00415211
0.0212319
0.0180494
0.00421225
0.0211334
0.0186539
0.0225283
0.00994673
0.0158302
0.00582522
0.0225657
0.00930226
0.015311
0.00600803
4.34232e-05
0.0185447
0.0207002
0.0203047
0.000905136
0.0226557
0.0197321
0.0160059
0.0149261
0.018983
0.0214611
0.0179255
0.0199403
0.0227339
0.00932009
0.0187798
0.00800657
1.95543e-05
0.0115246
0.0199619
2.5398e-05
0.0131988
0.0059873
0.00620276
0.0193744
0.0194764
0.0182519
0.0160855
0.0098422
0.0186016
0.010102
0.0223305
0.0189349
0.0200765
0.0228373
0.00901663
0.0213276
0.0225384
4.33087e-05
0.00531603
0.0184732
0.0102405
4.6732e-05
0.00765503
0.0131002
2.29537e-05
0.0052201
0.0225699
0.016908
0.0147323
0.0228769
0.017577
0.02292
0.0181211
0.0189254
0.0181923
0.0067054
4.94836e-05
0.0186139
0.0092828
0.0223619
0.0219412
0.0228135
0.00880531
2.1802e-05
0.0172741
0.0230449
0.00927917
0.00809676
0.0029504
0.0117945
0.0183093
0.0127914
0.0220581
0.021804
0.0190469
0.0223829
0.0104236
0.0221647
0.0137332
0.0105217
0.000849306
4.49321e-05
0.0222644
0.019081
0.0158815
0.010733
0.0109331
0.0168866
0.0155097
0.00628777
0.00527504
0.00773148
0.00551953
4.83608e-05
0.00640219
0.0191715
0.0223721
0.0188332
0.0046799
0.0210543
0.0176297
0.0205985
0.0114285
0.0151948
0.0145209
0.00960363
0.00899874
0.0211586
0.00983433
0.0155313
2.14539e-05
0.0222292
0.00491111
0.0103487
0.00309319
0.0175851
0.0104412
0.0150518
0.00181
0.0229247
0.0147092
0.017597
0.0224078
0.022535
0.000640328
0.0199505
0.00134
0.00627548
0.00338983
0.0227297
0.00543157
0.0228826
0.00985335
0.017084
0.0111774
0.0226087
0.0229145
3.45907e-05
0.00668505
0.0220151
2.36968e-05
0.0127966
0.0214043
0.0218528
0.0215431
0.00999895
2.03943e-05
0.0195919
0.0212788
0.0185469
0.0150024
0.0200353
0.0219714
0.0165369
0.0171154
4.56077e-05
0.0180561
1.97273e-05
0.0201796
0.00196419
0.00452463
0.0141674
0.014826
0.00212972
0.0226744
0.0179898
0.0183317
0.0207321
3.04417e-05
0.0191729
0.0223767
0.0102464
0.00779738
0.00992489
0.0168289
0.00195948
0.0187729
0.0210807
0.0228023
0.0102449
0.0104548
0.018681
0.00769854
0.0211761
0.0076664
0.00820193
0.000679421
0.0202032
0.00841806
0.0215952
0.0229467
0.000728838
0.00414848
0.0204155
0.0194866
0.012403
0.0141729
0.0212486
0.0215631
0.0148358
0.010862
0.0229547
0.0229627
0.00397135
0.0216903
0.011064
0.0229644
0.00407133
2.9934e-05
0.0179475
4.08838e-05
0.00987473
0.0199641
0.0113408
0.00888613
0.0121742
0.00845734
0.0164346
0.021076
0.0200739
0.0228007
0.0224258
0.0107373
0.0186198
0.00575574
3.2686e-05
0.0224948
0.0191591
0.0202315
0.0205795
0.0209255
0.02126
0.0233301
0.0187985
0.0186739
0.0216198
0.0182262
0.0200454
0.0196187
0.0186446
0.0211157
0.0215489
0.00235587
0.00856668
0.00867928
0.00918336
0.0183339
0.00293946
0.0195325
0.000696192
0.0209424
0.0172244
0.00978272
0.0139915
0.0179312
0.0196663
0.0214329
0.00257199
0.0205993
0.0118004
0.0208976
0.0209447
0.0223392
0.0110981
0.00906135
0.0156642
0.0173862
0.0205339
0.0227612
0.0192924
0.0126055
0.015572
0.0176616
0.0202182
0.0207616
0.0192022
0.011293
0.00112763
0.003817
0.0145882
0.00417024
0.0112049
0.00753632
0.013295
0.0141522
0.00928914
0.00205041
0.0215225
0.00605086
0.0106293
0.0060209
0.00184451
0.0155613
0.0194134
0.0111626
0.0190547
0.000771313
0.00793253
0.000926436
0.0189167
0.0170903
0.0110612
0.00601649
0.0196771
0.0073802
0.0140394
0.0211348
0.0221796
0.0220885
0.017904
0.017715
0.0226486
0.0229242
0.00564435
0.0228917
0.00979307
0.00977126
0.00250461
0.0206512
0.0135732
0.0141005
0.00195651
0.0177209
0.013629
0.0229608
0.00444152
0.0112492
0.00917168
0.0176743
0.0193688
0.0206058
0.000835415
0.0116325
0.0158247
0.0192062
0.00829824
0.0108404
0.0209799
0.0182809
0.0171812
0.00688752
0.0179343
0.0199364
0.0084188
0.0137931
0.022935
0.00710459
0.0163267
0.00599877
0.0173089
0.00244933
0.0100767
0.0209706
0.0169173
0.00571606
0.0141393
0.0219511
0.000712718
0.00986026
0.00105635
0.0125886
0.011342
0.0145348
0.0211012
0.00627505
0.0177699
0.0222413
0.0196308
0.02061
0.0222268
0.00343087
0.00761447
0.00954598
0.0134105
0.0188041
0.0151388
0.0229896
0.0165515
1.81296e-05
0.0132756
0.0198613
0.0215952
0.0108447
0.0177648
0.00719821
0.018034
0.00614378
0.0225879
0.00811893
0.019932
0.00844733
0.0167737
0.0208483
0.00911023
0.00267966
0.000970245
0.0179583
0.00319069
0.0128187
0.0109127
0.0167218
0.0159244
0.0135816
0.0159865
0.0213053
0.0178876
0.0101887
0.0167571
0.00989047
0.00476104
0.0202678
0.00940508
0.0184207
0.00876192
0.0228579
0.0220186
0.0222294
0.0201488
0.00581632
0.00627244
0.017412
0.0140007
0.0201884
0.0203014
0.0174303
0.0187341
0.0225771
0.0229261
0.0235145
0.0195374
0.018071
0.0081478
2.65304e-05
0.0195737
0.0177622
0.0137086
0.00543846
0.0162548
0.0188796
0.0225237
0.00533918
0.0202252
0.0229607
0.0229621
0.00380089
0.0225642
0.0185235
0.0198748
0.0149725
0.000220059
0.0109015
0.021187
1.66737e-05
0.00360688
0.0228604
0.0108419
0.00585738
0.022181
0.00981775
0.0183716
0.0224043
0.0181268
0.00371361
0.018925
0.0136824
0.0101302
0.0226406
0.0208629
0.00463511
0.017883
0.00279564
0.0212593
0.0143864
0.0154819
0.0234066
0.0123249
0.00726463
0.0221652
0.0181933
0.0122992
0.0195013
0.00762823
0.00341459
0.00574646
0.0175454
0.018409
0.0224277
0.0085282
0.0185177
0.018245
0.0193768
0.0153196
0.0223331
0.0238094
0.018329
0.0219212
0.012016
0.009839
0.0162444
0.0202126
0.00567637
0.0199263
0.0175981
0.0173298
0.00121188
0.0229583
0.019481
0.00400709
0.0184543
0.0225255
0.0220896
0.0099292
0.0225508
0.0133986
0.00704591
0.0205131
0.00771284
0.0171552
0.0231471
0.00605066
0.00886339
0.00382851
0.0179801
0.0138236
0.0173108
1.90611e-05
0.00567534
0.0228932
0.0144779
0.0227549
0.00971662
0.0225482
0.0225159
0.020827
0.0185432
0.0190976
0.0228771
0.00343712
0.0192588
0.0205391
0.0227286
0.0197938
0.000956903
0.0130073
5.22534e-05
0.0186514
0.0233519
0.00538085
0.0226195
0.0221088
0.018961
0.0229865
0.0228644
0.0162099
0.0183745
0.0194681
0.0133059
0.0093254
0.00479052
1.08415e-05
0.0117248
0.0219745
2.75138e-05
0.00228576
0.0147713
0.00110814
0.00187782
0.00411892
0.0118334
0.0190385
0.00350067
0.0176547
0.00958078
0.0185644
0.0179106
0.0210513
0.018759
0.00794097
0.0154845
0.00130749
0.021893
0.0235454
0.0219235
0.0160708
0.0177827
0.0196371
0.016806
0.0109673
0.0171823
0.00490355
0.0230153
0.0223703
0.00969391
0.0185502
0.0177477
0.0162421
0.0179354
0.0156603
0.000767073
0.0207314
0.0213401
0.013349
0.0172391
0.0106623
0.0110812
0.0131704
0.0181682
0.0190934
0.0141234
0.00804082
0.0207726
0.0188801
0.00700449
0.0192048
0.0204345
0.0144582
0.0208793
0.00407456
0.0205041
0.00992251
0.0201177
0.0231138
0.017988
0.0197271
0.0215734
0.0124103
0.0178594
0.0177622
0.0181751
0.0131477
0.00869441
0.0184595
0.0155242
0.0088201
0.0116287
0.019652
0.0100548
0.00704797
0.00375436
0.0228951
0.00554332
0.0180998
0.00946819
0.018901
0.0126451
0.00284116
0.00590301
0.0226652
0.0229947
0.0110969
9.86131e-05
5.88637e-05
0.0186213
0.00374562
0.018215
0.021504
0.00683902
0.0128756
0.0188805
0.0112662
0.017168
0.0221221
0.00564505
0.00255204
0.0120611
0.018614
0.0216475
0.0171344
0.0187449
0.0209876
0.0186808
0.00785502
0.00824082
0.00998897
0.0187475
0.0181577
0.00815448
0.00992346
0.0112413
0.0160167
0.00799148
0.00875965
0.0227362
0.0227052
0.0176687
0.0192826
0.0194781
0.00102652
0.0113478
0.0228004
0.0230177
0.0228933
0.0182284
0.0167325
0.000868888
0.00892648
0.0180369
0.0177401
0.0179703
0.000673249
0.0123175
0.0102953
0.0226381
0.0121905
0.0225014
0.0179474
0.0120834
0.021608
0.0029072
0.016783
0.0193965
0.00847036
0.0203628
0.00550423
0.0074676
0.0166923
0.0087802
0.0220875
0.0162933
0.00413799
0.0144228
0.0185354
0.00799748
0.00737848
0.0223742
0.0197106
0.00720323
0.000769968
0.0192693
0.0117116
0.00876861
0.0154074
0.00104795
0.00763664
0.00103293
0.00739114
0.00590806
0.00608957
0.00920679
0.011733
0.00866507
0.0109306
0.0178692
0.0197041
0.0195097
0.0118396
0.0194163
0.00880524
0.00117014
0.0210687
0.0200088
0.017745
0.0179413
0.0197824
0.00922127
0.0134177
0.0128369
0.0144328
0.0101305
0.00956303
0.0193485
0.0189032
0.00952789
0.0179606
0.0217806
0.0223878
0.0187126
0.000881823
0.0226407
0.00295555
0.0227595
0.0219752
0.00215454
0.0182015
0.0133386
0.00873187
0.0103221
0.00686708
0.0213707
0.0227504
0.0183787
0.0176817
0.0157037
0.00696756
0.00617198
0.0188434
0.00360173
0.00877671
0.00673517
0.0226232
0.0215266
0.01984
0.0178212
0.0102868
0.0160016
0.00946463
0.0176554
0.00726091
0.0125379
0.0176243
0.0114509
0.00968756
0.0179447
0.0112269
0.0114169
0.0129716
0.016743
0.0012409
0.017692
0.0180278
0.0168656
0.0118264
0.0219427
0.00648127
0.0129784
0.00564054
0.0178567
0.0225299
0.00922805
0.0181502
0.0222557
0.0131592
0.00478269
0.0201094
0.0131882
0.0177835