/*--------------------------------*- C++ -*----------------------------------*\
  =========                 |
  \\      /  F ield         | OpenFOAM: The Open Source CFD Toolbox
   \\    /   O peration     | Website:  https://openfoam.org
    \\  /    A nd           | Version:  10
     \\/     M anipulation  |
\*---------------------------------------------------------------------------*/
FoamFile
{
    format      ascii;
    class       volScalarField;
    location    "1157";
    object      p;
}
// * * * * * * * * * * * * * * * * * * * * * * * * * * * * * * * * * * * * * //

dimensions      [0 2 -2 0 0 0 0];

internalField   nonuniform List<scalar> 
23845
(
-0.128202
-0.170416
-0.254594
-0.251537
-0.148003
6.17847e-06
-0.239025
-0.256867
-0.000841237
-0.0868098
-0.0167682
0.000229345
0.000533608
-0.000328803
-0.246382
-0.0424066
0.000937829
0.000278382
-0.00124806
0.000557076
-0.147021
-0.0154397
-0.19202
-0.000396011
-0.0492567
-0.000108926
-0.216047
0.00311847
-0.264498
0.000400854
-0.247378
-0.243653
-0.256929
-2.46702e-05
0.000349751
0.000728262
-0.253781
8.73993e-05
0.00106611
0.000190843
-0.00523473
0.00128837
0.00016601
-1.59651e-05
0.000100324
0.0010404
-0.165588
-0.0327112
-0.23664
-0.267213
-0.244543
-0.247136
-0.236699
0.000947621
-0.246204
0.000456025
-0.195067
-0.254036
-0.150386
-0.231447
-0.262897
0.00238417
-0.0277695
-0.265112
-0.00021735
-0.00136274
-0.227796
-0.000738185
-0.00176142
-0.00365254
-0.259354
-0.259071
-0.000444106
-0.245882
-0.00126936
-0.247529
0.000275092
-0.000390692
-0.253636
-0.000871456
-0.198921
-0.2395
-0.181445
-0.257644
-0.250679
0.000435146
-0.234109
-0.234201
-0.0006735
-0.00139567
-0.248959
-0.0124618
-0.266649
0.00187617
-0.251078
-0.253296
-0.00173106
-0.0379224
-0.00033578
-0.148789
0.000111906
-0.242285
-0.110961
-0.274723
-0.269248
-0.256635
-0.000333499
-0.00106621
-0.229285
0.00142341
-0.0131309
-0.000355854
-0.254952
-0.0626651
0.000576688
-0.128259
-0.000438359
-0.0668643
-0.263358
-0.262904
0.000292077
-0.247676
-0.00421325
-0.261377
-0.233493
0.0013212
-0.262014
-0.268472
-0.257308
-0.187056
-0.259001
-0.0598103
-0.0388248
-0.000395162
0.00111119
-0.118487
-0.272717
0.000262512
-0.224308
4.62972e-05
-0.263299
0.000761651
0.000525444
0.000362447
-0.0170672
0.0010294
-0.0995599
-0.24595
-0.262471
-0.005035
-0.242016
0.000798124
-0.223983
-0.000891596
-0.254702
-0.00875031
-0.119831
0.000387737
-0.25974
-0.25807
-0.00813034
-0.250097
-0.249844
-0.000310704
-0.00179779
-0.0034282
-0.000565236
-0.250615
-0.000977851
0.000731402
-0.000895294
-0.252748
9.95595e-05
-0.261101
-0.000463065
-0.252626
-0.0179064
-0.0175816
0.000644482
0.00058309
-0.142545
-0.145579
-0.243749
-0.0100915
-0.0254655
-0.000349255
0.00207933
-0.257066
-0.265693
0.000730637
-0.267184
-0.00182164
-0.000303519
-2.8645e-05
-0.0147555
-0.000596915
-0.272187
-0.267365
-0.281999
-0.0160817
-0.00210096
-0.00113038
-0.26258
-0.0517935
-0.257267
-0.250933
-0.25633
5.12685e-05
-0.172882
0.00055467
-0.00233123
-0.255181
-0.0282311
-0.00189579
-0.24006
-0.25056
-0.047234
0.00137659
-0.26502
-0.258396
0.000475771
-0.247738
-0.272495
-0.00984961
0.00156576
-0.248024
-0.267919
0.00126582
-0.000256361
-0.00616844
0.000855183
-0.237532
0.00056682
1.37486e-05
-0.13377
-0.262656
-0.000296168
-0.248394
0.00244623
-0.256269
-0.235903
-0.0802038
-0.255564
-0.124851
-0.248501
-0.0331966
-5.12178e-05
0.00211267
-0.251416
-0.241588
0.00149511
0.000680574
-0.245594
-6.55738e-05
-0.237081
-0.251275
-0.262486
-0.251344
0.000288532
-0.000441516
-0.232576
-5.52051e-05
-0.261298
-0.0106595
-0.00752969
0.00138329
-0.251886
-0.262727
-0.233984
-0.250419
0.000360059
-0.254604
-0.242028
0.000894954
-0.0114669
-0.000396232
-0.250827
0.00213934
-0.278068
-0.193233
-0.257302
0.000477146
-0.246783
-0.0107236
0.000481657
-0.263446
-0.258754
9.61516e-06
-0.252235
-0.251534
-0.252334
-0.240305
-0.264685
-0.251526
-0.252241
0.000351952
-0.263661
-0.000386581
0.000276828
-0.260557
-0.262583
-0.24473
-0.263342
-0.249371
-0.000304953
-0.248299
-0.267021
-0.243021
-0.000900682
-0.27128
-0.241286
-0.220222
-0.000195846
0.0035832
-0.254295
-0.264704
-0.263438
-0.035966
-0.252416
0.000102093
-0.270192
-0.25303
-0.262266
0.00101984
-0.250524
0.000287904
-0.252315
-0.196458
-0.263266
0.00118275
-0.248679
-0.0123717
-0.24718
4.0727e-05
-0.259986
-0.249233
-0.250844
-0.000141839
0.000956706
-0.252463
-0.253992
-0.262359
-0.0156663
0.00076659
0.0004835
-0.282161
0.000320805
-0.251851
-0.252861
-0.246313
-0.247522
-0.263183
-0.268831
-0.249137
-0.236659
0.00230578
0.000816878
-0.00120019
-0.250758
-0.253639
-0.259601
0.00255894
-0.0932979
-0.00869092
-0.264778
-2.48674e-05
-0.260435
-0.000904577
-0.262112
0.000368861
0.00127357
-0.250691
-0.271624
0.000115095
-0.000501467
-0.249519
-0.25266
-0.249903
0.00116257
-0.256927
-0.247967
0.000697054
-0.179876
-0.000458891
7.1005e-05
0.000602916
0.000760844
-0.251871
-0.00163709
-0.252162
-0.230757
0.00183322
-0.267518
-0.270758
-0.240724
-0.258289
-0.00671593
0.000136128
-0.00427054
0.0002803
-0.253076
-0.237642
-0.250371
-0.255373
-0.223276
-0.24627
-0.00018141
-0.268858
-0.267888
-0.262599
-0.250906
0.0010893
-0.234456
-0.26281
-0.121572
-0.25374
-0.231453
-0.00856906
0.000691889
-0.122087
-0.264156
0.000637962
0.000332657
-0.25298
-0.261826
-0.158198
-0.272608
-0.245313
-0.26063
-0.260364
-0.000502257
0.000130631
-0.262301
0.000418564
0.000468656
0.000335165
0.000870142
-0.000138124
-0.264449
-0.260526
-0.249191
-0.268433
-0.269713
-0.26265
-0.241936
-0.26397
0.00101236
-0.219854
0.00126802
-0.255094
-0.254568
0.00160973
-0.275651
0.000800439
-0.000710358
-0.260876
-0.220846
-0.0578218
-0.250646
-0.00257397
-0.194051
-0.252536
-0.270601
-0.20931
0.00148334
-0.000132802
0.00028705
-0.238618
-4.27003e-05
-0.255411
0.00172633
-0.000447492
-0.240634
-0.26241
-0.265932
-0.123727
-0.000907471
-0.24639
-0.000553857
-0.00441236
-0.195433
-0.222417
-0.246048
-0.0163671
-0.00157907
-0.244288
-8.41577e-05
0.000356093
-0.249039
-0.261785
-0.000361772
-0.262456
-0.251801
-0.211482
-0.25886
-0.176983
-0.000785886
-0.255263
-0.000160382
0.000483848
-0.233524
-0.260634
-0.26143
-0.186743
-0.256708
-0.255289
-0.00883602
-0.000663187
1.19697e-05
-0.261635
-0.246189
-0.262443
-0.254667
-0.243712
0.00131752
0.000349072
-0.230272
-0.25528
-0.254548
0.0067279
-0.247257
-0.000124491
0.00041411
-0.26486
-0.000917166
-0.24821
-0.253344
-0.264712
-0.177436
-0.259527
-0.261117
-0.269428
-0.0937813
-0.189854
7.95945e-05
-0.000680649
-0.00104617
-0.263579
-0.14863
-0.254124
-0.259046
0.00325507
-0.178749
-0.179315
-0.0118857
-0.177733
-0.0184123
0.00366958
-0.000209828
0.000992035
-0.00157539
0.000368225
-0.260826
-0.00110076
-0.255224
-0.206493
0.00146829
-0.261242
-3.158e-05
0.00222644
-0.251193
-0.252906
-0.205743
-0.000374282
0.00286868
-0.271627
-0.268767
-0.000965875
-0.26471
-5.56773e-05
-0.000454501
-0.244204
-0.000788784
0.000913012
-0.051185
-0.125325
-0.262797
-0.249675
-0.251277
-0.147848
-4.92152e-05
0.000310523
-0.0124258
-0.249634
-0.263957
0.00197453
0.000860512
0.000858411
-0.249612
-0.00145522
-0.199811
-0.25058
-0.153446
-0.00775976
-0.255568
-0.000780706
-0.000745312
0.00339998
0.000542017
0.000348599
-0.252905
-0.000267777
-0.121664
-0.247437
-0.257536
-0.0468524
-0.249123
-0.135102
-0.241226
-0.00774241
-0.193555
-0.123818
-0.202351
-0.1232
-0.263695
-0.122581
-0.0671612
-0.103536
0.000383925
-0.000795618
-0.125991
-0.259479
-0.158795
-0.00315411
-0.150167
-0.00126009
-0.0041467
0.000778132
-0.00140047
-0.0546479
0.000587318
0.000799898
-0.212189
-0.000317203
0.000353688
-0.254833
-0.113975
-0.0599259
-0.000462284
-0.00812867
-0.184347
-0.00256816
0.00163564
-0.000593333
-0.116083
-0.0374307
-0.144935
-2.37313e-05
-0.0421924
-0.255341
0.000451095
0.000577673
-0.0734244
-0.256129
-0.264129
-0.266924
-0.262049
-0.0437625
-0.262228
-0.0151501
-0.0039619
-0.0012546
-0.000556355
-0.146736
-0.000594955
-0.00139471
-0.00118521
-0.115544
-0.237537
-0.0287819
-0.0443901
-0.00312203
-0.011611
-0.00743593
-0.00375537
-0.0448355
-0.00143825
-0.0620467
-0.0129542
-0.000349572
-0.019183
0.000830014
0.00302097
0.000301147
0.000246825
-0.0437571
0.00037837
0.0014468
-0.0372247
-0.0379399
0.00181895
0.000464474
-0.00510911
-0.00927973
-0.014455
-0.0224287
-0.0381974
-0.00192868
-0.0548672
-0.00132723
-0.0187757
0.000304042
-0.00972156
0.000427656
0.000556827
-7.80678e-05
-8.86861e-05
0.00110444
0.000630474
-0.00125565
3.71376e-05
-0.235321
0.00184869
0.000604833
0.000240833
0.000834567
0.000239947
-0.00718502
0.0015911
-0.0093666
-0.0156463
-0.000760139
0.00198453
-0.000340227
0.000518454
-0.0265466
-0.0113635
-0.0813187
0.00210078
-0.00725482
0.000811671
0.000671078
0.000856888
0.000213928
-0.0317037
0.00192589
-0.107451
0.00159994
-0.000204313
-0.000668521
-0.000888157
0.00122398
3.78603e-05
-0.260969
0.00117628
-0.00115604
-0.0676303
0.000906604
0.000878795
0.0010186
-0.235861
-0.00357522
-0.000211155
-0.040949
0.00144174
-0.261191
-0.0214242
-0.0146352
-0.0286615
-0.0185144
-0.0523523
-0.0043402
-0.00203545
-0.00527963
-0.0142923
-7.69437e-05
-0.00795133
0.00119795
-0.161542
-0.000471472
0.000645491
-0.0385218
-0.0235529
-0.0307069
-0.252562
-0.00864781
-0.00316608
-0.104408
-0.0134205
0.00153915
0.00072351
-9.70353e-05
-0.245444
0.00240284
-0.00716011
0.00191977
-6.71833e-05
0.00135076
0.00260526
0.000987416
0.00106182
-0.000314788
0.000191009
0.00101185
0.00154954
0.00114691
-0.183865
0.00112889
0.00136667
0.00192126
0.00278595
0.000534612
-0.0601157
-0.00291597
-0.0146654
-0.00143305
0.0033639
0.00167805
0.000473756
0.00428794
-0.128214
-0.0277814
-0.0258931
0.000736056
0.000485457
-0.00339307
-0.265201
-0.00861369
-0.00556352
-0.0155323
-0.000520655
-0.00115864
-0.0260657
-0.00181285
-0.00200637
-0.000332889
-0.00387918
-0.00119278
-0.000337525
-0.000855377
-0.00113104
-0.000235468
-0.00155958
-0.00481057
-0.000954107
-0.00161488
-0.0411045
0.00129427
-0.00153387
-0.256423
-0.0441278
0.000409754
-2.97893e-05
0.000692604
-0.024492
-0.0129456
-0.0160512
-0.00784661
0.000318032
-0.00880828
-0.00540091
-0.0089175
-0.0311553
-6.25257e-05
0.00192609
-0.000423251
-0.00110317
-0.00671328
0.000348718
-0.247051
0.00053079
-0.0273082
0.00333891
-0.0643656
0.000815128
-0.00110068
-0.0216803
-0.00819902
-0.0877973
-0.058631
-0.0104157
-0.105967
-0.00167679
-0.00335677
0.000123808
-4.16191e-05
-0.000434091
-0.000138856
-0.000635909
0.00093574
-0.000805474
-0.02478
0.00084507
-0.0240157
-0.0311081
-0.0182852
-0.0117192
-0.0967928
-0.00938441
-0.000439934
-0.0244
-0.000188916
-0.0651965
-0.00375006
-0.00046132
-0.115298
-0.00385355
-0.000472528
-0.00825516
0.000981892
0.000653872
-0.232633
-0.00108438
0.000848357
-0.00183444
0.000730158
0.00111574
0.000532737
-0.0083158
-0.268749
0.00055554
-0.00015027
-0.00402638
-0.00684486
-0.11049
-0.0133804
0.00160382
-0.0139226
0.000138423
0.00324345
-0.257249
-0.272567
0.00110858
-0.00013844
0.00320311
-0.22301
0.000295944
-0.2508
0.00192426
-0.00012484
-0.00313131
-0.00210069
0.000858112
0.000764777
0.00117884
-0.100527
0.000483874
-0.139645
-0.0108113
-0.0414658
-0.000248467
-0.0103019
-0.00133409
-0.00623131
-0.00207852
-0.000665833
-0.0199654
0.0003705
-0.0115996
-0.0171997
-0.0257782
0.00327145
-0.0102498
-0.0140659
4.07378e-05
-0.0310905
-0.0175576
-0.00778022
-0.0392985
0.000392774
0.0013268
0.000778918
0.00134637
0.00146645
0.000349397
-0.00976264
0.000313003
0.00099
-0.00630066
-0.00550831
-0.00603359
-0.000121718
-0.211235
0.00134583
7.53587e-05
0.00145023
0.000959845
-0.00110929
-0.00211913
-0.0123167
-0.0974996
-0.134688
0.000250379
-0.00173676
-0.0206932
-0.0402203
0.00174045
-0.0456736
-0.00135009
-0.00328309
-0.00962631
-0.0407711
-0.00124154
-0.0125972
-0.0270741
-0.013469
-0.0318129
-0.0236188
-0.0293441
0.00152491
0.00149041
0.00206968
0.00112495
-0.00749576
-0.0133656
0.000182987
-0.281201
0.000673196
-0.256265
0.000223238
0.000520205
-0.269521
0.00101349
-0.00132368
0.000113056
-0.000263273
-0.00197393
0.000823608
0.00152467
0.00119941
-0.044934
-0.263798
0.000804373
-0.00126542
-0.00484816
-0.179555
-0.204117
-0.127546
-0.0169395
0.000664693
-0.00161138
0.00251477
0.000470035
-0.000440503
0.00279465
-0.135006
-0.0938594
-0.0380602
-0.0850999
-0.0566327
-0.103722
-0.124435
-0.0388289
0.00143323
-0.072283
-0.0212115
-0.0293669
-0.0276967
-0.00984964
-0.0163683
0.000587196
-0.0118829
0.0020205
-0.00726238
-0.00125709
0.0001441
0.00108747
0.000120878
0.00120137
0.00043728
3.15739e-05
-0.00273829
-0.165654
-0.0612005
0.000800837
-0.0907693
0.000711499
-0.00223329
0.00371111
0.000347895
0.000489015
0.00288561
-0.000114826
0.00176786
-0.003194
-0.000546414
-0.118739
-0.00156281
0.00123093
-0.0821773
-0.000639202
-0.000735112
-0.00379194
-0.0493137
-0.0014866
-0.259076
-0.254659
0.000488522
-0.00893334
-0.0120773
-0.0220109
0.000208828
0.00151836
-0.0130789
-0.00528554
-0.00909847
-0.00547903
-0.00225529
0.000758593
-0.275561
0.000582762
-0.0347692
0.00101755
0.00093335
-0.0537084
-0.000404643
-4.47391e-05
-0.263576
0.00136886
-1.76398e-05
-0.000133586
0.00148551
0.0020736
0.000924181
0.00124152
0.00120978
-0.0711897
0.00201411
0.00181558
-0.191753
0.000552024
0.00175668
0.00167975
-0.216117
0.000248299
0.000328285
-0.0852446
0.000285968
-0.00156627
0.00120237
-0.000377877
-0.0002775
-0.261142
-0.00110439
0.00186337
-0.00923364
-0.021155
-0.0924393
-0.0144657
-0.00573566
-0.000559002
0.00123677
0.00106453
-0.0017097
0.00137925
-0.0599433
0.00114663
0.000891059
-0.000433338
-0.000413952
0.000757048
-0.246914
-0.259626
0.00128278
-0.000427357
0.00020496
-0.170536
0.000526758
-0.000731781
-0.016925
0.000643541
-0.25127
0.00067014
0.00214555
0.000571427
-0.00158611
-0.000274773
-0.00283056
-0.0120565
6.35824e-05
-0.027402
-0.00205852
0.000971192
-0.00377296
0.00236383
-0.0021017
-0.010898
-0.00475576
-0.0117186
0.000665103
0.00138789
-0.000352992
-0.00257355
-0.00238279
0.00171034
-0.00418187
-0.00337324
-0.0401012
-0.000487527
-0.00071067
-0.0630983
9.61039e-05
-0.00260146
-0.0947353
6.61134e-06
-0.00202164
-0.13519
-0.00132821
-0.00053907
-0.11212
-0.0575228
-0.176443
-0.000994809
0.00397154
-0.0644966
-0.000347323
0.000559665
-0.112369
-0.0300159
-0.0516701
0.00067655
-0.0776484
0.000563358
-0.00226789
-0.0487793
-0.0166152
-0.00034739
-0.0142411
-0.0748635
-0.279376
-0.000155084
0.000318367
0.00029665
0.000735112
0.00161065
0.00186361
0.001703
-0.247522
0.000396028
-0.00143721
-0.0524502
-0.000133497
-0.0259099
-1.59014e-05
-0.158809
-0.0002952
-0.00129196
-0.180874
-0.00077441
0.00255941
0.000229425
-0.0019823
-0.262766
0.000928801
-0.104275
-0.00335054
-0.0259752
-0.259888
-0.252926
-0.0564521
0.00140238
0.000500408
-0.186526
0.00184378
0.00327853
0.000190558
-0.128522
0.000960743
0.000629289
-0.000421335
-0.110616
-0.00150256
0.000996949
-0.000827789
-0.00176779
-0.267166
-0.00369005
-0.00479866
-0.0967293
0.000206221
-0.261727
0.0002073
-0.256869
0.00119038
-0.112767
-0.000953807
0.00149587
0.000681841
-0.000281629
-0.00413809
-0.0044005
-0.0102462
-0.0255808
0.000366803
0.00093187
0.000993785
-0.0247096
-0.0223717
-0.00023462
0.000469603
0.000653347
-0.000936611
-0.00521842
-0.00536447
0.0027978
-0.00834564
-0.0067241
-0.0896966
-0.00118189
-0.172421
-0.00155184
-0.00398911
0.00152677
0.00213407
-0.254951
-0.0662892
-0.0342522
-0.000234324
-0.0483089
3.45024e-05
0.00103702
-0.070892
0.000626281
-0.22708
-0.262262
-0.09822
-0.00490086
-0.000107317
-0.263853
-0.00310055
-0.00809205
-0.00186781
-0.0582641
-0.199056
-0.00171794
0.000939564
-0.250955
-0.250909
3.28394e-05
-0.0854652
-0.101962
0.000699294
-0.260684
0.000901728
-0.115757
0.00043887
-0.0711878
-0.000339872
-0.0573278
-0.204125
0.00087625
-0.25547
-0.104685
0.000470159
-0.26263
0.00118433
-0.0527662
-0.09721
-0.254991
-0.00027826
-0.0306572
-0.17855
0.00233185
-0.0897377
0.00078471
0.00210899
0.00311607
-0.00532645
-0.07667
-0.000351161
0.000459796
-0.139057
-0.00359525
0.00106005
0.00175599
7.77169e-05
0.000803748
0.00153538
-0.0775646
-0.21748
-0.0810277
0.000947247
-0.00481365
0.000588614
-0.00048997
-0.00413819
0.000150105
-0.258565
-0.000866343
-0.0867212
-0.258248
-0.000360557
0.000504332
-0.0102753
-0.0298284
-0.0946012
-0.181123
-0.0103267
0.00129351
-0.00437861
-0.00144806
0.00104238
0.000822811
-2.29049e-05
0.000250288
0.000733222
-0.0925039
-0.261273
0.000205961
-0.00010134
0.00198315
-0.213843
0.000717344
-0.00534609
-0.00151536
0.00112656
0.00185267
-0.00323091
-0.0250715
-0.0258146
-0.00201876
0.000235467
-0.00533477
-0.243456
-0.254283
-0.000283338
0.00738679
-0.0243068
-0.000636892
0.00020549
0.000104475
0.000279809
-0.00490876
-0.00321954
-0.261691
-0.000491399
-0.245559
0.000633899
0.00138827
-0.193608
-0.00418869
-0.08807
-0.00295237
-0.0101108
-0.0157035
-0.00664012
-0.00287806
-0.0715165
0.00250742
0.000947724
0.00132967
-0.00188603
-0.253074
-0.0046938
-0.00105461
-0.00466195
-0.0565428
-0.253476
-0.0111371
0.00177185
-0.215656
0.000845675
-0.000162506
-0.0296565
-0.203455
-0.260254
-0.263572
-0.00245538
0.000365022
-0.022745
-0.000318825
-0.214976
-0.0645465
0.00153688
-0.00871299
-0.145246
0.000135713
-0.216397
-0.00925511
-0.0401506
-0.00312757
-0.131958
-0.0812305
0.000893501
0.000997708
-0.261126
0.00278498
-0.000430817
-0.0949582
0.00156438
-0.00876001
-0.0942326
-0.0448345
-0.256498
0.000172549
-1.32564e-05
0.00188787
-0.259843
0.000943471
-0.00185115
-0.00215005
-0.25848
0.000926376
-0.00114765
-0.00126329
-0.259934
-0.0479511
0.000403674
-0.0051488
0.000259629
0.000879267
0.00253858
-0.236404
-0.0192516
8.22731e-05
0.00120572
-0.155904
-0.0418497
-0.000909804
-0.0149903
0.000315089
0.000909736
-0.258357
0.00237
-0.0293309
0.000432582
-0.0168868
-0.256779
-0.260492
-0.25716
-0.233925
-0.209164
0.000211827
-0.0891922
0.00139466
-0.000221086
0.00128302
-0.206136
0.00106971
-0.245058
-0.26565
0.00108193
0.000609595
-0.244036
-0.263426
-0.0784644
-0.234794
-0.101982
-0.20516
0.00037324
-0.0978671
-0.26815
0.00134668
-0.245782
0.000679681
0.000478726
-0.174983
-0.26545
-0.260543
-0.189297
-0.15599
-0.000483591
-0.27002
0.000552131
-0.10893
0.000631929
-0.216512
-0.0728615
-0.00190445
-0.165268
0.000486892
-0.000642685
-0.000365007
-0.268497
-0.246019
-0.256601
-0.258913
0.000434461
-0.151425
0.000903704
0.00302132
-0.00033605
-0.0441929
-0.260219
0.000913115
-0.00203871
-0.186727
-0.243949
-0.00978089
0.000474521
-0.252898
0.0012634
0.000983084
0.000217086
-0.000257011
0.0010142
-2.43465e-05
0.00146422
-0.244291
0.000946778
0.002122
9.94947e-05
-0.0357628
-0.253637
-0.0964108
0.000145042
-0.255607
-0.0676972
-0.0507174
0.000260067
-0.264743
-0.00525084
-0.26949
-0.257011
-0.257877
0.00301303
0.000946427
-0.193059
-0.161884
-0.000449013
0.000476437
-0.151254
-0.173047
-0.214436
-0.0129086
-0.266297
0.0036043
-0.25425
-0.00197746
-0.255188
0.000897004
0.00129564
-0.00303968
0.00125639
-0.261236
-0.00146885
-0.252588
-0.256283
-0.0068563
-0.0168587
-0.104897
-0.266429
-0.1592
0.000470935
-0.07155
-0.0675604
-0.192113
-0.000565897
-0.252877
-0.135964
-0.252081
-0.258485
5.76974e-05
0.000540781
-0.0495562
-0.251995
-0.00645334
-0.173938
0.00186316
0.0017863
0.00107713
-0.000919046
-0.262972
0.000408646
0.000445648
-0.214464
-0.0323022
-0.206783
-0.180097
-0.2645
-0.25328
-0.173692
-0.240837
-0.248195
-0.0778574
-0.010722
-0.264714
-0.000412606
-0.250923
0.000938811
-0.261987
-0.264538
0.00126277
-0.000808273
-0.000947917
0.00216804
0.000343012
-0.000166313
-0.00355892
-0.000217896
-0.165167
-0.136725
0.000570078
-0.0740051
-0.0480438
-0.246347
-0.263865
-0.25311
-0.25571
-0.257039
-0.193804
-0.267479
-0.0223481
0.000103385
-0.264618
-7.39183e-05
-0.244685
-0.0771843
-0.00547806
-0.260799
-0.0576959
-0.000815435
-0.254179
0.000525424
-0.223045
-0.120489
-0.0261525
-0.242653
0.00297075
-0.149996
-0.00253761
0.000924568
-0.209244
-0.278863
-0.00179554
-0.00303968
-0.00271418
-0.00726719
0.00133139
-0.250113
-0.00383306
-0.00184887
-0.191444
0.00023717
-0.259838
-0.0246392
0.00217941
-0.040699
-0.256123
-0.262875
-0.259362
-0.260565
-0.236143
0.000483945
-0.241186
3.51505e-05
0.000287272
-0.250912
0.000308803
-0.256436
-0.20558
-0.217394
-0.257881
-0.00718044
-0.242764
0.0013181
0.00124729
0.000164876
-0.00431917
-0.253394
0.00120563
0.000883831
-0.00440875
-0.248309
0.000177827
-0.241007
-0.255988
-0.00164526
-0.265182
-0.25825
-0.203733
0.00056247
-0.256993
-0.00138473
-0.000106343
0.00159165
-0.259748
0.0013232
0.00185409
0.000873512
-0.102356
-0.000197123
-0.252302
0.000967542
-0.000807815
-0.0165923
0.000289245
-0.214544
-0.000541502
-0.000755234
-0.161176
0.000741971
-3.9176e-05
0.000441469
-0.260569
-0.028474
0.00106534
-0.268514
-0.198009
-0.202101
0.000965949
-0.000721091
-0.249386
-0.199071
-0.241941
-0.17979
-0.246962
-0.243529
0.00324621
-0.251375
-0.224326
-0.000628938
-0.257101
0.000127064
-0.262541
-0.262022
-0.260283
-0.0360363
-0.225233
-0.279779
-0.000832657
0.000389919
0.000507821
-0.24796
-0.251617
-0.245077
-0.270775
-0.221289
-0.00709189
0.00108194
-0.216757
-0.261824
-0.252438
-0.00894785
-0.145268
0.000449118
-0.254431
-0.266839
-0.257889
-0.260299
-0.260145
-0.253715
0.000292176
-0.24568
-0.254741
-0.27393
-0.234064
-0.257381
-0.0150248
-0.253251
-0.261662
-0.00104318
-0.244654
-0.238685
0.00247464
-0.251892
-0.00847318
-0.274876
-0.248045
-0.194634
-0.204509
-0.251364
-0.0157002
-0.201816
-0.253312
0.000640506
-0.222747
-0.000390525
-0.000344609
-0.0762526
0.0022525
-0.000557414
-0.0678346
0.000607628
0.000771884
0.000243159
-0.00058796
-0.211243
0.00138494
-0.0937333
-0.273212
-0.25968
7.4004e-05
-0.017316
-0.000762447
-0.247706
-0.000396139
-0.254622
-0.233392
-0.0236365
-0.243236
-0.257472
-0.247363
-0.065604
-0.00204237
-0.232772
-0.233359
-0.26013
0.000478334
0.000356159
-2.04002e-05
-0.0153814
-0.21157
-0.000467718
-0.000127378
-0.000210352
-0.260909
0.000341895
-0.0231722
-0.00735988
-0.00293299
-0.261314
-0.00748591
-0.00217358
0.000328925
-0.218469
-0.000315175
-0.249717
0.000447899
-0.0118985
0.00103238
-0.0339222
-0.260935
-0.262975
-0.253629
-0.272082
-0.0196492
-0.0234402
-0.243712
-0.00016319
-0.261595
-0.00551444
-0.000582687
-0.000167557
-0.148486
-0.238696
0.000470086
-0.161438
-0.274157
-0.254633
-0.257954
-0.226148
-0.00239616
-0.260559
-0.2638
0.000613746
-0.0530415
-0.234213
-0.160465
0.000123079
-0.254421
-6.80397e-05
-0.226413
-0.158936
-0.2461
0.000313241
-0.00400508
-0.245035
-0.00111753
-0.0451625
0.00360969
-0.220381
0.000561132
-0.254406
-0.000321415
-0.2442
0.0023422
0.00155258
0.000476998
-0.00946272
-0.233647
-0.25003
-0.00181507
0.00011948
-0.00029844
-0.000151938
-0.0244915
-0.00087018
-0.240567
-0.266528
-0.243444
0.000384224
-0.00110996
-0.255844
-0.248678
-0.240559
-0.26493
-0.23526
0.000351139
-0.229856
-0.234634
-7.56442e-05
-0.238891
-0.0352518
-0.0616158
0.00125112
-0.225874
-0.000452776
-0.253342
0.000569322
-0.260465
-0.251157
-0.00151382
-0.243102
0.000844542
-0.261839
-0.215364
-0.00435183
-0.000336705
-0.244514
-0.260235
-0.00262394
-0.274659
-0.198298
-0.00160089
-0.263376
0.000662842
-0.262167
0.0014152
-0.00219507
-0.00449207
-0.232627
0.00013189
-0.255744
-0.031203
0.000673286
-0.000767892
0.000942651
0.000432155
-0.000543818
-0.261511
-0.143701
-0.0140012
-0.130231
-0.0134132
0.000450343
0.000496609
0.00234417
-0.232994
-0.132527
0.000513159
-0.00882152
-0.0221643
0.000402463
-0.258094
-0.0677706
0.000882391
-0.00318664
-0.253966
0.000216908
0.000283724
-0.257976
-0.228307
-0.00103953
0.000959822
-0.25897
-0.240277
-0.2644
-0.000142965
-0.0018522
-0.261984
-0.00133623
-0.000263534
-0.00125711
-0.204865
-0.190509
-0.253783
0.000879557
-0.235664
-0.244158
-0.252312
-0.242761
0.00104048
-0.0801654
0.00309356
-0.261234
0.000743993
-0.00100067
-0.0320872
-0.0669702
-0.00404471
-0.0209391
0.000523964
0.000296739
-0.00201909
-0.255477
-0.00417507
-0.241059
-0.27202
-0.179118
-0.000450583
-0.231819
-0.139567
-0.259766
-0.253957
-0.00839758
-0.0808479
0.00246772
-0.070106
-0.21959
0.00116285
-0.258808
0.000485431
-0.0020832
0.00426306
0.000295841
-0.253506
-0.000539457
0.000795713
-0.25068
-0.251981
-0.00183846
-0.252917
-0.245312
-0.247272
-0.249723
-0.276186
-0.260105
0.000586322
-0.222192
-0.0739001
0.0006659
-0.00666626
0.00131041
0.00103013
-4.78517e-05
-0.195986
-0.261025
-0.236127
0.00139157
-0.261267
0.00141138
0.00213651
0.000593975
-0.234314
-0.276692
-0.00800893
0.000466931
-0.258224
-0.259707
-0.271537
-0.241291
-0.148089
-0.206063
-0.00168329
0.00200308
0.00224125
-0.0013878
-0.253281
-0.000820728
-0.109416
-0.202021
-0.276495
-0.238058
0.000308868
0.000827832
-0.231421
-0.254147
-0.257692
-0.0259027
-0.0698124
-0.263286
-0.255997
-0.239634
-0.262441
-0.234563
-0.263171
-1.90743e-05
-0.00428936
-0.00407288
-0.261419
0.000106212
-0.0011533
-3.17676e-05
-0.190872
-0.0603844
-0.245813
-0.258498
-0.251009
-0.000649238
-0.209406
-0.228167
-0.273313
-0.00131792
-0.256653
-0.210837
-0.269479
-0.000272721
-0.21282
-0.244735
-0.274192
0.000691794
-0.0723836
-0.00550821
0.000101049
0.00119332
-0.266068
-0.0206808
-0.252799
-0.247711
-0.269714
0.000437516
-0.254693
0.000241671
-0.255182
-0.011556
-0.183068
-0.000290006
0.000215505
-0.235571
-0.261921
0.00221771
-0.232529
-0.136193
-0.0186045
-0.00198636
0.00175312
-0.253796
-0.278079
-0.000485063
0.000520895
-0.000663256
-0.147492
0.00039983
-7.80054e-05
-0.0293782
-0.00948186
-0.247955
-0.00168768
-0.267967
9.93716e-05
-0.270733
-0.255029
-0.125266
-0.236652
-0.263827
0.000205367
-1.82211e-05
0.0015335
0.000688877
-0.278804
0.00101662
0.00188087
-0.232847
-0.262294
-0.251835
-0.165322
-0.273724
-0.0022646
0.00135866
0.0013462
-0.260432
-0.260166
-0.000360173
-0.254879
7.98758e-05
-0.246318
-0.244399
-0.268809
0.000788913
-0.235293
-0.00172946
0.000271388
-0.2693
-0.262937
-0.00111768
4.55147e-05
-0.257586
-0.249016
0.00137884
-0.00159978
-0.241003
-0.25917
0.000612517
0.000591492
-0.26227
0.000833423
-0.220614
0.000499958
-0.260341
-0.242856
0.000342508
-0.233413
-0.255926
-0.0742288
-0.239718
-0.238673
-0.183709
-0.234421
-0.034932
-0.0014098
-0.00367728
4.29409e-05
0.000209617
-0.254749
-0.00403079
-0.25892
-0.240252
-0.000102037
0.000937385
0.000135676
0.000694331
0.001006
-0.00173343
-0.00259404
-0.00138262
0.00119177
-0.00311668
0.00232904
-0.00285018
0.00373699
-0.000796148
-0.0390626
-0.0784642
-0.249397
-0.262383
-0.256187
-0.256482
-0.00206308
-0.266874
-1.76968e-05
-0.270056
-0.00207356
-0.0214026
-0.227128
-0.251602
-0.00141884
0.0007501
0.0022169
-0.27694
-0.0746787
-0.255052
0.000532954
9.90702e-05
0.00231846
-0.190486
-0.255266
-0.049343
-0.00270927
0.000834602
-0.00166749
-0.00215026
-0.130323
-0.0515842
-0.00272548
0.000566976
0.000564944
-0.00112728
-0.179687
-0.251301
-0.26564
-0.0728534
-0.26531
-0.180012
-0.261595
-0.0958287
-0.246488
-0.249545
-0.266002
-0.00136205
-0.256601
-0.207501
-0.256998
-0.267788
-0.240502
-0.00195374
-0.258125
-0.00177135
-0.266559
-0.24096
-0.260146
-0.00204787
-0.015455
-0.231349
-0.255457
6.07221e-05
-0.263193
-0.251923
0.00129873
0.00218425
0.00101798
-0.000732228
-0.00368932
0.000405966
0.000673733
-0.251041
0.000326217
-0.223604
-0.234447
-0.25995
0.000151154
-0.246942
-0.242045
-0.275551
-0.00967441
-0.252054
0.000345561
-0.256535
-0.184457
-0.241954
-0.000715958
-0.00192776
-0.00228357
-0.264947
-0.255871
-0.0400626
0.001263
-0.261422
-0.176984
0.00013092
-0.00152758
-0.00984206
-0.254442
-0.00070293
-0.000495236
-0.256173
-0.252843
0.00153079
-0.253266
-0.19748
-0.254223
-0.0187566
-0.273613
-0.255699
-0.00155558
-0.0492773
-0.260216
-0.250931
-0.00256004
-0.271366
-0.235291
-0.25606
-0.257111
-0.256623
-0.230877
-0.000236219
-0.259315
-0.000300346
-0.000709317
0.00189272
-0.0592541
-7.80767e-05
-0.270236
-0.240291
-0.260925
-0.155948
-0.000314814
-0.241106
0.000411605
-0.0237411
-0.273412
-0.243764
0.000234719
-0.000158368
-0.234054
-0.00131021
-0.251004
0.000809966
-0.256889
0.000883968
-0.259049
-0.00239949
-0.254375
-0.0204237
-0.0479093
-0.247973
-0.273451
-0.244879
-1.96269e-05
-0.271027
-0.136612
-0.255777
-0.227572
-0.0372553
-0.0969406
-0.0624638
0.000440696
-0.184858
-0.21443
-0.0182936
-0.227631
-0.251056
-0.00246387
-0.253395
-0.00187338
-0.22776
0.000676638
0.000306354
8.7377e-05
-0.0503204
-0.260306
-0.260823
-0.0166238
-0.103303
-0.000963769
-0.00019353
-0.00248563
-0.000636796
0.000185943
0.000389386
0.000897572
-0.00100711
0.00167635
-0.239047
-0.237625
-0.00310781
-0.00446473
-0.23522
-0.26027
-0.0557211
0.00205061
-0.00185557
-0.262758
-0.0409459
0.00100755
0.000344568
-0.264705
-0.0318067
-0.00143588
-0.00126923
-0.0680096
-0.263541
-0.243232
-0.0547948
-0.270779
-0.26361
0.000730478
-0.229466
-0.258923
0.000500848
-0.249882
-0.00761059
0.000463364
-0.000645256
-0.266003
-0.00183607
-0.242095
-0.209175
3.40851e-05
-0.0333404
-0.270818
-0.000371742
-0.25441
0.000550329
-0.225812
-0.239433
0.000648993
-0.255382
-0.244372
0.000342684
-0.000565308
-0.252976
0.000392103
-0.243433
-0.267341
-0.260181
-0.0103431
-0.00543939
-0.00201542
-0.257623
-0.000311477
0.0025533
-0.00147833
-0.0579123
0.000771483
0.000148109
-0.00622002
9.11127e-05
-0.235709
-0.258916
-0.0299688
-0.000140157
-0.239504
0.00205279
-0.00100022
-0.00690486
-0.235312
0.00102762
0.000121706
-0.255589
0.00243195
0.00148302
-0.000589827
-0.216755
0.000606466
-0.138955
-0.260388
0.00132293
-0.260441
-0.0276921
0.000541642
-0.258163
-0.247666
-0.266485
0.000972718
-0.101009
-0.00335834
-0.269428
-0.249189
-0.000591298
-0.081345
-8.64897e-05
-0.260274
0.000559015
1.52659e-05
-0.000780615
0.0018078
-0.00156861
-0.000101861
-0.244233
-0.00535184
0.000544218
-0.000608139
-0.00023504
-0.259143
-0.241258
-0.281202
-0.0115847
0.000311473
-0.254198
0.00285245
-0.000255039
-0.000214631
0.000303361
0.000928621
-0.0462539
-8.16708e-05
-0.000155866
-0.11251
-0.259643
-0.263702
-0.281164
-0.229687
-0.00153357
-0.245726
-0.262325
-0.0711203
-0.242442
-0.275591
-0.243623
-0.160046
-0.00316563
-0.252617
-0.000805288
-0.24963
-0.000584253
-0.160876
0.00185996
-0.00104473
-0.249469
-0.223327
-0.238444
-0.00045591
-0.035037
-0.0389995
-0.0454453
-2.92002e-05
0.000506516
-0.0203181
-0.258859
-0.0109926
-0.256331
-0.02516
-0.00176863
-0.256154
-0.00134106
-0.0021525
-0.0366032
-0.000718415
-0.199768
-0.275966
0.000425365
0.00166516
-0.234132
-0.00986624
-0.234947
-0.254444