/*--------------------------------*- C++ -*----------------------------------*\
  =========                 |
  \\      /  F ield         | OpenFOAM: The Open Source CFD Toolbox
   \\    /   O peration     | Website:  https://openfoam.org
    \\  /    A nd           | Version:  10
     \\/     M anipulation  |
\*---------------------------------------------------------------------------*/
FoamFile
{
    format      ascii;
    class       surfaceScalarField;
    location    "1157";
    object      phi;
}
// * * * * * * * * * * * * * * * * * * * * * * * * * * * * * * * * * * * * * //

dimensions      [0 3 -1 0 0 0 0];

internalField   nonuniform List<scalar> 
38623
(
0.216855
-0.213782
0.0787097
-0.0817832
-0.05946
0.0767806
0.122734
-0.140054
-0.00694091
0.0134614
0.0331184
-0.0396389
0.00431629
-0.00237272
-0.0224609
0.0205173
0.0152228
0.0263989
-0.0332668
-0.00835482
-0.126282
-0.254175
0.238279
0.142178
0.0846734
-0.070918
0.0821012
-0.0958565
-0.00863347
0.00853182
-0.0064086
0.00651024
0.0198702
0.0203416
-0.244093
-0.0359537
0.0793174
-0.320215
0.276852
0.110008
0.124404
-0.111196
-0.123216
-0.219718
0.194397
-0.00537815
0.030699
0.46145
-0.0463474
-0.468209
0.0531059
-0.229745
0.208816
-0.0104348
0.0313643
0.0376583
0.0464654
-0.0520991
-0.0320246
0.0440486
-0.293355
-0.0477592
0.297065
-0.0149581
0.386247
-0.000224319
-0.371065
-0.00876445
0.26462
-0.00921759
-0.246637
0.00614579
-0.0272053
0.411735
-0.390675
0.40211
-0.282414
0.239171
-0.358866
0.182701
0.138306
-0.0435748
-0.277433
0.108468
0.0805458
-0.079006
0.317155
-0.271643
-0.00176627
-0.043746
-0.221688
0.291816
-0.265787
0.195659
0.0429513
0.25155
-0.0438347
-0.250667
-0.037745
0.577293
-0.550274
0.0107258
0.0306533
-0.178131
-0.0555176
0.202995
0.223078
-0.178612
-0.491223
0.446756
-0.00919052
-0.000761821
0.00139457
0.00855777
-0.273355
0.292556
0.382909
-0.014947
-0.0205946
0.0195382
0.0160033
0.0056421
-0.00153997
0.000773184
-0.00487531
0.0286093
-0.0320075
-0.0331318
0.03653
0.292667
-0.0245776
-0.276854
-0.0102689
-0.0111261
-0.236737
0.258132
-0.340691
-0.172854
0.145631
0.367914
-0.000608659
0.000144025
-0.00718993
0.00765456
0.00534613
-0.235333
-0.147541
0.166547
0.00339781
-0.0224041
-0.0566801
0.0719412
0.31894
-0.334201
0.0663583
0.413114
-0.429843
-0.0496291
0.271321
0.184326
-0.253788
-0.201859
0.331358
-0.185356
0.332854
-0.478855
-0.415395
0.203327
0.336373
-0.124305
0.600263
0.241887
-0.515184
-0.326966
-0.0301272
0.0737485
-0.429567
0.385945
-0.0137769
0.026768
-0.00121708
-0.011774
-0.260987
0.193379
0.155322
-0.0877134
-0.000916781
0.00188123
0.000998117
-0.00196256
0.00752898
-0.0004977
-0.00767723
0.000645949
-0.0049657
-0.0013495
0.00145998
0.00485523
-0.0108785
0.0287904
-0.0230578
0.00514587
-0.0018747
0.000703592
-0.00170783
0.00287893
-0.381727
-0.109221
0.294792
0.196155
-0.00101197
0.000439269
0.00621479
-0.0208582
-0.396157
0.402057
0.0396023
-0.0228835
-0.0545583
0.0378394
-0.00437089
-0.00808331
0.00852353
0.00393067
-0.141056
0.185008
0.138749
0.00194058
-0.00724278
0.00574766
-0.000445462
-0.00918048
0.00360957
-0.00319327
0.00876417
-0.341133
-0.109362
0.0351001
-0.33738
0.326184
0.0839681
-0.0727725
-0.00572135
-0.00746917
0.00879348
0.00439705
-0.247484
-0.32299
0.348787
-0.501468
0.352562
-0.229933
0.378839
-0.168297
0.144031
-0.02493
0.049196
-0.5372
0.423332
0.175416
-0.0615478
0.121898
0.540082
-0.0617173
-0.390267
-0.0650702
0.0644813
0.390856
0.00888447
-0.00309229
-0.00896953
0.00317735
0.0144218
-0.00767285
-0.0136899
-0.0502191
-0.0189898
-0.516186
0.585395
0.06058
-0.0611654
0.0382437
0.401911
-0.38056
-0.268835
0.0410765
-0.0609189
0.0587118
-0.0388694
0.021886
-0.181294
0.175378
-0.0159701
0.113685
0.189539
-0.194167
-0.109057
-0.0117572
0.00534864
-0.00522001
0.0116285
0.0374453
-0.029486
0.341651
-0.34961
-0.10975
0.224995
-0.20733
0.0920851
0.0447142
-0.056002
-0.0881731
0.0994609
0.0706662
-0.0905239
-0.0106025
0.0084686
-0.00041492
0.00254885
-0.0178281
0.0423522
-0.0249428
0.000418732
-0.235577
0.246342
-0.0218905
-0.057969
0.0917677
-0.0988134
0.0650146
-0.00141563
0.000363449
0.000306736
0.000745448
-0.289898
-0.102589
0.136603
0.255884
0.361911
-0.364701
0.0402346
-0.00686955
-0.000322881
0.00656046
0.000631965
-0.423755
0.0719858
0.402612
-0.0508428
0.00395144
-0.00743981
-0.00223298
-0.332859
-0.187256
0.201306
0.318809
-0.00685354
-0.00325137
0.00526165
0.00484326
-0.00740022
0.000111602
-5.79512e-05
0.00734656
0.494593
-0.112906
-0.392214
0.0105266
0.0754673
-0.103618
-0.232837
-0.280169
-0.0295173
0.0674684
0.242218
0.00735324
-0.00134243
0.00921198
0.347926
0.0639225
-0.0958141
-0.316034
-0.0383992
-0.103016
-0.0268811
-0.0579521
0.0222782
-0.124306
0.159979
-0.00672565
8.57431e-06
0.00672042
-3.35192e-06
0.00127852
0.00749926
-0.00829323
-0.000484545
4.68758e-05
0.00198275
-0.0126322
0.271445
-0.107546
-0.290181
0.226087
0.417711
-0.144634
0.149599
-0.0433634
0.353752
-0.315738
-0.126962
0.0889475
-0.113485
0.154063
0.0903301
-0.130908
-0.273943
0.0795438
0.199746
0.0567105
-0.0402535
-0.034285
-0.0052078
0.287556
-0.000765823
-0.281582
-0.139375
-0.330684
0.129367
-0.307018
-0.0536451
0.0584161
0.302247
-0.183721
0.370704
-0.553985
0.367002
0.0539839
-0.283063
-0.0559762
0.285055
-0.000147225
0.000307507
-0.0093508
0.00531895
-0.00773695
-0.00421745
0.00663545
-0.119817
0.0233362
0.210166
-0.000180518
0.00577421
0.000229167
-0.00582286
-0.0420407
-0.382357
0.0402566
0.384142
-0.00547728
0.0038994
0.00686044
-0.00528256
-0.0925661
0.0850747
-0.0955249
-0.079423
-0.672892
0.552636
0.199679
-0.00893316
0.00242834
-0.00267566
0.00794025
-0.000138337
-0.000272933
-0.00118916
-0.0100412
-0.0046239
0.0158543
0.0171183
-0.0106291
-0.0158276
0.00933839
0.00810346
0.00899057
-0.00678664
-0.0103074
0.0288221
0.162897
-0.14816
-0.0435594
0.132164
-0.000573819
-0.018644
-0.112946
-0.211872
0.201528
0.0567073
-0.0463632
0.420628
0.087506
-0.196892
-0.311242
-0.0981845
0.215306
-0.175074
8.51138e-05
0.00636765
-0.00643667
-1.60941e-05
0.0421187
0.174164
0.0513752
-0.120329
-0.169313
0.238266
-0.109035
0.151033
0.00862567
-0.00865863
-0.000114257
0.166387
-0.182707
-0.255969
0.272289
-0.141649
-0.239835
0.218871
0.162613
0.081535
0.301075
-0.112922
-0.269688
0.363201
0.0135845
-0.0383282
-0.338457
0.473256
-0.19361
0.0741061
0.288123
-0.0541461
-0.283191
0.0492139
-0.0674382
0.0390063
-0.0192241
0.047656
-0.00353986
0.00270919
0.00672845
-0.00589778
0.0238554
-0.371373
0.38843
-0.0409122
0.0465984
-0.00318121
-0.0391102
-0.00430701
0.269963
-0.119835
-0.462363
0.312235
0.0694856
-0.0885888
-0.0567902
0.0758934
-0.0504269
0.432814
0.14679
-0.529177
0.0347295
-0.0327192
0.0215638
-0.023574
-0.0641826
0.0489657
0.292288
-0.277072
0.01539
0.0802625
-0.0733743
-0.274182
0.156791
0.234304
-0.116913
-0.00991335
0.0107644
-0.00621782
0.00536673
0.00229198
0.010282
-0.00844439
-0.00412954
0.0554177
0.380199
-0.381994
-0.0536221
0.0806329
0.0292727
-0.0446925
-0.0652131
0.00251767
-0.0093808
-0.00134167
0.0082048
-0.162964
0.164882
0.462249
-4.19967e-05
-0.411493
-0.0507135
0.00024119
0.366255
-0.342641
-0.189057
0.188297
-0.0671454
0.0679054
-0.00622614
-0.00168518
0.00704547
0.00086585
-0.229498
0.403432
0.205937
-0.379872
0.280105
0.128396
-0.242113
-0.177317
0.0312753
0.183976
-0.0379349
0.0193402
0.00488811
-0.0199121
-0.234557
-0.313967
0.225534
0.00207166
-0.00713337
-0.000415574
0.285809
-0.547237
0.337274
-0.075845
-0.0134259
0.000230843
0.0104025
0.00279252
0.334882
0.0523315
-0.335342
-0.0518718
0.0520212
0.244256
-0.0546184
-0.241659
-0.265028
-0.0291516
0.276217
0.0179625
-0.201763
0.17023
-0.127943
0.159476
0.00914843
0.00588806
-0.0121495
-0.00288697
0.0213606
-0.00477994
-0.00743221
0.0754865
0.035465
-0.069875
-0.0968256
-0.131636
0.0770834
0.151378
-0.0423345
0.0909918
-0.399374
0.350717
0.42061
-0.408396
-0.0330722
-0.194466
0.0820547
-0.00462013
0.00506744
0.00802128
-0.00741496
-0.000782875
0.00562854
0.00256929
0.286416
-0.197802
-0.00268815
0.00452971
0.00690878
-0.00875034
-0.392141
0.0721777
0.0413882
0.278575
-0.301525
0.361203
-0.116358
-0.295022
0.142548
-0.18086
0.333334
-0.0520929
-0.324111
0.0597849
0.316419
0.152874
-0.203713
-0.294681
0.345519
0.000367727
4.41853e-06
-0.00749038
0.00711824
-0.000532842
0.00712368
-0.00927899
0.00210285
-0.00624828
-0.000528209
0.00467364
0.161925
-0.131822
-0.143588
0.319596
-0.0245267
-0.294828
-0.261727
-0.325999
0.279126
0.308601
-0.00447571
0.00675318
-0.00581733
0.0134347
-0.123684
-0.0332051
0.143455
0.00953049
-0.00708879
-0.0110752
0.00276645
-0.00955584
0.00930706
-0.029959
0.0161943
0.0228257
-0.0090609
-0.0647048
-0.196735
0.080295
0.181145
0.193844
-0.00360487
-0.0599909
-0.130248
-0.0944735
0.233119
0.0656294
-0.204275
0.307419
-0.0378582
-0.299047
-0.00803287
-0.000741178
0.00816539
0.355994
-0.34515
-0.0531779
-0.443525
0.247182
-0.0331544
-0.0031705
-0.00119098
0.00248678
-0.0044951
0.00113142
0.00925789
-0.00589421
0.111815
-0.00954091
-0.0888394
0.0392417
-0.29884
-0.000186798
0.00724973
-0.00123142
-0.00583152
-0.011911
-0.00957704
0.00753664
0.0139514
0.0810004
-0.0529462
-0.513908
0.485854
-0.0395506
0.0392116
-0.00698235
0.000329872
6.81595e-05
0.00658431
0.314574
-0.0755983
-0.303158
-0.0988918
0.308303
0.0182478
0.0299444
-0.0138176
-0.0343746
-0.000155955
0.00702643
-0.00736818
-0.310382
0.0711151
-0.243674
0.0635147
-0.00448464
0.184644
0.402761
0.0484572
-0.40165
-0.0495683
-0.200018
0.238822
-0.281099
0.242295
-0.00241587
8.34565e-05
-0.00141645
-0.0622216
-0.210305
-0.579725
0.602054
-0.0600749
0.0498997
-0.0398658
0.016365
0.0108501
0.000374601
-0.0067632
-0.00446148
-0.248255
-0.366862
0.0281717
-0.00852884
0.00257078
-0.0222137
0.0615592
-0.470142
0.524716
-0.116133
-0.0117082
-0.00672819
0.0113373
0.00709903
-0.00141312
0.0023658
0.000928553
-0.308098
0.0442584
-0.0522261
0.316066
0.00127545
-0.0122233
0.0109947
0.0123513
-0.000297169
0.0378456
-0.0011078
-0.00613031
-0.121749
-0.320689
0.105058
-0.0869884
0.254214
0.104219
0.0376504
-0.492636
-0.0601984
-0.0112171
0.00253774
-0.000701447
0.0784459
0.0229658
-0.0207789
0.121352
0.459748
-0.429418
-0.151683
0.0762636
-0.224904
0.309598
-0.160958
-0.00499796
-0.00127458
0.00172774
0.0045448
-0.487545
0.487529
-0.0466539
0.0466697
0.100563
-0.0133964
-0.0578941
0.00469465
-0.00766018
0.00185774
0.00668677
-0.00584353
0.00440757
-0.000672038
-0.00677526
0.00303973
-0.0902517
-0.337667
0.0911704
0.336748
-0.303895
-0.213785
0.000663288
0.000698279
-0.0532949
0.0826622
-0.308089
0.278722
0.000605943
-0.00859022
-0.00094889
-0.113592
0.17083
0.0326436
0.261484
-0.245162
0.056417
-0.362568
0.378092
-0.00998285
-0.00904705
0.00560399
0.00870488
0.00551067
-0.00926361
-0.00495194
-0.0338768
0.00667877
0.00899274
0.0182053
0.00887973
0.0169193
0.178598
-0.25346
-0.119304
0.00538722
0.0188386
-0.00488554
0.000400069
0.000681545
0.00272373
-0.00380534
0.0938522
-0.221048
0.292406
-0.16521
0.109456
-0.150762
-0.246915
0.0392422
0.000463613
0.0072546
-0.00737484
-0.00034338
0.0575379
-0.0840037
-0.283916
0.00664607
0.000839765
-0.000714085
-0.00677175
0.274513
-0.317333
0.0866008
-0.0437811
0.00767731
-0.0150445
0.0093499
0.0835745
-0.0498516
-0.277397
7.19383e-05
-0.000435779
-0.00460186
-0.0713121
-0.331382
0.0850151
0.317679
0.236261
0.0385715
-0.235586
-0.0392465
0.0072176
0.00534725
-0.00295175
-0.0096131
0.00598688
-0.00366412
-0.00560281
0.00328005
0.090572
-0.363574
0.551259
-0.278257
0.0082456
-0.00874641
0.00326727
-0.0485561
0.04734
0.0359456
0.00320657
-0.0141928
-0.00265122
-0.00197588
0.00321398
0.00433203
-0.00836685
-0.00343436
0.00326827
-0.00459361
0.00573291
-0.0107977
0.00377963
-0.0119316
-0.224817
0.00569167
-0.00517083
0.00461629
-0.00513714
-0.357609
0.307601
0.0124078
-0.00856028
-0.239425
0.00898954
0.000456167
-0.00897663
-0.000469072
0.0046632
-0.00764574
-0.00912216
0.0121047
-0.0301587
-0.0319691
0.0174817
0.0446461
0.00947115
0.00168644
-0.0271872
0.02007
-0.0141479
0.0212651
-0.122544
-0.393527
-0.020757
-0.0149591
0.00718275
-0.0015411
0.00315183
-0.00411993
0.376272
0.0524725
-0.0808186
-7.5769e-06
-0.00688965
0.00173301
-0.00346733
0.0549507
0.0475222
-0.0329873
-0.396464
0.0634553
-0.0607434
0.393752
0.136421
-0.201231
-0.112507
-0.0108848
-0.00140512
0.00773023
0.00455967
0.00834083
-0.000476988
0.00609022
0.00545941
0.100429
-0.0423234
-0.0796685
0.0215625
-0.00334163
0.0063511
-0.0373831
0.00701132
0.509921
-0.479549
0.00232996
-0.00863221
0.00663212
-0.00179082
0.000803417
-0.0018874
-0.00503384
0.00110148
0.00581976
-0.366722
-0.285243
0.20844
0.0636307
-0.0337409
-0.228393
0.0207283
0.213463
-0.00579805
0.0126392
0.0125441
-0.014147
-0.0110363
0.00123498
-0.00599576
0.0218791
0.00434828
0.00696938
-0.00486606
-0.00645159
0.208316
-0.0963089
-0.206481
-0.080126
-0.021312
0.0581711
0.0432668
0.00704842
-0.215542
-0.173845
0.382339
-0.00769356
0.00128762
-0.28425
-0.0159114
0.246866
0.0073722
0.00426758
-0.0072915
0.00347894
-0.0233691
-0.0103534
-0.00223932
0.000420615
0.0121721
-0.16278
-0.257967
0.0657214
0.355026
-0.272832
0.315309
0.153555
-0.196032
-0.00913157
0.00883259
-0.00968386
0.00542065
0.0147345
-0.015267
0.00651347
-0.102753
0.0803129
0.58803
-0.608216
-0.0592367
0.489645
-0.656372
0.225773
-0.0590459
-0.0015506
-0.00724843
0.00142623
0.0073728
-0.104596
-0.175086
0.204954
0.0747273
-0.000468493
-0.0082495
-0.0321979
0.0202871
0.0114056
-0.00539164
-0.0163674
-0.00469852
0.0054056
0.0111662
-0.0118733
0.00713846
-0.000202418
-0.00746889
-0.000222002
-0.00601158
0.000383496
-0.000846806
0.00282911
0.0498163
0.247091
0.0642953
-0.186198
0.30351
0.226501
-0.343813
0.368353
-0.604689
0.355331
-0.118995
-0.0626616
0.0519338
-0.0134464
0.010351
0.0114151
0.141862
-0.389354
0.234178
0.0133133
-0.0484223
0.0284471
0.334673
-0.0145651
-0.31306
0.0028885
-0.00135274
-0.00895072
-0.210003
0.0658007
-0.0598683
0.20407
-0.00355256
0.00343316
0.00708878
-0.269701
0.213391
-0.276549
1.33338e-05
0.0432035
0.47287
0.0612192
0.156262
-0.227905
0.00649155
-0.00520301
-0.00209356
0.00339097
0.00390559
-0.0478598
-0.143485
0.162234
0.0291107
-0.391538
0.00137055
-0.00576246
-0.00178557
-0.00357905
-0.00552017
0.00505977
-0.0214929
0.297626
-0.203719
-0.0154357
0.00442272
0.00352469
0.00748832
0.0634127
-0.0603039
0.0605219
-0.0228311
-0.300088
0.0148301
0.212481
-0.404248
0.269508
-0.0777411
0.479687
0.0697384
-0.0597812
0.0678627
-0.0595572
0.138325
-0.205079
0.251739
0.192162
0.00628297
0.00789826
0.259359
0.0520073
-0.0521604
-0.259206
-0.00365211
-0.0112847
0.0147049
0.173429
-0.136758
-0.0386695
0.239094
0.00206895
0.00639231
0.00670546
0.00116153
-0.00288078
0.00957884
-0.00644983
0.000255723
-0.00338473
0.0141664
0.221322
-0.202845
-0.558151
-0.446545
0.122637
0.0134626
-0.320543
-0.0067391
0.00309467
0.0238228
0.0214341
-0.031835
-0.0134219
0.00739372
0.00367315
-0.00282127
0.0084303
-0.00698547
0.00397582
0.00617894
0.0260611
-0.0386697
0.00642967
-0.0442962
0.0709065
0.0488763
-0.16645
-0.0793212
0.13438
0.111392
0.0046836
-0.00755665
-0.000144654
-0.00968967
-0.00296696
0.00388961
-0.0086596
-0.0467172
0.705524
-0.0602663
0.109859
-0.0154534
-0.0589404
-0.00435435
0.0057069
0.00601965
0.0718036
0.0780948
-0.0573146
-0.0925837
-0.014241
-0.00776733
0.0111298
0.00426167
-0.0322406
-0.00589795
0.138907
0.0571012
-0.118925
-0.218876
-0.0372576
0.0676653
0.188468
-0.0573737
0.255094
0.0484341
-0.246154
-0.00335786
0.00558721
0.00691296
-0.0091423
0.309265
-0.201739
0.19663
-0.304155
-0.217929
-0.0714527
0.129934
0.159448
0.0118561
-0.00899588
0.0090667
-0.00934548
0.000884722
-0.236448
0.172172
-0.00538431
0.0112128
0.00308109
-0.00890954
-0.0183174
-0.00546419
0.00883463
0.00177072
0.00628781
-0.000529751
0.00916092
-0.177389
-0.201296
0.379799
-0.332426
-0.0278585
-0.0195148
-0.00515342
-0.00236463
0.00575401
0.00176403
-0.133879
0.175799
-0.2047
-0.332796
0.35327
-0.179306
0.158832
-0.526994
-0.0616632
0.50104
0.0876166
-0.112862
0.166502
-0.101499
-0.0340779
0.0257574
0.42893
0.00225186
0.00861386
-0.0044303
0.00247284
-0.00170667
0.0512107
-0.0367951
-0.00226382
0.000937221
-0.00203126
-0.00334233
-0.00529746
0.00850574
-0.0130363
0.0153286
-0.00982324
0.00533386
-0.461386
-0.196629
0.291293
0.0119092
-0.0382354
-0.00451701
0.0308433
-0.31775
-0.0427746
0.00468598
0.00724679
-0.00443774
0.0271168
0.484176
-0.56172
-0.00109351
-0.00254017
-0.00175063
0.187958
-0.0732973
-0.219257
-0.154228
0.322552
-0.00526048
0.00835525
0.0020842
0.00603532
0.00788793
-0.10275
0.00407026
-0.00933591
-0.265567
-0.377887
0.0750781
0.144993
-0.0766853
-0.143386
0.0197253
0.00922436
4.262e-06
-0.000125642
-0.0069287
0.00705007
-0.00983369
0.0160314
-0.00690777
0.0007101
-0.318627
-0.00903222
0.0592254
0.268434
-0.0553288
0.19519
-0.248918
0.267284
-0.306254
0.0016162
-0.619467
0.0698369
-0.0585861
-0.0106387
-0.0353768
-0.208707
-0.175528
0.0578509
0.326385
-0.0669269
0.196476
-0.194254
0.0202661
-0.0214403
0.0226083
0.00852808
-0.00651438
0.00472296
0.00632114
0.0105138
0.0375077
-0.0326315
0.533374
-0.56284
-0.273306
0.302773
-0.00629973
0.139454
-0.42774
0.511364
-0.0139401
-0.33069
0.343684
0.000945998
-0.0243422
0.0257141
-0.0205672
0.0191953
0.050365
0.000670349
-0.0391262
-0.0160462
0.00588513
-0.0105959
-0.138612
0.0315965
0.151396
-0.0443805
0.214021
-0.0587894
0.043894
-0.199126
-0.0733876
0.0493585
0.0630355
-0.198229
-0.117453
0.0100055
-0.261564
0.0552456
0.196313
0.0416775
0.0198273
-0.026417
-0.0350877
0.000692516
-0.00165023
0.00764448
-0.0465031
0.365146
0.0184307
0.00329648
-0.0116166
-0.0101106
-0.00653278
0.00504889
-0.00461603
-0.0427455
0.00912606
0.00967677
0.00539654
-0.00554282
0.0214499
-0.0260569
-0.0153835
0.0199905
-0.113449
-0.538301
0.124756
0.0116294
-0.0103771
0.00450999
-0.00576231
0.41191
-0.160687
0.126988
0.221657
0.0822893
0.0600928
-0.0769824
-0.0653997
-0.000307858
-0.00854344
-0.000461891
0.00931319
3.58561e-05
-0.00103849
0.00773108
0.0204601
-0.0233524
0.00908775
-0.00909637
0.00794455
-0.00793593
-0.0131938
-0.0020451
0.00301564
0.0786881
0.16337
-0.0906806
-0.440341
-0.0436197
0.0311597
0.452801
-0.485316
0.0370035
0.00748155
-0.020958
-0.0173423
0.0233413
-0.00296404
0.00401954
-0.000209834
-0.000112704
-0.00744132
0.00776386
-0.0167381
0.318597
-0.74742
0.185997
-0.0580443
0.0355286
0.0190981
0.0322719
0.00658092
-0.0102435
0.0245192
-0.0211651
0.016933
-0.15315
-0.308685
0.0447564
0.417079
0.000114771
-0.00505547
0.000445601
0.29097
0.207695
-0.359211
-0.0992239
0.0743758
0.00484099
0.00364469
-0.632963
-0.0567283
-0.0577289
0.117639
-0.0241357
-0.0927557
-0.000747569
0.0371514
0.0863775
-0.00494952
-0.0067357
-0.021676
0.324962
-0.0908045
0.00664408
0.00245169
0.00048306
0.00382385
-0.0101309
0.0185334
0.00972939
-0.01705
0.00800393
-0.0558835
0.0163877
0.0314918
0.262685
0.0211884
-0.243631
-0.040243
-0.392012
0.37917
0.0258301
-0.0129884
-0.0413165
-0.433102
-0.0775165
-0.367529
0.179478
-0.00663211
0.0133197
-0.0165331
0.00984555
-0.0133883
-0.0050255
-0.00683091
-0.364831
0.264193
0.0565442
-0.0462244
-0.0415489
-0.0455438
-0.355511
-0.0602578
0.344457
0.296806
-0.0489738
0.0448012
-0.131304
-0.0521084
0.579851
-0.0785271
-0.169966
-0.336407
0.248617
-0.331265
0.282979
0.288904
-0.240619
-0.0333565
0.131776
0.334395
-0.00365214
-0.00407924
0.0011467
0.00658469
-0.362595
-0.170858
0.502413
0.0310393
-0.0057122
-0.000853643
0.0114315
-0.00486561
0.0723345
-0.124165
-0.0489413
0.100772
-0.272764
0.179767
0.396507
0.00772166
-0.00224668
-0.264295
-0.0259792
-0.362159
0.101887
0.286251
0.00841629
0.00128481
-0.0192908
-0.00382118
0.0141161
0.0119101
-0.0126018
-0.00914199
-0.383942
-0.157189
0.0797444
0.234317
-0.0721585
0.00105289
-0.000212761
0.00586533
0.00579995
-0.0022335
-0.541496
0.00420806
0.00724352
-0.00856308
0.041216
-0.482414
-0.0463467
-0.596908
0.540608
-0.0571491
0.177058
0.0254716
-0.0398396
-0.394028
0.149939
0.0223744
-0.3414
-0.0467303
0.365756
0.00867517
0.00772665
-0.00494409
0.00627243
-0.00488091
-0.016867
0.00397313
0.0182995
-0.00722192
-0.000374922
-0.0128166
0.0135378
-0.00227949
-0.546638
0.604668
-0.0557501
0.0130733
-0.363535
0.0669268
-0.0589033
0.0298465
0.0340037
0.00430541
-0.154941
0.285043
0.0963991
0.0396883
0.476796
-0.477139
-0.0393449
0.548198
-0.523361
-0.000711759
-0.00522788
-0.230981
0.226053
-0.23075
0.255573
0.0129864
-0.0378096
-0.004194
0.0275044
0.023288
-0.0281951
0.259118
-0.00471834
-0.226205
0.0648286
0.152766
-0.00828131
-0.000214839
0.0084382
0.0436102
-0.259028
-0.564357
-0.0333525
-0.0586628
-0.0970379
0.0231769
0.281614
-0.0152074
-0.00178743
-0.0567666
0.169008
-0.172103
0.0598616
-0.0243853
0.0217737
-0.292735
0.203509
0.0102216
-0.00728251
0.00153841
-0.0044775
-0.0488539
0.0570988
0.00868598
0.216588
0.0358666
-0.209504
-0.00437949
-0.00893473
0.00633972
0.0454818
0.0763431
0.0704683
0.298001
-0.0761808
0.0277977
0.00725067
-0.0145883
0.0102512
-0.0624178
0.12397
0.0314768
-0.0250775
0.0451441
-0.0515434
0.0111566
-0.00608785
-0.00456445
0.00481855
0.0040513
0.109348
-0.0286486
0.0912594
-0.171959
-0.0154435
0.0354137
0.00718618
-0.0271563
0.0880488
-0.372158
0.396108
-0.306363
0.244196
-0.423318
-0.00475973
0.0149733
-0.0104932
0.00673277
0.00605245
0.0209033
-0.221177
-0.0663622
0.18751
0.100029
0.0843714
-0.0903677
-0.0272705
0.169588
-0.0748745
0.0700207
-0.164734
0.386152
-0.39766
0.0608789
-0.0493711
0.250722
-0.135899
0.183888
-0.298711
0.416207
-0.422525
0.0563263
-0.0500085
0.453292
-0.375202
-0.055715
0.452291
-0.0209677
-0.338551
-0.0466804
0.506584
-0.0354164
0.000538861
0.0302615
-0.167012
-0.375703
0.341604
0.20111
-0.025021
-0.0414392
-0.100725
0.152759
-0.0259543
-0.320653
-0.51716
0.0259186
-0.0553968
0.176878
-0.0307755
-0.131936
-0.0229327
0.0144333
-0.00212968
0.0720329
0.245339
-0.0580134
-0.369631
0.027282
-0.0420674
0.475059
-0.460274
0.20895
-0.0902788
0.0139836
-0.031193
-0.184992
0.202201
-0.0411919
0.278207
-0.26521
-0.0467134
0.487895
-0.0386837
0.226038
0.0292339
0.0195441
-0.0156623
-0.326987
0.315246
-0.127634
-0.243677
0.0778631
0.242077
-0.01556
0.0276922
-0.0275757
-0.000952751
-0.0137245
-0.00906675
0.0277938
0.0164714
-0.0257318
0.00262335
-0.00343131
-0.00215608
0.25748
-0.0446133
0.00551196
-0.00746588
0.0308092
-0.0410522
0.182969
-0.172726
-0.372171
0.190999
0.253205
0.37958
-0.0173264
0.000327689
-0.362582
0.320845
0.0349649
-0.0483912
-0.0480781
0.355461
-0.0443989
0.0389761
-0.350038
-0.110524
0.771416
-0.0562242
0.406828
0.0595037
-0.0501244
-0.00165312
0.01365
0.0258487
-0.014988
-0.0320411
0.0255887
0.0139368
-0.0023791
-0.212502
0.200945
0.337536
0.170803
-0.0550473
0.214286
-0.180283
0.0218566
-0.0558591
0.246075
-0.197742
0.16169
-0.196701
0.0851823
-0.0501708
0.167007
0.116844
-0.0695653
0.0693583
-0.00245224
0.0138612
-0.0807673
0.173918
-0.0759629
0.0716327
0.0379128
-0.0162016
0.0137026
0.239904
0.107564
-0.101393
0.359669
-0.0163814
0.00707338
-0.350361
0.153688
-0.141433
0.121937
-0.134192
0.223366
-0.236663
-0.0661381
0.0794352
0.302819
-0.51865
-0.092854
0.171795
-0.0689191
0.0956077
-0.198484
0.35927
0.0227162
-0.0223174
0.172448
-0.170228
0.0336466
0.0201288
0.415112
-0.410616
-0.0246256
0.279236
-0.31541
0.014942
0.0212327
-0.0417479
0.191417
-0.135686
-0.0403746
0.23522
0.226121
-0.206004
0.143728
-0.163845
0.270416
-0.185565
0.201566
0.0523785
-0.0594164
0.168728
0.00712941
0.14502
-0.136304
-0.0158457
-0.0232786
0.122756
-0.108912
0.00943478
0.0924173
-0.0486821
-0.0695729
0.0258377
0.0580342
0.0155228
-0.00419868
0.164072
-0.071939
0.0349579
-0.0284463
0.0314012
0.0771649
0.216327
-0.119574
0.169756
-0.14789
0.202745
-0.0549924
0.0756132
0.238418
0.100834
-0.0993482
0.0900608
-0.0521445
0.0137816
-0.0237599
0.318592
-0.308614
0.332326
-0.0240484
0.0177348
-0.326013
0.237258
0.0293844
0.0125935
0.244359
-0.123578
0.129941
0.296662
-0.206439
-0.0632757
0.0647379
-0.409061
0.407599
0.386664
-0.37579
-0.00838335
-0.00248988
0.0272194
0.0230452
0.289325
-0.496092
0.233683
0.248203
-0.21147
0.386875
0.0165717
-0.017199
0.234498
0.145339
-0.135478
-0.325102
-0.123612
0.158533
-0.092557
0.0836819
0.172245
-0.188641
-0.275964
0.201492
0.263114
0.16241
-0.149362
-0.00591887
0.12917
-0.120852
0.210017
-0.19675
0.0638981
-0.0044386
0.314536
-0.345624
0.0355272
0.416098
-0.0327315
0.00329684
-0.120051
-0.318013
0.100397
0.227066
-0.442468
0.306393
-0.043643
0.347411
0.0432772
-0.347045
0.0304938
-0.0285162
-0.0175376
0.125166
0.325654
-0.144991
0.0552572
0.154562
-0.0622745
0.31353
-0.312171
0.0609154
-0.00589463
0.301291
-0.321652
-0.16803
0.0610563
-0.427831
-0.0608717
0.427647
0.0536895
-0.0760975
-0.0814596
0.103868
-0.0811798
0.192722
0.268257
-0.00794851
0.00719591
-0.0037249
0.301057
-0.404387
-0.252916
0.48383
-0.252881
-0.406676
0.175727
0.274581
0.417317
-0.333412
-0.055748
-0.0281575
-0.000567869
0.00144664
-0.00944877
-0.00134335
0.258402
-0.359346
0.0293121
-0.0178216
0.191492
-0.117789
0.343615
0.361657
0.190272
-0.357268
-0.194661
-0.263591
0.267155
-0.375722
-0.0080069
-0.0586577
0.461422
-0.113846
0.0474415
-0.0603902
0.0166902
0.031213
-0.00540187
-0.180614
0.173589
-0.134407
0.0956598
-0.123646
-0.0734196
0.0752695
0.0518396
-0.116066
0.0568074
0.116634
-0.0573748
-0.0484248
0.0745665
0.00881622
-0.304039
0.155139
-0.0670298
-0.0336259
0.201746
0.00875756
0.0237734
0.158431
0.147976
0.0994036
-0.0310524
-0.0905071
0.0821072
-0.328548
0.336948
-0.193479
0.0538673
-0.0455286
0.0778945
-0.156979
0.170651
0.223586
-0.268771
0.16023
0.170972
-0.0624316
-0.0515339
0.0361485
-0.0846165
0.0609675
-0.0174161
0.0189628
-0.00713659
0.102584
-0.0989234
0.234757
-0.373509
0.377777
0.0988925
-0.103161
0.0377845
0.0486112
0.038422
0.262321
-0.255448
-0.0452951
-0.0715427
0.324672
-0.334309
0.249319
-0.0762355
-0.140004
0.0365859
-0.0051309
0.000919354
0.00293697
-0.425708
0.0135827
-0.195991
0.098676
0.199898
-0.317011
0.298823
0.163272
-0.145084
0.0212954
-0.462116
0.473519
-0.032698
-0.135487
0.3272
0.210778
-0.336298
-0.111511
0.141563
-0.174522
0.220379
0.285248
-0.141618
-0.329195
0.332222
-0.0236555
-0.259003
0.283865
-0.06074
0.0408579
-0.317891
-0.259335
0.344368
0.232859
0.00532893
0.00745898
-0.0209168
0.00812885
-0.0727573
0.0233243
-0.228964
0.278397
0.447764
0.270167
-0.435803
-0.282128
-0.214515
0.201385
0.205852
0.249094
-0.152666
0.0874601
-0.284514
0.200306
-0.0351017
-0.0167544
0.00343127
-0.299187
-0.093466
0.171476
-0.212666
0.0293862
0.221792
-0.0385116
-0.23339
0.185355
0.239034
-0.469912
-0.0301595
0.148923
-0.0386019
0.00333801
-0.00858032
0.421341
-0.434046
0.0153835
0.272911
0.145751
-0.0470931
0.0242523
-0.101465
0.227209
-0.180757
-0.0547731
0.0518325
-0.0816759
0.0113421
0.369453
-0.0587477
-0.322047
0.240957
0.177601
-0.258328
-0.136365
-0.089993
0.218347
0.00801096
-0.00737554
-0.00632432
0.0327658
0.410088
-0.049368
0.334197
-0.0514076
0.503718
-0.498544
-0.0518872
-0.449439
0.456332
-0.050513
0.346211
0.0625071
-0.052724
-0.435813
-0.0499876
-0.433073
0.427003
0.055975
-0.0499046
0.49037
-0.538799
0.103301
-0.054873
0.378299
0.0571053
-0.0492527
-0.516044
0.538707
0.0305999
-0.0532622
0.49906
0.0140305
-0.0508423
0.514763
0.053421
-0.515644
-0.0525394
-0.573017
0.683968
-0.0571139
-0.0538375
-0.482271
0.0500778
0.487729
-0.055536
0.442685
0.0594925
-0.452804
-0.0493739
-0.0496163
0.0609842
0.396131
-0.0502874
-0.432875
0.440394
0.0426373
-0.0501561
0.0900506
0.30218
-0.0546953
-0.065774
0.180466
-0.267068
0.259429
-0.166883
0.0125789
-0.00853413
0.00374803
0.0683662
-0.0564733
0.151346
-0.224877
0.215393
0.312148
-0.206869
0.311801
-0.0393692
0.323774
-0.270468
-0.0113482
0.00134134
0.132763
-0.201697
-0.0364467
0.0264555
0.155011
-0.026644
0.331108
-0.338105
0.358899
0.0291145
-0.0499087
0.442082
0.0172734
-0.049267
0.359983
0.0244505
-0.0502367
-0.435453
0.367268
-0.0535634
0.179254
-0.0454276
-0.222281
0.336466
-0.392467
0.402627
-0.161328
-0.00941
-0.0130829
-0.3636
0.386093
0.0500417
-0.0552115
0.167404
0.0547508
0.0255631
-0.211809
-0.256627
0.0920474
-0.109791
0.274371
0.256687
-0.419939
0.0158885
-0.0375408
-0.0134494
0.237396
-0.257722
-0.252288
0.272615
-0.242114
-0.157188
0.114788
-0.344063
0.356984
0.0394496
-0.0523714
-0.381484
0.421881
-0.0498069
-0.317935
0.325564
-0.0560519
-0.345509
-0.0556473
-0.355941
0.360479
0.0457302
-0.0502678
0.316386
-0.318789
0.0577696
-0.0553664
-0.577185
0.466184
0.160346
-0.0493452
-0.38441
0.40197
0.0317702
-0.0493294
-0.535053
-0.063842
0.649952
-0.0510564
0.47646
0.16906
-0.593428
-0.0520923
0.475516
-0.453495
0.0312282
-0.0532488
0.504757
-0.491606
0.0406981
-0.0538495
0.0601088
-0.391835
-0.0104158
0.00816045
0.316791
0.20374
0.236186
-0.268954
0.214868
0.159992
-0.147651
0.339424
-0.230648
0.36678
-0.246951
-0.0241686
-0.288459
0.0591301
0.105653
-0.107976
-0.360694
0.0552381
-0.0504852
-0.0556951
0.0290348
-0.0500404
0.0788913
0.449875
-0.0523057
0.0547094
-0.0525613
0.506685
0.052207
-0.0541352
-0.332716
0.0430917
-0.0558852
0.0432041
-0.0493152
-0.0534733
-0.3245
0.0603457
-0.0546344
-0.455642
-0.0720894
-0.0494533
0.0148936
-0.0508865
-0.124337
-0.380323
0.256935
-0.293349
-0.044778
0.0544284
-0.162355
-0.0284379
-0.270136
0.287585
-0.161102
0.0214938
0.173766
-0.39017
0.273929
-0.235269
0.228067
0.216631
-0.187713
0.00262319
0.000307001
0.00175341
-0.107039
0.102026
-0.238665
-0.161531
-0.0078355
0.0168581
0.141595
0.299862
0.223064
-0.0439767
-0.342109
0.0530411
-0.278525
-0.041584
0.0585941
-0.0477984
0.03969
-0.0504857
-0.000377441
0.004916
-0.266113
0.224867
-0.458302
0.132413
-0.0298877
-0.00168248
0.194187
0.0543503
-0.0474355
0.436756
0.0515138
-0.0527953
0.525208
-0.0324249
-0.0653451
-0.427438
0.0591123
-0.0495006
0.235321
-0.349405
0.083411
-0.335183
0.00965778
0.0265287
0.0371045
0.260404
-0.274414
0.191611
-0.048947
-0.299263
-0.106045
0.383161
-0.367624
-0.0792894
0.0850717
-0.00203424
-0.308849
0.0829561
0.0612184
-0.186336
-0.0041521
0.227755
-0.107124
-0.00284045
0.380754
-0.37084
0.184907
-0.103862
0.133823
-0.0110971
0.0033303
0.0405827
-0.0490781
0.0756654
0.0255599
0.104884
-0.0498983
-0.42221
-0.0926687
0.281489
0.00975744
0.144747
-0.156883
0.0418921
-0.0513607
-0.0439427
0.261048
0.302232
-0.202466
-0.279918
0.180152
0.166031
-0.0608226
0.34855
-0.146729
-0.242354
0.0710703