/*--------------------------------*- C++ -*----------------------------------*\
  =========                 |
  \\      /  F ield         | OpenFOAM: The Open Source CFD Toolbox
   \\    /   O peration     | Website:  https://openfoam.org
    \\  /    A nd           | Version:  10
     \\/     M anipulation  |
\*---------------------------------------------------------------------------*/
FoamFile
{
    format      ascii;
    class       volVectorField;
    location    "1157";
    object      U;
}
// * * * * * * * * * * * * * * * * * * * * * * * * * * * * * * * * * * * * * //

dimensions      [0 1 -1 0 0 0 0];

internalField   nonuniform List<vector> 
23845
(
(0.711302 -0.106715 1.18668e-20)
(0.474477 0.0965729 -5.22072e-21)
(0.238968 -0.0114522 2.75113e-20)
(-0.136436 0.0167771 7.30196e-22)
(0.0751767 0.0583326 5.40946e-21)
(0.810046 -0.00715798 -2.57967e-24)
(0.915942 -0.0284683 -1.28764e-20)
(-0.0755978 0.0664448 -2.67585e-22)
(0.934839 -0.00775603 6.24622e-24)
(0.852372 0.0963684 -5.85071e-21)
(0.447619 -0.0478438 -5.50919e-21)
(0.750192 -0.000823576 3.96432e-24)
(0.927313 0.0153984 1.63236e-23)
(0.890143 -0.00838891 1.54825e-24)
(0.713535 0.0336516 -2.16572e-20)
(0.933705 0.0732431 -1.04317e-21)
(0.808226 0.020515 1.68845e-23)
(0.599005 -0.0161805 -8.03352e-24)
(0.948428 -0.0257133 -1.86619e-22)
(0.775022 0.00836373 2.76398e-22)
(0.888616 0.0977204 1.91804e-20)
(0.400339 -0.0361721 -9.8325e-21)
(1.05626 -0.0514861 -3.20439e-21)
(0.941329 -0.00819666 6.92764e-24)
(0.759583 0.0870259 -1.02317e-21)
(0.99282 0.00719629 -1.07491e-23)
(0.937099 0.0519535 1.07078e-20)
(0.804822 -0.00869465 4.32822e-22)
(-0.0526815 -0.117516 7.83321e-21)
(0.800786 0.00951962 -1.67215e-22)
(-0.148761 -0.00884438 3.23243e-20)
(-0.0310717 0.0859186 4.185e-22)
(0.414673 -0.0195657 1.01255e-20)
(0.648421 -0.0216784 -7.68676e-24)
(0.747026 0.000562603 -1.56786e-23)
(0.74023 0.00421237 2.23152e-22)
(-0.0436792 0.116754 -7.18604e-21)
(0.749035 -0.000806639 -4.03143e-24)
(0.777621 -0.00416782 -1.82563e-23)
(0.918982 0.00905067 8.50007e-24)
(0.97686 -0.0320373 1.39616e-22)
(0.735015 -0.0159453 3.58526e-22)
(0.948807 -0.0137462 -1.87565e-22)
(0.68198 0.0133605 -1.88129e-22)
(1.01124 -0.00727825 -4.61229e-23)
(0.884854 0.0161126 6.05989e-23)
(-0.0707092 -0.0249557 -1.85772e-21)
(0.891626 -0.0703398 -4.67734e-21)
(-0.0235433 0.00963306 1.56959e-21)
(-0.0595623 -0.115548 3.44608e-21)
(-0.0491164 -0.0441091 7.189e-22)
(0.154583 -0.0149082 -4.02442e-21)
(-0.0220219 -0.0406977 -3.66174e-21)
(0.85741 -0.00901317 -1.58554e-22)
(-0.0342642 0.0957764 7.63067e-21)
(0.865521 0.0205834 1.8561e-23)
(0.210032 0.0702346 2.7201e-20)
(-0.0907233 -0.036723 1.88109e-20)
(0.782037 0.104049 -3.72528e-20)
(0.0097299 0.0258197 -1.73808e-20)
(-0.0429198 0.102916 2.55811e-21)
(0.695679 0.0151381 6.5915e-23)
(0.922131 0.0624403 -1.15809e-21)
(-0.0377693 -0.0966511 3.36486e-21)
(0.960767 -0.00830198 4.49353e-25)
(0.909386 0.0148851 -1.06124e-22)
(0.978136 0.0343777 1.10231e-20)
(1.0197 0.00671128 9.4336e-23)
(1.01804 -0.00724181 -1.79556e-22)
(0.937646 -0.0328184 5.83376e-23)
(-0.0606139 0.0873908 2.73007e-22)
(0.146069 0.00594762 1.67839e-20)
(0.983533 0.00947159 9.31645e-24)
(0.794903 0.0313957 1.24766e-20)
(0.981054 -0.0080397 -2.82733e-22)
(0.65657 0.0324776 -7.78231e-23)
(0.755572 -0.00194673 -5.38897e-24)
(0.774698 -0.00455182 2.32685e-23)
(-0.118682 -0.0226211 3.83105e-21)
(0.787563 0.0304105 3.26021e-24)
(0.9676 0.0693517 -2.58754e-21)
(0.680201 -0.0382321 -3.80732e-20)
(0.324413 0.0850227 -4.59342e-21)
(-0.0851121 -0.053332 -7.94636e-22)
(0.242438 -0.00287462 -7.89923e-21)
(0.748367 0.00178267 -3.72232e-23)
(0.608194 0.0579278 1.45134e-20)
(-0.0176588 -0.0134315 1.70725e-20)
(0.961005 -0.00777337 9.47604e-23)
(0.854421 0.0295685 -1.26632e-22)
(-0.0477855 -0.0816155 -1.27142e-20)
(0.971997 0.0413473 -6.54429e-22)
(-0.048258 -0.106224 1.13557e-20)
(0.749417 -0.00495288 -1.75979e-22)
(-0.0877571 -0.0249163 2.81856e-21)
(-0.0535414 -0.0918732 -3.56386e-20)
(0.844101 -0.0197335 2.36785e-23)
(0.873023 -0.0729022 -3.63445e-22)
(0.979775 -0.00799299 2.11683e-23)
(-0.0112075 0.0379616 -8.2266e-21)
(0.849213 -0.0234933 6.45699e-23)
(0.97451 0.0308957 3.77793e-21)
(0.405183 -0.0980244 1.50408e-20)
(-0.0689595 -0.0877357 -1.59396e-20)
(-0.0541728 -0.093956 -2.9661e-20)
(-0.0934612 -0.0452776 5.24182e-21)
(0.829951 -0.00809998 9.75892e-24)
(0.992994 -0.00795925 1.64973e-22)
(1.03477 0.0258648 -1.7024e-21)
(0.710201 0.0139488 1.93836e-22)
(0.495976 -0.0437004 -1.6241e-21)
(0.754054 -0.00214684 -8.08689e-24)
(0.357083 0.0116882 1.61004e-20)
(0.846089 -0.0886841 -2.22094e-21)
(0.744012 0.00476027 -1.10827e-22)
(0.954161 -0.088744 -2.74141e-21)
(0.978031 -0.00769367 -1.26085e-22)
(0.939672 0.0831623 -5.935e-21)
(-0.0525064 -0.118995 5.75437e-21)
(-0.022462 0.0841218 -1.59236e-20)
(0.76703 -0.00350598 -2.50096e-23)
(-0.0394413 -0.0935372 -1.97631e-21)
(0.937992 0.0324232 6.61049e-23)
(0.022482 0.0438717 3.50372e-20)
(0.958668 0.029527 -3.6533e-21)
(0.987554 0.00759872 -1.74149e-23)
(-0.0458836 0.0994676 2.15379e-21)
(-0.0606389 -0.110954 -1.3018e-20)
(0.12477 0.0228181 1.0577e-21)
(-0.0585963 -0.0339259 1.26842e-20)
(0.128618 0.0276122 1.85996e-20)
(0.469781 0.0847647 5.97878e-22)
(0.316351 -0.0511183 2.71843e-22)
(0.858115 -0.00804755 1.59047e-24)
(0.824661 -0.0289607 3.22977e-23)
(0.572542 -0.106946 4.34992e-21)
(-0.0658872 0.09397 3.33398e-20)
(0.751532 -0.000970299 1.05899e-23)
(1.0262 -0.0300604 6.46385e-23)
(0.78249 -0.00493181 1.73847e-23)
(-0.0550946 -0.123775 -1.57446e-20)
(0.726043 -0.0138936 -1.17849e-22)
(0.76674 0.00528507 5.18098e-23)
(0.658376 0.0127471 3.49775e-22)
(0.928236 -0.0541562 -2.39844e-21)
(0.698536 0.0120897 -2.13456e-22)
(0.953463 -0.0876413 -3.17752e-22)
(0.3876 0.0216326 4.29886e-20)
(0.0087456 0.0734549 -1.30117e-20)
(0.867406 0.039484 2.25721e-22)
(0.436915 0.0173141 -1.68873e-20)
(0.951253 0.0107914 -2.9003e-23)
(0.443165 -0.0643851 1.55162e-20)
(0.904558 -0.0111139 9.15757e-23)
(0.319629 -0.00520188 -5.85148e-21)
(0.728086 0.0505887 -8.7218e-22)
(0.232164 -0.0831832 -5.20361e-21)
(0.750332 -0.00305856 -7.9119e-23)
(0.15449 0.0207209 1.30086e-21)
(-0.0537681 -0.10724 3.75306e-21)
(0.926626 0.0408783 2.96339e-22)
(0.65848 -0.0308922 -1.81953e-21)
(-0.0829978 0.0124586 -1.03272e-21)
(0.953058 -0.00798272 1.70184e-23)
(0.993703 -0.015687 -2.03894e-23)
(0.788594 0.0391284 1.85725e-22)
(0.828415 -0.00733478 -2.70357e-23)
(-0.0447863 0.101136 -5.67088e-21)
(0.796579 -0.0082889 -3.38069e-23)
(0.696225 -0.0112848 2.67395e-22)
(0.841346 0.00816333 2.42636e-23)
(-0.117935 0.0215539 5.22279e-21)
(0.947295 -0.00866908 1.4117e-23)
(-0.0119217 0.0455038 -7.38915e-21)
(0.958217 0.00851895 2.84866e-22)
(-0.106845 -0.00158427 -4.48978e-21)
(0.975324 0.0494382 6.39884e-22)
(0.671676 0.061016 1.55105e-21)
(0.993466 -0.00721747 -1.0756e-23)
(0.754928 -0.00338237 2.78346e-23)
(0.00645686 -0.0414768 6.9462e-21)
(-0.0418812 -0.0248005 8.34073e-22)
(0.760918 0.0348203 1.10174e-20)
(0.482031 -0.0359021 -6.69451e-22)
(0.925007 -0.0629057 -3.08323e-21)
(0.91651 0.0200963 1.11209e-23)
(0.724213 0.015512 -7.36265e-23)
(-0.0774811 -0.060519 2.7568e-21)
(-0.0553002 0.117336 1.84825e-21)
(0.762495 -0.0164796 -4.68834e-23)
(-0.0467589 0.102174 2.95091e-20)
(0.888269 -0.00825751 2.58844e-23)
(0.894068 0.00863579 8.67542e-24)
(0.846157 0.00837207 -1.64285e-23)
(0.936141 0.0502888 -8.64657e-22)
(0.90911 -0.00829616 -7.01834e-23)
(-0.0648732 -0.0926969 -2.74386e-21)
(-0.0557137 0.108418 1.94828e-21)
(-0.0789197 -0.0703842 -1.00761e-20)
(0.562759 -0.0519359 2.61672e-22)
(0.70032 0.0379782 -8.12697e-23)
(0.897551 -0.00916903 -3.22033e-22)
(0.00228655 0.0746272 -6.86508e-21)
(0.349149 0.068172 1.21433e-21)
(-0.0820039 0.0589384 1.165e-20)
(-0.0838607 0.0260983 7.35646e-22)
(0.216632 0.00180957 -3.84014e-20)
(0.80476 -0.00605794 -1.59245e-23)
(0.737277 -0.0902305 -1.14682e-20)
(0.610036 0.0199884 -1.79289e-22)
(0.719066 0.0285903 -6.07045e-23)
(-0.0483518 0.114438 1.06497e-20)
(0.976072 -0.0578713 9.72703e-23)
(0.828572 -0.0106295 4.53896e-23)
(-0.0342302 -0.036137 2.5182e-21)
(-0.0395718 -0.106891 -6.01306e-21)
(0.247182 0.0480035 -3.77284e-21)
(0.701282 0.016334 -5.7951e-23)
(-0.0525254 0.118276 1.56706e-20)
(0.148617 0.0272808 -1.87787e-22)
(0.978837 -0.0103972 -2.85998e-23)
(0.729529 0.0329051 -6.51694e-21)
(-0.0668567 0.0907828 -2.08423e-20)
(0.815055 0.0514254 -1.03993e-21)
(0.670898 0.0105626 -1.1343e-22)
(0.456855 -0.0208754 2.1494e-20)
(-0.0594169 -0.112387 -7.50641e-21)
(0.885921 -0.00811591 5.96801e-23)
(0.80937 0.00807915 4.07709e-24)
(0.976436 0.0322782 5.62374e-22)
(0.769807 -0.00536099 1.22632e-22)
(-0.0282301 -0.00639516 -9.52087e-21)
(0.75345 -0.00222676 6.48873e-24)
(1.0146 0.00660751 -2.45978e-23)
(0.116547 0.0633266 8.45548e-21)
(-0.0497757 -0.112574 -1.06603e-20)
(0.967267 -0.00865398 6.58187e-23)
(-0.153538 0.00799238 8.83256e-21)
(0.955299 0.00832951 9.68197e-23)
(-0.0796768 -0.0263935 2.20633e-20)
(-0.0222128 0.0248218 8.7554e-21)
(0.940846 -0.0867669 6.65183e-21)
(-0.0969369 -0.0431158 -1.28743e-20)
(0.122805 0.0660111 -1.40206e-20)
(-0.0424662 0.0921051 3.16306e-21)
(0.912855 0.0651247 -2.45208e-22)
(0.838405 -0.00808213 4.23364e-25)
(1.01823 -0.00664355 2.87862e-22)
(-0.0962785 0.0113685 2.12547e-21)
(0.608265 -0.0300651 5.23394e-21)
(0.852734 -0.0149933 -4.14483e-23)
(0.747422 0.00276307 -1.06906e-23)
(-0.0511313 0.0538715 -4.41606e-21)
(0.965392 0.0146255 -2.98276e-25)
(0.787798 -0.0294876 -8.02316e-21)
(-0.0507852 0.0872349 2.18715e-21)
(-0.00498336 0.0734417 4.23091e-20)
(-0.0615036 0.0614098 7.54964e-22)
(0.74312 -0.00468491 1.87882e-23)
(0.932619 -0.0087256 -1.17474e-22)
(-0.0134787 0.000541961 -2.11797e-20)
(0.743479 -0.00213149 -2.22441e-23)
(-0.0501327 0.0952227 -3.48587e-21)
(0.543956 -0.0455223 1.95853e-21)
(0.636526 0.0461996 -2.68113e-23)
(0.944203 0.00795049 -2.56958e-23)
(-0.1161 -0.00449685 -3.11682e-21)
(0.0556339 0.0449664 -1.41924e-21)
(-0.140346 -0.00146158 5.53911e-21)
(-0.147713 0.00969678 -1.55855e-20)
(0.767224 -0.00387001 9.70945e-24)
(-0.114214 0.0270862 -3.12045e-21)
(-0.0437753 -0.0145382 -5.12186e-22)
(0.881515 0.00881418 -7.26335e-23)
(0.436882 -0.0319245 -1.12753e-21)
(0.901519 0.00884567 1.05883e-23)
(-0.0589376 -0.0690961 6.94832e-21)
(0.8769 -0.00806985 -3.13556e-23)
(-0.0654271 -0.0720343 3.71755e-21)
(1.05835 0.0550468 1.83226e-20)
(-0.0837061 -0.0474324 1.89398e-20)
(0.813914 0.00817102 -1.88153e-23)
(-0.0603524 -0.0340668 1.0144e-20)
(0.876717 -0.0489914 6.18368e-23)
(0.744423 0.000141834 -1.59482e-23)
(-0.0206516 -0.0881005 -1.29606e-20)
(-0.0266544 0.0355127 -3.96192e-21)
(0.91187 -0.00811194 -3.93195e-23)
(-0.0850321 0.0381325 -3.90106e-22)
(0.42654 -0.0192633 1.00528e-20)
(-0.108473 0.0101372 2.57432e-21)
(-0.0363624 0.0295665 -1.06273e-20)
(-0.0352446 -0.0981481 2.61013e-20)
(-0.0603432 0.0724791 -5.2415e-21)
(-0.0962881 0.0235262 3.37861e-22)
(0.74791 -0.00103437 -6.01237e-24)
(-0.0115441 0.0829783 1.67661e-20)
(0.853117 -0.00847621 -9.06944e-23)
(0.74691 0.00157183 -5.4145e-24)
(-0.0527614 -0.117719 -6.93747e-21)
(0.143955 0.0170368 3.13805e-20)
(0.456213 -0.0178412 1.49831e-20)
(-0.0474727 -0.111367 1.91753e-20)
(-0.155892 -0.00101624 8.13373e-20)
(0.860389 0.00842136 2.52946e-23)
(-0.160681 0.00185981 -4.73354e-20)
(-0.0396295 -0.0926671 -1.30665e-20)
(-0.0460045 -0.029031 -3.16845e-21)
(0.858624 -0.0227048 1.91292e-24)
(-0.0647149 0.0977718 4.4994e-21)
(-0.0415046 0.000179967 -1.28518e-20)
(0.325012 -0.0603461 3.17883e-20)
(0.918715 -0.0208178 1.28375e-23)
(0.837241 0.00831459 9.31839e-23)
(0.0525622 0.00144107 3.09869e-20)
(-0.0564142 -0.122088 1.45728e-20)
(-0.0172985 -0.0856495 1.80649e-21)
(0.321282 0.0501213 -1.43202e-20)
(-0.0513263 0.0956222 5.64685e-21)
(0.974996 -0.0114322 1.60509e-23)
(-0.0556783 0.087672 8.82036e-21)
(-0.0466945 0.108556 -8.11015e-21)
(0.0218266 0.0639264 -2.30448e-20)
(0.813635 -0.00913765 -1.63525e-22)
(0.532296 -0.0279831 -1.24989e-20)
(0.800105 0.00723338 -1.84344e-23)
(-0.136373 -0.00761377 -1.94829e-20)
(-0.0783245 -0.0261823 1.16363e-20)
(-0.00223189 -0.0705854 -6.13718e-22)
(0.569839 0.0159993 4.36649e-22)
(0.339608 -0.0295236 5.23442e-20)
(0.818892 -0.0466939 -1.78087e-22)
(-0.049787 -0.0670339 9.68936e-21)
(0.738435 -0.000318182 1.88477e-23)
(-0.000684294 -0.0750333 -4.68122e-21)
(-0.139828 0.0132407 -2.27432e-21)
(-0.0717309 -0.0149794 -1.2099e-20)
(0.587981 0.0137394 -2.22847e-22)
(0.722127 0.0111089 2.40089e-22)
(-0.12304 -0.009606 1.07904e-20)
(-0.0896102 0.0233969 -1.32938e-21)
(0.0150115 0.0699089 -1.32841e-20)
(0.449423 -0.0402958 6.75444e-21)
(1.01251 0.00730116 -4.35042e-23)
(1.01323 -0.00721403 2.12509e-23)
(-0.0698766 0.0672134 -4.85126e-21)
(0.740346 0.00189191 -3.99395e-23)
(-0.0556082 -0.0812147 6.07966e-21)
(-0.128014 -0.0148289 9.21392e-21)
(0.365773 -0.0157822 -4.18737e-21)
(-0.0964817 -0.011441 1.6445e-20)
(0.121894 -0.0298735 -6.98641e-21)
(-0.0618701 0.109539 2.06688e-20)
(-0.0561078 -0.0534651 -1.08191e-20)
(-0.0210384 0.0418547 2.16258e-20)
(0.892275 0.00859183 5.42526e-23)
(0.685296 -0.0095963 -2.16492e-23)
(0.969758 0.00903373 -3.06556e-23)
(0.47653 0.0261589 -7.53021e-21)
(-0.0965812 -0.0393141 3.61596e-21)
(0.0662876 0.0358353 -1.22634e-20)
(0.965896 0.007538 -4.44226e-23)
(0.947272 -0.0887037 -7.10173e-21)
(0.886483 -0.0438064 -8.93458e-22)
(-0.0538816 0.118999 1.07103e-20)
(0.838543 -0.00764063 1.76436e-24)
(0.0252101 -0.0569916 -3.13178e-21)
(0.760005 -0.00652316 7.18738e-23)
(-0.0526585 -0.119285 6.74564e-21)
(0.992649 0.00809703 3.31671e-23)
(0.701446 -0.0127007 -4.75633e-23)
(-0.0469814 -0.0932183 1.9173e-20)
(-0.0306621 0.0668135 -1.38312e-20)
(0.751133 0.0020681 8.50303e-24)
(0.754432 -0.00408756 4.59253e-23)
(-0.0517679 0.0773638 -3.47758e-21)
(0.0492621 -0.00795723 -2.20461e-20)
(-0.1178 0.0162993 -3.68503e-21)
(0.718182 -0.0127734 -1.18553e-22)
(-0.0858001 0.0362493 6.90814e-21)
(0.651654 -0.0361498 -1.22499e-20)
(0.742763 -0.00255515 -1.13964e-23)
(1.02612 -0.0641521 1.50942e-20)
(1.01564 -0.0071839 3.68741e-23)
(1.01413 0.00697776 -9.68634e-25)
(0.760929 -0.00316476 -1.25729e-23)
(0.785883 -0.0059773 -2.35168e-22)
(-0.116227 -0.0174102 -6.38648e-21)
(0.613993 0.031173 -2.25334e-23)
(-0.097884 -0.0255345 -1.35169e-20)
(0.941409 -0.0397167 -2.72615e-21)
(0.688904 0.0109447 7.45674e-23)
(-0.0361381 -0.0839773 3.08785e-20)
(-0.0528866 -0.0852008 7.58035e-21)
(-0.038633 0.0149185 9.52528e-21)
(-0.0533504 0.113188 6.6683e-21)
(0.551019 0.0395588 -9.05279e-22)
(0.999958 -0.00758261 -8.92698e-24)
(0.933097 -0.0336301 -2.72935e-22)
(0.736689 -0.000627788 6.56058e-23)
(-0.0253723 -0.00904829 -1.80505e-20)
(-0.159907 0.000624193 4.84228e-20)
(-0.0744307 0.0446746 2.66057e-22)
(-0.0532669 0.0216437 -7.73443e-21)
(0.123104 0.0479999 1.95332e-20)
(0.692207 0.0365971 1.16336e-20)
(0.799985 -0.00587369 1.71687e-24)
(-0.0351522 0.0770534 1.96675e-20)
(-0.0539495 -0.101373 9.82252e-22)
(-0.0297823 0.0812175 -1.62302e-20)
(0.548465 -0.023222 -1.05013e-20)
(1.01594 0.00631972 2.34876e-23)
(0.852711 0.0311392 9.82954e-21)
(0.0279341 -0.0641659 1.14769e-20)
(0.331387 0.0936517 -1.55057e-20)
(0.0792575 -0.00299388 -1.64239e-20)
(-0.136025 -0.00489303 1.74872e-20)
(0.43826 -0.0266151 -4.51191e-22)
(0.784708 0.00642885 5.8381e-23)
(0.960515 0.0918062 1.38491e-21)
(0.141112 -0.00816179 6.93058e-21)
(0.745449 0.010214 8.49502e-23)
(0.923141 -0.00802805 5.68231e-24)
(-0.130093 -0.001901 6.22863e-21)
(-0.0462496 0.0870444 6.5856e-21)
(0.650748 0.100673 5.97409e-20)
(0.109311 0.0132881 -6.4162e-21)
(-0.138097 -0.0070073 1.45966e-20)
(0.0106893 0.0329386 1.1608e-20)
(0.0524797 0.0310282 -2.59106e-20)
(0.898051 -0.00817624 4.76603e-24)
(0.638581 0.0184305 4.18346e-23)
(0.0122443 -0.0701007 -2.52094e-20)
(0.560274 0.00728127 3.28747e-22)
(0.853982 0.0125719 5.12809e-23)
(0.987445 -0.00902177 6.58843e-23)
(0.749036 0.00132863 3.21892e-23)
(0.917584 0.0193959 -1.16389e-23)
(-0.0463601 -0.110167 4.31623e-21)
(-0.0219343 0.0266876 4.20956e-21)
(0.572482 0.0304127 -4.94691e-22)
(0.0512834 -0.0225233 -1.56133e-20)
(-0.0564684 0.0966511 -2.12441e-20)
(0.114629 0.0300144 -5.01435e-21)
(-0.149421 -0.00281949 -8.27639e-21)
(-0.0174376 -0.0839666 -6.69971e-21)
(0.78776 -0.00911631 3.42446e-22)
(-0.162817 0.00383129 -2.32652e-20)
(0.778906 0.00639126 -3.64576e-23)
(-0.0915667 0.0306775 -6.04868e-21)
(-0.122002 0.00247705 3.04537e-21)
(0.944396 -0.010792 -5.66017e-23)
(0.0218363 0.0355286 -1.60914e-20)
(0.742441 0.00306625 -2.25893e-22)
(1.0098 0.00674765 -1.18379e-22)
(0.0131545 -0.0693565 -1.63602e-21)
(0.00327205 0.0300999 4.9384e-21)
(0.343214 0.0691744 2.3083e-21)
(-0.0681773 0.0635005 1.29991e-20)
(0.872883 -0.00915611 1.92082e-22)
(0.77421 -0.0895963 -6.70441e-21)
(-0.148401 0.00440571 -5.26269e-20)
(-0.0626562 -0.102287 2.271e-20)
(-0.0388437 -0.0284754 -7.24794e-21)
(0.778419 0.00645636 5.95373e-23)
(0.786614 -0.00560976 -1.56665e-23)
(0.835512 0.00863171 3.2393e-23)
(-0.0313649 -0.0212097 3.50773e-21)
(1.01117 0.00756556 -1.57704e-23)
(0.338614 -0.0108576 -4.05614e-21)
(0.808911 0.00852119 -4.48631e-23)
(0.817993 -0.00682427 -1.29921e-23)
(-0.168318 -0.00106994 -3.85487e-21)
(-0.0394041 0.0907655 7.90233e-21)
(-0.031963 0.0908547 -2.22783e-20)
(0.101894 -0.0611461 7.38129e-21)
(0.957934 -0.00992392 -5.12562e-23)
(-0.0411492 0.081015 -6.17781e-21)
(0.842019 -0.00920119 -2.79206e-22)
(0.887528 0.0336463 9.80028e-23)
(-0.13547 0.009668 2.2359e-21)
(-0.162462 -3.10236e-05 -2.10717e-20)
(-0.162974 0.00277994 -8.42999e-21)
(0.382819 0.0306882 -3.10354e-21)
(0.561632 0.0275839 -9.30726e-24)
(0.531016 0.0336929 -1.07797e-20)
(0.760874 -0.00341942 2.21537e-23)
(0.754571 0.00345481 -2.52954e-23)
(0.276521 0.0238228 -3.69562e-21)
(0.0217242 0.0615201 -9.64104e-21)
(0.989713 0.00797302 -1.80574e-23)
(0.163173 -0.0132299 2.27753e-20)
(-0.0557063 0.087741 6.94902e-21)
(-0.156482 0.00350068 -1.67019e-20)
(-0.0721242 0.0656621 -7.48829e-21)
(-0.107389 0.0161337 6.77716e-20)
(0.984188 -0.00964924 -2.69571e-22)
(0.0716376 0.00643419 -7.41119e-21)
(0.973417 -0.00774531 5.23378e-24)
(0.748027 0.00343112 1.13703e-22)
(0.460358 -0.054321 1.86668e-20)
(-0.0526074 0.124476 -1.37246e-20)
(0.0409875 0.059781 2.10475e-21)
(-0.129731 0.00237744 -1.53199e-20)
(-0.0948116 0.0461685 1.20218e-20)
(-0.107995 -0.0341564 1.31099e-20)
(0.519724 -0.038227 1.69668e-21)
(0.960471 0.0175556 3.48882e-23)
(0.770807 -0.00768748 -7.14253e-23)
(0.0306692 0.0621814 -2.3714e-20)
(-0.16382 -0.00254759 1.11437e-20)
(0.0550185 -0.0532331 -1.81767e-20)
(-0.0450705 -0.117459 3.09469e-20)
(-0.167977 0.000252981 1.04301e-20)
(0.870938 0.00888777 -4.8532e-23)
(1.00975 0.00768884 9.97499e-25)
(-0.165981 -0.00115113 4.78892e-21)
(0.316402 -0.00694596 -9.74778e-21)
(0.284439 -0.00103049 5.2664e-21)
(0.747161 0.0118274 1.75746e-22)
(-0.0333721 -0.100517 2.58358e-20)
(0.877403 -0.00970332 5.4707e-24)
(0.599635 0.0176171 -3.4207e-23)
(-0.0175897 -0.080019 1.17014e-20)
(1.00753 0.00734712 -2.54531e-23)
(0.850002 -0.036906 5.72699e-21)
(0.74499 -0.0332114 -5.9343e-21)
(-0.0303382 0.0948365 -2.47223e-20)
(0.980596 -0.0723523 1.19086e-22)
(-0.0528083 0.116946 -3.58144e-21)
(-0.0513633 -0.111299 1.02114e-21)
(0.210469 -0.0049219 -5.38312e-21)
(0.11483 -0.0485808 2.4249e-20)
(1.07417 0.0438853 -1.49484e-20)
(0.900077 0.0255873 3.61057e-24)
(0.95955 0.0182633 1.42272e-23)
(0.850632 -0.00948597 1.31872e-22)
(0.0026861 -0.0755288 1.81922e-20)
(-0.0750508 0.00200645 -8.567e-20)
(-0.119284 -0.0265425 -1.58887e-20)
(0.24997 0.00308093 6.38949e-21)
(0.882241 -0.00899941 -9.46263e-23)
(1.05475 0.0616318 1.58047e-20)
(1.05146 -0.0585647 -2.62055e-21)
(0.933832 -0.0457512 7.21518e-23)
(1.04497 -0.0672133 -7.14994e-21)
(0.353679 0.0282306 1.03819e-21)
(0.936069 -0.0139026 4.41079e-22)
(0.824101 -0.00961892 8.08745e-23)
(0.926216 0.0124977 7.77575e-23)
(0.909195 -0.011317 5.41573e-23)
(0.74571 0.000270881 3.30765e-23)
(0.0198002 -0.0450458 -2.80596e-21)
(0.89986 -0.0129635 -1.81683e-22)
(-0.0861003 0.0519506 -4.25706e-21)
(0.507983 0.0794987 -1.63952e-20)
(0.713408 -0.0107292 -6.14998e-22)
(0.0527958 0.0549358 -1.24163e-20)
(0.73855 0.0014874 -1.23126e-23)
(0.782617 0.0075639 -2.8565e-22)
(-0.0947313 -0.00114624 1.79444e-21)
(-0.13465 0.00559425 -2.1717e-21)
(0.0386939 -0.0384964 -9.84143e-21)
(0.770654 -0.00827308 2.44198e-23)
(0.707552 0.0128441 3.36313e-24)
(-0.0515351 -0.0769024 -5.39507e-23)
(-0.048427 0.0967255 5.3591e-22)
(0.983983 0.0073837 6.41068e-23)
(-0.0487492 0.113112 -2.22941e-20)
(0.963731 0.0153052 -1.4541e-23)
(1.00961 -0.00780655 3.8652e-23)
(0.814497 -0.0416625 2.53679e-21)
(0.91568 0.0210074 -6.39541e-24)
(0.826949 0.00827102 1.65241e-22)
(0.917602 -0.0778893 6.95757e-21)
(0.015093 -0.0377206 -1.76555e-21)
(0.00567383 -0.0578926 -4.56889e-20)
(0.209733 -0.0133154 8.47242e-21)
(-0.0651079 -0.0570695 8.41976e-21)
(-0.0550112 0.0197773 1.43082e-20)
(1.00703 -0.00838895 3.35081e-23)
(0.754456 -0.00207097 -9.2798e-25)
(0.929463 -0.0479995 5.49265e-22)
(0.328 0.0207 8.59581e-21)
(-0.00941114 0.0777028 1.10676e-20)
(0.66905 -0.00584431 3.30107e-22)
(0.985417 0.00925121 5.32161e-25)
(0.978945 -0.00941946 1.02839e-23)
(-0.0655647 -0.042281 -1.17224e-20)
(0.976145 -0.00932893 3.22478e-22)
(1.08204 -0.0374763 -6.72948e-21)
(0.424867 0.0217751 1.20594e-21)
(0.653799 -0.100078 -4.00308e-21)
(0.46845 -0.0291542 -8.51254e-22)
(-0.0586847 -0.0897788 -3.97061e-21)
(0.669679 -0.00718429 2.97636e-22)
(1.01045 -0.00713343 -6.21245e-23)
(0.871934 -0.00854829 2.99411e-22)
(0.603331 -0.01495 3.37329e-23)
(0.759417 0.00385221 2.00987e-23)
(0.144438 -0.00993172 8.59218e-21)
(0.851132 -0.0118196 -1.83724e-22)
(-0.0237318 0.0062783 -3.60658e-21)
(0.599072 0.0351026 -9.27669e-21)
(-0.0598112 0.0299818 -1.08169e-21)
(0.633626 0.0858277 -4.30333e-22)
(-0.0626728 0.0494156 -1.09119e-21)
(-0.0418247 0.0157131 -2.21818e-20)
(0.847403 -0.0321851 -1.93748e-21)
(0.743142 0.0494925 1.13259e-21)
(-0.132626 -0.00604333 7.55399e-20)
(0.382149 0.0904028 -1.03622e-20)
(0.209043 -0.0663375 -1.86927e-20)
(0.0254015 0.0369773 -5.1667e-21)
(-0.00454387 0.071018 3.0645e-20)
(0.594316 0.104429 2.45314e-20)
(0.118093 0.0228671 -2.5123e-20)
(0.258168 0.078075 1.8717e-20)
(0.80864 0.0108937 -1.85163e-22)
(0.862997 -0.0106724 -3.10229e-23)
(-0.0211556 -0.0170819 2.22969e-20)
(-0.0549531 -0.101763 -2.95164e-21)
(-0.0827699 -0.0140184 4.04428e-20)
(0.713079 0.0426349 1.09473e-23)
(0.210224 0.0780615 -3.17528e-20)
(0.480694 0.0121931 9.73036e-23)
(0.97991 -0.0283157 -3.71667e-23)
(0.61216 0.00712474 7.62502e-22)
(0.989489 -0.0187005 1.03206e-23)
(0.977857 -0.0717188 2.69292e-21)
(0.929129 0.0145586 3.32172e-23)
(0.899087 -0.0127143 -1.07447e-22)
(-0.140809 0.0131282 2.543e-20)
(0.807251 -0.00906468 2.24064e-23)
(0.750001 0.00208518 5.7454e-23)
(0.401853 -0.0147302 3.07175e-20)
(0.484433 0.103236 6.96508e-21)
(0.929423 -0.0807765 2.3899e-21)
(1.00653 -0.00900557 2.46203e-23)
(0.488453 0.0284514 -4.32978e-22)
(0.035616 -0.0504588 -5.59035e-21)
(0.603094 0.027216 -3.40923e-22)
(0.766471 -0.00640352 -1.1834e-22)
(0.962108 0.0164381 -6.8206e-24)
(0.739694 -0.106559 -1.4506e-20)
(0.517014 0.0730363 2.02778e-21)
(0.837628 -0.098489 -4.46616e-21)
(0.966994 0.0139531 -5.4526e-24)
(0.641904 0.0827482 -3.5517e-23)
(0.176985 0.0151219 -1.88901e-21)
(0.730284 0.00315243 7.00427e-23)
(0.743298 0.00126841 -4.25774e-23)
(0.0804234 0.0066504 -8.54499e-21)
(-0.103817 -0.0369781 9.20107e-21)
(-0.036365 -0.100427 -3.27538e-20)
(0.321572 -0.0187049 9.56697e-21)
(0.0459093 -0.0546475 -9.91808e-23)
(0.76386 0.0839212 9.85494e-22)
(-0.0142158 0.0707331 2.08018e-20)
(0.479224 0.0452885 -4.38672e-22)
(0.674393 0.0324273 -6.94891e-23)
(0.904369 0.0287616 1.28389e-22)
(0.71019 0.0266532 -1.28708e-23)
(0.265499 0.0915495 1.26376e-20)
(0.776633 -0.0270493 -2.43644e-25)
(1.00408 -0.0077782 -9.24727e-23)
(0.990684 -0.0177268 -2.61766e-23)
(0.115447 0.0614801 1.76514e-20)
(-0.171072 0.000895034 3.11017e-20)
(0.544444 -0.0730203 -1.14342e-21)
(0.979135 -0.0698219 -6.20848e-22)
(0.45101 0.0137173 -3.72248e-22)
(0.624358 -0.0530079 4.10386e-22)
(0.412292 0.0105951 -2.73284e-22)
(0.455942 0.00876861 4.80655e-22)
(0.188016 0.0132207 1.19906e-20)
(0.483827 0.00769732 -2.42771e-22)
(0.125072 0.014018 1.69529e-20)
(0.668583 -0.0528524 1.2251e-21)
(0.772971 0.0280848 -6.41508e-23)
(0.577444 -0.0574828 -4.61813e-21)
(0.519394 0.00348963 -9.752e-23)
(0.771692 0.0143255 3.60381e-22)
(0.543634 0.00562591 1.0649e-22)
(0.772598 0.0271516 7.13069e-24)
(0.501207 0.0791737 -4.73073e-21)
(0.867983 0.0191453 1.62865e-23)
(0.567068 0.00248487 -6.10951e-22)
(0.387022 0.0572681 -7.03877e-21)
(0.647578 0.0802585 1.41776e-21)
(0.595217 0.00544006 -6.06727e-22)
(0.78938 -0.0167763 7.00582e-23)
(0.422205 0.00462043 6.33908e-22)
(0.376873 0.000232759 3.18095e-22)
(0.33277 -0.0023751 5.44176e-22)
(0.269083 0.00652101 -5.7376e-21)
(0.212732 0.0098446 -6.95889e-21)
(0.463911 0.00239254 -3.2649e-22)
(0.142882 0.00166792 -1.43032e-20)
(0.490702 0.0021241 1.625e-23)
(0.635904 -0.0577584 8.08966e-22)
(0.528973 0.000269053 -9.3772e-24)
(0.700778 -0.0523221 -1.63221e-22)
(0.547821 0.00226526 7.82843e-23)
(0.658473 -0.0199187 -3.45177e-23)
(0.715256 -0.0247132 5.76494e-24)
(0.576532 0.00126581 -8.55578e-23)
(0.610784 0.00425703 -6.20643e-22)
(0.598311 0.00103458 2.84422e-22)
(0.95533 -0.0208216 -1.18937e-22)
(0.81436 0.0186605 -6.77795e-24)
(-0.163214 -0.000110087 -2.70651e-20)
(0.953493 -0.00898226 -6.03223e-23)
(0.817734 -0.0173961 -1.76268e-22)
(0.809146 0.0202025 8.10184e-23)
(0.613887 0.00104105 5.77908e-22)
(0.819363 -0.00784514 2.55795e-22)
(0.555206 -0.0398655 1.98773e-21)
(0.62526 0.00257346 2.21265e-23)
(0.390177 0.0155046 1.36293e-21)
(0.34165 0.013841 4.20144e-22)
(0.508625 0.0120592 2.86945e-22)
(0.633701 -0.000853698 -2.89745e-22)
(0.812023 0.0180407 -3.40539e-24)
(0.734878 -0.00426207 -5.73597e-23)
(0.837335 -0.0688736 -1.49725e-21)
(0.858442 -0.0546267 -9.0484e-22)
(0.0799911 -0.0199666 3.1147e-20)
(0.94365 -0.0117 -1.83752e-22)
(0.429954 -0.0181609 -3.18041e-22)
(0.65007 0.000582467 -2.63191e-22)
(0.608119 -0.0140274 -4.90158e-23)
(0.752611 -0.00625151 -1.88149e-22)
(0.818815 0.0177116 2.40933e-23)
(0.267999 0.031928 -1.05341e-22)
(0.654004 0.0193556 -4.84202e-22)
(0.00368614 0.00387532 -4.77949e-21)
(0.642315 0.00589881 1.13307e-22)
(0.898066 -0.00880155 -7.18176e-23)
(0.832078 0.0119576 7.06105e-23)
(1.00127 -0.00725884 -1.33351e-22)
(0.661903 0.00176181 -6.3671e-23)
(0.698054 0.0358496 1.06611e-22)
(-0.0542252 0.0831608 -1.53799e-20)
(0.975845 -0.00888243 1.87971e-22)
(0.659006 0.00598299 -5.36319e-24)
(0.107792 -0.00500238 8.91767e-21)
(0.664648 0.00111349 3.52832e-22)
(0.814483 0.0119982 -1.76328e-23)
(0.782025 0.00990133 1.35869e-22)
(0.387832 -0.0251547 -4.05533e-20)
(0.787091 0.0125589 9.79551e-23)
(1.01549 -0.00705926 -3.65803e-23)
(0.513421 0.0758105 2.46808e-21)
(0.812327 0.0189815 -3.57896e-23)
(0.0132921 0.0580123 4.77454e-21)
(0.653848 -0.0646142 -3.89476e-21)
(0.694096 -0.0562327 -3.96074e-21)
(0.242185 0.0110225 -3.72258e-21)
(0.294711 0.00396222 -6.6306e-21)
(0.166156 -0.0179734 3.53755e-20)
(0.760515 0.0147468 -2.1336e-22)
(0.475868 -0.00168367 7.43874e-22)
(0.490298 0.0268005 -2.69575e-22)
(0.405417 0.0313748 2.10079e-21)
(0.502393 -0.000347215 2.33067e-22)
(0.844151 0.046523 -3.92744e-22)
(0.5577 0.000836975 2.06868e-22)
(0.346132 0.0895484 -3.56065e-20)
(0.584354 0.00443974 3.57453e-23)
(0.67995 0.000901923 1.56413e-22)
(0.222575 -0.00176399 -5.21398e-21)
(0.278781 -0.00673545 3.22576e-21)
(0.308467 0.0455237 8.73124e-21)
(-0.104114 -0.0163741 -1.69651e-20)
(0.729235 -0.0503226 1.9772e-21)
(0.805631 0.0120204 4.92428e-23)
(0.223573 0.0782353 1.78549e-20)
(0.695881 0.0568263 -6.56775e-22)
(0.715032 0.023869 -2.82663e-22)
(0.605778 -0.00140981 6.03018e-23)
(0.552626 -0.00252699 -9.21102e-24)
(-0.0450124 0.0456257 3.32947e-21)
(0.901224 0.00912352 3.20452e-23)
(0.65607 -0.0462864 -1.37527e-21)
(0.675658 0.00411261 8.40739e-23)
(0.92026 0.0172313 -7.80908e-24)
(0.65064 0.0113039 -3.16777e-22)
(0.679012 0.00621315 -2.21879e-22)
(0.677164 0.00245942 -3.00682e-22)
(0.621584 -0.00205747 -5.91022e-22)
(0.830081 -0.018492 -2.6159e-23)
(0.719781 -0.0234869 3.60336e-23)
(0.747805 -0.0141464 1.30717e-22)
(0.656114 0.00190779 2.12655e-22)
(0.822127 -0.016677 -1.1346e-22)
(0.00517998 0.046102 1.73254e-20)
(0.544961 0.0167628 7.55781e-23)
(0.803497 -0.0107012 -3.09111e-22)
(0.617111 0.014167 1.79469e-22)
(0.636584 0.0108187 3.97776e-22)
(0.852216 -0.0172055 1.23163e-22)
(0.16748 -0.0281028 -1.53224e-20)
(0.675847 0.0445808 2.38218e-22)
(0.586412 0.053521 -4.95753e-22)
(0.742957 0.0356259 1.3473e-22)
(0.75912 0.0153889 2.72207e-22)
(0.81949 0.012608 -3.32568e-22)
(0.810032 0.0177183 1.61143e-23)
(0.774279 -0.0154808 -4.93353e-23)
(0.377628 -0.0938687 -5.59601e-21)
(0.737415 -0.067984 8.35778e-21)
(0.279833 -0.0230339 -1.9599e-21)
(0.821052 -0.0330447 1.62306e-22)
(0.685272 0.00368941 1.83611e-22)
(0.510305 -0.0121046 1.68956e-22)
(-0.0435557 0.105053 8.7857e-21)
(0.647348 0.0451701 -4.25681e-22)
(0.977694 0.0306619 -2.57383e-22)
(0.973815 0.0469442 3.66264e-22)
(0.997128 0.0127081 3.68694e-24)
(0.99192 0.0163197 -3.18918e-23)
(0.976496 -0.055225 -2.36929e-21)
(0.988302 -0.0196369 8.13242e-23)
(0.988504 0.019209 1.29662e-25)
(1.00506 0.00995188 2.01439e-23)
(0.981638 -0.0268162 8.43856e-23)
(1.00101 0.0114407 -3.78067e-23)
(0.993178 -0.0149416 -6.08824e-23)
(0.998761 0.0120753 2.74723e-23)
(0.999771 0.0095006 1.5338e-22)
(1.00741 0.0092084 -2.14962e-24)
(0.985103 0.0205024 -3.14057e-23)
(0.978668 -0.0302328 9.41208e-23)
(0.992328 -0.0167835 -4.51798e-23)
(0.990313 0.0178434 -4.06732e-23)
(0.981765 -0.0666366 1.71705e-21)
(0.665151 0.00936038 1.3664e-22)
(0.630732 -0.00772349 1.3701e-22)
(0.112953 0.00644256 -2.54824e-20)
(0.184655 -0.0135185 -1.06968e-20)
(1.00641 -0.00794487 1.50181e-22)
(0.950686 0.00818349 5.06786e-23)
(0.728185 0.0125045 -8.83576e-22)
(0.68181 -0.0732859 1.12266e-21)
(0.348748 -0.000566431 1.81402e-22)
(0.571167 0.0552021 -3.34301e-22)
(0.392294 -0.00129336 -3.81908e-22)
(0.703979 0.0250974 -1.2991e-23)
(0.980244 0.0268055 -4.72293e-22)
(0.977541 0.0292551 -4.52818e-23)
(0.977607 0.0443813 -7.1736e-22)