/*--------------------------------*- C++ -*----------------------------------*\
  =========                 |
  \\      /  F ield         | OpenFOAM: The Open Source CFD Toolbox
   \\    /   O peration     | Website:  https://openfoam.org
    \\  /    A nd           | Version:  10
     \\/     M anipulation  |
\*---------------------------------------------------------------------------*/
FoamFile
{
    format      ascii;
    class       volScalarField;
    location    "50";
    object      epsilon;
}
// * * * * * * * * * * * * * * * * * * * * * * * * * * * * * * * * * * * * * //

dimensions      [0 2 -3 0 0 0 0];

internalField   nonuniform List<scalar> 
23845
(
0.00568224
0.0104527
0.0640317
0.0982154
0.0220408
0.00196686
0.0601086
0.154991
0.0019773
0.00334864
0.00245388
0.00166083
0.000945914
0.0020254
0.102715
0.00131227
0.00110985
0.00139435
0.00082752
0.00173541
0.00377066
0.00235306
0.00560778
0.00177095
0.00282928
0.00108748
0.0138188
0.00180966
0.200013
0.00172795
0.0827325
0.136588
0.140787
0.00135788
0.00173075
0.00185223
0.205448
0.00171161
0.00170511
0.00185504
0.00066876
0.00142172
0.000974334
0.00137194
0.00106747
0.00110238
0.0290301
0.00113959
0.0901114
0.209736
0.144078
0.0439789
0.114625
0.00188181
0.155884
0.000986302
0.0184713
0.161592
0.00489788
0.0357684
0.18537
0.0013284
0.0009561
0.182537
0.0016046
0.00105271
0.0284207
0.000796355
0.0010603
0.000791334
0.172112
0.0732549
0.000975353
0.0892874
0.00139108
0.086638
0.00161104
0.0017833
0.140431
0.000976518
0.0064177
0.046918
0.0143023
0.15676
0.0899628
0.00176867
0.0215976
0.098636
0.00174796
0.000865824
0.186754
0.000668597
0.188221
0.00184137
0.161565
0.196613
0.00121799
0.00136303
0.00165368
0.0246901
0.00113684
0.0349958
0.0112506
0.212644
0.174817
0.143695
0.00197866
0.00131636
0.0311483
0.00136461
0.00194842
0.0017176
0.083783
0.00222511
0.00183315
0.00282429
0.00124195
0.001941
0.202042
0.169755
0.00171776
0.202312
0.000719287
0.110994
0.0438409
0.0010845
0.181317
0.201288
0.108118
0.0331632
0.162066
0.00611956
0.00541263
0.00200236
0.0010935
0.00771916
0.281824
0.00160444
0.0258812
0.0017749
0.220383
0.00145528
0.00191094
0.00135823
0.000695175
0.00141024
0.00223106
0.0604929
0.173763
0.000830487
0.126877
0.00100389
0.0198539
0.00137114
0.0934467
0.001161
0.0157318
0.00185334
0.166952
0.202754
0.000734657
0.0925731
0.144967
0.00174051
0.000725029
0.000955304
0.00191813
0.171236
0.00176665
0.00149237
0.00202498
0.0913568
0.00167202
0.109243
0.00147653
0.154958
0.000674816
0.00187327
0.00145726
0.00184211
0.0229366
0.0242812
0.0713321
0.00181695
0.000834543
0.000861921
0.00132113
0.164005
0.215689
0.0013983
0.19434
0.00196617
0.0019773
0.00207228
0.000740682
0.00186795
0.179511
0.206273
0.27307
0.00190522
0.00109652
0.00175173
0.167314
0.0070979
0.144951
0.145632
0.0680724
0.00189587
0.00735661
0.00125554
0.00108615
0.192671
0.000604762
0.00170554
0.117979
0.24315
0.00812369
0.00129822
0.27036
0.140335
0.000914669
0.0882793
0.218476
0.000959943
0.00141776
0.122257
0.259287
0.00194616
0.00205899
0.000658275
0.001901
0.0953307
0.00175622
0.000810921
0.0196288
0.198337
0.00148586
0.0953702
0.00133126
0.087491
0.093952
0.00197249
0.15138
0.0185362
0.15811
0.00106937
0.00199136
0.000923492
0.151404
0.0845694
0.00133747
0.00188074
0.131584
0.000793965
0.0781634
0.164046
0.159463
0.1498
0.0017999
0.00172696
0.100454
0.00184421
0.178392
0.00176888
0.00141397
0.00168272
0.151846
0.127012
0.0611963
0.104601
0.00180023
0.101726
0.113898
0.00200446
0.00192662
0.00193188
0.180126
0.00193852
0.161727
0.00477288
0.133921
0.00205992
0.149387
0.000806662
0.00179465
0.179739
0.0949106
0.00161663
0.14903
0.0766399
0.151034
0.0996666
0.184304
0.157416
0.149301
0.0017486
0.184508
0.00196967
0.00180336
0.207913
0.164692
0.111805
0.192632
0.103641
0.00203979
0.0940092
0.177996
0.126716
0.00112713
0.221325
0.104546
0.0213622
0.000989559
0.0020487
0.0481303
0.216892
0.180936
0.00608436
0.172106
0.000901255
0.194472
0.181648
0.1812
0.00170173
0.0789791
0.00199307
0.129913
0.0366417
0.157825
0.00132047
0.0451959
0.000964043
0.171114
0.00184311
0.164291
0.0889224
0.0689986
0.0013154
0.00142603
0.144909
0.0848592
0.1782
0.00212265
0.000820505
0.000863249
0.202556
0.00185545
0.188693
0.13519
0.126058
0.069536
0.159272
0.226577
0.162002
0.0993895
0.00199743
0.00152547
0.00115876
0.0653953
0.156843
0.1116
0.00150688
0.00211292
0.000822917
0.213316
0.00197236
0.140519
0.0018325
0.205228
0.00111652
0.00146523
0.199249
0.180373
0.0016772
0.00186581
0.152787
0.0560529
0.0817269
0.00148882
0.105346
0.0633192
0.0018456
0.00435558
0.000880671
0.000810801
0.00173437
0.00192687
0.148164
0.00124603
0.158952
0.030784
0.0014527
0.172986
0.16917
0.0995595
0.197233
0.00167048
0.00117043
0.000789512
0.001846
0.0583653
0.0657999
0.145878
0.078847
0.024685
0.0684289
0.00182335
0.182475
0.17929
0.163089
0.10776
0.000807503
0.0586675
0.155685
0.013295
0.053993
0.0562155
0.0018128
0.00196836
0.00298953
0.141279
0.00157238
0.00195228
0.139684
0.168995
0.00688378
0.156689
0.0741584
0.0930319
0.0951318
0.00187777
0.00125307
0.177825
0.00136448
0.00130897
0.00103376
0.00167137
0.000878077
0.19096
0.0843527
0.0848038
0.138718
0.200166
0.120707
0.0707895
0.181378
0.00171065
0.0511549
0.00198019
0.0958897
0.145927
0.00117538
0.158114
0.00188391
0.000912419
0.171766
0.0335853
0.00814626
0.155145
0.00180203
0.00847342
0.11092
0.240315
0.0373755
0.00200036
0.00186434
0.00206475
0.104199
0.000826334
0.135297
0.00177512
0.00193899
0.0735562
0.173111
0.18718
0.0191199
0.0011614
0.140655
0.00176205
0.000805947
0.0385439
0.0528947
0.0862199
0.00270738
0.00137157
0.0458984
0.00179942
0.00179121
0.0387765
0.148898
0.00118064
0.155597
0.169219
0.0455641
0.147444
0.0325207
0.00103245
0.0646728
0.00154235
0.00190532
0.0251027
0.217571
0.164034
0.0353198
0.132931
0.140109
0.00171202
0.00076989
0.00181802
0.157537
0.0869041
0.169602
0.249642
0.0808388
0.00204538
0.000829424
0.0593284
0.146574
0.127718
0.00143196
0.241595
0.00168205
0.00128258
0.179033
0.000837228
0.0435078
0.0725328
0.188156
0.00435959
0.200405
0.201276
0.154782
0.0143938
0.00688613
0.000804198
0.000759676
0.00183142
0.169398
0.0259143
0.131146
0.0765196
0.00173961
0.00376829
0.00445279
0.000681076
0.00343559
0.00295811
0.0010359
0.00174766
0.00107445
0.0013853
0.00176856
0.113638
0.00128865
0.149124
0.0109294
0.00152249
0.168831
0.00185902
0.00192616
0.155131
0.13168
0.0314083
0.00170906
0.00147408
0.162946
0.194339
0.00110232
0.200889
0.000794269
0.00080452
0.0374595
0.000844798
0.00207559
0.0014543
0.0207421
0.135601
0.148836
0.172563
0.0254183
0.000771211
0.00166429
0.00068311
0.0544198
0.184592
0.00154676
0.000907534
0.00096851
0.160895
0.00105463
0.00936378
0.120642
0.00767614
0.00176943
0.19327
0.00152244
0.000871276
0.0017285
0.00139723
0.00168604
0.0538135
0.0016776
0.0201695
0.0663843
0.0892766
0.00352739
0.139774
0.0231168
0.0603412
0.0010872
0.0376927
0.0119089
0.0223943
0.0201846
0.182748
0.00761858
0.0116103
0.0151676
0.00166284
0.00168161
0.0203398
0.19967
0.0276748
0.00111094
0.0176206
0.00161153
0.000682762
0.00139476
0.000731401
0.00089621
0.000947748
0.00120449
0.0448089
0.00185727
0.00173383
0.0961307
0.00962581
0.00151913
0.00075633
0.0018374
0.0286065
0.00126299
0.00179581
0.00078626
0.00480875
0.00364975
0.00462073
0.000792096
0.00322731
0.10789
0.00181457
0.00183878
0.0121317
0.131059
0.185065
0.15042
0.17318
0.00259086
0.150777
0.00252927
0.00114283
0.000781182
0.00110903
0.0160276
0.00120466
0.000815704
0.000729139
0.0175648
0.0696806
0.00286914
0.000787929
0.0018231
0.00162177
0.00193979
0.00176891
0.0069552
0.00156547
0.0102114
0.00140375
0.00101935
0.00205167
0.00141596
0.00136624
0.0013841
0.00103177
0.00448938
0.00102335
0.00138692
0.00470431
0.00298514
0.00139492
0.0013742
0.00190051
0.00188988
0.00217798
0.00356863
0.00576361
0.00169478
0.00849058
0.00151781
0.00175961
0.00140705
0.0012559
0.00138955
0.00136848
0.00130108
0.00139416
0.00142444
0.00141889
0.000861063
0.00116799
0.0657774
0.001421
0.001341
0.00113143
0.00144622
0.00195867
0.00159846
0.00145661
0.0020722
0.0024517
0.00145345
0.00148857
0.00119377
0.0017817
0.00124903
0.000858442
0.0128184
0.00120668
0.00180652
0.00152714
0.00140029
0.00177803
0.00124656
0.00518538
0.00124786
0.0176102
0.00146006
0.0016323
0.00144456
0.0012892
0.0015493
0.00110149
0.165361
0.00102027
0.00149999
0.0105681
0.0015675
0.00145185
0.00168211
0.0518699
0.00136347
0.000918807
0.00399651
0.00114715
0.136512
0.00185965
0.00146215
0.00441205
0.00281676
0.00791456
0.00136784
0.00161856
0.0017719
0.00251619
0.00146999
0.000868605
0.00138937
0.0137957
0.00138825
0.00163027
0.00498838
0.00314469
0.00544627
0.0790926
0.00115862
0.00159245
0.0151623
0.00151036
0.00114381
0.0014383
0.00139941
0.118124
0.0019043
0.00133564
0.00158559
0.000935832
0.00138958
0.00155558
0.00161154
0.00146456
0.00128901
0.00130934
0.00147386
0.0015356
0.00135576
0.0283154
0.00135712
0.00159109
0.00132118
0.00136704
0.00127942
0.00915207
0.00120923
0.00206948
0.0010358
0.00133988
0.0015173
0.00121756
0.0014723
0.0125226
0.00162874
0.00361041
0.0010496
0.00162916
0.00150675
0.193699
0.00132214
0.000652484
0.000667061
0.000652171
0.000662856
0.000587442
0.00073283
0.000642797
0.000709574
0.000689205
0.000660816
0.000726106
0.00065163
0.000697687
0.000743803
0.000637184
0.000675914
0.000724333
0.000654379
0.000694967
0.00145563
0.00146167
0.0680519
0.00669212
0.000805598
0.00167518
0.00148229
0.00211207
0.00204084
0.00227896
0.00186309
0.00113147
0.000635667
0.000648436
0.000657634
0.000804415
0.0014053
0.00159876
0.00133143
0.00111974
0.0007288
0.00161858
0.0614041
0.00177757
0.00164153
0.00124971
0.0102405
0.00166642
0.00121085
0.000573779
0.000630291
0.00142139
0.000918815
0.000605841
0.00173712
0.00074047
0.000706104
0.000719241
0.000730139
0.000722773
0.000731458
0.000993279
0.0015045
0.00164283
0.00131034
0.00152912
0.00118963
0.00153661
0.00259749
0.000595975
0.00156528
0.000617374
0.000720173
0.000576217
0.000737387
0.00100933
0.000697522
0.000727877
0.00191862
0.000739674
0.000724703
0.0018185
0.00150489
0.00123085
0.0616152
0.0015492
0.00141151
0.00145089
0.00135584
0.00140469
0.00164766
0.00145052
0.178122
0.00183963
0.00143324
0.00187678
0.0019972
0.0181241
0.00230825
0.00153532
0.000689961
0.00135911
0.00145189
0.121145
0.194151
0.0014267
0.00148398
0.00161433
0.0507834
0.00142707
0.104198
0.00150283
0.000651461
0.000722738
0.000640035
0.00143931
0.0015458
0.0011726
0.015884
0.00162295
0.00307873
0.000753515
0.00667313
0.00151647
0.000828798
0.00147814
0.00171459
0.00192371
0.000901469
0.00108146
0.001343
0.00217991
0.00261982
0.00414246
0.00133668
0.00159692
0.00218365
0.000933411
0.0038646
0.00214597
0.0018516
0.00238006
0.00166869
0.00136563
0.00103132
0.00139783
0.00176972
0.00142754
0.000972056
0.00146318
0.00167884
0.00170379
0.00097482
0.00148907
0.00121682
0.0128844
0.00168318
0.00104219
0.00149048
0.00149205
0.000999424
0.000871524
0.00196748
0.0162109
0.0110818
0.00123109
0.00151843
0.0032917
0.0058155
0.00169932
0.00197491
0.00136822
0.00127753
0.00153658
0.00179955
0.000791346
0.00235564
0.00441072
0.00233965
0.00272928
0.00396813
0.00328838
0.000963625
0.00112902
0.00122063
0.00155298
0.000956092
0.00109737
0.00108384
0.159774
0.00132044
0.146852
0.00106485
0.00163434
0.192275
0.00170769
0.000908796
0.00189121
0.000717823
0.00152702
0.00160947
0.00153311
0.00123278
0.0070432
0.187753
0.00166164
0.00136473
0.0009243
0.0328548
0.041597
0.00868032
0.00251323
0.00164702
0.00126207
0.00150783
0.00162378
0.00115737
0.00180434
0.0224937
0.0151427
0.000858614
0.00164028
0.00112793
0.00195771
0.0023377
0.00564318
0.00155623
0.0115699
0.00155499
0.00212378
0.00389284
0.00111723
0.00235332
0.00114598
0.00194516
0.00147979
0.00185592
0.00154466
0.00145191
0.00142974
0.0014039
0.00140557
0.0015166
0.00143753
0.00150185
0.00323816
0.00945817
0.00166539
0.00252829
0.00166061
0.00112742
0.00131586
0.00164875
0.00164073
0.00136725
0.00129426
0.00147724
0.000839195
0.00126738
0.0190726
0.000808785
0.00171609
0.00278664
0.0012469
0.00110245
0.001794
0.00781007
0.0010393
0.206488
0.0568715
0.00133146
0.00102914
0.00125676
0.00301786
0.00120448
0.00169432
0.00210528
0.001022
0.00184034
0.00184776
0.00162414
0.00147362
0.146146
0.0014162
0.0018084
0.00160605
0.00140969
0.00392818
0.000953729
0.0012129
0.175776
0.00144199
0.000805979
0.000791889
0.00147591
0.0017649
0.00156669
0.00168393
0.0014108
0.011289
0.00149743
0.00153573
0.00624352
0.00172304
0.00168386
0.00171449
0.0249002
0.00117849
0.00155297
0.0139865
0.000876776
0.0015799
0.00165254
0.00117639
0.000724152
0.111781
0.000880553
0.00157481
0.000939247
0.00288603
0.0145469
0.00203212
0.00178137
0.00155535
0.00140359
0.00149185
0.00145754
0.00168673
0.0101038
0.00137232
0.00163083
0.00171234
0.00136538
0.00131512
0.0519544
0.147163
0.00166775
0.00134705
0.0015581
0.0303946
0.0012373
0.000717164
0.00274045
0.00163048
0.122575
0.00170487
0.00191414
0.00173712
0.000963639
0.00150883
0.000867776
0.00187509
0.00170321
0.00244222
0.00111586
0.00112085
0.00156422
0.00151619
0.00110134
0.00109613
0.000926356
0.00137112
0.00129803
0.00170773
0.00128238
0.00171052
0.000736106
0.00142518
0.000884947
0.000644837
0.00089443
0.000725038
0.000651469
0.00124818
0.000669926
0.000636596
0.00178784
0.000704554
0.000648289
0.00253719
0.000659603
0.000656318
0.00214304
0.010525
0.0304154
0.0016134
0.00141244
0.00262947
0.00183881
0.0018284
0.0175889
0.00191246
0.00520764
0.00123627
0.00353093
0.00137822
0.00132729
0.00121412
0.0022736
0.00165451
0.00187423
0.00757544
0.164309
0.00164419
0.00155878
0.00172321
0.00177689
0.00174741
0.00148858
0.00158855
0.114163
0.00137599
0.001521
0.0084095
0.000911475
0.00363729
0.00169525
0.00326507
0.00106387
0.00109224
0.026976
0.00104395
0.00129258
0.00176024
0.00131048
0.152585
0.00175957
0.00715478
0.00133672
0.00380851
0.11196
0.125032
0.0095633
0.0014488
0.0011474
0.0351687
0.00143954
0.00143834
0.00130045
0.0046836
0.00184547
0.00142439
0.00092263
0.0148015
0.000722769
0.0010995
0.0014326
0.00174912
0.184292
0.00109985
0.00109257
0.00670409
0.001605
0.278357
0.00121224
0.187927
0.00177419
0.0112525
0.00122844
0.00108421
0.00170121
0.0010088
0.00121956
0.00106394
0.00169604
0.00213774
0.000877794
0.00104821
0.00179861
0.00186206
0.00163528
0.00197866
0.00121414
0.00131821
0.00117145
0.000921307
0.0013926
0.00141026
0.00109586
0.00124877
0.00551282
0.00117966
0.0296629
0.00204058
0.00185794
0.00169653
0.00127798
0.0918994
0.00498696
0.00216357
0.00200179
0.00435605
0.00132118
0.0012279
0.00582795
0.00123324
0.026184
0.196957
0.0126426
0.00130549
0.00192882
0.138209
0.00121571
0.00116309
0.00112819
0.00603653
0.0269632
0.00178687
0.00139069
0.124571
0.0437536
0.00153415
0.00959977
0.00985461
0.00125796
0.160355
0.00150382
0.00519069
0.00138028
0.0011297
0.00135236
0.00406085
0.00852391
0.00182698
0.107915
0.00574735
0.00190171
0.171758
0.00130806
0.00220394
0.00386902
0.147669
0.00177749
0.00317658
0.00402956
0.00128631
0.00750751
0.00132468
0.00157898
0.00118003
0.000962072
0.00519533
0.00175219
0.00119759
0.0234971
0.00103213
0.00145446
0.00133039
0.00128779
0.00159632
0.00125122
0.00408665
0.00935637
0.00910079
0.00173963
0.00128232
0.00175632
0.0012155
0.00143761
0.00144261
0.194212
0.00108641
0.00651861
0.234681
0.00152325
0.00161752
0.00105645
0.00272142
0.00828698
0.0217054
0.00221121
0.00141726
0.00181305
0.00189673
0.00174913
0.00131505
0.000827901
0.00182678
0.00154059
0.00420393
0.150672
0.0011179
0.0011251
0.00112666
0.011381
0.00148986
0.00117434
0.00122156
0.00123668
0.00147298
0.00109924
0.00340629
0.00295057
0.00145351
0.00181183
0.0016199
0.0294079
0.188089
0.00161965
0.0010873
0.00263918
0.00132411
0.00123846
0.00172621
0.00132351
0.000952804
0.00124134
0.223517
0.00145053
0.137409
0.00156345
0.00178451
0.00714321
0.00118631
0.0145196
0.00135628
0.00125552
0.00167956
0.000829326
0.00155495
0.00428883
0.00176686
0.0013756
0.00140777
0.00120147
0.154329
0.00152883
0.000885684
0.00172822
0.00303789
0.182329
0.00215601
0.00118764
0.0273148
0.001771
0.00187534
0.00461148
0.0399889
0.201833
0.174712
0.00166083
0.00172206
0.00235325
0.00163096
0.0419088
0.00591136
0.00178333
0.00153887
0.0177076
0.000964667
0.0334836
0.00197922
0.00585481
0.00108664
0.00669897
0.0112502
0.00147251
0.000955448
0.0894845
0.0015039
0.00146926
0.00454178
0.0018434
0.000909053
0.0140856
0.00300754
0.147022
0.0011067
0.00200867
0.00204236
0.16321
0.00131799
0.000720597
0.000843983
0.112184
0.00158882
0.000890816
0.00144749
0.128415
0.00144323
0.00179943
0.00106763
0.00186809
0.00186839
0.00105663
0.0208276
0.00299777
0.00181174
0.00175981
0.00292754
0.00502967
0.000748593
0.00119306
0.00181905
0.0019422
0.10247
0.00137779
0.00350296
0.00186498
0.00131213
0.173742
0.132899
0.202586
0.062615
0.016357
0.00161719
0.010574
0.0017349
0.00168199
0.00143405
0.042214
0.00174986
0.126922
0.173866
0.00155277
0.00159198
0.0782804
0.42778
0.00127808
0.0299407
0.0168659
0.00952238
0.00178794
0.013652
0.467366
0.00184008
0.0677162
0.00201897
0.00199291
0.0183779
0.198014
0.175726
0.0172032
0.0131852
0.00085287
0.224797
0.00127965
0.00344002
0.00190078
0.0162822
0.0098617
0.00117274
0.0272746
0.00188836
0.00131699
0.00199518
0.206723
0.086773
0.0941932
0.0951797
0.00162096
0.0123148
0.00193557
0.00195255
0.00184689
0.00339206
0.150087
0.00203982
0.000916061
0.0113987
0.115978
0.0020822
0.0018148
0.14756
0.00149892
0.00159425
0.00100608
0.000792407
0.00120119
0.00187389
0.0018451
0.102098
0.00151392
0.00125089
0.00180344
0.000868999
0.118406
0.0156228
0.00154775
0.124251
0.00371581
0.00103838
0.00174913
0.179959
0.000741303
0.48265
0.120451
0.133745
0.00117394
0.00163922
0.0077322
0.0056292
0.00153214
0.00164215
0.00954449
0.0256006
0.0468692
0.000587856
0.467934
0.00156663
0.164816
0.00125007
0.179173
0.0018297
0.00164846
0.00132289
0.00137764
0.202977
0.00201619
0.125104
0.218793
0.00152047
0.000887373
0.0028262
0.499248
0.027821
0.00187714
0.0107204
0.0072018
0.00497819
0.000812178
0.0892148
0.00231967
0.119245
0.442986
0.0015458
0.00187243
0.00318832
0.0839093
0.00196091
0.00831008
0.00157861
0.00110804
0.000934386
0.00165445
0.176812
0.00140839
0.00203404
0.045608
0.00238588
0.00981834
0.0121471
0.13326
0.0620993
0.0193419
0.115981
0.0939698
0.0128006
0.000787001
0.495664
0.000935401
0.0744464
0.00167674
0.171301
0.192702
0.00142531
0.00150941
0.000665316
0.00120944
0.0014207
0.00191793
0.00174606
0.00189202
0.00763268
0.0205616
0.000945162
0.012769
0.00732825
0.0810738
0.567084
0.132869
0.163311
0.187901
0.0142711
0.187757
0.00335008
0.00108042
0.167499
0.000739126
0.115662
0.00150387
0.000662343
0.469167
0.0089963
0.0018804
0.128253
0.00166529
0.018606
0.00377001
0.000723071
0.0896639
0.00144084
0.00338998
0.000714183
0.00141431
0.0174678
0.229251
0.000817128
0.000813876
0.000859256
0.00124622
0.00158827
0.14298
0.0016499
0.000895026
0.00933205
0.00172039
0.161827
0.000762335
0.00195522
0.00251575
0.123163
0.487197
0.0944587
0.123347
0.0198721
0.00186948
0.0762518
0.00198458
0.00191081
0.111916
0.00191259
0.0930115
0.0187828
0.0154704
0.0997798
0.00180996
0.045573
0.00123061
0.00109545
0.00136314
0.00105207
0.105228
0.001427
0.00110048
0.000846841
0.103855
0.00196385
0.0772282
0.409865
0.00157701
0.230492
0.337577
0.00980587
0.00181523
0.138597
0.000736764
0.00187891
0.00190689
0.129688
0.00167604
0.00184592
0.00171528
0.00437629
0.00140191
0.158165
0.00113596
0.00144529
0.000763922
0.00182624
0.0423655
0.00127521
0.000840612
0.0274486
0.00164101
0.00142746
0.000942535
0.394158
0.00125694
0.00172734
0.167205
0.0330534
0.0126401
0.00145996
0.00190407
0.0797535
0.0124344
0.0333582
0.00718302
0.0287807
0.0352979
0.00163858
0.0671118
0.0247483
0.000798211
0.122931
0.00176482
0.190531
0.178754
0.193748
0.00163728
0.029728
0.238709
0.00187687
0.00160782
0.00180583
0.155441
0.146853
0.12859
0.469665
0.0165719
0.000913577
0.00199391
0.0237914
0.149474
0.140519
0.000667781
0.00257989
0.00161151
0.160166
0.162516
0.123064
0.182239
0.198281
0.102455
0.00124275
0.0494051
0.113286
0.152704
0.0364173
0.189503
0.000900663
0.148676
0.181375
0.000695923
0.119049
0.0592865
0.000812059
0.167412
0.00070863
0.532327
0.148027
0.0355199
0.0192652
0.371498
0.000578634
0.0223072
0.121274
0.00087572
0.029064
0.000791628
0.00130026
0.00884044
0.00201723
0.00164021
0.0114255
0.001941
0.00110088
0.00203084
0.000855616
0.0104741
0.00193915
0.00535902
0.219124
0.0778987
0.00194886
0.000671623
0.000857071
0.139792
0.00168404
0.122651
0.0237894
0.0030425
0.0497556
0.106643
0.131384
0.0101954
0.00101725
0.0201203
0.164233
0.139163
0.00138472
0.00182922
0.00200205
0.00238925
0.0129897
0.00118387
0.00204586
0.00117746
0.128343
0.00199156
0.000703304
0.000831367
0.001563
0.129346
0.000734166
0.000793302
0.000879936
0.0135604
0.00112198
0.14963
0.00140597
0.000816139
0.00140101
0.000622123
0.193393
0.178056
0.376904
0.501836
0.0014584
0.000883803
0.0388211
0.00194386
0.187694
0.000890616
0.000660064
0.00089238
0.0247471
0.0654707
0.00180598
0.0236474
0.28216
0.112187
0.218604
0.0234405
0.000631174
0.172884
0.161112
0.00135541
0.00231382
0.177797
0.0184545
0.00159005
0.0750399
0.00200872
0.033677
0.00383872
0.0726865
0.00191891
0.000729357
0.0349983
0.0015952
0.000960916
0.00126971
0.0401795
0.00187844
0.0646014
0.000915453
0.0676918
0.00195428
0.00136903
0.000918732
0.000740085
0.0271939
0.0571808
0.00150758
0.00096119
0.00129428
0.00162282
0.00124583
0.00136023
0.108102
0.23091
0.051467
0.00176281
0.00183919
0.307551
0.377156
0.102925
0.14279
0.0333238
0.00103818
0.049656
0.0242538
0.00182384
0.0568832
0.00559374
0.00440915
0.00139024
0.0177316
0.00165877
0.283193
0.00163173
0.156874
0.159056
0.00188833
0.054188
0.000828124
0.177543
0.0316028
0.000726472
0.000932467
0.0517118
0.143975
0.000804804
0.388536
0.0150904
0.00156288
0.18129
0.00139384
0.157362
0.00124369
0.00127706
0.00138429
0.165278
0.00144878
0.0612729
0.00268789
0.00203752
0.00169869
0.00166955
0.00203078
0.00123623
0.127242
0.00273139
0.000582603
0.00888662
0.000856093
0.0016485
0.0016054
0.00206224
0.0268439
0.0167142
0.00190943
0.000803955
0.00317405
0.00140717
0.140712
0.00915915
0.000826989
0.00138375
0.148084
0.000917002
0.00120169
0.08272
0.0280892
0.00174709
0.00170843
0.211527
0.250106
0.155003
0.00198504
0.0010738
0.15697
0.00109846
0.00149417
0.00180192
0.00977441
0.0233593
0.113763
0.00138797
0.0547605
0.0813725
0.103011
0.198005
0.000933295
0.0127749
0.00176579
0.272955
0.00185649
0.00127457
0.00085944
0.001636
0.000960792
0.0027611
0.0010499
0.000914831
0.00148078
0.0508957
0.000984839
0.0334361
0.447459
0.00535397
0.00143666
0.214753
0.0030876
0.189171
0.174139
0.00101029
0.011843
0.00135099
0.00322715
0.0123984
0.00156245
0.0961099
0.00117888
0.00103284
0.00150311
0.00180562
0.175989
0.00131702
0.00181995
0.257114
0.126568
0.00138423
0.0283499
0.213966
0.045035
0.0650376
0.381397
0.142263
0.00187469
0.0499689
0.00214811
0.00157425
0.000667446
0.00183899
0.00104737
0.00105389
0.0383956
0.185239
0.192641
0.00126782
0.153035
0.00202796
0.00198583
0.00159869
0.0251804
0.550097
0.000667626
0.00184978
0.0800733
0.189131
0.167338
0.0373554
0.022045
0.00718365
0.00194593
0.00192234
0.000974745
0.00185486
0.150369
0.00191367
0.00241708
0.00562634
0.214338
0.219202
0.00185298
0.00126936
0.0540234
0.0634099
0.0979412
0.00102823
0.00137353
0.183175
0.134575
0.0348644
0.151721
0.179199
0.175745
0.0015949
0.00116523
0.000822799
0.173071
0.00201375
0.000664894
0.000991452
0.00682645
0.00176036
0.0683106
0.158354
0.16169
0.00199679
0.0134187
0.046747
0.413141
0.00190102
0.136548
0.0143929
0.155224
0.000744728
0.013918
0.0758045
0.215636
0.00156254
0.00180005
0.000760356
0.00196267
0.00140686
0.27534
0.00210009
0.237304
0.0951168
0.16262
0.0019597
0.13949
0.00180591
0.175759
0.000687995
0.00601737
0.00188767
0.00187761
0.182791
0.19738
0.00186624
0.163114
0.00327413
0.00251437
0.001987
0.00197046
0.168923
0.411746
0.00170124
0.0020648
0.00100729
0.0103611
0.00156729
0.0019313
0.000757031
0.000654901
0.23376
0.000727675
0.496341
0.00194664
0.185402
0.166225
0.00211009
0.052387
0.227591
0.00186518
0.000888165
0.00125371
0.00177548
0.539673
0.00106292
0.00178182
0.0452147
0.185922
0.163679
0.0220275
0.173001
0.00107297
0.00194063
0.00173319
0.136906
0.109282
0.00155764
0.0822422
0.00120567
0.042034
0.0529063
0.280879
0.00109422
0.0418423
0.0019265
0.00167376
0.250031
0.148406
0.00133863
0.00144556
0.112647
0.0833725
0.00200611
0.00201414
0.0635795
0.135182
0.00155863
0.00182892
0.202473
0.00132274
0.0132477
0.0015591
0.141168
0.287434
0.000907747
0.169807
0.153893
0.00933749
0.0408853
0.0490303
0.0102993
0.0236324
0.0015017
0.00120238
0.00113352
0.00163418
0.00187382
0.166973
0.000829691
0.140045
0.186923
0.00193607
0.00162388
0.0018086
0.00203596
0.002028
0.00202408
0.00147097
0.00100063
0.00126388
0.00107328
0.000829722
0.00164623
0.00120047
0.00105341
0.00449022
0.012862
0.219563
0.128288
0.164271
0.0638929
0.000908742
0.21086
0.00177139
0.282405
0.00201841
0.00112405
0.0141548
0.0939638
0.00070023
0.00175634
0.00131449
0.139275
0.0113134
0.142057
0.00183464
0.00101756
0.00175345
0.00914502
0.181678
0.00164146
0.000631402
0.00127717
0.00138151
0.00101559
0.00413272
0.00217769
0.000795107
0.00203047
0.00184953
0.00110282
0.00542684
0.189919
0.160384
0.00252061
0.189474
0.0066446
0.118376
0.00345125
0.0739702
0.0407891
0.213726
0.00173182
0.111122
0.0111499
0.19747
0.22813
0.0713315
0.00135789
0.149635
0.000996459
0.263467
0.0316901
0.25303
0.000829177
0.000727362
0.0386678
0.104404
0.00182334
0.173102
0.110656
0.00124617
0.00180429
0.00195653
0.00112541
0.000813952
0.00184954
0.00183263
0.121909
0.00137539
0.0176916
0.0431891
0.223179
0.00198985
0.061004
0.0601351
0.166775
0.000798029
0.116145
0.0018402
0.160175
0.00623094
0.0333187
0.0014626
0.0015936
0.00199856
0.268325
0.0929454
0.00100049
0.00145821
0.184661
0.00477087
0.00204729
0.00138273
0.000668765
0.0741538
0.000940494
0.000943935
0.185618
0.107849
0.00167417
0.0605792
0.0325748
0.102893
0.00103078
0.191616
0.0755248
0.00195108
0.00246341
0.116898
0.114581
0.00119611
0.281821
0.0400671
0.219714
0.101003
0.142049
0.0443591
0.00200604
0.128791
0.000775593
0.00194304
0.00144827
0.00876146
0.0012962
0.159631
0.0378685
0.159772
0.00294001
0.00136368
0.0661225
0.00184152
0.00071342
0.510865
0.0575117
0.00201202
0.0019986
0.0387976
0.00109649
0.0764124
0.00101194
0.108564
0.00193269
0.0959055
0.00191181
0.0497699
0.000889224
0.0061258
0.0432353
0.154801
0.210078
0.00120348
0.145698
0.00370692
0.0747787
0.0557729
0.00120848
0.002883
0.00339627
0.00205412
0.0325858
0.00851482
0.000575709
0.0222413
0.154695
0.00196145
0.151824
0.00095674
0.0213925
0.00185467
0.00197796
0.0019281
0.00607005
0.109378
0.142576
0.000957949
0.00267358
0.00198208
0.00111827
0.000632919
0.000966541
0.00199766
0.0013685
0.00141221
0.00102244
0.000783462
0.0494425
0.18682
0.00184439
0.000719494
0.0437488
0.152768
0.00310443
0.00122764
0.00173625
0.191948
0.0045249
0.00181812
0.00156778
0.149628
0.00406941
0.00133092
0.000948545
0.00233354
0.306828
0.0490249
0.00812506
0.493326
0.207895
0.00136144
0.0322833
0.125547
0.00181466
0.155614
0.00084344
0.00187571
0.000898963
0.203489
0.00112233
0.0531192
0.00695792
0.001694
0.00522636
0.158942
0.000844204
0.216093
0.00137865
0.0417858
0.0604561
0.00139389
0.133704
0.0761231
0.00129279
0.000899118
0.152573
0.000877543
0.0632399
0.17002
0.13826
0.000779054
0.000927468
0.00160017
0.167984
0.00141674
0.00131458
0.000891774
0.00239807
0.00152198
0.00140933
0.00088282
0.00198123
0.0309722
0.174997
0.00111901
0.00201349
0.116219
0.00110917
0.000721612
0.0006647
0.102854
0.0017296
0.001181
0.208541
0.00102573
0.00159799
0.00129148
0.0198079
0.00158526
0.00637002
0.18375
0.00121905
0.0816562
0.00141991
0.00163994
0.100512
0.139692
0.156762
0.0008512
0.00290952
0.00063306
0.483804
0.11497
0.00170264
0.00234924
0.0013547
0.16821
0.0018169
0.00188441
0.00123428
0.00107918
0.00100296
0.00163902
0.160683
0.000996257
0.0016993
0.0016742
0.00113841
0.266414
0.0456987
0.452127
0.00102344
0.0013927
0.128179
0.00187016
0.00205805
0.000906934
0.00188417
0.00191861
0.00191853
0.000942992
0.00109824
0.00327124
0.178241
0.196746
0.642839
0.0316434
0.00201873
0.348128
0.221135
0.00288522
0.18078
0.206885
0.120313
0.00496079
0.00100915
0.209421
0.000664518
0.159951
0.00177362
0.0245868
0.00108805
0.00103854
0.131695
0.0410743
0.131827
0.00206058
0.00468879
0.00638109
0.0015684
0.000758998
0.00111064
0.000688367
0.0851774
0.000684225
0.140378
0.00353168
0.00139332
0.179493
0.00155748
0.000787956
0.000644055
0.000891708
0.0277077
0.283197
0.00201894
0.00139292
0.0389573
0.000694107
0.0361773
0.0748668
0.00310805
0.000750401
0.00193384
0.0544405
0.0393353
0.00186276
0.0016685
0.180409
0.00175592
0.00158242
0.00313641
0.00123443
0.167296
0.00220487
0.0471903
0.00114541
0.00431242
0.000865917
0.00188544
0.00191051
0.00390924
0.00118418
0.00147322
0.00169132
0.120447
0.184735
0.00178616
0.0030781
0.0411561
0.00400985
0.00153626
0.081484
0.0742274
0.167107
0.00181748
0.141488
0.000777889
0.0314735
0.00165862
0.136968
0.17916
0.147517
0.00176448
0.00169653
0.123094
0.353284
0.387823
0.000982186
0.161894
0.001394
0.0020028
0.124677
0.112018
0.0010964
0.0250088
0.000885828
0.00194522
0.189497
0.180362
0.144426
0.00142565
0.00196717
0.0409525
0.000933247
0.00202113
0.035087
0.0506743
0.0727097
0.145144
0.00187313
0.000885455
0.152613
0.0163562
0.111145
0.0133589
0.0397795
0.0181654
0.00179196
0.00185161
0.00080097
0.00135016
0.00147871
0.105466
0.00419176
0.00195191
0.00186626
0.00192114
0.00141115
0.00195091
0.272725
0.154289
0.00128837
0.00153204
0.00160412
0.278178
0.00351468
0.172307
0.00190099
0.0369067
0.0015188
0.000707698
0.0247927
0.00139134
0.18229
0.0377606
0.00158072
0.13356
0.0019809
0.186886
0.169858
0.000699245
0.0225407
0.00186338
0.0454471
0.174473
0.101308
0.000969168
0.0642584
0.0705031
0.00193223
0.00186718
0.174616
0.230509
0.00104573
0.00776889
0.0158791
0.00159235
0.258448
0.0515337
0.120669
0.193966
0.125574
0.130033
0.0144605
0.0327969
0.171556
0.00600937
0.00103377
0.00115828
0.00195261
0.113858
0.00178509
0.0534376
0.173496
0.00203735
0.00192479
0.00142508
0.00107365