/*--------------------------------*- C++ -*----------------------------------*\
  =========                 |
  \\      /  F ield         | OpenFOAM: The Open Source CFD Toolbox
   \\    /   O peration     | Website:  https://openfoam.org
    \\  /    A nd           | Version:  10
     \\/     M anipulation  |
\*---------------------------------------------------------------------------*/
FoamFile
{
    format      ascii;
    class       volScalarField;
    location    "50";
    object      k;
}
// * * * * * * * * * * * * * * * * * * * * * * * * * * * * * * * * * * * * * //

dimensions      [0 2 -2 0 0 0 0];

internalField   nonuniform List<scalar> 
23845
(
0.0222846
0.0315943
0.0967093
0.109042
0.0492729
0.0444614
0.090919
0.130527
0.0456246
0.0210248
0.0129804
0.0389715
0.0274916
0.0455806
0.129234
0.0190468
0.0302911
0.0332622
0.0243572
0.0415029
0.0184132
0.0118065
0.0193477
0.0421163
0.0209815
0.029904
0.0347335
0.041642
0.136579
0.0416192
0.101549
0.0497695
0.155479
0.032883
0.04031
0.0433883
0.0647549
0.0400832
0.0395594
0.0417874
0.0210492
0.034317
0.0266397
0.034386
0.0309043
0.0302793
0.0561557
0.0158174
0.0495611
0.114781
0.089257
0.0761277
0.0445765
0.0430703
0.053246
0.0281949
0.044375
0.130038
0.0208245
0.0655466
0.153276
0.0336832
0.0184322
0.155419
0.0395207
0.029484
0.0543146
0.0249149
0.031455
0.023414
0.140036
0.104351
0.0288348
0.117655
0.0360142
0.115404
0.0380118
0.0411372
0.128264
0.0261537
0.0219405
0.0788901
0.0381425
0.147248
0.119209
0.0408424
0.0475664
0.0402874
0.042453
0.0242436
0.103005
0.0190452
0.144416
0.0427212
0.1212
0.121802
0.0309377
0.0159643
0.0416564
0.0517505
0.0297664
0.0622351
0.0335118
0.0782499
0.130572
0.140829
0.04467
0.0354323
0.0570886
0.0344217
0.0136628
0.0401976
0.113841
0.0166618
0.0430569
0.0156217
0.0326788
0.020129
0.135907
0.161263
0.0399439
0.0843487
0.0207506
0.133101
0.0723174
0.0301727
0.151968
0.112762
0.132986
0.0608958
0.167068
0.0235413
0.018409
0.0447722
0.028918
0.0266779
0.0845355
0.0378636
0.0514301
0.0408187
0.116285
0.034848
0.0427043
0.0339177
0.0169518
0.0351192
0.0158229
0.0925379
0.167793
0.0220692
0.147688
0.0294913
0.0469552
0.034108
0.122602
0.0207822
0.0406391
0.043143
0.16745
0.135481
0.0201812
0.1215
0.108051
0.0419955
0.0218633
0.0236937
0.0431414
0.08091
0.0407564
0.0355246
0.0427161
0.108665
0.0403078
0.129925
0.0365935
0.12142
0.018268
0.0198975
0.0385451
0.04279
0.0490956
0.0506152
0.101169
0.0140123
0.0156321
0.0259009
0.0337326
0.151961
0.126863
0.0338962
0.143729
0.0446148
0.0434824
0.0450719
0.0188735
0.0430958
0.107229
0.129752
0.0605321
0.0150597
0.025225
0.0410069
0.164681
0.0239432
0.13255
0.109743
0.0995432
0.0428916
0.0252994
0.0303456
0.0279149
0.0918731
0.0152796
0.0396471
0.0648151
0.0719915
0.025092
0.0331414
0.0842405
0.156014
0.0261721
0.116727
0.109938
0.0202096
0.0351002
0.144502
0.0883828
0.044243
0.0452113
0.0192916
0.0436974
0.0557638
0.0410557
0.0246826
0.0463079
0.149241
0.0373218
0.104627
0.034913
0.111668
0.0449326
0.0159648
0.139689
0.0445065
0.07676
0.0186226
0.044813
0.0279985
0.115913
0.115115
0.0328252
0.0434002
0.0841993
0.0245878
0.108678
0.0941099
0.160268
0.100871
0.0417816
0.0409885
0.0354729
0.0431631
0.149794
0.0151428
0.0210883
0.0393111
0.123286
0.14522
0.0857527
0.109235
0.0415871
0.114582
0.0747989
0.0442195
0.0121779
0.0430919
0.119352
0.0440712
0.0947862
0.0179093
0.13976
0.0454882
0.0997727
0.019173
0.0418873
0.167479
0.11906
0.0387895
0.114069
0.108468
0.120012
0.0629354
0.159557
0.104054
0.116562
0.0409342
0.166229
0.0445346
0.0417393
0.133397
0.162871
0.136899
0.150974
0.108498
0.0449899
0.103323
0.149724
0.0802772
0.0295778
0.110332
0.070378
0.0492778
0.0271051
0.043438
0.0792946
0.117217
0.166706
0.0213839
0.0966146
0.0256885
0.129946
0.0861577
0.169854
0.0394891
0.110503
0.0430948
0.120425
0.0646324
0.162854
0.031061
0.0780857
0.022767
0.100614
0.0432318
0.166328
0.103994
0.0971608
0.031792
0.0354383
0.124472
0.107534
0.169316
0.0124201
0.0249911
0.0260778
0.0891597
0.0433519
0.120279
0.124426
0.147156
0.0964876
0.166022
0.110238
0.103825
0.0426074
0.0434427
0.0361096
0.0320201
0.0968681
0.135519
0.134758
0.0365484
0.0159405
0.0217194
0.128542
0.0441731
0.154786
0.0423404
0.134198
0.0302879
0.0350478
0.104637
0.139969
0.038648
0.0433354
0.0912699
0.0873488
0.102695
0.0354112
0.120811
0.095646
0.043201
0.0175006
0.0264464
0.024796
0.040382
0.0440061
0.127135
0.0273433
0.126845
0.0587425
0.0357556
0.146846
0.127566
0.0663755
0.114393
0.020988
0.0321241
0.0232259
0.0433102
0.0885572
0.0887693
0.106996
0.105298
0.0527783
0.09877
0.0415264
0.145054
0.133202
0.157161
0.133886
0.0246126
0.0884303
0.163648
0.0371498
0.0858575
0.0815117
0.0135835
0.0431878
0.0195595
0.14175
0.0378614
0.0449842
0.121487
0.152882
0.0247319
0.144754
0.096755
0.119177
0.121762
0.0431616
0.0311764
0.169758
0.0324323
0.0340782
0.0289016
0.0387672
0.0262477
0.150493
0.110939
0.114033
0.129937
0.12849
0.141955
0.0933463
0.165221
0.0395488
0.0764032
0.0439201
0.114773
0.12189
0.0309319
0.132051
0.0437959
0.026672
0.168891
0.0631914
0.0264969
0.110352
0.0417717
0.0272625
0.111326
0.0846916
0.0665173
0.0451669
0.042541
0.0454195
0.0598952
0.025302
0.153287
0.0424288
0.0436598
0.0927177
0.156288
0.155583
0.0447218
0.0308832
0.0719556
0.0408079
0.0225845
0.0652094
0.0772854
0.0990572
0.0147025
0.0273774
0.076989
0.0417808
0.0407043
0.0695459
0.157325
0.0313667
0.162803
0.105708
0.0715135
0.138415
0.0596082
0.0288306
0.0960888
0.0389811
0.0439913
0.0542264
0.104128
0.166322
0.0618359
0.127971
0.133946
0.0161594
0.0240968
0.0418845
0.162598
0.10064
0.169302
0.0814812
0.0962754
0.0445064
0.0254006
0.0822702
0.159421
0.148398
0.0355556
0.0607149
0.0395959
0.0310218
0.161968
0.0256047
0.0740761
0.103796
0.158774
0.0178929
0.118886
0.148762
0.152342
0.0370639
0.0212968
0.0238536
0.0238732
0.0421467
0.167819
0.0519124
0.128428
0.107479
0.0407282
0.0163776
0.0173209
0.0185815
0.0156018
0.0143328
0.0278162
0.0404733
0.0304397
0.0344137
0.0412333
0.135877
0.0323641
0.123901
0.0319181
0.0359904
0.168752
0.0434808
0.0446216
0.117003
0.118523
0.0611589
0.0394181
0.0361193
0.124295
0.139566
0.0305275
0.141777
0.0245799
0.0246505
0.0676894
0.0254989
0.0452711
0.0158568
0.0463255
0.150585
0.161298
0.119975
0.0517439
0.0237815
0.0390576
0.0179645
0.0864142
0.16478
0.0365645
0.027733
0.0273544
0.110023
0.0291287
0.0258841
0.143112
0.0262888
0.0157412
0.135937
0.0361119
0.0260119
0.0404507
0.0334598
0.0382104
0.0862972
0.0392835
0.0449748
0.0972746
0.112881
0.0206427
0.0961412
0.0488796
0.091683
0.0212774
0.0640694
0.0344728
0.0503708
0.0457581
0.162925
0.026607
0.0318323
0.0399189
0.0405261
0.0394506
0.0453293
0.150276
0.0538308
0.023273
0.0436894
0.0277167
0.0214773
0.0340966
0.0221664
0.0146453
0.0275465
0.0306734
0.0714772
0.042581
0.0398836
0.124836
0.0305587
0.0157888
0.0234168
0.0204446
0.057217
0.028264
0.0414368
0.0244211
0.0204391
0.0193476
0.0193897
0.0245683
0.0204906
0.133401
0.0425798
0.0427949
0.0324415
0.133651
0.160802
0.155586
0.169104
0.0208482
0.154777
0.0179854
0.0269995
0.0228611
0.0285167
0.0414801
0.0307745
0.0246337
0.022065
0.0426905
0.0892255
0.0154937
0.0145552
0.0227613
0.0162456
0.0167013
0.0251051
0.02175
0.0290059
0.0288279
0.0172672
0.0273054
0.0150083
0.0313792
0.0345767
0.0322567
0.0277074
0.0206154
0.0289309
0.033179
0.0188697
0.0203799
0.0338696
0.0334603
0.0190729
0.012324
0.0108809
0.013437
0.0189161
0.0272757
0.0254183
0.0300591
0.0159451
0.0320525
0.0185821
0.0326901
0.0332826
0.0322733
0.0335124
0.0346003
0.0343221
0.0247814
0.031392
0.0870745
0.0357082
0.0328644
0.0307057
0.0349571
0.0444153
0.0186166
0.0352701
0.0139167
0.0122384
0.0297728
0.0357859
0.0318241
0.0414183
0.0161517
0.0176471
0.0338824
0.0315551
0.0156089
0.0364884
0.0336371
0.0410834
0.0326756
0.0177268
0.0313162
0.0414692
0.0355405
0.0389321
0.0366238
0.0356069
0.0369256
0.0259078
0.148528
0.0283475
0.036248
0.0294037
0.0371976
0.0364616
0.040515
0.0851452
0.0344931
0.0272342
0.0199286
0.0310192
0.149574
0.0157758
0.0166908
0.0154622
0.0120674
0.0238749
0.0345809
0.0288716
0.021664
0.0153396
0.0308317
0.0207778
0.0330368
0.0376988
0.0335346
0.0381529
0.0167035
0.0122363
0.0194888
0.103467
0.0200759
0.03908
0.0397615
0.0199025
0.0297154
0.0346952
0.0330457
0.0752248
0.0429757
0.0205665
0.0375805
0.0273205
0.0344406
0.0371645
0.0379251
0.035243
0.0320536
0.0324712
0.0350983
0.0366761
0.0330763
0.056711
0.0299755
0.0372013
0.0325208
0.0338565
0.0318098
0.0266371
0.0227623
0.0195944
0.0258709
0.0341752
0.037886
0.0322149
0.0350177
0.0357264
0.0161174
0.013429
0.0275453
0.0382543
0.0304623
0.148388
0.0219359
0.0192921
0.0184496
0.021753
0.0217534
0.0155724
0.0222527
0.0210816
0.0237138
0.0216449
0.0223822
0.0218687
0.0218841
0.0233279
0.0243714
0.0206383
0.0212729
0.0219256
0.0215072
0.0145599
0.0356487
0.035079
0.0995067
0.0209701
0.0246675
0.0389481
0.0362748
0.0159149
0.0109971
0.0194677
0.01373
0.0290918
0.0194951
0.0193575
0.0185688
0.0177315
0.0325669
0.0394243
0.033986
0.0292555
0.0212097
0.0375759
0.0940836
0.0415984
0.0198451
0.0326265
0.0290459
0.038788
0.0306719
0.01627
0.0198016
0.0148514
0.0144865
0.0188701
0.0148587
0.0225227
0.0219857
0.0218131
0.0221281
0.0222956
0.0226255
0.0272189
0.0360597
0.0382618
0.0164284
0.0377007
0.017149
0.0161643
0.0113326
0.0183735
0.0148794
0.0193404
0.022031
0.0159031
0.0228099
0.0145185
0.0218233
0.0224741
0.0147798
0.0225343
0.0218523
0.0134829
0.0380376
0.0305862
0.0843417
0.0297167
0.0340358
0.0313701
0.0351673
0.0334252
0.0384607
0.0185976
0.155342
0.0429938
0.0305863
0.0204385
0.0151722
0.0428208
0.0125785
0.037007
0.0174128
0.0329428
0.034878
0.142666
0.126715
0.0348298
0.0359042
0.0382403
0.0769217
0.0342782
0.130387
0.0363876
0.0220099
0.0224077
0.0208716
0.0345457
0.0366477
0.0300651
0.0403461
0.0382734
0.0158023
0.0198249
0.0211349
0.0366784
0.0183332
0.0288283
0.0234204
0.0188956
0.0252817
0.0167096
0.0317648
0.0131651
0.0121254
0.0151453
0.0323832
0.0167954
0.0110619
0.0241767
0.0161262
0.0138319
0.0121385
0.0207073
0.0385606
0.0333196
0.0279009
0.0343628
0.0411288
0.0350246
0.0196275
0.0350812
0.0388432
0.0185775
0.0222135
0.0210553
0.0319615
0.0316423
0.0390884
0.0292745
0.0355614
0.0360944
0.0267556
0.026901
0.0108817
0.0401898
0.0331118
0.0333247
0.0366296
0.0141392
0.0192493
0.0393554
0.0203721
0.0282661
0.0291288
0.0235711
0.0201265
0.0232354
0.015916
0.0168511
0.0183621
0.0203378
0.0179373
0.019274
0.0278898
0.0297067
0.0311579
0.0366027
0.0226835
0.0196725
0.0299789
0.087175
0.0348985
0.159607
0.0298284
0.0382798
0.111502
0.0396704
0.0273736
0.0427629
0.0220965
0.0359951
0.0377449
0.036074
0.0324704
0.0224303
0.161282
0.0385712
0.02914
0.0256891
0.0592684
0.0675649
0.0287198
0.0114829
0.038596
0.0328641
0.0359323
0.0382181
0.0315856
0.0416132
0.0488753
0.0378614
0.0177854
0.0190785
0.0183104
0.0190906
0.0186009
0.0184313
0.0368397
0.0320043
0.0163227
0.0156331
0.0138489
0.0175819
0.0109859
0.02953
0.0114386
0.035561
0.0157843
0.029961
0.0349499
0.0317519
0.0329018
0.0335875
0.0362856
0.0356624
0.0277361
0.0161627
0.0273585
0.0389526
0.020461
0.0390791
0.0301058
0.0330795
0.0378325
0.0261689
0.0336051
0.0333985
0.035333
0.0249943
0.0316446
0.0437722
0.0249546
0.0396123
0.0168758
0.0325019
0.0303981
0.0245756
0.0238774
0.0254992
0.132647
0.0896677
0.0326792
0.0185144
0.0167538
0.0121912
0.0299447
0.0390972
0.0107039
0.0217509
0.0121167
0.01851
0.0286064
0.0309492
0.115296
0.0323054
0.0162712
0.0379538
0.0338132
0.0210005
0.0266562
0.0309706
0.170353
0.0346972
0.0251685
0.0246139
0.0353672
0.0408087
0.0369785
0.0387916
0.036481
0.03111
0.035774
0.0364527
0.020751
0.0400903
0.0393224
0.0394601
0.0528668
0.0301979
0.0364403
0.0359735
0.0250355
0.0400999
0.0383175
0.0300824
0.0226169
0.133304
0.0250654
0.037532
0.0207457
0.0125907
0.0368799
0.0112899
0.0184914
0.0367505
0.0338111
0.0355577
0.0349627
0.0387926
0.0287943
0.0334279
0.0402864
0.0401201
0.0307965
0.0326121
0.0824394
0.149153
0.0384978
0.0342581
0.0389954
0.0567422
0.0314209
0.0220223
0.0174435
0.038018
0.115904
0.0392042
0.043342
0.0405297
0.0251147
0.035639
0.0249631
0.0197262
0.0392184
0.0203195
0.029693
0.0316058
0.0221418
0.0357582
0.0246369
0.0239002
0.0248393
0.0200324
0.0315285
0.0393236
0.0299724
0.0268836
0.0223759
0.0343374
0.0253379
0.0194521
0.0177872
0.0240332
0.0218048
0.018593
0.0226935
0.0204235
0.0191177
0.0235554
0.0213029
0.0180625
0.0216573
0.0217741
0.0189569
0.0307811
0.0580772
0.0387652
0.0345747
0.0210372
0.0419275
0.042907
0.0423797
0.0202498
0.021768
0.0313962
0.0182252
0.0347812
0.0333789
0.01561
0.0109123
0.0383416
0.0110778
0.0261957
0.114064
0.0383011
0.0366245
0.0404989
0.0415579
0.0406123
0.0355885
0.0374668
0.138302
0.0316225
0.036181
0.0251862
0.025648
0.0142219
0.0396762
0.0169845
0.0296469
0.029008
0.0550532
0.0278855
0.0302019
0.0409925
0.0324707
0.163469
0.0410673
0.0259238
0.0238817
0.016455
0.131953
0.123703
0.0281998
0.0347536
0.0313642
0.0626446
0.0345509
0.0344902
0.0336142
0.0209654
0.0424093
0.0369539
0.0270947
0.0391049
0.0227565
0.0291673
0.0344866
0.0404187
0.15062
0.0284947
0.026483
0.0250722
0.0377725
0.0737382
0.0323036
0.112462
0.0414122
0.033443
0.0312499
0.0293859
0.0391348
0.0260495
0.0243409
0.0293089
0.0199574
0.0202409
0.024846
0.0289568
0.0422783
0.0200448
0.0198162
0.0443602
0.0305129
0.032695
0.0289684
0.0216779
0.0231701
0.033995
0.021509
0.0223423
0.0221347
0.0293201
0.0572821
0.0434994
0.0218311
0.0390137
0.0320793
0.121169
0.0223668
0.0205187
0.0448576
0.018923
0.032759
0.0311842
0.0236458
0.031304
0.054821
0.157699
0.0356972
0.024766
0.0433716
0.15516
0.0257752
0.0264618
0.0280136
0.0229961
0.0560309
0.0422746
0.0350574
0.145496
0.074578
0.0365631
0.0303232
0.0308852
0.0314493
0.166635
0.0366415
0.0221508
0.0336654
0.0146366
0.034739
0.0187488
0.0252673
0.0416695
0.133187
0.0233494
0.0422051
0.165771
0.0324369
0.0167448
0.0186279
0.132002
0.0425202
0.0161881
0.0173971
0.0322201
0.0265901
0.0328083
0.037112
0.0280864
0.0241935
0.0214061
0.0406082
0.0332147
0.0490076
0.0276716
0.0359615
0.0329634
0.0346828
0.0251613
0.0289257
0.0215894
0.0284485
0.0293177
0.0402557
0.0276786
0.0405076
0.0302728
0.0255694
0.0346862
0.149984
0.0311817
0.0241883
0.0713022
0.036491
0.0401088
0.0226752
0.0149526
0.0277821
0.0495541
0.0165607
0.0340766
0.0215303
0.0434075
0.0403367
0.0339915
0.025133
0.0428267
0.0362346
0.0194468
0.15936
0.0293578
0.0292262
0.0291275
0.0300842
0.0352955
0.0237165
0.0313496
0.0291175
0.0352221
0.0271575
0.0178991
0.0195351
0.0248595
0.0426925
0.0213409
0.0581299
0.134015
0.0377242
0.0273945
0.0198109
0.0252866
0.031909
0.0399594
0.0327984
0.0231739
0.0265014
0.114335
0.0361102
0.092837
0.0375783
0.041804
0.0243339
0.0276745
0.0377331
0.0268125
0.0203215
0.0198752
0.0217261
0.0371992
0.0195611
0.0418388
0.0335469
0.0339809
0.0297336
0.125827
0.0237302
0.0247988
0.0214554
0.0172887
0.132896
0.0187316
0.0328728
0.0564884
0.0415286
0.0438546
0.0168627
0.0675533
0.148337
0.162073
0.0265411
0.0396768
0.019926
0.0403222
0.0708554
0.0222767
0.0420033
0.0204017
0.043782
0.0277275
0.0638692
0.0192257
0.0217828
0.0288612
0.0244756
0.0331427
0.0378586
0.0255433
0.118146
0.0363275
0.0377039
0.0219099
0.0431106
0.0204983
0.0377319
0.0173723
0.160304
0.0302841
0.0453172
0.0431193
0.166106
0.0353013
0.0222178
0.023636
0.130324
0.0370495
0.0251765
0.0373749
0.139546
0.0193166
0.0421272
0.0268894
0.043669
0.043343
0.0306465
0.0469608
0.016779
0.0423866
0.0414383
0.016518
0.0203099
0.0236086
0.0195574
0.0425271
0.0446293
0.128467
0.0341722
0.0149435
0.0433898
0.0195499
0.148602
0.150001
0.0957942
0.094369
0.0418312
0.0400068
0.0321239
0.039987
0.0410955
0.0345731
0.068587
0.0410041
0.088121
0.158678
0.0373244
0.0378576
0.0970392
0.028
0.0147901
0.0571404
0.0405806
0.025983
0.0417354
0.0370786
0.036206
0.0412031
0.0931075
0.0439697
0.0452378
0.0446151
0.135221
0.145723
0.0432084
0.0368927
0.0245201
0.110688
0.0332159
0.0209022
0.0442397
0.0381163
0.0304154
0.0326348
0.0544223
0.0441093
0.0334208
0.0426097
0.127892
0.100283
0.122159
0.122611
0.0385434
0.0354199
0.0441016
0.0442591
0.0423604
0.0169909
0.143553
0.0437697
0.0260968
0.0330205
0.0786518
0.0173182
0.0430297
0.11991
0.0357044
0.0373258
0.0285907
0.025037
0.0306218
0.0439177
0.0432412
0.128894
0.0368577
0.0321325
0.0420513
0.0154489
0.11806
0.0394332
0.0402519
0.123145
0.0214179
0.0181126
0.042087
0.162836
0.0222207
0.037458
0.131333
0.132354
0.0308943
0.0379946
0.0257726
0.0218232
0.0386945
0.0379374
0.030202
0.0537213
0.0725372
0.0178854
0.0356169
0.0366951
0.11227
0.0319252
0.106224
0.0428727
0.0380757
0.0330014
0.0264279
0.12281
0.0454445
0.117435
0.107214
0.026516
0.0171157
0.0200859
0.0424386
0.0545331
0.04295
0.0316411
0.025698
0.0191058
0.0248055
0.110847
0.0145453
0.118974
0.0394163
0.0377799
0.0438984
0.0172032
0.113468
0.0189112
0.0272883
0.0380271
0.0295456
0.0263113
0.038259
0.168679
0.034215
0.0452849
0.072657
0.0161792
0.0296606
0.0348431
0.151953
0.0936778
0.0463211
0.0548193
0.106085
0.0350544
0.0229758
0.0428196
0.0282199
0.100299
0.0392416
0.166267
0.152193
0.0343023
0.029389
0.0218423
0.0316581
0.0343086
0.0445194
0.0242651
0.0433545
0.0260423
0.046899
0.027477
0.0343628
0.0233868
0.0992074
0.0394901
0.149891
0.145074
0.124888
0.0384752
0.131961
0.0164646
0.0299124
0.158222
0.0229278
0.0812247
0.0190078
0.0207968
0.0406049
0.0267349
0.0445046
0.120909
0.0384062
0.0448818
0.0202531
0.0178248
0.118217
0.0346818
0.0162003
0.0221198
0.0341568
0.0428172
0.069034
0.0223392
0.0252802
0.024508
0.0257024
0.0370632
0.158197
0.024052
0.024596
0.0291119
0.0391918
0.143355
0.0158685
0.0449691
0.0165287
0.144923
0.0422295
0.120996
0.135635
0.0462162
0.0437745
0.0933163
0.0444299
0.043772
0.113808
0.0439892
0.121618
0.0455175
0.0395694
0.120081
0.0199946
0.0759727
0.0296954
0.029043
0.0330918
0.0280698
0.117648
0.0344453
0.0302478
0.0225475
0.130225
0.0447147
0.106808
0.0379543
0.0281851
0.109377
0.0307916
0.0272539
0.0424151
0.150941
0.0232954
0.0424815
0.0442371
0.149386
0.0385781
0.0427415
0.0415493
0.0215198
0.0338736
0.123801
0.0304447
0.0309779
0.0186776
0.0432324
0.0705185
0.03178
0.0245878
0.0549048
0.0394052
0.0315052
0.0274338
0.0335771
0.0190358
0.040969
0.144269
0.0617896
0.0350775
0.0361464
0.0434284
0.109514
0.0351838
0.0646737
0.0248272
0.0576709
0.0668529
0.039921
0.0964711
0.0510675
0.0235463
0.126408
0.0414483
0.164189
0.168215
0.131288
0.0198452
0.0585339
0.085037
0.0442338
0.0376267
0.0422238
0.10754
0.121064
0.0711798
0.0393851
0.0403727
0.0252889
0.0453255
0.0524621
0.159286
0.120676
0.0192611
0.0145663
0.0374473
0.119035
0.140459
0.129881
0.162864
0.158284
0.118625
0.0326047
0.0803089
0.119949
0.147195
0.0671554
0.147339
0.0191681
0.118841
0.169063
0.021105
0.0842688
0.0858308
0.024206
0.121817
0.0205288
0.0431699
0.103535
0.0635147
0.0453477
0.0369464
0.0170168
0.0495862
0.143401
0.0250796
0.0590686
0.0245177
0.0311906
0.0288085
0.0427464
0.0379322
0.0320003
0.044502
0.0302525
0.0454435
0.0266837
0.0302111
0.0438973
0.0228712
0.0807616
0.107621
0.0442698
0.0189504
0.0246536
0.0999112
0.0400302
0.144525
0.0500943
0.0183301
0.0809412
0.125185
0.0920095
0.0295115
0.0277234
0.0463512
0.019319
0.153362
0.0337613
0.0424242
0.0448012
0.014251
0.0314717
0.031708
0.0455626
0.031548
0.141755
0.0445647
0.0179501
0.0213743
0.0261126
0.145769
0.0203895
0.0235799
0.0248835
0.0360855
0.0294633
0.109715
0.0332774
0.0195955
0.0323746
0.0149806
0.163509
0.159045
0.0372122
0.0402677
0.019641
0.0183815
0.069621
0.041911
0.143249
0.0240536
0.0217929
0.0265362
0.0515931
0.0953791
0.0413014
0.0512266
0.0835796
0.137148
0.11243
0.0511809
0.0197595
0.162429
0.161528
0.0324147
0.0168012
0.0160071
0.0450081
0.0369154
0.10265
0.0432212
0.0637113
0.0169621
0.0966771
0.0437039
0.0212756
0.0652719
0.0371378
0.0179495
0.0326292
0.0700072
0.043386
0.0944113
0.0260719
0.0981339
0.0446992
0.0349675
0.0258071
0.0199748
0.0570527
0.0879509
0.035727
0.0272646
0.0320639
0.0372234
0.0191881
0.0333127
0.057367
0.109309
0.0832336
0.0396372
0.0424798
0.0284888
0.0301032
0.0601021
0.154514
0.0609872
0.0277689
0.0780684
0.0527279
0.0425442
0.087222
0.0185123
0.0215849
0.0338649
0.0431054
0.0375973
0.0261642
0.0383489
0.164766
0.119168
0.0429322
0.0842517
0.0239729
0.168006
0.0607164
0.0207049
0.0274571
0.082253
0.155467
0.0223566
0.0347754
0.0391526
0.0383959
0.165969
0.0339163
0.152688
0.0329714
0.0330447
0.029663
0.0121663
0.0346024
0.0926404
0.0141737
0.0453563
0.0380484
0.0389607
0.0449573
0.031396
0.142748
0.0173836
0.0174393
0.0289726
0.0193766
0.0397734
0.0381635
0.0449477
0.0536398
0.0422343
0.0422364
0.0208801
0.0138158
0.0330646
0.156617
0.0287741
0.0256725
0.0339145
0.121724
0.0263555
0.0305415
0.112103
0.0582115
0.0386503
0.0395948
0.0998932
0.019205
0.158786
0.0447651
0.0301722
0.159032
0.0245602
0.0363743
0.0393668
0.0293795
0.0511182
0.138411
0.0338265
0.0842917
0.0967418
0.129384
0.016967
0.0278933
0.0348072
0.0418181
0.0868522
0.0428337
0.0323068
0.0152163
0.0158287
0.0257253
0.0188893
0.0292553
0.0258983
0.0275898
0.0825169
0.0271811
0.0642235
0.0382503
0.0206802
0.03539
0.0117393
0.0189426
0.134543
0.115027
0.0245844
0.0340025
0.0349613
0.0176957
0.0332899
0.0372305
0.121241
0.0287455
0.0298503
0.0365649
0.0420317
0.132735
0.0325532
0.0429931
0.0238105
0.14722
0.0348006
0.0572237
0.0194886
0.0775975
0.0930851
0.0330982
0.157536
0.0428505
0.0760843
0.0203512
0.0373747
0.0201212
0.0429106
0.0299264
0.0280264
0.0653041
0.144047
0.0167234
0.0330791
0.148142
0.0445483
0.0452217
0.0378019
0.0506248
0.0467524
0.019315
0.0433787
0.109322
0.158987
0.135427
0.0678018
0.0490333
0.0221433
0.0412905
0.0432187
0.0235792
0.0400628
0.118373
0.0436991
0.0157359
0.0209324
0.0745018
0.01844
0.0435885
0.0341584
0.0811112
0.0943339
0.12124
0.0162326
0.0188486
0.168
0.15251
0.0640238
0.162514
0.0152054
0.164194
0.0387563
0.0288352
0.0230577
0.170136
0.0451815
0.0218142
0.0276102
0.023037
0.0198708
0.0925143
0.137405
0.114339
0.0449408
0.0363789
0.0754668
0.0369859
0.040653
0.152991
0.0383576
0.135189
0.0231246
0.0369811
0.0951234
0.10829
0.0371336
0.0159182
0.0220164
0.0450593
0.0286643
0.0820109
0.0199325
0.0842627
0.123444
0.146141
0.0449621
0.155935
0.042152
0.142165
0.0189684
0.0219604
0.0434514
0.043145
0.0130016
0.162572
0.0422338
0.0097931
0.0182949
0.0192531
0.0419628
0.0441144
0.132102
0.0316873
0.0401456
0.0444553
0.0296228
0.0316812
0.0377273
0.0439284
0.0177525
0.0203986
0.0214582
0.0230014
0.0412669
0.0424951
0.109689
0.168249
0.0146357
0.0809074
0.107354
0.0428494
0.0273634
0.0329386
0.0422895
0.0514118
0.0282833
0.042408
0.073777
0.168277
0.122276
0.0493697
0.104055
0.0285933
0.0442866
0.0411709
0.14104
0.128056
0.0372479
0.112265
0.0305581
0.0730243
0.0821868
0.0829105
0.0301506
0.0708026
0.0438466
0.0390687
0.086419
0.15441
0.0328689
0.0371109
0.122781
0.104332
0.0448485
0.0424598
0.0893542
0.136875
0.0369806
0.0427944
0.127798
0.0327579
0.0336568
0.0368502
0.14817
0.0199775
0.0258712
0.0132294
0.123331
0.0290219
0.0727844
0.0791178
0.0313646
0.0511839
0.0195945
0.0306338
0.0297139
0.0384135
0.0430432
0.1397
0.0222952
0.155895
0.013277
0.0422342
0.038577
0.0420103
0.045755
0.0453972
0.0427087
0.0302657
0.0273941
0.0338403
0.0273921
0.0259301
0.0401563
0.0306521
0.0305109
0.0176878
0.03441
0.0857114
0.143217
0.127103
0.0950429
0.0257316
0.127468
0.0404165
0.0836204
0.0427345
0.0190305
0.0370583
0.110759
0.021364
0.0407858
0.0326019
0.109243
0.0322996
0.123975
0.0430566
0.0278769
0.0403318
0.0289131
0.143126
0.0162106
0.0199478
0.0337964
0.0306232
0.0275394
0.0185161
0.0206226
0.0236958
0.0459147
0.0425925
0.0288467
0.0211114
0.06056
0.154662
0.0167433
0.148664
0.0235459
0.140012
0.0204237
0.0981601
0.0717549
0.116431
0.0418298
0.136099
0.0325699
0.136854
0.109173
0.0913274
0.0341766
0.147356
0.0273161
0.0899458
0.0606192
0.0737618
0.024942
0.0190666
0.0660078
0.130856
0.0426254
0.167536
0.11773
0.0326634
0.0412048
0.0415589
0.0304607
0.0240999
0.0434468
0.0427653
0.144061
0.0312732
0.0401552
0.0714276
0.113084
0.0450146
0.0893183
0.0874541
0.100007
0.0200121
0.122478
0.0430479
0.164069
0.0221357
0.0646577
0.0390761
0.0387529
0.042565
0.0901894
0.116734
0.0153365
0.0369764
0.165813
0.0193332
0.0439271
0.0346476
0.0191757
0.10633
0.0268195
0.0271197
0.144823
0.113756
0.039606
0.0934757
0.0616146
0.129416
0.0189886
0.123968
0.105028
0.0442181
0.016745
0.140265
0.113744
0.0315224
0.0845015
0.0688007
0.0680206
0.119916
0.127513
0.0740666
0.0450752
0.148035
0.0248473
0.0439378
0.0357899
0.0275445
0.0306719
0.147254
0.0670863
0.157817
0.0148831
0.0351367
0.0895491
0.0431359
0.0161704
0.041206
0.0868509
0.0458859
0.0448686
0.066913
0.0303885
0.108042
0.0293425
0.133974
0.044684
0.12301
0.0415898
0.0813864
0.0164024
0.0217127
0.0757509
0.119964
0.0582231
0.0320197
0.13411
0.0196254
0.103346
0.0807356
0.0188135
0.0166992
0.0212994
0.0437057
0.0605309
0.0259873
0.0166339
0.0462838
0.16372
0.0421822
0.114344
0.0262934
0.0459241
0.0431157
0.0445363
0.0412568
0.0223147
0.134796
0.156788
0.0190284
0.0203565
0.0451821
0.0291403
0.0201556
0.0268878
0.0448976
0.0317546
0.0319453
0.0268571
0.0246521
0.0801726
0.0118151
0.0407788
0.0209186
0.0742004
0.162284
0.0211525
0.0334974
0.0400691
0.14217
0.0187734
0.0423071
0.0368008
0.150138
0.0152339
0.0341763
0.0273307
0.0166759
0.055098
0.080999
0.0256797
0.0386475
0.128563
0.0321304
0.0591966
0.14617
0.0430221
0.112296
0.0210525
0.040558
0.0252468
0.137975
0.0296113
0.0825145
0.0236045
0.0404446
0.019609
0.164768
0.0243049
0.106224
0.0352483
0.0718774
0.0860054
0.0327269
0.124294
0.105573
0.0317106
0.0256402
0.128502
0.0255409
0.0928052
0.149685
0.15414
0.0197147
0.0261509
0.0389414
0.133884
0.0352862
0.0335974
0.0238652
0.0208562
0.0373094
0.0327381
0.0234594
0.0444968
0.0606584
0.155684
0.0186185
0.0456545
0.139712
0.0304112
0.0218351
0.0193202
0.0415116
0.0408461
0.030387
0.120478
0.027781
0.0387363
0.0318754
0.0442061
0.0382547
0.0240109
0.140512
0.030995
0.111439
0.0194728
0.0386259
0.128185
0.101893
0.154908
0.0247741
0.0169158
0.0196014
0.0404914
0.138905
0.0403394
0.0204536
0.0326502
0.158992
0.039758
0.0410652
0.0324589
0.0293041
0.0288744
0.0390131
0.0802628
0.0257095
0.0412256
0.039083
0.031291
0.0855763
0.0766564
0.0553077
0.0198993
0.0330156
0.147985
0.0431477
0.0445759
0.0268131
0.04397
0.0444678
0.0164268
0.0261174
0.0289278
0.0171423
0.159185
0.142875
0.0336177
0.0579719
0.0454543
0.0236191
0.106809
0.0211561
0.0562472
0.10767
0.0711327
0.0199847
0.0290635
0.105583
0.0218393
0.11456
0.0431799
0.0523103
0.0298394
0.0277343
0.0945222
0.0700817
0.0487191
0.0440729
0.0158794
0.0211041
0.0161381
0.0246071
0.0291939
0.0181032
0.111677
0.0192167
0.155845
0.0135266
0.033886
0.149761
0.0371047
0.0231867
0.014718
0.025447
0.0563928
0.082535
0.0429937
0.0336988
0.0693753
0.0198806
0.0630252
0.103344
0.0176078
0.0218627
0.0452277
0.0833347
0.0701331
0.0432519
0.0385563
0.132218
0.0396836
0.0378291
0.021189
0.0313496
0.163574
0.0150912
0.076707
0.029925
0.015195
0.0269389
0.0438486
0.0442617
0.0194089
0.0320052
0.0393746
0.0423708
0.12689
0.155275
0.0435487
0.0175809
0.0705096
0.018387
0.0385449
0.109874
0.103767
0.15608
0.0421359
0.0876589
0.0242575
0.0610917
0.038563
0.121817
0.134255
0.158841
0.0390779
0.0400631
0.132795
0.0578304
0.0437822
0.0269262
0.155503
0.0348949
0.0450775
0.144888
0.124719
0.0291335
0.0493095
0.016758
0.0438939
0.153423
0.12392
0.121307
0.035891
0.0440487
0.0686229
0.0245366
0.0452796
0.0619969
0.0824612
0.10339
0.150907
0.0445528
0.0250468
0.158935
0.0393707
0.12695
0.0371165
0.0687564
0.0418266
0.0398713
0.041072
0.0238486
0.0355416
0.0364776
0.0398228
0.0183622
0.0443289
0.0436381
0.0440243
0.0351329
0.0163814
0.0888889
0.157918
0.0334419
0.040234
0.0412228
0.0824242
0.0168277
0.152283
0.0436187
0.0682786
0.0370529
0.0218854
0.0492912
0.035231
0.0821386
0.0664404
0.038728
0.0970651
0.0426022
0.160592
0.121329
0.0165429
0.0488729
0.0421807
0.0736443
0.165676
0.111853
0.0266405
0.0939439
0.101197
0.0438635
0.0411915
0.127274
0.0828221
0.0282444
0.0246205
0.0388962
0.0195927
0.0833101
0.0828267
0.0419704
0.166921
0.146367
0.148574
0.0371377
0.0587888
0.163796
0.0222093
0.029176
0.0320086
0.0451979
0.126052
0.0403003
0.0827235
0.0565522
0.0431414
0.0419433
0.0386033
0.0304837
0.0414152
0.150649
0.0156463
0.120862
0.0809741
0.0987268
0.138734
0.040178
0.0331295
0.145039
0.021614
0.0447863
0.0405553
0.0279573
0.0824832
0.0403005
0.132324
0.0386164
0.036298
0.109765
0.0330506
0.120236
0.149561
0.0274466
0.111834
0.0325789
0.0428411
0.0223864
0.0206865
0.0749788
0.167187
0.160556
0.0251401
0.0728709
0.066511
0.168687
0.0413757
0.0439674
0.0455943
0.0208367
0.155018
0.0665448
0.032232
0.0371735
0.169064
0.0504139
0.0205728
0.0356764
0.0292083
0.0232768
0.0442839
0.0421775
0.0177102
0.0184146
0.0534857
0.0367632
0.0294184
0.0185185
0.0269247
0.0420652
0.137826
0.0456572
0.147478
0.0351067
0.0437795
0.152202
0.0336281
0.0412043
0.0383515
0.122276
0.0323269
0.0377937
0.0381203
0.0581403
0.0523389
0.0399836
0.0375115
0.0394928
0.128005
0.0435613
0.0280939
0.0374697
0.0315577
0.0077617
0.0190265
0.0239472
0.0255199
0.0251698
0.0234224
0.0208231
0.0179057
0.0150993
0.0126784
0.0107534
0.00931602
0.00830658
0.0076534
0.0072853
0.00712863
0.00711673
0.00721002
0.00738122
0.00761524
0.00775275
0.0190045
0.024114
0.0258453
0.0256329
0.0239808
0.0214502
0.0185832
0.0158145
0.0134109
0.0114694
0.0099802
0.00889816
0.00816905
0.00773003
0.0075124
0.00744928
0.00749397
0.00761884
0.00781651
0.00776582
0.0190464
0.024333
0.0262261
0.0261477
0.0245969
0.0221435
0.0193356
0.0166057
0.0142076
0.0122284
0.0106654
0.00949406
0.00867751
0.00815925
0.00787158
0.0077481
0.0077358
0.00780561
0.0079556
0.00787512
0.0191605
0.0246096
0.0266639
0.0267137
0.0252667
0.0228969
0.0201533
0.0174586
0.0150515
0.0130144
0.0113597
0.0100858
0.0091722
0.0085685
0.00820517
0.00801431
0.00794265
0.00795817
0.00806368
0.00816476
0.019435
0.024953
0.0271551
0.0273266
0.0259866
0.0237049
0.0210266
0.0183599
0.0159281
0.0138152
0.0120543
0.0106674
0.00964916
0.00895429
0.00851254
0.00825275
0.00812185
0.00809019
0.00816375
0.00859712
0.0198422
0.0253694
0.0276972
0.0279852
0.0267532
0.0245615
0.021946
0.0192968
0.0168246
0.014621
0.0127426
0.0112348
0.0101062
0.00931612
0.00879412
0.00846731