/*--------------------------------*- C++ -*----------------------------------*\
  =========                 |
  \\      /  F ield         | OpenFOAM: The Open Source CFD Toolbox
   \\    /   O peration     | Website:  https://openfoam.org
    \\  /    A nd           | Version:  10
     \\/     M anipulation  |
\*---------------------------------------------------------------------------*/
FoamFile
{
    format      ascii;
    class       volScalarField;
    location    "50";
    object      nut;
}
// * * * * * * * * * * * * * * * * * * * * * * * * * * * * * * * * * * * * * //

dimensions      [0 2 -1 0 0 0 0];

internalField   nonuniform List<scalar> 
23845
(
0.0078656
0.00859475
0.0131457
0.0108957
0.0099136
0.0904555
0.012377
0.00989322
0.0947478
0.0118805
0.00617968
0.0823022
0.0719103
0.0923189
0.014634
0.0248807
0.0744056
0.0714125
0.0645237
0.08933
0.00809257
0.00533154
0.00600774
0.090144
0.0140036
0.074008
0.00785724
0.08624
0.00839365
0.0902188
0.0112182
0.00163214
0.0154535
0.0716676
0.0844954
0.0914727
0.0018369
0.0844814
0.0826016
0.0847187
0.0596272
0.0745502
0.0655532
0.0775654
0.0805238
0.0748516
0.00977646
0.0197589
0.00245327
0.0056534
0.00497656
0.01186
0.00156018
0.0887206
0.00163687
0.0725393
0.00959447
0.00941809
0.00796864
0.0108104
0.0114066
0.0768674
0.0319811
0.0119096
0.0876043
0.0743197
0.00934203
0.0701541
0.0839829
0.0623495
0.0102544
0.0133781
0.0767212
0.0139533
0.0839152
0.0138349
0.0807189
0.0854059
0.0105436
0.0630418
0.00675079
0.0119385
0.00915495
0.0124483
0.0142168
0.0848825
0.00942837
0.00148097
0.0927959
0.0610951
0.0051132
0.0488259
0.00997258
0.0892051
0.00818269
0.00679107
0.0707254
0.0168281
0.0944399
0.0097622
0.070145
0.00996087
0.00898387
0.00259154
0.0087772
0.0124218
0.0907619
0.0858352
0.00941688
0.0781446
0.00862266
0.0846686
0.0139215
0.0112288
0.0910186
0.00777662
0.0773875
0.0187872
0.00822786
0.0137876
0.083595
0.00316502
0.0538767
0.014365
0.0107362
0.0755515
0.0114632
0.00568529
0.0147216
0.0100638
0.0155001
0.00815047
0.00563498
0.0900984
0.068827
0.00829807
0.00228214
0.0804196
0.009198
0.0844861
0.00552222
0.0751018
0.0858894
0.0762295
0.0372032
0.0787115
0.0100996
0.0127402
0.0145825
0.0527817
0.0154721
0.0779729
0.00999458
0.076361
0.0144768
0.0334808
0.00944824
0.0903874
0.0151155
0.00814755
0.0498947
0.014352
0.00724819
0.0911949
0.0593362
0.0528892
0.0873278
0.00344074
0.0846222
0.0761069
0.0810971
0.0116328
0.0874538
0.0139069
0.0816223
0.00856265
0.044508
0.0190212
0.0917584
0.0894566
0.00945797
0.00949587
0.0129138
0.00972567
0.026353
0.0700494
0.0775169
0.0126721
0.00671563
0.0739508
0.0095669
0.0911131
0.0860592
0.0882275
0.0432828
0.0894845
0.00576465
0.00734565
0.00120765
0.0107134
0.0522265
0.0863951
0.014588
0.00726906
0.0109089
0.00744286
0.0131007
0.0873331
0.0078304
0.0660092
0.0645689
0.00394278
0.0347443
0.0829479
0.00320471
0.00191836
0.00697525
0.0761444
0.00236234
0.01561
0.0673992
0.0138909
0.00497894
0.0382925
0.0782094
0.0153715
0.00271142
0.0905219
0.0893476
0.0508828
0.0904004
0.00293572
0.0863799
0.0676157
0.00983236
0.0101069
0.0843706
0.0103304
0.0824046
0.0128274
0.00193401
0.0116293
0.0116011
0.00961764
0.00335391
0.0291874
0.0907616
0.0763973
0.0079868
0.0141024
0.0725059
0.0901358
0.00484907
0.0685302
0.0135995
0.00485901
0.014497
0.00611315
0.0872903
0.0875555
0.00112738
0.0909195
0.0113203
0.0116669
0.0283064
0.0826535
0.00900885
0.0149434
0.0108147
0.0102667
0.0864632
0.0116157
0.00442096
0.0877956
0.00692776
0.0865074
0.00711742
0.0901742
0.00499976
0.00604809
0.0131268
0.0904046
0.00599727
0.041014
0.087989
0.014045
0.0134418
0.0837647
0.00785792
0.0138163
0.0085825
0.0035767
0.012432
0.00619023
0.00819026
0.0862428
0.0134784
0.0906239
0.0869464
0.00770291
0.0144963
0.0150861
0.0106492
0.0102224
0.0893072
0.0102204
0.0113348
0.00457716
0.0698554
0.00495014
0.00426392
0.0102305
0.0668193
0.0828902
0.0117574
0.00570138
0.0138236
0.00676393
0.00488125
0.0658978
0.00781472
0.0036779
0.0143297
0.0824719
0.0139149
0.0838629
0.0100466
0.0102605
0.0151239
0.0657575
0.0121419
0.0483903
0.00532445
0.0912637
0.0151552
0.0109459
0.0123136
0.0691549
0.0792612
0.0096225
0.012264
0.0144787
0.00654052
0.0685065
0.0709003
0.00353212
0.0911613
0.00690029
0.0103068
0.0154607
0.0120497
0.0155752
0.00482712
0.0059886
0.00164389
0.0850362
0.076928
0.079633
0.0129139
0.0105384
0.014645
0.0797811
0.0108233
0.0515921
0.00697118
0.0890375
0.0153451
0.0880458
0.00789771
0.0739463
0.0754496
0.00494562
0.00977541
0.0801512
0.0905858
0.00490695
0.0122506
0.0116139
0.0758021
0.0124692
0.0130029
0.091011
0.00632855
0.0714765
0.0682481
0.0846208
0.0904515
0.00981811
0.0540027
0.00911007
0.0100884
0.0792055
0.0112191
0.0086574
0.00398267
0.00597127
0.0237325
0.0793521
0.0614934
0.0914514
0.012093
0.0107781
0.00706291
0.012656
0.0101559
0.0128308
0.0851175
0.0103776
0.00890646
0.0136304
0.0149711
0.0675172
0.0119963
0.0154817
0.00934264
0.0122874
0.0106372
0.0091604
0.0852826
0.0115174
0.0128001
0.08205
0.0932871
0.00950946
0.0124476
0.00799706
0.0120354
0.0113613
0.0137402
0.0140261
0.0892884
0.0698106
0.0145851
0.0693795
0.0798482
0.0727224
0.0809282
0.0706141
0.0106741
0.0131313
0.0138004
0.010954
0.00742324
0.0150249
0.0110782
0.0135452
0.08229
0.0102702
0.087672
0.0123638
0.00916312
0.0732621
0.00992552
0.0916322
0.0701714
0.0149458
0.0107006
0.00775664
0.00706424
0.0871453
0.00789433
0.010056
0.00268623
0.0106543
0.0917858
0.0873641
0.0899206
0.00309859
0.0697262
0.0156303
0.0912715
0.0884768
0.0105184
0.0126989
0.0116388
0.00941447
0.0739105
0.00331296
0.0850573
0.0569583
0.00992904
0.0101631
0.0102425
0.00718578
0.0491822
0.0116226
0.0873098
0.0832483
0.0112258
0.0149606
0.0749998
0.0153308
0.00594305
0.0101017
0.0116944
0.0098332
0.0724575
0.0128489
0.088668
0.0914129
0.0105425
0.00448517
0.0151778
0.00974327
0.0110877
0.0115248
0.0137272
0.0678787
0.0868458
0.015104
0.0104893
0.0152102
0.00239354
0.0103194
0.0871592
0.070009
0.0102675
0.0156054
0.0155184
0.0794561
0.00137323
0.0838886
0.0675294
0.0131876
0.0704758
0.0113509
0.0133682
0.0120583
0.00660938
0.00634743
0.00989539
0.0134946
0.00858955
0.00592781
0.0636778
0.0675202
0.0872935
0.0149629
0.00935934
0.0113191
0.0135869
0.0858184
0.00640616
0.00606389
0.0456257
0.0063766
0.00625013
0.067223
0.0843573
0.0776134
0.0769413
0.0865204
0.0146222
0.0731532
0.00926507
0.00838924
0.0765704
0.0151805
0.0915279
0.0930339
0.0079422
0.00960132
0.0107181
0.0818231
0.0796527
0.00853303
0.00902069
0.0760882
0.00900529
0.0684598
0.0679761
0.0110084
0.0692679
0.0888677
0.0155604
0.00931171
0.0150503
0.0157324
0.00750724
0.00948014
0.0660007
0.0824944
0.0425189
0.0123497
0.0132386
0.077793
0.0762736
0.0695332
0.00677123
0.072408
0.00643959
0.0152789
0.00810292
0.0126034
0.00860507
0.0770908
0.0698923
0.0851973
0.0721142
0.0779359
0.012455
0.0827892
0.00902583
0.0128285
0.0128454
0.0108724
0.00595163
0.00930186
0.0125374
0.0374774
0.00980136
0.00898098
0.0101968
0.00933596
0.0130727
0.00836297
0.00785481
0.00945547
0.0888916
0.0832961
0.00909187
0.0101792
0.00942366
0.0438793
0.00974932
0.0429029
0.0608038
0.0750179
0.0604614
0.0215392
0.0720581
0.0703008
0.0102615
0.0878613
0.0825705
0.0145903
0.0087312
0.0147688
0.065251
0.0204737
0.0102998
0.0569259
0.0860509
0.0682665
0.00781868
0.00923064
0.00732277
0.0685825
0.0117088
0.014845
0.089924
0.0896391
0.00780766
0.0122665
0.0125748
0.0144837
0.0148612
0.0150986
0.0142994
0.0115104
0.0574079
0.0602124
0.0659929
0.00966171
0.0707558
0.0669531
0.0600952
0.00933818
0.0102827
0.00753008
0.0241986
0.0255755
0.0146462
0.0129416
0.0320673
0.00612143
0.0483696
0.00732461
0.019116
0.0658288
0.00988091
0.0625857
0.078756
0.0676574
0.0669656
0.00852003
0.073611
0.0714361
0.00681206
0.0125222
0.0740139
0.0733249
0.0172268
0.00723287
0.00489234
0.00455348
0.0055874
0.0395076
0.00684857
0.0535771
0.0130041
0.0657137
0.0247443
0.069215
0.0728513
0.0720482
0.0725007
0.0756414
0.0747207
0.0641888
0.0759348
0.010374
0.080758
0.072488
0.0749987
0.0760464
0.0906452
0.0195138
0.0768621
0.00841171
0.00549829
0.0548884
0.0774279
0.0763545
0.0866548
0.0187976
0.0326495
0.00806038
0.0742657
0.012138
0.0784642
0.0727215
0.085435
0.0770859
0.00545408
0.0707315
0.00878878
0.0778607
0.0835712
0.0835667
0.0885099
0.0792068
0.0548433
0.0120067
0.0708857
0.0788352
0.00736293
0.079445
0.0824122
0.0878255
0.0125791
0.0785345
0.0726521
0.00894369
0.075489
0.0147496
0.0120446
0.0171476
0.00487693
0.00465285
0.00648183
0.0786826
0.0463507
0.0238385
0.00841642
0.0582001
0.0447322
0.0707003
0.0092716
0.072906
0.0803596
0.00503384
0.00428514
0.00627644
0.0121817
0.0313076
0.0863153
0.00938429
0.0236035
0.0694789
0.0753236
0.0702307
0.00431149
0.0872877
0.028502
0.0801634
0.0717832
0.0768244
0.079911
0.0803259
0.0763275
0.0717368
0.0724749
0.0752246
0.0788373
0.0726263
0.0102224
0.059588
0.0782823
0.0720449
0.0754651
0.0711792
0.00697744
0.0385624
0.0166973
0.0581554
0.0784507
0.0851393
0.076712
0.0749586
0.00917334
0.0143543
0.00449542
0.0650599
0.0808426
0.0554277
0.0102308
0.032755
0.0513371
0.0459254
0.0653007
0.0642506
0.0371528
0.0608143
0.0622269
0.0713257
0.0611797
0.0682289
0.0592773
0.0661453
0.0701991
0.0718694
0.0601626
0.0602568
0.059732
0.0636183
0.0274534
0.0785739
0.0757684
0.0130951
0.00591397
0.0679788
0.0814991
0.0798954
0.010793
0.00533319
0.014967
0.00910644
0.0673197
0.0538099
0.0520083
0.0471873
0.0351764
0.0679244
0.0874958
0.0780774
0.0687922
0.0555525
0.0785102
0.012974
0.0876133
0.0215924
0.0766609
0.00741463
0.0812554
0.0699251
0.0415216
0.0559889
0.0139657
0.0205562
0.0528973
0.0114387
0.061656
0.0616104
0.0595393
0.0603568
0.0618985
0.0629868
0.0671291
0.077785
0.0802015
0.0185373
0.0836564
0.0222491
0.0153035
0.00444987
0.0509796
0.0127298
0.0545287
0.060656
0.0395022
0.0635029
0.0187955
0.0614505
0.0624522
0.0102469
0.061786
0.0593032
0.00899697
0.0865296
0.0684054
0.0103906
0.0513024
0.0738636
0.0610435
0.0820943
0.071583
0.0807996
0.0214601
0.0121928
0.0904325
0.058746
0.0200321
0.0103734
0.00910533
0.00616903
0.0802808
0.039551
0.0718636
0.0754073
0.015121
0.00744321
0.0765268
0.0781817
0.0815254
0.0104862
0.0741023
0.0146843
0.0792936
0.0669256
0.0625255
0.0612565
0.0746233
0.0781956
0.0693778
0.00922325
0.0812329
0.0072998
0.0469433
0.0060244
0.0798417
0.0364979
0.0506017
0.0287921
0.0167041
0.0638123
0.0232362
0.0676176
0.0071557
0.00505083
0.00498353
0.070608
0.0158979
0.00504333
0.0563592
0.00605624
0.00802387
0.00716186
0.0162144
0.0801965
0.0731661
0.067934
0.0760267
0.0860259
0.0773394
0.0356683
0.0756998
0.0808841
0.0182306
0.0455565
0.0267947
0.0755563
0.0069938
0.0816975
0.0740072
0.0763616
0.0785848
0.0644645
0.0747309
0.00541657
0.00896744
0.00890425
0.081187
0.0795266
0.00546606
0.00573434
0.0820304
0.0189132
0.0525555
0.0597747
0.0325421
0.0202589
0.0614009
0.00967839
0.00579414
0.0129698
0.0136396
0.00729744
0.0101672
0.0726484
0.0703473
0.0715802
0.077643
0.0484353
0.0317399
0.0746292
0.00428077
0.0830109
0.0156123
0.0751996
0.0806939
0.00581947
0.0829409
0.0742062
0.0870234
0.0612171
0.0763634
0.0796662
0.0763937
0.0769722
0.00642901
0.0124689
0.0805811
0.0559983
0.0642582
0.00962254
0.00987695
0.00855204
0.00472185
0.0814005
0.07702
0.0770655
0.080957
0.0775798
0.0863747
0.00955784
0.00851982
0.0331566
0.0199716
0.0267518
0.0167546
0.0133205
0.00541789
0.0784876
0.00796763
0.0154205
0.0103568
0.00443412
0.0249017
0.00461564
0.0684846
0.00605382
0.0769115
0.0120819
0.0523022
0.0757171
0.0634639
0.0693978
0.0722345
0.0781342
0.0796243
0.0461008
0.00726057
0.00712229
0.0819969
0.0149028
0.0827684
0.072353
0.074843
0.0781302
0.0375645
0.074337
0.0775667
0.0760593
0.0669978
0.0711108
0.00904125
0.0692964
0.082293
0.00919794
0.0762479
0.0754356
0.030299
0.00656993
0.0563059
0.00766904
0.0127239
0.0721866
0.0299771
0.020101
0.0044324
0.0670009
0.0811968
0.00489796
0.0416629
0.00717979
0.0166881
0.0453468
0.0585003
0.00818617
0.0663236
0.0131761
0.0807223
0.0729949
0.0101044
0.0670524
0.0711731
0.0148587
0.0751398
0.0707347
0.0688557
0.0762753
0.0849234
0.0785521
0.0804256
0.0849004
0.00771593
0.0769186
0.0778727
0.00620711
0.0839508
0.0826447
0.081738
0.010102
0.0696418
0.0769562
0.00832718
0.064338
0.0916008
0.0799625
0.0692336
0.0635738
0.0143074
0.0642149
0.0805039
0.0412399
0.00494357
0.00841492
0.00564509
0.0172754
0.0781524
0.0733029
0.0762755
0.0754804
0.0802958
0.00738531
0.0732833
0.0895677
0.084601
0.062516
0.0727837
0.0117731
0.0136053
0.0799803
0.0784123
0.0878362
0.00953362
0.0718131
0.0608625
0.00999284
0.0797818
0.00986371
0.0811367
0.0883257
0.0851058
0.0589095
0.0757623
0.0646299
0.018677
0.0812745
0.0152154
0.0711116
0.0802099
0.028208
0.0758997
0.0496012
0.0469011
0.0599437
0.0263411
0.0689229
0.0814949
0.0630477
0.0380265
0.0612157
0.0744573
0.065293
0.0528114
0.0318353
0.0716977
0.0656832
0.0249267
0.0691859
0.0589709
0.0183986
0.0708775
0.0630018
0.0115729
0.0639982
0.0650144
0.0150919
0.00810194
0.00998071
0.0838271
0.0761711
0.0151479
0.0860405
0.0906205
0.00919007
0.0192971
0.00818916
0.0717602
0.00846641
0.0789975
0.0755475
0.0180629
0.00471369
0.0799674
0.00589284
0.00815259
0.00712652
0.0802996
0.0774461
0.0856624
0.0874762
0.0849499
0.0765759
0.0795309
0.015079
0.0654063
0.0774596
0.00678888
0.0649538
0.0050047
0.0835731
0.00795163
0.074355
0.0693363
0.0101118
0.0670377
0.0635116
0.0859174
0.0724094
0.0157616
0.0862636
0.00845364
0.0384001
0.00639859
0.0139964
0.0110149
0.00748388
0.0750299
0.0771608
0.0100428
0.074634
0.0744343
0.078198
0.00844632
0.0877119
0.0862846
0.0716115
0.00929822
0.0644844
0.0696369
0.0747172
0.08406
0.011079
0.0664411
0.0577735
0.00843893
0.0800056
0.00175803
0.0774739
0.00605716
0.0869962
0.00894546
0.0715459
0.0716817
0.0810234
0.0605388
0.0437235
0.0726646
0.0211354
0.0172484
0.063294
0.0719941
0.0894418
0.0194202
0.0216118
0.0895071
0.0690142
0.0729828
0.0644714
0.0459064
0.0346955
0.0737523
0.0379952
0.0359764
0.00799865
0.0655864
0.00995559
0.0834559
0.0230868
0.0807449
0.0724716
0.0143786
0.00902844
0.0175134
0.0904683
0.00739824
0.073104
0.0712769
0.00863447
0.0715151
0.01033
0.011364
0.0090714
0.0422846
0.0877731
0.015677
0.0491831
0.0541836
0.0626033
0.00788429
0.0104791
0.0900137
0.0795373
0.0152941
0.0114407
0.078426
0.00862047
0.00871171
0.0707614
0.0155846
0.0803512
0.00850738
0.0738995
0.017067
0.0803131
0.00779059
0.00674095
0.0855352
0.0147939
0.00853745
0.0843003
0.0143993
0.0723925
0.01145
0.00807176
0.0106198
0.0915432
0.00742464
0.00675986
0.0726355
0.00847592
0.0731305
0.0785048
0.0601643
0.054756
0.00793784
0.0847012
0.0829077
0.00919931
0.0667696
0.0800233
0.0735071
0.0840669
0.0356935
0.0601834
0.010265
0.00778491
0.00850007
0.0838377
0.053769
0.0840836
0.0678564
0.0409301
0.0750594
0.0104245
0.080547
0.00807791
0.00194971
0.0786763
0.0895097
0.0438025
0.00739404
0.00838254
0.010182
0.0111627
0.0737404
0.023011
0.0894059
0.0837185
0.0790754
0.068668
0.0903619
0.0767013
0.00809622
0.0151693
0.0693881
0.068328
0.0677732
0.00715715
0.075255
0.0431073
0.072409
0.0617009
0.0758015
0.0603851
0.00846491
0.0116404
0.0382654
0.0905378
0.0253035
0.0103414
0.00859377
0.0790789
0.0621182
0.0133839
0.0434611
0.0739926
0.0832508
0.0731513
0.0507268
0.0509201
0.00526367
0.0809048
0.00564508
0.081289
0.0881371
0.00746059
0.0581036
0.00882535
0.0477052
0.0296027
0.0211675
0.0512247
0.0800925
0.00802956
0.089166
0.0736297
0.0738209
0.0662253
0.00923307
0.0331501
0.062492
0.0239726
0.0088551
0.00871783
0.0146467
0.0818904
0.0105139
0.0876434
0.0922979
0.00554956
0.0102706
0.00981179
0.0135313
0.0381731
0.082275
0.015185
0.0897198
0.0107816
0.0075554
0.0890385
0.024343
0.0097426
0.0717277
0.0109646
0.0168078
0.00729389
0.0689895
0.00804822
0.00878737
0.087602
0.0614595
0.0140388
0.0789759
0.0870796
0.00951254
0.0907381
0.0415997
0.00909672
0.00903123
0.0157308
0.0745838
0.0920152
0.0819318
0.0152147
0.0850966
0.0616525
0.0595741
0.0136258
0.0777557
0.0640392
0.0868532
0.0136478
0.0232685
0.0887628
0.0609512
0.0918739
0.0904924
0.0799985
0.00952956
0.00845229
0.089249
0.0878176
0.00838798
0.00738106
0.0670098
0.0288536
0.0894807
0.0922972
0.0144955
0.0762789
0.00573737
0.0908538
0.0262152
0.011439
0.0152374
0.00407672
0.0128004
0.00962808
0.0890736
0.00878333
0.0829481
0.0903663
0.0750161
0.0100293
0.0864753
0.00550635
0.0130335
0.0807459
0.0810231
0.0108264
0.000164944
0.0154037
0.00981447
0.00878757
0.00638079
0.0876797
0.00906346
0.000252433
0.0830357
0.0115218
0.0861825
0.0924184
0.00974787
0.00831059
0.0108758
0.0097672
0.00929044
0.0634458
0.00490515
0.0775963
0.0114305
0.0926692
0.00803064
0.00844266
0.0817335
0.00977325
0.0927296
0.0763295
0.0818989
0.00712093
0.0104307
0.0142586
0.0142154
0.0824838
0.00916874
0.0904361
0.0902913
0.0874425
0.00765969
0.0123574
0.0845273
0.0669101
0.00860902
0.00480049
0.0129636
0.0918225
0.00876974
0.0765433
0.0786511
0.0731241
0.0711963
0.0702571
0.0926356
0.091205
0.0146451
0.0807598
0.0742869
0.0882469
0.0247183
0.0105944
0.00895793
0.0942135
0.0109844
0.0111107
0.0284347
0.0911415
0.0132608
0.0599464
0.000261637
0.0128878
0.0117879
0.0731732
0.0792589
0.00773134
0.00761432
0.0879511
0.0788795
0.00860125
0.0101458
0.0101036
0.0489742
0.000243989
0.0773556
0.00688284
0.0733795
0.00566778
0.0904114
0.0791516
0.0740944
0.0456281
0.00668746
0.092188
0.00992118
0.00472837
0.0416178
0.0297117
0.0128476
0.000324675
0.00962033
0.0884447
0.00840493
0.00825277
0.00659934
0.0681846
0.0123953
0.00820852
0.0106832
0.00031565
0.0831021
0.0926263
0.00835411
0.0138095
0.0164143
0.00806474
0.082443
0.0709042
0.0666805
0.0796264
0.0144828
0.0748087
0.090738
0.0104173
0.00987436
0.00806426
0.00899504
0.0155941
0.0127183
0.00998392
0.00233197
0.0107787
0.00863969
0.0603684
0.00033292
0.0766223
0.0121616
0.0826548
0.0145242
0.010818
0.0742983
0.0514996
0.0645374
0.0745811
0.0745668
0.0930052
0.0303491
0.0894097
0.00799693
0.00962748
0.0718912
0.00832268
0.00671714
0.0109257
0.000247498
0.0152183
0.0115986
0.00747056
0.00933573
0.00834713
0.00728264
0.0745337
0.0134513
0.0640102
0.00513367
0.0216221
0.0587695
0.00031628
0.00715049
0.0947987
0.0102587
0.0797182
0.00974385
0.00979231
0.0395468
0.0140277
0.0751329
0.00696773
0.0616586
0.0742422
0.00944584
0.00187093
0.054965
0.0706718
0.062912
0.0477084
0.0778405
0.015753
0.0315562
0.0608323
0.00817349
0.080354
0.0114292
0.0297281
0.0930838
0.00977356
0.0153474
0.000329436
0.0139489
0.0134231
0.00967356
0.0922492
0.010278
0.0895213
0.0902442
0.0104158
0.0910568
0.0143121
0.00992745
0.00910878
0.0130061
0.0198793
0.0113985
0.064491
0.0693004
0.0723007
0.0674026
0.011838
0.0748306
0.0748258
0.0540301
0.0146962
0.0916294
0.0132946
0.000316318
0.0453362
0.00467126
0.000252776
0.00681734
0.089197
0.0147946
0.0662909
0.0864443
0.0923611
0.0154869
0.0799167
0.0890693
0.0905809
0.00952384
0.0736622
0.00872132
0.0734349
0.0597572
0.0410995
0.0921091
0.0105642
0.0712804
0.0647274
0.00988422
0.0851606
0.062581
0.0718652
0.00025743
0.0259459
0.0874532
0.0112031
0.0103958
0.00876092
0.0805438
0.0891469
0.0135342
0.00895987
0.0112849
0.00772311
0.0104005
0.0113955
0.0875341
0.0124807
0.00948386
0.062513
0.0116984
0.0876104
0.012734
0.0142467
0.00800674
0.0216485
0.0103727
0.00272639
0.0938248
0.0792498
0.0888543
0.00669599
0.00898242
0.0035461
0.000297247
0.00885207
0.0630027
0.0927306
0.0104115
0.0152768
0.00932713
0.0500002
0.00740187
0.078316
0.00796197
0.0109257
0.0123368
0.0130993
0.0113719
0.0123613
0.0769876
0.0117489
0.0114305
0.0127695
0.0111454
0.01031
0.0367147
0.00854944
0.0141828
0.0576038
0.00536846
0.0111834
0.0649382
0.00797762
0.0535242
0.000315084
0.0065174
0.0102216
0.00960684
0.000330698
0.0450398
0.00992015
0.015261
0.0646426
0.0108044
0.0683409
0.0673382
0.00844912
0.0815241
0.0789513
0.0080663
0.0918284
0.0748209
0.0915188
0.0748957
0.00784262
0.089435
0.00878484
0.00267894
0.0133816
0.0905061
0.0481229
0.0638245
0.00642671
0.0856382
0.015327
0.00949368
0.00993893
0.0118506
0.0132257
0.00579917
0.00768819
0.0679998
0.00961012
0.000204527
0.0152109
0.0740829
0.0885529
0.0902291
0.00765016
0.0068625
0.0764326
0.0913236
0.0760747
0.0140912
0.0897494
0.0412321
0.0494576
0.039263
0.0147848
0.0509635
0.0630792
0.0633304
0.00864242
0.0696337
0.00724023
0.0708868
0.042344
0.0673304
0.0324657
0.0124419
0.0127858
0.00033066
0.000290799
0.0238063
0.0344073
0.0112371
0.0813266
0.00983953
0.0584673
0.0647572
0.0710184
0.00968059
0.0125055
0.0850075
0.00998737
0.00222817
0.0150898
0.00520417
0.0100575
0.0556733
0.0137345
0.014575
0.0697679
0.0109797
0.000129701
0.00987917
0.0771342
0.0126377
0.0836982
0.0108478
0.00674554
0.0115727
0.0895839
0.0558556
0.0109559
0.0778146
0.030176
0.0754656
0.010978
0.0901869
0.0124179
0.0668268
0.012804
0.092014
0.0803818
0.0652427
0.0485206
0.0107727
0.0121751
0.0761998
0.0696035
0.07149
0.076843
0.0265979
0.073426
0.00273988
0.00465708
0.0121147
0.0802126
0.0883043
0.000237505
0.000216246
0.00315864
0.015048
0.0100454
0.0668478
0.0110464
0.0103168
0.0893178
0.0120368
0.00551392
0.00951019
0.0742422
0.00943102
0.0766951
0.000217558
0.0811149
0.0155749
0.00803546
0.0878478
0.0117895
0.0624581
0.0143082
0.0104985
0.0531093
0.0727643
0.0117749
0.0151089
0.055894
0.000280127
0.00914244
0.0848955
0.0136749
0.074276
0.0133338
0.0786694
0.0769544
0.0572064
8.06018e-05
0.0743794
0.0126059
0.00672664
0.090869
0.0767012
0.0818269
0.0895737
0.0717619
0.0144129
0.00995725
0.0469815
0.0085012
0.0394711
0.0863653
0.0816499
0.0881694
0.00964653
0.00960478
0.0840836
0.0488064
0.00541228
0.0699234
0.0156887
0.00813564
0.0717262
0.0748091
0.00900505
0.0681732
0.0698607
0.0136732
0.0108573
0.0769543
0.0825891
0.00424569
0.000132723
0.0146395
0.0908559
0.0763014
0.014501
0.0494224
0.0796953
0.0774046
0.00794769
0.0100678
0.0151561
0.0741951
0.0116774
0.0103513
0.0146258
0.000130851
0.075028
0.0085354
0.0891316
0.00248721
0.0889452
0.0736998
0.0242463
0.0137832
0.0619917
0.0116304
0.0733679
0.0659851
0.0462645
0.0120406
0.0675168
0.0111024
0.000294279
0.00718915
0.0784604
5.77551e-05
0.0104592
0.00861207
0.0068383
0.0538418
0.00878621
0.0814265
0.0087329
0.00804457
0.0798426
0.0137649
0.0630831
0.0776435
0.0800536
0.0880584
0.00901002
0.0724164
0.091407
0.000198451
0.0154117
0.0787424
0.0103955
0.000159756
0.0120334
0.0119905
0.000258509
0.0157003
0.0881502
0.0104264
0.0173527
0.0798591
0.0545929
0.0901138
0.0769576
0.0670781
0.00999637
0.0100813
0.000130661
0.077677
0.0129065
0.0880734
0.0926817
0.0804463
0.00916023
0.000357611
0.0502919
0.0915536
0.013433
0.0120283
0.00986408
0.0110757
0.00981558
0.00614301
0.0788526
0.0874491
0.0513344
0.0778777
0.00838663
0.0898092
0.0092201
0.00700897
0.00233065
0.000139611
0.092282
0.0827281
0.0109603
0.0126305
0.0135072
0.0230637
0.0232788
0.0138673
0.0155552
0.0105814
0.0156667
0.000116119
0.0138063
0.0847606
0.0642208
0.0581539
0.0150527
0.0912343
0.0644122
0.0692007
0.00699677
0.0201869
0.0112764
0.0107305
0.00727691
0.0910318
0.00887626
0.0109648
0.000298001
0.0782423
0.0154273
0.00920021
0.0105966
0.0646241
0.00884356
0.0107429
0.00489438
0.0794229
0.0126691
0.0573744
0.0931033
0.0525623
0.00219845
0.0170266
0.00269282
0.0144187
0.0118198
0.0928422
0.0156887
0.0885489
0.0103493
0.0470674
0.007213
0.090017
0.0892276
8.32297e-05
0.0120513
0.086019
5.29166e-05
0.0092004
0.0132684
0.0797577
0.0888865
0.00929756
0.000219475
0.0852615
0.0861413
0.078404
0.00871844
0.0817342
0.0899257
0.0374671
0.057183
0.00017728
0.0654357
0.000308792
0.0834902
0.00584061
0.0153269
0.00913632
0.0112459
0.00455744
0.0885955
0.0758732
0.0778858
0.0906553
0.000440795
0.0677329
0.0908397
0.0108344
0.0137076
0.00822119
0.00995858
0.00563278
0.0685773
0.0909587
0.0880194
0.0130769
0.0135051
0.0801639
0.0137924
0.0697053
0.0114177
0.0114905
0.00220263
0.0747705
0.0107826
0.0898141
0.0820741
0.00268824
0.0144592
0.0726357
0.0857452
0.0120445
0.0117504
0.0902367
0.0805577
0.011302
0.012473
0.0789676
0.0901197
0.0072598
0.073013
0.00769566
0.0783875
0.0139967
0.000124964
0.0663609
9.27611e-05
0.00889552
0.00811829
0.0116615
0.0114902
0.00859636
0.00997703
0.0230105
0.0702433
0.0701023
0.0812664
0.0889864
0.0105194
0.0539199
0.0156185
8.48745e-05
0.0829183
0.0824794
0.0878237
0.0925448
0.0914601
0.0811047
0.0560456
0.0674967
0.0815467
0.0629183
0.0729322
0.0881578
0.0704387
0.0795348
0.00627075
0.00828521
0.00301134
0.0143895
0.00885105
0.0127241
0.0655746
0.00693505
0.082994
0.00222841
0.0814309
0.0289972
0.00873188
0.0117501
0.0586632
0.0852418
0.072773
0.00771183
0.00829933
0.00973752
0.0909434
0.0687341
0.0834917
0.00822708
0.010148
0.0144083
0.0567186
0.0804887
0.0610928
0.0672098
0.00746628
0.0175766
0.0635562
0.0934433
0.0882768
0.0679095
0.00739142
0.00173798
0.0134229
0.0100096
0.010498
0.00750936
0.0149043
0.0108777
0.0117235
0.0113606
0.00570847
0.0909306
0.0150021
0.00856261
0.00853607
0.00470205
0.0105236
0.0774165
0.0130599
0.067394
0.00276361
0.0104361
0.00193524
0.0675238
0.0449821
0.0101411
0.0147609
0.0896837
0.0145934
0.011273
0.0770527
0.0846899
0.0794478
0.0742016
0.0642205
0.0918529
0.0898154
0.0153215
0.0639972
0.00820274
0.0106316
0.00515696
0.0916494
0.0117697
0.0114466
0.00539721
0.0451657
0.0116241
0.0906316
0.0151251
0.00707745
0.0112926
0.0939594
0.0848148
0.0815889
0.0027283
0.0131949
0.0211582
0.0843862
0.0134
0.00705102
0.0848257
0.0781361
0.0494846
0.0137222
0.0688315
0.0701245
0.0101694
0.0107988
0.084327
0.0129812
0.0104888
0.0146499
0.0314821
0.00721815
0.0131452
0.0901918
0.0102441
0.0151472
0.0101622
0.0747672
0.00228033
0.0106326
0.00189525
0.0128134
0.0103019
0.0111302
0.0911547
0.0153139
0.0716417
0.0894202
0.0796001
0.00779354
0.0653209
0.0122253
0.0106963
0.0140298
0.00678077
0.0814804
0.0109148
0.0909377
0.0329867
0.000299128
0.0118042
0.0941822
0.0906569
0.0103862
0.0757976
0.0137488
0.0765741
0.0148799
0.0929792
0.0141996
0.0814277
0.0119779
0.02723
0.00692639
0.0119448
0.00836709
0.00145229
0.0766726
0.0111099
0.00935115
0.0128545
0.0105184
0.0263597
0.00870538
0.0120219
0.0836935
0.0101197
0.00713823
0.0432542
0.00866842
0.0155944
0.0816438
0.00775045
0.0650344
0.00887284
0.0902082
0.0902517
0.0794521
0.00738298
0.0149509
0.0155174
0.0340177
0.0139494
0.0926945
0.068341
0.0577681
0.0673183
0.0908171
0.0663148
0.0650364
0.0634922
0.0698122
0.0117002
6.725e-05
0.0811445
0.054737
0.0113263
0.0155153
0.0129713
0.0822605
0.0832244
0.0094771
0.00701
0.0886027
0.0777448
0.0135584
0.00513253
0.0789845
0.0708736
0.0107252
0.00089047
0.0120444
0.0073046
0.000272491
0.00715538
0.0682456
0.00976917
0.0153162
0.0917973
0.00729332
0.0472931
0.0789279
0.0638137
0.00841983
0.0703136
0.0115359
0.00720696
0.0869063
0.00662148
0.0153727
0.0629772
0.00469944
0.0811084
0.0111275
0.0110117
0.0691551
0.0103991
0.0131774
0.0700041
0.0658062
0.00974054
0.0669033
0.0122573
0.0118604
0.0154658
0.0449007
0.0663614
0.0852901
0.00960359
0.0790974
0.0772796
0.0574803
0.016325
0.0823134
0.0684441
0.0561056
0.0899424
0.0106918
0.0124652
0.0278804
0.0931666
0.0151158
0.0750428
0.0594632
0.0505405
0.00150787
0.0868157
0.0703664
0.00626418
0.067718
0.084509
0.0708053
0.00887908
0.0830826
0.00814551
0.00967035
0.0709257
0.0136876
0.0240346
0.0818788
0.0147129
0.00668901
0.0137769
0.0648944
0.00885132
0.0546223
0.000304999
0.0151041
0.0860161
0.0160271
0.0708223
0.0135252
0.0782999
0.0805405
0.0768239
0.0716148
0.0748148
0.0835753
0.0036083
0.0597115
0.0900131
0.0821128
0.0774074
0.00247396
0.0115727
0.000608909
0.0348222
0.0704408
0.0153767
0.089594
0.0868934
0.0713445
0.0923496
0.0927568
0.0126583
0.0651021
0.0685768
0.0080848
0.012795
0.00933783
0.000158225
0.00955862
0.0921115
0.000144221
0.00464301
0.0139615
0.00157505
0.00504317
0.00378503
0.00724582
0.075332
0.00479086
0.0645969
0.00738451
0.0946114
0.0100165
0.0736499
0.0666584
0.00610579
0.0107617
0.00162045
0.0848394
0.00484007
0.00628178
0.0149448
0.0717998
0.0690643
0.0428481
0.0131779
0.0485737
0.0155714
0.0046627
0.0741706
0.0112458
0.0795571
0.0614071
0.0302704
0.0653569
0.0103297
0.00216486
0.0824005
0.0733741
0.011119
0.0512477
0.00988174
0.0128389
0.00897764
0.0573267
0.0951987
0.0114808
0.011254
0.0903848
0.0801878
0.00872094
0.0807163
0.0813905
0.0128834
0.071654
0.0143941
0.00929622
0.0112217
0.070364
0.00481865
0.0754266
0.0917783
0.0922892
0.00867268
0.0778511
0.0947124
0.0955325
0.012031
0.0117462
0.0955593
0.00903733
0.0108719
0.00758817
0.0870385
0.013334
0.0130557
0.0131202
0.0879181
0.0048878
0.0680794
0.0106724
0.0806934
0.00975076
0.00905441
0.0153932
0.0778911
0.0851474
0.0128934
0.000851984
0.000444841
0.0664354
0.0134428
0.0786143
0.091311
0.0151539
0.0124974
0.0696723
0.00875006
0.0285322
0.0891418
0.0111795
0.0076627
0.00917004
0.081321
0.0887703
0.0103491
0.0580599
0.0912961
0.00985906
0.0120768
0.0132314
0.014121
0.0953726
0.063765
0.0148967
0.00852916
0.0130502
0.00928122
0.0106957
0.00866767
0.0798425
0.0819943
0.0639074
0.0842035
0.0809864
0.00135329
0.0072393
0.0906061
0.0918339
0.0907964
0.0787224
0.0123795
0.00260743
0.0145469
0.0781234
0.0950956
0.0953412
0.00219801
0.00725115
0.0121127
0.0900758
0.0113686
0.0813553
0.0609118
0.00881979
0.0802896
0.00333101
0.0105212
0.0853959
0.00634881
0.0824601
0.0124198
0.00779982
0.035224
0.00953698
0.0859345
0.0107403
0.014159
0.0111146
0.0659064
0.0123609
0.0130729
0.0896171
0.0817845
0.00834901
0.00267822
0.0686573
0.00702229
0.00857493
0.0216967
0.00241693
0.011981
0.00131381
0.0129282
0.0153542
0.0152784
0.00858399
0.00948413
0.0140747
0.00738726
0.0741086
0.0796092
0.0941596
0.0125598
0.0818839
0.0115253
0.00165903
0.0822178
0.082259
0.0941136
0.0778959
0.0828403
0.0145429
0.00842602
0.00924637
0.0112849
0.0128234
0.0139175
0.0813873
0.0768253
0.0135811
0.0597355
0.0869972
0.0837634
0.0675302
0.00224112
0.079914
0.00805802
0.0778371
0.0813371
0.00591544
0.0765138
0.00965397
0.0139953
0.00786973
0.0137246
0.0726601
0.0891041
0.0588122
0.0525182
0.0108235
0.0130673
0.012689
0.0683708
0.00345772
0.0106602
0.0137652
0.0819853
0.0843639
0.0938208
0.0565536
0.0131953
0.0106268
0.00778696
0.0915232
0.0138378
0.00878273
0.0518385
0.0075769
0.00770491
0.0589861
0.00855398
0.00812222
0.0076982
0.0366199
0.00165989
0.0923177
0.0768698
0.0388305
0.00706147
0.0800461
0.0149499
0.00823074
0.0154456
0.0901021
0.0898986
0.0114838
0.0792019
0.0846862
0.00749145
0.00664885