/*--------------------------------*- C++ -*----------------------------------*\
  =========                 |
  \\      /  F ield         | OpenFOAM: The Open Source CFD Toolbox
   \\    /   O peration     | Website:  https://openfoam.org
    \\  /    A nd           | Version:  10
     \\/     M anipulation  |
\*---------------------------------------------------------------------------*/
FoamFile
{
    format      ascii;
    class       volScalarField;
    location    "50";
    object      p;
}
// * * * * * * * * * * * * * * * * * * * * * * * * * * * * * * * * * * * * * //

dimensions      [0 2 -2 0 0 0 0];

internalField   nonuniform List<scalar> 
23845
(
-0.0662183
-0.0834023
-0.0747251
-0.0208655
-0.0723684
-0.0299154
-0.0869607
0.00787457
0.0135373
-0.056296
-0.023815
-0.0153936
0.0657621
-0.000899935
-0.107274
-0.0406555
0.063472
0.0391985
0.0355856
0.0277648
-0.0833537
-0.0235773
-0.0858491
-0.0173199
-0.0392603
-0.00624366
-0.0986719
0.00569893
-0.109301
0.0170099
-0.0499825
-0.00643221
-0.0974964
0.0388629
-0.0223321
-8.8861e-05
-0.0374291
-0.0204188
-0.00457226
-0.0205986
0.00720025
0.0686394
0.0650816
0.0663348
-0.0227974
0.064402
-0.0723471
-0.0340764
0.0118259
-0.13413
0.0138939
-0.0729047
0.00145522
-0.0178241
-0.0135493
0.0612986
-0.0864306
0.0272319
-0.0792781
-0.08427
-0.0559586
0.0669526
-0.0337913
-0.121897
-0.0176908
0.0635523
-0.100456
-0.0173022
-0.0144042
0.0125412
-0.0139106
-0.0699732
0.0365176
-0.103867
-0.011816
-0.103656
-0.00551283
-0.0174179
0.0120225
0.0270328
-0.09672
-0.0860171
-0.0854408
-0.0161643
-0.0917615
-0.0258309
-0.0970945
0.00640409
-0.00998154
0.0255023
-0.00621053
-0.0183348
-0.127704
-0.00363
0.0367526
-0.0208377
0.0674663
-0.0368073
-0.00600159
-0.0693224
0.0521711
-0.104367
-0.0617629
-0.173815
-0.146485
-0.0187032
-0.0266845
-0.0157907
-0.103046
0.0701457
-0.0237886
-0.0210057
-0.0980258
-0.0458641
0.00777164
-0.07088
-0.00335861
-0.0497661
-0.100202
-0.05593
-0.0132994
-0.020363
0.00668161
-0.0580388
-0.0986084
0.000966182
-0.0451999
-0.142668
-0.0677625
-0.0700992
-0.089254
-0.0394516
-0.032752
-0.000363316
0.0310359
-0.0607946
-0.144896
-0.00638021
-0.0887087
-0.0186879
-0.105782
0.0716376
-0.0305364
0.0668211
-0.0297857
0.0697386
-0.0613962
-0.0954654
-0.0744502
-0.00310826
-0.109668
0.048257
-0.0797028
0.0398507
-0.0778507
-0.0217996
-0.0612075
-0.0324641
-0.102325
-0.0468897
-0.0126036
-0.0874276
0.0466975
-0.0158501
0.065455
-0.00112547
-6.18205e-05
-0.01137
0.0211527
0.0737609
0.000109024
-0.0310749
-0.020387
-0.0497777
-0.015988
0.046229
-0.0297779
-0.0255534
-0.0138884
-0.0341762
-0.0614945
-0.0658898
-0.103361
-0.0227403
-0.033723
0.0594403
0.0712718
-0.0265621
-0.0949762
0.0701276
-0.103019
-0.0198182
-0.0214395
-0.0265538
-0.0276343
-0.016311
-0.160584
-0.110693
-0.188669
-0.0244618
0.000811761
-0.00754079
-0.0663615
-0.0349116
0.00419593
0.0464126
-0.089908
-0.020597
-0.0772087
0.0306257
0.0290332
-0.0272631
-0.0353085
0.0274809
0.0100391
-0.0467675
-0.0373674
0.0673035
-0.0910707
-0.0785809
0.0505001
-0.102969
-0.140424
-0.0225829
0.0685573
-0.0942416
-0.141036
-0.0254034
-0.0287
0.0021022
-0.0263391
0.0123086
-0.0223878
-0.00626913
-0.0668337
-0.0854925
-0.0204013
-0.029087
0.00418346
-0.060662
0.0101922
-0.0547
-0.0036699
-0.0598329
-0.00260625
-0.0345414
-0.0272743
-0.0192182
0.0479417
-0.0871293
0.0682613
-0.0302214
0.019171
0.0662134
-0.0885672
0.00890974
-0.0585514
0.0300214
0.00872995
-0.0162951
0.0075055
-0.0272467
-0.0346211
-0.024147
-0.0209869
-0.0220895
0.0343993
-0.0651965
-0.0661137
-0.0161676
-0.0257614
-0.0197654
0.0209109
-0.0197334
-0.0234166
-0.0210849
0.00347371
-0.0259088
-0.176263
-0.099148
-0.0362876
-0.0293769
0.0241398
-0.0262695
-0.0273035
-0.099716
-0.0483266
-0.0023487
0.0392263
-0.0801202
0.0437219
0.015915
-0.1109
0.0179328
0.045373
-0.022819
-0.0838799
-0.0227304
-0.0275562
-0.0764942
-0.10936
-0.0801837
-0.0961701
-0.0202579
-0.0259122
-0.0288892
-0.130055
0.0186382
0.0547522
-0.135206
0.02102
-0.0786566
0.0583542
-0.0299465
-0.0849133
-0.115557
-0.107121
-0.031675
-0.00401686
0.060484
-0.13084
-0.0193989
-0.0904622
0.0220158
-0.0824274
-0.0230079
0.00991331
-0.0736597
-0.0804488
0.0277417
-0.0769599
-0.0201516
0.00292832
-0.0286087
-0.0898666
-0.0330578
-0.0721187
0.0391729
0.0743925
0.0253696
-0.0414133
-0.0822673
-0.0228072
0.00425986
0.000909575
-0.166574
-0.0321915
-0.00738808
0.010974
-0.080615
-0.0738158
-0.113396
-0.120824
0.0198591
0.00742574
-0.0251228
0.0701508
0.0138577
-0.0954568
0.00947578
-0.0616
-0.0258647
-0.0583836
-0.0154826
-0.0839952
-0.0118012
-0.0877482
-0.00606255
-0.0892092
-0.0118628
0.071384
-0.0189075
-0.12635
-0.0144527
-0.0284787
0.0114961
-0.085071
-0.0422174
0.0725008
-0.0295372
-0.0868602
-0.0212534
-0.0828465
-0.000206017
-0.00014055
-0.0204664
-0.0301004
0.0201919
0.00531177
0.0306074
-0.0884297
0.0709901
-0.136188
-0.151407
0.0191758
-0.0317248
-0.0200647
-0.0144567
0.00807731
-0.0230034
-0.0785664
-0.0647262
0.0320863
-0.0505524
-0.0888247
-0.101707
-0.0181078
-0.119707
-0.141007
-0.0473348
-0.0902522
-0.0155274
-0.102973
-0.102467
-0.0659962
-0.0682384
-0.0643987
-0.0215981
-0.0311627
-0.073465
-0.149275
0.0590538
-0.0116124
0.0278127
-0.0354763
-0.0815168
-0.128877
-0.060714
-0.0557165
-0.0619415
-0.0160201
0.0407345
-0.109247
0.0426905
0.0598656
0.0155555
-0.0134935
0.0615866
-0.104917
-0.0518321
-0.101932
-0.159041
-0.123748
-0.070777
-0.0619861
-0.114682
0.0268503
-0.0764722
-0.0364272
-0.032425
0.0461116
0.0382688
-0.14286
-0.0272075
-0.0181237
-0.103544
-0.0874188
-0.0384658
0.0174346
-0.0150296
-0.0800649
0.00194199
-0.156513
-0.0723369
-0.0275205
-0.0217502
-0.0262343
0.0116073
0.0117412
-0.0923973
0.017311
-0.0176227
-0.0546054
-0.04568
-0.0983047
-0.0618827
0.0281248
0.00254175
0.00272061
0.0125037
-0.0783071
-0.0699937
-0.0368046
-0.0215103
0.0023043
-0.096907
-0.0214952
-0.0247987
-0.0929253
-0.0629271
-0.0165938
-0.121535
-0.0017843
-0.0753005
-0.00843153
-0.0743875
0.0231948
-0.0657331
-0.017382
-0.0277518
-0.0805308
-0.0581964
-0.0760279
-0.073257
0.0050359
-0.00261007
-0.0228158
0.0624238
0.00625777
-0.0696772
-0.0406827
-0.109297
-0.0655828
-0.0447896
-0.0236248
0.0167703
-0.0655143
-0.107352
-0.0870606
0.0712418
-0.0349571
-7.83559e-05
0.035039
-0.123144
0.024777
-0.0892761
-0.0883883
-0.0870133
-0.0801147
-0.0400658
-0.0726942
-0.117715
-0.0508984
-0.0999784
0.0363396
0.0603661
-0.00396352
-0.0906962
-0.0694583
-0.0053498
-0.0919681
-0.0132655
-0.0966287
-0.0832245
-0.0258953
-0.0825716
-0.0227246
0.0668169
0.00986006
0.0550234
0.036703
-0.0246873
-0.0780548
0.0544962
0.0236307
-0.0924422
0.0678206
-0.0823689
-0.0318439
-0.00872408
0.048403
0.021956
-0.078639
0.0401664
0.075177
-0.157395
-0.116502
0.0121733
-0.0799809
0.0661488
0.0267202
-0.08743
0.0565857
-0.0232329
-0.0434577
-0.0636305
-0.0759591
-0.113889
0.0157942
-0.0659885
0.0423096
-0.0147193
-0.0278735
-0.0931079
-0.0941305
0.0763586
0.0428712
0.0402028
0.0252024
0.0293724
-0.0883328
-0.105111
-0.0719942
-0.0212511
-0.0247391
0.0777064
0.0123454
-0.00842881
0.0425982
-0.00707619
-0.070887
0.0162047
-0.0599086
-0.0993824
-0.0435688
-0.0367392
0.0316691
-0.0636548
-0.0902988
-0.019929
-0.0735278
-0.0586264
-0.0767031
-0.0594034
-0.105129
-0.0703543
-0.046958
-0.0643945
0.0297585
0.00968089
-0.0600173
-0.0465512
-0.0704838
-0.0152107
-0.0751633
-0.00126359
0.0175807
0.0574665
0.0564526
-0.0464161
0.0653291
0.067427
-0.0740962
-0.00270805
-0.0247355
-0.0815819
-0.0686226
-0.046209
0.0461722
-0.0194194
-0.0733096
0.0088826
0.00702419
0.0653452
-0.0627532
-0.0306084
-0.072875
0.0660693
-0.0347463
-0.0748305
0.0105374
-0.0294909
-0.0506146
-0.0203606
-0.102303
-0.10856
-0.118189
-0.0372703
-0.0517122
-0.0221351
0.0066177
0.0277385
0.0329494
-0.0659098
0.0383324
0.0384313
0.0594328
-0.0560145
-0.0568377
-0.032409
-0.0433348
-0.0138233
-0.0258015
-0.0205181
-0.0112873
-0.0361326
0.00365973
-0.0419613
-0.0255101
0.0344368
-0.0261166
0.018861
0.0597587
0.0289686
0.0371645
-0.0348037
0.064241
0.0440431
-0.0281748
-0.0330046
0.0538031
0.0703802
-0.018023
-0.0210531
-0.0222156
-0.0283749
-0.0329382
-0.00503944
-0.0393481
0.0088223
-0.0258909
0.0214797
-0.0261944
0.0372406
0.0445745
0.0416466
0.0457172
0.0624476
0.0555807
0.0542062
0.0675652
-0.0602939
-0.00644559
0.071411
0.0644045
0.0660516
-0.0242141
-0.0220843
0.070172
-0.0212349
-0.0215544
0.0104249
0.0706147
0.0688853
0.0165632
-0.0332079
-0.0281693
-0.0495721
0.0334339
-0.0202988
0.0722421
0.0447971
0.0172749
0.0673394
-0.0307814
0.0388644
-0.0578262
0.0681167
0.00480566
0.0476732
-0.0198311
0.0727229
0.00388982
-0.0252159
0.0344987
0.0725537
-0.0448411
0.0682596
0.0547466
0.038965
-0.0783242
0.070782
-0.00636552
-0.0323795
0.0641199
-0.0577349
-0.0280462
-0.0247466
-0.0304327
-0.0251115
-0.0397431
0.0680204
0.000870154
-0.0172848
-0.0212162
0.0175021
-0.0181238
0.0399297
-0.0786605
0.0412514
0.0637061
-0.0306864
-0.0270667
-0.0309043
-0.0618916
-0.0249853
0.0430475
-0.0584193
-0.0246633
0.040305
0.0602441
0.037039
0.024826
-0.0303382
-0.0226082
0.0647939
0.0665378
0.0675849
0.0688604
0.0616491
0.0667877
0.0675194
0.0443796
0.0735979
0.0717119
0.0706743
-0.0813055
0.0154503
0.0477768
0.0479777
0.0650958
0.0710307
-0.0401762
-0.0191258
-0.0233415
0.0104105
0.0619508
0.04363
0.0683056
0.0694746
-0.0648905
-0.0300799
-0.0296197
0.0133233
0.0633636
0.00574846
-0.090962
-0.0190001
0.00621857
-0.0284626
0.0657835
0.0617879
-0.0354817
0.0531788
0.0503327
0.0537968
0.0215584
0.0624299
0.0672451
0.0641365
0.0586632
0.0485026
0.0419613
0.0120231
0.0610085
0.0570238
-0.0424874
0.0733007
0.0601801
-0.0680759
-0.0374392
0.0292336
-0.00910791
0.06477
-0.0317784
-0.0213966
-0.0236169
-0.0207614
0.0366881
0.0210283
0.0111151
-0.0219682
-0.0372028
0.025334
0.0316939
0.0683093
0.0635815
-0.00936431
-0.00548898
-0.0834474
-0.0262297
-0.0316792
0.0604977
-0.0430432
0.0599811
0.0684845
-0.0328238
-0.00769503
-0.0587766
-0.0471556
-0.0177689
-0.0649108
0.0472664
0.0309916
0.0679387
0.0668962
0.063879
0.0582238
0.0558328
0.0698261
0.0566132
-0.0307114
0.0504966
-0.0286901
-0.0334798
-0.0255027
-0.0220864
-0.0615103
-0.0130068
0.066763
-0.0343848
0.0554798
-0.0498077
0.02725
0.0609612
-0.0679822
0.0442947
0.0680661
-0.0210191
0.0419033
0.0386353
-0.0654645
0.00194088
0.0726845
0.0120517
0.0530343
0.0427639
0.0622569
-0.0242198
-0.115558
-0.0297484
0.0150222
-0.016679
-0.0212378
-0.0565979
-0.021075
0.0653162
-0.0291116
0.0423809
0.060276
-0.0901428
-0.135376
0.0679309
0.0684439
0.0196501
-0.0691969
0.0681947
-0.102368
0.064752
0.0618977
0.0403687
0.0461469
0.0720371
0.0692164
0.0655985
-0.057106
0.0624711
-0.0737278
-0.0190425
-0.0371497
0.0626443
-0.0277369
0.00552981
-0.0149811
-0.0173924
0.0324089
-0.0286655
0.0337551
-0.0210876
-0.0230057
-0.0283254
0.0415944
-0.024279
-0.0228627
0.00137438
-0.0323237
-0.0236344
-0.0213568
-0.0355676
0.060402
0.0480161
0.0394059
0.0658799
0.0263221
0.0664277
-0.0262998
0.0717398
0.0576393
-0.0201313
-0.0141669
-0.0199882
0.065727
-0.0900401
0.0541214
0.0660068
0.0731186
0.0648095
0.0309307
0.0588486
-0.0220083
-0.0550823
-0.0712422
0.0517443
0.0749423
-0.0243629
-0.0301419
0.0494236
-0.0399031
0.00604334
0.0144104
-0.017101
-0.0382899
0.0308064
-0.0212361
-0.0262435
-0.0219811
-0.031538
-0.0290899
-0.0298401
0.0651417
0.0434795
0.0412156
0.0730868
-0.00906909
-0.0255681
0.0674131
-0.180008
0.0470991
-0.103678
0.0593334
0.0327423
-0.1492
0.0477615
-0.0262419
-0.0306043
0.0642188
0.0748754
0.0621911
0.0645693
0.0665735
-0.0330107
-0.0927632
0.0630816
0.0105418
0.0145967
-0.0703927
-0.0737872
-0.0625709
-0.0254895
0.0617327
0.0686375
0.0691424
0.0321118
-0.00874843
-0.00816259
-0.0639734
-0.052927
-0.0392643
-0.0588964
-0.0459601
-0.0669838
-0.0766124
-0.0334771
0.072631
-0.0395841
-0.0285533
-0.0323223
-0.0308341
-0.0273027
-0.0238144
0.0393209
-0.0212522
0.063998
-0.0199728
0.00976994
0.0641165
0.0192882
0.0314649
0.0450151
0.0694109
0.0687065
0.000465269
-0.094158
-0.0414825
0.0575836
-0.0594329
0.0557632
0.0444394
0.053335
-0.00644598
-0.00415724
0.0572135
0.0695946
0.064477
0.0478419
0.0703068
-0.0569637
0.0650496
0.0473386
-0.0542297
0.0656244
-0.00191967
-0.0114233
-0.039525
-0.00576198
-0.064348
-0.0726738
0.0700609
-0.0274421
-0.0290984
-0.0270381
0.0349909
0.0522891
-0.0228265
-0.0181173
-0.0216611
-0.0179947
-0.00246175
0.0130293
-0.165486
0.0221137
-0.0346943
0.063089
0.0460343
-0.0389948
0.035576
0.0410614
-0.0970821
0.0579682
0.0302961
0.0656918
0.0663586
0.018851
0.0713805
0.0555726
0.0422857
-0.0460871
0.0708093
0.0710402
-0.0985454
0.0434971
0.0481172
0.0468158
-0.0865942
0.0647687
0.0620618
-0.0501723
0.0649363
-0.0111461
0.0667392
0.0710048
0.0429229
-0.0717583
0.0681632
0.0645738
-0.0242144
-0.0267277
-0.0533525
-0.0220042
-0.018783
0.0519636
0.046569
0.0739644
0.0622347
0.0474581
-0.0403754
0.0470423
0.0214557
0.0427245
0.0181607
0.047645
-0.0822533
-0.0451866
0.0482784
0.0653653
0.033198
-0.0718672
0.0517933
0.0657116
-0.0225954
0.0612541
0.00318817
0.0451056
-0.025369
0.0335699
0.0137183
0.0653231
0.0518971
-0.0231564
0.0472993
-0.0300294
0.0495413
0.0530884
-0.0187218
0.0669146
-0.00796577
-0.00866006
0.0187591
-0.0240783
0.0255904
0.0481298
0.0111565
-0.00690467
0.0503696
0.0582986
0.0504487
0.015706
-0.0413607
0.0513235
0.0652812
-0.0493901
0.0600936
0.0390105
-0.0622805
0.0550476
0.053482
-0.0817564
0.05952
0.0660321
-0.0717492
-0.0442047
-0.0726233
-0.00431715
0.0449489
-0.0469716
-0.0204003
-0.00145661
-0.0582016
-0.0324416
-0.0366914
0.048001
-0.0508949
0.0641687
0.0635818
-0.0414222
-0.0242691
0.0491642
-0.0220425
-0.0487609
-0.15724
0.0418366
0.0740746
0.0379181
-0.0258101
0.0389185
0.0643942
0.0646567
-0.11422
0.0234194
0.0662602
-0.0381353
0.0349836
-0.0238354
0.048073
-0.088933
0.0673487
0.0378488
-0.0733153
0.0664011
0.0231947
0.0161945
0.0615272
-0.109391
0.0305408
-0.0613098
-0.0105619
-0.0237344
-0.0661478
-0.0064187
-0.0401193
0.0614058
0.0567068
-0.0776266
0.0645696
0.0656403
0.0615022
-0.0727057
-0.00888523
0.0389859
0.0661926
-0.0572361
0.0467777
0.0402224
0.0532773
0.0277997
-0.110512
0.0134485
-0.00393626
-0.0494988
-0.0073876
-0.0867975
0.058629
-0.0153871
0.0193878
-0.0559967
0.0439805
0.0468123
0.0507538
0.0210437
-0.00753648
0.0584017
-0.0228743
-0.0290352
0.0669826
0.0499175
0.0185259
-0.0286876
-0.0283145
-0.0180324
0.0266413
0.0510766
0.0122373
-0.0210243
-0.0168457
0.0523426
-0.0224476
-0.0196882
-0.0578571
0.0308648
-0.0731741
-0.0110424
-0.0147712
0.0500289
0.0528024
-0.0758771
-0.0446365
-0.0340727
-0.0185776
-0.0388585
0.0543487
0.0619843
-0.0480499
0.0596085
-0.0905873
-0.0851683
-0.0546628
-0.0131433
-0.0119178
-0.115373
-0.0102436
-0.00288891
0.00861702
-0.0449786
-0.0761961
0.0218454
0.0616636
-0.117462
-0.0854916
0.0420976
-0.0520046
-0.0580845
0.0705898
-0.102344
0.0653449
-0.067922
0.0534798
-0.0520523
-0.00218378
-0.038829
-0.0989627
-0.0326852
-0.0892482
-0.0645042
-0.0211968
-0.0706624
0.0631633
-0.0434369
-0.0592603
0.0172941
0.0135592
-0.0333877
-0.0944152
0.0512187
-0.0549136
0.0596566
0.0657154
0.0147536
0.00240763
-0.0495032
0.0282435
0.0441986
-0.064038
0.0236288
0.0634106
0.0467041
0.0411852
-0.0142726
0.00823431
-0.0506464
-0.0942319
-0.052825
0.0315874
0.00148209
0.0230269
0.0214067
-0.0106299
0.0700369
-0.0416228
0.0406016
-0.0523946
-0.0564849
0.0350108
0.0196088
-0.0168229
-0.0314079
-0.0550276
-0.075847
-0.0215695
0.047085
-0.0152476
-0.024575
0.0313338
0.060488
0.0162714
0.00400947
0.0657676
-0.0533808
-0.108211
0.059252
0.07
0.021422
-0.10019
0.0675338
-0.0153844
0.0476168
0.0101947
0.0698272
0.013976
-0.026246
-0.0280091
-0.0128732
0.0153538
-0.0180059
-0.0956988
-0.0115565
0.0612112
0.0150156
-0.0267696
-0.0126467
0.0512937
0.0416828
0.0571417
-0.00482365
0.00194403
-0.0941252
0.00951778
0.0280006
0.0615867
0.0222688
-0.0937668
-9.9979e-05
-0.0517786
-0.00569867
-0.0232087
-0.0251073
-0.00676864
0.024319
-0.0463107
0.0160252
0.0500719
0.0485711
0.0156296
0.0342642
-0.0147768
0.0291994
-0.0162397
-0.0417287
0.000371016
-0.0220086
0.0467513
-0.0730022
0.0205434
-0.00314969
-0.0331882
-0.0800573
-0.0635673
-0.11524
-0.00773301
0.0440646
-0.0263421
0.0189792
-0.0760858
-0.0423609
0.0228938
-0.0223864
-0.0675114
0.0589758
-0.07948
-0.0220994
-0.0346363
0.0358248
-0.0699925
-0.0496679
0.0255454
0.0232245
-0.0887084
0.0245463
0.0197752
-0.0533705
-0.0145553
-0.020466
-0.052573
-0.0431981
-0.0899233
0.00432731
-0.0125315
-0.00413849
-0.116716
0.0376188
0.039874
0.0212689
-0.0582746
0.0547783
0.0716831
0.0281639
-0.0495498
-0.0424106
0.0121947
0.00314046
-0.0274902
-0.0211177
0.0375834
-0.0955057
-0.0234304
0.00503163
0.024085
-0.0906275
-0.0304427
0.0578867
-0.0264888
0.00331179
-0.0309118
-0.0887455
0.0411216
-0.0303342
-0.0284617
-0.0271957
-0.0045273
-0.094222
-0.0371183
-0.0830854
-0.0793846
0.00828324
-0.055832
0.0332885
0.0137974
0.0617533
-0.0722275
0.0306378
0.0306374
-0.129128
0.0635187
0.0625455
-0.0521029
-0.110991
-0.0552163
-0.100344
-0.0581742
-0.101875
0.0136026
-0.0536081
-0.122372
-0.02498
-0.0667877
-0.0275124
-0.0259618
-0.0819342
-0.118104
-0.0237034
-0.0764021
-0.0688477
0.0598051
-0.128752
0.0646074
-0.0630203
-0.00901506
-0.0883333
-0.050088
0.0361146
-0.0652487
-0.00200839
0.0250472
-0.0193342
-0.120349
-0.0387209
-0.0847859
-0.0653901
0.0570337
-0.0743337
-0.0303583
-0.0324781
-0.030365
-0.0355841
-0.0192258
-0.0240805
0.041749
-0.0881892
0.0237818
-0.0218444
0.000367874
0.0406042
0.0550981
0.0656002
0.0630919
0.0362271
0.0648286
-0.0172844
-0.0132263
-0.111339
0.0623663
0.0548981
0.00609768
-0.0386189
0.00452464
-0.0568247
-0.00559292
0.00632268
-0.0471764
-0.0446384
0.0072211
-0.100838
0.0726394
-0.131356
-0.0391029
-0.00624254
0.0577949
0.0566494
-0.0917754
-0.0859014
0.014215
0.0570892
-0.0757691
-0.0710357
-0.0725959
-0.0258021
-0.112613
0.0660666
0.0151509
0.0520296
-0.0105132
-0.0140784
0.0507536
0.0579027
-0.000173362
-0.0514682
-0.0223759
0.0123141
-0.0586293
-0.00557248
-0.0283421
-0.068231
-0.136008
-0.0716255
-0.0166143
-0.043896
-0.0420933
-0.0959848
0.022082
-0.0556327
-0.0741551
-0.00661918
-0.0935488
-0.0105263
-0.00126901
-0.0387569
-0.0993416
-0.0237269
-0.0870872
-0.0206412
0.0477537
0.0401746
0.0596427
-0.0923528
0.0609943
-0.0290888
-0.0739663
-0.0336307
-0.0939258
-0.074578
-0.109198
-0.0899977
-0.0707173
0.000995663
-0.0375197
-0.0470475
0.00519135
-0.126098
0.041481
-0.0518684
-0.0134249
-0.110401
-0.0774369
0.0502128
0.0022525
0.0647961
0.0524795
0.0561479
-0.00735771
-0.011856
-0.0142786
-0.0747778
-0.0644911
0.0660969
-0.0489359
-0.0382573
-0.0425796
-0.0773721
-0.124986
-0.00762347
-0.0296208
-0.0783252
-0.134702
-0.0238785
-0.00146383
-0.117698
0.0528704
0.0293147
-0.055421
0.00233369
-0.104892
-0.0404786
-0.00244223
0.016545
0.0587742
-0.0817577
-0.0699632
-0.0343833
-0.108161
0.0647073
-0.0763224
0.0357832
0.0522447
-0.0910621
-0.182822
0.00252023
0.0616136
0.0638738
-0.00155505
0.062734
-0.107909
-0.0129955
0.00358321
-0.0902622
-0.0164383
-0.0150642
-0.0337939
-0.0205713
-0.0355313
-0.0979612
-0.115475
-0.0774675
-0.0337529
-0.0912025
-0.00602439
-0.0495734
-0.0311412
-0.0264808
-0.0113726
-0.0222363
-0.0701418
-0.0783503
-0.0928569
-0.0386097
-0.0220465
-0.0829489
0.0274749
0.0593265
0.042041
0.0722883
-0.0325991
0.0590568
0.0662166
-0.010926
-0.106565
-0.0280657
-0.106026
-0.0822037
-0.00323083
-0.0924438
-0.0658555
-0.0854829
-0.0301201
-0.13262
0.0546241
-0.0145597
-0.0244654
-0.10055
0.0535308
-0.0189831
0.0129023
-0.0598898
0.063582
0.0404795
0.0602772
0.0123856
-0.0288497
0.00626693
-0.07881
0.0694064
0.0389742
-0.0756047
-0.0134444
0.0157471
0.0662985
-0.0756538
-0.036137
-0.00277446
-0.139766
-0.0816255
-0.0908299
0.0613184
-0.0175904
-0.0866933
-0.0794586
-0.0807206
-0.0895072
-0.0942014
-0.0754135
-0.0160928
-0.0607851
-0.0874885
0.0336807
-0.00438127
-0.0181691
-0.0840927
-0.118648
-0.0512306
-0.0369858
-0.0851705
-0.162436
-0.00354848
-0.00609237
-0.0314111
0.0306942
0.0326867
0.0111994
-0.161739
-0.0839028
0.0124794
-0.0280722
-0.0773948
-0.121791
0.0289527
-0.0105275
-0.0768221
0.0602266
0.0172733
-0.149544
-0.0154527
-0.0500569
-0.0632691
-0.0423075
0.0668094
-0.097734
-0.00744911
-0.14695
-0.0730365
-0.0293762
-0.0272497
0.0399283
-0.0995377
0.0264741
0.0305999
-0.060559
0.0405685
0.0245579
-0.014221
-0.161923
0.0373174
-0.0798657
-0.0894843
-0.05724
-0.0300521
-0.0889383
-0.0957891
0.0636121
-0.0768862
0.0659105
0.0204397
-0.0446662
-0.0188498
0.0605676
-0.0487353
-0.0157997
0.06536
-0.0261177
0.0527431
-0.0839719
-0.0300837
-0.0574005
-0.168725
-0.0830496
-0.0286226
-0.0221753
0.0572478
0.0402744
-0.0130245
-0.101851
-0.0980121
-0.02493
-0.0696633
-0.0513836
0.034198
-0.0424386
0.0519494
-0.0943481
0.00777182
-0.0685663
0.0567886
-0.0283577
-0.011922
-0.0283799
-0.103603
0.0628963
-0.025679
0.0641115
-0.0580526
-0.0211996
-0.0336804
-0.0108705
-0.00882523
-0.071725
-0.0086577
0.0168053
0.0673407
-0.0839174
0.0569349
0.0464893
0.0392774
-0.0236754
0.0234518
-0.0383685
-0.0549654
-0.0553405
-0.0698008
-0.147872
-0.0277739
-0.0327057
-0.0906514
-0.0159201
-0.0443466
0.0128149
0.0657225
0.0633356
-0.0688045
-0.104599
-0.0198291
-0.0684491
-0.15044
-0.0819933
-0.0668685
-0.0935503
0.0277957
-0.0530431
-0.125998
0.0296883
-0.041988
0.00510874
-0.0688292
0.00278616
-0.0707057
-0.0137738
-0.0702479
-0.0783082
-0.052672
-0.0169913
0.015392
-0.0907907
0.0599338
-0.0427119
0.0663711
-0.0746635
-0.0323429
-0.0789988
0.0549143
-0.0878807
-0.022774
-0.0131281
0.0167224
-0.0162025
-0.0784504
-0.0639932
0.0581959
0.047476
0.0386862
0.00307605
-0.0309314
0.063024
0.00807248
-0.103385
-0.0880993
-0.0173244
-0.0109243
-0.0548615
-0.0489053
0.0135298
-0.101307
-0.0904805
0.0656992
-0.0706888
-0.082184
-0.00699224
-0.08724
-0.0340581
-0.0415951
0.0625341
-0.0831234
0.00392238
-0.0453144
0.00284353
-0.0826886
0.0440638
-0.0162324
-0.101697
0.0637679
-0.0960803
-0.0834918
0.00243527
0.0678652
-0.0995159
-0.125476
0.00683978
-0.181816
-0.0889573
-0.00822675
-0.0744896
0.0654792
-0.0382418
0.0609053
0.0217808
0.00641208
0.00800538
0.0688229
-0.0876085
-0.0290703
-0.0232775
0.00480858
0.0037464
-0.0304751
0.0550082
-0.0656793
-0.0861416
-0.0277811
-0.0647664
-0.0258267
0.0434936
0.0608421
-0.0340953
-0.0990457
-0.0648391
-0.0308299
-0.0196242
-0.0286267
0.0330027
-0.0928225
-0.0402801
0.0586523
0.0493811
0.0309521
0.0478896
0.0699954
-0.0666525
-0.0769934
0.00579599
0.00454909
-0.0477875
-0.0219076
-0.127696
-0.0251877
0.021544
-0.113136
-0.002943
-0.0193829
0.0068282
-0.0823557
-0.0824178
-0.0872007
0.0596883
-0.104629
-0.0433456
-0.101387
-0.0137465
0.0498453
-0.0506048
-0.0039685
-0.100296
-0.0133296
0.0555389
-0.0380066
-0.0491127
0.00221736
-0.0245389
0.0101178
0.0372683
-0.00394193
-0.0885008
0.042942
-0.0833477
-0.168673
-0.0773619
0.0258698
0.00628979
-0.0794102
-0.0325432
-0.0125438
-0.0125401
-0.0532642
-0.0171619
-0.0465763
-0.0849927
-0.00285341
-0.0726683
0.0192323
0.0599988
0.0180181
-0.0245664
0.0113007
0.0694768
0.0131648
-0.03669
-0.112599
-0.0036925
-0.0907984
-0.0206029
-0.0824344
-0.056964
-0.188938
-0.0825407
-0.0286395
-0.0708274
-0.0528559
0.00221514
0.0142546
-0.0178994
0.0207911
0.0673774
-0.0732581
-0.0319856
-0.0080255
0.00709997
-0.0291397
-0.0321552
-0.0251443
0.00282546
-0.100552
-0.166644
-0.00642919
-0.0171158
-0.0621147
-0.0452964
-0.143769
-0.0895101
-0.067568
-0.0879102
0.0112058
0.00500296
-0.0135631
0.00691696
0.0296875
-0.0161816
-0.0646608
-0.0939128
-0.178387
-0.0143362
0.00558471
0.0199463
-0.0794389
-0.0641127
-0.0672393
-0.0332496
-0.0522315
-0.0885766
-0.0932102
-0.0981134
-0.0963273
-0.00281082
-0.0650116
-0.0171457
0.027203
0.0172111
-0.0892211
-0.0123421
0.0634842
0.0458387
-0.0831199
-0.0470821
-0.0534194
-0.00371257
0.0343898
-0.0220489
-0.0825595
-0.0818328
-0.17488
0.00888885
-0.118271
-0.0803835
-0.151812
0.0492658
-0.0940919
-0.046573
-0.144342
0.00194101
-0.0517634
-0.0050697
-0.0180367
0.000716231
-0.102671
-0.0259636
-0.0495681
-0.0935744
-0.128183
-0.0222234
-0.100961
-0.0333192
0.00352159
-0.0254002
-0.0801047
-0.0150591
-0.0290664
0.00130646
-0.0696915
0.00483378
0.00443407
-0.0823621
-0.0240952
0.0117634
0.00566893
0.0196858
-0.195065
-0.0147227
-0.0286148
0.0519069
-0.0668072
0.00591931
-0.0225323
-0.036255
-0.00379879
-0.0284967
0.0508923
-0.145751
-0.0158312
-0.154851
-0.0971491
-0.0711363
-0.0791015
-0.0853213
-0.0270565
0.0480157
0.00314793
-0.00473123
-0.17077
0.0653763
0.0203071
-0.104679
-0.0678576
0.030966
-0.0778493
-0.165678
0.0630749
-0.0268181
0.0310769
-0.0263985
-0.040646
-0.0140875
-0.0685363
0.0313861
-0.0954239
-0.105461
-0.122008
0.0666777
-0.103514
-0.0223135
-0.0172979
-0.14934
-0.133736
0.0711661
0.0103524
-0.0124218
-0.0567413
0.00633754
0.0116813
-0.0708575
-0.0166195
0.00164206
-0.0313882
-0.0609539
0.0622226
-0.0880712
0.00205227
-0.141353
-0.029971
0.0574203
0.00140231
0.0246015
-0.0436148
-0.0741919
-0.0876107
-0.0776033
-0.0839137
-0.0353169
0.03555
0.0419697
-0.00449788
-0.00702042
0.00782471
0.000271071
-0.0893694
-0.00824181
-0.0218115
-0.0193028
-0.019564
0.00784106
0.00730924
0.0120317
0.00772932
0.0534504
0.0105848
0.0251931
0.0572369
0.00412544
0.0640773
0.0480718
-0.0327959
-0.0509528
-0.0425615
-0.0499103
0.00799491
-0.0861266
0.0220842
-0.101941
-0.0214269
-0.130633
0.0125455
-0.0302173
-0.0944419
-0.042435
0.0295225
-0.0203262
0.063871
-0.168728
-0.0471726
0.0251444
-0.00816683
0.0427914
0.00439805
-0.078848
-0.00671197
-0.0435763
0.0319743
0.0561472
0.010769
0.025756
-0.0704053
-0.0418744
0.0217144
0.00809028
-0.0178001
0.0698467
-0.0888001
-0.0290385
-0.120564
-0.0515767
-0.114428
-0.0783842
-0.0814675
-0.0654248
-0.0671068
-0.0908869
-0.124793
0.0196179
-0.0751314
-0.0803698
-0.0366339
-0.112561
-0.0532667
0.0303387
-0.0335004
0.0328428
-0.131299
-0.096935
-0.069318
0.0493472
-0.0255161
-0.103611
-0.0972369
-0.0244077
-0.0796766
-0.0215783
0.0653646
0.00466661
-0.00115422
-0.0138546
0.0315823
0.00546064
-0.0334744
-0.0954955
0.0153488
-0.099949
-0.10324
-0.0810897
-0.0199611
-0.0736923
-0.0595942
-0.170921
-0.0236017
-0.0259603
-0.0302095
-0.0998409
-0.0820442
-0.0779901
-0.0051941
-0.0028024
0.0133842
-0.121856
-0.0641667
-0.0401465
-0.00094445
-0.0589834
-0.0923508
-0.0209245
-0.0100208
-0.0147024
-0.0778054
0.0459089
0.0506645
-0.0176105
-0.00934598
0.043748
-0.0786843
-0.0738449
-0.100154
-0.0294256
-0.142877
-0.0594689
-0.0139771
-0.0392493
-0.113323
-0.00492882
0.0659982
-0.138147
-0.0884715
-0.046406
-0.0470047
0.0162847
-0.0834768
-0.0184292
-0.0864553
0.0411488
-0.0342443
0.0176849
-0.0439521
0.015241
-0.145693
-0.0988758
-0.0571819
-0.0794417
0.0046292
-0.0569259
-0.0294846
-0.0331723
-0.155365
-0.0656687
0.0100975
-0.0235978
-0.0882319
-0.00203788
-0.07255
0.0285279
-0.092828
-0.0235716
-0.0839116
0.0152431
-0.0903611
-0.0322443
-0.037705
-0.0747185
-0.162319
-0.0259202
-0.00770946
-0.149884
-0.0753797
-0.0577469
-0.0758053
-0.0391974
-0.0608842
-0.0441119
-0.014542
-0.0763733
-0.0983695
-0.0312505
-0.100713
-0.0929607
0.0136972
0.0323034
0.0686069
-0.0994965
-0.00857235
-0.0302213
-0.00755184
-0.0405444
-0.091759
-0.0873539
-0.0284664
-0.0645672
-0.0127159
0.0270597
0.0348904
0.0383309
-0.0291632
0.0197813
0.0200448
0.010424
0.0598453
-0.0892119
-0.0033892
0.0172051
0.0113699
-0.0707936
-0.0775062
-0.041499
0.0253027
-0.00358916
-0.0577326
-0.0371454
-0.00193755
0.0026329
-0.145374
-0.0297666
0.00246047
0.0557335
-0.048912
-0.0894992
-0.0717023
-0.0406475
-0.140092
-0.074396
0.0244446
-0.0903369
-0.0785141
0.0126858
0.0435035
-0.014924
-0.00553011
0.0680687
-0.0957748
0.0561039
-0.0654525
-0.0944078
0.0369897
-0.036757
-0.0976489
0.0615306
-0.0416577
0.0576214
-0.0742536
-0.0667627
0.0282365
0.0159139
-0.102293
0.0308168
0.0265974
0.0239863
0.0405769
-0.100301
-0.12406
-0.0740428
-0.0213935
0.0301059
0.0480508
-0.00298555
-0.0161557
-0.0227813
0.00551485
-0.0443013
0.0567069
0.0263193
-0.00754483
-0.0236481
-0.0898779
-0.0292935
-0.035701
-0.00192285
-0.0887155
0.0646379
0.0642505
-0.00232831
0.00446898
0.034388
0.0694876
-0.0521557
0.0616398
0.0378372
0.0352787
-0.0866021
0.0517662
-0.0743143
-0.0212681
0.064313
-0.0864426
-0.031384
0.0596852
-0.0861606
0.0332018
-0.13251
0.0435736
-0.0588166
0.0244176
-0.154075
-0.112968
0.0385519
-0.0560236
0.0347422
-0.0446909
-0.00488321
-0.0140631
0.0682718
0.0448709
0.0616072
0.0436958
0.0013585
0.000283457
0.00173954
-0.00509502
0.0599365
-0.0877471
-0.0696532
-0.174501
-0.0243388
0.0341132
-0.0935332
-0.0159994
-0.0236995
0.0649284
-0.00494193
-0.0242779
-0.0404996
0.0679425
0.0641793
-0.0642446
-0.0399657
-0.0684349
-0.196507
-0.0892597
-0.0194247
-0.0393117
-0.0696701
-0.0500889
-0.0176901
-0.149859
0.0131041
-0.0754855
0.0638177
-0.0344755
0.0654655
0.0369706
-0.00246115
-0.0772531
0.0611016
0.0703713
0.0443215
-0.0785564
-0.0031905
-0.0243922
-0.031702
-0.036498
-0.0385123
0.044705
0.0617152
-0.0317855
-0.0712321
-0.0227716
-0.115255
-0.0285482
0.06704
-0.0163777
0.0108327
0.0639977
-0.0403888
0.063853
-0.0868085
-0.15428
-0.0041858
0.0695718
-0.0893605
-0.0186305
-0.10279
-0.0768738
-0.083677
0.0185673
0.00692636
-0.0801123
-0.0940265
-0.015697
0.0121911
-0.0121102
0.0140726
0.017824
-0.0533193
0.0573563
-0.12534
-0.0283828
-0.0874275
0.0471577
-0.0317441
0.0512149
-0.0117138
-0.0131955
-0.0779148
0.0040738
0.00209244
0.000344226
-0.0225293
-0.0342003
0.00076808
-0.0481455
-0.0874231
-0.0870001
0.00334982
-0.0769556
-0.102574
-0.135288
0.0100595
0.0188932
0.0640544
-0.0929697
-0.00782806
0.0259674
-0.13557
-0.0727246
-0.00472993
0.0426391
-0.0249543
-0.180281
-0.195769
0.0607702
-0.132093
-0.0145275
-0.018764
-0.0892739
-0.0372327
0.0563875
-0.102801
-0.0321293
-0.0211358
-0.0660954
-0.148782
0.0341976
-0.00696292
-0.000252817
-0.0732504
-0.00401109
-0.000649736
-0.0708872
-0.0919371
-0.0856896
-0.0539063
0.00579918
0.0695521
-0.0738362
-0.0865948
-0.0324238
-0.0686046
-0.0989949
-0.0984761
-0.0151027
-0.0223231
0.0270102
0.0155958
0.0105685
0.00368776
-0.0901562
-0.0298405
-0.0172483
-0.0216754
0.00647917
-0.0357143
-0.111508
-0.0637724
0.00262457
0.00236986
0.00172594
-0.112909
-0.0920895
-0.0207455
-0.0311564
-0.0735083
0.0603276
0.0361191
-0.0913833
0.0604389
-0.00987135
-0.0832384
-0.00717574
0.0403937
-0.00515634
-0.0757318
0.00784755
-0.0317526
-0.0860683