/*--------------------------------*- C++ -*----------------------------------*\
  =========                 |
  \\      /  F ield         | OpenFOAM: The Open Source CFD Toolbox
   \\    /   O peration     | Website:  https://openfoam.org
    \\  /    A nd           | Version:  10
     \\/     M anipulation  |
\*---------------------------------------------------------------------------*/
FoamFile
{
    format      ascii;
    class       surfaceScalarField;
    location    "50";
    object      phi;
}
// * * * * * * * * * * * * * * * * * * * * * * * * * * * * * * * * * * * * * //

dimensions      [0 3 -1 0 0 0 0];

internalField   nonuniform List<scalar> 
38623
(
0.0457057
-0.0473114
0.00473918
-0.00312618
-0.0375383
0.0292232
0.0285571
-0.0202412
0.00791031
-0.0107103
0.0439783
-0.0411742
-0.015053
0.00709702
0.080272
-0.0723131
-0.000704616
0.115298
-0.0150483
-0.0995367
-0.20335
-0.390777
0.363756
0.230369
0.0390041
-0.0327248
0.0109817
-0.0172608
0.0349523
-0.031752
0.0229444
-0.0261439
0.0382005
0.010684
-0.311821
-0.00433469
0.00279904
-0.0547954
0.0563354
0.0811554
0.0936867
-0.104937
-0.069907
-0.387316
0.343542
-0.00482539
0.0485948
0.409747
-0.101338
-0.408501
0.10009
-0.319028
0.29064
-0.0253295
0.0537131
-0.0026342
0.0382986
-0.038182
0.00251771
0.0320722
-0.102568
-0.0394745
0.109985
-0.0477855
0.346479
0.0285257
-0.327224
-0.0105611
0.2877
-0.0120745
-0.265053
0.0349848
-0.0544276
0.276412
-0.256968
0.533584
-0.415517
0.378831
-0.496901
0.00205557
0.0172136
0.00451255
-0.0237715
0.0992418
0.0696091
-0.087686
0.0411038
-0.0373458
-0.00135502
-0.00239136
-0.297013
0.342838
-0.313718
0.267896
0.0112368
0.084126
-0.0180171
-0.0773325
-0.142211
0.647274
-0.593412
0.0883464
-0.000147133
-0.024632
-0.00159795
0.0263796
0.275645
-0.246077
-0.690106
0.660536
0.0369323
-0.00116551
0.000142506
-0.0359094
-0.393538
0.367955
0.559164
0.0490074
0.0698535
-0.0624582
-0.0564044
-0.00675159
0.00346836
-0.000995425
0.00427947
0.0518721
-0.0203358
-0.0453843
0.0138492
0.293892
-0.0294259
-0.275014
-0.0122029
-0.0281886
-0.416188
0.456581
-0.549058
-0.263124
0.200888
0.611295
0.00434383
-0.00182327
0.0135961
-0.0161179
0.0140291
-0.413552
-0.247903
0.282477
0.00672917
-0.0413092
-0.0381279
0.0482716
0.412807
-0.422954
0.075879
0.233055
-0.239526
-0.0694027
0.280358
0.210962
-0.272854
-0.218466
0.300116
-0.130327
0.250222
-0.420011
-0.473267
0.202816
0.401245
-0.130785
0.592181
0.309798
-0.575827
-0.326144
-0.0787436
0.11056
-0.402306
0.370492
0.134863
-0.129403
-0.0613224
0.05588
-0.0998066
0.0898229
0.0533792
-0.0433942
-0.000513957
-0.000324645
0.000283405
0.000560385
-0.0301921
-0.000513368
0.0299071
0.000797016
0.0128011
0.00617311
-0.00797498
-0.0109923
-0.0227207
0.0410222
-0.0377798
0.0194802
0.00227858
-0.000527091
0.0017177
-0.00347418
-0.532521
-0.128238
0.422359
0.238406
0.00336562
-0.00120679
-0.00890966
-0.0585389
-0.318367
0.32912
0.0454427
-0.0474065
-0.0265407
0.0285077
0.0064604
0.0345937
-0.0340617
-0.00698652
-0.0282942
0.0101236
0.0202278
0.0849845
0.000857362
-0.031583
-0.054262
0.0405325
-0.00339024
0.00311063
-0.0402513
-0.37347
-0.108255
0.00845378
-0.137704
0.137409
0.0629864
-0.0626902
0.0202708
0.0428808
-0.0508268
-0.0123258
-0.323629
-0.362154
0.388769
-0.496431
0.382343
-0.190197
0.304281
-0.0283669
0.0213237
-0.0151269
0.0221726
-0.500285
0.455899
0.225749
-0.181366
0.173154
0.577312
-0.158281
-0.227154
-0.0751608
0.070594
0.231733
-0.0334757
0.0179274
0.0326337
-0.0170878
0.0385859
-0.00464515
-0.0260297
0.0311788
-0.11022
-0.520867
0.599911
0.0373845
-0.0364974
-0.00352118
0.423401
-0.392834
-0.354196
-0.00177216
-0.0390549
0.0405741
0.000253348
0.034029
-0.318194
0.308397
-0.0242406
0.191969
0.319938
-0.329692
-0.182227
0.042589
-0.0113082
0.0109052
-0.0421879
-0.00433277
0.00174266
0.257842
-0.255252
-0.00433176
0.0219036
-0.0212499
0.00368694
-0.00806576
-0.00558062
-0.0361297
0.0497783
0.0324026
-0.0244934
0.0423725
-0.0362337
0.00666719
-0.0128071
-0.0453913
0.0398891
-0.021392
0.0268941
-0.411848
0.430176
-0.0465184
-0.00793258
0.0276898
-0.0259986
0.00624682
0.000462486
0.000292811
2.09501e-05
-0.000776937
-0.340193
-0.146815
0.185937
0.301073
0.247681
-0.242946
-0.00906299
0.0221144
0.00173837
-0.0209855
-0.0028723
-0.196198
0.0792475
0.192199
-0.0752429
-0.0223344
0.0364621
0.00614225
-0.52574
-0.303727
0.311401
0.518065
0.0163996
0.0151361
-0.021332
-0.0101955
0.0265795
-0.00188294
0.00143836
-0.0261401
0.43839
-0.12435
-0.34765
0.0336111
0.0348289
-0.0488491
-0.0857925
-0.322749
-0.0568348
0.0999352
0.27965
-0.00727273
0.13019
-0.123615
0.274704
0.0708172
-0.0962791
-0.249242
-0.0214514
-0.0153938
0.00847934
0.000303092
-0.0124133
-0.0788859
0.0909969
0.0291425
-0.000299187
-0.029894
0.00105032
0.000527915
-0.040364
0.0411994
-0.0013632
0.00612875
-0.0124731
0.0487162
0.399094
-0.174495
-0.427949
0.302206
0.430996
-0.0276384
0.0227631
-0.0165753
0.411639
-0.355512
-0.127573
0.0714585
-0.0732273
0.115015
0.0645419
-0.106323
-0.477628
0.142179
0.349474
0.0116123
-0.043209
-0.0137947
-0.00463962
0.0850315
-0.00355442
-0.0767973
-0.20071
-0.521594
0.173247
-0.0438348
-0.00346955
0.00049269
0.0468298
-0.147525
0.32049
-0.604609
0.43164
0.019246
-0.075393
-0.025862
0.0820273
-0.00349686
0.00455848
0.0358735
-0.00498239
0.0429232
0.00353766
-0.0414747
-0.207819
0.0382813
0.361501
0.0021592
-0.015519
-0.00195131
0.0153091
-0.0695577
-0.216738
0.0622925
0.224003
0.0438708
-0.0463495
0.0254198
-0.0229434
-0.0116276
0.0282317
-0.031997
-0.189166
-0.70582
0.579172
0.315811
0.0377383
0.000937676
0.00185647
-0.0331502
0.00420306
-0.00124585
0.0297236
-0.0226825
-0.0266251
0.019584
-0.126201
-0.0157901
0.157624
-0.0156225
-0.0173808
0.0416729
0.0139648
-0.0382564
-0.00609104
0.0727391
-0.0670668
0.000429294
0.142174
-0.0250224
0.00376414
-0.120916
-0.311872
0.296324
0.0904885
-0.0749442
0.309195
0.0845061
-0.164591
-0.229101
-0.00793292
0.0676575
-0.059418
0.00175074
-0.0280314
0.0270288
-0.000747866
0.0694826
0.308089
0.023158
-0.0200245
-0.0445765
0.0414483
-0.180817
0.252849
-0.0312341
0.0300348
-0.00229592
0.197854
-0.206115
-0.286567
0.294831
-0.252447
-0.394177
0.380192
0.266429
0.0737795
0.3547
-0.120158
-0.308323
0.176794
0.0296043
-0.0453016
-0.161091
0.576968
-0.216164
0.0508423
0.0609144
-0.0116523
-0.0541463
0.00489498
-0.0493125
-0.00019882
0.0128334
0.0366781
0.0403362
-0.0403502
-0.00941582
0.00943044
0.0486379
-0.20841
0.221866
-0.0620934
0.0403359
0.0313697
-0.044314
-0.0273909
0.311412
-0.181271
-0.427331
0.297188
0.0381189
-0.0349743
-0.0339899
0.0308471
-0.108477
0.468572
0.204356
-0.564444
0.00624995
-0.0404166
0.0396349
-0.00546696
-0.0660576
0.0568435
0.173257
-0.164042
-0.0175926
0.105177
-0.099992
-0.461226
0.263356
0.399755
-0.201882
-0.00432663
0.0428534
-0.0294128
-0.00911375
-0.00589925
-0.0382826
0.0323578
0.0118217
0.0674269
0.194766
-0.190829
-0.0713593
0.045804
-0.00977693
0.00253274
-0.0385615
-0.00571076
0.0204442
-0.000150329
-0.0145772
-0.223341
0.225989
0.360647
0.0404912
-0.312018
-0.089116
0.0291471
0.233778
-0.21428
-0.294298
0.292046
-0.106952
0.109202
0.0131794
0.00673911
-0.0161738
-0.00374534
-0.3259
0.537078
0.313866
-0.52504
0.328353
0.159187
-0.289686
-0.260662
0.0283258
0.278035
-0.0457012
-0.0736573
-0.0187514
0.0773589
-0.309651
-0.360152
0.307648
0.0288789
0.0399983
-0.0250065
0.335871
-0.629106
0.327801
-0.0345653
0.0352276
0.00332063
-0.0252653
-0.0132819
0.157677
0.0641027
-0.152407
-0.069372
0.0417209
0.136045
-0.0460242
-0.131742
-0.314344
0.00192873
0.311554
0.000862884
-0.341146
0.291592
-0.220617
0.270172
-0.0763733
0.156667
0.0210945
-0.101378
-0.146846
0.10836
-0.0378741
0.0364831
-0.00463203
-0.0336231
-0.0704922
-0.11613
0.0614698
0.125166
-0.0394071
0.0580978
-0.170217
0.151539
0.31989
-0.304635
-0.0737961
-0.220515
0.067819
0.0185007
-0.0193933
-0.0353413
0.0298463
-0.00145398
-0.0224617
-0.00592961
0.286388
-0.21214
0.0031027
-0.0110516
-0.0375865
0.0455361
-0.531686
0.0703859
0.0771528
0.384149
-0.404589
0.486806
-0.120353
-0.434679
0.172969
-0.240599
0.502305
-0.0631797
-0.153806
0.0636615
0.153327
0.233808
-0.283814
-0.372191
0.422203
0.0013553
-0.00142022
0.0345752
-0.0345101
-0.00233346
-0.0330024
0.0384397
-0.0118499
0.0280483
0.00280256
-0.019001
0.101995
-0.0779753
-0.0972405
0.236837
0.00282671
-0.210509
-0.302086
-0.438906
0.318175
0.422825
0.0414881
-0.0089391
0.00778841
-0.0192574
-0.091889
0.00244294
0.108716
-0.036997
0.0298437
0.0421081
-0.00891731
0.0235029
-0.0202973
-0.0365396
-0.00450223
0.0319485
0.00909129
-0.106636
-0.315393
0.132222
0.289802
0.037732
0.00378254
-0.0202807
-0.0212272
-0.0862512
0.240736
0.0490045
-0.203494
0.259729
-0.0139939
-0.243997
0.0200541
0.00600771
-0.0217168
0.156205
-0.147719
-0.0478902
-0.569562
0.307705
-0.0640361
0.00506662
0.00326112
-0.00604636
0.00966635
-0.003185
-0.0228616
0.0163844
0.146598
-0.0505341
-0.115314
0.017319
-0.317012
-0.000424159
-0.0227895
0.00710745
0.0161033
-0.0408565
0.00549336
0.0353322
3.18889e-05
0.1297
-0.108936
-0.466436
0.445664
0.00113986
-0.00280999
0.0329386
0.00179328
-0.00173234
-0.033
0.166759
-0.0719404
-0.160873
-0.106393
0.380075
0.0282332
0.00291981
0.00391941
-0.0350721
-0.0006006
-0.025798
0.0258836
-0.418405
0.120529
-0.378928
0.0807806
0.0130416
0.285107
0.224533
0.0736369
-0.218005
-0.0801673
-0.324434
0.377801
-0.455591
0.402228
0.0015425
-0.00159264
-0.00669009
-0.104874
-0.366065
-0.608664
0.651099
-0.184631
0.133985
-0.000357548
-0.0183197
-0.0446178
-0.0063854
0.0273519
0.0236532
-0.267224
-0.435268
-0.096634
0.0271438
-0.00810719
0.0775984
-0.0313087
-0.519321
0.621877
-0.0712488
0.0476713
0.0328193
-0.0538012
-0.0266826
0.000162215
-0.000988046
0.000507653
-0.0716509
0.00786827
-0.0171282
0.0809108
0.0030105
0.0468501
-0.0437356
-0.0279766
0.0592629
0.102712
0.00454171
0.0120039
-0.0836021
-0.120884
0.0667869
-0.142732
0.37348
0.168348
0.094117
-0.505709
-0.164227
0.0281473
-0.00623303
-0.00146678
0.0481958
-0.018933
0.0165425
0.0860599
0.495255
-0.439059
-0.142257
0.142149
-0.381518
0.528566
-0.2892
0.010187
0.00295166
-0.00285949
-0.0102762
-0.399795
0.40885
-0.106533
0.0974753
0.0397829
-0.0221695
-0.0273906
-0.0124048
0.0201421
-0.0031932
-0.00812346
0.0446286
-0.012775
0.00194555
0.0186595
-0.00782577
-0.142211
-0.526042
0.143458
0.524798
-0.354255
-0.289713
0.000190426
0.000389528
-0.0953042
0.139697
-0.518763
0.474373
0.00706325
0.0340884
-0.00341306
-0.0759934
0.120528
0.0445761
0.178908
-0.16664
0.00977492
-0.435627
0.474124
0.0267846
0.0301931
-0.0217502
0.0423778
-0.0208396
0.0173269
-0.0388655
0.133942
-0.0225805
-0.0409406
-0.070418
-0.0322338
-0.0573043
0.305091
-0.434212
-0.200575
-0.0200125
-0.0707658
0.0171256
-0.0037513
0.00161102
-0.00281301
0.00495618
0.0988364
-0.26578
0.414766
-0.247826
0.0930845
-0.144678
-0.318387
0.0126344
-0.000588621
-0.0264278
0.0271568
-0.000141306
0.106121
-0.131616
-0.392907
-0.0374257
-0.00211179
0.00330297
0.0362344
0.0304474
-0.0361343
-0.00193971
0.00763722
-0.0344234
0.0600924
-0.0381408
0.0988841
-0.0536139
-0.424198
-0.00457854
0.00543539
0.0119456
-0.0629923
-0.172466
0.0668052
0.168665
0.413458
0.0730914
-0.410032
-0.0765178
-0.0488242
-0.00665498
0.00227287
0.0532068
-0.0422784
0.0545016
0.0258129
-0.0380352
0.157624
-0.426667
0.638434
-0.369398
-0.0223017
0.0249669
-0.0115819
-0.0410933
0.00699541
0.0403499
-0.00862447
0.0400911
0.00193317
0.00137146
-0.00314079
-0.0104914
0.044999
0.00837285
-0.0103589
0.0145181
-0.0169334
0.0294497
-0.0121795
-0.0268862
-0.393355
-0.00982571
0.0102082
-0.0407808
0.0403987
-0.503421
0.435046
0.0296154
-0.0245331
-0.416932
-0.0333862
0.00243272
0.0329255
-0.00197212
0.039954
-0.00912538
-0.0438886
0.0130605
-0.00910077
-0.0425203
0.0268891
0.0247315
-0.0422261
0.00216566
0.093352
-0.0646017
0.0444121
-0.0731606
-0.144611
-0.555847
0.0718626
0.0486345
-0.0438034
-0.000793132
-0.00623015
0.00748936
0.299814
0.0629412
-0.0880526
0.0040595
0.0306304
-0.000244235
0.00339898
0.0375309
0.0368571
-0.0362683
-0.295523
0.0776212
-0.0791072
0.297012
0.221145
-0.301188
-0.180623
-0.050492
0.00396493
0.0451856
0.00134143
-0.0314061
-0.000993073
-0.0460025
-0.0133128
0.091772
-0.0741083
-0.0469061
0.0292513
0.0113232
-0.0169879
-0.0906848
0.0538604
0.450566
-0.413741
-0.00326124
0.0436527
-0.038598
0.00810853
-0.00422821
0.0399326
0.00816842
-0.0376065
-0.0104935
-0.481225
-0.388791
0.300461
0.00583088
0.00127151
-0.36464
0.0173014
0.34447
0.00286591
-0.0451427
-0.0367285
0.0495789
0.0322935
0.0168367
-0.0213686
-0.121666
-0.0505701
-0.00581826
0.00962327
0.0467664
0.229281
-0.0963468
-0.219182
-0.0555378
-0.00607403
0.0173055
0.0443106
-0.0155645
-0.126812
-0.0938107
0.236193
0.024995
-0.00346575
-0.482688
-0.0346997
0.422084
-0.0335802
-0.0430026
0.0260138
-0.01246
0.0846255
0.0460913
0.0149331
0.00117823
-0.062201
-0.172133
-0.276851
0.0545048
0.394479
-0.299267
0.394632
0.146161
-0.241527
0.0247454
-0.0322128
0.0342511
-0.0251958
-0.0663818
0.072829
-0.0102428
-0.065965
0.0588815
0.603076
-0.613398
-0.178845
0.455544
-0.612443
0.311201
-0.154306
0.0140206
0.0386384
-0.00665975
-0.0460004
-0.184783
-0.298677
0.347783
0.135676
0.00189063
0.0221923
-0.0251904
0.044323
-0.0429328
0.0222299
0.0667934
0.0303191
-0.0277247
0.0333374
-0.0359316
-0.0300494
-0.0020179
0.0297359
-0.00237971
0.0194001
0.000257734
9.73745e-05
-0.0013392
0.0348251
0.333878
0.118094
-0.228764
0.373392
0.290248
-0.434876
0.337059
-0.667986
0.391097
-0.0601722
-0.0404107
0.00271126
0.0505125
-0.0410444
0.0257518
0.198432
-0.445123
0.272439
-0.0257477
-0.0130346
0.00229489
0.19433
-0.0340231
-0.175865
-0.00473178
4.80675e-05
0.0345313
-0.318671
0.106193
-0.0966153
0.309092
0.0470087
-0.0530497
0.000222123
-0.413597
0.317127
-0.429266
-0.00389767
-0.0483479
0.530019
0.165608
0.187764
-0.263374
-0.0207099
0.0429455
0.00643399
-0.00980989
-0.0395695
-0.0801723
-0.251844
0.287119
0.0448927
-0.645963
-0.00422001
0.0140052
0.0139714
-0.0301869
-0.0342749
-0.0210281
0.0859285
0.336793
-0.237202
0.0677157
-0.0168622
-0.0168369
-0.0340123
0.0390445
-0.039191
0.00597898
-0.042971
-0.500401
0.0246095
0.0257388
-0.0505853
0.0389949
-0.0141358
0.467418
0.146348
-0.158219
0.176418
-0.182003
0.239449
-0.328953
0.391172
0.31558
-0.0163195
-0.0272029
0.232695
0.0216034
-0.0327894
-0.221505
0.0176873
0.0333056
0.0183144
0.0333619
-0.0285168
-0.0346208
0.312322
0.0011509
-0.044426
-0.0395439
0.000535575
0.00224914
-0.0305804
0.0200954
-0.00492869
0.0154144
0.0258622
0.177951
-0.159228
-0.58623
-0.257421
0.106151
0.0135131
-0.539171
0.0669784
-0.0480793
-0.0813627
-0.0707182
0.10884
0.0432424
-0.0180646
-0.0127176
0.00848107
-0.0548954
0.0587254
-0.0290236
-0.00941397
0.0543314
-0.0703549
0.0254341
-0.000539011
0.0381498
-0.00112721
-0.272169
-0.129511
0.220498
0.18118
-0.0171835
0.0568681
-0.00317683
0.0435825
-0.00140147
0.000894901
0.0434305
-0.0370673
0.788896
-0.186148
0.0360906
-0.0185927
-0.0221293
-0.00914346
-0.0478174
0.0233808
0.0434715
0.0389929
0.00129851
-0.0837464
-0.0434033
-0.0314985
0.0521835
-0.0126177
0.131167
0.0153947
0.130988
0.048268
-0.117784
-0.355518
-0.0752161
0.123186
0.307547
-0.00387712
0.0412926
-0.00199633
-0.0354223
0.0216762
-0.0141769
0.0414691
-0.0489678
0.431009
-0.248168
0.225376
-0.408214
-0.295798
-0.0778457
0.161473
0.21217
-0.0340187
0.0315408
-0.0407033
0.0392686
0.00849896
-0.0173102
0.0182493
-0.015035
0.015905
0.0499475
-0.0508166
0.0632312
0.0177144
-0.0319396
-0.0398402
0.0264411
-0.0349155
0.020495
-0.220964
-0.28284
0.384245
-0.334341
-0.0135987
-0.0362989
0.0158679
0.0439695
-0.023509
-0.0363276
-0.149451
0.210097
-0.23277
-0.377694
0.416273
-0.167134
0.128555
-0.508108
-0.133585
0.489306
0.152397
-0.203309
0.295849
-0.172713
-0.0759496
0.0631044
0.332735
-0.0016167
-0.0404672
0.0213523
-0.00120505
0.0343568
0.0414594
-0.00142435
0.00519003
0.0649487
-0.0484621
0.0227651
0.0249472
-0.00665246
-0.0368694
-0.0496149
0.0314822
-0.0424603
-0.624662
-0.277027
0.42047
-0.0424904
0.137282
0.0136744
-0.108459
-0.520844
-0.0871216
-0.0186773
-0.0191164
0.0152905
-0.0310773
0.503918
-0.581305
-0.0175467
0.0530977
-0.0505854
0.31108
-0.117516
-0.378347
-0.097078
0.38569
0.058801
-0.0281442
0.0722616
0.0033104
-0.0201972
-0.0777823
-0.0132239
0.0296884
-0.33804
-0.496569
0.0162923
0.027019
-0.018399
-0.0249038
-0.0675649
-0.0292706
0.00207333
-0.000378465
0.0266364
-0.0283322
-0.0221679
-0.115886
0.108587
0.0294683
-0.515897
0.0103021
0.0695255
0.436069
-0.0934327
0.320763
-0.409565
0.405795
-0.451524
-0.00114462
-0.614763
0.176269
-0.174908
0.0267674
-0.0480387
-0.297144
-0.217086
0.0520611
0.462166
-0.10933
0.306844
-0.304151
-0.0676743
0.0735003
-0.0765421
-0.0411665
0.0412457
-0.0094958
-0.0428012
-0.0263788
0.128974
-0.120185
0.490377
-0.597489
-0.249862
0.356981
0.0112535
0.151434
-0.56786
0.692058
0.0192515
-0.200319
0.217766
-0.036696
0.103048
-0.100364
0.0830831
-0.0857628
-0.180859
-0.00831018
0.146685
0.0540839
-0.0197231
0.0375039
-0.134628
0.0278115
0.138926
-0.0321017
0.2052
-0.0444826
0.0220492
-0.182763
-0.0351751
0.00135569
0.0336224
-0.340583
-0.198503
0.0249777
-0.452061
0.0842247
0.342853
0.0161155
0.0262087
-0.0129013
-0.0294187
-0.04019
0.044132
-0.0120656
0.0123918
0.420549
0.00868347
0.0514881
-0.0466562
-0.0135153
0.0221551
-0.0140263
0.0120802
0.161933
-0.0367294
-0.0388486
-0.0256189
0.0274711
-0.0930277
0.139656
0.056951
-0.103573
-0.183353
-0.511148
0.186392
0.0201636
-0.0439491
0.0435559
-0.0197672
0.467635
-0.282976
0.226999
0.367056
0.0287079
0.0370037
-0.0345287
-0.0311821
0.00573729
0.0250978
-0.00202773
-0.0288036
0.039494
-0.0400271
-0.00888193
-0.0930315
0.103055
-0.0351078
0.0353213
-0.0297675
0.0295551
0.0489563
0.000426661
-0.00253374
0.0634549
0.13002
-0.0682875
-0.32618
-0.0913542
0.0758399
0.341698
-0.720468
0.060799
-0.00963499
0.0717192
0.0563034
-0.0793854
-0.031201
0.0380116
0.00263775
-0.00113583
0.0188568
-0.0203632
0.0581303
0.467378
-0.744138
0.300656
-0.171285
-0.127261
-0.0662132
0.0113526
0.0339825
0.00653702
0.00591855
-0.000484724
0.0388898
-0.1635
-0.369571
0.0209739
0.512102
0.00117383
0.0101856
-0.00168872
0.374849
0.238493
-0.461917
-0.0967512
0.0606369
-0.0407989
-0.00789116
-0.6342
0.056997
-0.166935
0.0321715
0.0057805
-0.0210831
-0.0168667
-0.00397622
0.0248261
0.0111709
0.0402837
0.00150229
0.0417491
-0.017505
-0.0217638
-0.00302908
-0.00578593
-0.0112916
0.0410757
0.0174396
0.0487598
-0.0502933
-0.0141868
-0.166844
0.0745553
0.106477
0.0229174
-0.000927034
-0.0266317
0.00464523
-0.267709
0.266607
0.0516856
-0.0505861
-0.0887091
-0.313419
-0.123504
-0.491723
0.277186
0.041176
-0.0989313
0.12859
-0.0708255
0.0485367
0.0113258
0.016182
-0.462453
0.02987
-0.00670779
0.00729923
-0.00808211
-0.00139262
-0.180179
-0.060663
0.177877
0.0421497
-0.00164083
0.0438142
-0.140988
-0.0374415
0.541985
-0.116475
-0.125398
-0.452176
0.299141
-0.37606
0.254161
0.312134
-0.190231
-0.0693878
0.192268
0.3457
0.0399592
-0.00277517
-0.0424451
0.00525787
-0.374972
-0.160074
0.551893
-0.0168483
0.0201003
0.00380364
-0.0407838
0.0168817
0.0182707
-0.0212253
-0.0205337
0.0234932
-0.328309
0.227479
0.474214
-0.0106903
-0.039579
-0.450892
-0.0192507
-0.549007
0.111211
0.457047
-0.0180352
-0.00869321
0.059831
0.0147309
-0.0430207
0.0832583
-0.0252319
-0.080194
-0.525386
-0.224547
0.125278
0.302858
-0.0717214
-1.01047e-05
-0.00161626
-0.0379174
-0.0204309
0.00560968
-0.560862
-0.00867595
-0.0328774
0.0368223
0.0910904
-0.390252
-0.100635
-0.533731
0.487245
-0.13686
0.0424209
0.0602262
-0.0769214
-0.287941
0.245978
-0.00519309
-0.110796
-0.0113924
0.127422
0.0182559
0.112035
0.0499302
-0.00185008
-0.00107245
-0.0409734
-0.0184481
0.031697
0.0268567
-0.0020765
0.132745
-0.0988377
0.067873
-0.499227
0.55868
-0.127326
0.0264525
-0.180338
0.05947
-0.0593037
-2.67658e-05
0.0322032
-0.0421081
-0.206788
0.371996
0.125035
0.113371
0.467942
-0.457162
-0.124153
0.541802
-0.505001
-0.00250619
0.017333
-0.30715
0.28638
-0.0371022
0.0397111
0.00597215
-0.00856236
0.0160966
-0.00756275
0.0318022
0.00524883
0.0618527
-0.0176369
-0.0494602
0.0554995
0.138948
0.0320835
0.00188059
-0.0325251
0.0553295
-0.331015
-0.529557
0.0661893
-0.149066
-0.146509
0.0588989
0.310048
-0.0190446
-0.00329869
-0.0930329
0.295779
-0.299668
0.0969136
-0.0449036
0.0216658
-0.372165
0.227692
-0.158505
0.0320914
-0.0850171
0.211443
-0.00490226
0.00264173
-0.0522196
0.0792643
0.00371934
-0.0717463
0.0107818
0.0333167
-0.0590692
0.0249678
0.0100607
0.0719039
0.17532
-0.0739617
-0.111564
-0.0413063
0.0598428
-0.0181898
-0.00110994
0.0627792
0.0365047
-0.0599861
0.0614133
-0.0379304
0.149309
-0.145187
0.00636388
-0.0483172
-0.000154298
0.00931135
-0.0214151
0.0292217
-0.0171047
-0.0886341
0.112182
0.0404718
-0.0640123
0.0800736
-0.478436
0.489341
-0.426424
0.269879
-0.538605
0.111126
-0.17788
0.0438335
-0.0275094
-0.0222242
-0.110914
-0.14125
-0.0665379
0.124312
0.0834826
0.099286
-0.0358141
-0.0785154
0.187086
-0.0724819
0.0624794
-0.177079
0.226158
-0.228304
0.0738914
-0.0717346
0.30721
-0.15715
0.205891
-0.355949
0.288759
-0.287296
0.0812534
-0.0827133
0.163572
-0.1322
-0.0365551
0.415901
-0.0848961
-0.324644
-0.0709402
0.481642
0.137402
-0.0130617
-0.112258
-0.259233
-0.537289
0.484384
0.312134
-0.000970794
-0.0381738
-0.0345201
0.0451352
-0.0181464
-0.097277
-0.463047
0.0880387
-0.124217
0.163246
-0.019929
-0.117448
-0.0218033
0.122287
-0.116268
0.0433444
0.231032
-0.0416797
-0.548812
0.0746146
-0.0934004
0.374875
-0.356082
0.0438725
-0.00609314
-0.00577117
-0.00817219
-0.0876871
0.101639
0.00217021
0.042457
-0.0393675
-0.109338
0.416852
-0.0136761
0.0885747
0.00437895
0.010302
-0.0435783
-0.525565
0.515517
-0.190663
-0.419936
0.143022
0.419062
-0.0842069
0.128621
-0.133041
-0.00180568
0.0509491
0.0456546
0.0185641
0.0480224
-0.0491463
-0.033097
0.0155788
-0.0136825
0.0927382
-0.022282
-0.00166227
0.0471854
0.0242376
-0.0325002
0.137388
-0.129122
-0.293702
0.119657
0.217391
0.247171
0.0234678
-0.0395415
-0.231091
0.280803
0.00465206
-0.0257243
0.015186
0.29654
-0.0539433
0.0455953
-0.288183
-0.0188032
0.707266
-0.129774
0.288985
0.0842065
-0.0844265
0.0344527
-0.0111401
0.0794085
0.0523091
0.109276
-0.0880809
0.0126239
-0.0147136
-0.0998989
0.101958
0.125352
0.0768849
-0.038667
0.230443
-0.187424
0.00709795
-0.0501038
0.146926
-0.120909
0.172243
-0.20336
0.075455
-0.0443211
0.184745
0.112384
-0.0666774
0.140783
-0.00812046
0.0465839
-0.179227
0.195763
-0.0762212
0.0675481
0.118271
-0.071098
0.0650129
0.143864
0.0765474
-0.0734647
0.287148
0.00864137
-0.0229744
-0.272807
0.0879798
-0.0747874
0.0695188
-0.0827084
0.255026
-0.267564
-0.0667043
0.0792448
0.327347
-0.567377
-0.129541
0.200174
-0.0737024
0.10024
-0.226703
0.290441
0.0412484
-0.0445417
0.0783616
-0.0769619
0.00232985
0.0533519
0.352008
-0.341825
-0.0635316
0.328958
-0.367449
0.00898333
0.0295086
-0.0596629
0.142349
-0.0884454
-0.0180071
0.0984118
0.275547
-0.246972
0.162955
-0.191527
0.260269
-0.196573
0.2227
0.0445521
-0.0546563
0.182348
0.00240735
0.155671
-0.148617
-0.00946791
-0.0278949
0.142998
-0.132733
0.0176372
0.13626
-0.0657964
-0.110268
0.0398223
0.107524
0.0423961
-0.00912027
0.183397
-0.0711303
0.103963
-0.087784
0.102098
0.0763955
0.245623
-0.126252
0.0918473
-0.0818283
0.233686
-0.0572326
0.0785804
0.142267
0.0744041
-0.0727888
0.107762
-0.0570351
0.0162914
-0.0294094
0.326824
-0.313707
0.307973
-0.0326002
0.0231137
-0.298477
0.27913
0.0295904
0.0202362
0.304245
-0.145766
0.148738
0.363986
-0.245583
-0.0847143
0.0809703
-0.283054
0.286797
0.365733
-0.347079
-0.0434087
0.0247668
-0.097531
0.0716396
0.34841
-0.567575
0.211974
0.264263
-0.215967
0.352333
0.0445424
-0.0503993
0.295233
0.172149
-0.163133
-0.481894
-0.200609
0.25455
-0.07159
0.0687879
0.132837
-0.230261
-0.3469
0.237903
0.339262
0.165682
-0.153251
-0.0100271
0.141012
-0.141094
0.232963
-0.212651
0.0560837
-0.0169799
0.403474
-0.436084
0.0495969
0.402074
-0.00262918
-0.0337071
-0.186292
-0.495557
0.155808
0.109891
-0.183439
0.131651
-0.0460004
0.178398
0.0425377
-0.174918
0.140741
-0.202228
-0.0227154
0.0744899
0.360045
-0.149
0.049094
0.155411
-0.0912504
0.411723
-0.406493
0.0860219
-0.00852411
0.334863
-0.480844
-0.254256
0.094155
-0.421908
-0.0978665
0.42561
0.0662727
-0.0722265
-0.121359
0.127323
-0.095647
0.217065
0.262834
0.00154474
0.180551
0.0293572
0.382034
-0.505399
-0.334685
0.605198
-0.263642
-0.492365
0.150807
0.289807
0.5619
-0.440743
-0.0909702
-0.0301855
-0.0352596
-0.0134794
0.0376323
0.0151152
0.329983
-0.45585
0.110965
-0.053438
0.242319
-0.151792
0.471369
0.464998
0.178165
-0.438899
-0.204265
-0.382318
0.401932
-0.498048
-0.0241967
-0.0420503
0.49927
-0.150945
0.123658
-0.161952
-0.00494578
0.0586053
0.0597951
-0.0900166
0.0864482
-0.0712126
0.0419001
-0.0709544
-0.135319
0.116508
0.0850994
-0.163542
0.0795893
0.149125
-0.0651472
-0.116499
0.179902
0.0405764
-0.327063
0.174215
-0.0670367
-0.0205396
0.191239
-0.00744257
0.0210257
0.142136
0.170469
0.103807
-0.0286506
-0.0829262
0.0780814
-0.173825
0.178678
-0.224022
0.0666742
-0.0571726
0.0499199
-0.186364
0.195115
0.270381
-0.378848
0.216986
0.244285
-0.0824169
-0.0987585
0.0709692
-0.118623
0.0913469
-0.0401131
-0.0694804
0.0277274
0.076943
-0.073492
0.138829
-0.479587
0.481195
0.0948064
-0.0964146
0.0386682
0.0758616
0.0413428
0.15189
-0.145297
-0.0479383
-0.0838251
0.290271
-0.302087
0.306964
-0.0887387
-0.162111
0.0458545
0.00805232
-0.000425288
-0.00467414
-0.540959
-0.0252557
-0.131608
0.077394
0.13117
-0.434047
0.416078
0.206542
-0.188572
0.0627767
-0.380335
0.398123
-0.0805619
-0.15183
0.398281
0.259576
-0.451301
-0.147046
0.184275
-0.212168
0.277138
0.260143
-0.150234
-0.306478
0.311057
-0.0324899
-0.291331
0.299814
-0.0899536
0.060934
-0.321455
-0.253263
0.36692
0.207795
0.111167
-0.091598
-0.0220687
0.00250643
-0.0692066
0.00764955
-0.236947
0.298506
0.528201
0.358918
-0.540236
-0.34687
-0.233091
0.234944
0.215216
0.298
-0.181361
0.0892515
-0.274633
0.165155
-0.0899985
-0.0577191
0.0312198
-0.200765
-0.0859526
0.145472
-0.13585
0.0288148
0.144836
-0.0378016
-0.185676
0.112224
0.193108
-0.504686
-0.0639054
0.133125
-0.0075143
0.0348332
-0.0453121
0.412552
-0.483454
0.0252849
0.314905
0.143258
-0.00213228
-0.00712316
-0.0696295
0.102049
-0.0821646
-0.0924527
0.0786396
-0.1048
-0.0201998
0.268226
-0.0274818
-0.220542
0.347744
0.235908
-0.366663
-0.146239
-0.102864
0.237145
0.0119624
0.0377714
0.0189362
0.0500485
0.235956
-0.0809812
0.165446
-0.0709481
0.422428
-0.411735
-0.120028
-0.324447
0.337153
-0.104057
0.155493
0.0504155
-0.0496996
-0.290745
-0.0812694
-0.28852
0.290396
0.0923164
-0.0941913
0.436063
-0.472182
0.175699
-0.139579
0.227198
0.0712864
-0.0723229
-0.446247
0.476701
0.0986825
-0.129139
0.396112
0.0559624
-0.0914266
0.437968
0.121384
-0.434928
-0.124421
-0.513924
0.610459
0.0369816
-0.133506
-0.43775
0.13061
0.45335
-0.146215
0.29154
0.0937036
-0.295267
-0.0899726
-0.0704104
0.0850058
0.28975
-0.0857662
-0.29992
0.311879
0.0868024
-0.0987615
0.0486353
0.117632
-0.0409198
-0.0733056
0.237221
-0.31979
0.313096
-0.205474
0.00699937
-0.0123613
0.0265074
0.145277
-0.133612
0.153324
-0.238898
0.284007
0.406753
-0.241222
0.346574
-0.0206483
0.145194
-0.111925
-0.0138513
0.00829298
0.148548
-0.126628
-0.0306186
0.0207828
0.165512
-0.00769311
0.297138
-0.171786
0.205281
0.0497137
-0.0832055
0.26289
0.0549595
-0.0818923
0.198133
0.0399443
-0.0726276
-0.172771
0.145545
-0.0563738
0.207782
-0.0477937
-0.299293
0.398171
-0.419006
0.342829
-0.125488
-0.0389054
0.0193996
-0.204146
0.223658
0.0824312
-0.0923492
0.297031
0.0404597
0.047984
-0.368247
-0.106716
0.053345
-0.0622575
0.115633
0.257588
-0.419498
0.0345384
-0.120546
-0.0039855
0.35033
-0.365581
-0.370873
0.386125
-0.221358
-0.134482
0.0812059
-0.15771
0.16732
0.0442494
-0.0538594
-0.211897
0.23844
-0.0654336
-0.0803372
0.089059
-0.0217634
-0.116059
-0.0342747
-0.188243
0.195826
0.0557002
-0.0632663
0.0730779
-0.0668608
0.00939048
-0.0155808
-0.383627
0.306807
0.155607
-0.0787958
-0.237857
0.255624
0.0558516
-0.0736144
-0.431802
-0.00878974
0.536666
-0.0960571
0.356265
0.195441
-0.451343
-0.100359
0.386214
-0.358213
0.08184
-0.109838
0.427035
-0.407259
0.094489
-0.114269
0.0734244
-0.287979
-0.022424
0.0163088
0.409599
0.283345
0.335791
-0.374847
0.0967274
0.085711
-0.0803645
0.469166
-0.26781
0.198863
-0.124407
-0.0325375
-0.114271
0.0799438
0.132492
-0.132834
-0.186078
0.0600143
-0.0621666
-0.018919
0.048236
-0.0642995
0.118635
0.340357
-0.10273
0.049709
-0.0519248
0.436083
0.107609
-0.11666
-0.105471
0.0211327
-0.0317248
0.0626753
-0.0733344
-0.111728
-0.0614891
0.007005
-0.012368
-0.30234
-0.00354578
-0.0777402
0.0581872
-0.0938718
-0.131352
-0.472384
0.2679
-0.28753
0.151905
0.0549009
-0.175398
-0.0257394
-0.280328
0.320321
-0.177032
0.0271776
0.138755
-0.452954
0.317128
-0.269498
0.331233
0.299858
-0.128788
-0.00296197
0.0272809
-0.0415022
-0.193264
0.183153
-0.409825
-0.163407
-0.0168903
0.139718
0.148182
0.405141
0.261189
-0.0495393
-0.389864
0.0616428
-0.332046
-0.0493798
0.0196481
-0.0187905
0.0425024
-0.043358
-0.000704825
-0.0314598
-0.32658
0.286306
-0.566354
0.130152
0.127282
-0.00442472
0.183281
0.0489866
-0.00954796
0.552354
0.118442
-0.12672
0.354218
-0.0738348
0.00398355
-0.284365
0.095041
-0.0920193
0.313113
-0.458966
0.0903059
-0.295437
-0.0162233
0.0285344
0.0895466
0.376371
-0.386855
0.246392
-0.00113702
-0.0405198
-0.0919853
0.186967
-0.177901
-0.133976
0.139069
0.0214184
-0.389663
0.0654071
0.050133
-0.195233
-0.0189768
0.217317
-0.107878
-0.0363521
0.27422
-0.26084
0.105026
-0.0597149
0.0514332
-0.0114311
0.0063578
0.0518511
-0.0494373
0.100152
0.0206292
0.108855
-0.0598705
-0.267272
-0.0895112
0.171111
-0.00831943
0.098332
-0.104721
0.0364473
-0.0611515
-0.025743
0.100481
0.430571
-0.291791
-0.390173
0.251395
0.183088
-0.0739838
0.2806
-0.224967
-0.379461
0.108871
-0.16056
0.153879
0.231965
0.179678
-0.0985495
0.46224
0.318661
0.0622673
0.145476
0.171933
-0.167449
-0.0710176
0.135864
0.0743748
0.366502
-0.32066
0.0118017
-0.0354042
-0.0134919
-0.380902
0.335631
0.507511
0.36781
-0.0592054
0.0722716
0.295369
-0.170235
-0.197412
0.0676788
-0.0103095
-0.274665
0.417999
-0.397127
0.253798
-0.127892
-0.0230582
0.159242
0.0399815
0.128277
-0.0407466
0.491269
0.169111
-0.521626