/*--------------------------------*- C++ -*----------------------------------*\
  =========                 |
  \\      /  F ield         | OpenFOAM: The Open Source CFD Toolbox
   \\    /   O peration     | Website:  https://openfoam.org
    \\  /    A nd           | Version:  10
     \\/     M anipulation  |
\*---------------------------------------------------------------------------*/
FoamFile
{
    format      ascii;
    class       volVectorField;
    location    "50";
    object      U;
}
// * * * * * * * * * * * * * * * * * * * * * * * * * * * * * * * * * * * * * //

dimensions      [0 1 -1 0 0 0 0];

internalField   nonuniform List<vector> 
23845
(
(0.147591 0.0196511 1.79254e-20)
(0.126411 -0.0358314 -5.90618e-21)
(0.2533 -0.131956 5.53062e-21)
(0.484383 -0.0545063 6.22332e-23)
(0.350149 -0.0396399 3.09664e-21)
(1.25695 -0.0406767 1.28327e-21)
(0.261815 -0.164987 -5.48601e-21)
(0.30386 -0.24088 -4.99702e-23)
(1.20299 -0.0714707 -6.53508e-23)
(0.153839 -0.00149206 -7.93636e-21)
(0.330905 -0.00147896 -1.64341e-20)
(1.32545 0.0182185 -1.2409e-22)
(0.813641 0.122807 1.44897e-21)
(1.23763 -0.055428 -6.69638e-24)
(0.289639 0.247007 -6.20965e-21)
(0.34541 0.0805433 -1.07721e-21)
(0.729118 0.0828984 -1.07673e-21)
(0.647342 -0.0163631 -4.25125e-22)
(0.612218 -0.093001 1.36778e-21)
(1.09613 0.0758979 5.46666e-21)
(0.0652373 -0.0341076 3.44484e-20)
(0.359776 0.00250566 -3.10696e-20)
(0.141412 0.00257144 -5.51506e-21)
(1.1648 -0.101112 -8.24814e-23)
(0.244638 0.0295643 -1.42853e-21)
(1.06206 0.173938 3.8909e-22)
(0.115684 0.0257345 1.18962e-20)
(1.13839 -0.0475062 9.02785e-22)
(0.275181 0.432873 1.30639e-21)
(1.09528 0.0864878 -2.63468e-21)
(0.494674 0.0423313 5.41251e-21)
(0.0468444 -0.0913495 -1.61191e-23)
(0.364785 -0.328818 1.81233e-21)
(0.645479 -0.0298243 1.39774e-21)
(1.31927 0.023926 3.41191e-22)
(1.18901 0.0468038 -7.63126e-22)
(0.124226 -0.222156 -7.4277e-22)
(1.32012 0.0173519 1.70186e-22)
(1.31861 0.00238692 1.0267e-22)
(1.17574 0.130849 -4.17649e-23)
(0.546813 -0.104934 -8.52605e-23)
(0.789356 -0.034742 8.97732e-21)
(0.809428 -0.093684 8.10581e-21)
(0.783154 0.0505432 -7.30946e-21)
(1.0741 -0.142408 5.60316e-21)
(0.837014 0.111001 2.00359e-21)
(0.531475 -0.00390779 -4.36338e-22)
(0.353875 -0.0592914 -6.27327e-21)
(-0.00163492 0.000206358 -1.9768e-22)
(0.273124 0.420616 6.43981e-22)
(0.112564 0.150252 -5.69958e-24)
(0.275218 -0.0680062 -1.02499e-21)
(0.0208112 0.0428305 2.26905e-23)
(1.17428 -0.0712118 2.35969e-22)
(0.0652285 -0.121391 4.99374e-22)
(0.716946 0.0963379 1.4403e-21)
(0.22227 -0.0256349 1.69891e-20)
(0.287309 0.201053 -2.17539e-21)
(0.0637361 -0.0374855 -6.18999e-20)
(0.310258 0.00613264 -5.70763e-21)
(0.310439 -0.376452 2.63616e-22)
(0.765521 0.054135 1.43212e-21)
(0.405572 0.105161 -1.3956e-21)
(0.315733 0.438727 5.40016e-22)
(1.13769 -0.114417 1.16272e-21)
(0.858965 0.119241 1.19333e-20)
(0.167179 0.0756051 8.54671e-21)
(1.06165 0.176031 1.10522e-21)
(1.06995 -0.140167 -1.98117e-21)
(0.556212 -0.0945414 -1.32257e-22)
(0.296631 -0.305156 2.30646e-23)
(0.271724 -0.139124 2.6667e-21)
(0.969839 0.156367 -6.15959e-22)
(0.271591 0.218434 4.0909e-21)
(1.10746 -0.127933 -2.08544e-21)
(0.243614 0.212355 -3.69425e-25)
(1.32879 0.0147935 4.87103e-23)
(1.30906 -0.00333326 6.80351e-22)
(0.383947 0.139164 -1.29627e-22)
(0.593757 0.0855351 -7.46969e-22)
(0.0807738 -0.0162294 -3.79378e-21)
(0.21977 -0.123186 -1.42468e-20)
(0.177234 -0.0314772 -2.89612e-21)
(0.326384 0.25079 -1.93011e-22)
(0.219457 0.209762 -1.4509e-21)
(1.31672 0.031214 7.74923e-22)
(0.131976 0.0529921 1.00759e-20)
(0.002213 0.0105276 -4.96133e-22)
(1.1577 -0.0969976 2.89284e-22)
(0.589337 0.098338 1.23762e-21)
(0.161774 0.254843 -3.65062e-22)
(0.496097 0.13407 -5.90575e-22)
(0.305957 0.442465 1.88193e-21)
(1.19859 -0.0123425 5.23864e-22)
(0.24283 0.153622 -3.6335e-22)
(0.205183 0.315064 -2.01769e-21)
(0.74807 -0.0627895 -2.95998e-21)
(0.332352 -0.0523492 -4.61135e-22)
(1.13804 -0.100085 6.53142e-23)
(0.437552 -0.0361255 -4.47172e-21)
(0.674022 -0.0684734 -3.08251e-21)
(0.185213 0.0952759 2.57648e-21)
(0.244584 0.0192145 1.53214e-20)
(0.310617 0.375787 -3.30295e-21)
(0.332861 0.432873 -5.1082e-21)
(0.343358 0.219361 -2.91566e-22)
(1.23757 -0.0535737 -8.14516e-22)
(1.10342 -0.127611 2.79174e-22)
(0.193518 0.0828479 -1.38982e-21)
(0.800153 0.0584031 3.66532e-21)
(0.368311 -0.0148628 -5.75982e-21)
(1.31843 0.0106048 3.13926e-22)
(0.216797 0.202512 4.01075e-21)
(0.24154 -0.0251155 -3.78846e-21)
(1.16719 0.0523602 -3.65548e-22)
(0.142278 0.00942725 -4.80956e-21)
(1.0622 -0.127233 -3.14639e-22)
(0.267392 0.0445869 -5.95024e-21)
(0.263808 0.425178 9.22744e-22)
(0.32209 -0.340523 -1.64568e-21)
(1.3176 0.00408453 5.47344e-22)
(0.123075 0.232228 7.93901e-23)
(0.548499 0.121824 -6.3059e-23)
(0.307542 -0.209255 3.78891e-21)
(0.200774 0.11705 -2.36462e-21)
(1.04081 0.17018 -1.46732e-22)
(0.307032 -0.358561 3.09801e-22)
(0.286194 0.421078 -2.21679e-21)
(0.283668 -0.212511 1.01051e-22)
(0.503335 0.00276157 4.88254e-21)
(0.340887 -0.348583 2.01442e-21)
(0.197953 -0.0235085 9.86913e-22)
(0.349435 0.00667582 5.61454e-22)
(1.26486 -0.0404243 -9.38328e-25)
(0.605819 -0.0682143 -1.14462e-21)
(0.183127 0.0205275 5.9051e-21)
(0.305021 -0.391046 5.67858e-21)
(1.33001 0.0188239 -1.0543e-22)
(0.208165 -0.0816658 -9.53967e-23)
(1.31099 -0.00353345 -3.67075e-23)
(0.23646 0.405924 -2.50736e-21)
(0.814396 -0.0303931 -5.49185e-21)
(1.30024 0.0531907 -9.26653e-23)
(0.751807 0.0447013 1.5867e-21)
(0.4328 -0.0881952 -3.17961e-21)
(0.819476 0.053534 -6.33428e-21)
(0.193724 -0.0100137 -3.31182e-22)
(0.18992 0.153548 1.29119e-20)
(0.332165 -0.360278 -1.39599e-21)
(0.511397 0.111099 1.00095e-22)
(0.299682 0.294893 -2.94148e-21)
(0.926843 0.135382 -2.31024e-21)
(0.21124 -0.0255844 7.49455e-21)
(0.990714 -0.0845226 1.68409e-21)
(0.268235 -0.20396 -1.1451e-21)
(0.450637 0.102866 -1.83124e-21)
(0.329904 0.0154829 -3.96124e-21)
(1.27234 -0.00278355 2.21644e-21)
(0.368798 -0.373577 2.09116e-22)
(0.230965 0.374261 1.88421e-22)
(0.495905 0.124878 2.33133e-22)
(0.287033 -0.224046 -4.7119e-22)
(0.165104 -0.0127492 2.64087e-22)
(1.15998 -0.100893 2.59433e-22)
(0.73499 -0.105963 -1.43589e-22)
(0.511797 0.0980732 1.35052e-22)
(1.29006 -0.0253131 1.77311e-23)
(0.13524 -0.213872 -2.33444e-22)
(1.11147 -0.0438767 1.23994e-21)
(0.832906 -0.0202229 1.07316e-20)
(1.26762 0.0793418 -8.357e-24)
(0.452638 -0.0762074 5.43115e-22)
(1.14414 -0.110161 1.85237e-21)
(0.32172 -0.193039 -7.08803e-22)
(1.10692 0.156134 1.43492e-21)
(0.286392 0.0498577 9.5126e-22)
(0.460487 0.130239 6.93076e-22)
(0.379904 0.0742247 2.71942e-21)
(1.11456 -0.114083 2.45297e-22)
(1.2864 -0.00354167 -7.50092e-22)
(0.479245 0.00173262 2.94682e-21)
(0.519235 -0.00626422 4.91423e-22)
(0.225888 0.180116 4.1739e-21)
(0.397379 -0.0152336 -2.8149e-21)
(0.383988 -0.0730996 -3.72511e-21)
(0.707828 0.108985 -4.0552e-22)
(0.783682 0.0619823 3.27955e-21)
(0.313571 0.276977 1.86489e-22)
(0.301758 -0.420023 2.9233e-22)
(0.795649 -0.0411748 -3.27418e-21)
(0.338799 -0.429341 4.25066e-21)
(1.21135 -0.0761512 2.36531e-22)
(1.19905 0.120104 -2.66439e-22)
(1.23334 0.10169 -5.42222e-22)
(0.459232 0.125459 -1.09413e-21)
(1.17828 -0.0928547 3.89088e-22)
(0.329348 0.412769 -2.91387e-22)
(0.328175 -0.430876 3.23628e-22)
(0.340581 0.344049 -2.48682e-21)
(0.358963 -0.0253766 -3.53058e-22)
(0.514952 0.0848802 3.89246e-23)
(1.13808 -0.0923794 -4.92213e-22)
(0.325497 -0.340347 -5.69922e-22)
(0.259302 -0.0203408 2.12156e-21)
(0.331698 -0.22099 -1.7264e-22)
(0.189415 -0.0738759 -1.3174e-22)
(0.200529 0.159661 -8.73846e-21)
(1.29309 -0.0217137 -1.29525e-23)
(0.144552 0.00795208 -1.19237e-20)
(0.608436 0.0495196 -6.6791e-22)
(0.600287 0.0728117 5.7304e-22)
(0.175699 -0.278036 6.33634e-22)
(0.405182 -0.0850628 1.62221e-22)
(1.08359 -0.0555825 -7.98e-22)
(0.0482184 0.0795592 -6.96675e-23)
(0.118708 0.244022 -5.83609e-22)
(0.333661 -0.0202435 -4.96806e-21)
(0.749098 0.0568413 3.28617e-22)
(0.198203 -0.345556 2.22806e-21)
(0.310904 -0.293401 -2.44039e-23)
(0.915153 -0.110486 -2.12548e-21)
(0.257012 0.215734 -2.11624e-21)
(0.353964 -0.421673 -3.63406e-21)
(0.454469 0.112546 -1.74792e-21)
(0.801589 0.0454385 -7.98965e-22)
(0.313334 -0.274993 4.06361e-21)
(0.236784 0.380169 -1.26037e-21)
(1.2024 -0.0798489 -1.02715e-21)
(1.25617 0.0853887 -2.95898e-22)
(0.547484 0.131999 -5.61038e-23)
(1.25034 -0.0228019 2.32227e-22)
(0.00972437 0.0214477 5.19737e-22)
(1.31141 0.00808748 -2.73323e-22)
(1.043 0.18632 2.95266e-22)
(0.32946 -0.0420802 5.46673e-21)
(0.270831 0.420541 -1.59986e-21)
(1.11645 -0.121563 9.33954e-22)
(0.530573 -0.0179438 9.94376e-22)
(1.05326 0.154814 -2.07746e-22)
(0.34018 0.121211 3.93096e-21)
(-0.00261273 -0.0113264 -4.67341e-22)
(0.229112 -0.0227458 9.09825e-21)
(0.340452 0.2197 -6.52277e-22)
(0.337787 -0.0429599 -9.03316e-21)
(0.112647 -0.180108 3.5965e-23)
(0.389953 0.0980728 -1.69392e-22)
(1.24338 -0.0546864 1.44712e-21)
(1.05688 -0.152253 -2.52549e-21)
(0.228761 -0.0122105 -4.82661e-22)
(0.270093 -0.206154 1.23924e-21)
(0.869966 -0.0655721 -3.00449e-21)
(1.28389 0.0407973 2.65778e-22)
(0.0974373 -0.118209 4.3344e-22)
(0.795237 0.133731 2.86452e-22)
(0.275813 -0.198311 -2.30798e-21)
(0.163781 -0.216048 -1.76867e-22)
(0.321069 -0.317728 4.38308e-21)
(0.17148 -0.174577 -9.91238e-23)
(1.15742 -0.0111927 9.76435e-22)
(1.14875 -0.105385 -1.46414e-21)
(-0.00419933 -0.000858244 4.43507e-22)
(1.25949 0.00355557 9.06384e-22)
(0.305281 -0.340478 -1.14049e-22)
(0.388616 -0.0280096 6.55227e-21)
(0.447797 0.0910156 -2.15343e-23)
(1.15055 0.141896 3.81781e-22)
(0.337485 0.062915 2.51719e-22)
(0.302467 -0.248286 -1.13127e-22)
(0.542711 -0.0133757 1.405e-21)
(0.505932 -0.0196735 -4.68466e-22)
(1.30591 -0.00242698 6.91825e-22)
(0.434033 -0.0959498 -2.59123e-22)
(0.0474066 0.0569132 5.16937e-23)
(1.19798 0.118592 5.94711e-22)
(0.384133 -0.00291161 -3.1649e-21)
(1.18379 0.125912 -8.465e-23)
(0.204415 0.264159 -3.48482e-23)
(1.19855 -0.0792827 6.18093e-22)
(0.371231 0.386442 7.43972e-22)
(0.094038 -0.0319453 3.62062e-20)
(0.330632 0.217853 1.67549e-21)
(1.2424 0.0891634 4.26282e-22)
(0.138989 0.147903 -1.02493e-21)
(0.455668 -0.0865147 1.11399e-22)
(1.30462 0.0229232 2.79635e-22)
(0.297721 0.406709 -1.72252e-21)
(0.336434 -0.15112 -6.14567e-22)
(1.10401 -0.0972747 5.27073e-22)
(0.232517 -0.129251 7.69462e-23)
(0.253791 -0.176519 2.36503e-21)
(0.291802 -0.00958815 -4.47286e-22)
(0.0205176 -0.0320933 5.86926e-22)
(0.305746 0.433178 3.88119e-21)
(0.191827 -0.21055 3.86698e-22)
(0.249706 -0.0720412 -5.72723e-23)
(1.31371 0.0161218 8.49256e-23)
(0.341384 -0.395415 1.93939e-21)
(1.21632 -0.0669462 -8.34314e-23)
(1.3089 0.0317167 3.88556e-23)
(0.24067 0.401144 -1.1607e-21)
(0.386889 -0.386065 3.98528e-21)
(0.295225 -0.250619 2.68168e-21)
(0.280619 0.427582 2.81717e-21)
(0.519107 0.0230927 4.25803e-21)
(1.21037 0.111355 4.67219e-22)
(0.544672 0.00778755 -5.26765e-21)
(0.32717 0.438946 -2.08076e-21)
(0.0754958 0.0972682 2.39364e-22)
(0.683547 -0.0694559 -2.14116e-23)
(0.338038 -0.423802 6.88095e-22)
(0.0284032 0.022025 1.47055e-21)
(0.240841 -0.0180318 1.37609e-20)
(0.694785 -0.0818847 -4.11337e-22)
(1.26531 0.0831111 -2.99258e-22)
(0.242762 0.0766169 8.7236e-21)
(0.249323 0.414798 2.25791e-21)
(0.30777 0.417265 2.67913e-22)
(0.295263 -0.0140726 -2.49493e-20)
(0.178382 -0.244109 3.13868e-23)
(0.877474 -0.106316 -1.49431e-21)
(0.368754 -0.432327 1.30678e-21)
(0.156604 -0.248281 -5.54771e-22)
(0.351328 -0.389929 -2.44569e-21)
(1.07481 -0.0501089 -1.97901e-21)
(0.257812 -0.189312 -3.23046e-21)
(1.28758 0.0697067 3.05701e-22)
(0.440269 0.0651456 5.41903e-22)
(0.509689 0.000246121 4.31586e-21)
(0.275295 0.339289 -6.70043e-23)
(0.60541 0.0391909 3.475e-21)
(0.23402 -0.0960547 1.53098e-20)
(0.483073 -0.0763901 5.57895e-22)
(0.152612 0.222686 -2.36837e-22)
(1.26037 0.0160193 -8.06544e-22)
(0.284335 0.362144 -6.11015e-22)
(0.503924 -0.0435463 -2.45671e-22)
(0.340117 0.0818886 -3.02529e-21)
(0.640249 0.0356368 -2.39292e-21)
(0.843989 0.0584645 -1.56305e-21)
(0.381512 0.0839892 -1.43446e-21)
(0.413141 -0.0897741 -4.00936e-23)
(0.340884 -0.376986 -1.45558e-21)
(0.356169 -0.00361209 1.96477e-20)
(1.02018 0.183688 -3.44888e-23)
(1.0256 -0.145732 -6.5233e-22)
(0.398856 -0.384913 -7.60555e-22)
(1.27001 0.0304584 1.00167e-21)
(0.204643 0.290356 3.11895e-22)
(0.412576 0.101845 -6.23334e-22)
(0.30829 -0.277361 -6.31069e-22)
(0.380528 0.0639826 4.0342e-21)
(0.314219 0.364923 -9.50952e-22)
(0.307973 -0.419066 3.28858e-21)
(0.159487 0.202706 5.4379e-22)
(0.0012585 -0.0212341 -8.05742e-22)
(1.20956 0.113685 -3.87293e-22)
(0.860556 -0.0137293 -5.68663e-22)
(1.01812 0.157494 7.02991e-23)
(0.196916 0.166189 -2.50523e-21)
(0.32303 0.211817 -2.83778e-22)
(0.294975 -0.216299 -1.31204e-21)
(1.13337 0.146918 2.41614e-22)
(0.211367 -0.0164609 -9.82424e-21)
(0.486945 -0.0877249 -1.04139e-21)
(0.29259 -0.413013 1.27852e-21)
(1.27402 -0.0361641 -1.02526e-23)
(0.264877 0.30609 -4.71475e-22)
(1.17723 -0.02159 -2.50674e-22)
(0.25173 0.414494 9.07317e-22)
(1.07475 0.171583 -4.63908e-22)
(0.806597 -0.0246799 -1.29401e-21)
(0.167277 0.281594 1.01659e-21)
(0.392529 -0.425454 -1.92732e-21)
(1.32605 0.0320346 -1.32669e-22)
(1.2543 -0.0106084 -2.90947e-21)
(0.147184 -0.191032 1.4734e-22)
(0.239601 0.100659 -5.25499e-21)
(0.465138 -0.0599369 -6.45585e-22)
(0.841159 -0.026746 -4.83458e-21)
(0.389377 -0.13496 7.05193e-22)
(0.242473 -0.161979 -3.9576e-21)
(1.24477 0.000927042 -1.52744e-22)
(0.131847 0.00962044 2.71037e-20)
(1.03548 -0.1498 2.19128e-22)
(1.03135 0.185365 -1.29814e-22)
(1.31626 0.00530193 6.37739e-23)
(1.25054 -0.031269 3.85325e-21)
(0.364474 0.122722 6.60188e-22)
(0.533467 0.0658695 8.3049e-23)
(0.29288 0.161907 1.66796e-21)
(0.203541 -0.0938801 -1.65403e-21)
(0.839708 0.0499517 9.40165e-22)
(0.342623 0.434477 4.77124e-21)
(0.347034 0.426577 1.46381e-21)
(0.0192133 -0.00765671 -1.17885e-21)
(0.232163 -0.328874 4.99516e-22)
(0.446104 0.0773295 -2.5816e-21)
(1.08087 -0.138802 -7.11676e-22)
(0.543329 -0.0937194 3.12277e-22)
(1.24594 0.0149693 -4.10996e-22)
(0.29587 0.0764814 -4.41433e-21)
(0.536903 0.00783149 1.25329e-20)
(0.192184 -0.14019 -2.86323e-23)
(0.372892 -0.0978758 -9.64046e-22)
(0.243356 -0.00249197 8.58065e-21)
(0.213145 0.173817 4.45805e-21)
(1.30532 -0.0121817 -1.644e-22)
(0.377251 -0.428335 2.44855e-21)
(0.318631 0.43769 1.88533e-22)
(0.320223 -0.319084 -1.43737e-21)
(0.299996 -0.248808 -2.27938e-21)
(1.05299 0.185319 1.15691e-21)
(0.21248 0.151657 4.18592e-21)
(0.282226 0.347964 1.51872e-21)
(0.20043 -0.0462973 -1.73165e-20)
(0.298451 -0.0793894 -3.34146e-21)
(0.54725 -0.00894379 4.85174e-21)
(0.409692 -0.0041586 -1.75053e-21)
(1.29232 0.0646932 -7.60367e-22)
(0.135142 -0.00683985 2.32259e-21)
(0.406678 0.384357 1.06793e-21)
(0.973992 0.0654148 3.14963e-21)
(1.20296 -0.0761134 5.35368e-22)
(0.405151 0.0441146 -1.03281e-21)
(0.315337 -0.32245 6.02043e-22)
(0.0780919 -0.0381898 8.98761e-20)
(0.424658 -0.396759 -7.95035e-22)
(0.470582 0.0366751 3.56053e-21)
(0.314069 -0.160879 1.45981e-21)
(0.297563 -0.17674 -3.19657e-21)
(1.17768 -0.090465 3.4251e-22)
(0.653012 0.0480737 2.60193e-22)
(0.318802 0.407039 -3.15675e-21)
(0.639072 0.0244249 4.80778e-21)
(0.933096 0.102496 8.33716e-21)
(1.01223 -0.124783 -1.71867e-21)
(1.32644 0.0279492 -2.04951e-22)
(0.720963 0.110172 3.58391e-21)
(0.289669 0.434927 6.95999e-22)
(0.339613 -0.126017 6.08392e-22)
(0.231665 0.20742 -1.01465e-22)
(0.409189 0.389935 -2.25665e-21)
(0.353806 -0.43489 -3.31515e-21)
(0.291571 -0.239166 -6.34642e-22)
(0.503248 0.0220916 -1.73781e-21)
(0.319702 0.426285 -9.78496e-22)
(1.07129 -0.0397041 4.2006e-21)
(0.574247 -0.00929242 -8.18393e-21)
(1.28717 0.0641402 5.60413e-22)
(0.403007 -0.112554 -5.5462e-22)
(0.362091 0.0251631 -5.30889e-22)
(0.971035 -0.0992355 1.0101e-21)
(0.426276 -0.406436 -2.02622e-21)
(1.26083 0.0384121 1.85109e-21)
(1.06812 0.177857 -3.4659e-21)
(0.303027 0.390267 -1.77646e-22)
(0.323406 -0.00446219 1.79085e-21)
(0.250765 -0.0229871 3.38885e-21)
(0.217465 -0.203052 -1.24637e-21)
(1.14991 -0.0785259 9.23234e-22)
(0.145477 0.000258508 -6.26855e-21)
(0.494716 0.00410461 -1.18363e-21)
(0.264846 0.382597 4.07525e-21)
(0.455607 -0.00102743 -2.29277e-21)
(1.24914 0.070201 -5.79612e-22)
(1.29626 -0.0146543 5.73854e-22)
(1.22779 0.0998187 -5.42359e-22)
(0.0259339 0.0469446 -2.09985e-22)
(1.00832 0.181111 2.08325e-22)
(0.324609 -0.300401 -6.52828e-22)
(1.11173 0.0891658 -4.7738e-22)
(1.2828 -0.0307148 -2.6516e-22)
(0.565661 0.00929698 -9.71475e-22)
(0.316144 -0.341524 8.50572e-22)
(0.34852 -0.420125 -2.83816e-21)
(0.412625 0.0104105 4.52285e-21)
(0.994248 -0.107105 -1.0289e-21)
(0.0894364 -0.144717 4.61864e-23)
(1.12391 -0.0637816 -5.13104e-22)
(0.555693 0.109435 -1.40069e-22)
(0.551301 -0.0211705 1.60703e-22)
(0.590091 -0.00767133 -6.37047e-21)
(0.562081 -0.000421072 -1.8135e-21)
(0.354063 0.0117259 -7.69482e-21)
(0.520657 0.0602363 6.09846e-23)
(0.171628 0.121611 -4.48921e-21)
(1.30326 -0.00086945 -1.49394e-21)
(1.31559 0.0398449 3.77371e-22)
(0.174643 0.088351 -1.15574e-21)
(0.315977 -0.295575 -9.08788e-22)
(1.08949 0.167131 2.20845e-22)
(0.338587 0.371724 3.28964e-21)
(0.201379 -0.247973 -1.65513e-23)
(0.575188 -0.0135815 -6.03868e-21)
(0.331454 -0.244409 -2.62341e-22)
(0.527941 -0.025215 2.8347e-20)
(1.0013 -0.120141 4.59585e-21)
(0.295687 -0.105067 -1.04151e-21)
(1.13124 -0.114815 -3.30508e-22)
(1.26495 0.0447092 -1.69916e-21)
(0.21018 -0.0466931 7.93108e-21)
(0.219135 -0.349133 -1.44244e-21)
(0.327939 -0.339406 1.92e-22)
(0.564281 -0.0180613 -6.03084e-21)
(0.361708 -0.174153 -3.46751e-22)
(0.366542 0.182137 -7.74097e-23)
(0.41659 -0.0258794 5.19418e-21)
(0.729835 0.124182 -1.48421e-21)
(1.15271 -0.0304056 -8.38224e-23)
(0.320972 -0.319416 -2.26609e-21)
(0.546783 0.0204378 1.32288e-21)
(0.316169 0.385475 -2.12773e-21)
(0.142205 0.287719 3.65782e-21)
(0.570528 0.00673912 1.52216e-21)
(1.21723 0.110892 5.38536e-22)
(0.995722 0.177946 1.94432e-22)
(0.589591 -0.00414598 1.39513e-21)
(0.353669 -0.332059 -1.53387e-21)
(0.305833 -0.278403 7.34815e-22)
(0.868525 0.0659553 1.60661e-21)
(0.0967673 0.188706 2.1737e-21)
(1.10768 -0.0805167 1.35418e-22)
(0.622933 0.0435177 -1.51363e-21)
(0.331778 0.429268 1.55783e-21)
(0.983546 0.175259 5.9175e-22)
(0.219568 -0.122479 2.30878e-21)
(0.260128 -0.185139 -1.866e-21)
(0.337922 -0.410265 -2.97243e-21)
(0.124977 0.0107789 1.39916e-22)
(0.245311 -0.347825 -2.94152e-22)
(0.263358 0.408811 1.81861e-22)
(0.417471 -0.381417 -7.04976e-22)
(0.4295 0.00490242 1.73538e-20)
(0.109058 -0.0184901 -3.1002e-20)
(0.633352 0.105416 -3.67622e-22)
(0.71677 0.122406 3.065e-23)
(1.15401 -0.0675076 6.98389e-22)
(0.294179 0.381077 2.27899e-21)
(0.531454 -0.0193859 -4.12226e-20)
(0.396344 0.1464 -5.01671e-22)
(0.206051 0.18193 1.20814e-21)
(1.1307 -0.0830416 4.04555e-22)
(0.0933838 -0.0332445 3.01846e-20)
(0.137758 0.00709041 -4.4568e-21)
(0.463926 -0.0953335 5.93607e-23)
(0.14228 0.0112632 -1.14884e-20)
(0.353454 0.00472998 2.40215e-21)
(0.826697 -0.0901503 1.14997e-20)
(1.11031 -0.055224 -2.95931e-21)
(0.916976 0.125147 -6.9825e-21)
(1.00676 -0.0867657 -8.20406e-22)
(1.3125 0.0237037 -7.33938e-22)
(0.252928 0.236367 -4.72217e-22)
(0.936067 -0.0799867 5.98219e-21)
(0.300412 -0.19213 2.9518e-22)
(0.119742 -0.00754657 -1.55596e-20)
(0.867122 -0.0226031 -4.00428e-21)
(0.336784 -0.356038 -1.22762e-21)
(1.25934 0.0282875 1.05739e-23)
(1.18963 0.0767584 1.11151e-21)
(0.225302 0.0495923 -4.17307e-22)
(0.42765 0.00459058 1.16976e-21)
(0.382935 -0.0039623 -3.54326e-21)
(1.06223 -0.0336644 -1.34722e-21)
(0.866945 0.0538558 -2.84896e-21)
(0.361082 0.418726 5.92039e-23)
(0.351608 -0.434296 1.66188e-22)
(1.02977 0.168006 2.66549e-22)
(0.310287 -0.413793 -2.8631e-21)
(0.78236 0.131534 2.35807e-22)
(0.976641 -0.132025 -6.50407e-24)
(0.207248 -0.105816 1.19306e-21)
(0.694983 0.108235 -1.94864e-22)
(1.24569 0.0938154 -1.69494e-21)
(0.300503 -0.0471572 9.76648e-21)
(0.478173 0.00308985 -1.27124e-21)
(0.263852 0.286932 -6.28549e-21)
(0.312008 0.341917 1.25488e-21)
(0.211556 0.240607 -4.14791e-22)
(0.498602 -0.0269471 7.4365e-21)
(0.93919 -0.125574 -8.93463e-22)
(1.32463 0.0132442 -3.63611e-23)
(0.453551 -0.0933966 9.28958e-22)
(0.183412 0.135025 2.32939e-21)
(0.352284 -0.407149 1.18408e-21)
(0.876306 -0.0034078 6.61997e-21)
(0.943717 0.15366 3.02942e-22)
(0.953728 -0.113613 3.588e-22)
(0.179821 0.188902 1.2559e-21)
(0.992199 -0.116221 -2.81525e-21)
(0.163756 -0.0196487 -9.08014e-21)
(0.277969 0.278578 2.27512e-22)
(0.159811 0.0142138 -4.06668e-21)
(0.425131 -0.0127942 -3.14715e-21)
(0.237415 0.3369 -4.37132e-22)
(0.850103 -0.0101765 -8.10057e-21)
(1.01507 -0.141454 1.6079e-21)
(1.12415 -0.0804033 -3.2334e-22)
(0.660796 -0.0151013 1.04498e-21)
(1.32489 0.0389782 -1.24713e-22)
(0.272442 -0.0916133 1.72537e-21)
(1.08472 -0.0644382 1.78343e-21)
(0.499558 -0.0218964 -1.67431e-21)
(0.20271 0.169148 -3.51301e-21)
(0.370115 -0.119777 -1.41788e-22)
(0.219611 0.00967872 -8.36946e-22)
(0.140416 -0.135098 1.44436e-22)
(0.498391 -0.0258481 -1.07175e-20)
(0.250683 -0.162832 -8.24597e-22)
(0.46179 0.104932 2.42533e-21)
(0.572474 -0.0104999 2.98681e-20)
(0.182153 -0.0424886 -1.05056e-20)
(0.298138 0.000325064 -8.89064e-21)
(0.434084 -0.0340946 -2.67504e-21)
(0.365664 -0.414342 3.62658e-21)
(0.102577 -0.0436466 3.45373e-20)
(0.424696 -0.0172863 -2.45613e-20)
(0.251795 -0.0445734 1.60565e-20)
(1.06782 0.0900095 -7.00775e-21)
(1.09637 -0.0715687 3.26913e-22)
(0.512909 -0.0112437 1.15066e-20)
(0.258092 0.383905 -1.82458e-22)
(0.541909 -0.0110699 1.7039e-20)
(0.48281 0.0957806 -2.69442e-22)
(0.250872 -0.0423257 -2.22435e-20)
(0.514987 0.0367469 6.23655e-22)
(0.570557 -0.106192 1.45806e-22)
(0.729962 0.0263732 1.4201e-20)
(0.68733 -0.103503 1.15751e-22)
(0.340906 -0.0628932 2.94577e-21)
(0.826896 0.124724 7.86173e-22)
(0.859022 -0.0796814 -1.24658e-21)
(0.533722 -0.0160758 9.98607e-21)
(1.16764 -0.0486092 -1.29308e-22)
(1.32139 0.0321111 -1.21583e-21)
(0.272215 -0.215822 6.05647e-21)
(0.134713 -0.0470166 9.99704e-21)
(0.286767 -0.0438425 2.96208e-21)
(0.92663 -0.123855 -1.82448e-21)
(0.444804 0.0616607 -1.51386e-21)
(0.416565 0.00754229 -1.92231e-21)
(0.549182 0.0581569 3.13798e-22)
(1.13748 -0.0291024 -1.03049e-21)
(0.756039 0.127728 1.4432e-22)
(0.14768 0.0174185 -2.33174e-20)
(0.248525 0.0065656 3.7808e-21)
(0.128283 0.0147666 -7.01064e-21)
(0.808047 0.135698 -1.58056e-21)
(0.240491 0.0189262 -2.2156e-22)
(0.280626 -0.219799 -3.39391e-22)
(1.16681 0.0378723 6.28106e-22)
(1.29208 0.0298472 7.22898e-22)
(0.459295 -0.015677 -6.90262e-21)
(0.36646 0.183037 7.75299e-22)
(0.296794 0.426351 -5.02171e-21)
(0.404882 -0.361469 1.46642e-21)
(0.330107 0.401121 -1.38087e-23)
(0.267583 0.0392788 1.25737e-21)
(0.319228 -0.293811 2.01214e-21)
(0.358146 0.0369821 -8.13351e-22)
(0.545165 0.073477 3.71623e-23)
(0.599453 0.10758 -1.60022e-21)
(0.614917 0.0688281 1.17899e-21)
(0.230028 -0.0470437 9.43328e-21)
(0.63613 -0.0564822 4.45934e-22)
(0.953781 -0.125564 4.7743e-21)
(0.699665 -0.104281 1.023e-21)
(0.357578 -0.0409113 1.20627e-20)
(0.588247 -8.57516e-05 7.22848e-21)
(0.273175 -0.00802731 -2.56983e-21)
(0.356168 -0.0674575 -7.52755e-22)
(0.473199 0.0392541 -1.63443e-21)
(0.385537 -0.041383 2.76479e-22)
(0.431294 0.0324019 -2.46095e-22)
(0.491354 0.0326008 1.28489e-21)
(0.416343 -0.0115018 1.54719e-20)
(0.531393 0.0290857 7.2443e-23)
(0.435895 -0.0150762 1.68654e-20)
(0.409498 -0.0526969 3.18751e-21)
(0.62165 0.0798212 3.01736e-21)
(0.330731 -0.0232424 -1.17872e-20)
(0.586585 0.0186018 -1.3025e-21)
(0.85192 0.0763627 4.28727e-21)
(0.619802 0.0221287 3.65801e-21)
(0.635032 0.0788456 -9.1144e-22)
(0.216295 -0.00671915 -8.63369e-21)
(0.743594 0.0988687 2.30894e-21)
(0.665555 0.0143123 -8.91556e-21)
(0.275478 -0.0076192 -1.37011e-20)
(0.261935 0.0277349 1.97275e-21)
(0.711161 0.0198457 -5.20979e-21)
(0.802372 -0.0470412 4.09043e-21)
(0.451174 0.0276044 2.28005e-21)
(0.407776 0.0178077 1.18182e-21)
(0.399049 0.00965041 1.75801e-21)
(0.40438 0.000298801 -1.37057e-20)
(0.413616 -0.00810399 -1.09962e-20)
(0.510212 0.02372 -4.59378e-22)
(0.441647 -0.00960684 -1.50119e-20)
(0.548273 0.0200306 1.4401e-21)
(0.356709 -0.0366454 2.28699e-21)
(0.60477 0.0138853 2.38033e-22)
(0.430672 -0.0598304 -2.98194e-22)
(0.635114 0.0170242 2.46976e-21)
(0.67167 -0.0288014 -8.30037e-22)
(0.65448 -0.0426845 -2.9669e-21)
(0.683441 0.0122607 7.08771e-21)
(0.745257 0.0201404 -1.8572e-20)
(0.726154 0.0119353 6.74303e-21)
(0.676934 -0.0922557 2.2298e-21)
(0.769244 0.0862819 -8.83047e-22)
(0.582388 -0.00457498 -6.31289e-21)
(1.08243 -0.114313 1.98373e-22)
(0.808281 -0.0540364 -1.34405e-20)
(0.743409 0.0837237 3.73097e-21)
(0.760981 0.0145731 1.70889e-20)
(1.23101 -0.05033 -2.24686e-21)
(0.43621 -0.0339713 6.68546e-21)
(0.783053 0.0198494 3.79169e-21)
(0.399555 0.0256988 5.1778e-21)
(0.381628 0.00793503 1.1197e-21)
(0.55046 0.0332021 -1.85954e-21)
(0.809756 0.0133932 -4.10614e-21)
(0.783512 0.0860984 2.21578e-21)
(1.14539 -0.00687947 -8.85149e-22)
(0.357657 -0.0579731 -2.46431e-21)
(0.430854 -0.080333 -1.68665e-21)
(0.46394 -0.00614392 2.40182e-20)
(0.987036 -0.0995068 -1.42296e-21)
(0.431635 0.000347693 -1.14458e-21)
(0.854249 0.0188684 -6.77695e-21)
(0.673996 -0.014649 -1.33187e-21)
(1.12772 -0.0215579 -1.7952e-21)
(0.825604 0.0902786 -3.50791e-21)
(0.365122 -0.010467 -4.44241e-23)
(0.667553 0.0505709 -5.1369e-21)
(0.489786 -0.019032 -2.68376e-21)
(0.804002 0.0287912 2.04174e-21)
(1.10139 -0.0912967 1.02215e-22)
(0.987791 0.0989183 4.77319e-21)
(1.09798 -0.126042 -1.2937e-21)
(0.881917 0.0237788 -4.64289e-21)
(0.529491 0.0800768 -2.87443e-22)
(0.315478 -0.30448 -8.79659e-22)
(0.970358 -0.113387 2.343e-21)
(0.846608 0.0333957 -6.37096e-22)
(0.454451 -0.00984208 8.17776e-21)
(0.90022 0.0199088 1.00789e-20)
(0.971954 0.091648 3.62452e-23)
(1.06641 0.0791277 1.2751e-21)
(0.233672 -0.117301 -9.68577e-21)
(0.862794 0.0807487 -1.58448e-21)
(1.04815 -0.152228 -1.35951e-22)
(0.23049 0.000262169 4.27834e-21)
(0.756238 0.0858996 -7.78354e-22)
(0.312641 -0.265424 4.43541e-22)
(0.332494 -0.0340841 -8.06773e-21)
(0.384405 -0.0492269 -8.21857e-21)
(0.406315 -0.00504816 -8.02676e-21)
(0.399716 0.00401218 -1.67884e-20)
(0.434962 -0.00226257 3.84125e-20)
(0.842591 0.0716289 2.70213e-21)
(0.527338 0.0163606 -6.98318e-22)
(0.458757 0.0599451 -9.22006e-22)
(0.3638 0.0206366 5.63035e-21)
(0.566318 0.014214 -2.56274e-21)
(0.473332 0.116236 -6.0979e-22)
(0.653155 0.0130999 -1.42185e-22)
(0.17772 -0.0394878 -3.10576e-20)
(0.693175 0.0174294 -5.92256e-21)
(0.955075 0.0192279 2.13695e-21)
(0.420421 -0.00273275 -7.60349e-21)
(0.409197 0.0036016 6.91815e-21)
(0.322431 -0.0115137 1.69856e-20)
(0.39004 0.0792597 -3.85189e-21)
(0.44735 -0.0642589 4.8908e-21)
(1.0331 0.0892557 -1.04585e-21)
(0.280676 -0.0446232 1.66168e-20)
(0.413472 0.0894459 -1.26693e-21)
(0.656822 0.0667061 -4.211e-21)
(0.740554 0.00676152 -4.99723e-22)
(0.645008 0.00827952 -1.04958e-21)
(0.0606126 -0.0803415 -3.2704e-22)
(1.1748 0.128613 1.11268e-22)
(0.449107 -0.0522665 -3.64074e-21)
(0.921855 0.0290584 1.07877e-21)
(0.774113 0.115894 7.77391e-22)
(0.768265 0.039747 -8.73763e-21)
(0.902187 0.0358363 -4.70478e-21)
(0.939056 0.0233858 -9.3884e-21)
(0.774327 0.0076139 -2.05146e-20)
(0.785365 -0.0576895 8.76088e-22)
(0.666972 -0.0424406 2.45069e-21)
(0.847784 -0.0349139 5.74911e-21)
(0.867409 0.021593 5.27058e-21)
(0.827478 -0.0553961 -4.35617e-21)
(0.370665 -0.0332907 8.34067e-21)
(0.568094 0.0394048 2.0648e-22)
(0.992534 -0.0504925 -7.76558e-21)
(0.681634 0.0378431 -5.52083e-22)
(0.735914 0.0363551 4.51405e-21)
(0.809349 -0.0633323 -2.59784e-21)
(0.42755 -0.000138189 -1.65545e-20)
(0.473444 0.0936201 4.4288e-22)
(0.386373 0.0661572 -1.27499e-21)
(0.548015 0.0841869 3.58279e-22)
(0.82527 0.0717164 4.99075e-21)
(1.00979 0.0937882 -2.14317e-21)
(0.798383 0.0866007 -6.35421e-22)
(0.866913 -0.0412139 -1.09753e-21)
(0.252543 0.0162704 -5.24359e-21)
(0.338208 -0.0443301 1.49423e-20)
(0.405015 0.00555965 -4.21186e-21)
(0.563019 -0.0709773 -1.2084e-21)
(0.960606 0.0297374 9.17967e-21)
(0.552896 -0.000437565 -3.85497e-22)
(0.329789 -0.420981 1.16087e-21)
(0.461772 0.0921202 -1.30011e-21)
(0.55808 0.131372 1.6142e-22)
(0.468959 0.132241 4.30447e-22)
(0.807808 0.147322 3.85478e-22)
(0.7319 0.135692 8.36244e-22)
(0.416267 -0.0884055 -2.55586e-21)
(0.675334 -0.103048 -1.51192e-21)
(0.68243 0.128666 5.05436e-23)
(0.897778 0.156552 -1.56672e-21)
(0.581712 -0.105473 -3.17784e-22)
(0.853803 0.151524 1.23919e-21)
(0.74621 -0.106751 2.08284e-21)
(0.831542 0.149174 -1.11482e-21)
(0.875497 0.15227 -4.23218e-21)
(0.920626 0.16134 -6.20412e-23)
(0.658869 0.125567 2.34168e-22)
(0.558901 -0.1054 -1.63729e-22)
(0.711506 -0.104629 1.50483e-21)
(0.706513 0.131692 1.17644e-21)
(0.372345 -0.0729478 1.7677e-21)
(0.821335 0.0414863 4.12582e-21)
(0.764895 -0.00452052 -3.35892e-21)
(0.27928 -0.122065 -4.20442e-21)
(0.431482 -0.00167393 -1.45954e-20)
(0.965826 -0.128246 -4.56214e-21)
(1.15531 0.135836 -8.52225e-22)
(0.886758 0.0605913 -9.56294e-21)
(0.294733 -0.0288293 2.61604e-21)
(0.398967 0.0116571 5.50042e-22)
(0.36625 0.0564458 -7.28016e-22)
(0.418599 0.0178538 -1.5289e-21)
(0.629517 0.0655886 -1.48971e-21)
(0.5949 0.128537 4.17885e-22)
(0.568414 0.130392 8.23945e-23)
(0.478613 0.134807 -1.03272e-21)
(0.405653 0.107551 -2.26702e-21)
(0.620435 0.00972973 1.37075e-21)
(1.04362 0.0930731 -4.13494e-21)
(0.812692 0.0699878 -1.75731e-21)
(0.840964 -0.0845726 -9.09184e-21)
(0.503284 -0.0957359 -1.47836e-22)
(1.33036 0.0305315 -4.96203e-23)
(0.236847 -0.149378 -2.4793e-22)
(1.30644 0.0146839 1.00875e-21)
(0.355411 0.0774703 -1.60905e-22)
(0.768623 0.0715291 3.4821e-21)
(0.427584 0.000495602 4.65667e-21)
(0.997132 0.0215969 -3.51389e-21)
(0.795025 -0.069396 9.40079e-21)
(0.436336 -0.0946642 -4.81592e-22)
(0.513311 -0.104375 -1.47993e-22)
(0.260904 -0.0319204 -2.76071e-21)
(0.32972 -0.0595866 5.90166e-23)
(0.493564 -0.104499 -1.24121e-21)
(0.223256 -0.0173529 -2.30696e-21)
(0.649464 -0.101807 3.31643e-21)
(0.603962 -0.103301 4.58431e-22)
(0.770783 -0.109245 -4.11765e-21)
(0.800581 -0.110903 1.05375e-20)
(0.852441 -0.117243 -3.51786e-21)
(0.878017 -0.11896 -1.57819e-21)
(0.683848 -0.0811585 9.95867e-22)
(0.826773 0.0138635 7.16905e-22)
(0.96501 0.0100703 -6.17356e-21)
(0.369428 -0.0570051 1.84147e-21)