/*--------------------------------*- C++ -*----------------------------------*\
  =========                 |
  \\      /  F ield         | OpenFOAM: The Open Source CFD Toolbox
   \\    /   O peration     | Website:  https://openfoam.org
    \\  /    A nd           | Version:  10
     \\/     M anipulation  |
\*---------------------------------------------------------------------------*/
FoamFile
{
    format      ascii;
    class       volScalarField;
    location    "150";
    object      epsilon;
}
// * * * * * * * * * * * * * * * * * * * * * * * * * * * * * * * * * * * * * //

dimensions      [0 2 -3 0 0 0 0];

internalField   nonuniform List<scalar> 
10435
(
2.74673e-07
2.37416e-07
2.96365e-06
7.48041e-07
3.48928e-06
8.51132e-06
1.89797e-06
5.12889e-05
9.44568e-05
1.12258e-05
3.31918e-07
1.00534e-05
1.0916e-05
0.000263878
0.000119541
2.46395e-05
0.000386891
1.7065e-05
8.96178e-05
2.52873e-07
3.30527e-05
8.93907e-07
1.23033e-05
7.27535e-05
8.52585e-06
6.17832e-05
0.000173922
4.43654e-06
0.000187469
1.5003e-05
8.31438e-06
4.82087e-07
6.63826e-05
0.000316998
7.23155e-05
4.11983e-07
5.10781e-05
0.000292405
2.15544e-05
7.88226e-05
1.3031e-05
3.70125e-06
0.000500735
3.27856e-07
2.61736e-05
7.84952e-05
1.04153e-05
0.000498857
9.9085e-05
1.04795e-06
5.19836e-05
7.14251e-06
1.91613e-05
7.71834e-05
3.12513e-05
0.000107941
6.35825e-05
0.000416979
0.000461678
8.3309e-05
2.81734e-05
2.46447e-07
0.00043041
6.53727e-06
1.88818e-05
4.88066e-06
0.000477525
0.000663371
3.24683e-05
6.1102e-05
7.23068e-05
0.000109652
0.000279002
5.33346e-06
2.59798e-05
0.00035095
4.49777e-05
2.68536e-06
7.35011e-05
9.38905e-06
5.24352e-06
2.95622e-07
1.70133e-05
9.0978e-05
1.12814e-05
6.93971e-07
3.94358e-07
3.13253e-07
4.03995e-06
2.9907e-07
4.22961e-07
6.6832e-07
2.45195e-07
1.45587e-06
2.66373e-07
7.89434e-07
1.15181e-06
5.24915e-05
0.000390643
2.02617e-06
1.47595e-05
3.95643e-06
6.54951e-07
2.70355e-07
4.98968e-06
4.62158e-07
2.26354e-07
2.30395e-06
2.10789e-05
1.94702e-06
5.29483e-07
2.93305e-06
4.05779e-07
7.13927e-07
1.18663e-06
5.03806e-07
3.24879e-06
4.04385e-07
2.91122e-07
3.44657e-06
4.62376e-06
0.00025547
2.98722e-07
1.70379e-05
6.80631e-07
4.61654e-05
2.09555e-06
0.000192963
3.59151e-06
0.000125506
8.91397e-05
4.17248e-07
4.07693e-05
5.42144e-05
0.000157682
1.94332e-05
8.42196e-07
1.35998e-06
2.57834e-07
3.34089e-07
2.67498e-07
1.18361e-05
0.000470735
8.26718e-06
1.79631e-06
0.000192836
2.9211e-06
6.8107e-06
0.000438037
1.10475e-05
0.000349688
3.35244e-05
2.92814e-07
1.10158e-05
8.00611e-06
0.000149726
1.16384e-06
2.60038e-07
9.4089e-06
2.24085e-07
1.67119e-05
0.00017101
5.68245e-07
1.28881e-05
4.78251e-06
5.15889e-06
8.07537e-05
4.66563e-06
2.98218e-05
6.90845e-06
7.70608e-06
0.000187634
0.000127466
8.57385e-05
1.89227e-05
2.10091e-07
2.91447e-07
0.000615665
3.19523e-07
0.000332591
2.61297e-07
7.10126e-06
1.10452e-05
3.71499e-05
1.4824e-05
0.000407155
0.000351903
7.0287e-06
4.60561e-06
7.34923e-06
6.53724e-06
1.61669e-05
0.000111627
3.97129e-07
1.93929e-06
1.72358e-05
0.000441467
1.67171e-06
0.000598443
3.74913e-05
4.53479e-06
0.000351061
7.13455e-06
0.000438123
4.76139e-06
1.29966e-06
3.80303e-07
2.5779e-06
0.000501484
3.74872e-06
0.00023682
6.36956e-06
7.40154e-06
1.77744e-05
0.000207226
0.000320843
1.23347e-06
4.43789e-05
6.42527e-05
0.00029026
0.000257677
0.000564092
0.000576315
5.12756e-05
8.88339e-05
5.7582e-05
4.52418e-05
5.528e-06
7.31815e-06
0.000263147
0.00066272
7.27615e-05
5.52186e-05
3.66403e-05
0.000182225
0.000476145
6.38326e-05
7.74469e-05
5.46845e-05
6.87003e-06
2.74595e-07
6.36937e-05
7.46485e-05
9.95216e-05
8.46192e-07
8.62957e-05
2.36717e-06
1.78129e-05
7.1299e-05
2.24219e-07
7.03312e-05
1.37971e-06
1.22189e-05
7.49358e-06
6.97438e-06
5.54908e-06
6.20818e-05
3.31948e-06
0.000127187
0.000409858
1.71578e-06
7.07152e-06
6.03246e-05
3.17734e-05
5.3717e-07
0.000590611
2.6524e-07
9.31912e-06
2.68885e-05
2.15689e-06
1.23288e-06
3.62221e-05
1.34541e-05
8.13024e-06
7.12728e-05
5.07039e-06
0.00018582
2.16959e-06
1.88496e-05
5.11417e-05
1.1301e-05
0.000535379
1.17441e-06
2.41594e-05
6.15644e-07
2.86255e-05
5.49496e-06
3.38303e-05
0.000113558
0.000325597
9.99515e-06
2.81857e-07
0.000509238
2.37566e-05
2.35022e-05
7.69863e-05
0.000319833
3.45522e-07
1.26645e-06
7.07288e-06
0.00065429
4.30418e-05
1.50411e-06
8.48917e-05
7.61581e-07
0.000175996
0.000511927
3.48326e-05
6.5912e-06
0.00013892
2.42984e-07
0.000218718
2.70193e-07
6.19555e-06
9.0612e-05
7.50402e-05
4.40844e-05
9.3131e-06
0.000669505
7.51015e-06
6.04312e-06
0.000300355
3.78586e-07
1.60615e-05
6.24052e-05
7.74171e-06
7.65723e-05
2.46425e-06
0.000606538
0.000279814
8.80544e-05
0.000424669
0.000159925
1.62413e-06
1.88331e-05
0.000542984
7.60641e-05
7.24423e-05
0.00025467
0.000123255
8.19926e-05
0.000131085
2.55329e-05
0.000114353
0.000100714
0.000251949
0.000613375
0.000152416
1.70839e-05
7.53285e-05
0.000195395
7.38027e-06
0.00013517
4.13901e-06
7.06083e-05
9.61924e-05
1.05646e-05
7.55685e-06
8.75225e-05
0.00020554
7.66207e-05
5.12047e-05
0.000116613
2.6162e-05
0.0002082
9.009e-05
0.000583424
1.88242e-05
9.37147e-05
8.81237e-05
4.18045e-05
9.89293e-05
1.27517e-05
0.000104867
3.94496e-05
0.000139107
0.000332089
0.000165527
0.000163702
7.06152e-05
0.000151089
3.532e-05
6.20026e-05
0.000626456
3.27592e-05
7.8903e-05
6.26796e-06
8.61698e-06
8.76032e-05
2.68468e-06
8.28479e-05
0.000136734
0.000254811
0.000153894
7.41322e-05
1.80518e-06
0.00011785
1.37536e-05
0.000138968
0.000340791
0.000107178
0.00048285
6.5059e-05
8.1738e-06
0.000239479
4.94967e-05
3.09116e-05
0.000136066
7.56724e-05
0.00013489
0.000109194
0.000124238
8.16739e-05
8.78385e-05
0.000113751
0.000562561
0.000192657
2.8468e-06
7.28878e-05
8.51619e-05
0.000200616
0.000368021
1.85095e-05
7.82732e-05
3.06094e-05
0.000118795
0.000219164
6.18125e-07
6.12815e-07
4.62783e-07
2.64211e-07
1.53399e-07
1.05206e-07
8.56762e-08
7.70842e-08
6.51315e-08
5.1759e-07
4.40883e-07
3.38549e-07
2.26962e-07
1.54404e-07
1.14474e-07
9.2591e-08
7.96713e-08
6.78889e-08
3.93379e-07
3.15631e-07
2.47919e-07
1.86673e-07
1.43403e-07
1.14911e-07
9.57779e-08
8.23735e-08
7.07553e-08
2.96761e-07
2.32921e-07
1.88561e-07
1.55931e-07
1.31787e-07
1.12861e-07
9.72085e-08
8.39682e-08
7.12547e-08
2.32177e-07
1.80368e-07
1.50616e-07
1.33877e-07
1.21437e-07
1.09334e-07
9.65768e-08
8.34603e-08
6.91199e-08
1.90367e-07
1.46717e-07
1.25417e-07
1.16947e-07
1.1115e-07
1.03456e-07
9.28826e-08
8.00756e-08
6.47851e-08
1.61804e-07
1.24158e-07
1.07196e-07
1.02253e-07
9.95722e-08
9.43816e-08
8.54552e-08
7.34251e-08
5.8416e-08
1.41202e-07
1.08349e-07
9.29929e-08
8.85926e-08
8.65421e-08
8.23592e-08
7.46248e-08
6.37872e-08
5.00764e-08
1.27726e-07
9.77989e-08
8.22011e-08
7.65244e-08
7.34227e-08
6.90857e-08
6.20361e-08
5.24562e-08
4.04217e-08
1.22203e-07
9.31135e-08
7.59634e-08
6.78702e-08
6.26175e-08
5.72292e-08
5.02798e-08
4.16371e-08
3.10919e-08
1.26552e-07
9.69678e-08
7.69668e-08
6.53905e-08
5.6867e-08
4.95853e-08
4.20095e-08
3.36806e-08
2.41027e-08
1.47569e-07
1.15793e-07
9.05142e-08
7.28756e-08
5.95003e-08
4.89114e-08
3.94702e-08
3.03462e-08
2.07275e-08
2.00822e-07
1.63009e-07
1.28421e-07
9.93306e-08
7.68906e-08
5.9638e-08
4.56747e-08
3.35402e-08
2.1873e-08
3.06172e-07
2.692e-07
2.16245e-07
1.6444e-07
1.23735e-07
9.2512e-08
6.8114e-08
4.80824e-08
3.01493e-08
5.30392e-07
4.85848e-07
3.94994e-07
3.02583e-07
2.29538e-07
1.7176e-07
1.25297e-07
8.66116e-08
5.22435e-08
9.54285e-07
8.5474e-07
6.97617e-07
5.48062e-07
4.30988e-07
3.34159e-07
2.50492e-07
1.75749e-07
1.06248e-07
1.60214e-06
1.3691e-06
1.12329e-06
9.10708e-07
7.47021e-07
6.06342e-07
4.75433e-07
3.47902e-07
2.20255e-07
2.41245e-06
1.99519e-06
1.65531e-06
1.38358e-06
1.17589e-06
9.9105e-07
8.08692e-07
6.18242e-07
4.13547e-07
3.33633e-06
2.71454e-06
2.28627e-06
1.96344e-06
1.7136e-06
1.48282e-06
1.24525e-06
9.86527e-07
6.95981e-07
4.32126e-06
3.5272e-06
3.02499e-06
2.65873e-06
2.36446e-06
2.08278e-06
1.78533e-06
1.45576e-06
1.07958e-06
5.31812e-06
4.45547e-06
3.90428e-06
3.49753e-06
3.15083e-06
2.81147e-06
2.45183e-06
2.05296e-06
1.59128e-06
6.40446e-06
5.59598e-06
5.01453e-06
4.55275e-06
4.13713e-06
3.73425e-06
3.32094e-06
2.87274e-06
2.34718e-06
7.95753e-06
7.21111e-06
6.56467e-06
5.98992e-06
5.47479e-06
5.0086e-06
4.57677e-06
4.14543e-06
3.63737e-06
1.07163e-05
9.8187e-06
8.94585e-06
8.13704e-06
7.47738e-06
6.97375e-06
6.63306e-06
6.42133e-06
6.2227e-06
1.5874e-05
1.42368e-05
1.28104e-05
1.15754e-05
1.0747e-05
1.03206e-05
1.03742e-05
1.09988e-05
1.20513e-05
1.62279e-05
1.26106e-05
9.9973e-06
8.30044e-06
7.45494e-06
7.43207e-06
8.28012e-06
1.01118e-05
1.30409e-05
1.7042e-05
2.18602e-05
2.70336e-05
3.20009e-05
3.61547e-05
3.89155e-05
4.00135e-05
3.96233e-05
3.82879e-05
3.66738e-05
3.51722e-05
3.39869e-05
3.31732e-05
3.26794e-05
3.23684e-05
3.19769e-05
3.08779e-05
2.77242e-05
2.28113e-05
1.73777e-05
1.23666e-05
8.08072e-06
4.87663e-06
2.83407e-06
1.61853e-06
8.93414e-07
4.93358e-07
2.86698e-07
1.82837e-07
1.32919e-07
1.11461e-07
1.06907e-07
1.14871e-07
1.34129e-07
1.64167e-07
2.03556e-07
2.4907e-07
2.96491e-07
3.43301e-07
3.85203e-07
4.19018e-07
4.44914e-07
4.64993e-07
4.80924e-07
4.93531e-07
5.0366e-07
5.12865e-07
5.23757e-07
5.39558e-07
5.62297e-07
1.90285e-05
1.57912e-05
1.37659e-05
1.2949e-05
1.33818e-05
1.52108e-05
1.87255e-05
2.43314e-05
3.24254e-05
4.31703e-05
5.62402e-05
7.06502e-05
8.46656e-05
9.57088e-05
0.000100339
9.76257e-05
8.83531e-05
7.51183e-05
6.10306e-05
4.90272e-05
3.96025e-05
3.27587e-05
2.80596e-05
2.50345e-05
2.31108e-05
2.13031e-05
1.90929e-05
1.6393e-05
1.33522e-05
1.02546e-05
7.40077e-06
5.02846e-06
3.22506e-06
1.96036e-06
1.14888e-06
6.73149e-07
4.1281e-07
2.77552e-07
2.11912e-07
1.89967e-07
1.99659e-07
2.37064e-07
3.03388e-07
3.94457e-07
4.99819e-07
6.01225e-07
6.84396e-07
7.61931e-07
8.56024e-07
9.55358e-07
1.0558e-06
1.14165e-06
1.18186e-06
1.16635e-06
1.1021e-06
1.00696e-06
9.04332e-07
8.14427e-07
7.48053e-07
1.92258e-05
1.54639e-05
1.28782e-05
1.14729e-05
1.12515e-05
1.22645e-05
1.4636e-05
1.85502e-05
2.41655e-05
3.14933e-05
4.0266e-05
4.9845e-05
5.92202e-05
6.71187e-05
7.2206e-05
7.3528e-05
7.07191e-05
6.43119e-05
5.54513e-05
4.55304e-05
3.60869e-05
2.83388e-05
2.27224e-05
1.89987e-05
1.6598e-05
1.4892e-05
1.33913e-05
1.18237e-05
1.01049e-05
8.27726e-06
6.45545e-06
4.77586e-06
3.34584e-06
2.22375e-06
1.42079e-06
9.01343e-07
5.96456e-07
4.34649e-07
3.63815e-07
3.54259e-07
3.91716e-07
4.67152e-07
5.6663e-07
6.685e-07
7.51125e-07
8.03893e-07
8.32226e-07
8.52405e-07
8.80648e-07
9.26437e-07
9.8852e-07
1.04812e-06
1.07259e-06
1.03573e-06
9.38728e-07
8.1117e-07
6.9045e-07
6.00814e-07
5.48062e-07
1.86271e-05
1.46103e-05
1.17902e-05
1.01107e-05
9.49467e-06
9.84835e-06
1.10958e-05
1.31665e-05
1.59728e-05
1.93873e-05
2.32134e-05
2.71531e-05
3.08006e-05
3.36854e-05
3.53835e-05
3.56617e-05
3.44662e-05
3.20041e-05
2.86479e-05
2.48148e-05
2.09394e-05
1.74261e-05
1.45477e-05
1.23822e-05
1.0831e-05
9.69923e-06
8.77892e-06
7.90115e-06
6.9591e-06
5.91676e-06
4.80568e-06
3.70463e-06
2.70696e-06
1.88897e-06
1.28674e-06
8.88885e-07
6.52572e-07
5.30236e-07
4.86001e-07
4.97003e-07
5.46197e-07
6.14689e-07
6.79906e-07
7.21807e-07
7.31409e-07
7.13525e-07
6.82531e-07
6.5478e-07
6.4155e-07
6.45029e-07
6.56776e-07
6.58434e-07
6.28887e-07
5.58678e-07
4.61497e-07
3.66976e-07
2.98184e-07
2.61369e-07
2.5226e-07
1.5473e-05
1.15845e-05
8.71534e-06
6.78031e-06
5.68409e-06
5.29809e-06
5.48321e-06
6.12643e-06
7.13593e-06
8.42742e-06
9.91512e-06
1.15029e-05
1.30796e-05
1.45237e-05
1.572e-05
1.65805e-05
1.70554e-05
1.71252e-05
1.67727e-05
1.59903e-05
1.47971e-05
1.32689e-05
1.15604e-05
9.8758e-06
8.3872e-06
7.16911e-06
6.19569e-06
5.38353e-06
4.64033e-06
3.90264e-06
3.15693e-06
2.43852e-06
1.80725e-06
1.31163e-06
9.65265e-07
7.4991e-07
6.34875e-07
5.92541e-07
6.01918e-07
6.44457e-07
6.99227e-07
7.43408e-07
7.58862e-07
7.39022e-07
6.90451e-07
6.28419e-07
5.69542e-07
5.25292e-07
4.98783e-07
4.84761e-07
4.71426e-07
4.44115e-07
3.92052e-07
3.17095e-07
2.37243e-07
1.74378e-07
1.37127e-07
1.22408e-07
1.24647e-07
1.1349e-05
8.03267e-06
5.5796e-06
3.89862e-06
2.88858e-06
2.40021e-06
2.27943e-06
2.4205e-06
2.76351e-06
3.2743e-06
3.92889e-06
4.70819e-06
5.59485e-06
6.56994e-06
7.60821e-06
8.67264e-06
9.70872e-06
1.06408e-05
1.13693e-05
1.17783e-05
1.17566e-05
1.12279e-05
1.02065e-05
8.82982e-06
7.32561e-06
5.9166e-06
4.72845e-06
3.77438e-06
3.0026e-06
2.35538e-06
1.80455e-06
1.35336e-06
1.01343e-06
7.82813e-07
6.44657e-07
5.779e-07
5.6449e-07
5.89848e-07
6.39349e-07
6.95095e-07
7.37339e-07
7.50214e-07
7.27611e-07
6.7514e-07
6.07378e-07
5.41922e-07
4.92763e-07
4.6574e-07
4.57388e-07
4.56192e-07
4.45825e-07
4.1115e-07
3.46138e-07
2.607e-07
1.79167e-07
1.22195e-07
9.18442e-08
8.08205e-08
8.28124e-08
7.27079e-06
4.83961e-06
3.13317e-06
2.05906e-06
1.48481e-06
1.24668e-06
1.22098e-06
1.34268e-06
1.57789e-06
1.90462e-06
2.30432e-06
2.76445e-06
3.28322e-06
3.87102e-06
4.546e-06
5.32293e-06
6.19711e-06
7.12778e-06
8.03223e-06
8.79027e-06
9.26123e-06
9.31274e-06
8.85926e-06
7.91495e-06
6.61698e-06
5.19476e-06
3.87102e-06
2.77912e-06
1.94931e-06
1.35483e-06
9.52404e-07
6.96576e-07
5.45738e-07
4.67006e-07
4.38208e-07
4.45841e-07
4.8024e-07
5.31643e-07
5.8808e-07
6.34744e-07
6.58104e-07
6.51049e-07
6.15976e-07
5.64233e-07
5.12358e-07
4.76784e-07
4.68832e-07
4.90915e-07
5.33633e-07
5.74739e-07
5.85589e-07
5.44571e-07
4.49561e-07
3.23696e-07
2.07737e-07
1.30865e-07
9.13089e-08
7.55165e-08
7.37655e-08
4.12337e-06
2.60049e-06
1.6484e-06
1.13533e-06
9.15918e-07
8.82174e-07
9.78426e-07
1.1761e-06
1.45071e-06
1.76945e-06
2.0954e-06
2.40041e-06
2.67505e-06
2.93275e-06
3.20757e-06
3.54521e-06
3.98529e-06
4.53991e-06
5.18152e-06
5.83624e-06
6.39514e-06
6.72703e-06
6.71292e-06
6.27725e-06
5.42075e-06
4.27292e-06
3.0478e-06
1.97972e-06
1.21043e-06
7.45471e-07
4.97573e-07
3.75593e-07
3.2243e-07
3.08685e-07
3.1952e-07
3.47589e-07
3.86693e-07
4.29243e-07
4.67925e-07
4.93014e-07
4.9726e-07
4.79438e-07
4.46228e-07
4.1043e-07
3.87346e-07
3.91352e-07
4.34288e-07
5.19614e-07
6.32119e-07
7.3333e-07
7.77613e-07
7.36093e-07
6.10293e-07
4.36815e-07
2.73634e-07
1.63851e-07
1.06784e-07
8.23106e-08
7.56021e-08
1.78606e-06
1.10465e-06
7.32867e-07
5.59829e-07
5.12778e-07
5.56813e-07
6.80364e-07
8.7542e-07
1.1322e-06
1.44123e-06
1.73364e-06
1.96941e-06
2.12609e-06
2.19854e-06
2.21738e-06
2.22212e-06
2.28341e-06
2.46705e-06
2.77141e-06
3.1626e-06
3.58079e-06
3.93812e-06
4.14191e-06
4.07317e-06
3.65284e-06
2.88871e-06
1.95607e-06
1.14027e-06
6.2501e-07
3.73214e-07
2.67448e-07
2.27692e-07
2.19854e-07
2.28315e-07
2.45008e-07
2.64597e-07
2.86098e-07
3.09859e-07
3.29322e-07
3.37442e-07
3.32443e-07
3.15485e-07
2.92727e-07
2.74306e-07
2.68815e-07
2.8524e-07
3.29726e-07
4.05705e-07
5.04188e-07
5.91013e-07
6.27746e-07
5.89334e-07
4.81455e-07
3.59084e-07
2.37911e-07
1.49293e-07
9.85481e-08
7.53252e-08
6.76458e-08
8.07127e-05
7.70106e-05
7.40779e-05
7.11647e-05
6.80943e-05
6.47753e-05
6.08905e-05
5.60741e-05
4.99646e-05
4.32091e-05
3.90758e-05
3.90088e-05
4.27919e-05
4.70547e-05
4.9771e-05
5.20323e-05
5.40364e-05
5.53741e-05
5.58749e-05
5.55659e-05
5.43452e-05
5.18556e-05
4.74034e-05
4.00248e-05
2.81564e-05
7.08533e-05
6.89758e-05
6.7131e-05
6.55957e-05
6.37477e-05
6.13426e-05
5.80299e-05
5.36003e-05
4.81595e-05
4.26495e-05
3.84491e-05
3.62203e-05
3.58752e-05
3.66338e-05
3.78618e-05
3.94081e-05
4.13334e-05
4.34249e-05
4.54238e-05
4.70627e-05
4.80508e-05
4.7966e-05
4.60264e-05
4.08865e-05
3.02233e-05
6.98655e-05
6.48628e-05
6.17593e-05
5.95776e-05
5.74982e-05
5.48594e-05
5.12732e-05
4.67231e-05
4.16113e-05
3.67016e-05
3.27076e-05
2.999e-05
2.85785e-05
2.82798e-05
2.89385e-05
3.04948e-05
3.28639e-05
3.58288e-05
3.90734e-05
4.22487e-05
4.49637e-05
4.66566e-05
4.63741e-05
4.23738e-05
3.17058e-05
7.37415e-05
6.28061e-05
5.64621e-05
5.24875e-05
4.94383e-05
4.62913e-05
4.25047e-05
3.8044e-05
3.33034e-05
2.88841e-05
2.5294e-05
2.28074e-05
2.15015e-05
2.13299e-05
2.22323e-05
2.41608e-05
2.70181e-05
3.06003e-05
3.45957e-05
3.8637e-05
4.22933e-05
4.49422e-05
4.55746e-05
4.23221e-05
3.18708e-05
8.34399e-05
6.4883e-05
5.39661e-05
4.72455e-05
4.25727e-05
3.85552e-05
3.44545e-05
3.01056e-05
2.57696e-05
2.1884e-05
1.8818e-05
1.67685e-05
1.57926e-05
1.58525e-05
1.69114e-05
1.89292e-05
2.18193e-05
2.53894e-05
2.93483e-05
3.33513e-05
3.69949e-05
3.96907e-05
4.05039e-05
3.76728e-05
2.8118e-05
9.85902e-05
7.11363e-05
5.43907e-05
4.41044e-05
3.73348e-05
3.22065e-05
2.76967e-05
2.34366e-05
1.95059e-05
1.6174e-05
1.36764e-05
1.21071e-05
1.14546e-05
1.16503e-05
1.26603e-05
1.4453e-05
1.6956e-05
2.00066e-05
2.33604e-05
2.67314e-05
2.97884e-05
3.2038e-05
3.27118e-05
3.0308e-05
2.2212e-05
0.000119621
8.19434e-05
5.77676e-05
4.3002e-05
3.37311e-05
2.73399e-05
2.23716e-05
1.81793e-05
1.46332e-05
1.18303e-05
9.86174e-06
8.71643e-06
8.30052e-06
8.48809e-06
9.28146e-06
1.06513e-05
1.2548e-05
1.48493e-05
1.73676e-05
1.98836e-05
2.21436e-05
2.37586e-05
2.41188e-05
2.20012e-05
1.55077e-05
0.000146047
9.57996e-05
6.26744e-05
4.27744e-05
3.089e-05
2.33319e-05
1.80258e-05
1.39808e-05
1.08382e-05
8.53739e-06
7.02552e-06
6.17181e-06
5.90268e-06
6.05043e-06
6.57837e-06
7.49126e-06
8.76752e-06
1.03282e-05
1.20383e-05
1.37375e-05
1.52385e-05
1.62752e-05
1.63752e-05
1.45741e-05
9.66373e-06
0.000170038
0.000107483
6.55045e-05
4.0889e-05
2.70337e-05
1.89203e-05
1.37326e-05
1.01119e-05
7.49669e-06
5.73401e-06
4.65854e-06
4.09971e-06
3.93712e-06
3.98964e-06
4.26359e-06
4.77153e-06
5.50688e-06
6.43074e-06
7.44162e-06
8.41641e-06
9.18191e-06
9.64566e-06
9.41735e-06
7.75292e-06
4.55216e-06
1.61549e-05
1.45821e-05
2.6287e-06
1.62954e-06
4.2896e-08
1.06728e-07
1.37985e-05
2.76226e-07
5.45944e-06
1.48904e-07
0.00574159
6.10929e-08
1.72505e-05
4.52202e-08
5.38682e-05
5.0574e-07
0.00968348
1.37829e-06
3.85169e-08
0.000291286
2.93486e-06
2.31031e-07
8.31116e-05
8.28899e-08
1.90156e-07
2.10574e-08
1.95075e-07
2.04992e-06
1.02638e-05
0.00151144
5.06408e-08
1.98845e-08
2.04841e-05
9.44221e-06
0.000330096
5.99031e-08
1.36206e-05
5.38715e-05
1.72074e-05
1.28236e-07
0.00028671
4.79729e-08
2.46733e-08
5.70787e-05
4.65552e-06
1.9305e-07
0.102395
0.00876867
1.06737e-05
1.93374e-05
0.135334
0.00058443
1.69095e-06
1.43681e-06
1.41415e-05
3.44378e-06
3.16811e-08
1.84149e-06
1.04837e-07
0.000269563
1.96804e-07
2.06708e-06
4.4212e-08
1.47207e-07
2.13687e-07
0.000191068
5.33032e-08
3.13557e-07
2.1126e-05
5.70165e-05
3.10898e-06
4.80343e-07
1.78017e-07
0.000345557
6.54022e-08
2.44752e-06
0.00026098
0.00335809
3.68166e-06
1.11093e-06
7.13046e-06
3.33727e-06
3.94963e-08
12.9552
4.06231e-08
2.74623e-07
1.6658e-07
0.00232366
2.56268e-05
1.24939e-07
4.6174e-07
1.1082e-08
1.91464e-07
6.35731e-08
6.8046e-08
0.00368304
2.25322e-08
0.199999
7.72011e-09
0.000301968
1.89212e-08
0.000247263
2.42278e-08
6.93206e-07
1.22717e-07
3.35886e-06
9.23944e-05
6.02454e-06
1.1666e-08
0.00293655
2.95496e-07
2.85832e-08
0.000239817
6.91882e-07
1.59054e-06
1.12461e-05
0.000178835
1.42163e-07
2.06017e-06
4.8192e-08
3.75915e-07
3.95358e-08
6.78993e-08
1.80113e-07
1.96826e-05
2.69353e-08
0.000566087
6.20275e-06
6.9036e-09
0.0113584
4.37674e-08
0.000133962
5.56303e-05
2.66387e-05
2.36267e-05
1.9371e-07
3.25757e-06
1.60519e-08
2.38496e-07
0.203292
6.19127e-07
8.87384e-06
0.000528236
3.56245e-07
8.61229e-06
7.07521e-07
1.21246e-06
9.90826e-06
5.08656e-07
0.000728118
1.64807e-07
4.28637e-08
1.55841e-06
0.000266907
9.98656e-08
10.9338
6.67961e-07
8.89808e-08
0.00144486
4.17898e-08
2.33804e-08
4.5941e-06
4.06766e-07
0.107903
5.33243e-07
12.8804
3.29481e-08
2.79368e-07
5.5161e-07
5.55488e-07
4.80123e-08
1.35517e-07
3.1642e-07
12.9876
6.39175e-09
1.39021e-06
2.4826e-05
2.8593e-05
4.53661e-05
4.76149e-07
7.16088e-05
1.56319e-08
1.55953e-06
7.9595e-05
0.000215023
1.43474e-08
11.8978
1.15648e-08
2.05197e-05
5.20964e-07
0.00147446
0.00051859
3.21931e-07
5.68197e-06
0.000111671
2.76541e-05
6.58381e-08
1.73422e-07
9.83929e-06
1.07321e-05
5.0799e-05
7.20612e-07
1.73796e-06
3.97611e-07
4.70613e-07
1.78808e-07
5.16603e-08
2.5037e-08
2.35139e-05
9.65073e-08
1.09784e-07
4.78988e-08
5.89636e-05
4.31623e-07
1.82078e-07
0.000281406
3.47499e-08
1.94633e-08
1.76624e-07
5.11493e-07
7.57888e-07
4.54789e-08
1.23821e-07
1.07444e-06
7.59202e-07
0.000243106
3.79505e-07
0.0080372
1.22281e-08
1.07094e-07
10.942
7.018e-08
1.55477e-08
3.76296e-08
1.66449e-05
1.34961e-07
0.000555594
1.38725e-06
8.1054e-05
0.000335475
2.43977e-08
1.81983e-07
4.99381e-07
7.53989e-05
2.07969e-07
8.9218e-08
2.92883e-08
2.25305e-05
5.03702e-07
1.20166e-07
1.30893e-08
3.51174e-06
1.21411e-07
1.62901e-05
1.04284e-08
3.94337e-07
0.00027086
0.000245625
0.00109506
3.96589e-08
3.83783e-07
5.83504e-09
3.12826e-07
9.47316e-08
0.000161796
1.58044e-07
2.35935e-07
1.06565e-06
1.00458e-05
2.52903e-07
6.33092e-06
4.74457e-07
5.33247e-09
1.8226e-08
7.73139e-08
7.93536e-07
1.12497e-07
0.000122151
2.52488e-08
0.00183543
0.00033617
1.75197e-07
2.76107e-07
2.34065e-07
5.28363e-05
2.56991e-07
3.52364e-06
2.57135e-07
0.000670112
0.00223113
0.000263565
3.17297e-07
2.72008e-08
0.00130184
2.95488e-05
0.000233805
5.438e-05
7.34775e-09
4.78374e-08
0.000230693
0.00110231
2.46643e-08
1.02376e-08
2.73522e-07
4.6451e-05
4.5195e-07
2.57654e-06
7.25074e-09
0.172823
2.32315e-06
4.81168e-07
9.07137e-07
3.55852e-05
1.29283e-08
6.49256e-09
3.80237e-06
0.0577989
1.71309e-07
2.02813e-07
2.56346e-05
0.000667088
2.64163e-07
1.02728e-08
5.36784e-08
1.23742e-07
1.62141e-07
0.000159435
7.04055e-06
7.84519e-09
2.30643e-06
5.25851e-07
9.42573e-05
7.21712e-07
1.44356e-07
0.00154227
5.19741e-07
8.12429e-08
4.43271e-08
8.90018e-08
3.27278e-07
8.02401e-08
1.34603e-07
0.000242031
4.1676e-07
8.26545e-05
3.69149e-08
3.68987e-08
7.53308e-09
2.90919e-07
7.69758
1.1564e-07
1.87174e-07
5.81921e-08
0.000610251
0.00102157
7.78333e-07
3.5749e-05
8.74783e-06
4.2989e-07
8.03117
2.99927e-05
6.03824e-05
1.97168e-08
0.000223186
7.14354e-08
2.9572e-07
2.15967e-07
0.0208992
2.12006e-07
1.76225e-05
7.44638e-07
0.000297534
1.27705e-05
3.5756e-05
1.55651e-05
1.04236e-07
7.02517e-08
4.80919e-07
2.97366e-08
1.31114e-07
4.5483e-05
1.51083e-07
1.48099e-05
9.22301e-05
2.04016e-05
3.63665e-05
5.24847e-07
7.00002e-05
0.00205764
0.00106869
1.58979e-06
1.91855e-07
1.6414e-06
2.17099e-05
7.01206e-05
1.14792e-07
4.50957e-07
1.26753e-05
6.49249e-08
1.07141e-05
3.04574e-07
5.39928e-08
3.32975e-08
1.79693e-05
1.66324e-07
4.75831e-09
4.55048e-05
2.31438e-06
1.8894e-07
2.28358e-08
1.66755e-05
2.61007e-07
0.000201934
2.12351e-07
2.00058e-07
5.37182e-07
6.98088e-06
7.40256
3.27531e-08
1.2598e-08
5.00898e-07
3.51812e-08
2.24255e-07
4.96312e-08
1.62428e-07
0.00404265
1.77974e-07
1.72174e-08
1.47288e-08
1.92627e-08
4.71848e-07
4.51037e-07
1.21605e-07
6.04521e-06
9.52211e-05
2.06074e-07
3.18187e-07
3.28879e-08
8.16108e-09
1.37004e-08
4.17101e-08
0.000323648
0.000585719
4.29305e-07
2.20118e-05
6.54508e-07
1.43508e-06
5.97143e-06
8.21386e-08
1.90361e-06
2.39455e-05
3.76331e-08
3.99971e-07
0.000148579
4.77486e-07
5.45383e-05
10.0796
2.72448e-07
3.81926e-07
1.06094e-05
2.77043e-07
0.000172089
9.81248e-06
4.76414e-05
0.002293
3.54873e-07
2.9496e-07
1.44237e-06
3.53561e-08
0.00141928
1.12572e-05
4.30248e-07
6.69477e-05
2.48129e-08
1.91876e-07
7.80703e-06
8.47944e-08
6.82796e-07
1.2659e-05
9.6368e-06
2.25229e-07
2.73876e-05
2.56644e-08
8.8155e-08
11.7911
2.69399e-08
2.10014e-06
3.42435e-07
2.21479e-06
2.89473e-07
0.000110812
2.01505e-07
7.43022e-08
3.00093e-05
1.75778e-07
1.10634e-07
9.56237e-05
2.86255e-07
2.57238e-07
1.86744e-05
2.19768e-08
0.000132196
2.98806e-07
2.32106e-05
2.03838e-05
1.46461e-05
4.16466e-07
5.52024e-07
3.74123e-05
2.90084e-08
8.40779e-08
1.1227e-05
5.54116e-09
5.51619e-08
1.3119e-08
0.0151454
3.08807e-05
7.02146e-06
9.27671e-08
7.03784e-06
8.70636e-07
0.00288961
0.00171114
2.31799e-06
9.77104e-06
5.31055e-07
0.00311439
0.000134271
1.57114e-07
1.34249e-07
1.15335e-06
5.00548e-07
4.88889e-07
1.80708e-06
4.09548e-08
3.1338e-07
1.30157e-07
8.13837e-05
1.49376e-05
1.84781e-07
2.37035e-05
0.00630536
1.22809e-07
9.79683e-05
4.21726e-08
7.79545e-07
3.97921e-07
8.46078e-07
3.39547e-07
0.000255367
2.26425e-05
3.26267e-05
7.53141e-09
2.21139e-05
8.18603e-06
0.0401523
1.26892e-07
1.31967e-06
9.75276e-06
2.40984e-05
1.41881e-08
3.09614e-05
8.6873e-08
9.39832e-06
0.00180109
1.28404e-07
3.50616e-06
6.35418e-08
2.02232e-08
5.35195e-07
4.0942e-05
2.60361e-07
3.38946e-05
1.77195e-07
4.00263e-08
0.000526295
4.88053
2.75129e-05
5.67045e-07
7.23803e-07
0.624315
1.39925e-06
5.36763e-07
1.07888e-06
1.55268e-07
1.04298e-05
6.17248e-08
9.16575e-08
6.4042e-06
2.60878e-07
5.14521e-07
5.73058e-07
1.5609e-07
0.000393953
1.24054e-06
7.32035e-08
7.56039e-06
8.06802e-06
2.77708e-08
1.70363e-08
0.000284102
2.07895e-06
5.06212e-08
1.44236e-08
5.97976e-06
1.20507e-08
3.18393e-07
5.05863e-08
2.78219e-07
3.4257e-08
2.14947e-08
2.22747e-05
1.04554e-07
4.3732e-07
6.41485e-07
2.67397e-06
3.33981e-08
5.21675e-08
7.10403e-07
1.3604e-07
3.86732e-07
3.0581e-07
2.81504e-07
8.3024e-08
3.57431e-07
0.000249209
2.57064
1.7049e-06
1.1811e-05
9.98771e-07
3.52828e-07
5.2455e-07
1.35104e-08
6.78215e-07
4.75039e-08
5.04233e-06
3.91322e-07
1.27932e-07
3.43004e-08
0.000204339
2.68372e-06
2.06156e-07
0.000158468
8.22181e-08
8.00402e-08
1.23712e-08
3.91428e-07
3.6514e-07
0.000272741
0.000366395
0.000618187
9.50555e-09
1.50615e-07
1.01565e-07
3.51462e-07
4.19233e-08
3.84639
3.95211e-08
2.58116e-06
3.26318e-08
3.46132e-05
6.68426e-07
0.242453
3.77967e-07
4.75142e-07
1.93138e-07
4.87066e-05
5.07779e-06
0.000103208
1.48549e-06
4.66935e-07
8.32574e-08
2.6693e-08
0.000891459
4.98985e-08
1.36632e-07
2.44742e-05
5.42006e-08
3.85707e-07
1.4701e-07
5.57329e-09
2.36625e-06
1.3188e-08
3.24439e-08
1.91957e-07
3.56013e-07
4.70556e-07
1.07988e-05
9.73162e-05
2.09004e-08
6.06901e-05
2.64803e-08
0.000718207
9.47399e-08
1.12985e-06
1.31759e-07
1.08528e-08
5.31222e-06
2.49767e-07
1.05888e-07
1.16842e-07
2.83125e-07
1.28869e-08
3.27716e-07
5.35234e-07
0.000352903
9.39731e-05
1.3751e-07
0.00905077
5.46204e-05
2.36785e-06
0.000180627
6.38886e-08
6.73625e-07
4.03897e-07
4.53813e-09
1.90959e-07
0.000273727
5.12652e-07
5.30967e-08
1.11032e-05
1.97915e-07
2.07332e-08
8.21991e-05
7.4126e-08
7.51845e-09
2.10281e-07
1.12201e-07
1.18556e-05
6.11691e-05
5.43682e-08
8.45431e-05
8.11589e-07
2.20541e-05
3.33002e-06
0.000158662
0.000894464
6.5828e-07
1.75174e-08
5.32492e-07
7.30539e-08
2.20523e-07
4.57086e-07
8.31175e-05
1.79582e-05
7.91062e-07
0.00170788
3.59584e-07
3.35282e-08
2.45839e-07
2.46698e-07
4.90092
6.68946e-07
6.56628e-08
4.39447e-06
0.000297634
2.09445e-06
0.000125926
5.62267e-09
7.22976e-08
0.000114945
2.01526e-08
1.80862e-05
1.68384e-07
7.90324e-05
0.000430068
3.66381e-07
0.000424687
3.13388e-08
1.66651e-08
0.000114927
3.82868e-07
1.64748e-08
3.64475e-08
4.95709e-08
1.76208e-06
5.07315e-07
5.48543e-08
2.24943e-08
1.84817e-07
4.22693e-07
4.95714e-08
0.000990052
6.04314e-05
8.30675e-08
1.07184e-07
1.38956e-07
0.0725997
3.66978e-07
2.04928e-07
1.46755e-06
9.17461e-06
1.53062e-07
9.04964e-09
4.34384e-07
5.66178
6.44496e-07
7.67186e-05
2.29993e-07
1.37139e-05
4.03019e-05
0.000480287
6.49097e-07
2.94634e-05
3.6739e-08
2.84125e-07
7.98422e-05
1.14268e-08
3.40925e-07
1.31966e-06
2.37438e-05
2.39438e-06
1.91214e-08
4.86577e-08
2.24175e-05
5.29059e-07
7.88325e-07
2.92716e-05
4.08075e-07
1.63652e-08
9.16476e-05
1.67891e-05
6.92579e-06
5.25162e-07
2.80146e-08
1.17986e-08
1.19717e-05
2.10126e-05
5.68454e-08
3.80315e-07
6.95506e-08
6.83902e-05
6.36745e-09
4.43544e-05
1.20709e-05
5.60012e-08
4.74002e-07
8.88525e-07
6.62689e-08
7.20414e-06
1.68334e-08
7.63881e-06
7.40931e-08
1.13083e-07
5.97223e-05
4.73039e-07
4.96789e-07
2.79957e-07
1.04335e-05
7.72328e-06
0.00220223
1.42814e-08
1.27136e-07
3.97347e-07
3.7875e-05
0.14419
9.89153e-07
4.42891e-08
2.59289e-05
5.74371e-05
4.27183e-07
6.94553e-08
8.75326e-08
11.3008
6.7025e-08
0.0370024
4.63596e-07
2.86402e-07
8.91871e-05
5.51149e-07
2.12702e-06
3.44551e-07
8.37366e-06
0.00103195
0.000397656
3.88975
7.30089e-08
1.31904e-05
2.85001e-05
2.79964e-07
1.85916e-05
5.91022e-08
1.57825e-07
1.14713e-05
2.89348e-07
3.48034e-07
3.60915e-06
6.53838e-07
2.35246e-07
6.33794e-08
1.99306e-05
3.16905e-08
2.30036e-07
0.000181673
2.0784e-05
4.89994e-05
9.66415e-07
2.12228e-06
0.00795373
9.11381e-05
2.03863e-05
5.22879e-06
1.41191e-05
1.03477e-07
1.41215e-08
1.98616e-06
2.21493e-05
9.19823e-08
4.7333e-07
5.49055e-08
2.42698e-05
4.99643e-07
5.9177e-06
7.61201e-06
2.88682e-07
1.06298e-08
1.19617e-06
0.00015139
1.24801e-06
8.44224e-05
8.98518e-06
1.86016e-07
2.24468e-06
8.75566e-06
6.34478e-07
1.77578e-05
1.64232e-06
2.19114e-08
3.54976e-07
3.93473e-07
7.12723e-09
1.77911e-05
0.000515378
4.47958e-08
0.000173699
3.4086e-07
0.000524275
2.00188e-07
5.18862e-08
2.99355e-07
2.55351e-06
3.66092e-05
1.98932e-06
7.4174e-06
3.74266e-08
7.97403e-09
0.000124785
2.05957e-08
2.85573e-05
2.08861e-05
1.4744e-05
2.53578e-08
3.33946e-07
0.000211371
4.55731e-07
2.21735e-07
1.3501e-06
1.36132e-05
1.03027e-07
1.43362e-08
0.000503673
5.24353e-05
2.66468e-07
7.88893e-07
9.38647e-09
3.75423e-07
1.77667e-07
7.76741e-09
4.03991e-06
8.00053e-09
3.30993e-06
9.73162e-05
0.0101808
3.09673e-06
4.09405e-07
8.42997e-07
1.0651e-06
6.63229e-08
8.18757e-06
5.25623e-08
1.1983e-08
0.000355023
5.33369e-07
1.94073e-05
1.05101e-07
3.54871e-07
2.01369e-05
1.40273e-07
4.22383e-07
1.0106e-08
3.54758e-06
7.78627e-06
0.000154015
1.39489e-07
0.000182916
3.26101e-08
3.10568e-07
4.72275e-07
0.000356456
7.5902e-05
1.9699e-07
0.00716926
7.61095e-09
4.04157
3.5681e-07
1.75024e-05
2.79094e-06
3.55123e-07
1.97552e-07
8.1929e-06
5.62078e-05
2.9186e-08
1.26559e-06
1.41323e-05
2.5162e-08
2.76663e-07
1.28088e-07
9.50178e-09
1.78733e-07
0.0140992
3.3225e-07
1.99276e-07
0.000336549
3.7093e-06
4.64765
6.349e-09
8.79604e-07
1.63526e-08
8.3189e-07
4.73387e-07
1.13016e-08
4.8482e-05
9.28062e-07
2.99785e-05
2.71343e-08
9.32595e-07
2.23157e-06
0.000215152
4.96504e-07
9.82709e-07
3.49115e-08
3.60022e-07
2.89672e-08
3.82354e-07
0.00242222
1.66482e-06
4.71548e-06
3.24555e-08
0.000212804
9.08882e-06
3.19523e-07
1.25363e-05
4.68888e-07
2.3399e-05
5.47448e-05
5.77795
2.23275e-07
3.12384e-07
1.00636e-06
6.27168e-05
2.26427e-07
7.34718e-07
3.71009e-07
5.64961e-06
9.18974e-06
7.88129e-06
1.38934e-07
3.51615e-08
1.50589e-07
5.36303e-08
5.02302e-07
1.90238e-05