/*--------------------------------*- C++ -*----------------------------------*\
  =========                 |
  \\      /  F ield         | OpenFOAM: The Open Source CFD Toolbox
   \\    /   O peration     | Website:  https://openfoam.org
    \\  /    A nd           | Version:  10
     \\/     M anipulation  |
\*---------------------------------------------------------------------------*/
FoamFile
{
    format      ascii;
    class       volScalarField;
    location    "150";
    object      k;
}
// * * * * * * * * * * * * * * * * * * * * * * * * * * * * * * * * * * * * * //

dimensions      [0 2 -2 0 0 0 0];

internalField   nonuniform List<scalar> 
10435
(
0.029371
0.0300892
0.0356399
0.0418722
0.0728234
0.0949525
0.0258226
0.0945812
0.136708
0.0947983
0.0334015
0.0944921
0.0708872
0.0761105
0.0500245
0.0732132
0.098966
0.099393
0.132958
0.0298301
0.0771754
0.0412188
0.0594286
0.168866
0.0808117
0.136717
0.0789604
0.0425845
0.090876
0.102293
0.0705119
0.0367975
0.109371
0.0968337
0.137112
0.0276676
0.117698
0.124107
0.126519
0.141531
0.101377
0.035006
0.128312
0.0339935
0.0876343
0.159504
0.098708
0.142998
0.130413
0.038978
0.0997524
0.0867017
0.115524
0.0863452
0.132813
0.079669
0.142905
0.130575
0.111968
0.157583
0.120018
0.029262
0.123877
0.0876385
0.0730618
0.0495063
0.114837
0.161095
0.0726225
0.167216
0.0917688
0.120979
0.0859561
0.0510806
0.0331128
0.0949268
0.152077
0.0259349
0.112735
0.0271482
0.0659836
0.0269818
0.103012
0.0821296
0.0889431
0.028923
0.0303308
0.0343202
0.0294787
0.0309044
0.0371129
0.0418954
0.0270357
0.0294537
0.0316333
0.0268458
0.0490302
0.038493
0.0984989
0.0598326
0.0315279
0.0723218
0.0298337
0.0326777
0.0788416
0.0370047
0.0270933
0.0494349
0.114311
0.025918
0.0326407
0.0646163
0.0267012
0.0262281
0.0498377
0.0356326
0.0704787
0.0295379
0.0333867
0.0693823
0.0784316
0.0749391
0.0301875
0.0240111
0.0381133
0.129723
0.0590747
0.0603902
0.0743028
0.0999652
0.0384253
0.0331302
0.0908654
0.0355336
0.118606
0.0617397
0.023071
0.0495268
0.031908
0.032383
0.0306834
0.069112
0.115354
0.0882725
0.0504059
0.0634699
0.021964
0.0890443
0.109908
0.0931993
0.132159
0.105404
0.030642
0.0886595
0.0905303
0.119189
0.0455429
0.0309296
0.0933571
0.0282234
0.0897418
0.0567446
0.0398978
0.0996029
0.0290418
0.0835983
0.127538
0.072964
0.12928
0.08984
0.081475
0.0757736
0.0684547
0.0435148
0.106921
0.027317
0.0284989
0.146933
0.0291716
0.109785
0.0313167
0.0899099
0.0971476
0.118694
0.0791121
0.119533
0.0976699
0.0358903
0.0803498
0.085549
0.0852288
0.0911353
0.108314
0.024476
0.055086
0.0522859
0.111326
0.0284587
0.149572
0.0946443
0.0297547
0.138379
0.0555707
0.142199
0.0464094
0.0509898
0.0358638
0.0602534
0.133292
0.0638753
0.112746
0.0462513
0.0905964
0.111372
0.0844096
0.0876061
0.0284402
0.0877789
0.140293
0.0789678
0.099686
0.13464
0.136844
0.0352024
0.123541
0.114468
0.142121
0.0287021
0.0775488
0.0760158
0.155156
0.125002
0.142137
0.119475
0.0970421
0.1166
0.156318
0.128986
0.155921
0.0714014
0.0322985
0.12078
0.08469
0.0839404
0.0445042
0.126555
0.0262579
0.050725
0.0609434
0.0266383
0.0806946
0.0294987
0.0806754
0.0815838
0.0333389
0.0859979
0.0647979
0.0259556
0.10651
0.144058
0.0223453
0.0797531
0.130066
0.135499
0.0287002
0.138183
0.0312921
0.0638467
0.0984442
0.0613441
0.0219093
0.0728653
0.0434928
0.073092
0.135871
0.0779919
0.111196
0.060372
0.059682
0.0890963
0.0840989
0.13102
0.0228415
0.0321878
0.0297389
0.0763138
0.085049
0.137837
0.0792503
0.104368
0.026947
0.0299576
0.132354
0.0574471
0.133908
0.0993054
0.0874842
0.0290478
0.0494242
0.0679651
0.160424
0.146386
0.0253466
0.0627297
0.0418712
0.0610513
0.125048
0.125522
0.0626911
0.0767701
0.0276263
0.129067
0.0257333
0.0878435
0.14205
0.0926594
0.110262
0.0820476
0.156027
0.0855917
0.0848034
0.101506
0.0301527
0.0798275
0.100158
0.0617239
0.129815
0.0310447
0.140927
0.111574
0.149924
0.111397
0.0743004
0.0262644
0.100649
0.145413
0.0825071
0.0673891
0.0819499
0.0688347
0.121474
0.124043
0.109086
0.0668469
0.0665621
0.129504
0.151517
0.0828387
0.0698
0.111867
0.0755414
0.0645779
0.0716032
0.0399486
0.106867
0.123749
0.0668783
0.0575746
0.0859622
0.0871741
0.0739951
0.137713
0.0705997
0.0863499
0.0847411
0.113022
0.156755
0.111317
0.114614
0.122556
0.137187
0.104378
0.0743979
0.126981
0.0704229
0.0724687
0.109467
0.0802318
0.0869011
0.133044
0.0837935
0.129762
0.101562
0.149054
0.0701304
0.112982
0.0501401
0.060072
0.119074
0.0329479
0.141218
0.050763
0.101592
0.0890874
0.0877856
0.0277441
0.0857112
0.0784838
0.0829936
0.109572
0.0960288
0.12474
0.10398
0.0431926
0.0955129
0.0890254
0.125748
0.0872609
0.127125
0.0869647
0.134489
0.094131
0.120431
0.116252
0.0750626
0.155945
0.0841776
0.0348938
0.0937499
0.124497
0.0888986
0.096132
0.0931258
0.0645283
0.0592883
0.13285
0.0836307
0.0334667
0.0302076
0.025756
0.0203827
0.0161438
0.0132253
0.0111037
0.00930383
0.00717805
0.0376876
0.0327954
0.0283086
0.0237299
0.0198007
0.0165757
0.013855
0.0114512
0.00895031
0.0394887
0.0340167
0.0296434
0.0257479
0.022243
0.0189984
0.0159841
0.0131925
0.0103787
0.040805
0.0350185
0.0307348
0.0273491
0.0241953
0.0210008
0.0177959
0.0146736
0.0114905
0.04213
0.0359899
0.0317375
0.0286844
0.0257755
0.0226269
0.0192734
0.0158577
0.0122921
0.0433102
0.0368014
0.0325141
0.0296184
0.0268481
0.0237302
0.0202768
0.016649
0.0128025
0.0439684
0.0372521
0.0328582
0.0299568
0.0272265
0.0241363
0.0206578
0.0169457
0.0129894
0.0439043
0.0372196
0.0326457
0.0296042
0.026827
0.0237679
0.0203469
0.0166879
0.0127887
0.0433236
0.0367477
0.0319395
0.0286655
0.0257659
0.0227323
0.0194284
0.0159224
0.0121797
0.0425008
0.0360383
0.0309988
0.0274437
0.0243598
0.0213267
0.0181596
0.0148491
0.0113018
0.0415831
0.0354133
0.0302111
0.0263713
0.0230231
0.0199493
0.0168971
0.0137763
0.0104379
0.0410315
0.0353418
0.0300143
0.0257839
0.0221588
0.0189773
0.0159706
0.0129845
0.00983116
0.0416552
0.0363282
0.0309674
0.0262126
0.0221795
0.0187335
0.0156323
0.0126652
0.00960653
0.0433114
0.039427
0.0339354
0.028381
0.0236267
0.0196309
0.0161787
0.0130147
0.00986828
0.0488323
0.0460035
0.0399118
0.0331812
0.027319
0.0223534
0.018123
0.0143545
0.0107295
0.0600745
0.0564486
0.0490805
0.0409566
0.0337819
0.0275331
0.0220877
0.0172174
0.0126135
0.0757452
0.0693445
0.0603127
0.050867
0.0424576
0.0349078
0.0280841
0.0218053
0.0158239
0.0923207
0.0826667
0.0720902
0.0615704
0.0521068
0.0433765
0.0352343
0.0275215
0.0200056
0.10749
0.094968
0.0832168
0.0719321
0.0615934
0.0518182
0.0424914
0.0334962
0.0246025
0.119342
0.105198
0.0928016
0.0810809
0.0700463
0.0593875
0.049064
0.0390357
0.0291244
0.126224
0.112487
0.100162
0.0883511
0.0768359
0.0655193
0.0544636
0.0437008
0.0330789
0.128057
0.116585
0.105032
0.0934079
0.0816574
0.0699731
0.0585332
0.0474186
0.0364735
0.127207
0.11833
0.107818
0.0964251
0.0846408
0.0728807
0.0614242
0.0503564
0.0394886
0.126984
0.11942
0.109453
0.098094
0.0863456
0.0747328
0.0635937
0.0529445
0.0425062
0.130634
0.121729
0.111258
0.0995215
0.0877179
0.076363
0.0658222
0.0560431
0.0464486
0.0143182
0.0120295
0.0102118
0.00886115
0.00795219
0.00744976
0.00732187
0.00755214
0.00812894
0.00902141
0.0101709
0.0115099
0.0129897
0.0145845
0.0162937
0.018177
0.0203681
0.0230551
0.0264233
0.0305567
0.0354724
0.0411108
0.047323
0.0538496
0.0602515
0.0656201
0.0679966
0.0669243
0.0632743
0.0580232
0.0514933
0.0448018
0.0391605
0.0343871
0.0297982
0.0258694
0.0228017
0.0204385
0.0186557
0.0172356
0.0160218
0.0149359
0.0139303
0.012968
0.0120273
0.0111118
0.0102693
0.0096266
0.00931703
0.0094893
0.0102098
0.0114066
0.0129466
0.0147163
0.0166462
0.0187108
0.0209308
0.0233707
0.0260756
0.0156696
0.0137401
0.0123392
0.0114631
0.0110874
0.0111769
0.0117137
0.0126971
0.014131
0.0160009
0.018252
0.0207763
0.0233998
0.0258572
0.0277552
0.0290074
0.0297383
0.0302906
0.0310886
0.0326463
0.0350307
0.0382573
0.0422302
0.0468513
0.0518747
0.0563628
0.0595518
0.0609873
0.0604437
0.0579998
0.0540201
0.0490846
0.043692
0.0382378
0.0331848
0.0289302
0.0255561
0.0229448
0.0209023
0.0194264
0.0184064
0.017679
0.0171715
0.0167083
0.016166
0.0154252
0.0144768
0.0135883
0.0130484
0.0128692
0.0131978
0.0140799
0.0153303
0.0167596
0.0182322
0.0196987
0.0212089
0.0228806
0.0248035
0.0148456
0.0127438
0.0111677
0.0101369
0.00964019
0.00964062
0.0101072
0.011014
0.0123377
0.014041
0.0160607
0.0183022
0.0206427
0.0229423
0.0250595
0.0268864
0.0283992
0.0296891
0.0309036
0.0321921
0.0337324
0.0357217
0.0383043
0.0415147
0.0451987
0.0489553
0.0522417
0.0545565
0.0555459
0.0550423
0.0530786
0.0498735
0.0457509
0.0411077
0.0364417
0.0322537
0.0288456
0.0262761
0.0244666
0.0232864
0.022571
0.0221125
0.0216513
0.0209466
0.0198803
0.0184991
0.0169798
0.0155377
0.0143407
0.0135151
0.0131739
0.0133639
0.0139889
0.0148396
0.0157426
0.0166717
0.0177305
0.0190677
0.0207642
0.0135832
0.0114557
0.00986695
0.0088298
0.008319
0.00827338
0.00862607
0.00931089
0.0102712
0.0114588
0.0128317
0.0143461
0.01595
0.017581
0.0191743
0.0206814
0.0220889
0.0234245
0.024745
0.0261204
0.0276327
0.0293774
0.0314442
0.0338779
0.0366274
0.0395162
0.0422615
0.0445247
0.0459742
0.0463559
0.0455608
0.0436583
0.0408874
0.0376267
0.0343244
0.0313657
0.0289597
0.0271453
0.0258634
0.0249957
0.024351
0.0236765
0.0227317
0.0213943
0.0197132
0.0178702
0.0160921
0.0145665
0.0133944
0.0125928
0.0121204
0.0118932
0.0118043
0.0117791
0.0118423
0.0121224
0.0127625
0.0138588
0.0154317
0.0112982
0.00924866
0.00767516
0.00659564
0.00599564
0.00581461
0.00597375
0.00640508
0.00705944
0.00790397
0.00891949
0.0100955
0.0114237
0.0128915
0.0144807
0.0161686
0.0179296
0.019736
0.0215552
0.0233467
0.0250649
0.026673
0.0281682
0.0295936
0.0310103
0.0324422
0.0338311
0.0350299
0.0358324
0.0360401
0.0355492
0.0344178
0.0328695
0.0312115
0.02971
0.0285082
0.0276301
0.0270263
0.0265935
0.0261638
0.0255168
0.0244529
0.0228926
0.0209206
0.0187511
0.0166441
0.0148146
0.0133727
0.0123138
0.0115507
0.0109567
0.0104081
0.00983551
0.00927985
0.00890707
0.00890615
0.00936099
0.0102842
0.0116631
0.00874125
0.00693675
0.00555909
0.00462529
0.0041175
0.00395833
0.00405806
0.00435803
0.00482954
0.00545975
0.00624457
0.00718767
0.00829952
0.00959404
0.011082
0.0127632
0.0146192
0.0166084
0.0186631
0.0206884
0.0225649
0.024162
0.0253712
0.0261547
0.0265718
0.0267486
0.0267957
0.0267471
0.0265594
0.0261784
0.0256235
0.0250227
0.024552
0.0243295
0.0243721
0.024625
0.0249911
0.0253392
0.0254976
0.0252648
0.0244743
0.0230719
0.0211525
0.0189359
0.0167025
0.0147118
0.0131288
0.0119882
0.0112082
0.0106349
0.0100936
0.00944776
0.00866226
0.00785719
0.00728722
0.00716056
0.00750048
0.00826503
0.00942554
0.00629802
0.00488315
0.00386397
0.00324905
0.00298742
0.00298062
0.00315613
0.00347692
0.00392484
0.00448478
0.00514282
0.00589294
0.00674353
0.00771886
0.00885457
0.0101868
0.0117363
0.0134917
0.0153996
0.0173613
0.0192362
0.0208517
0.0220306
0.0226391
0.0226408
0.0221322
0.0212988
0.0203357
0.0193968
0.0186246
0.0181655
0.0181124
0.0184654
0.0191445
0.0200334
0.0210093
0.0219242
0.0226049
0.0228778
0.0225858
0.0216565
0.0201452
0.0182324
0.0161797
0.0142613
0.0126922
0.0115755
0.0108865
0.0104913
0.0101828
0.00974778
0.00905185
0.00810775
0.00711355
0.00639866
0.00618244
0.00643197
0.0070578
0.00801273
0.00431521
0.00335768
0.00274821
0.0024488
0.00238327
0.00248916
0.0027328
0.00309661
0.00355976
0.00409068
0.0046551
0.00522988
0.00581163
0.00641992
0.0070967
0.00790044
0.0088903
0.0101026
0.011533
0.0131209
0.0147526
0.0162615
0.0174544
0.0181431
0.0181791
0.0175554
0.0164177
0.0150814
0.0139245
0.0132642
0.013198
0.0136388
0.0144478
0.0154778
0.0165696
0.0175957
0.0184144
0.0188781
0.0189058
0.0184108
0.0173862
0.0159318
0.0142496
0.0125883
0.0111728
0.0101465
0.00956252
0.00936516
0.00938484
0.00937204
0.00910448
0.00847779
0.00754181
0.00652483
0.00576142
0.00547016
0.00561656
0.00609985
0.00686124
0.00261891
0.00212245
0.00183992
0.00171996
0.00172212
0.00182767
0.00202875
0.00231787
0.00269089
0.00314811
0.00361557
0.00405686
0.00445287
0.00479608
0.00511476
0.00544774
0.00588401
0.00652366
0.00738424
0.00844167
0.00963273
0.0108397
0.0119116
0.0126293
0.0127922
0.0122728
0.0111987
0.0100164
0.0092565
0.0091489
0.00961595
0.0104186
0.0114075
0.0124212
0.0132865
0.0138707
0.0141717
0.0142558
0.0140351
0.013426
0.0124811
0.0112958
0.0100308
0.00887561
0.00793814
0.00729051
0.00692619
0.00682302
0.00689762
0.00693779
0.00676521
0.0062923
0.00558159
0.00495864
0.00448395
0.00429271
0.00438707
0.00474723
0.00531651
0.107484
0.104212
0.100887
0.0968739
0.0921591
0.0868583
0.0809239
0.0742435
0.0666627
0.0586877
0.0527157
0.0497565
0.0494578
0.0495341
0.048887
0.0481574
0.0474241
0.0464457
0.0450929
0.0433243
0.0410638
0.0381395
0.0342413
0.0289233
0.0213854
0.0947671
0.0948514
0.0933112
0.090849
0.0873418
0.0828978
0.0775049
0.0712044
0.064206
0.0572623
0.0514129
0.047152
0.0444134
0.0426657
0.0414802
0.0406847
0.0402187
0.0398728
0.0394333
0.0387135
0.0375463
0.0357312
0.0329493
0.0286678
0.0219449
0.0865786
0.0862108
0.0849598
0.0828154
0.0796741
0.0754352
0.0701209
0.0639502
0.0573777
0.0510665
0.0456059
0.0412967
0.0381717
0.036075
0.0348426
0.0343278
0.0343435
0.0346402
0.034955
0.0350601
0.0347459
0.0337651
0.0317361
0.0280263
0.0215112
0.0794725
0.0773713
0.0753019
0.0728407
0.0696729
0.0655535
0.0604565
0.0546319
0.0485694
0.0428549
0.0379591
0.0341345
0.0314354
0.0297756
0.0290163
0.0289903
0.0294896
0.0302682
0.031071
0.0316674
0.0318532
0.0313681
0.0298107
0.0265295
0.0203297
0.0739259
0.0699486
0.0666756
0.0634939
0.0599661
0.0557804
0.0508714
0.0454563
0.0399744
0.0349294
0.0307153
0.0275327
0.0254027
0.0242257
0.0238614
0.0241368
0.0248576
0.0258022
0.0267456
0.0274846
0.0278388
0.0275675
0.0262858
0.0233775
0.0177249
0.0696598
0.0638663
0.0592648
0.0552082
0.0511875
0.046857
0.0421175
0.037132
0.0322653
0.0279355
0.0244558
0.0219466
0.0203554
0.019546
0.0193835
0.0197201
0.0203974
0.0212405
0.0220719
0.0227294
0.0230686
0.0228767
0.0218073
0.0193195
0.0144282
0.066813
0.059149
0.053093
0.0481122
0.0435932
0.0391248
0.0345653
0.0300183
0.0257704
0.0221513
0.0193755
0.0174716
0.0163042
0.0156804
0.0155277
0.0157352
0.0161984
0.0167961
0.0173972
0.0178799
0.0181282
0.0179532
0.0170468
0.014949
0.0108908
0.0653678
0.0552399
0.0475541
0.0417003
0.0368109
0.0323282
0.0280358
0.0239745
0.0203492
0.0174099
0.0152554
0.0137885
0.0129113
0.0123905
0.0121439
0.0121407
0.0123363
0.0126602
0.0130205
0.0133243
0.0134704
0.0133013
0.0125553
0.0108465
0.0076438
0.0638645
0.0509157
0.0415143
0.0349564
0.0299631
0.0257155
0.0218803
0.0184144
0.0154452
0.0131786
0.0115943
0.0105384
0.00986238
0.00932729
0.00894193
0.00872709
0.00867585
0.00876439
0.0089214
0.00906361
0.0090781
0.00887247
0.00822779
0.0067993
0.00451755
0.085291
0.0802173
0.0255513
0.0104295
0.000769032
0.00150946
0.0278097
0.00394026
0.0256311
0.00257469
0.630931
0.00172207
0.0450542
0.00214818
0.0456038
0.00174727
0.201844
0.00956083
0.00202548
0.0783372
0.026025
0.00361098
0.074844
0.00255717
0.00358505
0.00083975
0.00357879
0.00843571
0.0579473
0.0805766
0.00553491
0.00115479
0.0397857
0.0761383
0.0619129
0.00118614
0.0324998
0.0454287
0.0467216
0.00121435
0.22163
0.000387287
0.00139106
0.0250344
0.0121216
0.00781057
1.51238
0.818864
0.0469923
0.0849679
1.58
0.409414
0.0309055
0.0102458
0.0284857
0.0236924
0.00231141
0.026565
0.00191089
0.279277
0.00119185
0.0253438
0.000888888
0.00222979
0.00350146
0.0557775
0.00175634
0.00588104
0.0471979
0.138729
0.0223915
0.00553949
0.00164163
0.147175
0.00326692
0.0238744
0.277815
0.597835
0.00520714
0.00914508
0.0685318
0.00415413
0.00158006
4.99519
0.00043577
0.00110761
0.00193158
0.542737
0.0448056
0.0062632
0.00635498
0.00426613
0.00211848
0.00166459
0.000962626
0.532929
0.000863554
1.76324
0.000214826
0.293545
0.00195787
0.200864
0.00193786
0.00607084
0.00207882
0.00898807
0.0822654
0.0638471
0.000503992
0.0989044
0.00321374
0.00100881
0.0621754
0.00600543
0.0286066
0.0495088
0.220767
0.00123368
0.0328516
0.00110307
0.000462056
0.00120893
0.00229977
0.00327982
0.0379852
0.00142793
0.400176
0.0590505
0.00420238
0.915547
0.00166842
0.130645
0.137831
0.0748634
0.010372
0.00200807
0.0107047
0.00186264
0.00166638
0.612921
0.00469382
0.0310057
0.383708
0.000538348
0.0513086
0.00179265
0.00856921
0.0516945
0.00173363
0.0675623
0.00459665
0.0080463
0.010036
0.10589
0.00352709
4.5463
0.00350059
0.000937891
0.653948
0.00150127
0.00154465
0.0241881
0.00320004
1.4547
0.00316928
4.84627
0.00245103
0.00417641
0.00206141
0.0028804
0.00199475
0.00223317
0.00593911
4.96259
0.00447669
0.00443579
0.0872845
0.0936708
0.0868258
0.00464076
0.127527
0.00100431
0.031178
0.120417
0.0632803
0.000614355
4.52524
0.000507008
0.0748727
0.00190671
0.468737
0.383837
0.0177396
0.0254462
0.0681876
0.0681818
0.00316063
0.00316222
0.0513359
0.059811
0.0721934
0.00371411
0.00279503
0.00150039
0.00910531
0.00234492
0.00192699
0.00183271
0.0757221
0.000950656
0.00210011
0.00104965
0.123382
0.00928942
0.00413385
0.188153
0.000840087
0.00146146
0.00501896
0.0131739
0.00498648
0.000344598
0.00360487
0.0213008
0.00755882
0.257903
0.00516232
0.190208
0.000476767
0.00120729
4.62747
0.00129912
0.000941112
0.00104941
0.0435233
0.00233257
0.454652
0.00706415
0.116205
0.0838558
0.00433213
0.00105976
0.0031726
0.0254176
0.00190336
0.00189001
0.00123198
0.0334774
0.00186063
0.00226571
0.00044891
0.00672528
0.00171441
0.0615358
0.000474527
0.00414705
0.0643114
0.291381
0.593505
0.00244121
0.00585488
0.00425786
0.00244347
0.00344994
0.158497
0.00281582
0.00280209
0.00846208
0.024031
0.00391337
0.0438777
0.0189366
0.000237552
0.00141453
0.00145811
0.00727946
0.00214784
0.0483292
0.00262406
0.646948
0.0869806
0.0044686
0.00524451
0.00723158
0.0942252
0.00139335
0.0088338
0.00540484
0.249311
0.545764
0.0636906
0.00293158
0.000452696
0.349797
0.0815351
0.171531
0.0693525
0.00446052
0.00142982
0.237512
0.550149
0.00154909
0.000751884
0.00116256
0.0359529
0.00330996
0.0226329
0.00298618
0.544615
0.00327373
0.00553436
0.00343671
0.0720661
0.00435484
0.000238653
0.0249386
1.35496
0.0016806
0.00352566
0.0936126
0.497803
0.00213667
0.000806361
0.00456532
0.00161937
0.00273444
0.213479
0.067351
0.00508909
0.0302181
0.00321934
0.0613166
0.00465985
0.00250418
0.508119
0.00144858
0.00201329
0.00135214
0.000458706
0.00579787
0.00108068
0.00271094
0.250479
0.00318564
0.144607
0.000833829
0.001774
0.000431018
0.00240909
3.39163
0.0137002
0.00229851
0.000383725
0.48677
0.315766
0.00759403
0.12765
0.0137966
0.00305528
3.41816
0.0897986
0.0579166
0.00167168
0.251679
0.000388607
0.00259376
0.00163104
0.972138
0.00244671
0.0763963
0.00502433
0.11997
0.0665683
0.0345755
0.0467686
0.00198926
0.00167722
0.00313861
0.00146566
0.00225957
0.0602289
0.00219073
0.0321461
0.0345204
0.0169468
0.103676
0.00314563
0.076124
0.407447
0.391065
0.0126134
0.00249294
0.0186621
0.0308993
0.126741
0.00253386
0.00329128
0.0299391
0.000840825
0.0595826
0.00408164
0.00146879
0.000429071
0.0920052
0.0032093
9.71981e-05
0.0459203
0.0181853
0.01506
0.00353867
0.0362839
0.00245076
0.218966
0.00165884
0.0019749
0.00666371
0.0362851
3.36134
0.00101232
0.00377533
0.00304712
0.00144165
0.00646033
0.00187942
0.00166658
0.822035
0.000613224
0.000895186
0.0048078
0.00119117
0.0018068
0.00407191
0.00711487
0.00667641
0.0443902
0.00162708
0.00341805
0.000491902
0.000456713
0.00114256
0.00156703
0.0837912
0.239774
0.0147958
0.0514579
0.0151864
0.00723051
0.0147894
0.00192853
0.00458079
0.0330698
0.00173846
0.00327088
0.178834
0.00323217
0.133159
4.01944
0.00131936
0.00581062
0.08021
0.00271857
0.0583178
0.0334596
0.11934
0.693269
0.0034543
0.00190019
0.0235127
0.00160767
0.337442
0.0322393
0.00335657
0.0563065
0.00135632
0.00322442
0.0634544
0.00799081
0.00395852
0.0584739
0.0495003
0.00455321
0.0526347
0.000250494
0.00217184
4.75734
0.000534559
0.00305138
0.00425083
0.036632
0.00447499
0.0775152
0.00244465
0.00182312
0.0360887
0.00241153
0.00122837
0.0739119
0.0015094
0.00292888
0.0806994
0.00147547
0.0500805
0.00220244
0.0108351
0.0829554
0.0889233
0.00160534
0.00206527
0.0422868
0.00117496
0.00212463
0.0802921
0.00370598
0.00672807
0.000556201
0.840057
0.0311903
0.0361063
0.00192896
0.0196534
0.00238181
0.63262
0.0997589
0.0151304
0.0754819
0.00587531
0.760292
0.127665
0.002099
0.00212384
0.00351089
0.00508142
0.0064494
0.0153684
0.00105335
0.0181038
0.00176545
0.124859
0.0602054
0.0022528
0.0878305
0.139769
0.00290017
0.0939966
0.000309915
0.018235
0.00342114
0.00497182
0.00165075
0.0600492
0.0425588
0.0519533
0.00437988
0.0729685
0.0396439
1.23377
0.00373422
0.00325693
0.0418552
0.0829042
0.00534801
0.0751229
0.00162616
0.0534983
0.0845762
0.00264948
0.0140536
0.00158522
0.00117545
0.00631092
0.0702795
0.00507045
0.0428607
0.0013839
0.00108309
0.0631602
2.76862
0.092182
0.00429854
0.00666949
1.03732
0.0294754
0.00315682
0.00253781
0.00296616
0.0260649
0.00230411
0.00157227
0.0580573
0.00238851
0.00321554
0.00140664
0.00230456
0.171035
0.00363466
0.00157841
0.0660284
0.0385355
0.000580115
0.00108229
0.273187
0.00899395
0.000311549
0.000879824
0.0548167
0.000535419
0.00147302
0.00186077
0.00526817
0.00172366
0.00144049
0.0479274
0.00213421
0.00181237
0.00440363
0.0350583
0.0021706
0.00183435
0.0175702
0.00224275
0.00401012
0.00229964
0.00305734
0.00893782
0.00520591
0.266913
1.77391
0.00774474
0.027102
0.00680145
0.00430479
0.00379119
0.000302176
0.00176032
0.0010221
0.0457968
0.00562756
0.00334436
0.00722471
0.164692
0.0120398
0.0021531
0.0482365
0.0024238
0.00122694
0.000979234
0.0056552
0.0176819
0.276454
0.155491
0.482846
0.000448588
0.00261527
0.000419315
0.00557508
0.00202711
2.70764
0.00269046
0.0193229
0.0017226
0.103377
0.00769686
1.87653
0.000595533
0.00373273
0.0032334
0.0681497
0.0137959
0.0331852
0.0294606
0.00582164
0.00120895
0.000447379
0.506637
0.000306101
0.00170358
0.0595223
0.00124689
0.00523434
0.00209178
0.000222846
0.0344934
0.000922296
0.00122135
0.00256021
0.0026764
0.00315892
0.0569834
0.0958943
0.0011311
0.0515166
0.000990788
0.237162
0.00233792
0.00328805
0.00236031
0.000648125
0.0570177
0.00154635
0.0023339
0.00195821
0.00550816
0.000560685
0.004152
0.00551599
0.282595
0.0832215
0.00397903
0.960136
0.0438838
0.0352063
0.059177
0.00148211
0.00360442
0.00383173
0.000105166
0.0023633
0.0746056
0.00147887
0.00136935
0.044547
0.0024729
0.00512832
0.0397089
0.00207934
0.00360696
0.00329744
0.00335518
0.0797553
0.0791402
0.00125216
0.131708
0.00942982
0.083103
0.0231925
0.140915
0.288963
0.00737814
0.00148512
0.00184971
0.000378187
0.00464644
0.00345766
0.114512
0.0927708
0.00301064
0.620561
0.0153446
0.00226876
0.00365083
0.00219253
2.53639
0.0155628
0.0019406
0.0145019
0.167766
0.0378399
0.189774
9.79156e-05
0.00201308
0.0535778
0.000223551
0.0969872
0.0149336
0.0642744
0.15677
0.00369742
0.153394
0.000699231
0.000181272
0.0358932
0.00266932
0.00194377
0.00151472
0.00143409
0.00996163
0.00172616
0.00116165
0.00151987
0.00201897
0.00663191
0.000772186
0.52717
0.0478499
0.00264633
0.0125027
0.00219208
0.515441
0.00110001
0.00289226
0.00558718
0.0514176
0.00387467
0.000164706
0.00500921
3.25709
0.0143494
0.144968
0.00154482
0.0599864
0.0847737
0.375553
0.0161235
0.0674242
0.00249953
0.00342974
0.0784123
0.000229049
0.00425251
0.00893838
0.060801
0.0240853
0.000984682
0.000809256
0.0879862
0.00398071
0.0177433
0.037743
0.00481477
0.000929136
0.0462464
0.0801613
0.0824607
0.00328439
0.00159146
0.00024377
0.0562664
0.0383694
0.00186616
0.00410637
0.00106046
0.133416
0.00105497
0.0226898
0.0922935
0.00114455
0.00355237
0.0139065
0.00125655
0.0544699
0.000762652
0.0449036
0.00101417
0.00279735
0.0968302
0.00552194
0.00304249
0.00304855
0.0140221
0.0540457
0.567485
0.000970831
0.0018707
0.00335965
0.0428794
0.597655
0.020228
0.000823274
0.0644872
0.0452798
0.000901104
0.00269174
0.00141657
4.71279
0.000898955
0.652444
0.00167472
0.00074038
0.100026
0.00202481
0.0149904
0.00607541
0.0460065
0.536967
0.307515
2.27374
0.00145514
0.0300116
0.0437982
0.00388531
0.0317697
0.0014396
0.00187974
0.0919388
0.00173
0.0108012
0.0242897
0.0163236
0.00528006
0.00253844
0.0481591
0.00277399
0.00106859
0.148752
0.0870047
0.125345
0.00283525
0.00873215
0.89484
0.0606235
0.0754297
0.0494986
0.0802915
0.00894731
0.000571964
0.0120688
0.0594078
0.00169398
0.00583069
0.00855142
0.0343821
0.0016581
0.0160822
0.0873174
0.000578368
0.000778589
0.00289688
0.182077
0.032184
0.148513
0.0484213
0.00290363
0.00936783
0.0213198
0.00937424
0.0934057
0.0236871
0.00166834
0.00147475
0.00204814
0.000407251
0.0674807
0.198194
0.000551749
0.197324
0.00570066
0.434597
0.00235779
0.00117674
0.00407087
0.0175747
0.111697
0.00860914
0.0472923
0.00118903
0.000376229
0.0468358
0.00585928
0.109372
0.067249
0.0247224
0.000920978
0.00562252
0.0593805
0.00151772
0.00208604
0.00241994
0.0220621
0.00235371
0.00183823
0.415542
0.0483669
0.001912
0.00856699
0.00293173
0.00518297
0.00161873
0.000470145
0.0393092
0.00053119
0.00847798
0.136533
0.210118
0.0178925
0.00296151
0.00623543
0.00736398
0.00252955
0.0505508
0.00119932
0.00113531
0.0569608
0.00164671
0.0139965
0.00850512
0.00431094
0.0682091
0.00229792
0.00578479
0.000278887
0.0152337
0.0176773
0.195141
0.00364336
0.236843
0.00118079
0.00599347
0.00179113
0.30883
0.113702
0.00454823
0.154441
0.00118095
3.17057
0.00239455
0.0668623
0.0045092
0.0041146
0.00229533
0.0188401
0.0450479
0.00088323
0.00281604
0.099699
0.00163581
0.00293256
0.00318453
0.000233599
0.00222232
1.05534
0.00175644
0.00250974
0.196539
0.00438735
2.44751
0.000333104
0.00331272
0.000834855
0.00809365
0.00260132
0.000878547
0.0681215
0.00861446
0.0182783
0.0015401
0.0093613
0.0139198
0.226942
0.00328748
0.00237597
0.00422806
0.00222036
0.00129668
0.00547334
0.62616
0.0116812
0.0297448
0.00105064
0.0568876
0.0198835
0.0026115
0.0875461
0.00149099
0.0896725
0.0539751
2.85031
0.00181403
0.00199075
0.00530173
0.132931
0.00290924
0.0165963
0.0049092
0.00917462
0.0347932
0.00973281
0.00143515
0.00196339
0.00263591
0.00600153
0.00667023
0.0871134
0.00120597
0.0563647
0.00101904
0.00103678
0.000550275
0.00210971
0.0382783
0.00137818
0.530733
0.0965395
0.00046746
0.00168476
0.0594999
4.2771
0.00168731
0.00110243
0.00535634
0.00480664
0.00895879
0.0049067
0.58022
0.00073325
0.00158389
0.0375276
0.00192757
0.0084976
0.0409229
0.00158171
0.0024075
0.000177077
0.00435625
0.122581
0.0134116
0.210173
0.00138962
0.00296039
0.00600233
0.163707
0.183914
0.00277756
0.00199761
0.671218
0.000946895
0.00170441
0.0416677
0.0764804
0.00133913
0.00270628
0.00178905
0.0150247
0.0925197
0.005278
0.00622816
0.0950151
0.177912
0.000140805
0.00101074
0.00744923
0.0058986
0.00684449
0.0345475
0.00246638
0.404889
0.00182019
0.0036577
0.0010189
0.0394948
0.000736188
0.156134
0.0337779
0.0277254
0.0981361
0.10982
0.0169466
0.00112539
0.285246
0.0483003
0.00210374
0.00357721
0.000694025
0.00339911
0.00186159
0.00197057
0.0013791
0.0260293
0.00283672
0.00254317
0.0417814
0.00118963
0.00785845
0.00611679
2.97892
0.000314922
0.206838
0.915279
0.0016113
0.000507594
0.00837236
0.00521618
0.00845612
0.193138
0.0155497
0.00437023
0.00254998
0.00101421
0.120365
0.186329
0.00162442
0.00499046
0.00349931
0.00166323
0.0020197
0.00655698
0.00244898
0.00161726
0.00214962
0.0971323
0.00282505
0.0050919
0.111608
0.00209463
0.0142962
0.00492675
0.00678573
0.00753412
0.00599766
0.0324207
0.00285814
0.0138153
0.0991178
0.000711822
0.00853679
0.0495555
0.00327351
0.0048505
0.00448647
0.0429351
0.0012878
0.0563941
0.002547
0.0395921
0.0887474
0.0663079
0.0910495
0.00126736
0.00168166
0.107524
0.17213
0.00342972
0.004642
0.00149358
0.0655321
0.00431071
0.00509482
0.00192886
0.005427
0.0132413
0.00150103
0.00174415
0.00170133
0.191967
0.0929532
0.00212251
0.00679743
0.00313831
0.00186983
0.00208006
0.0381264
0.00699228
0.0168646
0.0435176
0.0442885
0.000230376
0.295495
0.0676584
0.383648
0.10454
0.00244503
0.0807153
0.288159
0.319148
0.00015631
0.0568252
0.00329271
0.028789
0.00564824
0.00115023
0.0564808
0.0701822
0.969741
0.104427
0.00229666
0.00154162
0.0180834
0.13159
0.00433761
0.303947
0.00285182
0.275874
0.00169461
0.103353
0.00786875
0.00207796
0.00222986
0.0786275
0.00213987
0.00904257
1.15775
0.00185715
0.0438861
0.000613953
0.00205428
0.128358
0.0103541
0.00557074
0.0355978
0.0552616
0.00252175
0.0587951
0.00528011
0.00290309
0.00744367
0.00619507
0.0948578
0.0719902
0.00129855
0.14657
0.00255545
0.0350073
0.00490218
0.00397258
0.00059221
0.0254256
0.0117778
0.182086
0.000422816
0.690925
0.0061644
0.0559424
0.444466
0.00473732
0.00370092
0.0962489
0.0025143
0.00150838
0.000489184
0.443127
0.123884
0.00147469
0.0753772
0.00565447
0.00215202
0.0185744
0.00293603
0.00118165
0.0599222
0.00666589
0.00217472
0.00440481
0.00133327
0.0024053
0.0067429
0.0785031
0.111109
0.00748097
0.00281041
0.000536242
0.0670853
0.871364
0.0018366
0.00457579
0.00387166
0.0905418
0.00480846
0.0109801
0.0539545
0.00390236
0.0457177
0.286322
0.00183656
0.0125946
0.00281045
0.00569719
0.000950681
0.00140972
0.00411186
0.00938639
0.129745
0.000192777
0.140607
0.00334056
0.868987
0.00240973
0.0910159
0.00414723
0.94073
0.0876537
0.00185995
0.00804439
0.0023547
0.00451453
0.00166614
0.0778811
0.145704
0.0029191
0.00306438
0.00620411
0.00540899
0.00134912
0.000432736
0.145421
0.351567
0.08008
0.169775
0.00503751
0.00351722
0.0766637
0.00234238
0.0800959
0.000307191
0.0053763
0.00214672
0.00341949
0.00176169
0.0033925
0.00121728
0.00310643
0.05664
0.111361
0.00134472
0.0103137
0.0452756
0.0230385
0.00257747
0.022681
0.0929947
0.341533
0.0044291
0.084731
0.0012416
0.00710784
0.00450941
0.004487
0.00302175
0.0384844
0.018142
0.00635461
0.00211866
1.13393
0.00639239
0.134107
0.499542
0.00282922
0.00319993
0.00112749
0.00252262
0.0988298
0.00320782
0.0939539
0.0727343
0.00332657
0.00141198
0.00204857
0.0278584
0.00217794
0.000583974
0.00261275
0.000749543
0.0061056
0.0584796
0.00662893
0.0298986
0.00149529
0.0025374
0.00424917
0.00141818
0.00162748
0.0203891
0.134574
0.00212899
0.124644
0.00240077
0.277046
0.00476962
0.00295928
0.00192074
0.00285419
0.111606
0.0030969
0.00214193
0.00729467
0.0332742
0.0033079
0.00269803
0.00190315
0.00477068
0.0329524
0.000456112
0.00354602
0.088002
0.00136562
0.00186992
0.00531101
0.0310246
0.00141784
0.125408
0.102625
0.00677427
0.0122428