/*--------------------------------*- C++ -*----------------------------------*\
  =========                 |
  \\      /  F ield         | OpenFOAM: The Open Source CFD Toolbox
   \\    /   O peration     | Website:  https://openfoam.org
    \\  /    A nd           | Version:  10
     \\/     M anipulation  |
\*---------------------------------------------------------------------------*/
FoamFile
{
    format      ascii;
    class       volScalarField;
    location    "150";
    object      nut;
}
// * * * * * * * * * * * * * * * * * * * * * * * * * * * * * * * * * * * * * //

dimensions      [0 2 -1 0 0 0 0];

internalField   nonuniform List<scalar> 
10435
(
282.661
343.204
38.5736
210.945
136.788
95.3362
31.6194
15.6974
17.8072
72.0488
302.512
79.9318
41.4298
1.97573
1.88405
19.579
2.27837
52.1014
17.7533
316.7
16.2179
171.057
25.8351
35.2753
68.9371
27.228
3.22632
36.7876
3.96471
62.7708
53.8193
252.787
16.2179
2.66219
23.3971
167.226
24.409
4.74075
66.8372
22.8715
70.9807
29.7975
2.95916
317.213
26.4075
29.1704
84.1925
3.68918
15.4481
130.479
17.2275
94.7211
62.6851
8.69351
50.799
5.29215
28.9067
3.68
2.44396
26.8269
46.0149
312.701
3.2088
105.739
25.4436
45.1945
2.48547
3.52088
14.6192
41.1854
10.4822
12.0129
2.38335
44.0296
3.79838
2.31087
46.2776
22.5428
15.5619
7.06486
74.7294
221.64
56.135
6.67275
63.1109
108.49
209.951
338.414
19.359
287.415
293.083
236.369
268.292
53.6292
338.097
82.1635
187.84
2.54049
2.23525
159.017
6.06127
118.981
122.306
355.476
112.119
266.664
291.863
95.4633
55.7918
31.0509
181.097
128.117
158.13
86.7209
188.384
226.817
137.606
194.181
344.6
125.705
119.737
1.97842
274.555
3.04544
192.08
32.8064
149.881
1.70098
138.349
7.16599
1.49075
236.753
18.2266
2.09607
8.02924
17.6533
56.8805
162.327
355.387
282.497
316.759
36.3196
2.54407
84.8273
127.299
1.88014
14.8634
104.776
2.48194
70.7629
4.49525
29.8259
288.593
64.2212
92.1317
8.53926
160.396
331.096
83.3677
319.924
43.3716
1.69461
252.119
69.2781
15.872
121.922
18.1284
102.695
50.4394
105.148
77.5278
2.75402
3.30869
1.98765
54.373
319.669
250.808
3.15601
239.696
3.26153
337.801
102.453
76.9013
34.1304
37.9981
3.15832
2.43973
16.4938
126.161
89.6253
100.005
46.2369
9.4589
135.766
140.826
14.2751
2.52661
43.6025
3.36452
21.5031
17.571
4.9091
38.9554
4.15373
40.7119
180.044
304.387
126.747
3.18856
97.9547
4.83085
30.226
99.8027
62.8055
3.09443
2.15288
59.017
15.626
27.5691
1.93355
3.47084
2.89229
2.92437
2.17508
15.4628
20.4796
40.1809
13.4123
73.9591
1.97629
3.26926
19.3273
32.9284
35.0621
4.65109
2.5698
34.4522
19.3341
40.0119
66.7879
341.912
20.6128
8.64741
6.37188
210.657
16.7037
26.2139
13.0002
4.68827
284.828
8.33266
56.7624
47.9394
79.9394
14.343
119.949
6.08695
18.2656
8.02746
4.55708
26.191
80.9514
25.2392
52.0061
138.007
2.90971
332.256
39.3682
32.4382
157.022
35.0412
13.192
12.6539
59.1397
23.3115
107.969
5.98863
151.194
17.0069
13.9697
56.3257
2.88573
39.9824
3.85956
129.29
18.3103
118.472
50.5437
4.97768
3.01091
6.53842
286.569
3.09594
12.5024
68.6674
11.5286
2.15367
219.783
173.593
58.7785
3.54006
44.8072
38.4417
4.17181
207.184
1.90603
2.74907
40.7093
53.6649
3.81823
282.69
6.85471
220.577
112.094
20.042
10.2974
24.8204
65.0548
3.27255
87.7925
107.104
3.08738
216.138
35.7078
14.4675
44.2907
19.807
35.1992
2.94695
4.00407
22.9738
2.62989
3.10676
38.2258
48.4105
3.50481
8.05463
5.64196
2.37334
3.45983
16.1971
10.5641
41.9452
3.51689
3.9592
5.99094
3.36853
4.0521
25.6665
14.9516
2.62844
50.8555
3.41371
34.7016
14.5571
14.3281
38.1029
39.4788
7.59867
3.32752
6.43136
33.3335
3.84681
25.6505
3.1042
12.7611
3.79054
59.2449
12.6158
15.3397
40.5175
9.91134
39.0656
13.8384
11.3143
3.39778
3.24752
3.49999
4.15184
22.5597
4.18245
42.9058
14.9726
3.19184
13.5121
14.5602
36.0982
37.6905
14.5665
36.3919
21.664
1.69614
3.64541
4.64146
9.35582
38.3763
5.61033
40.3075
4.46086
3.17072
7.74356
2.90028
14.9568
20.5417
3.42846
14.411
46.0387
5.03654
19.2207
5.046
14.908
6.41882
15.9821
13.847
4.45796
3.89061
3.31017
38.4929
10.8525
16.3801
3.54542
2.25999
42.1684
4.78773
10.3354
13.3712
2.87213
163.076
134.013
129.01
141.52
152.908
149.63
129.514
101.065
71.1974
246.976
219.556
213.039
223.297
228.53
216.013
186.589
148.13
106.199
356.761
329.95
318.997
319.628
310.507
282.693
240.078
190.155
137.015
504.965
473.837
450.869
431.711
399.788
351.701
293.21
230.781
166.767
688.026
646.318
601.892
553.131
492.385
421.445
346.167
271.171
196.741
886.812
830.789
758.628
675.116
583.66
489.88
398.39
311.542
227.696
1075.31
1005.94
906.464
789.871
670.022
555.516
449.44
351.981
259.95
1228.62
1150.69
1031.44
890.334
748.444
617.322
499.291
392.926
293.941
1322.55
1242.71
1116.92
966.412
813.776
673.196
547.614
434.976
330.293
1330.32
1255.33
1138.49
998.734
852.895
715.272
590.285
476.612
369.733
1229.72
1163.99
1067.26
957.174
838.9
722.344
611.675
507.136
406.817
1026.79
970.82
895.742
821.03
742.707
662.676
581.592
500.023
419.668
777.624
728.648
672.072
622.558
575.8
529.611
481.519
430.426
379.723
551.42
519.704
479.293
440.85
406.026
374.906
345.854
317.045
290.703
404.632
392.035
362.956
327.478
292.628
261.823
235.918
214.111
198.319
340.364
335.518
310.773
275.461
238.312
204.174
175.287
151.804
134.771
322.294
316.106
291.453
255.703
217.18
180.872
149.305
123.001
102.317
317.967
308.262
282.563
246.595
207.809
170.866
138.163
110.263
87.1008
311.68
299.021
272.607
237.176
199.251
162.974
130.493
102.359
78.2716
296.632
282.376
256.23
222.538
186.759
152.402
121.353
94.2057
70.7137
269.631
255.598
231.266
200.865
168.634
137.419
108.884
83.7222
61.8867
230.444
218.599
197.996
172.479
145.056
118.005
92.851
70.4438
51.0095
183.016
174.754
159.372
139.702
117.77
95.4446
74.193
55.0531
38.5832
135.424
130.721
120.524
106.429
89.7375
72.0774
54.8727
39.2879
26.1317
96.7547
93.6742
86.965
77.0088
64.4367
50.8517
37.5868
25.7006
16.1122
1.137
1.03277
0.938781
0.851377
0.763434
0.672074
0.582707
0.507636
0.456041
0.429805
0.425902
0.441046
0.474545
0.529496
0.613985
0.743159
0.942303
1.24944
1.7134
2.38922
3.33206
4.58529
6.16755
8.06282
10.2174
12.5507
15.0092
17.6709
20.735
24.5016
29.532
37.0436
48.7
65.7526
89.4477
122.082
163.212
205.625
235.656
239.868
216.103
174.782
130.209
92.1941
63.9583
44.6158
32.0123
24.2948
20.2818
19.3409
21.0865
25.1831
31.3674
39.4937
49.5146
61.4359
75.2809
91.1058
108.829
1.16133
1.07598
0.995438
0.9133
0.826767
0.739148
0.659469
0.59633
0.55425
0.533763
0.533109
0.549875
0.58205
0.628716
0.690971
0.775704
0.90085
1.09929
1.42527
1.95647
2.7888
4.02109
5.72015
7.89126
10.4795
13.421
16.7171
20.4203
24.6258
29.524
35.4876
43.1218
53.273
67.1264
86.2673
111.901
142.391
170.713
185.556
178.792
152.718
118.656
87.4703
63.6952
47.0581
35.6178
27.5601
21.8101
17.9008
15.602
14.8477
15.6282
17.8968
21.6742
27.1457
34.6821
44.7663
57.853
74.0179
1.0317
0.945201
0.871597
0.806089
0.743365
0.682031
0.628176
0.588553
0.566909
0.563401
0.576548
0.604824
0.647595
0.705788
0.782736
0.884821
1.0264
1.23352
1.55006
2.04852
2.83785
4.05253
5.81144
8.16436
11.0774
14.484
18.3424
22.6559
27.4799
32.9419
39.2785
46.8738
56.3036
68.3916
84.1222
103.875
125.552
142.964
148.084
137.76
117.05
94.2021
74.4579
59.0701
47.3563
38.3128
31.1793
25.4899
21.0176
17.7444
15.8011
15.3356
16.42
19.1355
23.7604
30.8381
40.9783
54.4628
70.8017
0.891464
0.808399
0.743168
0.694007
0.656001
0.625525
0.603546
0.592591
0.594432
0.609541
0.638364
0.68217
0.743375
0.825821
0.935153
1.07944
1.27409
1.54304
1.92364
2.47452
3.28188
4.45728
6.11687
8.34217
11.1477
14.4896
18.3101
22.5816
27.3349
32.6866
38.8751
46.3052
55.5826
67.4543
82.4057
99.6107
115.665
125.073
123.872
113.139
97.7076
82.0768
68.4002
57.0711
47.8186
40.2802
34.1463
29.1647
25.1687
22.1261
20.1308
19.3343
19.9413
22.3513
27.3494
36.0396
49.1617
66.1363
84.9612
0.742484
0.664545
0.608321
0.57744
0.569185
0.574333
0.585735
0.602677
0.628539
0.667173
0.722146
0.797432
0.897962
1.02985
1.20053
1.41902
1.69638
2.04703
2.49313
3.06789
3.82117
4.8256
6.17713
7.98113
10.319
13.2129
16.6259
20.5142
24.9027
29.9541
36.0277
43.7201
53.8035
66.8438
82.3003
97.538
108.223
110.943
105.744
95.5985
83.8061
72.3896
62.1544
53.3009
45.8316
39.6748
34.6816
30.6394
27.3601
24.7704
22.9185
21.9529
22.2071
24.4419
30.0966
40.9384
57.5128
77.7624
98.2169
0.605944
0.539132
0.49848
0.493867
0.528231
0.587512
0.65021
0.706183
0.759616
0.819349
0.893258
0.987564
1.10805
1.26091
1.45278
1.69049
1.98121
2.33304
2.75724
3.2705
3.89787
4.67962
5.67608
6.97254
8.67445
10.8836
13.6664
17.0588
21.1438
26.1859
32.7454
41.6386
53.533
68.0537
82.9278
94.437
99.5766
97.9687
91.5169
82.6476
73.1132
63.8594
55.3433
47.7993
41.3378
35.9448
31.4816
27.7719
24.7189
22.3132
20.567
19.5389
19.5099
21.3126
26.6752
37.7645
55.1276
76.0694
96.5516
0.490987
0.443437
0.428871
0.461409
0.540959
0.641358
0.73425
0.810325
0.878636
0.950418
1.033
1.13057
1.24657
1.38523
1.5522
1.75456
2.0004
2.29839
2.65721
3.08606
3.59594
4.20193
4.93058
5.82792
6.97217
8.48648
10.547
13.3923
17.3709
23.0426
31.1827
42.3864
56.2308
70.6328
82.4272
89.1014
90.0806
86.5022
80.1005
72.3296
64.1394
56.1013
48.5699
41.7568
35.7263
30.4084
25.7218
21.7275
18.5634
16.2369
14.6036
13.5414
13.16
14.0695
17.7381
26.2868
40.7772
59.3661
78.334
0.406438
0.390182
0.412364
0.475363
0.558124
0.632113
0.686958
0.733784
0.786143
0.851132
0.930753
1.02551
1.13634
1.26481
1.41312
1.58454
1.78491
2.02332
2.31031
2.65485
3.06287
3.53785
4.08452
4.71951
5.48692
6.49139
7.95939
10.34
14.4165
21.241
31.5067
44.5734
58.2655
69.8465
77.3334
80.166
78.9212
74.723
68.7477
61.8768
54.71
47.6473
40.9533
34.7487
29.0047
23.6759
18.95
15.1912
12.54
10.7798
9.59376
8.7877
8.38795
8.7717
10.9177
16.4359
26.5874
40.6841
56.042
0.345612
0.367023
0.415735
0.475578
0.52052
0.539916
0.544449
0.552338
0.575587
0.618885
0.67864
0.75212
0.839343
0.941629
1.06182
1.20201
1.3646
1.55256
1.77073
2.02794
2.33218
2.68527
3.08307
3.52428
4.03182
4.69273
5.77022
7.91886
12.3381
20.1847
31.1163
42.9055
53.2709
60.8182
64.8463
65.4419
63.179
59.0284
53.8335
48.0772
42.1729
36.3998
30.9351
25.8466
21.0973
16.7706
13.0942
10.3272
8.49275
7.32973
6.56177
6.04645
5.82374
6.16271
7.60586
11.1088
17.5769
26.9267
37.6058
12.8822
12.6918
12.3658
11.8684
11.2256
10.4823
9.67936
8.84702
8.00472
7.17402
6.4005
5.71188
5.1446
4.69298
4.32168
4.01139
3.74588
3.50612
3.27523
3.04017
2.79254
2.52462
2.22604
1.88109
1.46184
11.4077
11.7391
11.6731
11.3242
10.7702
10.0825
9.31642
8.51312
7.70391
6.91936
6.18729
5.52447
4.94853
4.47218
4.08999
3.78024
3.52207
3.29501
3.08096
2.8661
2.64044
2.39554
2.12289
1.80905
1.43407
9.65608
10.3126
10.5188
10.3605
9.93624
9.33556
8.63072
7.87761
7.12062
6.39484
5.72316
5.11797
4.58867
4.14171
3.77561
3.47782
3.23007
3.0142
2.81435
2.61852
2.41651
2.19921
1.95467
1.66832
1.31352
7.7084
8.57828
9.03852
9.09777
8.83702
8.35479
7.73912
7.06073
6.37501
5.72246
5.12694
4.59785
4.13629
3.74087
3.40832
3.13067
2.89685
2.69458
2.51148
2.33596
2.15913
1.97044
1.75495
1.4967
1.1671
5.89471
6.78688
7.41404
7.67973
7.60191
7.2631
6.75995
6.17708
5.58081
5.01762
4.51209
4.0686
3.67746
3.33194
3.03008
2.76994
2.54871
2.35995
2.19364
2.03849
1.88539
1.72325
1.53528
1.3056
1.0056
4.42969
5.16053
5.81181
6.21967
6.31622
6.13548
5.7642
5.29475
4.80341
4.34246
3.9358
3.58043
3.25553
2.95137
2.67093
2.42159
2.20835
2.02955
1.8769
1.73939
1.60782
1.47015
1.30841
1.10835
0.843486
3.3586
3.84258
4.3917
4.84466
5.07049
5.03906
4.80647
4.46106
4.08458
3.73288
3.42606
3.15188
2.8823
2.60702
2.33798
2.09213
1.88198
1.70983
1.56843
1.44703
1.33568
1.22097
1.08436
0.914155
0.68836
2.63315
2.86672
3.24734
3.65877
3.94801
4.03142
3.92443
3.70004
3.43859
3.1953
2.98132
2.77245
2.54174
2.28368
2.01764
1.77081
1.56219
1.39669
1.26744
1.16312
1.07167
0.978363
0.866384
0.726502
0.544147
2.15881
2.17073
2.36792
2.68961
2.98888
3.14559
3.13759
3.01802
2.86392
2.72596
2.59707
2.438
2.22345
1.96255
1.68783
1.43656
1.23016
1.07504
0.96259
0.878452
0.807791
0.734514
0.646963
0.536668
0.403488
40.527
39.7153
22.3525
6.00761
1.24084
1.92135
5.04434
5.05857
10.83
4.00671
6.23986
4.36874
10.5904
9.18443
3.47466
0.543296
0.378653
5.96888
9.58625
1.89609
20.7699
5.07953
6.0659
7.10005
6.08308
3.01396
5.90899
3.12426
29.4443
0.386606
54.4458
6.03581
6.95471
55.2555
1.04512
2.11379
6.97923
3.44782
11.4173
1.03494
15.419
0.281392
7.05838
0.988194
2.84049
28.4406
2.01042
6.88228
18.62
33.6012
1.66017
25.8129
50.8373
6.57562
5.16418
14.6699
15.1774
34.4899
3.13472
26.0406
0.649607
27.9658
1.60841
3.03978
5.16371
1.46546
5.20841
9.92739
9.49009
30.3793
14.5141
5.74952
1.36248
5.64146
14.6868
20.9594
26.6163
9.57885
0.662823
6.77536
59.2803
0.465384
5.68894
0.173341
0.420711
0.402048
2.01578
11.409
7.05038
28.2578
7.87178
147.806
2.10963
3.92268
1.22562
6.94026
2.97865
1.39907
0.538012
25.6822
18.2331
14.6855
13.95
4.78495
3.16935
2.16463
6.59221
60.8976
1.9596
0.299804
3.14565
3.2044
1.45077
4.69136
46.3051
19.6158
24.5279
0.963523
47.1468
2.27235
0.0511142
3.32701
7.01048
5.37522
6.59766
6.81295
25.4602
50.5947
230.227
6.64184
5.72403
11.467
30.7345
18.9351
0.409795
1.87348
3.16591
19.4525
1.04787
0.166315
3.2027
9.75023
25.0851
0.0732184
27.5109
0.408783
5.45078
24.2735
0.53178
0.564221
11.5385
135.939
5.8168
3.78091
11.2114
0.170132
1.6511
0.889716
26.6381
4.85389
9.18435
11.4616
2.26573
1.76505
1.69527
0.164107
16.41
5.61917
0.693328
1.34423
7.45875
3.312
10.0328
0.17066
282.187
1.27381
27.6191
27.618
14.9558
4.07079
20.4399
5.80712
56.0976
16.3957
1.67608
2.3676
0.154903
2.00048
24.5877
0.628066
13.4112
25.5689
87.9769
10.2563
3.74724
15.1294
13.6557
5.18947
24.1058
30
9.23383
1.72286
0.404553
0.509556
15.8551
2.76764
6.46913
12.0739
21.9464
0.842809
3.61565
2.07016
23.2361
17.9935
8.44686
11.3222
1.82783
9.87642
12.8357
30.5375
2.95274
0.234994
9.4456
38.006
6.7732
24.6241
6.31996
0.40513
1.67299
1.2249
0.176129
2.16434
5.12694
2.63394
10.2425
3.62829
33.4845
3.23748
14.9939
1.88646
69.2305
0.55543
1.81402
0.771162
1.56779
3.60345
4.66397
4.47688
0.618572
3.84477
1.38562
1.15915
2.17878
20.9206
1.94333
3.92512
1.37427
31.1094
28.9502
13.5243
8.03883
279.628
1.71772
11.3076
13.9738
4.51517
2.99513
6.04756
5.17369
5.4499
27.3693
68.0219
0.952424
9.88043
2.47493
6.00999
3.69068
1.72093
24.5443
20.5231
2.02548
10.2579
8.96551
20.1082
15.1232
0.679903
1.99318
10.2246
8.34794
12.0151
1.38518
2.4377
0.678071
8.45893
20.2485
11.326
7.96027
243.702
3.84625
22.0078
24.7115
8.75643
4.96987
0.444712
2.50446
2.18172
17.8932
110.686
0.154461
0.415195
5.72903
1.1718
13.1352
132.021
0.789518
14.7208
2.85875
1.48385
5.51603
30.767
33.433
1.55542
5.69659
34.945
1.90729
4.15035
25.7258
57.9862
297.111
35.6316
1.77384
3.58991
2.70783
3.90968
15.0666
0.363361
4.49022
3.71209
0.212771
9.24409
1.30993
4.91391
23.3301
2.19154
22.7696
1.6951
7.67606
2.21953
1.79546
0.134495
146.079
2.54034
0.227729
34.9448
8.78429
6.66839
41.0221
1.95834
1.95428
0.130933
24.1973
4.99963
12.7559
25.543
0.190261
2.04748
1.10862
4.06975
2.54131
29.807
3.05108
4.35362
31.2298
3.00907
12.6473
3.41669
3.60384
1.84351
6.50158
3.50466
7.17801
2.85892
6.27983
1.16285
1.26694
26.6009
1.69678
7.45051
7.2613
12.8792
9.0067
2.91537
19.0963
3.95805
20.6171
5.03382
2.16191
6.36446
0.980036
29.8212
4.92288
3.59605
0.497609
42.3972
5.57325
0.178692
4.17057
12.8603
108.036
49.3521
7.10546
2.07106
21.3692
1.16627
1.75459
7.43967
16.9742
0.137368
2.81594
101.824
1.66829
5.31684
16.7498
6.40526
1.53898
15.0438
0.190162
4.18891
141.244
6.62937
0.622676
3.30847
37.4649
0.663617
1.86245
1.15622
3.30458
0.66216
2.30029
8.57558
5.29855
1.95239
8.83401
45.894
10.8266
31.7131
3.27873
3.29661
4.0752
0.992077
4.11039
7.22769
2.40737
19.3726
1.96912
29.2603
0.144256
0.575025
7.95625
54.5767
2.40091
1.77866
10.2684
26.9048
18.8644
3.02615
1.10172
34.4963
6.57918
7.22059
8.30968
2.35675
4.2621
6.67246
4.87667
46.4174
67.7731
2.06546
24.309
22.8836
8.28426
9.10401
0.220042
4.8156
0.17275
0.954634
0.399013
4.7491
54.5295
6.22613
4.88013
2.66926
4.026
3.90598
2.97759
1.22748
5.14169
0.716307
3.00131
31.386
8.91534
1.7075
1.46104
0.455219
30.3841
48.5906
0.556928
0.695409
4.30169
4.28319
4.83203
51.68
223.074
73.8558
2.12229
4.19354
2.83527
16.7102
3.60989
4.93945
0.586438
12.4649
0.523431
8.8886
52.4792
5.85011
16.7044
10.9246
2.52377
3.02396
0.961866
4.64267
7.65721
11.7632
2.43828
94.1263
2.15518
17.2403
21.839
2.4719
29.2901
0.278838
6.16395
8.11673
0.204974
38.3894
2.64721
2.62943
0.722282
1.27084
7.19941
7.44552
229.24
21.6695
17.2791
3.41194
9.89026
0.723426
16.1664
25.6689
181.428
16.4046
2.73957
27.4077
0.357441
4.92022
5.06976
3.55927
6.14891
6.69754
10.8575
8.8871
4.87787
0.972749
2.63771
0.682182
0.141352
27.797
2.9327
5.53106
0.15512
55.8816
1.67094
0.537263
5.09977
5.8624
7.74088
2.42734
47.3686
1.96816
1.80862
0.31075
3.06226
6.68294
0.958427
3.06302
51.8991
16.5653
1.09064
6.18802
23.6423
3.50187
0.172569
4.83014
45.2255
2.141
0.613331
6.16017
8.9779
7.80545
8.6882
9.28109
3.92083
0.675983
2.72068
41.3684
12.6964
5.80509
39.1105
3.32765
3.74238
1.55636
2.98845
86.5969
6.82407
25.7287
0.110171
3.16634
5.59705
4.1685
4.72698
2.46608
0.608266
0.411207
1.97923
37.4353
7.28363
7.86843
136.957
11.9463
4.8612
2.02384
1.32146
6.43087
1.69271
6.97595
7.35338
77.0624
25.2196
5.93887
33.9422
1.90528
4.08703
0.155804
7.95914
8.82148
0.171543
16.4842
13.0188
8.1841
27.7876
7.97657
1.30716
0.08445
2.6392
4.87184
8.5819
3.37339
0.96032
52.5841
6.53245
1.57992
0.674835
25.914
0.168999
1.91169
13.0285
2.58164
6.39308
2.67874
0.801939
45.2537
5.80503
4.13802
3.0732
1.81083
1.90858
27.0622
8.50438
5.50922
3.93567
3.33642
7.04825
5.19243
0.861191
3.80541
3.48353
55.0789
0.861633
4.62979
2.95366
9.64445
2.19549
4.73433
5.11618
20.3664
6.63301
10.3625
9.16689
3.17319
47.1118
1.74488
3.09444
1.73578
3.27162
0.219339
2.63234
1.83007
0.383952
3.17837
16.0854
2.78084
114.163
1.72643
5.24954
155.739
4.65367
9.02981
48.2879
9.21521
2.59547
18.4666
9.86082
28.1829
14.5375
11.2638
8.40163
7.44261
11.3317
0.57828
0.176203
8.81108
2.35402
14.1989
43.1323
1.03122
20.2933
58.932
13.8168
4.87949
1.75375
0.11814
32.5855
5.16173
4.30714
8.51079
61.5281
25.7394
0.153463
5.04478
2.24761
0.223184
46.8085
119.199
4.70451
5.14314
3.3582
4.98642
1.40411
0.177458
1.00889
1.67492
20.6402
5.66554
3.73397
5.06848
0.528602
2.21401
9.24235
1.98499
9.3647
1.08257
25.2631
3.4099
7.58753
131.257
3.11226
0.329356
0.296754
3.67379
1.91441
25.9346
8.82763
0.269791
5.19886
0.168636
28.7536
24.6538
0.933862
23.615
16.0487
26.4293
36.0455
13.8864
15.3049
3.72611
6.93072
0.413212
4.77392
5.44878
14.0124
21.8049
4.56368
1.21133
31.0802
2.69562
35.9421
4.37995
5.11274
4.74764
2.10028
34.4464
88.3625
1.84866
8.13667
0.453287
23.8004
6.30571
5.51374
3.99039
1.45524
23.4241
15.7309
1.04464
63.5103
2.10531
2.39607
19.5888
2.14432
37.0659
3.10973
23.7563
1.24937
6.22781
14.1295
5.80134
1.67699
2.98769
1.69604
34.0379
13.161
5.93961
2.47733
2.55659
4.36906
0.22295
37.2293
1.37732
14.4347
3.21261
0.171072
9.38868
2.06324
0.176884
1.08513
1.03538
0.544483
0.172256
10.0964
0.669484
9.5082
9.64142
22.7491
25.1467
21.4027
0.11962
2.61022
6.14556
6.05772
4.85281
4.88599
3.15589
2.01493
66.3173
0.930928
30.1695
14.7123
36.6779
10.6659
9.15013
10.4732
21.8536
0.446756
10.9617
32.7792
28.858
0.74862
3.23357
9.06072
3.62932
25.1183
42.1723
41.0935
69.6281
2.08497
6.60023
14.3406
2.80772
6.46426
119.868
4.3837
0.495227
3.93352
90.1457
0.104287
5.13254
0.631409
19.7085
74.6969
23.5132
23.4848
4.07921
3.51857
4.67219
12.4652
44.218
30.7473
11.4325
0.551421
0.959506
2.09433
23.0356
6.85958
0.611631
20.1745
8.58057
32.4233
2.49928
2.40188
4.98232
10.8863
30.6714
3.35318
27.1377
3.39973
1.5976
1.5821
150.022
37.6998
19.4875
3.73083
3.01044
8.51977
1.50136
0.454901
1.76625
0.39038
3.21794
4.83949
21.2134
30.8549
4.01527
1.23473
8.373
82.4118
6.4399
1.32735
2.56112
34.4239
3.17412
1.95438
17.2398
0.39029
9.3042
1.92804
4.15096
4.58223
8.68295
28.0894
2.46284
9.68066
0.822506
0.457559
0.908477
61.9439
4.7132
20.7938
3.38798
7.13034
0.692663
5.88738
3.61199
22.2523
8.56459
27.6003
3.84798
10.4098
0.611367
24.0811
15.3294
9.45112
0.299428
16.4918
0.223855
1.44629
22.9883
0.65568
4.2906
2.40022
3.89915
3.24934
2.40556
0.563934
63.3012
9.57111
2.79759
7.12567
0.516868
2.48686
7.10941
0.835687
2.84474
10.3298
0.467042
0.116
1.57289
1.12286
3.83598
7.08704
1.28651
6.14654
8.6145
7.19651
1.003
7.86719
8.4571
7.8144
21.5441
1.95904
0.517011
46.0847
1.23243
5.22398
7.0515
14.568
7.37646
16.8864
3.06098
1.36867
3.91489
1.92098
55.0232
0.426698
30.9288
4.78945
0.126547
1.32645
1.14179
2.51377
25.3578
3.36413
33.7401
5.84627
1.34091
11.8557
1.08174
1.33422
9.86702
4.15249
60.4444
7.97185
35.9018
2.59196
11.3259
1.1264
5.12494
3.33094
2.82473
50.7333
19.2259
0.517317
25.4839
0.771671
1.72661
23.8355
0.515636
11.2722
4.57288
6.11603
6.77026
7.47615
2.08609
23.3419
3.25719
2.4176
49.1041
1.78338
23.8776
1.73109
8.92869
2.08221
0.229576
2.31813
18.6259
25.8368
27.8427
0.786989
3.39105
123.709
15.3158
14.8198
1.98778
3.45122
22.324
1.24247
1.49529
118.797
33.1362
5.10734
4.12941
24.0313
0.607599
46.0708
6.43364
10.9172
71.2181
19.5027
0.175341
5.62515
5.2127
6.29684
6.66784
59.2376
2.90554
28.6014
1.04725
2.28176
1.85174
41.1438
3.5832
8.40359
13.9294
2.97479
66.3101
21.5084
7.56311
5.05579
25.2155
50.1732
5.56574
6.55858
0.534103
4.03092
6.47011
2.50987
2.82592
3.48714
8.73699
0.60682
1.65078
5.73563
2.97467
9.98727
0.124925
1.02001
8.80245
3.21285
13.266
2.67242
4.70004
9.56317
7.05643
22.4416
33.5259
1.61872
5.64786
0.815678
12.9083
16.0082
0.396497
21.5887
2.81729
13.5571
0.359032
0.673527
3.98267
19.3939
9.90454
24.9303
2.53114
6.53376
0.695552
0.738028
2.18406
7.86348
9.62305
1.94832
7.27224
36.0197
1.76997
14.3653
15.8883
1.04531
4.73057
3.54323
2.04858
0.480407
2.76408
5.2834
3.75949
33.5114
0.555798
1.72439
39.2087
56.7734
24.5298
3.77598
0.386989
58.3438
24.2316
2.14086
4.87691
14.7593
5.51437
5.42445
6.6092
17.4035
5.26882
6.37342
19.0911
1.13823
12.2098
24.5512
68.1859
2.89868
9.77182
17.988
7.33309
0.808563
73.1489
5.25547
121.555
11.7685
29.7274
0.267002
32.5581
31.5542
0.241411
29.972
13.9774
36.518
27.4781
24.8199
0.693154
16.4135
2.1025
5.97482
11.065
1.15377
22.664
5.84571
11.4519
36.2972
1.75365
8.33604
5.43857
35.2575
5.315
27.0745
3.82446
0.241787
0.638882
22.3349
20.835
2.62067
0.857704
71.4872
4.43381
93.9304
0.133038
7.53708
20.2909
0.920037
3.93747
44.4769
7.218
34.083
59.1821
3.199
2.946
40.1636
5.53491
1.0108
0.471173
3.70762
34.9304
16.7952
10.9444
11.303
2.53898
29.4241
5.79015
1.06644
2.95831
23.3544
4.2491
14.614
1.7474
14.8616
6.08793
43.6999
15.3055
13.1535
4.37589
23.6732
3.55061
2.87479
0.169634
33.275
33.6148
1.12641
10.3486
5.4957
0.781398
17.0335
2.84116
3.06009
16.2991
3.44078
4.88291
5.36119
3.70699
6.90532
12.7988
46.5878
32.325
13.8884
3.80361
2.55645
27.0199
13.5663
2.12349
300.757
2.0325
10.9663
255.511
55.2896
10.193
4.41424
44.7613
23.9274
2.98013
23.294
3.04194
5.74368
1.66804
4.44939
2.64541
0.603618
36.7171
0.263586
18.6116
9.83592
3.64391
2.62664
9.8353
9.80726
0.184709
23.6721
13.069
24.7053
1.69251
4.56819
0.855626
18.9696
17.8432
0.569344
1.69199
10.4821
5.465
3.20411
0.903773
11.3076
24.9706
58.4157
18.7586
4.92303
3.61621
41.5339
7.86127
24.0734
0.652965
0.540481
2.5301
108.76
1.53415
174.926
0.851794
9.08067
7.85287
25.1373
0.592434
2.50239
22.1276
12.0644
3.03687
2.33639
43.3757
25.4825
7.04246
63.6874
5.1212
5.25986
2.94942
0.507118
21.508
89.5469
4.50243
2.09662
1.23536
0.13454
3.16746
32.1555
4.17111
101.465
42.202
0.847559
3.98657
41.7277
15.1564
25.7899
1.81304
1.52904
12.106
2.74445
0.822444
2.23284
2.28427
2.04591
1.18834
12.6698
47.6527
6.42792
3.7176
0.389781
1.83873
8.23954
4.9763
1.99446
9.05349
33.8376
2.26258
35.2799
3.99656
30.1123
6.90265
4.10904
3.47128
2.95485
18.6969
3.01671
3.04529
5.61777
93.331
50.5421
4.00254
2.37755
5.00932
2.47989
0.551725
1.96321
10.2863
0.944053
3.50105
6.13457
5.91777
0.751606
30.6051
28.3673
10.8682
22.3704
4.92658
0.733748
10.5205
7.81774
2.20069
0.48674
53.657
15.5218
2.93445
15.1419
3.74146
0.346177
7.84845
2.62186
18.1033
0.808168
174.155
19.3987
7.79279
7.17328
13.752
11.7053
51.8024
2.03497
0.657638
4.91037
2.07901
3.36022
14.0615
6.23815
4.15182
28.3464
3.48729
1.93603
5.98561
4.90627
18.6786
3.89899
1.3152
4.11718
1.66474
3.07822
0.0713984
2.68526
6.08361
0.357511
58.6185
0.51786
16.1985
2.95698
25.7404
11.5631
0.54143
23.5819
7.75248
0.169975
53.299
5.33929
2.59317
19.0291
0.714574
29.4861
30.3114
33.4458
6.09828
0.11883
2.08552
24.5335
4.47871
5.08406
4.83575
0.343107
22.4572
2.07013
5.53586
24.8897
5.84689
4.23498
153.207
1.78409
52.0904
0.717031
32.178
0.894737
10.931
7.34846
1.46923
1.33702
0.738838
35.9238
24.9734
25.1532
1.77339
53.9862
24.8018
6.09763
0.171023
6.69468
1.17051
18.8035
24.5895
98.5245
1.79898
3.46452
21.1277
3.96014
7.28733
27.1732
33.0793
2.91443
12.8544
36.5488
4.721
3.42636
4.66003
19.9189
21.3214
1.46282
2.07254
3.39782
0.472353
0.501661
35.2662
34.4405
7.04825
10.5356
0.695045
1.60891
1.16704
8.21702
17.6581
2.11911
3.72313
0.395373
3.91785
2.57465
23.2204
1.32015
10.3547
11.4363
28.6805
28.6669
0.672511
15.4643
0.990453
1.08712
4.06224
2.94035
0.529309
2.44142
8.30874
82.3741
33.9324
2.08332
19.7468
5.48041
5.20072
8.27533
6.27092
2.11545
5.82898
6.50803
10.0568
0.153878
1.35326
2.30641
1.29101
5.16193
2.35363
2.43014
5.0361
97.8746
66.7634
3.018
5.11589
4.94949
119.084
0.444335
2.47174
20.3122
5.52215
29.1145
6.83256
7.0652
5.35364
36.6165
18.6711
7.16173
2.96751
4.21304
25.4482
18.3327
1.88494
2.9788
3.94082
11.7715
4.49873
3.29925
20.4189
7.50923
4.00711
2.08833
3.23939
3.40623
34.2744
5.73597
7.15268
0.409494
58.8859
21.6267
3.27471
3.63487
9.70219
16.1404
2.30142
3.89802
23.5976
16.2271
3.33115
22.3152
24.9979
21.7347
10.8804
4.07073
13.1791
10.2592
13.5399
3.40126
70.0796
3.29285
1.69063
0.350191
15.351
6.64905
0.485922
5.61519
2.1875
2.23461
3.14584
19.8412
2.96107
7.71605
7.3982
0.960126
5.46547
3.80904
1.88822
1.71575
57.1322
2.87957
3.20583
2.05647
2.0038
49.6442
2.61734
32.7336
4.23656
6.3708
3.19167
1.96728
68.1395
10.9823
4.27348
1.30425
29.7644
1.10277
1.28703
5.4125
30.2462
2.74775
11.6684
2.22272
9.1923
0.270555
24.4818
0.263132
1.2311
0.27264
4.82479
2.73027
15.3251
6.95935
1.31447
6.59686
1.69366
21.3946
0.91612
7.23118
5.08317
27.7059
4.38064
20.6752
3.02834
20.9564
0.0875048
44.4626
12.0123
83.2816
2.18049
26.0057
0.732459
11.2776
0.145062
1.25404
77.8429
21.1199
3.75063
16.3625
0.52421
24.5426
6.51285
1.29265
27.1221
0.23023
34.3356
5.52656
13.6907
2.40546
2.10597
1.71
5.00101
5.57362
1.19783
5.51154
53.2287
3.92402
8.83301
4.01411
47.6098
11.0458
2.94546
7.37428
5.08356
2.54243
16.7835
24.6896
2.28024
2.05567
28.0589
2.41943
10.4526
4.4749
6.8191
0.782921
70.8656
2.52237
4.55504
11.504
4.74889
3.32069
13.2875
34.0803
2.64073
30.9018
2.71395
2.07725
23.1128
175.225
26.3258
1.81872
5.65456
2.36432
3.3441
10.4947
33.5816
10.6468
8.38562
2.80764
11.7942
8.89933
3.86711
0.704323
1.83081
1.26661
3.35726
123.754
17.2601
51.6938
17.3369
0.330226
6.29576
6.53313
22.4636
4.62337
1.36496
8.31793
2.25022
2.69548
3.81844
10.0283
3.86264
4.42457
17.6288
34.9508
0.516451
3.81659
3.87653
3.13618
2.57254
12.091
3.61901
0.214791
30.8491
0.174391
1.13874
2.56315
3.20737
2.00433
45.3595
9.66988
36.5805
7.13631
4.73065
4.68795
0.328082
14.6077
0.594225
19.5296
6.51066
3.95765
8.59295
6.53077
37.9444
2.59227
6.02965
1.13615
2.77445
20.368
1.46861
2.01514
5.9929
24.8154
0.335568
2.83563
12.3122
13.1643
3.17747
2.03974
25.3227
0.472293
2.4333
6.93642
3.75894
33.1823
15.22
3.9174
2.34189
24.3091
2.28094
20.4411
1.98706
16.0813
17.0348
3.80904
2.86965
7.41065
1.71795
1.39327
55.9218
7.25275
106.022
6.03985
4.51989
3.87536
34.1831
20.3911
36.8063
1.58722
6.30409
2.51138
2.49625
4.68856
1.41808
0.753076
11.1571
3.99745
23.2717
0.744916
23.2008
3.90775
23.8483
20.3335
22.9429
6.73371
2.33219
5.92481
3.66561
18.6831
2.50638
12.5194
5.86714
2.00072
1.95886
1.85182
3.84809
7.42899
25.4481
2.03849
16.0389
3.8628
4.83273
24.9462
2.57608
13.5257
3.44362
4.07548
2.87876
3.77997
3.66529
0.106146
18.0276
1.49863
59.9146
1.04369
2.09686
3.69332
22.2218
9.79917
4.224
13.2616
5.00267
0.935443
4.02397
25.3515
34.6355
33.0054
2.34233
7.42846
4.30432
20.3006
3.81021
5.88449
1.80759
11.281
1.84389
61.558
50.2676
0.189839
11.5538
15.0349
6.31705
2.69651
8.34443
7.80875
1.44155
9.74575
5.62442
3.99445
9.32141
12.042
6.51695
1.73944
3.75131
0.167986
0.729488
17.6373
2.07765
0.319005
2.92224
3.66006
4.9343
49.7778
1.03696
19.7788
1.49711
7.26978
2.5999
18.26
2.4366
7.43616
0.454276
10.2682
1.62986
22.8673
124.568
4.86831
7.50144
5.91406
20.4361
1.39857
163.558
5.16993
9.88819
27.2659
3.89901
0.23616
11.2274
6.68075
2.7518
7.97145
0.8811
7.65737
2.53747
4.49251
0.994534
1.3206
1.56568
1.37561
8.28649
16.492
2.23808
0.720231
0.811906
21.2651
0.774616
11.4708
0.470767
3.65734
20.0706
5.72493
1.34987
17.5345
2.49109
3.30309
21.0124
20.3499
22.9207
7.77877
24.8502
14.9863
28.8663
30.6405
24.3301
8.71653
0.559799
3.43277
2.45345
28.1583
22.3424
0.816766
13.2047
2.83028
1.69181
13.0722
3.13856
26.1843
2.79411
14.5078
0.877179
25.2125
2.00101
68.1142
0.827653
4.73617
1.34938
56.7829
3.86641
1.68639
8.82403
3.94257
2.62064
3.03758
6.27741
5.9033
2.30455
27.3037
3.91682
210.108
4.57146
5.39779
28.8768
1.81815
2.47117
24.2095
6.17881
0.551091
23.3884
2.21882
5.88074
8.62165
1.09175
22.014
2.46914
10.3468
4.6286
10.9411
2.85839
7.40154
17.9268
0.142593
40.6221
25.4907
18.9898
8.00151
9.46392
12.0573
67.8772
0.139791
24.6444
58.9028
314.032
11.1836
7.31549
16.2108
2.46745
5.29915
0.59359
4.69327
25.6323
8.40621
31.8931
145.147
146.253
212.587
3.52368
9.04083
1.45864
5.79987
7.69298
4.8639
2.16548
4.5533
1.09139
3.23539
77.8077
3.28841
63.6741
5.82215
71.3287
6.46991
1.00757
4.05914
2.09615
19.6681
12.6699
6.57105
10.7309
23.108
8.49376
240.51
37.7515
2.34592
7.07465
2.16072
7.51256
3.96556
2.37115
37.1581
36.8941
10.6737
64.2089
1.26488
0.643786
2.82016
5.04048
2.17743
5.12086
0.795968
33.4294
1.58502
2.28209
1.27268
11.983
11.5478
19.6526
6.32336
5.4933
2.16291
24.7864
12.9806
9.85203
3.82096
29.4187
0.371811
8.76828
3.75007
1.32396
9.82742
27.0736
2.87848
20.4518
3.66013
22.1381
2.29455
2.59541