/*--------------------------------*- C++ -*----------------------------------*\
  =========                 |
  \\      /  F ield         | OpenFOAM: The Open Source CFD Toolbox
   \\    /   O peration     | Website:  https://openfoam.org
    \\  /    A nd           | Version:  10
     \\/     M anipulation  |
\*---------------------------------------------------------------------------*/
FoamFile
{
    format      ascii;
    class       volScalarField;
    location    "150";
    object      p;
}
// * * * * * * * * * * * * * * * * * * * * * * * * * * * * * * * * * * * * * //

dimensions      [0 2 -2 0 0 0 0];

internalField   nonuniform List<scalar> 
10435
(
-0.236232
-8.19958
-223.895
-67.8799
-95.4241
-162.399
-234.303
-239.568
-237.737
-222.297
-37.2272
-121.048
-266.914
-4.48131
-4.67862
-217.517
-4.2656
-254.405
-230.928
-8.46051
-225.364
-65.9496
-212.013
-168.986
-194.617
18.0803
-0.462987
-262.533
-3.26015
-234.176
-181.79
-48.6908
-235.569
-3.01011
-205.672
9.41114
-200.084
-6.6817
7.65274
-213.882
-188.311
-221.955
-3.65672
-35.1621
-194.979
-187.762
-181.964
-4.33729
-250.591
-76.9465
-227.383
-171.396
-29.5532
-4.70397
46.9726
-3.36328
-193.94
-2.35656
-3.88632
-193.716
-4.97465
1.76893
-2.34191
-137.707
-201.902
-217.756
-3.80847
-3.7186
-235.954
-142.352
1.97097
-4.50075
-3.40557
-213.021
-4.24706
-3.66492
-118.798
-241.492
-248.105
-3.2873
-97.1131
-0.419698
-20.615
-3.77808
-105.971
6.197
8.78979
-31.1117
-1.30234
4.84902
-48.3081
-66.2196
-7.75953
1.96434
-3.12984
5.20427
-79.423
-4.43165
-3.8019
-92.9627
-4.09513
-84.8007
7.12467
-15.6479
-99.8805
-52.4295
-16.8193
-86.8891
-105.33
0.0644954
-62.7607
-72.0821
4.29101
3.34641
-69.4522
-51.3474
-100.286
8.83886
-27.5219
-102.063
-105.381
-3.65616
6.38946
-4.11363
-50.003
7.52107
-93.4361
-3.86487
-97.059
-3.91412
-4.11932
-40.8763
-219.313
-4.31062
-2.25925
0.148699
0.818687
-80.1409
-12.5348
-35.162
-20.608
-190.721
-3.19301
-137.784
-75.8747
-4.52332
-2.69171
-150.536
-4.17058
-142.73
-3.43068
-186.266
2.10786
-160.312
-168.329
-1.50697
-55.9687
-0.874645
-189.11
-17.4574
-169.699
-4.32466
-53.9192
-103.059
-1.72836
-125.477
-228.308
-99.8636
-139.568
-151.511
-191.067
-3.92792
-2.08933
-4.68166
-139.983
-5.03449
8.2594
-4.06872
-46.0598
-2.37987
-22.1502
-151.73
-136.334
-1.14703
-181.287
-3.35825
-4.36803
-235.255
-111.855
-156.789
-127.861
-16.8834
-0.145351
4.41498
-63.5157
-238.052
-4.06549
1.01286
-3.98154
-207.569
-0.218558
-0.235647
-266.911
-1.79426
-234.877
-78.379
-43.9718
-91.7139
-3.28566
-86.4543
-2.48861
-209.068
-128.371
-120.371
-0.178335
-4.3678
3.05231
-1.96031
-59.0413
-4.11982
-2.90674
-4.39143
-3.29297
-4.3031
-1.25692
-211.961
-130.212
-2.70033
-174.65
-4.02517
-3.79188
-224.344
-82.6689
-171.556
-2.63366
-3.92623
-169.09
-0.458772
-158.342
-183.169
-19.627
3.56382
-2.38271
-3.72637
-83.6422
-238.878
-0.459353
-244.931
-5.64338
1.9197
-8.26219
2.86601
-241.458
-96.3099
-252.163
-101.68
-8.97648
-254.934
-4.09575
-3.41492
-254.906
-171.23
-1.65625
-133.166
7.53276
-3.54751
-6.65019
-198.688
-7.265
-93.1202
-256.414
-249.158
-251.212
-225.547
-43.6896
-108.665
-0.824251
-83.6207
-224.59
-252.591
-224.618
-4.13085
-262.731
-4.32767
7.74221
-7.74383
-126.688
-163.9
-3.51636
-3.73414
-3.63674
-30.5436
-3.96402
-252.483
-180.142
-24.8957
-4.29691
5.82864
-69.5734
-191.9
-3.66133
-137.633
-272.381
-8.77758
-61.471
-4.5866
-3.7905
-161.259
-204.074
-3.24958
-30.5104
-4.56434
5.38454
-128.508
-229.148
-17.2377
8.99968
-166.442
-3.70276
-106.975
-123.829
-3.91136
7.75497
-11.5254
-259.043
-241.747
-35.9615
-280.597
-3.66458
-2.42479
-206.764
-3.71297
-2.68779
-241.348
-155.796
-3.07055
-3.42103
-3.60683
-2.3782
-2.14071
-29.038
-0.554243
-6.36727
-7.60101
-10.8387
-4.47315
-3.3495
2.85159
-6.53987
-252.935
-2.56689
-215.502
-6.56987
-283.545
-256.478
-264.347
-296.355
-209.379
-3.89172
-2.98138
-6.08617
23.6483
-1.92922
-12.1249
-2.51901
-19.7501
-4.34015
-130.221
0.575538
-250.624
24.4437
-12.4615
-288.68
-266.531
-5.5857
-10.1772
-3.7232
-2.52947
-2.86161
18.0341
-10.4845
-51.1958
-243.833
-3.42137
-245.734
-263.412
-286.098
-285.791
-261.426
-263.958
-218.808
-4.12298
-4.04964
-3.27402
0.00768489
-250.612
-2.91141
-291.455
-5.52176
-3.03459
-13.6043
-2.50626
-6.6575
-230.775
-4.37893
-245.535
-142.413
-2.85194
12.3152
-5.42543
-245.929
-3.58138
8.24694
-6.57454
-2.31839
-2.98855
-1.40891
-232.562
-15.8946
0.0862244
-2.84845
-3.13767
-301.026
-4.32269
-4.87672
-269.358
-2.4745
556.54
312.215
313.976
188.391
109.401
32.5438
5.54908
-6.53698
-22.2875
751.244
365.302
403.742
252.232
152.332
68.9757
31.8342
10.2053
-8.81908
1010.52
443.439
468.486
294.727
175.397
84.4006
37.31
8.94909
-10.1578
1269.34
563.033
515.817
321.736
187.829
95.1659
44.2466
13.6603
-5.41458
1463.15
627.908
514.211
323.536
188.836
102.339
52.6297
22.9872
3.53238
1568.95
538.536
443.267
296.083
179.769
107.909
63.6029
36.365
17.7149
1563.38
267.375
305.072
242.5
162.502
112.493
76.884
53.5306
36.0573
1402.88
-99.4961
125.405
171.595
138.427
115.062
90.3751
72.2027
52.9329
1011.14
-431.384
-60.9004
93.9382
106.894
112.395
100.36
88.159
76.6171
379.047
-617.408
-222.14
4.17168
57.6963
97.5646
100.621
97.3455
92.2724
-367.733
-509.244
-324.4
-69.547
4.59598
62.631
83.4324
92.013
97.4687
-1069.28
-178.14
-323.231
-99.5111
-38.4731
17.0676
50.4002
68.0061
86.6707
-1437.01
110.821
-242.315
-87.4899
-69.2095
-28.4717
6.38346
31.6723
53.3379
-1317.23
274.236
-131.195
-55.3619
-77.0068
-54.4338
-31.3994
-6.92672
15.5003
-1055.6
338.922
-39.2746
-19.3721
-66.4305
-65.1403
-56.0687
-38.4944
-18.2678
-890.203
348.564
7.77278
-2.03349
-57.2183
-67.5576
-67.997
-58.6894
-44.6958
-824.363
316.82
13.7945
-3.55778
-53.4232
-65.6382
-69.4998
-65.5731
-55.8548
-790.959
232.748
-12.4052
-20.1705
-55.3599
-62.7308
-64.8169
-61.5206
-54.7064
-698.763
114.183
-48.1542
-43.6874
-60.3729
-60.5182
-58.7033
-54.1409
-49.2834
-545.523
-26.0065
-84.4258
-67.2529
-65.1709
-57.818
-51.6149
-44.9358
-38.8606
-409.703
-162.272
-115.104
-83.7893
-66.7791
-53.8477
-44.6672
-36.8749
-31.2089
-335.864
-227.045
-125.88
-85.5057
-62.1781
-47.1226
-36.9625
-29.0263
-25.7187
-299.865
-172.462
-106.189
-72.2044
-50.9813
-37.4494
-28.4346
-21.7063
-19.4635
-257.097
-61.3777
-70.7783
-51.0978
-37.0411
-27.0535
-19.6181
-14.1726
-13.2179
-202.11
23.1196
-27.0075
-19.0881
-17.0017
-14.7621
-11.683
-9.64792
-15.106
8.01712
6.81291
5.69612
4.87448
4.17366
3.57244
3.06443
2.66653
2.39342
2.23903
2.18233
2.20719
2.31478
2.52733
2.87483
3.40643
4.2093
5.45923
7.46985
10.6602
15.539
22.6778
32.3945
44.8033
60.9091
81.0806
102.472
121.24
139.295
160.84
187.486
222.895
278.996
355.396
440.105
537.414
638.141
717.821
759.457
728.847
616.795
468.945
329.646
220.099
142.241
89.9614
59.3395
44.8283
38.7296
38.3155
44.0329
55.9277
74.4011
101.193
138.486
187.648
249.098
326.996
410.494
3.70337
2.68746
1.69455
0.918659
0.259219
-0.298795
-0.759218
-1.12235
-1.39961
-1.60921
-1.77899
-1.93229
-2.09516
-2.30547
-2.6327
-3.11576
-3.7586
-4.56402
-5.54485
-6.72022
-8.1042
-9.64327
-10.9922
-10.9833
-8.17912
-2.55501
4.26656
10.9688
17.9113
23.6449
28.2572
34.5965
43.5537
51.5661
56.35
59.208
58.6461
39.5805
1.0999
-27.0158
-40.5081
-49.1533
-54.3995
-57.368
-58.0391
-57.9042
-58.3584
-56.1768
-50.8747
-44.938
-37.6157
-26.8151
-12.5496
5.65255
29.2375
59.7402
98.6385
150.265
211.873
2.64051
2.11002
1.5723
1.14321
0.771871
0.449755
0.181836
-0.0255363
-0.169734
-0.254508
-0.286193
-0.273051
-0.21902
-0.12581
0.0138232
0.218677
0.525001
1.0089
1.79332
3.02654
4.88524
7.51131
11.0107
15.5451
21.2197
27.9325
35.4621
43.6836
52.9645
63.8225
77.0899
94.2911
117.228
146.223
180.375
218.093
253.122
275.036
271.946
243.16
199.914
153.716
112.666
78.8804
52.3685
32.7394
18.7238
9.34054
3.73247
1.04181
1.02083
4.10946
10.9145
22.5733
40.5942
66.9347
103.624
154.064
212.953
0.93021
0.500985
0.101129
-0.225858
-0.511221
-0.764579
-0.988226
-1.1827
-1.35107
-1.49884
-1.63291
-1.75943
-1.8846
-2.01441
-2.15707
-2.31619
-2.4861
-2.64395
-2.74323
-2.71467
-2.4793
-1.96663
-1.1237
0.105239
1.79528
3.94329
6.60061
9.86176
14.0074
19.3635
26.5937
36.5332
50.1838
68.039
89.4038
110.978
125.612
125.86
109.255
81.6469
50.2946
20.456
-5.00132
-25.4439
-41.0007
-52.3328
-60.2626
-65.4936
-68.7151
-70.4551
-70.8038
-69.4059
-65.6287
-58.0586
-44.6835
-23.1512
8.16345
50.4394
98.1923
0.686703
0.447269
0.235479
0.0732391
-0.0525634
-0.156374
-0.249898
-0.33798
-0.418756
-0.490131
-0.550252
-0.598632
-0.633145
-0.652017
-0.651098
-0.622936
-0.552523
-0.414545
-0.167622
0.242401
0.877636
1.78824
3.01429
4.58551
6.54991
8.97448
11.9999
15.83
20.8093
27.3796
36.2511
48.3274
64.6683
85.5739
109.116
130.12
141.37
138.409
122.376
98.5281
72.0617
46.4409
23.5676
4.23159
-11.3979
-23.6275
-32.9983
-40.1599
-45.7202
-50.0246
-53.2118
-55.0475
-54.9115
-51.3457
-42.3283
-25.9857
-2.21538
26.9456
55.7499
0.423502
0.230292
0.0771672
-0.0307506
-0.10368
-0.164601
-0.238393
-0.334594
-0.445846
-0.562268
-0.676471
-0.785551
-0.886409
-0.976487
-1.05005
-1.10008
-1.11388
-1.07495
-0.956747
-0.728835
-0.354508
0.192292
0.93196
1.87689
3.0613
4.56513
6.54665
9.22608
12.8803
17.7962
24.5235
33.8222
46.2915
61.1716
75.4346
84.6998
85.2471
76.5851
61.2561
42.5078
22.9781
4.49848
-11.8285
-25.5288
-36.5638
-45.2446
-52.0114
-57.3449
-61.6378
-65.1265
-67.977
-70.1144
-71.114
-69.7931
-64.457
-53.6366
-38.0564
-21.6423
-6.94668
0.727372
0.609376
0.529347
0.490095
0.478247
0.465814
0.430002
0.368752
0.29647
0.226125
0.165138
0.115774
0.0820424
0.0674305
0.0796649
0.127962
0.227093
0.389757
0.635065
0.978872
1.44297
2.03708
2.76578
3.63858
4.66869
5.9683
7.73902
10.3229
14.0256
19.0741
25.8399
34.4893
44.7051
55.098
63.0189
66.5501
64.4807
57.0519
46.497
34.1483
21.3363
9.08025
-1.92745
-11.3353
-19.0894
-25.4523
-30.608
-34.7386
-37.9745
-40.553
-42.7574
-44.7076
-46.1901
-46.3147
-43.8311
-37.6349
-28.4729
-20.18
-14.543
1.09328
1.02185
0.980193
0.966073
0.9582
0.940655
0.906433
0.867511
0.836297
0.812897
0.798399
0.790989
0.794123
0.813487
0.857073
0.938804
1.07294
1.2552
1.50471
1.82933
2.25099
2.76552
3.35887
4.05811
4.80717
5.75918
7.06523
9.14401
12.24
16.326
20.9451
25.2245
29.0089
32.3528
33.3258
33.2097
30.9251
24.4347
18.0843
11.4309
4.6963
-1.76933
-7.51392
-12.2803
-15.8561
-18.9502
-21.3057
-23.1179
-24.4778
-25.5949
-26.7224
-27.9935
-29.297
-30.0484
-29.3642
-26.4609
-21.5477
-17.4278
-15.2103
1.35047
1.31633
1.29856
1.29925
1.2902
1.28601
1.2761
1.26289
1.2599
1.30268
1.34943
1.39419
1.45435
1.52341
1.62761
1.74539
1.93435
2.19809
2.54789
2.95282
3.47324
4.07639
4.75039
5.52262
6.27085
7.20569
8.37376
10.2959
13.1781
15.9551
19.483
21.3316
23.1059
25.2639
24.5078
24.5416
22.5135
17.6698
16.8209
14.089
10.6322
6.63009
1.80919
-1.89903
-4.83163
-7.74428
-9.74515
-11.5368
-11.8948
-12.1104
-12.5032
-13.3875
-14.4324
-15.0311
-15.5592
-15.0811
-15.009
-13.4491
-17.236
-29.7704
-36.6918
-37.8914
-36.1007
-32.2987
-27.8993
-23.7584
-19.4581
-15.7402
-13.6536
-11.7882
-9.38563
-6.72018
-3.51578
-0.41624
1.74081
3.11541
4.11391
4.8693
5.46728
5.98369
6.50089
7.12277
7.97275
8.62662
8.07515
8.46703
7.01577
5.32275
4.18184
4.3985
5.55446
7.4218
8.78586
8.75943
7.93519
6.77591
5.33315
4.02006
3.17809
2.76481
2.71341
2.9863
3.39732
3.8005
4.16232
4.49373
4.78121
4.90906
4.85249
-3.28667
-4.28822
-4.13407
-3.82968
-3.19144
-1.92971
-0.462683
0.968062
1.96721
2.17415
2.00605
1.73756
1.47782
1.3998
1.48928
1.67117
1.92316
2.22057
2.52989
2.82595
3.09053
3.30754
3.44161
3.40416
3.2586
-2.28165
-2.73216
-2.37136
-2.09702
-1.62278
-0.888959
-0.0322014
0.818237
1.49583
1.88135
2.06741
2.13874
2.14416
2.1481
2.17682
2.22547
2.29636
2.38279
2.46971
2.54386
2.58837
2.57767
2.46592
2.16928
1.71744
-3.19351
-3.50686
-3.41348
-3.21328
-2.76995
-2.11488
-1.36462
-0.618353
0.0204212
0.508282
0.875772
1.16916
1.40023
1.60591
1.77419
1.9025
1.99758
2.06163
2.10221
2.11983
2.10886
2.05047
1.9095
1.62597
1.20757
-3.02572
-3.28371
-3.42485
-3.43824
-3.19163
-2.70632
-2.08654
-1.41586
-0.782125
-0.21343
0.287684
0.73625
1.1326
1.44036
1.65862
1.80224
1.88594
1.92244
1.92711
1.90702
1.86237
1.77424
1.61151
1.32489
0.917422
-2.75078
-3.07503
-3.39484
-3.6465
-3.63503
-3.32128
-2.81646
-2.1825
-1.52872
-0.866888
-0.216174
0.349306
0.827741
1.22092
1.51231
1.68574
1.77734
1.81183
1.813
1.79342
1.75792
1.68943
1.56402
1.34671
1.04742
-2.61734
-2.88541
-3.25955
-3.67795
-3.88095
-3.74471
-3.36902
-2.78035
-2.11875
-1.37949
-0.622255
0.0901058
0.681802
1.13669
1.46616
1.65705
1.75232
1.78655
1.79068
1.78203
1.76989
1.73446
1.65861
1.51123
1.28961
-2.87428
-2.98922
-3.20868
-3.68313
-4.08915
-4.13518
-3.94341
-3.37762
-2.66639
-1.81919
-0.927337
-0.0863096
0.574306
1.04861
1.41014
1.61055
1.7194
1.76825
1.8019
1.81336
1.82059
1.81762
1.7681
1.6295
1.45488
-259.411
-280.377
39.0794
16.2677
1.97224
1.62889
-5.01646
2.90228
44.854
6.3105
254.285
2.89977
-275.722
-1.69603
-3.61139
2.50161
54.597
15.7918
-2.62041
572.878
34.3604
6.21318
67.0792
4.9811
2.63478
3.02273
2.62828
-2.40642
-352.957
55.3082
-2.03701
3.47867
44.3276
-112.11
55.93
2.34106
-15.916
-4.22115
-21.347
6.35449
111.129
3.75039
4.44152
-3.62285
-3.57375
7.272
332.672
339.585
-204.752
-52.7347
339.581
115.208
-66.057
15.7256
-5.70035
42.5407
-1.37533
-21.4777
-0.749025
206.859
2.18053
38.6386
1.97938
3.24586
2.6872
-3.31946
6.11201
5.67786
-271.959
-132.024
40.7563
8.90193
1.95252
518.846
0.836508
31.5879
373.098
242.353
-0.00508745
15.0818
-121.062
1.98022
3.22533
378.013
2.08228
2.14912
2.00438
234.768
44.4443
-3.8519
0.27523
-6.86665
5.84281
3.07348
1.98386
241.419
3.06458
342.571
3.73475
188.827
-2.77331
98.2403
-2.29695
13.8222
-0.426996
-3.9355
66.0764
-93.9216
3.26847
55.1959
4.1932
2.84897
55.2445
13.1877
-63.6686
-215.079
51.6783
6.39141
-170.783
3.11035
3.39849
2.78944
5.33773
2.76875
45.167
4.0759
117.154
275.318
5.15953
339.716
2.96202
502.652
-131.58
-48.6353
-3.05344
2.09468
-3.04375
-1.53075
2.43738
575.673
9.12825
-18.9406
212.414
3.41045
-287.789
2.14034
16.2476
71.9403
2.27008
55.5102
-5.80564
4.56839
16.6915
13.3609
2.1257
371.164
0.994488
6.38472
378.197
6.4322
4.96734
43.9649
3.05414
338.237
5.77033
377.291
-1.8244
1.9233
2.68606
0.849308
-1.28896
3.46808
4.71636
376.705
22.9589
-3.64259
-5.04551
-210.116
-81.0759
10.0627
-37.1148
3.8815
-86.8572
-16.0524
-2.44495
3.9556
375.979
3.22934
4.8263
2.44844
315.506
188.421
10.0492
-18.3502
2.66266
31.7568
0.824565
6.28887
-250.106
-373.999
-279.776
4.7138
2.11856
2.2739
-4.68504
6.75401
7.02963
-2.27785
-155.23
6.38521
-0.444308
3.01862
-41.2206
-5.90179
-6.11336
107.478
1.4439
4.7241
13.1525
-13.8327
-1.38254
3.76653
2.36815
30.8146
10.4245
81.4343
3.9701
54.3189
3.25235
2.09607
372.019
2.43292
3.60577
3.15968
-21.0598
6.52991
204.687
-1.904
-22.3255
6.59862
9.17452
2.14134
5.76474
-3.05773
2.03957
2.48405
3.67924
-3.75133
2.4848
5.17278
3.27918
-3.48265
6.16503
-199.398
3.36812
1.05737
55.4292
324.615
347.385
-0.540507
1.71048
1.26986
2.66844
1.95763
460.947
2.88581
6.76136
17.082
-5.6515
2.03126
22.5922
14.6903
3.6575
4.62803
-1.91029
17.0265
6.41147
51.4727
-1.71453
215.821
-3.19252
-5.91287
6.77135
8.70655
-81.4455
2.26255
-3.86174
11.8191
163.528
321.591
1.19982
3.09973
3.63121
197.699
-201.87
102.132
60.0286
22.5084
6.47837
7.07418
189.981
4.91216
6.50786
2.05106
53.7412
6.14005
40.974
14.0212
575.831
1.94132
9.85083
8.12587
34.4224
9.58513
3.653
-19.7393
326.544
6.25951
2.73179
-104.331
308.985
3.22756
6.63063
1.48117
2.2101
2.9076
53.406
-95.2299
36.4858
-18.8123
5.70528
1.42625
-1.20444
6.60702
203.016
2.10097
3.31411
3.03517
3.181
3.26038
3.0312
2.8919
103.234
6.24901
438.825
1.26042
0.64474
3.6824
1.95044
368.118
8.44753
5.82459
3.46569
257.671
183.341
10.0501
-110.096
-3.87554
5.60052
375.673
-151.54
73.1981
5.04239
67.8057
3.77984
1.97776
2.96726
296.753
2.48152
-3.9013
11.4064
14.9031
-339.561
49.8317
-261.856
3.14777
3.00463
5.76144
6.12829
6.62077
59.0027
2.95205
45.5243
-3.79551
-3.75925
-170.145
5.75765
566.615
199.203
317.751
-4.65986
6.85828
-10.251
40.35
-32.3015
5.81838
5.8567
42.3348
6.4086
-332.194
2.72622
4.20045
2.075
-137.889
2.84387
3.96651
-6.80412
-8.11533
-9.60721
6.11758
32.6913
2.44582
7.19712
2.43961
3.22756
9.06357
-179.288
367.717
6.44639
0.597035
5.68993
6.12991
-0.963422
-2.63936
3.47794
258.599
3.1984
6.35224
25.8994
3.64178
2.31547
1.01411
-13.0779
-0.0173984
-0.0120506
2.93949
3.99432
3.61306
3.65479
8.21329
6.32555
6.38861
151.719
-5.4953
-271.057
23.397
-2.11855
32.55
-0.789895
0.0350072
48.7677
4.3174
2.94783
-21.8654
7.4798
-147.527
376.736
2.20923
0.531631
193.92
2.93847
-3.11437
30.642
-47.2239
223.566
2.33659
0.322519
35.1724
6.17521
188.9
-6.08907
2.01815
67.6935
8.51539
2.86404
-172.313
-24.7152
1.29962
61.2361
53.0193
-6.77073
-20.1437
3.84401
2.90194
372.884
2.18947
1.91519
8.97117
3.45841
9.98494
4.25526
2.91383
2.92636
39.0383
2.46644
0.0975726
3.4986
2.27407
6.20682
-33.116
4.75701
-0.0359038
2.64849
-2.98651
-4.17822
-95.4074
2.38688
2.50457
-6.17812
3.34583
6.38772
-84.5485
6.93033
-18.473
3.95793
286.926
53.2307
-161.199
3.04854
-3.96542
5.55483
317.393
573.637
19.6209
-132.2
14.5408
246.109
70.4379
6.5414
4.17652
-3.14228
11.5438
17.8187
35.2017
3.08269
-8.81995
3.68806
-60.9477
-218.217
2.80663
-113.986
55.1275
5.84914
69.8225
3.47003
30.1765
3.23313
-1.29916
2.29187
51.8874
-17.4601
-18.6811
4.67887
-183.437
-160.344
319.703
2.35918
7.14182
-248.924
-98.8774
32.5571
-48.6605
3.70037
-213.257
55.2339
5.49606
-4.18081
-0.825262
3.61176
0.0547825
39.3834
11.7163
-8.92858
0.407937
1.82643
54.7211
366.478
-88.4479
-1.42919
-0.57832
575.341
-107.767
4.28715
5.98504
3.15393
42.4836
7.04627
1.58242
-62.9885
4.78853
0.996753
1.99868
3.35549
20.3291
8.56448
-0.880954
-146.549
-145.014
2.05651
3.58848
100.292
-1.79608
3.79344
6.48556
236.123
3.41744
2.11053
6.26007
11.5293
4.20871
4.77305
-19.5081
2.81461
2.81238
-3.6943
-27.7537
6.18717
1.07273
29.1458
3.68246
2.32986
3.12366
3.83464
-1.31119
2.11387
183.864
375.353
-2.11478
40.7764
1.16111
1.47638
1.77896
3.87418
2.25381
3.14847
-6.73428
3.16624
2.61565
0.260982
22.5624
-4.26715
-1.73011
-3.30052
6.36918
1.78466
4.1433
0.769429
-5.17478
161.652
19.5484
252.06
4.16954
6.28848
3.4521
13.5629
5.31364
365.994
-9.32065
70.1604
3.86771
-64.1648
14.3112
340.965
3.42734
1.90603
2.88989
56.8283
33.3306
-3.17763
-83.8875
2.07655
2.56493
2.11163
193.203
3.81707
3.07735
-33.3585
2.37929
7.8046
6.54173
3.71846
-46.4936
6.55762
2.96812
6.80329
-1.82847
5.81896
-271.237
67.5474
3.30414
-7.09825
6.4682
165.647
2.95921
7.15788
5.06417
3.10418
-64.2381
2.6835
6.52036
-0.771249
5.7946
3.37376
9.94295
14.0473
290.497
3.18671
-5.50498
321.336
-3.19075
5.16257
57.7002
-2.04785
1.15798
2.11988
3.96425
2.75908
-3.71707
2.06474
2.52605
-245.517
0.729318
19.6807
-3.75416
4.56857
16.7425
2.81709
-4.74316
-86.9925
58.9666
4.11372
-49.4061
-3.98749
-231.523
66.7575
77.3689
172.675
17.7246
4.5637
2.43793
3.81143
7.35526
3.14333
-236.827
-226.714
5.8899
453.285
-5.50038
5.83837
3.06155
2.65502
376.057
26.0803
3.27614
-2.84958
28.2207
-100.712
-13.1255
3.96171
5.12104
-3.36782
3.84857
-266.101
-14.4092
64.6313
16.5944
0.802511
14.0232
3.26318
4.00634
-3.0631
1.05855
-0.744761
6.26424
3.87082
-2.78177
2.30294
3.16655
4.9068
2.52943
1.13256
6.42512
159.719
-4.9985
6.97196
5.33057
3.31129
573.995
1.98294
0.980691
11.5941
34.5601
-6.0184
3.87161
10.7109
366.047
24.4298
96.7191
2.49178
51.4624
-224.214
97.1569
25.3432
-33.1152
-2.33412
6.44391
73.9008
3.71932
2.70427
-2.86966
28.6781
38.4844
3.51785
2.16679
-60
1.78991
28.277
34.0479
11.4487
3.54318
50.7845
-284.787
-126.113
5.95274
5.94739
3.86269
48.0251
-17.9362
4.84656
2.3556
0.0245264
71.5086
7.40372
-2.81238
-161.622
4.47888
3.13539
20.6548
5.19315
-10.075
2.90875
43.5255
6.48516
2.82858
-230.719
7.77961
5.14021
6.12625
-3.95378
13.7324
217.182
4.0908
6.72227
2.77805
-8.63678
575.148
28.8539
3.24244
-243.756
-3.23586
3.23316
-0.0450638
-0.347174
372.139
6.46282
571.771
2.48787
3.24022
-3.33683
2.48361
18.8528
19.3409
74.6265
191.16
274.226
369.995
5.21095
39.799
-11.6122
7.291
-6.33993
2.4259
-0.402005
272.844
2.51846
-16.4311
70.2907
23.7348
7.73625
5.81812
35.6126
-2.30878
2.05856
23.1319
-253.717
-167.28
5.66786
-2.11468
328.516
61.7674
-184.994
-12.9133
-41.876
-2.62764
3.91208
-4.99286
-104.876
6.56769
9.29064
0.345319
33.6637
2.48594
-8.63441
-150.773
3.44379
0.337637
6.26085
-28.4723
-54.3996
-40.0417
-259.13
6.65504
-2.04436
-3.43013
-5.64117
-237.971
-18.3112
5.18447
2.30364
2.52667
4.14252
45.1882
152.698
3.09837
-12.1183
5.98962
180.642
1.95765
2.32202
2.94552
36.4988
-61.4295
-2.31582
28.876
3.21641
3.39879
0.567743
27.1549
-88.3158
-55.4176
49.0945
2.90621
7.31727
0.955548
2.29688
3.81115
2.07694
50.0434
6.29833
-2.28421
153.911
-6.4762
0.286842
-3.36453
16.3446
9.27297
-0.033513
3.63633
0.0224
3.86335
-2.13396
-52.0568
572.889
36.9242
3.10654
-0.622243
-7.57385
6.07169
-321.548
1.6833
-0.583352
54.615
2.35365
-2.51757
-2.66596
1.73699
-177.288
6.61483
8.32317
3.81303
-4.64989
-2.8115
45.0223
2.59701
133.941
3.28856
4.59896
2.45906
26.7133
-25.6405
5.00941
55.0514
7.27174
366.372
2.79119
-208.609
1.85277
2.51602
6.47538
-8.76297
-3.59731
3.08185
6.0786
344.168
5.57276
2.4954
2.69337
3.81929
2.69963
333.214
2.8575
2.72414
27.7626
-3.13502
372.037
4.14258
7.29209
3.60303
9.63601
3.60361
-0.0481263
55.9251
10.0721
-3.73485
5.82347
-4.34146
-4.56435
-9.4992
5.76364
5.89771
0.946453
3.36123
6.36028
8.99201
300.103
15.6674
66.7205
3.14396
1.20501
48.9492
-3.29684
197.076
2.25034
-229.157
75.8685
368.215
2.50303
2.61226
-3.77219
-47.3127
6.05527
28.1358
4.49485
-2.52858
30.4199
0.0486772
6.27419
0.292984
6.47227
-7.33357
8.95193
-271.55
3.06437
34.3238
6.49901
3.64049
3.84404
6.36524
-43.8308
7.30242
572.06
-15.3983
2.08506
3.42018
-234.779
363.196
5.48688
6.31492
10.3436
9.75057
15.0231
-4.19974
206.888
3.04335
5.70667
-160.651
2.48059
-3.8933
1.1023
3.55095
2.02471
3.8587
-1.21901
-25.9393
23.3446
132.903
5.3998
-3.67857
19.5988
78.6629
90.4487
5.51619
6.18841
432.479
6.45268
-0.0669374
-32.5682
-290.093
8.58467
6.38421
6.57205
-3.11512
-210.603
2.79855
8.08007
-181.37
-37.4435
4.00141
3.55734
1.53269
13.1992
-0.249542
-113.798
2.30306
111.219
2.5125
9.22781
2.27382
-19.9167
3.55507
125.778
26.8395
49.9554
-212.27
-198.653
18.0612
3.21567
75.3654
-37.267
3.09268
7.45658
3.10013
-3.70595
4.40992
2.37586
3.03247
34.731
0.106775
-3.03567
-0.137881
-0.773587
-2.02578
2.94938
369.592
4.08304
142.01
312.138
-0.245736
3.66918
-2.13861
4.46658
-2.77695
76.0715
23.8426
10.1027
2.8022
6.33713
3.54225
80.9824
2.19919
1.9911
0.60533
4.65452
1.95119
-2.93732
6.1996
-0.390222
-2.64141
-158.74
5.81341
0.884989
53.1076
2.50309
-2.93166
1.88998
18.805
-1.87571
8.33658
-202.22
3.35651
20.3106
-62.4918
2.10418
-6.93607
-5.86952
5.81039
2.00575
9.52843
-10.0245
3.37951
-204.718
6.05667
1.02815
-74.0409
285.664
-187.962
8.62379
2.14067
322.753
86.534
0.837893
6.99809
7.80579
98.4152
9.20272
1.10821
6.20726
12.9758
-5.10873
6.81323
1.52616
5.19069
-22.6555
315.697
6.10776
17.2325
3.74601
4.07294
2.47676
-7.64839
17.6377
-6.73203
34.4051
138.989
3.86062
192.779
-339.658
574.704
-206.832
-2.5231
-151.625
73.8038
132.939
3.98393
-101.94
6.22599
47.1388
12.3589
4.00589
-230.215
0.944589
286.909
-71.8966
-2.98707
4.59072
-4.48065
-70.0485
10.3418
100.077
5.76655
574.291
5.71494
-62.7969
-4.58116
-0.299025
2.53872
400.919
2.84209
-4.2558
576.51
3.9105
-227.356
3.31707
5.92905
-113.249
-4.02618
0.0857075
-88.6003
0.480933
5.41182
-9.67585
10.7247
5.53675
-3.11376
0.862322
-137.939
-244.071
4.71161
75.5359
2.3359
14.2474
10.4804
8.85142
3.60468
19.4956
-7.82781
33.0735
3.44946
299.366
2.55183
-19.8502
176.233
-4.91532
6.98263
-192.949
3.93292
3.33811
3.78955
172.615
-43.9916
2.34101
44.2431
-0.212213
2.4611
-21.5934
4.12104
3.05686
-250.035
14.651
4.8985
10.2843
2.83515
7.05905
10.6221
-38.9282
-68.6185
-4.09573
6.50758
3.23455
-217.237
258.887
2.59826
2.12123
-3.56527
47.6213
0.431496
-17.7222
-267.137
2.46178
-28.4554
97.0651
2.5561
-8.46389
6.9507
11.0161
2.21061
3.44709
-0.35382
-3.0119
-61.9875
3.49288
36.6967
2.47444
297.449
5.96421
-8.29611
-5.36936
575.064
-180.449
0.409328
-4.11935
3.8821
5.67368
2.80038
-81.9974
-44.3462
6.3917
5.76494
3.05065
7.85664
3.08052
3.33516
81.4789
133.627
204.769
51.3417
11.1914
2.57009
-175.943
5.90894
-200.11
3.83785
1.98318
-0.143402
5.62644
2.53858
16.0332
2.25299
-4.66463
53.3667
-55.5879
5.29753
-2.64384
55.297
42.0492
2.67593
52.3901
-226.273
198.491
9.20634
275.302
2.85461
17.6453
8.70196
1.94324
-2.32557
-15.4059
48.6579
12.4402
-2.90669
576.552
-0.892219
-105.572
358.155
8.41965
1.17058
6.33794
-3.05905
-79.8803
0.222327
-126.024
-3.28518
6.19671
-1.15591
4.60921
-3.23474
4.70441
3.38861
5.80794
2.16534
0.341658
-30.0962
12.8972
48.8311
2.08707
3.51497
6.49917
-0.947759
2.99004
38.4644
-90.3476
2.72416
-53.9195
6.15971
168.875
9.21852
6.72932
2.48453
2.39898
-62.7977
6.16011
3.72645
29.399
-16.2521
5.81553
6.56622
6.85396
7.69164
-1.58336
3.10022
3.2676
49.0919
2.33042
5.76918
7.33278
38.3041
2.46915
-46.9338
-204.603
7.82688
22.2277
6.34453
3.84225
64.9688
9.10045
2.61458
3.654
-63.9836
-0.647412
5.88282
1.75535
-7.51914
54.6887
0.606835
3.01334
-33.8236
6.47833
10.7035
-213.161
6.31622
-5.92149
246.766
4.93888
-107.921
5.69524
2.54285
13.2876
2.40801
34.2052
-95.0375
6.46051
6.38935
41.9842
4.61795
4.27924
6.82123
-3.39141
-23.2842
2.40157
2.14902
6.3707
3.33244
1.98253
3.3541
-0.798702
16.8892
54.0491
-70.7598
2.09181
-229.307
0.0442068
80.9497
276.717
573.26
62.673
9.38593
3.79102
-45.9654
14.8565
5.71713
-181.29
2.51336
22.415
-95.9584
-198.335
9.05675
372.288
1.63669
24.738
1.54406
6.35425
30.386
-3.01969
63.8961
3.65078
6.21696
1.05037
10.5768
4.79883
-6.47928
5.65788
-242.256
-3.01793
-103.237
0.0479948
66.7249
6.04599
6.53563
-2.00488
5.75994
-7.23142
153.951
39.8488
1.88954
-118.331
85.5491
10.4596
575.902
-7.31715
4.00921
58.9284
75.5899
13.6308
-0.309683
1.81018
43.871
2.97119
5.29567
101.755
15.2203
-1.70963
94.3489
-65.5797
-3.45845
-2.88822
-5.99975
-0.979133
55.6743
0.0158502
5.72609
2.53446
54.2056
1.93934
-18.7129
-71.2068
2.41428
-5.39184
52.7227
5.90539
345.997
4.03807
70.6023
4.01813
2.94257
2.1056
6.56791
3.0798
2.90574
6.41798
0.964988
8.05222
-146.961
27.647
2.39256
85.6712
2.13915
2.53439
3.45345
5.85254
2.4299
3.83649
5.43191
-61.3859
-93.4745
0.882711
446.26
10.1681
7.07361
134.983
4.239
-3.14801
5.28492
2.78072
-2.14976
368.814
6.25197
6.65583
2.18076
-3.11044
-1.35281
-0.845115
-4.62091
-36.9739
-19.3276
2.79395
3.38686
15.9792
6.28086
2.0001
3.0951
-2.23885
2.94673
5.01902
10.3234
5.15323
-6.81057
-61.7314
-212.954
-1.16346
6.39916
-8.40818
164.31
-95.6031
1.69734
2.7149
-3.38427
4.62517
2.60126
-1.04195
14.9381
-5.64047
2.71865
3.22776
3.40538
-0.417216
-78.6049
2.09536
6.82368
2.09074
5.56305
-74.1105
6.22891
11.0534
9.30604
0.052254
0.583127
3.78055
18.463
-5.09795
3.4914
81.5766
37.5678
-3.03197
4.74699
3.4976
25.1972
62.4215
102.618
2.87383
329.12
6.23234
1.6701
54.2552
-89.0623
2.60745
3.11846
-6.75439
-1.52884
6.37956
1.89714
-43.3274
2.42605
9.98896
3.008
6.31998
16.646
6.45279
5.85028
6.45276
-213.374
5.93048
2.25626
1.9601
7.9708
-7.70754
0.51586
-12.4936
-7.78292
-4.67221
7.71306
6.07952
10.3704
8.08165
4.75793
2.554
19.4523
6.46976
1.426
10.1551
19.0902
3.18118
-0.0587017
6.42062
117.358
2.03632
64.8335
3.4898
5.54191
3.7436
5.50059
5.82075
247.93
7.41479
1.87984
8.92532
6.20785
69.9995
2.54386
4.78376
37.8253
-17.0176
2.44241
-53.5616
6.62995
61.003
3.96591
-67.448
5.64194
-53.5592
3.13737
4.30079
-3.13065
-12.6682
369.567
361.151
1.1751
58.8454
2.90301
0.732897
3.05971
17.6582
6.26531
0.630327
119.937
369.579
-235.721
12.2614
68.6249
0.70093
3.76248
2.34743
-3.88903
6.55696
5.16063
4.64488
1.32415
6.56694
5.78957
5.83759
-24.8923
3.8088
5.66085
323.895
-4.44798
1.58438
-4.05852
107.232
6.81425
5.58531
62.0436
5.12813
33.5385
-6.58413
3.76727
-3.12076
379.545
3.15345
6.11934
5.18036
2.54968
5.65128
3.30568
-60.4866
2.15312
-59.7068
-1.77431
-0.656373
9.24316
-4.11121
-1.08253
6.55035
1.64574
3.25936
2.06256
-262.084
-330.48
4.19514
4.43402
2.74254
5.24363
-0.469198
-8.73477
1.90023
-0.718195
10.5249
12.356
-47.078
-0.545517
-40.5825
45.9384
3.89263
5.46793
3.95379
48.4186
-3.81232
2.44985
4.12977
0.158115
3.59053
3.81151
4.15409
48.7055
38.3205
-72.0662
148.015
3.66554
2.17944
-8.93262
2.32469
-1.4384
198.982
5.92465
368.696
89
374.07
6.36349
2.08432
2.81927
6.42168
-121.332
5.7367
-51.0846
7.33631
8.57098
-0.688348
365.654
28.6759
2.33711
6.04839
10.636
4.87514
4.35426
-4.95001
118.256
3.52865
2.74418
348.61
6.64939
68.6743
9.49488
3.23381
16.2207
-127.93
3.72015
3.14262
4.17118
4.73285
-1.64543
3.3428
110.738
-2.90822
3.19029
7.00804
2.85815
118.75
-10.202
1.39523
2.9379
64.2773
-0.688049
47.4154
6.61818
-49.9939
78.0509
6.04186
-1.56227
4.03409
3.32337
1.68042
-130.296
-7.05151
-6.53837
-5.24363
-9.76089
33.4596
-101.907
437.005
-2.74286
4.77641
76.4952
-0.866535
2.52434
3.05274
3.86926
570.517
75.3507
4.63382
35.1734
7.49663
46.6989
49.3443
68.5731
17.37
26.2057
17.7408
-1.47616
6.72025
-0.538137
55.885
-0.0933162
5.82714
-5.40393
1.77546
332.436
5.65428
-9.81087
37.6687
138.018
-0.728602
37.7484
-2.40451
40.1961
42.1338
3.97314
0.251091
3.5221
6.41752
3.16329
-7.48885
6.42676
3.34767
46.6804
1.77837
0.581992
-3.15679
3.54581
8.28722
60.6898
61.3636
-1.73975
20.8535
2.92513
6.41455
3.48662
18.7483
201.48
-42.8528
3.22481
3.8394
5.74218
-25.9851
-2.39925
-4.73592
3.30035
88.8894
3.34094
2.96443
-167.504
3.7782
8.10782
-0.148641
16.9616
3.34384
8.72256
44.3297
2.95732
3.49884
267.485
3.3484
-1.29935
15.5649
0.315454
2.74811
5.81442
368.99
5.3647
-28.2783
2.43153
3.74799
6.88307
6.44395
4.60877
-2.19853
5.2225
62.3804
3.40218
3.76656
6.77683
79.9116
5.49023
5.89848
2.27492
59.1294
3.27449
241.548
-48.059
3.08641
15.6251
-6.41467
59.7796
565.751
-44.3417
4.57767
0.55974
410.411
299.797
366.013
-16.402
6.12852
3.54651
1.95273
0.0605177
11.0676
3.90055
7.6996
2.13993
6.46
563.933
6.31572
38.7698
4.4595
3.23981
52.7626
3.3634
51.1158
0.0360444
1.66572
3.09656
2.92741
5.87676
1.88657
2.28779
-3.57259
3.26395
-2.59389
96.5689
65.4568
5.96129
-4.01665
108.312
65.4796
-174.211
-89.3737
132.171