/*--------------------------------*- C++ -*----------------------------------*\
  =========                 |
  \\      /  F ield         | OpenFOAM: The Open Source CFD Toolbox
   \\    /   O peration     | Website:  https://openfoam.org
    \\  /    A nd           | Version:  10
     \\/     M anipulation  |
\*---------------------------------------------------------------------------*/
FoamFile
{
    format      ascii;
    class       surfaceScalarField;
    location    "150";
    object      phi;
}
// * * * * * * * * * * * * * * * * * * * * * * * * * * * * * * * * * * * * * //

dimensions      [0 3 -1 0 0 0 0];

internalField   nonuniform List<scalar> 
16133
(
1.17765
-0.0620832
-0.00743277
-1.10822
-1.11396
0.17861
-0.221295
1.15664
-0.50207
-0.96389
0.794669
0.671313
-0.118108
0.0550595
-1.50805
1.57109
-0.414954
0.0624134
1.87367
-1.52114
2.21554
0.620569
-2.71272
-0.123394
-1.15646
0.190458
0.686921
0.279093
-0.0494142
-1.36451
0.389722
1.02419
-0.978312
1.57615
0.966678
-1.56448
-0.0331671
1.79369
0.10532
-1.86582
1.25338
-1.20261
0.232655
-0.283428
1.58786
-0.562253
0.495957
-1.52156
-0.327599
-1.7643
1.01917
1.07272
0.937037
-0.829645
-0.0612302
-0.0461979
1.02932
-0.0465087
-0.0457891
-0.405451
0.365612
-1.48706
1.5269
-0.0454042
-0.0991452
-0.685133
-2.76969
0.160302
2.10009
0.509294
-2.85697
2.34308
-0.46441
-0.0883246
1.24995
0.0160195
-0.331842
1.05754
-0.932419
0.20671
-0.181657
-1.4767
1.54024
-1.53964
1.53199
-0.397808
3.24368
-2.46245
0.357752
-1.13898
-1.65757
1.95119
-0.326792
-0.00659866
0.014247
-0.0543664
0.0467185
-0.012221
-0.00917542
0.00601225
0.0153839
0.115673
-0.912786
0.796519
0.000618559
-0.03088
0.0567824
-0.0881629
0.0622606
-1.91265
0.93664
1.08544
-0.494429
-1.7726
1.18159
-0.295645
0.328763
1.22026
0.484711
-1.38393
0.849811
0.0280049
0.205318
-0.0808248
-0.152499
-1.2668
-1.52505
1.42215
1.36968
-0.951865
0.204216
0.983824
-0.236179
-0.878129
-2.07367
1.68501
0.00682509
0.0501259
-0.0549429
-0.00200661
0.0570053
0.0821107
-0.0290014
-0.110115
-2.60461
0.575812
-0.828176
-2.04048
0.233152
-1.20958
-0.448949
-0.586157
0.236101
-0.23616
0.586177
-0.0607831
1.40366
-0.0170626
-1.32582
1.7498
-0.578049
-2.04989
1.72747
-1.08841
0.133955
0.0410879
-0.352719
0.0251411
0.383228
-0.0556619
1.24102
0.611358
-0.276217
1.56872
-1.48094
-0.269453
-0.656257
-1.0401
-1.93571
2.06609
-1.43554
1.30516
0.118613
0.0589488
-0.120557
-0.0245668
0.0370943
0.0818067
-0.0943342
-0.0203553
0.0438999
0.0585662
-0.0633569
-0.0253005
0.0577778
1.83006
-0.797306
-3.10643
0.0176541
-0.0377997
0.0570154
-0.036868
-0.591202
0.840929
-0.0538826
-0.195859
2.03249
0.0745517
0.0305093
0.0135523
0.163903
-1.04076
-0.237102
0.00767462
-0.0699841
0.0748741
-0.0125638
0.860614
-1.55369
1.46295
-0.769873
0.665694
-0.455523
-1.59173
1.04931
-0.421473
-0.455887
0.0688825
-0.204202
0.169964
0.109301
-0.147413
-0.131854
0.494987
0.952264
-1.8917
0.499477
-1.07024
0.044467
0.0129646
-0.0819985
0.0573766
0.00274239
-0.00271943
-0.0573992
-0.672068
-0.00128244
1.03295
-0.359635
0.489844
-1.06201
-1.01957
-0.0746016
-0.103541
1.20749
-0.235071
-0.74122
0.250194
0.726018
-1.94048
0.962011
-0.913239
-0.845278
0.392128
0.643603
-0.925805
0.874917
0.535626
1.08522
-1.06008
-0.099738
1.80667
-1.65909
0.295829
-0.443422
1.1158
-1.05717
0.0486119
-0.107243
0.0756506
0.112337
-0.129038
0.0414454
0.102043
-0.106394
2.11199
0.266938
-0.572268
-0.207216
0.12317
1.02956
-0.945517
1.1181
-1.041
-0.155593
0.0784912
1.38011
-1.29832
-0.142579
0.836222
-0.580696
-0.0590539
-0.196459
1.17673
-0.146126
0.0875033
1.48301
0.0710821
-0.173986
1.7784
-0.24034
1.17536
-0.121646
0.967546
-0.113554
-0.0177671
1.2426
-0.104006
0.0381264
-0.267869
-0.891215
0.542677
1.46262
-0.2269
0.969323
-0.110748
-0.962102
0.802509
0.23039
-0.191991
-1.31501
1.44534
-0.282911
0.152583
0.605174
-0.216541
1.63059
-1.55842
0.471466
-0.543629
0.0497139
-0.101368
0.0456478
0.380951
1.76925
-0.519606
-0.0333051
1.2267
-0.139666
0.255214
-0.345588
-0.0477498
2.88682
-0.72709
1.04696
0.130094
-0.0918354
0.123176
-1.38555
-0.21857
-1.44768
-0.525686
-1.02947
0.0701027
-0.0978027
0.109075
-0.0915875
0.137729
-0.910071
-1.38683
-0.257095
1.38241
0.320014
1.07818
-1.25381
-0.197642
1.30887
-1.43348
-0.161753
1.33814
0.744661
0.85443
-0.216678
0.675131
-0.527831
-0.382418
1.11668
-0.184621
-0.977728
0.829613
0.476108
-0.328037
-1.17395
1.20328
0.327427
-0.356762
-0.0244773
0.0982666
-0.00488486
-0.0689039
-0.253782
0.769578
0.300139
-0.394633
1.88448
-1.50205
-0.0187468
0.0216145
-0.00484328
0.00197621
0.164817
-0.373023
-1.15029
-0.319297
-1.22307
-0.987061
-0.11955
-0.0145633
0.041839
0.0301011
-0.0937442
0.119997
0.127453
-0.153706
-0.844037
0.870877
-0.294715
-0.204409
1.54859
-1.17657
-1.29856
-0.105329
0.0322317
-0.0808419
-1.42131
1.92871
0.109713
-0.158702
-0.406901
-0.333537
0.944656
-1.88973
1.27861
1.59104
0.979972
-0.969087
0.101454
-0.112399
0.290503
-0.30493
0.37266
-1.44775
-0.207973
0.798046
-0.635524
1.27949
0.514028
-2.12705
-0.276023
0.0266131
-0.103312
-0.516279
-2.33092
1.1938
-1.11372
1.55802
0.666113
1.90532
0.781333
-0.067316
-0.00445631
0.215014
-0.143243
1.30123
0.311624
-0.409588
0.173457
-1.08792
0.243616
1.13449
-0.290184
2.43202
0.502098
-0.983756
-1.95037
-0.890783
-0.157524
-1.36754
1.45596
1.87948
-1.81046
-0.116782
0.33559
1.002
1.39153
1.23761
-1.24023
1.05219
-1.19589
-1.52069
-0.117474
1.4764
-1.57898
1.01018
-0.630503
1.19929
-1.53952
-1.9039
-0.233639
-1.25047
0.140433
-0.444819
-0.367687
0.0233623
-0.0220873
0.00639495
-0.00767019
0.236212
0.633005
1.72562
-1.67681
0.465211
-1.02078
-0.288441
-0.241561
-0.343461
0.271662
-0.342096
0.413872
-1.30604
-0.184839
-0.139708
0.138002
0.0584887
-2.04353
-0.296514
-1.10371
0.564512
0.111401
-0.0613273
-0.562302
-0.693765
0.926133
-1.07765
1.05575
1.28939
1.30602
1.2517
-0.959519
0.131213
0.0810994
-0.136662
-0.0282485
-0.00506135
0.923904
-0.289209
0.327703
-0.474157
0.820483
-1.01927
-0.730451
0.772634
-0.818894
-0.240177
-0.196395
0.863631
0.881712
0.0616747
0.06635
-0.121201
-1.20524
0.993304
0.129455
-0.215751
0.352278
-0.888913
1.24712
-0.220482
-0.225881
-0.0224351
0.120675
-0.0905649
1.66099
-0.249446
0.128923
-0.1555
0.812256
0.632639
1.7428
-0.0293392
0.0404804
-0.154612
0.906437
0.100101
1.01098
0.156459
-0.0928293
-0.158513
0.0948836
-0.0401794
0.0335811
-0.18743
0.0332148
-0.127689
-0.0452342
0.442954
-0.549042
0.377733
0.324739
0.0162896
-0.231318
0.304948
0.658723
-0.727477
-0.0409003
-0.0677469
0.116028
-0.0073818
1.06271
0.0437489
-0.0523158
0.00856691
-0.721412
-0.293941
1.41285
-1.88029
0.351065
0.675059
0.165176
-0.215706
-0.291573
-1.21762
0.00356969
0.397884
-2.22671
-0.00851059
0.0238718
-0.00632856
-0.00903076
-0.0117969
-2.3508
-0.0653165
-0.0217867
0.0462041
-1.68531
-0.166012
-0.943712
1.89167
-1.24794
-0.0471971
-0.0993547
0.0788051
0.144264
-0.225621
0.237817
-0.0230369
-0.0735175
0.0331979
-0.343029
1.09307
-0.84089
0.7993
0.441544
-0.420372
0.0310446
-0.0442309
0.0131865
-0.970167
-0.287714
0.0337206
-0.0446081
0.0108878
0.964046
-1.7027
0.0986919
0.538003
-0.317376
0.38946
0.031329
0.00239171
0.243446
-0.172498
-0.134915
0.227876
0.211066
0.0226231
1.05846
-0.437751
-0.024232
1.49742
0.137387
-0.0815186
0.0753434
-0.102357
0.221928
-0.437415
0.557365
-0.911973
-0.242889
1.08261
-0.558668
1.42723
0.0265778
0.00700378
0.161941
-1.29579
0.714342
-0.349111
-0.928347
0.316546
0.269588
0.264406
-0.724115
1.03638
-0.139584
-0.056619
0.103374
2.0598
-0.0726711
0.0355645
0.122747
-0.116867
-0.154082
0.215301
-0.299231
0.177287
-0.0617214
-0.101673
0.0315834
0.0361828
-0.0677665
-0.0011497
-1.20465
1.54064
-0.242138
0.286872
0.236447
-0.664972
0.0101698
0.0208747
-0.441356
-1.95137
-0.0800378
0.0332004
0.127702
-0.125339
-0.160178
-0.114314
0.0232135
-0.287825
-0.157826
-1.83871
-0.921656
-0.0130247
0.149434
0.0441294
-0.226404
-0.432108
-0.0137606
-0.0226224
-0.033601
0.0845401
0.139789
-0.14323
-0.138271
-1.1012
-1.3223
0.0213725
0.00520584
0.233693
-0.708904
-0.0159347
0.76959
0.0777382
-0.0311239
0.0626692
0.101563
-0.131032
0.349652
0.0595655
0.0723245
0.0459021
-0.0580512
-0.0229933
0.0100915
-0.147653
0.203616
-0.136788
-0.03097
0.0190527
0.0188934
0.00247935
-0.0132045
0.0195994
0.0328268
-0.00205236
-0.00286092
-0.00141485
-0.148788
0.893411
-0.65025
0.631783
0.0495859
-0.13457
0.0104239
0.292839
-0.169064
-0.202621
0.43226
0.373043
-0.766424
-0.383848
-0.0225386
0.0308277
-0.0277295
0.00134972
-0.0556815
-0.0397913
0.0220079
-0.024047
0.00254137
0.0163522
0.0699242
-0.0284262
1.05418
-0.00321463
0.0112909
-0.779605
0.375684
-0.983774
-0.231989
-0.0022506
0.00554248
0.00488156
-0.00895154
0.00950232
-0.0326714
0.0319358
0.002021
0.284234
-0.380081
-0.496194
0.524539
-0.138565
-0.569712
-0.292946
-0.100199
-0.0361227
-0.453879
-0.0907317
0.000606451
-0.0546986
0.00644775
0.0718196
-0.210633
0.0213006
0.0158413
-0.00842396
1.0831
-0.00464621
0.0280781
-0.0356401
-0.234411
1.19592
0.813442
-0.283576
-0.371882
-0.158374
-0.142773
-0.00658057
0.148026
-0.141446
-0.0149145
0.161868
-0.153534
-0.0238064
0.174356
-0.165464
-0.0323387
0.182157
-0.173624
-0.0402211
0.187573
-0.17969
-0.0479697
0.191345
-0.183597
-0.0556249
0.194792
-0.187137
-0.0634052
0.197805
-0.190025
0.19979
-0.192007
-0.0711887
-0.00722539
0.155252
-0.0139099
0.168552
-0.0210448
0.181491
-0.028178
0.18929
-0.0350287
0.194423
-0.0417641
0.198081
-0.0483386
0.201366
-0.0549121
0.204378
0.206764
-0.061886
-0.00644423
0.161695
-0.0123016
0.174409
-0.0183929
0.187582
-0.0244805
0.195377
-0.0304295
0.200372
-0.0362598
0.203911
-0.0419405
0.207047
-0.0476047
0.210042
0.212771
-0.0536119
-0.00524874
0.166944
-0.0105856
0.179746
-0.0159314
0.192928
-0.0212193
0.200665
-0.0264047
0.205558
-0.0314684
0.208975
-0.0363831
0.211962
-0.04126
0.214919
0.217888
-0.0463775
-0.00444068
0.171385
-0.00925567
0.184561
-0.0139005
0.197572
-0.0184678
0.205232
-0.0229392
0.210029
-0.0272914
0.213327
-0.031499
0.216169
-0.0356279
0.219047
0.22211
-0.0398506
-0.00424213
0.175626
-0.0084941
0.188813
-0.0123989
0.201477
-0.0162043
0.209038
-0.0199409
0.213766
-0.0235802
0.216966
-0.0270703
0.219659
-0.0304319
0.222409
0.225431
-0.0337528
-0.0044939
0.18012
-0.00812685
0.192446
-0.0112333
0.204584
-0.0142221
0.212027
-0.0171731
0.216717
-0.0200566
0.21985
-0.0228207
0.222424
-0.0254262
0.225014
0.227897
-0.0278916
-0.00475906
0.184879
-0.00773673
0.195424
-0.0100063
0.206854
-0.0121184
0.214139
-0.0142475
0.218846
-0.0163661
0.221968
-0.018398
0.224455
-0.0202731
0.226889
0.229514
-0.0218909
-0.00459134
0.189471
-0.00680375
0.197637
-0.00820253
0.208253
-0.00943225
0.215369
-0.0107256
0.22014
-0.0120662
0.223309
-0.0133867
0.225776
-0.0145766
0.228079
0.230481
-0.015543
-0.00370582
0.193176
-0.00490846
0.198839
-0.0053917
0.208736
-0.00574129
0.215718
-0.00617577
0.220574
-0.00675813
0.223891
-0.00738172
0.226399
-0.00794184
0.228639
0.230841
-0.0083028
-0.00164296
0.194819
-0.00173626
0.198933
-0.00124053
0.20824
-0.000729958
0.215208
-0.000357384
0.220202
-0.000184867
0.223719
-0.000118779
0.226333
-6.23155e-05
0.228583
0.230665
0.000113694
0.00159776
0.193222
0.00257765
0.197953
0.00407532
0.206743
0.00551833
0.213765
0.00669697
0.219023
0.00764013
0.222776
0.00838102
0.225592
0.00905331
0.227911
0.229999
0.00971977
0.00484277
0.188379
0.00728339
0.195512
0.00995277
0.204073
0.0123851
0.211333
0.0144671
0.216941
0.016215
0.221027
0.0176717
0.224135
0.01895
0.226632
0.228763
0.0201862
0.00718206
0.181196
0.0116408
0.191054
0.0156947
0.20002
0.0192288
0.207799
0.022288
0.213882
0.0248617
0.218453
0.0270378
0.221959
0.0289176
0.224752
0.227078
0.0306023
0.00869916
0.172498
0.0151707
0.184582
0.0205691
0.194622
0.0251628
0.203205
0.0291584
0.209886
0.0325947
0.215017
0.0355489
0.219005
0.038074
0.222227
0.224909
0.0402432
0.00963001
0.162867
0.0174764
0.176736
0.0238709
0.188228
0.0293187
0.197758
0.0341307
0.205074
0.0384031
0.210744
0.0422123
0.215195
0.0455785
0.218861
0.221956
0.048532
0.010026
0.152841
0.0184323
0.16833
0.0253649
0.181295
0.0314018
0.191721
0.0368668
0.199609
0.0418859
0.205724
0.0465208
0.21056
0.0507814
0.2146
0.218167
0.0545705
0.00970519
0.143135
0.0179926
0.160043
0.0251722
0.174116
0.0316381
0.185256
0.0376642
0.193583
0.0433494
0.200039
0.0487368
0.205171
0.0537947
0.209542
0.213582
0.0583799
0.00869234
0.134442
0.0164552
0.15228
0.023664
0.166908
0.0305026
0.178417
0.0370898
0.186996
0.0434499
0.193678
0.0495729
0.199048
0.0554234
0.203691
0.20807
0.0609355
0.00679336
0.127648
0.014061
0.145012
0.0213161
0.159653
0.0285952
0.171138
0.0357975
0.179793
0.0428656
0.18661
0.0497299
0.192184
0.0563231
0.197098
0.201803
0.0625899
0.00437385
0.123274
0.0113882
0.137998
0.0188704
0.152171
0.0266999
0.163309
0.0345721
0.171921
0.042371
0.178811
0.049996
0.184558
0.0573861
0.189707
0.194658
0.0645316
0.00273268
0.120541
0.00964685
0.131083
0.0174349
0.144383
0.0257766
0.154968
0.0342449
0.163453
0.0426916
0.170364
0.0510025
0.176247
0.0591398
0.18157
0.186594
0.0672031
0.00333822
0.117202
0.0101235
0.124298
0.0180248
0.136482
0.0266136
0.146379
0.0354553
0.154611
0.0443497
0.161469
0.0531886
0.167408
0.0619315
0.172827
0.177849
0.0706768
0.00622222
0.11098
0.0130043
0.117516
0.0208261
0.12866
0.0294171
0.137789
0.0383666
0.145662
0.0474459
0.15239
0.0565986
0.158255
0.0657449
0.163681
0.16909
0.0745033
0.00930659
0.0167071
0.0248104
0.0335606
0.0425605
0.0517206
0.0611877
0.0711622
0.0818785
-0.171542
-0.00151421
0.173056
-0.169728
-0.00181414
-0.167635
-0.00209259
-0.165281
-0.00235471
-0.162705
-0.00257613
-0.159956
-0.00274842
-0.157095
-0.00286068
-0.154194
-0.00290149
-0.151305
-0.0028898
-0.148457
-0.00284828
-0.14562
-0.00283796
-0.142711
-0.00291015
-0.139613
-0.00309983
-0.136183
-0.00343213
-0.132266
-0.00391839
-0.127663
-0.00460304
-0.12216
-0.00550342
-0.115583
-0.00657721
-0.107836
-0.00774564
-0.0988172
-0.00901913
-0.0884768
-0.0103386
-0.0769219
-0.0115562
-0.0644177
-0.0125022
-0.0514355
-0.0129833
-0.0385886
-0.0128449
-0.0265284
-0.0120604
-0.0155055
-0.0110199
-0.00539946
-0.0101062
0.00397795
-0.00937356
0.0128102
-0.00883419
0.0212374
-0.00842435
0.0291822
-0.0079479
0.0366938
-0.0075108
0.0440845
-0.00739302
0.051622
-0.00753815
0.0592731
-0.0076515
0.0669211
-0.00764892
0.074436
-0.00751409
0.0816442
-0.00720879
0.0884331
-0.00678811
0.0947558
-0.00632285
0.100627
-0.00587037
0.106106
-0.00547979
0.111244
-0.00513731
0.116028
-0.0047846
0.120404
-0.00437539
0.12425
-0.00384696
0.127465
-0.00321455
0.130037
-0.00257271
0.132027
-0.0019895
0.133516
-0.00148965
0.134614
-0.00109796
0.135478
-0.000864345
0.136267
-0.000788103
0.137099
-0.000832738
0.13804
-0.000940814
0.139096
-0.0010565
0.140249
-0.00115272
-0.00119701
-0.171436
-0.00305026
0.172972
-0.169712
-0.00353801
-0.167773
-0.00403142
-0.165598
-0.00452957
-0.163168
-0.00500642
-0.160443
-0.00547356
-0.157387
-0.0059169
-0.153937
-0.0063512
-0.150033
-0.00679367
-0.145616
-0.00726531
-0.140645
-0.00781036
-0.135094
-0.00846024
-0.128947
-0.00924864
-0.122195
-0.0101825
-0.114836
-0.0112788
-0.106887
-0.0125509
-0.098436
-0.013956
-0.0896483
-0.0153648
-0.08073
-0.0166641
-0.0718718
-0.0178782
-0.0631757
-0.0190339
-0.0546472
-0.020086
-0.0462108
-0.0209371
-0.0377614
-0.0214342
-0.0291232
-0.0214811
-0.0200091
-0.0211761
-0.0103136
-0.0207127
-0.000244086
-0.0201782
0.00993766
-0.0195526
0.0199228
-0.0188224
0.0294907
-0.0179905
0.0385858
-0.0170452
0.0471162
-0.0160405
0.0548387
-0.0151158
0.061625
-0.0143247
0.0675645
-0.0135902
0.0727643
-0.0128494
0.0773564
-0.0121052
0.08149
-0.0113431
0.0852973
-0.0105946
0.0889231
-0.00994939
0.092546
-0.0094929
0.0963137
-0.0092481
0.100303
-0.00912685
0.104514
-0.00899632
0.108896
-0.0087573
0.113378
-0.00832935
0.117837
-0.00767294
0.122142
-0.00687842
0.126224
-0.00607137
0.130057
-0.00532353
0.133662
-0.0047023
0.137079
-0.00428247
0.140346
-0.00405477
0.143449
-0.00393556
0.146358
-0.00385006
0.149025
-0.00372319
0.151418
-0.00354645
-0.00331299
-0.174709
-0.00472761
0.176386
-0.172887
-0.00535995
-0.170904
-0.00601461
-0.168745
-0.00668807
-0.166364
-0.00738757
-0.163716
-0.00812204
-0.160739
-0.00889321
-0.157377
-0.00971409
-0.15356
-0.0106101
-0.149232
-0.0115938
-0.144352
-0.0126907
-0.1389
-0.0139131
-0.132872
-0.0152769
-0.126271
-0.0167842
-0.119117
-0.0184325
-0.11148
-0.0201878
-0.103438
-0.0219984
-0.0950382
-0.0237638
-0.0863125
-0.0253896
-0.0773951
-0.0267957
-0.0684662
-0.0279625
-0.0596624
-0.0288901
-0.0509977
-0.0296012
-0.0423311
-0.0301009
-0.0334231
-0.0303881
-0.0241057
-0.0304937
-0.0143937
-0.0304238
-0.00441804
-0.0301541
0.0056791
-0.0296491
0.0157481
-0.0288923
0.0256468
-0.027889
0.0352636
-0.026663
0.0444894
-0.0252669
0.0531388
-0.0237656
0.0610181
-0.0222045
0.0680446
-0.0206164
0.0742602
-0.0190652
0.0798119
-0.0176564
0.0849476
-0.016479
0.0899282
-0.0155749
0.0949526
-0.0149738
0.100103
-0.0146432
0.105328
-0.0144727
0.110509
-0.0143085
0.115534
-0.0140205
0.120296
-0.01352
0.124765
-0.0127982
0.128981
-0.0118883
0.132977
-0.0108752
0.136777
-0.00987002
0.140436
-0.00898302
0.144026
-0.0082918
0.147575
-0.00783105
0.151058
-0.00753729
0.154421
-0.00729926
0.15759
-0.00701879
0.160509
-0.00664246
0.163135
-0.00617212
-0.00564239
-0.173099
-0.00662506
0.174997
-0.171057
-0.00740218
-0.168842
-0.00822939
-0.166425
-0.00910575
-0.163766
-0.0100469
-0.160816
-0.0110718
-0.157528
-0.0121819
-0.153848
-0.0133935
-0.149749
-0.0147096
-0.145199
-0.0161442
-0.14018
-0.0177098
-0.134675
-0.0194183
-0.128697
-0.0212561
-0.122259
-0.0232218
-0.115415
-0.0252769
-0.108214
-0.0273881
-0.100726
-0.0294867
-0.0929981
-0.031491
-0.0850674
-0.0333196
-0.0769697
-0.0348935
-0.068756
-0.0361755
-0.0604711
-0.0371752
-0.0521171
-0.0379546
-0.0436354
-0.0385827
-0.0349114
-0.0391113
-0.0258588
-0.0395463
-0.0164508
-0.0398308
-0.00671898
-0.0398865
0.00326214
-0.0396296
0.0133758
-0.039007
0.0234865
-0.0379998
0.0334419
-0.0366196
0.0430709
-0.0348964
0.0521857
-0.032881
0.0606279
-0.0306474
0.0683409
-0.0283292
0.0753733
-0.0260981
0.0818525
-0.0241353
0.087959
-0.0225858
0.0938869
-0.0215025
0.0997571
-0.0208442
0.105591
-0.0204767
0.111337
-0.020219
0.116917
-0.0198888
0.122258
-0.0193614
0.127328
-0.0185903
0.132115
-0.0175856
0.13666
-0.0164336
0.141012
-0.0152274
0.145226
-0.0140838
0.149321
-0.0130785
0.153283
-0.0122537
0.157052
-0.0116002
0.160577
-0.0110615
0.163805
-0.010528
0.16671
-0.0099232
0.16929
-0.00922318
0.171579
-0.00846068
-0.00768803
-0.172676
-0.00857475
0.174625
-0.170591
-0.00948774
-0.168354
-0.0104659
-0.165935
-0.0115256
-0.163293
-0.0126885
-0.160393
-0.0139724
-0.157189
-0.0153851
-0.15366
-0.016923
-0.149774
-0.0185959
-0.145509
-0.0204097
-0.140847
-0.0223719
-0.135779
-0.0244861
-0.130301
-0.0267349
-0.12442
-0.0291028
-0.11814
-0.0315569
-0.111476
-0.0340515
-0.104436
-0.0365264
-0.0970164
-0.0389105
-0.0892203
-0.0411155
-0.0810497
-0.043064
-0.0725442
-0.0446806
-0.0637718
-0.0459476
-0.0548253
-0.0469007
-0.0457785
-0.0476294
-0.0366548
-0.0482344
-0.0274285
-0.0487726
-0.0180367
-0.0492221
-0.00843068
-0.0494928
0.00139294
-0.049453
0.0113701
-0.048985
0.0213789
-0.0480089
0.0312527
-0.0464943
0.0408184
-0.0444627
0.0499391
-0.042002
0.0585537
-0.0392626
0.0666847
-0.0364601
0.0744225
-0.0338363
0.0818848
-0.0315973
0.0891657
-0.029867
0.0963151
-0.0286518
0.103308
-0.0278371
0.110084
-0.0272533
0.116566
-0.0267009
0.122704
-0.0260263
0.128474
-0.0251322
0.13388
-0.0239955
0.138956
-0.022662
0.143748
-0.0212256
0.14831
-0.0197899
0.152679
-0.0184514
0.156856
-0.0172563
0.160813
-0.0162104
0.164498
-0.0152856
0.167851
-0.0144133
0.170841
-0.0135188
0.173472
-0.0125532
0.175785
-0.011536
0.177841
-0.0105176
-0.00953701
-0.172321
-0.0105289
0.174274
-0.170248
-0.0115603
-0.168044
-0.0126701
-0.165685
-0.0138848
-0.163148
-0.0152261
-0.160416
-0.0167046
-0.157456
-0.0183445
-0.154231
-0.0201484
-0.150698
-0.0221285
-0.146825
-0.0242829
-0.142579
-0.0266187
-0.137937
-0.0291276
-0.132879
-0.0317935
-0.127387
-0.0345948
-0.121448
-0.0374955
-0.115046
-0.040453
-0.108164
-0.0434088
-0.100791
-0.0462833
-0.0929118
-0.0489941
-0.0845335
-0.0514423
-0.0756767
-0.0535369
-0.0664112
-0.0552131
-0.0568459
-0.0564656
-0.0471265
-0.0573489
-0.0373805
-0.0579798
-0.0276755
-0.0584778
-0.0179955
-0.0589015
-0.00828242
-0.0592064
0.00149718
-0.0592324
0.0112897
-0.0587784
0.0209682
-0.0576877
0.0303846
-0.0559113
0.0394491
-0.0535278
0.0481592
-0.0507123
0.0565813
-0.0476851
0.064821
-0.0446997
0.0729678
-0.0419835
0.0810592
-0.0396886
0.0890778
-0.0378858
0.096942
-0.0365159
0.104546
-0.0354415
0.111786
-0.034493
0.118601
-0.0335163
0.124966
-0.0323908
0.130897
-0.0310633
0.13644
-0.0295385
0.141662
-0.0278842
0.146641
-0.0262051
0.151444
-0.0245924
0.156089
-0.0230963
0.16055
-0.021718
0.164756
-0.0204161
0.168617
-0.0191472
0.172056
-0.0178522
0.175042
-0.0165042
0.177606
-0.0151169
0.179835
-0.0137651
0.181814
-0.012497
-0.0113193
-0.174427
-0.0123887
0.176287
-0.172466
-0.0135217
-0.170375
-0.0147615
-0.168128
-0.016132
-0.165702
-0.017652
-0.163068
-0.0193383
-0.160198
-0.0212144
-0.157053
-0.0232939
-0.153601
-0.0255799
-0.149802
-0.0280825
-0.145638
-0.0307817
-0.141099
-0.0336673
-0.136166
-0.0367261
-0.130824
-0.039937
-0.125045
-0.0432741
-0.118795
-0.046703
-0.112029
-0.0501751
-0.104717
-0.0535947
-0.0968292
-0.056882
-0.0883608
-0.0599107
-0.079315
-0.0625824
-0.0697385
-0.0647895
-0.0597229
-0.0664809
-0.0494104
-0.0676613
-0.0389792
-0.0684107
-0.0285847
-0.0688723
-0.0183197
-0.0691661
-0.00821582
-0.0693105
0.00168639
-0.0691346
0.0112922
-0.0683847
0.0205147
-0.0669104
0.0293364
-0.0647335
0.0378474
-0.062039
0.0461889
-0.0590539
0.0544883
-0.0559848
0.0628457
-0.053057
0.0712846
-0.0504226
0.0797382
-0.048142
0.0881163
-0.046264
0.0962862
-0.0446858
0.104122
-0.0432776
0.111518
-0.0418886
0.118423
-0.0404218
0.124832
-0.0387994
0.130796
-0.037027
0.136401
-0.0351439
0.141765
-0.0332485
0.147
-0.0314398
0.152176
-0.0297689
0.157287
-0.0282065
0.162246
-0.0266781
0.166945
-0.0251145
0.171236
-0.0234392
0.175012
-0.0216271
0.178222
-0.019715
0.180936
-0.0178297
0.183265
-0.0160944
0.185309
-0.0145414
-0.0131469
-0.177891
-0.0141719
0.179673
-0.176014
-0.0153992
-0.174007
-0.0167681
-0.171821
-0.0183184
-0.169418
-0.0200552
-0.166745
-0.0220107
-0.163772
-0.0241876
-0.160464
-0.0266023
-0.156785
-0.0292583
-0.15274
-0.0321273
-0.148348
-0.0351742
-0.143622
-0.0383936
-0.138588
-0.0417594
-0.133243
-0.0452815
-0.127563
-0.048954
-0.121498
-0.0527678
-0.114977
-0.0566964
-0.107925
-0.0606465
-0.100296
-0.0645112
-0.0920431
-0.0681632
-0.0831349
-0.0714905
-0.0735769
-0.0743474
-0.0634286
-0.0766289
-0.0527768
-0.078313
-0.0418158
-0.0793713
-0.0307324
-0.0799558
-0.0197624
-0.0801357
-0.0091128
-0.0799604
0.000991309
-0.0792384
0.0104479
-0.0778416
0.019336
-0.0757986
0.0278255
-0.0732231
0.0361529
-0.0703667
0.0445275
-0.0674285
0.0529961
-0.0644537
0.0616198
-0.0616806
0.0703545
-0.0591574
0.0789967
-0.0567842
0.0874878
-0.0547551
0.0957124
-0.0529103
0.10354
-0.0511052
0.11087
-0.0492188
0.117635
-0.047187
0.123872
-0.0450357
0.129691
-0.0428468
0.135215
-0.0406672
0.140634
-0.038668
0.146087
-0.036893
0.151608
-0.0352897
0.15715
-0.0337481
0.162593
-0.0321218
0.167797
-0.0303176
0.172586
-0.0282293
0.176807
-0.0258467
0.180384
-0.0232923
0.18337
-0.0208156
0.185898
-0.0186221
0.188086
-0.0167296
-0.0150852
-0.182228
0.184045
-0.0159893
-0.180311
-0.0173166
-0.178266
-0.018813
-0.176033
-0.0205515
-0.173599
-0.0224884
-0.17087
-0.0247404
-0.167793
-0.0272638
-0.164381
-0.0300147
-0.160643
-0.0329962
-0.156462
-0.0363081
-0.151898
-0.0397382
-0.147016
-0.0432759
-0.141814
-0.0469609
-0.136371
-0.0507256
-0.130645
-0.0546793
-0.124698
-0.0587153
-0.118452
-0.0629417
-0.111778
-0.0673203
-0.104543
-0.0717457
-0.096701
-0.0760059
-0.0881379
-0.0800532
-0.0788554
-0.08363
-0.0688237
-0.0866599
-0.0580408
-0.0890958
-0.046748
-0.0906634
-0.0351577
-0.091546
-0.0237222
-0.0915706
-0.0127888
-0.0908934
-0.00266532
-0.0893615
0.00667606
-0.0871832
0.0157473
-0.0848696
0.0246551
-0.0821312
0.0336082
-0.0793198
0.0427924
-0.0766128
0.0520125
-0.0736738
0.0612518
-0.0709197
0.0704272
-0.0683329
0.0793207
-0.0656774
0.0880884
-0.0635229
0.0965161
-0.0613378
0.10451
-0.0590991
0.111984
-0.0566934
0.118808
-0.0540107
0.12511
-0.0513381
0.131029
-0.0487657
0.136634
-0.0462719
0.142117
-0.0441506
0.147431
-0.0422075
0.152855
-0.0407136
0.158285
-0.0391777
0.163593
-0.0374302
0.168677
-0.0354009
0.173529
-0.033082
0.178052
-0.0303687
0.181889
-0.0271297
0.185097
-0.0240224
0.187678
-0.0212037
0.190026
-0.0190769
-0.0170665
-0.0795317
0.0117651
-0.0909313
0.0113992
-0.10187
0.010938
-0.112145
0.0102745
-0.121661
0.00951528
-0.130727
0.0090662
-0.139711
0.00898319
-0.148948
0.00923707
-0.158527
0.00957826
-0.167687
0.00915973
-0.175571
0.00788364
-0.18181
0.00623861
-0.186296
0.00448607
-0.189096
0.00280011
-0.190365
0.00126789
-0.190381
1.57206e-05
-0.189559
-0.000822025
-0.18835
-0.0012094
-0.187013
-0.00133651
-0.185587
-0.00142686
-0.184022
-0.00156471
-0.182252
-0.00177004
-0.180155
-0.00209743
-0.177439
-0.00271631
-0.00438266
-0.0899273
0.0196938
-0.0991168
0.0205885
-0.108786
0.0206066
-0.118595
0.0200835
-0.128423
0.0193438
-0.138197
0.0188398
-0.147853
0.0186395
-0.157215
0.0185986
-0.165881
0.018244
-0.173642
0.0169204
-0.180479
0.0147214
-0.186196
0.0119547
-0.190634
0.00892475
-0.193847
0.00601236
-0.195963
0.00338434
-0.197061
0.00111362
-0.19725
-0.000632778
-0.196621
-0.00183932
-0.195308
-0.00264945
-0.193438
-0.00329731
-0.191052
-0.00395076
-0.188056
-0.00476631
-0.184251
-0.00590263
-0.1793
-0.00766687
-0.0107108
-0.102595
0.0279539
-0.11152
0.0295143
-0.120991
0.0300769
-0.130782
0.0298745
-0.140681
0.0292426
-0.150394
0.0285534
-0.15966
0.0279054
-0.168227
0.0271659
-0.17594
0.0259562
-0.182905
0.0238864
-0.189141
0.020957
-0.194564
0.0173784
-0.199094
0.0134542
-0.202597
0.009516
-0.205032
0.0058188
-0.206436
0.00251796
-0.206852
-0.000216572
-0.206316
-0.00237527
-0.204865
-0.00410121
-0.202535
-0.0056264
-0.199325
-0.00716146
-0.195166
-0.00892523
-0.189963
-0.0111058
-0.18365
-0.0139791
-0.0179752
-0.11505
0.036609
-0.123869
0.0383339
-0.133072
0.0392798
-0.14261
0.039412
-0.152283
0.0389161
-0.16177
0.0380403
-0.17075
0.0368855
-0.178956
0.0353719
-0.186255
0.0332548
-0.192673
0.0303043
-0.19824
0.0265243
-0.20295
0.022089
-0.206779
0.0172831
-0.209694
0.0124308
-0.211665
0.00778982
-0.212712
0.00356504
-0.212819
-0.000108695
-0.211952
-0.0032424
-0.210059
-0.00599445
-0.207118
-0.00856776
-0.203065
-0.0112138
-0.19784
-0.0141499
-0.191377
-0.0175686
-0.183689
-0.0216671
-0.026668
-0.126138
0.04588
-0.135248
0.0474436
-0.144489
0.0485213
-0.153922
0.0488442
-0.163401
0.0483957
-0.172641
0.0472803
-0.181329
0.0455734
-0.189192
0.0432358
-0.196081
0.0401437
-0.201962
0.0361852
-0.206854
0.0314156
-0.210792
0.0260279
-0.213815
0.0203058
-0.215942
0.0145585
-0.217218
0.00906527
-0.217645
0.00399279
-0.21719
-0.000563842
-0.215793
-0.00463971
-0.213371
-0.00841631
-0.209839
-0.0120997
-0.205119
-0.0159336
-0.199158
-0.0201104
-0.191968
-0.0247591
-0.183677
-0.0299581
-0.0357194
-0.135418
0.0559587
-0.145071
0.0570969
-0.154572
0.0580214
-0.164058
0.0583304
-0.173455
0.0577938
-0.182526
0.0563506
-0.190979
0.0540278
-0.198541
0.0507974
-0.205037
0.0466408
-0.210387
0.0415347
-0.214617
0.0356454
-0.217796
0.0292062
-0.220025
0.0225348
-0.221404
0.0159367
-0.221994
0.00965554
-0.221815
0.00381374
-0.220824
-0.00155455
-0.218922
-0.00654142
-0.216013
-0.0113247
-0.211975
-0.0161381
-0.206726
-0.021183
-0.200218
-0.026618
-0.192492
-0.0324849
-0.183708
-0.0387427
-0.045153
-0.14226
0.0671853
-0.152755
0.0675926
-0.162744
0.06801
-0.172463
0.0680494
-0.181924
0.0672549
-0.19093
0.0653577
-0.199228
0.0623272
-0.206547
0.058117
-0.212695
0.0527891
-0.217581
0.0464211
-0.221237
0.0393003
-0.223818
0.0317869
-0.225482
0.0241973
-0.226351
0.0168054
-0.226486
0.00979113
-0.225886
0.00321325
-0.224494
-0.00294692
-0.222219
-0.00881667
-0.218939
-0.0146046
-0.214544
-0.0205327
-0.208943
-0.0267845
-0.202129
-0.0334322
-0.194186
-0.0404277
-0.18539
-0.0475393
-0.0542565
-0.146779
0.079394
-0.158132
0.0789454
-0.168642
0.0785201
-0.178658
0.0780654
-0.188253
0.076851
-0.197265
0.0743698
-0.205489
0.0705516
-0.212635
0.0652642
-0.218536
0.0586916
-0.223093
0.0509775
-0.226395
0.042602
-0.228644
0.0340344
-0.230062
0.025615
-0.2308
0.0175427
-0.230813
0.00980312
-0.230084
0.0024844
-0.22854
-0.00449177
-0.226079
-0.0112781
-0.222592
-0.0180914
-0.21799
-0.0251354
-0.21219
-0.0325842
-0.20521
-0.0404121
-0.19716
-0.0484782
-0.188416
-0.0562838
-0.0629995
-0.149687
0.0922924
-0.16151
0.090768
-0.172242
0.0892529
-0.182367
0.0881912
-0.19201
0.0864935
-0.20099
0.0833496
-0.209143
0.0787054
-0.216152
0.0722754
-0.221863
0.0644042
-0.2262
0.0553138
-0.229423
0.0458244
-0.23166
0.0362704
-0.23329
0.0272449
-0.234397
0.0186493
-0.234743
0.0101485
-0.23432
0.00206043
-0.232943
-0.00586837
-0.230555
-0.0136667
-0.227033
-0.021614
-0.222363
-0.0298055
-0.216527
-0.0384204
-0.209529
-0.047411
-0.201459
-0.056548
-0.192761
-0.0649824
-0.0717164
0.404987
-0.667002
0.186264
0.480744
-1.27243
1.02136
0.251068
0.278481
-0.34467
0.066189
0.328549
-0.368792
0.0402428
-0.347078
-0.313095
0.660164
-0.40177
0.669407
-0.267637
-0.238564
0.561564
-0.322989
-0.0759209
-0.169966
0.245887
1.05948
-0.591974
-0.467524
-0.720468
1.47184
-0.751373
-0.33991
-0.0200175
0.359922
0.81954
-1.47589
0.656343
-0.640325
-0.22305
0.863371
0.13391
-0.131536
-0.00237378
0.105078
-0.00687005
-0.0981896
-0.899569
-0.372855
0.126973
-0.00922678
-0.117746
-0.537285
0.0741094
-0.116042
0.306018
-0.189977
-0.411023
0.246928
0.164095
0.282663
0.0953404
-0.377985
-0.277665
0.690064
-0.412398
1.0835
-0.861627
-0.221882
-0.848462
0.201781
0.64668
0.956451
0.127052
-0.946058
0.385723
0.56034
-0.295563
-0.140667
0.436227
0.330017
-0.298005
-0.0320054
-0.0499634
-0.135432
0.185396
0.378745
0.383062
-0.761807
0.769825
-1.04525
0.275438
0.571089
0.120265
-0.691355
0.158653
-0.413667
0.255012
-0.312113
-0.0467374
0.35885
0.239011
0.971828
-1.21085
-0.845174
0.204842
-2.05257
0.711026
1.34153
-0.335831
0.632705