/*--------------------------------*- C++ -*----------------------------------*\
  =========                 |
  \\      /  F ield         | OpenFOAM: The Open Source CFD Toolbox
   \\    /   O peration     | Website:  https://openfoam.org
    \\  /    A nd           | Version:  10
     \\/     M anipulation  |
\*---------------------------------------------------------------------------*/
FoamFile
{
    format      ascii;
    class       volVectorField;
    location    "150";
    object      U;
}
// * * * * * * * * * * * * * * * * * * * * * * * * * * * * * * * * * * * * * //

dimensions      [0 1 -1 0 0 0 0];

internalField   nonuniform List<vector> 
10435
(
(1.01406 0.025371 2.10982e-23)
(1.01164 0.102895 -3.78269e-22)
(1.47756 -0.444412 -1.25703e-20)
(1.13176 0.0124582 6.04988e-21)
(1.29298 0.17052 -3.12431e-21)
(1.60571 -0.0702076 3.02581e-20)
(1.44128 -0.418649 -5.29961e-20)
(1.79477 -0.197691 7.84653e-20)
(2.16903 -0.107308 2.9217e-19)
(1.6737 -0.334854 -1.46631e-20)
(1.05937 0.103178 -1.9499e-21)
(1.41021 -0.0930612 3.34928e-20)
(1.67127 -0.545957 3.36518e-20)
(0.776497 -0.000571762 1.53165e-20)
(0.828107 0.0210815 1.68813e-20)
(1.65839 -0.302236 -8.26725e-21)
(0.718354 -0.0182118 -4.55176e-21)
(1.77019 -0.515737 8.66365e-20)
(2.25204 -0.131196 -1.30336e-19)
(1.03707 0.0174038 -5.10614e-22)
(1.68762 -0.259617 5.07337e-20)
(1.14864 -0.0235777 -1.20298e-20)
(1.57739 -0.342318 2.04958e-19)
(2.0057 -0.51108 -6.52158e-20)
(1.62091 -0.359756 1.76504e-20)
(0.211413 0.251489 -4.84063e-23)
(0.0697619 -0.0839302 3.51346e-22)
(1.56045 -0.498412 2.64744e-20)
(0.25872 -0.221666 -1.34827e-22)
(1.7298 -0.409151 9.41284e-20)
(1.61213 -0.228396 4.04661e-20)
(1.08761 0.110397 -3.04136e-22)
(1.89957 -0.158495 -1.65736e-19)
(0.529709 -0.209362 -2.12742e-21)
(1.97356 -0.264042 7.12581e-20)
(0.944831 0.115886 -5.01145e-22)
(1.85866 -0.282153 9.72619e-20)
(0.144382 0.0946376 -3.20427e-21)
(0.408038 0.321804 1.06546e-22)
(2.2342 -0.301304 3.15624e-20)
(1.71985 -0.299394 -6.71719e-20)
(1.47423 -0.410179 -4.55963e-20)
(0.58016 0.151601 1.07435e-20)
(1.0733 0.0259263 -5.23779e-21)
(1.73417 -0.277338 -1.6592e-19)
(2.13168 -0.46437 1.40158e-19)
(1.65869 -0.186627 -3.91107e-20)
(0.450072 0.174792 3.13763e-20)
(2.16306 -0.0302623 1.10734e-19)
(1.16972 -0.0731924 -6.07256e-21)
(1.80618 -0.2154 -1.2865e-20)
(1.56401 -0.0839968 1.85973e-19)
(0.470521 0.317728 1.5972e-22)
(0.383305 -0.235055 -2.1572e-24)
(0.34726 0.312678 -2.36482e-22)
(0.202539 -0.217899 3.2235e-22)
(1.94538 -0.333741 -2.72656e-19)
(0.17912 0.0185812 -1.47223e-21)
(0.632685 -0.0890434 2.85212e-21)
(2.06753 -0.345628 1.87962e-19)
(0.4199 0.306243 -1.4693e-22)
(0.988856 0.106402 -6.73916e-23)
(0.211445 -0.0829042 1.67938e-21)
(1.49944 0.0243301 -1.24991e-20)
(1.66514 -0.303494 -3.08286e-19)
(1.52713 -0.456237 8.22401e-20)
(0.595687 -0.111804 -5.30327e-21)
(0.36946 0.00794378 -7.83187e-21)
(1.67615 -0.245638 -1.06596e-19)
(1.84753 -0.507979 4.44225e-21)
(0.320732 -0.229109 -2.50715e-22)
(0.160367 0.195138 -9.68685e-23)
(0.642734 0.232811 -4.29706e-20)
(1.52627 -0.41399 -1.13778e-19)
(0.872724 0.0364073 6.02216e-22)
(0.68833 0.178203 -3.58961e-21)
(1.68187 -0.443327 1.84068e-19)
(1.44073 -0.39453 1.78505e-19)
(1.95576 -0.112499 2.40857e-20)
(0.893273 0.00872407 -5.38488e-21)
(1.28634 -0.166164 1.10276e-20)
(0.997766 0.0104281 6.47121e-23)
(0.519924 0.312556 -2.67387e-22)
(0.43675 -0.246873 7.63294e-23)
(1.37168 -0.232729 -2.86188e-20)
(0.938825 0.0990131 1.50903e-21)
(0.973211 0.072165 2.95675e-22)
(1.0604 0.0526206 8.64561e-22)
(0.902709 0.0864177 4.88708e-22)
(0.994158 0.0674148 -1.57236e-22)
(1.08619 0.0506537 -6.87472e-22)
(1.11822 0.0510875 -1.17635e-21)
(1.02237 0.00273544 2.97899e-22)
(0.92721 0.0820958 1.05266e-21)
(1.01522 0.0620797 3.05563e-22)
(0.922776 0.121867 -6.3287e-22)
(1.15698 0.0449428 1.58941e-20)
(0.85437 0.0743607 -6.18134e-21)
(0.691952 -0.0793047 4.67706e-21)
(1.20807 0.069852 -1.6541e-20)
(0.876495 0.0802297 -7.6194e-22)
(1.35477 0.238561 -5.7073e-21)
(0.950789 0.0769203 -3.25742e-22)
(1.03721 0.0567578 -1.00374e-22)
(1.42972 0.211313 5.78737e-22)
(1.10001 0.0198423 7.90169e-23)
(1.04727 -0.00746965 9.41206e-23)
(1.21999 -0.115992 1.12177e-20)
(1.48869 -0.307826 -4.35933e-20)
(0.922754 0.0142544 8.98076e-22)
(1.13133 -0.0485377 -1.93698e-21)
(1.28215 0.237991 -3.59162e-21)
(0.972976 0.0145139 -3.65691e-22)
(0.94801 0.0163944 -3.5929e-23)
(1.15691 0.0755081 -7.87899e-21)
(1.1149 -0.0102493 2.55687e-21)
(1.26295 0.0577834 -1.07185e-20)
(0.960614 0.0939276 2.06653e-22)
(1.04781 0.0775553 -3.15321e-21)
(1.26186 0.00811876 -3.66609e-21)
(1.32143 0.0292873 -4.08448e-20)
(0.709565 0.238978 -2.15971e-21)
(0.981527 0.0891628 -6.93998e-22)
(0.858411 0.18005 2.1679e-20)
(1.10948 0.15458 9.92963e-22)
(0.331278 0.278835 -3.08146e-22)
(1.20848 0.0273531 2.05496e-20)
(0.774478 0.23864 8.31985e-21)
(1.28387 0.110668 -1.86973e-20)
(0.0460466 0.082686 1.3227e-22)
(0.829114 0.213826 -2.41393e-20)
(1.07417 0.13481 -3.45293e-21)
(1.74647 -0.254651 -1.21649e-19)
(0.854171 -0.00933437 -2.31112e-20)
(0.13093 0.155089 -5.15879e-24)
(0.639823 0.288401 7.95364e-23)
(0.903018 0.148641 2.97205e-22)
(1.1713 -0.00061933 -1.08926e-21)
(1.02491 0.0801772 8.40488e-22)
(1.08656 -0.000385039 1.70272e-21)
(1.06101 0.00867695 9.97587e-23)
(1.64119 -0.268454 -2.352e-19)
(0.5583 -0.134921 -1.20916e-20)
(1.51014 -0.0558685 1.80674e-19)
(1.19239 -0.0457628 2.67418e-21)
(0.79858 0.131345 -5.44056e-20)
(0.881417 0.160737 -2.59552e-22)
(1.54055 0.00426875 -4.18921e-20)
(0.69119 0.0469364 -2.02333e-20)
(1.5162 -0.107813 1.43141e-20)
(0.400223 0.227118 7.35225e-22)
(1.78526 -0.280486 1.41258e-19)
(1.00495 0.0460532 3.69218e-23)
(1.56356 -0.12513 1.17424e-19)
(1.59375 -0.143436 -4.17206e-20)
(0.346416 0.274252 -4.74274e-22)
(1.15441 0.182657 7.19456e-21)
(1.00285 0.0843137 3.96115e-22)
(1.64103 -0.240396 -3.98663e-20)
(1.02066 0.123352 -3.81471e-22)
(1.65504 -0.210893 -3.38798e-20)
(0.809005 -0.0435468 7.93155e-21)
(1.10476 0.0814395 7.13083e-21)
(1.40616 -0.164627 2.74272e-20)
(0.910989 0.0427173 -1.25872e-21)
(1.35166 0.0705389 9.90644e-20)
(2.00161 -0.151291 -2.59651e-19)
(1.28132 -0.0479209 -1.4869e-20)
(1.59795 -0.274247 5.93703e-20)
(1.45821 0.0243979 -2.31557e-19)
(1.6067 -0.281235 4.83048e-20)
(0.610269 0.25764 1.02106e-20)
(0.0782841 -0.137549 -3.64228e-22)
(0.836013 0.124961 -3.12387e-22)
(1.57746 -0.191903 -7.4046e-20)
(0.996235 0.125784 -8.025e-23)
(0.966514 0.1109 9.02831e-22)
(0.541413 0.0503433 -6.40107e-21)
(1.10085 -0.031795 8.57931e-22)
(0.319112 -0.204153 2.06358e-22)
(1.03489 0.101092 8.77198e-22)
(1.55999 0.0395415 -4.54119e-21)
(1.46159 -0.089839 -1.25141e-19)
(0.403657 0.295153 -1.20861e-23)
(1.66439 -0.241799 3.16983e-20)
(0.538716 0.201667 -1.37035e-20)
(0.652244 0.204726 3.80393e-20)
(1.4954 -0.358772 -2.14288e-19)
(1.36141 0.163615 7.74896e-21)
(1.54406 -0.062213 -1.28849e-19)
(1.36785 -0.0206372 1.252e-20)
(0.558432 0.30891 -2.50528e-22)
(0.0660118 0.124712 -8.80751e-23)
(0.924925 0.140318 -4.59139e-22)
(1.21296 0.215855 3.79982e-21)
(1.57357 -0.299865 1.41924e-20)
(0.674292 0.117199 -4.57001e-20)
(0.91544 0.104756 -1.71922e-21)
(0.494077 0.108539 -3.5496e-20)
(1.76223 -0.280393 1.5073e-19)
(0.906566 0.0653932 2.15642e-21)
(0.219556 0.149922 -8.91353e-22)
(1.62376 -0.516159 -7.82318e-21)
(0.213893 0.0917743 -1.15348e-21)
(1.55094 -0.491613 -2.73213e-20)
(1.16304 0.109421 1.50399e-22)
(1.07258 0.077864 4.73995e-21)
(1.22268 -0.0218375 -8.50273e-21)
(0.286979 -0.110463 1.73896e-21)
(1.25023 -0.0776798 -8.92996e-21)
(0.462634 0.269724 2.75797e-21)
(1.52064 -0.377043 -2.44357e-19)
(1.41297 -0.00649494 1.40322e-19)
(1.47826 -0.182239 1.95192e-20)
(0.110455 -0.102262 -1.17805e-22)
(0.753119 0.0597698 6.14402e-20)
(0.942223 0.0381078 2.6754e-22)
(0.522249 0.298153 2.61005e-22)
(0.17037 0.228513 -8.94027e-22)
(0.75759 -0.0697959 -4.92065e-21)
(0.379128 -0.232821 9.63633e-23)
(0.588922 -0.00708102 -1.26905e-20)
(0.478859 -0.117557 6.68412e-21)
(0.846516 0.157257 5.51378e-20)
(0.283112 0.257156 -9.46624e-23)
(1.85972 -0.244386 -5.22442e-20)
(0.253432 0.280424 2.76697e-21)
(0.891132 0.109832 -1.75207e-21)
(1.58513 -0.166379 1.89502e-19)
(0.756564 0.186485 4.65534e-20)
(0.489483 0.00707364 3.43585e-20)
(1.93235 -0.201854 2.56962e-19)
(0.209091 0.257013 2.71085e-21)
(1.77457 -0.292872 1.35211e-19)
(0.0633081 0.0257375 -1.48049e-21)
(0.649997 -0.0244027 2.42384e-20)
(1.9189 -0.394722 -1.80909e-19)
(0.228903 0.231637 1.98721e-23)
(1.81449 -0.395121 -8.3728e-21)
(1.59492 -0.272334 1.49818e-21)
(1.04928 0.0325585 1.38318e-21)
(0.350187 0.282095 6.60773e-24)
(0.537494 0.299244 1.5203e-22)
(0.260928 -0.23333 2.61502e-23)
(1.1304 0.0943027 -1.57777e-20)
(2.06384 -0.0994267 9.85432e-20)
(0.898931 0.129758 -6.02821e-22)
(1.56168 -0.283549 9.76843e-20)
(0.120778 -0.182779 -2.23949e-22)
(0.971501 0.129358 1.4424e-23)
(0.167191 -0.198024 -9.41016e-23)
(0.935832 0.060628 -3.60861e-23)
(1.69887 -0.509059 -4.96476e-20)
(1.32052 -0.118188 -1.89655e-20)
(1.48086 -0.350597 -2.2022e-19)
(1.40104 0.100829 3.68225e-20)
(0.131277 -0.194674 7.6686e-22)
(1.43781 -0.379852 2.35786e-19)
(0.440799 0.293866 -4.49202e-23)
(0.32122 0.171228 3.78064e-21)
(1.41474 -0.409474 8.07971e-21)
(1.58883 -0.210853 9.57219e-22)
(0.294739 0.267006 2.28354e-24)
(1.57622 -0.323237 -1.00129e-19)
(0.967576 0.0354811 2.1796e-22)
(0.564025 -0.0457367 -2.12272e-20)
(1.02659 0.0395258 1.92328e-22)
(1.60741 -0.317204 1.10153e-19)
(0.505592 0.30415 1.93419e-22)
(1.21272 0.116132 2.87992e-21)
(1.41594 -0.429507 3.10394e-23)
(1.65655 -0.217154 -5.42294e-20)
(1.51676 -0.30913 -3.61828e-20)
(1.60273 -0.427406 -8.3723e-20)
(0.132115 0.200728 7.93114e-22)
(1.31757 -0.0157771 -1.94306e-20)
(0.0941407 0.100026 1.41872e-21)
(1.21744 0.166141 1.69854e-21)
(1.60081 -0.315743 6.97896e-20)
(1.75681 -0.163167 2.10567e-20)
(1.65384 -0.457118 4.28654e-20)
(0.604158 0.092875 5.87018e-20)
(1.42764 -0.449564 -3.39016e-21)
(0.867016 0.116755 1.81448e-21)
(0.960239 0.0560222 -2.92106e-22)
(0.574683 0.295486 1.58539e-22)
(1.43035 0.130999 5.17707e-21)
(0.309549 0.298212 4.39866e-22)
(0.48939 -0.249518 5.27522e-22)
(0.450755 -0.219792 -4.41835e-22)
(0.872111 0.142968 -1.40336e-20)
(1.04551 0.125956 2.89504e-21)
(0.362526 -0.150886 -1.00811e-21)
(1.58265 -0.260165 1.07632e-19)
(0.374189 0.309581 3.79571e-22)
(0.25557 -0.191324 -1.45234e-21)
(0.747312 0.127811 3.02778e-21)
(0.991238 0.0315655 1.12679e-22)
(1.16096 0.145788 -7.5335e-23)
(1.59363 -0.331205 4.42313e-20)
(0.42923 0.0658584 -4.99133e-20)
(1.70408 -0.36 -2.98491e-20)
(1.45157 -0.465016 -1.13431e-21)
(0.102059 -0.167768 -3.96703e-22)
(1.11962 0.127472 -2.78393e-21)
(0.806428 0.0713819 -3.50052e-20)
(0.628521 0.0310723 -2.14726e-20)
(1.72601 -0.291787 -9.01788e-21)
(1.56766 -0.396393 -3.81877e-22)
(0.534982 -0.245274 -2.73098e-22)
(1.0732 -0.0186931 5.32074e-22)
(0.217121 0.204104 2.11806e-22)
(0.947329 0.134377 2.17636e-22)
(1.48507 0.086773 -1.60734e-20)
(2.12827 -0.168051 -4.82107e-20)
(0.20635 -0.193062 -1.90906e-22)
(0.433476 0.300564 -9.56242e-24)
(1.58361 -0.141694 -2.29298e-19)
(0.440422 -0.0370103 -4.18387e-22)
(1.3474 -0.0765683 2.13435e-20)
(1.50105 0.142603 -4.27542e-21)
(0.194683 -0.139923 -1.42978e-21)
(0.983256 0.0515837 -9.55201e-23)
(0.590643 0.304273 -2.52539e-23)
(1.8668 -0.122596 -1.20991e-20)
(1.62363 -0.50292 -2.26592e-20)
(0.100904 0.173923 2.19515e-22)
(1.48996 -0.480568 -1.44265e-22)
(0.515049 -0.0761859 3.14629e-22)
(0.113445 0.0223727 2.2094e-21)
(2.1581 -0.256657 -3.09416e-21)
(0.516908 -0.16991 1.17947e-21)
(0.572676 -0.231958 -3.50963e-22)
(1.44608 -0.446754 3.3566e-21)
(1.62797 -0.202504 7.42849e-20)
(0.256654 -0.0150346 4.6936e-21)
(0.210447 -0.219666 -3.21672e-22)
(0.132437 -0.194712 -1.67485e-22)
(0.595158 -0.196528 -2.79253e-22)
(0.1033 -0.158001 -4.67513e-23)
(0.077105 0.143219 -7.89951e-22)
(0.245025 0.242762 -1.47837e-22)
(0.470947 0.303157 1.09369e-22)
(0.07293 -0.12494 6.03402e-22)
(0.0851983 -0.149367 -7.13e-22)
(0.321598 0.244331 3.60259e-22)
(0.325447 -0.0504114 -1.40351e-21)
(0.0297953 -0.017403 1.14945e-22)
(0.616497 0.296669 2.19131e-22)
(1.98415 -0.0812948 -6.92519e-20)
(0.592738 -0.214706 -8.63201e-22)
(1.58374 -0.46731 3.27012e-21)
(0.0576497 -0.0990452 -2.01385e-22)
(1.54428 -0.495549 -5.25845e-22)
(1.93189 -0.0862879 3.1087e-20)
(2.11776 0.0167758 -2.86964e-20)
(1.62495 -0.552685 -1.66587e-21)
(1.55965 -0.366605 -7.63646e-20)
(0.320936 -0.236048 -1.60174e-22)
(0.492238 -0.242721 1.62671e-21)
(0.167019 -0.208355 7.52562e-23)
(0.252702 0.276252 1.05539e-22)
(0.133507 -0.17813 -1.50575e-25)
(0.544503 0.303258 -1.49182e-22)
(0.143143 -0.135051 6.69532e-22)
(0.0561667 0.117908 -2.02012e-22)
(0.301619 0.0589634 1.36906e-20)
(1.52651 -0.181839 -5.8553e-21)
(0.0892156 0.153573 2.46067e-23)
(2.07958 -0.0538184 8.0434e-20)
(0.29186 0.293266 -5.50553e-22)
(0.0391554 0.0974568 5.15382e-22)
(1.62251 -0.570266 -1.53512e-20)
(2.12282 0.0518269 -9.69163e-20)
(0.594384 0.29299 -1.12442e-21)
(0.0428105 -0.0658676 -6.55831e-22)
(0.149821 -0.0598483 -1.06068e-21)
(0.047257 -0.0414068 1.17572e-22)
(0.434602 -0.250631 -3.39257e-22)
(0.164991 0.221925 -2.04609e-22)
(0.0308113 -0.0407037 8.27331e-22)
(0.366088 0.297701 1.33154e-22)
(1.86696 -0.145336 -1.86708e-20)
(0.396209 -0.0874457 2.55542e-21)
(1.65144 -0.234008 1.12153e-20)
(2.00646 -0.0452963 1.13854e-19)
(1.5947 -0.511746 -5.40263e-22)
(1.62791 -0.533768 3.21018e-20)
(2.07292 -0.0175845 -5.28141e-20)
(1.50272 -0.483071 -8.75808e-21)
(2.04888 -0.219749 -5.17984e-20)
(0.811872 0.180632 -2.91146e-21)
(0.541804 0.253488 6.08983e-21)
(0.317305 -0.244006 -5.2021e-22)
(0.258585 -0.226372 3.53479e-23)
(1.46371 -0.464334 1.10764e-20)
(0.375351 -0.250939 8.28649e-22)
(1.66058 -0.589471 -6.35953e-20)
(0.0235165 -0.0141213 -1.45528e-23)
(0.250592 -0.169683 1.48951e-22)
(0.0304433 0.0683979 -2.64558e-23)
(0.442503 -0.165847 5.26525e-22)
(0.459194 0.302565 -3.30859e-22)
(1.5229 -0.350549 2.80663e-19)
(0.0990341 -0.039837 5.01406e-22)
(1.75683 -0.187509 4.5215e-21)
(1.65703 -0.285275 -3.41706e-20)
(0.551102 0.282906 1.16682e-22)
(0.12641 0.191395 6.61232e-23)
(0.0269521 0.0216245 7.46065e-23)
(2.19995 0.0125856 1.34426e-19)
(0.0311866 0.0447754 -2.62097e-22)
(0.104987 0.167109 7.95465e-24)
(0.368691 0.281753 4.3822e-22)
(0.165399 -0.197109 -6.69764e-23)
(0.366677 0.123542 -4.72371e-21)
(0.171837 -0.168913 -3.47368e-23)
(1.49717 -0.473537 6.3129e-20)
(0.246276 -0.216157 -4.40305e-23)
(0.170895 0.198714 2.25728e-24)
(0.21025 -0.191714 2.22961e-22)
(0.590431 -0.155776 6.70667e-21)
(1.70307 -0.640413 -3.78368e-20)
(0.619359 0.276758 -3.59331e-21)
(0.640892 0.282622 3.22121e-21)
(2.08207 0.0722491 -1.95179e-19)
(0.542959 -0.227795 3.72615e-22)
(0.543985 -0.469589 7.90482e-22)
(0.615006 -0.4725 -1.7542e-22)
(0.690051 -0.456734 -1.25818e-21)
(0.735935 -0.437909 7.07618e-22)
(0.768151 -0.418021 -5.36164e-22)
(0.787912 -0.398486 -3.25882e-22)
(0.804196 -0.380295 1.9274e-23)
(0.815641 -0.363336 -3.58742e-23)
(0.824129 -0.342221 -1.26793e-22)
(0.605751 -0.454115 -1.81482e-21)
(0.666695 -0.462161 -3.47339e-22)
(0.732935 -0.45379 8.95012e-22)
(0.771107 -0.439326 -1.3294e-21)
(0.796182 -0.420218 4.86616e-22)
(0.811445 -0.40119 3.81928e-22)
(0.822888 -0.383774 -1.47418e-22)
(0.830513 -0.368164 1.1787e-22)
(0.834849 -0.350758 -2.36169e-23)
(0.655192 -0.444378 2.41733e-21)
(0.710716 -0.449066 6.30192e-22)
(0.772391 -0.443857 -1.51277e-21)
(0.805727 -0.431533 3.89786e-22)
(0.825781 -0.413962 -9.06274e-22)
(0.837155 -0.396112 -4.04125e-23)
(0.844844 -0.379851 -3.02001e-23)
(0.849733 -0.365543 -8.86195e-23)
(0.852283 -0.351012 5.72978e-23)
(0.697617 -0.430908 -1.4163e-21)
(0.752176 -0.431284 6.81085e-22)
(0.810162 -0.427558 8.67421e-22)
(0.840095 -0.416114 -9.89146e-23)
(0.856226 -0.39993 2.60354e-22)
(0.86416 -0.383221 5.77906e-22)
(0.868552 -0.368038 -2.47974e-22)
(0.870974 -0.354898 4.41963e-23)
(0.872199 -0.342514 -7.59819e-23)
(0.738137 -0.407632 -1.52951e-22)
(0.793385 -0.406204 -1.26254e-22)
(0.847574 -0.403451 9.70382e-23)
(0.87433 -0.392942 -3.48751e-22)
(0.886963 -0.378364 7.89667e-23)
(0.891709 -0.36306 -1.14265e-22)
(0.893092 -0.349184 3.26962e-23)
(0.893158 -0.337397 9.98021e-23)
(0.892938 -0.326916 2.84101e-23)
(0.779121 -0.373869 9.34178e-23)
(0.833818 -0.372613 -7.70842e-22)
(0.883913 -0.37069 4.24959e-23)
(0.907391 -0.361989 5.08011e-22)
(0.916749 -0.349675 -9.72511e-23)
(0.918463 -0.336328 -1.09874e-22)
(0.916987 -0.324176 -4.53147e-23)
(0.914664 -0.314007 -1.70661e-22)
(0.912536 -0.305595 1.44581e-22)
(0.82108 -0.332276 2.52472e-22)
(0.871641 -0.331463 5.10162e-22)
(0.917193 -0.330397 6.34939e-23)
(0.9374 -0.32444 -2.08649e-22)
(0.943841 -0.315155 3.15567e-23)
(0.942828 -0.304392 -6.14601e-23)
(0.938746 -0.294402 3.84326e-23)
(0.934091 -0.286075 -8.88604e-23)
(0.929921 -0.279626 -5.41149e-23)
(0.862706 -0.287148 -2.45593e-22)
(0.904688 -0.285618 3.76467e-23)
(0.945122 -0.285652 4.96283e-24)
(0.962333 -0.282917 2.03264e-23)
(0.966474 -0.277168 -4.49984e-23)
(0.963296 -0.269404 1.29946e-22)
(0.957069 -0.261865 1.63402e-22)
(0.95033 -0.255497 -2.63173e-22)
(0.94414 -0.250663 6.03824e-23)
(0.901364 -0.241338 -5.02147e-23)
(0.931222 -0.23864 -1.06673e-22)
(0.966065 -0.240488 1.3093e-24)
(0.980832 -0.240901 -2.19879e-23)
(0.983445 -0.238808 -1.34803e-23)
(0.978854 -0.234089 -4.11551e-23)
(0.971123 -0.229026 -2.62833e-23)
(0.96276 -0.224465 2.13385e-22)
(0.954621 -0.221264 -3.49424e-23)
(0.934184 -0.196037 2.01195e-23)
(0.949917 -0.193654 1.92773e-22)
(0.979357 -0.198644 6.33042e-23)
(0.992349 -0.201557 4.57055e-23)
(0.994267 -0.203034 -1.63002e-23)
(0.989235 -0.201116 4.95241e-23)
(0.980733 -0.198349 6.67946e-24)
(0.971313 -0.195388 1.45461e-22)
(0.961827 -0.193338 8.14996e-24)
(0.956633 -0.156156 6.39058e-23)
(0.960074 -0.153193 -2.61391e-23)
(0.985321 -0.162793 -5.29789e-23)
(0.997566 -0.168001 -7.79446e-24)
(0.999584 -0.171899 -6.70433e-24)
(0.994863 -0.17239 8.41659e-24)
(0.986318 -0.171554 -2.67568e-23)
(0.976459 -0.169926 -1.37677e-22)
(0.966085 -0.168764 -2.16514e-23)
(0.962261 -0.122613 -1.66297e-22)
(0.962703 -0.117852 -1.06114e-22)
(0.985262 -0.132537 9.10572e-23)
(0.99766 -0.140069 -1.34027e-23)
(1.0007 -0.145856 1.13465e-25)
(0.996848 -0.148379 1.73148e-23)
(0.988861 -0.148926 1.32947e-23)
(0.979074 -0.148343 -4.36402e-23)
(0.968356 -0.147979 -4.66972e-23)
(0.950142 -0.0859537 -8.27076e-23)
(0.959368 -0.0827018 1.75774e-23)
(0.980283 -0.104934 5.40224e-24)
(0.99365 -0.114349 -9.0381e-24)
(0.998496 -0.122458 8.12565e-24)
(0.996138 -0.126774 8.30879e-25)
(0.989327 -0.128648 1.75906e-24)
(0.980124 -0.128971 1.67173e-23)
(0.969733 -0.128884 -1.43481e-23)
(0.923787 -0.039991 1.24505e-22)
(0.946618 -0.0443403 -1.4954e-23)
(0.969547 -0.0760219 3.70794e-25)
(0.98561 -0.0877024 -1.00553e-23)
(0.993142 -0.0986592 3.42471e-24)
(0.99307 -0.10452 2.57623e-24)
(0.988106 -0.107708 6.95991e-24)
(0.980047 -0.108807 -5.74013e-24)
(0.970011 -0.108783 2.89412e-24)
(0.883752 0.0104594 -3.77796e-22)
(0.921866 -0.00333151 1.07474e-22)
(0.951713 -0.0423194 -2.07976e-23)
(0.972445 -0.0565371 2.32496e-23)
(0.98381 -0.0697636 -8.52982e-24)
(0.987073 -0.0772569 -2.77519e-23)
(0.984739 -0.0819586 -2.26006e-23)
(0.978674 -0.084133 -2.67099e-23)
(0.970221 -0.0845689 2.3126e-23)
(0.835925 0.0587747 -4.04686e-22)
(0.88624 0.0399368 -2.3769e-22)
(0.926444 -0.00162172 2.91051e-23)
(0.953403 -0.0173036 -1.87636e-24)
(0.969368 -0.0318413 -3.09815e-23)
(0.976423 -0.0408913 2.33968e-23)
(0.977259 -0.0474634 -5.19925e-24)
(0.973881 -0.0514852 -1.12621e-22)
(0.967471 -0.0536468 5.85356e-23)
(0.781324 0.102467 -8.08051e-22)
(0.843045 0.084995 -1.75734e-23)
(0.894323 0.0459792 8.33082e-23)
(0.927822 0.0304942 2.49094e-24)
(0.948479 0.0155891 6.3264e-23)
(0.95927 0.00519891 -3.1586e-22)
(0.963313 -0.00330837 2.65167e-22)
(0.962884 -0.00955312 1.0606e-22)
(0.959436 -0.014163 -5.50629e-23)
(0.724044 0.143138 1.18565e-21)
(0.794797 0.132057 1.39677e-22)
(0.855664 0.0990121 3.9261e-23)
(0.895199 0.0847373 -2.75993e-23)
(0.920255 0.0698437 -5.01744e-24)
(0.934636 0.0581394 2.69051e-22)
(0.941815 0.0477821 -2.92758e-23)
(0.944398 0.0394152 1.81864e-22)
(0.944314 0.0330372 2.39719e-22)
(0.666679 0.183152 2.55125e-22)
(0.744587 0.179459 -8.44906e-23)
(0.810944 0.154882 2.71876e-24)
(0.855331 0.141869 1.47068e-22)
(0.884285 0.126921 -4.25932e-23)
(0.90221 0.113722 -1.28232e-22)
(0.912665 0.101488 -1.74118e-22)
(0.918473 0.0910574 -2.51644e-22)
(0.921817 0.0828769 9.38622e-23)
(0.610162 0.226499 -1.87704e-22)
(0.692282 0.226474 5.58212e-23)
(0.760606 0.210496 -2.43256e-22)
(0.808486 0.197797 3.00539e-23)
(0.840866 0.182407 -1.32777e-22)
(0.862364 0.167587 9.88916e-23)
(0.876338 0.153611 7.34192e-22)
(0.885569 0.141489 1.44308e-22)
(0.892142 0.131756 4.59443e-23)
(0.559244 0.272797 -2.83673e-22)
(0.637688 0.270281 8.68877e-22)
(0.70551 0.260797 -4.45726e-22)
(0.755833 0.247422 3.13178e-22)
(0.791412 0.231403 -2.43922e-22)
(0.816559 0.21525 3.6536e-23)
(0.83431 0.19998 -2.62089e-22)
(0.84732 0.186583 -2.59441e-22)
(0.857594 0.175714 3.99567e-23)
(0.518577 0.313348 -7.80042e-22)
(0.583203 0.304431 -8.7034e-22)
(0.649008 0.298614 1.27605e-21)
(0.700572 0.285163 -1.06724e-22)
(0.738934 0.269285 7.24521e-22)
(0.767456 0.252893 -2.36008e-22)
(0.788813 0.237352 -7.01668e-23)
(0.805436 0.223456 9.38681e-23)
(0.818506 0.212254 -3.19974e-23)
(0.489789 0.336163 7.07555e-22)
(0.534611 0.32339 7.45898e-22)
(0.597032 0.318932 -8.51925e-22)
(0.647597 0.307531 -6.65108e-22)
(0.687665 0.293549 -5.56971e-22)
(0.718621 0.27858 9.93381e-23)
(0.74281 0.264137 9.28807e-23)
(0.762385 0.250893 -3.73944e-22)
(0.777844 0.239923 1.22127e-21)
(0.463792 0.336557 1.28518e-22)
(0.494374 0.327424 -2.35083e-22)
(0.553746 0.323294 3.00728e-22)
(0.601355 0.315767 -2.96373e-22)
(0.641036 0.304955 4.9602e-22)
(0.672942 0.292963 1.30446e-22)
(0.69876 0.28094 -6.02175e-22)
(0.720443 0.269437 7.30174e-22)
(0.737221 0.260402 -7.07211e-22)
(0.426563 0.323957 -4.66611e-22)
(0.458556 0.326084 1.28227e-22)
(0.518255 0.321135 6.65724e-23)
(0.562823 0.31617 2.07967e-22)
(0.601272 0.308307 -9.41452e-23)
(0.632541 0.299504 2.54054e-22)
(0.658357 0.289614 -1.85212e-22)
(0.681058 0.278768 4.21716e-22)
(0.700715 0.271624 -3.32135e-23)
(0.626873 0.587195 -7.72311e-22)
(0.617158 0.585311 -7.89942e-22)
(0.605125 0.583636 -1.79101e-21)
(0.591039 0.582438 2.55238e-21)
(0.574615 0.581532 -1.80395e-21)
(0.555937 0.581092 1.32425e-21)
(0.535111 0.581262 3.58762e-22)
(0.512255 0.58217 -2.65611e-22)
(0.487826 0.583738 -9.1008e-22)
(0.462734 0.58546 -3.76205e-22)
(0.438085 0.586487 4.31452e-22)
(0.41462 0.585964 -4.56572e-22)
(0.392527 0.583227 1.13077e-21)
(0.371856 0.577659 -2.67107e-21)
(0.352679 0.568643 4.51405e-21)
(0.33516 0.555306 -4.91818e-21)
(0.319567 0.536702 4.33925e-21)
(0.305992 0.511717 -1.63397e-21)
(0.293972 0.480614 -6.6569e-22)
(0.282308 0.4438 6.39798e-22)
(0.269204 0.401331 -2.59681e-22)
(0.253101 0.353771 5.54822e-22)
(0.233126 0.302163 1.57321e-22)
(0.209019 0.247846 -1.03868e-21)
(0.1804 0.192663 6.89583e-22)
(0.146972 0.13983 -5.75817e-22)
(0.114895 0.0908514 5.69406e-22)
(0.090653 0.0445713 5.31368e-22)
(0.0751196 6.52708e-06 -5.42078e-22)
(0.0687496 -0.0422093 1.46897e-23)
(0.0694659 -0.0822989 -4.9771e-22)
(0.0725649 -0.120435 3.45265e-22)
(0.0798551 -0.156125 7.54154e-22)
(0.0954989 -0.18823 -4.64968e-22)
(0.117378 -0.219332 7.64936e-22)
(0.140455 -0.250653 -9.85411e-22)
(0.163905 -0.280989 4.57102e-23)
(0.188005 -0.310419 1.82215e-22)
(0.212025 -0.338276 -2.57388e-22)
(0.235781 -0.363546 5.43661e-22)
(0.258879 -0.386324 -3.45669e-22)
(0.280726 -0.406812 -1.06785e-21)
(0.301197 -0.425422 2.41927e-21)
(0.320179 -0.442759 -2.51323e-21)
(0.337413 -0.459202 2.15919e-21)
(0.352517 -0.474879 -1.27828e-21)
(0.365138 -0.489937 5.49293e-22)
(0.375697 -0.503191 -1.92051e-22)
(0.385053 -0.513343 1.57226e-22)
(0.393523 -0.520849 -1.83262e-22)
(0.401493 -0.525522 -3.62885e-22)
(0.409565 -0.527313 -1.92923e-22)
(0.418645 -0.526226 1.2392e-22)
(0.429649 -0.522419 6.08014e-22)
(0.442775 -0.516458 -9.75563e-22)
(0.457583 -0.509171 1.41238e-21)
(0.473311 -0.501401 -9.26146e-22)
(0.489179 -0.494004 -4.79633e-22)
(0.504288 -0.487332 -4.78177e-22)
(0.650454 0.539136 -9.39375e-23)
(0.644394 0.535303 -1.8852e-23)
(0.636268 0.532195 -2.29699e-22)
(0.625946 0.53013 1.29283e-22)
(0.613037 0.528842 -2.09102e-22)
(0.597438 0.528129 1.60428e-22)
(0.57913 0.527617 -5.49077e-24)
(0.558238 0.526743 2.64001e-22)
(0.535072 0.524748 -1.10316e-21)
(0.510191 0.520727 -2.01783e-23)
(0.484358 0.513794 5.86137e-22)
(0.458348 0.503275 7.04608e-22)
(0.432689 0.488812 -2.06142e-21)
(0.407591 0.470488 2.43599e-21)
(0.383312 0.448216 -2.75993e-21)
(0.360396 0.421747 9.07808e-22)
(0.339132 0.391448 2.09826e-21)
(0.318293 0.359078 -1.24066e-21)
(0.297263 0.325794 -5.08149e-22)
(0.278644 0.291647 1.19682e-23)
(0.263834 0.257114 -6.28976e-23)
(0.252098 0.222994 9.77053e-22)
(0.241489 0.189794 -4.46299e-22)
(0.228999 0.157354 -2.36501e-23)
(0.212951 0.12544 9.45926e-24)
(0.194598 0.0919558 1.86441e-24)
(0.177628 0.0546201 -3.76143e-24)
(0.164227 0.0134862 4.72561e-23)
(0.154574 -0.0296583 2.83989e-23)
(0.148391 -0.0731528 -4.07303e-24)
(0.145657 -0.115436 -6.82786e-23)
(0.145784 -0.155809 2.63239e-23)
(0.148893 -0.193969 -2.73274e-23)
(0.156579 -0.22861 -6.5275e-23)
(0.169144 -0.257866 -4.94704e-23)
(0.184275 -0.281938 4.96526e-23)
(0.199993 -0.301732 3.14402e-23)
(0.215004 -0.317771 -7.67775e-23)
(0.228264 -0.33161 2.16078e-23)
(0.240357 -0.344054 -4.87753e-24)
(0.252658 -0.354978 -7.82651e-23)
(0.267044 -0.364563 -1.72025e-22)
(0.285112 -0.372778 2.59248e-22)
(0.306584 -0.379982 2.33722e-22)
(0.330111 -0.38703 -8.56653e-22)
(0.353839 -0.394451 1.06253e-21)
(0.375733 -0.403292 -1.18249e-21)
(0.394311 -0.414758 4.73791e-22)
(0.410177 -0.427469 4.91489e-22)
(0.424848 -0.43975 -1.04615e-23)
(0.438792 -0.451584 -1.09974e-21)
(0.452639 -0.462044 3.37274e-22)
(0.468057 -0.470022 1.11797e-22)
(0.485881 -0.475014 -2.21647e-22)
(0.505462 -0.477334 -1.66284e-22)
(0.525552 -0.477778 2.29757e-22)
(0.544848 -0.477176 -3.44359e-22)
(0.562477 -0.47633 4.2296e-24)
(0.577904 -0.475655 -1.15738e-22)
(0.682228 0.506804 -3.96749e-22)
(0.676628 0.502815 1.52288e-22)
(0.669533 0.499444 -1.75656e-22)
(0.66098 0.496821 9.99568e-23)
(0.650817 0.494587 5.77807e-22)
(0.639045 0.492415 -1.68316e-22)
(0.625695 0.489879 -6.68745e-23)
(0.610877 0.486465 9.74345e-23)
(0.594798 0.481596 -6.68416e-24)
(0.577739 0.474699 5.08913e-23)
(0.560032 0.465283 -2.76939e-22)
(0.542037 0.453005 2.16187e-22)
(0.524132 0.437669 -1.54945e-22)
(0.506696 0.419195 -2.62566e-23)
(0.490084 0.397564 -9.70779e-23)
(0.474426 0.373146 9.46118e-23)
(0.459478 0.346675 3.99225e-22)
(0.444541 0.319028 -3.58207e-23)
(0.428682 0.290547 -3.19245e-23)
(0.411555 0.261655 9.63142e-23)
(0.393707 0.232929 -1.58321e-22)
(0.375663 0.204888 1.92475e-23)
(0.35772 0.177676 -7.78899e-22)
(0.339675 0.150809 7.62429e-22)
(0.32153 0.123093 -2.87253e-22)
(0.304156 0.0929253 3.70391e-24)
(0.288521 0.059802 4.21695e-23)
(0.275115 0.0242277 -2.13455e-22)
(0.264023 -0.0130384 1.06399e-22)
(0.255331 -0.0512334 6.82135e-23)
(0.249041 -0.0895695 1.82116e-22)
(0.245133 -0.127393 -1.50819e-22)
(0.243923 -0.16416 8.41896e-23)
(0.24581 -0.198995 1.34234e-22)
(0.250557 -0.23066 -3.79181e-22)
(0.257391 -0.25833 1.06056e-21)
(0.265858 -0.281831 -5.99979e-22)
(0.276139 -0.301448 -1.36021e-22)
(0.288567 -0.317705 -1.41489e-22)
(0.303431 -0.331858 -1.37932e-23)
(0.321545 -0.344486 -1.3955e-22)
(0.343571 -0.35584 -2.04757e-22)
(0.368769 -0.365949 8.86066e-22)
(0.395463 -0.374836 1.87515e-22)
(0.421571 -0.382965 -5.86861e-22)
(0.445374 -0.390785 1.39037e-23)
(0.46587 -0.398701 3.47934e-22)
(0.482768 -0.407309 -1.94341e-22)
(0.496708 -0.41685 1.70531e-22)
(0.509085 -0.426552 -4.07753e-23)
(0.52155 -0.435507 7.17289e-23)
(0.535982 -0.442626 8.00192e-23)
(0.553696 -0.446942 -1.71308e-22)
(0.57436 -0.448422 -3.22214e-22)
(0.596249 -0.448066 9.67179e-22)
(0.617247 -0.447251 2.48745e-22)
(0.635699 -0.447062 -1.87639e-22)
(0.650978 -0.448149 2.48218e-22)
(0.663059 -0.450463 -4.34727e-22)
(0.698202 0.457907 1.64192e-23)
(0.692482 0.453621 2.24804e-22)
(0.685364 0.449966 -6.7724e-23)
(0.676973 0.446768 -4.98557e-23)
(0.667366 0.443562 8.9845e-23)
(0.65666 0.439946 5.66087e-23)
(0.644934 0.435539 1.8321e-22)
(0.632293 0.429984 6.13602e-22)
(0.618901 0.422941 -3.27046e-22)
(0.604955 0.414117 -5.00551e-22)
(0.590656 0.403291 -5.10644e-22)
(0.576189 0.390332 1.68694e-21)
(0.561711 0.37522 -1.52205e-21)
(0.547334 0.358058 2.16405e-22)
(0.533091 0.33911 -2.70119e-22)
(0.518891 0.318782 8.4366e-22)
(0.504477 0.297577 -7.50607e-22)
(0.489454 0.275974 2.21436e-22)
(0.473391 0.254251 2.06759e-22)
(0.456086 0.232464 -1.67724e-22)
(0.437806 0.210528 8.49762e-23)
(0.419335 0.188272 2.2903e-23)
(0.401673 0.165448 -5.27403e-23)
(0.385549 0.14169 6.78697e-23)
(0.371279 0.116473 -3.83419e-23)
(0.358874 0.089331 4.0845e-24)
(0.348144 0.0600709 7.92958e-23)
(0.338788 0.0287725 -8.69514e-23)
(0.330539 -0.00432096 3.09614e-23)
(0.323324 -0.0388197 -1.18216e-23)
(0.317238 -0.0742084 7.25107e-23)
(0.312441 -0.10989 -1.89046e-22)
(0.309075 -0.145169 1.3744e-22)
(0.307163 -0.179195 4.00232e-24)
(0.306575 -0.211079 -2.47878e-22)
(0.307354 -0.240195 7.0171e-23)
(0.310126 -0.266244 2.76818e-22)
(0.315999 -0.289173 -1.01814e-22)
(0.326155 -0.309047 -1.0032e-22)
(0.341428 -0.326096 1.59285e-22)
(0.362012 -0.340569 -1.26705e-23)
(0.387112 -0.352656 1.29231e-23)
(0.414914 -0.362682 -2.80865e-24)
(0.443183 -0.371192 1.33665e-22)
(0.46993 -0.378868 -9.49992e-23)
(0.493861 -0.386361 1.38564e-22)
(0.514537 -0.394101 -1.13367e-21)
(0.532339 -0.402229 1.33049e-21)
(0.548306 -0.410558 -5.8112e-22)
(0.563842 -0.41853 -6.57283e-22)
(0.580358 -0.4253 -6.33296e-22)
(0.598894 -0.429953 1.0448e-21)
(0.619651 -0.43187 2.6609e-22)
(0.641695 -0.431243 1.96108e-22)
(0.663125 -0.429231 1.69585e-22)
(0.681904 -0.427395 -9.09278e-23)
(0.696918 -0.426808 -8.57369e-23)
(0.708336 -0.427816 2.581e-22)
(0.716804 -0.430171 -3.01268e-24)
(0.716199 0.414936 -3.14514e-22)
(0.710723 0.411136 7.15371e-23)
(0.704451 0.407579 1.23378e-22)
(0.697563 0.404008 -6.50486e-23)
(0.690203 0.400027 -1.2489e-23)
(0.682434 0.395389 -7.30871e-23)