/*--------------------------------*- C++ -*----------------------------------*\
  =========                 |
  \\      /  F ield         | OpenFOAM: The Open Source CFD Toolbox
   \\    /   O peration     | Website:  https://openfoam.org
    \\  /    A nd           | Version:  10
     \\/     M anipulation  |
\*---------------------------------------------------------------------------*/
FoamFile
{
    format      ascii;
    class       volScalarField;
    location    "450";
    object      epsilon;
}
// * * * * * * * * * * * * * * * * * * * * * * * * * * * * * * * * * * * * * //

dimensions      [0 2 -3 0 0 0 0];

internalField   nonuniform List<scalar> 
10435
(
0.00126504
0.0011707
0.000690278
0.00202917
0.00269475
0.00199663
0.000667033
0.000980712
0.0012144
0.00127497
0.00138714
0.00362094
0.000471069
0.00492898
0.00472624
0.00125765
0.00495553
0.00055162
0.00130531
0.00121087
0.00103471
0.00205485
0.00127738
0.00311878
0.00139206
0.00104928
0.00306416
0.000520872
0.00265821
0.000893883
0.00238181
0.00157988
0.0010089
0.00251208
0.00189176
0.00162192
0.00210186
0.00314586
0.000424381
0.00188759
0.00105055
0.000774098
0.00415231
0.00148527
0.00218175
0.00257435
0.00150019
0.00368292
0.000978763
0.00199264
0.00113137
0.00274309
0.000433034
0.00183083
0.000533247
0.00236354
0.00266106
0.00351544
0.00407528
0.00234258
0.000566268
0.00119235
0.0035074
0.00312299
0.00170151
0.000785942
0.00360131
0.00422754
0.000908457
0.00345921
0.00176806
0.0020431
0.00263755
0.00100208
0.00424762
0.00396267
0.00359434
0.000683366
0.000946533
0.00359015
0.00276337
0.00121921
0.000450879
0.00189558
0.00316486
0.00220591
0.00174268
0.00145875
0.00345084
0.00145877
0.00166277
0.00195677
0.00106101
0.00286291
0.00134074
0.00207946
0.00230233
0.00449824
0.00429734
0.00262864
0.00400851
0.00243332
0.00222684
0.00134921
0.00246897
0.00172144
0.00105015
0.0023622
0.00348145
0.00289731
0.00165092
0.00230379
0.00157469
0.00216391
0.00225956
0.00172197
0.00297832
0.00173043
0.0013761
0.00303407
0.00323877
0.00299819
0.00143617
0.00282482
0.00157403
0.000811978
0.0026986
0.00308387
0.00293352
0.00270343
0.00309494
0.00137148
0.00124087
0.0040714
0.00253518
0.00061257
0.0018193
0.00239324
0.00129011
0.00145674
0.00128163
0.00217155
0.00324242
0.00345306
0.00243491
0.00458262
0.00231281
0.0027561
0.00511264
0.00361014
0.00295837
0.00270666
0.0014025
0.00343178
0.00224787
0.00203363
0.00181264
0.00130093
0.00172004
0.00106367
0.00313245
0.00429058
0.00178584
0.00353828
0.00347188
0.00325584
0.00119228
0.00313509
0.00374191
0.00340525
0.00179895
0.00196889
0.00280742
0.00436887
0.00367691
0.000999141
0.00133307
0.00480045
0.00136414
0.00301746
0.00124229
0.00232119
0.0036937
0.000741675
0.00267277
0.00331106
0.00341196
0.000764196
0.00284369
0.00317045
0.00345427
0.000487844
0.0024111
0.00141592
0.00207692
0.000834991
0.00477988
0.00282615
0.00438178
0.0016434
0.00351784
0.00314658
0.000508403
0.00347807
0.000610279
0.00220313
0.00154796
0.00277933
0.00358565
0.00283336
0.00239027
0.000984729
0.00353781
0.00372852
0.00308296
0.00508963
0.0026033
0.00100849
0.00105658
0.0043459
0.00267631
0.00486553
0.00373815
0.00385584
0.00156436
0.00152013
0.000671118
0.0034513
0.00267302
0.00393564
0.00464904
0.00133775
0.000842435
0.00318091
0.00311412
0.00484715
0.00318058
0.00143473
0.00349975
0.0019945
0.00134592
0.00118918
0.0013227
0.0022139
0.0019856
0.00106087
0.00267714
0.000782095
0.00212421
0.00102124
0.00189001
0.00280518
0.000588442
0.00322295
0.000724093
0.00317361
0.00180563
0.000682754
0.00179397
0.0032573
0.000647109
0.00222214
0.00108008
0.00370587
0.00192456
0.00458274
0.00131055
0.00171582
0.00068446
0.0025442
0.000617561
0.000802939
0.000746619
0.00106659
0.00130798
0.00328105
0.00287636
0.00236524
0.000992741
0.000833499
0.000838607
0.00479254
0.000577754
0.00397389
0.00213673
0.000785634
0.00287513
0.0005353
0.00194443
0.00272316
0.00331021
0.0011946
0.00348286
0.000772826
0.000427154
0.00173404
0.00472192
0.00148723
0.00204605
0.0016062
0.00438307
0.00365317
0.000536108
0.00244691
0.00179492
0.00491219
0.00500409
0.00349309
0.0012087
0.00195248
0.00115881
0.00261251
0.00115279
0.00286506
0.00143501
0.0018695
0.000929736
0.00312368
0.00434904
0.00342861
0.00244017
0.00317017
0.00166372
0.0005287
0.000856657
0.000616716
0.00158587
0.000506023
0.00417841
0.00326692
0.00182607
0.00293348
0.00192701
0.000609643
0.00348123
0.00378336
0.00201109
0.00212078
0.00214246
0.00269659
0.00185732
0.00203432
0.000590437
0.00280453
0.00273991
0.0026078
0.00395163
0.00317089
0.000573536
0.000898798
0.00197237
0.000804145
0.0029676
0.000487271
0.000864067
0.000871896
0.000400604
0.00130851
0.00202577
0.00226776
0.00208775
0.000820203
0.00256535
0.000723053
0.00300605
0.00213075
0.00389217
0.00376207
0.00207544
0.000944076
0.000659291
0.00242322
0.000360274
0.000829099
0.000925339
0.00299573
0.003364
0.00311646
0.00225738
0.00131037
0.00345455
0.000615451
0.000898897
0.00395918
0.000830265
0.000871773
0.000468238
0.000439847
0.000881602
0.000527481
0.00162222
0.00382636
0.0024402
0.00242802
0.00190705
0.000555564
0.00215638
0.000390924
0.0033163
0.00316963
0.00265367
0.003257
0.00124181
0.00087552
0.00322417
0.000872355
0.00366427
0.00173076
0.00155255
0.00309333
0.000958936
0.00298564
0.00179595
0.00150057
0.00247763
0.00385889
0.00286304
0.000588948
0.00180133
0.00169146
0.00280105
0.00259298
0.000330598
0.00120703
0.000756933
0.000767142
0.0021797
2.93795e-06
2.85352e-06
2.80805e-06
2.72382e-06
2.62193e-06
2.48842e-06
2.30333e-06
2.0345e-06
1.6303e-06
3.0945e-06
2.93987e-06
2.80789e-06
2.66781e-06
2.51699e-06
2.34034e-06
2.11959e-06
1.8369e-06
1.4753e-06
3.21269e-06
2.99448e-06
2.79252e-06
2.59905e-06
2.40523e-06
2.19486e-06
1.9534e-06
1.67135e-06
1.34835e-06
3.32768e-06
3.05111e-06
2.7883e-06
2.54693e-06
2.31571e-06
2.07879e-06
1.82418e-06
1.54613e-06
1.24773e-06
3.4719e-06
3.13998e-06
2.82066e-06
2.53457e-06
2.26884e-06
2.00834e-06
1.74205e-06
1.46473e-06
1.17732e-06
3.68034e-06
3.29246e-06
2.91536e-06
2.58364e-06
2.28242e-06
1.99683e-06
1.7156e-06
1.43277e-06
1.14738e-06
3.99891e-06
3.5444e-06
3.10113e-06
2.71768e-06
2.37554e-06
2.05905e-06
1.7559e-06
1.45922e-06
1.16744e-06
4.49333e-06
3.9379e-06
3.41231e-06
2.96567e-06
2.57259e-06
2.21503e-06
1.87895e-06
1.55646e-06
1.24596e-06
5.22208e-06
4.52108e-06
3.89291e-06
3.36693e-06
2.90811e-06
2.49449e-06
2.10966e-06
1.74381e-06
1.39417e-06
6.2353e-06
5.35272e-06
4.6032e-06
3.97773e-06
3.43312e-06
2.94287e-06
2.48788e-06
2.05535e-06
1.63923e-06
7.5866e-06
6.51157e-06
5.62908e-06
4.88009e-06
4.22331e-06
3.62922e-06
3.07623e-06
2.54808e-06
2.03559e-06
9.32676e-06
8.1152e-06
7.0974e-06
6.19416e-06
5.39016e-06
4.65653e-06
3.96969e-06
3.30936e-06
2.66404e-06
1.14967e-05
1.03663e-05
9.20215e-06
8.09663e-06
7.09559e-06
6.17472e-06
5.30723e-06
4.46673e-06
3.6392e-06
1.48106e-05
1.36647e-05
1.22435e-05
1.08427e-05
9.56971e-06
8.39679e-06
7.28712e-06
6.20384e-06
5.12801e-06
2.01398e-05
1.85496e-05
1.66238e-05
1.47748e-05
1.31254e-05
1.16168e-05
1.01873e-05
8.77898e-06
7.35413e-06
2.83747e-05
2.55884e-05
2.28006e-05
2.03136e-05
1.81669e-05
1.623e-05
1.43954e-05
1.25751e-05
1.07118e-05
4.0032e-05
3.52025e-05
3.12224e-05
2.79418e-05
2.52016e-05
2.27611e-05
2.04453e-05
1.81253e-05
1.57285e-05
5.44202e-05
4.7493e-05
4.22908e-05
3.82118e-05
3.48757e-05
3.19238e-05
2.9096e-05
2.62004e-05
2.31225e-05
7.10413e-05
6.25811e-05
5.6491e-05
5.18414e-05
4.80788e-05
4.47485e-05
4.1494e-05
3.80357e-05
3.41815e-05
9.02873e-05
8.11342e-05
7.4709e-05
6.99441e-05
6.6155e-05
6.28056e-05
5.9423e-05
5.56103e-05
5.10862e-05
0.000113796
0.00010471
9.8577e-05
9.43463e-05
9.12228e-05
8.85555e-05
8.5698e-05
8.20462e-05
7.71157e-05
0.000144411
0.000135913
0.000130723
0.000127908
0.000126566
0.000125825
0.000124767
0.000122444
0.000118054
0.000186362
0.000178483
0.000174959
0.000174841
0.000177074
0.000180367
0.000183396
0.000184704
0.000183082
0.000245995
0.000237362
0.000236365
0.00024093
0.0002496
0.000260308
0.000271237
0.000280151
0.000285325
0.000331358
0.00031811
0.000321308
0.000333706
0.000353213
0.00037622
0.000400702
0.000423829
0.000440089
0.000227446
0.000220651
0.000216747
0.000215714
0.000217418
0.000221561
0.000227745
0.000235493
0.000244318
0.000253734
0.000263318
0.000272717
0.00028165
0.000289934
0.000297435
0.000304061
0.000309628
0.000313927
0.00031681
0.000318141
0.000317778
0.000315583
0.00031136
0.000304679
0.000294389
0.000280406
0.000264479
0.000247384
0.000229172
0.00021009
0.000191186
0.00017281
0.000155029
0.000137937
0.000121736
0.000106551
9.24569e-05
7.94955e-05
6.76874e-05
5.7035e-05
4.75225e-05
3.9126e-05
3.18237e-05
2.55874e-05
2.03728e-05
1.6112e-05
1.27116e-05
1.00587e-05
8.02921e-06
6.50174e-06
5.36636e-06
4.53106e-06
3.92333e-06
3.48796e-06
3.18452e-06
2.98395e-06
2.86608e-06
2.81763e-06
2.82887e-06
0.000261947
0.000258119
0.000257279
0.000259414
0.000264169
0.000271046
0.000279442
0.000288714
0.00029823
0.000307428
0.000315853
0.000323198
0.000329345
0.000334368
0.000338495
0.000341487
0.000342853
0.00034209
0.000339486
0.000335274
0.000329609
0.000322568
0.000314136
0.000304177
0.000292385
0.000278499
0.000262607
0.00024507
0.000226424
0.00020734
0.0001884
0.000169923
0.000152085
0.000135026
0.000118876
0.00010374
8.96994e-05
7.68078e-05
6.50979e-05
5.45813e-05
4.5251e-05
3.70877e-05
3.00616e-05
2.41263e-05
1.92143e-05
1.5235e-05
1.20779e-05
9.6209e-06
7.73971e-06
6.31811e-06
5.25494e-06
4.46751e-06
3.88909e-06
3.46888e-06
3.16998e-06
2.96638e-06
2.83998e-06
2.7788e-06
2.7742e-06
0.000289592
0.00028868
0.000290566
0.000294933
0.000301318
0.000309115
0.00031765
0.000326255
0.000334324
0.000341361
0.000347009
0.00035106
0.000353451
0.000354258
0.00035365
0.000351799
0.000348795
0.000344647
0.000339368
0.000332986
0.000325513
0.000316922
0.000307124
0.000295954
0.000283207
0.000268778
0.000252774
0.00023547
0.000217258
0.000198612
0.000179996
0.000161758
0.000144142
0.000127336
0.000111488
9.67183e-05
8.31133e-05
7.07304e-05
5.95985e-05
4.97209e-05
4.10764e-05
3.36229e-05
2.72979e-05
2.20199e-05
1.76899e-05
1.4196e-05
1.14197e-05
9.24291e-06
7.55523e-06
6.25852e-06
5.26969e-06
4.52079e-06
3.95788e-06
3.53943e-06
3.23435e-06
3.01994e-06
2.87994e-06
2.80326e-06
2.78113e-06
0.00028678
0.000285271
0.000286551
0.000290275
0.000295945
0.000302939
0.000310582
0.000318216
0.000325256
0.000331231
0.000335812
0.000338813
0.000340192
0.000340019
0.000338427
0.000335574
0.00033159
0.000326574
0.0003206
0.000313706
0.00030589
0.000297097
0.000287225
0.000276136
0.000263696
0.00024984
0.000234631
0.000218266
0.000201062
0.000183406
0.000165694
0.000148273
0.00013143
0.000115395
0.00010035
8.64353e-05
7.37467e-05
6.23411e-05
5.22356e-05
4.34114e-05
3.58172e-05
2.93747e-05
2.39847e-05
1.95339e-05
1.59019e-05
1.29684e-05
1.06195e-05
8.75164e-06
7.27449e-06
6.11167e-06
5.20011e-06
4.4918e-06
3.94673e-06
3.53246e-06
3.22376e-06
3.00154e-06
2.85161e-06
2.76398e-06
2.73045e-06
0.000265873
0.000263164
0.000263076
0.000265317
0.000269465
0.000274992
0.000281322
0.000287884
0.000294154
0.000299695
0.000304176
0.000307379
0.000309202
0.000309637
0.000308735
0.00030659
0.000303305
0.000298975
0.000293675
0.000287441
0.00028027
0.000272112
0.000262885
0.000252489
0.000240841
0.000227916
0.000213779
0.000198596
0.000182625
0.000166189
0.000149639
0.000133315
0.000117525
0.000102533
8.85499e-05
7.57355e-05
6.4191e-05
5.39641e-05
4.50513e-05
3.74023e-05
3.09301e-05
2.55209e-05
2.10465e-05
1.73747e-05
1.43786e-05
1.19424e-05
9.9654e-06
8.36291e-06
7.06538e-06
6.01673e-06
5.1721e-06
4.49593e-06
3.95977e-06
3.54065e-06
3.21993e-06
2.98271e-06
2.8172e-06
2.71457e-06
2.6669e-06
0.000234755
0.000230442
0.000228515
0.000228757
0.000230855
0.000234415
0.000238996
0.000244147
0.00024944
0.000254491
0.000258983
0.000262674
0.000265396
0.000267051
0.000267605
0.000267054
0.00026542
0.000262737
0.000259037
0.000254335
0.000248614
0.000241832
0.000233925
0.000224827
0.000214489
0.000202917
0.000190186
0.000176456
0.000161958
0.000146986
0.000131866
0.000116934
0.000102512
8.88836e-05
7.62737e-05
6.48458e-05
5.46911e-05
4.58362e-05
3.82491e-05
3.18462e-05
2.65086e-05
2.20987e-05
1.84748e-05
1.55027e-05
1.30623e-05
1.10519e-05
9.38846e-06
8.00671e-06
6.85634e-06
5.89896e-06
5.10524e-06
4.45233e-06
3.92163e-06
3.4975e-06
3.16642e-06
2.91673e-06
2.73846e-06
2.62363e-06
2.56449e-06
0.000200434
0.000195095
0.00019176
0.000190309
0.000190539
0.000192188
0.000194961
0.000198542
0.000202613
0.000206872
0.000211043
0.000214888
0.000218208
0.000220846
0.000222684
0.000223646
0.000223679
0.000222736
0.000220794
0.000217823
0.000213784
0.000208623
0.00020229
0.000194735
0.000185925
0.000175895
0.000164739
0.000152623
0.000139767
0.000126446
0.000112979
9.96908e-05
8.69167e-05
7.49418e-05
6.39797e-05
5.418e-05
4.5605e-05
3.82497e-05
3.20532e-05
2.69011e-05
2.26546e-05
1.91686e-05
1.63048e-05
1.39408e-05
1.1973e-05
1.03179e-05
8.91217e-06
7.70875e-06
6.6744e-06
5.78591e-06
5.02699e-06
4.38566e-06
3.85208e-06
3.41722e-06
3.07199e-06
2.80736e-06
2.61465e-06
2.48616e-06
2.414e-06
0.000162535
0.000156614
0.000152308
0.000149565
0.000148299
0.000148358
0.000149567
0.000151728
0.000154621
0.000158013
0.000161698
0.00016544
0.000169036
0.000172298
0.000175066
0.000177224
0.00017866
0.000179257
0.000178952
0.00017764
0.000175256
0.000171724
0.000167024
0.000161126
0.000153974
0.000145648
0.000136253
0.000125976
0.000115002
0.000103609
9.21086e-05
8.08135e-05
7.00723e-05
6.0146e-05
5.1187e-05
4.3313e-05
3.65441e-05
3.08395e-05
2.61172e-05
2.22359e-05
1.90575e-05
1.64471e-05
1.42858e-05
1.2473e-05
1.09286e-05
9.58801e-06
8.40913e-06
7.36014e-06
6.42314e-06
5.58898e-06
4.85399e-06
4.21667e-06
3.67552e-06
3.22807e-06
2.86938e-06
2.59234e-06
2.38873e-06
2.25055e-06
2.16904e-06
0.000117666
0.00011177
0.0001071
0.000103676
0.000101497
0.000100525
0.000100662
0.000101737
0.00010373
0.000106589
0.000109905
0.00011353
0.000117207
0.000120696
0.000123967
0.000126843
0.000129402
0.000131582
0.000132894
0.000133074
0.000132107
0.000130005
0.000126872
0.000122625
0.000117285
0.000110878
0.000103551
9.54671e-05
8.67205e-05
7.75535e-05
6.83986e-05
5.95564e-05
5.13689e-05
4.39941e-05
3.75084e-05
3.18437e-05
2.70479e-05
2.32071e-05
2.00813e-05
1.74994e-05
1.53835e-05
1.36305e-05
1.21514e-05
1.0867e-05
9.71536e-06
8.67399e-06
7.71317e-06
6.82446e-06
5.99998e-06
5.22462e-06
4.50635e-06
3.8612e-06
3.30386e-06
2.84043e-06
2.46799e-06
2.18249e-06
1.97575e-06
1.83794e-06
1.75749e-06
0.00170251
0.00146782
0.00126622
0.00109032
0.000937516
0.00080645
0.000694137
0.000595293
0.000507711
0.000431557
0.000372908
0.000333113
0.000310067
0.000299594
0.000293944
0.000289569
0.000285733
0.000281845
0.000278013
0.000275109
0.000274455
0.000276448
0.000277842
0.00027185
0.000249861
0.0016204
0.00142693
0.00124072
0.00106969
0.00091749
0.000784724
0.000669702
0.000570011
0.000484568
0.000413706
0.000358347
0.000317742
0.000289779
0.000271619
0.000260156
0.000253237
0.000249662
0.000248773
0.000250318
0.000254308
0.000260757
0.000269253
0.000278163
0.000283566
0.000277669
0.00163197
0.00142345
0.00122898
0.0010522
0.000895211
0.000758396
0.000640596
0.000540271
0.000456474
0.000388569
0.000335515
0.000295552
0.000266517
0.000246203
0.000232696
0.000224693
0.000221431
0.000222408
0.000227375
0.000236148
0.000248414
0.000263434
0.000279493
0.000292938
0.000296975
0.00165412
0.00142296
0.00121508
0.00102998
0.000867701
0.000727627
0.000608419
0.000508529
0.000426567
0.000361032
0.000310018
0.000271298
0.00024266
0.000222185
0.00020843
0.000200499
0.000197921
0.000200405
0.000207791
0.000219854
0.000236089
0.000255373
0.000275363
0.000291537
0.000295917
0.00167308
0.00142221
0.00120034
0.00100601
0.000838192
0.000695365
0.000575554
0.000476665
0.000396621
0.000333228
0.000284091
0.000246771
0.00021906
0.00019919
0.000185922
0.000178545
0.00017672
0.000180294
0.000189184
0.000203135
0.000221406
0.000242329
0.000262724
0.0002772
0.000278166
0.00168049
0.00141453
0.0011802
0.000977475
0.000805044
0.000660497
0.000540998
0.000443715
0.000365878
0.00030475
0.000257625
0.000221953
0.000195543
0.000176708
0.000164302
0.000157698
0.000156593
0.00016091
0.000170585
0.000185302
0.000204094
0.000224848
0.000243803
0.000255127
0.000251077
0.00168251
0.00140047
0.00115311
0.000942562
0.000766694
0.000621703
0.000503561
0.000408619
0.000333479
0.000274975
0.000230194
0.000196521
0.000171779
0.000154308
0.000142993
0.000137241
0.000136737
0.00014143
0.000151234
0.000165742
0.000183798
0.000202993
0.000219291
0.000227016
0.000218986
0.00168676
0.00137827
0.00111549
0.000898159
0.000720784
0.000577168
0.000461753
0.000370101
0.000298363
0.000243044
0.000201094
0.000169883
0.000147258
0.000131489
0.000121471
0.000116617
0.00011657
0.000121272
0.000130598
0.000144038
0.000160297
0.000176706
0.000189428
0.000193363
0.000182116
0.00168243
0.00133907
0.00106114
0.000840347
0.000664872
0.000525245
0.000414416
0.000327108
0.000259511
0.000208106
0.000169529
0.000141338
0.000121484
0.000107815
9.92983e-05
9.53788e-05
9.56038e-05
9.99123e-05
0.000108148
0.000119697
0.000132965
0.000145511
0.000153481
0.000152109
0.000136726
0.000310635
0.000323449
0.227176
7.48552e-05
2.14875e-05
2.88434e-05
0.00650012
3.83932e-06
0.361269
1.84648e-06
5.71561
7.63714e-06
0.00023077
5.0818e-06
0.00538802
2.90241e-05
4.32736
6.23206e-05
1.26117e-06
0.140907
4.59541e-05
1.81014e-05
7.09551
4.35204e-05
3.229e-06
4.91975e-06
3.34385e-06
0.000401538
5.10305e-05
6.41142
8.52968e-07
5.73683e-06
1.73596
0.000364129
7.22327
1.21123e-05
0.00195622
0.00582848
0.00221078
8.53174e-06
3.76945
1.63885e-06
8.92942e-06
0.00206078
0.000289162
2.05446e-05
7.7656
6.40691
0.000112097
0.0755881
7.31249
1.90835
7.69333e-05
5.01568e-05
0.00548304
0.286347
3.69716e-06
5.36947e-05
4.32389e-06
0.0560824
5.14029e-05
0.183649
1.89818e-05
1.87057e-05
3.86133e-06
0.00211518
2.03505e-06
0.000138082
0.000259386
0.000421233
0.257929
2.24871e-05
5.89532e-06
0.105262
2.88334e-06
4.30815e-05
0.0377136
6.21648
2.60826e-06
4.37085e-05
0.000302926
0.00011142
4.45432e-06
6.3948
3.06122e-05
5.77339e-05
5.03674e-06
5.79335
1.89898
2.24093e-05
6.99231e-05
4.68017e-06
1.25752e-05
8.36902e-06
7.7521e-06
5.74927
4.95977e-06
6.13928
4.48279e-06
0.0323368
0.00014697
3.68454
0.000184567
2.27357e-05
3.89454e-06
0.000274611
6.59142
0.000269282
5.85274e-06
5.87069
1.45012e-05
3.6982e-06
4.881
2.22899e-05
6.8496e-05
0.000100353
1.27043
7.0935e-06
0.000128917
2.51241e-06
7.46548e-07
3.29061e-06
4.07229e-05
3.11665e-06
1.95742
8.02095e-06
2.05922
0.00814991
7.72962e-07
6.4039
4.24476e-06
0.0814078
0.000395363
0.00128027
0.000795505
5.13806e-06
0.00025406
7.11805e-05
3.18486e-05
0.30294
2.73527e-05
0.00180882
0.292689
9.16423e-07
5.47337e-05
5.69518e-05
0.000121068
0.000397813
2.93268e-05
7.58699
0.000138989
2.5212e-06
0.000103993
0.01018
2.41488e-06
5.98075
3.74458e-06
7.96985e-06
0.0435376
3.1841e-06
8.56347e-06
0.328327
9.79518e-06
6.38843
1.51036e-05
7.83047
3.62884e-06
3.22699e-06
6.85104e-05
3.84276e-06
5.12187e-06
2.15285e-05
0.000167935
6.94636
1.88288e-06
0.000363146
0.000274157
9.93578e-05
0.000426593
2.7276e-05
0.000681951
5.77069e-06
8.65678e-05
0.000693392
0.00176966
3.18553e-06
8.41486
6.12195e-06
0.505729
2.41713e-05
3.48265
0.145385
0.000871892
0.00158451
0.00656654
0.85864
2.69902e-06
1.7394e-05
6.93492e-05
8.68069e-05
0.000368427
7.43094e-05
9.50929e-05
3.34771e-05
6.83185e-05
5.60827e-06
2.38866e-06
0.000182697
0.000172352
6.78229e-06
3.86209e-06
7.0692e-06
0.000661252
5.92592e-05
0.000197266
5.06127
6.74231e-06
4.82502e-07
4.2283e-05
5.63347e-05
7.84467e-05
1.62742e-06
2.38539e-06
0.0908556
1.04865e-05
1.61779
1.88853e-05
3.81339
5.87383e-06
7.06545e-06
5.57148
1.22197e-05
6.73049e-06
2.93319e-06
0.00216597
3.23302e-06
0.0182229
0.000177135
0.000818528
0.0135164
7.3075e-07
5.057e-05
1.09011e-05
0.0011794
5.49577e-06
4.32068e-06
5.69801e-06
0.000575061
2.51968e-05
3.52947e-06
6.124e-06
0.000411668
1.49738e-06
0.000104251
5.43899e-06
3.06593e-06
5.32413
0.0283428
0.0339478
1.18072e-06
0.000217291
7.2981e-07
8.3346e-06
2.41757e-06
0.0700519
2.93155e-06
5.806e-06
0.000191056
0.00659553
3.33303e-06
8.13417e-05
0.000949118
6.09112e-06
5.25994e-07
1.83659e-06
0.000229538
3.32199e-06
0.973502
2.61476e-06
2.57369
0.00284475
0.000152611
9.86329e-05
2.02573e-05
0.000446473
5.04596e-05
0.000308044
2.12784e-05
6.08845
4.17886
0.0154977
1.09549e-05
1.30568e-06
6.40695
0.00115639
4.86721
4.26884
3.10232e-06
3.59486e-06
0.00105931
1.51518
9.00635e-06
9.08637e-06
4.40014e-05
2.93085
7.44973e-06
4.31256e-05
1.04532e-06
0.288975
0.000107676
2.29404e-05
1.35722e-05
1.09991
8.49607e-07
5.86732e-06
0.00146696
8.03072
1.87813e-06
3.28581e-06
0.00235583
0.0339644
7.53884e-06
9.61634e-06
8.22268e-07
5.45607e-06
2.92101e-06
1.12799
0.000282419
2.84594e-06
5.84682e-05
1.38023e-05
0.0063973
4.75909e-05
2.33755e-06
4.70476
6.83069e-05
4.72034e-06
4.97846e-06
2.20435e-06
0.000179698
7.44404e-06
8.44412e-06
0.00193299
1.00238e-05
0.0513476
6.47949e-06
3.05686e-05
9.41518e-06
4.90751e-06
8.74212
0.000492216
1.26764e-05
4.11252e-06
0.0248
6.32736
9.03713e-06
0.0030777
0.00172203
9.44335e-06
9.7554
0.000194844
8.5214
1.89792e-06
1.42369
1.0607e-06
4.67328e-06
4.24343e-05
7.64708
6.82673e-06
0.228889
1.53011e-05
0.00972305
6.02638e-05
1.00159
0.00022959
2.54583e-06
2.29258e-06
2.60348e-05
2.16162e-06
2.53184e-06
3.95393
1.8295e-05
1.79615
0.00251561
0.00200048
0.0020992
1.84467e-05
0.117477
7.92797
3.50865
0.00170871
5.76224e-06
0.000134093
0.59473
0.000590384
1.32524e-06
6.96625e-06
1.43128
7.93874e-06
5.27368e-05
3.89946e-06
9.66203e-06
2.7852e-05
0.000624966
8.22881e-06
9.557e-09
0.00647621
0.000175226
0.000352467
7.28149e-07
0.00267341
7.84536e-06
0.00094339
2.77774e-05
6.62347e-06
3.4322e-06
0.000155098
8.66559
4.35511e-06
4.44872e-06
1.98171e-05
2.66852e-06
2.92244e-05
0.000236481
4.46244e-05
3.93475
1.45215e-06
1.48328e-05
9.17189e-07
5.24368e-06
2.57542e-05
3.10487e-06
2.39169e-05
3.14856e-06
0.0136216
3.52559e-05
1.47907e-05
5.46241e-07
9.33323e-06
5.21716e-06
3.26495e-06
0.0135176
6.079
0.00106686
0.000281531
0.0103738
0.000247813
0.0065472
3.92591e-06
2.21101e-06
0.85469
5.75222e-06
9.29022e-06
0.000709994
1.08728e-05
0.000261665
9.38992
5.92564e-05
7.49026e-05
0.0052995
1.15207e-05
0.00160318
0.001999
0.000564156
2.96616
4.28378e-06
4.19869e-06
0.128507
2.91091e-06
8.06346
0.000415193
4.40512e-06
8.43313
4.95687e-06
3.13725e-06
0.0002895
1.61297e-05
3.81695e-06
0.000432576
0.000209639
0.000247705
0.00239038
2.36018e-07
7.64747e-06
6.05623
1.55124e-05
0.00010749
2.88075e-05
0.00214184
2.59976e-05
0.00515629
1.14799e-05
2.29957e-06
0.429033
6.37538e-06
5.68405e-06
0.00463371
3.48966e-05
1.14938e-05
0.197075
9.03888e-06
0.0140891
1.26423e-05
0.000832754
0.000250046
0.000425516
3.08296e-05
2.06742e-05
0.00680654
5.70947e-06
1.95311e-05
0.000354242
1.78823e-06
1.29724e-05
3.30467e-06
7.5668
2.61747
0.000195099
2.49304e-06
0.000431961
8.26439e-06
4.16628
0.164863
0.00035247
0.000372048
2.92295e-05
3.44059
3.83119
5.42054e-06
3.12407e-05
0.000395565
2.36952e-05
0.000464492
0.0966952
2.7407e-06
0.000934571
9.73144e-06
0.00055954
9.09712e-05
1.33805e-05
0.00219597
5.87992
1.82186e-05
6.24
5.57481e-06
0.0515595
6.73495e-06
4.60204e-05
2.96631e-05
1.18096
0.00227889
0.00257367
7.57253e-07
0.000125055
0.000179442
7.95049
2.42533e-06
1.42534e-05
0.000185057
0.000324126
1.02454e-06
0.00124477
1.00571e-05
0.000241913
7.12696
1.31729e-06
0.000453997
3.87214e-06
5.52023e-06
0.000313538
1.37814
3.69736e-05
0.00315094
4.68598e-06
1.56766e-05
4.46162
9.06673
0.000417102
7.70905e-05
0.00037785
0.363207
8.56432e-05
7.05575e-05
9.92789e-06
3.77151e-06
1.28666
1.84908e-05
2.70862e-05
0.00226399
5.32247e-05
5.64129e-05
5.67163e-05
1.65437e-05
0.00704199
1.57986e-05
4.20701e-06
0.000300782
0.000221052
1.61848e-05
5.02461e-06
0.00233548
0.00034159
1.11705e-06
1.36606e-05
0.00547435
6.68981e-06
6.07577e-05
1.07537e-06
1.86907e-05
5.14984e-06
9.83998e-06
0.00231886
4.14167e-06
5.9535e-05
0.000211082
7.13578e-05
5.92555e-07
3.00966e-05
0.036932
2.4166e-05
4.14696e-06
7.44794e-06
8.00861e-06
5.75472e-06
8.31354e-06
0.0144549
10.1639
0.000343722
0.968666
7.11279e-06
3.15556e-06
4.18392e-06
2.94191e-06
5.4541e-05
2.50183e-06
8.63057e-05
2.32917e-05
2.34168e-06
1.70946e-06
0.00352736
0.000418058
1.32927e-05
0.0020065
1.67919e-05
2.56193e-05
1.04098e-06
0.000102028
0.00110759
0.0095695
0.0068822
0.0237568
2.80289e-06
1.86809e-06
3.35237e-06
3.23371e-05
9.64847e-07
9.03304
1.36855e-06
5.38675e-05
2.84397e-06
0.00069436
3.31365e-05
5.53241
7.46545e-07
4.28151e-06
3.63313e-06
3.77041
0.0121375
0.00141808
7.77406e-05
8.20226e-06
2.61993e-06
2.28277e-05
0.785232
5.49157e-07
6.39756e-06
0.00151538
9.12284e-06
1.46488e-05
2.70581e-06
5.48468e-06
7.543e-05
1.24737e-05
4.82142e-06
5.353e-06
2.05182e-05
2.37896e-05
6.05896e-05
5.88731
5.49557e-06
0.00663685
4.28905e-06
7.45057
3.83956e-06
1.25467e-05
3.6536e-06
4.10925e-06
0.00230627
3.34243e-05
2.20381e-05
4.36194e-06
0.000121298
5.7119e-06
2.98526e-05
2.24719e-05
1.54898
0.0033868
7.55242e-05
5.6327
0.00831666
0.00266311
7.62647
1.68016e-06
3.85315e-06
4.23924e-06
3.91843e-08
1.0222e-05
0.00266596
5.34272e-05
7.27931e-06
0.000200082
4.22586e-06
8.128e-07
0.00130948
4.81801e-06
1.08824e-06
3.86776e-06
5.87182e-05
0.000340813
4.1556
2.61957e-06
0.000629726
0.00601528
8.45874e-05
6.12116e-05
4.1189
6.13045
0.00038764
4.71214e-07
2.63146e-05
2.56836e-07
8.76188e-05
8.34349e-06
0.000914263
0.000232097
9.12222e-06
0.07686
0.000916943
5.03391e-07
3.90497e-06
1.09816e-05
10.2422
0.0238571
4.52572e-06
0.00855237
0.010122
0.000118594
0.00655867
2.56523e-10
3.0345e-06
0.00144719
5.67521e-07
0.000310077
0.0003548
7.63136
0.00795936
2.99563e-06
0.00834106
3.08425e-06
4.45432e-07
0.00136443
4.91897e-05
9.55162e-05
2.72672e-06
8.94138e-06
0.00110712
2.97279e-05
2.68845e-06
9.5781e-06
9.64668e-06
0.000326255
8.71498e-06
1.37103
0.00754634
2.02094e-05
0.00047896
2.17454e-05
0.272836
5.03288e-05
6.00657e-06
1.68054e-05
0.000129283
0.000136725
8.16589e-07
2.3222e-05
8.47549
0.0168688
0.00262867
4.03621e-05
0.000342685
0.000809271
0.0121245
0.0177189
0.00134109
3.7809e-06
1.07866e-05
7.15177
3.97701e-06
3.90713e-06
0.000143581
0.869709
0.223564
7.01136e-06
1.78557e-05
0.103981
4.05212e-06
0.0540182
0.00661016
2.52182e-05
7.24456e-06
0.905215
8.56834e-05
0.0014622
1.10263e-05
1.92184e-06
2.47289e-06
0.000252601
0.00217199
6.24054e-06
4.07428e-06
6.58822e-06
0.00206809
3.22922e-06
0.00121224
0.00075247
2.56762e-06
6.82881e-06
0.00281027
3.51624e-06
0.00011104
4.22615e-06
0.000106747
5.48565e-06
2.29721e-06
0.000808799
2.17461e-05
8.68984e-06
1.04577e-05
0.000484051
0.000108243
5.1808
1.07832e-06
5.36766e-06
7.86006e-06
0.00361266
0.299061
0.0840983
2.69331e-06
0.000372786
0.00678655
5.72773e-08
3.14628e-06
1.15681e-05
5.73305
6.40126e-06
0.330407
3.67776e-05
1.19336e-06
0.00132841
2.15149e-05
0.000484191
0.000923121
0.000292683
1.22905
1.17227
9.88302
3.69957e-06
0.77449
0.00231044
1.27331e-05
0.00536476
7.47975e-06
1.16204e-05
0.0132938
2.77459e-05
4.54094e-05
7.35795e-05
0.0231663
1.16616e-06
1.10389e-06
1.00714
2.64404e-06
5.07365e-05
0.00326314
9.43973e-05
0.00239952
8.87531e-06
0.000240939
5.65286
7.61904
0.00116671
0.000102473
0.0188944
6.52195e-06
3.61432e-06
0.000819962
0.000337533
2.1393e-06
7.79758e-05
3.57988e-06
0.00479336
4.47549e-05
0.00176719
0.00151399
8.93747e-07
9.61514e-06
1.05471e-05
0.000737996
0.00163377
0.00121562
7.20707e-05
4.64709e-05
0.000441073
0.000322806
7.49133e-05
0.000243891
4.80137e-05
2.1379e-06
3.50098e-05
1.83123e-05
2.44972e-06
0.000384204
7.25618
5.06501e-06
0.000794438
1.51008e-05
0.0147523
4.6621e-06
8.90893e-06
3.74927e-06
0.142183
0.000993596
0.000327855
9.51493e-05
5.73221e-06
5.60577e-06
0.0135225
8.94201e-07
0.00280978
0.00147355
1.2038
3.7758e-06
9.37225e-05
0.0152903
3.59818e-05
5.6638e-05
8.74363e-05
1.4341
3.79724e-06
0.000112403
0.0116579
0.00712093
4.24271e-06
7.99457e-05
9.44819e-07
2.26891e-05
5.00984e-06
9.50812e-06
7.01326e-05
5.74326e-06
0.000359943
0.000566328
0.192663
0.157538
9.8835e-06
0.000209074
0.000918258
1.16796e-06
5.19728e-05
1.90532e-05
2.95365e-05
4.04145
3.89105e-05
0.000889851
4.78758e-06
3.29232e-06
0.000141277
3.71732e-06
7.19058e-05
4.84731e-06
0.00646997
0.00947651
1.30167
2.39443e-06
0.00557459
5.79014e-06
0.000185915
2.73317e-05
0.00351513
0.000878674
0.00010741
5.3111
2.45138e-06
8.45013
9.6591e-06
8.90007e-05
7.89431e-05
4.00389e-06
4.07827e-06
0.00205113
0.00716479
3.1353e-06
1.13522e-05
0.0261649
1.64376e-06
7.49666e-06
2.34162e-06
3.72905e-06
1.46805e-05
6.33395
5.55053e-05
8.86122e-06
0.00985111
0.000496779
9.95321
2.75823e-06
1.23863e-05
7.74817e-06
6.25483e-06
7.58197e-05
1.31945e-05
3.56457
7.11569e-06
0.0018475
1.80403e-06
9.45187e-05
0.0013003
0.000981102
1.02142e-05
1.03783e-05
7.80319e-06
6.97425e-05
2.62518e-06
9.21664e-05
3.52691
4.25393e-05
8.90175e-05
5.4256e-06
0.0146616
1.4035
0.00033342
0.00535105
3.95732e-05
9.57826e-05
9.27237
9.40621
2.01277e-05
1.97644e-05
0.00020217
0.00125523
5.18961e-05
0.0400568
2.06917e-05
0.000786395
0.00231449
4.66873e-06
1.0105e-05
4.18047e-05
3.17643e-06
9.15944e-07
2.71122e-06
0.000108958
2.03295e-06
1.07966
5.28464e-06
6.6833e-06
4.874e-06
2.18911e-06
9.01096e-05
1.77177e-06
0.270041
0.00032341
1.9122e-05
3.91632e-05
7.5705e-05
5.46847
2.05095e-06
3.34537e-06
2.27363e-05
9.76583e-05
3.71863e-05
0.000264212
1.91255
4.56263e-06
5.08668e-06
0.000144983
1.24698e-05
5.82296e-05
0.0122097
2.70634e-06
4.73117e-06
8.08938e-07
2.77951e-05
0.000605376
0.00932293
0.00525432
6.6975e-06
0.00024528
8.11792e-07
2.70399
3.3591
1.01273e-05
3.99474e-06
0.0675571
5.90659e-06
5.13005e-06
0.00160787
7.40994e-05
6.39244e-06
4.95784e-06
7.06226e-07
0.00103511
0.000340628
8.91028e-06
1.21181e-06
0.000900307
0.000740184
2.14752e-07
5.67015e-06
8.23519e-06
1.58839e-05
0.000392029
0.000111628
6.80506e-06
0.0129087
2.61546e-05
1.34511e-05
1.13037e-05
7.81483e-05
8.38314e-06
6.09164
0.00190497
1.24608
0.000792826
0.00173036
8.00933e-05
5.53916e-06
1.79484
0.000115047
4.0412e-06
4.79615e-05
5.69687e-06
0.000179888
5.49374e-06
8.2873e-06
2.35455e-06
0.0252818
2.99903e-06
0.000446284
0.0128535
2.92107e-05
0.000261529
0.000230167