/*--------------------------------*- C++ -*----------------------------------*\
  =========                 |
  \\      /  F ield         | OpenFOAM: The Open Source CFD Toolbox
   \\    /   O peration     | Website:  https://openfoam.org
    \\  /    A nd           | Version:  10
     \\/     M anipulation  |
\*---------------------------------------------------------------------------*/
FoamFile
{
    format      ascii;
    class       volScalarField;
    location    "450";
    object      k;
}
// * * * * * * * * * * * * * * * * * * * * * * * * * * * * * * * * * * * * * //

dimensions      [0 2 -2 0 0 0 0];

internalField   nonuniform List<scalar> 
10435
(
0.372757
0.41431
0.398628
0.709251
0.879159
0.713963
0.394339
0.477143
0.521297
0.542519
0.529773
1.06893
0.326389
0.3432
0.334976
0.545477
0.349964
0.339343
0.535296
0.416192
0.491385
0.715276
0.55036
0.941057
0.575376
0.240519
0.359601
0.34803
0.309312
0.440139
0.805027
0.595758
0.482149
0.281199
0.685036
0.309721
0.734451
0.371671
0.185473
0.672092
0.481186
0.42245
0.341331
0.544206
0.756424
0.823657
0.595478
0.348755
0.461711
0.70282
0.513974
0.881976
0.180682
0.258229
0.196748
0.288426
0.849336
0.38281
0.324908
0.777316
0.194304
0.370249
0.371624
0.965736
0.650062
0.422757
0.314112
0.388094
0.460046
1.01613
0.25641
0.312116
0.255246
0.480645
0.325693
0.309563
1.04841
0.39998
0.464927
0.291077
0.886146
0.311671
0.176308
0.259255
0.96891
0.32233
0.356582
0.532643
0.321918
0.385393
0.605138
0.69245
0.344268
0.325626
0.423805
0.293209
0.784127
0.33491
0.322705
0.865354
0.327454
0.822136
0.336674
0.472648
0.830314
0.621953
0.38955
0.795377
1.03021
0.283395
0.610378
0.79119
0.290908
0.282356
0.778839
0.624353
0.943102
0.340918
0.50692
0.953759
0.998741
0.25783
0.367843
0.250926
0.603264
0.217755
0.8782
0.255855
0.931292
0.362782
0.255236
0.538944
0.541
0.300299
0.342866
0.164411
0.251472
0.801984
0.450589
0.542088
0.472441
0.757573
0.307755
1.03364
0.809682
0.331157
0.246224
0.886312
0.362269
1.06524
0.325353
0.866469
0.386961
1.02753
0.772099
0.289944
0.670225
0.404235
0.650955
0.416926
0.960184
0.308053
0.65074
1.04591
0.315967
0.998485
0.524038
0.970583
1.0833
1.02424
0.673002
0.228845
0.326911
0.325484
1.07437
0.36577
0.335416
0.378563
0.524329
0.32891
0.467887
0.790404
1.08177
0.207811
0.864755
0.311029
0.290976
0.42218
0.911051
0.973427
1.04044
0.173468
0.343015
0.266401
0.737069
0.441213
0.350254
0.312772
0.370128
0.634699
0.323391
0.360884
0.34162
0.377371
0.373593
0.767719
0.573986
0.892574
0.366143
0.900813
0.288014
0.47734
1.05302
1.08337
0.352312
0.354556
0.312419
0.210376
0.242036
0.315156
0.30557
0.370095
0.345825
0.302606
0.271741
0.604648
0.208945
0.311921
0.867168
0.301078
0.383352
0.56062
0.223378
0.96399
0.384223
0.355387
0.955797
0.268574
1.02619
0.719322
0.479946
0.242471
0.223998
0.280763
0.709988
0.489727
0.286508
0.428136
0.255846
0.323825
0.250175
0.325612
0.359006
0.983034
0.412325
0.979701
0.227719
0.400592
0.264126
0.353478
0.390059
0.769159
0.23942
1.07254
0.320823
0.36415
0.427708
0.654924
0.193833
0.84655
0.380912
0.433335
0.418853
0.493816
0.264323
1.00651
0.365784
0.805071
0.48061
0.440159
0.43054
0.364211
0.368696
0.318811
0.335783
0.188309
0.917766
0.196752
0.258369
0.30152
0.288699
0.475531
0.350815
0.425833
0.189025
0.254182
0.339419
0.341252
0.728824
0.629215
0.384556
1.06189
0.355716
0.285204
0.661103
0.345722
0.367346
1.03009
0.532414
0.254196
0.450118
0.335775
0.290709
0.912901
0.57642
0.259925
0.217869
0.962072
0.379971
1.03108
0.820552
0.348757
0.356396
0.170591
0.444286
0.372356
0.289538
0.345687
0.357223
0.381029
0.663236
0.301844
0.247809
0.377264
1.0332
0.385203
0.264889
0.261487
0.25226
0.313287
0.310109
0.302333
0.191561
0.328082
0.317282
0.321917
0.381733
0.389631
0.167798
0.451448
0.246067
0.425063
0.349986
0.338475
0.443878
0.433798
0.304957
0.557956
0.270259
0.274518
0.263262
0.221068
0.30096
0.19016
0.340686
0.327966
0.385661
1.09123
0.320466
0.458852
0.207735
0.347754
0.289033
0.417279
0.191812
0.359429
0.373044
0.374487
0.279088
0.262864
0.422482
0.202046
0.455299
0.369733
0.440398
0.442695
0.330649
0.319517
0.441397
0.351738
0.62282
0.293795
0.272924
0.294012
0.263017
0.36102
0.276545
0.298131
0.41066
0.34341
0.361181
0.328638
0.234508
0.450376
0.375055
0.450212
1.06745
0.239572
0.283623
0.389684
0.448872
0.390153
0.301886
0.259606
0.295128
0.373003
0.326555
0.369504
0.258597
0.290162
0.320225
0.271111
0.271369
0.194529
0.170833
0.394755
0.263806
0.0643874
0.0626051
0.0605622
0.0576948
0.0543751
0.0505541
0.0461147
0.0408465
0.0343167
0.0678566
0.0654439
0.0626675
0.0594096
0.0557798
0.0517111
0.0470923
0.041822
0.0357812
0.0703454
0.0673482
0.0639654
0.0602931
0.0563604
0.0520758
0.0473527
0.0421553
0.0365329
0.0721387
0.0686198
0.0647161
0.0606692
0.0564678
0.0520145
0.0472412
0.0421431
0.0368092
0.0734733
0.0695102
0.0651604
0.0607888
0.0563566
0.0517723
0.0469757
0.0419665
0.0368147
0.0745739
0.0702498
0.0655124
0.0608585
0.0562258
0.0515312
0.0467152
0.041773
0.0367594
0.0757068
0.0710499
0.0659559
0.0610465
0.0562315
0.0514327
0.0465888
0.0416922
0.0367969
0.077213
0.0720813
0.0666352
0.0614839
0.0564957
0.0515881
0.0466974
0.0418154
0.0370003
0.0791793
0.0734324
0.0676517
0.0622721
0.057116
0.0520885
0.0471228
0.0422059
0.037391
0.0814572
0.0751171
0.0690734
0.0634917
0.0581742
0.0530142
0.0479438
0.0429405
0.0380394
0.0838062
0.0771046
0.0709464
0.0652108
0.0597453
0.0544445
0.0492463
0.0441227
0.0390968
0.0858698
0.0793704
0.0733199
0.0674988
0.0619056
0.0564627
0.0511248
0.0458667
0.0407188
0.0871224
0.0820208
0.0763008
0.0704538
0.0647457
0.059158
0.0536702
0.0482651
0.0429877
0.0895945
0.0856238
0.0801409
0.074229
0.0683784
0.0626231
0.0569632
0.0513906
0.0459617
0.0946561
0.0907548
0.0851201
0.0789873
0.0729141
0.0669398
0.0610655
0.0552827
0.0496368
0.102778
0.0976519
0.0913673
0.0848098
0.0784069
0.0721464
0.0660093
0.059984
0.0541128
0.113249
0.105993
0.0987289
0.0916138
0.0848032
0.0782035
0.071763
0.0654675
0.0593745
0.123661
0.114824
0.106741
0.0991283
0.0919281
0.0849916
0.07824
0.0716527
0.0652984
0.132588
0.123242
0.114847
0.106995
0.099547
0.0923608
0.0853517
0.0784977
0.0718665
0.139765
0.130888
0.122715
0.114956
0.107484
0.100209
0.0930593
0.0860255
0.079185
0.145777
0.137946
0.130367
0.122983
0.115726
0.108561
0.101437
0.0943491
0.0873926
0.151545
0.144931
0.138112
0.13128
0.124454
0.117619
0.110728
0.103766
0.0968409
0.15815
0.152514
0.146427
0.140241
0.134043
0.127778
0.121377
0.114788
0.108133
0.167006
0.161445
0.15586
0.150377
0.14501
0.139595
0.134012
0.128105
0.121996
0.179781
0.172401
0.167039
0.162367
0.158061
0.153802
0.149444
0.144688
0.139162
0.0675724
0.0666076
0.0665271
0.0673815
0.0691937
0.0719441
0.0755825
0.080029
0.0851931
0.0909724
0.0972691
0.10399
0.111046
0.11836
0.125854
0.133453
0.141048
0.148516
0.155735
0.162577
0.168901
0.174562
0.179387
0.18313
0.185299
0.185724
0.184885
0.182966
0.179903
0.175725
0.170835
0.165372
0.159363
0.15286
0.146
0.138895
0.131648
0.124354
0.117106
0.109993
0.103097
0.0964997
0.0902893
0.0845581
0.0793904
0.0748499
0.0709701
0.0677539
0.065169
0.0631637
0.0616721
0.0606273
0.0599724
0.0596552
0.0596364
0.0598818
0.0603663
0.0610706
0.0619763
0.0717365
0.071286
0.0717321
0.0731293
0.0754708
0.078712
0.0827752
0.0875599
0.0929528
0.0988385
0.105107
0.111663
0.118435
0.125376
0.132466
0.139583
0.146535
0.15311
0.159269
0.164957
0.170105
0.174626
0.178412
0.181322
0.183166
0.183759
0.183034
0.181024
0.177851
0.173722
0.168849
0.163359
0.157334
0.150857
0.144023
0.136934
0.129689
0.122388
0.11513
0.108009
0.101118
0.0945493
0.0883973
0.0827523
0.0776902
0.0732629
0.069492
0.066368
0.0638542
0.0618958
0.0604311
0.059402
0.0587436
0.058397
0.0583172
0.0584739
0.0588451
0.0594164
0.0601755
0.0742563
0.07425
0.0751042
0.0768289
0.0794016
0.082764
0.08683
0.0914961
0.0966519
0.102188
0.108005
0.114012
0.120136
0.126318
0.132508
0.138658
0.144696
0.150533
0.156078
0.161241
0.165927
0.17003
0.173429
0.175978
0.177518
0.177922
0.177136
0.175177
0.172123
0.16811
0.163298
0.157826
0.151808
0.145353
0.13857
0.13157
0.124464
0.117359
0.110358
0.103561
0.0970589
0.0909364
0.0852693
0.0801198
0.0755308
0.0715239
0.0680971
0.0652288
0.0628817
0.06101
0.059565
0.0584983
0.0577631
0.0573181
0.0571295
0.0571715
0.0574244
0.0578745
0.0585034
0.0722052
0.072147
0.0729205
0.0745275
0.0769377
0.0800884
0.0838931
0.0882511
0.0930565
0.0982067
0.103608
0.109177
0.114847
0.120561
0.126268
0.131918
0.137453
0.142806
0.147903
0.152663
0.156991
0.160782
0.163913
0.166252
0.167666
0.168045
0.167325
0.1655
0.162621
0.158791
0.154141
0.148809
0.142928
0.136631
0.130051
0.123314
0.116546
0.109863
0.103369
0.0971583
0.0913058
0.0858712
0.0808965
0.0764058
0.0724067
0.0688916
0.0658421
0.0632315
0.0610284
0.0592002
0.0577145
0.0565585
0.0557105
0.0551449
0.0548375
0.0547682
0.0549202
0.0552812
0.0558335
0.0673856
0.0671837
0.0677573
0.0691097
0.0712164
0.0740246
0.0774599
0.0814345
0.0858544
0.0906263
0.0956627
0.100884
0.106222
0.111614
0.117004
0.12234
0.127565
0.132617
0.137429
0.141922
0.146006
0.149578
0.152524
0.154723
0.156061
0.156441
0.155803
0.154131
0.151456
0.147856
0.143441
0.138345
0.132713
0.126698
0.120451
0.114119
0.107838
0.101729
0.0958919
0.0904018
0.0853087
0.0806381
0.0763952
0.0725694
0.0691403
0.0660828
0.063372
0.0609853
0.0589047
0.0571157
0.0556072
0.0543716
0.053403
0.0526947
0.0522386
0.0520261
0.0520479
0.0522954
0.0527515
0.0607492
0.0603226
0.0606018
0.0615956
0.0632891
0.0656438
0.0686018
0.0720924
0.0760376
0.080358
0.0849753
0.0898164
0.0948128
0.0999007
0.10502
0.110111
0.115114
0.119964
0.124592
0.128918
0.132856
0.136305
0.139158
0.141306
0.142643
0.143084
0.14257
0.141083
0.138645
0.135319
0.131207
0.126441
0.121176
0.115579
0.109816
0.104046
0.0984064
0.0930117
0.0879475
0.0832634
0.0789767
0.0750786
0.0715425
0.0683324
0.0654105
0.0627432
0.0603058
0.0580841
0.0560741
0.05428
0.0527113
0.0513796
0.0502954
0.0494655
0.0488921
0.0485733
0.0485033
0.0486752
0.0490713
0.0531403
0.0525288
0.0525339
0.0531707
0.0544345
0.0563019
0.0587337
0.0616788
0.065078
0.0688681
0.072985
0.0773651
0.0819457
0.086665
0.0914617
0.0962742
0.101038
0.105682
0.110135
0.114314
0.118131
0.121488
0.124284
0.126416
0.127784
0.12831
0.127942
0.126663
0.124491
0.121484
0.117742
0.113397
0.108618
0.103579
0.0984498
0.093391
0.0885295
0.0839618
0.0797525
0.0759175
0.0724414
0.0692868
0.0664049
0.0637458
0.0612638
0.0589236
0.0567065
0.0546084
0.0526403
0.0508235
0.0491851
0.0477535
0.0465546
0.0456076
0.0449235
0.0445052
0.0443489
0.044447
0.0447802
0.0443933
0.0436024
0.0433336
0.043607
0.0444286
0.0457901
0.0476686
0.0500316
0.052838
0.0560403
0.0595917
0.0634364
0.0675205
0.0717877
0.0761819
0.0806473
0.0851194
0.089519
0.0937703
0.0977792
0.101456
0.104704
0.107436
0.109559
0.110965
0.111594
0.111396
0.110362
0.108497
0.105866
0.102575
0.098758
0.0946081
0.0903021
0.0859797
0.081795
0.0778513
0.0742156
0.07093
0.0679654
0.065283
0.0628255
0.0605342
0.0583558
0.0562478
0.0541729
0.0521267
0.0501098
0.0481474
0.0462788
0.0445513
0.0430115
0.0416995
0.0406483
0.039877
0.0393907
0.0391839
0.0392464
0.0395536
0.0338025
0.0328248
0.0322674
0.0321624
0.0325307
0.033375
0.0346839
0.0364262
0.0386089
0.0412298
0.0441946
0.047467
0.0509854
0.054693
0.05858
0.0625909
0.066734
0.0709542
0.075043
0.0788565
0.0823282
0.0853958
0.0880236
0.0901094
0.0915783
0.0923531
0.0923962
0.0916922
0.0902049
0.0879845
0.0852224
0.0820719
0.0787537
0.0754042
0.0721294
0.0689444
0.0659726
0.0634157
0.0611349
0.0590236
0.0570845
0.0552564
0.0534779
0.0516902
0.0498405
0.0479445
0.0459958
0.0440336
0.0420894
0.0401538
0.0382859
0.0365758
0.0351102
0.033944
0.0330904
0.0325663
0.0323639
0.0324653
0.0328262
0.262373
0.240458
0.221853
0.205241
0.190159
0.176449
0.163847
0.151822
0.140209
0.129195
0.119966
0.113074
0.10844
0.105509
0.102947
0.100189
0.0971912
0.0939299
0.0905061
0.0871531
0.0841762
0.0817326
0.0794148
0.0763243
0.071322
0.248352
0.233311
0.217352
0.20169
0.186828
0.17293
0.159923
0.147665
0.136209
0.125841
0.116978
0.109773
0.104098
0.0996282
0.0959271
0.0926981
0.0897931
0.0871453
0.0847539
0.0826634
0.0809302
0.079565
0.0784206
0.0770604
0.0745388
0.244776
0.229066
0.212986
0.197163
0.182001
0.167704
0.154324
0.141887
0.130527
0.120444
0.111776
0.104507
0.0984929
0.0935225
0.0893843
0.0859415
0.0831165
0.0808612
0.0791461
0.0779504
0.077244
0.076962
0.0769389
0.0767993
0.0757834
0.242213
0.224765
0.207759
0.19136
0.175775
0.161148
0.147559
0.13509
0.123861
0.113984
0.105484
0.0982753
0.0922092
0.0871257
0.0829015
0.0794719
0.0768085
0.0748892
0.0736817
0.0731355
0.0731663
0.0736362
0.074288
0.074655
0.0738478
0.239134
0.220125
0.202017
0.18487
0.168796
0.153879
0.140178
0.127753
0.116674
0.106981
0.0986379
0.0915341
0.0855279
0.0804895
0.0763335
0.0730248
0.0705558
0.0689179
0.0680804
0.0679725
0.0684593
0.0693138
0.070163
0.0704584
0.0693535
0.234887
0.21464
0.195499
0.177623
0.161104
0.145975
0.132241
0.119916
0.109011
0.0995089
0.0913397
0.0843852
0.0785121
0.0736088
0.069606
0.0664776
0.0642199
0.0628254
0.0622607
0.0624284
0.0631516
0.0641327
0.0649204
0.0649116
0.0632331
0.229944
0.208408
0.188191
0.169605
0.152709
0.13745
0.123753
0.111574
0.10087
0.0915801
0.0836159
0.0768571
0.071178
0.0664728
0.0626757
0.0597585
0.0577108
0.0565179
0.0561361
0.056442
0.0572214
0.0581209
0.0586611
0.0582199
0.055998
0.22477
0.201366
0.179924
0.160683
0.143523
0.128244
0.114661
0.102673
0.0922017
0.0831521
0.0754264
0.0689103
0.0634874
0.0590368
0.0554876
0.0528025
0.0509563
0.0499225
0.0496413
0.0499665
0.0506501
0.0512844
0.0514176
0.0504222
0.0476001
0.218748
0.193054
0.170385
0.150672
0.133451
0.118309
0.104944
0.0931817
0.0829579
0.0741771
0.0667069
0.060475
0.0553956
0.0512577
0.0479908
0.0455538
0.0438864
0.0429565
0.0426899
0.0429198
0.0433362
0.0435596
0.043074
0.0411927
0.0373917
0.267812
0.274223
0.606839
0.0662309
0.0158881
0.0198082
0.406824
0.0126574
0.738748
0.0225132
3.60668
0.0166844
0.210133
0.0106847
0.609489
0.0187533
3.17822
0.0634987
0.0233099
0.56992
0.0872729
0.0305277
4.73094
0.0417184
0.012701
0.0115879
0.0128496
0.0573015
0.125207
4.23049
0.0286308
0.0113467
1.87401
0.267692
4.62404
0.0122159
0.517093
0.620987
0.625234
0.0264373
2.93229
0.00148754
0.0184631
0.183064
0.0925
0.0543796
4.12624
3.43885
0.14242
0.37345
3.98796
1.73435
0.121869
0.0593307
0.381857
0.659711
0.010254
0.100183
0.0105396
0.50795
0.0203786
0.558011
0.0150941
0.0259481
0.0125321
0.210098
0.0249672
0.0645833
0.221054
0.201419
0.617998
0.0402335
0.0116034
0.553454
0.0115735
0.0859767
0.612046
3.69185
0.00890727
0.0567478
0.24228
0.0344876
0.0125265
3.59578
0.0174145
0.0228685
0.0116686
3.55625
1.98987
0.0505189
0.0502513
0.0373149
0.0267028
0.0174323
0.0116335
3.64119
0.0114007
3.61148
0.00378406
0.476205
0.0402327
2.92111
0.0453824
0.0450432
0.010571
0.0790218
4.54235
0.227543
0.0072583
3.99131
0.026519
0.0106546
3.66494
0.0444137
0.115284
0.137782
1.4042
0.0257059
0.161776
0.00868383
0.000737398
0.010576
0.0407612
0.0123702
2.03479
0.0172101
1.85001
0.229712
0.00809321
3.45464
0.0123114
0.525561
0.201874
0.52233
0.108219
0.0117359
0.0851401
0.0267827
0.0152234
0.745027
0.0432488
0.525178
0.68108
0.000924702
0.120682
0.029444
0.0755708
0.16282
0.0181448
4.71584
0.0557452
0.0121401
0.071898
1.0408
0.0115482
3.46498
0.0113587
0.0245621
1.03374
0.0121344
0.017356
0.696032
0.0180894
3.70181
0.0219982
4.03045
0.0105187
0.0125794
0.0407604
0.0110326
0.0104868
0.0297535
0.0667565
3.76789
0.0329086
0.0812563
0.212501
0.151846
0.257245
0.0430366
0.349237
0.0105839
0.130587
0.32613
0.213738
0.00571482
4.20137
0.00733027
0.785851
0.0143102
2.28475
0.569912
0.319066
0.481524
0.691786
1.12245
0.0114152
0.0292299
0.125428
0.16081
0.261179
0.0603533
0.0306769
0.0159614
0.044166
0.0211565
0.0258718
0.0428846
0.168205
0.0240443
0.0106147
0.0150291
0.35426
0.0422387
0.077997
3.63777
0.0108077
0.00444883
0.0630958
0.0711967
0.0211119
0.00156864
0.0114869
0.411816
0.02529
1.66089
0.0371775
2.92538
0.006763
0.0116771
3.32141
0.0121593
0.0106947
0.00924346
0.599956
0.0230749
0.984868
0.0333333
0.350487
1.01402
0.0277378
0.0206355
0.018247
0.144476
0.011701
0.0114677
0.0128385
0.137848
0.0178394
0.0107911
0.00617569
0.0902833
0.0230288
0.141134
0.00859512
0.0118023
3.86496
0.617162
1.03993
0.0240602
0.068066
0.00826055
0.0114165
0.0115289
0.539093
0.0117754
0.0178977
0.0829239
0.394523
0.0127331
0.111189
0.343129
0.00502451
0.00441063
0.0237266
0.0883837
0.0266506
1.23526
0.010097
1.93464
0.264312
0.060349
0.0584301
0.0530187
0.265414
0.0183386
0.0825784
0.0393478
3.86146
2.57092
0.714607
0.0192509
0.00100329
3.8632
0.502392
3.58482
3.44887
0.0354719
0.0132299
0.360402
1.34292
0.01765
0.0190378
0.0186181
2.61224
0.0167971
0.0842137
0.0275916
0.734269
0.032159
0.0419349
0.0423184
1.32329
0.00801755
0.00459817
0.484625
4.2179
0.0228967
0.0126872
0.794577
0.907086
0.016264
0.0191575
0.0270232
0.0115538
0.0115533
1.27656
0.233357
0.0361761
0.102999
0.0214029
0.670036
0.0166041
0.022658
3.1507
0.0255249
0.0123219
0.0128939
0.00228163
0.0659624
0.0150841
0.017706
0.402366
0.0412708
0.515727
0.0106984
0.0186993
0.00895643
0.0118441
4.31677
0.174694
0.0262223
0.00227683
0.922581
3.86724
0.0230334
0.9509
0.155676
0.0167493
4.57545
0.176412
5.22875
0.00839219
1.51131
0.00113537
0.0119754
0.0316505
4.12687
0.011585
0.553976
0.0465268
1.05316
0.134746
1.24512
0.209954
0.0105869
0.00999643
0.0320569
0.00948716
0.0227314
3.26302
0.024671
1.9156
0.211403
0.174857
0.732707
0.0246185
0.534525
4.4898
2.28742
0.172992
0.0201155
0.0892713
0.9027
0.320256
0.022435
0.0156069
1.63422
0.0232497
0.125715
0.0127335
0.0196766
0.0169306
0.288938
0.0174926
0.000103619
0.495933
0.0940764
0.15452
0.026606
0.433012
0.0114602
0.356955
0.0146515
0.0148484
0.0133865
0.159651
4.30192
0.0141171
0.0353334
0.0254712
0.0107647
0.0507946
0.0496284
0.035163
2.59881
0.00147222
0.0259639
0.0293088
0.0111592
0.0140933
0.0115958
0.0541702
0.00944245
0.612786
0.0279769
0.0271044
0.000436046
0.0091421
0.0141565
0.0122857
1.0447
3.87179
0.131777
0.229803
0.183913
0.0416989
0.321345
0.0105893
0.00854666
1.12461
0.0135019
0.0172544
0.325143
0.0417812
0.19337
4.46568
0.0220197
0.0500518
0.26264
0.0202607
0.207363
0.440615
0.330251
2.14774
0.0126127
0.0105117
0.479293
0.0113319
4.58046
0.126984
0.0123806
5.18894
0.0140865
0.012251
0.236758
0.0526205
0.0119476
0.177392
0.14483
0.0853177
0.619765
0.000538055
0.0168251
3.48513
0.0134953
0.0315485
0.0455786
0.574892
0.041943
0.651418
0.0169155
0.0103097
0.755566
0.0116159
0.0102543
0.61691
0.0151038
0.0241015
0.494283
0.0182668
0.647819
0.0118106
0.108789
0.206087
0.291771
0.0150339
0.0138239
0.484843
0.0123726
0.0270567
0.263833
0.0312169
0.0487558
0.00555924
4.116
2.4211
0.175994
0.0106103
0.0981181
0.0316517
2.57921
0.603305
0.0841122
0.270378
0.0529921
2.3641
3.13792
0.021147
0.0378042
0.0818233
0.0432797
0.106116
0.392262
0.00878435
0.163928
0.0197998
0.284393
0.135818
0.0180348
0.759861
3.96856
0.0294644
4.41427
0.00296168
0.323873
0.0144382
0.0163895
0.0141633
1.37959
0.568303
0.602126
0.00810036
0.150908
0.169497
4.19774
0.011599
0.039755
0.191802
0.209642
0.0305455
0.501221
0.0202531
0.216108
4.51278
0.0225356
0.10165
0.0101588
0.0116455
0.0751679
1.55509
0.0587106
0.544695
0.0103339
0.0138859
3.43461
4.42
0.224288
0.0210529
0.0799525
0.761051
0.131357
0.0568512
0.0323255
0.0122558
1.51296
0.0283972
0.0190032
0.775549
0.0501077
0.0326251
0.026274
0.0247221
0.906082
0.0425966
0.0101681
0.241359
0.186028
0.0138041
0.0100961
0.406881
0.0502375
0.00126547
0.0242642
0.206745
0.00920402
0.0206418
0.0235139
0.0360712
0.0127538
0.0193557
0.614552
0.0116261
0.0369952
0.0636989
0.113185
0.00526791
0.0191673
0.285036
0.0323817
0.0130494
0.0160807
0.0395992
0.0155208
0.0173447
0.451522
4.67369
0.052017
1.23913
0.0153207
0.01224
0.0125348
0.00371944
0.0294358
0.00832915
0.119894
0.0396553
0.0112597
0.0108869
0.6078
0.0981236
0.0121345
0.198632
0.0275866
0.0181513
0.00540254
0.0538323
0.16195
0.440801
0.87419
0.966124
0.00518346
0.0223907
0.00191117
0.0563583
0.023714
4.4123
0.0265977
0.0856328
0.00915197
0.257662
0.0506829
3.42399
0.000698737
0.0126402
0.012179
3.19292
0.327704
0.161112
0.123985
0.0170917
0.0237734
0.0155257
0.92145
0.000815555
0.0144807
0.53812
0.0117496
0.0474777
0.0228721
0.00464077
0.117519
0.0220555
0.0126165
0.0168699
0.0133565
0.0299327
0.124779
4.26806
0.0119661
0.540037
0.0135715
4.43794
0.012091
0.0402678
0.0107821
0.0103484
0.789266
0.0149919
0.0293139
0.0105707
0.0613699
0.00927604
0.0476623
0.0433591
1.42569
0.546311
0.0417749
3.20469
0.652121
0.560932
4.8017
0.02323
0.0116099
0.0128914
0.000229993
0.0154511
0.247157
0.0252066
0.0114304
0.198155
0.0306044
0.0289672
0.171114
0.0120492
0.0289524
0.012322
0.0381344
0.258399
3.41098
0.0220856
0.291347
0.322368
0.143953
0.0897034
3.26168
3.83663
0.0985106
0.0043621
0.0164982
0.000473019
0.0551977
0.0162825
0.431151
0.226417
0.0379769
0.996659
0.132183
0.0050361
0.0125253
0.0117021
4.69516
0.242708
0.0122761
0.403305
1.15535
0.150735
0.341148
1.36139e-05
0.010138
0.189741
0.000893925
0.256326
0.170816
4.90364
0.949577
0.0113102
0.979348
0.00714632
0.000870786
0.165734
0.0294122
0.0316416
0.0109579
0.018638
0.134751
0.016899
0.00878612
0.0186719
0.0137959
0.0786575
0.0232358
1.25869
0.631927
0.0304554
0.157284
0.0288158
0.720759
0.0247729
0.0359061
0.0463041
0.131975
0.062042
0.00118469
0.0429194
4.26445
0.217416
0.382041
0.0168835
0.17461
0.405378
1.1617
0.218465
0.506936
0.0113571
0.0430192
4.75225
0.00314171
0.0128658
0.0682328
1.13668
0.598734
0.0112268
0.0134057
0.381934
0.0126766
0.328716
0.410189
0.0429414
0.0109106
1.1878
0.15244
0.58436
0.0192194
0.00894204
0.00308199
0.159968
0.535805
0.0138386
0.0132035
0.0102053
0.35227
0.0106452
0.145155
0.383763
0.0223737
0.0147513
0.126605
0.0223815
0.134946
0.0102485
0.119176
0.0214729
0.0108835
0.40314
0.0384658
0.039194
0.0233244
0.105772
0.131448
3.31912
0.00524747
0.0193984
0.0155495
0.55488
0.741829
0.39659
0.00733777
0.264415
0.644936
0.000142069
0.0112073
0.0108728
3.36318
0.0218999
0.799797
0.0245494
0.0010883
0.386323
0.0148383
0.0906985
0.12818
0.147418
1.18226
1.23264
4.61157
0.0222548
1.0712
0.508859
0.0451968
0.395512
0.011388
0.0109556
0.329372
0.0140021
0.0661607
0.0935278
0.239946
0.00876312
0.00787526
1.27677
0.0106562
0.0201091
0.577557
0.155608
0.796376
0.0352821
0.0768503
3.1889
4.87438
0.510095
0.131884
0.41548
0.0160084
0.00597061
0.135189
0.228722
0.0243799
0.0619816
0.0134524
0.395357
0.0280495
0.263674
0.600984
0.000908705
0.0106663
0.035811
0.334036
0.620445
0.312119
0.12575
0.0557379
0.0596587
0.0877526
0.0672963
0.231042
0.0951069
0.00899102
0.0154882
0.0123479
0.00512759
0.190782
4.41643
0.0078476
0.330836
0.0483183
0.962511
0.031082
0.0117826
0.012656
0.452945
0.260271
0.0492966
0.118371
0.0123599
0.00777749
0.679577
0.030109
0.896251
0.572228
1.41924
0.0103073
0.0591532
0.682094
0.0190682
0.0459102
0.0296231
1.59814
0.0278435
0.0335511
0.890669
0.533176
0.0104822
0.0611076
0.0268556
0.04006
0.0103832
0.00936171
0.108602
0.00775516
0.0857858
0.294991
0.639559
0.468144
0.0188384
0.0670614
0.167271
0.00792462
0.119761
0.0153091
0.0145975
3.22612
0.0236596
0.121298
0.0143786
0.0124893
0.156269
0.0232878
0.0562781
0.00495553
0.359487
0.43341
1.43847
0.0114751
0.527987
0.012298
0.0693746
0.0195589
0.399433
0.373681
0.0567176
3.6954
0.00932544
4.26378
0.0113848
0.136759
0.0349299
0.0129752
0.0266117
0.285983
0.646507
0.00857208
0.0345823
0.394157
0.00822748
0.0385212
0.0111782
0.00395624
0.0194748
3.47327
0.0365539
0.0146513
1.14584
0.0924657
4.63035
0.00481997
0.0413774
0.0108732
0.0185698
0.0518704
0.0112598
3.07966
0.0200868
0.167139
0.00862799
0.0673464
0.153608
0.348864
0.0191643
0.0308677
0.0385951
0.0475518
0.0103921
0.0649323
2.32355
0.0563322
0.101073
0.0119769
0.71341
1.58264
0.0716014
0.286244
0.021039
0.154851
5.48758
4.4955
0.0132145
0.0128229
0.0646368
0.296336
0.0580947
0.292264
0.0368878
0.110514
0.470986
0.0112251
0.0278391
0.0219886
0.0226669
0.0293319
0.0120543
0.166437
0.022192
1.33065
0.0221377
0.0111921
0.00734332
0.0226393
0.128154
0.00825061
0.721858
0.232058
0.0143747
0.0329623
0.130144
3.35647
0.00901241
0.0115493
0.0416495
0.0675451
0.0533981
0.071392
1.56837
0.0111291
0.0229578
0.169617
0.011992
0.0398886
0.717903
0.00871665
0.0119043
0.00115722
0.0137407
0.314338
0.181268
0.495056
0.025229
0.0632925
0.0297934
2.42486
2.77239
0.0172448
0.022284
1.02186
0.0210185
0.0104064
0.615007
0.143457
0.016156
0.0233736
0.00611438
0.122237
0.264586
0.017966
0.0090143
0.437269
0.318299
0.000567069
0.010023
0.0167795
0.0483714
0.081844
0.148081
0.0124889
1.13231
0.0139422
0.0442053
0.0122192
0.116726
0.0106086
4.04832
0.461099
1.44598
0.40898
0.640566
0.0664012
0.0120959
1.76729
0.142317
0.0122759
0.044628
0.00889411
0.0561739
0.0130579
0.0114493
0.00938031
0.392996
0.0111566
0.0808866
0.679319
0.0142351
0.0762139
0.0716623
4.50255
0.00460803
3.90383
3.58283
0.0187181
0.00954218
0.0687183
0.0605227
0.0613318
0.443851
0.22102
0.0450386
0.0107763
0.0231713
0.326978
2.5724
0.0263588
0.0423781
0.0111094
0.00781889
0.028657
0.088377
0.0223686
0.0224017
0.0127541
0.171175
0.0264077
0.0584349
1.92811
0.0145012
0.103384
0.0518171
0.119385
0.0831313
0.0594305
0.168804
0.0188441
0.107451
0.265125
0.0136218
0.176336
0.624223
0.0158504
0.0360655
0.0458073
0.51936
0.01283
0.221167
0.0319817
0.69648
0.332144
0.255546
0.154645
0.0211774
0.026336
0.410848
0.423145
0.0337348
0.0405241
0.00983916
5.21682
0.0460132
0.0601123
0.00584055
0.0514659
0.127422
0.00742382
0.0111083
0.00818399
0.342553
0.355757
0.022568
0.052798
0.0252189
0.0113173
0.0125582
0.570645
0.0489541
0.164542
1.01884
0.150552
0.000452307
0.601982
0.139144
0.694278
0.175443
0.0119205
0.437763
1.44483
0.436231
0.00343399
0.219276
0.0181631
0.862766
0.04069
0.0242903
0.226646
0.53796
3.0448
0.314184
0.0711784
0.0165211
0.376009
0.275573
0.0371393
1.57609
0.047796
0.666532
0.0270813
0.268817
0.0422447
0.010511
0.0125832
0.369668
0.0102997
0.0174581
0.752197
0.00939742
0.132445
0.00627746
0.02493
0.983174
0.347958
0.0460517
0.139747
0.683122
0.0524631
0.148401
0.0440805
0.0366747
0.104071
0.014598
0.256325
0.292545
0.00436315
3.40538
0.0342494
0.099652
0.0406909
0.0435978
0.0100506
0.0882864
0.217697
0.517143
0.00834811
2.36238
0.0185798
0.14733
3.18231
0.0468928
0.0435669
0.667789
0.0292933
0.0161211
0.000404981
0.917724
0.666827
0.0155021
1.70914
0.0612482
0.0128832
0.416373
0.0249502
0.0157763
0.24648
0.0476643
0.0100785
0.0278536
0.0107769
0.0304687
0.050492
0.433153
0.244523
0.0557412
0.0234007
0.00886285
0.266346
2.86934
0.0117224
0.00843443
0.0714141
1.91536
0.0086889
0.284447
0.237752
0.012748
0.129528
1.95388
0.0113284
0.0735986
0.0192811
0.0475961
0.0121855
0.0140694
0.0389659
0.102378
0.252385
0.00386164
1.37556
0.0113981
3.53252
0.0268683
0.395842
0.0536619
0.765299
0.157915
0.0220618
0.0608138
0.0497075
0.0357222
0.0323878
0.242025
0.298128
0.0354038
0.0204196
0.0746437
0.0401985
0.0167234
0.00600623
3.76943
0.441391
0.270703
1.65528
0.0468703
0.0126103
0.296193
0.0421679
0.144651
0.00438828
0.0370686
0.0105019
0.0329492
0.0127355
0.031212
0.0180276
0.0301379
2.84837
0.274036
0.0258372
0.0864121
0.140553
0.646706
0.0131682
1.99894
0.238683
0.494551
0.0409667
0.29774
0.0121416
0.0500506
0.042562
0.035177
0.0255168
0.573374
1.73922
0.0467086
0.069164
0.764387
0.0722316
0.210685
3.57575
0.029346
0.00820383
0.0248813
0.0630303
0.318677
0.0119162
0.191971
0.250489
0.0356981
0.0213785
0.0408267
0.14982
0.0470949
0.00946977
0.0293966
0.0124958
0.046572
0.161749
0.0489812
1.28685
0.0244713
0.0198831
0.0523795
0.0171298
0.0146569
0.534877
0.220355
0.0150479
0.261648
0.0219448
0.58146
0.0397958
0.0510528
0.0113374
0.0121658
0.277073
0.0292566
0.0347559
0.243747
0.520542
0.0263
0.0234889
0.0205183
0.0429264
0.543523
0.00661389
0.0171264
2.01526
0.0174616
0.0217932
0.0385326
0.804961
0.0169133
0.278949
0.160887
0.00907705
0.166188
0.038111
0.00465153
3.16545
0.0700195
0.0227861
1.6241e-05
0.129578
0.0261158
0.056779
0.0115733
0.608655
3.30793
0.016099
0.00913193
0.309231
0.0382977
0.193022
0.435425
0.0273215
0.167711
2.90538
0.0245912
0.294803
0.0299851
0.0236714
0.0484439
0.0114949
0.368561
0.239144
0.0264902
0.0230544
0.934071
0.0254469
0.0478609
0.0220936
0.163616
0.455689
0.0129142
0.0132179
0.0227755
0.0158139
0.0129018
0.000788054
0.013821
0.050525
2.72348
0.140197
0.0163769
0.501589
0.0349082
0.297882
3.07924
0.784449
0.400408
0.013929
5.37585e-05
0.140679
0.0511051
0.0224307
0.151158
0.0188632
0.171658
0.227366
0.174946
0.0415593
4.66046
0.0122006
0.39228
0.0144709
0.0111105
0.248997
0.0920252
0.28667
0.020804
0.0101306
0.00810568
0.0423251
0.681641
0.204954
0.0337149
0.302579
0.132308
0.218303
0.0105769
2.94847
0.0269701
0.0209937
0.0920607
0.0282632
0.107891
0.429248
0.139764
0.0118695
0.368185
1.03955
0.0313009
0.713472
0.114119
0.00383843
0.103996
0.426151
0.0275767
0.010569
0.0134407
1.33133
0.0187366
0.00780095
0.909224
0.139823
0.0268019
3.12881
0.285125
0.075525
0.0600635
0.434436
0.0220523
0.12206
0.0103527
0.0280436
0.0118985
2.9969
0.031218
0.283979
0.245672
0.0125111
0.196122
1.78748
0.0338393
3.45402
0.00900427
0.107905
0.0427547
0.0110382
0.0273547
0.0232463
0.00877737
0.0388781
0.0213646
0.0160167
0.0124124
0.18397
0.138909
0.0136211
0.10027
0.0128357
0.0121693
0.0113097
0.0249025
0.022398
0.802572
0.00665484
0.672993
0.226223
0.714411
0.69049
0.025192
0.0381321
3.96522
0.0113673
0.155059
0.025974
0.0132103
0.0556574
3.89588
0.0277617
0.0188361
0.0126465
0.0557373
0.0154735
0.66113
0.100416
0.435085
0.601607
0.0121758
0.0124656
0.0920629
0.0281109
0.0309985
0.00905375
0.0312574
0.0120693
0.0256665
0.0410348
0.00736181
0.319986
0.313011
0.552284
0.021311
0.0231671
0.24222
0.46646
0.223367
0.0119995
0.0150993
0.149389
0.00849418
0.0131473
0.0168721
0.345632
0.156698
0.0112782
0.015793
0.0259
0.0105974
0.231268
0.0173295
0.0282888
0.0282972
0.031025
0.248105
0.0241495
1.00831
0.0120362
0.0186315
0.0142366
0.008327
0.376891
0.0454878
0.0106234
2.01961
0.163556
0.0653498
0.00444203
0.0165514
0.49766
2.79189
3.10515
0.0111017
0.346035
0.023135
0.024579
2.95154
0.233098
0.0124463
0.00338617