/*--------------------------------*- C++ -*----------------------------------*\
  =========                 |
  \\      /  F ield         | OpenFOAM: The Open Source CFD Toolbox
   \\    /   O peration     | Website:  https://openfoam.org
    \\  /    A nd           | Version:  10
     \\/     M anipulation  |
\*---------------------------------------------------------------------------*/
FoamFile
{
    format      ascii;
    class       volScalarField;
    location    "450";
    object      nut;
}
// * * * * * * * * * * * * * * * * * * * * * * * * * * * * * * * * * * * * * //

dimensions      [0 2 -1 0 0 0 0];

internalField   nonuniform List<scalar> 
10435
(
9.88531
13.1962
20.7183
22.3112
25.8142
22.9772
20.9814
20.8929
20.1397
20.7764
18.2097
28.4003
20.353
2.1507
2.13676
21.293
2.22433
18.788
19.7567
12.8746
21.0023
22.4084
21.341
25.5558
21.4036
4.96189
3.79815
20.9288
3.23927
19.5048
24.4882
20.2189
20.7375
2.83294
22.3256
5.32301
23.0974
3.95203
7.29541
21.5373
19.836
20.749
2.52525
17.9458
23.603
23.7175
21.273
2.97229
19.6022
22.3102
21.0145
25.522
6.785
3.27797
6.53333
3.16774
24.3975
3.75172
2.33134
23.2136
6.00042
10.3473
3.54376
26.8775
22.352
20.466
2.46576
3.20648
20.9673
26.8637
3.34669
4.29127
2.2231
20.7485
2.24758
2.17646
27.5222
21.07
20.5531
2.12396
25.5749
7.17062
6.20482
3.1912
26.6965
4.23893
6.56665
17.5039
2.70277
9.16355
19.8207
22.0536
10.0535
3.33329
12.0568
3.7209
24.0352
2.24418
2.18098
25.6389
2.40746
24.9995
4.58113
14.9018
25.1311
20.2239
13.0051
24.103
27.4371
2.49477
20.3102
24.4546
4.83682
3.31587
24.161
20.374
26.8775
6.04489
16.8062
26.9832
27.7184
1.99549
8.47935
2.00605
20.8087
5.25577
25.7212
1.91044
26.6088
4.38145
1.89442
19.0608
21.228
1.99345
4.17331
3.97142
3.12837
24.1873
14.1638
18.1552
15.6739
23.786
2.62896
27.8467
24.232
2.15375
2.35919
25.6519
2.31025
28.2886
3.22032
24.964
9.60888
27.6895
23.8681
3.72049
22.3034
11.3046
22.1721
14.7081
26.4891
1.99057
21.341
27.8255
2.58798
27.559
20.7295
27.0432
28.2261
27.7267
22.6597
2.39388
3.42605
2.18239
28.253
12.0513
7.59554
2.68682
18.138
3.22667
15.8599
24.2232
28.5137
5.24045
25.1806
2.62953
2.23333
20.991
26.2691
26.8985
28.2045
5.5514
4.39191
4.51105
23.5417
20.9824
2.3099
3.11532
2.81381
22.0615
2.67561
3.72511
20.6596
3.68503
20.5831
24.0772
19.1552
25.7983
3.36493
25.7757
3.12337
20.8248
28.2088
28.3307
3.62352
2.22293
3.37437
3.94968
4.98999
2.05691
3.13998
2.53361
2.87938
2.13737
4.24833
21.6455
5.85473
2.53716
25.319
2.07293
2.84495
21.1449
5.33075
26.2928
4.26652
2.34509
25.8504
4.5248
27.081
23.3483
15.4031
4.44953
3.41405
3.20454
22.8482
20.3465
2.75959
21.0934
2.77334
9.24129
2.98034
3.40158
19.7125
26.9852
21.1313
27.2193
2.58471
21.1535
3.49985
3.45231
21.1605
23.9609
4.77647
27.937
4.81331
2.60421
12.5627
22.4985
4.94024
25.3511
21.1452
21.0479
21.1479
20.5767
4.80741
27.7886
4.18648
24.6624
20.9408
20.9197
19.8935
2.49105
21.1756
2.30194
4.74908
4.06223
26.3663
6.50854
3.08981
3.0047
2.2661
17.0364
3.18027
21.1173
7.52831
3.3533
2.19582
7.04717
23.3653
22.1841
3.03657
27.7801
21.2421
2.99183
21.9148
2.18989
2.42699
27.3393
21.1069
2.97848
15.7355
3.88402
6.59792
26.1791
20.8384
3.25246
4.59489
26.668
2.9878
27.9069
24.8333
3.45307
6.87114
4.9539
20.7377
20.2336
4.75758
21.2538
2.7486
3.99964
21.6801
2.79527
2.8681
21.0115
27.5983
3.52975
3.14007
2.90167
2.67318
3.27577
4.65998
4.04385
5.59351
3.45421
3.30672
3.5765
3.31883
4.30891
4.41828
20.4078
2.76286
20.2216
3.71483
21.1604
20.5221
19.4247
20.8932
21.4125
3.245
2.9908
2.98773
5.36257
3.1777
4.50104
3.475
4.54327
3.43923
28.487
4.45343
20.0715
5.89092
4.49152
20.8692
18.9012
3.57844
3.8812
3.72312
4.04999
3.10541
4.7458
4.65016
5.96963
20.7552
3.10752
21.024
20.2325
21.0141
20.8896
19.8897
21.1094
21.5207
2.03023
2.74727
3.20421
3.26473
21.114
3.19189
20.4628
4.57672
3.34856
4.42429
2.98442
3.98569
20.851
3.92658
20.9114
27.9864
2.98456
4.66315
4.41815
18.9102
4.58854
4.56701
4.04219
3.16394
3.24493
3.35219
20.8643
3.34115
4.47982
3.29482
2.55115
20.0477
2.82157
3.46998
18.2819
2.87353
126.999
123.618
117.555
109.986
101.49
92.434
83.093
73.8063
65.0107
133.917
131.115
125.877
119.07
111.254
102.833
94.1649
85.6972
78.1037
138.626
136.324
131.867
125.882
118.86
111.201
103.31
95.6925
89.0859
140.747
138.894
135.184
130.066
123.925
117.133
110.107
103.383
97.7316
139.938
138.488
135.475
131.216
125.988
120.116
114.006
108.216
103.607
135.997
134.9
132.494
129.019
124.658
119.685
114.483
109.611
105.992
128.994
128.182
126.25
123.414
119.795
115.625
111.251
107.209
104.383
119.414
118.747
117.112
114.721
111.662
108.134
104.451
101.106
98.8895
108.049
107.343
105.81
103.656
100.959
97.8911
94.731
91.9367
90.2533
95.7731
94.8736
93.2834
91.2098
88.7186
85.9519
83.1529
80.7403
79.4459
83.3197
82.1708
80.476
78.4251
76.067
73.5082
70.953
68.7627
67.5825
71.1529
69.865
68.1689
66.199
63.9883
61.6174
59.2583
57.2127
56.0133
59.4197
58.4071
56.9393
55.1756
53.1711
51.0095
48.8474
46.9374
45.7009
48.779
48.2872
47.2111
45.7355
43.9726
42.0338
40.0751
38.3132
37.0753
40.0391
39.962
39.2263
38.0044
36.4547
34.7156
32.9441
31.3312
30.1522
33.505
33.5399
32.9516
31.8674
30.4558
28.8638
27.2413
25.7514
24.6027
28.834
28.7224
28.0973
27.0339
25.6826
24.1825
22.6699
21.2818
20.1723
25.2898
24.9847
24.2469
23.1441
21.808
20.3648
18.9351
17.636
16.5964
22.271
21.8432
21.0136
19.8743
18.5501
17.1569
15.8009
14.5803
13.5989
19.4722
19.0037
18.141
17.0042
15.717
14.3898
13.1162
11.9768
11.0465
16.8072
16.3558
15.5169
14.428
13.213
11.9777
10.806
9.76472
8.91353
14.3129
13.9093
13.1326
12.1266
11.0139
9.89526
8.84428
7.91442
7.14957
12.0787
11.7292
11.0293
10.124
9.13216
8.14694
7.22977
6.42033
5.74796
10.2042
9.8828
9.24968
8.44727
7.58212
6.73746
5.95908
5.27205
4.69454
8.77873
8.40903
7.81551
7.11005
6.3658
5.65881
5.01621
4.44545
3.96046
1.80677
1.80961
1.83775
1.89428
1.98189
2.10252
2.25754
2.44771
2.6736
2.93551
3.23379
3.56873
3.94036
4.34863
4.79277
5.27153
5.78279
6.32352
6.88991
7.47722
8.07952
8.69014
9.30173
9.9065
10.497
11.0712
11.632
12.179
12.7104
13.2283
13.7385
14.2429
14.7435
15.2458
15.7589
16.2951
16.8707
17.5073
18.2343
19.091
20.1296
21.4205
23.055
25.1494
27.8438
31.2951
35.6609
41.0743
47.6049
55.2266
63.788
73.0095
82.5068
91.8264
100.513
108.153
114.431
119.13
122.203
1.76811
1.77187
1.79996
1.85538
1.94053
2.05722
2.20674
2.38993
2.60745
2.8599
3.14791
3.47213
3.83309
4.23103
4.66552
5.1349
5.6366
6.16754
6.72486
7.30441
7.90093
8.50823
9.11953
9.72791
10.327
10.9123
11.4815
12.0345
12.5728
13.0999
13.6194
14.1344
14.6488
15.1689
15.7042
16.2674
16.8756
17.5516
18.3253
19.2362
20.3364
21.6935
23.3942
25.5453
28.2716
31.708
35.9848
41.2045
47.413
54.573
62.5454
71.0851
79.8575
88.4777
96.5562
103.738
109.736
114.34
117.474
1.71365
1.71877
1.74714
1.80123
1.88311
1.99437
2.13615
2.30936
2.51476
2.75316
3.02544
3.33246
3.67505
4.0537
4.46844
4.91856
5.4024
5.91744
6.46035
7.02697
7.61217
8.21002
8.814
9.41748
10.0144
10.6
11.1718
11.729
12.2729
12.8064
13.3335
13.8591
14.3894
14.9327
15.5006
16.1082
16.7748
17.5254
18.3915
19.4132
20.6405
22.1352
23.9717
26.2365
29.0246
32.4323
36.5466
41.4298
47.1024
53.527
60.5955
68.1262
75.8718
83.5396
90.8189
97.4099
103.051
107.536
110.76
1.63618
1.64218
1.67009
1.72213
1.80015
1.90557
2.03948
2.20272
2.39613
2.62056
2.87694
3.16627
3.48947
3.84725
4.23995
4.66724
5.128
5.62021
6.14094
6.6863
7.25151
7.831
8.4187
9.00846
9.59458
10.1725
10.7393
11.294
11.8376
12.3732
12.9055
13.4412
13.9889
14.5599
15.1687
15.8335
16.5766
17.4248
18.4102
19.5704
20.9482
22.5925
24.5565
26.8972
29.6722
32.9373
36.7406
41.1168
46.0791
51.6095
57.6501
64.0939
70.775
77.4776
83.9528
89.9405
95.1956
99.5087
102.754
1.5371
1.54363
1.57063
1.62015
1.69395
1.79339
1.91952
2.07321
2.25524
2.46645
2.70772
2.98
3.28419
3.62098
3.99081
4.39361
4.82863
5.29426
5.78804
6.30655
6.84553
7.39996
7.96438
8.5332
9.10123
9.66428
10.2195
10.7659
11.3046
11.839
12.3749
12.9208
13.4878
14.0903
14.746
15.476
16.3047
17.2595
18.3696
19.6652
21.1762
22.9312
24.9572
27.2792
29.9218
32.91
36.2695
40.0254
44.1984
48.7969
53.8068
59.1791
64.8192
70.5819
76.2744
81.6721
86.5428
90.6712
93.9087
1.41484
1.42115
1.44643
1.49268
1.56157
1.65442
1.77224
1.91588
2.0861
2.28364
2.50932
2.76399
3.04847
3.36345
3.7093
4.08608
4.49331
4.92975
5.39333
5.8812
6.38965
6.91433
7.45045
7.9931
8.53766
9.0804
9.61879
10.1521
10.6818
11.212
11.7496
12.3048
12.8914
13.5264
14.2299
15.0249
15.9358
16.9867
18.1999
19.5927
21.1765
22.9567
24.9339
27.1075
29.4792
32.0582
34.8631
37.923
41.2739
44.9518
48.9816
53.3626
58.0541
62.9637
67.944
72.8017
77.3176
81.2748
84.5076
1.268
1.27289
1.29528
1.33699
1.39961
1.48444
1.59247
1.7245
1.88123
2.06337
2.27163
2.5068
2.76964
3.06084
3.3809
3.72993
4.10757
4.51292
4.94431
5.39932
5.87484
6.36718
6.87228
7.38594
7.90416
8.4238
8.94275
9.46072
9.97968
10.5045
11.0436
11.609
12.2163
12.8843
13.6342
14.4882
15.467
16.5874
17.8591
19.2822
20.8478
22.5399
24.3403
26.2336
28.213
30.2852
32.4732
34.8159
37.3652
40.1791
43.3113
46.7971
50.6374
54.7827
59.1248
63.4988
67.7009
71.5152
74.7613
1.09126
1.09253
1.10961
1.14426
1.19793
1.27196
1.36733
1.4848
1.62505
1.78876
1.97656
2.18917
2.42736
2.69192
2.98362
3.30293
3.64983
4.02344
4.42219
4.84388
5.28598
5.74559
6.21958
6.70459
7.19726
7.69517
8.19656
8.70152
9.21246
9.73549
10.2807
10.8618
11.4962
12.202
12.9979
13.902
14.9265
16.074
17.3371
18.6966
20.1269
21.5985
23.0856
24.5719
26.0548
27.5473
29.0811
30.7045
32.4819
34.4885
36.8015
39.486
42.5781
46.0663
49.8769
53.8689
57.8483
61.5962
64.915
0.873955
0.867608
0.874943
0.897969
0.938376
0.997267
1.07555
1.17379
1.29334
1.43533
1.59941
1.78614
1.99609
2.23055
2.49135
2.7797
3.09739
3.44351
3.81379
4.20556
4.61757
5.04844
5.49636
5.95943
6.43553
6.92307
7.41984
7.926
8.44463
8.98365
9.55659
10.1789
10.8664
11.6316
12.4836
13.4344
14.4823
15.5961
16.7506
17.9173
19.0644
20.1603
21.1819
22.1283
23.0116
23.8507
24.6858
25.5708
26.5729
27.7741
29.2749
31.1823
33.5805
36.5077
39.9305
43.7348
47.7127
51.6118
55.1812
3.63909
3.54527
3.49834
3.4771
3.47136
3.47458
3.48078
3.48484
3.48478
3.48094
3.47341
3.45441
3.41322
3.34415
3.24492
3.11981
2.97533
2.81734
2.65176
2.48486
2.32354
2.17481
2.0429
1.92858
1.83227
3.42574
3.43329
3.42687
3.42258
3.42394
3.42977
3.43701
3.44284
3.44585
3.44503
3.43676
3.4132
3.36559
3.28887
3.18341
3.05391
2.90654
2.74744
2.58267
2.4183
2.26063
2.11605
1.98977
1.88474
1.80086
3.30422
3.31758
3.322
3.32505
3.33015
3.33758
3.34598
3.35366
3.35916
3.36007
3.35142
3.3258
3.27588
3.19728
3.09013
2.95841
2.80788
2.64589
2.47947
2.31576
2.16171
2.02359
1.90618
1.8121
1.74049
3.19206
3.19528
3.1971
3.19974
3.20469
3.21204
3.22086
3.22976
3.23685
3.23882
3.23019
3.20394
3.1535
3.07483
2.96761
2.83503
2.68268
2.51868
2.35145
2.18959
2.04075
1.91096
1.80374
1.72055
1.65863
3.07615
3.06632
3.05996
3.05755
3.0593
3.0647
3.07265
3.08155
3.08901
3.09114
3.08228
3.05573
3.00534
2.9272
2.82061
2.68803
2.53525
2.37096
2.20497
2.04703
1.90511
1.78433
1.68639
1.61181
1.55624
2.95477
2.93123
2.9146
2.90491
2.90159
2.90354
2.90922
2.9167
2.92313
2.92431
2.91457
2.88745
2.8371
2.75959
2.65396
2.52213
2.37033
2.20765
2.04517
1.8929
1.75866
1.64631
1.55584
1.48638
1.43326
2.82832
2.79125
2.7642
2.74668
2.73748
2.73495
2.73716
2.74188
2.74598
2.74506
2.73354
2.70521
2.65438
2.57717
2.47245
2.34185
2.19215
2.0327
1.87532
1.72988
1.60331
1.4977
1.41229
1.34378
1.28876
2.69566
2.64778
2.61189
2.58718
2.57207
2.56458
2.56249
2.56349
2.56434
2.56038
2.54618
2.51571
2.46343
2.38561
2.28119
2.15173
2.0047
1.84959
1.69821
1.55999
1.44038
1.33956
1.2561
1.18335
1.11972
2.55972
2.50494
2.46226
2.43137
2.41074
2.39836
2.39178
2.38898
2.38673
2.37956
2.36233
2.32882
2.27338
2.19322
2.08745
1.95812
1.81312
1.66219
1.51661
1.38508
1.27118
1.17359
1.08797
1.00399
0.920326
20.7804
20.924
0.145891
5.27403
1.0573
1.2243
2.29157
3.75556
0.135958
24.7042
0.20483
3.28043
17.2208
2.02184
6.20505
1.09053
0.210081
5.82291
38.7749
0.207461
14.9169
4.63359
0.283892
3.59919
4.49628
2.45646
4.444
0.735949
27.6484
0.251228
86.4923
2.01981
0.182073
17.7116
0.26641
1.10882
12.3016
5.95459
15.9141
7.37291
0.205296
0.121518
3.43581
1.46358
2.66308
12.9544
0.197322
0.16612
16.2851
0.166056
0.19574
0.141859
17.3747
6.31642
2.39343
0.136791
2.55952
16.823
2.31213
0.414055
0.727117
0.152595
1.08024
3.23951
3.66059
1.87819
27.5682
2.7186
16.9548
8.66806
0.133265
6.47865
2.05543
0.2619
4.18099
15.4423
0.893951
0.197327
2.73766
6.63095
17.4398
0.960736
3.17044
0.181971
0.891598
0.815244
2.43293
0.19647
0.187661
10.25
3.25025
26.776
5.1032
3.26796
1.57125
0.207547
2.35856
0.191203
0.287481
0.631151
0.991224
0.208428
1.0043
8.03143
2.58235
2.04654
0.281725
17.3046
0.810126
0.244222
4.3647
2.76264
0.247667
7.96471
17.4628
17.0254
0.139685
8.38394
18.271
2.70131
0.0655524
3.05921
3.67196
4.41882
0.19037
3.32339
0.149584
0.582715
7.62651
0.167727
3.21368
0.305368
9.27702
19.1792
1.32497
2.41255
2.56788
0.906967
0.654901
0.164904
6.15447
13.7234
0.142637
0.083975
23.9484
1.37003
4.24543
5.99761
1.01037
0.26381
2.01223
5.26113
4.47376
9.57702
4.97023
0.180671
3.10099
6.81279
2.20901
4.16189
3.16585
0.132799
3.00662
0.193053
2.8836
0.186708
2.7441
4.4133
2.18254
2.8507
1.93242
3.70088
2.3883
0.183942
51.7652
1.63635
14.824
20.8855
13.9612
6.11135
16.0964
1.74706
17.7291
13.8053
2.32336
0.922712
0.188789
0.789938
0.109902
0.762491
0.1349
0.201066
10.5085
13.1699
6.55918
0.132059
4.34515
4.42079
20.4169
26.811
16.6636
4.41165
0.890672
0.684917
2.56969
7.18296
25.2198
0.905971
14.7741
7.67165
2.62566
2.87568
17.0812
2.70962
2.77553
0.235317
1.55919
3.69177
8.4738
8.09816
0.511354
0.136079
4.97836
0.167995
5.48921
0.153463
6.58686
0.201974
0.700808
1.73689
0.178204
1.08893
1.52944
2.62163
14.9564
14.8223
4.7905
0.564539
13.5068
6.84658
94.7585
0.75784
2.74887
1.59284
2.24211
2.73934
2.60346
2.97394
1.13674
2.96937
0.560503
1.78201
31.8752
17.1958
1.22244
4.08894
0.252514
1.20948
2.86707
44.1259
1.91894
8.41492
1.40742
4.94807
0.373379
4.25693
4.96549
3.23922
2.12392
4.37793
13.6789
11.1644
0.37302
3.32861
27.5868
3.06289
19.2423
0.141065
3.50906
0.130885
2.21021
2.14781
3.11526
12.4887
14.2002
0.599834
1.99234
6.54856
0.220414
0.142351
2.96558
3.04467
0.0693832
0.209646
19.6436
0.237627
0.250776
36.5026
4.38198
11.0356
0.107123
3.11303
3.58993
0.709002
0.209545
3.40858
14.8004
65.5458
0.167917
0.864432
6.89911
11.8755
0.143284
6.80938
0.324319
14.409
0.19938
25.1226
4.4089
24.1197
2.1803
3.15786
3.43485
79.9288
2.20197
4.11265
0.130023
17.3536
41.3868
16.3302
2.987
6.316
0.521375
19.7663
0.189898
0.858431
2.89486
3.00549
0.212545
2.17917
2.75088
3.34142
7.53796
15.2931
0.466189
1.58979
1.02948
0.766802
2.57269
0.191842
5.58014
4.88189
0.113447
3.08887
0.212727
5.2836
26.4415
1.26662
2.67369
0.193137
14.3751
0.288754
3.33975
0.144389
0.109376
2.76187
2.12464
0.200442
1.76937
0.12067
12.7328
10.2666
27.1155
0.139309
17.2797
3.96232
3.9229
3.55246
3.74745
18.3678
0.242355
2.99423
0.183869
1.59891
1.37554
23.0171
2.95697
0.21889
0.228842
0.134213
1.57625
6.31991
5.34883
0.123313
15.6352
34.1822
3.14685
0.167933
6.1281
26.9714
3.74226
3.60639
0.926255
12.0226
3.3467
0.101111
3.41796
4.54575
6.09666
87.4944
6.31215
1.50665
12.1556
0.695533
2.99583
4.699
14.7904
0.192207
4.11844
25.2568
2.94646
3.90819
7.94569
0.937362
2.49369
0.154481
0.134332
4.09035
84.2908
2.13735
0.694094
3.89763
11.0423
2.54859
2.48103
1.99806
4.47028
0.0313273
0.80594
3.45716
4.16071
7.26642
0.22194
1.46492
16.8822
0.293446
0.631494
1.41948
2.5706
2.97333
0.13318
2.85231
2.88413
13.401
14.4499
12.8611
0.191142
0.736426
3.01013
1.17147
3.20681
2.41392
8.74071
17.3993
0.139962
3.34217
2.36851
0.160886
3.97028
0.234174
3.49536
3.13162
0.28735
3.60279
4.30563
17.4262
15.4499
3.3658
6.54711
9.00509
2.64476
14.4621
0.110395
3.33151
0.1805
1.05664
0.833358
6.49021
13.8876
6.09015
7.40669
2.24324
4.15992
0.119756
1.90477
1.66492
7.39193
0.588345
4.5485
0.111573
3.3224
2.68082
0.993022
1.27907
15.2871
18.0057
0.659807
0.831901
3.10827
2.41307
3.37337
17.6848
49.0456
16.4921
0.841676
0.201503
0.201553
14.2884
4.06411
2.00584
10.91
0.143703
0.198697
1.8065
17.6843
8.64657
0.146198
0.231309
7.42504
4.11721
1.52328
7.1146
2.18185
0.143215
2.53397
2.58783
3.62568
13.0092
18.2497
2.18773
23.6638
0.241067
4.28865
0.281044
0.141608
0.183097
2.78571
0.525323
0.60863
0.145046
12.755
12.6784
7.79848
16.3895
14.4093
0.199471
4.99247
9.97944
17.8913
12.2035
81.961
18.1641
3.67074
17.375
0.257174
34.6977
2.04836
2.39868
2.21105
1.62187
0.157928
8.39044
8.4744
2.05103
1.10698
0.23796
0.193926
10.8546
0.517445
1.5226
0.143521
18.1324
4.12267
9.47276
3.58435
0.160116
3.92498
1.19991
23.9104
4.24559
1.69812
1.09544
3.32491
10.4926
10.3365
2.21181
17.4309
14.0898
1.05962
1.82579
6.37971
0.664959
0.129026
3.87885
0.70272
1.13968
0.631154
46.274
6.26527
2.84267
3.42662
14.6583
2.9372
2.069
1.73003
16.1577
4.21493
1.09863
0.197988
3.90515
3.69566
3.12476
17.6222
3.76744
3.2568
1.26937
0.193421
0.708476
0.142661
2.97001
4.27299
3.37982
0.423223
1.42978
2.49566
14.9899
6.07636
4.87264
6.24011
9.4257
2.07278
0.996947
1.76971
4.07887
1.15742
2.52346
2.5563
2.13122
1.82742
9.99372
3.53606
0.862732
24.1535
0.0980598
8.8401
52.456
0.193972
46.5232
12.2517
2.65062
8.60511
6.97683
0.190719
0.0588591
3.35858
3.6744
0.243349
0.7963
1.6474
17.7964
3.20537
19.4148
0.950344
0.0973169
0.109007
2.9499
17.198
1.36194
13.849
17.4003
0.353403
16.4785
3.50977
2.97129
4.78488
0.782506
3.38958
23.1276
0.278475
2.34497
3.95484
3.86487
0.237912
3.42678
11.6313
2.86373
2.34547
24.3096
0.60519
3.50925
2.30554
2.79446
1.35577
6.84872
7.52945
0.118099
7.93108
2.07964
0.164096
4.60204
10.6335
0.272088
28.9061
3.14833
3.52823
0.121495
2.10197
2.06223
1.07031
1.61539
17.6622
19.9478
92.9122
2.01241
2.71202
69.3245
3.533
2.22897
17.6322
0.251981
16.7584
12.1314
1.55486
22.0486
11.8312
0.232457
0.216097
2.2531
3.63425
0.930935
0.0784051
3.12959
2.85981
18.2991
19.8788
14.2292
1.16315
1.71494
4.53446
3.6158
1.12228
0.193709
0.222225
2.99695
1.71168
11.8688
17.2427
1.59703
0.065025
3.04832
2.23892
0.126725
19.0704
7.40141
0.283581
10.1959
3.84324
10.3489
1.49024
0.153209
1.81181
1.58279
0.943368
3.96333
3.49653
1.47609
0.864568
2.58426
3.27598
1.77567
1.70673
5.57561
0.104
4.76255
4.13064
4.64851
3.43666
0.171365
1.09743
19.3175
11.4824
12.1251
2.53376
0.154684
7.1392
0.193109
0.252197
4.9972
0.63561
8.00726
18.2755
10.0177
0.242421
17.2461
3.07029
15.4413
0.284202
0.223366
3.81293
2.91831
0.133703
0.144314
1.6179
0.905827
0.12626
3.56915
0.180029
2.29086
6.58083
1.47886
0.140274
24.4088
21.0182
3.01503
3.74453
0.345699
9.11743
11.8959
2.76186
3.85099
1.42274
5.40038
3.1583
1.5643
17.6149
17.5463
2.86788
0.513329
12.8216
14.7599
2.23675
11.9748
7.5648
4.64063
18.0848
6.12364
15.91
4.68195
2.08013
14.3664
0.191378
2.29824
6.30941
2.76854
7.6703
0.165612
0.168321
1.79922
16.8794
5.51604
0.0317144
3.59294
0.919728
0.177565
6.74315
0.174242
1.47482
0.0893247
10.1114
0.921022
1.52907
1.60187
6.6826
0.102353
0.116652
0.193665
12.0487
0.133341
10.0866
14.4386
2.62429
1.56046
0.929594
0.73446
0.635958
8.67554
10.6996
0.223672
5.92654
5.05645
0.145671
3.86529
0.717308
9.20019
23.0858
23.7879
12.6232
2.20611
0.161904
0.280661
20.0717
15.2763
0.822258
3.53639
0.887672
2.00601
13.9489
25.0055
4.43413
4.5496
2.93483
1.58216
3.54075
21.4707
0.0831523
1.06492
10.9431
13.6074
21.206
7.21249
19.747
6.01675
0.726239
2.14695
5.44084
19.6983
16.9551
3.40308
0.616676
0.749357
0.965943
8.52621
0.241923
1.0943
12.3996
13.9145
5.65188
18.65
1.40248
3.84493
0.129863
6.13598
0.667105
13.2535
2.39854
0.971148
3.07371
91.2431
25.7294
19.9993
0.150591
2.53235
3.36012
2.73852
0.909454
3.34929
0.903261
0.160285
18.3748
0.901318
6.12429
3.59292
2.3308
4.20376
68.701
6.36571
1.9368
0.82958
15.1357
0.942467
1.84009
13.829
0.191076
0.125203
3.23163
1.93592
2.74232
4.83917
24.8369
1.10707
0.649292
0.231775
1.29476
1.4881
3.88654
4.26396
15.5566
13.1302
3.96422
0.455954
1.79765
1.78398
0.143069
4.94938
4.50067
2.35085
2.32986
1.25969
4.08498
14.3027
2.69546
0.23141
3.19279
0.193628
1.20769
18.9131
1.39099
3.78435
15.6283
3.58863
5.25031
2.10929
9.48132
0.534396
3.70628
17.8145
4.80252
0.377755
2.32514
0.171414
2.16658
2.18021
11.9952
1.54896
0.193868
0.758056
12.4402
1.37328
4.96183
3.19374
0.864797
0.239464
5.10325
1.36086
3.7138
4.3187
1.63316
11.1646
3.23612
8.26275
17.1805
2.91796
3.70244
4.1171
0.137769
6.71374
10.3285
2.37948
3.12421
0.160618
1.38386
1.37809
1.00668
22.5312
0.29229
0.193368
0.780813
0.748744
1.85988
6.29636
5.85303
0.191918
5.91851
1.39777
8.62591
2.429
6.90262
1.04091
14.5576
84.5387
4.82353
22.8816
21.8026
0.147598
8.34626
1.68684
0.995731
21.0718
16.4036
3.45785
0.173667
14.9859
0.972537
2.49688
20.1356
0.185414
3.56425
3.58849
6.86662
4.20456
6.90099
1.73616
0.115752
2.44313
9.32541
17.8593
1.03792
2.45921
3.799
2.52673
2.69575
0.148991
0.611348
14.6896
0.3172
4.19792
8.55325
1.46989
98.4099
0.195709
0.205934
2.6428
11.1877
1.39109
6.73146
1.89985
21.1715
24.9961
3.67491
9.91751
4.76434
1.29916
18.4968
3.26029
6.03494
19.1139
12.3189
0.134765
1.59458
3.07701
13.2576
1.53779
17.6793
2.06282
8.93911
0.668892
13.0747
1.18878
15.6912
1.20824
0.242136
10.0449
0.151016
18.9876
21.342
4.95449
2.37725
0.156614
15.8446
3.35611
3.73736
1.24972
1.57873
2.79333
1.42359
3.36332
0.549808
3.73533
1.31942
3.23124
0.624344
1.9989
2.00808
0.193437
0.554293
0.227989
0.195877
0.885372
0.862836
2.50785
2.57986
3.45463
5.91995
0.241001
11.5801
4.55986
10.1806
10.5973
0.199191
1.23972
11.4542
3.6173
3.36749
1.07785
1.07631
13.0105
0.812242
2.54041
15.133
3.92873
2.15583
0.161853
1.01464
2.51571
2.59039
1.60301
1.72674
3.99294
18.4573
3.3054
0.759194
13.4369
0.903442
2.63641
5.2325
2.91839
0.95724
12.8043
9.00102
2.512
17.3669
7.20537
3.53794
0.869654
0.543117
17.3926
3.83078
0.839678
0.657047
5.12605
1.72549
5.91219
3.69067
0.283108
14.2115
2.08105
4.23836
8.11717
1.9604
3.59182
2.20683
3.55464
3.29639
0.560157
32.3305
10.7458
73.1698
2.74806
0.773246
18.7455
11.0037
5.40419
0.131249
2.29536
0.106011
3.23907
26.9835
0.177246
20.4617
3.17505
19.5142
0.135269
1.98782
0.428361
13.539
3.42862
0.134222
6.74756
15.6431
17.2198
7.67578
0.166822
17.9981
1.2835
3.02809
1.88894
0.102627
5.53298
0.141906
5.48876
0.18408
7.66892
10.484
2.32028
2.59719
0.962093
0.341868
4.0531
3.50022
0.139412
2.74915
17.6239
1.31573
3.17319
26.8996
1.59598
12.1477
17.2413
5.84462
5.2393
15.1587
5.86557
14.3687
1.67943
2.92063
9.99564
17.1075
3.2007
0.237137
17.9196
15.0287
5.81278
10.3031
1.02396
15.6193
3.03934
9.02264
0.928549
0.140009
3.22918
15.4111
0.193774
1.91646
5.73331
22.0151
4.07184
3.17952
0.0636857
5.1855
0.0860434
0.694792
0.166072
2.08665
0.844436
13.3718
4.1604
3.04697
16.9584
11.7801
2.84974
5.24577
3.27199
3.82587
13.2204
2.53317
6.197
6.49373
7.60536
1.80997
17.2694
0.165693
1.17856
9.15175
1.60748
0.175082
9.30524
11.966
16.7678
3.73513
15.5621
0.165866
1.60372
6.93799
5.52897
6.10219
1.24252
2.86368
1.83453
1.15402
0.298353
0.213314
0.140219
4.91897
0.195986
3.15149
10.5545
2.20796
0.145782
16.3326
0.959843
2.95586
3.59831
5.34328
2.02185
12.5515
13.1534
8.31059
2.77183
1.96783
6.32952
3.12074
1.08574
0.254902
1.45374
0.896186
0.156857
7.36527
3.4912
17.7853
3.54194
18.5935
0.445979
1.0457
2.73927
29.1388
0.867126
40.8567
0.700192
2.20125
0.229178
8.54567
10.521
2.23311
7.9369
0.12896
2.17619
0.181132
19.3137
0.413054
6.00064
0.745211
3.01247
9.69385
5.48905
1.05067
51.7373
19.5698
0.170667
11.2939
1.11216
0.142222
1.78885
5.58347
0.1674
38.0127
4.48087
8.81884
1.35578
18.2435
3.78236
13.1249
2.00961
4.05368
0.643648
4.16614
1.68665
4.28213
1.3114
4.06056
1.17675
7.55692
15.8319
12.391
0.142385
1.094
3.46467
3.30353
0.583295
2.95882
0.119237
2.14904
1.91232
1.21627
18.2411
3.99505
6.11513
5.88918
1.87586
3.12313
11.9537
11.2156
3.84964
2.30965
18.4355
82.5724
9.24835
7.03407
6.36222
2.23036
0.912901
3.04815
0.181536
0.679349
14.5811
6.07521
0.12079
0.592456
3.33683
20.567
6.01224
0.389589
5.73317
0.486903
0.236466
3.84111
22.4714
0.00112912
16.8482
0.987539
5.56132
4.74602
5.54883
0.216728
0.975387
2.47065
13.9067
12.6115
6.16795
18.7509
3.72199
2.10494
0.169435
61.9177
18.046
3.77882
1.53875
7.86411
1.37174
0.805936
14.0905
3.45263
12.9869
0.0962987
4.21115
3.87363
3.41715
1.30482
14.5046
3.66558
1.13027
11.7405
3.11321
3.54158
0.140548
0.59696
10.3293
0.206315
16.8391
0.860478
19.2475
1.69992
5.06191
0.170061
0.159466
7.04179
4.77378
0.0185333
16.1373
8.93294
2.91213
15.6411
1.33508
0.326915
9.11888
18.2187
5.65255
0.193555
3.1762
1.53063
1.06045
3.39393
1.62936
1.447
5.98512
3.53886
3.54676
4.3951
7.06833
7.03291
5.02457
3.62208
18.5605
1.92742
7.08519
2.4289
0.223913
3.91209
7.38247
1.63086
6.61811
15.5215
3.02268
11.3222
2.66743
10.9014
9.03166
5.54752
0.172823
2.79883
0.524585
11.1886
1.75653
77.7888
1.21732
1.09849
0.136924
3.35407
4.12562
7.43792
14.1732
0.504673
0.218728
17.6528
2.9465
1.06544
2.72847
0.744455
10.1567
1.58738
3.4522
2.13605
0.221286
1.29177
11.2444
3.31912
4.63278
1.57497
0.160906
3.96293
0.189996
2.99607
9.18341
3.59466
4.00125
1.21339
13.0008
2.02133
13.5718
5.09777
0.908036
3.42032
15.658
13.0216
0.66785
8.00614
1.13982
0.799984
1.76422
3.07728
1.33228
5.28583
4.19984
22.387
0.5924
3.99169
0.636134
5.15215
5.92604
0.233278
2.7398
1.51221
4.01986
3.52154
5.09888
0.187434
5.78884
6.10117
1.10648
1.44747
0.548898
3.3681
2.01613
16.8974
16.5078
2.06219
3.08526
3.73733
51.139
1.1739
3.1176
0.822734
3.13149
80.223
6.32912
4.03182
2.46884
0.0810624
20.0733
0.609602
14.1204
3.15487
0.68359
13.1035
2.95315
2.36889
1.22731
3.21609
3.92366
0.561909
13.1505
2.00242
1.98577
3.12802
3.59237
2.81001
3.55753
3.12426
3.674
0.799741
27.2279
11.654
5.05269
9.01543
5.11871
0.814679
2.64376
1.0156
5.06136
1.91091
1.31977
0.171248
10.5529
0.955525
4.24773
3.25372
9.0651
0.219777
0.214751
2.653
0.463331
5.48896
20.9781
0.216472
13.5891
4.61147
0.471307
2.41828
2.13702
17.6343
3.73968
11.2246
1.7968
5.11399
4.28359
6.71393
3.32465
6.77496
2.88177
4.69676
18.4691
36.2928
3.3313
1.14066
13.2851
2.9487
1.64202
15.918
3.03468
1.85624
4.79049
3.88933
77.6232
6.01604
4.01323
0.821112
13.4869
6.10719
1.58535
5.44219
4.10279
2.01833
3.63845
4.32158
0.243742
0.949658
5.78313
0.161785
8.84197
0.0738578
4.12052
4.31181
0.157793
4.57296
2.16602
4.35503
20.7984
9.65553
0.81279
3.0659
0.127842
0.10414
3.96358
10.7604
6.11131
6.24191
0.0131493
1.97443
4.33768
19.8846
2.92524
0.455097
1.37216
11.6916
0.189754
0.186683
7.92286
0.153214
3.8756
4.13215
1.99994
1.56757
3.75975
2.71171
3.04231
0.182139
22.436
7.82504
0.200219
2.75075
3.27465
0.979341
2.10042
3.70059
4.66472
2.84921
20.2629
10.5407
4.89012
5.3984
4.36449
2.87734
8.84846
0.173365
2.06689
3.56903
6.74238
1.9764
4.68321
2.72577
0.11644
4.92422
0.163811
2.96769
2.73529
1.94967
0.362553
0.959436
5.62617
3.63042
3.99383
5.16485
9.08825
0.0694813
3.14935
17.9821
0.495283
0.926798
6.19904
5.44597
4.03076
6.28132
4.43567
1.65624
3.72755
16.8692
24.284
3.00529
3.23779
2.43656
10.1718
1.14702
3.63565
1.37551
1.21373
10.3102
12.1941
17.9947
0.695021
15.983
8.10607
0.115095
7.86475
18.7163
7.6408
2.11697
1.04569
2.87808
1.9198
0.90157
4.54226
9.2083
0.131693
0.121593
12.6531
1.8659
0.041678
3.87238
4.69045
3.06889
1.93921
0.199359
5.94078
0.184289
4.12637
0.17925
5.53019
2.92658
2.34974
21.4299
8.32042
3.67864
0.285149
3.59916
3.67201
2.71054
0.192433
8.90259
0.600144
4.51893
5.63377
4.73553
3.13089
1.78304
2.751
0.976987
4.51802
0.19086
5.72992
6.71545
11.6483
3.10064
9.52453
13.0236
0.0510522
1.13298
3.12393
3.48157
0.544733
1.35681
0.563361
1.23613
0.962818
4.33867
3.67981
2.76065
5.74251
4.09791
4.96948
2.46689
0.714054
7.49392
6.56967
14.1558
8.06138
4.34283
0.501028
3.23363
1.29141
2.47161
17.5802
2.91005
97.342
3.62364
7.58233
2.2799
25.0626
0.645135
2.8806
16.2181
0.286026
0.591881
1.52625
3.10416
3.29855
0.172485
0.2533
4.93799
9.92536
8.81602
10.1898
0.135325
5.88056
0.122077
9.31169
2.85698
0.521269
3.49142
0.709538
12.0518
3.92654
4.60414
2.15317
2.92718
0.195118
2.69158
5.06547
0.116001
0.69477
0.937493
8.58894
0.636829
0.138126
0.542925
0.903487
3.81661
1.49235
9.05356
2.14131
4.57193
3.73366
0.115153
7.69007
2.44897
7.28402
1.61549
2.79259
14.9069
6.39628
0.231106
0.610616
9.0396
2.92457
7.60726
1.97037
0.510753
2.93069
1.23016
3.19492
2.68296
5.21335
11.2183
0.708241
2.0683
3.09268
0.248808
1.23774
5.779
18.4628
0.0704607
3.61055
0.782476
2.94281
2.74041
15.6872
0.125234
2.08905
2.60209
0.201424
2.74915
9.3637
9.08837
3.99914
4.38974
10.5284
0.185699
10.2834
15.5473
1.80385
0.186515
5.71431
6.53247
2.78624
3.6356
14.4105
9.1075
0.846969
2.80371
4.85854
0.182009
2.6893
3.64252
1.6481
0.211309
3.05871
0.113829
22.3009
27.2515
6.59833
2.13398
6.58505
0.188503
17.5176
2.4979
0.904565
1.15904
0.197155
0.191656
12.3708
3.77044
1.10968
1.81424
2.88805
6.0892
0.92926
6.13154
1.08993
5.49345
0.196189
19.0903
0.156308
69.6086
1.72605
0.160092
0.840924
11.0962
2.47708
3.37493
1.2299
2.82071
4.88896
3.10015
3.01106
2.71873
1.76698
1.97111
0.17969
10.624
4.89864
2.38356
1.27633
0.181729
16.4952
0.239957
4.17612
3.62558
0.0437025
4.10744
1.39261
4.71991
0.176308
0.972408
4.9309
0.50062
7.95417
13.718
4.23957
11.5188
2.08817
3.5883
1.02103
0.356268
1.39522
0.30007
0.188293
0.64738
2.03885
15.1716
7.64395
1.52998
4.82327
4.19759
3.97033
4.02958
2.31802
3.7146
0.509052
1.42964
3.85285
13.7956
3.65026
0.233987
18.5868
1.86292
17.9478
0.105966
5.64765
0.788944
3.76294
3.67895
3.83104
2.96303
0.149236
0.172789
1.19088
62.5266
2.69265
0.240405
2.01806
0.180427
0.133659
0.156077
0.654561
0.213065
7.48868
0.221308
11.7607
16.997
0.485476
0.159565
1.20111
1.24209
47.5183
0.208105
51.7444
0.186829
2.80177
0.279583
1.14165
1.83775
20.9608
10.0286
26.1703
6.55511
11.1306
31.6218
4.05567
2.52395
2.64743
1.04228
2.76973
3.81428
0.577992
2.19748
5.99082
2.16913
85.4968
2.50972
15.8767
3.31133
17.9745
0.204849
9.11625
3.23206
3.38809
6.85247
10.0708
2.68118
0.129728
8.89983
0.223384
7.29237
67.8972
2.61368
2.65058
3.03729
2.67346
1.24718
3.696
2.06872
0.390277
8.93799
0.595336
21.8008
9.70265
5.88519
4.01319
0.637192
5.81179
8.62445
2.29447
5.6984
0.511856
0.886468
0.212502
9.0747
0.152938
3.63636
1.90145