/*--------------------------------*- C++ -*----------------------------------*\
  =========                 |
  \\      /  F ield         | OpenFOAM: The Open Source CFD Toolbox
   \\    /   O peration     | Website:  https://openfoam.org
    \\  /    A nd           | Version:  10
     \\/     M anipulation  |
\*---------------------------------------------------------------------------*/
FoamFile
{
    format      ascii;
    class       volScalarField;
    location    "450";
    object      p;
}
// * * * * * * * * * * * * * * * * * * * * * * * * * * * * * * * * * * * * * //

dimensions      [0 2 -2 0 0 0 0];

internalField   nonuniform List<scalar> 
10435
(
0.10208
0.504185
-49.4831
-2.0259
-6.09335
-23.0854
-54.3371
-55.1322
-54.7862
-35.0477
-0.45304
-11.6669
-53.7589
-1.24782
-1.29717
-46.87
-1.26331
-42.9295
-54.9606
0.441862
-49.8308
-1.53993
-44.4609
-26.7636
-38.0594
-1.91847
-2.79349
-55.6605
-1.91191
-45.5786
-26.8793
-0.653684
-55.3693
-1.07251
-43.2549
-0.257208
-41.5906
-4.70019
-2.98817
-44.5202
-33.2923
-49.6486
-0.824295
-0.316565
-38.2039
-38.5308
-24.7078
-1.67584
-64.498
-4.54978
-50.5266
-27.4857
-4.52195
-2.22021
-0.648187
-1.76259
-40.0502
-2.17045
-1.37461
-35.4071
-3.05892
0.431172
-1.60231
-8.90508
-41.4082
-47.061
-1.4229
-1.77793
-53.467
-19.2672
-1.15774
-2.70124
-0.347405
-46.8288
-1.42615
-0.532014
-7.01371
-54.788
-58.3794
-1.30026
-7.49723
-0.489966
-3.70542
-1.46747
-9.8784
-0.743402
-0.347856
-0.0326464
-1.05369
0.10966
-0.786828
-1.73985
-0.331323
-1.13498
0.474603
-0.598961
-2.98289
-1.14049
-1.00428
-4.56863
-1.77649
-7.94656
-0.804603
0.405754
-9.46552
-1.08696
-0.498665
-5.47658
-10.5254
-1.25249
-3.02013
-4.80297
-0.840946
-1.21591
1.09746
-0.693237
-5.72151
-0.355278
-0.0210392
-6.41252
-4.33501
-0.560354
0.0799549
-0.688581
-1.84944
-2.29783
-4.90801
-0.593144
-5.69695
-2.36693
-0.555248
-0.870425
-48.5157
-1.2438
-1.85665
0.0649349
-0.524129
-2.64092
0.381634
-0.132628
0.273296
-40.4782
-0.99998
-12.9236
-2.0155
-1.05503
-0.559084
-17.334
-1.15493
-15.8993
-1.37959
-33.4508
0.0599033
-25.3974
-21.3875
-1.12036
-2.83106
0.416606
-28.4235
-0.275391
-29.8215
-1.18956
-0.391472
-7.10778
-1.33681
-11.1036
-54.2702
-6.15851
-23.1559
-21.9622
-30.8846
-0.90931
-3.60882
-1.13991
-16.8793
0.0190132
0.112965
-1.43904
-1.94568
-1.05441
0.177351
-15.8774
-18.6583
-2.87612
-30.8729
-0.632466
-1.3358
-53.0107
-14.8806
-18.3245
-13.0565
-2.78461
-0.306536
-0.345972
-4.11016
-53.5715
-0.970622
-0.999269
-1.39749
-44.0618
-0.913064
-0.221647
-56.4785
-1.21566
-49.8009
-3.16869
-0.804948
-4.55779
-1.9956
-3.69411
-0.724247
-48.4192
-9.87361
-11.1783
-1.30396
-1.17802
-1.32399
-0.683823
-9.20451
-1.19018
-1.09346
-1.75813
-1.01495
-0.869948
-1.77472
-46.5961
-9.61208
-1.09777
-31.1037
-0.809531
-1.3856
-49.6921
-8.66972
-27.7859
-2.30689
-1.11414
-28.4268
-4.00027
-25.4378
-32.4981
0.164608
-1.4827
-0.878392
-1.80828
-6.17397
-55.5825
-0.762244
-55.2549
-8.15774
-0.0144746
-7.99083
-1.27619
-44.1913
-5.74521
-56.7963
-3.10986
-11.2123
-57.4995
-1.77044
-1.67965
-56.4401
-30.2835
-3.53408
-20.0141
-0.825465
-0.923291
0.344314
-38.5145
-1.72112
-5.85536
-57.0772
-57.5212
-56.4921
-43.5143
-10.4203
-7.09936
-0.0413067
-5.7277
-49.5318
-59.2638
-41.9912
-1.32158
-58.2906
-1.50169
-0.873611
-1.5424
-11.3937
-10.3188
-1.22999
-1.78469
-0.693929
-0.714166
-2.15627
-57.719
-11.0999
-9.58145
-1.06275
-0.307513
-3.18527
-38.5548
-1.47721
-16.5433
-59.2481
-12.6727
-2.26766
-1.22912
-0.874424
-23.443
-42.044
-1.1977
-1.19348
-2.30223
-0.188825
-17.7876
-57.0067
-11.0465
-0.428456
-21.5344
-1.48669
-7.58138
-13.4289
-3.60097
-0.383844
-1.89009
-61.8652
-49.3384
-12.2072
-59.6205
-1.24199
-2.44997
-43.0062
-1.71271
-1.17118
-54.5959
-22.9182
-2.03629
-1.23252
-2.96983
-0.502717
-2.50504
-13.2765
-1.03976
-2.50344
-8.56222
-15.0653
-2.64401
-1.82917
1.06286
-1.39713
-61.5769
-0.829984
-46.8594
-7.68416
-59.6379
-63.1527
-68.1447
-64.1135
-43.1956
-1.95548
-1.05871
-3.78922
-1.73844
-1.28236
-2.50328
-3.72527
-13.2209
-2.54246
-15.1604
-0.699176
-62.5983
-2.76132
-13.7461
-60.4546
-70.9371
-1.01675
-9.8005
-4.0631
-3.91146
-1.03685
-1.67306
-11.9184
-7.45181
-57.0522
-1.47991
-55.9081
-65.7891
-59.5963
-59.0322
-66.7979
-56.155
-46.6507
-0.613669
-1.36591
-1.52816
0.0542888
-56.4948
-1.29194
-67.8362
-12.8611
-1.98274
-18.5335
-0.636893
-2.50028
-50.3574
-5.38549
-56.6584
-17.6345
-0.710774
-1.3404
-8.77878
-69.4095
-9.9827
-0.882793
-3.00657
-1.33502
-1.18327
-1.19655
-51.0733
-6.12539
-3.37212
-1.96451
-0.485023
-75.9374
-0.820351
-0.991664
-74.6224
-0.603872
339.842
107.029
157.662
106.552
98.8304
73.0016
59.907
47.2833
30.0495
314.219
98.2164
138.598
98.0006
90.7859
71.5117
60.5905
50.2437
39.8539
280.967
84.3808
117.944
88.2392
82.8954
68.1472
58.6873
49.3188
39.5061
243.938
64.8829
95.5028
75.2425
71.6228
61.0997
53.6572
45.9796
37.5701
201.422
43.3667
71.3851
59.9189
58.2677
51.5381
46.3331
40.8455
34.0483
153.063
24.9403
47.6087
43.8645
43.7715
40.2098
36.996
33.3028
28.8231
101.465
15.4483
26.4961
28.6972
29.4304
28.3623
26.8549
24.866
22.4577
51.4195
11.439
8.79788
15.3822
16.3847
17.1308
16.9225
16.3519
13.4175
6.23063
5.41482
-5.98808
4.33386
5.54036
7.54609
8.26956
8.5327
8.24174
-31.2096
-2.69298
-16.9672
-3.85914
-2.45521
0.297165
1.62758
2.56369
2.98977
-61.8622
-10.3777
-23.3903
-8.86024
-7.40833
-4.44417
-2.88558
-1.69691
-0.351926
-79.9799
-10.5809
-24.0584
-10.5828
-9.57027
-6.95538
-5.57039
-4.5995
-2.04949
-78.3992
-2.80887
-19.0263
-9.62373
-9.60535
-7.73617
-6.68468
-5.67373
-4.50976
-69.1079
5.29365
-12.7135
-7.73597
-8.65342
-7.57251
-6.84721
-5.88323
-5.39064
-60.2702
9.40828
-7.77505
-6.16046
-7.58662
-7.10443
-6.61462
-5.83079
-5.11597
-49.106
9.80677
-4.77287
-5.3551
-6.8246
-6.66211
-6.27334
-5.61905
-4.72722
-39.6741
6.20826
-3.9664
-5.40584
-6.47469
-6.34745
-5.92956
-5.34492
-4.01425
-34.7342
-0.979572
-5.37843
-6.11352
-6.4259
-6.10505
-5.56715
-4.92578
-3.77123
-29.9868
-7.38946
-6.87685
-6.71621
-6.34195
-5.8094
-5.1868
-4.51981
-3.70671
-23.8605
-10.0991
-7.38496
-6.75314
-5.98109
-5.30763
-4.62623
-3.92423
-3.09555
-18.8371
-10.1535
-7.07743
-6.24569
-5.34959
-4.64685
-3.99583
-3.33154
-2.75868
-15.8354
-8.78549
-6.32192
-5.3864
-4.54308
-3.88197
-3.29539
-2.6709
-2.57364
-14.6706
-6.35541
-5.3038
-4.32742
-3.63705
-3.07987
-2.59534
-2.085
-2.11822
-14.0518
-3.25052
-4.5381
-3.66616
-3.08511
-2.56172
-2.05461
-1.57582
-1.70102
-11.7552
0.601054
-1.9585
-1.56382
-1.42935
-1.44309
-1.31243
-1.10794
-2.64949
6.21737
5.85936
5.56024
5.47229
5.54392
5.77561
6.15228
6.70601
7.46429
8.44836
9.67721
11.1614
12.8842
14.8229
17.0315
19.6388
22.6196
25.7384
28.8289
31.799
34.5447
37.0309
39.51
41.9595
43.3894
43.7816
44.6418
46.5875
48.9792
51.3173
53.9796
57.0393
59.7735
61.9934
64.0608
66.1888
68.3695
70.7378
73.4252
76.5901
80.3177
84.7921
90.2702
97.0719
105.539
115.903
128.496
143.498
160.851
180.443
201.477
222.862
244.089
264.606
283.81
301.458
316.784
330.017
342.781
1.63999
0.869201
0.13896
-0.450696
-0.993147
-1.53085
-2.06676
-2.61245
-3.18173
-3.78576
-4.43618
-5.14284
-5.91117
-6.65892
-7.21016
-7.4955
-7.66814
-7.85205
-7.8886
-7.61115
-6.99341
-6.00451
-4.58173
-2.72119
-0.689893
0.956873
1.86652
1.90154
1.00221
-0.192296
-1.11722
-1.78916
-2.28766
-2.69712
-3.03387
-3.29606
-3.48297
-3.57054
-3.51238
-3.23541
-2.76544
-2.15583
-1.33931
-0.222569
1.30868
3.35804
6.01668
9.32623
13.3014
17.8318
23.0784
29.5031
37.1311
45.1267
53.0459
61.2772
68.8424
76.2001
87.2059
2.96509
2.68503
2.38914
2.21846
2.13138
2.12549
2.19958
2.35069
2.57574
2.87153
3.23608
3.66868
4.17113
4.75108
5.41164
6.14175
6.92794
7.79206
8.77329
9.86991
11.0715
12.364
13.7283
15.1133
16.3955
17.464
18.3607
19.1004
19.6513
20.0624
20.4877
20.9682
21.5047
22.1006
22.7896
23.6053
24.5814
25.7585
27.1849
28.9146
31.0094
33.5345
36.5904
40.2795
44.722
50.0203
56.2655
63.4857
71.6728
80.6823
90.5912
101.316
112.449
123.47
133.982
143.783
152.797
161.891
168.801
0.974814
0.552018
0.153006
-0.155836
-0.406841
-0.603164
-0.748182
-0.846003
-0.90095
-0.916614
-0.894992
-0.836298
-0.737571
-0.591277
-0.385902
-0.115939
0.217103
0.60981
1.07328
1.61432
2.23553
2.93018
3.68266
4.46096
5.21276
5.87334
6.3956
6.74933
6.92842
6.96193
6.89812
6.7652
6.5851
6.37411
6.15153
5.9367
5.75204
5.6223
5.58252
5.66995
5.93419
6.42968
7.23353
8.42751
10.1142
12.3919
15.3649
19.1313
23.8457
29.2253
34.8703
41.1596
48.4301
56.4042
64.8295
73.5403
82.3369
91.4514
100.378
1.79025
1.5804
1.36149
1.22545
1.14643
1.1223
1.15214
1.23403
1.36547
1.54372
1.76654
2.03163
2.33719
2.68222
3.06602
3.48797
3.94766
4.444
4.9778
5.54687
6.14691
6.76904
7.40019
8.02224
8.61071
9.14281
9.60126
9.9773
10.2685
10.4839
10.6434
10.7637
10.8679
10.9795
11.1219
11.3257
11.6187
12.0268
12.589
13.337
14.3091
15.5448
17.0911
18.9961
21.3167
24.1067
27.4283
31.3383
35.8924
41.1114
47.0312
53.6278
60.7143
68.0417
75.3756
82.4779
89.2304
96.0556
101.413
1.07732
0.856822
0.653792
0.509597
0.406702
0.344138
0.321131
0.336193
0.387932
0.474889
0.596847
0.753311
0.94491
1.17228
1.43641
1.73785
2.07714
2.45144
2.8623
3.30623
3.77888
4.26967
4.76586
5.25383
5.70741
6.1134
6.4479
6.70301
6.86871
6.94318
6.93536
6.84292
6.68751
6.48957
6.25412
6.01753
5.78995
5.5699
5.40813
5.3181
5.32717
5.46502
5.76693
6.27675
7.05164
8.13154
9.59646
11.5088
13.9541
17.0082
20.7255
25.1475
30.2506
35.9251
42.0269
48.3353
54.647
61.0617
66.9671
1.37547
1.26095
1.15516
1.09528
1.06868
1.07422
1.11055
1.17674
1.27111
1.39159
1.53796
1.70939
1.90679
2.13005
2.37928
2.65571
2.96249
3.28946
3.64543
4.0235
4.42543
4.83748
5.25053
5.66552
6.03913
6.38745
6.67022
6.89836
7.05406
7.12998
7.14742
7.06509
6.92565
6.76239
6.53606
6.3412
6.16766
5.95974
5.85771
5.82536
5.89159
6.08073
6.41065
6.91545
7.663
8.61422
9.8974
11.5139
13.5666
16.1258
19.2397
22.9221
27.1343
31.796
36.7688
41.8424
46.8288
51.7534
55.9847
1.29761
1.19649
1.11561
1.06984
1.04663
1.0498
1.07165
1.12108
1.18944
1.2657
1.37425
1.49886
1.6494
1.82897
2.03001
2.26847
2.53635
2.77835
3.07962
3.41635
3.80003
4.18511
4.56147
4.98185
5.29574
5.62885
5.85496
6.05757
6.18462
6.23246
6.23627
6.02389
5.73522
5.44811
4.92412
4.53885
4.1739
3.35476
2.73039
2.12387
1.57414
1.09742
0.709701
0.451779
0.693647
0.779347
1.40955
2.03232
2.82764
4.21123
6.36571
9.30241
12.6567
16.5581
21.0319
25.8001
30.5048
35.2966
39.9281
1.45524
1.44507
1.43333
1.45024
1.4759
1.52381
1.58219
1.64291
1.73091
1.86555
1.93439
2.06878
2.23309
2.37646
2.59034
2.71667
2.98696
3.2654
3.53312
3.78791
4.11754
4.41582
4.74327
5.13723
5.38058
5.71444
5.87125
6.04229
6.21049
5.98193
6.12694
5.76228
5.29563
4.92823
4.17064
3.64618
2.8125
1.80351
1.4872
0.88015
0.450183
0.327861
0.112903
0.346638
0.729722
1.03851
1.70545
2.11253
4.02198
6.01351
8.15073
10.5807
13.5183
17.6318
21.6019
25.5323
29.3979
31.5441
32.3903
-9.73104
-9.54594
-8.83182
-7.89092
-7.06144
-6.49853
-6.05622
-5.40181
-4.65323
-4.15007
-3.58651
-2.7102
-1.89316
-1.16555
-0.259833
0.658581
1.33132
1.8434
2.36495
2.94395
3.51918
4.01029
4.406
5.0285
5.78455
-0.0338238
-0.135259
-0.610292
-0.766288
-0.59609
-0.307461
0.236104
1.07943
1.75781
1.88187
1.49194
0.836474
0.181002
-0.219465
-0.0970107
0.472911
1.12658
1.65557
1.99173
2.10008
1.98553
1.83099
1.8966
2.30874
2.63292
-1.81449
-1.8673
-1.76111
-1.5464
-1.20976
-0.83832
-0.418777
0.0376807
0.383105
0.461755
0.338044
0.125975
-0.0737835
-0.157346
-0.0124517
0.315755
0.69781
1.05897
1.36864
1.61607
1.80336
1.9721
2.17684
2.44456
2.89169
-1.07825
-1.12949
-1.00562
-0.86713
-0.669271
-0.44105
-0.183726
0.0813172
0.293793
0.400775
0.416457
0.387735
0.369579
0.411807
0.550702
0.765936
1.00301
1.2179
1.3847
1.49384
1.54853
1.56446
1.55497
1.49423
1.49593
-1.00149
-1.01673
-0.880362
-0.746354
-0.576085
-0.393944
-0.20165
-0.01569
0.13893
0.243966
0.305964
0.35045
0.406723
0.496565
0.634084
0.806608
0.986946
1.15116
1.28523
1.38491
1.4553
1.50792
1.56044
1.6058
1.7773
-0.895017
-0.849698
-0.704212
-0.586874
-0.444888
-0.303373
-0.15506
-0.0139918
0.110697
0.21595
0.300818
0.381611
0.475708
0.587862
0.723829
0.8724
1.01691
1.14218
1.23889
1.30417
1.34038
1.34979
1.34219
1.29578
1.31205
-0.72237
-0.766923
-0.601156
-0.502237
-0.3763
-0.262374
-0.138597
-0.023185
0.0833694
0.188867
0.280923
0.375955
0.488854
0.610468
0.746756
0.885646
1.01563
1.12744
1.21604
1.28034
1.31764
1.33744
1.35684
1.35331
1.41602
-0.546292
-0.705594
-0.521005
-0.445049
-0.322794
-0.223944
-0.106216
-0.00708932
0.0792052
0.183827
0.271184
0.367235
0.498952
0.629044
0.767075
0.903039
1.0268
1.13201
1.21605
1.27594
1.32165
1.35176
1.37786
1.37934
1.40989
-0.670417
-0.73651
-0.445496
-0.389847
-0.290121
-0.242637
-0.155052
-0.074681
0.0508867
0.15809
0.264306
0.350512
0.457439
0.574501
0.732098
0.8651
0.989847
1.09985
1.21583
1.28426
1.34099
1.38767
1.41608
1.40851
1.41121
-72.8761
-69.4156
11.7926
7.43367
1.04539
0.789202
1.69732
1.65853
11.793
7.17832
3.59797
1.5194
-94.1286
-0.445342
3.44469
2.03994
10.9677
6.79798
-2.0713
15.5849
-18.5839
3.23886
8.38074
2.90138
1.41036
2.06965
1.38373
-0.507239
-71.0647
9.79771
20.0283
2.32491
6.36821
-30.4089
9.6528
1.41184
4.35726
3.88974
2.34616
4.27234
1.19564
2.57438
2.52798
-0.730576
0.200187
0.571823
0.933483
1.84599
-34.6949
3.6139
1.2634
0.21177
-46.2559
6.63884
1.52969
11.7732
-0.376171
-38.9466
0.00520025
2.70895
1.60502
11.8391
1.00933
2.24772
1.55979
-0.721465
-0.737652
2.27037
-82.9869
-4.39765
11.6822
3.46601
0.947753
15.2626
0.715001
-23.6253
14.3244
0.523918
0.145407
6.3625
-31.236
1.5045
1.95578
4.54129
1.33042
1.62527
0.99839
0.532647
5.81642
-0.801874
1.35637
-5.67505
1.12884
1.62808
0.854807
4.07596
2.06847
1.90616
2.55278
2.50572
-0.0696301
1.29057
-0.140871
2.46567
0.1499
0.251732
8.41132
-29.5532
1.99861
10.2069
2.6972
1.8327
9.61571
2.10755
-48.8288
-37.9127
1.22737
5.21703
-64.5711
1.99327
2.18381
1.73194
3.17782
1.5565
6.69704
2.47289
0.0952417
14.5467
-0.0836167
1.47686
1.94768
15.1003
-5.67261
-1.39846
-0.603474
0.960203
0.312881
0.0410825
1.7312
15.6931
1.10053
0.284679
1.54855
2.2051
-47.5238
1.93333
7.07787
3.44639
1.70554
9.48733
-0.739809
-0.373064
6.81919
0.899527
1.2344
2.80276
0.549
4.19177
16.3989
3.53025
2.4809
11.735
1.82192
2.02376
2.082
4.62744
-0.42651
1.07364
2.70486
0.438448
-0.338883
2.44756
2.06412
4.2331
-4.04506
-0.27076
-5.54494
-25.092
-17.0606
3.31587
-4.71783
2.53729
-47.8967
2.32471
-0.102447
2.79835
4.06858
1.95399
3.6705
1.75987
2.14015
1.60145
1.43278
1.28523
3.01766
4.37606
0.734414
3.11895
-42.1669
-90.6813
-96.07
3.04598
1.65686
1.67855
-0.212505
3.70294
2.90553
-0.128862
-21.5113
4.10133
0.138664
1.67117
-6.10304
-0.369318
-0.623527
3.71262
0.511713
3.03024
5.74251
-1.47367
-0.324926
2.59362
1.35084
11.7127
4.89051
0.901102
0.992796
10.9834
1.9881
0.905647
3.24562
1.49884
2.44505
2.02581
0.839706
5.33867
12.018
-0.470967
-1.91313
-1.4916
20.5634
1.57282
2.33856
-0.49542
0.871322
1.27552
2.35299
-0.00800281
1.99506
2.52681
2.00599
-0.256406
4.36105
-29.7612
2.25009
0.68858
9.60452
14.2056
15.7219
6.38853
1.39534
-0.196858
1.72312
1.09525
14.8785
1.66995
3.39949
7.75157
0.929495
1.11912
-12.7382
1.67723
2.49645
3.01962
-3.38603
7.80593
1.39135
11.8482
-0.451499
0.0886976
-0.603802
-0.674359
2.86831
-0.150163
-19.9595
1.73881
0.122182
5.07866
4.52498
2.13946
2.01525
1.99886
2.46414
3.0756
-37.3629
3.87608
8.4142
-2.07608
3.54824
-7.06901
0.379354
2.44564
3.86835
1.64305
9.47491
2.48961
-18.5449
1.61208
15.619
1.57608
2.82278
-1.66818
3.95856
-0.1364
2.48519
3.11319
0.673809
3.97011
1.49106
-16.0615
14.4299
2.02106
3.86954
19.0163
1.25994
1.6833
1.32327
-33.6372
0.932299
-36.1702
1.87663
2.2966
-0.322914
6.38218
0.140647
1.58551
1.66784
1.91882
1.88011
1.82465
1.68627
1.42902
-0.293981
-6.19879
14.7465
0.475208
0.338111
2.54641
0.998878
2.31114
0.975886
1.33816
2.31922
13.0995
3.31725
4.76014
-11.3305
-0.918408
2.2486
4.23323
-18.1408
8.71737
2.89274
0.907124
2.61421
0.839364
2.44414
0.40139
1.63661
3.75668
-0.113335
0.0701973
-62.2353
11.1494
-79.4669
1.90828
1.85941
1.76785
3.58539
5.80778
8.67564
1.86754
7.22627
-0.958339
-0.751701
-27.544
2.04654
15.5525
4.5314
2.52272
0.717616
3.59833
-0.906069
10.1486
-0.998977
6.89503
2.3579
7.47532
3.95846
-60.0453
1.52457
2.7153
1.30267
-5.1145
1.31274
2.8189
2.46068
-0.655613
-0.85354
6.73516
6.54022
1.56778
-7.15438
1.62772
2.1386
4.18093
-35.1979
2.51083
3.80046
-2.31848
2.07432
3.37888
-0.136746
-0.234099
3.03767
0.243289
1.90227
3.77823
4.75316
2.32948
1.59584
0.652734
-3.98706
0.206387
2.881
2.54246
2.10609
2.44884
2.52144
3.83826
3.4145
-2.44036
4.04978
-1.15283
-83.2202
11.4239
-0.456882
10.1404
0.0257276
0.143465
11.2035
2.42143
1.74186
-11.2309
-1.64955
-6.3471
4.66949
1.73952
1.35004
12.5855
1.82565
-1.15808
5.06645
-8.03607
0.201922
1.22458
0.260624
11.8194
3.27452
6.30972
-1.31847
1.06276
9.12931
3.97245
1.63359
-48.9157
-3.88746
0.708112
1.91765
0.427082
-0.650842
3.60904
2.69945
1.43715
3.43648
1.13226
1.41378
3.91512
-0.681707
2.89269
-0.909256
2.01677
1.79324
10.2861
1.56565
0.0978913
2.65324
1.63053
2.32709
3.43822
2.50296
2.20546
1.69451
-0.52179
-8.2029
-24.8253
1.76479
1.79031
2.22841
2.16456
2.75756
-14.2168
-2.14942
-3.68312
2.7971
0.427794
9.33045
-32.9735
1.83612
-0.0204255
-3.2547
1.68278
15.5627
9.99849
-32.563
3.83375
0.220157
3.7131
3.28873
3.46092
-0.126951
1.85211
8.55732
11.4494
1.93713
-1.2767
2.20254
-12.9089
-34.2323
1.96294
-21.128
10.3077
2.56883
8.07871
2.32696
11.6637
1.8311
-0.343519
1.62106
11.8096
1.72783
2.6857
-0.181987
-27.5622
-30.1212
0.750819
1.29436
-0.888906
-77.0102
-9.38954
-3.53845
-4.96214
2.09771
-59.6533
9.65782
5.69183
0.000754079
-0.0371032
2.38132
0.990742
3.91067
4.78453
4.92967
0.20261
0.759838
9.95101
1.99617
-9.82858
-0.331536
1.0685
16.0154
-59.1317
2.77816
-1.97229
1.8401
7.85649
2.98557
0.789288
-1.98536
4.08152
0.693144
1.30437
2.46105
-1.02006
0.255166
-0.0710675
-41.9995
-29.5608
1.09721
2.50235
0.46245
-0.528573
2.63773
4.00728
14.4198
2.30041
1.7042
5.75254
5.14189
2.38854
2.5892
4.94681
1.4027
2.71107
-0.0145146
-32.3099
3.54487
0.41179
11.6561
2.79733
1.24454
1.7863
-4.37353
-0.401543
0.938874
2.49081
4.003
-0.497134
8.27553
0.633229
0.890818
0.928242
2.73757
2.0007
2.00282
-20.3617
0.484967
1.508
-0.433534
-0.301616
-0.261978
-0.517567
-0.735222
2.95489
0.971942
2.83746
1.52241
-1.16589
2.09047
0.231064
12.8417
2.90309
5.28392
2.28802
3.85185
5.9298
1.88944
26.8417
-4.1315
2.49491
-5.51064
5.97688
2.12122
2.23603
1.02123
1.76194
7.41329
10.7328
-0.599342
-53.2884
0.899908
-1.51442
1.39932
0.444294
2.6686
1.96555
0.958993
1.411
-0.236906
5.44501
2.52523
-35.7104
3.83799
1.91907
3.33013
-0.510774
1.91263
-43.6076
7.90402
2.19555
2.84818
3.79623
6.05941
1.87181
-0.549589
2.51823
2.1245
-0.163367
1.92418
2.69757
0.0215456
2.51741
2.22363
3.12848
4.22442
3.11857
0.507851
-0.760279
0.976482
3.77502
0.785182
9.5201
0.250892
0.619534
1.17421
2.81797
1.82663
-1.35595
1.91911
1.41873
-71.5907
-7.775
11.6665
-0.784854
2.45859
-2.48646
1.47737
-0.815814
-23.0316
7.32647
-1.53203
-10.0715
1.24811
-30.757
-4.12122
3.6659
3.8293
8.49868
3.03363
1.90165
2.666
3.17029
1.7663
-59.1392
-30.8344
-5.62788
15.8566
-1.09154
3.49922
1.59883
1.6195
4.29754
11.4947
1.5511
1.57303
4.41687
-45.0398
0.40334
2.82029
2.67795
-0.19307
2.70439
-39.206
-1.24314
8.36535
-0.3933
0.556854
-6.27036
2.06063
2.85653
-0.321086
0.686953
0.0444169
3.5735
2.50279
0.233139
1.73754
2.02147
2.52502
1.69057
1.12708
4.11163
0.394981
3.68388
2.95984
0.529977
2.38187
15.703
1.37048
0.778719
-1.14586
-4.95013
-0.772146
2.73108
0.974409
1.59486
11.3636
3.81286
1.80328
2.02542
-53.0929
11.2158
11.5537
0.858305
-0.542909
-3.84998
7.90457
2.53582
1.5151
0.501343
4.66302
11.7754
2.36995
1.34233
3.11782
0.976314
11.6144
8.82883
3.73646
2.42749
11.8084
-41.8296
-17.5273
2.28866
3.49316
2.71634
-0.63728
-0.177494
2.50588
1.29684
0.0806714
6.42122
3.77077
0.158853
-14.1759
-2.80884
1.7039
11.0546
-1.6782
-14.4212
1.84746
-4.3857
3.76534
1.68926
-52.489
3.28361
-4.14145
2.072
-0.169567
-11.7998
0.248782
2.84375
3.57061
1.50323
1.9042
15.7611
11.6643
2.01289
-66.228
3.60157
1.94441
0.397118
-0.0626679
3.04707
4.01433
16.2563
2.14113
1.94684
0.34919
1.88051
10.2177
9.24759
2.01999
0.600543
2.77702
3.09426
-0.28896
8.10609
3.67926
-3.15782
1.64102
1.34832
-0.0837066
13.5933
1.76121
-2.6494
-2.32087
11.4946
3.58889
3.20148
5.56385
-0.526712
1.7875
-0.764942
-32.7243
-24.9485
-4.81187
0.776797
1.43798
9.10328
-36.7497
-20.5667
4.15717
-0.386474
2.76251
0.110688
-22.8307
3.48421
3.29703
-0.429361
8.59321
2.19355
1.03767
-15.437
2.26124
0.137928
-2.24979
-11.3257
-3.00972
-3.68819
-44.7385
4.40684
-0.563859
0.0933381
-0.169207
-29.1024
-34.9562
2.89885
1.65946
1.72648
2.88106
0.0733532
5.88878
1.7762
-8.56489
-3.544
10.3217
-4.95833
1.34367
1.69023
11.4395
-3.27726
-0.584814
-7.9684
2.14609
2.28268
2.51922
7.2614
-4.04126
-5.59538
10.4149
1.81858
2.96713
2.64502
1.82551
2.95618
1.54028
10.0928
-1.02197
-0.1471
8.50369
2.54736
0.197291
0.412445
3.26936
3.18827
0.101813
2.50094
-23.8813
2.69639
0.657334
-15.3238
15.6438
11.4002
1.91665
1.23842
-0.111613
3.29463
-57.5201
0.8052
-0.066587
9.78786
1.90796
0.582655
-0.487062
0.963886
-26.1835
5.32462
3.48964
2.66332
0.947873
1.40786
1.39211
1.44821
5.22245
2.17084
1.88199
2.02454
-0.289152
-2.49131
2.43384
10.5455
3.78147
1.87261
1.773
-31.3358
1.18452
1.35775
2.80498
1.17734
3.90601
1.96966
-2.47049
14.3564
3.26267
-6.33194
1.56621
2.65415
1.80356
1.0604
2.27933
1.81796
0.827543
-0.177521
3.20896
2.90691
-5.52448
2.42073
4.54321
3.00437
0.0303114
6.88157
4.54028
-0.873554
3.36696
0.0402907
0.640652
-6.69477
1.9014
-2.02036
-1.53969
2.78797
3.78257
3.19128
1.54642
6.51774
-1.56198
2.13158
2.12867
9.93334
-0.239935
12.0144
1.91067
-27.9731
8.30639
2.68713
1.66245
1.7465
-0.0243395
-2.5061
3.13439
11.5835
2.27703
0.496632
4.30547
0.272561
3.68265
0.233447
5.23178
22.5478
4.23309
-39.8912
0.641943
4.93079
4.2712
2.42676
2.69503
6.3256
-32.1607
3.76677
15.6922
-6.42654
1.33054
2.78359
-35.7744
2.05265
3.0258
3.68828
3.54942
3.0493
6.0033
-0.127343
0.34576
2.09695
0.641532
-56.1553
1.59684
-0.293595
2.13514
2.50343
1.07978
2.7177
-0.330302
-6.91148
11.2593
5.6697
-4.0323
-0.150818
16.3503
1.5347
1.36427
2.32743
2.71813
15.7385
3.47085
0.0479762
-2.69853
-43.3315
3.90512
3.78172
3.60826
-0.640954
-25.3952
1.16875
3.71075
-21.7228
-9.72893
2.85032
2.49715
0.760992
2.32169
1.08621
-50.437
1.47796
8.73466
1.645
-1.97586
1.43406
-26.366
2.42091
5.83355
2.53511
10.5061
-31.7312
-39.3668
8.43186
2.1164
0.532414
-27.3437
1.85852
3.47664
1.78525
-0.0427979
2.36334
1.50624
1.91693
10.8696
0.426698
-0.312202
1.24656
-0.065586
0.728227
1.53412
2.73488
2.88612
4.67917
2.65495
0.111028
2.52092
0.800486
2.21095
0.409138
3.14519
11.4363
-0.467162
1.70635
2.96134
-0.291527
1.21111
2.08507
-0.705594
0.438181
2.87049
1.29008
-0.500044
3.51792
0.0170806
-0.638017
-18.668
1.47059
1.50186
11.6138
1.81238
0.39878
1.9154
9.18958
0.784437
3.19672
-67.8527
2.06461
10.8451
-14.683
1.27977
0.157228
3.93781
2.40144
1.63312
-0.801017
3.35396
2.26078
-57.7457
-0.713023
3.25786
3.33504
14.5096
-24.3541
3.93423
1.57227
14.2198
5.9807
0.543702
2.7041
3.86931
7.72858
-2.04203
1.57533
3.58431
3.17978
-0.214555
3.72815
0.682738
3.08568
0.159026
14.2477
7.71179
3.52288
8.60458
2.3832
1.72048
-3.64645
2.98775
-0.444369
5.99241
10.0758
2.71822
10.5032
-60.2107
15.6345
-22.0381
-0.584968
-31.3893
0.708291
1.41663
2.83028
-19.4009
2.59793
11.7801
5.01374
-7.15507
-61.4121
1.55839
0.349783
-17.2254
-0.231791
2.34007
1.38765
2.84852
4.56153
0.565427
2.92604
15.6429
-1.65505
-7.85556
-0.413213
0.113597
1.77399
15.071
1.78314
-0.363679
15.8994
2.51426
-39.8738
2.10413
2.40211
-11.535
1.08491
-0.28042
-44.9424
2.98545
4.58186
-14.3142
4.59672
-4.14334
-0.31914
0.587985
-1.89421
-62.9493
3.01539
3.49943
-8.27808
-20.4901
4.44776
-0.589979
2.4457
-23.3562
0.497983
1.24499
2.31507
1.24124
1.13735
-17.4028
-0.0840778
-0.548744
3.32059
-43.7193
2.70978
2.22428
2.63647
10.6353
2.77062
1.61993
3.58288
1.21915
1.74838
-2.34104
2.57046
1.68719
-67.9069
0.499504
2.54747
4.62978
1.78235
2.84942
2.18736
3.07855
-2.57007
-0.400768
3.41769
2.1572
-50.9363
0.126222
1.56231
-0.249854
-0.0507362
2.56183
-0.305311
-0.389162
-78.5069
1.37302
-24.6978
0.571745
1.45494
0.035047
3.37051
4.48958
1.3281
2.24719
0.340841
-0.513973
2.39566
2.36229
1.86013
1.38984
1.975
2.61501
0.798116
-0.660616
16.0672
-23.7233
0.22919
-1.12723
2.55573
2.65497
2.34058
-13.3098
-12.4636
-0.893504
2.32962
1.45773
3.11342
1.69399
2.12026
5.04671
0.894979
13.5206
1.48565
3.32419
1.33815
-42.1011
3.59578
-25.4851
2.69662
1.48383
0.188872
-0.79533
1.60842
1.95059
1.65754
-0.844041
7.06576
-5.95463
-2.88599
0.533203
1.72213
11.6427
1.69135
9.74561
-31.1724
1.57796
2.59001
13.5255
1.87159
2.85085
3.36444
1.3817
15.8238
-1.67512
9.34863
-0.254232
-0.282189
15.8589
1.19993
-0.671396
3.0259
0.134845
-0.0329615
3.69722
-0.0742708
-18.8129
0.576572
-13.2837
-0.610846
1.53412
-0.141142
3.90488
-0.73853
3.79172
2.33551
1.13033
1.27895
0.0323685
-19.6597
0.477012
10.8042
1.79461
2.42837
2.78212
-0.149709
1.9243
11.4017
0.735276
1.88561
1.34258
4.77242
9.96913
3.46774
3.72307
1.49812
1.26104
-10.4863
1.8162
2.38991
9.04135
-2.28838
5.64533
4.23598
4.41593
3.06978
1.676
1.75716
1.98414
2.77401
1.6927
2.5444
2.49459
8.44897
1.95869
-0.471954
-20.8768
3.79899
11.0569
3.26248
2.69404
4.14735
2.85924
-6.06764
2.48748
-39.8896
0.0953191
3.48882
1.06081
3.89671
10.7888
0.259733
1.99092
-14.3297
-2.19133
0.763955
-48.4094
2.44319
0.236686
0.0610369
10.2015
-26.1601
1.27409
2.10336
3.73554
1.57558
10.6135
-22.1495
2.59844
4.71526
1.20598
2.81139
3.36656
3.98346
-0.86193
-2.62358
1.33956
1.10684
4.26823
2.15522
1.01993
2.10811
-0.166874
2.51961
10.575
-38.0948
1.31546
-56.3726
0.457842
4.72051
0.247105
16.2213
-0.815135
4.31209
2.63882
-31.5483
2.41284
2.45955
-30.4511
2.01364
11.337
-7.16893
-64.2825
2.81328
3.04442
0.855176
0.386233
0.518704
3.72222
9.74107
-0.360126
3.10466
2.58011
3.58568
-0.00105509
1.40565
3.99033
-0.51132
1.20723
-35.8755
-0.327496
-3.96909
0.261888
3.3189
2.65632
4.32919
0.846375
-0.442775
-27.4888
2.09394
-2.66634
0.854204
-2.73226
6.03306
4.532
15.7612
-0.424992
2.84662
-3.09332
0.620061
3.95844
-0.061285
0.702435
1.75498
1.54998
3.14863
6.45948
-10.0105
-0.54523
2.06737
-14.2081
0.409444
-0.263106
1.78943
0.0119117
-2.0544
0.0113119
1.62458
1.59518
10.1582
1.25856
-0.462614
-0.656604
1.29026
0.564966
11.404
1.28093
1.9922
2.51889
0.0595149
3.00699
1.70238
1.86759
4.95172
1.94044
-0.165709
3.84302
0.288824
3.91996
-9.24261
-5.85855
1.69283
1.94334
1.29625
1.63895
2.32265
2.45424
2.06514
2.40966
3.13531
-2.21148
2.24794
3.08709
14.8437
4.41554
2.8765
5.18141
2.39687
0.279189
2.56279
1.5765
0.452883
2.59146
3.54087
3.75059
1.42132
-0.0335544
-0.39061
2.49307
-0.294831
-1.01382
-0.611187
1.80714
1.66209
6.82891
-1.70819
1.43405
1.93694
-0.14465
1.74162
11.3456
3.39725
3.06617
1.13441
2.56238
-45.4076
-0.120656
3.95677
0.532338
1.64593
-16.6509
0.832331
1.69524
-0.870815
2.76015
1.43994
-0.150347
-8.87505
0.113604
1.50579
2.22514
2.30044
0.0986898
-0.613917
0.921219
2.79575
1.67204
-1.77456
-10.8401
2.31845
-0.00499941
4.20734
0.143638
0.538251
2.64538
-1.4959
-0.642228
2.38057
0.654603
-1.14881
-0.891937
3.068
2.19392
0.539166
3.5514
1.64221
1.79947
14.6499
2.43848
-0.739464
10.2872
-19.6583
1.48339
1.79414
1.1015
1.044
5.27066
1.01569
-7.65701
1.54904
4.5053
1.72631
3.62639
7.68011
3.0549
2.37806
3.9452
-29.7308
3.12081
1.23327
0.89737
-2.59922
-0.0938699
0.514328
-29.3021
0.0255285
0.0962855
3.3548
1.99338
4.01174
3.74623
2.6326
1.60695
-9.08551
4.12634
0.762076
4.40472
3.40941
2.12111
0.445232
3.85204
5.49435
1.49375
4.02663
2.35043
0.497788
2.56974
2.8791
1.4425
0.189952
3.21189
0.773931
3.52514
4.63901
4.69828
1.71348
2.64112
8.6788
2.6605
1.33783
-8.14289
3.24809
3.83216
2.82388
3.74478
3.44555
-2.41386
1.77832
1.43843
-0.549735
0.604955
2.98474
1.65415
-0.411273
1.30647
1.81674
0.720383
1.77333
0.746556
3.70333
0.409792
9.07172
2.01875
-28.1062
3.51038
1.89406
0.57138
2.45007
1.50956
-0.264076
3.97726
2.25727
2.33947
-0.554341
4.14111
3.25929
3.33667
3.09893
2.58673
1.05119
0.816228
-0.0497254
0.846757
-0.0645193
0.979733
2.22663
2.40612
0.880454
3.55512
11.3717
1.90771
2.42445
-0.0242958
15.0583
1.88195
3.19541
3.06898
1.4417
3.67626
0.746674
2.90596
1.08352
-10.5247
-0.564907
-0.167825
-1.85896
-0.845884
-0.328986
3.61605
0.960754
2.13942
1.1305
-88.7263
-72.4311
2.64751
2.49328
1.81286
-0.762755
0.184889
0.327627
1.26824
-0.14537
-0.071711
0.671775
-2.40274
-0.0255412
-23.8314
1.23409
2.75289
0.787738
-0.667835
1.94067
-0.126201
1.55136
2.37135
0.475724
2.45968
2.18993
-0.49047
11.2933
9.06022
-13.139
11.0766
2.49304
1.16548
2.8735
1.26878
1.91248
-0.155129
1.54516
2.23817
6.71374
3.53648
3.90146
1.12587
1.72584
5.72539
-0.220784
3.19247
2.09826
3.39239
4.0213
0.0854868
1.68717
-0.625593
1.70983
3.59842
4.60185
3.08883
2.37783
0.194286
9.15691
2.41279
1.64876
1.44297
3.27425
3.65583
-0.664867
2.01509
3.14327
-16.5131
2.54176
1.88706
2.67496
2.89346
-0.463225
2.23166
0.816707
-0.309525
1.92248
2.97131
1.82946
9.23063
-1.83322
0.8011
2.84359
0.496523
-0.171742
1.8708
3.82352
-16.6395
1.77028
3.66566
-0.449386
2.2824
2.15882
0.748729
-47.5491
-0.490405
23.3572
-0.196147
3.72317
9.08133
-8.09353
14.8559
-0.485533
-3.73929
8.0579
-0.174462
1.52453
1.9003
3.42664
15.8066
5.22612
2.66051
0.272202
-1.17986
-2.25648
11.8234
-0.739471
2.2854
-2.74631
7.44021
-0.446633
3.79144
-0.0756447
-5.49612
3.49259
3.38052
0.0105592
0.900709
1.4982
2.44052
2.7289
11.289
1.11923
-0.193107
-0.625251
-0.664147
8.48463
0.936875
2.79918
0.55229
2.37281
3.78144
2.18062
3.23024
3.84542
2.10196
1.1934
0.834557
-0.38884
-0.537721
2.63434
-1.7695
2.35657
4.48175
-0.650175
-1.14652
1.9184
3.92948
2.34683
0.954996
10.9935
1.01887
2.08522
2.42226
2.90394
-7.69274
-0.643497
0.0165887
1.98255
4.57023
2.1852
-0.0383169
-63.2133
2.61813
3.81317
0.0754728
7.45653
1.93692
-0.768839
11.5501
2.21063
2.50461
2.69212
2.19751
0.0650466
-0.300142
0.0751035
2.52449
1.76642
2.364
-3.05951
-2.58784
1.71576
2.56001
3.79085
3.04438
2.20097
-0.46084
-1.42161
-0.194922
2.27856
2.42231
1.21075
1.18459
2.45722
3.41086
2.10534
3.24154