/*--------------------------------*- C++ -*----------------------------------*\
  =========                 |
  \\      /  F ield         | OpenFOAM: The Open Source CFD Toolbox
   \\    /   O peration     | Website:  https://openfoam.org
    \\  /    A nd           | Version:  10
     \\/     M anipulation  |
\*---------------------------------------------------------------------------*/
FoamFile
{
    format      ascii;
    class       surfaceScalarField;
    location    "450";
    object      phi;
}
// * * * * * * * * * * * * * * * * * * * * * * * * * * * * * * * * * * * * * //

dimensions      [0 3 -1 0 0 0 0];

internalField   nonuniform List<scalar> 
16133
(
1.73933
-0.0418089
-0.107065
-1.59166
-1.53068
0.476477
-0.590467
1.64466
-0.546147
-2.38136
1.82325
1.10426
-0.250564
0.0872366
-2.46307
2.62639
-0.668802
0.0541475
3.12252
-2.50788
3.63185
1.72585
-4.4739
-0.883831
-2.52982
0.787823
1.51316
0.228828
-0.00955777
-2.5072
0.619323
1.89743
-1.56882
2.34372
1.55517
-2.33009
0.741674
2.90739
-0.383092
-3.26599
1.89159
-1.76554
0.531525
-0.657591
2.7839
-0.93096
0.801306
-2.65425
-0.144159
-3.22991
1.90327
1.4708
1.03018
-0.887377
0.109239
-0.252048
1.16813
0.115046
-0.252996
-1.22748
0.898981
-2.69225
3.02073
-0.23104
0.0736129
-0.729951
-4.16292
1.14098
3.24923
-0.227296
-4.0021
3.41426
-0.980989
-0.106297
1.89263
-0.0470024
-0.519836
2.07923
-1.74331
0.18391
-0.408755
-2.4012
2.55938
-2.88768
2.91513
-1.25493
4.684
-3.61296
0.322203
-1.39325
-3.10169
3.8562
-0.0128385
-0.00307408
0.00508015
-0.0658114
0.0638052
0.00956709
-0.00719453
-0.0076148
0.0052422
-0.17824
-1.70223
1.5543
0.326166
-0.035565
0.0615165
-0.0613134
0.0353619
-3.66011
2.40458
2.31297
-0.591881
-3.52322
1.80211
-0.659357
0.657916
1.89303
0.833188
-2.32507
1.48232
-0.00151259
0.191801
-0.0524405
-0.137848
-2.23135
-2.33173
2.32577
2.2373
-1.132
0.574976
1.23166
-0.674636
-1.75986
-3.34133
2.86983
-0.0106377
0.0682644
-0.0825089
0.0248824
0.0442321
0.084602
-0.0233129
-0.105521
-3.65126
0.87699
-1.22784
-3.46992
-0.5733
-2.49688
-0.579086
-0.718467
0.0469919
-0.127614
0.799089
-0.166157
2.23454
-0.0102248
-2.05816
3.13694
-1.36576
-3.53106
2.41886
-1.38614
0.93869
-0.77678
-0.379875
-0.105348
0.469467
0.0157555
1.87595
1.02462
-0.556856
2.55493
-2.37543
-0.588265
-1.2825
-1.74454
-3.59827
3.34667
-2.37528
2.62686
0.116271
0.0445991
-0.116638
-0.0235547
0.0363765
0.0703914
-0.0832133
-0.0160563
0.0470301
0.0536281
-0.0486553
-0.0271909
0.0402813
2.98798
-1.51996
-4.80938
-0.0126389
-0.0594632
0.0846699
-0.0125681
-0.605846
0.88032
-0.200307
-0.07417
3.0751
0.0708873
0.0190526
0.026331
0.473832
-1.36884
-0.635673
0.0406173
-0.0469128
0.0484419
-0.0421468
1.37035
-2.62537
2.67311
-1.41809
1.51899
-1.26974
-2.79113
1.87537
-1.4656
-0.477853
-0.0155749
-0.112419
0.118664
0.169671
-0.111674
-0.176661
0.798347
1.90021
-2.86095
0.614592
-1.36662
0.0410412
0.0120776
-0.0766736
0.083705
-0.0124355
0.00436899
-0.0756384
-0.805725
0.160959
1.26866
-0.6239
1.55544
-2.42984
-1.91673
0.0669877
-0.358229
1.45936
-0.432141
-0.873276
0.535774
0.769648
-3.01566
1.42353
-1.26882
-1.5342
0.967047
1.35497
-1.53009
1.45212
0.911147
1.34003
-1.24883
-0.0242173
2.94081
-2.71995
0.635231
-0.856086
1.60248
-1.47549
-0.00434946
-0.122635
0.0586968
0.112986
-0.127084
0.0426824
0.0834054
-0.0897114
3.38238
0.559603
-1.00118
-0.60196
0.429335
1.31727
-1.14464
1.56103
-1.40108
-0.450728
0.290778
2.17424
-1.99058
-0.349826
1.02875
-0.648928
0.0897287
-0.46956
1.69982
-0.414144
0.275357
2.4002
0.15713
-0.383089
2.96383
-0.476406
1.72785
-0.167186
1.24609
-0.412936
0.195591
1.85222
-0.330101
0.177702
-0.742085
-0.991875
0.901028
2.48778
-0.424989
1.02493
-0.326751
-1.05641
0.86355
0.0620893
-0.0453238
-2.22554
2.47667
-0.531259
0.280133
0.844122
-0.468122
2.58642
-2.47256
0.775363
-0.889217
0.274342
-0.304887
0.166526
0.684079
2.81266
-0.910318
-0.071411
1.84153
-0.219976
0.559168
-0.724201
-0.013701
4.54121
-1.14514
1.35289
0.0172399
-0.0301066
0.269889
-2.17522
-0.470097
-2.2815
-0.859868
-1.38797
-0.00274736
-0.0847792
0.0162007
-0.0512744
0.209457
-1.53398
-2.20272
-0.518813
2.38129
0.614185
1.44152
-1.86917
-0.488765
2.00811
-2.47531
-0.372484
2.32898
1.34948
1.46074
-0.428935
0.684962
-0.442381
-0.67472
1.55385
-0.526479
-0.9963
0.796457
1.00422
-0.804378
-1.73694
1.83398
0.678811
-0.775854
-0.0431093
0.108005
0.00506034
-0.0699556
-0.518782
0.808576
0.600681
-0.724294
3.21075
-2.54242
-0.044261
0.0419021
-0.0104994
0.0128584
0.577626
-0.76535
-1.64527
-0.75103
-2.12682
-1.1095
-0.0242896
-0.0182484
0.0754444
0.0265091
-0.0709738
0.129397
0.106663
-0.165087
-0.85731
0.937788
-0.822564
-0.438598
2.64
-1.69758
-2.01339
-0.199554
0.00404458
-0.124804
-2.56616
3.51337
0.054918
-0.160665
-0.372106
-0.540244
1.72683
-3.3701
2.18351
2.67995
1.05753
-1.04071
0.330325
-0.347147
0.761802
-0.822659
0.2401
-2.46802
-0.423405
0.84293
-0.650562
2.24991
0.940555
-3.7307
-0.35859
0.0662183
-0.0875036
-1.15734
-3.89369
1.75689
-1.5886
2.70536
1.27138
3.22699
1.84552
-0.106923
0.015024
0.236889
-0.144991
2.02513
0.607666
-0.798827
0.89969
-1.45026
0.609636
1.5683
-0.727671
4.31539
1.04135
-1.9886
-3.36815
-0.973207
-0.0270516
-2.15654
2.33805
3.16234
-3.05798
-0.118058
0.189583
1.28701
2.39591
2.16432
-2.10522
1.68517
-1.90503
-2.62336
-0.314658
2.56553
-2.53654
1.64823
-1.06301
1.95133
-2.70378
-3.29169
-0.0398389
-2.16216
0.273849
-0.48004
-0.599535
0.0133198
-0.00728615
-0.000855683
-0.005178
0.0400907
0.690689
2.95558
-2.85802
0.843008
-1.30368
-0.737051
-0.663658
-0.462918
0.397567
-0.280768
0.346119
-2.00354
-0.371241
-0.0922829
0.132011
0.0217886
-3.30945
-0.924341
-1.91519
0.96839
0.0963127
-0.0685347
-0.662857
-1.11389
2.03683
-2.45715
1.76014
2.13774
2.48133
2.22306
-1.69327
0.134242
0.0615467
-0.137092
-0.0539898
-0.0085196
1.06941
-0.80626
0.577146
-0.833519
1.82656
-2.1421
-0.706083
0.818454
-0.917022
-0.640563
-0.121066
1.69657
1.12343
0.0990555
0.0452474
-0.154941
-2.20318
1.88078
0.154681
-0.879709
1.05285
-1.45775
2.08518
-0.41798
-0.502143
0.0209783
0.0969048
-0.0772659
2.81304
-0.235044
0.0807136
-0.20426
1.97368
1.011
2.95264
-0.00238111
0.025268
-0.388201
0.979084
-0.0473074
1.35052
0.133726
-0.109127
-0.15342
0.128821
-0.0537675
0.0506934
-0.0360452
0.0608171
-0.0990862
-0.0540138
0.537104
-0.481734
0.342195
0.313141
-0.0403836
-0.21784
0.521795
0.508645
-0.990352
-0.0296175
-0.0790506
0.133734
-0.0250664
1.89551
0.052772
-0.0574849
0.00471291
-0.744362
-0.642223
2.30173
-3.19809
0.610457
0.759874
0.263795
-0.295696
-0.248868
-1.95426
-0.000995542
0.818673
-3.671
-0.0348376
0.0448333
0.0108432
-0.0208389
-0.130757
-3.66851
-0.0820218
-0.0187882
0.0711924
-2.68426
-0.369642
-1.98509
3.74736
-1.88759
-0.0310629
-0.119355
0.0713675
0.184415
-0.254489
0.203799
-0.0263072
-0.0605653
0.0382172
-0.653684
1.71025
-0.870638
1.59013
0.950453
-0.71403
0.0188213
-0.0330822
0.0142609
-1.18486
-0.754494
0.0322763
-0.046605
0.0143287
1.27172
-2.83077
0.741836
0.919862
-0.432618
0.632774
0.0278267
0.0044497
0.34364
-0.157553
-0.157277
0.268743
0.161829
-0.122651
1.47042
-0.418246
-0.651214
2.89484
0.150464
-0.0635038
0.0472817
-0.177106
0.144144
-0.758441
1.00508
-1.81058
-0.396551
1.4858
-0.376649
2.74705
0.0455603
0.00513301
0.206773
-2.10784
1.06255
-0.596546
-1.73163
1.05961
0.439125
0.242431
-1.62144
1.42341
-0.148646
-0.0385333
0.0780526
3.4546
-0.0735413
0.0402129
0.0986613
-0.0961917
-0.128361
0.187666
-0.734566
0.157501
-0.00451259
-0.0968543
0.033724
0.0368494
-0.0705735
-0.125586
-1.91816
3.08331
-0.298099
0.387493
0.182642
-1.4537
0.00951265
0.00930864
-0.858809
-3.18183
0.276823
0.0379411
0.105092
-0.10282
-0.286811
-0.136323
0.00789131
-0.779106
-0.431518
-2.78744
-1.44768
-0.0128811
0.127422
0.12068
-0.199878
-0.928317
-0.0232597
0.00393732
-0.0275905
0.0636607
0.144671
-0.146786
-0.236159
-1.93486
-2.34105
0.041615
0.00394513
0.138944
-1.46021
0.0102524
1.16464
0.0346862
-0.00355093
0.0604342
0.086349
-0.108842
0.430629
0.0975302
0.0355813
0.0406375
-0.052616
-0.0178963
0.0126408
-0.140321
0.208501
-0.12062
-0.0147233
0.0169498
0.0421558
-0.000540831
-0.00413064
0.00327495
0.0827605
0.0166287
0.00125346
-0.00703903
-0.155959
1.50848
-1.08589
1.02952
0.0345998
-0.114486
-0.00391961
0.200057
-0.303693
-0.456808
0.770799
0.441183
-1.04548
-0.829989
-0.0244712
0.0342974
-0.040168
0.0168988
-0.0617465
-0.0228358
0.0223734
-0.00869107
0.000512708
0.0416431
0.0136007
-0.0491082
1.64898
-0.0100035
0.0331235
-1.34193
0.373144
-1.47561
-0.531023
-0.0470392
0.00493842
-0.00885806
-0.029447
0.0139523
-0.0405929
0.05015
-0.0076046
0.458611
-0.624405
-0.848809
0.601704
-0.0570857
-1.07696
-0.308294
-0.0771099
-0.036046
-1.08016
-0.701124
-0.0146436
-0.05154
0.0226241
0.0986898
-0.308755
0.0357485
0.0183466
-0.0354825
1.38179
-0.0139005
0.0300863
-0.0139081
-0.167156
2.41112
0.13697
-0.234744
-0.554049
-0.17512
-0.683872
-0.00494029
0.133097
-0.128157
-0.0096993
0.141224
-0.136465
-0.0149131
0.153879
-0.148665
-0.0207241
0.163991
-0.15818
-0.0270446
0.173331
-0.16701
-0.0340124
0.181437
-0.174469
-0.0414959
0.189111
-0.181627
-0.0495929
0.196344
-0.188247
0.203519
-0.195433
-0.0576784
-0.00427755
0.137375
-0.00867776
0.145624
-0.01327
0.158471
-0.0183755
0.169097
-0.0238718
0.178827
-0.0299071
0.187472
-0.0363861
0.19559
-0.0433066
0.203264
0.210691
-0.0504786
-0.00389385
0.141269
-0.00780613
0.149536
-0.0118497
0.162515
-0.0162537
0.173501
-0.0209863
0.18356
-0.0261347
0.19262
-0.0316399
0.201095
-0.0374612
0.209086
0.216736
-0.043506
-0.00359243
0.144861
-0.00701495
0.152959
-0.0104893
0.165989
-0.014205
0.177216
-0.0181938
0.187548
-0.02251
0.196937
-0.0271142
0.205699
-0.0319774
0.213949
0.221831
-0.0370732
-0.00329578
0.148157
-0.00619484
0.155858
-0.00907403
0.168868
-0.0121125
0.180255
-0.0153642
0.1908
-0.0188801
0.200453
-0.0226508
0.20947
-0.0266641
0.217962
0.226079
-0.0309114
-0.00287628
0.151033
-0.00524537
0.158227
-0.00752606
0.171149
-0.00989003
0.182619
-0.0124138
0.193324
-0.0151521
0.203191
-0.0181021
0.21242
-0.0212686
0.221129
0.229477
-0.0246663
-0.00218504
0.153218
-0.00407323
0.160115
-0.00577758
0.172854
-0.00749451
0.184336
-0.00930212
0.195132
-0.011267
0.205156
-0.0134171
0.21457
-0.0157586
0.223471
0.232038
-0.0183197
-0.00129637
0.154514
-0.00272744
0.161546
-0.00385952
0.173986
-0.0049208
0.185397
-0.00601971
0.196231
-0.00723416
0.20637
-0.00859514
0.215931
-0.010129
0.225004
0.233718
-0.0118097
-0.000438169
0.154953
-0.00133391
0.162442
-0.00183853
0.17449
-0.00222848
0.185787
-0.00261658
0.196619
-0.00308077
0.206834
-0.00367857
0.216529
-0.00442979
0.225756
0.234664
-0.00537566
0.000307225
0.154645
3.38596e-05
0.162715
0.000230593
0.174294
0.000548527
0.185469
0.000881234
0.196286
0.00113392
0.206582
0.00126498
0.216398
0.00123
0.225791
0.234879
0.00101481
0.000935424
0.15371
0.00140364
0.162247
0.00236867
0.173329
0.00339825
0.18444
0.00442743
0.195257
0.00536485
0.205644
0.00618237
0.21558
0.00682878
0.225144
0.234444
0.00726462
0.00158813
0.152122
0.00293645
0.160899
0.00464915
0.171616
0.00634074
0.182748
0.00798949
0.193608
0.00956271
0.204071
0.011013
0.21413
0.0123244
0.223833
0.233389
0.0133791
0.00265526
0.149467
0.00486731
0.158687
0.00714747
0.169336
0.00935439
0.180541
0.0115214
0.191441
0.0136199
0.201973
0.0156271
0.212122
0.0175014
0.221958
0.231663
0.0192274
0.00404956
0.145417
0.006991
0.155745
0.00970449
0.166622
0.0123179
0.177928
0.0148983
0.188861
0.0174246
0.199446
0.0198838
0.209663
0.0222344
0.219608
0.229442
0.0244551
0.00530603
0.140111
0.0089182
0.152133
0.012041
0.163499
0.0150048
0.174964
0.0179327
0.185933
0.0208351
0.196544
0.02369
0.206808
0.0264502
0.216847
0.2268
0.029092
0.00611304
0.133998
0.0103199
0.147926
0.0138445
0.159975
0.0171679
0.171641
0.0204453
0.182655
0.0237036
0.193285
0.0269299
0.203582
0.0300875
0.21369
0.223731
0.0331567
0.00605018
0.127948
0.0108698
0.143107
0.0148507
0.155994
0.0186049
0.167886
0.0222824
0.178978
0.0259298
0.189638
0.0295333
0.199979
0.0330819
0.210141
0.220303
0.0365098
0.00513596
0.122812
0.0104189
0.137824
0.0149696
0.151443
0.0192465
0.163609
0.0233918
0.174832
0.0274711
0.185559
0.0314969
0.195953
0.0354595
0.206178
0.216441
0.0393224
0.00414912
0.118663
0.00950712
0.132466
0.0144933
0.146457
0.0192616
0.158841
0.0238832
0.17021
0.0284219
0.18102
0.0329007
0.191474
0.0373367
0.201743
0.212036
0.0417409
0.00350424
0.115158
0.00865141
0.127319
0.013822
0.141286
0.0189368
0.153726
0.0239549
0.165192
0.0289103
0.176064
0.0338191
0.186565
0.0386864
0.196875
0.207214
0.0435088
0.00316493
0.111993
0.00803027
0.122453
0.0132064
0.13611
0.0185128
0.14842
0.023825
0.15988
0.0291371
0.170752
0.0344521
0.18125
0.0397631
0.191564
0.201935
0.0450419
0.0030307
0.108963
0.00767883
0.117805
0.0127862
0.131003
0.0181635
0.143043
0.0236716
0.154372
0.0292734
0.16515
0.0349515
0.175572
0.04068
0.185836
0.196128
0.0464868
0.00321252
0.10575
0.00767787
0.11334
0.0126634
0.126017
0.0180177
0.137688
0.023647
0.148742
0.0294945
0.159303
0.0355311
0.169535
0.0416636
0.179703
0.18995
0.0478417
0.00400355
0.101746
0.00813616
0.109207
0.012887
0.121266
0.0181543
0.132421
0.0238688
0.143028
0.0299438
0.153228
0.0363798
0.163099
0.0429266
0.173157
0.184104
0.0487729
0.00489189
0.00857741
0.0132053
0.0185425
0.024478
0.0309199
0.0380596
0.0461289
0.0551126
-0.123185
-0.000670341
0.123855
-0.122375
-0.000809794
-0.121385
-0.000989835
-0.120164
-0.00122096
-0.118671
-0.00149342
-0.11686
-0.00181084
-0.114684
-0.00217577
-0.112099
-0.00258476
-0.109057
-0.00304235
-0.105522
-0.00353544
-0.101461
-0.0040612
-0.0968518
-0.00460871
-0.0916841
-0.00516764
-0.0859517
-0.0057325
-0.0796778
-0.00627384
-0.0729248
-0.00675302
-0.0658006
-0.00712406
-0.0584177
-0.00738299
-0.050885
-0.00753256
-0.0433124
-0.00757266
-0.0358123
-0.00749998
-0.0285043
-0.00730804
-0.0215174
-0.00698677
-0.0149907
-0.00652675
-0.00896779
-0.00602274
-0.00331144
-0.00565636
0.00218764
-0.00549893
0.00773264
-0.005545
0.0135031
-0.0057703
0.0195079
-0.00600476
0.025626
-0.00611795
0.0317611
-0.00613509
0.0378581
-0.0060968
0.0438806
-0.00602244
0.0497941
-0.00591327
0.0555666
-0.00577254
0.0611681
-0.00560132
0.066567
-0.00539889
0.0717364
-0.00516919
0.0766474
-0.00491106
0.0812895
-0.00464185
0.0856657
-0.00437627
0.089781
-0.00411512
0.0936448
-0.00386382
0.0972645
-0.00361947
0.100655
-0.00339035
0.103826
-0.00317065
0.106793
-0.00296695
0.109566
-0.00277313
0.112155
-0.00258877
0.114567
-0.00241209
0.116803
-0.00223614
0.118873
-0.00206971
0.120779
-0.00190606
0.12253
-0.0017509
0.124135
-0.00160513
0.1256
-0.00146507
0.12694
-0.0013402
-0.00121658
-0.118891
-0.00236013
0.120581
-0.117025
-0.00267565
-0.114967
-0.00304806
-0.112702
-0.00348546
-0.110221
-0.00397487
-0.107501
-0.00453045
-0.104534
-0.00514325
-0.101302
-0.00581702
-0.0977969
-0.00654717
-0.0940103
-0.00732205
-0.089935
-0.00813661
-0.0855684
-0.00897531
-0.08091
-0.00982602
-0.0759805
-0.0106621
-0.0708082
-0.0114462
-0.0654233
-0.0121379
-0.0598406
-0.0127067
-0.0540667
-0.013157
-0.0481121
-0.013487
-0.0420012
-0.0136837
-0.0357576
-0.0137434
-0.0293964
-0.0136693
-0.0229104
-0.0134727
-0.016245
-0.0131922
-0.00936235
-0.0129052
-0.00232651
-0.0126922
0.00474453
-0.0125699
0.0117375
-0.0125381
0.0185536
-0.0125862
0.0252067
-0.0126579
0.0317664
-0.0126775
0.0382543
-0.012623
0.0446565
-0.0124989
0.0509529
-0.0123188
0.0571198
-0.0120801
0.0631371
-0.0117898
0.068983
-0.0114472
0.0746436
-0.0110595
0.0801018
-0.0106273
0.0853481
-0.0101573
0.090364
-0.00965761
0.0951214
-0.00913367
0.0996045
-0.008598
0.103794
-0.00805377
0.107682
-0.00750693
0.111263
-0.00697149
0.114543
-0.00645053
0.117525
-0.00594922
0.12023
-0.00547782
0.122676
-0.00503443
0.124885
-0.00462132
0.126879
-0.00423012
0.128677
-0.00386771
0.130306
-0.00353469
0.13178
-0.00322477
0.133121
-0.00294647
0.13434
-0.00268368
0.135449
-0.00244956
-0.00223234
-0.12677
-0.00434155
0.128751
-0.124582
-0.00486341
-0.122175
-0.00545502
-0.119543
-0.00611771
-0.116663
-0.00685509
-0.113526
-0.00766727
-0.110124
-0.00854547
-0.106457
-0.0094842
-0.102523
-0.0104804
-0.0983279
-0.0115177
-0.0938782
-0.0125863
-0.0891883
-0.0136652
-0.0842769
-0.0147374
-0.0791633
-0.0157757
-0.073856
-0.0167534
-0.0683506
-0.0176434
-0.0626217
-0.0184357
-0.0566655
-0.0191132
-0.0504876
-0.0196648
-0.0440941
-0.0200773
-0.0374879
-0.0203495
-0.0306729
-0.0204844
-0.0236455
-0.0205001
-0.0164097
-0.020428
-0.00900536
-0.0203096
-0.00150667
-0.020191
0.0060194
-0.0200959
0.0135127
-0.0200313
0.0209113
-0.0199848
0.0281783
-0.0199249
0.0353154
-0.0198147
0.0423264
-0.0196339
0.0492049
-0.0193774
0.0559305
-0.0190444
0.0624889
-0.0186385
0.0688621
-0.0181629
0.0750333
-0.0176183
0.080988
-0.0170141
0.086713
-0.0163523
0.0921906
-0.015635
0.0974089
-0.0148758
0.102355
-0.0140793
0.107017
-0.0132601
0.111387
-0.0124239
0.115471
-0.0115916
0.119268
-0.0107685
0.122789
-0.0099708
0.126045
-0.00920528
0.129048
-0.00848107
0.131812
-0.00779815
0.134355
-0.00716439
0.136701
-0.00657617
0.13887
-0.0060373
0.140872
-0.00553653
0.142717
-0.00506976
0.14441
-0.00463918
0.145966
-0.00423936
0.147381
-0.00386529
-0.00351622
-0.132373
-0.00645471
0.134487
-0.130056
-0.00718069
-0.127511
-0.00800017
-0.124723
-0.00890582
-0.121681
-0.00989649
-0.118377
-0.0109713
-0.114807
-0.0121164
-0.110963
-0.0133282
-0.106854
-0.0145885
-0.102488
-0.0158838
-0.0978757
-0.0171989
-0.0930212
-0.0185198
-0.0879392
-0.0198193
-0.0826301
-0.0210849
-0.0770972
-0.0222862
-0.0713292
-0.0234114
-0.0653264
-0.0244384
-0.0590897
-0.02535
-0.0526184
-0.0261361
-0.0459103
-0.0267855
-0.0389622
-0.0272976
-0.0317726
-0.027674
-0.0243452
-0.0279274
-0.0166988
-0.0280744
-0.00886707
-0.0281413
-0.000904041
-0.028154
0.00712387
-0.0281238
0.0151498
-0.0280573
0.0231131
-0.0279481
0.0309689
-0.0277808
0.0386911
-0.0275368
0.0462612
-0.0272041
0.0536598
-0.026776
0.060869
-0.0262537
0.0678659
-0.0256353
0.0746347
-0.0249318
0.0811599
-0.0241435
0.0874185
-0.0232727
0.0933974
-0.0223311
0.0990886
-0.0213262
0.104482
-0.0202693
0.109573
-0.0191698
0.114359
-0.0180462
0.118846
-0.0169112
0.123038
-0.0157833
0.126953
-0.014684
0.1306
-0.0136177
0.134
-0.0126047
0.137159
-0.0116403
0.1401
-0.0107391
0.142834
-0.00989824
0.145372
-0.00911443
0.147715
-0.00838003
0.149875
-0.00769702
0.151859
-0.00705399
0.153675
-0.00645485
0.155327
-0.00589158
0.156824
-0.00536173
-0.00487252
-0.141306
-0.00869363
0.143545
-0.138839
-0.00964755
-0.136135
-0.0107047
-0.133176
-0.0118647
-0.129949
-0.0131232
-0.126447
-0.0144732
-0.122659
-0.0159045
-0.11859
-0.0173979
-0.114237
-0.0189414
-0.109605
-0.020516
-0.1047
-0.0221037
-0.0995302
-0.0236893
-0.0941024
-0.0252471
-0.0884251
-0.0267621
-0.0824968
-0.0282145
-0.0763222
-0.029586
-0.0699017
-0.0308589
-0.0632315
-0.0320202
-0.0563136
-0.033054
-0.0491424
-0.0339567
-0.0417222
-0.0347178
-0.0340559
-0.0353405
-0.0261549
-0.0358284
-0.0180395
-0.0361899
-0.00974543
-0.0364354
-0.00132206
-0.0365774
0.00717587
-0.0366217
0.0156903
-0.0365717
0.0241639
-0.0364217
0.0325455
-0.0361624
0.0407924
-0.0357837
0.0488665
-0.0352782
0.0567335
-0.0346431
0.0643662
-0.0338864
0.0717412
-0.0330103
0.0788312
-0.0320218
0.0856207
-0.0309331
0.0920996
-0.0297516
0.0982593
-0.0284908
0.104101
-0.0271679
0.109622
-0.0257901
0.114835
-0.0243835
0.119749
-0.0229596
0.124379
-0.0215413
0.128741
-0.0201458
0.132846
-0.018789
0.136713
-0.0174847
0.14035
-0.0162414
0.143769
-0.0150592
0.146976
-0.0139462
0.149976
-0.0128986
0.152771
-0.0119088
0.155366
-0.0109754
0.157759
-0.0100904
0.159963
-0.00925727
0.16198
-0.00847216
0.163821
-0.00773241
0.165496
-0.00703729
-0.00638614
-0.148781
-0.0109988
0.151087
-0.146254
-0.0121747
-0.143493
-0.0134659
-0.140479
-0.0148791
-0.137194
-0.0164078
-0.133636
-0.0180318
-0.129792
-0.0197476
-0.125659
-0.0215312
-0.121232
-0.0233683
-0.116515
-0.0252332
-0.111507
-0.027112
-0.106212
-0.0289847
-0.100628
-0.0308306
-0.094758
-0.0326321
-0.0886043
-0.0343682
-0.0821663
-0.036024
-0.0754427
-0.0375825
-0.0684387
-0.0390242
-0.0611497
-0.040343
-0.0535793
-0.0415271
-0.0457281
-0.0425689
-0.0376078
-0.0434608
-0.0292324
-0.0442038
-0.0206285
-0.0447938
-0.0118333
-0.0452306
-0.00289432
-0.0455164
0.00613389
-0.0456499
0.0151939
-0.0456317
0.0242258
-0.0454537
0.033171
-0.0451076
0.0419754
-0.044588
0.0505841
-0.043887
0.058952
-0.0430109
0.0670417
-0.0419762
0.0748181
-0.0407867
0.082261
-0.0394647
0.0893544
-0.0380265
0.0960837
-0.036481
0.102456
-0.034863
0.108477
-0.0331894
0.114167
-0.0314801
0.11954
-0.0297556
0.124619
-0.0280387
0.12942
-0.0263426
0.133963
-0.024689
0.13826
-0.023086
0.14232
-0.0215444
0.146149
-0.0200709
0.149757
-0.0186669
0.153144
-0.0173336
0.156316
-0.0160708
0.159274
-0.0148666
0.162022
-0.0137237
0.164568
-0.0126359
0.166918
-0.0116072
0.169073
-0.0106268
0.171042
-0.00970228
0.17284
-0.00883528
-0.00801454
-0.157846
-0.0133873
0.160234
-0.155232
-0.0147887
-0.152378
-0.0163199
-0.149271
-0.0179866
-0.145898
-0.0197801
-0.142247
-0.0216834
-0.138309
-0.023685
-0.134077
-0.0257631
-0.129553
-0.0278921
-0.124726
-0.0300602
-0.119598
-0.0322404
-0.114165
-0.0344174
-0.108422
-0.0365738
-0.102366
-0.0386878
-0.0959952
-0.0407394
-0.0893076
-0.0427116
-0.082297
-0.0445931
-0.0749738
-0.0463475
-0.0673313
-0.0479854
-0.0593762
-0.0494822
-0.0511081
-0.050837
-0.0425419
-0.052027
-0.0336965
-0.0530492
-0.0245971
-0.0538932
-0.0152917
-0.0545361
-0.00582685
-0.0549812
0.00373695
-0.0552138
0.0133436
-0.0552384
0.0229297
-0.0550398
0.0324288
-0.0546067
0.0417792
-0.0539385
0.0509047
-0.0530124
0.0597492
-0.0518555
0.0682687
-0.0504958
0.0764206
-0.0489386
0.0841909
-0.0472351
0.0915685
-0.0454041
0.0985354
-0.0434479
0.105119
-0.0414463
0.111338
-0.0394084
0.117225
-0.0373673
0.122802
-0.0353329
0.128099
-0.033336
0.133134
-0.0313774
0.137928
-0.0294831
0.142488
-0.027646
0.14682
-0.0258758
0.15092
-0.0241719
0.154797
-0.022543
0.15845
-0.0209869
0.161876
-0.0194973
0.165087
-0.0180775
0.168076
-0.0167123
0.170847
-0.0154073
0.173403
-0.0141629
0.175751
-0.0129755
0.1779
-0.0118507
0.179855
-0.0107905
-0.00978661
-0.166865
-0.0158159
0.169294
-0.16423
-0.0174239
-0.161369
-0.0191814
-0.158255
-0.0210999
-0.154883
-0.0231521
-0.151234
-0.0253328
-0.147309
-0.0276102
-0.143089
-0.0299829
-0.13856
-0.0324205
-0.133735
-0.0348856
-0.128591
-0.0373844
-0.123116
-0.0398919
-0.117306
-0.0423838
-0.111144
-0.0448498
-0.104625
-0.0472582
-0.0977385
-0.0495987
-0.0904815
-0.05185
-0.0828822
-0.0539468
-0.0749305
-0.0559371
-0.0666246
-0.0577881
-0.0579589
-0.0595027
-0.0489598
-0.0610262
-0.0396523
-0.0623568
-0.0300385
-0.063507
-0.020211
-0.0643636
-0.0102049
-0.0649873
-0.000104147
-0.0653145
0.0100545
-0.0653971
0.0201945
-0.0651798
0.0302461
-0.0646583
0.0401543
-0.0638467
0.0497934
-0.0626515
0.0591044
-0.0611665
0.0680672
-0.0594586
0.0765919
-0.0574633
0.0847105
-0.0553537
0.0924317
-0.0531253
0.0996737
-0.05069
0.10652
-0.0482926
0.113007
-0.0458958
0.119169
-0.0435288
0.125046
-0.0412097
0.130643
-0.0389336
0.135996
-0.0367307
0.141148
-0.0346345
0.146055
-0.0325535
0.15075
-0.0305703
0.155201
-0.0286232
0.159385
-0.0267265
0.163318
-0.0249204
0.167011
-0.0231898
0.170466
-0.0215334
0.173683
-0.0199288
0.176663
-0.0183874
0.179412
-0.0169121
0.181937
-0.0155007
0.184239
-0.0141519
0.186336
-0.0128878
-0.0116974
-0.177533
0.179938
-0.0182203
-0.174881
-0.0200761
-0.171992
-0.0220703
-0.168844
-0.0242478
-0.16545
-0.0265461
-0.161785
-0.0289984
-0.157831
-0.0315641
-0.153614
-0.0342002
-0.149108
-0.0369264
-0.144219
-0.0397748
-0.139055
-0.0425484
-0.133533
-0.0454139
-0.127604
-0.0483127
-0.121339
-0.051114
-0.114636
-0.0539617
-0.107609
-0.0566261
-0.100152
-0.0593062
-0.0922396
-0.0618595
-0.0839016
-0.0642752
-0.0752201
-0.0664696
-0.0661505
-0.0685722
-0.0567805
-0.0703962
-0.047054
-0.0720832
-0.0369346
-0.0736264
-0.0265922
-0.074706
-0.016063
-0.0755165
-0.00547962
-0.0758979
0.00521697
-0.0760937
0.0159052
-0.075868
0.0264026
-0.0751557
0.0368188
-0.074263
0.0469104
-0.0727431
0.0566156
-0.0708718
0.0659946
-0.0688376
0.0748996
-0.0663684
0.0833568
-0.0638109
0.0913099
-0.0610784
0.0987922
-0.0581723
0.106019
-0.0555191
0.112848
-0.052725
0.119372
-0.050053
0.125677
-0.0475149
0.131713
-0.0449693
0.137551
-0.0425694
0.143175
-0.0402578
0.148567
-0.0379455
0.153734
-0.0357381
0.158593
-0.0334815
0.163299
-0.0314324
0.167746
-0.029368
0.171906
-0.0273499
0.175775
-0.0254024
0.17935
-0.0235032
0.182703
-0.0217411
0.185788
-0.0199968
0.188603
-0.0183161
0.191145
-0.0166935
0.193406
-0.0151492
-0.0137242
-0.079455
0.00888133
-0.0870507
0.00759563
-0.0935501
0.00649929
-0.0993545
0.00580439
-0.104865
0.0055102
-0.11022
0.00535474
-0.115659
0.00543942
-0.121495
0.00583566
-0.127616
0.00612097
-0.133316
0.00570051
-0.137764
0.00444818
-0.140502
0.00273791
-0.14154
0.00103755
-0.141345
-0.000195095
-0.140649
-0.000696384
-0.139914
-0.000735032
-0.139244
-0.000670194
-0.138558
-0.000685994
-0.137696
-0.00086174
-0.136412
-0.00128441
-0.134421
-0.00199059
-0.131698
-0.00272346
-0.128664
-0.00303344
-0.126043
-0.00262143
-0.00218762
-0.0842835
0.0164912
-0.0918058
0.0151179
-0.0990223
0.0137157
-0.105918
0.0127
-0.112519
0.012111
-0.118934
0.0117701
-0.125137
0.0116426
-0.130907
0.0116049
-0.135996
0.0112105
-0.140296
0.0100007
-0.143883
0.00803474
-0.146785
0.00563978
-0.14896
0.00321299
-0.150311
0.00115605
-0.150773
-0.00023506
-0.150445
-0.00106316
-0.149489
-0.00162597
-0.148003
-0.00217173
-0.146026
-0.00283852
-0.143585
-0.00372551
-0.140734
-0.00484219
-0.137402
-0.00605551
-0.13328
-0.00715491
-0.12779
-0.00811204
-0.00939668
-0.0920566
0.0253345
-0.100488
0.0235491
-0.108553
0.021781
-0.116198
0.020345
-0.12336
0.0192733
-0.130043
0.0184526
-0.136166
0.0177653
-0.141574
0.0170135
-0.146217
0.0158527
-0.150232
0.0140166
-0.153742
0.0115447
-0.15679
0.00868694
-0.159359
0.00578256
-0.161343
0.00313947
-0.162556
0.00097832
-0.162894
-0.000725357
-0.162376
-0.00214407
-0.161062
-0.00348562
-0.159003
-0.00489688
-0.156239
-0.00648962
-0.152787
-0.00829394
-0.148567
-0.0102757
-0.143357
-0.0123648
-0.136827
-0.0146423
-0.0174724
-0.099493
0.0351161
-0.108682
0.0327382
-0.117392
0.0304905
-0.125587
0.0285403
-0.133205
0.0268909
-0.140198
0.0254462
-0.146497
0.0240634
-0.15203
0.0225466
-0.156818
0.0206415
-0.160987
0.0181851
-0.164656
0.0152139
-0.167879
0.0119093
-0.170618
0.00852237
-0.172776
0.0052969
-0.17418
0.00238208
-0.174706
-0.000199489
-0.174292
-0.00255788
-0.172938
-0.00483908
-0.17065
-0.00718542
-0.167446
-0.0096931
-0.163294
-0.0124457
-0.158099
-0.0154714
-0.151663
-0.0188007
-0.143784
-0.0225214
-0.0267696
-0.106716
0.0456404
-0.116631
0.0426531
-0.12595
0.0398098
-0.134654
0.037244
-0.142691
0.034928
-0.150025
0.0327798
-0.156613
0.0306513
-0.162433
0.0283668
-0.167528
0.0257367
-0.17199
0.0226475
-0.175909
0.0191327
-0.179322
0.0153216
-0.182184
0.0113843
-0.184401
0.00751464
-0.185852
0.00383269
-0.186403
0.000351176
-0.185971
-0.00298892
-0.184527
-0.00628338
-0.182047
-0.00966593
-0.17851
-0.0132294
-0.173889
-0.017067
-0.16813
-0.0212306
-0.161167
-0.0257633
-0.152972
-0.0307168
-0.0361966
-0.113832
0.0566518
-0.124373
0.0531948
-0.134259
0.0496951
-0.14346
0.0464455
-0.151935
0.043403
-0.159664
0.0405085
-0.166619
0.037606
-0.172805
0.0345526
-0.178269
0.031201
-0.183069
0.0274473
-0.187271
0.0233347
-0.190882
0.018933
-0.193865
0.0143671
-0.196136
0.00978551
-0.197569
0.00526548
-0.198067
0.000849129
-0.197548
-0.00350794
-0.195938
-0.0078935
-0.193201
-0.0124028
-0.189288
-0.0171426
-0.184168
-0.0221862
-0.177803
-0.027596
-0.170157
-0.0334095
-0.161224
-0.0396496
-0.0463341
-0.120658
0.0684678
-0.131909
0.0644457
-0.142382
0.0601675
-0.152098
0.0561618
-0.161038
0.052343
-0.169201
0.048672
-0.176561
0.0449653
-0.183145
0.0411367
-0.188992
0.037048
-0.194143
0.0325986
-0.198642
0.0278335
-0.202482
0.0227734
-0.205605
0.0174898
-0.207927
0.0121072
-0.209358
0.00669657
-0.209797
0.00128786
-0.209158
-0.00414622
-0.207376
-0.0096756
-0.20439
-0.0153887
-0.200169
-0.0213643
-0.194668
-0.0276873
-0.187887
-0.0343769
-0.179835
-0.041461
-0.17058
-0.0489049
-0.0566796
-0.127348
0.0813291
-0.139363
0.0764605
-0.150401
0.0712061
-0.160639
0.0663991
-0.170055
0.0617594
-0.178678
0.0572953
-0.186462
0.0527492
-0.193447
0.0481218
-0.199697
0.043298
-0.205198
0.0380991
-0.209994
0.0326295
-0.214086
0.0268658
-0.217365
0.0207682
-0.219771
0.0145133
-0.221206
0.00813171
-0.221581
0.00166307
-0.220823
-0.00490421
-0.218859
-0.0116401
-0.215627
-0.0186208
-0.211102
-0.0258888
-0.205264
-0.0335251
-0.198125
-0.0415159
-0.189689
-0.0498974
-0.180038
-0.0585565
-0.0674234
-0.134436
0.0951449
-0.146959
0.088983
-0.158392
0.0826397
-0.169106
0.0771123
-0.178999
0.0716525
-0.188125
0.0664218
-0.196348
0.0609721
-0.203748
0.0555211
-0.210394
0.0499447
-0.21626
0.0439644
-0.22134
0.0377102
-0.225656
0.0311814
-0.22914
0.024252
-0.231655
0.017028
-0.233097
0.00957452
-0.233429
0.00199509
-0.232549
-0.00578489
-0.230429
-0.0137602
-0.226947
-0.0221021
-0.222103
-0.0307327
-0.215983
-0.0396459
-0.208604
-0.0488947
-0.199957
-0.0585441
-0.190308
-0.0682053
-0.0777939
1.02094
0.0186813
0.228788
-0.247432
-0.845125
0.755567
0.0895581
0.296515
-0.379209
0.0826939
0.363073
-0.414605
0.0515322
0.0756697
-0.524728
0.449058
-0.406881
0.705295
-0.298415
0.506506
-0.291332
-0.215172
-0.0536548
-0.205023
0.258677
4.08428
-2.64942
-1.43485
-0.75798
1.58114
-0.823158
-0.850468
0.249895
0.600572
0.807891
-1.4994
0.691504
-0.438233
-0.502656
0.940887
0.133706
-0.13606
0.00235462
1.55799
-1.40735
-0.15064
-0.677988
-0.167138
0.139166
-0.0204464
-0.118719
0.222805
0.214862
0.122263
0.128929
-0.251193
-0.370412
0.218443
0.151969
1.90799
0.575821
-2.48381
-0.430229
0.810177
-0.379949
1.13666
-0.884582
-0.252073
-0.855825
0.226937
0.628888
0.981439
0.155216
-1.08542
0.49842
0.587003
-0.643674
0.0584235
0.58525
1.9392
-1.2354
-0.703792
-0.0386677
-0.150835
0.189503
0.339479
0.392031
-0.731511
0.829642
-1.74183
0.912189
0.561467
0.80452
-1.36599
1.03999
-2.22117
1.18118
-0.302899
-0.0683027
0.371202
0.590173
0.896999
-1.48717
-0.91505
0.476819
-2.32611
0.585372
1.74074
-0.351813
0.67691
-0.325097
0.602305
0.0349405
-0.637246
0.790819