/*--------------------------------*- C++ -*----------------------------------*\
  =========                 |
  \\      /  F ield         | OpenFOAM: The Open Source CFD Toolbox
   \\    /   O peration     | Website:  https://openfoam.org
    \\  /    A nd           | Version:  10
     \\/     M anipulation  |
\*---------------------------------------------------------------------------*/
FoamFile
{
    format      ascii;
    class       volVectorField;
    location    "450";
    object      U;
}
// * * * * * * * * * * * * * * * * * * * * * * * * * * * * * * * * * * * * * //

dimensions      [0 1 -1 0 0 0 0];

internalField   nonuniform List<vector> 
10435
(
(1.49284 0.093135 -6.98781e-23)
(1.4847 0.339947 4.72005e-22)
(3.17751 -0.207634 -5.11962e-21)
(1.86572 0.00118498 1.52729e-21)
(2.14838 0.264771 -3.37065e-21)
(2.69159 0.306264 1.63205e-20)
(3.20035 -0.221859 -1.87036e-20)
(3.27394 -0.205337 1.33913e-20)
(3.26825 -0.263712 6.03479e-20)
(3.00179 0.0334219 -8.69881e-21)
(1.62696 0.310545 -3.15385e-22)
(2.44272 -0.208138 1.08448e-20)
(3.04212 -0.262328 1.51015e-20)
(0.880342 0.171689 4.01358e-21)
(0.971956 0.187688 5.27774e-21)
(3.23274 -0.209141 -1.93405e-21)
(0.794565 0.149688 -1.32206e-21)
(2.97347 -0.131391 4.60707e-20)
(3.21797 -0.33125 -2.59556e-20)
(1.56196 0.0639265 3.81945e-22)
(3.25458 -0.212387 8.79775e-21)
(1.86895 -0.102072 -1.9677e-21)
(3.20707 -0.189167 5.70397e-20)
(2.87458 -0.618092 -1.55253e-20)
(3.06158 -0.0269433 1.08096e-20)
(0.222974 0.351394 2.5363e-22)
(0.0587585 0.0248119 7.24558e-22)
(3.12236 -0.241549 9.88972e-21)
(0.261088 -0.11553 -1.21502e-22)
(2.99498 -0.0259196 5.4314e-20)
(3.02711 -0.0813148 1.72446e-20)
(1.70813 0.303342 -2.20532e-23)
(3.2822 -0.207306 -3.02803e-20)
(0.503711 -0.116615 -8.23794e-22)
(3.2127 -0.318988 1.50075e-20)
(1.28119 0.42322 -8.46137e-22)
(3.17503 -0.287685 2.1504e-20)
(0.168195 0.197115 -2.56342e-21)
(0.364729 0.346502 8.49677e-23)
(3.12886 -0.474268 7.9427e-21)
(2.89998 0.118547 -4.38646e-20)
(3.20198 -0.208324 -1.50131e-20)
(0.606986 0.340825 3.92422e-21)
(1.69702 0.0746728 -1.07356e-21)
(3.14228 -0.226665 -3.50342e-20)
(3.00594 -0.585161 3.22025e-20)
(2.80625 0.238796 -2.09048e-20)
(0.44729 0.304815 1.42066e-20)
(3.27237 -0.190342 2.19029e-20)
(1.85517 -0.221253 -1.93955e-21)
(3.26733 -0.220069 -2.46142e-21)
(2.78698 0.120358 9.7726e-20)
(0.410161 0.359458 4.39077e-22)
(0.348444 -0.191808 -8.74184e-23)
(0.318265 0.351765 -1.5136e-22)
(0.209043 -0.13805 2.74338e-22)
(3.09771 -0.379941 -6.29847e-20)
(0.175957 0.119859 -1.11062e-21)
(0.67765 0.023513 1.11665e-21)
(3.13371 -0.432244 4.04699e-20)
(0.363335 0.36575 -2.73226e-22)
(1.41641 0.364123 -6.71918e-22)
(0.199561 0.0204801 1.36314e-21)
(2.59869 0.138164 -4.82488e-21)
(3.18207 -0.19404 -7.44178e-20)
(3.15421 -0.179938 3.86873e-20)
(0.625207 -0.0239293 -1.77254e-21)
(0.362794 0.113561 -5.05516e-21)
(3.2596 -0.203888 -1.68447e-20)
(2.70177 -0.637363 1.71668e-21)
(0.300446 -0.210585 2.33532e-22)
(0.180056 0.298839 -5.10943e-23)
(0.696185 0.444623 -9.13233e-21)
(3.17118 -0.16589 -5.27407e-20)
(1.06669 0.201506 2.90294e-21)
(0.749702 0.407399 -3.97862e-22)
(2.53516 -0.613033 3.1221e-20)
(3.21107 -0.220192 4.63783e-20)
(3.28943 -0.194285 3.95106e-21)
(1.10608 0.109771 -1.35404e-20)
(2.06498 -0.379748 2.8569e-21)
(1.42463 0.0509356 1.34009e-22)
(0.454683 0.36972 -4.52882e-22)
(0.391233 -0.178565 5.94911e-23)
(2.18609 -0.455337 -6.63208e-21)
(1.26235 0.372016 -6.38615e-21)
(1.38016 0.265461 -2.65487e-22)
(1.67023 0.160824 2.30908e-22)
(1.13806 0.325476 1.53767e-21)
(1.45376 0.238812 -1.57478e-22)
(1.74922 0.137019 1.90207e-23)
(1.84346 0.11082 -3.2576e-22)
(1.49154 0.0226461 1.2675e-22)
(1.21926 0.315932 -4.85441e-21)
(1.52529 0.212063 -1.76906e-22)
(1.21003 0.450653 -2.02933e-21)
(1.9482 0.0696176 1.47349e-21)
(1.02448 0.284409 -2.99689e-21)
(0.757299 0.0553351 1.15587e-21)
(2.06311 0.0944711 -4.79256e-21)
(1.07918 0.305801 -4.84084e-21)
(2.15486 0.399747 -1.45743e-21)
(1.30059 0.292858 2.00402e-21)
(1.59696 0.185648 2.88632e-22)
(2.2821 0.398284 5.31475e-22)
(1.77663 0.0408197 -5.00497e-22)
(1.55637 -0.0103414 3.68334e-22)
(1.95644 -0.304831 3.44662e-21)
(2.33496 -0.51943 -1.41536e-20)
(1.19318 0.109567 2.56029e-21)
(1.76826 -0.155486 -8.86049e-22)
(2.03653 0.392287 -6.40889e-22)
(1.35321 0.0753596 2.14843e-21)
(1.27652 0.0971448 2.22889e-21)
(1.94037 0.139388 4.17238e-22)
(1.78158 -0.0506546 7.15671e-22)
(2.18083 0.0473527 -2.77979e-21)
(1.33812 0.344798 6.33177e-22)
(1.62219 0.243581 -3.28e-22)
(2.18373 -0.0544682 -1.05088e-21)
(2.30126 -0.005715 -1.25649e-20)
(0.77496 0.476781 5.352e-22)
(1.40918 0.316761 -2.40422e-22)
(1.00529 0.533017 8.16662e-21)
(1.70802 0.388514 1.01694e-22)
(0.296828 0.360844 -3.74549e-22)
(2.07056 -0.000183827 6.28019e-21)
(0.848921 0.501744 9.08253e-22)
(2.18906 0.148836 -7.2785e-21)
(0.0758787 0.227469 2.62209e-22)
(0.926393 0.517637 -3.21755e-21)
(1.61962 0.38463 -1.0963e-21)
(3.24904 -0.223924 -2.30605e-20)
(1.0171 0.101799 -8.86866e-21)
(0.163726 0.251492 5.7788e-24)
(0.598739 0.396602 -9.56987e-25)
(1.14791 0.526574 -3.52609e-21)
(1.96651 -0.0522846 -2.41711e-22)
(1.55033 0.26465 5.7123e-23)
(1.70287 -0.00712718 2.3381e-22)
(1.63065 0.0309652 -2.74751e-22)
(3.10435 -0.146031 -7.2766e-20)
(0.568888 -0.0612972 -3.0031e-21)
(2.6802 -0.0405628 6.03864e-20)
(1.96977 -0.165774 3.58454e-23)
(0.905068 0.377121 -1.16273e-20)
(1.07944 0.539627 1.17862e-21)
(2.64188 0.218133 -2.50141e-20)
(0.757937 0.237679 -5.94856e-21)
(2.67331 -0.15309 4.6155e-21)
(0.3891 0.326094 8.47295e-22)
(3.07448 -0.269057 3.60909e-20)
(1.48138 0.163094 -5.41264e-23)
(2.7858 -0.130593 4.0485e-20)
(2.82749 0.16476 -2.1368e-20)
(0.322474 0.342815 -6.59782e-22)
(1.80258 0.389025 2.65577e-21)
(1.47954 0.289315 8.48832e-23)
(2.92299 0.119103 -2.2584e-20)
(1.46986 0.396102 -2.95203e-22)
(2.94194 -0.196969 -8.98075e-21)
(0.930886 0.0895985 1.99031e-21)
(1.79391 0.207804 4.8819e-21)
(2.33922 -0.338625 3.8844e-21)
(1.16236 0.199259 -5.01845e-21)
(2.33704 0.0806523 3.06303e-20)
(3.28141 -0.230505 -5.27842e-20)
(2.19614 -0.168171 -3.62515e-21)
(2.60883 -0.425562 1.58499e-20)
(2.54608 0.0645823 -9.47568e-20)
(2.99356 0.0289865 2.58391e-20)
(0.647081 0.442867 1.47615e-21)
(0.0502695 -0.04301 -5.64982e-22)
(0.977418 0.378412 1.89318e-22)
(2.71491 -0.282163 -1.88561e-20)
(1.4035 0.414987 6.70428e-23)
(1.34911 0.392805 7.14462e-23)
(0.56064 0.203665 -2.41795e-21)
(1.69192 -0.0990187 4.44537e-22)
(0.312687 -0.0898301 1.11066e-22)
(1.55421 0.321559 -7.04739e-23)
(2.56021 0.351455 -1.7754e-21)
(2.55881 -0.170263 -3.76972e-20)
(0.346606 0.371769 -1.29776e-22)
(3.03342 -0.170125 9.24564e-21)
(0.551432 0.371053 -4.26675e-21)
(0.704035 0.426356 9.24141e-21)
(3.2292 -0.212342 -4.07686e-20)
(2.25803 0.262372 3.07351e-21)
(2.75023 0.0294467 -5.20043e-20)
(2.39255 -0.0865759 2.34581e-21)
(0.493217 0.379517 -3.91607e-22)
(0.100045 0.264633 -2.86543e-22)
(1.21366 0.501058 1.88455e-21)
(1.91325 0.393382 1.58819e-21)
(3.2454 -0.205954 2.22013e-21)
(0.731511 0.32888 -1.33936e-20)
(1.1826 0.392188 4.03368e-21)
(0.501195 0.260005 -1.44141e-20)
(3.21461 -0.233504 3.09627e-20)
(1.15021 0.262332 6.0552e-21)
(0.231464 0.231669 -9.38967e-22)
(3.09427 -0.243104 -3.06801e-21)
(0.222269 0.182115 -7.27961e-22)
(3.13629 -0.213093 -1.17965e-20)
(1.93084 0.213706 5.68778e-22)
(1.69772 0.226068 9.40546e-22)
(2.08105 -0.114353 -1.96317e-21)
(0.276992 -0.00613648 9.50716e-22)
(2.08231 -0.233742 -2.16346e-21)
(0.443695 0.368365 1.51887e-21)
(3.20337 -0.190688 -7.94165e-20)
(2.47949 -0.0351751 5.68301e-20)
(2.47454 -0.33658 6.52213e-21)
(0.0966497 0.00151475 -2.40602e-22)
(0.844443 0.261731 1.60594e-20)
(1.25957 0.171937 -1.60472e-21)
(0.456386 0.393456 3.11011e-22)
(0.211104 0.344747 -6.37668e-22)
(0.84874 0.0731845 -1.21336e-21)
(0.363361 -0.117686 2.39609e-23)
(0.622686 0.140623 -4.75627e-21)
(0.479729 -0.0259001 2.25995e-21)
(0.988774 0.444461 1.62114e-20)
(0.259077 0.343841 -3.80894e-22)
(3.24217 -0.254068 -1.02574e-20)
(0.262873 0.346329 1.36653e-21)
(1.10277 0.395456 -3.53672e-21)
(2.91327 -0.0151713 8.14193e-20)
(0.833297 0.437361 9.22341e-21)
(0.497091 0.13046 1.4239e-20)
(3.26938 -0.245881 5.21427e-20)
(0.237581 0.348544 1.9593e-21)
(2.97254 -0.327788 3.17628e-20)
(0.070316 0.14127 -1.36655e-21)
(0.703721 0.130077 8.95388e-21)
(2.96793 -0.466628 -4.25622e-20)
(0.221923 0.339173 3.62282e-22)
(2.81947 -0.501578 -1.76254e-21)
(3.03518 -0.0415612 5.45151e-22)
(1.62389 0.105781 1.46451e-22)
(0.306193 0.366497 -6.74934e-23)
(0.490431 0.401794 2.49756e-23)
(0.260464 -0.159817 1.94352e-23)
(1.85573 0.211596 -7.28928e-21)
(3.28935 -0.214871 1.92863e-20)
(1.13517 0.467856 1.0175e-20)
(3.24551 -0.202681 1.35807e-20)
(0.127168 -0.125541 -5.22598e-22)
(1.33846 0.439335 -1.64263e-23)
(0.188176 -0.180474 -6.90467e-22)
(1.24416 0.242361 3.59052e-21)
(3.05641 -0.175015 -2.02547e-20)
(2.2026 -0.294594 -4.11355e-21)
(3.23007 -0.211975 -3.62892e-20)
(2.39256 0.159817 1.79543e-20)
(0.133674 -0.158274 1.94731e-21)
(3.2163 -0.217736 5.00032e-20)
(0.39902 0.372351 -7.23865e-23)
(0.316091 0.258967 2.16922e-21)
(3.20257 -0.225017 2.34073e-21)
(2.93593 0.0465147 2.26377e-21)
(0.269008 0.359568 -1.01435e-22)
(2.47757 -0.512158 -1.85796e-20)
(1.34207 0.146647 -7.41799e-22)
(0.589824 0.0761004 -7.65051e-21)
(1.55274 0.135084 -1.28217e-22)
(3.13579 -0.138422 3.97528e-20)
(0.434463 0.383545 2.12957e-22)
(2.04326 0.189568 1.06562e-21)
(3.19058 -0.230809 -2.23453e-24)
(3.25911 -0.19242 -7.82784e-21)
(3.23849 -0.205413 -5.03778e-21)
(3.10284 -0.0997631 -4.53224e-20)
(0.1815 0.339286 1.10773e-21)
(2.29251 -0.0926462 -6.18875e-21)
(0.128419 0.208426 1.30316e-21)
(1.99642 0.289623 6.43516e-22)
(3.2413 -0.207637 1.26482e-20)
(3.27123 -0.185212 3.26236e-21)
(3.06498 -0.102352 2.34136e-20)
(0.638502 0.278462 2.0093e-20)
(3.17495 -0.236885 -1.41106e-21)
(1.04363 0.386051 1.91257e-21)
(1.326 0.218068 1.49234e-21)
(0.515274 0.395176 1.51391e-22)
(2.38699 0.259382 2.81211e-21)
(0.295521 0.335734 2.08349e-22)
(0.436251 -0.164724 2.84885e-22)
(0.429246 -0.111143 -1.70858e-22)
(1.05324 0.467105 -1.19743e-20)
(1.54031 0.388078 1.01279e-21)
(0.352883 -0.0456973 -5.64745e-22)
(3.24891 -0.197874 1.4722e-20)
(0.343242 0.322099 1.35679e-22)
(0.264485 -0.210058 -1.7194e-21)
(0.828062 0.357611 1.27965e-21)
(1.42055 0.120183 -2.10076e-22)
(1.88215 0.299458 -1.76437e-22)
(3.10235 -0.0798981 2.28542e-20)
(0.426466 0.186137 -2.29754e-20)
(2.6894 -0.498822 -4.91524e-21)
(3.15455 -0.242751 -4.60301e-22)
(0.0927223 -0.0908669 -7.84002e-22)
(1.78888 0.30738 -1.06433e-21)
(0.930476 0.278788 -8.73579e-21)
(0.674393 0.204731 -6.23817e-21)
(2.85645 -0.365406 -2.85841e-21)
(3.13905 -0.123315 -4.16901e-22)
(0.479625 -0.155434 -1.44327e-22)
(1.6208 -0.0499636 4.56857e-22)
(0.229687 0.274221 3.06839e-22)
(1.27656 0.46932 -2.34399e-22)
(2.49705 0.248844 -7.71418e-21)
(3.26782 -0.287797 -1.1108e-20)
(0.227711 -0.197833 -4.06337e-22)
(0.368439 0.379907 8.99448e-23)
(2.86531 -0.0764474 -9.21992e-20)
(0.440906 0.0682197 -1.20873e-22)
(2.31888 -0.203301 5.36791e-21)
(2.40413 0.386689 -1.76939e-21)
(0.186632 -0.0365474 -1.34693e-21)
(1.40661 0.190611 1.64283e-22)
(0.531 0.388347 3.41109e-23)
(3.28208 -0.180295 -1.95279e-21)
(3.10756 -0.193157 -1.03808e-20)
(0.153704 0.331731 4.81108e-22)
(3.13478 -0.248567 -5.00032e-23)
(0.527966 0.0244923 -8.66093e-23)
(0.12058 0.135317 1.88789e-21)
(3.21707 -0.378218 -2.26611e-21)
(0.507389 -0.0850241 4.59661e-22)
(0.516953 -0.1472 -1.4075e-22)
(3.17942 -0.227991 1.35818e-21)
(2.83496 -0.251392 1.86495e-20)
(0.245848 0.0851328 3.22339e-21)
(0.214898 -0.186854 -7.00654e-22)
(0.138332 -0.148496 -3.94562e-22)
(0.562055 -0.125156 -6.58979e-23)
(0.0848369 -0.0705239 -8.91884e-23)
(0.129258 0.316892 -1.25471e-21)
(0.240133 0.319298 -4.6833e-22)
(0.403455 0.37332 1.38969e-22)
(0.0419712 -0.0291201 7.22328e-22)
(0.0634646 -0.060361 -1.17456e-21)
(0.313143 0.311902 4.8978e-22)
(0.315335 0.0502036 -7.97561e-22)
(0.0224493 0.100242 2.07064e-22)
(0.564383 0.393375 2.32497e-22)
(3.28964 -0.180284 -1.27685e-20)
(0.544487 -0.137398 -2.36846e-22)
(3.11783 -0.148749 1.74107e-21)
(0.0307549 -0.000525654 -2.07683e-22)
(3.11254 -0.254147 -1.97043e-22)
(3.28424 -0.175271 5.40779e-21)
(3.25539 -0.168934 -5.26272e-21)
(2.98856 -0.302828 -4.55838e-22)
(3.17019 -0.155417 -2.996e-20)
(0.305278 -0.175807 -1.86014e-22)
(0.452651 -0.139706 7.22469e-22)
(0.170401 -0.165572 2.54817e-23)
(0.253311 0.354457 -5.91804e-22)
(0.129947 -0.0932688 -3.80928e-24)
(0.476808 0.391455 -1.61663e-22)
(0.135465 -0.0346676 6.91817e-22)
(0.109963 0.295381 -6.29875e-22)
(0.294902 0.158165 8.12254e-21)
(2.59728 -0.307159 -2.89257e-21)
(0.121387 0.294635 4.4285e-22)
(3.28772 -0.183119 1.55031e-20)
(0.28083 0.352632 -1.23079e-22)
(0.0925765 0.266381 9.46426e-22)
(2.9367 -0.320967 -5.94301e-21)
(3.22934 -0.169669 -1.89639e-20)
(0.547088 0.403261 -7.58021e-22)
(0.025278 0.0392981 -6.0328e-22)
(0.136699 0.0453114 -8.27404e-22)
(0.0424705 0.0715359 9.15463e-23)
(0.400431 -0.146965 -2.06275e-22)
(0.187943 0.341944 -3.94363e-23)
(0.0179681 0.0748492 7.79401e-22)
(0.323572 0.358589 2.5558e-22)
(3.28334 -0.191703 -3.13776e-21)
(0.390649 0.0104599 1.16948e-21)
(3.25853 -0.197857 1.64632e-21)
(3.28172 -0.170447 2.05334e-20)
(3.08303 -0.262671 -1.82408e-22)
(3.04347 -0.280915 1.21823e-20)
(3.27431 -0.170128 -9.51323e-21)
(3.1399 -0.241199 -3.23305e-21)
(3.25317 -0.300279 -1.23002e-20)
(0.914324 0.45816 -5.02715e-22)
(0.540362 0.395434 2.33495e-21)
(0.307903 -0.141333 -3.80134e-22)
(0.255298 -0.195125 1.2913e-22)
(3.15829 -0.235422 4.55963e-21)
(0.349781 -0.162448 6.1685e-22)
(2.95969 -0.310016 -2.76181e-20)
(0.0255302 0.100035 -1.16666e-22)
(0.246325 -0.0603742 8.43986e-23)
(0.069489 0.227225 -1.92765e-22)
(0.431086 -0.0666663 1.44538e-22)
(0.393743 0.384457 -5.09052e-22)
(3.22318 -0.203718 6.57123e-20)
(0.0915329 0.0717069 3.62987e-22)
(3.27198 -0.194471 7.24465e-22)
(2.73387 -0.394533 -7.5447e-21)
(0.530264 0.402375 8.50639e-23)
(0.158425 0.329833 -3.85901e-23)
(0.0641682 0.142462 3.58621e-22)
(3.2345 -0.206475 2.96337e-20)
(0.0714578 0.190627 -8.15542e-22)
(0.137293 0.314555 7.68592e-23)
(0.324158 0.360404 8.4349e-22)
(0.171852 -0.113728 -6.39015e-23)
(0.360121 0.228441 -3.04546e-21)
(0.17385 -0.0699647 -2.30593e-23)
(3.15449 -0.224321 2.53117e-20)
(0.248517 -0.214322 -4.05203e-23)
(0.185681 0.319212 -3.02583e-22)
(0.21572 -0.0880114 1.57227e-22)
(0.592286 -0.094172 1.44866e-21)
(2.91446 -0.306381 -2.08274e-20)
(0.61907 0.420897 -1.32947e-21)
(0.610951 0.404136 2.09065e-21)
(3.19869 -0.181669 -3.94304e-20)
(0.499824 -0.134737 1.27785e-22)
(0.495174 -0.424403 1.04474e-21)
(0.528655 -0.4272 -7.3271e-23)
(0.588435 -0.432573 -6.30134e-22)
(0.629761 -0.434717 3.44422e-22)
(0.669933 -0.431803 -3.83616e-22)
(0.702856 -0.425699 -9.73205e-22)
(0.73411 -0.417642 1.86247e-22)
(0.76183 -0.408767 2.19956e-22)
(0.79144 -0.398476 2.56458e-22)
(0.531943 -0.414596 -8.88144e-22)
(0.565456 -0.41652 -9.08906e-23)
(0.622543 -0.42219 4.92232e-22)
(0.663895 -0.426251 -8.91317e-22)
(0.70209 -0.425337 6.98317e-22)
(0.73383 -0.421768 1.08762e-21)
(0.763002 -0.416083 -6.5343e-22)
(0.789069 -0.409553 7.74818e-22)
(0.813749 -0.401733 -3.70593e-22)
(0.56901 -0.398291 1.999e-21)
(0.601434 -0.399883 4.72935e-22)
(0.656529 -0.406049 -9.34561e-22)
(0.697272 -0.411317 4.30157e-22)
(0.733858 -0.412184 -1.08756e-21)
(0.764478 -0.410793 -1.45791e-22)
(0.791962 -0.407366 -1.9421e-23)
(0.816237 -0.403042 -3.33128e-22)
(0.838154 -0.397933 -5.32052e-22)
(0.605363 -0.376907 -9.54945e-22)
(0.635908 -0.378283 1.87441e-22)
(0.688933 -0.384918 6.26579e-22)
(0.72892 -0.391215 1.87886e-23)
(0.76421 -0.393751 4.18494e-22)
(0.79382 -0.394213 1.17927e-21)
(0.819902 -0.39272 -7.1238e-22)
(0.842666 -0.390176 1.2768e-22)
(0.862882 -0.386837 2.04255e-22)
(0.640105 -0.351464 9.93299e-23)
(0.667862 -0.352435 -1.15144e-22)
(0.718769 -0.359658 2.63439e-23)
(0.757913 -0.366814 -2.08762e-22)
(0.792114 -0.370886 1.05948e-22)
(0.820893 -0.372989 -2.44679e-22)
(0.84594 -0.373209 8.72969e-23)
(0.867669 -0.372219 3.91411e-22)
(0.88699 -0.370115 8.43192e-23)
(0.672103 -0.323092 1.08449e-22)
(0.696442 -0.323201 -2.63853e-22)
(0.745199 -0.331163 5.86303e-23)
(0.783561 -0.338964 4.04696e-22)
(0.816897 -0.34443 -1.27081e-22)
(0.845047 -0.348004 -1.76397e-22)
(0.869373 -0.349798 -7.33574e-23)
(0.890424 -0.350285 -5.64072e-22)
(0.909022 -0.349749 2.77005e-22)
(0.699545 -0.293401 1.13674e-22)
(0.72121 -0.29157 2.03184e-22)
(0.767809 -0.300315 5.37695e-23)
(0.805486 -0.308406 -1.71153e-22)
(0.838143 -0.31507 3.49426e-23)
(0.865858 -0.319924 -3.39534e-24)
(0.889729 -0.323129 1.30431e-22)
(0.910366 -0.324975 -1.33718e-22)
(0.92859 -0.325843 -1.03001e-22)
(0.721275 -0.261562 -1.15053e-22)
(0.742335 -0.257858 8.39981e-23)
(0.786638 -0.267456 3.17021e-24)
(0.823566 -0.275601 -5.87144e-24)
(0.855634 -0.283293 -4.18232e-23)
(0.883074 -0.289253 1.59099e-22)
(0.906727 -0.293706 1.85762e-22)
(0.927192 -0.296823 -1.86761e-22)
(0.945343 -0.298546 5.44727e-23)
(0.737664 -0.225643 3.17855e-23)
(0.759871 -0.221491 -1.82272e-23)
(0.801626 -0.232382 -2.13261e-23)
(0.837659 -0.240727 -9.55808e-24)
(0.869211 -0.249407 -1.31291e-23)
(0.896539 -0.256336 -2.15459e-24)
(0.920207 -0.261859 -2.52887e-25)
(0.940795 -0.26596 1.54204e-22)
(0.958981 -0.268933 -8.08484e-24)
(0.749006 -0.185829 -5.25791e-23)
(0.773202 -0.182333 -4.52493e-25)
(0.812293 -0.195114 2.73888e-23)
(0.847461 -0.204033 3.35002e-23)
(0.878694 -0.213713 -1.06427e-23)
(0.906146 -0.221472 7.39636e-24)
(0.930108 -0.227841 8.80728e-24)
(0.951097 -0.232686 2.40524e-23)
(0.969766 -0.236195 -1.97436e-23)
(0.754916 -0.142838 1.20263e-22)
(0.781398 -0.140926 3.42107e-23)
(0.817961 -0.156271 -5.18439e-23)
(0.852632 -0.166054 -1.80846e-23)
(0.883937 -0.176625 -1.28105e-24)
(0.911836 -0.184988 1.60009e-23)
(0.936411 -0.19194 4.75797e-24)
(0.958152 -0.197258 8.24843e-24)
(0.977643 -0.201227 -1.58814e-23)
(0.75603 -0.098541 -2.2498e-22)
(0.78374 -0.0992454 -6.17188e-23)
(0.818174 -0.117338 8.65519e-23)
(0.853073 -0.127695 -1.93718e-23)
(0.884962 -0.138676 3.0259e-24)
(0.913635 -0.147219 -4.14189e-23)
(0.939068 -0.154377 1.07863e-24)
(0.961738 -0.159861 2.68789e-23)
(0.982288 -0.164606 1.14783e-23)
(0.750985 -0.056325 -5.80826e-23)
(0.77893 -0.0603897 1.76334e-23)
(0.813427 -0.0797214 1.65364e-24)
(0.849287 -0.08974 -1.31503e-23)
(0.882126 -0.100243 1.02511e-23)
(0.91176 -0.108332 1.07815e-23)
(0.938164 -0.115143 1.85454e-23)
(0.961827 -0.120474 -2.89639e-23)
(0.983701 -0.124775 2.01514e-23)
(0.736061 -0.0174277 7.95943e-23)
(0.768607 -0.023725 -7.19723e-24)
(0.804985 -0.0429989 5.94376e-24)
(0.842082 -0.0519082 -1.84072e-23)
(0.87593 -0.0611594 3.62958e-24)
(0.906513 -0.0682165 2.3374e-24)
(0.933875 -0.074165 1.43845e-23)
(0.958534 -0.0788424 -2.40999e-24)
(0.981275 -0.0821384 -1.09726e-23)
(0.71265 0.0206196 -2.31406e-22)
(0.753426 0.0129091 5.9404e-23)
(0.793163 -0.00556969 -4.31381e-23)
(0.831732 -0.0131637 5.65705e-23)
(0.866548 -0.0208055 -7.97444e-24)
(0.89798 -0.0265392 -2.44759e-23)
(0.926222 -0.0313375 -1.6598e-23)
(0.951871 -0.0350038 -2.2072e-23)
(0.975696 -0.0374571 6.12921e-23)
(0.681835 0.0592891 -1.98161e-22)
(0.733268 0.0507842 -9.51202e-23)
(0.777525 0.0340791 6.29348e-23)
(0.817869 0.0276009 -7.28428e-23)
(0.853667 0.0215057 -3.15113e-23)
(0.885877 0.0170553 1.8663e-23)
(0.914906 0.0134363 2.92682e-24)
(0.941398 0.0108563 -6.39224e-23)
(0.966018 0.0091338 3.33636e-23)
(0.64441 0.101083 -4.02418e-22)
(0.707522 0.09146 6.40201e-23)
(0.75711 0.0770754 -2.23185e-23)
(0.799572 0.0711044 4.27865e-23)
(0.836529 0.0661171 5.54616e-23)
(0.869594 0.062641 -2.35798e-22)
(0.899431 0.0600263 1.58268e-22)
(0.926747 0.0584986 4.65563e-23)
(0.952462 0.0573636 -1.81986e-23)
(0.6062 0.144819 7.08414e-22)
(0.674532 0.134938 -8.60846e-23)
(0.730304 0.122864 4.94359e-23)
(0.775553 0.116913 -7.96275e-23)
(0.814148 0.112539 -1.51918e-23)
(0.848379 0.109699 2.2244e-22)
(0.879208 0.107867 -2.38775e-23)
(0.907441 0.107158 9.03055e-23)
(0.934127 0.107109 8.84511e-23)
(0.571313 0.185384 1.44264e-22)
(0.637261 0.176656 2.33211e-23)
(0.697105 0.168234 8.75078e-23)
(0.745349 0.162832 2.76021e-22)
(0.785998 0.159187 -7.23332e-23)
(0.821732 0.156966 -1.11976e-22)
(0.853778 0.155826 -1.2753e-22)
(0.883099 0.155736 -1.48968e-22)
(0.910822 0.156499 4.47239e-23)
(0.538503 0.220305 -1.32555e-22)
(0.598192 0.213547 6.22123e-24)
(0.659452 0.209999 -3.04396e-22)
(0.70989 0.206406 3.16677e-23)
(0.752465 0.204153 -1.40614e-22)
(0.789755 0.202933 9.4348e-23)
(0.82308 0.202698 6.05809e-22)
(0.853464 0.203425 9.78045e-23)
(0.881997 0.204989 2.83456e-23)
(0.506933 0.25044 -2.23913e-22)
(0.559004 0.245528 7.05665e-22)
(0.619461 0.246832 -3.50038e-22)
(0.670698 0.246037 3.14479e-22)
(0.714569 0.24584 -2.23492e-22)
(0.753129 0.246096 1.82699e-23)
(0.787628 0.247037 -2.30115e-22)
(0.819132 0.248663 -1.94181e-22)
(0.848669 0.251368 3.71671e-23)
(0.475545 0.276513 -5.84588e-22)
(0.519923 0.273058 -5.96831e-22)
(0.578486 0.278319 9.67312e-22)
(0.629168 0.280856 -1.35499e-22)
(0.673481 0.283137 6.92818e-22)
(0.71275 0.285263 -2.22458e-22)
(0.748064 0.287635 -5.89534e-23)
(0.780545 0.290253 8.20102e-23)
(0.810375 0.29477 -3.27379e-23)
(0.444899 0.297175 4.15324e-22)
(0.481245 0.296046 4.11571e-22)
(0.537678 0.304267 -6.0111e-22)
(0.58666 0.310527 -5.47214e-22)
(0.630515 0.31543 -5.0606e-22)
(0.669803 0.319575 6.3054e-23)
(0.705445 0.323411 1.03057e-22)
(0.738597 0.327157 -3.27921e-22)
(0.768714 0.333001 8.07057e-22)
(0.415608 0.309124 -1.56363e-23)
(0.443817 0.313964 -8.5835e-23)
(0.497509 0.324495 2.27144e-22)
(0.54362 0.334582 -2.90711e-22)
(0.586109 0.34194 4.71866e-22)
(0.624825 0.348068 1.20885e-22)
(0.660494 0.35328 -5.62467e-22)
(0.694486 0.358173 5.90262e-22)
(0.724711 0.367042 -1.88007e-22)
(0.38423 0.315414 -3.82604e-22)
(0.409364 0.331484 1.45951e-23)
(0.460263 0.344439 3.37849e-23)
(0.503317 0.356399 2.30001e-22)
(0.5437 0.364764 -1.07187e-22)
(0.580852 0.37145 2.81761e-22)
(0.615592 0.376422 -1.5103e-22)
(0.651078 0.380161 3.17116e-22)
(0.68702 0.390101 2.67691e-23)
(0.434096 0.435706 -3.08358e-22)
(0.428057 0.436478 -3.50891e-22)
(0.422087 0.436044 -9.28834e-22)
(0.415831 0.434632 1.27054e-21)
(0.408928 0.432125 -9.17437e-22)
(0.40116 0.428528 6.64603e-22)
(0.392401 0.423626 2.63996e-22)
(0.382525 0.417257 -4.16952e-23)
(0.371389 0.409255 -4.52251e-22)
(0.358864 0.399467 -2.30086e-22)
(0.344862 0.387746 2.22903e-22)
(0.329352 0.373941 -2.96256e-22)
(0.312389 0.357906 7.53971e-22)
(0.294125 0.339516 -1.93811e-21)
(0.274696 0.318609 3.43807e-21)
(0.254088 0.29542 -4.0006e-21)
(0.232333 0.270453 3.73762e-21)
(0.209783 0.244048 -1.64864e-21)
(0.186984 0.216411 -5.87514e-22)
(0.164447 0.187871 6.23349e-22)
(0.142585 0.158804 -2.22568e-22)
(0.121644 0.129684 4.74165e-22)
(0.101527 0.100983 5.74728e-23)
(0.0818787 0.0735744 -7.02781e-22)
(0.0638044 0.0479391 5.46174e-22)
(0.0503745 0.0229099 -2.95713e-22)
(0.0432 -0.0023315 3.55306e-22)
(0.0421108 -0.0279368 2.82369e-22)
(0.0463889 -0.0543883 -3.26257e-22)
(0.0526371 -0.0819362 8.83255e-24)
(0.0589867 -0.11011 -3.01611e-22)
(0.0662996 -0.138167 2.60997e-22)
(0.0751869 -0.165739 5.17733e-22)
(0.0858476 -0.192635 -4.0138e-22)
(0.098187 -0.218594 5.95394e-22)
(0.112039 -0.243355 -9.83365e-22)
(0.1272 -0.26676 6.39726e-23)
(0.14341 -0.28866 2.22821e-22)
(0.160389 -0.30896 -3.3197e-22)
(0.177812 -0.327568 7.5671e-22)
(0.195658 -0.344352 -4.25861e-22)
(0.21398 -0.35925 -1.89685e-21)
(0.232611 -0.372307 3.76313e-21)
(0.251379 -0.383594 -4.01397e-21)
(0.270148 -0.393214 3.43364e-21)
(0.288786 -0.401273 -1.97443e-21)
(0.307163 -0.407894 1.01293e-21)
(0.325159 -0.413234 -3.27363e-22)
(0.342637 -0.41745 3.39816e-22)
(0.359471 -0.420706 -3.25332e-22)
(0.37555 -0.423152 -4.99946e-22)
(0.390804 -0.424911 -1.79106e-22)
(0.405158 -0.426104 2.26392e-22)
(0.418562 -0.426847 6.33962e-22)
(0.431004 -0.427227 -9.44145e-22)
(0.44251 -0.427318 1.22968e-21)
(0.453114 -0.427179 -8.19528e-22)
(0.462856 -0.426857 -3.06219e-22)
(0.471843 -0.426433 -2.35488e-22)
(0.446502 0.380531 -4.2452e-23)
(0.438309 0.377144 -3.09644e-23)
(0.430058 0.372714 -2.81062e-23)
(0.42161 0.367348 -8.25263e-23)
(0.412751 0.361127 -1.24443e-22)
(0.403441 0.353962 4.06999e-22)
(0.393669 0.345827 -5.99629e-23)
(0.383391 0.336706 1.54522e-22)
(0.372543 0.326607 -5.40915e-22)
(0.361065 0.315538 -3.01174e-23)
(0.348907 0.303502 2.53631e-22)
(0.336051 0.290487 2.82487e-22)
(0.32252 0.27649 -8.72458e-22)
(0.308297 0.261487 1.04381e-21)
(0.293134 0.245747 -1.11492e-21)
(0.276627 0.22965 4.27728e-22)
(0.258694 0.213261 7.10359e-22)
(0.239746 0.196162 -4.06299e-22)
(0.220272 0.178005 -1.06466e-22)
(0.200587 0.158769 4.68972e-23)
(0.180969 0.13836 3.74346e-24)
(0.161715 0.116732 2.47337e-22)
(0.143158 0.0937766 -1.19357e-22)
(0.125925 0.069187 -5.1072e-23)
(0.111317 0.0423915 1.09759e-22)
(0.10052 0.0134297 -3.13249e-23)
(0.0936209 -0.016841 1.15307e-24)
(0.0906177 -0.0475245 1.81795e-23)
(0.0915205 -0.077734 2.3355e-23)
(0.0956649 -0.106942 4.96584e-26)
(0.101893 -0.135286 -2.19082e-23)
(0.109874 -0.162967 -1.54993e-23)
(0.11972 -0.1899 -3.95083e-25)
(0.131465 -0.215887 5.84807e-23)
(0.144931 -0.240755 -1.44691e-22)
(0.159914 -0.264356 5.17583e-23)
(0.176203 -0.286571 -1.05211e-22)
(0.193568 -0.307313 1.01007e-22)
(0.211767 -0.326525 2.95166e-24)
(0.230583 -0.34419 -1.94309e-23)
(0.249834 -0.360279 -6.51655e-23)
(0.26932 -0.374737 -5.03554e-23)
(0.28881 -0.387532 -3.6327e-23)
(0.30808 -0.398665 -7.06631e-23)
(0.326932 -0.408167 7.49811e-23)
(0.345202 -0.416094 -1.04212e-22)
(0.36277 -0.422526 5.45731e-23)
(0.379549 -0.427565 1.8296e-23)
(0.395499 -0.431329 -8.79614e-23)
(0.410597 -0.433947 1.04274e-23)
(0.424738 -0.435657 1.71825e-22)
(0.437863 -0.436657 -2.88909e-23)
(0.450014 -0.437067 7.60473e-23)
(0.461294 -0.436971 -2.84954e-22)
(0.471822 -0.436432 3.52257e-23)
(0.481654 -0.435548 1.05736e-22)
(0.490783 -0.434387 -8.42554e-23)
(0.499321 -0.433012 2.04901e-23)
(0.5073 -0.431536 -1.85709e-23)
(0.511502 0.354078 -2.83908e-22)
(0.504586 0.348876 8.01233e-23)
(0.497407 0.342709 -1.80674e-22)
(0.489965 0.335733 -1.23952e-23)
(0.482121 0.32788 5.9746e-22)
(0.473803 0.319182 -1.75711e-22)
(0.464945 0.309679 -3.3343e-22)
(0.455485 0.299424 -7.74181e-25)
(0.445373 0.288474 1.91102e-22)
(0.434571 0.276889 -4.92138e-23)
(0.423045 0.264732 5.44524e-22)
(0.410758 0.252078 -6.70224e-22)
(0.397661 0.239018 6.17645e-22)
(0.383653 0.225668 -7.85278e-23)
(0.368607 0.212155 -5.98896e-22)
(0.35248 0.198376 1.90166e-22)
(0.335403 0.18405 7.4734e-22)
(0.317594 0.168827 -2.54183e-22)
(0.299216 0.15259 -7.08719e-23)
(0.280449 0.135189 3.25571e-23)
(0.261575 0.116453 -1.86816e-22)
(0.242965 0.0962035 3.98223e-23)
(0.225096 0.0742506 -5.64019e-22)
(0.2086 0.0504127 6.66718e-22)
(0.194314 0.0246567 -2.54359e-22)
(0.183099 -0.00271549 1.19976e-23)
(0.175497 -0.031183 3.8798e-23)
(0.171686 -0.0602012 -1.66773e-22)
(0.171526 -0.0891821 1.05202e-22)
(0.174505 -0.117599 5.50095e-23)
(0.180032 -0.145208 1.23636e-22)
(0.187746 -0.171948 -1.28986e-22)
(0.197453 -0.197733 5.47338e-23)
(0.209001 -0.222423 7.08281e-23)
(0.222211 -0.245878 -2.65557e-22)
(0.236874 -0.267988 7.31522e-22)
(0.25276 -0.288665 -4.70987e-22)
(0.269616 -0.307855 -9.3722e-23)
(0.287183 -0.325531 -1.35242e-22)
(0.305204 -0.341691 -4.82315e-23)
(0.323446 -0.356347 -2.01399e-22)
(0.341687 -0.369517 -3.71342e-22)
(0.359718 -0.381241 7.98526e-22)
(0.377368 -0.391574 3.99219e-22)
(0.394512 -0.400585 -7.85122e-22)
(0.411072 -0.408345 -2.87107e-22)
(0.427008 -0.414928 8.34756e-22)
(0.442307 -0.42041 -9.87919e-22)
(0.456962 -0.424871 6.74855e-22)
(0.470958 -0.428394 -1.56675e-23)
(0.484286 -0.431087 3.03004e-22)
(0.496959 -0.433068 8.60788e-23)
(0.509007 -0.434447 -4.62078e-22)
(0.520441 -0.435313 -2.51478e-22)
(0.531248 -0.435747 7.60278e-22)
(0.541395 -0.435828 5.50996e-24)
(0.550856 -0.435633 -2.0362e-22)
(0.559628 -0.435262 7.60086e-23)
(0.567681 -0.434772 -2.4843e-22)
(0.556941 0.329705 2.53155e-24)
(0.550507 0.324287 1.24464e-22)
(0.543837 0.318025 -3.63777e-23)
(0.536857 0.310986 -9.06161e-24)
(0.529406 0.303177 2.20148e-23)
(0.521376 0.294678 2.50147e-23)
(0.512665 0.285568 3.35072e-23)
(0.50319 0.27592 1.13812e-22)
(0.492887 0.2658 -6.68387e-23)
(0.481719 0.255263 -6.8613e-23)
(0.469668 0.244351 -7.53884e-23)
(0.456731 0.23309 1.47982e-22)
(0.442914 0.221488 -1.33566e-22)
(0.428224 0.209525 -8.57408e-24)
(0.412678 0.197125 -2.6532e-23)
(0.396321 0.184155 3.09889e-23)
(0.379252 0.170442 -1.41704e-23)
(0.361619 0.15582 -1.31209e-23)
(0.343612 0.140128 -6.19161e-23)
(0.325467 0.123178 8.08659e-24)
(0.307486 0.10478 -2.17418e-25)
(0.290038 0.0847572 -1.62793e-22)
(0.273573 0.0629672 7.75611e-23)
(0.258618 0.0393387 1.27866e-22)
(0.245756 0.0139319 -9.17474e-23)
(0.235523 -0.0130039 1.15126e-23)
(0.228283 -0.041056 1.11408e-22)
(0.224217 -0.0697329 -1.24966e-22)
(0.223322 -0.0985254 4.02706e-23)
(0.225408 -0.126981 -1.09774e-23)
(0.230181 -0.154779 5.06517e-23)
(0.237372 -0.1817 -1.13055e-22)
(0.246754 -0.207564 7.9243e-23)
(0.25811 -0.232207 -5.00505e-24)
(0.271208 -0.255483 -8.20005e-23)
(0.285798 -0.277276 1.14201e-23)
(0.301611 -0.2975 8.95702e-23)
(0.318359 -0.316102 -3.9397e-24)
(0.335752 -0.333067 -4.74844e-23)
(0.35351 -0.348413 7.48085e-23)
(0.371373 -0.362186 2.36406e-24)
(0.389115 -0.374452 -2.66463e-23)
(0.406555 -0.385295 1.60653e-22)
(0.423564 -0.394807 -1.57998e-22)
(0.440066 -0.403082 7.16865e-23)
(0.45603 -0.410212 1.64017e-24)
(0.471449 -0.416282 2.75132e-22)
(0.486324 -0.421372 -2.46511e-22)
(0.500661 -0.42558 1.29922e-22)
(0.514423 -0.428972 1.23628e-22)
(0.527692 -0.431594 1.55009e-22)
(0.540491 -0.433507 -1.48874e-22)
(0.55271 -0.434813 -2.99288e-23)
(0.564256 -0.435632 -5.44171e-23)
(0.575059 -0.436068 -1.00133e-22)
(0.585068 -0.436215 6.8331e-23)
(0.594244 -0.436162 -1.41616e-22)
(0.602586 -0.435999 2.87806e-22)
(0.610136 -0.435794 -7.50955e-23)
(0.615639 0.312583 -3.97925e-22)
(0.610335 0.306437 6.1051e-23)
(0.60474 0.299495 2.99622e-22)
(0.598775 0.291921 -2.01095e-22)
(0.592226 0.283758 4.15793e-23)
(0.584942 0.275117 1.48716e-22)
(0.576782 0.266095 -1.68229e-22)
(0.567635 0.256767 6.91474e-23)
(0.557426 0.247181 2.23698e-22)
(0.546119 0.237358 -4.42616e-23)