/*--------------------------------*- C++ -*----------------------------------*\
  =========                 |
  \\      /  F ield         | OpenFOAM: The Open Source CFD Toolbox
   \\    /   O peration     | Website:  https://openfoam.org
    \\  /    A nd           | Version:  10
     \\/     M anipulation  |
\*---------------------------------------------------------------------------*/
FoamFile
{
    format      ascii;
    class       volScalarField;
    location    "200";
    object      epsilon;
}
// * * * * * * * * * * * * * * * * * * * * * * * * * * * * * * * * * * * * * //

dimensions      [0 2 -3 0 0 0 0];

internalField   nonuniform List<scalar> 
10435
(
9.3184e-07
9.76622e-07
2.61342e-05
7.9109e-06
2.42503e-05
3.74325e-05
3.23895e-05
0.000148388
0.000207213
3.94597e-05
2.15898e-06
9.33296e-05
2.76827e-05
0.000630147
0.000445661
9.56259e-05
0.00076245
3.8912e-05
0.000197254
9.36578e-07
0.000115435
1.05451e-05
6.60037e-05
0.00026336
3.7347e-05
9.35603e-05
0.000498319
2.0032e-05
0.000423712
4.20129e-05
6.8682e-05
3.71653e-06
0.000171242
0.00051174
0.000195535
2.81445e-06
0.00016671
0.000576781
3.52154e-05
0.000206332
4.17151e-05
3.70591e-05
0.000847087
2.02986e-06
0.000121351
0.000240964
3.99384e-05
0.000788889
0.000195733
1.2737e-05
0.00014763
5.01754e-05
3.45115e-05
0.000193248
4.60307e-05
0.000296147
0.000218793
0.000754307
0.000774337
0.00023433
4.71423e-05
9.60311e-07
0.000767579
5.12643e-05
8.9441e-05
2.7333e-05
0.000752522
0.00100664
0.000117566
0.000254363
0.000171048
0.000236642
0.000525811
3.50208e-05
0.000219483
0.000708524
0.000217488
4.38607e-05
0.000178085
0.000109369
5.19001e-05
8.924e-07
3.45448e-05
0.000227347
9.10429e-05
6.7425e-06
2.19493e-06
1.7794e-06
6.25169e-05
1.26441e-06
3.16397e-06
6.22991e-06
7.19921e-07
1.83188e-05
1.05176e-06
8.67202e-06
1.2049e-05
0.000323701
0.000717698
1.97237e-05
0.000169185
2.13144e-05
5.5169e-06
1.20471e-06
2.4899e-05
3.89473e-06
8.02595e-07
2.67146e-05
0.000139491
2.23913e-05
5.6179e-06
1.72221e-05
1.61789e-06
4.79128e-06
1.1286e-05
4.85496e-06
3.18133e-05
2.52363e-06
1.55643e-06
3.70331e-05
4.5857e-05
0.0005503
1.34689e-06
0.000183583
5.20853e-06
7.1445e-05
2.28443e-05
0.00049866
3.02645e-05
0.000349624
0.00037933
3.12269e-06
0.000127441
0.000296305
0.00035119
5.17309e-05
9.56063e-06
1.59464e-05
1.11272e-06
2.31288e-06
1.29441e-06
8.15305e-05
0.000718261
8.05762e-05
2.19945e-05
0.000564796
4.44456e-05
4.25333e-05
0.000838129
0.000104628
0.000574618
0.000160271
1.12861e-06
0.000103374
4.31276e-05
0.000284479
8.27214e-06
1.03669e-06
4.05757e-05
1.07108e-06
0.000127234
0.000475017
4.71757e-06
0.000107096
5.73306e-05
4.5989e-05
0.000193487
5.03249e-05
0.000183269
6.19846e-05
4.071e-05
0.000358032
0.000415485
0.000400975
0.000146226
7.9218e-07
1.35274e-06
0.000993475
2.4513e-06
0.000602773
1.32881e-06
3.37231e-05
0.000102784
6.4008e-05
0.000106616
0.000681214
0.000665191
6.26646e-05
3.04302e-05
6.5469e-05
6.53489e-05
3.6671e-05
0.00028591
2.76211e-06
1.24842e-05
8.8968e-05
0.000836913
2.44923e-05
0.000946123
0.000125562
6.07813e-05
0.000611323
2.33269e-05
0.000743629
2.2716e-05
1.11436e-05
2.61134e-06
2.99821e-05
0.000822789
4.20368e-05
0.000413912
4.61219e-05
7.10361e-05
0.000134623
0.000533599
0.000716453
1.1513e-05
9.92505e-05
9.32247e-05
0.000612579
0.000491651
0.000941328
0.000871272
0.000323655
0.00017057
0.000158168
5.98197e-05
9.27492e-05
6.18095e-05
0.000623232
0.00102567
0.000180589
7.42337e-05
0.000189317
0.000481569
0.000849068
0.00024948
0.000141152
0.000243959
4.80194e-05
1.26873e-06
0.000116838
0.000157948
0.00026253
7.40173e-06
0.0001959
3.70847e-05
9.47586e-05
0.000240649
8.07258e-07
0.000178318
1.51715e-05
3.23248e-05
7.22925e-05
6.82578e-05
4.35929e-05
0.000179593
5.21959e-05
0.000244913
0.000665045
3.89643e-05
4.66173e-05
9.95123e-05
0.00018418
3.11516e-06
0.000944215
1.02003e-06
6.02842e-05
5.67371e-05
1.82832e-05
2.92771e-05
0.000124918
8.59546e-05
3.34178e-05
0.000117165
5.26407e-05
0.000437958
1.5841e-05
8.60603e-05
0.000145494
3.46596e-05
0.00092366
2.22016e-05
0.000228342
4.45458e-06
7.0255e-05
3.46227e-05
4.76545e-05
0.000266662
0.000550854
0.000149831
1.77581e-06
0.000804145
0.000105363
3.67213e-05
0.000163982
0.000714312
1.36245e-06
9.83392e-06
4.31834e-05
0.000999156
0.000219427
1.83083e-05
0.000306224
6.14682e-06
0.000542662
0.000904367
0.000195634
3.64077e-05
0.000297442
1.23162e-06
0.000417022
1.21151e-06
3.87276e-05
0.000213547
0.000173803
8.49702e-05
8.67172e-05
0.00101466
7.38878e-05
2.89888e-05
0.000610468
1.82852e-06
4.00412e-05
0.000160569
2.64124e-05
0.000145231
1.74145e-05
0.000931567
0.000603186
0.000219807
0.000649138
0.000314629
2.33636e-05
0.000143523
0.000885265
0.000202042
0.000227671
0.000415136
0.000387585
0.000177555
0.00026065
4.81699e-05
0.00040925
0.00037086
0.000445106
0.000951027
0.000463427
4.51341e-05
0.000176733
0.000348988
2.90057e-05
0.000452205
1.87195e-05
0.000169022
0.000184288
2.51177e-05
4.75404e-05
0.000225189
0.000393482
0.000220967
7.2138e-05
0.00035229
6.11343e-05
0.000515458
0.000218515
0.000909225
0.000143951
0.000221032
0.000189268
5.78791e-05
0.000270505
2.66779e-05
0.000184265
9.399e-05
0.000444826
0.000675464
0.000483825
0.000353319
0.000119757
0.000490217
5.30036e-05
0.000162911
0.000950102
0.000120035
0.000175606
2.11032e-05
2.37135e-05
0.000181536
1.83264e-05
0.000204922
0.000470977
0.000449364
0.00035793
0.000186598
1.91017e-05
0.000285741
2.86553e-05
0.000461546
0.000635967
0.000322747
0.000743607
0.000131943
5.82715e-05
0.000573344
0.000145037
0.000187844
0.000260161
0.000145223
0.000428697
0.000197147
0.000390978
0.000175818
0.00017051
0.000326243
0.000867719
0.000470395
2.07782e-05
0.000168638
0.0001718
0.00046117
0.000557225
3.28263e-05
0.000163653
7.53692e-05
0.000187426
0.000393033
9.49431e-07
9.20795e-07
8.03239e-07
5.949e-07
4.23254e-07
3.20055e-07
2.64001e-07
2.25993e-07
1.75506e-07
8.98967e-07
7.93617e-07
6.76863e-07
5.28758e-07
4.01588e-07
3.12632e-07
2.5348e-07
2.09616e-07
1.65348e-07
7.93998e-07
6.6934e-07
5.6025e-07
4.49828e-07
3.56916e-07
2.86768e-07
2.3525e-07
1.94845e-07
1.56965e-07
6.81027e-07
5.59868e-07
4.6226e-07
3.77881e-07
3.09915e-07
2.56814e-07
2.15177e-07
1.80487e-07
1.47358e-07
5.78405e-07
4.68771e-07
3.83748e-07
3.18108e-07
2.67807e-07
2.28062e-07
1.95226e-07
1.65902e-07
1.36056e-07
4.93416e-07
3.97087e-07
3.23502e-07
2.71056e-07
2.3268e-07
2.02386e-07
1.76234e-07
1.5121e-07
1.24032e-07
4.29881e-07
3.45199e-07
2.80246e-07
2.36255e-07
2.05151e-07
1.80766e-07
1.5904e-07
1.37124e-07
1.12269e-07
3.91449e-07
3.13497e-07
2.53407e-07
2.13665e-07
1.85961e-07
1.64374e-07
1.44869e-07
1.24689e-07
1.01408e-07
3.79866e-07
3.03128e-07
2.43835e-07
2.04477e-07
1.76763e-07
1.55133e-07
1.35621e-07
1.15445e-07
9.22151e-08
3.97544e-07
3.1776e-07
2.55064e-07
2.12135e-07
1.80957e-07
1.56325e-07
1.34299e-07
1.11893e-07
8.64968e-08
4.53456e-07
3.66359e-07
2.95544e-07
2.44231e-07
2.05302e-07
1.73909e-07
1.46062e-07
1.18327e-07
8.77511e-08
5.66837e-07
4.66266e-07
3.82273e-07
3.15912e-07
2.63041e-07
2.19324e-07
1.80692e-07
1.4262e-07
1.01865e-07
7.59751e-07
6.47885e-07
5.45498e-07
4.54296e-07
3.78317e-07
3.13807e-07
2.56202e-07
2.00051e-07
1.40099e-07
1.05787e-06
9.59626e-07
8.29684e-07
6.9925e-07
5.87776e-07
4.9121e-07
4.03725e-07
3.17604e-07
2.248e-07
1.58329e-06
1.46696e-06
1.28185e-06
1.09162e-06
9.30045e-07
7.89161e-07
6.59634e-07
5.29414e-07
3.84943e-07
2.44267e-06
2.21257e-06
1.92577e-06
1.65201e-06
1.42557e-06
1.229e-06
1.04638e-06
8.59504e-07
6.48003e-07
3.6484e-06
3.18519e-06
2.75303e-06
2.37702e-06
2.07346e-06
1.81116e-06
1.56532e-06
1.31024e-06
1.01927e-06
5.04048e-06
4.32764e-06
3.74264e-06
3.25935e-06
2.87222e-06
2.53696e-06
2.21937e-06
1.8848e-06
1.49799e-06
6.53739e-06
5.61059e-06
4.89483e-06
4.31349e-06
3.84403e-06
3.43407e-06
3.04135e-06
2.62169e-06
2.12817e-06
8.15477e-06
7.07774e-06
6.26212e-06
5.59931e-06
5.05578e-06
4.57734e-06
4.1152e-06
3.61434e-06
3.01371e-06
1.00039e-05
8.85233e-06
7.96867e-06
7.24303e-06
6.64259e-06
6.11689e-06
5.61015e-06
5.0494e-06
4.34434e-06
1.23099e-05
1.11514e-05
1.02284e-05
9.46324e-06
8.84417e-06
8.32748e-06
7.8499e-06
7.31137e-06
6.57261e-06
1.54807e-05
1.43213e-05
1.33818e-05
1.26201e-05
1.20729e-05
1.17015e-05
1.14395e-05
1.11557e-05
1.06449e-05
2.02129e-05
1.88931e-05
1.79499e-05
1.7296e-05
1.7031e-05
1.71169e-05
1.75112e-05
1.80723e-05
1.85468e-05
2.75718e-05
2.56084e-05
2.47218e-05
2.44296e-05
2.49088e-05
2.61116e-05
2.81118e-05
3.09432e-05
3.41269e-05
3.78184e-05
3.31936e-05
3.01014e-05
2.86812e-05
2.91445e-05
3.18004e-05
3.69622e-05
4.46793e-05
5.43803e-05
6.47715e-05
7.42766e-05
8.17501e-05
8.68136e-05
8.95548e-05
9.01308e-05
8.87629e-05
8.58857e-05
8.20778e-05
7.79384e-05
7.39808e-05
7.05541e-05
6.78239e-05
6.57818e-05
6.42646e-05
6.28861e-05
6.0905e-05
5.711e-05
5.12802e-05
4.45787e-05
3.77445e-05
3.10575e-05
2.444e-05
1.85884e-05
1.36859e-05
9.69569e-06
6.65015e-06
4.44927e-06
2.94328e-06
1.96643e-06
1.36111e-06
9.99206e-07
7.89667e-07
6.74301e-07
6.18396e-07
6.01175e-07
6.11359e-07
6.42765e-07
6.89174e-07
7.42339e-07
7.9242e-07
8.31113e-07
8.54437e-07
8.63441e-07
8.62684e-07
8.57885e-07
8.54298e-07
8.56214e-07
8.66952e-07
8.88149e-07
4.40131e-05
4.09032e-05
4.0059e-05
4.19807e-05
4.74459e-05
5.74338e-05
7.2744e-05
9.3242e-05
0.000117195
0.000141242
0.00016099
0.000172926
0.000178156
0.000177793
0.000171466
0.000159855
0.000144527
0.000127504
0.000110726
9.57124e-05
8.32719e-05
7.36021e-05
6.65099e-05
6.14434e-05
5.72712e-05
5.30791e-05
4.85316e-05
4.33988e-05
3.77522e-05
3.1833e-05
2.59461e-05
2.04318e-05
1.55783e-05
1.15126e-05
8.26384e-06
5.79921e-06
4.0269e-06
2.81813e-06
2.03253e-06
1.54304e-06
1.25084e-06
1.08767e-06
1.00937e-06
9.90889e-07
1.02172e-06
1.0865e-06
1.17629e-06
1.28647e-06
1.396e-06
1.474e-06
1.50302e-06
1.48193e-06
1.42052e-06
1.33456e-06
1.24042e-06
1.15139e-06
1.07646e-06
1.02063e-06
9.8522e-07
4.49863e-05
4.13469e-05
3.97474e-05
4.05801e-05
4.44542e-05
5.21273e-05
6.42711e-05
8.09807e-05
0.000101334
0.000123377
0.000144516
0.000162026
0.000173697
0.000178336
0.000175714
0.000166471
0.000152172
0.00013493
0.000116903
9.98518e-05
8.49019e-05
7.25427e-05
6.27433e-05
5.5111e-05
4.90167e-05
4.37917e-05
3.89249e-05
3.41283e-05
2.933e-05
2.45956e-05
2.00616e-05
1.58934e-05
1.22399e-05
9.18695e-06
6.75765e-06
4.92136e-06
3.60213e-06
2.69801e-06
2.10443e-06
1.73153e-06
1.51122e-06
1.39578e-06
1.35293e-06
1.36029e-06
1.40107e-06
1.46203e-06
1.5322e-06
1.59956e-06
1.64891e-06
1.6645e-06
1.6354e-06
1.56014e-06
1.44821e-06
1.31696e-06
1.18531e-06
1.06839e-06
9.75228e-07
9.09423e-07
8.70119e-07
4.52609e-05
4.06232e-05
3.76519e-05
3.65745e-05
3.7682e-05
4.1309e-05
4.77263e-05
5.69217e-05
6.83917e-05
8.11048e-05
9.36708e-05
0.000104615
0.000112665
0.000116956
0.00011717
0.000113424
0.000106364
9.7004e-05
8.64885e-05
7.58623e-05
6.59136e-05
5.71124e-05
4.96218e-05
4.33547e-05
3.80602e-05
3.344e-05
2.92403e-05
2.52948e-05
2.15326e-05
1.79608e-05
1.46385e-05
1.16489e-05
9.06827e-06
6.94094e-06
5.26981e-06
4.01836e-06
3.12212e-06
2.50569e-06
2.09791e-06
1.84014e-06
1.68776e-06
1.6079e-06
1.5763e-06
1.57459e-06
1.5883e-06
1.60577e-06
1.61714e-06
1.61292e-06
1.58306e-06
1.51834e-06
1.41433e-06
1.2757e-06
1.11748e-06
9.60607e-07
8.2391e-07
7.18271e-07
6.464e-07
6.06225e-07
5.93164e-07
4.15736e-05
3.60975e-05
3.19251e-05
2.91557e-05
2.79171e-05
2.82899e-05
3.0319e-05
3.39385e-05
3.89081e-05
4.47955e-05
5.10214e-05
5.69454e-05
6.19625e-05
6.55821e-05
6.75012e-05
6.76316e-05
6.6044e-05
6.29906e-05
5.88403e-05
5.39983e-05
4.8847e-05
4.37015e-05
3.87822e-05
3.42053e-05
2.9998e-05
2.61322e-05
2.25605e-05
1.92438e-05
1.61669e-05
1.33416e-05
1.08011e-05
8.58732e-06
6.73381e-06
5.24979e-06
4.11473e-06
3.28368e-06
2.69911e-06
2.30357e-06
2.04731e-06
1.89056e-06
1.80256e-06
1.7595e-06
1.74274e-06
1.73755e-06
1.73224e-06
1.71723e-06
1.68414e-06
1.6251e-06
1.53307e-06
1.40379e-06
1.23936e-06
1.05157e-06
8.61499e-07
6.92626e-07
5.60833e-07
4.7003e-07
4.15887e-07
3.9186e-07
3.91648e-07
3.59103e-05
3.00369e-05
2.52436e-05
2.1565e-05
1.90376e-05
1.7682e-05
1.7456e-05
1.82717e-05
1.99931e-05
2.24427e-05
2.53914e-05
2.8574e-05
3.17143e-05
3.45554e-05
3.6884e-05
3.85462e-05
3.94543e-05
3.95808e-05
3.8936e-05
3.75781e-05
3.5603e-05
3.31317e-05
3.03e-05
2.72448e-05
2.40914e-05
2.09487e-05
1.79057e-05
1.50343e-05
1.23929e-05
1.00307e-05
7.98666e-06
6.28542e-06
4.92985e-06
3.89698e-06
3.14298e-06
2.61438e-06
2.25834e-06
2.02961e-06
1.89237e-06
1.81866e-06
1.78672e-06
1.77962e-06
1.78437e-06
1.79103e-06
1.79169e-06
1.77908e-06
1.74534e-06
1.68152e-06
1.57869e-06
1.43116e-06
1.24114e-06
1.02304e-06
8.03326e-07
6.11898e-07
4.67806e-07
3.72896e-07
3.18486e-07
2.9462e-07
2.93381e-07
2.87787e-05
2.32122e-05
1.86162e-05
1.50076e-05
1.24033e-05
1.07762e-05
1.00392e-05
1.00501e-05
1.06882e-05
1.1844e-05
1.34092e-05
1.52685e-05
1.72998e-05
1.93807e-05
2.13941e-05
2.32323e-05
2.47956e-05
2.59916e-05
2.6738e-05
2.69692e-05
2.66357e-05
2.57194e-05
2.42459e-05
2.22842e-05
1.99433e-05
1.73675e-05
1.47129e-05
1.21321e-05
9.75431e-06
7.67677e-06
5.95546e-06
4.60196e-06
3.59088e-06
2.86954e-06
2.37536e-06
2.05079e-06
1.84808e-06
1.73128e-06
1.67432e-06
1.65697e-06
1.66407e-06
1.68489e-06
1.71259e-06
1.74313e-06
1.77307e-06
1.79714e-06
1.80631e-06
1.78648e-06
1.72085e-06
1.59508e-06
1.4053e-06
1.16499e-06
9.06508e-07
6.71541e-07
4.90975e-07
3.71239e-07
3.01312e-07
2.6711e-07
2.57692e-07
2.13487e-05
1.66085e-05
1.27646e-05
9.82891e-06
7.78883e-06
6.56087e-06
5.99754e-06
5.94189e-06
6.28043e-06
6.92962e-06
7.82936e-06
8.92788e-06
1.01808e-05
1.15469e-05
1.29846e-05
1.44478e-05
1.58774e-05
1.7196e-05
1.8318e-05
1.91442e-05
1.95807e-05
1.95409e-05
1.89687e-05
1.78507e-05
1.62205e-05
1.41987e-05
1.19518e-05
9.68133e-06
7.57093e-06
5.76784e-06
4.34231e-06
3.28994e-06
2.55953e-06
2.07607e-06
1.76718e-06
1.57979e-06
1.47466e-06
1.42461e-06
1.41229e-06
1.42263e-06
1.44613e-06
1.47735e-06
1.51522e-06
1.56125e-06
1.6168e-06
1.67859e-06
1.73822e-06
1.77698e-06
1.76928e-06
1.69004e-06
1.52723e-06
1.2909e-06
1.0154e-06
7.50244e-07
5.3758e-07
3.92296e-07
3.04941e-07
2.58938e-07
2.40546e-07
1.25149e-05
9.24529e-06
6.75455e-06
5.0058e-06
3.93796e-06
3.41092e-06
3.25925e-06
3.35387e-06
3.63395e-06
4.0667e-06
4.59472e-06
5.19784e-06
5.86543e-06
6.59218e-06
7.39784e-06
8.27703e-06
9.248e-06
1.03019e-05
1.13292e-05
1.22263e-05
1.29072e-05
1.32852e-05
1.32945e-05
1.28308e-05
1.18632e-05
1.0436e-05
8.70966e-06
6.9018e-06
5.21355e-06
3.81913e-06
2.80201e-06
2.11278e-06
1.67858e-06
1.41482e-06
1.25886e-06
1.16437e-06
1.11346e-06
1.10278e-06
1.11123e-06
1.12539e-06
1.14626e-06
1.17353e-06
1.20908e-06
1.25636e-06
1.31306e-06
1.3798e-06
1.44604e-06
1.49435e-06
1.51078e-06
1.46247e-06
1.32958e-06
1.11917e-06
8.75443e-07
6.42685e-07
4.53706e-07
3.25257e-07
2.48536e-07
2.08385e-07
1.9141e-07
0.000165207
0.000149561
0.00013817
0.00012946
0.000121796
0.000114253
0.000106331
9.78973e-05
8.8703e-05
7.92474e-05
7.31528e-05
7.21899e-05
7.63786e-05
8.30411e-05
8.80326e-05
9.1573e-05
9.36872e-05
9.41231e-05
9.2924e-05
9.06031e-05
8.79382e-05
8.48581e-05
7.93386e-05
6.94383e-05
5.31348e-05
0.000157139
0.000143328
0.000132242
0.000123365
0.000115565
0.000108121
0.000100598
9.26822e-05
8.43191e-05
7.63432e-05
7.02581e-05
6.69239e-05
6.63574e-05
6.75706e-05
6.93474e-05
7.13128e-05
7.32899e-05
7.50924e-05
7.65647e-05
7.76154e-05
7.81109e-05
7.75819e-05
7.49569e-05
6.8662e-05
5.63108e-05
0.000167141
0.000145846
0.000130402
0.000118621
0.000108884
0.000100155
9.18132e-05
8.3538e-05
7.54386e-05
6.81049e-05
6.22181e-05
5.81786e-05
5.60343e-05
5.54669e-05
5.60474e-05
5.75574e-05
5.98462e-05
6.27298e-05
6.59873e-05
6.93569e-05
7.24543e-05
7.45688e-05
7.44448e-05
7.00437e-05
5.83047e-05
0.000184653
0.000152613
0.000130452
0.000114348
0.000101818
9.13048e-05
8.19125e-05
7.32127e-05
6.5209e-05
5.82159e-05
5.25845e-05
4.85289e-05
4.61018e-05
4.52169e-05
4.57198e-05
4.75091e-05
5.04829e-05
5.4482e-05
5.92769e-05
6.45479e-05
6.97966e-05
7.41371e-05
7.60091e-05
7.29207e-05
6.07475e-05
0.000206997
0.000163787
0.000133828
0.000112466
9.64997e-05
8.3835e-05
7.3215e-05
6.39802e-05
5.59259e-05
4.91256e-05
4.37258e-05
3.98303e-05
3.7479e-05
3.66672e-05
3.73462e-05
3.94711e-05
4.29592e-05
4.76614e-05
5.33562e-05
5.97172e-05
6.61934e-05
7.17632e-05
7.45887e-05
7.18126e-05
5.88433e-05
0.000230334
0.000177256
0.000139346
0.000112339
9.26531e-05
7.76877e-05
6.57762e-05
5.59601e-05
4.77896e-05
4.11232e-05
3.59538e-05
3.22971e-05
3.01595e-05
2.95351e-05
3.03934e-05
3.26957e-05
3.63595e-05
4.12421e-05
4.71416e-05
5.37589e-05
6.05626e-05
6.65119e-05
6.96936e-05
6.71455e-05
5.39562e-05
0.000253891
0.000191751
0.000145758
0.000112969
8.95496e-05
7.23509e-05
5.92393e-05
4.89137e-05
4.06647e-05
3.41572e-05
2.92518e-05
2.58806e-05
2.39997e-05
2.35513e-05
2.44795e-05
2.67225e-05
3.01845e-05
3.47279e-05
4.01805e-05
4.62951e-05
5.26077e-05
5.81383e-05
6.10632e-05
5.85151e-05
4.5873e-05
0.000277931
0.000204744
0.000150523
0.000112322
8.56195e-05
6.66171e-05
5.26623e-05
4.21044e-05
3.39693e-05
2.77618e-05
2.32213e-05
2.02035e-05
1.86175e-05
1.83109e-05
1.91896e-05
2.1161e-05
2.41135e-05
2.79199e-05
3.24466e-05
3.75144e-05
4.27527e-05
4.73228e-05
4.96809e-05
4.72785e-05
3.61099e-05
0.000296245
0.000211308
0.000149855
0.000107536
7.86816e-05
5.88038e-05
4.47382e-05
3.44753e-05
2.68048e-05
2.11779e-05
1.71926e-05
1.46533e-05
1.3464e-05
1.33016e-05
1.40223e-05
1.55546e-05
1.77603e-05
2.05456e-05
2.38075e-05
2.74195e-05
3.10443e-05
3.40839e-05
3.52999e-05
3.24741e-05
2.32418e-05
2.93846e-05
2.78752e-05
2.93653e-05
3.42042e-06
3.19287e-07
6.60988e-07
8.72863e-05
6.42138e-07
8.64531e-05
3.46944e-07
0.684164
3.40179e-07
3.03858e-05
1.49109e-07
0.000208597
1.17749e-06
0.0327198
3.13553e-06
9.90035e-08
0.0349732
4.67245e-06
9.7511e-07
0.000615979
5.28769e-07
5.83112e-07
1.68182e-07
6.31454e-07
9.21465e-06
1.47353e-05
0.0145793
9.98872e-08
8.27004e-08
0.000147558
3.17285e-05
0.00433568
2.21357e-07
7.22824e-05
0.00023716
8.02619e-05
4.51548e-07
0.00111435
9.35472e-07
1.83317e-07
0.000197966
2.206e-05
8.99074e-07
5.7133
0.0883881
2.00036e-05
4.16863e-05
7.02595
0.00166965
3.02578e-06
3.14814e-06
8.09157e-05
4.7304e-05
8.6539e-08
2.99061e-06
4.34468e-07
0.000518521
1.69993e-06
1.8948e-05
2.5464e-07
6.06549e-07
5.48705e-07
0.000349785
9.15423e-08
1.6051e-06
3.90135e-05
6.5393e-05
3.51669e-05
1.94632e-06
6.31906e-07
0.00744973
1.86791e-07
4.0048e-06
0.00121914
0.0237928
2.77302e-06
2.71139e-06
2.40308e-05
1.84618e-05
2.99708e-07
11.3863
5.66378e-07
3.20573e-06
5.6157e-07
0.0154834
0.000170072
7.03049e-07
2.02529e-06
9.2358e-08
8.24169e-07
3.7193e-07
3.22526e-07
0.220235
1.52224e-07
8.81975
9.56119e-07
0.000545249
5.84535e-07
0.000924626
1.20306e-06
2.79765e-06
4.26422e-07
2.07487e-05
0.000639949
2.02938e-05
3.45288e-07
0.0195727
1.11489e-06
1.3886e-07
0.00311077
3.13523e-06
2.75899e-06
2.03265e-05
0.000341357
4.66019e-07
5.47237e-06
1.94479e-07
1.06548e-07
1.54208e-07
4.56262e-07
5.48488e-07
0.000149804
1.63332e-07
0.00168476
1.11288e-05
3.61455e-08
0.126287
2.9836e-07
0.00373879
6.63299e-05
7.22172e-05
8.47792e-05
6.42008e-07
1.76153e-05
1.32905e-07
8.34603e-07
0.300794
4.54887e-06
5.11451e-05
0.000904486
1.20141e-07
1.56446e-05
1.97658e-06
3.03074e-06
2.52e-05
1.20338e-06
0.00973965
4.94494e-07
6.53955e-08
3.37928e-06
0.000959666
2.53749e-07
9.97121
1.45561e-06
3.46441e-07
0.00329022
1.12862e-07
1.31528e-07
6.44654e-05
1.14949e-06
7.50601
1.30264e-06
12.5338
8.13797e-08
7.53953e-07
2.37571e-06
1.30624e-06
1.72808e-07
6.16845e-07
1.73869e-06
11.8625
3.95304e-08
2.35781e-05
5.73918e-05
3.92293e-05
0.000104131
4.091e-06
0.000128513
6.93782e-08
3.02487e-06
0.000136586
0.00033887
4.44689e-08
12.4603
4.35464e-07
4.73831e-05
1.14639e-06
0.00378193
0.000864009
2.26959e-06
3.61655e-05
0.000355653
8.54851e-05
1.94676e-07
8.32023e-07
1.84623e-05
1.77856e-05
8.99159e-05
4.49176e-06
1.24473e-05
1.01859e-06
2.19871e-06
4.92261e-07
9.55881e-08
9.02293e-07
3.57911e-05
3.64826e-07
3.87537e-07
2.37844e-07
0.000114965
2.09542e-06
6.44538e-07
0.00118922
2.88617e-07
4.43599e-08
1.32638e-06
2.26345e-06
2.26389e-06
9.80675e-07
2.8581e-07
5.89477e-06
7.48847e-07
0.000547676
8.00896e-07
0.0275504
6.10786e-07
4.26869e-07
9.5605
2.62199e-07
6.78643e-08
1.83486e-07
7.95367e-05
5.0915e-07
0.0013559
4.21387e-06
0.000136501
0.00158337
6.36719e-08
1.80281e-06
1.08284e-06
0.000165086
6.97787e-07
3.38322e-07
1.17733e-07
5.79516e-05
1.10069e-06
3.98571e-07
9.00185e-07
3.22605e-05
1.58411e-07
2.56388e-05
6.66979e-08
9.04619e-07
0.00344413
0.000932781
0.00264267
9.94821e-08
2.7472e-06
2.75161e-08
7.20816e-07
2.52555e-07
0.00272154
4.9597e-07
6.22438e-07
2.8174e-06
7.14997e-05
7.54424e-07
9.83857e-06
3.63463e-06
2.78535e-07
4.24198e-08
1.7729e-07
2.47244e-06
1.71047e-07
0.00125899
5.62789e-08
0.00435642
0.0005509
5.27479e-07
1.36282e-06
9.99434e-07
0.000114283
1.52163e-06
2.33462e-05
8.61781e-07
0.00526135
0.00665657
0.00118912
1.02626e-06
1.61331e-06
0.0122639
8.25965e-05
0.000993579
0.000316334
5.83986e-08
1.24758e-07
0.000350881
0.00224935
1.44767e-07
6.44069e-08
9.75214e-07
0.000829395
9.5268e-07
4.35617e-06
3.09754e-08
0.258068
1.58039e-05
2.12661e-06
2.00079e-06
0.00011023
6.01865e-08
4.99756e-07
2.5449e-05
2.39543
2.472e-07
6.10962e-07
0.000114054
0.00166033
9.15389e-07
6.25978e-08
9.99501e-08
4.38773e-07
4.96437e-07
0.000300944
2.37309e-05
6.09659e-08
3.60643e-06
1.26261e-06
0.000304687
2.17726e-06
4.17988e-07
0.00810119
5.4223e-06
3.57498e-07
3.49369e-07
2.63346e-08
2.03546e-06
2.86984e-07
6.16829e-07
0.000399373
1.00657e-06
0.00138233
3.20921e-07
1.62044e-07
4.80364e-08
9.17723e-07
10.6108
2.90206e-07
7.68429e-07
1.98159e-06
0.00142983
0.00819773
7.59481e-07
0.000168102
7.66335e-05
9.32138e-07
11.4311
4.3169e-05
0.000525806
9.36759e-08
0.000473288
2.79325e-07
9.30484e-07
9.6817e-07
0.34743
5.86114e-07
4.00631e-05
1.90067e-06
0.000934329
1.77095e-05
0.000673683
2.80762e-05
3.69518e-07
2.55903e-07
2.0384e-06
7.62677e-08
4.62889e-07
0.000288633
5.67288e-07
0.000123744
0.000269398
0.00012766
0.000137477
1.43838e-06
0.0154028
0.0583328
0.00303549
7.19312e-06
5.18565e-07
6.29185e-06
0.000123472
0.000126533
1.84277e-07
9.16439e-07
0.000106221
2.68128e-07
1.57168e-05
6.88111e-07
4.43054e-07
4.52619e-07
4.14829e-05
7.22077e-07
1.99285e-08
0.000212337
8.95643e-06
3.45329e-07
6.18579e-08
6.03693e-05
6.46833e-07
0.000307257
7.17045e-07
7.77732e-07
7.1222e-07
1.82334e-05
10.3916
8.95644e-08
8.31879e-08
1.4346e-06
8.74845e-08
9.44001e-07
2.51676e-06
9.51299e-07
0.0115899
4.32478e-09
1.5038e-07
4.62137e-08
8.16389e-08
1.09403e-06
9.87132e-07
7.94794e-07
3.98911e-06
0.000596418
7.94322e-07
1.12903e-06
7.41492e-07
4.33452e-08
9.63337e-08
1.28192e-07
0.00155988
0.00421885
1.38536e-06
4.19165e-05
1.68726e-06
5.14445e-06
4.4261e-05
3.4935e-07
1.9127e-06
0.000381966
1.56658e-07
1.09964e-06
0.000237626
1.14307e-06
6.09913e-05
12.3037
2.69663e-06
1.89785e-06
2.58498e-05
1.00819e-06
0.000288119
3.84231e-05
0.000101351
0.00575355
1.03811e-06
8.89384e-07
1.00589e-05
1.16539e-07
0.0270015
3.32247e-05
1.25767e-06
0.000581542
1.32322e-07
5.67315e-07
2.22145e-05
6.35201e-07
1.55122e-06
3.34602e-05
2.20684e-05
9.31637e-07
0.000117137
1.6182e-09
4.21668e-07
10.4359
1.5941e-07
1.51198e-05
1.21579e-06
1.15233e-05
2.95452e-06
0.000283495
6.82519e-07
2.72085e-07
0.000140624
5.20043e-07
5.79333e-07
0.000228351
9.94875e-07
8.07318e-07
4.0904e-05
1.37941e-07
0.000749349
7.36284e-07
8.71171e-05
4.70181e-05
4.77698e-05
1.03051e-06
1.16138e-06
0.00018641
1.15227e-07
4.91103e-07
3.7534e-05
3.3247e-08
4.60541e-07
4.58875e-08
0.272392
0.000579363
2.17481e-05
3.46629e-07
1.42689e-05
1.46064e-06
0.00852209
0.0521344
3.37723e-06
3.11711e-05
1.4863e-06
0.00812431
0.000563533
4.39262e-07
7.16947e-07
2.55722e-05
3.9193e-06
1.86425e-06
9.78817e-06
1.77376e-07
8.0789e-07
6.96039e-07
0.000162941
2.4292e-05
6.24273e-07
0.00010669
0.0293723
6.86469e-07
0.000640142
1.96083e-06
3.11537e-06
9.3648e-07
2.49296e-06
9.91516e-07
0.00210325
0.000105704
0.000145283
3.76021e-08
3.173e-05
2.17179e-05
1.07808
2.92273e-07
2.78794e-06
1.7885e-05
5.28925e-05
4.6162e-08
7.91014e-05
5.86628e-07
2.13881e-05
0.0176221
2.03185e-07
9.56963e-06
3.77374e-07
8.5679e-08
4.62947e-06
0.000144122
1.26193e-06
0.000130191
7.22781e-07
1.80384e-07
0.00640422
9.35193
6.44951e-05
1.78992e-06
7.48231e-06
0.698879
2.75064e-06
3.77633e-06
1.83812e-06
4.75686e-07
9.224e-05
4.38065e-07
4.83565e-07
4.43198e-05
2.04701e-06
3.03769e-06
4.97058e-06
6.90519e-07
0.000838073
2.96979e-06
3.91709e-07
2.29971e-05
2.62878e-05
1.72847e-07
7.05325e-08
0.000457597
7.25493e-06
3.66854e-07
1.18578e-07
1.03846e-05
6.62295e-08
2.50468e-06
8.87129e-08
7.41524e-07
1.35218e-07
1.57761e-07
0.000101272
3.68992e-07
1.82078e-06
1.02281e-05
4.2536e-06
4.7483e-08
2.2468e-07
2.46016e-06
6.21636e-07
1.0758e-06
9.91196e-07
8.64683e-07
1.21281e-07
1.56402e-06
0.000464648
8.16329
7.46701e-06
9.02558e-05
3.03758e-06
8.64692e-07
1.44997e-06
1.93391e-07
1.86625e-06
1.86093e-07
7.91398e-06
8.88158e-07
2.96207e-07
5.39108e-08
0.000363588
8.23257e-06
1.08264e-06
0.000309439
5.4298e-07
5.23033e-07
3.72062e-08
2.44988e-06
1.11503e-06
0.000484641
0.00079722
0.00151033
5.80784e-08
3.26959e-07
1.50827e-06
1.24037e-06
8.30745e-08
9.167
1.17156e-07
4.90807e-06
1.32151e-07
9.95197e-05
1.99064e-06
9.96071
4.98513e-08
1.35229e-06
5.34496e-07
0.000280632
4.32109e-05
0.000210006
2.73189e-06
1.93822e-06
2.2865e-07
2.63284e-07
0.00158936
8.4894e-08
6.34989e-07
7.41523e-05
2.05177e-07
1.28363e-06
4.90318e-07
4.41508e-07
3.92843e-06
8.92273e-08
3.03872e-07
5.3258e-07
1.65153e-06
1.78867e-06
1.90325e-05
0.000594625
9.03908e-08
0.00026835
7.63264e-08
0.00818654
3.83097e-07
2.05593e-06
4.0593e-07
1.2076e-07
4.17238e-05
9.17874e-07
5.97628e-07
4.63622e-07
1.48842e-06
7.01271e-08
1.21414e-06
3.14347e-06
0.000901974
0.000174128
2.97397e-07
0.0547724
0.000326923
1.25231e-05
0.00211403
1.4269e-07
1.5245e-06
1.15244e-06
4.3644e-08
6.74999e-07
0.000475357
1.66023e-06
2.12946e-07
2.03661e-05
6.82287e-07
5.64385e-08
0.000215757
2.57287e-07
3.25883e-08
5.4603e-07
2.52045e-07
3.82403e-05
0.000338371
1.6434e-07
0.000177761
1.76725e-05
3.26623e-05
5.9657e-06
0.000647598
0.00745859
2.17156e-06
4.07315e-08
1.19014e-06
4.66183e-08
1.15228e-06
1.13716e-06
0.00013546
3.67077e-05
1.28716e-06
0.00435093
9.74228e-07
4.67609e-08
5.8903e-07
6.39892e-07
9.87006
1.9644e-06
3.25233e-07
6.80215e-05
0.000995928
4.83861e-06
0.00028832
3.55127e-09
3.02948e-07
0.000247333
5.24395e-08
3.74394e-05
3.226e-07
0.000637983
0.000934852
8.27564e-07
0.000955493
1.41191e-07
2.80297e-07
0.000216881
2.45441e-06
2.11636e-07
9.45143e-08
3.87197e-07
4.04349e-05
1.19555e-06
2.01255e-07
1.42107e-07
6.40034e-07
3.01346e-06
2.30909e-07
0.00202991
0.000317086
5.42951e-07
2.96411e-07
5.89281e-07
0.165603
3.74965e-06
8.5013e-07
2.94624e-06
1.69613e-05
4.38526e-07
2.12865e-07
3.45102e-06
9.62204
1.7587e-06
0.000182038
1.0158e-06
3.596e-05
8.10423e-05
0.0014928
1.82807e-06
7.85524e-05
9.37764e-08
9.47854e-07
0.000622741
1.34335e-06
7.74148e-07
6.75377e-06
8.52416e-05
2.75208e-05
8.02294e-08
1.83569e-07
4.63944e-05
1.43869e-06
3.19623e-06
0.000105439
3.75996e-06
7.10563e-08
0.00101574
2.51416e-05
2.67634e-05
1.15688e-06
7.44398e-08
3.11953e-07
2.93943e-05
0.000100106
2.29776e-07
1.07886e-06
4.49927e-07
0.000160387
3.12792e-08
0.000173556
3.84211e-05
1.66471e-07
1.03507e-06
1.91184e-06
2.10636e-07
1.21456e-05
1.08174e-07
1.32667e-05
2.81919e-07
2.86723e-07
0.0001025
1.90038e-06
1.01341e-06
8.28637e-07
4.70201e-05
1.28387e-05
0.0123734
3.88232e-08
3.59953e-07
1.02612e-06
0.000142265
0.25713
5.24244e-06
1.57399e-07
5.16726e-05
0.000275823
2.45432e-08
2.21177e-07
4.7816e-07
9.87167
2.64128e-07
0.140995
1.16261e-06
3.37603e-08
0.000131611
1.15797e-06
3.16388e-06
1.38207e-06
2.01883e-05
0.00195034
0.000882404
9.31224
2.25673e-07
9.03726e-05
9.76784e-05
1.10742e-06
9.99906e-05
2.32347e-07
6.74514e-07
4.75991e-05
8.9084e-07
1.72845e-06
6.67142e-06
1.94062e-06
5.42677e-07
2.43772e-07
9.92459e-05
6.71552e-08
1.03144e-06
0.000307095
3.12618e-05
0.000176853
1.53681e-06
1.45851e-05
0.0493016
0.000812739
6.70321e-05
8.81492e-06
3.27903e-05
1.43103e-07
4.55634e-08
8.21446e-06
6.29297e-05
1.33263e-07
2.02155e-06
8.24499e-08
9.11168e-05
1.37099e-06
4.23506e-05
3.09809e-05
9.21097e-08
1.48224e-07
2.01077e-06
0.000239926
1.18641e-05
0.000209282
1.74803e-05
1.74704e-06
9.15617e-06
1.60436e-05
2.82007e-06
3.59429e-05
2.76605e-06
1.11838e-07
9.80982e-07
9.55832e-07
4.16111e-08
4.77618e-05
0.0051766
2.81509e-07
0.000274475
1.1893e-06
0.00118417
7.08293e-07
1.94612e-07
6.85432e-07
1.43195e-05
0.000102101
7.14431e-06
1.20511e-05
1.50328e-07
7.22259e-08
0.000747149
5.58689e-08
0.000134537
6.55355e-05
0.000321275
1.28343e-07
1.51326e-06
0.00102213
1.23829e-06
1.84248e-06
1.04098e-05
0.000358678
1.64854e-07
2.36983e-07
0.000994741
0.000246114
8.28867e-07
3.10569e-06
3.51898e-08
2.22397e-06
7.12825e-07
5.15912e-08
6.10448e-06
3.32903e-08
2.66645e-05
0.000174915
0.0599
1.85868e-05
1.21732e-06
7.11735e-06
9.16948e-06
2.47809e-07
1.45518e-05
2.44109e-07
1.06181e-07
0.00497029
1.33879e-06
0.000106717
1.32659e-07
9.06019e-07
3.05501e-05
5.33163e-07
1.70355e-06
2.84823e-07
3.87598e-05
0.000101972
0.000285099
3.09242e-07
0.00037074
1.25897e-07
1.67674e-06
1.06066e-06
0.000581605
0.000131062
1.26375e-06
0.030317
2.78956e-08
9.46109
7.86653e-07
2.72333e-05
1.26037e-05
8.96389e-07
2.92209e-07
5.57204e-05
0.000295471
1.47746e-07
2.24113e-06
0.000154737
6.78333e-08
8.71035e-07
3.04138e-07
5.52995e-07
5.85785e-07
0.135028
1.56977e-06
6.95178e-07
0.00103486
4.07159e-05
9.68356
4.1283e-08
1.73545e-06
7.35354e-08
8.18553e-07
3.48364e-06
1.32334e-07
0.00028433
8.48239e-07
0.000142032
7.10773e-08
3.8743e-06
8.26878e-06
0.000333952
1.1086e-06
1.75878e-06
1.95575e-07
2.70483e-06
7.4442e-08
1.83726e-06
0.00583255
3.43664e-06
8.58216e-06
1.57788e-07
0.00104548
0.000192311
1.56234e-05
3.64132e-05
1.34113e-06
3.41354e-05
0.000501157
10.0864
6.69752e-07
8.2805e-07
1.08841e-05
0.000170087
2.23556e-06
2.55992e-06
8.67851e-07
6.32668e-05
3.53423e-05
5.9384e-06
4.80323e-07
1.76764e-07
4.09814e-07
1.06617e-07
7.15386e-07
2.99304e-05
1.39066e-07
0.000107836
3.15437e-07
7.86151e-08
3.32945e-08
4.41211e-07
4.63875e-06
3.06673e-08
0.131781