/*--------------------------------*- C++ -*----------------------------------*\
  =========                 |
  \\      /  F ield         | OpenFOAM: The Open Source CFD Toolbox
   \\    /   O peration     | Website:  https://openfoam.org
    \\  /    A nd           | Version:  10
     \\/     M anipulation  |
\*---------------------------------------------------------------------------*/
FoamFile
{
    format      ascii;
    class       volScalarField;
    location    "200";
    object      k;
}
// * * * * * * * * * * * * * * * * * * * * * * * * * * * * * * * * * * * * * //

dimensions      [0 2 -2 0 0 0 0];

internalField   nonuniform List<scalar> 
10435
(
0.0356704
0.0395692
0.0919114
0.0780811
0.145171
0.164756
0.0884299
0.172391
0.212443
0.154537
0.0527916
0.230469
0.11586
0.11356
0.0891725
0.150731
0.133161
0.144835
0.207752
0.0378405
0.154603
0.0820496
0.134109
0.311803
0.142521
0.149264
0.149288
0.0919097
0.134568
0.156879
0.17456
0.0645725
0.186716
0.129291
0.230801
0.0336847
0.221364
0.183132
0.139601
0.232604
0.162187
0.0983186
0.165065
0.0492358
0.196975
0.276312
0.165059
0.183526
0.196666
0.0831783
0.177605
0.181006
0.131734
0.114822
0.144315
0.118469
0.270349
0.190503
0.140935
0.266444
0.136468
0.0365458
0.179815
0.190093
0.161831
0.103582
0.142665
0.202139
0.150838
0.323896
0.115699
0.160046
0.121041
0.111188
0.0611828
0.131672
0.310697
0.0949086
0.188
0.0443415
0.158397
0.0316595
0.123191
0.11446
0.208902
0.0362673
0.0371032
0.0488754
0.0437809
0.0379976
0.0587251
0.0752659
0.0328937
0.0385601
0.0398742
0.0336085
0.0982572
0.075122
0.128974
0.12616
0.0566084
0.136342
0.037094
0.0431824
0.144999
0.0602831
0.0348749
0.115562
0.257253
0.0330803
0.0601785
0.124305
0.0308604
0.0307892
0.0995048
0.0612558
0.154892
0.0362801
0.0474045
0.158422
0.179296
0.10965
0.0371357
0.0509507
0.072897
0.144148
0.12841
0.0970872
0.156484
0.161854
0.077648
0.0591185
0.169385
0.0681475
0.168705
0.0923472
0.0285684
0.103988
0.0420725
0.0486005
0.0416441
0.173082
0.144118
0.219265
0.112321
0.105512
0.0322654
0.176193
0.145245
0.239753
0.174502
0.238793
0.0374484
0.232467
0.169361
0.157706
0.0893383
0.038923
0.161688
0.0403639
0.235556
0.0918342
0.0702306
0.236204
0.0412321
0.184301
0.205909
0.172801
0.295212
0.205506
0.153049
0.111205
0.130292
0.0844803
0.268929
0.0356108
0.0347157
0.181694
0.0460643
0.153608
0.0446358
0.160645
0.241674
0.137726
0.205516
0.158063
0.13365
0.110594
0.159606
0.200803
0.203455
0.11505
0.159818
0.0291153
0.107616
0.130117
0.147617
0.0381706
0.187009
0.181732
0.0433271
0.18831
0.103274
0.195375
0.0972967
0.101521
0.0563418
0.136923
0.180933
0.15098
0.153614
0.112417
0.214274
0.263527
0.150475
0.126042
0.034976
0.121171
0.14982
0.111643
0.140125
0.167155
0.170052
0.0734182
0.15287
0.197198
0.148615
0.0463728
0.181798
0.114776
0.189931
0.204048
0.14854
0.273946
0.168125
0.148901
0.306981
0.152706
0.31913
0.153681
0.0430327
0.145158
0.121625
0.11845
0.0846761
0.201817
0.0366342
0.130775
0.0981036
0.0326647
0.103274
0.0376667
0.128187
0.195368
0.111352
0.182588
0.0901753
0.099265
0.14446
0.189147
0.0896308
0.163709
0.14759
0.295178
0.0339847
0.169605
0.0394805
0.146472
0.124201
0.125795
0.0832821
0.150579
0.123385
0.128924
0.152175
0.183872
0.171902
0.120133
0.135224
0.164577
0.135381
0.166456
0.0790527
0.0631477
0.0362666
0.108867
0.167587
0.147224
0.113932
0.141087
0.0505638
0.0480069
0.173292
0.136872
0.145589
0.117417
0.126688
0.0344471
0.0972293
0.139158
0.198993
0.313084
0.0780661
0.110333
0.0792765
0.102492
0.158876
0.290667
0.123679
0.111691
0.0386524
0.174959
0.0306292
0.173469
0.224688
0.113117
0.135421
0.210966
0.191985
0.206279
0.153034
0.157133
0.0364015
0.106958
0.174501
0.11106
0.15493
0.0814097
0.172666
0.17858
0.240379
0.142583
0.10801
0.0827646
0.259207
0.197476
0.110289
0.101539
0.111673
0.124568
0.155055
0.161607
0.129951
0.130563
0.124401
0.172562
0.196073
0.158358
0.0992778
0.185131
0.107392
0.116614
0.140925
0.0885024
0.179493
0.185742
0.109202
0.126682
0.117018
0.12338
0.105472
0.147327
0.119745
0.115971
0.144976
0.154842
0.203841
0.271142
0.156238
0.193114
0.146497
0.156773
0.113063
0.182526
0.10508
0.142705
0.173708
0.153496
0.124545
0.151646
0.165871
0.142578
0.177593
0.187352
0.148825
0.183001
0.0971929
0.105327
0.185876
0.0838415
0.226948
0.0919522
0.141017
0.128484
0.113804
0.0806815
0.121141
0.117726
0.163791
0.158898
0.158084
0.160083
0.135751
0.114092
0.165648
0.165944
0.293611
0.125602
0.153244
0.162271
0.194568
0.166456
0.154154
0.147751
0.11886
0.19872
0.137874
0.0875121
0.115419
0.155046
0.137537
0.122798
0.126263
0.0985164
0.0914419
0.180004
0.117487
0.0458175
0.0425238
0.0382372
0.032683
0.0275134
0.0233999
0.0200891
0.016987
0.0132174
0.0518739
0.0468867
0.0419621
0.0365726
0.03153
0.0271444
0.023281
0.0196143
0.0156025
0.0547925
0.0489321
0.0435922
0.0383777
0.0336085
0.0292808
0.0252804
0.0214066
0.0173091
0.0560065
0.0497177
0.0441423
0.0391298
0.0346667
0.0305397
0.0265953
0.0226712
0.0184981
0.0561676
0.0497142
0.0440517
0.039258
0.0350888
0.0312018
0.0273874
0.0234792
0.019229
0.0556442
0.049215
0.0435622
0.038971
0.0350473
0.0313793
0.0277088
0.0238537
0.0195821
0.0547665
0.0484726
0.0428575
0.0384108
0.0346529
0.0311469
0.027603
0.0238264
0.0196086
0.0539319
0.0477145
0.042108
0.0377194
0.0340283
0.0306055
0.0271465
0.0234478
0.0193183
0.0533555
0.0471276
0.0414868
0.0370641
0.0333376
0.0299082
0.0264704
0.0228093
0.0187284
0.0530831
0.0468872
0.041191
0.03665
0.0327914
0.0292616
0.0257655
0.0220717
0.0179624
0.0532904
0.0472163
0.0414675
0.0367331
0.0326513
0.0289253
0.0252819
0.0214723
0.0172659
0.0543512
0.0483893
0.0426461
0.0376497
0.033252
0.0292277
0.0253427
0.0213121
0.0169338
0.0562634
0.0507913
0.0451744
0.0398486
0.0350347
0.0305903
0.0263194
0.0219639
0.0172737
0.0588776
0.0549874
0.0495675
0.0438361
0.0385039
0.0335148
0.028721
0.0238765
0.0187084
0.0648572
0.0617508
0.0561911
0.0499131
0.0439617
0.0383231
0.0328775
0.0273781
0.0215045
0.075169
0.0711478
0.0648342
0.0578262
0.0511646
0.044805
0.038623
0.0323694
0.0256995
0.088502
0.0821677
0.0746537
0.0668056
0.0593818
0.0522622
0.045297
0.0382371
0.0307621
0.101446
0.0931467
0.0845545
0.0759416
0.0677921
0.0599299
0.052185
0.0443055
0.0359851
0.112324
0.102883
0.0936526
0.0845101
0.075768
0.0672563
0.0588126
0.0501977
0.0411166
0.120609
0.110917
0.101504
0.0921087
0.0829565
0.0739427
0.0649407
0.0557449
0.0461004
0.126414
0.117258
0.108038
0.0986202
0.0892433
0.0799018
0.0705161
0.0609051
0.0508367
0.130268
0.122175
0.113399
0.104114
0.094685
0.0852066
0.0756456
0.0658316
0.0555356
0.13315
0.126144
0.117885
0.108808
0.099485
0.090068
0.0805596
0.0707882
0.0605371
0.136521
0.129853
0.121912
0.113057
0.103982
0.0948364
0.0856416
0.0761894
0.066284
0.142362
0.134187
0.126139
0.117494
0.108775
0.100109
0.0915633
0.0829035
0.07365
0.0227482
0.0205419
0.0187534
0.0174134
0.0165574
0.0162311
0.0164921
0.017388
0.0189091
0.0209618
0.0234182
0.0262057
0.0293404
0.0328776
0.0368405
0.0412135
0.0459771
0.0511089
0.0565882
0.0623941
0.068494
0.0748288
0.08129
0.0876914
0.0936757
0.0985523
0.101102
0.100799
0.0984433
0.0945755
0.089336
0.0824155
0.0748569
0.0670879
0.0592397
0.0518194
0.0451065
0.0392764
0.0344127
0.0304856
0.0273763
0.0249232
0.0229689
0.0213909
0.0201018
0.0190924
0.0184245
0.0181835
0.0184492
0.0192448
0.0205112
0.0221339
0.0240021
0.0260431
0.028224
0.0305385
0.0329968
0.0356178
0.038396
0.0243523
0.0226277
0.0213986
0.0207309
0.0207086
0.0214369
0.0230049
0.0254168
0.0285299
0.0320587
0.0356327
0.0389796
0.0423128
0.0457864
0.0493077
0.052818
0.0562987
0.0597701
0.0632805
0.0669178
0.0707698
0.074912
0.0793902
0.0840865
0.0883921
0.0916569
0.0935618
0.0937798
0.092203
0.088899
0.0840759
0.0781329
0.0715662
0.0647547
0.0580344
0.0517316
0.046098
0.0412855
0.0373273
0.0341521
0.0316245
0.0295933
0.0279156
0.0265168
0.0254203
0.0245353
0.0238808
0.0235778
0.0236298
0.0239671
0.0245669
0.0254137
0.0264706
0.0277032
0.0290958
0.0306529
0.0323921
0.0343372
0.0364823
0.023888
0.0221151
0.0208158
0.0200593
0.0199315
0.0205338
0.0219592
0.0242387
0.0272921
0.0309366
0.0349401
0.039071
0.0431502
0.047073
0.0507819
0.05425
0.0574832
0.060519
0.0634149
0.0662363
0.0690469
0.071903
0.0748239
0.0777437
0.0804459
0.0825882
0.0838199
0.0838758
0.0826384
0.0801253
0.0764688
0.0719156
0.0667935
0.0614321
0.0561438
0.0512075
0.0468232
0.0430865
0.0399952
0.0374784
0.0354309
0.0337384
0.0322947
0.0310102
0.0298158
0.0286794
0.0276168
0.0266704
0.025888
0.025322
0.0250225
0.0250183
0.0253107
0.0258836
0.0267215
0.0278205
0.0291868
0.0308333
0.0327431
0.0228773
0.0209588
0.019476
0.0184889
0.0180646
0.018264
0.0191417
0.0207138
0.0229297
0.0256726
0.0287892
0.0321259
0.0355565
0.0389893
0.0423615
0.0456334
0.048784
0.0518062
0.0547037
0.057487
0.0601695
0.0627607
0.0652491
0.067573
0.069598
0.071138
0.0720006
0.0720298
0.0711404
0.0693329
0.0667002
0.0634253
0.0597533
0.0559475
0.0522505
0.0488486
0.0458475
0.0432723
0.0410872
0.0392209
0.0375861
0.0360936
0.0346637
0.0332356
0.031773
0.0302699
0.0287494
0.0272539
0.0258322
0.0245387
0.0234365
0.0225957
0.0220836
0.0219504
0.0222212
0.0228989
0.0239739
0.0254376
0.0272557
0.0205442
0.0184994
0.0168469
0.0156415
0.0149369
0.0147715
0.015167
0.0161212
0.017602
0.0195455
0.0218692
0.0244878
0.0273256
0.0303201
0.0334213
0.0365874
0.0397783
0.0429496
0.0460515
0.0490301
0.0518322
0.0544076
0.0567071
0.058673
0.0602325
0.0613019
0.0617982
0.0616584
0.060858
0.0594264
0.0574568
0.0551044
0.0525652
0.0500355
0.0476729
0.0455706
0.0437525
0.0421891
0.040819
0.0395644
0.0383444
0.037085
0.0357288
0.0342423
0.032618
0.0308709
0.0290312
0.0271368
0.0252307
0.0233674
0.0216262
0.0201206
0.0189847
0.0183309
0.0182061
0.0185923
0.019444
0.0207265
0.0223956
0.0176099
0.0155289
0.0138057
0.0124924
0.0116346
0.011259
0.0113587
0.0119145
0.012899
0.0142778
0.0160109
0.018056
0.0203723
0.0229234
0.0256766
0.0285982
0.0316478
0.034772
0.037901
0.0409492
0.0438205
0.0464173
0.0486494
0.0504393
0.0517256
0.0524675
0.0526463
0.0522704
0.0513821
0.050065
0.0484465
0.0466867
0.0449526
0.0433779
0.0420362
0.0409383
0.0400427
0.0392793
0.0385681
0.0378259
0.0369781
0.0359694
0.0347704
0.0333794
0.0318149
0.0301056
0.02828
0.0263604
0.0243672
0.0223337
0.0203297
0.0184834
0.0169745
0.0159759
0.0155685
0.0157237
0.0163655
0.0174363
0.0188853
0.0143478
0.0124032
0.0107997
0.00958676
0.00880311
0.00845573
0.00850811
0.00891906
0.00965523
0.0106938
0.012017
0.013609
0.0154557
0.0175448
0.0198643
0.0223982
0.0251193
0.0279821
0.0309194
0.0338405
0.0366346
0.0391778
0.0413476
0.0430351
0.0441578
0.0446786
0.0446041
0.0439922
0.0429467
0.041616
0.0401755
0.0387964
0.0376187
0.0367125
0.0360756
0.0356599
0.03538
0.035143
0.0348651
0.0344636
0.0338777
0.0330783
0.0320706
0.0308866
0.0295661
0.0281407
0.0266233
0.0250024
0.023256
0.0213763
0.0194047
0.0174636
0.0157591
0.0145209
0.0138847
0.0138353
0.0142765
0.0151275
0.0163263
0.0110484
0.00937974
0.00803736
0.00706435
0.00648279
0.00626956
0.00636614
0.0067206
0.00729894
0.00808152
0.00905832
0.0102258
0.0115885
0.0131563
0.0149409
0.0169496
0.0191762
0.0215907
0.024141
0.0267454
0.0293006
0.0316797
0.0337481
0.0353711
0.0364246
0.0368548
0.0366618
0.0359325
0.0348127
0.0335211
0.0322762
0.0312443
0.0305298
0.0301326
0.0299731
0.0299743
0.030034
0.0300537
0.0299706
0.0297056
0.0292222
0.0285194
0.0276368
0.0266347
0.0255712
0.0244723
0.0233434
0.022142
0.0208051
0.0192831
0.0175903
0.0158319
0.0142059
0.0129508
0.0122286
0.0120503
0.0123303
0.0129844
0.0139462
0.00720831
0.00596581
0.00502981
0.00442084
0.00413529
0.00411669
0.00429811
0.00462451
0.00507898
0.00565749
0.0063305
0.00709732
0.00796796
0.00896014
0.0101147
0.0114564
0.0130313
0.0148553
0.0168516
0.0189385
0.0210395
0.0230591
0.0248924
0.0263725
0.0273589
0.0277444
0.0275361
0.0268394
0.0258123
0.0247243
0.0238935
0.0233935
0.0232587
0.0233719
0.0235894
0.0237551
0.0238514
0.0239436
0.0238829
0.0235671
0.0230497
0.0223638
0.0215619
0.0207077
0.0198094
0.0189193
0.0180185
0.0170705
0.0160804
0.0149385
0.0136064
0.012163
0.0108468
0.00985282
0.00927281
0.0091404
0.00938221
0.00993638
0.0107246
0.126583
0.122108
0.118649
0.11532
0.11141
0.106608
0.100834
0.0941863
0.0866872
0.0787101
0.072269
0.0683355
0.066815
0.0663282
0.0651436
0.0635118
0.0615357
0.0591626
0.0563953
0.0533569
0.0502349
0.0469494
0.0428315
0.0372416
0.0294431
0.116937
0.11548
0.113186
0.110317
0.106649
0.102082
0.0966287
0.0903319
0.0833399
0.076236
0.0699354
0.0649758
0.0614167
0.0588088
0.0566359
0.0547562
0.053086
0.051514
0.0499238
0.0482164
0.0462854
0.0439373
0.0408115
0.0364104
0.0299811
0.11262
0.11002
0.107175
0.103869
0.0998749
0.0950837
0.0895045
0.083238
0.0765639
0.0699808
0.0640006
0.0589472
0.0549233
0.0518127
0.0494304
0.0476616
0.0463891
0.0454612
0.0447074
0.0439524
0.0430018
0.0415915
0.0393175
0.0356028
0.0295797
0.109096
0.104466
0.100354
0.0962102
0.0916736
0.0865596
0.0808512
0.0746704
0.0682985
0.0621319
0.056539
0.0517641
0.0479166
0.0449822
0.0428825
0.0415244
0.0407826
0.0404892
0.0404515
0.0404642
0.0402932
0.0396278
0.0380113
0.0347822
0.0288857
0.105938
0.0993986
0.0938761
0.0887377
0.0835531
0.0780773
0.0722514
0.0661732
0.0600806
0.0542881
0.0490857
0.044677
0.0411696
0.0385816
0.0368683
0.0359389
0.035657
0.0358413
0.0362929
0.0368004
0.0371193
0.0369156
0.0356817
0.0326891
0.0268195
0.102599
0.0944959
0.0876537
0.081553
0.075748
0.0699465
0.0640407
0.0580855
0.0522652
0.0468299
0.0420204
0.0380132
0.0349038
0.032705
0.0313661
0.0307877
0.0308179
0.0312774
0.0319787
0.0327264
0.0332851
0.0333346
0.0323585
0.0296104
0.0239223
0.0992194
0.0896792
0.0815608
0.074569
0.0682329
0.0621928
0.0562776
0.0504898
0.0449607
0.0398908
0.0354841
0.0318923
0.0291902
0.0273582
0.0263222
0.0259687
0.0261415
0.0266748
0.0274075
0.0281746
0.0287701
0.0289013
0.0280719
0.0255584
0.0202669
0.0960169
0.084562
0.0751162
0.0673408
0.0606201
0.0544828
0.0486719
0.0431358
0.037952
0.0332887
0.0293154
0.0261596
0.0238765
0.0223813
0.0215737
0.0213293
0.021502
0.0219537
0.02256
0.0231945
0.0236915
0.0237981
0.0230704
0.0208555
0.0162052
0.0920864
0.0783688
0.0675963
0.0592025
0.0523019
0.0462599
0.040716
0.0355424
0.0307693
0.0265846
0.0231007
0.0204278
0.0186272
0.0174721
0.016829
0.0166078
0.0166733
0.0169388
0.0173157
0.0177158
0.0179933
0.017962
0.0172154
0.0151681
0.0112339
0.118865
0.115637
0.0385455
0.0162522
0.00184875
0.00308165
0.0585252
0.00575784
0.0447136
0.00541105
1.47554
0.00412156
0.0688408
0.00345901
0.0999719
0.00305389
0.354538
0.0152342
0.00507917
0.292882
0.0348975
0.00747516
0.193938
0.00604709
0.00598858
0.0021356
0.00612121
0.011933
0.0695096
0.239968
0.0109109
0.00238959
0.118586
0.112092
0.177582
0.00224484
0.0814499
0.105005
0.109607
0.00327361
0.396063
0.000613658
0.00325005
0.049446
0.0273409
0.0158601
3.5181
0.843636
0.0662508
0.124265
3.97666
0.597653
0.0381211
0.0153624
0.0585321
0.0393852
0.00345955
0.0340834
0.00390955
0.354329
0.00279509
0.0366323
0.00192152
0.00441094
0.0052898
0.0777243
0.00430445
0.0114665
0.0736562
0.149531
0.0367372
0.0109286
0.00349099
0.320887
0.00466041
0.0328718
0.391421
1.07849
0.00591655
0.0140911
0.0990735
0.0108319
0.00346462
4.71519
0.0015415
0.00350979
0.00380959
0.97546
0.129795
0.0146818
0.0110475
0.0086997
0.0038864
0.00412794
0.00234252
1.12073
0.00208997
4.85539
0.00116385
0.366507
0.00262914
0.362889
0.00289214
0.0134235
0.00403227
0.0220702
0.200414
0.0914916
0.00122079
0.266555
0.00686714
0.00244498
0.159576
0.0137972
0.0359427
0.0678332
0.281935
0.00330345
0.0471027
0.00249376
0.000308666
0.00273138
0.00562458
0.00568292
0.115062
0.00313242
0.587973
0.0723236
0.00481287
0.956387
0.00355529
0.277241
0.149343
0.130935
0.0254091
0.00396595
0.0234029
0.00229939
0.00295127
0.730488
0.0122112
0.0779901
0.448776
0.000315133
0.0667395
0.00373548
0.0153355
0.0796169
0.0030181
0.212405
0.00732811
0.00824864
0.0163829
0.251692
0.00518458
4.40813
0.00615469
0.00259485
0.79388
0.00249897
0.00315741
0.0415887
0.00559125
4.37581
0.00569564
4.90186
0.0036652
0.00650254
0.00493927
0.00546905
0.00332806
0.00466553
0.0111459
4.80181
0.00914219
0.0163237
0.120142
0.108901
0.133485
0.0122139
0.17461
0.00217535
0.0390779
0.163959
0.0869704
0.00135352
4.85617
0.0011972
0.112923
0.00308315
0.534633
0.45099
0.0316328
0.0649646
0.131735
0.12255
0.00464681
0.00682649
0.068296
0.0815903
0.102943
0.0105522
0.00811833
0.00259727
0.0137759
0.00399196
0.0045072
0.00254538
0.0944659
0.00258899
0.004
0.0026776
0.173125
0.0139254
0.00783161
0.37722
0.00222538
0.00226776
0.0129606
0.0290489
0.007319
0.00069245
0.00524637
0.0291861
0.00773538
0.348517
0.00854732
0.332196
0.00120792
0.00274294
4.3334
0.00242188
0.00206938
0.00236177
0.102844
0.00495499
0.609795
0.00983835
0.159548
0.210403
0.00983137
0.00275005
0.00535439
0.0434224
0.00386661
0.00355489
0.00255861
0.0609807
0.00314028
0.00388577
0.000940052
0.0210305
0.00436894
0.0783349
0.00128787
0.00644446
0.167285
0.394883
0.757165
0.00585646
0.0107921
0.00494913
0.00390836
0.00512589
0.302513
0.00517562
0.00454219
0.0155311
0.0519214
0.00643556
0.0528235
0.0361875
0.00105717
0.0021943
0.00376168
0.0145237
0.00466125
0.0985247
0.00377706
0.817526
0.111432
0.00726611
0.0107763
0.0150625
0.141129
0.00277921
0.0223965
0.00822313
0.601735
0.594314
0.1404
0.00536271
0.000851648
0.751243
0.138649
0.347165
0.1502
0.00890877
0.00245289
0.288297
0.684217
0.0032076
0.00176785
0.0023217
0.0960607
0.00525032
0.0322922
0.00720539
0.681924
0.00917253
0.0115195
0.00927347
0.132392
0.00486974
0.00112509
0.0623391
2.46532
0.00415949
0.00599664
0.19225
0.601052
0.00443363
0.00181106
0.00947101
0.00328739
0.00503182
0.270943
0.0974626
0.0100475
0.0370289
0.00565449
0.119984
0.00736509
0.00524621
0.85811
0.00480557
0.00373644
0.00323379
8.46506e-05
0.0109958
0.00258733
0.00565207
0.317708
0.00915543
0.266657
0.00228691
0.00255063
0.00125178
0.00470543
4.33337
0.0180049
0.00404126
0.00135973
0.599156
0.697028
0.00773809
0.260074
0.0289035
0.00508337
4.47223
0.107649
0.172019
0.0026271
0.332513
0.000385563
0.00498561
0.00348652
1.60671
0.00395778
0.113202
0.0126708
0.275329
0.077856
0.0747875
0.0697714
0.00412827
0.00355333
0.006553
0.00242358
0.00506081
0.132611
0.00416456
0.101076
0.061519
0.0378727
0.198801
0.00590843
0.21259
0.902363
0.477771
0.0226659
0.00414007
0.0378876
0.0803641
0.172154
0.00537977
0.00515145
0.0946099
0.00231728
0.0713526
0.00591717
0.00401238
0.00148334
0.142489
0.0062278
0.000153678
0.0960019
0.0380855
0.0204805
0.00863464
0.0754238
0.00390441
0.268126
0.00294544
0.00406685
0.00758736
0.0594535
4.28038
0.00202974
0.0076713
0.0059059
0.00240204
0.0141347
0.00326176
0.00369555
1.01403
3.62102e-05
0.00251898
0.0101815
0.00244135
0.00297526
0.00638674
0.0173746
0.00699201
0.104138
0.00331854
0.00712091
0.000385916
0.00125133
0.00238133
0.00261488
0.216107
0.579019
0.0190689
0.078616
0.021255
0.00987959
0.0454442
0.00383882
0.0054142
0.0648319
0.0031979
0.00552028
0.225982
0.00923871
0.144039
4.7467
0.00332685
0.0104024
0.0978448
0.00534238
0.0840545
0.069433
0.16946
0.878906
0.00613202
0.00429336
0.0327688
0.00262497
0.738334
0.0584223
0.00618669
0.163693
0.00275334
0.00563354
0.0899079
0.0188839
0.00681869
0.0901212
0.0720845
0.00836791
0.119578
1.22079e-05
0.00475214
4.51836
0.00143079
0.00865312
0.00847663
0.079925
0.0117596
0.134699
0.00430369
0.00380559
0.0882325
0.00388775
0.00324197
0.124047
0.00274358
0.00480804
0.118143
0.00316962
0.116429
0.00360615
0.0259116
0.112392
0.133723
0.00271309
0.00328067
0.0884411
0.00246383
0.00474335
0.119524
0.0078314
0.0157895
0.00128065
1.50034
0.0867401
0.0622336
0.00408645
0.0284094
0.00505624
0.666924
0.36407
0.0200673
0.109866
0.0121418
0.934833
0.264887
0.00368727
0.0048709
0.0149223
0.0135733
0.0136173
0.0265152
0.00239836
0.0221856
0.004568
0.177156
0.0769552
0.00402963
0.181709
0.319832
0.00633802
0.224244
0.00141712
0.0248828
0.00519538
0.00799247
0.00288841
0.120271
0.101231
0.119875
0.00495819
0.0887718
0.0645193
1.99791
0.00533764
0.00799383
0.0620384
0.115889
0.0108616
0.130772
0.00442071
0.0760482
0.259174
0.00556164
0.0234139
0.00344609
0.00244525
0.010213
0.142076
0.0120415
0.0950764
0.00363847
0.00206043
0.177705
3.95981
0.129667
0.00635309
0.0105723
1.01899
0.0378017
0.00910811
0.00512795
0.00484509
0.0847568
0.00517564
0.00294718
0.134511
0.00679601
0.00685241
0.00522841
0.00471823
0.313928
0.00951341
0.00343677
0.0940302
0.067244
0.00149175
0.00223769
0.341311
0.0126992
0.000377363
0.00230012
0.0699004
0.00141243
0.00318679
0.00509888
0.00765043
0.00311483
0.00326706
0.112294
0.00384559
0.00423803
0.0128224
0.041328
0.00259131
0.00275665
0.0239373
0.00473393
0.00678692
0.00458026
0.00913897
0.0094098
0.00872214
0.34286
3.51227
0.0107751
0.0845093
0.0101616
0.00662149
0.00686698
0.0010419
0.00368473
0.00231153
0.0526047
0.009281
0.00504191
0.00759485
0.236921
0.0214173
0.00521676
0.0701584
0.00557587
0.00261902
0.00187306
0.0105029
0.0217124
0.351374
0.285061
0.619176
0.00105474
0.00529455
0.00105015
0.012247
0.00554354
3.92435
0.00642125
0.0304921
0.00296392
0.156253
0.0120831
5.43041
0.000108791
0.00673172
0.00515254
0.156208
0.0441522
0.0521656
0.0370737
0.00938828
0.00322759
0.00135942
0.606793
0.000193979
0.00370876
0.117262
0.002363
0.0131049
0.00475528
0.00109012
0.0409741
0.00213122
0.00305414
0.00423411
0.00656144
0.00630787
0.0728602
0.218768
0.00241925
0.10944
0.00198747
0.555395
0.00423959
0.00830935
0.00394461
0.00180068
0.134116
0.00283015
0.00514293
0.00399803
0.0110754
0.00144512
0.00879165
0.0134863
0.378682
0.1231
0.00643083
1.00949
0.113746
0.0790145
0.163667
0.00380217
0.00638196
0.00667992
0.000229861
0.00423224
0.0985841
0.00318281
0.0025745
0.0651476
0.00629708
0.0107609
0.0694319
0.00354403
0.00824349
0.00511646
0.0060617
0.118752
0.175951
0.00318876
0.189379
0.0248361
0.0989395
0.0344894
0.285414
0.663271
0.0146205
0.00222586
0.00307242
0.000161566
0.009826
0.0055954
0.158677
0.132416
0.00774616
0.751333
0.019634
0.00263468
0.00540938
0.00358745
4.02024
0.0214471
0.00370815
0.0396621
0.378841
0.0478136
0.268648
5.52032e-05
0.0035633
0.0855505
3.77245e-05
0.137674
0.0207421
0.173354
0.294238
0.00591042
0.296089
0.00160499
0.00077672
0.0552248
0.00586375
0.00241095
0.00246993
0.00376053
0.0200254
0.00293673
0.00242005
0.00323165
0.00379484
0.00930355
0.00224105
0.670429
0.116675
0.00578036
0.0165647
0.0044204
0.648407
0.00443921
0.00833122
0.0131256
0.0660286
0.00706049
0.000210419
0.0132866
4.11476
0.0201096
0.211121
0.0028436
0.0913844
0.128135
0.637783
0.0222599
0.123293
0.00417352
0.0101075
0.212182
0.00118898
0.00626407
0.0173916
0.118873
0.0368676
0.00214419
0.00167338
0.127566
0.00710719
0.0243814
0.0814784
0.0129491
0.00205523
0.091483
0.0960883
0.140333
0.00552308
0.00249074
0.00100391
0.082861
0.092551
0.00343566
0.00698689
0.00279237
0.194611
0.00176311
0.047254
0.152705
0.00305517
0.0053329
0.0198967
0.00292035
0.0636303
0.00193479
0.0576667
0.00241898
0.00459627
0.137993
0.0107723
0.00849164
0.00498474
0.0318755
0.0635688
0.963167
0.00185389
0.00333849
0.00539945
0.0937863
0.717037
0.0278205
0.00180877
0.0954895
0.109023
0.000175603
0.00428776
0.00304785
4.39338
0.00228283
0.744424
0.00320705
0.000174692
0.1335
0.00324064
0.0201315
0.0127314
0.0703809
0.645441
0.391284
3.85388
0.00307605
0.0898329
0.0948832
0.0112347
0.0655297
0.00265076
0.00371955
0.109543
0.00302842
0.0252327
0.036468
0.0223785
0.00728887
0.00443702
0.115193
0.00423022
0.00228559
0.206808
0.104213
0.233629
0.00664378
0.0180554
0.920008
0.164032
0.131923
0.056996
0.118416
0.00952708
0.00131336
0.0227078
0.100122
0.00411764
0.0125022
0.00877977
0.0753585
0.00339543
0.0402168
0.150205
0.000158809
0.00180503
0.00658072
0.229916
0.0734124
0.220724
0.0656128
0.00884315
0.0135157
0.029672
0.0216461
0.131914
0.0319847
0.00271462
0.00256055
0.00340394
0.000991818
0.103336
0.490339
0.00133323
0.245591
0.0136545
0.580411
0.00617883
0.00228303
0.00598219
0.0301757
0.163884
0.0119636
0.0576076
0.00244679
0.00113208
0.119601
0.0116052
0.226282
0.126787
0.0629217
0.0022424
0.0114049
0.130537
0.00283574
0.00552465
0.00734384
0.0634134
0.00494748
0.00228058
0.536519
0.102806
0.00427855
0.0168891
0.00720301
0.0116322
0.00390108
0.0013657
0.0457258
0.00127693
0.0193766
0.184583
0.433893
0.0328336
0.00561456
0.0121731
0.0191733
0.00440369
0.0654621
0.00226092
0.00185946
0.160301
0.00317585
0.0336827
0.00910492
0.00674575
0.0857019
0.00478634
0.0116824
0.00108421
0.0365591
0.047187
0.250606
0.00525955
0.317153
0.00244449
0.010791
0.00313056
0.388366
0.15905
0.00978081
0.326514
0.00180072
4.0943
0.00382607
0.0831953
0.0110364
0.00651516
0.00475879
0.0466971
0.112247
0.00207223
0.0059611
0.132353
0.00249003
0.008739
0.00491964
0.00111898
0.00395318
1.13778
0.00408383
0.0044081
0.415151
0.0183952
3.95879
0.000836247
0.00884547
0.00193025
0.00808568
0.0074151
0.00182538
0.161626
0.00829189
0.039788
0.00246857
0.02006
0.0237919
0.277949
0.00547572
0.00453287
0.00889944
0.00614141
0.00228014
0.0121574
0.669484
0.016352
0.0427756
0.00229552
0.134986
0.0588906
0.010455
0.10991
0.00293875
0.106417
0.167297
4.12153
0.00315639
0.00334506
0.014388
0.200889
0.00947723
0.0228318
0.00831171
0.0232169
0.0724172
0.00979607
0.00369046
0.00267207
0.00481339
0.0114318
0.00776523
0.107551
0.00328779
0.123205
0.00249656
0.00221056
0.00131182
0.00495837
0.0451482
0.00195669
0.655896
0.133934
0.00132674
0.00354198
0.076325
5.4316
0.00259152
0.00207374
0.0123219
0.0114365
0.0136064
0.0152072
0.726353
0.00199643
0.00303504
0.0522771
0.0032911
0.0119757
0.123578
0.00273832
0.00464287
0.000187549
0.00756605
0.166799
0.0191767
0.290052
0.00283411
0.00974493
0.0119182
0.288197
0.332281
0.00487048
0.00357716
0.794637
0.00228591
0.00403566
0.08288
0.090031
0.00296746
0.00472297
0.002345
0.0318131
0.142886
0.00902431
0.00806592
0.158293
0.229493
0.000569106
0.00211
0.0111581
0.013831
0.0100341
0.04452
0.00419339
0.654758
0.00312532
0.0104857
0.00201724
0.0456641
0.00178996
0.43335
0.0694152
0.0703604
0.158748
0.191361
0.0204342
0.00241569
0.401242
0.0566343
0.00399543
0.00756702
0.00158934
0.00930099
0.00331711
0.00330928
0.00304027
0.0671232
0.0044009
0.0125934
0.114687
0.00210998
0.0163433
0.0101728
4.21109
0.000792797
0.523404
3.14559
0.00217713
0.00138925
0.0161814
0.0106637
0.0158384
0.26182
0.0214456
0.0114518
0.00440997
0.0027503
0.156364
0.32727
0.0033927
0.0105246
0.00572456
0.00247861
0.00664304
0.0169838
0.00428902
0.00205314
0.00439708
0.111899
0.00501269
0.0102899
0.203983
0.0033437
0.0324887
0.00960306
0.0136755
0.0170483
0.0122653
0.0496049
0.00557732
0.0196311
0.148581
0.00154919
0.0218291
0.118838
0.00519289
0.0120128
0.0119349
0.0923074
0.00258932
0.0797355
0.00489414
0.116946
0.129942
0.0775793
0.104975
0.00340217
0.00531415
0.153128
0.242266
0.00693352
0.00840639
0.00239485
0.210143
0.0119121
0.010444
0.00230721
0.0113245
0.0234263
0.00201505
0.00392978
0.00249762
0.270772
0.112528
0.00516564
0.0138824
0.00763974
0.00316574
0.00338538
0.0773344
0.0143614
0.021789
0.104168
0.064026
1.28405e-05
0.378614
0.0801768
0.55711
0.123782
0.00442927
0.129326
0.401123
0.393199
0.000582293
0.0965826
0.00536257
0.0548687
0.00864447
0.00300466
0.0810526
0.109431
1.16179
0.154772
0.00934948
0.00315066
0.0418473
0.159424
0.00771495
0.430957
0.0070505
0.487703
0.00331065
0.161957
0.0114639
0.00412174
0.00354167
0.0908334
0.00388473
0.00972799
1.0512
0.00317207
0.0627182
0.00132879
0.00455395
0.266943
0.0284341
0.0125639
0.044005
0.118518
0.00764732
0.0696631
0.00921249
0.00736137
0.0239559
0.00942367
0.139501
0.106249
0.00202993
0.299902
0.00718708
0.0419381
0.00844756
0.0102843
0.00157656
0.0338622
0.0295952
0.238123
0.0012324
0.738608
0.0102548
0.0658686
0.770331
0.0072925
0.00732413
0.180976
0.00539589
0.00350031
0.000212859
0.565436
0.156869
0.00273163
0.152668
0.0110259
0.00342659
0.0462021
0.00647847
0.00306843
0.0885508
0.0143109
0.00368417
0.0065026
0.00292365
0.0053078
0.0147346
0.118765
0.154093
0.0162437
0.00477523
0.00141366
0.0981889
1.12056
0.00316562
0.00529573
0.0134953
0.175571
0.00557445
0.0228711
0.0820347
0.00608466
0.0526062
0.415759
0.0031435
0.0286371
0.00457668
0.00978905
0.00196013
0.00283059
0.00799963
0.0228075
0.165947
0.00129767
0.189456
0.00507964
2.92347
0.00514837
0.128053
0.00682312
0.978338
0.101977
0.00243475
0.013354
0.00659095
0.00804177
0.00360872
0.126575
0.195701
0.00611753
0.00546421
0.0095897
0.0101407
0.0034542
0.00103323
0.320598
0.428915
0.0943932
0.236059
0.0103224
0.00593385
0.112661
0.00578045
0.0953863
0.00108833
0.0128132
0.00419585
0.00698323
0.00309728
0.00713451
0.00251005
0.0057711
0.141842
0.171724
0.00290691
0.0226801
0.0675859
0.0383554
0.00437589
0.0729672
0.137318
0.410991
0.0112861
0.0984688
0.00304043
0.0139025
0.0108083
0.0113457
0.00692946
0.0770559
0.0598324
0.0138896
0.00815829
1.04664
0.0130196
0.15125
0.633097
0.00614287
0.00400125
0.00306905
0.0082706
0.148799
0.00467455
0.116136
0.0977278
0.0071858
0.00198621
0.00507499
0.0463118
0.00605901
0.00148899
0.00513524
0.00171748
0.0120232
0.0710227
0.0144211
0.0666288
0.00316184
0.00545531
0.00912787
0.00239102
0.00359698
0.0361906
0.156258
0.00394207
0.172807
0.0044994
0.359609
0.0112531
0.00781512
0.00326129
0.00512193
0.169505
0.00574724
0.00461435
0.0231583
0.0667747
0.00817478
0.00476423
0.00341646
0.00894338
0.0799604
0.00111443
0.00583095
0.179065
0.00265254
0.00363598
0.0110028
0.0892301
0.0027185
0.18523
0.117567
0.00857724
0.0180736
0.00867271
0.00104563
0.252879
0.0105136
0.00330893
3.44117e-05
0.0429008
0.00252222
0.00897864
0.00487482
0.123871
0.343115
0.00226768
0.0020475
0.201008
0.00761862
0.0201797
0.128769
0.00474632
0.0241195
1.12337
0.00730906
0.128045
0.00565041
0.00318277
0.0113006
0.00373949
0.0604979
0.110015
0.00454502
0.00487909
0.33974
0.00628005
0.00619733
0.00222604
0.0243129
0.0538919
0.00647601
0.0016481
0.00447919
0.00406661
0.00691942
4.19911e-05
0.00334371
0.0140922
0.230484
0.0465814
0.00140057
0.172847
0.00660254
0.155493
1.19789
0.798448
0.345784
0.00816511
0.000118631
0.0525633
0.0128083
0.00459476
0.07423
0.00316708
0.0212122
0.139921
0.0532792
0.0108478
3.46352
0.00654481
0.381434
0.00223264
0.00198931
0.023408
0.0174454
0.157575
0.00543168