/*--------------------------------*- C++ -*----------------------------------*\
  =========                 |
  \\      /  F ield         | OpenFOAM: The Open Source CFD Toolbox
   \\    /   O peration     | Website:  https://openfoam.org
    \\  /    A nd           | Version:  10
     \\/     M anipulation  |
\*---------------------------------------------------------------------------*/
FoamFile
{
    format      ascii;
    class       volScalarField;
    location    "200";
    object      nut;
}
// * * * * * * * * * * * * * * * * * * * * * * * * * * * * * * * * * * * * * //

dimensions      [0 2 -1 0 0 0 0];

internalField   nonuniform List<scalar> 
10435
(
122.89
144.288
29.0919
69.3598
78.2144
65.264
21.7289
18.025
19.6023
54.4697
116.178
51.2211
43.6415
1.84182
1.60583
21.3833
2.09306
48.5186
19.6928
137.598
18.6354
57.4571
24.524
33.224
48.9492
21.432
4.02518
37.9525
3.84643
52.7219
39.929
100.972
18.3228
2.93989
24.5185
36.2839
26.4542
5.23312
49.8065
23.5999
56.7522
23.4757
2.89483
107.482
28.7755
28.5161
61.3948
3.84256
17.7843
48.8872
19.23
58.7676
45.2557
6.14014
40.7212
4.26523
30.0649
4.33008
2.30862
27.2662
35.5544
125.172
3.79115
63.4395
26.3531
35.3284
2.4342
3.65317
17.4175
37.1194
7.04348
9.74183
2.50772
31.7708
1.53497
2.2023
39.9466
18.4832
17.862
1.61796
43.5078
101.086
39.5386
5.18632
43.1401
17.5571
56.4475
120.823
2.7594
102.77
98.0975
81.8384
135.264
7.30501
136.054
11.7225
72.1142
1.56904
2.08597
72.6264
1.70468
78.492
22.4468
139.307
75.9959
83.9763
136.386
44.991
42.6991
4.39848
58.0164
80.7483
52.9783
17.8069
78.9569
69.5586
67.8726
46.941
129.943
60.9931
63.0929
1.96633
92.1494
1.27266
91.822
26.1752
64.962
1.70123
72.8194
6.74357
1.43049
100.73
20.2621
1.4106
7.29388
14.8368
7.68296
61.031
143.171
91.9119
120.58
33.0695
2.60253
53.7002
51.6238
1.77401
2.10808
65.6884
2.26534
49.445
4.76941
32.0207
111.832
47.0494
59.8568
7.86841
86.8361
131.524
57.9873
136.9
39.249
1.59787
94.0971
46.8861
2.66887
66.4729
19.7215
53.4012
42.7978
61.321
51.785
3.10863
3.67727
1.6019
44.5136
144.073
80.1827
2.99067
77.907
3.52304
134.942
68.8729
51.1419
26.6711
35.6543
3.30078
2.41676
17.5663
75.3418
55.4304
57.0085
32.4856
8.04017
27.6213
83.4906
17.1268
2.34333
5.35392
3.32676
23.6725
2.77966
5.22059
41.1501
4.61982
37.5065
83.2392
109.406
56.2777
3.58088
48.8038
5.1309
24.6604
58.1702
46.4271
3.81907
1.99565
9.56304
13.314
21.6697
1.83123
3.59432
2.67141
2.98712
1.49888
12.3306
22.1274
33.2294
2.08669
48.1244
1.90237
3.16537
20.7498
26.7502
35.6764
5.28259
2.35014
33.9963
14.8685
37.5717
44.2653
131.363
16.2308
8.42898
4.80989
87.1828
18.7122
3.25702
16.2432
3.59939
118.956
5.38306
8.41647
45.7503
47.5176
16.3488
68.8289
4.07501
16.9902
7.66874
4.84162
18.5563
51.7415
19.7005
42.5763
33.3679
2.74189
137.53
32.0293
24.4695
77.896
21.3215
16.336
15.9405
44.7642
17.7881
57.8034
6.07255
81.9952
19.1226
16.7546
47.5921
2.69978
25.3333
1.57171
26.5735
15.183
73.0067
40.9354
4.381
3.25223
1.53575
116.803
3.36096
16.0024
51.9497
7.5668
2.02219
78.3837
86.5188
40.3592
3.56686
40.2044
29.9585
3.5778
92.0196
1.7422
2.51197
38.8678
37.8127
3.77463
109.175
6.60626
69.6928
69.9305
21.2769
6.62585
19.4245
46.1916
3.26931
51.8297
72.7089
3.64011
65.22
25.7134
17.0678
42.0287
14.8749
34.2519
2.88032
4.75836
23.6589
2.81867
3.33712
26.3872
42.1324
3.96458
5.41833
4.07566
2.70362
3.60322
12.1865
9.01786
31.5521
3.74879
3.75561
6.02099
3.63821
4.87015
19.6536
17.4536
2.97423
42.1952
3.95262
37.658
17.1551
16.8486
42.7294
30.3814
5.47273
3.48184
4.53097
27.0797
3.66315
19.7995
3.6698
9.875
4.11297
45.9645
9.93941
17.7335
33.3719
8.17733
43.1249
16.2723
10.573
4.1203
4.02052
4.38279
3.95119
17.2823
5.05119
34.5176
17.4238
3.32499
16.6068
17.1636
40.2869
42.1043
17.1289
34.521
22.6208
1.61573
3.98278
4.15092
6.24674
30.6704
4.62226
43.5296
5.23128
3.5731
6.96882
3.10164
12.5701
20.1048
4.30725
17.0879
41.3038
5.45752
14.5537
5.5281
17.282
6.37804
12.1644
11.5227
3.89739
4.09586
3.63703
33.172
7.10956
12.5933
3.69166
2.43553
43.7092
5.33747
9.98479
15.5588
3.16079
198.995
176.743
163.821
161.6
160.965
153.973
137.58
114.917
89.5868
269.399
249.305
234.129
227.665
222.797
212.114
192.443
165.183
132.505
340.302
321.946
305.266
294.683
284.823
269.078
244.502
211.666
171.787
414.529
397.355
379.373
364.672
348.999
326.854
295.839
256.299
208.988
490.887
474.507
455.115
436.037
413.769
384.193
345.785
299.059
244.591
564.767
548.974
527.941
504.274
475.109
437.872
392.092
338.666
278.245
627.95
612.582
589.872
562.042
526.802
483.008
431.17
372.603
308.229
668.741
653.598
629.728
599.29
560.406
512.873
457.82
396.844
331.215
674.481
659.428
635.283
604.649
565.876
518.941
464.982
405.594
342.329
637.925
622.662
598.683
569.874
534.796
492.959
444.886
391.841
335.714
563.644
547.671
523.644
497.228
467.356
432.987
393.844
350.684
305.752
469.032
451.968
428.182
403.829
378.316
350.546
319.897
286.624
253.352
374.993
358.363
336.693
314.578
292
268.379
243.338
217.029
191.681
294.924
283.574
266.516
247.328
227.007
205.801
183.889
161.546
140.125
239.11
233.943
221.688
205.4
187.02
167.493
147.481
127.424
108.12
208.188
205.906
196.448
182.171
165.269
147.009
128.305
109.715
91.731
193.218
190.77
182.194
168.98
153.057
135.725
117.972
100.43
83.5575
183.754
180.438
171.925
159.247
144.007
127.413
110.435
93.7331
77.8
173.695
169.792
161.266
149.015
134.409
118.55
102.357
86.5024
71.4943
160.541
156.44
148.076
136.367
122.505
107.503
92.2329
77.3792
63.4675
143.767
139.788
131.827
120.852
107.909
93.9344
79.771
66.1166
53.5393
124.068
120.471
113.149
103.091
91.2322
78.4649
65.6063
53.3474
42.2326
103.07
99.9988
93.4641
84.4307
73.7813
62.3939
51.0586
40.4267
30.9846
82.9873
80.3237
74.5194
66.5103
57.1375
47.2899
37.696
28.908
21.3201
66.1553
63.2823
57.9247
50.8581
42.7508
34.5423
26.8409
19.9905
14.3051
1.2315
1.14412
1.05152
0.951508
0.846584
0.745602
0.662272
0.609025
0.591759
0.610544
0.664506
0.756045
0.892457
1.08631
1.35525
1.72222
2.21516
2.86425
3.69779
4.73599
5.98446
7.43015
9.0409
10.7692
12.5586
14.3523
16.1084
17.8322
19.5653
21.3278
23.1275
25.0126
27.1309
29.5977
32.5754
36.3409
41.1558
47.1708
54.2005
61.4524
67.505
70.7953
70.4156
66.5936
60.4939
53.6624
47.5314
43.1788
41.2662
42.0644
45.5578
51.6032
60.0494
70.7579
83.5701
98.249
114.447
131.699
149.393
1.21267
1.12659
1.02876
0.921359
0.81348
0.720113
0.654764
0.62355
0.625075
0.654895
0.709806
0.790783
0.904456
1.06121
1.27613
1.57065
1.97374
2.52166
3.25486
4.21073
5.41303
6.86208
8.52884
10.3567
12.2782
14.2446
16.2336
18.2382
20.2671
22.3439
24.5197
26.8908
29.5895
32.7803
36.6802
41.5322
47.4937
54.4348
61.6964
68.0302
71.9596
72.4656
69.4839
63.8646
56.9208
49.8649
43.6341
38.8911
35.9981
35.0731
36.1394
39.2239
44.3938
51.7562
61.4234
73.4452
87.725
103.968
121.583
1.14162
1.06458
0.981112
0.892405
0.804287
0.727973
0.67524
0.65295
0.661549
0.69816
0.760286
0.847947
0.964753
1.11827
1.32085
1.59112
1.95429
2.44297
3.096
3.95438
5.05374
6.41421
8.03074
9.8704
11.8825
14.018
16.2446
18.5524
20.9553
23.4922
26.2329
29.2868
32.8044
36.971
41.9807
47.9539
54.7779
61.9271
68.4106
73.0089
74.7621
73.3962
69.3792
63.6237
57.1054
50.6323
44.7997
40.0221
36.5799
34.6702
34.457
36.1075
39.8127
45.7847
54.2164
65.1992
78.6158
94.084
110.893
1.04071
0.9732
0.906678
0.841172
0.779405
0.726758
0.690951
0.678397
0.691886
0.731366
0.796337
0.887891
1.00993
1.1698
1.37838
1.65235
2.01374
2.4901
3.11399
3.92063
4.94334
6.20709
7.72181
9.47878
11.4542
13.6201
15.9563
18.4602
21.1533
24.0876
27.3527
31.0801
35.4358
40.5868
46.626
53.4438
60.5934
67.2566
72.4216
75.2358
75.3331
72.9195
68.6046
63.1365
57.2039
51.3546
45.9996
41.4463
37.9375
35.6926
34.9525
36.0202
39.2775
45.1421
53.9385
65.7028
80.0237
96.0636
112.716
0.913698
0.853258
0.800109
0.755225
0.719272
0.694157
0.682853
0.689203
0.71668
0.76754
0.843636
0.947726
1.08456
1.26159
1.48928
1.78138
2.15627
2.63564
3.2438
4.00671
4.94999
6.09629
7.4625
9.05785
10.8846
12.9424
15.2351
17.7802
20.6182
23.8228
27.508
31.8243
36.9299
42.9197
49.7099
56.9182
63.8302
69.5412
73.2458
74.5178
73.4101
70.3474
65.9244
60.7338
55.2777
49.9474
45.0396
40.7831
37.3716
35.0076
33.963
34.6485
37.6527
43.6629
53.1918
66.1886
81.8162
98.6652
115.258
0.777212
0.72255
0.679528
0.651311
0.639935
0.645229
0.6652
0.699227
0.748985
0.817505
0.908636
1.02687
1.17778
1.36863
1.60872
1.90959
2.28473
2.74928
3.32042
4.01604
4.85412
5.85274
7.02997
8.4042
9.9952
11.8268
13.9311
16.3558
19.1731
22.4896
26.4486
31.21
36.8908
43.4563
50.5997
57.6943
63.8997
68.4159
70.7446
70.8062
68.8775
65.4305
60.9787
55.9883
50.8444
45.8504
41.2401
37.1916
33.8498
31.3672
29.97
30.055
32.281
37.5398
46.6306
59.6713
75.6849
92.8726
109.41
0.643784
0.596479
0.563861
0.551158
0.562311
0.597146
0.648949
0.712374
0.784989
0.868972
0.969234
1.09169
1.24273
1.42945
1.65995
1.94347
2.29025
2.71126
3.21792
3.82164
4.53483
5.37109
6.34609
7.47981
8.79955
10.3444
12.1701
14.3569
17.0179
20.3041
24.3922
29.4362
35.469
42.2726
49.3106
55.8061
60.959
64.2027
65.3407
64.5134
62.0725
58.4462
54.0509
49.2553
44.3717
39.6579
35.3163
31.4924
28.2858
25.7824
24.1152
23.5608
24.6567
28.259
35.3394
46.4048
60.8789
77.1062
93.0933
0.514601
0.476755
0.455474
0.456964
0.485617
0.539207
0.608166
0.684123
0.763436
0.84824
0.943217
1.05412
1.18718
1.3491
1.54727
1.78962
2.08442
2.43977
2.86336
3.36281
3.94609
4.62234
5.40385
6.30786
7.36156
8.60957
10.1213
12.0028
14.4068
17.5334
21.5917
26.7053
32.7741
39.3616
45.7537
51.1848
55.0524
57.0612
57.2413
55.8248
53.1449
49.5498
45.3674
40.8948
36.3991
32.1104
28.2141
24.8309
22.0183
19.8016
18.2341
17.4749
17.8872
20.1201
25.0352
33.3141
44.872
58.5987
72.7707
0.373666
0.346466
0.337092
0.351381
0.390827
0.447164
0.510127
0.57389
0.638875
0.708351
0.784983
0.872183
0.974176
1.09608
1.24463
1.42713
1.65262
1.92793
2.25593
2.64023
3.08662
3.60213
4.19475
4.87857
5.67856
6.63833
7.83512
9.39348
11.5017
14.4055
18.3372
23.3118
29.0049
34.7479
39.7832
43.6179
45.9829
46.7879
46.1967
44.4172
41.7146
38.3566
34.6068
30.7181
26.8967
23.3473
20.207
17.5503
15.4039
13.7331
12.5318
11.8969
12.0954
13.5946
17.0565
23.1178
31.876
42.6414
54.08
8.72894
8.97241
9.16965
9.24514
9.17176
8.95267
8.60586
8.15544
7.62455
7.03588
6.42563
5.82181
5.2604
4.76811
4.33853
3.96446
3.63762
3.34689
3.08036
2.828
2.58271
2.33781
2.08106
1.79763
1.46835
7.83175
8.37385
8.71883
8.87847
8.85786
8.67427
8.35342
7.92371
7.41348
6.8516
6.26527
5.6776
5.11596
4.60649
4.16291
3.78391
3.46065
3.18052
2.92974
2.69578
2.46842
2.23949
1.99985
1.73771
1.43663
6.82946
7.46948
7.92761
8.1857
8.24498
8.12423
7.85285
7.46451
6.99354
6.47175
5.92507
5.37533
4.84509
4.35592
3.92352
3.55204
3.23621
2.96518
2.72609
2.50679
2.29695
2.08783
1.86887
1.6287
1.3506
5.80099
6.43576
6.94805
7.28547
7.42859
7.38548
7.18233
6.85415
6.43809
5.96802
5.47119
4.96934
4.48225
4.02739
3.61992
3.26642
2.96516
2.70812
2.48442
2.28298
2.09349
1.90636
1.71081
1.49315
1.23617
4.87959
5.42905
5.92658
6.30142
6.51091
6.54435
6.41705
6.15973
5.80896
5.39938
4.95923
4.51021
4.07012
3.65365
3.27568
2.94505
2.66365
2.42573
2.22177
2.04102
1.87339
1.70907
1.53624
1.33921
1.10014
4.11309
4.53386
4.96235
5.32834
5.57346
5.6679
5.61158
5.42624
5.14439
4.79956
4.41996
4.02669
3.6355
3.25935
2.9133
2.60918
2.35088
2.13482
1.95236
1.79303
1.64641
1.50361
1.35216
1.17521
0.954571
3.48969
3.77475
4.10745
4.42997
4.67914
4.81148
4.81176
4.69051
4.47395
4.19281
3.87397
3.53704
3.19529
2.86024
2.54733
2.27125
2.0376
1.84402
1.68254
1.5432
1.41604
1.29305
1.16147
1.00471
0.80586
2.98539
3.14327
3.3737
3.63357
3.86281
4.01029
4.04854
3.97731
3.81614
3.59244
3.3308
3.04844
2.7559
2.46208
2.18287
1.93491
1.7256
1.55361
1.41174
1.29067
1.18158
1.07711
0.96419
0.827984
0.654524
2.57622
2.61585
2.74421
2.93338
3.12899
3.27527
3.33499
3.29783
3.17882
3.00345
2.79353
2.56303
2.31935
2.06551
1.81777
1.5959
1.40874
1.25686
1.13347
1.03016
0.938602
0.851924
0.755616
0.637627
0.48869
43.2744
43.1738
4.55362
6.95003
0.963427
1.29305
3.53168
4.64658
2.08133
7.59533
0.286405
4.49425
14.0366
7.22176
4.31211
0.712842
0.345745
6.66149
23.4519
0.220746
23.4577
5.15739
5.49546
6.22399
5.53527
2.44062
5.34043
1.3908
29.5102
0.355477
107.264
6.21415
8.57723
35.6403
0.654607
2.0489
8.26021
4.1843
13.4713
2.13596
12.6692
0.0362297
5.18586
1.11151
3.04975
25.1803
0.194972
0.7247
19.7478
33.3387
0.20257
19.2537
43.225
6.74692
3.81064
2.95128
12.4472
34.9598
3.16619
21.7917
0.413622
6.37395
1.30498
2.88695
4.58967
1.55437
18.2161
7.37234
12.5154
30.7735
3.45399
5.52272
1.73575
1.24396
10.4649
24.2833
11.3104
4.39975
1.13613
6.59087
36.7611
0.571978
3.60458
0.175735
0.377593
0.345841
2.32593
5.53089
8.91506
27.5939
5.42357
73.7525
1.64938
4.12334
1.53124
0.513284
2.5825
0.240566
0.127505
22.1723
1.06429
12.8181
0.625743
5.79666
3.43164
2.11282
5.64876
37.123
0.388459
0.326711
3.80683
3.87452
0.73673
5.46455
42.1417
20.3734
20.9572
2.10753
36.4887
2.87791
0.0804773
4.35413
6.24034
5.29929
7.95396
5.4067
18.468
42.3015
57.6763
0.651853
3.81286
1.85024
30.2625
21.3656
0.685383
2.20494
2.79828
3.58037
0.93925
0.159661
2.95025
10.7033
20.0401
0.0743945
25.6238
0.635363
6.98377
22.6388
0.68125
0.416898
9.77387
93.6395
7.14824
5.94103
9.53381
0.175389
2.34212
1.7492
17.2396
4.97984
6.82158
2.41471
2.44768
0.229588
2.24131
0.172537
14.8567
5.04736
0.92422
2.06083
5.76848
3.17591
6.43062
0.174935
190.288
1.01712
22.635
27.2081
15.4003
3.28186
21.3516
6.13869
45.4358
17.7136
2.00887
3.70781
0.170335
0.296226
24.2205
0.746278
6.80208
21.1864
39.6799
10.5027
4.39156
15.8116
9.98248
5.04083
22.7377
33.686
10.6072
2.23108
0.476543
0.596038
7.76808
2.91353
19.1272
0.646248
22.4397
1.65356
3.71578
2.71296
23.4637
8.3289
8.56439
10.7689
1.5443
10.4339
11.3979
33.553
2.12956
0.0440042
8.66729
13.0056
7.19139
19.9603
8.20968
0.360499
0.214997
1.58628
0.176774
2.01334
5.67911
2.73598
11.9684
4.33992
24.6822
2.06731
16.7837
2.51632
136.623
0.377549
2.38284
1.02792
1.92832
3.36174
5.00442
5.77513
0.806335
3.4095
0.0883516
1.23387
10.8445
21.5405
2.23807
4.1319
0.731268
15.0453
19.5245
31.029
3.81558
80.1149
1.90725
9.36324
3.02632
4.86085
2.98316
7.70547
3.39337
4.94083
25.5249
32.4265
0.361122
10.2156
7.18329
7.67846
11.4323
0.693924
22.8142
13.8075
2.02857
9.00827
7.66913
20.4305
15.6854
0.456854
1.93369
7.06186
6.19378
4.77556
1.49194
2.52205
0.0404618
4.14166
20.9465
10.9172
6.41851
122.314
4.3404
21.3188
18.7315
6.39636
4.36717
0.497457
1.00132
2.60416
21.5443
150.848
0.162174
0.479134
5.6159
3.86835
14.3109
35.4613
0.227961
13.7433
0.228352
6.29904
5.29717
29.1651
19.5827
1.93266
4.71574
80.7704
2.21669
4.59016
21.9538
36.0251
149.029
34.2174
2.27908
4.25242
2.24227
5.9261
8.18049
0.383308
3.51468
2.6939
0.0244893
5.34604
2.09937
4.66114
22.7468
7.49472
4.62954
1.4667
3.6133
2.93581
2.17135
0.159275
100.535
1.91282
0.0839721
22.5962
5.33396
7.09567
36.2131
0.981128
2.49497
0.157472
24.1599
5.06489
6.63084
21.0249
0.0478986
2.4042
1.12999
0.66873
2.40527
28.7878
7.60232
7.3021
30.805
0.747214
15.6048
4.1509
4.44057
1.89598
6.93136
4.97972
5.4835
2.75154
7.43036
1.26435
1.01121
25.8731
2.18431
0.264076
1.2563
6.76791
6.42793
2.97478
20.5333
4.7076
21.0801
14.1351
2.60615
7.58411
1.80242
29.154
4.57944
3.27031
0.437513
44.0488
4.83424
0.106658
3.90641
14.5756
109.318
108.477
8.48093
2.1211
21.0581
1.08892
1.91395
7.27461
17.4474
0.158681
4.13989
63.6679
2.18819
5.93571
19.0478
0.380457
1.29206
7.98479
0.0272859
3.79752
201.882
6.57061
0.728222
3.71899
34.1837
1.10299
1.63648
1.24779
4.04209
0.0180768
3.25123
5.2979
4.80049
2.69456
7.15211
23.6227
13.2703
24.0981
1.70758
4.19931
3.79644
1.37932
0.990364
5.87518
2.4941
19.3418
6.72034
30.6149
0.164813
0.369391
5.13155
33.3319
2.54782
2.20694
11.2923
25.5005
12.0835
3.25991
1.8653
9.60752
5.32134
1.81702
9.24565
2.73901
4.14688
5.15623
5.03477
32.7492
50.5263
2.69757
21.8458
21.1912
6.76441
10.9863
0.00828884
4.82004
0.176065
1.15579
0.445701
5.31899
49.8918
4.21251
5.76005
2.44237
4.7905
4.98241
2.61577
1.63279
6.06476
0.680943
2.57711
30.7108
6.55486
1.6281
1.58959
0.693627
24.1795
33.6901
0.642863
0.834052
3.77644
4.74145
4.12325
34.2552
166.023
48.7202
3.21669
0.743749
1.16878
16.0277
4.33582
5.09066
1.57527
4.6973
0.228817
10.7315
34.8509
8.927
9.68108
11.2058
2.78566
2.97834
0.783691
4.23065
8.952
6.46444
2.91861
54.8317
2.69812
17.3351
21.9409
2.34098
27.853
0.313436
5.26658
7.06981
0.0921751
17.8868
2.59406
2.30616
0.757288
0.61898
8.72531
8.90196
58.8405
22.3523
17.2507
0.333231
8.7731
2.06285
19.3676
22.8526
230.009
19.4574
2.99822
24.3359
0.343058
13.7011
5.15578
2.83219
6.28081
2.02778
12.6054
10.3413
6.24897
1.64844
2.11816
0.443788
0.1509
23.4624
2.02945
1.34446
0.133714
46.7553
1.9771
1.28752
4.44145
7.00926
5.50342
1.61659
36.7419
2.03063
1.39119
0.494966
2.90151
10.5833
2.74277
2.71381
34.6023
15.4809
1.15871
6.38927
22.9119
2.0006
0.0349356
4.01552
42.3458
2.71096
0.364919
26.3758
7.10377
6.45768
6.08917
11.2064
3.60704
0.887795
1.44672
36.1388
12.7274
3.04398
20.9618
3.24452
3.85351
1.90486
8.6932
65.7067
4.37769
22.7695
0.136005
1.39938
7.12157
3.0594
4.56344
2.92695
0.505191
0.654763
2.58413
31.4699
8.72855
7.7239
96.2952
13.8944
5.01461
2.26236
1.43162
5.15328
1.18029
8.48654
4.05246
38.0516
22.9278
9.17363
22.8454
1.72391
7.71629
0.0658061
10.883
33.2928
0.1512
31.675
17.0493
5.9828
22.0794
6.60097
0.266451
0.0213674
3.01595
4.47035
7.82547
4.06026
1.16622
45.2806
4.09273
4.10042
0.631719
20.8498
0.0398911
1.94955
16.6892
2.4493
12.0413
4.15067
0.242243
38.4629
4.58142
2.76266
3.02958
2.34615
2.00207
25.1031
7.24384
5.82747
4.01692
4.65768
3.39115
4.22262
3.02251
3.44985
2.41653
38.7992
0.785376
3.98321
3.10291
7.41712
2.6802
5.72947
5.20738
14.3086
7.83238
12.5153
1.67448
3.5618
44.8688
1.14039
9.11825
2.40449
3.4847
0.108956
2.38825
1.84008
0.549157
2.80128
18.7556
5.23064
184.656
2.01093
4.39359
187.674
4.31485
13.1206
33.1895
8.23446
5.56855
18.1579
3.1413
26.9733
17.9453
11.3211
5.30844
8.85923
10.9474
0.713851
0.0503947
7.54114
2.47789
16.7286
42.9901
4.19548
11.6768
35.6122
13.3603
4.47095
1.81012
0.147376
21.0742
3.80507
2.08136
12.9696
42.5231
22.5287
0.0772302
3.77206
2.66321
0.00244248
45.5638
120.028
4.23936
8.33481
3.79908
8.25772
1.64203
0.19371
1.26558
1.2608
2.4719
5.80918
3.28707
0.892585
0.649237
2.61905
6.61417
2.025
2.58508
1.95751
19.9283
3.86384
5.53849
83.3132
2.98431
0.228492
0.473003
7.34808
5.26278
23.1337
10.231
0.0187201
4.60387
0.158367
20.6947
22.0366
0.71643
20.901
18.2332
24.5237
24.3948
17.4163
16.7168
9.70032
6.50659
0.0947122
4.56175
4.03065
14.9196
4.44499
5.15743
1.37288
31.5682
3.15989
16.7387
5.66663
4.01366
5.35007
0.741551
33.0514
66.2247
2.37311
7.50058
0.290768
21.0223
7.70092
4.62338
4.07234
1.55972
21.2525
8.94427
1.15792
54.6235
5.04633
2.47286
18.6359
3.644
30.0022
3.1145
22.5595
1.86802
6.63119
16.7198
5.49568
6.40387
2.69876
1.94479
28.3275
6.7477
7.96748
2.78675
2.55707
5.56445
0.179958
13.2873
1.8707
15.8816
3.87836
0.113078
7.48109
1.74846
0.175974
1.77573
0.353737
0.7962
0.0813542
12.1875
0.816222
11.5286
10.5551
22.0827
19.224
15.6156
0.143544
3.77354
8.03668
8.29513
10.2578
3.86509
2.72174
1.846
22.689
0.926562
33.1523
17.9411
23.2255
8.81093
7.26841
12.0333
23.9822
0.455819
12.5344
31.2658
27.7769
2.58495
2.01163
1.54513
2.97952
23.3668
33.1675
38.4871
57.084
3.40719
5.64954
14.3366
11.4506
6.95879
84.1431
5.6093
0.75683
3.43714
65.5419
0.0246428
1.97831
1.93833
19.8291
40.8833
20.9511
22.1652
4.0286
1.79559
4.93892
14.9535
43.5726
33.2865
5.93026
0.601519
1.091
2.12763
20.1216
4.18014
0.568277
19.7771
14.1092
25.6036
4.85113
2.41044
4.69892
5.72308
23.6747
1.80304
24.7843
3.58424
1.59699
1.72309
216.959
34.2531
22.0758
1.10909
3.5261
7.73598
1.50037
0.58446
1.49091
0.46628
1.00902
13.3632
1.97522
26.0437
3.86497
1.9877
8.26605
132.695
5.47565
1.92146
3.25369
30.8259
4.40816
1.26725
17.5306
0.282866
5.22005
2.33061
1.87383
3.60822
7.04302
26.5036
1.88464
2.9307
0.465301
0.678035
0.956807
56.2415
4.52028
21.6377
3.86714
7.21033
0.371443
3.1035
1.96521
19.8258
8.05082
24.418
4.27173
6.25025
0.831592
23.3398
17.3713
6.81289
0.316491
10.4616
0.159463
1.67481
22.8739
0.869758
4.26183
6.97497
3.52216
3.83774
2.6158
1.42701
10.1886
8.2264
7.89098
7.16208
0.203782
2.40103
0.86285
0.956183
2.51565
14.989
0.747976
0.145658
1.52454
4.05762
4.56009
7.18834
1.42051
2.2661
8.26877
7.2951
1.00314
7.71617
9.34784
6.1611
20.8204
2.43416
1.05142
36.4463
1.25499
6.28562
7.24019
6.91615
7.00245
19.1884
3.00558
1.56857
1.62304
0.629672
29.8579
0.579559
29.858
5.02625
0.151574
1.33878
1.21617
1.71178
21.3543
3.61592
18.3272
7.16437
0.766788
13.3546
1.45438
2.55194
3.63533
5.08811
110.318
7.58597
34.782
6.99567
12.6689
1.77833
5.59422
4.6518
5.01503
39.5479
11.236
0.293805
21.9856
0.880308
1.48442
23.0207
0.232777
6.7853
5.85992
5.46237
7.01474
6.65377
1.3805
16.9022
2.38289
2.70573
35.9266
1.77804
10.8956
2.08565
6.3949
2.41692
0.0173548
2.27767
19.3834
20.6282
24.0495
1.23492
0.905747
197.454
14.236
13.3631
2.54502
4.02861
13.245
1.89651
2.04654
76.8684
31.2434
4.72179
3.92616
13.401
0.810297
46.0136
4.31249
9.129
57.8398
19.1782
0.176992
6.09516
3.5157
11.8828
1.44254
43.0948
2.57345
25.1439
1.03816
6.36848
2.02784
34.6513
4.34837
7.75526
14.6756
0.761678
55.6517
22.5328
8.02484
5.47459
19.6095
36.6556
4.16268
6.45186
0.560518
1.24984
5.28265
2.28872
3.61414
4.53873
7.28665
0.502259
1.8394
2.21202
1.62058
4.68209
0.153078
0.773604
7.71993
0.20978
4.76968
3.51116
2.90267
6.72808
5.71163
21.8051
22.8918
4.64032
6.15607
1.73139
14.4728
14.0942
0.604128
23.513
3.3965
7.81172
0.533556
0.557677
4.8172
4.47941
11.6874
25.0409
2.14826
3.25191
0.48806
0.916931
2.67446
4.47444
10.4954
1.12311
7.35258
30.9353
2.26014
15.2735
16.1666
1.23751
3.85764
4.11743
2.53671
0.585915
7.08935
7.15623
3.98548
27.2893
1.0071
1.99877
38.4776
38.9724
24.7554
4.14361
0.391639
11.0991
22.366
1.51821
4.93145
7.31639
5.65702
10.8011
3.32517
14.3779
7.72785
5.68125
12.5613
1.61358
7.98437
22.1196
15.5936
8.45674
13.3818
55.2065
6.03562
0.95643
56.7011
9.03795
109.159
13.3602
30.8729
0.000954808
24.5216
31.5186
0.212377
31.3702
16.6549
28.6963
22.0732
23.1575
0.852704
15.4273
2.53738
1.30641
7.04714
2.86005
21.4584
7.15396
4.35477
29.6775
0.487176
6.2708
3.09891
30.2412
5.60064
21.2348
3.85776
0.226035
1.0246
19.4718
10.0842
3.08752
1.05656
10.6588
5.34728
63.4638
0.130494
5.43924
20.4065
1.25027
3.73546
38.241
2.59345
29.9281
43.588
3.80361
2.99786
30.8253
5.7502
3.87116
0.89713
2.84001
39.5061
17.8535
10.4653
11.1596
5.59496
28.3829
5.82343
2.96126
3.71456
26.0223
3.53175
16.0007
2.02268
6.93588
4.12039
32.8431
8.51069
11.9071
4.57221
23.8443
3.48278
2.76006
0.0587663
25.7925
28.5134
0.984452
12.446
2.59602
0.941338
14.4108
3.46251
3.38827
17.1709
7.60404
3.93122
6.14155
4.81889
4.98229
16.8747
43.0718
25.4616
16.1089
3.38871
2.2692
23.6614
6.81826
2.00768
100.889
1.08308
12.9458
108.243
38.2525
12.4831
4.32311
35.0558
18.1935
2.56827
26.7423
3.00503
5.89183
1.93785
4.444
1.74316
0.663375
29.0015
0.0981409
18.3937
9.05848
0.205881
2.97958
12.1725
10.4185
0.137845
24.0213
4.13768
40.1679
1.60386
4.64953
0.981992
17.3198
17.9093
1.24609
2.28737
4.30468
5.37937
3.52993
0.936907
10.4395
23.3887
33.4437
17.5754
6.11724
3.711
30.7617
6.59491
24.0752
0.417037
0.667721
3.0823
76.7584
1.5266
128.238
0.602062
14.1423
7.82463
20.8496
1.292
1.97915
21.4617
3.05072
2.62778
0.836533
43.7892
21.9261
4.6925
28.697
3.19745
8.42514
2.64751
0.643375
43.3834
63.5369
2.94303
5.43365
0.354478
0.132469
1.44151
30.2432
0.392638
97.2533
12.4814
1.88729
0.683835
31.6863
9.74079
24.7897
1.8009
1.64932
2.64147
2.66727
1.09861
2.20188
2.87647
1.71322
1.547
15.376
33.9325
11.2218
0.931077
0.564167
2.36179
7.41361
1.97683
1.99823
4.81848
30.4598
2.16561
26.4348
6.38723
24.982
5.3153
4.18497
2.85777
3.15146
17.9658
6.42093
2.99084
4.67326
60.5273
106.921
3.70536
2.70803
5.22814
1.822
0.502838
2.29766
12.3179
0.703115
5.26016
5.52037
8.33155
0.569365
23.513
28.5271
9.1486
19.0451
4.92582
0.632846
10.7584
7.23101
6.16146
0.00128432
41.8563
3.57245
3.22023
11.4709
4.37742
0.332452
3.96947
2.57584
18.3518
3.11182
111.406
20.3073
5.41627
5.43154
7.16733
37.8489
34.7449
1.81982
0.915118
6.69788
2.07524
4.41704
14.4262
4.73736
4.56984
23.8948
3.99442
1.82172
4.73425
1.28256
15.9514
3.95314
1.39836
4.45283
1.9602
3.36542
0.0258366
1.84611
9.67194
0.349429
42.288
0.479666
18.55
1.72257
21.723
4.81286
0.208187
22.8576
7.44827
0.0694471
38.6553
8.36789
3.01313
20.2159
0.963002
23.6464
25.409
29.0594
3.93714
0.134817
2.60378
23.4173
3.03874
6.40267
4.18538
0.630162
20.2992
2.52099
6.64688
8.60427
5.22011
4.99342
102.982
1.89705
48.9506
1.24726
28.5393
1.29782
11.4705
5.35826
2.05658
0.984548
1.02658
32.3363
23.095
22.2518
2.18259
49.3753
24.2193
6.33804
0.179205
4.51247
1.47456
20.2229
23.8912
155.98
1.86617
2.58905
19.6977
4.14747
6.22367
25.2164
27.1132
2.71841
12.0535
29.3881
4.0608
0.328351
3.75588
4.22419
21.0893
1.79257
2.05348
2.8201
0.370834
0.719688
25.7373
26.9635
6.02516
6.57152
0.485676
1.63329
0.259979
4.89552
19.6855
1.8433
4.30802
0.59061
4.25999
2.67404
25.2486
2.18372
4.57226
6.10419
29.7681
24.3708
0.7733
18.866
1.31517
1.22682
4.71425
3.20494
0.758258
2.78116
6.26004
42.9149
30.8435
2.36966
7.89095
6.36268
5.17062
7.39019
5.03451
0.889826
4.79415
6.71174
10.7649
0.168999
2.48841
2.72477
1.61129
0.996658
2.34835
2.33821
5.14671
48.0487
62.4564
2.63521
3.77549
6.49076
131.658
0.639952
3.22908
2.16362
3.61974
76.9862
5.00228
6.00048
4.07213
29.3708
20.4125
1.97939
3.7588
3.56544
22.6205
16.6776
2.37306
2.62263
1.17644
5.97013
4.46051
1.81103
20.451
5.77504
3.18282
2.22297
3.07574
3.69141
28.5732
3.73919
5.10801
0.401787
57.939
18.794
2.67659
5.33991
8.57152
5.07315
2.33298
5.03913
22.6062
12.1812
4.09883
17.5743
21.1982
24.5428
11.0989
3.56395
14.4336
11.196
12.1299
3.64108
16.394
2.93527
4.15548
0.341582
15.0919
5.94574
0.317062
4.20046
1.64956
3.89404
3.50057
19.2777
2.59124
7.56129
6.78731
1.95022
7.0503
3.2306
2.42518
2.48518
51.744
13.8165
3.38122
1.83144
6.11882
18.1746
1.6093
31.8012
3.33369
5.72127
2.70439
2.08327
125.193
9.1971
4.08495
1.381
25.5259
1.8652
1.12574
5.72832
36.416
2.6807
8.33258
2.98739
8.48757
0.377061
21.2211
0.0981611
1.65703
0.0178154
4.50824
2.15306
8.47604
5.5577
1.72229
6.99566
4.27318
22.8693
1.08394
4.44634
7.52173
25.2043
4.38104
19.0461
3.01303
20.0618
0.0244814
41.6763
11.9656
42.3189
2.36742
23.0421
0.932002
13.6354
0.167192
0.128363
67.1514
18.739
4.61456
11.2578
0.734189
23.008
5.65376
2.04481
28.113
0.180223
33.6161
7.72016
13.5131
2.38025
1.73481
1.74435
4.79291
4.47674
1.49913
4.59217
42.5896
3.83903
7.25838
4.10698
45.2018
6.33474
2.95855
1.07137
5.06496
3.07232
19.6301
23.5811
2.24898
2.64549
23.3947
2.59288
6.0718
3.84458
5.32338
1.31714
18.5332
0.698932
4.62129
8.53786
4.67254
3.27613
16.9601
29.9406
2.93516
27.5877
2.80769
2.04335
22.0417
98.49
26.8005
2.40963
5.17202
2.27134
3.61237
11.9303
36.1797
5.82453
6.64204
2.55117
13.5087
3.01756
3.19715
0.903734
2.09031
3.41693
7.90519
53.3266
4.39824
35.9083
17.9956
0.00110564
7.36659
13.3679
19.9545
4.79805
1.55893
6.91733
1.73409
3.38778
3.85343
11.6512
0.957728
6.50766
16.9329
33.3553
0.00675403
3.95831
4.2611
3.24991
1.70935
5.9741
2.9654
0.177504
24.6708
0.175708
2.08994
2.82684
2.73104
4.57569
44.8134
6.31558
27.4569
6.86749
4.33685
3.1518
0.169843
15.5915
0.623884
14.6396
6.862
4.06594
7.01757
5.77489
28.9194
3.31
6.60974
0.230882
2.9515
20.3012
4.36475
2.3462
9.55175
23.4132
0.00772851
1.21473
6.4279
8.47686
2.24448
2.24906
23.857
0.449763
0.687517
5.49384
4.75361
29.6004
18.309
4.07483
2.69374
23.5982
1.95018
19.013
2.49137
16.5987
19.6761
4.43533
2.40306
6.09528
1.60024
1.87053
38.5335
5.46561
166.196
7.00345
5.30711
5.00606
31.556
7.96033
37.6433
5.3417
6.1655
1.92201
2.3162
3.5921
1.45196
0.343965
10.4328
4.02459
19.8818
1.75924
21.5331
1.01064
23.1052
20.3515
22.1066
8.15998
2.40718
4.8285
1.92461
20.4123
2.63563
12.2018
5.10005
2.42875
0.209198
2.4708
4.31889
4.44775
23.3154
2.0994
16.9614
2.58994
6.37271
23.909
3.72394
9.39034
4.18324
3.78017
2.54504
4.16046
4.20478
0.0422097
18.2541
1.92689
58.3078
1.2136
1.83471
9.32143
20.046
10.4203
3.11844
14.3746
3.1285
1.65265
4.64442
23.266
24.3027
24.7239
2.43961
5.89275
4.33885
19.7418
2.11876
5.33085
2.19412
10.5622
1.83179
18.9152
39.7005
0.0902482
6.43435
5.13297
7.66111
2.61328
14.1328
1.98554
1.48945
6.45502
0.230012
4.02135
11.2263
13.2391
4.06048
2.17585
4.00296
0.17239
1.4391
19.4079
2.11125
0.0824662
2.99157
3.17475
4.28696
48.7261
3.1071
20.6216
1.41169
5.11117
2.4244
15.8908
2.88306
6.39885
0.722907
11.4756
1.89755
16.9827
80.5297
12.8019
7.2074
4.06075
19.4576
0.581712
65.8845
4.78291
4.47655
13.47
0.203007
0.166078
13.8572
5.91626
3.51263
3.34133
1.31846
7.49478
3.97004
4.90694
1.32964
2.16223
0.672906
5.13544
9.93659
52.1758
2.07398
0.496215
0.514969
21.3
1.17932
5.96401
0.519281
2.46036
14.7702
3.60472
1.33979
31.431
2.51962
2.03134
16.3336
22.1724
14.0457
14.0055
23.82
14.7788
32.0451
32.1552
23.0392
9.96891
0.026501
3.50335
0.723797
22.9519
15.7999
1.05363
12.5869
2.32377
1.81271
15.6534
3.8166
22.1123
2.48824
8.5028
0.858705
24.1778
1.94325
5.20685
0.262472
3.23384
1.70754
39.8532
3.3397
2.02564
8.55417
4.13576
2.33356
3.44037
3.16331
4.88389
2.49372
22.6807
3.14497
94.5228
5.48224
8.12712
30.9251
1.60032
5.15909
17.6604
6.14
0.662384
25.684
1.99486
5.0851
6.93257
0.583262
14.523
3.17262
36.3889
4.02317
10.2455
3.10854
9.43675
18.5035
0.141491
38.1579
20.7003
19.4734
8.94333
12.3405
14.9511
24.6416
0.14462
23.99
25.6168
178.889
12.1128
24.6936
15.0152
2.09052
5.32562
0.743256
5.24395
24.7135
10.8669
30.498
35.7049
67.8074
97.364
3.81556
9.22064
2.2439
3.40347
6.46375
4.62266
2.3227
4.82211
2.1235
2.8792
140.319
3.28608
54.5912
4.55383
52.0302
7.05871
2.37853
3.32189
2.17201
19.5236
16.2031
7.97872
12.6048
22.402
9.50255
114.813
84.3905
2.77501
8.72439
2.18707
6.18447
4.70582
2.16817
32.3556
3.70262
11.9335
30.271
5.07746
1.76351
2.6959
4.70144
2.27668
5.78745
1.70047
20.9274
2.35961
2.63456
0.749499
12.3845
12.8656
12.8152
5.41407
2.56798
2.75781
24.0749
9.47119
11.766
4.04919
77.7261
0.346117
10.4929
4.46441
3.04877
5.99436
70.2244
2.9379
12.926
1.81672
15.431