/*--------------------------------*- C++ -*----------------------------------*\
  =========                 |
  \\      /  F ield         | OpenFOAM: The Open Source CFD Toolbox
   \\    /   O peration     | Website:  https://openfoam.org
    \\  /    A nd           | Version:  10
     \\/     M anipulation  |
\*---------------------------------------------------------------------------*/
FoamFile
{
    format      ascii;
    class       volScalarField;
    location    "200";
    object      p;
}
// * * * * * * * * * * * * * * * * * * * * * * * * * * * * * * * * * * * * * //

dimensions      [0 2 -2 0 0 0 0];

internalField   nonuniform List<scalar> 
10435
(
0.511664
-8.54312
-177.157
-45.3892
-61.6862
-113.859
-192.196
-191.143
-185.772
-155.237
-30.1754
-74.9474
-187.603
-3.48396
-3.66163
-169.049
-3.36314
-174.1
-178.031
-6.41474
-177.333
-44.2026
-163.264
-116.568
-144.093
1.46723
-0.379553
-191.242
-1.72152
-164.157
-126.414
-36.3061
-187.133
-1.99853
-155.694
1.18714
-150.243
-5.80673
-9.65931
-159.714
-131.443
-175.914
-2.86958
-28.2178
-144.529
-137.038
-123.418
-3.54188
-201.59
-50.7182
-178.255
-119.786
-29.6986
-3.55485
9.73367
-1.41836
-143.448
-1.37701
-3.0877
-141.606
-12.756
0.24928
-0.853044
-84.9181
-153.093
-167.03
-3.00884
-2.65072
-188.333
-94.2028
-1.55737
-3.88787
-2.778
-165.853
-3.8188
-2.93124
-72.2861
-196.823
-198.861
-3.66306
-60.4574
-0.548994
-22.6203
-2.53366
-66.3847
-1.09969
2.76153
-25.0164
-3.41064
3.30799
-35.8029
-44.9009
-4.9856
-2.72029
-1.88163
-1.69845
-49.591
-3.69186
-3.02911
-57.0323
-3.91081
-60.3701
-0.403406
-12.7117
-70.2168
-38.3445
-13.4549
-54.7996
-66.101
-3.13107
-44.8497
-50.5044
0.00750659
-1.81727
-45.1935
-38.052
-60.2938
1.91364
-22.6729
-60.4154
-61.678
-2.9876
3.32367
-3.44569
-35.6105
-4.40344
-55.962
-3.10137
-60.6363
-2.08013
-3.26634
-31.3872
-170.606
-3.63714
-1.26257
0.110759
-2.85647
-49.9287
-10.6546
-29.0928
-17.7098
-143.101
-2.35423
-85.8518
-47.5604
-3.48068
-3.44239
-102.029
-3.29225
-89.5525
-2.48386
-133.984
2.18751
-108.137
-114.781
-1.48091
-39.3819
-0.670114
-131.893
-19.0932
-119.549
-3.45308
-38.1593
-62.4402
-3.51367
-76.6977
-179.501
-59.5463
-93.7916
-98.5714
-133.813
-3.117
-1.25471
-3.67306
-90.5028
-9.48385
3.18293
-3.17351
-36.4637
-0.972864
-20.1621
-101.751
-88.1011
-8.81146
-126.817
-2.61907
-3.66971
-190.131
-77.3354
-101.467
-78.4593
-17.3307
2.36316
-1.37017
-44.9532
-191.166
-3.19291
-2.99298
-3.14136
-158.545
-3.22773
0.800728
-191.607
-0.643297
-172.612
-50.3432
-33.2891
-55.1215
-1.9254
-52.324
-1.78544
-170.386
-76.9335
-74.8807
1.40942
-3.42338
-2.30346
-2.13848
-36.6305
-3.30882
-1.404
-3.49844
-2.19083
-3.51473
-2.89974
-163.182
-70.5581
-3.58506
-124.044
-3.21678
-2.85078
-174.546
-46.1719
-119.744
-2.48499
-3.07686
-118.632
-6.30331
-108.91
-133.859
-16.1416
-1.60323
-2.0522
-2.10196
-53.8355
-187.755
-3.16058
-197.483
-7.33509
-2.68117
-8.73627
-2.48412
-162.767
-58.0089
-205.071
-62.548
-11.5596
-207.792
-3.86486
-2.43972
-204.465
-124.008
-8.41986
-87.8944
0.579863
-2.69153
-4.54083
-147.304
-9.22266
-58.9833
-204.713
-203.245
-204.772
-161.445
-32.1609
-64.0841
0.994983
-55.7353
-176.989
-206.54
-158.207
-3.27056
-207.375
-3.81624
0.137221
-7.9952
-82.6764
-88.7414
-2.14412
-2.63916
-3.47848
-27.0187
-2.67655
-206.153
-102.864
-14.3009
-3.37668
2.73252
-46.8262
-146.242
-2.72909
-89.5264
-209.065
-12.0589
-42.3002
-3.57512
-2.95163
-109.645
-157.791
-2.11499
-25.4883
-3.09517
-0.29447
-90.5448
-180.011
-13.4912
1.95168
-109.112
-2.6597
-64.3407
-85.9366
-2.70014
3.00702
-10.977
-212.192
-171.764
-30.4002
-209.389
-2.7126
-1.53037
-155.525
-2.73784
-1.93051
-193.459
-104.94
-1.90164
-2.32442
-2.14513
-1.66761
-0.451557
-27.1017
-0.768997
-11.3485
-9.8272
-15.6282
-4.11759
-2.19128
4.49196
-7.15718
-204.654
-1.85707
-161.306
-7.88548
-207.308
-210.599
-216.059
-212.018
-159.123
-2.75146
-1.86808
-4.26982
0.893957
0.286786
-10.7873
-1.79278
-22.4491
-3.26487
-83.1812
0.99555
-201.702
-6.57406
-19.0523
-203.874
-218.098
-5.88237
-10.3592
-3.13705
-2.9123
-1.56483
2.89734
-11.3346
-44.5527
-195.98
-2.26917
-198.005
-216.192
-206.282
-204.148
-213.991
-196.312
-167.761
-3.19755
-3.51256
-1.85889
-0.740501
-196.606
-1.8284
-211.167
-11.5308
-1.52332
-23.4261
-1.3093
-7.28378
-185.129
-4.73389
-197.99
-93.0952
-2.1349
1.73158
-9.46041
-199.633
-8.68569
2.16503
-6.98384
-0.372964
-2.05434
0.39348
-176.859
-11.5088
-4.01017
-1.2285
-2.21675
-221.407
-3.2932
-4.8504
-222.256
-1.47936
630.922
325.548
337.881
225.007
166.177
95.2594
57.8593
31.0308
0.862758
760.511
342.453
391.191
272.847
203.869
129.042
84.5068
51.1933
20.1215
901.534
341.293
411.179
293.174
221.378
144.904
94.1442
55.1169
22.4976
1014.63
329.223
404.831
291.888
222.535
149.165
97.8821
58.2889
26.8455
1068.22
274.599
364.896
267.917
207.835
143.078
96.556
61.0796
32.9459
1052.83
166.45
288.649
221.443
178.069
127.73
90.4338
61.6663
39.8928
952.647
28.5696
183.135
156.668
135.508
104.405
79.9379
60.5693
46.8423
747.216
-107.963
62.6253
81.6547
83.8357
74.1698
64.2127
55.7196
45.7833
434.011
-214.725
-53.3823
7.97757
28.8971
39.1806
43.4239
45.3122
49.5185
65.5257
-231.215
-135.773
-48.5575
-20.2307
3.76683
18.8025
29.6657
42.5443
-279.987
-141.134
-165.02
-75.8461
-53.502
-25.3699
-7.19779
8.34343
28.2831
-553.747
-33.7894
-153.153
-75.241
-66.6104
-44.0031
-27.7673
-13.4989
7.03626
-674.928
55.5647
-116.984
-56.9925
-61.4109
-49.2311
-38.4269
-27.0402
-14.5285
-626.5
121.184
-68.3373
-33.1589
-48.1651
-44.2533
-40.0214
-33.6641
-28.3632
-532.221
146.04
-30.3271
-16.1203
-36.4806
-37.8718
-38.0678
-34.7797
-31.9863
-451.325
141.13
-10.9341
-10.1453
-30.7179
-34.1303
-35.5696
-33.9549
-31.8476
-397.415
111.181
-9.90575
-14.3651
-31.0717
-33.7535
-34.472
-32.8722
-28.7483
-377.518
51.7766
-28.0339
-26.7092
-36.103
-35.9631
-34.6899
-31.8611
-27.178
-349.264
-10.1115
-49.152
-40.6037
-42.4282
-39.0629
-35.6647
-31.533
-27.231
-296.448
-51.3265
-63.4788
-50.7517
-46.834
-40.8424
-35.6029
-30.1862
-24.7242
-244.792
-74.4592
-69.7396
-54.7488
-47.4996
-40.1199
-34.0434
-28.1309
-23.2217
-207.366
-79.0605
-67.7688
-51.8361
-43.6983
-36.1402
-30.0413
-24.0872
-21.3986
-183.254
-60.269
-57.4594
-42.707
-35.8778
-29.3414
-24.0491
-18.8758
-17.0015
-158.897
-24.9501
-44.0973
-33.0303
-28.0263
-22.3714
-17.4587
-12.7663
-11.7973
-120.968
15.6671
-17.7035
-13.3521
-13.6585
-12.6694
-10.8949
-8.73487
-14.9638
5.44989
4.55115
3.67642
2.99993
2.4121
1.92586
1.55148
1.30407
1.18473
1.17946
1.26085
1.41751
1.6721
2.16577
3.05883
4.47598
6.56159
9.54914
13.6495
19.0143
25.7018
33.5388
42.2379
52.1064
64.1065
77.8397
90.8462
100.718
109.717
121.39
135.713
150.881
168.085
187.074
205.512
224.25
244.044
263.228
279.143
288.258
285.813
271.206
248.114
220.527
189.985
162.397
143.607
133.611
130.357
134.299
145.69
163.994
189.336
222.869
265.601
317.519
378.335
450.619
524.125
1.71374
0.728933
-0.266968
-1.07656
-1.76915
-2.3388
-2.77847
-3.09563
-3.31359
-3.47419
-3.66359
-3.96338
-4.32612
-4.6985
-5.14204
-5.72105
-6.44227
-7.33283
-8.42357
-9.70992
-11.1338
-12.4789
-12.9196
-11.31
-7.7855
-2.90671
2.54377
7.44123
11.5542
14.2617
14.4665
13.5706
13.5888
14.4623
16.1816
18.6153
20.9117
22.1838
21.5096
18.7315
14.7556
9.04777
0.898153
-6.17636
-10.4616
-14.2592
-17.0287
-16.0079
-11.7668
-5.91908
2.5178
15.1353
32.3655
54.3642
81.6544
114.388
152.886
199.207
250.437
1.89792
1.34418
0.723227
0.211996
-0.236701
-0.613562
-0.902682
-1.0937
-1.18946
-1.19719
-1.12891
-0.978792
-0.734451
-0.380152
0.106889
0.777458
1.68773
2.90179
4.48739
6.49785
8.97419
11.9346
15.4536
19.5393
24.0959
29.1418
34.5224
39.8537
45.1957
50.5991
56.0473
61.5124
67.595
74.4141
81.9472
90.07
98.2235
105.37
110.166
111.535
108.951
102.946
93.6109
81.7823
69.0954
56.9315
46.0314
37.4684
32.0303
30.1797
32.3613
39.3215
51.8388
70.6542
96.4006
129.184
169.071
217.34
267.598
0.0266941
-0.459292
-0.956277
-1.3823
-1.76596
-2.10403
-2.38775
-2.61129
-2.77674
-2.89194
-2.96901
-3.0157
-3.03226
-3.00973
-2.9393
-2.80148
-2.57268
-2.2252
-1.73332
-1.07217
-0.221193
0.841191
2.15302
3.75067
5.58793
7.59207
9.70756
11.8337
13.935
15.9891
18.0499
20.26
22.9041
26.1449
30.0256
34.3013
38.2935
41.015
41.3402
38.6046
32.6384
23.9856
13.388
1.98625
-9.31667
-19.8835
-29.2074
-36.7697
-42.2485
-45.239
-45.1569
-41.1244
-32.1651
-17.3177
4.13859
32.2271
66.5145
107.18
150.151
0.079902
-0.18032
-0.450535
-0.673411
-0.866404
-1.03096
-1.16474
-1.26354
-1.32454
-1.34568
-1.32823
-1.27001
-1.16779
-1.01063
-0.785722
-0.470766
-0.0405379
0.534681
1.28076
2.21666
3.34978
4.6724
6.16836
7.81137
9.57493
11.4389
13.4085
15.4914
17.746
20.2345
23.0799
26.3907
30.3375
34.9438
40.0477
45.1563
49.4066
51.8061
51.5065
48.1892
41.9766
33.503
23.4653
12.6887
1.83026
-8.5246
-17.9628
-26.0886
-32.5838
-37.0076
-38.8101
-37.1276
-30.9226
-19.1506
-1.21005
22.5759
51.1091
83.7314
115.612
-0.481523
-0.688938
-0.877731
-1.03293
-1.16275
-1.27268
-1.36906
-1.45499
-1.53011
-1.59114
-1.6358
-1.66021
-1.6612
-1.63113
-1.56146
-1.43775
-1.24487
-0.964825
-0.581505
-0.082295
0.536693
1.27011
2.10478
3.02465
4.01087
5.06213
6.18792
7.41924
8.80922
10.4111
12.3075
14.5344
17.1432
20.0427
22.9026
25.259
26.3744
25.5912
22.6538
17.5817
10.6706
2.45024
-6.55561
-15.7941
-24.8339
-33.3511
-41.0917
-47.8658
-53.5105
-57.7642
-60.2371
-60.2155
-56.7435
-48.7338
-35.5008
-17.2925
4.53718
28.4936
51.7046
-0.266487
-0.383605
-0.48145
-0.553061
-0.601141
-0.631871
-0.656198
-0.68187
-0.710417
-0.737082
-0.755858
-0.759828
-0.743069
-0.697928
-0.61689
-0.488517
-0.300756
-0.0431301
0.296334
0.723736
1.24356
1.84978
2.53397
3.29408
4.11143
5.01926
6.02755
7.1988
8.58968
10.2398
12.2083
14.3685
16.6701
18.9215
20.6336
21.6974
21.6045
19.8925
16.9911
12.8246
7.63007
1.7248
-4.58502
-10.9525
-17.0802
-22.8671
-28.1061
-32.774
-36.8086
-40.1229
-42.5207
-43.4952
-42.2469
-37.7562
-29.2913
-16.8616
-1.65609
14.5838
29.5564
-0.0986888
-0.181216
-0.242434
-0.284737
-0.311395
-0.327292
-0.344798
-0.367474
-0.394963
-0.42348
-0.443629
-0.452511
-0.444149
-0.411359
-0.349204
-0.245482
-0.0926413
0.100726
0.358249
0.680762
1.07874
1.53801
2.05146
2.65471
3.27487
4.03491
4.8785
5.93023
7.19079
8.66401
10.2487
11.4504
12.2224
12.5875
11.7121
10.9103
9.54774
6.03969
2.94393
-0.471675
-4.15684
-8.09675
-12.075
-15.911
-18.9058
-21.9332
-24.2488
-26.3367
-28.3376
-30.1781
-31.7128
-32.6192
-32.4679
-30.3866
-25.6458
-18.1559
-8.71039
1.15845
11.0418
0.101887
0.0607756
0.0374749
0.0248178
0.0150587
0.0184583
0.0198408
0.0125538
0.00711774
0.0287047
0.0503709
0.0850179
0.140617
0.211546
0.321352
0.446556
0.645124
0.908897
1.22005
1.57596
2.01423
2.49292
3.05913
3.7288
4.40419
5.28937
6.19827
7.32612
8.66372
9.52434
11.1335
11.5401
11.5036
11.0179
8.73526
7.66216
5.71376
2.73982
2.60519
0.833096
-0.924528
-2.74529
-5.46168
-7.26333
-8.95247
-10.6262
-11.3434
-12.5318
-11.8909
-11.3756
-11.5558
-12.2559
-12.6942
-12.1434
-11.3384
-8.49269
-5.54705
1.01311
1.15976
-17.4181
-21.3977
-22.7083
-22.3755
-21.4022
-20.5058
-19.3949
-17.1395
-14.4669
-12.7156
-11.0056
-8.54495
-5.94538
-3.47065
-1.24504
0.394193
1.33995
1.95478
2.48415
2.99235
3.49043
4.00848
4.54244
5.20561
5.78995
1.82436
2.22426
1.06525
0.379676
0.958
2.12192
3.35989
4.8957
6.12137
6.15385
5.28723
3.96522
2.1508
0.677579
0.384932
0.855583
1.5009
2.0602
2.42014
2.53753
2.46286
2.45182
2.61141
2.74271
2.78412
-2.86201
-3.43347
-3.62222
-3.50368
-2.87512
-1.98621
-1.03114
-0.0532358
0.693089
0.803181
0.546543
0.188762
-0.177568
-0.358916
-0.183632
0.178948
0.572063
0.931482
1.23324
1.47189
1.65468
1.82942
2.00169
2.1001
2.22038
-1.86
-2.26411
-2.21052
-2.11837
-1.78976
-1.28628
-0.696226
-0.0919611
0.40374
0.661042
0.731896
0.69893
0.619333
0.582783
0.656256
0.79719
0.952111
1.08925
1.19292
1.25645
1.27844
1.26137
1.1841
0.978009
0.70816
-1.9963
-2.30455
-2.37258
-2.37488
-2.19824
-1.87173
-1.45118
-0.99347
-0.581462
-0.272604
-0.0592228
0.0950621
0.214882
0.330932
0.4619
0.590191
0.70024
0.78663
0.849046
0.887307
0.899901
0.881314
0.814402
0.649494
0.424415
-1.92668
-2.08908
-2.19129
-2.26931
-2.22238
-2.04224
-1.75606
-1.39824
-1.03715
-0.701821
-0.410548
-0.157955
0.058744
0.239639
0.393151
0.508628
0.588611
0.638875
0.665337
0.669339
0.649252
0.593652
0.480993
0.26336
-0.0437683
-1.80185
-1.97942
-2.09892
-2.24788
-2.31021
-2.2482
-2.07459
-1.7917
-1.47591
-1.12757
-0.790361
-0.467412
-0.177204
0.0584209
0.250334
0.380342
0.461804
0.509032
0.533266
0.537859
0.526834
0.488789
0.407471
0.246688
0.0109087
-1.7549
-1.93382
-2.03127
-2.21841
-2.34637
-2.36382
-2.27891
-2.06173
-1.81063
-1.4661
-1.10448
-0.726686
-0.371168
-0.0690077
0.157152
0.307234
0.398364
0.450485
0.478579
0.49015
0.497103
0.481398
0.432864
0.319749
0.130578
-2.00781
-2.07064
-2.02165
-2.21691
-2.44097
-2.56604
-2.63129
-2.45286
-2.1917
-1.83218
-1.41177
-0.96023
-0.569689
-0.226782
0.0542409
0.228922
0.336176
0.401382
0.460624
0.488265
0.511349
0.524561
0.500352
0.406422
0.251586
-179.108
-195.336
33.8643
11.015
0.305602
-0.064736
2.79297
1.4811
35.8853
3.27072
182.042
1.4531
-209.009
-1.30895
7.08222
1.03585
40.1158
10.3403
-9.68179
322.252
50.3038
4.19298
47.8753
2.27434
1.16975
1.42482
1.18266
-2.35572
-218.254
40.4859
1.39334
1.7744
37.5382
-73.3706
40.8096
0.742211
-5.7568
6.47612
-9.11457
3.78431
85.1216
2.0002
2.70174
-2.96564
-2.55941
-1.49514
183.486
182.142
-105.164
-28.0924
184.287
74.169
-40.8061
10.402
2.06609
34.8876
-1.09611
-2.70249
-1.01825
142.218
0.776699
33.5835
0.312625
1.71306
1.2988
-2.62523
2.10166
1.62149
-206.279
-74.2325
33.933
6.63144
0.440602
311.58
-0.109107
47.6293
254.929
157.935
-0.405665
9.77154
-80.0299
0.646382
1.631
190.944
0.565504
0.75352
0.538003
154.283
36.9576
-6.14181
-1.12606
-12.6861
2.95818
1.61407
0.347538
180.252
1.46063
184.752
1.99243
130.735
-2.21606
76.579
-2.23678
8.63123
-0.84393
-2.31789
47.1643
-60.3452
1.59008
40.543
2.5482
1.40758
40.5694
8.10973
-37.8778
-114.51
36.5692
3.92423
-121.519
1.59399
1.71529
1.32853
2.56882
1.32156
37.6542
2.48919
78.1236
247.09
0.924235
180.496
1.53374
307.737
-73.3231
-27.9257
-2.47819
0.630549
-2.33941
-1.87126
0.895531
321.894
5.70888
-9.3996
133.118
1.73108
-167.442
0.658468
10.8286
82.1898
0.78462
40.5887
-0.804083
-0.81331
11.198
17.328
0.810957
186.392
-0.0683923
3.73373
253.094
3.79734
3.01074
35.4113
1.42958
184.863
3.19634
190.535
-1.04753
0.657106
1.24606
-0.205853
-1.18348
1.88645
0.971119
190.127
-0.758718
-2.36136
13.1455
-127.258
-19.8379
6.65847
-17.184
2.19551
-55.9279
1.81907
-1.49541
2.21476
189.563
1.54854
6.74421
0.963499
169.993
121.843
4.4241
-9.32023
11.8676
27.9423
-0.0693829
4.07512
-141.232
-265.951
-232.793
2.98114
0.782382
0.791226
0.736081
3.95405
4.53194
-2.17736
-76.826
3.76912
-0.83046
1.49926
-20.4399
-0.0487847
-1.37563
86.1451
-0.100558
2.73301
9.40417
-10.3985
-1.79313
2.01335
0.992573
29.2576
6.57084
57.7454
0.845088
39.8691
1.59901
0.536993
187.227
0.796444
1.85109
1.53174
-10.191
3.75171
166.741
-2.03178
-6.26422
11.778
13.76
0.729033
3.2156
-2.4512
0.540077
1.0109
2.04967
-2.23785
1.03608
2.84891
1.59135
-2.20761
3.49116
-106.37
1.65207
0.0469243
40.3714
241.968
238.786
-4.46521
-0.707242
0.206689
1.1048
0.616402
297.213
1.41374
3.85989
11.7649
2.20083
0.758868
37.5176
8.28555
1.92984
2.68791
-6.15281
11.6891
3.80177
37.967
-1.24211
129.425
-2.37885
-1.19882
2.7632
0.913132
-20.2027
0.849201
-2.13845
7.62942
135.545
174.861
7.85818
1.50554
1.90833
156.837
-142.544
83.0877
45.3896
2.82129
3.83554
30.8647
116.585
2.98203
3.52307
0.60191
39.6527
3.4194
57.4252
5.91687
321.949
0.64789
7.04761
3.97144
29.1304
1.94916
1.9263
-10.5117
183.681
3.52031
1.28827
-70.0571
222.609
1.60452
3.56933
0.877372
0.770503
1.40527
36.6609
-60.5734
7.8861
-1.969
3.04185
11.1194
-1.58731
3.80562
135.601
0.715564
1.52713
1.50565
1.53058
0.220054
1.50521
1.47055
91.1422
-1.00695
290.374
-0.0821371
-0.959706
1.86749
0.531715
184.567
-0.237223
2.89489
1.79879
195.556
147.479
6.22199
-70.2837
-3.27629
3.08129
189.357
-76.4872
53.3674
2.87431
46.1625
2.03318
0.545469
1.56641
180.064
1.01237
2.81906
5.25105
17.7398
-218.111
37.6905
-192.015
1.625
1.52509
3.32709
3.58504
3.76842
44.3174
1.34116
38.3343
-3.10337
-3.16879
-117.371
3.18168
321.527
167.089
171.344
1.29795
4.01841
-8.42055
32.7151
-11.4622
1.93215
3.19384
35.5828
3.70331
-207.136
1.31095
2.60286
0.514368
-87.4361
1.32028
2.22885
2.00902
-6.44376
-7.61304
3.3985
23.4027
0.902661
33.4966
0.852625
1.62331
5.20477
-84.4767
184.358
3.76744
-4.58631
3.20755
3.5412
-3.52489
-2.2334
1.94211
150.824
1.54129
3.37402
19.3537
1.91349
0.824574
0.0370044
-13.9578
-0.413352
6.94846
1.5057
2.27712
1.89772
1.80442
4.43788
3.7168
11.3316
124.288
-4.50265
-206.126
19.8669
-2.21002
24.1489
-1.04242
-0.383815
37.3325
2.54067
1.3214
18.0026
1.71793
-84.9988
190.156
0.83594
-0.994991
176.386
1.39567
-2.37128
21.0828
-24.6142
131.914
0.971923
-0.564919
32.225
3.5792
163.162
-5.39224
0.683217
48.7049
4.68603
1.4165
-118.684
-17.2095
0.143277
74.0807
64.4524
-1.64264
-6.54809
2.10793
1.43583
187.705
0.548542
0.628693
5.78586
-1.87148
6.91577
13.0833
1.34367
1.48064
31.206
0.997826
-0.791229
13.3478
0.820273
3.31169
-15.6949
2.94559
6.87599
1.0318
-2.42486
14.3891
-61.3898
0.933364
1.00695
2.31646
1.70749
3.81046
-49.5745
-0.338959
-15.4014
2.22469
178.874
39.6876
-71.9504
1.53132
1.0131
1.88908
172.095
321.872
14.2488
-89.644
8.01697
144.068
57.9808
3.81361
2.73372
-2.18178
7.1893
12.5434
28.5951
1.58254
-5.63484
2.06595
-10.3281
-121.323
1.28175
-79.9316
40.4671
3.60105
51.1821
1.80069
26.983
1.50335
-1.6394
0.832536
38.179
-6.73189
-5.6205
0.737279
-97.4428
-72.6606
183.048
0.941542
3.84951
-181.489
-40.1897
17.479
-29.7648
2.05676
-149.253
40.4296
1.2865
0.871186
-0.977067
1.89816
-1.63855
32.737
7.58101
4.12179
-0.526816
0.113184
40.1604
183.467
-38.8477
-1.78229
-1.71499
321.619
-74.073
2.67098
2.63116
1.64373
35.7489
4.19845
-0.143743
-39.388
3.44021
-0.511373
0.542684
1.7842
23.5546
4.87768
-1.01436
-97.9649
-62.2627
0.389394
1.91859
86.7768
-2.16166
2.05084
3.48579
221.184
1.67342
0.801941
3.7734
7.40303
2.45776
2.98909
-6.82349
1.28193
1.37863
-2.44698
-8.04158
3.56818
-0.792035
25.4851
2.14229
0.96475
1.44522
-2.35273
-2.10889
0.711396
134.805
188.607
-2.24103
34.3545
0.204032
0.354489
0.48016
2.12327
0.798576
1.5967
10.6391
-0.218986
1.20196
-2.15296
29.0445
0.656957
-1.57866
-2.65789
3.96085
0.109428
2.29077
-0.661357
-4.26714
120.529
24.1834
189.763
2.35832
3.01037
1.78005
7.33795
1.73885
183.149
-3.11899
85.9363
2.23988
-24.7354
9.21601
185.01
1.75306
0.580782
1.46579
43.9881
25.1373
-2.5482
-54.6218
0.662925
-1.34381
0.541977
119.914
2.07691
1.47886
-15.3394
0.791112
0.985026
3.81643
1.99425
-23.1448
3.44253
1.47099
3.86391
-1.61645
3.38518
-161.292
48.9576
1.62812
2.16986
3.78976
146.875
1.5207
3.3185
2.83785
1.48913
-39.8434
1.11022
3.90936
-1.05583
1.97021
1.63967
5.8316
9.88399
167.444
13.468
-1.5435
176.78
6.46218
0.482799
41.6984
-6.64998
0.0275722
0.777437
2.22704
1.21188
-2.99866
0.576163
0.945977
-175.644
-3.03799
19.2571
-3.32668
2.64173
7.54831
1.35432
-1.01922
-53.8605
45.7877
0.665676
-5.82795
3.15488
-141.019
82.4777
63.6228
143.166
12.5938
2.58096
0.961407
2.07323
3.44613
1.44588
-182.922
-148.067
0.577141
278.703
-4.37508
3.3273
1.55807
1.03266
189.481
22.8879
1.45839
4.15152
31.7306
-66.4489
0.874599
2.22909
2.90072
-2.60873
2.11091
-182.699
-11.7108
45.6338
19.5915
-0.104702
15.2025
1.66956
2.26617
-2.3342
-0.414283
-1.91121
3.69627
2.36002
-2.66787
0.817183
1.54028
3.05234
0.977427
-1.43615
3.6947
101.404
4.94898
4.22003
-2.18713
1.71933
321.177
0.501239
-1.67034
5.49502
48.7183
-1.7151
2.13235
6.2708
183.245
21.3257
96.3155
0.95111
64.5647
-166.327
97.2772
21.9084
-14.2323
-1.358
-0.680989
53.4316
1.97296
1.32448
-2.71919
24.1471
33.7819
1.78268
0.592181
-32.718
0.51805
26.1048
24.9577
7.74377
1.78067
37.6591
-183.924
-90.6156
3.31454
3.49098
2.11168
63.0042
-8.10435
2.86661
0.982899
-0.840979
81.7894
4.07315
-2.37754
-107.304
1.25548
1.40083
16.6071
2.14797
9.79231
1.42911
56.1391
3.88665
1.40473
-172.226
5.82117
-0.879223
3.28685
-2.38482
28.1404
143.172
2.24605
3.98674
1.13647
3.12095
321.648
28.0496
1.62849
-179.79
7.00811
1.57761
-0.591626
-1.08974
187.045
3.82588
320.427
1.08874
1.57375
9.34868
0.986064
13.5468
14.1108
87.462
117.489
159.274
185.654
2.08639
33.499
2.23776
-0.298472
1.65573
0.800698
-1.10589
228.161
0.979893
-14.6303
84.2352
21.5929
4.22188
3.17655
30.4065
-1.22179
0.601809
30.9498
-162.829
-114.7
1.53599
-1.97204
179.135
43.7121
-131.032
4.98239
-24.7312
-2.07797
2.14694
0.646665
-36.2222
4.38707
4.45457
-2.09802
24.6191
1.11107
-1.32739
-102.206
1.76703
-0.768905
2.66088
13.8206
-37.8469
-10.2731
-144.966
4.93853
-2.30411
1.43658
-5.16481
-155.443
3.05652
2.99829
0.839071
0.989049
2.33535
59.9397
135.474
1.46047
21.008
-2.90471
149.497
-1.88143
0.765939
1.50457
29.7281
-23.5761
-2.30718
42.6942
1.5902
1.68891
7.66347
21.575
-53.0109
-34.3236
37.98
1.42411
3.16791
7.68389
0.817794
2.38474
0.707348
38.5379
2.64212
-2.07319
129.662
2.46336
-0.558126
-3.61295
12.8528
7.03999
-0.825773
1.82289
15.8393
2.01042
-1.94811
-1.30906
321.195
29.6265
1.47268
-1.34496
-1.17322
3.42088
-191.672
0.0164936
-1.36849
40.0968
0.893663
-2.0575
-1.89492
0.546257
-91.6333
3.88864
4.0542
2.06606
2.82794
4.24365
33.9902
1.1503
109.912
1.65431
0.590366
1.01704
30.7522
-9.40386
1.72671
40.4427
4.02275
183.577
1.20336
-116.483
0.426581
1.13886
4.30106
-1.18593
6.5817
1.56706
2.7815
269.743
3.23832
-4.01774
1.25826
2.06586
1.11335
179.941
1.41487
1.19145
30.8036
-2.25267
186.671
2.3557
1.90332
1.85526
5.78078
2.01014
-0.974476
44.4448
6.15785
-3.08782
3.36019
-3.80229
1.32035
20.2923
3.05088
2.65965
-4.76674
1.81942
3.74564
4.18279
166.32
10.3005
80.5321
1.52467
7.9944
38.4718
-2.33503
181.791
0.776159
-143.138
55.1288
184.652
0.888078
1.02256
-2.35725
-15.1733
4.3309
25.1424
1.8313
-2.14631
21.7356
-0.364065
3.59405
-1.21919
3.6421
-0.66557
5.12619
-177.942
-0.0337118
28.9092
3.94283
1.89497
1.99429
3.51248
-22.0804
4.09421
320.471
4.78845
0.488189
1.8561
-133.585
186.179
3.11706
3.61622
7.40984
4.475
9.74397
-2.53687
126.007
1.47173
2.70177
-110.717
0.872629
0.401427
8.55322
1.97659
0.603628
2.123
-1.54205
-9.0621
19.5983
115.481
2.13855
-2.46808
22.1268
62.606
70.028
3.04177
3.25744
273.239
3.78041
-0.793027
-26.2303
-186.103
4.6255
3.47314
3.82502
-2.55127
-142.125
1.19737
4.50894
-122.783
3.72587
2.26162
1.84613
0.372527
6.6003
-1.72134
-77.2401
0.853302
105.375
0.965677
3.57739
0.716776
-1.85783
1.77949
102.242
17.75
38.0245
-148.803
-143.379
12.0819
1.5305
52.0734
-15.2395
1.55235
3.65279
1.46482
-2.55273
2.55495
0.839938
1.53671
26.5742
-0.508847
-2.32359
6.95031
-1.49232
-1.9297
-0.434773
185.43
2.31745
115.528
184.829
-1.27789
1.84876
-2.06521
1.17303
-3.0307
75.3564
21.0787
5.37058
1.3876
3.72922
16.1393
62.7075
0.748341
-3.39029
-0.287738
2.71019
0.497121
-2.39353
3.25978
-1.49267
-1.4761
-82.8153
3.02637
-0.590197
38.951
0.995624
-1.81486
0.130996
13.8322
-1.82134
3.84655
-143.147
1.67459
15.6918
-10.159
0.54349
-0.582272
4.54774
3.2022
0.730035
3.39108
2.73833
1.75783
-140.557
2.92594
8.70116
-44.1165
246.15
-104.221
4.60614
0.75553
253.165
89.1711
-0.582872
4.48309
4.41615
79.9041
1.39304
-0.465277
3.54848
7.50488
0.252239
3.86425
0.119172
3.01916
-2.43329
254.159
3.28197
8.66179
-1.25413
2.34003
0.974633
-10.5452
9.21052
-5.7379
29.4252
139.279
2.12408
157.36
-221.055
321.586
-131.749
-1.1945
-106.345
51.1679
99.0528
2.24139
-37.2218
3.49225
36.5527
7.9148
0.207877
-164.472
11.9378
165.377
-44.7867
-2.26745
2.71737
3.12542
-34.4789
6.16568
66.1864
3.50651
321.631
2.43516
-20.071
0.22005
-0.804798
1.01283
294.387
1.42259
-3.66667
322.363
2.32465
-119.547
1.64717
3.3949
-71.7757
3.30084
-2.93491
-57.8166
10.019
4.26864
9.00947
6.3865
0.562938
-2.22659
0.0906454
-86.6645
-181.396
2.74252
59.1147
-2.34469
29.3265
6.26349
5.16612
1.83108
36.715
-0.975241
40.3103
1.72504
164.335
1.03589
-0.192556
120.89
-0.486185
4.28513
-140.629
2.30816
1.80874
2.05014
148.268
-20.5548
0.790282
37.6292
-1.1552
0.952918
-14.1203
2.52383
1.57509
-183.487
7.34815
2.7966
6.2367
1.38506
4.19691
4.02392
-24.9691
-28.4325
-5.54602
3.62446
1.54442
-153.553
153.241
0.954656
0.701952
-2.33279
37.5513
-0.157336
-13.9501
-202.923
1.10181
-8.40912
68.1743
0.943009
-5.31148
3.97811
6.55564
0.668223
1.87392
-1.36963
-2.44882
-28.3067
1.82176
29.9095
1.04022
183.194
3.55641
5.11296
-0.946347
321.489
-98.2638
-1.22462
-2.93071
2.37738
3.80665
1.39545
-28.2167
0.633148
3.24061
3.21966
-0.625676
5.68462
1.59885
1.64197
63.1502
97.4457
192.319
40.1853
6.97078
1.15367
-123.359
3.13194
-112.421
2.0942
0.661547
-0.698992
-0.121844
0.903114
6.59803
0.783896
-1.54618
42.6533
-18.3084
1.92474
-2.0232
66.8481
34.3433
1.14947
39.3359
-153.786
131.794
6.12999
227.401
1.3963
10.0762
6.05584
0.577099
-0.273173
-14.4561
39.2357
6.61909
-2.28363
322.38
-1.4071
-52.2732
185.367
1.90067
-0.213523
3.75244
-2.28735
-50.4969
-0.35815
-60.0954
-2.62472
3.68998
-1.7675
2.94137
-2.59744
3.23788
1.66792
3.1609
0.594865
-3.10508
-7.90557
4.76686
37.5359
0.607934
1.92301
2.64504
-1.60234
1.44344
30.8153
-45.9998
1.18794
-22.6065
2.96766
147.766
6.66695
4.71293
0.975337
1.01129
-15.8872
3.60225
2.01396
21.7823
-14.4368
1.59184
3.71051
4.16896
5.04971
5.42573
1.45235
1.58644
39.2212
0.823671
2.74731
5.31022
31.5084
0.981347
-17.3974
-124.412
4.35286
18.5749
4.45077
2.08301
52.0372
3.93688
-1.60071
1.93273
-38.3801
-1.65299
4.23078
0.477018
2.96527
40.1705
-0.845245
1.40465
11.6415
2.26777
-0.476266
-155.381
3.69117
0.290732
149.017
-0.0207533
-70.9818
3.0703
1.17407
8.1164
0.876227
25.8055
-28.8218
3.76629
3.50855
28.751
2.96038
2.8246
3.62528
-3.29228
-15.355
1.03568
0.504641
3.3912
1.72311
0.633092
1.68074
-1.42124
8.15506
39.7562
-43.4067
0.553709
-176.416
-1.17652
89.8176
161.966
320.843
61.431
5.50179
2.05264
-24.7017
8.14395
3.28855
-91.6513
1.08247
18.9001
-43.1214
-139.027
5.97903
186.742
0.354456
26.47
-0.194357
3.66238
22.6809
-2.28131
75.6003
2.05771
3.58371
-0.183374
6.8801
14.2015
-5.21669
3.27852
-161.3
-2.11581
-49.2248
-0.356389
54.5165
3.7064
3.93687
-1.80288
2.67749
8.86958
122.596
52.0124
0.480295
-77.2902
87.4459
6.38797
322.155
-1.47966
2.26651
71.576
58.2914
9.4275
-1.08218
0.0625311
35.3345
1.51609
3.0534
97.8677
28.7364
-1.80716
74.6137
-37.2216
-2.6488
-2.25486
2.10951
-1.63783
67.5425
-0.794985
3.10775
1.07894
39.8874
0.490652
-14.1182
-30.7266
1.03276
1.09299
38.7136
3.3688
185.136
2.35476
82.8629
2.57863
1.42728
0.604613
3.7774
1.57815
-1.01828
3.63943
-0.74223
4.48453
-84.9871
40.7873
0.923785
98.1333
0.535984
0.980858
1.74545
3.42654
1.03452
11.4714
3.11119
-40.7933
-47.5559
8.72902
280.105
6.09886
5.03499
110.898
2.42819
-2.7159
3.2473
1.36943
-3.2918
185.079
3.47052
3.97342
0.644321
-2.36784
-1.58461
6.93385
0.407545
-29.9586
-16.7676
1.26122
1.56389
10.5789
-0.763564
0.604325
1.5762
-2.02826
1.39074
2.81705
7.45239
2.93964
0.871808
-27.7124
-156.729
-1.77562
3.47545
-1.25909
113.034
-34.7678
0.375477
1.18903
-3.28715
2.71419
1.20739
-1.64548
43.5143
0.306893
1.10371
1.71009
1.88025
-0.888666
-35.9664
0.673693
4.02387
0.804346
-0.455393
-25.0099
3.29211
15.3116
5.44319
-1.27026
-0.010003
1.91918
27.8212
-0.336318
1.74186
58.995
50.9624
-3.21656
2.68633
1.91391
34.2043
51.7404
79.6045
1.42165
266.688
3.36797
-2.33598
39.8508
-27.5684
1.24676
1.4635
0.658099
5.22589
3.59867
0.592265
-2.9942
0.961658
6.05412
0.507382
3.61509
11.3274
3.49385
3.24891
3.65158
-143.446
2.45355
0.884175
0.289074
2.13619
-1.02063
-0.889971
7.04484
-1.24702
0.731958
5.28762
3.87143
7.07967
4.55899
2.96055
0.94156
34.7735
3.79926
-0.0967617
6.05552
10.7289
1.51118
-0.558846
3.6072
93.658
0.589949
78.3853
1.8215
2.42724
1.99896
3.50445
3.04789
147.091
4.6537
0.374428
4.38954
3.32823
73.9427
1.01707
2.77001
30.3475
-4.43096
1.07716
-12.6911
3.78063
70.6561
2.2327
-39.2516
3.1681
-37.8619
1.44306
11.0342
-2.53612
1.68834
185.689
182.296
0.307804
44.4102
1.45839
-0.112382
1.46368
22.8036
3.2357
-0.289696
123.627
185.483
-150.947
6.73489
55.3207
0.0471738
2.16371
0.772262
0.920907
3.5161
11.0651
2.66262
-1.98386
3.70111
3.24357
3.91717
-16.4154
2.19504
2.55538
178.28
0.730281
0.343352
-4.37601
80.2538
4.4442
3.16424
42.5694
3.70008
26.8845
1.80092
2.18266
-2.06926
290.618
1.52495
4.05981
2.97857
1.19209
3.97412
-0.286668
-28.1628
0.761896
-34.6164
-1.74571
-1.26197
23.6761
-4.20029
-0.36607
3.89424
0.512649
1.55042
0.731017
-216.774
-239.515
2.46103
2.72153
1.24684
17.2586
-1.52645
-1.75106
0.52462
-1.23814
6.01088
5.52329
-36.2899
-1.44985
-18.484
54.3395
2.15419
15.4209
-1.19551
62.9073
1.01602
0.854582
2.40591
-1.02976
1.79809
2.14079
15.5349
37.0773
30.8577
-20.2202
145.323
1.93428
0.825547
0.567164
0.935567
5.29811
136.423
3.03299
185.102
100.156
188.313
3.59307
0.692597
1.26074
3.77853
-78.2296
3.37044
-21.2616
3.5875
4.65964
-0.838019
184.004
38.3013
0.898535
3.5299
6.57631
3.1832
2.5873
0.65409
123.554
1.75534
1.30317
184.565
3.86563
76.2059
4.636
1.56512
8.56829
-61.7148
1.97212
1.52339
2.3916
2.68221
-1.89033
1.62548
77.6879
-2.28103
1.53918
4.24047
1.42442
121.589
-9.77149
0.311803
10.9298
55.4884
-1.31677
61.2554
3.9811
2.12532
90.0012
3.18277
-1.76644
2.35463
1.61473
0.287076
-88.2271
-1.53172
6.53392
-3.75146
2.03187
24.5029
-64.7716
280.175
-0.903475
-0.858689
56.2294
-1.48438
0.954215
1.50025
2.29145
319.98
59.5205
2.91844
49.7906
4.16702
60.227
37.2486
61.9254
15.9485
41.2259
12.0645
-1.63033
3.4943
-1.25428
69.9321
8.22405
3.26541
0.277726
0.412925
184.658
3.2153
-0.394761
30.2849
95.6767
-1.24274
44.8799
-2.38518
32.8884
35.483
2.2327
-0.411221
1.80003
3.45835
1.52877
2.27418
3.59393
1.66833
56.4176
0.354437
0.416195
-2.52832
1.92022
1.53614
72.607
50.4312
-1.95893
30.0491
1.42007
3.78539
1.80643
21.262
163.464
-16.0497
1.67339
2.20313
3.56719
8.24417
-2.48051
0.629428
1.59831
69.9791
1.62196
0.269659
-116.392
2.03758
4.45907
-1.17311
11.4107
1.60566
1.47757
35.3672
1.45698
2.00008
182.693
1.75364
11.1193
26.4255
-0.283356
10.1907
2.59029
185.041
2.06187
-10.3765
0.901677
1.99462
4.03012
3.50549
2.5612
-1.19873
1.3138
75.0993
1.69823
2.14451
4.40176
61.8824
3.13454
2.93963
0.833399
48.5028
1.66782
141.458
-36.4769
-1.60063