/*--------------------------------*- C++ -*----------------------------------*\
  =========                 |
  \\      /  F ield         | OpenFOAM: The Open Source CFD Toolbox
   \\    /   O peration     | Website:  https://openfoam.org
    \\  /    A nd           | Version:  10
     \\/     M anipulation  |
\*---------------------------------------------------------------------------*/
FoamFile
{
    format      ascii;
    class       surfaceScalarField;
    location    "200";
    object      phi;
}
// * * * * * * * * * * * * * * * * * * * * * * * * * * * * * * * * * * * * * //

dimensions      [0 3 -1 0 0 0 0];

internalField   nonuniform List<scalar> 
16133
(
1.25514
-0.058945
-0.0120687
-1.1844
-1.18836
0.192662
-0.23449
1.23019
-0.537876
-1.35624
1.09098
0.803142
-0.119707
0.0356329
-1.62211
1.70614
-0.535115
0.144814
2.06142
-1.67121
2.49661
0.970785
-3.05836
-0.409101
-1.59797
0.363004
0.947526
0.287436
-0.0556761
-1.75324
0.486257
1.32266
-1.22266
1.8347
1.18275
-1.79483
0.196664
2.02111
-0.038822
-2.17897
1.32705
-1.27517
0.268762
-0.320659
1.85449
-0.637965
0.542085
-1.7586
-0.310763
-2.06141
1.19778
1.17437
0.975331
-0.863592
-0.0300301
-0.0817433
1.07735
-0.0296907
-0.0724211
-0.653973
0.520051
-1.9162
2.05014
-0.0853726
-0.0579196
-0.720307
-3.03854
0.349285
2.32948
0.359685
-3.22521
2.70813
-0.705598
-0.0850044
1.32937
0.0107801
-0.415898
1.41044
-1.2197
0.225172
-0.2104
-1.58575
1.67638
-1.99458
2.00078
-0.660158
3.65565
-2.76824
0.473152
-1.36065
-2.01445
2.42544
-0.214319
-0.00431358
0.00806668
-0.062562
0.0588115
-0.00221547
-0.00982263
-0.000545036
0.0125881
0.0694474
-1.1077
0.976644
0.0616064
-0.0363834
0.0645548
-0.0839277
0.055755
-2.29207
1.2746
1.44799
-0.51955
-2.25525
1.32677
-0.35792
0.389724
1.29524
0.596455
-1.71712
1.06497
0.0174119
0.205256
-0.0732007
-0.14947
-1.54228
-1.85248
1.76464
1.63011
-1.01003
0.230244
1.04941
-0.269623
-1.1262
-2.5243
2.1082
-0.00100535
0.0665031
-0.0777691
0.012276
0.0506908
0.084971
-0.0261058
-0.109556
-2.91592
0.778596
-1.08789
-2.33944
0.0085336
-1.62545
-0.510397
-0.627636
0.197819
-0.215717
0.645512
-0.0761417
1.5039
-0.00760031
-1.42016
2.21154
-0.805971
-2.5318
2.07399
-1.33427
0.389718
-0.232588
-0.373551
-0.0191134
0.424762
-0.032108
1.45371
0.751092
-0.370137
1.71218
-1.58802
-0.334622
-0.856986
-1.31215
-2.34793
2.30555
-1.6183
1.66062
0.119847
0.0522
-0.121356
-0.0224722
0.0347432
0.0844035
-0.0966754
-0.0177194
0.046496
0.0561981
-0.0649043
-0.0297141
0.0582352
2.12786
-0.976073
-3.67615
0.0049676
-0.0556102
0.0808699
-0.0302214
-0.616396
0.883123
-0.115401
-0.151333
2.34937
0.0737657
0.0239276
0.0221539
0.177364
-1.11182
-0.253903
0.0290723
-0.0684639
0.0716269
-0.0322316
0.928796
-1.73437
1.75897
-0.953425
0.919822
-0.702847
-1.93239
1.2652
-0.689039
-0.481795
0.0291962
-0.163796
0.164184
0.150104
-0.145805
-0.168485
0.619346
1.27735
-2.10793
0.622922
-1.28327
0.0478464
0.0163203
-0.0866383
0.0778701
-0.00842483
0.00197299
-0.0714159
-0.704214
0.0471092
1.07589
-0.418811
0.809258
-1.45232
-1.28931
-0.0661455
-0.132666
1.2762
-0.266919
-0.764097
0.297215
0.733771
-2.14396
1.1537
-1.11767
-1.09722
0.579142
0.881072
-1.13759
1.06608
0.667932
1.15934
-1.12596
-0.0995818
2.0417
-1.84557
0.381186
-0.577392
1.18127
-1.12561
0.0478203
-0.10349
0.06811
0.115959
-0.13187
0.0394681
0.101334
-0.10606
2.41537
0.366268
-0.739951
-0.241707
0.143366
1.10152
-1.00317
1.20472
-1.1185
-0.173365
0.0871565
1.48096
-1.39483
-0.162269
0.885225
-0.605523
-0.0498755
-0.229739
1.26832
-0.160635
0.0970565
1.59385
0.0939516
-0.206857
1.92945
-0.299993
1.23892
-0.116604
1.03341
-0.139674
-0.00847956
1.3376
-0.114354
0.0450837
-0.315724
-0.936029
0.546836
1.60824
-0.225665
1.0012
-0.138215
-0.995616
0.843006
0.187757
-0.147653
-1.44716
1.60978
-0.282846
0.120185
0.645936
-0.250214
1.77531
-1.68994
0.599583
-0.685022
0.0582781
-0.112896
0.0556701
0.510895
1.94115
-0.676784
-0.024271
1.2901
-0.136184
0.3127
-0.446129
0.0102968
3.32604
-0.920996
1.123
0.132904
-0.0965404
0.132123
-1.46743
-0.252742
-1.56223
-0.662842
-1.10223
0.0747661
-0.0981589
0.117368
-0.0965928
0.114133
-1.01449
-1.4779
-0.271895
1.56069
0.320968
1.15841
-1.34389
-0.218022
1.39964
-1.5971
-0.185995
1.5112
0.825426
0.976995
-0.241732
0.673665
-0.509611
-0.430989
1.20111
-0.203329
-0.996482
0.853603
0.568174
-0.425333
-1.23406
1.27767
0.415178
-0.458811
-0.0377577
0.106505
0.00187549
-0.0706224
-0.271719
0.77699
0.345718
-0.449072
2.13475
-1.66899
-0.0355709
0.0364836
-0.00895695
0.00804318
0.229842
-0.44936
-1.20286
-0.389112
-1.55664
-1.03952
-0.116149
-0.0184733
0.0663896
0.0299553
-0.0830491
0.128116
0.118252
-0.163318
-0.881146
0.916034
-0.350649
-0.226371
1.70682
-1.26412
-1.38032
-0.10519
0.025841
-0.076789
-1.76567
2.40769
0.0851762
-0.165224
-0.40175
-0.376353
1.13784
-2.22962
1.46811
1.7627
1.00278
-0.988807
0.132692
-0.146728
0.353178
-0.380727
0.237388
-1.65656
-0.250393
0.82568
-0.660687
1.51876
0.604612
-2.49972
-0.323587
0.0468087
-0.0967718
-0.688764
-2.81915
1.28278
-1.19778
1.84394
0.812644
2.18828
1.08803
-0.0978103
0.010309
0.235107
-0.147605
1.39617
0.415228
-0.533763
0.39903
-1.14173
0.263001
1.18669
-0.307955
2.97399
0.628511
-1.254
-2.34856
-0.933771
-0.135786
-1.46155
1.55127
2.18501
-2.07694
-0.0977807
0.340987
1.0682
1.60334
1.35681
-1.5094
1.25377
-1.4615
-1.70444
-0.163843
1.68226
-1.8607
1.14885
-0.701978
1.41382
-1.75328
-2.21074
-0.154004
-1.46141
0.198124
-0.453116
-0.449227
0.0234395
-0.0181176
0.0030634
-0.0083831
0.213779
0.650795
2.05992
-1.98569
0.530378
-1.07545
-0.300779
-0.265746
-0.39319
0.321808
-0.343593
0.414964
-1.37505
-0.197596
-0.126505
0.147216
0.0438426
-2.27857
-0.542409
-1.28443
0.639196
0.103636
-0.0676288
-0.599643
-0.864668
1.30813
-1.5407
1.23003
1.43094
1.60877
1.43437
-1.09534
0.137331
0.0721757
-0.141397
-0.0460963
-0.00794789
0.976314
-0.329925
0.443544
-0.609621
1.16348
-1.4088
-0.743745
0.790542
-0.855985
-0.286841
-0.184147
1.11182
0.937062
0.086697
0.0617809
-0.14948
-1.42831
1.18699
0.158168
-0.362768
0.520269
-0.956858
1.36922
-0.298261
-0.269352
0.00156298
0.122349
-0.0948398
1.87452
-0.241397
0.10255
-0.18474
1.18458
0.678619
2.04847
-0.0191094
0.0403357
-0.191446
0.935346
0.102968
1.0826
0.144312
-0.105646
-0.159628
0.120962
-0.0492818
0.04497
-0.148689
0.0463424
-0.122167
-0.0506827
0.490605
-0.554709
0.385906
0.339206
-0.0155773
-0.238455
0.338639
0.648007
-0.772868
-0.0334844
-0.077748
0.132169
-0.0209358
1.31982
0.0497457
-0.0557346
0.00599456
-0.739221
-0.346488
1.60406
-2.19871
0.389711
0.689754
0.214993
-0.26206
-0.296531
-1.50174
0.000464017
0.467481
-2.65814
-0.0251041
0.0390692
0.00244831
-0.0164124
-0.0419474
-2.73553
-0.0782587
-0.0199688
0.0647433
-1.93551
-0.177106
-1.23068
2.40345
-1.33864
-0.0363128
-0.116466
0.0750294
0.174203
-0.246999
0.21711
-0.0254271
-0.0759461
0.0364686
-0.420086
1.29893
-0.869692
1.07887
0.615687
-0.531081
0.0317876
-0.0485634
0.0167787
-1.02513
-0.30424
0.0405262
-0.0532478
0.0127251
1.03155
-1.94266
0.230526
0.680891
-0.36825
0.376082
0.0367861
0.00374106
0.286917
-0.165005
-0.152865
0.261454
0.214757
0.0236587
1.13371
-0.455118
-0.21897
1.92383
0.150385
-0.0722583
0.0592029
-0.179609
0.222614
-0.55117
0.716349
-1.2193
-0.300836
1.16555
-0.492214
1.7521
0.0391516
0.00581836
0.174118
-1.40729
0.866511
-0.435771
-1.20083
0.497492
0.316728
0.281978
-0.985165
1.11349
-0.148858
-0.0466604
0.0898736
2.3179
-0.0734561
0.0346892
0.118875
-0.114097
-0.148736
0.212488
-0.336832
0.182677
-0.0339009
-0.0995628
0.0367563
0.0387741
-0.0755277
-0.00286498
-1.29033
1.97017
-0.282024
0.367042
0.245062
-0.87783
0.0125068
0.0192821
-0.524006
-2.31124
0.0256341
0.0328648
0.122883
-0.121059
-0.161747
-0.134054
0.0145294
-0.314566
-0.292104
-2.17988
-1.07646
-0.0164907
0.137555
0.0867156
-0.233144
-0.629534
-0.0226086
-0.0096852
-0.0361683
0.0748814
0.147086
-0.149791
-0.172232
-1.3817
-1.56056
0.0347515
0.00439915
0.234406
-0.900441
-0.00426328
0.948085
0.0598683
-0.0198386
0.0612515
0.0979191
-0.126307
0.393253
0.0895005
0.0629963
0.0511583
-0.0638604
-0.0251853
0.0134082
-0.145147
0.205846
-0.133901
-0.0280535
0.0224435
0.0342696
0.000482242
-0.010899
0.0139654
0.0660441
0.00819958
-0.000979765
-0.00477028
-0.157026
1.09888
-0.796985
0.764166
0.0464575
-0.130353
0.0041446
0.297327
-0.213097
-0.276104
0.538204
0.402656
-0.847666
-0.46512
-0.0225905
0.0310475
-0.0309473
0.00509355
-0.0602207
-0.0379899
0.0267157
-0.0192739
0.0012523
0.0330172
0.0526784
-0.0428708
1.25303
-0.0077296
0.0250683
-0.895649
0.394018
-1.14604
-0.317358
-0.0290095
0.0061351
-0.00198918
-0.0221153
0.0137905
-0.0342395
0.0446614
-0.002969
0.3512
-0.473034
-0.610179
0.567031
-0.131728
-0.707106
-0.298969
-0.0981422
-0.0386037
-0.616305
-0.186405
-0.00773996
-0.0606822
0.0161107
0.0935116
-0.266599
0.0313277
0.0177332
-0.0241539
1.19196
-0.0110606
0.0336535
-0.0287263
-0.215743
1.42152
0.72152
-0.258516
-0.461199
-0.169273
-0.294416
-0.00545474
0.142295
-0.136841
-0.0125937
0.154974
-0.147835
-0.0206866
0.168109
-0.160016
-0.0291224
0.177703
-0.169268
-0.037351
0.185363
-0.177134
-0.045563
0.191404
-0.183192
-0.0537481
0.196663
-0.188478
-0.0620727
0.201015
-0.192691
0.204238
-0.19607
-0.0702418
-0.00579109
0.148089
-0.011909
0.161093
-0.0186473
0.174848
-0.0257304
0.184786
-0.0327816
0.192414
-0.0398311
0.198453
-0.0467928
0.203624
-0.0537722
0.207994
0.211435
-0.0609697
-0.0055994
0.153687
-0.0111023
0.166597
-0.0169344
0.18068
-0.0229389
0.190791
-0.0289497
0.198425
-0.0349318
0.204435
-0.0408242
0.209516
-0.0466934
0.213863
0.217474
-0.052733
-0.00522699
0.158917
-0.0102973
0.171668
-0.0154001
0.185784
-0.0204957
0.195887
-0.0255738
0.203503
-0.0306128
0.209474
-0.0355751
0.214478
-0.0405155
0.218802
0.222549
-0.0455902
-0.00501324
0.16393
-0.00960045
0.176257
-0.0139738
0.190158
-0.0182288
0.200142
-0.0224383
0.207712
-0.026618
0.213654
-0.0307569
0.218617
-0.0348878
0.222933
0.226771
-0.0391104
-0.00492887
0.16886
-0.0089471
0.180277
-0.0125464
0.193758
-0.0159612
0.203557
-0.0193368
0.211088
-0.0227124
0.217029
-0.0260715
0.221976
-0.0294242
0.226285
0.230166
-0.03282
-0.00475053
0.173614
-0.00812568
0.183652
-0.0109106
0.196543
-0.01349
0.206136
-0.0160469
0.213645
-0.0186346
0.219617
-0.0212521
0.224593
-0.0238725
0.228906
0.232798
-0.0265039
-0.00431284
0.177925
-0.00694875
0.18629
-0.00887863
0.198473
-0.0105961
0.207854
-0.0123381
0.215387
-0.0141603
0.22144
-0.0160476
0.226481
-0.0179631
0.230822
0.234652
-0.0198165
-0.00352684
0.181457
-0.00525486
0.188017
-0.00627815
0.199496
-0.00712821
0.208704
-0.00804881
0.216307
-0.00908957
0.222481
-0.0102557
0.227647
-0.0114902
0.232057
0.235893
-0.0127312
-0.00214108
0.183595
-0.00289266
0.188769
-0.0030029
0.199606
-0.00298272
0.208683
-0.00306321
0.216388
-0.00332368
0.222741
-0.00375378
0.228078
-0.00432132
0.232625
0.236513
-0.00494022
1.53672e-05
0.183582
0.000179954
0.188604
0.000943613
0.198841
0.00181002
0.207816
0.00257346
0.215624
0.00311331
0.222201
0.00344486
0.227746
0.00359096
0.232479
0.236506
0.00359762
0.00243469
0.181147
0.00362121
0.187416
0.00530976
0.197151
0.00704215
0.206082
0.00865454
0.21401
0.0100505
0.220805
0.0111797
0.226616
0.0120941
0.231565
0.235824
0.0127772
0.00447586
0.17667
0.00700663
0.184884
0.00973043
0.194426
0.0123283
0.203484
0.0147805
0.211558
0.0170114
0.218573
0.0189771
0.22465
0.0206685
0.229874
0.234348
0.0221443
0.00611925
0.170554
0.0101335
0.180868
0.0138324
0.190726
0.0172313
0.200084
0.0204298
0.208358
0.0233883
0.215615
0.0260961
0.221942
0.0285303
0.22744
0.232182
0.0306972
0.00737817
0.163175
0.0126608
0.175585
0.0171973
0.186189
0.0212723
0.196008
0.0250817
0.204549
0.0286497
0.212046
0.0319789
0.218613
0.035033
0.224385
0.22943
0.0377836
0.00811506
0.155065
0.0143184
0.16938
0.0195012
0.181005
0.0241415
0.191368
0.0284674
0.200223
0.0325409
0.207973
0.03639
0.214764
0.0400011
0.220774
0.226068
0.0433626
0.00809176
0.146972
0.0149492
0.162523
0.0206424
0.175311
0.025799
0.186211
0.0306173
0.195404
0.035176
0.203414
0.0394954
0.210444
0.0435817
0.216687
0.222296
0.047354
0.00732198
0.139655
0.0145046
0.155338
0.020716
0.169099
0.0264086
0.180518
0.0317504
0.190063
0.0368205
0.198344
0.0416506
0.205614
0.0462375
0.2121
0.218011
0.0505218
0.00647048
0.133182
0.013573
0.148235
0.0201413
0.16253
0.0263253
0.174333
0.0321992
0.184188
0.037818
0.192725
0.0432071
0.200225
0.0483915
0.206915
0.213005
0.0533976
0.00575122
0.127434
0.0125938
0.141391
0.0193435
0.155779
0.0259302
0.167746
0.0322955
0.177823
0.0384526
0.186567
0.0444101
0.194267
0.0501791
0.201146
0.207408
0.0557758
0.00509672
0.122334
0.0117289
0.134759
0.0185988
0.148908
0.0255183
0.160825
0.0323254
0.171015
0.0389936
0.179899
0.0455212
0.187739
0.0519187
0.194748
0.201136
0.0581905
0.00462865
0.117708
0.0111732
0.128213
0.0181591
0.141922
0.0253341
0.15365
0.0325019
0.163847
0.0396138
0.172787
0.046658
0.180695
0.0536506
0.187755
0.194126
0.0606602
0.00478289
0.112922
0.0112606
0.121738
0.018278
0.134905
0.0255719
0.146355
0.0329728
0.156445
0.0404224
0.165336
0.0479071
0.17321
0.0554108
0.180252
0.18659
0.0629457
0.00596436
0.106958
0.0122091
0.115493
0.0190478
0.128066
0.0262865
0.139117
0.0337701
0.148961
0.041426
0.15768
0.0492599
0.165376
0.0571626
0.172349
0.179247
0.0645065
0.00739516
0.013332
0.0200414
0.0272878
0.0348518
0.0427413
0.0510915
0.060123
0.0700973
-0.157023
-0.00118658
0.15821
-0.155615
-0.00140779
-0.153996
-0.00161954
-0.15217
-0.00182483
-0.150176
-0.00199436
-0.148063
-0.00211257
-0.145896
-0.0021667
-0.143737
-0.00215963
-0.141602
-0.00213694
-0.139451
-0.00214965
-0.137185
-0.0022695
-0.134623
-0.00255907
-0.131556
-0.00307111
-0.127755
-0.00379861
-0.123089
-0.00467146
-0.117448
-0.00563984
-0.110806
-0.00664513
-0.103171
-0.00763627
-0.0946113
-0.00856044
-0.0852252
-0.00938825
-0.0751333
-0.0100905
-0.0645081
-0.0106276
-0.0535563
-0.0109497
-0.0426037
-0.010955
-0.0320525
-0.0105487
-0.0222965
-0.00975679
-0.0134183
-0.00887539
-0.00520231
-0.00821602
0.00262277
-0.00782168
0.0102842
-0.00766261
0.0180491
-0.00776066
0.0259614
-0.00791413
0.0338913
-0.00792524
0.0417478
-0.00785805
0.0495005
-0.00774784
0.0571077
-0.0076064
0.0645632
-0.00745271
0.0718377
-0.00727074
0.0788726
-0.00703378
0.085595
-0.00671888
0.091921
-0.00632705
0.09779
-0.00586621
0.103133
-0.00534567
0.107934
-0.00479889
0.112188
-0.00425634
0.115908
-0.00372048
0.119081
-0.00317481
0.121738
-0.00265749
0.123937
-0.00220126
0.125761
-0.00182444
0.127295
-0.00153529
0.128629
-0.0013344
0.129855
-0.00122675
0.131035
-0.00118112
0.132207
-0.00117179
0.133381
-0.00117532
0.134553
-0.00117183
0.135714
-0.00116145
-0.00112726
-0.15841
-0.00257133
0.159795
-0.156852
-0.00296555
-0.155072
-0.00339887
-0.153023
-0.00387438
-0.150651
-0.0043661
-0.147886
-0.00487761
-0.144665
-0.00538662
-0.140925
-0.00590086
-0.136625
-0.00643606
-0.13176
-0.00701452
-0.126347
-0.00768013
-0.120425
-0.00848181
-0.114049
-0.00944455
-0.10733
-0.010519
-0.100344
-0.0116561
-0.0931617
-0.0128231
-0.0858367
-0.0139705
-0.0784117
-0.0150611
-0.0709108
-0.0160634
-0.0633451
-0.0169527
-0.0557267
-0.017711
-0.0480531
-0.0183005
-0.0403529
-0.0186513
-0.0326231
-0.0186845
-0.0247635
-0.0184091
-0.0165635
-0.017956
-0.0079443
-0.0174946
0.000973985
-0.017133
0.010018
-0.0168655
0.019017
-0.0166602
0.0277471
-0.0164908
0.0361371
-0.0163027
0.0442145
-0.0160026
0.0519408
-0.0155827
0.0592499
-0.0150566
0.0660811
-0.0144356
0.0723632
-0.0137338
0.0780725
-0.0129777
0.083228
-0.0121881
0.0879016
-0.0113921
0.0921892
-0.0106134
0.096192
-0.00986963
0.100021
-0.00917355
0.103741
-0.00851747
0.10739
-0.00790548
0.11101
-0.00733974
0.114615
-0.00678026
0.118174
-0.00621702
0.121659
-0.00568617
0.125042
-0.00520773
0.128304
-0.00479771
0.131425
-0.00445586
0.13438
-0.00418134
0.137151
-0.0039526
0.139717
-0.00373819
0.142072
-0.0035307
0.144206
-0.00330603
0.146122
-0.00307787
-0.00283994
-0.165394
-0.00422298
0.167046
-0.163551
-0.00480839
-0.161485
-0.00546551
-0.159164
-0.00619514
-0.15653
-0.00700021
-0.153528
-0.00787958
-0.150095
-0.00882113
-0.146174
-0.00982138
-0.14172
-0.0108908
-0.1367
-0.0120331
-0.131112
-0.0132692
-0.124988
-0.0146039
-0.118407
-0.0160261
-0.111423
-0.0175007
-0.104087
-0.0189927
-0.0964567
-0.020452
-0.0885891
-0.0218372
-0.0805539
-0.0230962
-0.0724158
-0.0242004
-0.0642446
-0.0251244
-0.0560962
-0.0258586
-0.0480092
-0.0263884
-0.0399591
-0.0267011
-0.0318443
-0.0268005
-0.0235203
-0.026733
-0.0149094
-0.0265682
-0.00604393
-0.0263602
0.00296685
-0.0261452
0.0120201
-0.0259189
0.021014
-0.0256558
0.0298415
-0.0253186
0.0383947
-0.0248579
0.0466199
-0.0242281
0.0544491
-0.0234136
0.0618176
-0.0224254
0.0686741
-0.0212929
0.0750008
-0.0200608
0.0808181
-0.0187947
0.086182
-0.0175524
0.0911709
-0.0163804
0.0958738
-0.0153173
0.100377
-0.0143723
0.104747
-0.0135442
0.109033
-0.0128037
0.113256
-0.0121293
0.117407
-0.01149
0.121494
-0.0108675
0.125522
-0.0102448
0.129469
-0.00963368
0.133314
-0.00905265
0.137039
-0.00852351
0.140629
-0.00804545
0.144061
-0.00761304
0.147303
-0.00719459
0.15033
-0.00676574
0.153118
-0.00631964
0.155666
-0.00585394
0.157962
-0.00537423
-0.00489432
-0.16618
-0.00617006
0.168127
-0.164042
-0.00694705
-0.161677
-0.00783013
-0.159054
-0.00881823
-0.156134
-0.00992008
-0.152869
-0.0111446
-0.149208
-0.0124816
-0.145099
-0.0139303
-0.140517
-0.0154735
-0.135446
-0.0171036
-0.129901
-0.0188148
-0.123902
-0.0206018
-0.117494
-0.0224348
-0.110701
-0.0242932
-0.103571
-0.0261236
-0.0961374
-0.0278852
-0.0884559
-0.0295194
-0.0805753
-0.0309769
-0.072549
-0.0322275
-0.0644225
-0.033251
-0.0562308
-0.0340509
-0.047982
-0.0346373
-0.0396509
-0.0350327
-0.0311893
-0.0352624
-0.0225561
-0.0353667
-0.0137417
-0.035383
-0.00477472
-0.0353276
0.00428607
-0.0352066
0.0133646
-0.0349978
0.0223724
-0.0346644
0.0312153
-0.0341618
0.0398036
-0.0334471
0.0480644
-0.0324891
0.055937
-0.0312866
0.0633752
-0.0298637
0.0703666
-0.028284
0.0769267
-0.026621
0.0830892
-0.0249566
0.0889093
-0.0233726
0.094453
-0.0219236
0.0997746
-0.0206391
0.10492
-0.0195177
0.109919
-0.0185435
0.114794
-0.017679
0.119554
-0.0168885
0.124208
-0.0161446
0.128754
-0.0154136
0.133202
-0.0146931
0.137539
-0.0139706
0.14175
-0.013264
0.1458
-0.0125734
0.149652
-0.0118974
0.153262
-0.0112235
0.15661
-0.0105425
0.159679
-0.00983463
0.162466
-0.0091081
0.164981
-0.00836897
0.167239
-0.00763263
-0.00692291
-0.16846
-0.00829065
0.17058
-0.166143
-0.0092647
-0.163616
-0.0103569
-0.160854
-0.0115811
-0.157825
-0.0129495
-0.1545
-0.0144694
-0.150842
-0.0161397
-0.146829
-0.017943
-0.142434
-0.0198686
-0.137639
-0.0218984
-0.132437
-0.0240175
-0.126826
-0.0262118
-0.120813
-0.0284486
-0.114407
-0.030698
-0.107617
-0.0329139
-0.10046
-0.0350421
-0.0929564
-0.0370237
-0.0851262
-0.0388073
-0.0770075
-0.0403466
-0.0686339
-0.041625
-0.0600532
-0.0426319
-0.0513028
-0.0433884
-0.0424125
-0.0439233
-0.0334002
-0.0442755
-0.0242822
-0.044485
-0.0150825
-0.0445835
-0.00582749
-0.0445829
0.00344125
-0.0444763
0.0126715
-0.0442282
0.0217961
-0.0437901
0.0307421
-0.0431077
0.0394302
-0.0421363
0.047796
-0.0408549
0.0557944
-0.0392855
0.0634101
-0.0374794
0.0706484
-0.0355221
0.0775428
-0.0335155
0.0841415
-0.0315549
0.0904892
-0.0297207
0.096632
-0.028066
0.102594
-0.0266019
0.108403
-0.0253267
0.114063
-0.0242042
0.119583
-0.0231984
0.124961
-0.0222675
0.130193
-0.0213766
0.135279
-0.0204998
0.140204
-0.0196186
0.144951
-0.0187177
0.149487
-0.0177998
0.153773
-0.0168604
0.157772
-0.0158964
0.161456
-0.014908
0.164803
-0.0138899
0.167825
-0.0128559
0.170537
-0.0118212
0.172972
-0.0108046
0.175164
-0.00982426
-0.00889328
-0.169388
-0.0105176
0.171614
-0.16698
-0.0116725
-0.164381
-0.0129564
-0.161569
-0.0143929
-0.158527
-0.015992
-0.155247
-0.0177491
-0.151713
-0.0196737
-0.147904
-0.0217522
-0.143794
-0.023979
-0.139358
-0.0263343
-0.134568
-0.0288079
-0.129403
-0.0313763
-0.123844
-0.0340078
-0.117878
-0.0366646
-0.111497
-0.0392953
-0.104693
-0.0418458
-0.0974629
-0.0442546
-0.0898141
-0.0464564
-0.0817557
-0.0484055
-0.0733171
-0.0500639
-0.0645343
-0.0514153
-0.0554593
-0.0524636
-0.0461458
-0.0532372
-0.0366537
-0.0537679
-0.0270406
-0.0540985
-0.0173629
-0.0542617
-0.00767403
-0.0542721
0.00197135
-0.0541223
0.0115146
-0.0537717
0.0208872
-0.0531633
0.030018
-0.0522386
0.0388358
-0.0509545
0.0472948
-0.0493138
0.0553795
-0.04737
0.063103
-0.0452029
0.0705084
-0.0429271
0.077644
-0.0406512
0.0845514
-0.0384618
0.0912724
-0.036442
0.0978298
-0.0346232
0.104237
-0.0330094
0.110491
-0.0315809
0.116593
-0.0303066
0.122537
-0.0291425
0.128326
-0.0280564
0.13396
-0.0270113
0.139437
-0.0259774
0.144747
-0.0249289
0.149869
-0.0238393
0.154757
-0.0226886
0.15936
-0.0214637
0.163616
-0.0201521
0.167478
-0.0187705
0.17093
-0.0173426
0.173992
-0.015918
0.176698
-0.0145275
0.179103
-0.0132095
0.181257
-0.0119789
-0.0108285
-0.172355
-0.0127729
0.17461
-0.169938
-0.0140903
-0.167344
-0.0155503
-0.164566
-0.0171719
-0.161597
-0.018961
-0.158429
-0.0209168
-0.155056
-0.0230475
-0.151453
-0.0253544
-0.1476
-0.0278327
-0.143447
-0.0304867
-0.138964
-0.0332915
-0.134115
-0.0362242
-0.128872
-0.0392515
-0.123209
-0.0423273
-0.117105
-0.0453996
-0.110539
-0.0484118
-0.103488
-0.0513063
-0.0959455
-0.0539985
-0.087905
-0.0564463
-0.0793847
-0.0585844
-0.0704087
-0.0603914
-0.061028
-0.0618446
-0.0513062
-0.0629591
-0.0413203
-0.0637542
-0.0311595
-0.0642593
-0.0209108
-0.064511
-0.0106622
-0.0645207
-0.000498679
-0.0642866
0.0094955
-0.0637658
0.0192321
-0.0629005
0.0286349
-0.0616411
0.0376325
-0.0599525
0.0462064
-0.0578874
0.0543788
-0.0555424
0.062197
-0.053021
0.0697395
-0.0504694
0.0770664
-0.0479782
0.0842056
-0.0456008
0.091197
-0.0434337
0.0980466
-0.0414726
0.104751
-0.0397139
0.11129
-0.0381202
0.117658
-0.0366746
0.12385
-0.0353347
0.129883
-0.03409
0.135772
-0.0329005
0.141533
-0.0317388
0.147167
-0.0305628
0.152657
-0.0293299
0.157956
-0.0279872
0.162981
-0.0264889
0.167654
-0.0248246
0.171885
-0.0230025
0.175635
-0.0210929
0.17891
-0.0191937
0.181769
-0.017386
0.184277
-0.0157181
0.186497
-0.0141988
-0.0128101
-0.175895
-0.0150391
0.178161
-0.1735
-0.0164853
-0.170961
-0.0180892
-0.168265
-0.0198681
-0.165418
-0.0218082
-0.162406
-0.0239282
-0.159223
-0.0262313
-0.155835
-0.0287414
-0.1522
-0.0314687
-0.148281
-0.0344055
-0.14404
-0.0375324
-0.13944
-0.0408243
-0.134463
-0.0442283
-0.129075
-0.0477149
-0.123244
-0.0512312
-0.116931
-0.0547246
-0.110102
-0.0581352
-0.10273
-0.0613706
-0.0948045
-0.0643723
-0.0863165
-0.0670722
-0.0772743
-0.0694338
-0.0677153
-0.0714036
-0.0577017
-0.0729727
-0.0472959
-0.0741601
-0.0366264
-0.0749289
-0.0257876
-0.07535
-0.0149194
-0.075389
-0.00413288
-0.0750733
0.00643132
-0.0743299
0.0166566
-0.0731258
0.0264553
-0.0714397
0.0357327
-0.0692295
0.0445063
-0.066661
0.0528684
-0.0639043
0.06086
-0.0610124
0.0686297
-0.0582388
0.0762509
-0.0555994
0.0836681
-0.0530179
0.0909547
-0.0507202
0.0981043
-0.0486222
0.105088
-0.0466977
0.111878
-0.0449103
0.118436
-0.0432323
0.124774
-0.0416734
0.130948
-0.0402633
0.136954
-0.0389069
0.142863
-0.0376478
0.148695
-0.0363944
0.154426
-0.0350607
0.160019
-0.0335799
0.165392
-0.0318614
0.170432
-0.0298646
0.175024
-0.0275948
0.179097
-0.0251658
0.182638
-0.0227348
0.185694
-0.0204415
0.188335
-0.0183596
0.19064
-0.016504
-0.0148613
-0.181166
0.183392
-0.0172648
-0.17883
-0.0188205
-0.176405
-0.0205143
-0.173862
-0.022411
-0.171199
-0.0244722
-0.168335
-0.0267924
-0.165232
-0.029334
-0.161925
-0.0320483
-0.158401
-0.0349931
-0.154528
-0.0382778
-0.150336
-0.0417249
-0.145829
-0.0453313
-0.140962
-0.0490954
-0.135763
-0.0529137
-0.130148
-0.0568459
-0.124126
-0.0607471
-0.117603
-0.0646577
-0.11049
-0.0684834
-0.102761
-0.0721012
-0.0944297
-0.0754039
-0.0854598
-0.0784036
-0.0759126
-0.0809507
-0.0657686
-0.0831162
-0.0550521
-0.0848767
-0.0439495
-0.0860309
-0.0325609
-0.0867392
-0.0211079
-0.0868416
-0.00967874
-0.0865027
0.00147733
-0.0854854
0.0121009
-0.0837494
0.022336
-0.0816742
0.0319776
-0.0788712
0.0411379
-0.0758212
0.0499976
-0.0727639
0.0584931
-0.069508
0.0667824
-0.0665278
0.0749009
-0.0637178
0.0828141
-0.0609308
0.0907147
-0.0586208
0.0983983
-0.0563056
0.105877
-0.054177
0.113146
-0.0521783
0.120081
-0.0501677
0.126775
-0.0483667
0.133213
-0.0467012
0.139385
-0.0450792
0.145393
-0.0436564
0.151111
-0.0421116
0.156815
-0.0407651
0.162437
-0.0392005
0.16786
-0.037285
0.172975
-0.0349787
0.177678
-0.0322972
0.181924
-0.0294113
0.185569
-0.02638
0.188753
-0.023626
0.191475
-0.0210818
0.193967
-0.0189962
-0.0169644
-0.0840768
0.00855067
-0.0923645
0.00829059
-0.100178
0.00781209
-0.107712
0.0075379
-0.115473
0.00776063
-0.123572
0.00810149
-0.131867
0.00829591
-0.140337
0.00847276
-0.14898
0.0086439
-0.157135
0.00815754
-0.163976
0.00684116
-0.168981
0.00500778
-0.171697
0.00271541
-0.17244
0.000745566
-0.172283
-0.000157193
-0.171892
-0.000388983
-0.171524
-0.000367648
-0.171189
-0.000335337
-0.17075
-0.000437777
-0.16996
-0.000790912
-0.16857
-0.00138944
-0.166649
-0.00192039
-0.164419
-0.00222945
-0.161848
-0.00257054
-0.0036372
-0.0932766
0.0151889
-0.100584
0.0155965
-0.108314
0.0155414
-0.116395
0.0156173
-0.124606
0.0159705
-0.132865
0.0163596
-0.141152
0.0165818
-0.14927
0.0165904
-0.156773
0.0161472
-0.163371
0.0147549
-0.169012
0.0124827
-0.173617
0.00961213
-0.177334
0.00643261
-0.180122
0.0035331
-0.181765
0.0014868
-0.182367
0.000212714
-0.18215
-0.000584292
-0.181299
-0.00118607
-0.179945
-0.00179246
-0.178185
-0.0025502
-0.176093
-0.00348143
-0.173518
-0.00449452
-0.170146
-0.00560144
-0.16563
-0.00708601
-0.00947215
-0.104514
0.0230269
-0.112381
0.0234624
-0.120535
0.0236934
-0.128875
0.0239563
-0.137195
0.0242886
-0.145355
0.0245186
-0.153229
0.0244556
-0.160603
0.0239632
-0.167271
0.0228145
-0.173272
0.0207557
-0.178628
0.0178379
-0.183317
0.0143011
-0.187366
0.0104817
-0.190672
0.00683894
-0.192992
0.00380635
-0.194231
0.00145194
-0.194452
-0.000363051
-0.193771
-0.00186792
-0.1923
-0.00326355
-0.190131
-0.00471891
-0.187302
-0.00631013
-0.183718
-0.00807857
-0.179216
-0.0101021
-0.17367
-0.0126317
-0.0160969
-0.114921
0.0318871
-0.123399
0.0319398
-0.131872
0.0321645
-0.140362
0.0324459
-0.148743
0.0326682
-0.156864
0.0326392
-0.164581
0.0321717
-0.171728
0.0311095
-0.17819
0.0292766
-0.183977
0.0265423
-0.189116
0.022976
-0.193613
0.0187977
-0.197456
0.0143246
-0.200568
0.00995137
-0.202768
0.00600575
-0.203944
0.00262771
-0.204063
-0.000244258
-0.203161
-0.00276958
-0.20128
-0.00514565
-0.198467
-0.00753149
-0.1947
-0.0100769
-0.189894
-0.0128845
-0.183908
-0.0160879
-0.176644
-0.019897
-0.0246137
-0.123946
0.0417356
-0.133204
0.0411962
-0.142161
0.0411208
-0.150919
0.0412038
-0.159433
0.0411817
-0.167601
0.0408062
-0.1753
0.0398712
-0.182399
0.038208
-0.188812
0.0356893
-0.194515
0.0322454
-0.199507
0.0279679
-0.20378
0.0230707
-0.207302
0.0178464
-0.210008
0.0126572
-0.211801
0.00779929
-0.212584
0.00341053
-0.212312
-0.000516563
-0.210986
-0.00409634
-0.208602
-0.00752989
-0.205146
-0.0109878
-0.20058
-0.014643
-0.194843
-0.0186218
-0.187893
-0.0230384
-0.179763
-0.028028
-0.0337969
-0.131698
0.0523727
-0.141711
0.0512084
-0.151214
0.0506231
-0.160329
0.0503182
-0.169071
0.0499237
-0.177383
0.0491186
-0.185174
0.0476619
-0.192329
0.0453638
-0.198776
0.0421364
-0.204452
0.0379208
-0.209324
0.0328404
-0.213351
0.027098
-0.216515
0.0210103
-0.218779
0.0149211
-0.220068
0.00908887
-0.220351
0.00369304
-0.219598
-0.00126993
-0.217767
-0.0059274
-0.214835
-0.0104621
-0.210741
-0.0150819
-0.205431
-0.0199528
-0.198841
-0.0252124
-0.190946
-0.030934
-0.181794
-0.0371814
-0.0439774
-0.137928
0.0639931
-0.148771
0.0620506
-0.158874
0.0607253
-0.16841
0.0598538
-0.177454
0.0589668
-0.185984
0.0576482
-0.193937
0.0556151
-0.201217
0.0526443
-0.207749
0.0486687
-0.213451
0.0436231
-0.218253
0.0376422
-0.222091
0.0309363
-0.224946
0.0238655
-0.226808
0.0167829
-0.227658
0.00993909
-0.22749
0.00352439
-0.226286
-0.00247405
-0.224018
-0.00819607
-0.220627
-0.0138529
-0.216052
-0.0196574
-0.210207
-0.0257977
-0.203056
-0.0323641
-0.194607
-0.0393841
-0.185
-0.046789
-0.0543668
-0.142925
0.0765638
-0.154524
0.0736481
-0.165157
0.0713579
-0.175096
0.0697921
-0.184439
0.0683092
-0.193196
0.0664046
-0.20134
0.063759
-0.208769
0.0600735
-0.215441
0.0553404
-0.221211
0.049393
-0.226
0.0424321
-0.229725
0.0346608
-0.232371
0.0265117
-0.233962
0.0183741
-0.2345
0.0104763
-0.234019
0.00304333
-0.232516
-0.00397774
-0.229954
-0.0107588
-0.226266
-0.0175417
-0.221379
-0.0245438
-0.21519
-0.0319872
-0.207668
-0.0398867
-0.198832
-0.0482204
-0.188848
-0.0567728
-0.0650539
-0.147194
0.0898564
-0.159245
0.0856991
-0.170177
0.0822897
-0.180383
0.0799976
-0.189948
0.077873
-0.198881
0.0753362
-0.207185
0.0720626
-0.214753
0.0676408
-0.221546
0.0621335
-0.227379
0.055226
-0.232219
0.0472717
-0.235855
0.0382957
-0.238429
0.0290855
-0.239951
0.019896
-0.240381
0.0109072
-0.23984
0.00250221
-0.238262
-0.00555614
-0.235644
-0.0133767
-0.231842
-0.0213442
-0.226826
-0.0295599
-0.220524
-0.0382899
-0.212869
-0.047542
-0.203894
-0.0571949
-0.193896
-0.0667715
-0.0755581
0.510527
-0.617996
0.195484
0.422539
-1.18659
0.949401
0.237187
0.278588
-0.348948
0.0703594
0.332522
-0.376073
0.0435539
-0.253872
-0.393078
0.646936
-0.405587
0.675582
-0.269996
-0.160155
0.492036
-0.331923
-0.0726856
-0.176758
0.249444
1.7881
-0.989746
-0.797857
-0.723829
1.49298
-0.769141
-0.421154
0.0243523
0.396801
0.828108
-1.48345
0.655347
-0.566052
-0.374034
0.940082
0.135734
-0.134842
-0.000891505
0.266489
-0.165766
-0.100725
-0.840347
-0.346241
0.131385
-0.0109269
-0.120458
-0.244892
0.136654
-0.0833984
0.262793
-0.179392
-0.400532
0.237934
0.162597
0.567744
0.151499
-0.71924
-0.321414
0.715957
-0.394543
1.09662
-0.867345
-0.229273
-0.845193
0.200831
0.644361
0.963357
0.13326
-0.986844
0.398268
0.588595
-0.37972
-0.0946946
0.474411
0.551776
-0.449319
-0.102479
-0.0483567
-0.140552
0.188908
0.375353
0.378714
-0.754068
0.696498
-1.16842
0.471906
0.540728
0.266998
-0.807727
0.254328
-0.712347
0.457966
-0.308859
-0.0523105
0.361171
0.400454
0.934503
-1.33495
-0.928844
0.362787
-2.16112
0.623478
1.53764
-0.332181
0.637439
-0.305255
0.225961
0.316622
-0.542613
0.818656
-1.46077
0.642234