/*--------------------------------*- C++ -*----------------------------------*\
  =========                 |
  \\      /  F ield         | OpenFOAM: The Open Source CFD Toolbox
   \\    /   O peration     | Website:  https://openfoam.org
    \\  /    A nd           | Version:  10
     \\/     M anipulation  |
\*---------------------------------------------------------------------------*/
FoamFile
{
    format      ascii;
    class       volVectorField;
    location    "200";
    object      U;
}
// * * * * * * * * * * * * * * * * * * * * * * * * * * * * * * * * * * * * * //

dimensions      [0 1 -1 0 0 0 0];

internalField   nonuniform List<vector> 
10435
(
(1.08328 0.0312208 2.72634e-23)
(1.07789 0.110025 -8.86958e-22)
(1.97104 -0.401619 -1.27523e-20)
(1.2249 0.0258999 1.24461e-20)
(1.43255 0.237 -3.92412e-21)
(1.82995 0.0877634 3.02682e-20)
(2.00329 -0.398833 -6.40869e-20)
(2.30538 -0.230906 5.42503e-20)
(2.54758 -0.19392 2.06432e-19)
(1.97293 -0.2099 -1.36054e-20)
(1.12693 0.12537 -4.11142e-21)
(1.63106 -0.127181 3.36238e-20)
(1.94747 -0.521693 2.2905e-20)
(0.815005 0.0316371 1.2983e-20)
(0.871308 0.0432914 1.91894e-20)
(2.20484 -0.310823 -6.4456e-21)
(0.757239 0.0208048 -3.86816e-21)
(2.00191 -0.44064 6.4531e-20)
(2.58597 -0.241767 -8.99651e-20)
(1.10538 0.0246713 -9.46238e-22)
(2.23657 -0.285111 3.5142e-20)
(1.23998 -0.0252172 -2.38741e-20)
(2.12457 -0.316504 1.77032e-19)
(2.27853 -0.629742 -4.8495e-20)
(1.97644 -0.242151 1.79771e-20)
(0.221914 0.321209 1.32159e-22)
(0.0774588 -0.039068 2.27331e-22)
(1.92701 -0.478223 1.90664e-20)
(0.285696 -0.192945 -5.91381e-23)
(1.9905 -0.30558 7.8653e-20)
(2.00516 -0.173263 4.01949e-20)
(1.16204 0.148836 -4.47882e-22)
(2.37173 -0.20166 -1.15782e-19)
(0.530415 -0.180359 -1.32276e-21)
(2.39599 -0.348603 5.1449e-20)
(1.01187 0.13539 -1.22234e-21)
(2.29662 -0.339451 6.79753e-20)
(0.177614 0.162121 -1.9803e-21)
(0.38915 0.342094 7.50816e-23)
(2.54296 -0.434133 2.42309e-20)
(1.9624 -0.172248 -5.87414e-20)
(2.02678 -0.375774 -4.75794e-20)
(0.595527 0.196723 8.30534e-21)
(1.15164 0.0367227 -1.17322e-20)
(2.18633 -0.293792 -1.14603e-19)
(2.42611 -0.592863 1.02791e-19)
(1.89992 -0.0314455 -3.66933e-20)
(0.463773 0.22632 2.39762e-20)
(2.53972 -0.0839492 7.66552e-20)
(1.25583 -0.101507 -1.07407e-20)
(2.31362 -0.259817 -9.24832e-21)
(1.84349 0.0112493 2.03884e-19)
(0.446639 0.349467 3.37504e-22)
(0.377874 -0.255699 -6.94707e-23)
(0.333293 0.342385 -1.86744e-22)
(0.230125 -0.212761 1.90862e-22)
(2.31942 -0.410851 -1.94499e-19)
(0.206612 0.0753979 -7.74295e-22)
(0.673159 -0.0452438 2.44951e-21)
(2.42709 -0.451751 1.33427e-19)
(0.392452 0.351076 -2.73459e-22)
(1.05649 0.114744 1.59555e-22)
(0.241184 -0.0347381 9.09087e-22)
(1.72733 0.0896296 -1.2755e-20)
(2.16375 -0.292477 -2.33271e-19)
(1.96649 -0.385732 8.10316e-20)
(0.628183 -0.0712148 -4.23299e-21)
(0.40669 0.0599749 -5.54964e-21)
(2.22843 -0.26323 -7.1527e-20)
(2.09329 -0.624398 3.75505e-21)
(0.325087 -0.258126 6.8505e-23)
(0.178064 0.274752 2.08293e-23)
(0.64623 0.28505 -3.35212e-20)
(2.00643 -0.345431 -1.21607e-19)
(0.92068 0.053845 9.45681e-21)
(0.699457 0.214808 -2.98316e-21)
(1.90537 -0.558327 1.35256e-19)
(2.02728 -0.375806 1.8867e-19)
(2.40549 -0.15304 1.61901e-20)
(0.951244 0.0152445 -3.90348e-20)
(1.42268 -0.237322 1.19959e-20)
(1.06032 0.0155372 8.09104e-23)
(0.497607 0.355166 -4.17543e-22)
(0.426262 -0.253305 8.07665e-23)
(1.53568 -0.323737 -2.69053e-20)
(1.00632 0.118424 -2.48685e-21)
(1.04892 0.0807039 3.89221e-22)
(1.14039 0.0647763 1.80962e-21)
(0.954921 0.109594 2.93054e-21)
(1.07252 0.0747841 -2.16181e-22)
(1.16936 0.0692019 -1.69517e-21)
(1.20957 0.0778389 -2.31547e-21)
(1.08124 0.0092499 4.44209e-22)
(0.98971 0.0993896 -3.53914e-21)
(1.09444 0.0693519 5.97124e-22)
(0.985504 0.15 -3.42137e-21)
(1.26366 0.0731882 2.61885e-20)
(0.893848 0.0986433 -1.0893e-20)
(0.735021 -0.0367157 4.07812e-21)
(1.33352 0.106177 -2.21046e-20)
(0.921539 0.104489 -1.74308e-20)
(1.48823 0.32435 -6.21609e-21)
(1.02118 0.0885508 6.23779e-22)
(1.11656 0.0653406 -1.85084e-22)
(1.57602 0.30659 4.5253e-22)
(1.18304 0.0329492 9.75198e-22)
(1.10375 -0.00126431 2.03223e-22)
(1.32988 -0.166759 1.5296e-20)
(1.68263 -0.412304 -3.84073e-20)
(0.989784 0.0172777 3.7845e-21)
(1.20059 -0.0603054 -4.41187e-21)
(1.40367 0.32037 -3.72679e-21)
(1.03983 0.0167629 4.67604e-23)
(1.01747 0.0166423 8.42002e-22)
(1.2614 0.115867 -1.19227e-20)
(1.19309 -0.00482477 5.2323e-21)
(1.41124 0.0852491 -1.27525e-20)
(1.03353 0.107576 8.01529e-22)
(1.12344 0.0895468 -6.56205e-21)
(1.4151 0.0150159 -4.42511e-21)
(1.49586 0.0445058 -4.64156e-20)
(0.716218 0.277423 -1.63723e-21)
(1.05703 0.0990798 -7.67066e-22)
(0.905337 0.243575 6.65515e-20)
(1.18535 0.217609 1.52204e-21)
(0.311481 0.339446 -4.16338e-22)
(1.33764 0.0459841 2.83917e-20)
(0.784434 0.279366 6.81574e-21)
(1.43126 0.157489 -2.2021e-20)
(0.0712781 0.174985 1.03056e-22)
(0.850584 0.264284 -2.29451e-20)
(1.13585 0.177703 -6.32924e-21)
(2.26935 -0.291969 -8.52794e-20)
(0.907305 -0.00053076 -3.59137e-20)
(0.162416 0.228086 3.11292e-23)
(0.631164 0.356024 7.53914e-23)
(0.964136 0.186485 -6.11337e-21)
(1.28178 0.00744519 -1.89272e-21)
(1.10063 0.0882301 1.72661e-21)
(1.15785 0.00767115 3.96168e-21)
(1.12965 0.0168343 2.03065e-22)
(2.08486 -0.235045 -1.96749e-19)
(0.582682 -0.101801 -8.49381e-21)
(1.7771 -0.038197 1.79247e-19)
(1.30484 -0.0609356 4.59552e-21)
(0.821545 0.165044 -4.62355e-20)
(0.940152 0.212214 8.07657e-21)
(1.76916 0.108419 -4.60763e-20)
(0.723691 0.0839004 -1.73669e-20)
(1.79123 -0.122603 1.31689e-20)
(0.402939 0.281071 6.27087e-22)
(2.18587 -0.312078 1.01947e-19)
(1.08123 0.0519074 6.31282e-23)
(1.87058 -0.126882 1.08438e-19)
(1.87508 -0.011789 -4.36202e-20)
(0.334269 0.330966 -5.03413e-22)
(1.24564 0.259346 9.47673e-21)
(1.07894 0.0921467 6.80394e-22)
(1.93448 -0.102099 -4.00493e-20)
(1.07067 0.133656 -6.38794e-22)
(2.01546 -0.219309 -2.64347e-20)
(0.85716 -0.0188397 7.33072e-21)
(1.19044 0.115264 1.2354e-20)
(1.60803 -0.229737 2.47987e-20)
(0.967597 0.0523919 -1.05843e-20)
(1.5292 0.103841 1.09598e-19)
(2.44048 -0.215774 -1.85471e-19)
(1.44381 -0.0672773 -1.72757e-20)
(1.85821 -0.359851 4.6584e-20)
(1.68215 0.0623143 -2.47933e-19)
(1.94912 -0.159703 5.04956e-20)
(0.610453 0.327232 7.07579e-21)
(0.0844772 -0.113133 -2.99388e-22)
(0.866746 0.157959 -1.37618e-21)
(1.87004 -0.240575 -6.0265e-20)
(1.04777 0.132746 -4.02123e-22)
(1.03493 0.123709 6.78058e-22)
(0.574998 0.0950427 -5.4473e-21)
(1.16108 -0.0328392 1.70857e-21)
(0.34421 -0.16053 1.07318e-22)
(1.10041 0.112202 1.88781e-21)
(1.7532 0.18017 -4.41646e-21)
(1.70785 -0.113583 -1.1865e-19)
(0.37378 0.35409 -8.68376e-23)
(2.06547 -0.229075 2.53031e-20)
(0.543446 0.257336 -1.05667e-20)
(0.65983 0.247281 3.15471e-20)
(2.09417 -0.343201 -1.73899e-19)
(1.51529 0.231668 8.26191e-21)
(1.82297 -0.0134002 -1.34748e-19)
(1.56814 -0.024163 1.2975e-20)
(0.538332 0.360731 -3.76146e-22)
(0.0945616 0.219402 -6.84561e-23)
(0.985998 0.166857 1.19741e-21)
(1.31945 0.298449 4.6018e-21)
(2.16102 -0.300299 9.70407e-21)
(0.695874 0.152991 -3.86768e-20)
(0.974816 0.132544 3.46517e-21)
(0.517938 0.156137 -2.87641e-20)
(2.25647 -0.311937 1.05257e-19)
(0.959926 0.0816206 1.36653e-20)
(0.248325 0.204346 -5.26736e-22)
(1.9419 -0.491761 -5.34459e-21)
(0.247298 0.147572 -3.30089e-22)
(1.94119 -0.444516 -2.2626e-20)
(1.26809 0.163138 1.93626e-22)
(1.15025 0.098831 9.85523e-21)
(1.35766 -0.0263601 -1.1603e-20)
(0.319911 -0.0605364 9.63786e-22)
(1.38989 -0.110851 -1.1125e-20)
(0.451576 0.328291 2.0013e-21)
(2.06724 -0.337568 -2.42884e-19)
(1.62966 0.00279537 1.50817e-19)
(1.7105 -0.24792 1.79204e-20)
(0.128756 -0.0634897 -2.89468e-25)
(0.783512 0.0923606 5.20137e-20)
(1.00832 0.0409615 -6.26832e-22)
(0.49091 0.369567 3.0807e-22)
(0.197161 0.306456 -6.79591e-22)
(0.802274 -0.0323013 -4.15861e-21)
(0.391319 -0.195741 3.95392e-23)
(0.629272 0.0368056 -1.08753e-20)
(0.510757 -0.0728065 4.56561e-21)
(0.877523 0.199524 8.70811e-20)
(0.271683 0.328497 -2.71109e-22)
(2.33563 -0.303551 -3.62665e-20)
(0.257729 0.325647 1.89034e-21)
(0.938614 0.145943 -8.82742e-21)
(1.92345 -0.0996014 1.94087e-19)
(0.768499 0.223238 3.84486e-20)
(0.528499 0.0548988 2.64158e-20)
(2.39345 -0.267367 1.85676e-19)
(0.22681 0.319298 1.97279e-21)
(2.13102 -0.343743 9.63366e-20)
(0.0751658 0.0964902 -9.65999e-22)
(0.691068 0.0179016 2.09082e-20)
(2.24539 -0.483986 -1.30903e-19)
(0.227676 0.312532 1.8216e-22)
(2.10788 -0.490408 -5.97468e-21)
(1.98077 -0.179282 1.55314e-21)
(1.12613 0.0411086 2.90067e-21)
(0.325411 0.350958 -3.92809e-23)
(0.512247 0.370862 2.26171e-22)
(0.278433 -0.235019 5.21964e-23)
(1.22388 0.138984 -2.49681e-20)
(2.48114 -0.159649 6.914e-20)
(0.954807 0.169048 2.60574e-20)
(2.14834 -0.277852 6.34542e-20)
(0.153718 -0.196209 -3.61309e-22)
(1.02657 0.139362 2.7244e-22)
(0.204941 -0.237537 -3.32563e-22)
(0.99991 0.0705369 3.62634e-21)
(1.9769 -0.449389 -3.48293e-20)
(1.49001 -0.16984 -1.97256e-20)
(2.08406 -0.328062 -1.684e-19)
(1.58343 0.151597 4.07658e-20)
(0.165208 -0.221543 1.26666e-21)
(2.03444 -0.356235 2.22715e-19)
(0.416117 0.355331 -1.43231e-23)
(0.33923 0.223004 1.66202e-21)
(1.99194 -0.389104 9.56674e-21)
(1.92279 -0.101145 1.65324e-21)
(0.280463 0.337193 -5.53593e-23)
(1.7999 -0.425546 -7.82434e-20)
(1.03732 0.0372301 9.06096e-23)
(0.606065 0.000505958 -1.69256e-20)
(1.1032 0.046456 3.68052e-22)
(2.0706 -0.261299 1.02095e-19)
(0.474543 0.365995 2.79988e-22)
(1.33542 0.169659 3.7166e-21)
(1.96502 -0.416172 2.05266e-23)
(2.20277 -0.221545 -3.57001e-20)
(2.11393 -0.292619 -2.38443e-20)
(1.97355 -0.325462 -7.91905e-20)
(0.164331 0.292716 8.28734e-22)
(1.4959 -0.0194828 -2.18931e-20)
(0.126777 0.176366 9.03755e-22)
(1.3342 0.235327 2.15612e-21)
(2.1771 -0.318356 5.01606e-20)
(2.26815 -0.179851 1.43457e-20)
(1.97016 -0.362376 3.70614e-20)
(0.629846 0.134169 4.91656e-20)
(1.93628 -0.440583 -4.15403e-21)
(0.904645 0.153813 8.63056e-21)
(1.03125 0.0618619 2.48724e-22)
(0.551995 0.365557 1.91632e-22)
(1.60471 0.207881 5.61446e-21)
(0.300205 0.322859 3.78681e-22)
(0.474356 -0.243707 3.70321e-22)
(0.458882 -0.182381 -2.52045e-22)
(0.916749 0.192376 -6.9394e-20)
(1.09821 0.148895 6.13636e-21)
(0.391101 -0.102116 -5.73766e-22)
(2.15555 -0.254077 6.93982e-20)
(0.359348 0.316943 3.43491e-22)
(0.276046 -0.234988 -1.27713e-21)
(0.766689 0.161226 2.11306e-21)
(1.0614 0.0353008 1.27255e-22)
(1.26089 0.211162 -1.23945e-22)
(2.01245 -0.237401 4.78903e-20)
(0.461907 0.115149 -3.66217e-20)
(1.97383 -0.456799 -2.11214e-20)
(1.9125 -0.458751 -1.11854e-21)
(0.123617 -0.165556 -6.29524e-22)
(1.20518 0.18247 -4.33232e-21)
(0.840097 0.0989408 -3.17214e-20)
(0.664159 0.0719432 -1.83624e-20)
(2.04795 -0.355733 -6.89339e-21)
(2.00344 -0.307029 -7.26162e-22)
(0.518417 -0.232778 -1.68168e-22)
(1.12964 -0.0146142 1.03791e-21)
(0.237847 0.260051 5.02391e-22)
(1.0064 0.151241 -9.05099e-23)
(1.67881 0.174772 -1.7275e-20)
(2.52231 -0.257178 -3.55407e-20)
(0.236012 -0.238722 -2.45033e-22)
(0.398648 0.365716 7.09663e-23)
(1.91167 -0.113608 -2.25191e-19)
(0.480367 0.0128022 -2.16538e-22)
(1.53971 -0.107718 2.22485e-20)
(1.66163 0.259073 -4.35982e-21)
(0.225934 -0.100423 -8.04937e-22)
(1.05805 0.0566059 -1.17928e-22)
(0.574101 0.363282 -8.57189e-24)
(2.34039 -0.146962 -8.26031e-21)
(1.95663 -0.444777 -1.75809e-20)
(0.134937 0.278878 2.99438e-22)
(1.90464 -0.475355 -1.07378e-22)
(0.554228 -0.0292398 5.183e-22)
(0.134623 0.0878573 1.47984e-21)
(2.52541 -0.36904 -3.77612e-21)
(0.530381 -0.135934 7.7506e-22)
(0.554767 -0.218974 -2.17706e-22)
(1.95506 -0.428457 3.95412e-21)
(1.95417 -0.237621 5.92062e-20)
(0.288827 0.0385032 2.72911e-21)
(0.233589 -0.244353 -4.47559e-22)
(0.164938 -0.213684 -2.88067e-22)
(0.588033 -0.181667 -1.67329e-22)
(0.119434 -0.141111 -8.08025e-24)
(0.11 0.258658 -9.77711e-22)
(0.247256 0.307011 -2.73978e-22)
(0.440786 0.356213 1.54835e-22)
(0.0746836 -0.0945061 6.9367e-22)
(0.0966397 -0.133405 -1.07936e-21)
(0.325633 0.29427 4.23768e-22)
(0.361533 0.00191207 -8.21362e-22)
(0.0304602 0.0460776 1.45164e-22)
(0.603735 0.361185 2.86456e-22)
(2.42067 -0.116623 -4.82127e-20)
(0.577903 -0.201861 -5.39849e-22)
(1.9585 -0.384064 2.70923e-21)
(0.0527087 -0.0601759 -1.91117e-22)
(1.91027 -0.489893 -3.78229e-22)
(2.38107 -0.116921 2.14681e-20)
(2.4921 -0.0320113 -2.00103e-20)
(1.90054 -0.550139 -1.10882e-21)
(2.05199 -0.306777 -7.64053e-20)
(0.326381 -0.247834 -1.87607e-22)
(0.485271 -0.217861 1.05841e-21)
(0.195113 -0.22781 3.78153e-23)
(0.25519 0.330816 -3.28109e-22)
(0.160164 -0.165969 7.50691e-25)
(0.516831 0.369839 -1.62364e-22)
(0.170633 -0.100813 4.18973e-22)
(0.090765 0.235632 -3.87346e-22)
(0.33452 0.112898 8.95555e-21)
(1.78825 -0.240496 -5.39307e-21)
(0.114289 0.251221 7.53175e-23)
(2.48599 -0.0985009 5.69197e-20)
(0.287934 0.335192 -2.6128e-22)
(0.0776818 0.207023 7.77605e-22)
(1.88672 -0.565693 -9.9309e-21)
(2.48328 -0.00321173 -6.76722e-20)
(0.575754 0.366123 -1.26493e-21)
(0.0368786 -0.018279 -5.62888e-22)
(0.171514 -0.0118372 -8.00482e-22)
(0.0547799 0.0146169 1.1703e-22)
(0.431136 -0.229791 -1.94358e-22)
(0.182905 0.305944 -9.90448e-23)
(0.0271794 0.0179933 7.2904e-22)
(0.343828 0.342784 2.15157e-22)
(2.34641 -0.174359 -1.27319e-20)
(0.432175 -0.0378706 1.70706e-21)
(2.20553 -0.241483 7.42127e-21)
(2.42733 -0.0827178 7.90724e-20)
(1.9174 -0.505525 -3.70985e-22)
(1.91769 -0.528929 2.0576e-20)
(2.46977 -0.0602633 -3.66013e-20)
(1.91658 -0.468414 -6.9056e-21)
(2.46454 -0.308503 -3.91564e-20)
(0.83258 0.223858 -2.54329e-21)
(0.535392 0.318677 4.72035e-21)
(0.330576 -0.223351 -3.47614e-22)
(0.272952 -0.251859 1.22906e-22)
(1.92475 -0.450309 1.09638e-20)
(0.376021 -0.243966 6.17986e-22)
(1.91787 -0.572082 -4.21747e-20)
(0.0286502 0.0474988 -5.78603e-23)
(0.282788 -0.126064 6.26575e-23)
(0.060216 0.163978 -1.11826e-22)
(0.462792 -0.122783 3.01613e-22)
(0.423342 0.370192 -4.25193e-22)
(2.09887 -0.333302 2.4246e-19)
(0.112758 0.0151069 3.68109e-22)
(2.27411 -0.207182 3.11443e-21)
(1.94837 -0.35949 -2.57721e-20)
(0.535731 0.354845 9.24904e-23)
(0.149861 0.287137 1.13659e-23)
(0.0490338 0.089652 2.37543e-22)
(2.54978 -0.0588036 9.56694e-20)
(0.0578518 0.128849 -4.89644e-22)
(0.129237 0.26846 6.16758e-23)
(0.343714 0.347743 6.28786e-22)
(0.197133 -0.187863 -2.54998e-23)
(0.392241 0.174102 -3.32861e-21)
(0.206055 -0.13981 4.69829e-24)
(1.93612 -0.442369 5.55823e-20)
(0.265912 -0.251564 -4.00515e-23)
(0.183473 0.287288 -1.1562e-22)
(0.24452 -0.160594 8.68765e-23)
(0.601337 -0.136384 4.5033e-21)
(1.93899 -0.602781 -2.48773e-20)
(0.61154 0.353289 -3.07974e-21)
(0.63211 0.354867 3.39271e-21)
(2.4453 0.00702443 -1.37222e-19)
(0.532428 -0.206273 2.27935e-22)
(0.522813 -0.456798 9.29195e-22)
(0.582958 -0.46071 -9.70442e-23)
(0.654945 -0.452597 -1.05866e-21)
(0.705909 -0.439859 6.40095e-22)
(0.747377 -0.424357 -6.19264e-22)
(0.777011 -0.408857 -8.17963e-22)
(0.801421 -0.393256 1.19954e-22)
(0.81917 -0.37755 6.14773e-23)
(0.833857 -0.3579 4.54511e-23)
(0.574263 -0.44082 -1.48935e-21)
(0.63129 -0.449418 -2.12533e-22)
(0.698744 -0.44628 7.72145e-22)
(0.744461 -0.438411 -1.36277e-21)
(0.77966 -0.425097 7.01222e-22)
(0.804774 -0.411052 8.35452e-22)
(0.824218 -0.396881 -4.03862e-22)
(0.837885 -0.383003 4.50456e-22)
(0.847158 -0.366819 -1.52742e-22)
(0.621169 -0.42506 2.37357e-21)
(0.675818 -0.433172 6.45837e-22)
(0.740774 -0.431936 -1.38686e-21)
(0.782695 -0.426933 4.85858e-22)
(0.813193 -0.415949 -1.23247e-21)
(0.834202 -0.403801 -1.16875e-22)
(0.849533 -0.391364 -3.14427e-23)
(0.859826 -0.379259 -2.12033e-22)
(0.866038 -0.366091 -1.91405e-22)
(0.665245 -0.405934 -1.3909e-21)
(0.718512 -0.411743 3.85773e-22)
(0.780883 -0.411049 8.69362e-22)
(0.819556 -0.407708 -4.32347e-23)
(0.846181 -0.398852 3.93302e-22)
(0.863613 -0.388619 9.92987e-22)
(0.875463 -0.377872 -4.99192e-22)
(0.882889 -0.367339 9.04766e-23)
(0.886924 -0.356308 5.72954e-24)
(0.708732 -0.38075 -6.79163e-23)
(0.759796 -0.384472 -1.56957e-22)
(0.818681 -0.384038 4.781e-23)
(0.854069 -0.382049 -3.24347e-22)
(0.877312 -0.375286 1.07471e-22)
(0.89172 -0.367014 -1.92992e-22)
(0.900749 -0.358008 5.65711e-23)
(0.905874 -0.349047 2.16242e-22)
(0.908274 -0.339751 5.14535e-23)
(0.751902 -0.349752 1.06275e-22)
(0.79844 -0.351651 -3.7261e-22)
(0.852983 -0.351697 7.1594e-23)
(0.885082 -0.351249 5.08399e-22)
(0.905417 -0.346719 -1.24623e-22)
(0.917361 -0.340506 -1.44224e-22)
(0.924146 -0.333332 -6.12394e-23)
(0.927385 -0.325992 -3.11623e-22)
(0.92819 -0.318579 1.89304e-22)
(0.793394 -0.31498 2.74025e-22)
(0.832879 -0.314694 3.20721e-22)
(0.882453 -0.315602 6.25749e-23)
(0.911501 -0.316918 -2.11245e-22)
(0.929508 -0.314773 3.53481e-23)
(0.939591 -0.310704 -2.22083e-23)
(0.944687 -0.305412 7.42975e-23)
(0.946417 -0.299675 -1.00427e-22)
(0.94586 -0.29392 -6.62752e-23)
(0.831357 -0.277417 -2.38376e-22)
(0.861943 -0.275254 -1.04901e-23)
(0.906145 -0.277608 1.47643e-23)
(0.932552 -0.280821 -5.02909e-24)
(0.948885 -0.28115 -4.01097e-23)
(0.957745 -0.279253 1.33575e-22)
(0.961713 -0.275852 1.45664e-22)
(0.962332 -0.2717 -1.78366e-22)
(0.960643 -0.267193 5.13036e-23)
(0.864211 -0.237279 -2.44902e-23)
(0.884645 -0.234687 -7.08954e-23)
(0.92349 -0.239421 -3.18416e-24)
(0.947849 -0.244585 3.09428e-24)
(0.963212 -0.247391 -9.08585e-24)
(0.971504 -0.24762 -6.2366e-24)
(0.974926 -0.24606 -5.28497e-24)
(0.974916 -0.243327 1.50458e-22)
(0.972252 -0.240179 -1.81377e-23)
(0.889352 -0.197552 -2.12301e-24)
(0.900137 -0.194627 1.44725e-22)
(0.934328 -0.202657 5.63613e-23)
(0.957427 -0.209506 3.44846e-23)
(0.972539 -0.214645 -9.8727e-24)
(0.98091 -0.216867 9.04885e-24)
(0.984387 -0.217052 5.97762e-24)
(0.984261 -0.215694 4.93646e-23)
(0.981236 -0.213536 -1.46111e-23)
(0.902812 -0.160705 9.20481e-23)
(0.908742 -0.15631 -2.23367e-23)
(0.939291 -0.168147 -5.12488e-23)
(0.961812 -0.176152 -3.07135e-23)
(0.977261 -0.183349 4.99763e-25)
(0.986283 -0.187383 1.96616e-23)
(0.990327 -0.189136 3.56901e-24)
(0.990603 -0.189183 -3.20753e-23)
(0.987719 -0.188081 -3.56532e-23)
(0.902429 -0.122943 -2.06788e-22)
(0.911381 -0.118198 -6.41214e-23)
(0.939262 -0.134967 8.93749e-23)
(0.96166 -0.143918 -2.63553e-23)
(0.977846 -0.152963 4.15848e-24)
(0.987996 -0.158653 -4.35918e-23)
(0.993075 -0.162068 6.41334e-24)
(0.994136 -0.163324 1.80385e-23)
(0.991811 -0.163698 -1.18421e-23)
(0.890133 -0.0798296 -7.99277e-23)
(0.907738 -0.0780899 1.35798e-23)
(0.934206 -0.101242 5.0106e-24)
(0.957248 -0.111328 -1.48692e-23)
(0.974602 -0.121971 1.12506e-23)
(0.986202 -0.128953 1.3715e-23)
(0.992755 -0.133965 2.1612e-23)
(0.99507 -0.136525 -2.98837e-23)
(0.99398 -0.137889 1.2932e-23)
(0.867336 -0.0328681 1.16069e-22)
(0.894884 -0.0370284 -1.33045e-23)
(0.923572 -0.0655425 2.09504e-24)
(0.948577 -0.0766987 -1.22963e-23)
(0.967667 -0.08834 2.75187e-24)
(0.980978 -0.0961325 2.59443e-24)
(0.989257 -0.10206 1.80047e-23)
(0.993153 -0.105833 -4.11396e-24)
(0.99312 -0.107827 -1.46889e-23)
(0.833256 0.0146485 -3.29964e-22)
(0.87348 0.00505515 9.07502e-23)
(0.907437 -0.0261987 -2.76343e-23)
(0.935579 -0.0381545 3.09343e-23)
(0.95692 -0.050085 -7.56643e-24)
(0.972199 -0.0581943 -2.71336e-23)
(0.982346 -0.0645606 -2.11636e-23)
(0.988079 -0.0690527 -3.25512e-23)
(0.98999 -0.0717279 1.08957e-22)
(0.792465 0.0616101 -3.21171e-22)
(0.844505 0.0485785 -1.75436e-22)
(0.885701 0.0176507 4.24513e-23)
(0.917809 0.00534135 -2.6871e-23)
(0.941828 -0.00637191 -2.56045e-23)
(0.959249 -0.014515 1.76247e-23)
(0.97126 -0.0210796 2.82729e-24)
(0.97877 -0.0259964 -9.48765e-23)
(0.9823 -0.0295291 5.38213e-23)
(0.744817 0.108633 -6.48045e-22)
(0.808838 0.0940558 3.79621e-23)
(0.858121 0.0657665 2.66379e-23)
(0.89455 0.0533992 1.78304e-23)
(0.92156 0.0420004 4.27885e-23)
(0.941324 0.0337716 -2.24069e-22)
(0.955347 0.0270032 1.7116e-22)
(0.964693 0.0218049 6.91084e-23)
(0.970219 0.0175217 -2.63271e-23)
(0.69629 0.154738 1.0079e-21)
(0.766077 0.141366 -4.41445e-24)
(0.823829 0.116549 5.04711e-23)
(0.864906 0.104288 -5.89644e-23)
(0.895264 0.093046 -1.08488e-23)
(0.91769 0.0845578 2.0917e-22)
(0.934014 0.0774521 -2.34855e-23)
(0.945486 0.0718236 1.16159e-22)
(0.953307 0.0672307 1.43713e-22)
(0.650338 0.196295 2.42778e-22)
(0.719953 0.186079 -2.16258e-23)
(0.783285 0.166346 6.89727e-23)
(0.828778 0.154863 2.17098e-22)
(0.862662 0.144009 -4.99547e-23)
(0.888026 0.135323 -1.21227e-22)
(0.906922 0.127843 -1.38751e-22)
(0.920753 0.121607 -1.77973e-22)
(0.930852 0.116361 6.43053e-23)
(0.605496 0.232762 -1.75882e-22)
(0.672243 0.225788 3.40932e-23)
(0.738264 0.21206 -3.14622e-22)
(0.787167 0.202232 3.65382e-23)
(0.824314 0.192296 -1.43395e-22)
(0.852641 0.183773 9.99538e-23)
(0.87422 0.176158 6.75185e-22)
(0.890451 0.169527 1.09264e-22)
(0.902557 0.163662 4.54618e-23)
(0.561994 0.265509 -3.18299e-22)
(0.623909 0.260341 7.1517e-22)
(0.690394 0.252062 -3.96764e-22)
(0.74143 0.244379 3.37857e-22)
(0.78129 0.235859 -2.62892e-22)
(0.812361 0.227982 5.17473e-23)
(0.836584 0.220584 -2.58099e-22)
(0.855345 0.213742 -2.37963e-22)
(0.869885 0.20759 5.74415e-23)
(0.5202 0.293805 -7.99014e-22)
(0.575219 0.288976 -5.00139e-22)
(0.64105 0.284852 1.16851e-21)
(0.693051 0.279784 -1.33593e-22)
(0.734938 0.273229 7.97625e-22)
(0.768273 0.266612 -2.5561e-22)
(0.794807 0.25993 -8.0607e-23)
(0.815886 0.253174 1.12903e-22)
(0.832066 0.247341 -3.43725e-23)
(0.481814 0.313917 7.04556e-22)
(0.52753 0.310173 3.78776e-22)
(0.59225 0.309108 -7.55622e-22)
(0.643958 0.307606 -6.43882e-22)
(0.686957 0.303693 -6.15107e-22)
(0.721798 0.298996 9.42384e-23)
(0.750048 0.293532 1.24415e-22)
(0.772994 0.287333 -4.44159e-22)
(0.790688 0.28186 1.28666e-21)
(0.446428 0.32118 1.62395e-22)
(0.482758 0.323055 -2.74718e-23)
(0.545632 0.324744 2.7902e-22)
(0.595473 0.327788 -3.35004e-22)
(0.638408 0.327145 5.60547e-22)
(0.673885 0.325004 1.62577e-22)
(0.703264 0.321254 -7.6525e-22)
(0.727901 0.31608 8.76563e-22)
(0.746707 0.312692 -6.92934e-22)
(0.408489 0.319223 -3.45384e-22)
(0.44212 0.333612 6.83734e-23)
(0.503266 0.338327 5.59937e-23)
(0.550646 0.34452 2.40895e-22)
(0.592231 0.346324 -1.26324e-22)
(0.626916 0.345887 3.36212e-22)
(0.656272 0.342668 -2.33975e-22)
(0.682411 0.336486 5.04775e-22)
(0.704729 0.334815 -5.62003e-23)
(0.570285 0.540072 -4.86223e-22)
(0.561783 0.539567 -4.88743e-22)
(0.551405 0.539334 -1.01961e-21)
(0.539096 0.539706 1.41848e-21)
(0.52439 0.540766 -9.55794e-22)
(0.507186 0.542803 6.46013e-22)
(0.487614 0.545931 1.43295e-22)
(0.466259 0.549918 -1.0305e-22)
(0.444253 0.554013 -3.38448e-22)
(0.423112 0.557004 -1.92516e-22)
(0.404049 0.557665 1.79997e-22)
(0.387399 0.55515 -2.2422e-22)
(0.373116 0.54852 4.79918e-22)
(0.360643 0.537043 -1.19189e-21)
(0.348679 0.520926 2.26561e-21)
(0.335992 0.500444 -2.82987e-21)
(0.321767 0.475653 2.89909e-21)
(0.305465 0.446806 -1.18816e-21)
(0.286925 0.41415 -5.62902e-22)
(0.266345 0.377948 5.68108e-22)
(0.244102 0.338456 -2.28928e-22)
(0.220692 0.296092 4.98483e-22)
(0.196617 0.251517 1.09466e-22)
(0.171803 0.205629 -8.65492e-22)
(0.145541 0.160307 6.21409e-22)
(0.117466 0.117482 -4.55485e-22)
(0.0917426 0.0779502 4.88765e-22)
(0.0733289 0.0404874 4.26199e-22)
(0.0630481 0.00373318 -4.68318e-22)
(0.0606942 -0.0322259 1.29619e-23)
(0.0668264 -0.0677645 -4.57616e-22)
(0.0768692 -0.103698 3.77584e-22)
(0.0873981 -0.13992 8.04737e-22)
(0.0997457 -0.175094 -6.02738e-22)
(0.114209 -0.209249 9.54265e-22)
(0.130988 -0.242118 -1.45827e-21)
(0.150455 -0.273151 8.77788e-23)
(0.172156 -0.302358 2.94697e-22)
(0.195133 -0.329678 -4.14189e-22)
(0.218414 -0.355038 8.59492e-22)
(0.241174 -0.378302 -4.5782e-22)
(0.26279 -0.399445 -1.70764e-21)
(0.282943 -0.41851 3.36001e-21)
(0.301662 -0.435215 -3.43167e-21)
(0.318864 -0.449521 2.91849e-21)
(0.334145 -0.462043 -1.73686e-21)
(0.347454 -0.472747 8.71071e-22)
(0.359267 -0.481259 -3.1813e-22)
(0.37014 -0.487624 2.98465e-22)
(0.380558 -0.491886 -3.27456e-22)
(0.390949 -0.494111 -5.14994e-22)
(0.401815 -0.494339 -2.07794e-22)
(0.413653 -0.492692 2.17542e-22)
(0.426443 -0.489573 7.1487e-22)
(0.439803 -0.48553 -1.08484e-21)
(0.453308 -0.481047 1.4603e-21)
(0.466578 -0.476485 -9.47e-22)
(0.479356 -0.472175 -4.2432e-22)
(0.491355 -0.468187 -3.83527e-22)
(0.592652 0.506326 -7.55076e-23)
(0.585407 0.504429 -7.36089e-23)
(0.576902 0.502445 -3.6346e-23)
(0.566921 0.500597 -3.35913e-22)
(0.554877 0.498693 -3.53097e-22)
(0.540385 0.49661 1.77911e-21)
(0.523217 0.493999 -3.54592e-22)
(0.503492 0.490235 4.64657e-22)
(0.481692 0.484521 -2.40534e-21)
(0.458501 0.476115 9.21157e-23)
(0.434798 0.46464 9.00528e-22)
(0.411824 0.449308 1.0624e-21)
(0.390461 0.429842 -2.76394e-21)
(0.370434 0.407578 2.90544e-21)
(0.351103 0.383536 -2.8712e-21)
(0.332309 0.358157 8.84804e-22)
(0.314031 0.331903 1.63112e-21)
(0.29621 0.305104 -9.06724e-22)
(0.27884 0.277929 -3.27089e-22)
(0.262099 0.250359 2.72172e-23)
(0.246122 0.222368 -3.38345e-23)
(0.230684 0.194046 7.17974e-22)
(0.215061 0.165415 -3.70727e-22)
(0.198083 0.136913 -3.04582e-23)
(0.179431 0.108332 1.95908e-23)
(0.160784 0.0777139 5.72369e-24)
(0.145212 0.0438793 -4.43943e-25)
(0.134698 0.00690646 3.84831e-23)
(0.129266 -0.0317987 2.94842e-23)
(0.128451 -0.0710476 -3.16625e-24)
(0.132009 -0.109447 -5.93566e-23)
(0.139446 -0.145935 1.14891e-23)
(0.149259 -0.180454 -1.99113e-23)
(0.161112 -0.21298 -1.87792e-23)
(0.174989 -0.243084 -9.49052e-23)
(0.19036 -0.270485 6.12934e-23)
(0.206657 -0.294864 5.69512e-23)
(0.223312 -0.316063 -1.34879e-22)
(0.239811 -0.334198 6.29074e-24)
(0.255869 -0.349641 -3.01051e-23)
(0.271478 -0.362951 -1.86976e-23)
(0.286725 -0.374572 -1.41792e-24)
(0.301657 -0.384989 -8.03221e-23)
(0.316564 -0.394843 4.26446e-24)
(0.331917 -0.404058 -9.28481e-23)
(0.347655 -0.412597 1.67507e-22)
(0.363241 -0.42124 -2.33068e-22)
(0.378586 -0.429986 1.1783e-22)
(0.394118 -0.438146 1.83429e-23)
(0.410081 -0.445483 3.02952e-24)
(0.426492 -0.451848 5.04383e-23)
(0.443399 -0.456922 3.48914e-23)
(0.46071 -0.460567 1.79363e-22)
(0.478069 -0.462878 -6.23578e-22)
(0.495009 -0.464099 -1.16426e-23)
(0.511099 -0.464514 2.5448e-22)
(0.526005 -0.464381 -2.45671e-22)
(0.539588 -0.463964 2.85357e-23)
(0.551814 -0.463419 -6.31242e-23)
(0.639988 0.485899 -2.41283e-22)
(0.634068 0.481983 1.15578e-22)
(0.627522 0.477436 -1.11695e-23)
(0.620324 0.472492 1.5126e-22)
(0.612074 0.46696 -1.20987e-22)
(0.602476 0.460774 7.62792e-23)
(0.591241 0.453785 4.26932e-22)
(0.578219 0.445713 9.62761e-23)
(0.563521 0.436131 -3.00189e-22)
(0.547524 0.424527 1.05153e-22)
(0.530795 0.41042 -7.60781e-22)
(0.513842 0.393541 6.3253e-22)
(0.496813 0.37434 -3.69379e-22)
(0.479602 0.353394 4.1923e-23)
(0.46212 0.33102 -1.44736e-22)
(0.444287 0.307566 7.27166e-23)
(0.426011 0.28337 6.20749e-22)
(0.407287 0.258714 -9.86282e-23)
(0.38822 0.233788 -3.19704e-23)
(0.368987 0.208743 8.52449e-23)
(0.349803 0.18372 -1.95896e-22)
(0.330746 0.158836 4.13363e-23)
(0.311649 0.134043 -7.48436e-22)
(0.292499 0.108951 7.99521e-22)
(0.274114 0.0824714 -3.03119e-22)
(0.257683 0.0536628 1.02069e-23)
(0.244295 0.0224768 4.76515e-23)
(0.234776 -0.0105881 -2.29957e-22)
(0.229352 -0.0447088 1.27502e-22)
(0.227876 -0.079131 7.52381e-23)
(0.229936 -0.113106 1.83753e-22)
(0.234721 -0.145921 -1.68472e-22)
(0.241364 -0.177169 7.86549e-23)
(0.249346 -0.20663 1.11727e-22)
(0.258302 -0.23401 -3.43314e-22)
(0.267958 -0.25906 9.4165e-22)
(0.278196 -0.281628 -5.55583e-22)
(0.289051 -0.301685 -1.16037e-22)
(0.300677 -0.319319 -1.35471e-22)
(0.313285 -0.334729 -3.60119e-23)
(0.327071 -0.348176 -1.7177e-22)
(0.342185 -0.359943 -2.7142e-22)
(0.358599 -0.370263 7.49877e-22)
(0.376045 -0.379472 2.60707e-22)
(0.394207 -0.387925 -6.3131e-22)
(0.412756 -0.39567 -1.04152e-22)
(0.43126 -0.402946 5.70765e-22)
(0.449401 -0.410106 -5.82046e-22)
(0.467218 -0.417078 4.47629e-22)
(0.485003 -0.423518 -2.97679e-23)
(0.503026 -0.429118 2.10022e-22)
(0.521376 -0.433669 1.08094e-22)
(0.539867 -0.43713 -3.89181e-22)
(0.55804 -0.439675 -3.22853e-22)
(0.575322 -0.441623 9.52127e-22)
(0.591209 -0.443292 1.27219e-22)
(0.605395 -0.444908 -2.17567e-22)
(0.617846 -0.446666 1.66983e-22)
(0.628601 -0.448559 -3.65941e-22)
(0.663556 0.446762 8.13487e-23)
(0.657825 0.441721 -1.42471e-22)
(0.651687 0.436012 1.28517e-22)
(0.645156 0.429692 -2.15696e-22)
(0.63803 0.422573 3.00921e-22)
(0.630152 0.414569 8.99268e-23)
(0.621314 0.40559 3.52453e-22)
(0.611323 0.395526 1.09077e-21)
(0.600089 0.38423 -6.75214e-22)
(0.587663 0.371548 -8.59663e-22)
(0.574209 0.35737 -7.33328e-22)
(0.559912 0.341718 2.20183e-21)
(0.54489 0.324735 -1.85142e-21)
(0.529152 0.306614 2.47698e-22)
(0.512618 0.287569 -2.29702e-22)
(0.495182 0.267827 6.64798e-22)
(0.476778 0.247572 -5.10987e-22)
(0.45745 0.226918 1.3859e-22)
(0.437389 0.205901 5.61983e-23)
(0.416933 0.184488 -6.45442e-23)
(0.396511 0.162596 3.75097e-23)
(0.376573 0.140099 -1.29965e-22)
(0.357515 0.11678 3.85355e-23)
(0.339759 0.0922846 1.32353e-22)
(0.323834 0.0662509 -8.85545e-23)
(0.310298 0.0385279 9.0509e-24)
(0.299642 0.00922613 1.20501e-22)
(0.292174 -0.0213022 -1.30223e-22)
(0.287887 -0.0525395 4.31722e-23)
(0.286536 -0.0839214 -1.2921e-23)
(0.287713 -0.11488 6.42694e-23)
(0.290874 -0.144907 -1.49626e-22)
(0.295429 -0.173635 1.03194e-22)
(0.30093 -0.200818 -1.99123e-24)
(0.3071 -0.226274 -1.37663e-22)
(0.313871 -0.249904 3.2621e-23)
(0.321404 -0.271674 1.65843e-22)
(0.330037 -0.291589 -4.82847e-23)
(0.340171 -0.309671 -7.01892e-23)
(0.352147 -0.325952 1.11377e-22)
(0.366148 -0.340479 -1.42251e-23)
(0.382163 -0.353315 -1.56505e-23)
(0.399987 -0.364548 1.05433e-22)
(0.419247 -0.374329 -4.84759e-23)
(0.43949 -0.382873 7.34008e-24)
(0.460267 -0.390393 7.48405e-23)
(0.481201 -0.39709 -4.32887e-22)
(0.502063 -0.403139 5.09761e-22)
(0.52279 -0.4086 -2.20229e-22)
(0.543417 -0.413385 -2.67373e-22)
(0.563948 -0.41732 -2.04885e-22)
(0.584231 -0.420295 3.69398e-22)
(0.603873 -0.422388 9.53436e-23)
(0.622296 -0.423889 4.01694e-23)
(0.638947 -0.425189 -3.1089e-23)
(0.653481 -0.42662 2.2536e-23)
(0.66583 -0.428367 -1.65552e-22)
(0.67619 -0.430527 3.59014e-22)
(0.684796 -0.433057 -5.37011e-23)
(0.69573 0.408556 -3.62087e-24)
(0.690905 0.402661 3.79215e-23)
(0.685958 0.395993 -2.06701e-22)
(0.680981 0.388592 1.89851e-22)
(0.675873 0.380322 -8.86586e-23)
(0.670525 0.37118 -3.23154e-22)
(0.664722 0.361233 4.46013e-22)
(0.65819 0.350582 -1.87809e-22)
(0.650687 0.339307 -6.08522e-22)