/*--------------------------------*- C++ -*----------------------------------*\
  =========                 |
  \\      /  F ield         | OpenFOAM: The Open Source CFD Toolbox
   \\    /   O peration     | Website:  https://openfoam.org
    \\  /    A nd           | Version:  10
     \\/     M anipulation  |
\*---------------------------------------------------------------------------*/
FoamFile
{
    format      ascii;
    class       volScalarField;
    location    "500";
    object      epsilon;
}
// * * * * * * * * * * * * * * * * * * * * * * * * * * * * * * * * * * * * * //

dimensions      [0 2 -3 0 0 0 0];

internalField   nonuniform List<scalar> 
10435
(
0.00208046
0.00199965
0.00107295
0.00299137
0.00401483
0.00377464
0.00100927
0.00135034
0.00160683
0.00226236
0.00228028
0.00476939
0.000798306
0.0063635
0.00604825
0.00177752
0.00643098
0.0010433
0.00171053
0.00200835
0.00144902
0.00297607
0.00184945
0.0039694
0.00226675
0.00147208
0.00373259
0.00084593
0.0032689
0.0016827
0.00340214
0.0025274
0.00137175
0.00313139
0.00251693
0.00245447
0.00282565
0.00389782
0.000647576
0.00244471
0.0022196
0.00116719
0.00529036
0.00236371
0.00299281
0.00329805
0.00308746
0.00465295
0.00130111
0.00285686
0.00155566
0.00409577
0.000655676
0.00232462
0.00080077
0.00291664
0.00348189
0.00430581
0.00525464
0.00304589
0.000840157
0.00201506
0.00427406
0.0045035
0.00239974
0.00124287
0.00457274
0.00526019
0.00127303
0.00439601
0.00225561
0.00264801
0.00334225
0.00153439
0.00540878
0.00504259
0.00458764
0.00101599
0.00128087
0.00465605
0.00373157
0.00197905
0.000675103
0.00239667
0.00417162
0.00311126
0.0026653
0.00235913
0.00443871
0.00235605
0.00259928
0.00294256
0.00178327
0.00382181
0.00222203
0.00290691
0.00333626
0.00567524
0.00560131
0.00373663
0.00507596
0.00406015
0.00317085
0.00223116
0.00422531
0.00263785
0.00175809
0.00328102
0.00450886
0.00384409
0.0024577
0.00377791
0.00238683
0.00303476
0.00331289
0.00259334
0.00413174
0.00262803
0.00226743
0.00415219
0.00441513
0.00379043
0.0023175
0.00355109
0.00257431
0.00116703
0.00377996
0.00388134
0.00415464
0.00339155
0.00387238
0.0022788
0.00172081
0.00527951
0.0032079
0.000861746
0.0025339
0.00340321
0.00216235
0.00228554
0.00208426
0.00305848
0.00406756
0.00468869
0.00340684
0.00578391
0.00301041
0.00426759
0.00659461
0.00479356
0.00374783
0.00361907
0.00227757
0.00460637
0.00364152
0.00263736
0.0029412
0.00217066
0.00296657
0.00184808
0.00420958
0.00559895
0.00276262
0.00462384
0.00450204
0.00449874
0.00160102
0.00422582
0.00481651
0.00469676
0.00285895
0.00251632
0.00340906
0.00548615
0.00480373
0.00175348
0.00216095
0.00613796
0.00211995
0.00370334
0.00209447
0.00415321
0.00487069
0.0010707
0.0036674
0.00419958
0.00433499
0.00111479
0.00425951
0.0044563
0.00462733
0.000719609
0.00306672
0.00214949
0.00337146
0.00119257
0.006123
0.00373592
0.00556283
0.00226807
0.00453779
0.00392531
0.000841856
0.0042993
0.000986578
0.00328146
0.00247606
0.00383362
0.00438468
0.00385091
0.00306065
0.00146485
0.00475943
0.00483709
0.00374641
0.00652302
0.00355416
0.00138689
0.00148381
0.00568635
0.00330575
0.00626798
0.00465875
0.00483076
0.00208535
0.0020683
0.000989353
0.00439596
0.00384504
0.00497774
0.00589447
0.00180656
0.00121336
0.00417266
0.00383975
0.00628492
0.00409067
0.00193665
0.0044783
0.00298642
0.00220382
0.00163174
0.00176556
0.00275512
0.00300829
0.00142058
0.00350124
0.00111113
0.00260035
0.00176395
0.00236563
0.00377879
0.00102919
0.00427905
0.00104967
0.0045148
0.00223508
0.00100467
0.00234725
0.00408706
0.000967067
0.00338378
0.0015047
0.00475156
0.00282508
0.00586347
0.00216719
0.00249318
0.000984759
0.00369247
0.000937671
0.00111979
0.00106698
0.00173509
0.00179279
0.00442399
0.00358511
0.00357405
0.00141808
0.00114908
0.00145248
0.00614755
0.000893163
0.00500018
0.00307895
0.00109744
0.00436664
0.000804362
0.00245171
0.00337407
0.00417161
0.00203044
0.00427967
0.00109014
0.000653255
0.00221672
0.00600598
0.00234093
0.00314537
0.00244096
0.00551617
0.00467942
0.000843559
0.00296856
0.00280918
0.00623788
0.0064618
0.00453429
0.00187011
0.00246075
0.00187971
0.00330739
0.00189338
0.00438951
0.00189598
0.00236456
0.00130488
0.00430071
0.00544863
0.0045501
0.00429388
0.00386058
0.00257154
0.000767523
0.00116945
0.00102743
0.00212803
0.000808938
0.00527246
0.0040103
0.00238586
0.00364974
0.00243087
0.00094382
0.00459261
0.00463761
0.00251673
0.00261216
0.00269121
0.00327848
0.00244449
0.00263771
0.000867111
0.00340111
0.00331367
0.00331712
0.00486537
0.00389424
0.000818699
0.00121364
0.0024853
0.00132134
0.00360835
0.000789937
0.00117147
0.00116149
0.000667771
0.00194553
0.00254605
0.00283303
0.00258751
0.00118241
0.00313099
0.00102644
0.00365446
0.0027544
0.00481747
0.00488707
0.00268712
0.0012648
0.000971884
0.0030828
0.000605002
0.00109939
0.00126423
0.00365728
0.0040968
0.00381221
0.00281693
0.00179246
0.00423251
0.000910229
0.00122706
0.00490235
0.00116178
0.00117486
0.000769048
0.000730474
0.00118129
0.000843834
0.00215311
0.0048056
0.00311724
0.00300811
0.0024096
0.000875675
0.00269748
0.000661868
0.00407317
0.00387133
0.00333381
0.0040277
0.00168455
0.00128358
0.00393699
0.00120381
0.00473503
0.00225154
0.00208305
0.00381665
0.00126543
0.0037154
0.00236728
0.00200393
0.00303863
0.00483048
0.00349098
0.000935263
0.00229372
0.0022416
0.00342697
0.00324816
0.000574372
0.00159091
0.00103976
0.00101235
0.00273183
3.73763e-06
3.60466e-06
3.50737e-06
3.39582e-06
3.26966e-06
3.11088e-06
2.8935e-06
2.58158e-06
2.12127e-06
3.93819e-06
3.73206e-06
3.54552e-06
3.36446e-06
3.17867e-06
2.96661e-06
2.70481e-06
2.37212e-06
1.95054e-06
4.12156e-06
3.84193e-06
3.57642e-06
3.32973e-06
3.08836e-06
2.83065e-06
2.53754e-06
2.19694e-06
1.80845e-06
4.32331e-06
3.97036e-06
3.63066e-06
3.32207e-06
3.02934e-06
2.73199e-06
2.41421e-06
2.06827e-06
1.69759e-06
4.57943e-06
4.15301e-06
3.73924e-06
3.36927e-06
3.02625e-06
2.69096e-06
2.34908e-06
1.99376e-06
1.62596e-06
4.93405e-06
4.43029e-06
3.93628e-06
3.50034e-06
3.10337e-06
2.72674e-06
2.35612e-06
1.98407e-06
1.6096e-06
5.45034e-06
4.85123e-06
4.26184e-06
3.74887e-06
3.2888e-06
2.86207e-06
2.45327e-06
2.05419e-06
1.66349e-06
6.22144e-06
5.47567e-06
4.76561e-06
4.15763e-06
3.61925e-06
3.12778e-06
2.66576e-06
2.22395e-06
1.80139e-06
7.33141e-06
6.37364e-06
5.51247e-06
4.78528e-06
4.14683e-06
3.5691e-06
3.0317e-06
2.52313e-06
2.04121e-06
8.85262e-06
7.63241e-06
6.59226e-06
5.71615e-06
4.94823e-06
4.25447e-06
3.61105e-06
3.00281e-06
2.42348e-06
1.08687e-05
9.3719e-06
8.13439e-06
7.07373e-06
6.13743e-06
5.28764e-06
4.49755e-06
3.74782e-06
3.02847e-06
1.34727e-05
1.17746e-05
1.03322e-05
9.04061e-06
7.88343e-06
6.82429e-06
5.83419e-06
4.88905e-06
3.97657e-06
1.67649e-05
1.51549e-05
1.34839e-05
1.18882e-05
1.04347e-05
9.0939e-06
7.83302e-06
6.62063e-06
5.44231e-06
2.17979e-05
2.01209e-05
1.8054e-05
1.60136e-05
1.41498e-05
1.2428e-05
1.08021e-05
9.22734e-06
7.68435e-06
2.98729e-05
2.75046e-05
2.46753e-05
2.19603e-05
1.95255e-05
1.72926e-05
1.51809e-05
1.31176e-05
1.1059e-05
4.23657e-05
3.82124e-05
3.40904e-05
3.04113e-05
2.72162e-05
2.43242e-05
2.15901e-05
1.89002e-05
1.61858e-05
6.01474e-05
5.29689e-05
4.70577e-05
4.21694e-05
3.8054e-05
3.43732e-05
3.08865e-05
2.74246e-05
2.39014e-05
8.23341e-05
7.20464e-05
6.42879e-05
5.8163e-05
5.30986e-05
4.85893e-05
4.42752e-05
3.99021e-05
3.53298e-05
0.000108277
9.57437e-05
8.66247e-05
7.95767e-05
7.37799e-05
6.85974e-05
6.35355e-05
5.82218e-05
5.24153e-05
0.000138681
0.000125175
0.000115506
0.000108177
0.000102191
9.68032e-05
9.13582e-05
8.53275e-05
7.83607e-05
0.000176136
0.000162783
0.000153459
0.00014675
0.000141516
0.000136848
0.000131849
0.000125711
0.000117824
0.000225005
0.000212502
0.00020439
0.000199478
0.000196482
0.000194157
0.000191222
0.000186406
0.000178693
0.000291567
0.000279718
0.000273669
0.000272186
0.000273743
0.000276437
0.000278413
0.000277724
0.000272846
0.000384649
0.000370987
0.000367875
0.000372267
0.000381932
0.000393783
0.000405258
0.000413417
0.000416109
0.000513932
0.000492654
0.000494376
0.000508444
0.000531483
0.000558194
0.000585701
0.000610388
0.000624992
0.000268076
0.000260682
0.000256134
0.000254405
0.000255365
0.000258761
0.000264262
0.000271474
0.000280001
0.000289442
0.000299441
0.000309693
0.000319931
0.000329949
0.000339535
0.00034838
0.000356186
0.000362695
0.000367656
0.000370834
0.00037199
0.000370899
0.000367261
0.000360431
0.000348763
0.000333569
0.000316241
0.000297361
0.000276705
0.000255187
0.000233683
0.000212529
0.000191771
0.000171654
0.000152431
0.000134278
0.000117314
0.000101618
8.72372e-05
7.41903e-05
6.24669e-05
5.20328e-05
4.28498e-05
3.48875e-05
2.81087e-05
2.24564e-05
1.78477e-05
1.41744e-05
1.13072e-05
9.11083e-06
7.45493e-06
6.22355e-06
5.32029e-06
4.66842e-06
4.20995e-06
3.90217e-06
3.71493e-06
3.62793e-06
3.62635e-06
0.000303525
0.000298706
0.000296743
0.00029754
0.000300801
0.00030613
0.000313054
0.000321078
0.000329717
0.000338548
0.000347237
0.000355589
0.000363551
0.000371183
0.000377975
0.000383344
0.000386679
0.000388137
0.000387811
0.000385747
0.000381939
0.000376343
0.000368844
0.000359212
0.000347046
0.000332173
0.000314792
0.000295349
0.0002745
0.000253012
0.000231466
0.000210198
0.000189427
0.000169356
0.000150171
0.00013203
0.000115056
9.93406e-05
8.49438e-05
7.1896e-05
6.02017e-05
4.98453e-05
4.08019e-05
3.30373e-05
2.64989e-05
2.11082e-05
1.67593e-05
1.3324e-05
1.06617e-05
8.63456e-06
7.11183e-06
5.97957e-06
5.14543e-06
4.5383e-06
4.10551e-06
3.80922e-06
3.62318e-06
3.52993e-06
3.51543e-06
0.000333008
0.000330883
0.000331177
0.000333635
0.000337899
0.000343516
0.000349992
0.000356844
0.00036363
0.00036999
0.000375653
0.000380455
0.000384328
0.000387279
0.000389307
0.000390338
0.000390245
0.000388917
0.000386279
0.000382261
0.00037678
0.000369724
0.000360927
0.00035016
0.000337195
0.000321983
0.000304696
0.000285673
0.000265385
0.00024439
0.000223199
0.000202198
0.000181675
0.000161869
0.000142981
0.000125178
0.000108588
9.3304e-05
7.93864e-05
6.68635e-05
5.57365e-05
4.59842e-05
3.75651e-05
3.04182e-05
2.44601e-05
1.95855e-05
1.56704e-05
1.258e-05
1.01776e-05
8.33403e-06
6.93396e-06
5.87991e-06
5.09333e-06
4.51314e-06
4.09331e-06
3.80008e-06
3.60935e-06
3.50476e-06
3.47371e-06
0.000331608
0.000329206
0.000329191
0.000331269
0.000335038
0.000340017
0.000345703
0.000351611
0.000357316
0.00036248
0.00036686
0.000370312
0.000372777
0.000374251
0.000374746
0.000374256
0.000372759
0.000370226
0.000366613
0.00036185
0.000355835
0.000348433
0.000339473
0.000328772
0.000316178
0.000301645
0.000285275
0.000267324
0.000248172
0.00022827
0.000208067
0.000187957
0.000168271
0.000149286
0.00013123
0.000114288
9.85973e-05
8.42546e-05
7.13153e-05
5.97974e-05
4.96848e-05
4.09319e-05
3.3468e-05
2.72004e-05
2.20183e-05
1.77976e-05
1.44079e-05
1.17196e-05
9.61023e-06
7.96965e-06
6.70314e-06
5.73203e-06
4.99401e-06
4.4405e-06
4.03335e-06
3.74371e-06
3.55031e-06
3.43857e-06
3.39711e-06
0.000311236
0.000308045
0.000307156
0.000308304
0.000311131
0.000315207
0.000320075
0.000325293
0.000330459
0.00033524
0.00033938
0.000342706
0.000345113
0.000346555
0.000347021
0.00034651
0.000345017
0.000342531
0.000339018
0.000334418
0.000328635
0.000321542
0.000312994
0.000302848
0.000290999
0.000277423
0.000262206
0.000245553
0.000227766
0.000209215
0.000190296
0.000171393
0.000152856
0.000134991
0.000118055
0.000102252
8.77302e-05
7.45849e-05
6.2862e-05
5.25587e-05
4.36314e-05
3.60025e-05
2.95692e-05
2.42119e-05
1.98019e-05
1.62092e-05
1.33087e-05
1.09853e-05
9.13647e-06
7.67385e-06
6.52317e-06
5.62341e-06
4.92545e-06
4.3904e-06
3.98787e-06
3.69449e-06
3.49252e-06
3.36923e-06
3.31393e-06
0.000278542
0.000274092
0.000271838
0.000271577
0.000273026
0.000275832
0.000279615
0.000283995
0.000288614
0.000293156
0.000297359
0.000301019
0.000303983
0.000306149
0.000307449
0.000307841
0.000307286
0.000305746
0.000303177
0.000299516
0.000294674
0.000288542
0.000281
0.000271938
0.00026128
0.000249023
0.000235249
0.000220138
0.000203949
0.000187006
0.00016967
0.000152311
0.000135287
0.000118922
0.000103484
8.91856e-05
7.61712e-05
6.45235e-05
5.42679e-05
4.53726e-05
3.77616e-05
3.1327e-05
2.59427e-05
2.14755e-05
1.77943e-05
1.47767e-05
1.23133e-05
1.03095e-05
8.68525e-06
7.37377e-06
6.31992e-06
5.47861e-06
4.81298e-06
4.29314e-06
3.89491e-06
3.59903e-06
3.39035e-06
3.25759e-06
3.1908e-06
0.000240589
0.000235293
0.000231944
0.000230419
0.000230515
0.000231979
0.000234528
0.000237868
0.000241709
0.000245777
0.000249828
0.00025365
0.000257067
0.00025993
0.000262121
0.000263546
0.000264127
0.000263779
0.000262429
0.000259997
0.000256389
0.000251499
0.00024523
0.000237497
0.000228239
0.000217477
0.000205302
0.000191889
0.00017747
0.000162338
0.000146835
0.000131311
0.000116134
0.000101625
8.80442e-05
7.5593e-05
6.43918e-05
5.44956e-05
4.59023e-05
3.85433e-05
3.23118e-05
2.70798e-05
2.27122e-05
1.90786e-05
1.60592e-05
1.35497e-05
1.14634e-05
9.72896e-06
8.2892e-06
7.09789e-06
6.11746e-06
5.31698e-06
4.67058e-06
4.15642e-06
3.75578e-06
3.45284e-06
3.23448e-06
3.09029e-06
3.0107e-06
0.000197241
0.000191388
0.000187196
0.000184603
0.000183505
0.000183736
0.000185101
0.000187395
0.000190395
0.000193869
0.000197627
0.000201447
0.00020514
0.000208533
0.000211473
0.000213849
0.000215538
0.0002164
0.000216348
0.000215239
0.00021297
0.000209431
0.000204571
0.000198338
0.000190645
0.000181563
0.000171189
0.000159711
0.000147313
0.000134281
0.000120944
0.000107636
9.47405e-05
8.25576e-05
7.12798e-05
6.10842e-05
5.20494e-05
4.41887e-05
3.74715e-05
3.17831e-05
2.70003e-05
2.29899e-05
1.96257e-05
1.67946e-05
1.44009e-05
1.23628e-05
1.0622e-05
9.12936e-06
7.85022e-06
6.75857e-06
5.83449e-06
5.06128e-06
4.42397e-06
3.9089e-06
3.50266e-06
3.19228e-06
2.9658e-06
2.81312e-06
2.72424e-06
0.000145254
0.000139294
0.00013468
0.000131424
0.000129508
0.000128856
0.000129336
0.00013074
0.000133047
0.000136216
0.000139805
0.00014367
0.000147558
0.000151229
0.000154679
0.000157731
0.000160475
0.000162851
0.000164317
0.000164561
0.000163554
0.00016129
0.000157873
0.000153206
0.000147298
0.000140161
0.000131934
0.000122772
0.000112753
0.000102113
9.13178e-05
8.06999e-05
7.06446e-05
6.13548e-05
5.29489e-05
4.53863e-05
3.87809e-05
3.33035e-05
2.87037e-05
2.48021e-05
2.15273e-05
1.8766e-05
1.64153e-05
1.43807e-05
1.25891e-05
1.10121e-05
9.61036e-06
8.36796e-06
7.26458e-06
6.27302e-06
5.39173e-06
4.62738e-06
3.9847e-06
3.46038e-06
3.04406e-06
2.72686e-06
2.49775e-06
2.34535e-06
2.25738e-06
0.00219598
0.00191115
0.00166279
0.00144208
0.00124585
0.0010733
0.000923388
0.000791343
0.000674022
0.000571089
0.000489949
0.000432634
0.000396641
0.00037676
0.000363645
0.000353188
0.000344539
0.000336962
0.000330443
0.000325802
0.000324321
0.00032587
0.000325735
0.000317004
0.000291837
0.00208739
0.00185666
0.00162897
0.00141514
0.0012205
0.00104719
0.000894793
0.000761301
0.000645716
0.000548705
0.000471598
0.000413646
0.000372316
0.00034408
0.000325067
0.000312586
0.000305085
0.000301639
0.000301744
0.000305135
0.000311493
0.000319939
0.000328128
0.000331469
0.000321912
0.00209379
0.00184613
0.00160983
0.00139017
0.00119074
0.00101338
0.000858068
0.000723872
0.000610265
0.000516937
0.000442901
0.000386135
0.000344006
0.000313749
0.000292914
0.000279768
0.000273196
0.000272404
0.00027683
0.000285931
0.000298957
0.000314639
0.000330575
0.000342385
0.000343093
0.00211423
0.0018394
0.00158739
0.0013583
0.00115318
0.000972571
0.000816074
0.000682786
0.000571752
0.000481677
0.000410538
0.000355736
0.000314561
0.000284584
0.00026391
0.000251263
0.000245891
0.000247157
0.000254597
0.000267595
0.000285155
0.000305568
0.000325819
0.00034078
0.000342553
0.00213221
0.00183298
0.00156398
0.00132396
0.00111258
0.000929112
0.000772347
0.000640727
0.000532495
0.000445517
0.000377168
0.000324573
0.000285011
0.000256216
0.000236524
0.00022487
0.00022066
0.000223404
0.00023272
0.000247952
0.000267848
0.000290144
0.000311074
0.000324915
0.000324342
0.00213785
0.00181898
0.00153432
0.00128404
0.00106723
0.000882009
0.00072603
0.000596829
0.000491797
0.000408116
0.000342763
0.000292706
0.00025522
0.00022812
0.000209838
0.000199399
0.000196258
0.000200011
0.000210307
0.000226431
0.000246917
0.000269087
0.000288709
0.000299794
0.000294992
0.00213793
0.00179795
0.00149668
0.00123655
0.00101555
0.000829972
0.000675967
0.000550037
0.000448789
0.000368847
0.000306905
0.000259825
0.000224867
0.000199855
0.000183247
0.000174099
0.000171862
0.000176169
0.000186659
0.000202549
0.000222219
0.000242738
0.000259703
0.000267402
0.00025903
0.00214118
0.00176779
0.0014469
0.001178
0.000954947
0.000771066
0.000620585
0.000499002
0.000402345
0.000326801
0.000268852
0.000225308
0.000193425
0.000170909
0.000156216
0.000148402
0.000146886
0.000151313
0.000161297
0.000175989
0.000193685
0.00021119
0.000224458
0.000228383
0.000216835
0.00213523
0.00171826
0.00137787
0.00110398
0.000882779
0.000703572
0.000558727
0.000442636
0.000351386
0.000281082
0.000227757
0.000188422
0.000160412
0.000140864
0.000128327
0.000121893
0.000120873
0.000124952
0.000133749
0.00014637
0.000160884
0.000174164
0.000182484
0.000180879
0.000164835
0.000529795
0.000547145
0.511662
0.000227796
3.01722e-05
4.02835e-05
0.00923125
4.70643e-06
0.71352
2.56862e-06
5.14497
1.01487e-05
0.000303479
8.06484e-06
0.00730881
4.46548e-05
5.83595
0.000170447
1.77664e-06
0.152333
6.91492e-05
2.37459e-05
6.65999
6.7665e-05
3.7504e-06
6.48286e-06
3.8579e-06
0.000573337
6.71905e-05
7.64911
1.2094e-06
8.72685e-06
2.24743
0.000498621
8.00952
1.82522e-05
0.00274243
0.00781464
0.00308368
1.2292e-05
3.66024
1.56173e-06
1.2944e-05
0.00277086
0.000394928
2.95196e-05
7.45232
6.60692
0.00015995
0.570219
6.98817
1.97261
0.00011768
0.000127344
0.00790655
0.595908
5.87828e-06
8.3727e-05
5.67154e-06
0.408947
6.46521e-05
0.43674
2.72531e-05
2.74769e-05
4.79652e-06
0.00273633
3.15767e-06
0.000225632
0.000337234
0.396618
0.539502
3.02335e-05
8.75331e-06
0.121879
3.69153e-06
6.59093e-05
0.050984
6.0953
2.9535e-06
0.000100369
0.000412408
0.000133961
5.70353e-06
5.83237
4.04195e-05
7.1664e-05
7.23744e-06
5.68872
2.35983
3.44742e-05
0.000101155
7.2772e-06
1.56275e-05
1.10836e-05
1.19611e-05
5.1796
6.57502e-06
5.76953
5.84979e-06
0.284679
0.000207179
3.56894
0.000257644
3.03711e-05
5.16567e-06
0.000375755
6.27918
0.000367332
8.50823e-06
7.19504
2.012e-05
5.60881e-06
5.62346
2.92653e-05
0.000106264
0.000142728
1.39233
1.01428e-05
0.000185579
3.56395e-06
1.21953e-06
4.99472e-06
6.40627e-05
3.66027e-06
2.48055
1.17811e-05
2.0905
0.0133299
1.24794e-06
6.5919
5.41052e-06
0.0987034
0.407294
0.00186202
0.00105195
7.35929e-06
0.00034604
0.000103887
4.35391e-05
0.284655
3.20127e-05
0.00256646
1.00395
1.51575e-06
7.08622e-05
7.88517e-05
0.000401587
0.000718274
4.52163e-05
8.70289
0.000263618
5.08087e-06
0.000347683
0.0126198
3.17442e-06
5.4953
4.77709e-06
1.13849e-05
0.0545574
4.85115e-06
1.30791e-05
0.650506
1.3947e-05
6.03345
2.05292e-05
7.18154
6.26818e-06
3.75731e-06
9.15125e-05
5.0866e-06
7.75113e-06
3.11417e-05
0.000268346
6.35207
2.91232e-06
0.000492991
0.00040032
0.000366246
0.000604032
3.21229e-05
0.00103424
8.70539e-06
0.000131246
0.00110281
0.00224493
4.44281e-06
7.76642
8.90404e-06
0.931473
3.81573e-05
3.95685
0.785982
0.00170607
0.00227999
0.00879122
1.31856
3.48057e-06
2.29435e-05
9.30388e-05
0.000131305
0.000481849
9.68708e-05
0.000115008
5.01782e-05
0.000127984
7.19499e-06
3.71785e-06
0.000255871
0.00096587
9.51242e-06
5.05889e-06
9.93062e-06
0.000984304
0.00010897
0.000360365
4.86334
1.07918e-05
9.21926e-07
5.83521e-05
8.60417e-05
0.000125269
1.81766e-06
3.13587e-06
0.246931
1.77514e-05
1.67874
2.87515e-05
5.19733
8.49301e-06
1.07619e-05
5.1115
1.84324e-05
9.59947e-06
3.87712e-06
0.00302183
4.24969e-06
0.0247661
0.000267915
0.00130349
0.016259
1.0761e-06
6.35111e-05
1.56041e-05
0.00153839
7.99135e-06
6.13822e-06
8.43093e-06
0.000785412
3.94522e-05
5.47927e-06
8.7756e-06
0.000556994
2.212e-06
0.000179195
6.9824e-06
3.69333e-06
6.0567
0.0394721
0.0437262
1.67088e-06
0.000324647
1.24545e-06
1.34148e-05
3.14512e-06
0.0873407
3.50577e-06
7.79412e-06
0.000692262
0.00941916
3.84993e-06
0.000114189
0.00188842
7.87881e-06
9.98047e-07
2.42202e-06
0.000806224
5.13089e-06
1.5052
4.56834e-06
2.9215
0.00363218
0.000286865
0.000162516
2.9004e-05
0.000597301
6.60477e-05
0.000420692
3.58218e-05
5.72686
4.58926
0.0189448
1.58696e-05
1.46245e-07
6.20549
0.00155131
4.66942
4.61467
4.80283e-06
5.38663e-06
0.0024518
2.07605
1.37106e-05
1.55161e-05
6.33319e-05
3.71424
1.06207e-05
6.57445e-05
1.6333e-06
0.274418
0.000129776
3.07913e-05
1.69828e-05
1.5156
1.30167e-06
7.73489e-06
0.00213997
7.77614
2.71845e-06
3.81993e-06
0.00312609
0.0450766
9.81903e-06
1.66571e-05
1.17604e-06
8.05959e-06
3.51659e-06
1.26158
0.000384932
4.37673e-06
8.92642e-05
1.88309e-05
0.00858977
7.91525e-05
3.18894e-06
4.62932
8.39406e-05
6.43285e-06
6.36767e-06
3.26514e-06
0.000277131
1.04825e-05
1.06611e-05
0.00570678
1.28746e-05
0.0671725
1.03824e-05
4.56874e-05
1.1246e-05
6.82344e-06
8.19345
0.000950855
1.59378e-05
6.68135e-06
0.0336002
6.13
1.53772e-05
0.0039892
0.00237009
1.38634e-05
9.14505
0.00497649
7.87737
3.02534e-06
1.5047
1.20242e-06
6.34248e-06
5.97387e-05
7.45779
1.06463e-05
0.728248
2.02049e-05
0.0121164
8.40851e-05
1.51281
0.000304386
3.17091e-06
3.07035e-06
3.11672e-05
3.67945e-06
3.37817e-06
4.40849
2.71273e-05
2.36413
0.00336507
0.00272479
0.00274366
2.42826e-05
0.131201
6.32648
4.00065
0.00304735
7.47337e-06
0.000199093
0.983648
0.000898395
1.92151e-06
1.01317e-05
1.99706
1.1511e-05
6.99504e-05
4.78548e-06
1.33705e-05
3.72649e-05
0.0280733
1.01849e-05
1.23759e-08
0.00885627
0.000256044
0.000707992
1.07734e-06
0.012693
1.24098e-05
0.00168508
3.84681e-05
8.48568e-06
5.93339e-06
0.000210062
8.13528
7.07817e-06
6.94261e-06
2.59788e-05
4.34752e-06
4.448e-05
0.00032753
6.20036e-05
4.12609
2.02971e-06
2.40561e-05
1.39664e-06
8.28045e-06
3.98839e-05
3.77905e-06
3.69115e-05
3.43334e-06
0.0172355
5.08003e-05
2.03455e-05
2.40157e-07
1.11725e-05
9.30231e-06
4.87121e-06
0.0162363
5.79568
0.00159652
0.00036861
0.0362326
0.000362807
0.0441354
5.03571e-06
2.57983e-06
1.31294
9.45479e-06
1.3292e-05
0.00110411
1.39449e-05
0.258634
8.73645
7.37264e-05
0.000108371
0.00902901
1.66134e-05
0.00204062
0.00757301
0.00082213
3.23605
5.37096e-06
5.97057e-06
0.329986
4.40514e-06
6.44032
0.000582677
5.61209e-06
8.02559
8.73092e-06
3.69859e-06
0.000394654
2.49334e-05
4.67386e-06
0.000765742
0.000343192
0.000433059
0.00331713
3.64606e-07
9.95466e-06
5.5469
2.24867e-05
0.000129843
4.01369e-05
0.0106841
3.13299e-05
0.00714863
1.78591e-05
3.00783e-06
0.804023
9.77138e-06
8.94526e-06
0.00652417
4.8891e-05
1.50968e-05
0.668991
1.34719e-05
0.0176162
1.96283e-05
0.00110268
0.000356473
0.000587509
4.64359e-05
3.33718e-05
0.00934242
8.30488e-06
2.61059e-05
0.000483759
2.78951e-06
2.00642e-05
4.46412e-06
7.38294
3.3944
0.000262249
3.11832e-06
0.000863055
1.00279e-05
4.55435
0.173488
0.00173073
0.00050929
4.08731e-05
3.69764
3.75328
6.96964e-06
4.39146e-05
0.000534829
2.91386e-05
0.00160902
0.267042
3.95918e-06
0.00149032
1.32452e-05
0.00115869
0.000140453
2.0866e-05
0.00291898
7.4376
2.39153e-05
5.82536
8.37282e-06
0.150304
9.2559e-06
7.68493e-05
4.30397e-05
1.76362
0.00315243
0.00354873
1.22807e-06
0.000340692
0.000257909
7.71896
3.14553e-06
1.72298e-05
0.000250385
0.0336646
1.56249e-06
0.00183419
1.37813e-05
0.000328306
8.4939
1.9012e-06
0.000856672
4.8603e-06
8.50926e-06
0.000455602
1.76288
5.13877e-05
0.00445667
6.99362e-06
2.35358e-05
5.33961
8.60719
0.20096
0.000122349
0.0005381
0.326127
0.000130509
9.24586e-05
1.19347e-05
4.69378e-06
1.85894
2.44919e-05
3.84709e-05
0.00313509
7.15091e-05
7.60457e-05
7.13481e-05
2.42805e-05
0.009246
1.93365e-05
5.40163e-06
0.000410816
0.000304193
2.3396e-05
7.89015e-06
0.00918151
0.000504908
1.55645e-06
2.25652e-05
0.00949451
8.49566e-06
7.74012e-05
1.60932e-06
3.09415e-05
8.6231e-06
1.43776e-05
0.00321985
5.74175e-06
8.09386e-05
0.000291106
0.00010658
1.18976e-06
4.44252e-05
0.11177
3.4651e-05
4.96619e-06
9.64696e-06
1.01461e-05
1.15567e-05
9.52776e-06
0.118527
9.69182
0.000492275
1.50052
7.586e-06
3.72367e-06
5.10883e-06
3.70925e-06
7.58859e-05
3.55515e-06
0.000121452
3.53145e-05
3.0961e-06
3.49492e-06
0.00520739
0.000771585
2.19896e-05
0.00261129
2.23772e-05
3.58617e-05
1.97019e-06
0.00014535
0.00168751
0.0750319
0.00905481
0.032034
3.36372e-06
2.62203e-06
5.78824e-06
4.53182e-05
1.43754e-06
8.59564
1.83215e-06
8.66797e-05
4.88641e-06
0.363921
6.57727e-05
5.09642
9.46858e-07
5.26706e-06
4.47226e-06
4.10372
0.0905785
0.00184439
0.000119572
9.21604e-06
3.41428e-06
3.13681e-05
1.57269
9.51255e-07
8.20447e-06
0.00221378
1.40174e-05
1.99335e-05
3.5619e-06
7.06467e-06
0.000113204
2.13595e-05
6.1621e-06
7.24896e-06
3.59293e-05
2.91401e-05
8.17735e-05
5.60696
8.36466e-06
0.0089334
7.20176e-06
6.08255
4.83145e-06
1.55061e-05
5.74513e-06
5.41489e-06
0.00318581
4.62317e-05
2.87389e-05
5.79086e-06
0.000196571
7.3986e-06
4.16179e-05
2.89533e-05
2.239
0.00499011
0.000164245
5.83101
0.01082
0.0183615
8.18396
2.25407e-06
4.86191e-06
5.15758e-06
4.7455e-08
1.60976e-05
0.0034338
7.50958e-05
1.12518e-05
0.000269458
5.15827e-06
1.21564e-06
0.00167169
7.91981e-06
1.69278e-06
4.91464e-06
0.000138658
0.000466125
4.38573
3.6106e-06
0.00236595
0.00894556
0.000186532
9.69313e-05
3.98847
5.8078
0.00140882
8.76593e-07
4.13192e-05
3.33655e-07
0.000143431
1.17164e-05
0.00121451
0.000594552
1.13752e-05
0.0905235
0.00142356
9.74413e-07
4.89566e-06
1.70617e-05
9.71474
0.0745021
6.11223e-06
0.0119944
0.0125762
0.000172192
0.615879
5.1155e-10
4.72581e-06
0.00185548
8.7733e-07
0.000639085
0.000708534
7.35529
0.010229
3.71117e-06
0.0106395
4.48426e-06
6.12103e-07
0.00176394
6.63774e-05
0.000137229
4.31744e-06
1.24222e-05
0.00146283
4.58916e-05
3.57802e-06
1.42796e-05
1.57446e-05
0.000496198
1.29546e-05
1.89263
0.00989381
2.62568e-05
0.000909323
3.15737e-05
0.261862
6.39448e-05
7.38782e-06
2.16829e-05
0.0001887
0.000267634
1.11919e-06
2.89624e-05
8.0094
0.054415
0.0043525
5.33208e-05
0.000583573
0.001093
0.0156874
0.0579605
0.00198268
8.21004e-06
1.40646e-05
6.46563
5.20806e-06
4.72936e-06
0.000200206
1.34513
0.503203
9.73091e-06
2.55496e-05
0.604988
4.8294e-06
0.156354
0.0507663
3.04608e-05
1.00284e-05
1.42732
0.000139351
0.00450697
1.54528e-05
3.19708e-06
3.20774e-06
0.000414339
0.00301071
1.00514e-05
4.78441e-06
1.07879e-05
0.00347464
6.08594e-06
0.00153794
0.00448776
3.48214e-06
9.22161e-06
0.0116569
4.77001e-06
0.000152536
6.36523e-06
0.000156061
7.45e-06
3.06995e-06
0.0010841
2.88716e-05
1.09818e-05
1.38776e-05
0.000651619
0.000149179
5.10004
2.04139e-06
7.0678e-06
1.11049e-05
0.00507049
0.281683
0.22981
3.87829e-06
0.000498563
0.00897636
5.60016e-07
3.96517e-06
1.99551e-05
5.25436
8.97767e-06
0.299598
5.38222e-05
1.84294e-06
0.00215692
3.46913e-05
0.00240333
0.00313217
0.000519972
1.91021
1.89089
9.39264
5.06467e-06
1.30524
0.00337195
1.68729e-05
0.00768202
1.15825e-05
1.99162e-05
0.0205106
3.95321e-05
6.95621e-05
0.000120311
0.0735966
1.3546e-06
1.27211e-06
1.50827
5.39024e-06
7.12659e-05
0.00486462
0.000196194
0.0031029
1.08599e-05
0.00032392
5.88135
7.59271
0.00158238
0.000143028
0.307644
1.35025e-05
4.90666e-06
0.0014476
0.000468576
3.27535e-06
0.000141252
7.14497e-06
0.0304131
6.36731e-05
0.00258691
0.00393508
1.41032e-06
1.6418e-05
1.27833e-05
0.00108728
0.00238096
0.274422
9.53431e-05
6.31134e-05
0.000642085
0.00065013
0.000111209
0.00052737
7.57177e-05
3.34543e-06
5.10599e-05
2.8268e-05
3.00537e-06
0.000649212
5.96927
7.66873e-06
0.00154855
2.08338e-05
0.0202141
5.69418e-06
1.3681e-05
4.53542e-06
0.346144
0.512082
0.000479449
0.000133844
7.90489e-06
7.0802e-06
0.0168405
1.34314e-06
0.00369221
0.0021066
1.78884
5.71544e-06
0.000157321
0.0188457
5.39448e-05
7.6038e-05
0.000106188
2.08273
5.90474e-06
0.000160959
0.0162306
0.00960123
6.04118e-06
0.000116037
1.46707e-06
2.9171e-05
7.48864e-06
1.15303e-05
0.000101193
7.51569e-06
0.000473047
0.000832045
0.197841
0.370939
1.38013e-05
0.000285585
0.00142407
1.34053e-06
6.66052e-05
2.79359e-05
4.84525e-05
4.90715
5.69181e-05
0.0011392
1.03986e-05
3.83947e-06
0.000371011
4.80926e-06
0.00012325
5.7691e-06
0.0094133
0.0130537
1.44195
3.10969e-06
0.00864524
8.22072e-06
0.000300925
4.20155e-05
0.12617
0.00137619
0.000169318
6.82502
4.68003e-06
8.0053
1.56059e-05
0.00015427
9.87122e-05
4.81044e-06
6.19221e-06
0.00298649
0.00941889
4.59873e-06
1.35991e-05
0.0373468
2.7538e-06
9.41564e-06
3.06635e-06
4.62427e-06
2.2645e-05
6.45239
7.58768e-05
1.37712e-05
0.0123422
0.000665836
9.43445
3.3662e-06
1.55338e-05
1.02533e-05
1.08661e-05
9.9054e-05
2.26808e-05
3.87957
1.23432e-05
0.00250581
3.0998e-06
0.000137351
0.00239119
0.00255041
1.42752e-05
1.24458e-05
1.21367e-05
9.20766e-05
4.54557e-06
0.000168573
3.94285
0.000105348
0.000142991
7.31038e-06
0.0180025
2.04288
0.000453493
0.00899253
5.83131e-05
0.000249402
8.51198
8.87202
2.9198e-05
2.93166e-05
0.000278823
0.430019
6.98657e-05
0.119119
3.13341e-05
0.00102831
0.010997
4.80405e-06
1.47582e-05
6.16504e-05
4.37163e-06
1.28769e-06
4.60573e-06
0.000207948
2.78043e-06
1.55628
7.14618e-06
9.54263e-06
6.65999e-06
2.93363e-06
0.00013253
3.32624e-06
0.259622
0.000479256
2.69156e-05
5.51254e-05
0.000110897
5.05674
3.22431e-06
5.87424e-06
2.95053e-05
0.000184889
7.98787e-05
0.000362332
2.4002
5.99232e-06
6.80708e-06
0.000206285
1.90095e-05
0.000110888
0.0152344
4.64727e-06
6.51436e-06
1.17465e-06
4.68577e-05
0.0009449
0.031806
0.00824978
8.45154e-06
0.000337141
1.20002e-06
2.67087
3.25562
1.48771e-05
5.5274e-06
0.0807267
8.20054e-06
7.63245e-06
0.00297396
0.000114108
1.1111e-05
6.61679e-06
1.12124e-06
0.00137065
0.00160368
1.02495e-05
1.40424e-06
0.00299051
0.00168744
2.84323e-07
8.49572e-06
8.88567e-06
2.18196e-05
0.000567416
0.000163871
1.05139e-05
0.0168895
3.71943e-05
1.73427e-05
1.70699e-05
0.000113804
1.08083e-05
5.51968
0.00720213
1.84149
0.00207848
0.00225911
0.00029338
8.32148e-06
1.82809
0.000161795
5.12238e-06
8.04966e-05
8.55196e-06
0.000249247
9.04569e-06
1.28543e-05
3.2447e-06
0.191781
3.81044e-06
0.000600519
0.016084
4.85127e-05
0.000349243
0.000361011
8.88488
4.08738e-06
5.68146
5.53456
5.41061e-05
1.15336e-05
0.000232569
0.00020156
0.000139641
0.00482149
0.058506
2.00293e-05
3.02984e-06