/*--------------------------------*- C++ -*----------------------------------*\
  =========                 |
  \\      /  F ield         | OpenFOAM: The Open Source CFD Toolbox
   \\    /   O peration     | Website:  https://openfoam.org
    \\  /    A nd           | Version:  10
     \\/     M anipulation  |
\*---------------------------------------------------------------------------*/
FoamFile
{
    format      ascii;
    class       volScalarField;
    location    "500";
    object      k;
}
// * * * * * * * * * * * * * * * * * * * * * * * * * * * * * * * * * * * * * //

dimensions      [0 2 -2 0 0 0 0];

internalField   nonuniform List<scalar> 
10435
(
0.480065
0.529793
0.478586
0.832609
1.00668
0.87106
0.469777
0.546956
0.585944
0.668424
0.653209
1.1773
0.39434
0.399231
0.39596
0.630562
0.401581
0.419157
0.598796
0.528756
0.567027
0.834582
0.642231
1.02701
0.694953
0.264364
0.384675
0.421008
0.333425
0.548422
0.923205
0.721108
0.549585
0.306656
0.767611
0.403721
0.825526
0.39916
0.199911
0.744558
0.61037
0.50234
0.377286
0.666972
0.856864
0.904355
0.747397
0.379337
0.521336
0.81832
0.587944
1.01531
0.194864
0.282107
0.213617
0.311368
0.939857
0.409758
0.364589
0.85966
0.21108
0.479771
0.397635
1.09338
0.747876
0.509791
0.347649
0.419909
0.531685
1.10643
0.280454
0.339388
0.280774
0.573406
0.393297
0.348742
1.14321
0.473745
0.529254
0.357769
0.997493
0.408685
0.190235
0.28305
1.07568
0.413056
0.459211
0.657015
0.397975
0.495302
0.731231
0.818498
0.447148
0.410305
0.539859
0.377498
0.90825
0.399232
0.367833
0.987613
0.397297
0.964179
0.430812
0.593599
0.977871
0.745903
0.497292
0.909732
1.13208
0.357789
0.72574
0.928043
0.381203
0.364814
0.904138
0.744321
1.06206
0.440619
0.630388
1.07091
1.11498
0.289172
0.47525
0.303325
0.728562
0.238337
0.998758
0.291698
1.05236
0.391516
0.298208
0.661173
0.620507
0.36049
0.370501
0.17819
0.326819
0.923034
0.570066
0.661129
0.58897
0.866986
0.337436
1.14954
0.926823
0.384432
0.309897
1.02498
0.412597
1.17568
0.352307
0.96722
0.496694
1.14021
0.9134
0.31464
0.798702
0.518278
0.789905
0.531353
1.06972
0.362836
0.777568
1.15144
0.392009
1.11634
0.592939
1.08438
1.18265
1.14285
0.802075
0.249897
0.349613
0.383793
1.17914
0.474848
0.437744
0.41929
0.638393
0.354273
0.588001
0.945966
1.19014
0.226776
0.975333
0.339958
0.323419
0.496348
1.04078
1.09678
1.1532
0.187395
0.371646
0.352301
0.869338
0.514231
0.3959
0.393282
0.406072
0.724075
0.400151
0.388386
0.413618
0.405182
0.45255
0.893729
0.6999
1.01016
0.392927
1.01452
0.312337
0.56408
1.16611
1.1866
0.376587
0.40878
0.39751
0.22906
0.266403
0.365041
0.330526
0.414025
0.376489
0.358986
0.296517
0.686197
0.228516
0.383071
0.992032
0.343671
0.421133
0.635047
0.245489
1.06391
0.412289
0.402619
1.04662
0.294049
1.11922
0.84147
0.599812
0.265078
0.243667
0.304316
0.836712
0.554208
0.35966
0.498265
0.275064
0.426455
0.271721
0.411581
0.440057
1.09247
0.483855
1.10279
0.246122
0.472801
0.286902
0.381499
0.462906
0.899543
0.262477
1.1706
0.414449
0.404315
0.543147
0.761896
0.210701
0.970405
0.454355
0.500458
0.48878
0.598724
0.290662
1.12098
0.393632
0.932305
0.559323
0.505718
0.52916
0.406948
0.44203
0.383344
0.43071
0.204568
1.05153
0.213574
0.282159
0.327111
0.351026
0.594317
0.378069
0.494248
0.203534
0.278133
0.388683
0.442196
0.855961
0.74372
0.41891
1.15777
0.428185
0.305127
0.787609
0.40439
0.414175
1.12963
0.635883
0.278014
0.561634
0.362684
0.385634
1.0489
0.646119
0.28345
0.237803
1.07997
0.41393
1.14153
0.973059
0.373455
0.45926
0.184486
0.508216
0.453505
0.317684
0.417092
0.392166
0.408087
0.737629
0.328915
0.271611
0.452509
1.13976
0.412928
0.287726
0.282001
0.27676
0.335393
0.33914
0.328338
0.208004
0.350643
0.338775
0.348224
0.410829
0.417884
0.181616
0.513725
0.270008
0.517267
0.374332
0.408661
0.506221
0.490881
0.364616
0.657225
0.294155
0.299079
0.284756
0.242533
0.322963
0.206629
0.364496
0.35718
0.415019
1.19466
0.348868
0.520071
0.226945
0.377017
0.344122
0.471496
0.208429
0.384929
0.398736
0.401128
0.303439
0.288729
0.45296
0.220129
0.520527
0.399994
0.509133
0.503521
0.398777
0.384038
0.500711
0.424732
0.698471
0.341806
0.296974
0.318207
0.28677
0.434874
0.300648
0.356437
0.440417
0.368562
0.390013
0.356104
0.25557
0.529882
0.401241
0.517223
1.16732
0.260326
0.310971
0.418317
0.50536
0.420053
0.330009
0.282905
0.317578
0.403521
0.350139
0.44592
0.2827
0.317105
0.344112
0.297533
0.32226
0.211649
0.185516
0.445524
0.288316
0.0674433
0.0655888
0.0633882
0.0606149
0.0573899
0.0536587
0.0492856
0.0440727
0.0376545
0.0704788
0.0680725
0.0652532
0.0620643
0.0585361
0.0545722
0.0500514
0.0448786
0.038967
0.0727324
0.0697855
0.066426
0.0628365
0.0590064
0.0548276
0.050207
0.0451117
0.0396038
0.074423
0.0709751
0.0671367
0.0631851
0.0590826
0.0547251
0.050042
0.0450316
0.0397905
0.0757347
0.0718572
0.0675965
0.0633241
0.0589814
0.0544762
0.0497502
0.0448099
0.0397334
0.0768615
0.0726364
0.067998
0.0634377
0.0588802
0.0542456
0.0494813
0.0445926
0.0396458
0.0780581
0.0735035
0.0685069
0.0636784
0.0589221
0.0541659
0.0493593
0.0445082
0.0396802
0.0796574
0.0746109
0.0692517
0.0641654
0.0592201
0.0543419
0.0494804
0.044644
0.0399053
0.0817172
0.0760277
0.0703203
0.0649903
0.0598647
0.0548586
0.049921
0.0450573
0.0403367
0.0840452
0.0777505
0.0717696
0.0662262
0.0609316
0.0557906
0.0507528
0.0458161
0.0410333
0.0863848
0.0797397
0.0736384
0.0679357
0.0624908
0.0572115
0.0520544
0.0470137
0.042132
0.088401
0.0819731
0.0759741
0.0701857
0.0646156
0.0592005
0.0539147
0.0487566
0.0437772
0.0896241
0.0845666
0.0788878
0.0730765
0.0673974
0.0618466
0.0564238
0.0511361
0.0460501
0.0920707
0.0880916
0.0826392
0.0767688
0.0709564
0.0652499
0.0596694
0.0542322
0.0490163
0.0970746
0.0931315
0.0875249
0.0814431
0.0754201
0.0695091
0.0637312
0.0581034
0.0526942
0.105117
0.0999529
0.0937054
0.087212
0.0808732
0.0746919
0.0686692
0.0628182
0.0572028
0.11554
0.108282
0.101073
0.0940361
0.0873031
0.0807978
0.0744889
0.0683858
0.0625637
0.12601
0.117223
0.109216
0.101694
0.0945818
0.0877514
0.0811451
0.0747653
0.0686959
0.135151
0.125925
0.117629
0.109877
0.102522
0.0954484
0.0885922
0.0819537
0.0756142
0.142774
0.134083
0.12603
0.118376
0.110999
0.103836
0.0968404
0.0900203
0.0834652
0.149559
0.141953
0.134504
0.127221
0.120057
0.113001
0.106024
0.0991392
0.0924486
0.156533
0.150132
0.143427
0.136683
0.129943
0.12321
0.116456
0.109678
0.102986
0.164901
0.159376
0.153348
0.147219
0.141092
0.134918
0.128638
0.122207
0.115741
0.176148
0.170473
0.16484
0.159364
0.154045
0.148701
0.143209
0.137424
0.131453
0.191774
0.184002
0.178472
0.173745
0.169452
0.165225
0.1609
0.156202
0.150703
0.0776735
0.0769389
0.0771022
0.0781978
0.0802338
0.0831822
0.0869918
0.0915871
0.0968872
0.1028
0.10924
0.116122
0.123362
0.130885
0.138605
0.146409
0.154175
0.161782
0.169099
0.175991
0.18231
0.187905
0.192598
0.196105
0.197838
0.198059
0.197093
0.19504
0.191741
0.18745
0.182452
0.176852
0.17065
0.163953
0.156894
0.14959
0.142149
0.134674
0.127262
0.120001
0.112967
0.10622
0.0998173
0.0938282
0.0883255
0.0833735
0.0790182
0.0752838
0.0721623
0.0696264
0.0676317
0.0661264
0.06506
0.0643806
0.0640457
0.0640165
0.0642635
0.0647623
0.0654916
0.081869
0.081594
0.0822185
0.0837701
0.0862334
0.089562
0.0936837
0.0985097
0.103942
0.109884
0.116245
0.122954
0.129958
0.137221
0.144589
0.151881
0.158896
0.165584
0.171878
0.177701
0.182959
0.187549
0.191351
0.194212
0.195929
0.196357
0.195461
0.193291
0.189987
0.18576
0.180786
0.17517
0.16899
0.162333
0.155301
0.147997
0.140525
0.132986
0.12548
0.118096
0.110918
0.104026
0.0974982
0.0914212
0.0858764
0.0809305
0.076626
0.0729763
0.069965
0.0675613
0.0657072
0.0643304
0.0633601
0.0627349
0.0624071
0.0623429
0.0625207
0.0629273
0.0635379
0.0844862
0.0846141
0.0855751
0.0873729
0.0899822
0.0933486
0.0973962
0.102036
0.107174
0.112717
0.118579
0.124684
0.130966
0.137368
0.143825
0.150258
0.156568
0.162661
0.168441
0.173811
0.178665
0.182891
0.186357
0.188914
0.190406
0.190731
0.189854
0.187801
0.18466
0.180568
0.175672
0.170096
0.163944
0.157322
0.150336
0.143096
0.13571
0.128283
0.120916
0.113705
0.106739
0.100103
0.0938788
0.0881416
0.0829541
0.0783603
0.0743804
0.0710097
0.0682219
0.0659735
0.0642101
0.0628738
0.0619086
0.0612648
0.0609005
0.0607828
0.0608868
0.0611956
0.0616898
0.0823498
0.0824449
0.0833433
0.0850407
0.0875044
0.0906754
0.0944767
0.0988207
0.103617
0.108778
0.114223
0.119882
0.12569
0.131591
0.137524
0.143424
0.149219
0.15483
0.160174
0.165157
0.169678
0.173619
0.176855
0.179251
0.180678
0.181039
0.180282
0.178411
0.175485
0.171605
0.166895
0.16148
0.155481
0.149022
0.142223
0.135204
0.128084
0.120975
0.11398
0.107197
0.100711
0.0945982
0.0889238
0.0837395
0.0790809
0.0749656
0.0713926
0.068344
0.0657886
0.0636866
0.0619941
0.0606673
0.0596708
0.0589754
0.0585506
0.058369
0.0584075
0.058651
0.0590832
0.0772803
0.07726
0.0779981
0.0794906
0.0817088
0.0846
0.0880946
0.092113
0.0965714
0.101388
0.106485
0.111791
0.117244
0.122781
0.128346
0.133877
0.139311
0.144578
0.149601
0.154291
0.158549
0.162266
0.165323
0.1676
0.168983
0.169385
0.168751
0.167074
0.164388
0.160767
0.156315
0.151153
0.145409
0.139221
0.132725
0.126056
0.11934
0.112696
0.106231
0.100034
0.0941784
0.0887206
0.0836993
0.0791378
0.0750446
0.0714153
0.0682355
0.0654835
0.0631329
0.0611545
0.0595193
0.0581993
0.0571698
0.0564094
0.0558997
0.0556248
0.055571
0.0557276
0.0560778
0.070123
0.0698994
0.0703811
0.0715687
0.073441
0.0759556
0.0790538
0.0826672
0.0867221
0.0911448
0.0958633
0.10081
0.105921
0.111135
0.116393
0.121633
0.126792
0.1318
0.136583
0.141057
0.145127
0.14869
0.151635
0.153853
0.15524
0.155715
0.155225
0.153755
0.151327
0.148001
0.143867
0.139042
0.133664
0.127878
0.121832
0.11567
0.109524
0.103511
0.0977317
0.0922605
0.0871475
0.0824214
0.0780924
0.0741578
0.070605
0.0674168
0.0645747
0.0620611
0.0598603
0.0579585
0.0563432
0.0550033
0.0539284
0.0531084
0.0525332
0.0521926
0.0520764
0.0521761
0.0524755
0.0617259
0.0613194
0.0615445
0.0624082
0.0638993
0.0659876
0.0686287
0.0717687
0.0753475
0.0793025
0.0835718
0.0880941
0.0928098
0.0976595
0.102584
0.107521
0.112407
0.11717
0.121735
0.126017
0.129926
0.13336
0.136219
0.138401
0.139807
0.140364
0.140022
0.138767
0.136613
0.133612
0.129851
0.125444
0.120539
0.115289
0.109844
0.104353
0.0989412
0.0937151
0.0887616
0.0841277
0.0798334
0.0758776
0.0722447
0.0689129
0.0658573
0.0630554
0.060493
0.0581618
0.0560612
0.0541942
0.0525656
0.05118
0.0500406
0.049148
0.0484998
0.0480904
0.0479125
0.0479582
0.0482109
0.0519276
0.0513225
0.0512669
0.0517759
0.0528474
0.0544648
0.0565981
0.0592089
0.0622512
0.0656749
0.0694317
0.0734655
0.0777228
0.0821485
0.0866876
0.0912861
0.09588
0.10039
0.104739
0.108831
0.112578
0.11588
0.118654
0.12081
0.122241
0.122892
0.122715
0.1217
0.119847
0.117211
0.113886
0.109986
0.105683
0.101134
0.096463
0.0918201
0.0873149
0.0830296
0.079034
0.0753286
0.0719049
0.0687342
0.0657826
0.063018
0.0604141
0.0579444
0.0556088
0.0534057
0.0513506
0.0494665
0.0477795
0.046313
0.0450848
0.0441089
0.043391
0.042929
0.0427155
0.0427412
0.0429858
0.0400194
0.0391772
0.0387975
0.0389061
0.0395181
0.0406281
0.042215
0.0442386
0.0467022
0.0496016
0.0528335
0.0563583
0.0601116
0.0640348
0.0681202
0.0723117
0.0766169
0.0809822
0.0851974
0.0891154
0.0926698
0.095799
0.09847
0.100587
0.102077
0.102869
0.102925
0.102228
0.100734
0.0984832
0.0956476
0.0923654
0.0888366
0.0851906
0.0815304
0.0778757
0.0743637
0.0712196
0.0683276
0.0656006
0.0630598
0.0606612
0.0583565
0.0560999
0.0538535
0.0516404
0.0494593
0.0473489
0.0453289
0.0433818
0.0415533
0.0399146
0.0385303
0.0374367
0.036635
0.0361354
0.0359299
0.0360024
0.0363173
0.287769
0.264144
0.243798
0.225358
0.208324
0.192583
0.17809
0.164465
0.151482
0.139244
0.128899
0.121034
0.115586
0.111994
0.108931
0.105849
0.102708
0.099487
0.0962785
0.0933109
0.0908892
0.0891136
0.0874255
0.0849678
0.0807418
0.272347
0.256326
0.238949
0.221607
0.204902
0.189115
0.174311
0.160417
0.147492
0.135823
0.125829
0.117672
0.111232
0.106179
0.102072
0.0986073
0.0956344
0.0930822
0.0909414
0.0892436
0.0880283
0.0872775
0.0867901
0.0860821
0.084214
0.268227
0.251591
0.234207
0.216808
0.199896
0.183793
0.168657
0.154581
0.141731
0.130331
0.120533
0.112328
0.105574
0.100054
0.0955507
0.091919
0.0890718
0.0869512
0.0855163
0.0847298
0.0845436
0.0848643
0.0854842
0.0859813
0.0855974
0.265381
0.246942
0.228635
0.210694
0.19341
0.177026
0.161715
0.147621
0.134911
0.123727
0.11411
0.105983
0.0991943
0.0935806
0.0890111
0.0854117
0.0827431
0.0809704
0.080048
0.079906
0.0804375
0.0814756
0.0827302
0.0836985
0.0835261
0.262142
0.242047
0.222598
0.203902
0.186142
0.169489
0.154081
0.140046
0.127501
0.116518
0.107078
0.0990755
0.0923662
0.0868133
0.0823227
0.0788491
0.0763735
0.0748732
0.0743063
0.0745736
0.0755179
0.0768863
0.0782881
0.0791608
0.0787249
0.257814
0.236365
0.215816
0.196357
0.178142
0.161277
0.145843
0.131919
0.119563
0.10879
0.0995456
0.0917142
0.0851571
0.0797529
0.0754215
0.0721253
0.0698478
0.0685672
0.0682345
0.068728
0.0698457
0.0712683
0.072536
0.0730634
0.0720565
0.25283
0.229971
0.208266
0.188049
0.169431
0.152425
0.137026
0.123253
0.111111
0.100568
0.0915498
0.0839355
0.0775905
0.0723959
0.0682725
0.0651787
0.0630901
0.0619768
0.0617765
0.062345
0.0634433
0.0647006
0.0656324
0.0656622
0.0640602
0.24763
0.22279
0.199779
0.178852
0.159935
0.142889
0.127595
0.114013
0.102112
0.0918255
0.0830652
0.0757141
0.0696422
0.0647111
0.0608341
0.0579585
0.0560435
0.0550462
0.0548891
0.0554051
0.0563263
0.0572141
0.0576378
0.0570112
0.0546949
0.241608
0.214374
0.190055
0.168596
0.149576
0.132638
0.117546
0.104183
0.0925349
0.0825323
0.0740467
0.0670014
0.0612897
0.0566768
0.0530767
0.0504303
0.0486596
0.0477164
0.0475114
0.0478601
0.0484336
0.048792
0.0484806
0.0468216
0.0433333
0.317299
0.32534
0.843498
0.0884107
0.0193984
0.0238036
0.495618
0.0137558
1.0255
0.0260184
3.38264
0.0189888
0.239124
0.0112653
0.724662
0.0248519
4.09576
0.0833591
0.0270523
0.585739
0.103404
0.0354428
4.63241
0.0505944
0.0134253
0.0133321
0.013558
0.0706847
0.13669
4.99685
0.0317446
0.0138482
2.40264
0.301798
5.16934
0.0149594
0.616566
0.735704
0.733278
0.0315076
2.94667
0.0010662
0.0221062
0.216158
0.102074
0.0621028
4.08374
3.60412
0.152842
0.965791
3.93083
1.88493
0.146867
0.0767439
0.466045
0.921729
0.0108696
0.121608
0.0115394
0.76844
0.0239394
0.776953
0.0185602
0.0320386
0.0137208
0.237753
0.0289103
0.0815767
0.250572
0.653836
0.869383
0.0467063
0.0135908
0.573414
0.0127439
0.102916
0.639388
3.71998
0.00958872
0.0724469
0.272729
0.0390385
0.0140924
3.45665
0.0208716
0.0265452
0.0134494
3.58771
2.47843
0.0551911
0.057858
0.0411178
0.032085
0.0198301
0.0140729
3.41951
0.0131511
3.51427
0.00447102
0.658051
0.048745
2.93333
0.054747
0.0517045
0.0116402
0.0900305
4.49078
0.256317
0.00875184
4.80413
0.0314888
0.0126398
4.24831
0.0507776
0.139682
0.147819
1.6269
0.0305188
0.189466
0.00990571
0.000813148
0.0124711
0.0497058
0.0131263
2.56408
0.0206689
1.97907
0.266576
0.00886475
3.61371
0.0137866
0.549026
0.651076
0.614031
0.125946
0.0135061
0.0943056
0.0330822
0.0186486
0.724665
0.0484348
0.626969
1.0984
0.00103551
0.130393
0.0370758
0.103941
0.182833
0.0241282
5.39324
0.0788916
0.0139789
0.0982266
1.13649
0.0127276
3.34128
0.0124481
0.0296075
1.04983
0.0156051
0.0213185
0.973284
0.0216882
3.6154
0.0270922
3.89032
0.0112283
0.0133439
0.0494654
0.0122299
0.0110442
0.0364032
0.0844881
3.62852
0.0363814
0.0942079
0.238653
0.154336
0.261905
0.0482234
0.408404
0.0129137
0.156667
0.387553
0.23722
0.00654041
4.06938
0.00887159
1.30808
0.0191468
2.5486
0.950735
0.410176
0.580551
0.808129
1.66518
0.0125836
0.0340038
0.134946
0.179678
0.29769
0.0699884
0.0349294
0.0211582
0.0533188
0.0251038
0.0298858
0.0521431
0.167853
0.028823
0.0116573
0.0176209
0.411606
0.0502525
0.111811
3.53161
0.0131007
0.005239
0.0724628
0.0765748
0.0273867
0.00142462
0.0126444
0.577053
0.032516
1.82868
0.0428062
3.79835
0.00814837
0.0139517
3.19793
0.0148969
0.0128482
0.0105297
0.706099
0.0267195
1.02265
0.0424153
0.41965
1.12777
0.0307942
0.0241916
0.0227602
0.165578
0.0135576
0.0131816
0.0154099
0.150427
0.0236943
0.0134591
0.00744571
0.104085
0.0266776
0.148143
0.00999277
0.0126975
4.42968
0.648146
1.0609
0.0277124
0.0846642
0.00906164
0.0141763
0.0126747
0.56193
0.0125886
0.0217502
0.116358
0.482456
0.0134651
0.125558
0.437662
0.00595459
0.00519903
0.0277168
0.124195
0.0308551
1.63766
0.0108585
2.18198
0.294765
0.0863363
0.073068
0.0606621
0.270658
0.0223252
0.094359
0.0491837
3.70165
2.81028
0.834936
0.0233196
0.000165551
3.79911
0.568768
3.4864
3.80186
0.0390789
0.0169521
0.348202
1.71682
0.0217255
0.0247837
0.0243247
3.27387
0.0209241
0.0998753
0.0310273
0.717242
0.0367231
0.0485235
0.0475169
1.8183
0.00877881
0.00549506
0.585652
4.20258
0.0266462
0.0134147
0.891128
0.939224
0.0186888
0.0249866
0.0301565
0.0134984
0.0123959
1.51236
0.262045
0.0396634
0.124025
0.0264394
0.787452
0.0213619
0.02624
3.19278
0.0293624
0.0141742
0.0145935
0.00295891
0.0825042
0.0177516
0.0196923
0.388863
0.0461413
0.541286
0.0129009
0.0232269
0.0101378
0.0134493
4.21876
0.245175
0.03161
0.00299343
0.95848
3.79297
0.0296595
1.0491
0.189908
0.0209582
4.47431
0.172241
5.05432
0.0103392
1.69744
0.00102523
0.0134709
0.0394335
4.13333
0.0140787
1.13107
0.0524417
1.14279
0.1475
1.71949
0.239269
0.0115053
0.0110947
0.0377564
0.0125373
0.0262779
3.69726
0.030674
2.47955
0.248812
0.210859
0.815496
0.0299757
0.555796
3.9247
2.55856
0.224864
0.0240484
0.09648
1.32677
0.372655
0.0259762
0.0195374
2.20789
0.0283865
0.136886
0.0138368
0.0231475
0.0203886
0.444334
0.0192829
0.000120183
0.592562
0.102121
0.224635
0.029696
0.540514
0.0140611
0.349048
0.0179495
0.0169297
0.0166664
0.172009
4.20805
0.0185074
0.0392279
0.0308672
0.0141237
0.0558804
0.0599657
0.0432584
2.75667
0.00188002
0.032662
0.0325144
0.013758
0.0187296
0.0125214
0.0587496
0.0100643
0.725973
0.0352833
0.0320566
0.000240572
0.0103387
0.0179848
0.0156576
1.15596
3.73764
0.184102
0.260761
0.270297
0.052285
0.385002
0.011574
0.00925219
1.56006
0.0169565
0.0207006
0.32173
0.0467931
0.490196
4.34612
0.0256937
0.0581818
0.296572
0.0245153
0.230091
0.551679
0.378816
2.35338
0.0137696
0.0118558
0.669972
0.0144444
4.00788
0.13814
0.0135853
5.14478
0.0177519
0.0130244
0.268712
0.0566183
0.0129209
0.199597
0.160539
0.119189
0.726484
0.000692062
0.0189619
3.35486
0.0166002
0.0362114
0.0535021
0.753652
0.0472083
0.763854
0.0212515
0.0113488
1.15657
0.0139787
0.0119445
0.729508
0.0190703
0.0292035
1.06184
0.0221766
0.763255
0.0147149
0.126799
0.230224
0.328333
0.0198929
0.0185029
0.581124
0.0147771
0.0321527
0.295287
0.034776
0.0527287
0.00627853
4.12157
3.08913
0.188213
0.0115341
0.125408
0.0362051
2.81033
0.613756
0.1243
0.305676
0.0612559
2.55272
3.17718
0.0251321
0.0456128
0.0952338
0.0488229
0.148385
0.570176
0.0100947
0.231287
0.0231649
0.280632
0.143694
0.0228698
0.853402
4.86082
0.0342546
4.27238
0.00375253
0.454927
0.01689
0.020904
0.0181539
1.81599
0.670673
0.707265
0.00887394
0.154156
0.180475
4.19178
0.012719
0.0447808
0.219846
0.219601
0.0337706
0.592805
0.0237566
0.24679
5.30702
0.026025
0.129309
0.01106
0.014247
0.0940041
2.01072
0.0677075
0.65222
0.0118378
0.0172997
4.09756
4.35462
0.361135
0.0273622
0.099662
0.728059
0.157768
0.0663277
0.0370403
0.0134475
2.09417
0.0332486
0.0230265
0.889647
0.0591359
0.0374765
0.0302018
0.0303946
0.989614
0.0478335
0.0110782
0.273463
0.197187
0.0169906
0.0124125
0.391864
0.0631562
0.00144338
0.0308363
0.242816
0.010673
0.0246958
0.0269512
0.0451959
0.016035
0.0233339
0.721384
0.0132458
0.0454039
0.0736132
0.135064
0.0066272
0.023624
0.402532
0.0394417
0.0139946
0.018444
0.043935
0.0183762
0.0184956
0.53405
4.62646
0.0643593
1.80045
0.0158926
0.0130623
0.0135373
0.00418268
0.0371003
0.00953578
0.138146
0.0454277
0.0124102
0.0124054
0.695586
0.12439
0.0131621
0.226142
0.0322486
0.0219594
0.00652735
0.0628626
0.225854
0.480859
0.963029
1.001
0.00572369
0.0259528
0.002668
0.0650592
0.0270526
4.35361
0.0303044
0.0989866
0.0113092
0.535346
0.0637033
3.28878
0.000523651
0.0136876
0.0132732
3.53576
0.406483
0.18396
0.149627
0.0180751
0.0279301
0.0188909
1.39956
0.00102259
0.0165004
0.637038
0.014282
0.053638
0.0264417
0.00547829
0.140569
0.0284435
0.014263
0.0206185
0.0150375
0.0356167
0.133921
4.20107
0.014554
0.640883
0.0179675
3.90552
0.0133718
0.0452634
0.0134464
0.0119126
0.90324
0.018643
0.0345437
0.0116055
0.0768783
0.0107841
0.0557907
0.049424
1.78302
0.654303
0.0636795
3.35983
0.766971
0.748396
5.22988
0.0272014
0.0126829
0.0139067
0.000256007
0.0194124
0.277931
0.0322502
0.013779
0.226773
0.0344599
0.0320658
0.188273
0.0151142
0.0323486
0.0135959
0.060146
0.288824
3.67084
0.0263178
0.282721
0.402811
0.14966
0.102689
3.25475
3.70156
0.138935
0.00511957
0.0220805
0.000437722
0.0687542
0.0193282
0.487149
0.267643
0.042548
1.00844
0.188394
0.00618317
0.0137468
0.0144451
4.62717
0.339274
0.0140426
0.495138
1.22303
0.177343
0.818073
1.84986e-05
0.0125978
0.207482
0.00114564
0.30906
0.244356
4.91508
1.03833
0.0122877
1.06746
0.00839011
0.00105172
0.18803
0.0340141
0.0387278
0.0142292
0.0219285
0.169513
0.0225717
0.0100138
0.0227418
0.0175912
0.102058
0.0286149
1.63478
0.744062
0.0354003
0.223011
0.0354204
0.707545
0.0286425
0.039783
0.0521283
0.145947
0.0918096
0.00144265
0.0485908
4.18226
0.302428
0.430069
0.0204311
0.195747
0.461287
1.19857
0.315215
0.60202
0.0125653
0.0481119
4.49906
0.00365608
0.0138857
0.0761321
1.68576
0.834633
0.0133515
0.0164534
0.990023
0.0135696
0.460199
0.509768
0.04829
0.0129881
1.57685
0.167127
0.76163
0.023917
0.0116038
0.00354201
0.17806
0.635482
0.0173598
0.0140469
0.0121186
0.399654
0.0138295
0.164659
0.53316
0.0265961
0.0171547
0.192524
0.0268225
0.152009
0.012234
0.132231
0.0259214
0.0120386
0.457533
0.0445683
0.0437152
0.0282294
0.120468
0.147496
3.36005
0.00634327
0.023437
0.0184704
0.664642
0.722454
0.555541
0.00854131
0.301024
0.761097
0.000658103
0.0122791
0.0134456
3.23677
0.0266429
0.778081
0.0315833
0.00157335
0.473104
0.0199081
0.135706
0.174457
0.164602
1.60264
1.61377
4.55306
0.0267109
1.6414
0.612347
0.0507783
0.480801
0.0137612
0.0134149
0.363735
0.0175546
0.0713016
0.106227
0.341689
0.00897702
0.00808818
1.82807
0.0116683
0.0259578
0.670121
0.166726
0.880045
0.0397873
0.086224
3.35766
5.02135
0.580235
0.151285
0.820791
0.0191934
0.00680436
0.171662
0.236631
0.0283472
0.0790404
0.0156458
0.482533
0.0355702
0.324489
0.771958
0.000984961
0.0132969
0.0404992
0.331547
0.733097
0.470789
0.135842
0.064876
0.0743992
0.110686
0.073489
0.273615
0.115851
0.0111661
0.0202169
0.015826
0.00568304
0.215063
3.89382
0.00997456
0.322628
0.0547036
1.0047
0.0349947
0.0143015
0.0136607
0.660696
0.703937
0.0616287
0.132267
0.0144525
0.00905151
0.797283
0.0332264
0.997625
0.668155
1.96649
0.0122344
0.0742035
0.800533
0.0252177
0.0547906
0.033757
2.18867
0.0321132
0.041159
0.938518
0.634319
0.011804
0.0677015
0.0302338
0.0458709
0.0118379
0.010684
0.127082
0.00891033
0.0968378
0.295186
0.64433
0.686136
0.0224086
0.0779141
0.211062
0.00811693
0.12975
0.0189345
0.0190573
3.89546
0.0306059
0.139021
0.0172146
0.013266
0.160107
0.026962
0.0704477
0.00553485
0.444417
0.529112
1.68023
0.0125779
0.578432
0.0145558
0.0889247
0.0257452
0.43208
0.446466
0.0702399
4.59322
0.0120937
4.18647
0.0142723
0.143174
0.0393067
0.0139485
0.0309414
0.350269
0.761717
0.00996421
0.0393547
0.426938
0.0105554
0.0427314
0.0122816
0.0045191
0.0246641
3.60213
0.0448859
0.0181624
1.20798
0.107339
4.56306
0.00542446
0.0464518
0.0127567
0.0239382
0.0611598
0.014318
3.41273
0.0259769
0.199411
0.0113126
0.0740721
0.200029
0.335865
0.0238154
0.0357123
0.042738
0.056613
0.0139035
0.0836681
2.56449
0.0725823
0.113574
0.0138883
0.833177
2.17388
0.083939
0.320359
0.0275552
0.162777
5.26693
4.41409
0.016331
0.0160734
0.0742695
0.61415
0.0674399
0.407182
0.0427916
0.131076
0.597855
0.0116512
0.0331447
0.0270837
0.026558
0.0324843
0.0146726
0.183436
0.0262734
1.86137
0.0265365
0.0134321
0.00853707
0.0261327
0.151854
0.0104365
0.708985
0.262696
0.0176056
0.0407794
0.138299
3.2365
0.0112982
0.0155236
0.0477122
0.0882816
0.0676404
0.0824576
1.8946
0.0127887
0.0276562
0.197615
0.0147679
0.0489346
0.837197
0.0107156
0.0134716
0.00144816
0.0169492
0.369202
0.255288
0.543791
0.0300694
0.0740058
0.0328379
2.52174
2.80482
0.0215141
0.0266875
1.03355
0.0256261
0.0118239
0.74885
0.156016
0.0203711
0.0274646
0.0070622
0.142265
0.333572
0.0191805
0.00921024
0.583394
0.309476
0.0006645
0.0121684
0.0174458
0.0548228
0.103802
0.17507
0.0152225
1.16745
0.0173499
0.0496424
0.0149377
0.137539
0.0123569
3.74052
0.581354
1.99451
0.531659
0.71354
0.0903754
0.0146331
1.90961
0.164318
0.0136553
0.0555584
0.0111959
0.0654076
0.0164092
0.0139151
0.0105397
0.531003
0.0122449
0.0948787
0.797391
0.0186127
0.0862875
0.09191
4.41633
0.00523597
3.7302
3.47417
0.0235589
0.0108786
0.0772383
0.0752905
0.0684914
0.500138
0.313166
0.050607
0.0118811
0.0275292
0.396243
2.63012
0.0336338
0.046934
0.0121159
0.00959051
0.0326923
0.104469
0.0264862
0.0281437
0.0150551
0.166305
0.0319082
0.0694032
2.52081
0.0194097
0.11395
0.0612186
0.164944
0.0949991
0.0749317
0.19649
0.0222972
0.1639
0.265648
0.0167108
0.221115
0.735162
0.0198807
0.040848
0.0515486
0.625214
0.0151021
0.25224
0.036986
0.815244
0.769825
0.292513
0.153045
0.0266166
0.0302429
0.442919
0.47461
0.038794
0.0478045
0.0121583
4.67561
0.0517779
0.0721754
0.00712679
0.0596519
0.162658
0.00933113
0.0128627
0.0102118
0.705858
0.390042
0.0259295
0.0607192
0.0283311
0.0142234
0.0165027
0.713997
0.0560056
0.237018
1.60794
0.176013
0.000577503
0.646589
0.152824
0.687746
0.182644
0.0136205
0.503503
1.62479
0.467185
0.00388757
0.22407
0.0225657
1.18575
0.0510083
0.028578
0.258104
0.647654
3.16645
0.355925
0.0838067
0.0204761
0.462735
0.95894
0.0457837
1.7383
0.056312
0.66587
0.0320249
0.283447
0.0527683
0.0116205
0.0166514
0.405249
0.0116009
0.0206456
0.717637
0.0116242
0.143515
0.00742467
0.0299308
1.08243
0.432121
0.0504841
0.165849
0.801644
0.0614933
0.166636
0.0542831
0.0411108
0.120116
0.015165
0.451706
0.333361
0.00512646
3.36024
0.0382264
0.117201
0.0501213
0.0489362
0.011597
0.105849
0.270519
0.59844
0.00967693
2.5924
0.0197046
0.166744
3.21897
0.0667733
0.0514847
0.745667
0.0355845
0.0187686
0.000175807
0.961234
1.09076
0.0188178
2.10506
0.0717749
0.0171084
0.511805
0.0296128
0.0183063
0.280318
0.0540426
0.0125069
0.0349541
0.0126782
0.0355866
0.057484
0.718868
0.714712
0.0612409
0.0276123
0.0103089
0.302926
2.98579
0.0143558
0.00928071
0.0829264
2.21342
0.0095959
0.367752
0.269756
0.013803
0.150344
2.07242
0.0136743
0.079451
0.0232088
0.058787
0.0148768
0.0167168
0.0446615
0.120275
0.917421
0.00473881
1.67717
0.012658
3.39992
0.032125
0.483938
0.0793576
0.73262
0.156364
0.0273556
0.0999124
0.0588188
0.0423933
0.0403002
0.237718
0.294478
0.0403313
0.0252741
0.0971524
0.046953
0.0192431
0.00714443
3.62527
0.516297
0.305372
1.88659
0.0545907
0.0137585
0.336567
0.0517232
0.147382
0.00490637
0.0417571
0.0116153
0.0367941
0.0157062
0.0348781
0.021468
0.0484881
3.26093
0.446809
0.0304521
0.0961292
0.156181
0.911879
0.0160485
2.6532
0.28814
0.741198
0.0462861
0.332579
0.0136769
0.0575395
0.0477529
0.0396889
0.0290923
0.709243
2.3597
0.0526593
0.0821029
0.728242
0.0840301
0.74689
3.73198
0.0330968
0.00896806
0.0295589
0.0740971
0.361155
0.0130325
0.209025
0.283319
0.0412965
0.0274478
0.0489966
0.171045
0.0558677
0.0110092
0.0350094
0.0153022
0.0517594
0.182516
0.0557399
1.78567
0.0314647
0.0235992
0.0651883
0.0223824
0.0167503
0.781875
0.833655
0.0191384
0.858535
0.0258049
0.629675
0.0453391
0.0598016
0.0135593
0.0135384
0.269074
0.0339767
0.0422211
0.294723
0.645163
0.0294361
0.0275446
0.0245595
0.0504026
0.651079
0.0085708
0.0201434
2.31221
0.0209049
0.0259871
0.0443571
1.37675
0.0207594
0.77961
0.1625
0.00951235
0.232649
0.0449754
0.00515548
3.22887
0.092604
0.0268716
2.31787e-05
0.154396
0.0320936
0.0660838
0.0128562
0.71639
4.21823
0.0202585
0.0104678
0.308978
0.0430433
0.268999
0.495494
0.0321941
0.211221
3.00738
0.0277755
0.332857
0.0356479
0.0305156
0.0562021
0.0140822
0.46642
0.246929
0.0314676
0.0269509
1.20479
0.029861
0.0567589
0.0285401
0.204282
0.555117
0.0139288
0.0162991
0.0268983
0.0181691
0.0138652
0.000329553
0.0179955
0.0580221
3.48381
0.1656
0.0197439
0.563553
0.0403734
0.338259
3.18711
0.759023
0.382946
0.0175066
3.02349e-05
0.163997
0.0589835
0.0273029
0.159168
0.0248335
0.255067
0.599267
0.202965
0.0467318
4.61306
0.0133074
0.749896
0.0181713
0.0150533
0.298418
0.107172
0.327765
0.0248399
0.0136657
0.00886515
0.0482456
0.795774
0.284984
0.0394042
0.376633
0.150772
0.715824
0.0110729
3.02687
0.0316619
0.0253584
0.105004
0.0333728
0.127538
0.43764
0.15442
0.0133757
0.569704
1.08613
0.0391054
0.70229
0.152327
0.0043743
0.11646
0.556199
0.030845
0.0125254
0.0168473
1.61333
0.0211324
0.00800993
0.96031
0.155696
0.0347827
3.10957
0.32056
0.0836849
0.0716886
0.525181
0.0279432
0.135125
0.0120285
0.0336764
0.0142051
3.70792
0.0354088
0.365773
0.801137
0.0132864
0.252944
2.37091
0.0394653
3.33583
0.0110678
0.120653
0.0512513
0.0119209
0.0347044
0.027006
0.0102687
0.043274
0.026714
0.0202872
0.0157554
0.318455
0.153766
0.0179381
0.113558
0.0157614
0.0154369
0.0134115
0.0299755
0.02912
0.920482
0.00704782
0.787543
0.875734
0.833271
0.710432
0.0318708
0.0447481
3.71492
0.0142538
0.188621
0.0304569
0.0152769
0.0616733
3.77847
0.0335193
0.0229523
0.0155036
0.0653233
0.0192704
0.777156
0.128297
0.536593
0.787717
0.0147327
0.0141917
0.128255
0.0317083
0.0351672
0.010207
0.0386948
0.0135296
0.0287656
0.0465409
0.00763263
0.393235
0.970273
0.619749
0.027475
0.0268065
0.299302
0.637823
0.223595
0.0132608
0.0185002
0.185594
0.0104293
0.0140189
0.0220893
0.34147
0.198457
0.013424
0.0182388
0.0316685
0.0116726
0.800064
0.0181205
0.033297
0.0325212
0.0349635
0.242915
0.0291852
1.10733
0.0146585
0.0236186
0.0144916
0.00963029
0.421791
0.0622479
0.0123964
2.13802
0.181867
0.100593
0.00521834
0.0194918
0.583632
2.93476
3.09056
0.0132309
0.381414
0.0277521
0.0286643
3.70527
0.237649
0.0132129
0.00474256
0.354747
0.653516
0.0264134
0.0137506
0.298159
0.0138033
0.0255308
0.0487783
0.0310879
0.130672
0.0281283
0.0220208
0.0267183
0.43333
0.0265772
0.0137113