/*--------------------------------*- C++ -*----------------------------------*\
  =========                 |
  \\      /  F ield         | OpenFOAM: The Open Source CFD Toolbox
   \\    /   O peration     | Website:  https://openfoam.org
    \\  /    A nd           | Version:  10
     \\/     M anipulation  |
\*---------------------------------------------------------------------------*/
FoamFile
{
    format      ascii;
    class       volScalarField;
    location    "500";
    object      nut;
}
// * * * * * * * * * * * * * * * * * * * * * * * * * * * * * * * * * * * * * //

dimensions      [0 2 -1 0 0 0 0];

internalField   nonuniform List<scalar> 
10435
(
9.96973
12.6329
19.2125
20.8571
22.7173
18.091
19.6798
19.939
19.2302
17.774
16.8406
26.1549
17.5313
2.25421
2.333
20.1319
2.2569
15.156
18.8656
12.529
19.9699
21.0638
20.0716
23.915
19.1756
4.27283
3.56797
18.8577
3.06083
16.0866
22.5468
18.5169
19.817
2.70277
21.0695
5.97651
21.7063
3.67887
5.55427
20.4086
15.1062
19.458
2.42158
16.9381
22.0794
22.3184
16.2834
2.78333
18.8003
21.096
19.9987
22.6521
5.21213
3.08118
5.12867
2.99163
22.8324
3.50948
2.2767
21.8365
4.77284
10.2807
3.32944
23.8909
20.9767
18.8192
2.37874
3.01683
19.9854
25.063
3.13835
3.91485
2.12284
19.2855
2.57386
2.17069
25.6394
19.8813
19.6819
2.47417
23.9977
7.59561
4.82449
3.00858
24.9634
4.93541
7.12068
16.468
3.21142
9.37128
18.5139
20.4904
10.0909
3.96449
11.8047
4.41205
22.2533
2.5276
2.17397
23.4928
2.79869
20.6071
5.26795
14.2134
20.3679
18.9826
12.6597
22.7018
25.5818
2.99711
19.2875
20.5176
5.4794
3.94695
22.2077
19.2267
24.5699
6.64872
15.7734
24.8582
25.3415
1.98549
8.77136
2.33182
18.5573
4.38071
23.7507
1.973
23.9906
4.06765
2.06683
17.265
20.1374
2.21531
3.85124
3.31611
3.79374
22.5314
13.5259
17.2118
14.9788
22.1188
2.51936
25.3652
22.6926
2.29964
2.87112
22.156
2.3233
25.9514
2.98061
23.2646
9.74873
25.4011
20.6197
3.37832
19.5203
11.1372
18.9295
13.7496
24.4649
2.1162
19.6969
25.8063
3.07202
24.9314
19.7635
25.0433
26.1349
25.0276
20.2519
2.23356
3.22689
2.41641
26.0494
11.5731
7.98067
2.57779
17.3019
3.05018
14.8567
19.3914
26.1726
4.32283
23.3448
2.47678
2.17163
19.8895
22.8877
24.2944
25.8654
4.392
4.05347
5.19678
20.1744
19.956
2.30382
3.72609
2.6678
20.8044
3.17575
3.45857
18.2896
3.43672
18.6829
21.9072
17.8055
23.9558
3.16905
24.0547
2.86865
19.5492
25.7137
26.1981
3.40689
2.30554
4.00131
3.40485
4.30467
2.10908
2.97429
2.46133
2.73828
2.40095
3.79457
20.4893
4.75033
3.00432
23.0352
2.13548
2.70792
20.091
4.47009
24.4141
3.98422
2.3213
24.1005
4.01819
25.1742
21.3387
14.6925
3.8756
3.02659
3.02518
20.9447
19.459
3.3251
20.1094
2.61865
9.27904
2.80893
4.03459
16.9342
25.1021
20.0733
24.2431
2.4392
20.0251
3.1561
3.20492
19.9422
21.5221
4.12075
25.9553
5.47211
2.50915
12.2513
20.9547
4.05739
22.9526
19.8144
20.13
20.1518
18.594
4.24119
25.5636
3.88974
21.8876
19.8548
20.0313
17.3503
2.42448
19.6886
2.64505
5.42261
3.43193
22.7895
5.10372
2.92256
2.85416
2.65838
15.6562
3.0059
20.1673
5.70734
3.14078
2.26385
7.51767
20.9642
20.3939
2.86317
25.7807
19.5609
2.82265
19.8739
2.35942
2.38922
25.3282
19.4595
2.8269
15.1029
3.57944
7.06895
22.5578
19.8168
3.05807
3.90036
24.4078
2.83015
25.7748
19.8459
3.25137
7.38187
3.99097
19.8774
18.0157
4.2683
19.3549
2.62524
3.73741
20.5246
2.66777
2.73134
19.5257
25.4573
3.309
2.9605
2.73996
2.56154
3.088
4.23459
3.67839
4.49067
3.25352
3.11713
3.29002
3.12211
4.03582
3.62599
19.571
2.64008
18.2246
3.49501
19.0273
19.6876
18.6715
17.9179
19.9818
3.05863
2.8416
2.82037
4.47733
2.99825
3.74358
3.27194
4.1686
3.2178
26.2834
4.07641
19.2462
4.76944
4.14972
17.6162
18.199
3.09265
3.64624
3.49276
3.79867
2.94179
4.18575
4.36279
4.79123
19.873
2.93727
20.0808
19.422
18.6101
18.1713
19.1012
19.2405
20.3926
2.18804
2.5463
3.02948
3.0716
19.4369
3.01579
17.2757
4.28586
3.15794
4.10637
2.8336
3.48961
19.6869
3.68034
20.0005
25.9
2.70894
4.17816
4.1264
18.1638
4.27411
4.14041
3.59453
2.9872
3.03378
3.16064
19.1347
3.13583
4.03729
3.1098
2.45288
16.2728
2.53413
2.97901
17.6463
2.7386
109.528
107.408
103.104
97.3771
90.6591
83.2988
75.5542
67.7166
60.1561
113.517
111.747
108.085
103.041
97.0164
90.3491
83.3565
76.4159
70.0618
115.514
114.083
111.038
106.723
101.464
95.5772
89.4045
83.3687
78.0566
115.303
114.189
111.732
108.159
103.708
98.6591
93.3548
88.241
83.9401
112.725
111.897
109.979
107.114
103.459
99.2541
94.8275
90.6392
87.3865
107.76
107.181
105.718
103.473
100.542
97.1242
93.5249
90.2009
87.8862
100.613
100.232
99.1092
97.3478
95.0083
92.2601
89.3788
86.7925
85.1863
91.7918
91.4976
90.5702
89.1249
87.2094
84.9719
82.6587
80.6573
79.5603
81.9752
81.6204
80.7341
79.4387
77.7799
75.8879
73.9816
72.4157
71.739
71.8119
71.2832
70.3217
69.0555
67.5271
65.8445
64.1992
62.9144
62.5282
61.7929
61.061
59.9966
58.7205
57.2648
55.7117
54.2228
53.0777
52.7524
52.2037
51.3615
50.2784
49.0391
47.6652
46.2206
44.8411
43.7607
43.3741
43.1213
42.4703
41.538
40.428
39.1787
37.8551
36.5795
35.5467
35.0688
35.0001
34.7107
34.044
33.1224
32.024
30.8319
29.6646
28.6867
28.1395
28.3907
28.3812
27.9411
27.184
26.219
25.1457
24.0796
23.1628
22.5972
23.4733
23.5304
23.1814
22.5092
21.6284
20.642
19.6568
18.7909
18.1946
19.975
19.9219
19.5382
18.8727
18.0261
17.0931
16.1681
15.3474
14.7389
17.357
17.1654
16.6989
16.0025
15.1626
14.263
13.3846
12.608
12.0216
15.1826
14.9058
14.3757
13.6542
12.8215
11.9529
11.1177
10.3823
9.81726
13.2289
12.9263
12.3762
11.6582
10.8509
10.0243
9.23865
8.5474
8.00119
11.4293
11.1409
10.6101
9.92616
9.16663
8.39785
7.67319
7.03654
6.52845
9.80085
9.54615
9.05829
8.42899
7.73435
7.03688
6.38306
5.80792
5.34185
8.39361
8.17279
7.73343
7.16642
6.54496
5.92636
5.34924
4.8397
4.41877
7.25996
7.05008
6.64767
6.14004
5.59179
5.05374
4.55462
4.11128
3.73747
6.44046
6.18508
5.79862
5.34349
4.86239
4.40159
3.97815
3.59759
3.27049
2.02549
2.04373
2.08886
2.16325
2.2688
2.40661
2.5773
2.78089
3.01728
3.28601
3.58667
3.91865
4.28103
4.67281
5.09235
5.53762
6.00613
6.49474
6.99977
7.51698
8.0414
8.56768
9.09012
9.6028
10.1002
10.5839
11.0552
11.5135
11.9579
12.3925
12.8208
13.2447
13.6671
14.0939
14.5338
14.9983
15.5018
16.0636
16.7085
17.4688
18.3862
19.5154
20.9269
22.7111
24.979
27.8586
31.4857
35.9866
41.4485
47.8886
55.2204
63.2345
71.6038
79.9066
87.6892
94.5194
100.051
104.047
106.449
1.98741
2.00592
2.05022
2.12264
2.22492
2.35822
2.5232
2.72014
2.94906
3.20989
3.50242
3.82633
4.18105
4.56557
4.97792
5.41578
5.87649
6.35761
6.85591
7.36748
7.88777
8.41178
8.93432
9.45032
9.95531
10.4465
10.9229
11.3849
11.8344
12.2746
12.7083
13.1381
13.5681
14.0041
14.4545
14.9305
15.4468
16.0225
16.6823
17.4584
18.3925
19.5389
20.9679
22.7683
25.0473
27.9264
31.5312
35.9727
41.3217
47.5772
54.6371
62.2882
70.2186
78.049
85.3777
91.8291
97.0958
100.961
103.355
1.92912
1.94739
1.99011
2.05932
2.15659
2.28303
2.43932
2.62586
2.84288
3.0905
3.36877
3.67758
4.01661
4.38519
4.78212
5.20564
5.65346
6.12286
6.61055
7.1127
7.62491
8.14235
8.65996
9.17283
9.67664
10.1684
10.6467
11.1114
11.564
12.0071
12.4439
12.8781
13.315
13.7612
14.2263
14.7222
15.2647
15.8739
16.5755
17.4026
18.397
19.6123
21.1151
22.9864
25.3198
28.2163
31.7745
36.0744
41.1571
47.003
53.5141
60.5077
67.724
74.849
81.5474
87.5006
92.4399
96.1667
98.5999
1.84053
1.85824
1.89905
1.96479
2.05688
2.17631
2.32375
2.49963
2.70427
2.93791
3.20074
3.49285
3.81413
4.16419
4.54217
4.94672
5.376
5.82752
6.2982
6.78439
7.28188
7.7861
8.29226
8.7957
9.29229
9.77892
10.2537
10.7163
11.1678
11.6106
12.0483
12.4859
12.9297
13.3882
13.8722
14.3954
14.9751
15.6329
16.3952
17.2951
18.3726
19.6764
21.2642
23.2021
25.5624
28.4188
31.838
35.8697
40.5331
45.8035
51.6017
57.7888
64.1678
70.4942
76.4961
81.9038
86.4795
90.0361
92.483
1.72699
1.74396
1.78259
1.84457
1.93124
2.04356
2.18217
2.34752
2.53993
2.75967
3.00698
3.282
3.58476
3.91504
4.27218
4.65521
5.06261
5.49225
5.94138
6.40666
6.88425
7.36989
7.85914
8.34768
8.83159
9.30785
9.77448
10.2309
10.6781
11.1185
11.5562
11.9972
12.4493
12.9226
13.4297
13.986
14.6105
15.3253
16.1568
17.1353
18.2956
19.677
21.3229
23.2799
25.5961
28.3181
31.4868
35.1314
39.2622
43.8617
48.8764
54.2099
59.7215
65.2292
70.5212
75.3746
79.5793
82.9571
85.4047
1.58882
1.60433
1.64
1.69744
1.77793
1.88242
2.01154
2.1657
2.34523
2.55039
2.78141
3.03848
3.32168
3.6309
3.96572
4.32531
4.70847
5.11345
5.53787
5.9788
6.43279
6.89599
7.36439
7.83403
8.30127
8.76326
9.21807
9.66514
10.1055
10.5418
10.9789
11.4237
11.8854
12.3758
12.9089
13.5017
14.1732
14.9451
15.8406
16.8842
18.101
19.5166
21.1566
23.0469
25.2134
27.6823
30.4785
33.6236
37.1311
41.0003
45.2078
49.6991
54.3829
59.1282
63.7694
68.12
71.9912
75.2123
77.6704
1.42529
1.43823
1.46973
1.52127
1.59417
1.68935
1.80742
1.94884
2.11391
2.3029
2.51606
2.7536
3.01567
3.30228
3.61323
3.94796
4.30544
4.68423
5.08231
5.49712
5.92562
6.36442
6.80999
7.25875
7.70742
8.15341
8.59496
9.03165
9.46464
9.89717
10.3348
10.7855
11.26
11.7711
12.3338
12.965
13.6825
14.5044
15.4475
16.5262
17.7521
19.1348
20.6821
22.4026
24.3068
26.4094
28.7302
31.2933
34.1235
37.2407
40.6513
44.3382
48.252
52.3041
56.3666
60.2813
63.8759
66.9836
69.481
1.23039
1.23864
1.26363
1.30695
1.36975
1.45305
1.55754
1.68367
1.83182
2.00231
2.19539
2.41129
2.65026
2.91251
3.19816
3.50707
3.83862
4.19144
4.56356
4.95256
5.35584
5.77058
6.1939
6.62279
7.0543
7.48625
7.91698
8.34619
8.77522
9.20806
9.65151
10.1149
10.6101
11.1501
11.7489
12.4219
13.1827
14.041
15.0027
16.0681
17.2342
18.4948
19.8445
21.2815
22.8102
24.4426
26.2014
28.1176
30.231
32.5844
35.2146
38.1407
41.3516
44.796
48.3774
51.9569
55.3695
58.445
61.0446
0.992328
0.991694
1.00588
1.03658
1.08527
1.1529
1.2401
1.34722
1.47541
1.62557
1.79697
1.98972
2.20392
2.44028
2.70001
2.98362
3.29219
3.62436
3.97569
4.3433
4.72562
5.12104
5.52767
5.94356
6.36654
6.79492
7.2265
7.66087
8.09975
8.54846
9.01644
9.51455
10.0542
10.6458
11.2986
12.026
12.8336
13.7073
14.6385
15.616
16.6249
17.6479
18.6711
19.6964
20.7336
21.7947
22.9086
24.1125
25.4555
27.001
28.822
30.9863
33.5315
36.4512
39.6808
43.0968
46.5162
49.7391
52.5853
3.39393
3.28572
3.21712
3.16956
3.13513
3.10998
3.09127
3.07626
3.06401
3.05555
3.05205
3.04743
3.03148
2.99616
2.93675
2.85501
2.75559
2.64359
2.52467
2.40521
2.2924
2.19324
2.11181
2.04969
2.01048
3.19803
3.18489
3.15458
3.12328
3.09597
3.07375
3.05611
3.04221
3.03205
3.02587
3.02157
3.01274
2.9908
2.94891
2.88456
2.79957
2.69805
2.58516
2.46676
2.34912
2.23892
2.14279
2.06604
2.01199
1.98278
3.09253
3.08583
3.06664
3.04317
3.0202
3.00004
2.98352
2.97092
2.96246
2.95734
2.95222
2.9409
2.916
2.87162
2.80524
2.71803
2.61366
2.49793
2.37753
2.25972
2.15177
2.06006
1.9895
1.94328
1.92199
2.99798
2.9837
2.96377
2.94139
2.91946
2.89999
2.88412
2.87246
2.86503
2.86033
2.85455
2.84173
2.81521
2.76952
2.70193
2.61305
2.5059
2.38739
2.26511
2.14745
2.04211
1.95519
1.89057
1.85014
1.83299
2.90059
2.87664
2.85138
2.82624
2.80286
2.78263
2.76649
2.75494
2.74762
2.74262
2.73594
2.72184
2.69406
2.64734
2.57873
2.48831
2.37906
2.25842
2.13531
2.01858
1.91626
1.83369
1.77325
1.73577
1.71974
2.7982
2.76426
2.73208
2.70244
2.67618
2.65407
2.63669
2.62426
2.61609
2.60998
2.60191
2.58634
2.55723
2.50941
2.43977
2.34798
2.23729
2.11554
1.99249
1.87748
1.77816
1.6988
1.64017
1.60258
1.58409
2.69096
2.64735
2.60826
2.57377
2.54406
2.51936
2.49991
2.4857
2.47581
2.46785
2.45783
2.44036
2.40954
2.36023
2.28927
2.19612
2.08443
1.96233
1.84009
1.7271
1.63017
1.5521
1.4928
1.45114
1.42584
2.57748
2.527
2.48259
2.44389
2.41075
2.38312
2.36105
2.34448
2.33239
2.32213
2.30976
2.28992
2.25671
2.20514
2.13213
2.03722
1.92448
1.80227
1.68107
1.56985
1.47424
1.395
1.33206
1.28085
1.24168
2.46048
2.40711
2.35935
2.31727
2.28095
2.25044
2.22568
2.20692
2.19316
2.18101
2.16661
2.14426
2.10756
2.05236
1.97575
1.87778
1.76299
1.63997
1.51897
1.40844
1.31227
1.23022
1.15919
1.0908
1.02527
17.1029
17.4107
0.125149
3.0882
1.12245
1.26591
2.39484
3.61844
0.13265
23.7194
0.200157
3.1976
16.9575
1.41623
6.46647
1.24478
0.258703
3.66909
37.0724
0.202701
13.9164
4.76112
0.28999
3.40474
4.32524
2.4676
4.28828
0.784303
25.027
0.293781
74.9916
1.97776
0.231171
16.4401
0.300266
1.10346
12.4757
6.23362
15.6932
7.26863
0.213498
0.0655115
3.39784
1.51764
2.37441
11.7585
0.201404
0.176946
13.1445
0.14722
0.198997
0.162103
16.4964
4.16246
2.47236
0.128313
1.80892
15.8965
2.11304
0.129956
0.797784
0.124396
1.13761
3.36218
3.53242
1.85919
23.8222
2.65445
16.7562
0.097008
0.126088
6.49389
1.89916
0.242801
3.95954
14.4632
0.721667
0.204329
2.80174
4.70631
16.2322
1.02388
3.13376
0.184378
0.969983
0.884941
2.24939
0.20364
0.234269
7.95217
2.97839
20.9092
5.92864
3.19308
1.49018
0.203177
2.3674
0.192652
0.30755
0.136901
1.03219
0.216983
1.04699
7.92207
2.36069
1.94141
0.289057
16.0968
0.810219
0.288694
4.43533
2.56361
0.288849
7.92929
16.5248
13.7783
0.171088
8.26454
17.4092
2.47789
0.0487964
2.80248
3.47097
4.23657
0.238537
3.26356
0.168622
0.479798
5.66738
0.178295
3.16168
0.27485
0.0936692
18.2238
1.35712
2.23082
2.31309
0.948132
0.718878
0.166034
6.59531
13.7848
0.108155
0.0636677
21.5942
1.56896
2.42123
4.18851
1.15877
0.3008
2.12485
3.46136
2.49757
9.21131
4.59271
0.182842
2.91935
6.92974
1.81814
4.51785
3.12737
0.13106
3.03535
0.19498
3.2178
0.189669
1.81022
4.26509
2.40639
2.64644
1.41626
3.82982
2.39408
0.186546
40.9037
1.62024
12.8047
5.85335
10.2205
6.51543
14.5144
1.72407
16.8311
12.2575
2.25603
0.866552
0.191901
0.795533
0.165327
0.864687
0.147739
0.103502
8.87537
13.3043
6.68583
0.189262
4.09454
4.53562
17.6157
22.1285
16.5524
4.55094
0.954771
0.802941
1.99916
7.88299
21.6212
0.956345
2.62532
7.86015
2.4176
2.814
15.4909
2.0857
3.12225
0.230809
1.43131
2.67944
8.09872
6.13346
0.538863
0.100492
4.58858
0.121366
5.36049
0.17928
5.73582
0.249834
0.703595
1.62783
0.180066
1.08356
1.54767
2.57376
14.8492
15.1196
3.80047
0.604355
12.1593
7.04025
79.3095
0.829318
2.98782
1.60391
2.0701
2.54763
2.53492
2.59297
1.28073
2.97545
0.568562
1.75053
28.9569
11.0225
1.28709
3.92882
0.291576
0.957852
2.31661
41.366
1.98715
5.93377
1.3483
4.59708
0.32538
4.0683
5.46261
1.76021
2.22406
4.23848
12.4253
9.12896
0.405029
2.43745
28.5462
1.72185
16.6995
0.160359
2.32286
0.146669
2.15292
2.33858
2.95666
11.4188
11.038
0.679166
1.90478
6.07769
0.215336
0.154882
3.31176
3.08403
0.0168665
0.209329
18.7678
0.234279
0.281899
28.6174
4.80147
4.45062
0.127777
3.09832
3.56282
0.840846
0.259715
3.71006
13.6552
53.0474
0.168718
0.935243
6.88206
11.9655
0.196331
5.32858
0.351345
14.425
0.204414
23.5067
4.23984
22.8624
1.76128
3.20138
3.37332
69.5959
2.03468
3.93258
0.16317
16.055
32.3499
15.509
3.34098
6.49694
0.51887
19.4323
0.198182
0.924385
2.81084
3.0101
0.241325
2.2106
2.70553
3.27365
2.38476
14.8829
0.392559
1.44274
1.06275
0.822496
2.38582
0.1955
5.68957
5.6424
0.120703
2.46074
0.211223
5.14864
24.8308
1.36951
2.85155
0.197019
0.536526
0.291868
3.18014
0.172338
0.0786738
2.57499
2.3427
0.206174
1.67559
0.158104
12.2501
9.70062
23.2866
0.175898
16.9274
3.75711
3.60818
4.11647
3.84472
18.3969
0.27907
3.1216
0.234054
1.65573
1.46857
21.815
3.33032
0.211903
0.219126
0.147266
1.49335
6.96462
4.20786
0.161063
13.912
31.6046
3.39073
0.219688
6.30021
24.1086
3.60071
3.60663
1.00397
0.632947
3.28571
0.10504
3.56828
3.66568
6.41458
73.6693
2.07153
1.43388
6.50714
0.753784
3.03987
4.21328
12.6764
0.195899
4.35526
19.9485
3.30079
4.12951
6.31825
0.988092
2.71623
0.165758
0.156724
3.99119
68.1256
2.05732
0.791595
3.73392
8.41571
2.65515
2.75206
2.20554
4.54579
0.0216889
0.861043
3.1294
4.52957
7.40701
0.216937
1.91066
16.602
0.181479
0.678142
0.302261
2.39414
2.98635
0.166833
2.73692
2.90147
8.43751
14.1316
0.0836174
0.194585
0.805885
2.81128
0.876725
3.25583
2.33496
3.61699
15.7094
0.154032
3.17711
2.11878
0.122422
4.26268
0.224473
2.94751
2.95974
0.296824
3.24843
4.12783
16.4664
11.5711
3.21479
4.68239
6.75872
2.95234
14.3196
0.118225
3.25072
0.182617
1.10292
0.908895
6.4186
4.7846
6.40207
7.34583
2.27594
3.85381
0.149734
1.79979
1.43544
7.34138
0.669464
5.08426
0.151684
3.28551
2.97625
0.992827
1.31226
13.3819
16.5142
0.766982
0.923302
3.25328
2.36638
3.564
16.2219
39.0187
12.4714
0.794737
0.20708
0.253019
12.157
3.83961
1.64003
11.7645
0.156074
0.195418
0.80345
16.5121
8.26229
0.158607
0.242056
8.15621
4.26389
1.52619
7.36244
1.23157
0.109567
2.31647
3.23047
3.64621
6.11713
13.2309
2.25593
22.4553
0.285909
4.41574
0.282007
0.151363
0.123924
2.77385
0.511754
0.689152
0.168293
12.8416
12.6863
5.77102
6.2777
11.366
0.204871
4.62866
10.4748
17.3729
0.128926
65.6906
17.2433
3.68571
16.6962
0.298426
32.0625
1.75665
2.26512
2.14682
1.74562
0.206406
8.02892
8.59054
1.80336
1.14443
0.282998
0.198281
0.0584081
0.550735
1.66126
0.146281
17.1649
4.28238
10.3461
3.46737
0.212324
4.06224
1.24041
22.721
4.40133
1.66221
1.1506
3.42435
9.53281
10.6495
2.04481
16.383
11.504
1.1105
1.75743
1.50522
0.71099
0.120467
3.79253
0.558887
1.20676
0.709153
40.6214
5.94153
2.68361
3.40823
14.5459
2.75014
2.29231
1.67534
15.4046
3.32233
1.13063
0.130472
4.04053
3.54929
3.17367
17.1223
2.62979
3.23138
0.216565
0.198763
0.757282
0.19443
2.99655
4.12392
3.22837
0.424488
1.63244
2.30196
14.142
5.25933
4.47698
3.96303
8.36226
1.8048
0.70905
1.76259
4.18272
1.21018
1.94629
2.44688
2.7205
0.277353
9.21812
2.81514
0.876544
23.1192
0.110679
8.40595
45.8186
0.198456
45.1121
10.1737
2.35569
0.0708768
5.55291
0.191006
0.026064
3.2013
3.54541
0.274176
0.164173
1.65134
16.8513
3.19049
20.5631
1.0239
0.112094
0.0989338
2.98663
16.4983
1.30964
12.9898
17.666
0.382332
15.7094
3.40892
2.97124
5.27812
0.566427
3.91796
19.7391
0.283292
2.27906
4.13793
4.03441
0.225691
3.3308
11.8914
2.8324
2.35866
23.0478
0.676607
3.73689
2.09329
2.70602
1.41469
6.73109
7.59312
0.127791
7.72131
2.22203
0.174234
4.89298
2.74535
0.300789
29.5432
2.97763
3.37478
0.124298
2.10688
2.02461
1.2465
1.51866
17.1765
20.7189
76.1241
1.90837
2.59595
55.6355
3.38505
2.34807
16.1067
0.276523
17.2648
3.04054
1.63244
10.807
9.79098
0.239041
0.212325
1.23313
2.69099
1.06196
0.0516824
2.96619
2.86967
17.5859
10.8434
14.3232
1.01107
2.24389
3.53119
3.47403
1.10068
0.198354
0.139052
2.90362
1.83957
10.7046
16.4383
0.0977984
0.0602049
3.02245
2.08809
0.13464
13.4515
7.58454
0.2956
9.48602
3.66159
9.63887
1.41282
0.162638
1.80391
1.5687
0.983658
4.22061
3.48389
1.76788
0.999168
2.52232
3.2597
1.76889
1.8892
5.68858
0.127085
5.03613
4.29551
4.92239
3.57621
0.172059
1.15467
19.2806
11.279
10.1592
2.8345
0.167364
7.33695
0.196547
0.151275
3.82454
0.704578
5.9093
17.5212
8.24178
0.154285
16.4518
1.73077
14.8122
0.281758
0.230993
3.66924
2.60555
0.190139
0.124592
1.64872
0.953604
0.14581
3.43149
0.121906
0.460693
6.88994
1.51392
0.156784
18.0396
11.5837
3.33158
3.79044
0.351999
6.8868
12.072
2.6984
3.71173
1.2252
4.13714
2.82832
1.58663
5.70069
18.2824
2.87213
0.286174
13.5745
13.6335
2.11623
10.0836
8.11717
4.2488
17.3788
6.19191
15.6615
5.16809
2.00444
13.125
0.199232
1.77395
6.99457
2.76492
7.84094
0.166764
0.120866
1.69298
16.3578
5.80795
0.0696033
3.42228
0.815361
0.179452
7.11609
0.181867
1.66801
0.120887
9.33946
1.02821
0.689646
0.874531
4.6896
0.121014
0.123954
0.198638
12.6785
0.185771
10.0082
13.7534
2.7083
1.47148
0.813229
0.580543
0.701574
6.57762
8.44122
0.142773
5.35423
4.62829
0.19941
2.27325
0.850934
8.30808
12.7515
22.4639
13.1191
2.06567
0.172519
0.298872
19.1487
14.4017
0.197088
2.45546
0.84924
1.83206
10.7549
22.0804
3.98057
3.08347
0.689027
1.78837
3.66319
13.6294
0.0619103
0.969219
11.5476
9.09896
20.3149
0.0726903
17.419
6.0019
0.775866
1.69601
4.37068
12.7763
15.953
3.35425
0.720429
0.797421
0.967177
6.4119
0.228598
1.16763
6.04952
12.9272
4.4943
19.3561
1.34551
3.70313
0.113498
0.0870904
0.71296
11.7637
2.3781
1.04145
3.39713
73.9757
24.26
19.0728
0.19456
2.35698
3.14995
3.06047
1.06097
3.55323
0.965816
0.206999
15.7184
0.947235
4.88419
3.77165
2.07578
3.55502
56.076
6.49179
1.68417
0.890986
14.3634
0.950738
1.78414
9.42511
0.188861
0.114225
3.27454
1.9131
2.81534
4.42334
22.7483
1.15502
0.674606
0.278311
1.48116
1.52688
2.56483
4.12526
6.21838
13.6041
3.62401
0.47791
1.88835
1.93021
0.176209
4.5787
3.48313
2.31954
2.36499
1.41979
0.133172
13.0359
2.62246
0.27821
2.81262
0.197042
1.17474
11.9589
1.40865
3.6401
13.9148
3.6973
5.54408
1.94308
10.25
0.439258
3.64132
17.4537
4.42723
0.397469
2.41769
0.180984
2.38975
2.15585
10.6406
1.55737
0.198627
0.786711
12.5017
1.42843
4.74628
3.39862
0.813481
0.270185
4.92027
1.42821
3.71564
3.59517
1.50596
3.98073
3.57583
9.22265
13.5447
3.13275
3.82738
3.73744
0.150119
4.50067
8.11885
2.37465
3.47043
0.208195
1.3983
1.02715
1.17188
9.56158
0.29331
0.197652
0.822076
0.79313
1.78047
0.0789413
5.85885
0.125268
5.25948
1.50371
2.92523
2.54319
6.6994
1.07084
14.5208
73.7529
4.20688
14.5631
22.3442
0.200363
8.86862
1.70162
0.984886
20.951
15.6596
2.94713
0.174251
12.9593
1.03643
2.71502
15.5223
0.186433
3.56309
3.69213
6.94385
3.79377
5.15494
1.68887
0.134596
2.4564
10.1127
17.0378
1.03255
1.94353
4.14068
2.2237
2.50733
0.160681
0.551771
12.9833
0.184415
3.226
9.62842
1.46205
80.8731
0.214283
0.21748
2.80007
11.5968
1.19094
7.20719
1.64855
16.9706
19.1984
3.3614
10.2598
4.00335
1.32897
6.24459
3.23044
5.43679
10.2428
5.10821
0.139772
1.5686
3.08271
12.3971
1.70904
16.8332
1.98358
7.26274
0.728385
12.7889
1.17646
14.9601
1.27145
0.228135
4.2234
0.194422
12.2395
20.2834
2.50561
2.31586
0.179528
15.0193
3.27624
3.45115
1.31916
1.54479
2.67901
1.35572
3.08122
0.132322
3.54141
1.34913
3.55788
0.642693
1.91872
2.10595
0.197567
0.60366
0.220417
0.196273
0.923223
0.923469
2.30864
2.53116
3.02345
4.66917
0.150866
11.508
4.1931
10.4287
9.27127
0.213658
1.42911
9.0957
3.42793
3.114
1.13096
1.11996
13.0981
0.857572
1.33079
0.423135
4.53572
2.13693
0.196334
1.11008
2.26294
2.4986
0.868661
1.71038
3.64651
17.6409
3.35311
0.389837
7.78765
0.956935
2.65624
5.50366
3.13908
1.02525
12.4015
9.02351
2.47558
16.6007
8.13199
3.87255
0.162972
0.451167
2.84683
3.55486
0.905317
0.52732
3.96816
1.68096
5.90875
3.16161
0.270203
13.4747
2.08747
3.43377
7.81975
1.75329
3.01504
2.01617
3.4254
0.0852702
0.457926
30.6138
10.0118
63.7222
2.53909
0.835663
12.0038
10.3925
5.85126
0.186631
1.51798
0.108352
2.49936
22.8157
0.177097
1.80285
1.69481
18.4847
0.162086
0.224896
0.438147
7.85544
3.76241
0.140565
6.17527
16.8008
16.5966
7.58693
0.17642
16.3563
1.31117
2.99483
1.98701
0.129115
5.19627
0.166518
5.52697
0.182965
8.71838
0.143825
1.87689
2.36064
1.01263
0.304693
3.66258
2.5405
0.141983
2.4764
15.4508
1.30828
3.34955
25.2028
1.68995
9.45121
16.4347
6.09107
5.30919
13.9818
5.35584
14.5785
1.67827
2.95549
0.24414
16.4563
2.41356
0.23992
18.1763
14.2204
5.38977
10.5623
1.09305
14.7038
3.11259
7.80493
0.996855
0.152586
3.20045
14.374
0.201814
1.96228
5.74146
20.9172
4.16917
3.16901
0.0115342
4.11344
0.140685
0.757154
0.209748
2.05656
0.913065
13.4876
4.22465
2.97433
16.431
11.2595
2.7325
5.07784
2.98902
4.0298
12.1521
0.339947
0.0907503
5.21377
8.05188
1.84285
16.4844
0.175909
1.14921
6.15175
1.58449
0.211147
6.03027
12.0789
16.5092
3.5904
14.7794
0.186188
1.51033
5.34004
6.07537
5.46008
1.22376
2.79807
1.76197
1.19248
0.120849
0.230927
0.178699
4.49389
0.195364
3.39521
9.84193
2.42803
0.148667
2.30912
0.995093
3.16421
3.79026
5.38806
2.24068
2.16426
7.16955
9.10558
3.04851
2.10288
6.3237
3.05096
1.12823
0.248132
0.133362
0.689954
0.188728
7.19795
3.33214
16.7418
3.34767
7.20539
0.458212
1.10393
2.50278
23.2204
0.893793
32.6006
0.769946
2.15716
0.266063
0.066068
11.6594
2.06752
5.75136
0.128221
2.11156
0.231845
8.12414
0.112202
6.27154
0.587072
2.99063
9.21711
5.967
1.10556
48.0403
14.2409
0.221507
11.0544
1.1565
0.144639
1.79056
0.104427
0.178394
30.7137
3.85415
8.80339
1.36612
16.6921
3.64102
0.0949762
1.98259
4.68731
0.695412
4.31835
1.69103
4.43437
1.37272
4.76577
1.18113
6.1366
14.7409
11.5948
0.182259
1.27164
3.51691
3.1033
0.62104
2.99025
0.119841
0.115472
1.92711
0.110562
17.7739
3.09209
6.30251
5.88603
1.75605
2.94248
1.7171
9.92972
4.00247
0.899198
14.4228
69.2155
9.65428
7.75813
6.31516
2.45184
0.992598
3.07988
0.216939
0.747614
14.6868
6.18772
0.169179
0.669378
0.0972802
2.69816
5.27986
0.215416
5.7534
0.494578
0.24896
3.53439
23.3105
0.00225504
16.07
1.02126
5.59942
4.39137
5.80468
0.265454
1.00794
2.44386
9.72386
12.8776
6.2855
17.9371
3.85937
1.99621
0.179329
54.8786
16.6642
4.42205
1.72743
7.62941
1.31341
0.161623
11.2826
3.61269
13.14
0.135486
4.27796
4.0515
3.28818
1.47056
14.504
3.51612
1.16294
11.9281
3.15078
3.39291
0.0338391
0.598652
9.74145
0.255759
16.0672
0.938042
18.4178
1.65128
3.78315
0.179486
0.165684
1.54353
4.32375
0.00195404
15.3625
8.5306
3.08944
10.1228
1.48606
0.199717
0.0757011
17.454
6.00025
0.198914
3.01198
0.0878031
1.09367
3.43623
0.493173
1.46798
4.5298
3.5936
3.61257
3.8768
7.17951
7.0602
5.60374
4.17327
12.9249
1.90583
0.0961766
2.54889
0.238845
4.01846
8.00449
1.62855
7.60644
14.7764
0.557525
9.16803
2.4791
1.08158
7.38418
5.34409
0.173149
3.06706
0.528326
9.16677
0.0924333
63.4146
1.03735
1.12549
0.173723
3.28215
3.75139
6.00365
12.7219
0.516153
0.224394
15.9642
2.60176
1.11001
2.84075
0.793609
7.95021
1.36059
3.99871
2.03003
0.269686
1.32336
11.4707
0.104627
4.45049
1.52548
0.198067
4.61849
0.190686
2.80284
6.8895
3.78485
3.81568
1.40117
13.3052
1.87017
10.8351
5.24194
0.940702
3.05363
0.0676705
11.199
0.754748
5.62125
1.16189
0.835446
1.78585
3.2784
1.51329
5.57681
3.81863
21.3297
0.122201
4.32337
0.540963
5.0075
5.94792
0.223346
2.56616
1.73969
4.09713
3.33339
4.23566
0.190218
5.66775
6.76713
1.12128
1.43585
0.506562
3.66899
1.67698
16.4812
6.2763
1.97147
3.01095
2.41637
41.3193
1.21723
2.86512
0.874007
3.08655
68.6037
6.54774
3.66919
2.49808
0.127367
19.1568
0.660399
14.6109
3.22618
0.114794
4.47455
2.77393
2.34559
1.36211
3.03242
3.7819
0.594835
8.30591
1.86746
1.84768
3.14546
3.68799
2.58747
0.106953
3.11761
3.84253
0.86918
22.0132
0.506577
5.61184
8.75704
4.43156
0.855228
2.70135
1.02676
0.116089
1.81972
1.37975
0.191852
8.27936
1.30653
3.09833
3.2163
8.00103
0.240316
0.220507
2.49782
0.390254
5.9519
22.2245
0.265243
8.46536
4.41747
0.547373
2.42417
2.36333
17.8774
3.60856
1.71175
1.69232
4.90687
3.88291
6.70804
2.03362
7.24449
3.14064
4.78769
11.0372
32.8326
3.1631
1.16874
13.0382
2.27517
1.60789
15.1247
3.17032
1.63071
5.24415
4.39113
64.0787
5.34004
4.066
0.852683
11.9025
6.39454
1.57412
5.1748
3.82034
2.03807
3.48743
4.42522
0.229959
1.01654
4.25308
0.169808
9.85562
0.0130684
4.19404
4.96546
0.169095
4.75242
1.99358
3.92901
20.518
7.98882
0.856884
2.95535
0.159879
0.152773
3.82481
0.415763
6.71549
4.8609
0.0298183
0.216093
3.40808
19.1393
2.94331
0.106506
1.39724
10.788
0.192887
0.194751
4.83751
0.183838
3.53345
3.92644
2.02351
0.0908357
3.56252
2.48229
1.98417
0.18397
10.7898
7.56176
0.219652
2.80418
3.47823
1.00354
1.82018
3.5856
5.07847
2.85498
16.1123
10.9565
4.4654
5.44122
0.621801
2.54721
9.53927
0.182522
1.86508
3.43372
5.31648
0.144826
5.19423
2.89434
0.147685
5.02555
0.106768
3.08325
2.50933
1.91997
0.321228
0.980543
5.64437
3.47723
3.8499
5.23822
7.35743
0.135516
2.97507
16.3553
0.4883
0.794953
0.130858
6.02274
2.53567
6.90632
4.26318
1.69745
3.59086
16.5774
19.367
2.73196
3.16804
2.45949
9.08588
1.16673
3.83483
1.39488
1.0224
10.4583
11.6472
17.4188
0.739121
15.0016
6.73618
0.0906599
7.66437
17.7032
5.70194
1.80206
1.03675
2.72435
1.83395
0.968292
4.63143
8.49977
0.162178
0.164485
3.3615
1.28049
0.00409153
3.7385
4.87422
2.88404
2.1304
0.206351
6.46842
0.186406
2.94984
0.181352
5.54939
2.73932
2.29251
21.1967
0.448767
3.78724
0.118637
3.33976
3.38904
2.63633
0.195475
7.67853
0.696177
3.69088
5.4772
4.81007
3.03802
1.57598
1.94414
1.04576
4.09624
0.19272
6.36561
5.37868
11.6337
3.13485
9.02082
0.28667
0.00589877
1.13787
2.85252
3.23078
0.578692
1.41542
0.087093
1.27368
0.967378
4.49509
3.31397
1.88008
4.54252
3.95318
5.2812
0.0846026
0.653463
5.71809
7.24427
10.6577
5.75017
4.14203
0.515221
3.15653
1.3498
2.27813
16.7557
3.2388
83.2916
3.06347
7.80392
0.519959
23.6685
0.540655
1.99166
16.2383
0.28296
0.583951
1.4463
3.03989
3.50151
0.173878
0.2524
5.01297
7.68968
9.39607
7.96001
0.145497
0.803534
0.168108
2.5767
1.90755
0.485244
3.33021
0.685347
10.251
4.24117
3.55339
2.03251
2.74595
0.198065
2.88386
5.25405
0.123492
0.0943533
0.798182
7.28229
0.684656
0.188518
0.0974737
0.837287
3.65277
1.54135
9.4361
2.15835
4.7856
3.78755
0.0634517
6.225
2.26045
4.34769
1.62167
3.00256
14.3116
4.80483
0.25058
0.660835
7.96371
2.90225
7.93645
1.97108
0.103726
2.27335
0.108013
3.20006
2.42615
5.26426
2.58325
0.759814
1.90068
3.13278
0.240736
1.30146
4.79654
17.546
0.0226133
3.14561
0.815314
1.9089
2.72613
14.7001
0.138666
2.28999
2.27731
0.198077
2.69965
8.74564
8.14372
3.71606
4.73785
10.8982
0.188156
11.405
14.172
1.77124
0.179348
6.32892
6.98968
2.78157
2.37356
14.9717
6.84081
0.915832
2.54896
5.35112
0.203332
2.80616
3.43697
1.86124
0.235448
3.10773
0.118951
18.0925
26.4842
4.22612
2.17232
5.09604
0.188259
16.9451
2.27788
0.923941
0.974136
0.19831
0.19468
11.5278
3.5665
1.17794
1.90595
2.92722
5.89068
0.921545
6.09825
1.11884
5.79253
0.193977
17.6502
0.209026
60.3153
1.75983
0.194616
0.889898
9.04548
2.59949
3.34527
1.30237
2.83028
4.05529
3.10794
3.40611
2.82349
1.80185
2.14235
0.197379
8.88392
4.14026
2.23653
0.0931816
0.208155
0.125619
0.137929
0.867521
2.64988
0.0730928
4.19095
1.5281
3.4347
0.191509
1.02852
3.7215
0.510691
8.89716
12.7063
4.30612
9.31694
2.04143
3.4884
1.03221
0.093375
1.45081
0.274043
0.1889
0.708468
1.97999
11.6579
8.14641
1.30349
4.38101
4.36632
4.52321
4.08447
2.23595
3.56031
0.472619
0.101266
4.12581
12.4141
1.15508
0.151199
0.324072
1.80045
18.3765
0.12047
5.38251
0.91077
2.41365
4.28097
3.65676
2.8499
0.17451
0.18625
1.25676
55.2081
2.59021
0.231395
2.03106
0.227935
0.175984
0.157728
0.173309
0.116281
6.12341
0.255779
11.1555
16.5734
0.407281
0.161074
0.0857386
0.940405
37.3039
0.230267
46.5415
0.208863
2.82563
0.264847
1.18935
1.84556
12.988
9.5415
21.7598
5.15225
9.86486
24.6344
4.10853
1.93199
2.40178
1.04969
2.57237
3.67375
0.515023
1.77518
5.95403
2.07899
70.6745
2.49094
3.37163
3.2625
12.76
0.25148
9.52176
3.36621
3.8932
5.45817
8.72716
1.59612
0.182183
2.74322
0.253525
7.51338
56.8688
2.70696
1.96244
3.05619
2.43085
1.30562
3.87741
1.43315
0.336061
8.18372
0.484071
20.4798