/*--------------------------------*- C++ -*----------------------------------*\
  =========                 |
  \\      /  F ield         | OpenFOAM: The Open Source CFD Toolbox
   \\    /   O peration     | Website:  https://openfoam.org
    \\  /    A nd           | Version:  10
     \\/     M anipulation  |
\*---------------------------------------------------------------------------*/
FoamFile
{
    format      ascii;
    class       volScalarField;
    location    "500";
    object      p;
}
// * * * * * * * * * * * * * * * * * * * * * * * * * * * * * * * * * * * * * //

dimensions      [0 2 -2 0 0 0 0];

internalField   nonuniform List<scalar> 
10435
(
0.0979218
0.519966
-33.0296
-1.9581
-6.17815
-14.5678
-36.9329
-40.018
-41.4805
-21.2847
-0.513797
-9.6007
-35.4075
-1.31921
-1.33309
-33.7769
-1.36236
-24.8967
-42.836
0.385556
-36.0022
-1.44046
-31.4871
-20.4253
-24.7629
-1.96126
-2.96869
-36.3028
-2.1864
-29.8966
-18.4025
-0.816295
-40.925
-1.3294
-32.7048
-0.0178913
-31.4026
-4.68348
-2.40151
-34.2238
-16.539
-34.6912
-0.890402
-0.366761
-28.2988
-30.1068
-13.9595
-1.75087
-48.9418
-4.08225
-37.0152
-20.7394
-3.67801
-2.43829
-0.677127
-2.07069
-30.9436
-2.39216
-1.5071
-26.4945
-2.69974
0.506357
-1.87154
-6.747
-30.0129
-31.6477
-1.56453
-1.95287
-38.3579
-14.8673
-1.40751
-2.83685
-0.363719
-32.8594
-1.41688
-0.559896
-4.74326
-36.9154
-42.8106
-1.29719
-6.36969
-0.495229
-3.04541
-1.72977
-8.2072
-0.517372
-0.208218
-0.138031
-0.875368
0.136053
-0.844001
-1.68731
-0.399024
-0.949851
0.406417
-0.343431
-3.08762
-1.08571
-1.0912
-4.47084
-1.78106
-7.35634
-0.600807
0.288785
-8.06269
-1.07497
-0.542852
-4.79424
-8.52491
-1.18531
-2.70963
-5.08186
-0.763977
-1.13968
0.823369
-0.648832
-5.54953
-0.175288
-0.134523
-5.9506
-4.12059
-0.502031
0.162316
-0.556294
-2.09406
-2.22596
-4.70635
-0.534937
-5.66517
-2.61526
-0.445543
-1.031
-35.6836
-1.27905
-2.10672
-0.120401
-0.275575
-2.53195
0.293803
-0.138404
0.218649
-30.7916
-1.20427
-9.93676
-1.85947
-1.04115
-0.340761
-13.2376
-1.2306
-12.2343
-1.53736
-24.8113
0.0537753
-19.97
-14.0642
-1.32081
-3.19429
0.395659
-18.1625
-0.236261
-23.042
-1.25188
-0.713738
-5.76864
-1.24889
-9.94821
-41.1034
-5.42828
-19.0649
-18.382
-20.4008
-0.975299
-3.76446
-1.08845
-13.0135
0.131927
0.275902
-1.56982
-1.76155
-1.3662
0.146055
-10.9914
-15.5581
-2.6667
-22.451
-0.710139
-1.35325
-36.845
-13.1686
-13.7491
-11.0567
-2.3458
-0.728922
-0.0884132
-4.46001
-37.5847
-1.0066
-0.794754
-1.50319
-32.5749
-0.705799
-0.546472
-37.1143
-1.53676
-32.568
-3.46396
-0.928523
-4.16455
-2.21983
-3.25857
-0.876145
-34.3599
-8.21823
-8.94194
-1.62355
-1.22763
-1.20244
-0.86466
-8.32634
-1.26934
-1.39378
-1.90013
-1.22594
-0.773054
-1.93993
-34.9262
-8.24069
-0.941028
-23.5317
-0.800975
-1.54088
-36.8877
-7.70759
-20.7882
-2.56313
-1.23255
-21.5548
-3.90376
-19.7468
-22.5713
0.0708531
-1.62856
-0.98862
-2.0992
-5.95535
-41.7201
-0.537711
-38.477
-7.95676
0.147538
-7.83123
-1.1312
-26.1001
-4.87407
-38.6193
-3.10912
-10.7951
-38.5223
-1.83652
-1.86546
-37.5192
-21.8044
-3.37985
-16.5747
-0.667512
-1.05364
0.264213
-27.0949
-1.60184
-5.76823
-37.7346
-40.761
-38.5596
-29.904
-9.51279
-6.2607
-0.512449
-5.76705
-35.4126
-42.3004
-25.544
-1.43049
-38.2832
-1.47499
-0.707211
-1.43118
-9.83584
-8.52762
-1.5037
-2.01405
-0.511385
-0.721805
-2.35874
-40.2091
-8.77625
-9.30605
-1.08673
-0.219906
-3.45885
-26.6347
-1.63264
-12.6752
-38.6239
-12.0147
-2.4436
-1.24429
-0.956324
-17.5391
-28.1851
-1.45703
-1.14381
-2.49294
0.0305412
-14.5535
-44.1346
-10.666
-0.66716
-15.6032
-1.66377
-6.37337
-9.98089
-3.74282
-0.284835
-1.68861
-44.2604
-31.6051
-11.2012
-38.6031
-1.40255
-2.64441
-32.8653
-1.91907
-1.4286
-36.4075
-17.5462
-2.24462
-1.546
-3.18934
-0.742653
-2.79797
-12.2588
-1.29926
-2.24094
-8.24755
-14.1354
-2.76863
-2.03351
0.544723
-1.3141
-45.6379
-1.07776
-31.2992
-7.46369
-38.5807
-46.0345
-51.2932
-42.3858
-30.2665
-2.21591
-1.32893
-3.91626
-1.70832
-1.67335
-2.31805
-3.8596
-12.2957
-2.67451
-12.1665
-1.07152
-47.1097
-2.40269
-12.8291
-40.0785
-53.747
-1.00323
-9.45251
-4.1361
-3.93561
-1.33779
-1.80305
-11.4761
-6.22809
-41.627
-1.69243
-39.5434
-48.638
-38.74
-38.7539
-50.1486
-36.6475
-34.946
-0.536097
-1.43028
-1.81982
-0.329184
-36.9919
-1.58358
-45.6872
-12.16
-2.23663
-17.1855
-0.907381
-2.43699
-34.3625
-5.31281
-40.6142
-13.1513
-0.840655
-1.5579
-8.42655
-53.7172
-9.49622
-1.20132
-2.98489
-1.69207
-1.37192
-1.54212
-33.8421
-6.10464
-3.43095
-2.24161
-0.658356
-53.3476
-0.845248
-0.900003
-56.3772
-0.885277
289.262
86.7728
132.664
89.9037
84.7666
63.6711
52.8407
42.2028
26.8563
262.46
80.8052
114.959
81.5342
76.2397
60.4285
51.7607
43.2526
34.7687
227.704
69.7477
96.8982
72.052
68.2587
56.4439
49.0746
41.5753
33.7146
191.727
52.8586
76.882
60.4461
57.947
49.7444
44.1113
38.18
31.6365
153.784
34.7344
56.3874
47.4206
46.4025
41.3428
37.5571
33.5039
28.3124
113.283
20.1633
36.9984
34.2915
34.3916
31.8603
29.6425
27.0354
23.7444
72.0629
13.5168
20.4156
22.2855
22.9016
22.2802
21.3476
20.0467
18.3692
33.6365
10.7853
6.84288
11.9762
12.7157
13.4376
13.4521
13.2081
10.9986
0.244358
5.5876
-4.39698
3.5154
4.40298
6.036
6.71125
7.04296
6.89567
-26.226
-1.35941
-12.6088
-2.70461
-1.63753
0.521919
1.62557
2.43154
2.80879
-46.9624
-7.65094
-17.2707
-6.46895
-5.33359
-3.04688
-1.79352
-0.824456
0.260479
-58.4148
-8.09399
-17.6192
-7.75748
-6.9214
-4.91802
-3.80911
-3.02287
-0.988556
-55.8322
-2.64889
-13.8414
-7.05675
-6.92455
-5.48576
-4.63722
-3.83266
-2.89881
-48.2173
2.99665
-9.22804
-5.67427
-6.19493
-5.33778
-4.73679
-3.97287
-3.56396
-41.3266
5.78937
-5.66054
-4.50735
-5.37363
-4.95422
-4.53451
-3.91599
-3.35325
-33.0724
5.99671
-3.49382
-3.877
-4.76614
-4.58326
-4.24973
-3.74145
-3.06337
-26.2753
3.50834
-2.86607
-3.83702
-4.45137
-4.3061
-3.96756
-3.52553
-2.54208
-22.769
-1.33296
-3.76023
-4.2471
-4.35631
-4.09259
-3.68655
-3.21892
-2.37926
-19.5733
-5.54425
-4.71388
-4.59352
-4.25777
-3.86592
-3.41883
-2.94756
-2.36987
-15.5984
-7.21334
-5.01754
-4.579
-3.99938
-3.52633
-3.05257
-2.56593
-1.98324
-12.493
-7.11372
-4.81211
-4.23312
-3.59226
-3.10989
-2.66633
-2.20973
-1.81554
-10.7871
-6.0808
-4.34628
-3.68924
-3.10077
-2.65205
-2.25686
-1.82552
-1.78504
-10.3423
-4.35801
-3.72967
-3.03632
-2.55995
-2.18217
-1.85668
-1.49887
-1.55606
-10.2806
-2.28694
-3.34256
-2.70051
-2.29728
-1.93989
-1.59241
-1.22963
-1.35153
-8.96635
0.329187
-1.61809
-1.27284
-1.15752
-1.17898
-1.081
-0.891119
-2.22765
6.7371
6.35989
6.08691
6.10079
6.27104
6.59117
7.06734
7.72689
8.58968
9.66807
10.9703
12.4888
14.1862
16.156
18.5309
21.2007
23.9742
26.741
29.4145
31.8961
34.1089
36.0903
38.2386
40.0872
40.5848
40.64
41.6411
43.4509
45.3706
47.3025
49.6606
52.1578
54.167
55.7474
57.2399
58.7437
60.2751
61.9718
63.9488
66.4394
69.5388
73.3103
77.9565
83.7779
91.0751
100.046
111.003
124.154
139.283
155.963
173.73
191.967
210.17
227.754
244.11
259.154
272.144
283.092
293.665
1.41897
0.653173
-0.0280888
-0.601047
-1.15359
-1.7047
-2.26009
-2.83086
-3.42894
-4.06415
-4.74735
-5.48453
-6.17088
-6.64716
-6.90541
-7.10172
-7.32576
-7.42945
-7.26396
-6.82756
-6.09537
-5.03655
-3.58715
-1.7974
-0.0189136
1.27966
1.8693
1.57164
0.578538
-0.486111
-1.29146
-1.87086
-2.31229
-2.67656
-2.96152
-3.16734
-3.28069
-3.2683
-3.0853
-2.66673
-1.96914
-1.11602
-0.201619
0.815899
2.01204
3.4638
5.25701
7.38706
9.92699
13.1619
17.3496
22.4231
28.1575
34.1632
39.9655
45.0274
50.4062
58.0843
68.5446
3.05909
2.83187
2.58995
2.46637
2.42282
2.45582
2.56327
2.74178
2.98794
3.29856
3.67199
4.10853
4.61575
5.19027
5.82063
6.49758
7.24051
8.08231
9.01922
10.0407
11.1382
12.297
13.4976
14.6777
15.6977
16.5331
17.2213
17.7555
18.1033
18.3705
18.6592
18.9922
19.3597
19.7748
20.2688
20.8712
21.6147
22.5382
23.6865
25.1082
26.8606
28.9903
31.5734
34.6979
38.4741
43.0008
48.3678
54.5885
61.7833
70.067
79.2759
89.0134
98.898
108.537
117.644
125.979
133.453
140.606
145.109
0.900524
0.499944
0.131401
-0.151856
-0.380467
-0.557669
-0.687061
-0.772595
-0.818092
-0.826191
-0.797452
-0.729825
-0.617236
-0.4503
-0.227433
0.049356
0.37763
0.766955
1.22525
1.75508
2.35525
3.01567
3.71784
4.42741
5.09045
5.65471
6.08256
6.3524
6.46824
6.46604
6.38408
6.245
6.06533
5.85912
5.64237
5.4314
5.24557
5.10629
5.04379
5.08984
5.2878
5.68256
6.34094
7.33796
8.77272
10.7411
13.3471
16.6704
20.7747
25.7298
31.4128
37.4132
43.6385
50.3161
57.494
64.9227
72.0658
78.8316
85.3424
1.81304
1.63001
1.44087
1.33317
1.28133
1.28257
1.33526
1.43686
1.58435
1.77445
2.00445
2.27172
2.57406
2.91025
3.27871
3.67851
4.10945
4.57119
5.06362
5.58379
6.12678
6.68361
7.24144
7.78318
8.28633
8.73351
9.11129
9.41362
9.6403
9.80203
9.91519
9.99285
10.053
10.1148
10.1966
10.3242
10.5214
10.8115
11.2313
11.8132
12.5978
13.6285
14.959
16.646
18.7559
21.3486
24.4864
28.214
32.5573
37.5086
43.0121
48.9693
55.2657
61.6638
67.8732
73.671
79.0098
84.3107
88.3599
1.04804
0.837797
0.648895
0.518864
0.430064
0.381339
0.371698
0.399417
0.462962
0.560668
0.692226
0.856895
1.05495
1.2866
1.55195
1.85068
2.18259
2.54445
2.93756
3.35811
3.80144
4.25708
4.7128
5.15623
5.56313
5.9234
6.21669
6.43824
6.58062
6.64356
6.63532
6.5527
6.4137
6.23484
6.01839
5.79597
5.57661
5.36019
5.19588
5.10125
5.10846
5.25292
5.5776
6.13285
6.98207
8.16918
9.76917
11.8302
14.4102
17.5481
21.2523
25.4791
30.1606
35.1819
40.3997
45.6237
50.6889
55.6989
60.1925
1.36167
1.25449
1.15772
1.10821
1.09264
1.10969
1.15762
1.23543
1.34114
1.4722
1.62826
1.808
2.01199
2.23945
2.48974
2.7636
3.06379
3.37887
3.71815
4.07417
4.44884
4.82839
5.20454
5.57964
5.91236
6.22095
6.46876
6.66904
6.80638
6.8747
6.89459
6.82707
6.71003
6.57209
6.37499
6.20294
6.04697
5.85789
5.76489
5.74044
5.8163
6.02134
6.38071
6.93401
7.75171
8.80627
10.213
11.9657
14.1396
16.769
19.8614
23.3874
27.2696
31.4054
35.6518
39.8283
43.7857
47.5673
50.7235
1.26
1.15761
1.07683
1.03327
1.01295
1.02092
1.04821
1.10619
1.18397
1.2681
1.38825
1.52438
1.68745
1.87953
2.09099
2.33861
2.61319
2.85331
3.14935
3.47561
3.84368
4.20653
4.55539
4.94481
5.22618
5.52633
5.72464
5.90601
6.02202
6.06937
6.08668
5.91562
5.68675
5.46792
5.03796
4.73798
4.46535
3.78777
3.2842
2.79986
2.36935
2.01062
1.74121
1.6061
1.93128
2.15985
2.91481
3.705
4.69216
6.21643
8.41464
11.268
14.398
17.8945
21.7618
25.7612
29.5768
33.3989
36.9964
1.41126
1.40189
1.38959
1.40961
1.43896
1.49277
1.55605
1.62102
1.71844
1.86853
1.93989
2.08483
2.2629
2.41337
2.63823
2.76257
3.03839
3.31287
3.57796
3.82018
4.13529
4.41205
4.71078
5.07314
5.28244
5.57927
5.70979
5.86181
6.0206
5.82059
5.98011
5.69068
5.31149
5.0525
4.44967
4.06886
3.39553
2.56327
2.33138
1.82276
1.44038
1.30311
1.07478
1.20037
1.53029
1.79545
2.42306
2.90466
4.7111
6.60995
8.67465
11.0058
13.7521
17.5124
21.0603
24.4229
27.6976
28.9906
29.7391
-9.41847
-9.21809
-8.5255
-7.61468
-6.76532
-6.13763
-5.62764
-4.94511
-4.19642
-3.69338
-3.19322
-2.45612
-1.76619
-1.13782
-0.32654
0.516465
1.15574
1.67109
2.22276
2.83387
3.45312
4.01782
4.51027
5.26549
6.1807
-0.333478
-0.384122
-0.788141
-0.92144
-0.726374
-0.447982
-0.0210841
0.671498
1.26807
1.38813
1.0701
0.540154
-0.000240911
-0.33462
-0.221207
0.284684
0.869894
1.35556
1.67644
1.7779
1.65975
1.55222
1.69764
2.1798
2.51031
-2.03249
-2.05373
-1.92924
-1.70938
-1.36806
-1.00027
-0.611819
-0.194708
0.131315
0.221479
0.130237
-0.0396672
-0.20456
-0.272796
-0.141079
0.155288
0.505537
0.845718
1.14857
1.4002
1.60095
1.8039
2.05879
2.38839
2.91161
-1.33887
-1.36419
-1.22326
-1.0705
-0.861563
-0.630251
-0.383332
-0.134103
0.0685434
0.176771
0.203302
0.189949
0.183139
0.22691
0.355349
0.553062
0.773577
0.97842
1.14387
1.2598
1.32877
1.36877
1.39119
1.36672
1.40632
-1.26635
-1.26213
-1.11104
-0.962269
-0.778546
-0.586943
-0.391552
-0.206421
-0.0521431
0.0548325
0.120801
0.169033
0.225692
0.310925
0.439044
0.600483
0.772116
0.932874
1.06997
1.17926
1.26584
1.342
1.42638
1.51344
1.74107
-1.15519
-1.09948
-0.941309
-0.809308
-0.652278
-0.497963
-0.340575
-0.194348
-0.0663092
0.0405203
0.125796
0.205068
0.294828
0.400259
0.528032
0.669351
0.809702
0.935458
1.03754
1.11327
1.16483
1.19371
1.21144
1.19681
1.25519
-0.977574
-1.0154
-0.837893
-0.724452
-0.5823
-0.453524
-0.316987
-0.193123
-0.0804963
0.0268445
0.118232
0.20967
0.316314
0.430565
0.559507
0.693348
0.821754
0.936223
1.03115
1.10612
1.15991
1.19685
1.23833
1.26372
1.36901
-0.792253
-0.946383
-0.751929
-0.662344
-0.523856
-0.410059
-0.278176
-0.169368
-0.0743569
0.0325886
0.119556
0.211577
0.335592
0.457868
0.589112
0.721326
0.844997
0.95413
1.04479
1.11738
1.17346
1.21484
1.26198
1.28923
1.35465
-0.904751
-0.967471
-0.670406
-0.602351
-0.483669
-0.4192
-0.311503
-0.220781
-0.0883002
0.0214915
0.125083
0.206599
0.308585
0.418403
0.566417
0.695786
0.819992
0.933162
1.05353
1.132
1.19845
1.26753
1.30996
1.31221
1.34004
-47.4649
-45.0302
10.2897
7.54406
0.918245
0.667812
0.227745
1.56391
10.2325
7.6765
0.292451
1.41283
-79.6286
-0.654416
0.181165
1.99117
9.18125
7.07083
-1.28196
-0.176204
-22.7729
3.12633
6.00065
3.03719
1.31986
2.08409
1.2835
-0.612985
-50.8105
7.79974
18.3371
2.37789
3.49811
-27.3655
7.63813
1.31487
3.41032
0.873782
1.19294
4.26732
-2.15544
2.62894
2.53013
-0.810838
0.33301
1.38609
-1.85288
-0.704993
-14.2259
0.0889853
-1.59118
-2.74602
-44.0316
6.8356
0.142552
10.2242
-0.60828
-38.9259
-0.171629
-0.0632756
1.48645
10.3459
0.887209
2.27006
1.4777
-0.835597
-0.111218
2.55038
-68.5594
-0.045568
10.1319
3.31572
0.846023
-0.166847
0.580768
-27.4432
-0.414335
-2.31092
-0.119577
6.5855
-27.6229
1.38043
1.8996
1.50714
1.19591
1.50888
0.913577
-2.34824
2.80055
-0.163679
1.59377
-3.97824
1.29234
1.51994
0.746889
0.732603
2.07798
-1.01103
2.6013
-0.290694
-0.163163
-2.14931
-0.234006
2.36913
-0.0176635
0.103314
6.05922
-27.5233
1.98808
8.31383
2.62885
1.77581
7.54126
2.00505
-46.3472
-16.3862
-2.2532
5.24215
-57.6163
1.95945
2.19224
1.67271
3.31017
1.47394
3.86858
2.4922
-2.91043
-0.850058
-0.416057
-1.05412
1.90273
-0.279812
-0.208487
-2.34963
-0.719702
0.864822
0.45605
-0.0469923
1.6254
0.0102599
0.828467
-0.584688
-0.910048
2.21799
-26.9736
1.85772
7.36482
-6.93135
1.58011
7.44788
-1.23891
-0.750675
7.16675
-3.70719
1.14969
-0.0407258
0.42413
4.234
1.4492
3.56234
2.50408
10.174
1.80336
-0.921576
2.07712
1.6139
-0.665732
0.963851
2.74342
0.314412
-0.572564
2.4592
2.37074
1.23125
-2.54831
-0.392303
-10.125
-4.21523
-6.47186
3.16036
-6.70737
2.59182
-44.6299
-1.85566
-0.331889
2.87212
1.07422
1.93874
0.359714
1.66175
-0.460238
-1.02134
2.024
0.563135
-0.824583
1.1521
0.607328
3.02425
-20.9483
-69.6558
-77.0763
3.00062
1.54206
1.56236
-0.880915
3.82313
3.02944
-0.21897
-1.89441
4.14607
-0.0332249
1.58593
-7.90615
-1.01202
-1.03594
0.253865
0.404191
3.08592
5.65849
-0.881035
-0.424099
2.6503
1.27364
10.2968
4.88837
-2.48753
1.30663
9.17629
1.9813
0.802255
0.369159
1.40237
2.50162
2.00856
-0.170233
5.62255
-0.881427
-0.579204
-5.26968
-4.95789
18.5934
1.45458
2.35931
-0.61003
0.769787
1.1808
2.39264
-0.118972
1.93958
2.56809
2
-0.388153
4.48757
-8.38228
2.26842
0.571074
7.53751
-0.371775
1.07614
6.74156
1.65998
-0.519668
1.63727
1.00286
-0.362891
1.59724
3.50505
7.87885
-0.584141
1.00985
-17.2201
2.35372
2.53868
3.07587
-2.3707
7.91669
1.60698
10.2094
-0.660562
-2.35002
-0.733207
-1.13285
3.09949
0.609969
-8.67563
1.64637
-0.0389446
5.11923
1.16579
-0.417351
-0.426655
1.99765
2.49897
-0.215815
-29.4655
0.421019
5.97483
-1.18803
3.56089
-2.55426
-1.87525
2.45158
3.97149
1.53751
7.33157
2.55128
-22.9908
2.14983
-0.0851269
1.47349
2.67115
-1.24823
0.714449
-0.526688
2.52885
2.53979
-2.05098
4.09554
1.39816
-13.696
0.163505
2.01082
3.9715
17.8205
1.16665
1.6171
-2.17705
-31.7134
1.16246
-36.5182
1.87776
-1.54848
-0.430261
6.80085
-2.78844
1.46651
1.57789
1.88097
1.85753
2.10823
1.6003
1.30896
-1.34965
-5.24072
-0.421834
0.368213
0.241947
2.59732
0.893641
-0.449529
1.58092
1.54868
2.34569
-0.557549
0.0013767
4.77192
-8.93298
-1.01824
2.27716
1.26816
-0.899376
6.41409
2.93313
-2.52165
2.67459
0.733504
2.44103
-2.40277
1.54948
0.575509
0.42144
-4.5693
-40.1827
9.39549
-66.8827
1.84647
1.80847
1.80333
3.61522
6.26447
6.3147
1.85287
4.51923
-1.06134
-0.820898
-21.4131
2.06788
-0.185292
1.16214
-0.127991
-0.381354
3.72277
-0.586229
8.12222
-3.7685
7.33957
2.38308
4.84567
4.02578
-38.753
1.42798
2.70361
1.17646
0.429367
1.1892
2.89452
0.876217
-0.421935
-0.806872
6.70334
7.51763
1.47606
-2.8214
1.51905
2.12673
4.21697
-16.645
-0.21752
3.88294
-1.27623
2.04271
3.39496
0.290218
-0.3308
3.09734
-2.21168
1.87868
3.87431
4.54709
2.39682
1.45515
0.528112
-2.65555
-0.0437509
0.855417
2.5543
2.01446
2.48384
2.57238
3.91735
3.431
-5.86585
0.708133
-1.24102
-69.0932
10.1723
-0.560875
9.60529
-0.145372
-0.126369
9.45352
2.47094
1.72293
-4.57212
-0.963745
0.0734277
1.6776
1.63276
1.60067
-1.78003
1.80511
-1.37611
6.57694
-9.06998
-2.24756
1.09937
0.13132
10.3617
3.27542
2.90101
-1.28314
0.939521
6.90001
4.04362
1.5511
-42.8587
-2.51844
0.58662
-7.81843
-8.24099
-1.11774
1.94582
2.77216
1.32286
0.542704
1.0125
1.29566
3.90319
2.18647
2.64253
-5.32728
2.02031
1.73387
8.2607
1.47971
-0.024389
-1.64763
1.50683
2.45691
0.154441
2.50856
0.0139691
1.59967
-0.629508
-12.6867
-22.6132
1.67889
1.69595
0.646939
2.20197
2.71609
-12.9152
-1.20049
-2.32888
2.87322
-2.394
7.14193
-15.4184
1.77945
-0.891803
-2.66341
-0.824209
-0.172684
9.38911
-28.4022
3.90806
-2.21377
0.286129
3.3881
3.47216
-0.260025
1.68342
8.4623
9.89353
1.90067
-1.35346
2.17712
-3.5641
-12.3824
1.96311
-17.7378
8.43498
2.4549
5.56836
2.35344
10.2855
1.79535
-0.448828
1.50086
10.1472
0.587843
0.992055
-0.499632
-5.10841
-11.4421
-1.96902
1.20527
-0.624735
-64.7533
-0.565906
-2.43315
-5.83223
2.06049
-51.6563
7.6189
6.45259
-0.821351
-0.229333
2.45452
1.22992
0.592664
4.79483
1.71697
0.0734401
0.643988
7.95967
-0.698972
-0.516842
-0.434143
1.34628
0.372169
-54.9044
2.74667
-1.6241
1.76077
5.32065
2.91596
0.669477
-1.88287
4.08471
0.57399
1.15854
2.48242
-6.41829
0.511829
-0.268459
-37.3786
-13.1691
0.971961
2.56846
-1.06767
-0.625581
2.69914
4.11447
-0.866532
2.32412
1.6015
5.91585
5.16728
2.45038
2.60772
3.58362
1.2923
2.73896
-0.134052
-32.5346
3.59018
0.316092
10.2919
2.79251
1.12519
1.77993
-3.53437
-0.835853
0.799864
-0.179721
1.06332
-0.598623
5.85137
0.458177
0.778283
0.809439
2.81108
1.9334
1.97479
-22.5813
0.84106
1.43751
-0.773774
-6.35121
-1.03473
-0.671885
-0.849214
2.86631
0.852311
2.91532
1.70796
-1.18764
-0.462725
-5.13904
-0.646539
2.97931
5.71259
2.311
3.97574
6.25743
-0.773006
25.3753
-12.3102
2.57792
-0.755872
6.14031
-0.921654
2.2543
0.910422
1.68865
4.71201
9.72023
-0.717197
-50.0222
0.750448
-0.583614
1.28645
-1.76248
2.73256
1.96438
-1.02797
1.32038
0.509831
5.86796
2.57164
-34.5355
3.94844
1.88743
3.42576
-0.669084
1.93509
-22.0927
5.37946
2.24936
1.13063
3.86825
2.65182
1.81228
-0.134268
2.55602
2.12667
-0.0163595
1.85679
2.6507
-0.147155
2.78484
2.24287
3.13503
4.0303
0.312172
-4.16025
-1.17864
-1.46809
1.25929
3.31754
7.50016
1.27753
0.501562
1.06123
2.89308
1.80784
-1.48932
1.85543
1.32855
-60.5798
-6.93234
10.594
-0.702845
2.50457
-1.53984
1.36696
-1.16158
-21.3153
4.59026
-1.251
-2.18924
-0.116014
-8.75259
-12.2046
0.210878
0.496477
8.41327
3.09062
1.82846
2.734
3.39379
1.72551
-46.6292
-8.82191
-4.92655
0.814772
-1.12794
3.54314
1.48443
1.52689
1.32767
10.1865
1.45697
0.0593878
-2.03239
-41.813
-1.43424
2.89614
2.73646
-0.191133
2.77359
-20.1238
-1.28685
6.05082
-5.2038
0.427842
-10.4988
2.0438
2.9338
-0.447734
0.563146
-0.0389426
3.60723
2.47901
0.44461
1.62659
2.00222
2.52969
1.64645
1.43436
4.18243
-1.94791
1.32546
2.88413
1.08988
2.37823
0.0737814
1.23812
1.32252
-0.737478
-11.6591
-1.16693
2.80115
0.796231
-1.09851
10.1128
-6.52306
1.71301
-7.60086
-42.7952
0.332879
10.2548
-1.34885
-0.757786
-2.92215
5.43618
2.58241
1.41079
0.709258
1.62194
10.2776
2.41393
1.21997
-0.0746901
0.860283
10.2431
8.93985
3.54123
2.48036
10.1658
-18.7437
-8.53537
2.32607
3.51715
2.78727
-9.42364
-1.20116
2.54149
1.18284
-0.0288248
-4.15715
3.84486
0.282228
-2.28145
-1.97091
1.65589
9.96188
-1.27125
-16.8056
1.80065
-11.2259
3.81673
1.62202
-41.5558
3.14643
-3.31999
2.18648
-0.328198
-16.2361
-2.61377
2.91971
3.64118
1.47196
-1.29982
0.10761
10.2544
1.99541
-54.9872
0.622457
1.9254
0.241693
-0.170354
0.174555
4.1096
0.708856
2.09764
1.92771
-4.4437
1.80232
9.50096
8.94941
-8.21711
-1.67508
0.0514607
0.302876
-0.0748736
5.71473
0.237906
-2.25145
0.250594
1.2646
-0.188938
-1.22404
1.65959
-1.70668
-10.7346
10.2018
3.63447
3.27634
2.64736
-0.76045
1.72132
-6.93582
-10.9371
-18.8308
-4.22717
0.935209
-1.02851
6.93955
-29.5372
-22.4286
0.826203
-0.830261
2.83844
-0.753613
-9.59085
3.45264
3.49009
-0.81351
8.84835
2.16278
0.250264
-7.46728
2.28336
0.0371364
-1.88233
-4.23305
-2.87061
-1.15492
-23.7283
4.39721
-0.660465
-0.791459
0.161905
-9.50226
-34.3607
2.91769
1.54293
1.62467
2.96258
-8.85845
2.62991
1.73284
-2.89297
-2.4578
-1.86284
-4.17179
1.2549
1.5982
9.84806
-0.876701
-0.695208
-13.1771
2.17487
2.30082
0.160197
6.67392
-2.858
-5.81776
8.46442
1.76643
3.18666
0.412853
1.74029
2.96253
1.42197
8.08161
-0.442894
-0.243027
-2.95106
0.836997
0.0616506
0.681798
3.36093
2.97075
-0.0268785
2.54709
-26.0521
2.7702
0.814772
-6.15126
-0.0247283
9.77449
1.90607
1.44052
-0.802105
3.34259
-36.9122
0.685771
-0.156935
7.73059
1.82194
0.7437
-0.884719
0.848216
-5.0852
5.68179
3.66368
2.72783
-0.53563
-0.184676
-2.11375
1.36436
-5.46071
2.20896
2.20359
1.96881
-1.87931
-5.53627
2.67674
8.71744
3.84953
-0.811094
1.68335
-9.5358
1.03087
1.24158
2.85679
0.333365
1.14115
1.94067
-2.19943
-0.758115
3.28693
-5.33435
1.49052
2.71602
1.78684
-1.40151
2.26093
1.79141
-5.48152
-0.320345
0.35089
2.98716
-4.95785
2.4603
4.56141
3.00845
-0.0677452
4.03965
4.52601
-0.980858
3.3848
0.271379
-0.417354
-2.18541
1.88703
-1.76605
-0.645962
2.80649
3.83952
3.42265
-0.885921
6.77631
-10.3239
2.15236
-0.340742
7.87369
-0.352912
-2.07465
1.83328
-6.56594
5.89157
-0.0564711
1.56127
1.65056
-0.165
-1.00733
3.11461
10.227
2.48934
0.668042
6.21534
0.0428399
3.74251
0.143111
5.42437
20.1581
4.26343
-16.5206
1.43978
1.80568
4.31576
2.47928
2.76974
6.75036
-31.4803
3.81293
0.116738
-10.2621
1.21189
2.81635
-14.3503
-0.836142
3.04822
3.74322
3.38575
3.30756
6.17955
-0.249042
-2.00465
2.10277
0.939632
-49.9597
1.50142
-0.928917
-0.646003
2.59101
0.984581
2.78726
-0.44557
-9.80718
10.0564
-5.38195
-3.93472
-0.255078
14.4784
-1.96536
-2.1175
2.33356
2.91108
0.724617
3.50883
-0.0869398
-2.48761
-21.0655
3.98173
3.93557
3.64674
-0.749749
-4.34002
1.02097
3.74538
-7.88767
-2.66614
2.92755
2.56408
0.601248
2.80717
1.39267
-46.6073
1.40758
-2.01894
1.53743
-1.38216
1.33374
-27.1718
2.46224
2.60101
4.91297
8.58685
-13.8281
-30.8061
8.42649
2.1742
-2.78742
-27.6718
1.8032
3.61347
1.74241
-0.150213
2.41193
1.4158
1.87575
9.53622
0.281551
-0.427365
-1.26772
-0.155185
0.885463
1.85616
-0.0612303
2.96523
1.32548
-0.465058
0.0231812
2.56793
0.953532
2.46292
0.636174
-6.38725
10.1669
-0.0967074
1.6409
2.94596
-5.84224
-2.2277
2.05159
-0.0243245
0.31112
2.92439
1.15883
-0.603448
3.62021
-0.0679686
-0.841681
-0.572926
1.5479
1.73818
9.89569
1.72535
0.425809
2.13831
8.88837
0.949279
3.38945
-58.636
2.05327
9.83361
-4.91741
1.15368
-0.580933
1.5205
2.43506
1.52675
-0.226406
-0.0341497
2.2927
-50.1808
-0.477314
0.60908
0.324144
-0.831936
-2.7099
4.01842
1.45386
-0.767419
-4.48941
0.400455
2.68102
3.92384
4.99202
-1.20131
1.80763
3.63388
3.2501
-1.06904
3.7848
0.574931
3.11494
-1.38513
-0.847601
8.16922
3.75934
9.12765
2.45233
1.61293
-1.43145
3.24522
-0.360614
3.08534
-3.2815
2.79029
-2.20531
-37.7188
-0.0306667
-1.17534
-0.81779
-26.2015
-2.56294
-1.13912
2.90532
-5.60904
2.68977
10.1802
5.07747
-6.24269
-51.5222
-2.90846
-2.11732
-16.3342
-0.343317
2.37218
-0.0909929
-0.560574
4.59549
-2.71202
2.93305
-0.0527068
-1.37333
-0.872891
-1.03478
-0.0469174
1.68368
-0.451791
1.72108
-0.826083
0.167979
2.57827
-19.5049
2.09828
2.358
-9.12585
-0.337176
0.241623
-42.0887
-0.511314
4.61026
-16.8078
4.64355
-3.47769
-0.446415
0.411712
0.428136
-51.6208
3.07256
0.0507948
-7.45501
-23.559
4.49288
-0.386625
2.48366
-25.7854
-0.264696
-5.77678
2.33754
-1.15776
0.993336
-19.1983
-3.09819
-1.03659
3.32057
-35.2621
2.72568
2.22704
2.70242
-1.71138
-0.721142
1.50721
0.213064
1.4233
1.65158
-2.82826
2.49976
1.58991
-56.5214
0.9328
2.59989
4.64941
1.71607
2.7787
2.72966
0.952036
-0.707029
0.0817095
3.55702
2.16466
-42.4276
-2.40923
1.4722
-0.573767
-0.170024
-0.941068
-0.626859
-0.532794
-64.2271
1.26862
-25.3253
-2.73132
1.36989
0.264298
3.47541
4.5559
1.232
2.2842
0.22983
-0.616892
-0.750058
2.39586
-1.69073
1.30649
-1.14834
2.58193
-3.62912
-1.07344
0.443534
-2.25308
0.142069
-1.14961
2.5343
2.59201
2.31985
-1.82473
-4.02574
-0.69563
2.37373
1.79664
3.00482
1.59564
2.11692
1.78063
-1.62283
-1.19457
-2.02696
3.34793
1.2152
-35.8004
3.72629
-4.75689
2.76748
1.36008
0.0275613
-0.114487
1.50877
2.21461
1.5463
-1.17131
4.27392
-0.964067
-2.30615
0.632861
-7.35005
10.077
1.62703
7.65892
-7.27972
-0.992853
2.37834
-1.33204
1.84194
2.96871
3.24186
1.25966
14.5105
-1.14604
7.14719
0.094872
-0.385218
0.122131
1.40097
-0.30304
0.226411
0.73842
-0.320576
3.71307
-0.18606
-17.6574
0.432755
-0.259303
-0.710242
1.4925
-0.230832
3.96071
-0.870758
3.80736
2.36018
1.15758
1.17963
0.511249
-20.8666
1.10138
8.9456
1.70658
2.41709
2.97472
-0.240883
1.91152
9.73293
-0.383289
1.85938
-0.901825
5.02454
-2.38659
3.26383
3.68923
1.41044
1.14079
-1.6588
2.00693
2.37774
9.16119
-1.6821
6.08482
4.43595
4.5791
3.02382
-0.22157
1.71325
1.96122
-0.732575
1.58574
2.69151
2.28513
6.05175
1.89417
-1.00239
-1.68772
3.84512
9.95236
3.19328
2.76387
0.786827
3.15533
-5.26194
2.53251
-38.0906
0.00520495
3.47113
0.965558
1.69492
8.96837
0.165734
1.98299
-6.4836
-1.68589
1.35148
-39.3775
2.37676
-0.66264
-2.52995
10.8259
-23.3916
1.32646
2.06235
3.72919
1.48381
9.58513
-10.1047
2.55239
4.96302
-2.03521
2.75206
3.38959
4.09278
-0.942025
-3.18075
1.22772
0.99218
4.482
2.14643
0.904983
2.11848
-0.264806
2.75638
8.70016
-36.1409
1.18632
-44.5457
0.338648
-5.97195
-2.25774
0.66668
-1.53422
4.32741
2.70554
-31.2602
2.52759
2.4413
-8.96791
1.96661
10.1257
-0.607246
-56.049
2.61544
0.186256
0.744279
-1.80225
0.414068
3.79603
9.51991
-0.48642
-6.92734
2.56101
3.63488
-0.296131
1.20457
-0.141205
-0.45035
1.06767
-16.7181
-0.497641
-0.513966
0.0257156
-0.140287
2.58574
4.45794
1.00566
-0.144155
-29.1524
-0.294445
-9.99103
0.747872
0.469656
-3.8129
4.55202
0.0451006
-0.958203
2.92056
-10.8262
-1.91134
3.98083
-0.176445
0.593698
-1.78927
1.44114
3.20367
-3.96933
-14.5644
-0.656655
-1.39618
-14.1585
0.561765
-0.365344
0.301406
-0.0758059
-10.1857
-0.10994
1.67836
1.51177
8.19852
1.11533
-0.638448
-0.767987
1.18791
-0.558933
9.64175
1.29894
-1.02896
2.57438
-9.17144
3.00754
1.6412
1.79179
5.24744
1.90876
0.382961
3.9148
0.197278
3.99098
0.284909
-11.7639
1.58482
-8.11491
1.19037
1.53502
2.36339
2.41954
2.01738
-0.954758
3.19995
-2.08062
-0.431756
0.39955
-0.167608
4.42937
2.77469
1.91485
2.46218
0.509363
2.48851
1.47763
0.726829
-0.181654
3.6037
3.83234
1.31239
-0.144365
-0.506408
0.15847
-1.13141
-0.902402
1.66181
1.72698
1.57402
7.09635
-0.798587
1.29186
1.89724
-0.237872
1.69973
11.2602
3.18763
3.13407
-0.0891888
-0.792528
-35.7442
-0.209741
4.23515
-0.284817
-1.06867
-3.54303
0.716943
1.66211
-0.966835
2.80421
1.32821
-0.242097
-4.29938
-0.793952
1.41666
2.22202
2.30813
-0.0536126
-0.59562
0.767115
2.72421
1.56423
-0.868727
-1.23929
2.48569
-4.14534
4.23339
0.0571967
0.336998
2.71771
-1.84185
-1.19465
2.41715
-2.71244
-9.11681
-0.960593
3.12991
2.20711
-6.11274
0.0863245
-1.8047
1.73804
-0.637495
2.51491
0.562728
8.33486
-7.12882
1.39047
1.76042
-0.0313606
-0.906743
5.55776
0.89869
-1.64174
1.4625
4.5071
1.96459
3.66852
7.7483
3.20757
2.43768
4.02278
-10.5365
3.47113
1.12462
0.780134
-1.95045
-0.74469
0.390844
-29.8312
-0.652497
-0.835742
3.27484
1.91341
4.2297
3.78957
2.5672
1.50343
-14.1768
4.20201
0.624493
4.43874
4.28505
2.13578
0.294362
3.93561
2.29487
1.36992
-6.49844
2.38293
1.11856
2.62984
2.80104
1.54835
-2.31206
3.1084
0.676921
3.6998
4.88411
-4.46918
1.61531
2.68139
6.47057
-0.876316
1.22493
-1.27781
3.34939
-5.90258
2.89974
0.666186
3.48873
-2.27953
1.73772
-1.58867
-0.649128
-3.53444
0.186952
-0.925298
-0.738604
-2.20302
1.76283
0.590897
1.71738
-1.71473
3.81411
0.272923
-3.80245
-0.783982
-7.12196
3.56097
-1.61106
0.377615
2.43278
1.40277
-0.979912
4.07841
-0.771872
2.3558
0.0842976
4.36054
3.31645
3.31286
1.84578
2.66274
1.19498
-1.64441
-0.837424
0.729009
0.276964
-1.62957
2.11377
2.40517
-2.35555
3.5564
9.86093
0.406319
2.49402
-0.186212
-0.491187
1.85841
3.16526
3.10041
1.34102
3.65889
1.07582
-0.573766
0.972236
-10.8119
-0.679494
-0.283064
-1.56635
-0.79903
-0.626492
3.67448
0.844932
2.14915
1.01604
-70.9231
-51.1895
2.71266
2.51848
1.80701
-6.31032
0.0894719
-0.371843
1.11501
-0.272406
0.132502
1.2036
-2.23035
-0.111895
-24.2463
-7.08596
2.82504
-3.94329
0.0960463
-7.68228
-0.886981
1.44681
2.43034
0.351702
2.50054
2.16489
-5.73188
9.56875
6.79044
-2.65874
-2.69915
2.53984
1.05075
1.28894
1.16662
0.20641
-3.14367
1.58994
-0.536095
-5.05782
0.6094
3.97007
1.02796
1.66923
6.05357
0.480524
3.20984
-0.937355
3.54082
4.10675
-0.104952
-1.02783
-7.7491
1.6145
3.63784
4.60809
3.08509
2.41006
-0.774101
-3.71713
2.4486
1.58023
-1.45404
3.32704
-6.02685
-0.272875
1.99862
3.29036
-0.727831
2.59554
1.861
2.72993
2.93116
-0.568207
2.24697
-1.81013
-0.419761
1.90217
2.8476
1.77706
-3.69529
-1.19005
0.678473
-0.409307
-1.95995
-0.277243
-7.56259
3.91036
-7.9788
-8.05344
3.76974
-0.559676
2.30285
2.16537
0.63839
-42.9197
-0.970448
20.143
0.00752813
1.06598
9.14089
-5.96079
-0.160423
-0.920559
-2.85875
5.55579
-0.269225
1.43663
1.8615
3.46383
0.264214
2.00067
2.63201
-8.24716
-1.07504
-10.2406
10.2121
-1.72454
-1.26001
-1.6512
7.64929
-0.564293
3.90337
-0.172297
-13.0007
0.933462
3.42847
-0.784063
0.795668
-1.41953
2.46306
1.30621
9.5544
-1.53483
-0.309007
-8.04106
-0.771521
6.09004
-1.90223
2.87514
0.404898
2.40851
3.92196
2.19658
1.35955
3.93909
2.09856
-7.44002
0.72979
-0.728452
-0.64474
2.6497
-0.988791
-7.40578
1.13049
-0.745528
-7.50028
1.89599
3.97167
2.39052
-1.74116
-1.96176
-1.05755
2.10723
2.50208
2.89693
-1.98599
-0.746821