/*--------------------------------*- C++ -*----------------------------------*\
  =========                 |
  \\      /  F ield         | OpenFOAM: The Open Source CFD Toolbox
   \\    /   O peration     | Website:  https://openfoam.org
    \\  /    A nd           | Version:  10
     \\/     M anipulation  |
\*---------------------------------------------------------------------------*/
FoamFile
{
    format      ascii;
    class       surfaceScalarField;
    location    "500";
    object      phi;
}
// * * * * * * * * * * * * * * * * * * * * * * * * * * * * * * * * * * * * * //

dimensions      [0 3 -1 0 0 0 0];

internalField   nonuniform List<scalar> 
16133
(
1.79511
-0.0306159
-0.127868
-1.63767
-1.5732
0.511565
-0.639329
1.70096
-0.518692
-2.4551
1.86799
1.1058
-0.271938
0.108278
-2.55314
2.7168
-0.618398
-0.015443
3.22722
-2.59339
3.69937
1.78358
-4.5646
-0.918397
-2.57444
0.824568
1.5417
0.208165
0.00133909
-2.53153
0.614249
1.91593
-1.55667
2.3442
1.55313
-2.34068
0.843496
2.94286
-0.473446
-3.31294
1.97318
-1.83517
0.546373
-0.684381
2.8247
-0.939254
0.816747
-2.7022
-0.101431
-3.34332
1.97109
1.47364
1.04223
-0.895661
0.151923
-0.298493
1.18105
0.166818
-0.305642
-1.2778
0.92834
-2.70291
3.05235
-0.267171
0.107411
-0.735902
-4.22066
1.28811
3.34996
-0.417428
-4.00575
3.4098
-0.960733
-0.106671
1.95843
-0.0566527
-0.513903
2.10452
-1.75736
0.166735
-0.428799
-2.48664
2.64349
-2.90252
2.93261
-1.30789
4.71614
-3.64666
0.264804
-1.33431
-3.13981
3.93562
0.0476777
-0.00307179
0.00510762
-0.0647307
0.0626948
0.00996686
-0.00693415
-0.00780201
0.00476925
-0.219223
-1.73593
1.59448
0.360675
-0.0346914
0.0601131
-0.0591877
0.0337661
-3.82894
2.55111
2.35563
-0.563381
-3.56931
1.77704
-0.670656
0.665674
1.97815
0.841488
-2.33261
1.49246
-0.00216962
0.189186
-0.0511667
-0.13585
-2.26376
-2.31481
2.32129
2.25726
-1.13886
0.631237
1.24683
-0.739206
-1.79915
-3.33519
2.87057
-0.0115513
0.0672393
-0.0809745
0.0252865
0.0437061
0.0833513
-0.0230393
-0.104018
-3.66808
0.843737
-1.18143
-3.55531
-0.747102
-2.53083
-0.562309
-0.736978
0.0143412
-0.111359
0.833997
-0.16855
2.31683
-0.0167718
-2.13151
3.14497
-1.40736
-3.53678
2.37476
-1.32671
1.02191
-0.877895
-0.380186
-0.121726
0.478413
0.0234981
1.87791
1.02733
-0.561036
2.63386
-2.45782
-0.604845
-1.30235
-1.74309
-3.63937
3.36732
-2.39238
2.66441
0.114573
0.0440951
-0.114963
-0.0233101
0.0360173
0.0684074
-0.0811147
-0.0159023
0.0463225
0.0529311
-0.0468849
-0.0263885
0.038582
3.03177
-1.55844
-4.80855
-0.0138733
-0.0585535
0.0837251
-0.0112985
-0.603284
0.880826
-0.214789
-0.062755
3.09171
0.0698908
0.0189054
0.0257773
0.517197
-1.39623
-0.694164
0.0406782
-0.0448396
0.046169
-0.0420079
1.3991
-2.67821
2.69594
-1.41683
1.56138
-1.31895
-2.80166
1.89687
-1.55031
-0.474663
-0.0207416
-0.10788
0.112405
0.171806
-0.107472
-0.176739
0.793373
1.92539
-2.90663
0.576795
-1.31684
0.0398322
0.011524
-0.0746664
0.082365
-0.0124106
0.00435718
-0.0743115
-0.821679
0.185184
1.305
-0.668502
1.61933
-2.49063
-1.93036
0.120522
-0.42358
1.4841
-0.471658
-0.897006
0.591564
0.777107
-3.07977
1.40608
-1.23294
-1.54034
0.989731
1.37517
-1.53285
1.46141
0.912914
1.3613
-1.26488
0.0241021
3.00257
-2.79127
0.648428
-0.859733
1.65236
-1.51588
-0.0273384
-0.109137
0.0580485
0.111364
-0.125318
0.042366
0.081228
-0.0875767
3.43483
0.56162
-0.993891
-0.662259
0.481692
1.33757
-1.15701
1.59939
-1.43142
-0.49862
0.33065
2.25564
-2.06096
-0.363227
1.04649
-0.651302
0.12503
-0.520224
1.74801
-0.454913
0.306293
2.49155
0.151656
-0.38757
3.06941
-0.469586
1.78713
-0.165388
1.26978
-0.466239
0.242945
1.91185
-0.360767
0.196929
-0.810248
-0.990869
0.963966
2.56587
-0.460427
1.01779
-0.374848
-1.06652
0.869337
0.0359199
-0.0244345
-2.29545
2.5429
-0.575951
0.328494
0.884947
-0.518464
2.68352
-2.57671
0.728841
-0.835658
0.320052
-0.325998
0.17688
0.642505
2.89891
-0.857905
-0.0846624
1.90906
-0.228606
0.578208
-0.735617
-0.0292513
4.58905
-1.12498
1.37868
-0.0307543
0.0133722
0.287321
-2.25574
-0.489403
-2.38392
-0.811196
-1.42048
-0.0349227
-0.0604792
-0.0252848
-0.0165159
0.241677
-1.57316
-2.28398
-0.556845
2.43048
0.669267
1.47019
-1.93496
-0.513929
2.08567
-2.54352
-0.396517
2.38319
1.40263
1.47994
-0.45209
0.683655
-0.422333
-0.732978
1.59297
-0.577687
-0.99146
0.779543
1.0898
-0.877887
-1.81948
1.92155
0.674864
-0.77694
-0.0422224
0.1063
0.00485751
-0.0689354
-0.553606
0.812727
0.662483
-0.791553
3.26734
-2.61351
-0.0436159
0.0411076
-0.0102954
0.0128037
0.658798
-0.837529
-1.71872
-0.771422
-2.13137
-1.12061
0.0225462
-0.0177754
0.0745805
0.0255601
-0.0703381
0.128823
0.105794
-0.164279
-0.843933
0.929681
-0.895997
-0.464858
2.72123
-1.7494
-2.08691
-0.213849
0.00418028
-0.132654
-2.57557
3.52384
0.0524265
-0.158947
-0.368143
-0.545235
1.74413
-3.40311
2.20421
2.75684
1.06812
-1.05412
0.38161
-0.395599
0.831291
-0.895684
0.266627
-2.5069
-0.465484
0.850838
-0.652523
2.26805
0.958356
-3.77163
-0.363946
0.0690461
-0.0852858
-1.19399
-3.90123
1.81017
-1.63175
2.71866
1.29352
3.25579
1.8951
-0.107327
0.015253
0.23538
-0.143307
2.11841
0.583782
-0.780654
0.964756
-1.49653
0.648138
1.62989
-0.781495
4.33295
1.07234
-2.02411
-3.38118
-0.981919
0.0132271
-2.24447
2.44055
3.20725
-3.11571
-0.120793
0.138232
1.31511
2.42175
2.24822
-2.12538
1.69524
-1.90248
-2.69257
-0.326231
2.62228
-2.54897
1.67635
-1.08895
1.96157
-2.76013
-3.3212
-0.00416948
-2.17088
0.288302
-0.483038
-0.626943
0.012583
-0.00659492
-0.00105936
-0.00492878
-0.00247794
0.695745
2.97257
-2.88112
0.866909
-1.33276
-0.8031
-0.72709
-0.478106
0.414365
-0.271519
0.33526
-2.079
-0.390598
-0.0893494
0.129049
0.0204132
-3.38963
-0.90835
-1.93269
0.985765
0.0951267
-0.0674584
-0.67352
-1.10678
2.07072
-2.50428
1.76089
2.19517
2.50777
2.27107
-1.73039
0.132474
0.0609256
-0.135352
-0.0530695
-0.00832178
1.07154
-0.88106
0.532545
-0.798058
1.86019
-2.1736
-0.701915
0.827997
-0.919969
-0.703281
-0.111053
1.72903
1.14821
0.0992471
0.0426001
-0.153399
-2.25686
1.93621
0.152613
-0.942517
1.10346
-1.51798
2.15489
-0.395239
-0.524948
0.0217788
0.0938391
-0.0749398
2.88032
-0.23324
0.0762279
-0.206935
2.02111
1.03969
2.9843
-0.0014707
0.0240205
-0.438207
0.990553
-0.0917993
1.38162
0.132593
-0.108278
-0.151921
0.127606
-0.052913
0.0498412
-0.00517163
0.0603935
-0.0966067
-0.0531361
0.549654
-0.470798
0.335509
0.308818
-0.0421176
-0.214273
0.561949
0.474026
-1.03845
-0.0291958
-0.07781
0.131715
-0.0247089
1.91895
0.0519893
-0.0566908
0.00470146
-0.739229
-0.700966
2.29741
-3.20232
0.664335
0.775256
0.272691
-0.301916
-0.242295
-1.94953
-0.000923715
0.854596
-3.68349
-0.0347136
0.0440994
0.0110234
-0.0204092
-0.150328
-3.68915
-0.0806157
-0.0185093
0.0699291
-2.71664
-0.395705
-2.02162
3.79449
-1.95045
-0.0307922
-0.117451
0.0704336
0.184545
-0.253848
0.201896
-0.0257375
-0.0586344
0.0374871
-0.650584
1.71552
-0.86286
1.60771
0.966324
-0.713843
0.0177897
-0.0315169
0.0137272
-1.1992
-0.827729
0.0310123
-0.0450311
0.0140189
1.29935
-2.87735
0.822146
0.920163
-0.424796
0.687907
0.0266543
0.00435801
0.338424
-0.156022
-0.156813
0.268459
0.146343
-0.161847
1.50855
-0.412895
-0.714628
2.91951
0.148323
-0.0628115
0.046963
-0.130133
0.124877
-0.76018
1.01032
-1.83394
-0.395382
1.45653
-0.318156
2.79725
0.0447708
0.00507022
0.200709
-2.19098
1.04548
-0.596871
-1.74933
1.13029
0.467342
0.225168
-1.65853
1.45756
-0.147417
-0.0381482
0.0772869
3.52558
-0.0725933
0.0400748
0.0963705
-0.0940792
-0.125832
0.184056
-0.773213
0.153899
-0.00307136
-0.0956327
0.0326903
0.035925
-0.0686153
-0.156457
-2.00243
3.12754
-0.300564
0.365797
0.163782
-1.49056
0.00911316
0.00867649
-0.88491
-3.19427
0.318747
0.0378327
0.103021
-0.100779
-0.30259
-0.134557
0.00671832
-0.85475
-0.39815
-2.78423
-1.45894
-0.0123409
0.125998
0.124819
-0.195308
-0.888866
-0.0228143
0.00453223
-0.0265576
0.0630412
0.143106
-0.145222
-0.234472
-1.94958
-2.37723
0.040886
0.00388472
0.115549
-1.49699
0.0108323
1.15121
0.0332889
-0.00304905
0.0598384
0.0849229
-0.106928
0.417621
0.0971597
0.0327342
0.0391366
-0.0508552
-0.0171061
0.0122435
-0.138853
0.206776
-0.119089
-0.0137785
0.0162967
0.0414151
-0.000529118
-0.00374771
0.00268834
0.0835264
0.0166918
0.00132993
-0.00699836
-0.154714
1.51604
-1.08921
1.03458
0.0337249
-0.11274
-0.00424583
0.172876
-0.304892
-0.464309
0.776384
0.431265
-1.04314
-0.878121
-0.0240852
0.0338582
-0.0400133
0.0172024
-0.0607969
-0.0216518
0.0216005
-0.00798833
0.000483652
0.0409314
0.00860767
-0.0482287
1.65363
-0.00977293
0.0326097
-1.39075
0.352209
-1.47635
-0.540278
-0.0477377
0.00479454
-0.00904039
-0.0292859
0.0136843
-0.0402495
0.0492556
-0.00771047
0.455787
-0.622392
-0.853133
0.582773
-0.041207
-1.09511
-0.308991
-0.0748367
-0.0351081
-1.11414
-0.79523
-0.0147088
-0.0499944
0.0223143
0.0975818
-0.314028
0.0351084
0.0180319
-0.035118
1.37241
-0.0136494
0.0291737
-0.0129454
-0.164417
2.55987
-0.0051556
-0.23277
-0.564295
-0.174714
-0.705231
-0.00491795
0.132009
-0.127091
-0.00948285
0.139589
-0.135024
-0.0144251
0.152107
-0.147165
-0.0198967
0.162185
-0.156713
-0.0258556
0.171587
-0.165628
-0.0324524
0.179853
-0.173256
-0.0395827
0.187752
-0.180621
-0.0473438
0.195273
-0.187512
0.20276
-0.194935
-0.0551687
-0.00411578
0.136125
-0.00836209
0.143836
-0.0127326
0.156478
-0.0175617
0.167014
-0.0227752
0.1768
-0.0285227
0.185601
-0.0347292
0.193958
-0.0414012
0.201945
0.209742
-0.0483829
-0.00366858
0.139793
-0.00741872
0.147586
-0.0112611
0.16032
-0.0154467
0.171199
-0.0199549
0.181308
-0.0248832
0.190529
-0.0301851
0.19926
-0.035831
0.207591
0.215655
-0.0417446
-0.00335572
0.143149
-0.00659728
0.150827
-0.00988504
0.163608
-0.0134192
0.174734
-0.0172302
0.185119
-0.0213794
0.194678
-0.0258344
0.203715
-0.0305736
0.21233
0.220659
-0.035577
-0.00306321
0.146212
-0.00577255
0.153537
-0.00848031
0.166316
-0.0113676
0.177621
-0.0144804
0.188232
-0.0178713
0.198069
-0.0215329
0.207377
-0.0254555
0.216253
0.224832
-0.0296288
-0.00263948
0.148852
-0.0048292
0.155727
-0.00696247
0.168449
-0.00920629
0.179865
-0.0116257
0.190652
-0.014273
0.200716
-0.0171438
0.210248
-0.0202414
0.21935
0.228168
-0.0235766
-0.00193326
0.150785
-0.00367294
0.157466
-0.00526286
0.170039
-0.00689255
0.181495
-0.00862772
0.192387
-0.0105306
0.202619
-0.0126247
0.212342
-0.0149128
0.221639
0.230673
-0.0174187
-0.00104988
0.151835
-0.0023673
0.158784
-0.00341807
0.17109
-0.00442341
0.1825
-0.00547855
0.193442
-0.00665573
0.203796
-0.00798047
0.213667
-0.00947486
0.223133
0.232307
-0.0111082
-0.000242314
0.152077
-0.00104882
0.15959
-0.00149804
0.171539
-0.0018578
0.18286
-0.00222644
0.193811
-0.00267464
0.204245
-0.00325299
0.214245
-0.00397607
0.223856
0.233211
-0.00488084
0.000429421
0.151648
0.000222509
0.159797
0.000450838
0.171311
0.000776646
0.182534
0.00110775
0.19348
0.00135794
0.203994
0.00149255
0.214111
0.00147261
0.223876
0.233396
0.00128814
0.00098774
0.15066
0.00149231
0.159293
0.00246144
0.170342
0.00347734
0.181518
0.00448638
0.19247
0.00540552
0.203075
0.00621252
0.213303
0.00686083
0.223228
0.232943
0.00731348
0.00158359
0.149076
0.00292991
0.157946
0.00461591
0.168656
0.00627272
0.179861
0.00788577
0.190857
0.0094284
0.201533
0.0108578
0.211874
0.0121613
0.221924
0.231882
0.0132224
0.00260278
0.146474
0.00476985
0.155779
0.00699391
0.166432
0.00914791
0.177707
0.0112676
0.188738
0.013328
0.199472
0.0153091
0.209893
0.0171716
0.220062
0.230153
0.0189008
0.00395106
0.142523
0.00680724
0.152923
0.00944107
0.163798
0.0119878
0.17516
0.0145131
0.186212
0.0169975
0.196988
0.0194286
0.207462
0.0217661
0.217724
0.227928
0.0239908
0.00516051
0.137362
0.00865795
0.149425
0.0116844
0.160771
0.0145721
0.172273
0.0174402
0.183344
0.0202983
0.19413
0.0231241
0.204636
0.0258707
0.214977
0.225281
0.0285179
0.00592423
0.131438
0.00999809
0.145352
0.0134164
0.157353
0.0166575
0.169032
0.0198709
0.180131
0.0230817
0.190919
0.0262756
0.201442
0.0294152
0.211838
0.222216
0.0324806
0.00583005
0.125608
0.010506
0.140676
0.0143748
0.153484
0.0180415
0.165365
0.0216496
0.176523
0.0252431
0.187325
0.028806
0.197879
0.0323263
0.208317
0.218804
0.0357379
0.00489952
0.120708
0.0100343
0.135541
0.0144683
0.14905
0.0186524
0.161181
0.0227211
0.172454
0.0267365
0.18331
0.0307082
0.193907
0.0346247
0.204401
0.214978
0.0384508
0.00391073
0.116797
0.00912029
0.130331
0.0139871
0.144183
0.0186579
0.15651
0.023195
0.167917
0.0276578
0.178847
0.0320657
0.189499
0.0364333
0.200033
0.210641
0.0407701
0.00328186
0.113515
0.00828384
0.125329
0.0133342
0.139133
0.0183472
0.151496
0.0232728
0.162991
0.0281398
0.17398
0.0329591
0.18468
0.037733
0.195259
0.205918
0.0424557
0.00297782
0.110537
0.00770752
0.120599
0.0127653
0.134075
0.0179665
0.146295
0.0231798
0.157778
0.0283921
0.168767
0.0335999
0.179472
0.0387916
0.190068
0.200776
0.0439336
0.00290593
0.107631
0.00743013
0.116075
0.0124223
0.129083
0.0176927
0.141025
0.0230988
0.152371
0.0285937
0.163272
0.0341517
0.173914
0.0397408
0.184478
0.19514
0.0453767
0.00316962
0.104462
0.00751958
0.111725
0.0123952
0.124207
0.0176461
0.135774
0.0231768
0.146841
0.0289165
0.157532
0.0348257
0.168005
0.0408075
0.178497
0.189166
0.0467823
0.00398402
0.100478
0.00803529
0.107674
0.012702
0.119541
0.0178839
0.130592
0.0235131
0.141211
0.0294849
0.151561
0.0357839
0.161706
0.0421726
0.172108
0.183496
0.0478417
0.00484493
0.00850052
0.0130785
0.0183522
0.0242119
0.0305505
0.0375424
0.0453709
0.0541531
-0.119466
-0.000739458
0.120206
-0.118572
-0.000894592
-0.11748
-0.00109149
-0.116145
-0.00133508
-0.114527
-0.00161765
-0.112584
-0.00194328
-0.110271
-0.00231292
-0.107549
-0.00272213
-0.104374
-0.00317475
-0.100716
-0.00365817
-0.0965461
-0.0041702
-0.0918451
-0.00470095
-0.0866047
-0.00524039
-0.0808356
-0.00576915
-0.0745972
-0.00623835
-0.0679753
-0.00662198
-0.0610662
-0.00690897
-0.0539595
-0.00710683
-0.0467502
-0.00720922
-0.0395346
-0.00721558
-0.0324125
-0.00712202
-0.0254924
-0.00692018
-0.0188969
-0.00659531
-0.0127515
-0.00614538
-0.0070375
-0.00571392
-0.00158588
-0.0054516
0.00379278
-0.00537853
0.00929925
-0.00550645
0.01506
-0.00576056
0.0210255
-0.00596553
0.0270768
-0.00605115
0.0331271
-0.00605018
0.0391278
-0.00600059
0.0450416
-0.0059137
0.0508314
-0.00578962
0.0564637
-0.00563222
0.0619056
-0.00544175
0.067123
-0.00521732
0.0720869
-0.00496376
0.0767685
-0.00468159
0.0811521
-0.00438348
0.0852479
-0.00409579
0.0890816
-0.00383352
0.0926826
-0.00360098
0.096075
-0.00339217
0.0992857
-0.00321078
0.102332
-0.00304603
0.105231
-0.00289915
0.107988
-0.00275644
0.110599
-0.00261107
0.113061
-0.00246183
0.115364
-0.00230269
0.117507
-0.00214326
0.119486
-0.00197877
0.121303
-0.00181683
0.122964
-0.00166133
0.124475
-0.00151149
0.125851
-0.00137558
-0.0012398
-0.114677
-0.00243091
0.116369
-0.112817
-0.0027543
-0.110777
-0.0031315
-0.108543
-0.0035697
-0.106102
-0.00405814
-0.103436
-0.00461001
-0.100533
-0.00521602
-0.0973756
-0.00587928
-0.0939554
-0.00659494
-0.0902623
-0.00735138
-0.0862895
-0.00814305
-0.0820371
-0.00895332
-0.0775121
-0.00976546
-0.0727446
-0.0105367
-0.0677517
-0.0112312
-0.0625406
-0.0118332
-0.0571131
-0.0123364
-0.0514807
-0.0127393
-0.0456604
-0.0130295
-0.039678
-0.0131981
-0.0335571
-0.0132428
-0.0273096
-0.0131678
-0.0209185
-0.0129863
-0.0143195
-0.0127445
-0.00750683
-0.0125265
-0.000576931
-0.0123815
0.00636247
-0.0123178
0.0131914
-0.0123354
0.0198471
-0.0124162
0.0263688
-0.0124872
0.0328088
-0.0124911
0.039175
-0.0124164
0.0454463
-0.0122717
0.0516006
-0.012068
0.057614
-0.0118029
0.0634664
-0.0114846
0.0691388
-0.011114
0.0746216
-0.0107001
0.079904
-0.0102461
0.0849839
-0.00976144
0.0898578
-0.00925725
0.0945058
-0.0087438
0.098909
-0.00823659
0.103045
-0.007737
0.106899
-0.00724652
0.110462
-0.0067732
0.11373
-0.00631431
0.116701
-0.00587026
0.119389
-0.00544427
0.121806
-0.00502786
0.123971
-0.004627
0.125907
-0.00423882
0.127638
-0.00387343
0.129193
-0.00353415
0.130593
-0.00321634
0.131862
-0.00293105
0.133014
-0.00266345
0.134063
-0.00242389
-0.00220155
-0.122208
-0.00440251
0.124179
-0.120044
-0.00491845
-0.117676
-0.00549945
-0.115098
-0.00614705
-0.112292
-0.00686489
-0.109249
-0.00765319
-0.105961
-0.00850373
-0.102429
-0.00941144
-0.0986503
-0.0103733
-0.0946285
-0.0113732
-0.0903709
-0.0124006
-0.085891
-0.0134332
-0.0812047
-0.0144518
-0.0763126
-0.0154288
-0.0711984
-0.0163454
-0.0658489
-0.0171827
-0.0602514
-0.0179339
-0.0544148
-0.0185759
-0.0483454
-0.0190989
-0.042051
-0.0194925
-0.035536
-0.0197578
-0.0288046
-0.0198993
-0.0218549
-0.019936
-0.0146992
-0.0199001
-0.00739422
-0.0198314
-9.3242e-06
-0.0197664
0.00739399
-0.0197211
0.0147558
-0.0196973
0.0220161
-0.0196764
0.0291523
-0.0196234
0.0361677
-0.0195064
0.0430611
-0.0193098
0.0498208
-0.0190314
0.0564249
-0.0186721
0.0628591
-0.0182371
0.0691068
-0.0177322
0.0751536
-0.0171607
0.0809888
-0.0165354
0.0866044
-0.0158616
0.0919876
-0.0151447
0.0971308
-0.0144004
0.102021
-0.0136345
0.106645
-0.0128603
0.110988
-0.0120796
0.115049
-0.0113076
0.118819
-0.0105432
0.122302
-0.00979738
0.125505
-0.00907334
0.128439
-0.00837845
0.131124
-0.00771261
0.13358
-0.00708325
0.135831
-0.00648986
0.137901
-0.00594309
0.139802
-0.00543578
0.141551
-0.00496476
0.143152
-0.00453193
0.14462
-0.0041313
0.145954
-0.00375809
-0.00341275
-0.127966
-0.00648538
0.130049
-0.12569
-0.00719443
-0.1232
-0.00798956
-0.120484
-0.00886362
-0.117533
-0.00981585
-0.11434
-0.0108462
-0.110901
-0.0119423
-0.107211
-0.0131019
-0.103276
-0.0143085
-0.0990992
-0.0155496
-0.0946889
-0.0168109
-0.0900433
-0.0180789
-0.0851679
-0.0193272
-0.0800527
-0.020544
-0.0746966
-0.0217014
-0.0690902
-0.0227892
-0.0632378
-0.0237863
-0.0571383
-0.0246755
-0.0507897
-0.0254474
-0.0441905
-0.0260917
-0.0373395
-0.0266087
-0.0302385
-0.0270004
-0.0228952
-0.0272792
-0.0153344
-0.027461
-0.00759631
-0.0275695
0.000262703
-0.0276255
0.00817715
-0.0276356
0.0160824
-0.0276025
0.0239226
-0.0275166
0.0316597
-0.0273605
0.0392704
-0.0271171
0.0467368
-0.0267762
0.0540391
-0.0263337
0.0611595
-0.0257926
0.068076
-0.0251536
0.0747742
-0.0244304
0.0812404
-0.0236269
0.0874533
-0.0227483
0.0934014
-0.0218096
0.0990765
-0.0208198
0.104467
-0.0197904
0.109562
-0.0187294
0.114353
-0.0176517
0.118839
-0.0165654
0.123015
-0.0154838
0.126896
-0.0144241
0.130486
-0.0133879
0.133807
-0.0123943
0.136868
-0.011439
0.139694
-0.0105388
0.142301
-0.00969025
0.144706
-0.00889517
0.146916
-0.00815232
0.148946
-0.00746557
0.150804
-0.00682351
0.152502
-0.00622933
0.154045
-0.00567452
0.155443
-0.00515654
-0.00468234
-0.137187
-0.00869573
0.139397
-0.134757
-0.00962354
-0.132102
-0.0106449
-0.129206
-0.0117595
-0.126058
-0.0129636
-0.122653
-0.0142518
-0.118979
-0.015616
-0.115041
-0.0170396
-0.110837
-0.0185128
-0.106368
-0.0200189
-0.101637
-0.0215416
-0.0966487
-0.0230673
-0.0914044
-0.0245714
-0.0859086
-0.0260399
-0.0801561
-0.0274538
-0.0741493
-0.028796
-0.0678869
-0.0300487
-0.0613638
-0.0311986
-0.0545815
-0.0322298
-0.0475349
-0.0331384
-0.0402299
-0.0339137
-0.0326717
-0.0345586
-0.0248752
-0.0350757
-0.016864
-0.0354722
-0.00867716
-0.0357564
-0.000364781
-0.0359379
0.00801912
-0.0360195
0.0164186
-0.036002
0.02478
-0.035878
0.0330567
-0.0356372
0.0412097
-0.03527
0.0492036
-0.0347702
0.057006
-0.0341361
0.064591
-0.0333776
0.071936
-0.0324985
0.0790138
-0.0315082
0.0858081
-0.0304211
0.0923065
-0.0292468
0.0984968
-0.028
0.104375
-0.0266982
0.109932
-0.0253474
0.115174
-0.0239713
0.1201
-0.0225779
0.124722
-0.0211868
0.12905
-0.0198121
0.133093
-0.0184678
0.136873
-0.0171673
0.140399
-0.0159199
0.143687
-0.0147276
0.146749
-0.0136009
0.149598
-0.0125391
0.152242
-0.0115391
0.154691
-0.0106014
0.156944
-0.00971817
0.159013
-0.008893
0.160906
-0.00812173
0.162632
-0.00740116
0.164205
-0.00672946
-0.00610473
-0.145153
-0.0109704
0.147427
-0.142663
-0.0121135
-0.139947
-0.0133609
-0.136988
-0.0147188
-0.133769
-0.0161818
-0.130289
-0.017732
-0.126537
-0.0193681
-0.122507
-0.0210696
-0.118195
-0.0228248
-0.113603
-0.0246111
-0.108728
-0.0264168
-0.103571
-0.0282237
-0.0981302
-0.0300126
-0.0924035
-0.0317666
-0.0863919
-0.0334655
-0.0800933
-0.0350945
-0.0735055
-0.0366365
-0.0666328
-0.0380714
-0.0594702
-0.0393924
-0.0520214
-0.0405871
-0.0442881
-0.041647
-0.0362831
-0.0425637
-0.0280221
-0.0433366
-0.0195336
-0.0439608
-0.0108559
-0.0444342
-0.00203659
-0.0447572
0.00687126
-0.0449273
0.0158131
-0.0449439
0.0247333
-0.0447983
0.0335782
-0.0444821
0.0422987
-0.0439905
0.0508446
-0.0433162
0.0591744
-0.0424659
0.0672531
-0.0414563
0.0750458
-0.0402913
0.0825309
-0.0389933
0.0896885
-0.0375787
0.0964976
-0.0360559
0.102957
-0.0344591
0.109062
-0.032804
0.114824
-0.0311089
0.120245
-0.0293926
0.125344
-0.0276764
0.13013
-0.0259729
0.134622
-0.0243042
0.138834
-0.0226796
0.142778
-0.021112
0.146469
-0.0196109
0.149922
-0.0181805
0.153146
-0.0168247
0.156153
-0.0155459
0.158947
-0.0143337
0.161538
-0.0131917
0.163934
-0.0121141
0.166144
-0.0111037
0.168172
-0.0101489
0.170026
-0.00925557
0.17172
-0.0084238
-0.00764075
-0.154747
-0.0133325
0.157109
-0.152163
-0.0146972
-0.149345
-0.0161797
-0.146278
-0.0177856
-0.142952
-0.0195074
-0.139354
-0.0213305
-0.135476
-0.023246
-0.13131
-0.0252357
-0.126857
-0.0272772
-0.122107
-0.0293611
-0.117061
-0.0314632
-0.111714
-0.0335701
-0.106061
-0.0356656
-0.100099
-0.0377289
-0.0938242
-0.0397404
-0.0872354
-0.0416833
-0.080326
-0.0435459
-0.0731062
-0.0452912
-0.0655694
-0.0469291
-0.0577225
-0.048434
-0.0495655
-0.0498041
-0.041114
-0.0510152
-0.0323875
-0.0520631
-0.0234116
-0.0529367
-0.014234
-0.0536118
-0.00490022
-0.054091
0.00453199
-0.0543596
0.0140107
-0.0544227
0.023478
-0.0542656
0.0328733
-0.0538775
0.042142
-0.0532592
0.0512144
-0.0523886
0.0600396
-0.0512912
0.0685766
-0.0499933
0.076782
-0.0484967
0.0846381
-0.0468495
0.0921265
-0.0450671
0.0992183
-0.0431478
0.105929
-0.0411693
0.112263
-0.0391389
0.118244
-0.0370891
0.123881
-0.0350302
0.129199
-0.0329946
0.134213
-0.0309863
0.138944
-0.029035
0.143402
-0.0271383
0.1476
-0.0253102
0.151544
-0.0235543
0.155246
-0.021883
0.158718
-0.0202962
0.161961
-0.0187892
0.164993
-0.0173658
0.167812
-0.0160104
0.170425
-0.0147274
0.172836
-0.013515
0.175055
-0.0123675
0.177087
-0.0112881
0.17894
-0.0102763
-0.00932235
-0.164357
-0.0157425
0.166767
-0.161741
-0.0173132
-0.158899
-0.0190212
-0.155806
-0.0208782
-0.152456
-0.0228583
-0.148827
-0.024959
-0.144922
-0.0271511
-0.14072
-0.0294375
-0.136208
-0.0317889
-0.131401
-0.0341688
-0.126275
-0.0365887
-0.120822
-0.0390233
-0.115037
-0.0414507
-0.108905
-0.0438605
-0.102424
-0.0462217
-0.0955822
-0.0485251
-0.0883783
-0.0507497
-0.080842
-0.0528276
-0.072963
-0.054808
-0.0647403
-0.0566567
-0.0561684
-0.058376
-0.0472744
-0.0599091
-0.0380833
-0.0612543
-0.0285956
-0.0624244
-0.0189032
-0.0633042
-0.00903865
-0.0639555
0.000918159
-0.0643164
0.0109364
-0.064441
0.0209465
-0.0642756
0.0308849
-0.0638159
0.0407056
-0.0630799
0.0502926
-0.0619756
0.0595936
-0.0605922
0.0685913
-0.058991
0.0771931
-0.0570985
0.0854237
-0.0550802
0.093283
-0.0529265
0.100673
-0.0505383
0.107664
-0.0481598
0.114278
-0.0457528
0.120536
-0.0433474
0.126471
-0.0409652
0.132082
-0.0386058
0.137403
-0.0363072
0.142478
-0.0341096
0.147269
-0.0319295
0.151815
-0.029856
0.156094
-0.0278336
0.160092
-0.0258814
0.163836
-0.0240396
0.16734
-0.0222933
0.170614
-0.0206405
0.173661
-0.0190573
0.176486
-0.0175518
0.179094
-0.0161237
0.181494
-0.0147677
0.183685
-0.013479
0.185686
-0.0122773
-0.0111476
-0.175629
0.178028
-0.0181421
-0.17298
-0.0199623
-0.17009
-0.0219104
-0.166936
-0.0240325
-0.163526
-0.0262685
-0.159832
-0.0286527
-0.15584
-0.0311434
-0.151577
-0.0337009
-0.147016
-0.0363496
-0.142064
-0.0391203
-0.136839
-0.0418138
-0.13126
-0.0446027
-0.125278
-0.047432
-0.118974
-0.0501646
-0.112243
-0.0529526
-0.105205
-0.0555637
-0.0977558
-0.0581987
-0.0898676
-0.0607159
-0.0815655
-0.06311
-0.072938
-0.0652843
-0.06394
-0.067374
-0.0546602
-0.0691889
-0.0450439
-0.0708706
-0.0350498
-0.0724185
-0.0248468
-0.0735073
-0.0144688
-0.0743335
-0.00403944
-0.0747457
0.00650603
-0.0749864
0.0170574
-0.074827
0.0274389
-0.0741974
0.0377642
-0.0734052
0.0478086
-0.0720201
0.0575076
-0.0702913
0.0669298
-0.0684132
0.0759231
-0.0660917
0.0844994
-0.0636565
0.0925856
-0.0610127
0.100203
-0.0581552
0.107555
-0.0555119
0.114488
-0.0526861
0.121085
-0.0499443
0.127425
-0.0473052
0.133453
-0.0446346
0.139236
-0.0420902
0.144766
-0.0396399
0.150029
-0.0371924
0.155038
-0.0348645
0.159725
-0.032521
0.164244
-0.0303998
0.168494
-0.0282898
0.172457
-0.0262568
0.176138
-0.0243215
0.179539
-0.0224578
0.182734
-0.0207469
0.18568
-0.0190693
0.188373
-0.0174614
0.190813
-0.0159192
0.192979
-0.0144431
-0.0131035
-0.0775736
0.0089582
-0.085301
0.00772738
-0.0919424
0.00664127
-0.0978471
0.00590469
-0.103448
0.0056004
-0.10886
0.00541204
-0.114226
0.00536683
-0.11987
0.00564319
-0.125767
0.00589737
-0.131252
0.00548488
-0.135519
0.00426725
-0.138144
0.00262422
-0.13913
0.000986039
-0.138923
-0.000206383
-0.138222
-0.000701501
-0.137456
-0.000766038
-0.136716
-0.000739702
-0.135928
-0.00078796
-0.13494
-0.000987809
-0.133494
-0.00144668
-0.131299
-0.0021951
-0.128415
-0.00288347
-0.125309
-0.00310681
-0.122599
-0.00270944
-0.00239343
-0.0823079
0.0165997
-0.0898767
0.0152961
-0.0971406
0.0139052
-0.104082
0.0128458
-0.110685
0.0122041
-0.117053
0.0117791
-0.123203
0.0115169
-0.128923
0.0113633
-0.133944
0.0109186
-0.138163
0.00970344
-0.141656
0.00776091
-0.144446
0.00541424
-0.1465
0.00303942
-0.147727
0.00102056
-0.148069
-0.000359676
-0.147626
-0.00120877
-0.146551
-0.00181447
-0.14493
-0.00240926
-0.142795
-0.00312262
-0.140187
-0.00405464
-0.13718
-0.00520162
-0.133674
-0.00639009
-0.129342
-0.00743909
-0.123669
-0.00838185
-0.00969399
-0.0899373
0.0254223
-0.0983714
0.0237302
-0.106455
0.0219888
-0.114127
0.0205181
-0.121298
0.0193749
-0.127966
0.0184468
-0.134073
0.0176241
-0.139465
0.0167548
-0.14407
0.0155238
-0.148025
0.0136586
-0.151453
0.0111884
-0.154393
0.00835484
-0.156835
0.00548084
-0.158674
0.00285949
-0.159733
0.000699256
-0.159911
-0.00102996
-0.159229
-0.00249638
-0.157742
-0.00389707
-0.155495
-0.00536876
-0.152535
-0.00701466
-0.148887
-0.00884973
-0.144459
-0.0108189
-0.139035
-0.0128628
-0.132331
-0.0150858
-0.0178455
-0.097309
0.0351546
-0.106479
0.0329004
-0.115192
0.0307014
-0.123402
0.0287286
-0.131031
0.0270037
-0.138029
0.0254443
-0.144331
0.023926
-0.149863
0.0222871
-0.154633
0.0202942
-0.15876
0.0177851
-0.162361
0.0147896
-0.165487
0.011481
-0.168104
0.00809721
-0.170114
0.00486995
-0.171353
0.00193794
-0.171701
-0.000682051
-0.171099
-0.00309823
-0.169547
-0.00544854
-0.167052
-0.00786412
-0.163638
-0.0104284
-0.15928
-0.0132074
-0.153888
-0.0162114
-0.147284
-0.0194665
-0.139311
-0.0230592
-0.0271074
-0.104538
0.0456138
-0.114425
0.0427871
-0.123743
0.040019
-0.132462
0.0374479
-0.140519
0.0350607
-0.147871
0.0327963
-0.154475
0.0305297
-0.160303
0.0281148
-0.165388
0.0253794
-0.169817
0.0222144
-0.173678
0.01865
-0.177004
0.0148074
-0.179753
0.0108463
-0.181833
0.00694978
-0.183124
0.00322913
-0.183498
-0.000307889
-0.182878
-0.00371898
-0.181234
-0.00709262
-0.178548
-0.0105496
-0.17481
-0.0141668
-0.17
-0.0180168
-0.16408
-0.0221311
-0.157005
-0.0265426
-0.148768
-0.0312956
-0.0364787
-0.111726
0.0565608
-0.122241
0.0533019
-0.132127
0.0499047
-0.141348
0.0466693
-0.149851
0.0435636
-0.157609
0.0405541
-0.164588
0.0375087
-0.170788
0.0343147
-0.176249
0.0308403
-0.181023
0.026989
-0.185176
0.0228029
-0.188714
0.0183447
-0.191596
0.013729
-0.193743
0.00909601
-0.195029
0.00451551
-0.195362
2.52282e-05
-0.194664
-0.004417
-0.192866
-0.00889032
-0.189941
-0.013475
-0.185849
-0.0182591
-0.180573
-0.0232926
-0.174092
-0.0286123
-0.166387
-0.0342477
-0.157468
-0.0402143
-0.0465194
-0.118689
0.0683218
-0.129918
0.0645309
-0.140397
0.0603828
-0.15014
0.0564129
-0.159117
0.0525405
-0.16732
0.0487569
-0.174711
0.0449
-0.181316
0.0409195
-0.187166
0.0366901
-0.192298
0.0321216
-0.196757
0.0272611
-0.200535
0.0221224
-0.203571
0.0167651
-0.205783
0.0113084
-0.207085
0.00581702
-0.207376
0.000316891
-0.206578
-0.00521508
-0.204631
-0.0108379
-0.201484
-0.0166218
-0.197117
-0.0226263
-0.191495
-0.0289138
-0.18464
-0.0354677
-0.176571
-0.042317
-0.167358
-0.0494272
-0.0567681
-0.125567
0.0811488
-0.137569
0.0765332
-0.148621
0.0714343
-0.158895
0.0666876
-0.16836
0.0620053
-0.177035
0.0574315
-0.18486
0.0527246
-0.191873
0.0479334
-0.198134
0.0429504
-0.203623
0.0376109
-0.208386
0.0320243
-0.212427
0.0261633
-0.215632
0.01997
-0.217943
0.0136197
-0.219267
0.00714042
-0.219515
0.000564971
-0.21862
-0.00611031
-0.216516
-0.0129417
-0.213155
-0.0199825
-0.208529
-0.0272529
-0.202614
-0.0348285
-0.195434
-0.0426481
-0.187011
-0.0507398
-0.177419
-0.0590194
-0.0674204
-0.132895
0.0949542
-0.145409
0.089047
-0.156858
0.0828837
-0.167622
0.0774512
-0.177579
0.0719622
-0.186773
0.0666263
-0.195047
0.0609986
-0.202486
0.0553716
-0.209154
0.0496186
-0.215019
0.0434758
-0.220071
0.0370761
-0.224347
0.0304394
-0.227769
0.0233924
-0.230198
0.0160489
-0.231547
0.00848887
-0.23177
0.000788241
-0.230774
-0.00710684
-0.228538
-0.0151772
-0.224956
-0.0235646
-0.220032
-0.0321764
-0.213877
-0.0409835
-0.206492
-0.0500332
-0.197894
-0.0593379
-0.188332
-0.0685821
-0.0777237
1.10508
0.128969
0.216405
-0.345347
-0.776663
0.735315
0.0413481
0.296494
-0.38112
0.0846262
0.363245
-0.416436
0.0531907
0.0761874
-0.519183
0.442996
-0.407745
0.710221
-0.302475
0.590247
-0.402675
-0.187574
-0.0512904
-0.207059
0.258349
4.30134
-2.82362
-1.47771
-0.767764
1.60191
-0.834149
-0.89987
0.276173
0.623696
0.815249
-1.52102
0.705764
-0.469276
-0.464652
0.933926
0.132026
-0.134504
0.00247814
1.76751
-1.59818
-0.169337
-0.662169
-0.114494
0.139555
-0.0219171
-0.117638
0.245189
0.19613
0.162108
0.112142
-0.274251
-0.366773
0.218644
0.148129
2.1449
0.674972
-2.81987
-0.441349
0.819196
-0.377848
1.14518
-0.889848
-0.255328
-0.861522
0.234492
0.62703
0.986635
0.158541
-1.09221
0.510552
0.581655
-0.69774
0.0868181
0.610921
2.20717
-1.4084
-0.798766
-0.036955
-0.15158
0.188535
0.325994
0.401251
-0.727245
0.777228
-1.85256
1.07536
0.587264
0.853001
-1.44027
1.18358
-2.52819
1.3446
-0.302701
-0.0699617
0.372662
0.564685
0.934032
-1.49872
-0.906454
0.43718
-2.36614
0.637475
1.72866