/*--------------------------------*- C++ -*----------------------------------*\
  =========                 |
  \\      /  F ield         | OpenFOAM: The Open Source CFD Toolbox
   \\    /   O peration     | Website:  https://openfoam.org
    \\  /    A nd           | Version:  10
     \\/     M anipulation  |
\*---------------------------------------------------------------------------*/
FoamFile
{
    format      ascii;
    class       volVectorField;
    location    "500";
    object      U;
}
// * * * * * * * * * * * * * * * * * * * * * * * * * * * * * * * * * * * * * //

dimensions      [0 1 -1 0 0 0 0];

internalField   nonuniform List<vector> 
10435
(
(1.54142 0.107837 -6.64069e-23)
(1.53774 0.369629 5.11122e-22)
(3.24235 -0.158356 -3.53793e-21)
(1.92964 -0.0102125 1.5826e-21)
(2.21197 0.228258 -3.22021e-21)
(2.74407 0.323037 1.25057e-20)
(3.26051 -0.1816 -1.34919e-20)
(3.30226 -0.189152 1.01865e-20)
(3.26767 -0.255467 4.8461e-20)
(3.06016 0.113093 -6.33688e-21)
(1.6936 0.319962 -4.04238e-22)
(2.48126 -0.213331 9.62241e-21)
(3.1474 -0.190053 1.17408e-20)
(0.898712 0.211598 4.03573e-21)
(0.995477 0.233035 4.85429e-21)
(3.26448 -0.175812 -1.45024e-21)
(0.80712 0.182044 -1.36345e-21)
(3.08686 -0.0315853 3.5815e-20)
(3.21178 -0.319273 -2.08477e-20)
(1.61562 0.0704885 3.31812e-22)
(3.28826 -0.187703 6.65359e-21)
(1.93116 -0.113357 -1.96131e-21)
(3.24341 -0.148553 4.28897e-20)
(2.88219 -0.581929 -1.28936e-20)
(3.10782 0.0396056 8.10888e-21)
(0.219442 0.345251 2.75187e-22)
(0.0565854 0.0274626 8.07607e-22)
(3.20842 -0.184816 7.14995e-21)
(0.254339 -0.110133 -1.44727e-22)
(3.08059 0.066465 3.89592e-20)
(3.04951 -0.0489845 1.39316e-20)
(1.77921 0.301753 -6.70301e-23)
(3.30314 -0.195254 -2.35924e-20)
(0.497044 -0.113105 -1.02029e-21)
(3.22244 -0.292262 1.18497e-20)
(1.31201 0.47027 -9.11535e-22)
(3.18886 -0.256861 1.745e-20)
(0.16363 0.196299 -2.97591e-21)
(0.359637 0.341266 9.07022e-23)
(3.12651 -0.44859 6.3947e-21)
(2.98509 0.217736 -3.35669e-20)
(3.25709 -0.166187 -1.09613e-20)
(0.610893 0.370829 4.56693e-21)
(1.75786 0.0732309 -1.24729e-21)
(3.16047 -0.193741 -2.74881e-20)
(3.00779 -0.549255 2.65282e-20)
(2.86308 0.296316 -1.60128e-20)
(0.444333 0.318929 1.61658e-20)
(3.27382 -0.194542 1.73743e-20)
(1.9162 -0.229723 -1.84907e-21)
(3.29297 -0.200164 -1.91907e-21)
(2.81377 0.130258 8.15773e-20)
(0.404748 0.35364 4.83645e-22)
(0.34162 -0.184557 -1.08471e-22)
(0.314086 0.346306 -1.61777e-22)
(0.203058 -0.131864 3.43591e-22)
(3.10536 -0.349043 -5.09316e-20)
(0.17104 0.120882 -1.29868e-21)
(0.678454 0.0347589 1.23637e-21)
(3.13731 -0.401517 3.29611e-20)
(0.358636 0.359628 -2.84164e-22)
(1.46142 0.401653 -8.2861e-22)
(0.193811 0.0234804 1.54233e-21)
(2.63317 0.124729 -4.41919e-21)
(3.20766 -0.156019 -5.7106e-20)
(3.21744 -0.12273 2.89283e-20)
(0.622293 -0.0192124 -2.024e-21)
(0.356503 0.119827 -5.67702e-21)
(3.29617 -0.182675 -1.27072e-20)
(2.71843 -0.605309 1.45285e-21)
(0.293824 -0.203359 3.0468e-22)
(0.176639 0.294044 -8.74884e-23)
(0.701123 0.478802 -9.7882e-21)
(3.22337 -0.114111 -3.93289e-20)
(1.0944 0.248815 2.33812e-21)
(0.760982 0.452914 -3.64849e-22)
(2.56129 -0.588144 2.59565e-20)
(3.26896 -0.184778 3.34364e-20)
(3.3065 -0.187287 3.03152e-21)
(1.13463 0.153057 -1.14767e-20)
(2.11725 -0.38105 2.51942e-21)
(1.47046 0.067637 1.54596e-22)
(0.448826 0.363937 -4.91902e-22)
(0.384175 -0.171654 7.41992e-23)
(2.23184 -0.450318 -5.88981e-21)
(1.29341 0.41652 -4.00059e-21)
(1.4192 0.299498 -1.19839e-22)
(1.73107 0.165043 2.7243e-22)
(1.16689 0.373981 1.31803e-21)
(1.49809 0.266357 -1.86924e-22)
(1.81367 0.13364 -3.51085e-23)
(1.91002 0.100052 -3.56536e-22)
(1.54246 0.030834 1.50001e-22)
(1.25047 0.360596 -3.39948e-21)
(1.57544 0.232185 -1.15438e-22)
(1.236 0.500285 -1.35157e-21)
(2.01319 0.0536887 1.90893e-21)
(1.05076 0.335071 -2.62441e-21)
(0.763389 0.0750057 1.22163e-21)
(2.1267 0.0723442 -5.11054e-21)
(1.10663 0.355914 -3.60174e-21)
(2.22665 0.35625 -1.87435e-21)
(1.33509 0.332545 1.40578e-21)
(1.65287 0.197802 2.53366e-22)
(2.35018 0.356824 5.83025e-22)
(1.84003 0.0337325 -4.68815e-22)
(1.61226 -0.00995056 3.66975e-22)
(2.01391 -0.310441 3.17503e-21)
(2.37258 -0.507403 -1.25154e-20)
(1.2257 0.148945 2.18649e-21)
(1.83097 -0.164937 -8.41609e-22)
(2.11121 0.351185 -1.09601e-21)
(1.39422 0.100094 1.66115e-21)
(1.31298 0.129833 1.78087e-21)
(2.00838 0.121004 1.79575e-22)
(1.84443 -0.0600755 7.08174e-22)
(2.23779 0.0241846 -2.88946e-21)
(1.37377 0.385175 5.54698e-22)
(1.68323 0.255032 -6.19261e-22)
(2.23828 -0.072187 -1.0296e-21)
(2.35059 -0.026021 -1.22143e-20)
(0.784099 0.524826 6.89728e-22)
(1.45061 0.351912 -5.615e-22)
(1.02053 0.590348 5.23438e-21)
(1.78341 0.380524 1.26644e-22)
(0.293142 0.354471 -3.80252e-22)
(2.13093 -0.0183365 6.47533e-21)
(0.861145 0.555833 7.24267e-22)
(2.24744 0.119088 -7.56582e-21)
(0.0740622 0.224377 3.01231e-22)
(0.94069 0.575427 -2.38806e-21)
(1.69134 0.390093 -1.34217e-21)
(3.27688 -0.197794 -1.79786e-20)
(1.041 0.143804 -8.28937e-21)
(0.160005 0.248357 -1.41473e-24)
(0.595049 0.395571 -1.46081e-23)
(1.16714 0.581111 -1.39676e-21)
(2.02829 -0.0664042 -3.0046e-22)
(1.60521 0.284999 1.54153e-22)
(1.76423 -0.0129892 2.37425e-22)
(1.68878 0.0304992 -2.57342e-22)
(3.12671 -0.110872 -5.78312e-20)
(0.563963 -0.0587013 -3.86024e-21)
(2.70714 -0.0433763 5.28699e-20)
(2.02898 -0.177076 5.60315e-23)
(0.925182 0.429855 -1.06753e-20)
(1.09579 0.595555 1.73339e-22)
(2.67981 0.210223 -2.19484e-20)
(0.770351 0.275033 -6.19758e-21)
(2.70024 -0.150758 4.03611e-21)
(0.38507 0.333064 9.45667e-22)
(3.08829 -0.239286 2.89071e-20)
(1.52788 0.18389 -3.90503e-23)
(2.80814 -0.122763 3.42455e-20)
(2.86155 0.192902 -1.78885e-20)
(0.318384 0.341427 -7.70156e-22)
(1.87964 0.367812 3.34389e-21)
(1.52763 0.317701 1.98362e-22)
(2.96355 0.172663 -1.76934e-20)
(1.5287 0.426709 -3.99303e-22)
(2.95882 -0.176158 -7.61862e-21)
(0.949207 0.126108 1.91398e-21)
(1.86311 0.200109 5.24603e-21)
(2.37978 -0.338507 3.54721e-21)
(1.19342 0.24413 -3.98624e-21)
(2.38495 0.05534 3.05067e-20)
(3.29388 -0.218495 -4.21763e-20)
(2.24741 -0.180166 -3.43934e-21)
(2.63513 -0.41074 1.39781e-20)
(2.58045 0.0487241 -8.66397e-20)
(3.02687 0.0798705 1.90204e-20)
(0.64963 0.464755 1.69551e-21)
(0.0479153 -0.0386925 -6.12664e-22)
(1.0006 0.432293 4.01611e-22)
(2.73896 -0.271533 -1.57775e-20)
(1.45386 0.455662 1.61298e-22)
(1.3864 0.43611 7.27697e-22)
(0.561837 0.224929 -2.71352e-21)
(1.75421 -0.107569 3.81145e-22)
(0.305513 -0.0853741 1.36999e-22)
(1.61463 0.341632 -5.55543e-23)
(2.6147 0.339136 -1.86341e-21)
(2.59122 -0.173166 -3.40184e-20)
(0.342275 0.36534 -1.43515e-22)
(3.05188 -0.141021 7.27746e-21)
(0.5521 0.393256 -4.84195e-21)
(0.711032 0.466399 9.84782e-21)
(3.27922 -0.180306 -2.95197e-20)
(2.31673 0.226224 3.36277e-21)
(2.77415 0.0311401 -4.30465e-20)
(2.4354 -0.100227 2.43449e-21)
(0.487399 0.374065 -4.39624e-22)
(0.0978246 0.260528 -3.42739e-22)
(1.23816 0.554692 6.63814e-22)
(1.99003 0.360381 1.96635e-21)
(3.28871 -0.179591 1.668e-21)
(0.743054 0.370046 -1.41879e-20)
(1.21049 0.440422 2.53097e-21)
(0.500345 0.279689 -1.61176e-20)
(3.23653 -0.200902 2.42699e-20)
(1.18045 0.308773 4.88519e-21)
(0.226141 0.232159 -1.16341e-21)
(3.18725 -0.180111 -2.25725e-21)
(0.216738 0.183299 -1.03634e-21)
(3.21393 -0.153707 -8.59604e-21)
(2.00122 0.191857 5.67059e-22)
(1.76378 0.228134 1.3034e-21)
(2.13824 -0.128507 -1.99304e-21)
(0.27013 -0.00270203 1.11895e-21)
(2.13648 -0.242921 -1.964e-21)
(0.440704 0.374907 1.87312e-21)
(3.2498 -0.149613 -5.90779e-20)
(2.5174 -0.0493905 5.16566e-20)
(2.50891 -0.332818 5.77087e-21)
(0.0931302 0.00484206 -2.86744e-22)
(0.862317 0.306039 1.60604e-20)
(1.29438 0.209963 -1.20625e-21)
(0.452436 0.390276 3.70483e-22)
(0.208094 0.3388 -6.67053e-22)
(0.860948 0.101723 -1.3082e-21)
(0.356125 -0.112845 4.18043e-23)
(0.625198 0.161476 -5.32353e-21)
(0.473427 -0.0220161 2.77383e-21)
(1.00966 0.500052 1.28419e-20)
(0.255139 0.338366 -4.00053e-22)
(3.2607 -0.22805 -8.32791e-21)
(0.259722 0.340828 1.42061e-21)
(1.12869 0.44685 -3.01612e-21)
(2.93444 0.00734485 6.63402e-20)
(0.847681 0.489324 8.95245e-21)
(0.494052 0.143084 1.66749e-20)
(3.28543 -0.226451 4.09334e-20)
(0.234443 0.342801 2.08967e-21)
(2.98593 -0.30226 2.5558e-20)
(0.0682568 0.140621 -1.63186e-21)
(0.710283 0.154368 9.86469e-21)
(2.97655 -0.435523 -3.47099e-20)
(0.21843 0.333141 4.07247e-22)
(2.83436 -0.474321 -1.50785e-21)
(3.06258 0.000690937 3.28194e-22)
(1.68072 0.111083 2.25099e-22)
(0.302215 0.360361 -7.4778e-23)
(0.487211 0.402339 -4.29035e-24)
(0.253986 -0.1532 2.14222e-23)
(1.92628 0.196899 -7.98526e-21)
(3.29747 -0.208475 1.53087e-20)
(1.15805 0.520139 5.92362e-21)
(3.29128 -0.180561 9.87711e-21)
(0.12197 -0.119158 -5.40362e-22)
(1.37933 0.487009 -1.27964e-22)
(0.182096 -0.173106 -6.78283e-22)
(1.27754 0.283669 2.61132e-21)
(3.15386 -0.0927781 -1.35287e-20)
(2.25044 -0.299699 -3.6016e-21)
(3.28219 -0.183643 -2.57182e-20)
(2.43977 0.131804 1.69526e-20)
(0.128503 -0.151141 2.01874e-21)
(3.27386 -0.185851 3.55821e-20)
(0.395104 0.372773 -1.05805e-22)
(0.310624 0.262431 2.99155e-21)
(3.26491 -0.18897 1.6645e-21)
(2.96318 0.0813333 2.35604e-21)
(0.26539 0.353029 -1.11097e-22)
(2.50805 -0.496943 -1.53849e-20)
(1.38091 0.177314 -5.58709e-22)
(0.588904 0.0889622 -8.8997e-21)
(1.60454 0.148 -9.82021e-23)
(3.16499 -0.0941694 3.14148e-20)
(0.42956 0.37769 2.07131e-22)
(2.10956 0.162448 1.17781e-21)
(3.25653 -0.190462 -5.83384e-24)
(3.29937 -0.177086 -5.78555e-21)
(3.28776 -0.181793 -3.69356e-21)
(3.15914 -0.0308946 -3.29618e-20)
(0.178686 0.333308 1.15342e-21)
(2.34086 -0.107704 -5.74941e-21)
(0.125034 0.206169 1.54204e-21)
(2.06727 0.258218 7.64531e-22)
(3.27985 -0.175917 9.40414e-21)
(3.30406 -0.17467 2.41724e-21)
(3.13905 -0.0208636 1.82347e-20)
(0.644382 0.309603 2.21902e-20)
(3.24665 -0.192228 -9.96267e-22)
(1.06851 0.438958 1.39019e-21)
(1.36289 0.253178 1.11146e-21)
(0.510552 0.39235 1.66899e-22)
(2.43878 0.227541 2.77296e-21)
(0.292235 0.330833 1.84408e-22)
(0.429089 -0.158369 3.761e-22)
(0.421995 -0.106951 -2.21472e-22)
(1.07441 0.522256 -8.10086e-21)
(1.6063 0.406838 1.13208e-21)
(0.345588 -0.0421003 -6.64386e-22)
(3.29415 -0.178628 1.07322e-20)
(0.339267 0.31766 9.82611e-23)
(0.257766 -0.202845 -1.77814e-21)
(0.844868 0.40603 1.29792e-21)
(1.46409 0.143147 -1.49841e-22)
(1.95573 0.277032 -1.97181e-22)
(3.13664 -0.028491 1.73478e-20)
(0.422064 0.197464 -2.70221e-20)
(2.71068 -0.476362 -4.10561e-21)
(3.23347 -0.194853 -3.24669e-22)
(0.0884393 -0.0855652 -7.86675e-22)
(1.86228 0.294978 -1.27228e-21)
(0.952765 0.327835 -8.35652e-21)
(0.681023 0.234085 -6.8794e-21)
(2.87337 -0.343577 -2.54021e-21)
(3.18684 -0.0675456 -3.5693e-22)
(0.472517 -0.149689 -1.82846e-22)
(1.68066 -0.0552272 4.19794e-22)
(0.225031 0.272225 2.05438e-22)
(1.30827 0.521189 1.28257e-22)
(2.54304 0.225668 -7.21491e-21)
(3.27 -0.273174 -9.03645e-21)
(0.221208 -0.190429 -4.20032e-22)
(0.364263 0.373757 1.13126e-22)
(2.88551 -0.0622108 -7.50662e-20)
(0.435217 0.0753138 -1.80185e-22)
(2.3636 -0.211682 4.93238e-21)
(2.46816 0.356102 -1.53285e-21)
(0.180854 -0.0324803 -1.49882e-21)
(1.44802 0.218935 1.14269e-22)
(0.525444 0.384026 2.8451e-23)
(3.30701 -0.173284 -1.46832e-21)
(3.19077 -0.124251 -7.65242e-21)
(0.151175 0.325869 4.9563e-22)
(3.21957 -0.197369 -3.63734e-23)
(0.523334 0.031253 -1.6045e-22)
(0.11693 0.135214 2.21541e-21)
(3.2171 -0.354505 -1.87011e-21)
(0.501022 -0.082439 5.62634e-22)
(0.510121 -0.142098 -1.8764e-22)
(3.24791 -0.182116 9.94882e-22)
(2.85458 -0.236316 1.51301e-20)
(0.239537 0.0877747 3.73873e-21)
(0.20883 -0.17959 -7.27458e-22)
(0.133072 -0.141621 -4.03611e-22)
(0.556037 -0.121862 -9.19739e-23)
(0.0812807 -0.0655837 -1.02754e-22)
(0.127088 0.311261 -1.27789e-21)
(0.236115 0.315354 -5.82074e-22)
(0.398382 0.36722 1.35138e-22)
(0.0399402 -0.0254628 7.47103e-22)
(0.0604284 -0.0559086 -1.16872e-21)
(0.308567 0.312776 5.97496e-22)
(0.308436 0.0540021 -9.417e-22)
(0.0216636 0.100751 2.11968e-22)
(0.559501 0.390455 2.63411e-22)
(3.3057 -0.178017 -9.97246e-21)
(0.538043 -0.133119 -3.31341e-22)
(3.18546 -0.0802984 1.32111e-21)
(0.0293447 0.0024854 -2.14976e-22)
(3.20285 -0.199361 -1.43526e-22)
(3.30477 -0.172291 4.15751e-21)
(3.26225 -0.177784 -4.08156e-21)
(3.1037 -0.234211 -2.95744e-22)
(3.21126 -0.107288 -2.26259e-20)
(0.298565 -0.168842 -2.56867e-22)
(0.44547 -0.134619 9.09791e-22)
(0.164867 -0.158571 4.32035e-23)
(0.249584 0.348553 -6.53427e-22)
(0.1251 -0.0878983 -3.98492e-24)
(0.472006 0.386772 -1.86021e-22)
(0.130729 -0.0305529 7.58854e-22)
(0.10799 0.290223 -6.4933e-22)
(0.288448 0.16196 9.45375e-21)
(2.62638 -0.300563 -2.74167e-21)
(0.118969 0.289569 5.59994e-22)
(3.29601 -0.183182 1.20376e-20)
(0.276858 0.347005 -1.19952e-22)
(0.090745 0.262062 9.63745e-22)
(3.06058 -0.247471 -4.67023e-21)
(3.23339 -0.181826 -1.48795e-20)
(0.543721 0.403081 -8.74151e-22)
(0.0245178 0.0412939 -6.18995e-22)
(0.132484 0.0476692 -8.87135e-22)
(0.0409922 0.0727939 8.95495e-23)
(0.393238 -0.141226 -2.72507e-22)
(0.18477 0.335841 -3.22815e-23)
(0.0174549 0.0763296 7.96942e-22)
(0.319492 0.352488 2.769e-22)
(3.30752 -0.182085 -2.42583e-21)
(0.383756 0.0146465 1.38116e-21)
(3.29858 -0.179996 1.20735e-21)
(3.29756 -0.171958 1.59e-20)
(3.18011 -0.203576 -1.2664e-22)
(3.14886 -0.215915 9.22253e-21)
(3.28536 -0.174339 -7.33342e-21)
(3.222 -0.189232 -2.3129e-21)
(3.26007 -0.278946 -9.71195e-21)
(0.931651 0.513569 -4.32336e-22)
(0.53955 0.409419 2.64117e-21)
(0.300961 -0.13543 -4.72815e-22)
(0.248884 -0.187884 1.87411e-22)
(3.23493 -0.186935 3.26045e-21)
(0.342784 -0.155991 8.02014e-22)
(3.07958 -0.235518 -2.18806e-20)
(0.0244851 0.10097 -1.21742e-22)
(0.239668 -0.0561075 1.02914e-22)
(0.0680332 0.224053 -1.91604e-22)
(0.423957 -0.0632893 1.98811e-22)
(0.389492 0.380365 -5.8907e-22)
(3.27037 -0.168573 4.83086e-20)
(0.0886584 0.0731908 3.82664e-22)
(3.30453 -0.18075 5.37416e-22)
(2.75537 -0.375822 -5.98425e-21)
(0.527567 0.408487 1.17289e-22)
(0.155647 0.323922 -5.03048e-23)
(0.0620524 0.141975 3.57271e-22)
(3.2317 -0.213374 2.35166e-20)
(0.0695267 0.188579 -8.52632e-22)
(0.134768 0.308928 7.05437e-23)
(0.319959 0.356035 9.68245e-22)
(0.166247 -0.108006 -7.95694e-23)
(0.354693 0.235921 -3.51031e-21)
(0.168118 -0.0651748 -3.24501e-23)
(3.2297 -0.172292 1.82207e-20)
(0.241983 -0.207029 -4.40434e-23)
(0.182496 0.313532 -3.499e-22)
(0.209342 -0.0830286 1.94488e-22)
(0.587362 -0.0922244 1.87126e-21)
(3.04882 -0.225305 -1.67224e-20)
(0.619308 0.429034 -1.40295e-21)
(0.60807 0.405673 2.29469e-21)
(3.20305 -0.194958 -3.12244e-20)
(0.492952 -0.130219 1.75066e-22)
(0.491772 -0.420553 1.04073e-21)
(0.522544 -0.422573 -7.88258e-23)
(0.580984 -0.42889 -6.01798e-22)
(0.621183 -0.432562 3.25195e-22)
(0.66037 -0.431319 -3.57318e-22)
(0.692785 -0.427025 -9.38072e-22)
(0.723859 -0.420751 1.76241e-22)
(0.751766 -0.413594 2.19889e-22)
(0.781636 -0.404885 2.49335e-22)
(0.526933 -0.411611 -8.43645e-22)
(0.557964 -0.412446 -9.02613e-23)
(0.613779 -0.418618 4.74883e-22)
(0.653966 -0.423701 -8.51817e-22)
(0.691664 -0.42412 6.77911e-22)
(0.723278 -0.422081 1.05882e-21)
(0.752697 -0.417933 -6.40517e-22)
(0.779362 -0.41291 7.40022e-22)
(0.804846 -0.406559 -3.61231e-22)
(0.562668 -0.395468 1.96282e-21)
(0.592827 -0.396148 4.62532e-22)
(0.64642 -0.402732 -9.10496e-22)
(0.686282 -0.408731 4.22898e-22)
(0.722617 -0.410661 -1.04617e-21)
(0.753432 -0.41051 -1.38264e-22)
(0.781522 -0.408401 -2.172e-23)
(0.806764 -0.4054 -3.27237e-22)
(0.82995 -0.401609 -5.18271e-22)
(0.597886 -0.373816 -9.11096e-22)
(0.626318 -0.374726 1.92328e-22)
(0.677803 -0.381844 6.1379e-22)
(0.717064 -0.388698 2.15169e-23)
(0.752315 -0.392105 4.10796e-22)
(0.782389 -0.393592 1.14225e-21)
(0.809371 -0.393224 -6.90356e-22)
(0.833404 -0.391844 1.21792e-22)
(0.855209 -0.389697 2.04771e-22)
(0.631509 -0.34812 1.10444e-22)
(0.657278 -0.348992 -1.17906e-22)
(0.706747 -0.356774 2.61437e-23)
(0.745363 -0.364419 -1.99778e-22)
(0.779728 -0.369215 1.03331e-22)
(0.809198 -0.37217 -2.40916e-22)
(0.835378 -0.373348 8.4685e-23)
(0.858601 -0.373386 3.83446e-22)
(0.879713 -0.372355 8.20219e-23)
(0.662274 -0.319779 1.07416e-22)
(0.684863 -0.319946 -2.69312e-22)
(0.732407 -0.328501 5.7601e-23)
(0.770474 -0.336719 3.95717e-22)
(0.804171 -0.342778 -1.24141e-22)
(0.833204 -0.347051 -1.72767e-22)
(0.858838 -0.349656 -7.17276e-23)
(0.881538 -0.351044 -5.58809e-22)
(0.902043 -0.351481 2.73055e-22)
(0.688321 -0.290427 9.82745e-23)
(0.708737 -0.288622 2.01463e-22)
(0.754407 -0.297924 5.32618e-23)
(0.792029 -0.306325 -1.68632e-22)
(0.82522 -0.313445 3.44399e-23)
(0.853967 -0.318853 -2.54509e-24)
(0.879269 -0.322729 1.30382e-22)
(0.901651 -0.325351 -1.31255e-22)
(0.921844 -0.327085 -1.02072e-22)
(0.70865 -0.258897 -1.02861e-22)
(0.729184 -0.255234 9.05465e-23)
(0.77283 -0.265313 2.57544e-24)
(0.809905 -0.273654 -5.61165e-24)
(0.842644 -0.281668 -4.1663e-23)
(0.87122 -0.288044 1.58318e-22)
(0.896381 -0.293032 1.86457e-22)
(0.918643 -0.2968 -1.89738e-22)
(0.938797 -0.299256 5.71776e-23)
(0.723917 -0.223028 3.61644e-23)
(0.74625 -0.219096 -1.80435e-23)
(0.787592 -0.230383 -2.19108e-23)
(0.823932 -0.23885 -1.04796e-23)
(0.856252 -0.247735 -1.30615e-23)
(0.884781 -0.254958 -2.89238e-24)
(0.909992 -0.260887 -1.15202e-24)
(0.932391 -0.265514 1.5945e-22)
(0.952574 -0.269113 -8.5821e-24)
(0.734505 -0.183251 -5.68051e-23)
(0.759222 -0.180137 -5.75274e-24)
(0.798136 -0.193185 2.64292e-23)
(0.83375 -0.202177 3.36124e-23)
(0.865827 -0.211959 -1.08005e-23)
(0.894514 -0.2199 9.01218e-24)
(0.920024 -0.226555 9.07163e-24)
(0.94281 -0.231798 2.88761e-23)
(0.963444 -0.235798 -1.97501e-23)
(0.739976 -0.140493 1.21334e-22)
(0.767148 -0.139015 3.62855e-23)
(0.80376 -0.154419 -5.10782e-23)
(0.838992 -0.164212 -1.73247e-23)
(0.871193 -0.174786 -1.38784e-24)
(0.900336 -0.183232 1.55389e-23)
(0.926444 -0.190359 3.42087e-24)
(0.949951 -0.195953 1.5239e-24)
(0.97137 -0.200289 -1.68468e-23)
(0.740916 -0.0966661 -2.26898e-22)
(0.769361 -0.0977326 -6.29177e-23)
(0.804021 -0.115614 8.64141e-23)
(0.83955 -0.125896 -1.9108e-23)
(0.872354 -0.136783 2.97163e-24)
(0.902258 -0.145326 -3.85882e-23)
(0.929191 -0.152566 1.57224e-24)
(0.953584 -0.158218 2.30541e-23)
(0.976019 -0.163229 8.27162e-24)
(0.735946 -0.0550701 -5.6839e-23)
(0.76461 -0.0593389 1.80001e-23)
(0.79943 -0.0781794 1.43265e-24)
(0.835924 -0.0880345 -1.31089e-23)
(0.869659 -0.0983627 1.0109e-23)
(0.900483 -0.106385 1.04449e-23)
(0.928337 -0.113206 1.72424e-23)
(0.953666 -0.118625 -2.58464e-23)
(0.977368 -0.123099 1.81346e-23)
(0.721331 -0.0168217 7.66941e-23)
(0.754574 -0.0231409 -6.78905e-24)
(0.79124 -0.0416917 6.11726e-24)
(0.828913 -0.0503674 -1.85815e-23)
(0.863597 -0.059383 3.56296e-24)
(0.895308 -0.0663256 2.24685e-24)
(0.924057 -0.0722251 1.34275e-23)
(0.950321 -0.0769217 -2.25675e-24)
(0.974839 -0.0802976 -9.5005e-24)
(0.698507 0.0206535 -2.25446e-22)
(0.739852 0.0130336 5.70238e-23)
(0.779749 -0.00456851 -4.42071e-23)
(0.818785 -0.0118874 5.77048e-23)
(0.854347 -0.0192529 -7.82866e-24)
(0.886829 -0.0248317 -2.35271e-23)
(0.916386 -0.0295277 -1.54117e-23)
(0.943569 -0.0331461 -1.99306e-23)
(0.969083 -0.0355943 5.19503e-23)
(0.668496 0.0588362 -1.87019e-22)
(0.720277 0.0504461 -8.79682e-23)
(0.764501 0.0346875 6.37486e-23)
(0.805178 0.0284967 -7.47854e-23)
(0.841615 0.0227067 -3.07434e-23)
(0.874786 0.0184529 1.81238e-23)
(0.90505 0.0149969 3.20464e-24)
(0.933004 0.0125444 -5.75771e-23)
(0.959239 0.0109209 3.0203e-23)
(0.632107 0.100191 -3.80096e-22)
(0.695201 0.0906341 6.73708e-23)
(0.744532 0.0771982 -2.66095e-23)
(0.787184 0.0715085 4.36755e-23)
(0.824666 0.066853 5.43817e-23)
(0.858598 0.0636253 -2.26118e-22)
(0.889587 0.0612517 1.49332e-22)
(0.91829 0.0599548 4.11823e-23)
(0.945554 0.0590346 -1.66517e-23)
(0.595063 0.143527 6.81455e-22)
(0.662962 0.133596 -9.65663e-23)
(0.718243 0.122424 4.87716e-23)
(0.763538 0.116739 -7.97984e-23)
(0.802545 0.112724 -1.46135e-23)
(0.837546 0.110196 2.12963e-22)
(0.869444 0.108703 -2.26667e-23)
(0.898983 0.108351 8.19426e-23)
(0.927131 0.108667 7.57214e-23)
(0.561429 0.18372 1.37094e-22)
(0.626486 0.1748 2.95689e-23)
(0.685636 0.167173 9.0611e-23)
(0.733788 0.162018 2.74774e-22)
(0.774744 0.158758 -7.1446e-23)
(0.81116 0.15692 -1.06695e-22)
(0.844193 0.156228 -1.19629e-22)
(0.874743 0.156636 -1.36883e-22)
(0.903843 0.157931 3.85205e-23)
(0.529907 0.218254 -1.2857e-22)
(0.588262 0.211175 3.40373e-24)
(0.648668 0.208256 -3.03467e-22)
(0.698883 0.204896 3.14493e-23)
(0.741673 0.203051 -1.36776e-22)
(0.779563 0.202291 9.14684e-23)
(0.813801 0.202624 5.69307e-22)
(0.845342 0.204007 9.00607e-23)
(0.875187 0.206288 2.76612e-23)
(0.499585 0.247947 -2.24378e-22)
(0.549962 0.24262 7.16624e-22)
(0.609476 0.244332 -3.53706e-22)
(0.660371 0.243769 3.10238e-22)
(0.704376 0.243999 -2.18584e-22)
(0.743466 0.244798 2.05227e-23)
(0.778814 0.246434 -2.16955e-22)
(0.811408 0.248882 -1.77092e-22)
(0.842171 0.252516 3.66961e-23)
(0.469417 0.273425 -6.04441e-22)
(0.51182 0.269574 -6.06336e-22)
(0.569433 0.274993 9.66486e-22)
(0.619664 0.277778 -1.2825e-22)
(0.66404 0.280499 6.74284e-22)
(0.703781 0.283244 -2.11049e-22)
(0.739894 0.286442 -5.64392e-23)
(0.773422 0.290047 8.05931e-23)
(0.804433 0.29573 -2.90822e-23)
(0.439787 0.293248 3.76143e-22)
(0.474126 0.292012 4.05167e-22)
(0.529673 0.300154 -5.98693e-22)
(0.578111 0.30666 -5.41248e-22)
(0.621972 0.311992 -4.9166e-22)
(0.661691 0.316819 5.40556e-23)
(0.698099 0.321607 1.10353e-22)
(0.732257 0.326507 -3.21917e-22)
(0.76355 0.333736 7.76005e-22)
(0.410915 0.304731 -6.12201e-23)
(0.437507 0.309596 -7.39484e-23)
(0.490464 0.319779 2.21766e-22)
(0.536015 0.330013 -2.998e-22)
(0.578484 0.33773 4.80985e-22)
(0.617616 0.344589 1.14517e-22)
(0.654015 0.350883 -5.60269e-22)
(0.688968 0.357117 5.82357e-22)
(0.720479 0.367718 -1.57288e-22)
(0.379724 0.311158 -4.50109e-22)
(0.403644 0.32685 9.12302e-24)
(0.454014 0.339297 2.09998e-23)
(0.496622 0.351313 2.57219e-22)
(0.537034 0.360019 -1.10289e-22)
(0.574614 0.367585 3.10684e-22)
(0.610196 0.373854 -1.55998e-22)
(0.646577 0.379122 3.03684e-22)
(0.682925 0.391076 8.57766e-23)
(0.423244 0.420659 -2.9454e-22)
(0.417417 0.420769 -3.36468e-22)
(0.411657 0.419518 -9.00302e-22)
(0.405475 0.417379 1.23731e-21)
(0.398533 0.414209 -9.04921e-22)
(0.390655 0.409933 6.61706e-22)
(0.381718 0.404389 2.67179e-22)
(0.371595 0.397426 -4.20389e-23)
(0.360162 0.388887 -4.61514e-22)
(0.347324 0.378618 -2.32852e-22)
(0.333032 0.366464 2.28833e-22)
(0.317301 0.352266 -2.97835e-22)
(0.30024 0.335887 7.6324e-22)
(0.281922 0.317146 -1.96748e-21)
(0.262256 0.29633 3.5138e-21)
(0.241291 0.273849 -4.09984e-21)
(0.219401 0.249902 3.81017e-21)
(0.197083 0.224636 -1.68537e-21)
(0.174827 0.198282 -5.87015e-22)
(0.153067 0.171118 6.2414e-22)
(0.132134 0.14351 -2.20784e-22)
(0.112179 0.115911 4.69767e-22)
(0.0929332 0.0887014 5.36947e-23)
(0.0740835 0.0630639 -6.86449e-22)
(0.0576108 0.038756 5.36087e-22)
(0.0464672 0.0143304 -2.87425e-22)
(0.0412108 -0.0103796 3.47824e-22)
(0.0419342 -0.0357428 2.77548e-22)
(0.0467964 -0.0621758 -3.22112e-22)
(0.0526971 -0.0896542 8.69766e-24)
(0.0589108 -0.117543 -2.96489e-22)
(0.0662506 -0.145206 2.57742e-22)
(0.0752256 -0.172343 5.04767e-22)
(0.0859372 -0.198773 -3.9188e-22)
(0.0982497 -0.224174 5.74351e-22)
(0.111987 -0.248332 -9.49366e-22)
(0.126912 -0.271079 6.24346e-23)
(0.142736 -0.292268 2.12814e-22)
(0.159165 -0.311796 -3.15724e-22)
(0.175891 -0.329601 7.17574e-22)
(0.192704 -0.345597 -4.03992e-22)
(0.209858 -0.359637 -1.80013e-21)
(0.227546 -0.371703 3.58425e-21)
(0.245639 -0.381929 -3.84031e-21)
(0.264024 -0.390479 3.30667e-21)
(0.282573 -0.397514 -1.91637e-21)
(0.301143 -0.403206 9.91985e-22)
(0.31957 -0.407757 -3.22929e-22)
(0.337647 -0.411343 3.37317e-22)
(0.355189 -0.414119 -3.23939e-22)
(0.372002 -0.416236 -4.97452e-22)
(0.387899 -0.41783 -1.77512e-22)
(0.402752 -0.419023 2.2462e-22)
(0.416488 -0.419908 6.26679e-22)
(0.429093 -0.420549 -9.30153e-22)
(0.440602 -0.42099 1.20906e-21)
(0.451089 -0.421253 -8.0544e-22)
(0.460634 -0.42136 -3.00268e-22)
(0.469336 -0.421388 -2.30108e-22)
(0.433758 0.364203 -3.75987e-23)
(0.426031 0.360391 -2.99115e-23)
(0.418233 0.355692 -1.39428e-23)
(0.410169 0.350209 -8.70197e-23)
(0.401701 0.343917 -1.16233e-22)
(0.3928 0.336769 3.96645e-22)
(0.383428 0.328743 -5.98039e-23)
(0.373529 0.319823 1.47036e-22)
(0.363041 0.310005 -5.1457e-22)
(0.351909 0.299281 -2.98564e-23)
(0.340098 0.28764 2.45644e-22)
(0.327607 0.275088 2.68111e-22)
(0.314371 0.261588 -8.22786e-22)
(0.300068 0.247487 9.70945e-22)
(0.28432 0.233106 -1.00982e-21)
(0.267115 0.218376 3.92694e-22)
(0.248844 0.202916 6.53862e-22)
(0.229942 0.186368 -3.72581e-22)
(0.210688 0.168713 -8.95723e-23)
(0.19134 0.149843 4.71008e-23)
(0.172186 0.129722 5.26564e-24)
(0.153514 0.108322 2.03725e-22)
(0.135656 0.0855084 -9.18208e-23)
(0.119391 0.0609129 -5.32143e-23)
(0.106163 0.0339395 1.20573e-22)
(0.096604 0.00508798 -3.61501e-23)
(0.0907277 -0.0248183 1.23031e-24)
(0.0886222 -0.05491 1.69734e-23)
(0.0902533 -0.084371 2.32628e-23)
(0.0946069 -0.11291 1.78839e-25)
(0.100816 -0.140705 -2.07594e-23)
(0.108732 -0.167869 -1.61114e-23)
(0.118506 -0.194253 1.54278e-25)
(0.130089 -0.219662 5.93785e-23)
(0.143285 -0.243923 -1.43056e-22)
(0.157899 -0.266895 5.04059e-23)
(0.173718 -0.288474 -1.03986e-22)
(0.190521 -0.308591 1.00914e-22)
(0.208092 -0.327217 1.90284e-24)
(0.226253 -0.344355 -2.04217e-23)
(0.244889 -0.360015 -6.03251e-23)
(0.263926 -0.374153 -3.342e-23)
(0.283225 -0.386686 -5.78493e-23)
(0.302585 -0.397557 -8.11027e-23)
(0.32179 -0.40676 9.78554e-23)
(0.340629 -0.414323 -1.13539e-22)
(0.358911 -0.420315 5.54494e-23)
(0.376473 -0.424826 1.9496e-23)
(0.393101 -0.428065 -7.84532e-23)
(0.408574 -0.430288 1.30244e-23)
(0.422815 -0.431681 1.48019e-22)
(0.435847 -0.432404 -2.56299e-23)
(0.447745 -0.43259 6.57572e-23)
(0.458653 -0.432334 -2.42848e-22)
(0.468714 -0.431698 3.41729e-23)
(0.478064 -0.430723 8.81225e-23)
(0.486811 -0.429476 -7.27217e-23)
(0.494921 -0.428073 1.60323e-23)
(0.502416 -0.426646 -1.83583e-23)
(0.497899 0.336761 -2.63005e-22)
(0.49112 0.331583 7.04472e-23)
(0.484075 0.325557 -1.77828e-22)
(0.47677 0.318789 -2.01671e-23)
(0.469091 0.31123 5.9091e-22)
(0.460975 0.302909 -1.75342e-22)
(0.452359 0.293869 -3.39941e-22)
(0.443182 0.284158 -1.006e-24)
(0.433388 0.273834 1.96768e-22)
(0.422921 0.26296 -4.9923e-23)
(0.411725 0.251609 5.53612e-22)
(0.399721 0.239874 -6.79905e-22)
(0.386789 0.227869 6.24115e-22)
(0.372797 0.215711 -8.18643e-23)
(0.357709 0.203245 -5.97724e-22)
(0.341633 0.190223 1.90835e-22)
(0.32474 0.176325 7.42286e-22)
(0.307154 0.161459 -2.5762e-22)
(0.289021 0.145487 -7.19847e-23)
(0.270577 0.128255 2.99929e-23)
(0.252137 0.109605 -1.89299e-22)
(0.234088 0.0893729 3.99541e-23)
(0.216918 0.0673833 -5.60807e-22)
(0.20128 0.0434859 6.66553e-22)
(0.188014 0.0177466 -2.53735e-22)
(0.177859 -0.00945357 1.19317e-23)
(0.171232 -0.0376233 3.83218e-23)
(0.16824 -0.0662321 -1.62941e-22)
(0.168644 -0.0946931 1.03783e-22)
(0.171894 -0.122561 5.37379e-23)
(0.17748 -0.14967 1.20073e-22)
(0.185112 -0.175957 -1.26178e-22)
(0.19463 -0.201313 5.31126e-23)
(0.205893 -0.225591 6.81207e-23)
(0.218728 -0.248656 -2.57772e-22)
(0.232947 -0.270402 7.07334e-22)
(0.248345 -0.290751 -4.56579e-22)
(0.264705 -0.309654 -9.10589e-23)
(0.281817 -0.327091 -1.30293e-22)
(0.299482 -0.343058 -4.63192e-23)
(0.317523 -0.357558 -1.95633e-22)
(0.335775 -0.370586 -3.61772e-22)
(0.354057 -0.382137 7.8405e-22)
(0.37217 -0.392235 3.92869e-22)
(0.389921 -0.400927 -7.74839e-22)
(0.407139 -0.408289 -2.83627e-22)
(0.423689 -0.414409 8.24927e-22)
(0.439466 -0.419384 -9.75461e-22)
(0.454406 -0.423336 6.652e-22)
(0.46845 -0.426411 -1.45619e-23)
(0.481607 -0.428753 3.01495e-22)
(0.493934 -0.430469 8.52378e-23)
(0.505516 -0.431637 -4.54891e-22)
(0.516432 -0.43233 -2.46297e-22)
(0.526709 -0.432622 7.43254e-22)
(0.536344 -0.432588 4.12236e-24)
(0.545307 -0.432306 -1.99529e-22)
(0.553588 -0.431866 7.22514e-23)
(0.561208 -0.431301 -2.41187e-22)
(0.543325 0.313969 3.72744e-24)
(0.536897 0.308802 1.01078e-22)
(0.530208 0.302896 -2.91704e-23)
(0.523187 0.296297 -6.51061e-24)
(0.515703 0.289016 1.75344e-23)
(0.507672 0.281119 2.22999e-23)
(0.499011 0.272671 2.56187e-23)
(0.48965 0.263736 9.14192e-23)
(0.479532 0.254367 -5.49121e-23)
(0.468614 0.244611 -5.36838e-23)
(0.456866 0.234501 -6.32029e-23)
(0.444263 0.22405 1.11968e-22)
(0.430785 0.213243 -1.02961e-22)
(0.416422 0.202014 -1.31787e-23)
(0.401192 0.19024 -2.2106e-23)
(0.385164 0.177776 1.78013e-23)
(0.368451 0.164472 -3.0989e-24)
(0.351203 0.15018 -1.63759e-23)
(0.333614 0.134727 -6.50382e-23)
(0.315935 0.117927 1.03045e-23)
(0.298481 0.0996026 -1.37841e-24)
(0.281631 0.0795971 -1.65491e-22)
(0.265838 0.0577966 8.05123e-23)
(0.251628 0.0341651 1.2833e-22)
(0.239563 0.00881242 -9.27374e-23)
(0.23011 -0.017971 1.16967e-23)
(0.223575 -0.0457673 1.10559e-22)
(0.220097 -0.0740958 -1.24276e-22)
(0.219631 -0.102473 3.99924e-23)
(0.22196 -0.130493 -1.08718e-23)
(0.226812 -0.157881 5.02052e-23)
(0.233946 -0.184436 -1.12279e-22)
(0.243162 -0.209987 7.91477e-23)
(0.254265 -0.234377 -4.93801e-24)
(0.267049 -0.257466 -8.32199e-23)
(0.281294 -0.279141 1.30405e-23)
(0.296771 -0.299317 9.05495e-23)
(0.313236 -0.317936 -6.32516e-24)
(0.330448 -0.33497 -4.72042e-23)
(0.348164 -0.350416 7.51458e-23)
(0.366153 -0.36429 1.56674e-24)
(0.384191 -0.376625 -2.66239e-23)
(0.40207 -0.387467 1.6206e-22)
(0.419602 -0.396885 -1.59069e-22)
(0.436636 -0.404965 7.21784e-23)
(0.45306 -0.411809 1.0129e-24)
(0.4688 -0.417526 2.76014e-22)
(0.483815 -0.422227 -2.45617e-22)
(0.498084 -0.426026 1.28382e-22)
(0.511612 -0.429043 1.25108e-22)
(0.524409 -0.431375 1.58728e-22)
(0.536521 -0.43309 -1.49645e-22)
(0.548015 -0.434244 -3.05485e-23)
(0.558879 -0.434905 -5.36895e-23)
(0.569057 -0.435167 -9.72584e-23)
(0.578492 -0.435141 6.63546e-23)
(0.587139 -0.434926 -1.35382e-22)
(0.595024 -0.434599 2.73757e-22)
(0.602229 -0.434202 -7.2577e-23)
(0.602573 0.298749 -3.59271e-22)
(0.597089 0.292994 5.33748e-23)
(0.591249 0.28656 2.80408e-22)
(0.584988 0.279581 -1.89721e-22)
(0.578133 0.272084 4.11945e-23)
(0.570565 0.264154 1.50222e-22)
(0.562179 0.255862 -1.69767e-22)
(0.552889 0.24726 7.0428e-23)
(0.542639 0.238382 2.28384e-22)
(0.531399 0.229239 -4.87079e-23)