/*--------------------------------*- C++ -*----------------------------------*\
  =========                 |
  \\      /  F ield         | OpenFOAM: The Open Source CFD Toolbox
   \\    /   O peration     | Website:  https://openfoam.org
    \\  /    A nd           | Version:  10
     \\/     M anipulation  |
\*---------------------------------------------------------------------------*/
FoamFile
{
    format      ascii;
    class       volScalarField;
    location    "700";
    object      epsilon;
}
// * * * * * * * * * * * * * * * * * * * * * * * * * * * * * * * * * * * * * //

dimensions      [0 2 -3 0 0 0 0];

internalField   nonuniform List<scalar> 
23845
(
0.0419285
0.0598341
0.0587396
0.0142256
0.041741
0.00241183
0.0757506
0.0110735
0.00182182
0.0256177
0.0238525
0.00206179
0.00347671
0.00213408
0.121665
0.0123383
0.00639689
0.00874819
0.004504
0.00313262
0.0334413
0.0210312
0.0275658
0.00183181
0.0259646
0.00130406
0.0514754
0.00284977
0.0107012
0.00310173
0.0158311
0.0251003
0.136438
0.00927426
0.00207753
0.00256315
0.0211564
0.0020871
0.00217435
0.00203579
0.0041481
0.006041
0.00290755
0.00590267
0.000957926
0.00411205
0.0288964
0.0140161
0.0232408
0.0112166
0.0148506
0.0478995
0.0283132
0.00252116
0.0243413
0.00561901
0.0557033
0.0114076
0.0425599
0.0363489
0.0108429
0.00632117
0.0107128
0.0131202
0.00164192
0.00353923
0.0544962
0.000817794
0.00084612
0.0056227
0.0108138
0.0431013
0.00167658
0.105227
0.00141554
0.118298
0.00206504
0.00220421
0.0116616
0.00954019
0.0391817
0.0962456
0.0604059
0.0114791
0.0661172
0.00209239
0.0808853
0.0297255
0.00160321
0.00798232
0.0145102
0.00540825
0.0113949
0.00256713
0.0117285
0.0127871
0.00560337
0.0157994
0.0013845
0.0330763
0.00659164
0.0591548
0.050867
0.0140873
0.0133429
0.0118399
0.00242735
0.00124605
0.046911
0.00576035
0.0212592
0.00211534
0.0910393
0.0210972
0.00268092
0.0236057
0.00153285
0.015222
0.0108427
0.0132783
0.00215349
0.0179912
0.00579012
0.0221782
0.0629369
0.00142874
0.0107708
0.0111004
0.0412969
0.0318355
0.058288
0.0386538
0.0278056
0.0022495
0.00840341
0.0482191
0.013261
0.00204116
0.0452933
0.00221424
0.0121628
0.00566037
0.00221293
0.00636608
0.00884719
0.0053922
0.0185612
0.0869674
0.0196357
0.00935549
0.128909
0.00242399
0.0698977
0.00279631
0.0844999
0.01666
0.0475023
0.00227593
0.0783441
0.0117113
0.00730596
0.118735
0.0120886
0.00169635
0.00223082
0.0119484
0.00227906
0.0164084
0.00298495
0.00529845
0.00230523
0.0154326
0.00179595
0.0186223
0.00173163
0.0114543
0.00621323
0.0220241
0.00120308
0.00224336
0.0331653
0.0291491
0.102926
0.0187916
0.0108699
0.00454437
0.00604246
0.0113741
0.0108096
0.00579985
0.0121666
0.00221502
0.00221355
0.00240367
0.00799231
0.00213126
0.0127259
0.0110494
0.0220805
0.0226021
0.0136001
0.00233113
0.0173884
0.0344107
0.0112646
0.0118931
0.0557295
0.0023032
0.0504283
0.0098429
0.0102772
0.0149353
0.00760883
0.0030252
0.0191131
0.0226551
0.0292938
0.00665132
0.0180641
0.0543621
0.00191307
0.113046
0.0127988
0.013732
0.00551083
0.127445
0.0139772
0.00224124
0.00242546
0.00433834
0.00240932
0.0206687
0.00214704
0.000944483
0.0426409
0.0105958
0.00157937
0.0143722
0.00186017
0.0171652
0.0270835
0.0169737
0.0114372
0.0407257
0.0168946
0.0117752
0.00238599
0.000825196
0.0116158
0.115868
0.00426975
0.00222199
0.0146314
0.00273054
0.100734
0.0140741
0.0159355
0.012854
0.00272857
0.00196499
0.0339222
0.00229956
0.0107443
0.0205346
0.0179793
0.00179714
0.0114517
0.0266983
0.020457
0.0135714
0.00220296
0.0141181
0.0161232
0.00230899
0.0187206
0.00219559
0.0126506
0.00232395
0.0209948
0.0263614
0.0125668
0.00246491
0.0134904
0.0105145
0.0021369
0.0139189
0.0192257
0.00227863
0.0116397
0.0964381
0.0114422
0.0185427
0.012468
0.0126553
0.0115312
0.00211485
0.017212
0.00241364
0.00212159
0.0114961
0.0835657
0.118579
0.0105944
0.0135013
0.00240899
0.0142754
0.0143373
0.0156618
0.00623216
0.0117467
0.0166246
0.063952
0.00457032
0.0023278
0.0336461
0.0117074
0.015549
0.0297016
0.0138826
0.00212953
0.0148988
0.0156633
0.027598
0.00310383
0.109796
0.00231395
0.0120856
0.0299741
0.016129
0.00931948
0.0700581
0.0122484
0.014268
0.00227872
0.0166091
0.0153021
0.0207546
0.00838325
0.00513651
0.0115961
0.0174748
0.0229667
0.0213803
0.00101839
0.000992004
0.0243786
0.00225529
0.0127774
0.011869
0.11282
0.0198487
0.057068
0.0111032
0.013536
0.0288357
0.00219244
0.00483751
0.0017696
0.0994718
0.0112911
0.0290826
0.0015617
0.0178251
0.00909799
0.0107988
0.00229857
0.021369
0.00269298
0.0111376
0.00126928
0.00574431
0.0146049
0.0260981
0.00205903
0.00235616
0.014026
0.0314481
0.0169612
0.00526314
0.0147125
0.105957
0.00235625
0.0267915
0.000940075
0.000977366
0.00214615
0.00242898
0.011501
0.0130437
0.0114374
0.0603955
0.00507861
0.017343
0.0157439
0.0174143
0.0121855
0.0175527
0.0011815
0.00599097
0.00232405
0.0255478
0.0180746
0.0121021
0.0204855
0.047466
0.108738
0.00226011
0.0205335
0.0118429
0.0126927
0.126074
0.000883639
0.0848447
0.0231183
0.051
0.0372183
0.0218781
0.0166936
0.00228829
0.0217642
0.0971504
0.00388945
0.00193599
0.0117354
0.0112218
0.0527806
0.0848281
0.0176184
0.0229365
0.0278612
0.00221654
0.00854305
0.0240684
0.00801495
0.00378243
0.00148425
0.00204998
0.00439478
0.0107669
0.0215417
0.116379
0.0673989
0.012664
0.0393223
0.0177837
0.0171728
0.00321108
0.0202075
0.00229755
0.0156616
0.0115285
0.00230245
0.0552689
0.00229095
0.000984854
0.0216317
0.0369009
0.0367384
0.0120082
0.00250336
0.0531239
0.0129324
0.0131462
0.0339112
0.00243676
0.00227484
0.00245847
0.0197775
0.00106683
0.113426
0.00299513
0.00232217
0.0164752
0.0114219
0.0150811
0.0395658
0.00199135
0.0171213
0.00278661
0.0075882
0.0239598
0.0201779
0.0151699
0.0199486
0.0131732
0.0939518
0.00219616
0.00211425
0.0623891
0.0205532
0.00130003
0.0813109
0.0127381
0.0214362
0.0113651
0.0259014
0.00156521
0.0339975
0.00146869
0.00229079
0.0747775
0.013072
0.0267893
0.0241129
0.0117166
0.0117225
0.0184811
0.00321555
0.00282044
0.0229252
0.0149292
0.0361563
0.02037
0.0155851
0.0023237
0.00110374
0.0189385
0.121796
0.092438
0.00490777
0.0270732
0.00260082
0.00918695
0.0194686
0.00120667
0.0803336
0.105383
0.0136647
0.030147
0.0118941
0.01076
0.113633
0.0323769
0.0266483
0.00582721
0.00332142
0.00263641
0.0181179
0.0262296
0.0120374
0.0628869
0.00245692
0.0241761
0.0249049
0.00758698
0.0237498
0.0202322
0.00301389
0.00291977
0.00288547
0.0027313
0.00210719
0.021589
0.00314085
0.0112616
0.0667919
0.00488596
0.0324377
0.002284
0.00268467
0.0116703
0.011959
0.0418783
0.00327901
0.0048395
0.0191277
0.0132704
0.00154582
0.0107128
0.0028372
0.00115023
0.0813517
0.00468856
0.00242534
0.0144539
0.0319953
0.0183032
0.085048
0.0123513
0.0281547
0.00128586
0.00208576
0.00810315
0.0746141
0.0200368
0.00450992
0.00171078
0.00177301
0.0127654
0.00171397
0.0278462
0.122356
0.050596
0.0165649
0.0116609
0.00483689
0.00108681
0.00257683
0.00836238
0.00208674
0.0444104
0.00292513
0.0265931
0.107498
0.018193
0.0323373
0.0130628
0.0274143
0.0875545
0.0156448
0.0241307
0.0504443
0.0565701
0.0317992
0.0248795
0.0510975
0.027008
0.0485924
0.00323411
0.00278283
0.027561
0.0108819
0.0264909
0.0149764
0.0516951
0.0114493
0.00378176
0.00633495
0.00256493
0.0105003
0.00334181
0.00356664
0.023397
0.00271113
0.00207781
0.101747
0.0515225
0.0146277
0.00132905
0.0160578
0.0408755
0.0122012
0.00288194
0.00302241
0.0379686
0.0315497
0.0366156
0.00263132
0.0306678
0.0546479
0.00262459
0.00217974
0.0254201
0.0122779
0.0117155
0.136453
0.0371693
0.0245724
0.0149247
0.0220114
0.0124094
0.00622177
0.0098632
0.0522688
0.00876918
0.00133982
0.00246714
0.0381136
0.0170149
0.0296956
0.00939065
0.0126695
0.0210172
0.0137218
0.0118318
0.0229686
0.0107832
0.0251742
0.0194455
0.00906085
0.0244192
0.0091802
0.00502687
0.00843001
0.00875145
0.0349536
0.00525815
0.00737499
0.029386
0.0291914
0.00656513
0.00554328
0.012933
0.0147262
0.0167316
0.0196321
0.0218487
0.0112198
0.023874
0.0102124
0.0227699
0.00873247
0.0177784
0.00807873
0.0085428
0.00898647
0.00701073
0.00598473
0.00625927
0.003672
0.00576676
0.0181783
0.00184312
0.0052677
0.0061869
0.00571453
0.00246999
0.0178356
0.0054045
0.0154947
0.0175077
0.0104628
0.00508317
0.00561522
0.00275615
0.0162687
0.0122584
0.0266836
0.0022343
0.0147421
0.00459385
0.00800002
0.00290994
0.00505905
0.0232502
0.00834364
0.0263569
0.00522153
0.00243404
0.00360034
0.00111202
0.00432962
0.0129755
0.0110756
0.0017539
0.00475634
0.0251185
0.00414986
0.00381025
0.00328775
0.0813823
0.00485993
0.000924046
0.0332567
0.00596174
0.0191426
0.0238841
0.0206309
0.0207995
0.0183383
0.0241635
0.00518143
0.0108007
0.0151242
0.0193881
0.00973048
0.0116387
0.00768368
0.058378
0.00687917
0.00373817
0.0209724
0.0191347
0.0268188
0.0178343
0.0163341
0.00344072
0.0446842
0.0196745
0.0086633
0.00603988
0.00796283
0.0159377
0.00221377
0.0173156
0.00401804
0.0039058
0.00596853
0.00422983
0.0038613
0.00559667
0.0053561
0.00865129
0.0051697
0.00448025
0.00501356
0.0380938
0.0104071
0.00364467
0.00755048
0.00646405
0.00484634
0.0265376
0.0161142
0.0219307
0.0117513
0.00539252
0.00352513
0.00544753
0.00489936
0.0530617
0.0213849
0.020994
0.00943479
0.00372256
0.0107869
0.0115978
0.0170666
0.00415323
0.00599547
0.00190411
0.00234879
0.00719568
0.00266987
0.00272333
0.00141225
0.00360395
0.00165996
0.00218217
0.00178933
0.00162922
0.00131041
0.00297767
0.00394258
0.00236456
0.0025235
0.00862391
0.00516511
0.00597151
0.038751
0.0228153
0.00123109
0.00172583
0.0046731
0.0253528
0.0160475
0.0230219
0.0141441
0.00945091
0.00380395
0.00401793
0.00532958
0.00810712
0.00841571
0.00335942
0.00557553
0.0032845
0.00655719
0.00203554
0.101521
0.00214309
0.0183763
0.00620263
0.0278944
0.00344396
0.00461186
0.00651805
0.00464241
0.0131456
0.0103638
0.00497084
0.0150092
0.0029661
0.00334192
0.00200396
0.00196271
0.0016364
0.00153292
0.00479822
0.00489459
0.00367901
0.0181553
0.00372049
0.0175521
0.0189563
0.0186056
0.00520446
0.0140023
0.00480264
0.00184481
0.00680474
0.00148207
0.0110155
0.00346672
0.00158535
0.0161864
0.00321888
0.00211348
0.0150112
0.00334529
0.00912601
0.0181698
0.0112906
0.00529229
0.00975764
0.00358858
0.00781677
0.00359289
0.0183933
0.0325252
0.00220673
0.0097496
0.0135889
0.0146632
0.0310862
0.0169658
0.00436583
0.0085794
0.00735143
0.00628595
0.135255
0.018028
0.00573051
0.00499361
0.00290426
0.0231031
0.00503618
0.127398
0.00474689
0.00169653
0.00443514
0.00285621
0.00550016
0.00448002
0.00452581
0.0384942
0.00374739
0.0252585
0.0083816
0.0256642
0.0045428
0.0114302
0.0112637
0.0140188
0.0146826
0.00781155
0.0157199
0.00865046
0.0162844
0.017909
0.0210394
0.00784689
0.0194568
0.0188442
0.010719
0.0295915
0.0235559
0.0167099
0.0233912
0.00357789
0.00695133
0.00835876
0.00607445
0.00279013
0.00551359
0.0137986
0.00600717
0.00343416
0.0163604
0.013491
0.0170828
0.0067167
0.0322823
0.00331299
0.00509391
0.00540219
0.00490889
0.00933136
0.00212983
0.0167658
0.0317404
0.0544958
0.00312376
0.00454217
0.0202632
0.0234663
0.0032194
0.0179008
0.0122398
0.0112836
0.0156872
0.0171182
0.00613881
0.018596
0.0238862
0.0210157
0.0276024
0.0281931
0.0299187
0.00322029
0.00831224
0.00819738
0.00449426
0.0128071
0.015533
0.00483682
0.0251514
0.00324795
0.10246
0.00337578
0.00323459
0.0111817
0.00311828
0.000904927
0.00218991
0.00168737
0.00478409
0.00389285
0.00427031
0.0052556
0.0261522
0.0111183
0.00354528
0.0113023
0.0077696
0.0254709
0.0226068
0.05064
0.019842
0.00357227
0.00600879
0.0050621
0.00310679
0.00122039
0.00271694
0.032947
0.0264458
0.00879354
0.0130063
0.0102671
0.0146134
0.0166551
0.0220001
0.0043407
0.0303615
0.0213972
0.0259
0.0202065
0.0166847
0.0174975
0.0090373
0.0153584
0.0053068
0.0136216
0.0105331
0.00588499
0.00929883
0.00820704
0.00747508
0.0047465
0.00463657
0.0121947
0.0222679
0.0252299
0.00341008
0.0182591
0.00341908
0.00233635
0.00701108
0.00205575
0.0123167
0.0067042
0.00582358
0.00569528
0.00562155
0.00504733
0.0298813
0.00258854
0.00316259
0.0245833
0.00646047
0.00127748
0.0118807
0.0275971
0.0117615
0.0117147
0.0520676
0.00466967
0.01519
0.0178624
0.020342
0.00970007
0.00333444
0.0173584
0.014554
0.0153086
0.013234
0.0113952
0.0103651
0.0315836
0.00899069
0.0206999
0.00388965
0.00710395
0.0341662
0.00612763
0.00840233
0.0466453
0.00636364
0.00117584
0.00252583
0.00560749
0.00293477
0.00423068
0.00349955
0.00332414
0.0276329
0.0051655
0.00463841
0.0296202
0.00300749
0.00325823
0.00327493
0.0470912
0.00482757
0.00412827
0.0276455
0.00230773
0.00141838
0.00367793
0.00422601
0.00412857
0.0189328
0.00240772
0.00409172
0.0127396
0.0226678
0.0267019
0.0186888
0.0145622
0.00349332
0.00770686
0.00534579
0.00612365
0.00353007
0.0275739
0.00822462
0.00310785
0.00308898
0.00958953
0.00832374
0.0268636
0.0122936
0.0035496
0.00469777
0.00323598
0.0251335
0.00750743
0.00176498
0.0228997
0.00379649
0.0123927
0.00336762
0.00232413
0.00292869
0.0105944
0.0047605
0.00390864
0.0208698
0.00337123
0.0257303
0.007943
0.00269435
0.0166971
0.00441619
0.0136436
0.0145908
0.00974846
0.0186553
0.0106916
0.00327114
0.0120848
0.0115922
0.00279699
0.00644342
0.0042729
0.00377171
0.00871351
0.00135439
0.0018355
0.0108549
0.00159825
0.0031221
0.0138162
0.00150593
0.0026188
0.017802
0.00244014
0.00197436
0.0155448
0.035001
0.0307627
0.00218847
0.00325732
0.0210563
0.00226135
0.00245085
0.0372893
0.0206026
0.0367037
0.0078632
0.0316889
0.00449268
0.00674213
0.0131219
0.018218
0.00347822
0.0159327
0.0425792
0.0353276
0.00335391
0.00446453
0.00306647
0.00216656
0.00288308
0.0053762
0.00400634
0.130477
0.00890143
0.00483735
0.0246972
0.00760847
0.0207032
0.00317162
0.0272698
0.00496405
0.00755837
0.0387667
0.00418721
0.0101444
0.00279149
0.00353246
0.0550607
0.00279342
0.0467815
0.0158674
0.024121
0.0167785
0.0123203
0.0321498
0.00392276
0.00345351
0.0267807
0.00409199
0.00426758
0.00423658
0.0376796
0.00274438
0.00310098
0.00401636
0.0448179
0.00386402
0.00713294
0.00658849
0.00299949
0.0172818
0.00982902
0.0122094
0.0431282
0.00202796
0.0165512
0.003849
0.0124856
0.00271441
0.0479747
0.00816375
0.00752967
0.00339878
0.0109795
0.0154534
0.006802
0.0198686
0.023565
0.00304383
0.00696235
0.00272443
0.0215572
0.0198649
0.00232647
0.0102788
0.0079966
0.0113988
0.0115588
0.0162496
0.00660241
0.0149888
0.0162019
0.0405804
0.0102344
0.0334901
0.00225128
0.0123374
0.00342884
0.00326064
0.0660704
0.0383314
0.0221054
0.00231165
0.0355134
0.00768687
0.00625115
0.0410215
0.00657118
0.0473666
0.0106138
0.0472809
0.0154473
0.00229913
0.108083
0.0142821
0.0135239
0.0114697
0.0399509
0.0470081
0.00291276
0.00428683
0.143054
0.0342404
0.00328712
0.0463011
0.0487992
0.00448353
0.0341809
0.00443536
0.04038
0.00765381
0.0116431
0.00170492
0.0355304
0.0367177
0.00213662
0.121342
0.0428039
0.00205244
0.0125832
0.00360517
0.021425
0.033142
0.0114299
0.00291064
0.0314301
0.0314537
0.00770444
0.044987
0.00709093
0.00418233
0.0118217
0.0116418
0.0392544
0.00289463
0.00250581
0.0264748
0.00863955
0.00441588
0.00721541
0.00289821
0.0138354
0.0125981
0.0337862
0.0628523
0.0448707
0.00299127
0.0137932
0.00304258
0.0107658
0.0151186
0.00614837
0.0108909
0.00211837
0.0430856
0.0188139
0.00313162
0.00295853
0.0140553
0.0283532
0.0462083
0.0523239
0.0176975
0.00689131
0.0129762
0.0023451
0.00306815
0.00404226
0.00106293
0.00253868
0.00455119
0.0352401
0.127773
0.00565869
0.00377702
0.00967349
0.0395498
0.00454961
0.0150994
0.00788226
0.0111452
0.00575052
0.0116921
0.0273967
0.0283001
0.0150855
0.00279854
0.0160832
0.0821499
0.0117319
0.00392498
0.0111539
0.0266239
0.0150699
0.00272517
0.00303975
0.00738846
0.0124148
0.0138067
0.0127689
0.00207017
0.0139366
0.00403632
0.00269691
0.0576587
0.0127876
0.034149
0.0143913
0.0176711
0.0207841
0.00971196
0.00294298
0.0369274
0.00298696
0.00793113
0.00749014
0.0111511
0.0114242
0.0156402
0.00795172
0.0144192
0.0297765
0.011727
0.0200081
0.00273238
0.051758
0.00279365
0.0026544
0.0268982
0.0254924
0.0108491
0.0479295
0.0126608
0.00319844
0.0249586
0.00285506
0.0298888
0.0383833
0.00283048
0.0189242
0.0508224
0.00579668
0.0427929
0.0190903
0.033336
0.00792529
0.0464951
0.0434861
0.00293438
0.00971779
0.0443489
0.00292045
0.00260594
0.0365642
0.00240333
0.0126734
0.041664
0.0292764
0.0868394
0.00140214
0.00215782
0.00228769
0.0554083
0.00269395
0.00312696
0.0079112
0.0152472
0.00382486
0.00256799
0.00272791
0.0134875
0.0129451
0.00261404
0.0110973
0.00233148
0.00242873
0.00216431
0.0758739
0.02358
0.00254913
0.00293655
0.0207511
0.0319634
0.00343157
0.0164105
0.00250594
0.00236985
0.0337974
0.00300013
0.0277588
0.00223692
0.0174114
0.0111012
0.143253
0.0143166
0.0982373
0.0664687
0.00259232
0.0461732
0.00314426
0.00281329
0.00664673
0.0237832
0.00292088
0.0141689
0.0238956
0.00419294
0.0039558
0.0160814
0.0503275
0.01241
0.076983
0.027883
0.030489
0.00265691
0.0426346
0.0289383
0.00215767
0.0196099
0.00233972
0.00249321
0.0534038
0.0107137
0.0107448
0.0618213
0.0564163
0.00330636
0.0112558
0.00441727
0.0267717
0.00258295
0.0398119
0.0417384
0.00226845
0.0343707
0.00275497
0.00246346
0.00231434
0.0115756
0.0153718
0.104027
0.035909
0.00367656
0.0593058
0.00251191
0.00246647
0.00215286
0.0324762
0.0115603
0.00234292
0.00711209
0.0627269
0.0151403
0.0167115
0.00274968
0.0114256
0.003665
0.00408467
0.00543909
0.0012073
0.00519269
0.00185637
0.00237771
0.113845
0.00423958
0.00733546
0.00261092
0.0111688
0.0125016
0.035089
0.00120437
0.0121532
0.0313221
0.00972336
0.00278638
0.0341004
0.00211516
0.0281016
0.013236
0.0118704
0.00750085
0.00386854
0.0611981
0.0488658
0.00258325
0.00383789
0.0548812
0.0428304
0.0219512
0.00545954
0.0319483
0.00436829
0.0120493
0.00757844
0.0128529
0.00244049
0.00369169
0.0070568
0.0140959
0.0113871
0.00253262
0.0122089
0.0146904
0.0131881
0.0127139
0.0197717
0.0313313
0.0271526
0.00264479
0.0388245
0.0405826
0.0344675
0.00110614
0.016108
0.0187736
0.0126
0.0424195
0.00197807
0.00278773
0.031682
0.109282
0.0165502
0.0598406
0.00176919
0.00247597
0.00495674
0.0037437
0.013573
0.00360154
0.00243437
0.0249372
0.0268339
0.067684
0.0601397
0.101574
0.0511288
0.0536612
0.021424
0.0143972
0.0370159
0.00655636
0.0339306
0.00167046
0.0197421
0.00211573
0.0619677
0.0112923
0.00684305
0.0122632
0.0021922
0.00723133
0.00706085
0.00271647
0.0127914
0.00261566
0.0508201
0.0411742
0.00362508
0.0307034
0.0318117
0.0164187
0.0336044
0.148214
0.0112222
0.0114028
0.0642322
0.0110837
0.0239883
0.00134525
0.062245
0.00142762
0.0147434
0.012256
0.00437027
0.0395602
0.030108
0.00167452
0.011934
0.00370998
0.0728988
0.0305935
0.00717074
0.0970807
0.00646722
0.0266942
0.00325895
0.00728995
0.0597587
0.0179876
0.00835867
0.00235428
0.00307113
0.0145468
0.00419625
0.0816089
0.0142745
0.00803638
0.0632144
0.00208369
0.0109944
0.00995673
0.00265741
0.026981
0.0646005
0.0365132
0.0235961
0.0142008
0.0603968
0.00270307
0.0164048
0.00231775
0.00251427
0.0129752
0.00206981
0.0489097
0.0632404
0.0636914
0.0164607
0.0183357
0.0297083
0.0104548
0.00274916
0.00889729
0.00303943
0.0138802
0.00684612
0.00448497
0.00903051
0.125543
0.00236223
0.0821975
0.0461116
0.0125133
0.0118764
0.0433989
0.0332231
0.00216843
0.142663
0.00354327
0.00228706
0.00235416
0.134279
0.00363695
0.00236387
0.00301845
0.0351438
0.00435422
0.0114669
0.00724823
0.0111396
0.00853835
0.0028525
0.0267887
0.00422129
0.00439968
0.0313661
0.00201524
0.0105251
0.00377807
0.0418189
0.0134005
0.00222757
0.022457
0.0342406
0.0647714
0.00421693
0.0025949
0.0863632
0.0647997
0.0817124
0.0578803
0.0714572
0.055217
0.00227477
0.024176
0.05651
0.00598593
0.0124106
0.00208695
0.0109358
0.0264168
0.0109778
0.0161746
0.0748359
0.019665
0.00175262
0.00202721
0.00217625
0.0127546
0.0114878
0.016959
0.0276009
0.0580073
0.00788611
0.00257575
0.0577117
0.106903
0.0116695
0.00491655
0.0202772
0.00406108
0.0115129
0.0274419
0.012773
0.0110324
0.0106498
0.0144733
0.00464389
0.0981513
0.0129963
0.0613781
0.0412263
0.0110246
0.0117599
0.0114307
0.0334282
0.00462189
0.014406
0.0226596
0.00557616
0.012022
0.00661088
0.0291198
0.0128847
0.0290501
0.0563742
0.0516651
0.00602623
0.0498924
0.105297
0.00219889
0.0513752
0.00293329
0.0111611
0.0425672
0.00231728
0.00390656
0.0330493
0.00259922
0.00428356
0.00248516
0.00193121
0.0488832
0.00225543
0.0407059
0.013337
0.0289661
0.00242862
0.00576686
0.00349964
0.0129474
0.0021425
0.0853769
0.0823806
0.0263895
0.0316976
0.0148631
0.0134788
0.0325018
0.00548101
0.0727405
0.0718859
0.0285429
0.00738273
0.00215175
0.00227785
0.0257804
0.0316872
0.00398837
0.00250702
0.00414798
0.0146248
0.00240658
0.0068392
0.0101035
0.0140901
0.0172658
0.00698232
0.00526679
0.00294351
0.0607981
0.00593066
0.0121463
0.00817412
0.0104003
0.00971785
0.00788209
0.0107132
0.0116997
0.0481344
0.0276648
0.0185512
0.00997378
0.0450919
0.00228315
0.0106042
0.00932794
0.00204448
0.00425604
0.0340298
0.0701344
0.00202213
0.0430937
0.0137878
0.0883425
0.0138251
0.0576313
0.00346951
0.0116183
0.0633804
0.0100478
0.023092
0.0768974
0.0522904
0.00202533
0.0203319
0.00218194
0.0415149
0.0283449
0.0186928
0.0024284
0.00565005
0.0444589
0.00398997
0.00926218
0.00696384
0.0339011
0.00231399
0.0249606
0.00199476
0.0734906
0.0020554
0.00164594
0.00704956
0.00775486
0.0628896
0.0285075
0.00389308
0.00679294
0.00935964
0.00205077
0.0150347
0.00611423
0.0203558
0.0115056
0.0945791
0.00211909
0.00227591
0.0468224
0.0632779
0.019512
0.145565
0.0546798
0.00393981
0.0266446
0.078927
0.00252147
0.0633372
0.0239141
0.0361408
0.00687379
0.0707794
0.002084
0.0501038
0.00211579
0.0476687
0.0117023
0.00227679
0.0901385
0.00285717
0.0445968
0.0385199
0.00608434
0.00289105
0.098817
0.127179
0.00779938
0.028565
0.0616119
0.00179297
0.0153442
0.00660142
0.0122307
0.00369216
0.002047
0.0127265
0.0718358
0.00466313
0.0429907
0.026875
0.00248819
0.00212203
0.00215506
0.00238838
0.00718665
0.0161429
0.0192981
0.00575466
0.0514178
0.0110759
0.00343199
0.00381721
0.00240061
0.080563
0.049249
0.00223323
0.00920167
0.0255961
0.00850256
0.065433
0.0386053
0.00227384
0.00334666
0.0113437
0.0018135
0.00402744
0.0342881
0.0555673
0.00216271
0.00219056
0.0137142
0.0685966
0.0866838
0.00235006
0.00153674
0.109987
0.0141769
0.00162653
0.00220269
0.0526184
0.047422
0.104325
0.00712068
0.0606229
0.0160384
0.117076
0.0649874
0.00246949
0.0377892
0.00240469
0.0173676
0.00261735
0.00296561
0.0103761
0.0150775
0.00888198
0.0252963
0.00142564
0.00725164
0.013782
0.0409201
0.00597577
0.086057
0.0276098
0.0397799
0.00264453
0.0949675
0.0229219
0.0109077
0.0119881
0.0118964
0.0424211
0.00143776
0.0303955
0.0494094
0.00149228
0.0197737
0.0110333
0.00267822
0.00262202
0.00220485
0.0116136
0.00573387
0.00289421
0.0542965
0.140669
0.00159385
0.0546527
0.0614704
0.0918339
0.0224767
0.0307426
0.0699144
0.00228297
0.0223707
0.016217
0.0020492
0.00423978
0.00246987
0.00161379
0.00383163
0.0257196
0.0106635
0.0728363
0.00194016
0.0118499
0.00236065
0.00260272
0.00208024
0.064837
0.03034
0.00472622
0.00245975
0.0290179
0.0107231
0.0396131
0.03776
0.0423486
0.0292956
0.00227894
0.00225413
0.0116723
0.00223821
0.0114403
0.00257984
0.0200737
0.0470688
0.0155105
0.0698219
0.00285176
0.00215752
0.0221108
0.029445
0.0177541
0.0140823
0.0115371
0.0125718
0.12859
0.0904303
0.0332909
0.0750503
0.0141026
0.00189674
0.010669
0.00773061
0.039482
0.00223262
0.00227481
0.0074022
0.0358811
0.0143953
0.0196832
0.0109891
0.0123381
0.00230534
0.0665818
0.0262915
0.0275604
0.00226406
0.140049
0.0674249
0.034497
0.00136982
0.0717452
0.01725
0.0146991
0.00202509
0.0159296
0.00656347
0.00258946
0.0133693
0.0157013
0.0234248
0.0204107
0.115513
0.0576441
0.00246752
0.0510902
0.00219628
0.0112162
0.00633817
0.0401797
0.00252088
0.00219294
0.0763391
0.0106556
0.00225462
0.0736386
0.0258322
0.0241764
0.00228276
0.00224017
0.0114817
0.0343646
0.00202382
0.00233498
0.00231583
0.0545598
0.00246851
0.002553
0.00756746
0.00478477
0.0586228
0.0036792
0.0296763
0.00207562
0.0116613
0.067223
0.0174279
0.0243826
0.0122312
0.0022747
0.00178091
0.00176147
0.00259359
0.0331006
0.00448308
0.00301046
0.0529336
0.0114489
0.0118115
0.0478112
0.0144854
0.0027906
0.00250421
0.00311915
0.0126076
0.0163795
0.00157495
0.0424837
0.00969274
0.0860505
0.0736804
0.0136678
0.00467461
0.0715564
0.0025234
0.00205033
0.0134837
0.107111
0.00399968
0.00226176
0.01337
0.016314
0.0022102
0.00227343
0.020183
0.0121574
0.00201014
0.00220449
0.0110024
0.00680196
0.0405829
0.00200603
0.1241
0.0669271
0.00206533
0.075555
0.0112593
0.0397072
0.0417885
0.0637553
0.060903
0.0763964
0.0159701
0.00919606
0.00724899
0.00209737
0.00263807
0.0112236
0.00896217
0.0381183
0.0718843
0.00226881
0.00178991
0.00225462
0.00209747
0.00216294
0.00224661
0.0117389
0.00508522
0.00186059
0.0107199
0.00210089
0.00240736
0.00338182
0.00235854
0.0314246
0.0317981
0.0177024
0.0173175
0.0111823
0.034147
0.00651283
0.0107747
0.00186476
0.0132305
0.00219998
0.0139819
0.0717431
0.0148831
0.00455258
0.00202247
0.00647276
0.04015
0.038674
0.0113651
0.00258291
0.007974
0.0022226
0.0581102
0.0112128
0.016399
0.00335035
0.00352061
0.0119898
0.00798031
0.0339922
0.0188786
0.00492682
0.00201414
0.00239316
0.00395473
0.0490051
0.0225187
0.0852378
0.0225015
0.0110625
0.0451481
0.0251882
0.0258386
0.0181835
0.0492029
0.0114205
0.00295686
0.0680867
0.0631773
0.0116194
0.0111949
0.0176979
0.00239396
0.0118969
0.00732152
0.0146832
0.0878451
0.0179987
0.00517071
0.00789181
0.0474623
0.0784734
0.00198977
0.0131752
0.0132471
0.00485733
0.00224441
0.00229527
0.00119775
0.00458324
0.00278382
0.0022189
0.131267
0.0113664
0.0515345
0.0558101
0.0133653
0.00218491
0.0222813
0.0231342
0.0172037
0.00974557
0.0129808
0.00224803
0.101328
0.0372647
0.0689775
0.00108697
0.00203307
0.00213375
0.0153017
0.0172754
0.0117806
0.0019835
0.0111783
0.0424813
0.00227418
0.00141386
0.00514189
0.0783922
0.00179026
0.00629857
0.0111445
0.0132714
0.00335952
0.0876829
0.0374097
0.100226
0.0131496
0.0213997
0.0268699
0.00243347
0.0255936
0.133853
0.0128123
0.00697576
0.0130937
0.0543776
0.0199281
0.014995
0.0112952
0.0293857
0.00226784
0.0351939
0.00123482
0.00235707
0.00231898
0.0374685
0.0116228
0.0414985
0.089661
0.0122978
0.0219649
0.00179451
0.0197089
0.00223943
0.00920499
0.0281131
0.0254324
0.0019197
0.00234727
0.0483999
0.00121668
0.0580512
0.00165725
0.0570596
0.00258911
0.0285828
0.00194092
0.0521407
0.0121691
0.0343728
0.0574272
0.0242239
0.0263612
0.00120748
0.0502677
0.0299377
0.0241204
0.0200711
0.0118571
0.0245245
0.0292267
0.00229421
0.0311987
0.0476998
0.00628068
0.0516502
0.0942972
0.00204685
0.0116555
0.00312388
0.0660644
0.00246362
0.00238318
0.00228296
0.0365666
0.128007
0.0271945
0.0123929
0.0190875
0.00205191
0.00924061
0.00319796
0.00588485
0.00237824
0.0108605
0.0100597
0.00949653
0.00228563
0.0748371
0.0739562
0.0018391
0.00564421
0.0333561
0.0383531
0.0274616
0.00219865
0.00220365
0.0105619
0.0347308
0.00258692
0.00201067
0.0863554
0.0253629
0.00183516
0.00598691
0.0212045
0.0215586
0.0372096
0.0345724
0.0277851
0.0108459
0.0104371
0.0471176
0.0564903
0.00293181
0.0121724
0.0107602
0.00224933
0.00293182
0.0108524
0.00263184
0.0272378
0.0506061
0.00329341
0.0330321
0.0988317
0.00317046
0.015377
0.00383909
0.0337828
0.0205292
0.00942451
0.0116319
0.0890312
0.0102185
0.00587247
0.0113988
0.00627547
0.0824961
0.041018
0.0441149
0.00923289
0.00616315
0.00353198
0.0109647
0.00158818
0.00134844
0.00957561
0.0198727
0.00389645
0.00874976
0.00923489
0.00235444
0.0438987
0.0110497
0.0113218
0.00204209
0.12967
0.00393804
0.00226085
0.00450843
0.0290778
0.00308882
0.00318377
0.0131237
0.00269327
0.00360006
0.00977241
0.0505893
0.0037416
0.0475821
0.0107517
0.00588969
0.038946
0.0165249
0.00359691
0.113683
0.0124948
0.0692592
0.00420741
0.0255686
0.00364347
0.0282499
0.134367
0.00324056
0.0172282
0.00965997
0.0115221
0.00220807
0.002241
0.00449094
0.00223498
0.00294982
0.0035102
0.0175093
0.0104056
0.00260187
0.00213556
0.00329123
0.0185274
0.03309
0.0348432
0.0146527
0.00910953
0.135934
0.00256337
0.00237514
0.00412311
0.00244388
0.00245208
0.0199673
0.00368836
0.00505862
0.0280722
0.011009
0.0105993
0.0395505
0.0430215
0.0025535
0.0636542
0.0125682
0.0224533
0.0264643
0.0176848
0.0167652
0.0380686
0.00295086
0.0148157
0.0021262
0.012181
0.00154432
0.0393537
0.00663196
0.00346563
0.0132252
0.0306163
0.0272419
0.00234907
0.0218072
0.0298024
0.0171663
0.00127136
0.00533485
0.00650848
0.020084
0.00713687
0.126361
0.0229838
0.00635785
0.0110391
0.00147758
0.00221362
0.00810532
0.00217326
0.041439
0.014989
0.00218547
0.00469362
0.0334406
0.00680105
0.0489264
0.0223242
0.0236665
0.00603595
0.00170145
0.0239949
0.0751659
0.00251487
0.00160349
0.0109912
0.00172744
0.00270279
0.0239887
0.0068729
0.0440534
0.0261258
0.0550663
0.0069676
0.0234775
0.00182695
0.00196247
0.00264992
0.0319997
0.001099
0.000950639
0.00132362
0.0127289
0.010828
0.00146033
0.0283239
0.0638803
0.0376261
0.00228709
0.0233221
0.0964821
0.0325686
0.00266615
0.0143157
0.0031155
0.0581221
0.00163256
0.0115658
0.0284516
0.0320111
0.00216514
0.00324875
0.0133428
0.0365301
0.0478423
0.00430866
0.0481192
0.00134435
0.00250686
0.0291542
0.0136472
0.00263056
0.0435179
0.0126468
0.00234304
0.0110148
0.0276436
0.0113977
0.00171899
0.00227396
0.0274362
0.00965534
0.00220347
0.0266126
0.0636636
0.037814
0.0130915
0.00158884
0.00251073
0.0146342
0.0498328
0.0148255
0.0547757
0.0802326
0.0687652
0.00215788
0.00219111
0.00464931
0.00219908
0.00223725
0.0299759
0.0382673
0.00230417
0.0023884
0.00227681
0.0013397
0.0212161
0.0162895
0.0133194
0.00120346
0.00107339
0.0011865
0.0143702
0.028666
0.0111047
0.0023421
0.0424525
0.0040656
0.00433516
0.0399207
0.00407596
0.0178743
0.0294799
0.00205544
0.0129822
0.00209861
0.0127464
0.0115327
0.00899187
0.0652639
0.00227226
0.0254098
0.0320369
0.0138274
0.00405413
0.0757313
0.0873834
0.0023571
0.00187464
0.0112649
0.0130323
0.0060333
0.0346672
0.0728523
0.0136249
0.0194593
0.084054
0.0280209
0.0108851
0.0472578
0.0410673
0.0733338
0.0433749
0.0120051
0.0525307
0.0010578
0.00299836
0.00184637
0.0138212
0.00180691
0.0652582
0.023574
0.00224685
0.00198718
0.000861752
0.000952583
0.00193755
0.0145791
0.0217449
0.0115173
0.0265894
0.0271253
0.0154256
0.00178142
0.00214438
0.0132308
0.00447294
0.00237531
0.00223115
0.00293033
0.0168531
0.00219723
0.0108369
0.00212448
0.00402169
0.0236644
0.00138753
0.0117759
0.0140333
0.0506846
0.0976721
0.00614069
0.00226478