/*--------------------------------*- C++ -*----------------------------------*\
  =========                 |
  \\      /  F ield         | OpenFOAM: The Open Source CFD Toolbox
   \\    /   O peration     | Website:  https://openfoam.org
    \\  /    A nd           | Version:  10
     \\/     M anipulation  |
\*---------------------------------------------------------------------------*/
FoamFile
{
    format      ascii;
    class       volScalarField;
    location    "700";
    object      k;
}
// * * * * * * * * * * * * * * * * * * * * * * * * * * * * * * * * * * * * * //

dimensions      [0 2 -2 0 0 0 0];

internalField   nonuniform List<scalar> 
23845
(
0.0797535
0.0962744
0.0712222
0.0473144
0.0919985
0.0246734
0.0823498
0.0350587
0.0203253
0.063833
0.0766866
0.0231993
0.0275221
0.0225573
0.0912846
0.0470889
0.0390937
0.0477896
0.0303297
0.0282373
0.0671287
0.0732949
0.0632838
0.0202443
0.0694431
0.0163809
0.0754315
0.0267444
0.0204196
0.0279114
0.0511857
0.0189201
0.0870289
0.0486308
0.0232937
0.0258466
0.0161641
0.0233391
0.0236924
0.0216162
0.0287626
0.0389835
0.0248898
0.0390853
0.0139595
0.030612
0.0789673
0.0508089
0.0240812
0.0156578
0.0307085
0.073188
0.0201255
0.0248156
0.0183286
0.0357366
0.0949728
0.037429
0.0767083
0.0750798
0.0275906
0.0402252
0.0448938
0.0251448
0.0189066
0.0281391
0.0770226
0.0128453
0.0130684
0.0337161
0.0316409
0.0626875
0.0186144
0.0884856
0.0172933
0.0916906
0.0231994
0.0238664
0.0413276
0.0471878
0.0696658
0.0893302
0.0978325
0.0381268
0.0691852
0.0233742
0.0879492
0.0198196
0.0187177
0.0419663
0.0275246
0.0325755
0.0218791
0.0257977
0.0372585
0.0279917
0.0360977
0.0536133
0.0171425
0.0846064
0.0386721
0.0785645
0.0979543
0.0114725
0.0210136
0.0397872
0.0246572
0.0161058
0.0758193
0.038354
0.0725663
0.0234746
0.0810539
0.0600902
0.0264093
0.0590635
0.0179973
0.0508798
0.0211058
0.0325527
0.0236272
0.0226191
0.0342759
0.0457315
0.0798592
0.017185
0.0288551
0.0155661
0.0558621
0.0797186
0.0558696
0.0917604
0.082978
0.0235086
0.0435982
0.0911066
0.010423
0.0230846
0.0746245
0.023876
0.0176638
0.0378699
0.0239473
0.0407224
0.0411812
0.0372935
0.0541868
0.0826427
0.0353898
0.044392
0.088853
0.0227827
0.0896949
0.0252845
0.0772695
0.0612715
0.098
0.0243334
0.0620411
0.0259655
0.0382222
0.0908537
0.0368575
0.0193378
0.0212649
0.0518515
0.0239333
0.0233112
0.0274411
0.0370495
0.0239594
0.0482434
0.0199655
0.0444776
0.019419
0.0395202
0.0346573
0.0701145
0.0158432
0.0241471
0.0856023
0.0810354
0.0894352
0.0690694
0.0448463
0.0313325
0.0390521
0.0370045
0.0187353
0.0380104
0.0228001
0.0229781
0.0228592
0.024375
0.0394685
0.0222671
0.0167288
0.0190544
0.0136652
0.0735119
0.0571155
0.0233668
0.0352328
0.0897206
0.0369986
0.0368272
0.0679319
0.0241959
0.0807732
0.0504608
0.0502009
0.0217605
0.0377647
0.0274528
0.026622
0.017595
0.0849132
0.0411695
0.0105813
0.0576444
0.019945
0.0906484
0.0162365
0.0537864
0.0378811
0.0896719
0.0108217
0.0231171
0.0247677
0.0293732
0.0249252
0.0259175
0.0236422
0.0137987
0.0941861
0.0244436
0.0184488
0.0487284
0.0200776
0.0487223
0.0219946
0.0526463
0.0390691
0.0939365
0.0241528
0.0469057
0.0243719
0.012948
0.0383641
0.091064
0.0316145
0.0240637
0.0305128
0.0238552
0.08816
0.0274641
0.0356593
0.0321524
0.0265907
0.0210624
0.0178973
0.0244795
0.0300223
0.070762
0.0656895
0.0200175
0.0405953
0.0459149
0.0597722
0.0468502
0.0238805
0.0456567
0.0303662
0.0235036
0.0694305
0.0226663
0.0313168
0.0236095
0.021264
0.0629536
0.0405454
0.0249271
0.0332539
0.045959
0.0236194
0.0300666
0.0475098
0.0228919
0.0367431
0.0845737
0.0396817
0.0278303
0.0260127
0.0311632
0.0382853
0.0234914
0.0312862
0.0243311
0.0235339
0.0226905
0.0620628
0.0879542
0.0241331
0.0472595
0.0242506
0.0490335
0.0249941
0.0304739
0.0375095
0.0156073
0.0299901
0.0906358
0.0312855
0.0240911
0.0640718
0.0169415
0.0300417
0.0852869
0.0264462
0.0210374
0.0213935
0.0226093
0.0378077
0.027815
0.0893561
0.0242866
0.0434092
0.0763224
0.036163
0.0495256
0.0798721
0.0510883
0.0294203
0.0243868
0.0349601
0.0495502
0.054226
0.0470062
0.0362548
0.0415276
0.0498242
0.0362268
0.0733943
0.0143408
0.0141721
0.0197894
0.0242624
0.0296062
0.0424333
0.0834184
0.0546332
0.0549928
0.0151053
0.0317051
0.0203612
0.0227795
0.0355629
0.0193819
0.0868864
0.0383663
0.049228
0.0183339
0.0534988
0.0430842
0.0197911
0.02395
0.0410033
0.0263409
0.0218018
0.0161784
0.0384413
0.025855
0.0298821
0.0231866
0.0247266
0.0288709
0.0602357
0.0510344
0.0366954
0.0446519
0.0901229
0.0247687
0.0621316
0.0138044
0.0140511
0.0236087
0.0249449
0.0407321
0.0572618
0.038457
0.0786164
0.0362946
0.0263548
0.0223489
0.0291221
0.0240928
0.0662155
0.0155701
0.0347622
0.0246257
0.0584534
0.0566846
0.0350747
0.0519698
0.0846301
0.0906751
0.0240178
0.027798
0.0202414
0.0334546
0.0913434
0.0133481
0.085302
0.0395091
0.0988666
0.0653957
0.062542
0.0659573
0.0242364
0.0576603
0.0629798
0.0315533
0.021081
0.0423021
0.0320443
0.0863299
0.0573992
0.0538146
0.0492896
0.0512776
0.0228345
0.0469754
0.0357041
0.0462425
0.0300314
0.0175845
0.0231414
0.030841
0.0234358
0.0508306
0.09138
0.0489741
0.0199186
0.0532921
0.0550286
0.0299136
0.0284119
0.0626214
0.0243128
0.046767
0.0412745
0.0223776
0.0429992
0.0244451
0.0141588
0.0357263
0.0776194
0.0918727
0.0332649
0.0245101
0.0791285
0.0457497
0.0104706
0.0778833
0.0250116
0.0241679
0.024758
0.0264436
0.0146918
0.082057
0.027369
0.024215
0.0540093
0.0310352
0.0269877
0.0925061
0.0207098
0.0252305
0.0262019
0.0400393
0.0704889
0.0623229
0.050914
0.0718291
0.0581702
0.0881484
0.0238823
0.0234707
0.0773478
0.0397291
0.0164386
0.0638897
0.0288513
0.0655263
0.0363484
0.0745319
0.0180804
0.0607846
0.0177435
0.0244225
0.0878447
0.0191253
0.0408448
0.0718212
0.0394904
0.0406736
0.0679362
0.0258417
0.0268411
0.039778
0.0505188
0.0435651
0.0161668
0.0521189
0.0236823
0.0149371
0.0594634
0.0820739
0.0755731
0.0351597
0.015585
0.0248877
0.0489289
0.0303685
0.0155902
0.084041
0.0891826
0.0273048
0.0638614
0.0231795
0.0251224
0.0705418
0.08775
0.0644623
0.035362
0.0262508
0.0254141
0.0344668
0.0774955
0.0421468
0.0696863
0.0241303
0.0609126
0.0610299
0.0385165
0.0594595
0.0724994
0.025519
0.026953
0.0252821
0.024969
0.0234568
0.0450668
0.0267787
0.0367902
0.0912115
0.0355148
0.0428902
0.0244162
0.0261679
0.0382403
0.0430645
0.0836352
0.0288664
0.0353428
0.0242259
0.0224004
0.0179255
0.0226001
0.0243106
0.0152762
0.0848144
0.0317956
0.0246797
0.050166
0.0850988
0.040365
0.0682305
0.0331053
0.0797483
0.0161276
0.0233133
0.0397005
0.07856
0.0318753
0.0344423
0.0187887
0.0192342
0.0338524
0.0189875
0.0660965
0.0877953
0.0854454
0.0654485
0.0296473
0.0356138
0.0148337
0.0247994
0.0467578
0.0233083
0.0681383
0.0267257
0.0798434
0.0903794
0.0486307
0.0810519
0.0330443
0.0798096
0.0857755
0.0592928
0.0710674
0.0991147
0.0937902
0.0855304
0.0337312
0.091255
0.0822095
0.0996198
0.0284626
0.0258853
0.0806948
0.027834
0.0772251
0.0591287
0.0977674
0.0552552
0.027523
0.0409136
0.0228025
0.0432107
0.0269453
0.0283422
0.067608
0.0261744
0.0232876
0.0838096
0.0951816
0.0501874
0.0163989
0.0643696
0.0870935
0.0556865
0.0271739
0.0250744
0.0767352
0.0847267
0.070832
0.0234006
0.0794697
0.0622924
0.0261737
0.0238545
0.0801877
0.04154
0.0264631
0.0812193
0.0426905
0.0681106
0.0363763
0.0738173
0.0553777
0.0363002
0.0493858
0.100073
0.0455867
0.0164738
0.0223734
0.0925702
0.0554483
0.0817393
0.0413114
0.0581181
0.0702168
0.0605447
0.0562431
0.0774034
0.0537156
0.0801623
0.0670155
0.0464833
0.0754881
0.0495484
0.0354087
0.0474205
0.0457442
0.0880985
0.0346372
0.0443633
0.0844346
0.0780739
0.0417487
0.0369276
0.0588659
0.0628219
0.0668021
0.0722076
0.0758647
0.0548393
0.0786475
0.0523177
0.0720813
0.0483357
0.0636499
0.046483
0.0467149
0.0471642
0.0432775
0.0398021
0.0407833
0.0275148
0.0371899
0.0572197
0.0200486
0.0356226
0.0384957
0.0389466
0.0249422
0.0664643
0.0378415
0.0641486
0.0681289
0.0527865
0.036653
0.0367895
0.0267651
0.0557625
0.0494641
0.0817482
0.0221236
0.0624186
0.0348354
0.0457539
0.027386
0.0349426
0.0774415
0.0461981
0.0803335
0.0370889
0.0238145
0.0296152
0.0151066
0.0337601
0.05584
0.0329094
0.0191911
0.0354096
0.0801217
0.0330557
0.0306983
0.0288853
0.0829712
0.0347322
0.0136754
0.0863718
0.0377809
0.0405396
0.0725703
0.0678616
0.074135
0.0698588
0.0789893
0.0361232
0.053833
0.0626179
0.0707529
0.0511192
0.0493338
0.0453054
0.0999138
0.0427857
0.0313604
0.0745554
0.0712913
0.0820611
0.051584
0.0606504
0.0293998
0.0979941
0.0664143
0.0464885
0.0400586
0.0461298
0.0295393
0.0227405
0.0642526
0.0324815
0.0291848
0.0395363
0.033304
0.0318468
0.0384904
0.0356462
0.0463002
0.0360913
0.0343608
0.0347755
0.0849543
0.052324
0.030131
0.0445121
0.0411973
0.033654
0.0819959
0.0619628
0.0723928
0.0528587
0.0366859
0.0295373
0.0363118
0.0348886
0.0986781
0.0664633
0.0742486
0.0458453
0.0312455
0.053536
0.0237985
0.0640843
0.0287795
0.0340682
0.0196277
0.0217804
0.0368677
0.0232626
0.0234098
0.0169297
0.0268894
0.0183251
0.0210358
0.0190379
0.0181464
0.0162952
0.0244487
0.0280794
0.021901
0.0225576
0.0398522
0.0367939
0.0396394
0.0619583
0.0772106
0.015805
0.0195319
0.0345669
0.0725169
0.0654722
0.074144
0.0615819
0.04848
0.0274716
0.0282963
0.032328
0.038971
0.0474488
0.0289556
0.037511
0.0269495
0.0361192
0.0230604
0.0890292
0.0236465
0.059748
0.0392775
0.0835704
0.0300896
0.0324271
0.0352952
0.0302558
0.0473564
0.0430472
0.0312448
0.0499178
0.0245028
0.0259142
0.0201546
0.0199184
0.0181864
0.017612
0.0320859
0.0359737
0.0311212
0.060564
0.0305525
0.0608412
0.0603907
0.070149
0.0319128
0.0485494
0.0307538
0.0193025
0.035966
0.0173278
0.0440851
0.0263778
0.0179093
0.0513966
0.0254347
0.0206896
0.0631119
0.0285081
0.0483793
0.0580267
0.0546758
0.0362421
0.0510366
0.0292556
0.0455837
0.030741
0.0666099
0.0361291
0.0240043
0.0510479
0.0600568
0.0624691
0.0856049
0.0670326
0.0336103
0.0407192
0.0441209
0.0405848
0.0904066
0.0227387
0.0389385
0.0363056
0.0264097
0.0653321
0.0351858
0.0921986
0.0351893
0.0185338
0.0303102
0.0239634
0.0371087
0.034345
0.0319511
0.0931762
0.0312938
0.060375
0.0408947
0.080764
0.0343845
0.0478877
0.0546287
0.0605715
0.0621958
0.0419307
0.0559256
0.0478851
0.0657017
0.0689725
0.0743214
0.0454823
0.0687889
0.070081
0.0490174
0.0839793
0.0754771
0.0661998
0.0669569
0.0306368
0.0429106
0.044668
0.0400234
0.0269596
0.0381209
0.0540278
0.03969
0.0300225
0.0647886
0.0546137
0.0649143
0.040846
0.0688678
0.0294904
0.0341268
0.0376264
0.0359159
0.0469669
0.0211041
0.0665589
0.0867509
0.0970805
0.0268194
0.0344993
0.0727821
0.0779867
0.029034
0.0566149
0.0563143
0.0539626
0.0629976
0.0557389
0.0361767
0.0693279
0.0782291
0.0722323
0.0762278
0.0825158
0.0828037
0.0265387
0.0453619
0.0454718
0.0343042
0.0532648
0.0570898
0.0333714
0.0220814
0.0275655
0.0741249
0.0274973
0.0282878
0.0157188
0.0285662
0.0135205
0.0238602
0.018462
0.0349968
0.0320122
0.032701
0.035646
0.0813756
0.0268878
0.0305337
0.0543596
0.0405409
0.0742865
0.0682555
0.0950778
0.0718514
0.0305912
0.0386455
0.0364463
0.0275624
0.0158609
0.025862
0.0856259
0.0810072
0.0402856
0.047434
0.0430119
0.0497594
0.0524644
0.0760615
0.0338095
0.0861177
0.0678021
0.0746583
0.0731982
0.0596852
0.0682189
0.0474957
0.0641159
0.0374418
0.0604141
0.0531274
0.0395302
0.04982
0.0468305
0.0445686
0.0353994
0.0341796
0.0566261
0.0589669
0.0803997
0.0298895
0.0542526
0.0298784
0.0225084
0.0425643
0.0231608
0.0571169
0.042028
0.0381337
0.0385984
0.035006
0.0343589
0.0836536
0.0232533
0.0287264
0.0626231
0.0401745
0.0162499
0.0564372
0.0831808
0.0510341
0.0240843
0.0702722
0.0332246
0.056822
0.0610113
0.0729529
0.0497017
0.0295567
0.067736
0.0569607
0.0637894
0.0594781
0.0550912
0.0524722
0.0306392
0.0489457
0.0627894
0.0319128
0.0434493
0.0827816
0.0360211
0.0446144
0.0478871
0.0409704
0.0154134
0.0229606
0.0384507
0.0275218
0.0333723
0.030238
0.0280906
0.0831435
0.036894
0.034933
0.0654041
0.0280569
0.0292077
0.0291275
0.0866465
0.0331072
0.0321644
0.0826427
0.0218872
0.0173828
0.0310912
0.0308429
0.0292727
0.0443606
0.0223609
0.032675
0.0517242
0.0758562
0.0814086
0.0695966
0.0618603
0.0292762
0.0448792
0.0373337
0.039758
0.0300871
0.0830558
0.045801
0.0276003
0.0284356
0.0504011
0.0453987
0.0614852
0.0382658
0.0299836
0.0340459
0.0281132
0.0746972
0.0421994
0.0188805
0.0753006
0.0316068
0.0444366
0.0295244
0.0243279
0.027702
0.0493667
0.0346191
0.0283867
0.0706816
0.0293221
0.0735435
0.044204
0.024417
0.0646268
0.0332629
0.0556957
0.0585775
0.0470556
0.0647674
0.0516377
0.0292151
0.054684
0.0556599
0.023804
0.0413878
0.029745
0.027486
0.0401477
0.0165674
0.0192813
0.0440266
0.0179903
0.0250129
0.0486134
0.017489
0.0229643
0.053846
0.0221877
0.0199898
0.0510142
0.0907498
0.0797962
0.0223196
0.0276729
0.0598442
0.0240666
0.0253125
0.0912604
0.0633518
0.0899252
0.0432444
0.0734987
0.0333382
0.0417995
0.0483554
0.0692595
0.0295392
0.0650365
0.0936278
0.0308821
0.0289383
0.0341916
0.0282935
0.0237555
0.027456
0.0376018
0.0324812
0.0910342
0.0486835
0.035659
0.0796201
0.0414653
0.0736774
0.0288134
0.0620755
0.0337475
0.0412327
0.0870542
0.030198
0.0514066
0.0270082
0.028584
0.0555134
0.0270393
0.0907131
0.0626538
0.0781811
0.0437771
0.0434092
0.0879749
0.0307384
0.0280603
0.0742994
0.0314131
0.0320902
0.0319437
0.0742364
0.0264523
0.0270155
0.0295654
0.0969741
0.028295
0.0399567
0.0416904
0.0278823
0.027098
0.047248
0.0526127
0.0907592
0.0230201
0.0130695
0.0299952
0.0253837
0.0266284
0.0973896
0.044066
0.042649
0.0295701
0.0509696
0.0614651
0.0401828
0.0690258
0.0701215
0.0251389
0.0405635
0.026652
0.066859
0.0641132
0.0241291
0.0496421
0.0444518
0.0518326
0.0491936
0.0631479
0.0419401
0.0577636
0.0617228
0.0827799
0.0508522
0.0827084
0.0233182
0.0575276
0.0298492
0.027247
0.0695953
0.0865523
0.0654991
0.0238979
0.0874909
0.0435444
0.0382963
0.0891248
0.0393511
0.0817991
0.0265891
0.0992989
0.0612331
0.0240702
0.0795319
0.0582238
0.0562886
0.0515225
0.0907221
0.0891197
0.027457
0.0325352
0.0915256
0.0665213
0.0281844
0.0978256
0.0972354
0.0322764
0.0442383
0.0337114
0.0784984
0.0441174
0.0451243
0.0191473
0.0846998
0.0688645
0.0235905
0.0895311
0.0833218
0.0217796
0.0336581
0.0288601
0.061276
0.0722977
0.0399073
0.0268326
0.0831014
0.0651791
0.0446284
0.0919938
0.0417305
0.0331572
0.0544232
0.0514762
0.0857733
0.0274804
0.0235601
0.0786295
0.0437036
0.033335
0.0433994
0.0257843
0.059868
0.0553838
0.0766141
0.0829707
0.0959363
0.0279184
0.0583206
0.0277696
0.05087
0.0613464
0.0396372
0.0295671
0.0212591
0.0899458
0.0145955
0.0273494
0.0266974
0.0557838
0.0809782
0.0938597
0.0940048
0.0676913
0.0427541
0.0587833
0.023672
0.028011
0.0311773
0.0146838
0.0257406
0.0341254
0.0771686
0.0810963
0.0356514
0.0289489
0.0471981
0.0705487
0.0336943
0.0591325
0.0446269
0.053302
0.0386446
0.0535706
0.081159
0.0804413
0.0617608
0.026949
0.0638537
0.0873499
0.031136
0.0320808
0.0521705
0.0776534
0.0612583
0.024681
0.0281915
0.0426508
0.0526067
0.0587229
0.0184068
0.0214357
0.0331248
0.0322239
0.0265416
0.0822963
0.0552156
0.0895443
0.0597302
0.0631015
0.0681695
0.0451049
0.026457
0.083697
0.0277894
0.0449367
0.0441763
0.051656
0.0399715
0.0626652
0.0421052
0.0613747
0.0752556
0.032653
0.0705732
0.0247818
0.0895386
0.0270115
0.0261916
0.081667
0.0711473
0.0262272
0.0452526
0.0577224
0.0287983
0.0748527
0.0261416
0.0729751
0.0907777
0.0271383
0.067385
0.0982753
0.0362438
0.080626
0.0689635
0.0881812
0.0422073
0.0829398
0.0968293
0.0262967
0.0472786
0.0594194
0.0262039
0.0244767
0.0790163
0.0250156
0.0515864
0.0962108
0.0733227
0.0698431
0.0170895
0.0226948
0.0237136
0.0522326
0.024758
0.0250796
0.0414868
0.0435761
0.0308874
0.0231199
0.0251103
0.0408265
0.0479271
0.0261321
0.0500266
0.0246636
0.0250804
0.0214622
0.087477
0.0765727
0.0258061
0.0276455
0.0573359
0.0868636
0.0266726
0.0585504
0.0255852
0.0248019
0.0526221
0.0263198
0.082074
0.0241579
0.0601773
0.0359138
0.0902268
0.0207992
0.0878662
0.0924617
0.0245723
0.0968984
0.0284776
0.0259838
0.0414111
0.0690954
0.0276023
0.0331407
0.0324409
0.0329135
0.0320721
0.0525511
0.00342836
0.046294
0.0844503
0.0820778
0.0672281
0.0263338
0.0959884
0.00235357
0.0236723
0.0560459
0.0244175
0.0252754
0.0965689
0.0196749
0.0309261
0.097537
0.0977435
0.0261284
0.0151901
0.0325632
0.0643268
0.0258363
0.0713858
0.0950629
0.0221479
0.084886
0.0264877
0.0234379
0.0242106
0.0187618
0.0507748
0.0868991
0.0551537
0.0308271
0.0977841
0.0252256
0.0246672
0.0236935
0.0833278
0.0357318
0.0243362
0.040108
0.0956348
0.0312016
0.0659545
0.025949
0.0395077
0.0298374
0.0327145
0.0352049
0.0156148
0.034573
0.0204812
0.0249074
0.0891503
0.0329051
0.0431145
0.0260937
0.0451103
0.0434051
0.0898651
0.0158627
0.041569
0.0743756
0.042048
0.0259763
0.0384875
0.0206692
0.00229738
0.042614
0.0389132
0.0432883
0.0317759
0.0864024
0.0802613
0.0244317
0.0312219
0.094126
0.0908071
0.0657712
0.0326213
0.00254202
0.0334675
0.0310698
0.0438431
0.0264688
0.0252287
0.0306237
0.042919
0.0598848
0.0226663
0.0253379
0.04343
0.0213544
0.0586399
0.0500786
0.0556489
0.00279254
0.0777175
0.0257367
0.093688
0.0936028
0.0671664
0.0149681
0.048796
0.0543778
0.0445492
0.00393693
0.02097
0.0264264
0.0797237
0.0886553
0.0653731
0.0916898
0.0197458
0.0232064
0.032313
0.0312834
0.0319974
0.029229
0.0249061
0.0685999
0.0736743
0.0886364
0.0942178
0.0779426
0.0670828
0.0973104
0.0228826
0.0489296
0.0927125
0.0363194
0.00306739
0.0185809
0.053313
0.0234494
0.0534615
0.0252003
0.0424588
0.0564802
0.0210517
0.0424327
0.0427851
0.0261627
0.0582142
0.0257528
0.0829313
0.0929871
0.0281103
0.0862176
0.0875872
0.0518527
0.00243035
0.0899783
0.0374094
0.0267924
0.0949347
0.0194587
0.0775724
0.0166553
0.0512913
0.0170015
0.0321995
0.0462923
0.0294991
0.00358104
0.0861073
0.0192112
0.0418253
0.0310412
0.0881144
0.0670317
0.0369366
0.0863054
0.0407158
0.0614036
0.0255982
0.0435094
0.0916501
0.0127857
0.0419991
0.0221357
0.0251752
0.0600746
0.0328027
0.0684031
0.0608419
0.0410798
0.0918341
0.0233084
0.0336565
0.0431843
0.0258642
0.0731112
0.0642349
0.00331506
0.0489299
0.0406174
0.0880746
0.025816
0.0536936
0.0244418
0.0253665
0.0457916
0.0219658
0.0616058
0.0945764
0.0904841
0.0458133
0.0675715
0.0658981
0.0517857
0.0244515
0.0476588
0.0256886
0.046084
0.042082
0.0320991
0.043053
0.0920301
0.0247265
0.0836199
0.00444329
0.0572189
0.0162508
0.00411877
0.067654
0.0237904
0.0846997
0.0270908
0.0240773
0.0247593
0.0890205
0.030594
0.0235521
0.0272981
0.0746324
0.0323144
0.0390194
0.0421653
0.0539353
0.0405938
0.0266731
0.0706347
0.0312594
0.0300066
0.0816912
0.0212661
0.0525321
0.0287136
0.00371067
0.0500171
0.0226157
0.029236
0.0800087
0.093729
0.0325059
0.0254698
0.0839905
0.0910714
0.0874303
0.0868205
0.0842421
0.0795061
0.0227626
0.0565069
0.0773185
0.0358186
0.0411935
0.0218963
0.0279358
0.0359338
0.0251814
0.0546149
0.0830385
0.0156088
0.0197845
0.0230167
0.023824
0.0348786
0.0407542
0.0265711
0.00243229
0.0776612
0.0408194
0.0255234
0.0906294
0.0736045
0.0418307
0.0311601
0.0559694
0.0322752
0.0332567
0.0313758
0.0408627
0.0329632
0.0282687
0.0462163
0.0332875
0.0890736
0.0434221
0.0495491
0.0774474
0.0310804
0.0483173
0.0380468
0.0400797
0.030753
0.0328837
0.0611886
0.0347142
0.0348208
0.0362005
0.00252454
0.0350696
0.0757545
0.0924955
0.00532888
0.0341059
0.0900837
0.0813211
0.0213329
0.0853964
0.0247137
0.0527891
0.0956968
0.024135
0.0317265
0.089083
0.0252627
0.0313338
0.0251339
0.0200022
0.073951
0.024182
0.0832922
0.0109623
0.0541584
0.0248556
0.0335762
0.0268527
0.0352132
0.0221057
0.0733239
0.087134
0.079629
0.0661669
0.0445392
0.0333228
0.0887239
0.0344627
0.0892264
0.00856276
0.0453511
0.0433089
0.0236986
0.0236914
0.0779732
0.0688946
0.0304508
0.0251076
0.0310168
0.0408502
0.024087
0.0361694
0.0459015
0.060142
0.0409918
0.037429
0.0326569
0.0247795
0.0802563
0.0365554
0.0368559
0.0465885
0.0455974
0.0504844
0.0383254
0.0303437
0.0299526
0.00493388
0.00235346
0.062012
0.0434862
0.0714475
0.0241461
0.0267177
0.0453792
0.0203313
0.0303724
0.0854621
0.0814327
0.0214746
0.0924513
0.0107376
0.0763474
0.0207303
0.0828375
0.0262799
0.0344971
0.0539749
0.0506245
0.0646865
0.00701653
0.0978315
0.023015
0.0522595
0.0227638
0.0815865
0.0626574
0.0541399
0.0242925
0.034027
0.0733816
0.0317269
0.0411754
0.0419869
0.0754727
0.024484
0.0561148
0.0203807
0.0818226
0.0219197
0.0188105
0.0385669
0.0393417
0.0852093
0.0616281
0.0309396
0.0394866
0.0481299
0.0231397
0.0540321
0.0388089
0.0246218
0.0155396
0.0882385
0.0234753
0.0230674
0.00450046
0.00524745
0.0262605
0.0878784
0.0771886
0.0292419
0.067172
0.0874016
0.0256263
0.0799508
0.0784535
0.0845757
0.0417131
0.0848475
0.0232977
0.0047887
0.0234327
0.0520321
0.0378841
0.0231084
0.0869198
0.024255
0.0454868
0.0810507
0.0350894
0.0250356
0.0891094
0.0803333
0.0405143
0.00272973
0.0956212
0.0198264
0.0313045
0.0407436
0.0343099
0.0294153
0.0211085
0.0566798
0.00535844
0.0337987
0.0636253
0.0800184
0.0248001
0.023473
0.0236009
0.0246898
0.0412437
0.0412286
0.0555917
0.0334114
0.0930028
0.0470377
0.0295687
0.0314571
0.024635
0.0861043
0.0982443
0.0240084
0.0430844
0.079604
0.0474947
0.0619615
0.0934806
0.0217601
0.0279857
0.0376953
0.0194047
0.0302085
0.0567715
0.0849025
0.0236509
0.0237422
0.0198849
0.00539668
0.0635225
0.0239517
0.0178695
0.0719472
0.0580181
0.0187315
0.0238121
0.0764451
0.0915948
0.0824295
0.0425025
0.0797033
0.0523912
0.088821
0.00568134
0.0229579
0.0933632
0.0236904
0.0133098
0.0259582
0.0259515
0.0434955
0.0504954
0.0437117
0.0779037
0.0172035
0.0405179
0.0591512
0.0653116
0.0357881
0.0876148
0.00248922
0.0716174
0.0246577
0.00525799
0.0585257
0.027042
0.0288637
0.0509514
0.0958862
0.0174642
0.0738748
0.073868
0.0179207
0.0472509
0.0525702
0.0241545
0.0246198
0.0239409
0.034256
0.0372143
0.0272262
0.00518515
0.091464
0.018445
0.0790951
0.00573144
0.0885007
0.0573414
0.00284885
0.0639211
0.0242374
0.0650196
0.0520736
0.0231208
0.0292246
0.0253448
0.0183503
0.0288694
0.0722791
0.0282898
0.00642585
0.0204772
0.0350714
0.0245431
0.0255259
0.023268
0.0801591
0.00275101
0.03058
0.0253406
0.0548413
0.0311843
0.036173
0.0705535
0.0929635
0.0649533
0.0239966
0.0237602
0.0500795
0.0239377
0.0365418
0.0255319
0.0557961
0.0746324
0.0121966
0.00599576
0.0268767
0.0217335
0.0626447
0.0594012
0.0465781
0.0518293
0.0451468
0.0297459
0.0869603
0.0883959
0.0453921
0.00644803
0.0317738
0.0205501
0.0517528
0.0407014
0.045502
0.0232802
0.0214357
0.0415589
0.0678707
0.0498509
0.056506
0.0343639
0.0352776
0.0236939
0.0854768
0.067556
0.00260563
0.0240045
0.0877114
0.0881437
0.0346007
0.0166539
0.0915562
0.0538657
0.0172829
0.0230043
0.0515032
0.0363354
0.0257055
0.0580132
0.0106406
0.0723641
0.0175561
0.0899884
0.04676
0.0252506
0.055805
0.0239111
0.0351854
0.0351932
0.0709404
0.0254653
0.023902
0.0055002
0.0282481
0.0238606
0.00447188
0.061137
0.0760659
0.0239186
0.023565
0.035864
0.00283982
0.0213856
0.0238886
0.0222453
0.0953407
0.0238922
0.0253044
0.0378179
0.0306752
0.00552923
0.0276018
0.00258973
0.0219875
0.0160446
0.0583717
0.0528788
0.0635596
0.0170962
0.0242402
0.0191934
0.0193726
0.0248422
0.00339421
0.0313826
0.027676
0.078158
0.0316101
0.0362433
0.0948043
0.0178596
0.0245962
0.0246026
0.0283888
0.0379996
0.04374
0.018453
0.0604654
0.0480563
0.0859044
0.082467
0.0102267
0.0328128
0.0823136
0.0249779
0.0231438
0.010528
0.0705491
0.0305507
0.0225147
0.043054
0.0508399
0.0232689
0.0237306
0.0578491
0.0384257
0.0229318
0.0239836
0.0221255
0.040801
0.0710392
0.0229128
0.0751999
0.00479192
0.0207229
0.00594836
0.0352816
0.0939504
0.0727195
0.0797304
0.0907928
0.0849785
0.0545161
0.0467209
0.0406135
0.0233513
0.0259553
0.0367374
0.0435431
0.0496037
0.00518616
0.0241315
0.0199049
0.0229593
0.022356
0.022867
0.0234359
0.0552881
0.0330743
0.0200153
0.0510566
0.0209768
0.0235505
0.0276113
0.0225104
0.0859674
0.0873878
0.0216547
0.0407182
0.0329644
0.0592224
0.0369112
0.0188427
0.020514
0.0101865
0.023036
0.0522335
0.0885215
0.04825
0.0305781
0.0214227
0.0395969
0.0340252
0.0941387
0.0387416
0.0248816
0.0434541
0.0238432
0.084731
0.0337398
0.0538514
0.0258497
0.0287459
0.0552202
0.0417898
0.0692605
0.0576621
0.0316053
0.0217377
0.0239201
0.0295254
0.0787769
0.0169074
0.0603161
0.0607544
0.0227396
0.0751814
0.0460925
0.0622853
0.05363
0.0714994
0.0162209
0.0269425
0.0679095
0.0864605
0.0280091
0.0152261
0.0554769
0.0231727
0.0385464
0.0398271
0.0112978
0.0882702
0.0136956
0.0334274
0.0392289
0.076891
0.0727905
0.0213163
0.0329843
0.0456059
0.034147
0.023882
0.0240954
0.0156996
0.0305438
0.0267577
0.0240462
0.0909032
0.0539244
0.0754154
0.0783799
0.0193939
0.0228328
0.0581368
0.0603573
0.0194478
0.0442802
0.044482
0.0242141
0.0709474
0.0685902
0.0840222
0.0149177
0.021307
0.0225201
0.0120013
0.0473926
0.0460227
0.0209544
0.0322236
0.0720108
0.023425
0.0172769
0.0318056
0.0776965
0.0192845
0.0377855
0.0324239
0.0452393
0.0294996
0.0834024
0.0825482
0.082122
0.0507969
0.024238
0.0549877
0.0242016
0.0695825
0.0925291
0.0450098
0.0415588
0.0102537
0.077582
0.015392
0.0459352
0.0378622
0.0690865
0.0234796
0.0497543
0.0158043
0.0244776
0.0229362
0.0927174
0.0537901
0.0399687
0.0876185
0.0362408
0.0576824
0.0197287
0.0577357
0.024179
0.0416694
0.00241416
0.0613989
0.0210548
0.0241207
0.0767421
0.015818
0.0683526
0.0185646
0.0627211
0.0257855
0.0509576
0.021148
0.0702079
0.0480923
0.0893146
0.0764078
0.0269898
0.0169827
0.0157943
0.0424089
0.0657765
0.0542152
0.0612474
0.0463521
0.0611991
0.0724476
0.0236973
0.0789668
0.0740011
0.034733
0.0758802
0.0708825
0.0218888
0.0350395
0.0257584
0.0806907
0.0252887
0.0244961
0.0240971
0.0905432
0.0910388
0.0437115
0.0494751
0.0550401
0.021913
0.0460156
0.0252874
0.0354784
0.0247282
0.0527596
0.0513907
0.0458199
0.0217893
0.0826323
0.00474076
0.0204104
0.0338639
0.071444
0.0483305
0.0708312
0.0219436
0.0238131
0.0251249
0.0884821
0.0259486
0.0229388
0.0606491
0.0798261
0.0198806
0.0367955
0.0597708
0.00731911
0.0672801
0.0902993
0.00230086
0.0209363
0.0516624
0.0757235
0.0608726
0.0272012
0.0365947
0.0473534
0.0239972
0.0247622
0.0212479
0.0239865
0.0645071
0.0759541
0.0290608
0.0876202
0.0715859
0.0255497
0.0219812
0.0304849
0.0736497
0.0595999
0.0496438
0.0400488
0.0852635
0.0503914
0.0349632
0.039618
0.0373257
0.0841137
0.0396082
0.053281
0.0429443
0.0359902
0.0299676
0.0323531
0.0184381
0.0168468
0.0458533
0.0586674
0.0313917
0.0482265
0.0438195
0.0243116
0.0767946
0.0348879
0.045748
0.0218776
0.0905794
0.0299535
0.0214195
0.0299171
0.0199297
0.0283137
0.0267075
0.0242973
0.0239703
0.0303124
0.0492116
0.0751022
0.0308893
0.0845373
0.0291203
0.0370426
0.0579981
0.0566106
0.0306383
0.0876354
0.0352274
0.0545325
0.0294835
0.0629993
0.0268972
0.00248405
0.0923408
0.0289618
0.0531944
0.049621
0.0353964
0.0238428
0.0239985
0.0326296
0.0219051
0.0254585
0.0301161
0.0260031
0.0475767
0.0247689
0.0235306
0.0273264
0.014135
0.069314
0.00455856
0.0555517
0.0487611
0.0902027
0.0256772
0.0244974
0.0299204
0.0252413
0.0252279
0.0603098
0.0279382
0.0335416
0.0647456
0.033902
0.0238422
0.00222063
0.0752229
0.0253079
0.00448042
0.017953
0.0612036
0.0181819
0.0193025
0.0278402
0.0709865
0.0254073
0.0241357
0.0207353
0.0361648
0.0182866
0.0887264
0.0397621
0.0273589
0.0343114
0.0727907
0.0200353
0.024266
0.0756165
0.0853009
0.0557651
0.0160413
0.0345702
0.0353723
0.0496166
0.0374379
0.0832882
0.0767508
0.0400244
0.03462
0.0178125
0.0213016
0.038793
0.0212438
0.0851568
0.0113853
0.0228492
0.0337147
0.0706336
0.0366196
0.0766626
0.0525798
0.0594001
0.0353947
0.0194625
0.0615401
0.0822312
0.0244874
0.018725
0.02936
0.019599
0.0252056
0.0625708
0.0402967
0.0448803
0.077236
0.0783076
0.0398734
0.0777358
0.0194365
0.0212029
0.0255638
0.0669025
0.0150039
0.013935
0.0167428
0.0432647
0.0324722
0.0177337
0.0701342
0.0794716
0.0701766
0.0227355
0.051198
0.0873465
0.0370363
0.0263111
0.0298317
0.0254446
0.0784616
0.0189036
0.0404536
0.0300921
0.04599
0.0236636
0.0290497
0.0406813
0.00640343
0.00567739
0.0303498
0.04497
0.0168178
0.0248373
0.0472555
0.0443261
0.0239519
0.0743287
0.0495579
0.0243485
0.0263774
0.0281113
0.0392258
0.0192879
0.0237827
0.0724453
0.0452701
0.0231018
0.0744984
0.074825
0.0590581
0.0382443
0.0186441
0.0229476
0.0365344
0.0745096
0.0431535
0.0987767
0.0848911
0.082236
0.0236502
0.023813
0.0307236
0.022078
0.0224613
0.0186235
0.0699457
0.0244436
0.0249643
0.0243381
0.0167997
0.0631051
0.0126283
0.0364689
0.0158088
0.0148511
0.0157389
0.0104376
0.0631817
0.0357768
0.0245746
0.0759866
0.0321579
0.0298841
0.0735741
0.0316353
0.0241667
0.0743615
0.0214377
0.0351085
0.0222063
0.0280142
0.0310578
0.0413601
0.0801138
0.0239779
0.068023
0.0385617
0.0472228
0.0293852
0.0825641
0.0849186
0.0245357
0.0206666
0.0301448
0.0106435
0.0364001
0.0675707
0.0846991
0.0488477
0.0151599
0.084729
0.0180612
0.0300138
0.0559664
0.0529117
0.0868665
0.0757014
0.0341176
0.0802293
0.0146983
0.0260381
0.0204721
0.0427651
0.0201421
0.0804462
0.0176234
0.0233396
0.0214315
0.0132195
0.0139405
0.0210444
0.0387736
0.057374
0.0406767
0.0654623
0.0554233
0.0406012
0.0199709
0.021674
0.0375382
0.0303277
0.0243413
0.0239023
0.025154
0.0129379
0.0238219
0.018959
0.0234819
0.0316373
0.0239017
0.0170707
0.0419215
0.0370086
0.0764753
0.0865491
0.0385322
0.0242207
0.0360712
0.036005
0.0695887
0.029273
0.0289242
0.0324069
0.0269087
0.0797372
0.0299484
0.0239503
0.0239962
0.0211449
0.0306288
0.0363631
0.0752621
0.0775637
0.0148655
0.0308496
0.0737939
0.0367607
0.0714829
0.0796641
0.0387363
0.0732284
0.0729015
0.0667544
0.0424659
0.0192964
0.0132378
0.0137126
0.0414548
0.0679892
0.0240561
0.0542986
0.0728854
0.0675477
0.0133731
0.0245832
0.0336285
0.0176453
0.0239513
0.0710931
0.0262726
0.0280039
0.0707181
0.0138996
0.0810714
0.07445
0.0294698
0.0168058
0.0298276
0.0578361
0.0721938
0.0127554
0.0125776
0.0150776
0.0884359
0.121965
0.136283
0.141068
0.140205
0.135448
0.128183
0.119424
0.109911
0.100211
0.0906932
0.0816151
0.0731425
0.0653615
0.0583011
0.0519514
0.0462771
0.0412285
0.0367488
0.0327838
0.087737
0.121016
0.135356
0.140229
0.139503
0.134893
0.127773
0.119149
0.109752
0.100137
0.0906857
0.0816563
0.0732159
0.065454
0.0584033
0.0520569
0.0463821
0.041331
0.0368482
0.0328796
0.0870066
0.120051
0.134396
0.139365
0.138775
0.134316
0.127347
0.118859
0.109583
0.10006
0.0906792
0.0817009
0.0732948
0.0655536
0.0585136
0.0521712
0.0464961
0.0414425
0.0369556
0.0329821
0.0862481
0.119062
0.133405