/*--------------------------------*- C++ -*----------------------------------*\
  =========                 |
  \\      /  F ield         | OpenFOAM: The Open Source CFD Toolbox
   \\    /   O peration     | Website:  https://openfoam.org
    \\  /    A nd           | Version:  10
     \\/     M anipulation  |
\*---------------------------------------------------------------------------*/
FoamFile
{
    format      ascii;
    class       volScalarField;
    location    "700";
    object      nut;
}
// * * * * * * * * * * * * * * * * * * * * * * * * * * * * * * * * * * * * * //

dimensions      [0 2 -1 0 0 0 0];

internalField   nonuniform List<scalar> 
23845
(
0.0136531
0.0139417
0.00777217
0.0141632
0.0182491
0.0227172
0.00805716
0.00998964
0.0204086
0.0143151
0.0221895
0.0234934
0.0196082
0.0214589
0.00616413
0.0161742
0.0215024
0.0234958
0.0183815
0.0229076
0.0121276
0.0229893
0.0130755
0.0201358
0.0167155
0.0185191
0.0099483
0.0225891
0.00350673
0.0226049
0.0148946
0.00128354
0.00499613
0.0229502
0.0235057
0.0234571
0.00111149
0.0234892
0.0232345
0.020657
0.0179494
0.0226409
0.019176
0.0232928
0.0183085
0.0205101
0.019422
0.0165766
0.00224567
0.00196717
0.005715
0.0100645
0.0012875
0.0219833
0.0012421
0.0204555
0.0145734
0.0110526
0.012443
0.0139572
0.00631857
0.0230378
0.0169322
0.00433709
0.0195937
0.0201351
0.00979746
0.0181587
0.0181658
0.0181959
0.0083323
0.00820569
0.0186001
0.00669672
0.0190142
0.00639609
0.0234568
0.0232575
0.0131815
0.021006
0.0111481
0.00746205
0.0142603
0.0113971
0.0065156
0.0235004
0.00860671
0.00118933
0.0196677
0.0198571
0.00469906
0.0176591
0.00378085
0.0233322
0.0106525
0.0055148
0.0209292
0.0163738
0.0191029
0.0194774
0.0204194
0.00939085
0.0169767
0.000840868
0.00297847
0.0120332
0.0225423
0.0187359
0.0110288
0.0229835
0.0222928
0.0234454
0.00649473
0.0154037
0.0234139
0.0133003
0.0190178
0.0153061
0.0036975
0.00718246
0.0233304
0.00255938
0.0182614
0.00848683
0.00911984
0.0186032
0.00695728
0.00196455
0.00680078
0.0179659
0.00481964
0.0196047
0.0222862
0.0221111
0.0203575
0.0154926
0.000737314
0.0234968
0.0110655
0.0231708
0.00230875
0.0228027
0.0233232
0.0234443
0.0172518
0.0232137
0.0142372
0.00706797
0.00574054
0.0189577
0.00551194
0.0192718
0.0103589
0.0205763
0.00635919
0.0202807
0.0181962
0.0234148
0.00442175
0.00518119
0.0179969
0.00625674
0.0101139
0.0198401
0.0182433
0.0202514
0.02262
0.0029806
0.0227044
0.0233162
0.022412
0.0135731
0.0199761
0.00956074
0.0195993
0.0122719
0.0173986
0.0200891
0.0187774
0.0233923
0.0198852
0.0202753
0.00699412
0.0228481
0.0166522
0.0194428
0.0227152
0.0108352
0.0029225
0.0224197
0.00384545
0.0214532
0.021246
0.0222462
0.0175417
0.0209378
0.00197916
0.00295729
0.000761146
0.0215184
0.0215878
0.0210803
0.00642506
0.0210539
0.0109369
0.0102633
0.00745256
0.0228768
0.011644
0.0232824
0.0220695
0.00285343
0.0168693
0.0224214
0.00333727
0.00122986
0.0221522
0.0229343
0.000557833
0.00550124
0.0187145
0.00654198
0.00185378
0.0189607
0.0234353
0.00567846
0.000754075
0.0214596
0.0227624
0.0178987
0.0232073
0.00292494
0.0234304
0.0181435
0.0187236
0.00507502
0.0193953
0.014869
0.0195036
0.0124465
0.00160757
0.0146961
0.0120113
0.0195003
0.00310764
0.0168161
0.0224055
0.0182849
0.0114037
0.0064413
0.0210675
0.0234544
0.00572691
0.0187568
0.00694398
0.00482339
0.00718161
0.00723817
0.023322
0.0203188
0.000849837
0.0234532
0.00755013
0.0219461
0.0216004
0.0200668
0.0129516
0.00710666
0.0157181
0.014556
0.0232982
0.0132885
0.00514722
0.0215322
0.0231753
0.0210597
0.00697728
0.0215869
0.0019383
0.0135305
0.0117734
0.0226873
0.00737736
0.0180799
0.0234962
0.00584529
0.0105664
0.0206982
0.0104389
0.0066752
0.0123854
0.0037593
0.00488448
0.00690642
0.0114401
0.0234844
0.00511821
0.0220746
0.0234947
0.00403073
0.00414837
0.0058715
0.00494761
0.0148884
0.021971
0.015158
0.00392147
0.00533652
0.0203183
0.00186629
0.00486908
0.0115608
0.0192744
0.0224394
0.010981
0.00220639
0.00522384
0.0220408
0.00453418
0.0187044
0.00276474
0.00293719
0.00466151
0.0224338
0.00654491
0.0229415
0.0140326
0.0174905
0.00729733
0.023687
0.00819547
0.019178
0.00545976
0.0234888
0.00662281
0.0144405
0.012751
0.0237214
0.0230306
0.0133846
0.0127853
0.00514285
0.0226754
0.018175
0.0182221
0.00144577
0.0234913
0.00617402
0.0136534
0.0055511
0.0135339
0.00476937
0.0018495
0.00668358
0.00129396
0.0213012
0.0235297
0.0191055
0.0068304
0.0117329
0.00749951
0.0193711
0.014451
0.0183626
0.00326445
0.0224593
0.00708102
0.0231883
0.00384089
0.018559
0.0231526
0.00411938
0.00307933
0.0234992
0.0233544
0.00534846
0.0103838
0.0138202
0.0230262
0.0121965
0.00689894
0.0234331
0.0129679
0.0182439
0.0181804
0.0233737
0.0230559
0.0129831
0.0226242
0.0116377
0.00921009
0.0233443
0.00360445
0.00285525
0.00438311
0.00428718
0.0224811
0.0184669
0.0181534
0.0234842
0.0120368
0.0159994
0.00914895
0.0118658
0.0135803
0.00680513
0.0229709
0.00338693
0.00311361
0.00793599
0.0059562
0.018147
0.00771856
0.00607687
0.0172493
0.0103415
0.0160908
0.023454
0.023103
0.0137485
0.00367452
0.0230379
0.0206597
0.0137236
0.00823535
0.0127084
0.00349554
0.0147937
0.00953289
0.00849373
0.0211715
0.0232472
0.00476684
0.0240118
0.0214596
0.0187496
0.0235111
0.0194789
0.00459105
0.0107948
0.00645758
0.00320275
0.00281959
0.00650024
0.0153249
0.00468964
0.0226252
0.0174653
0.0231552
0.0125685
0.0132995
0.0195741
0.00301081
0.0234752
0.0183199
0.00531041
0.0146942
0.0206774
0.0082935
0.0215977
0.0106076
0.014566
0.000750553
0.0160986
0.0231053
0.0231084
0.0224392
0.00318209
0.0182096
0.00534268
0.0225085
0.0227258
0.0159349
0.00758951
0.00434654
0.0194654
0.0193841
0.00334624
0.0221733
0.0190142
0.0186638
0.0173245
0.0153792
0.0232772
0.0231181
0.00744331
0.0233739
0.0234497
0.00863039
0.00691162
0.0187076
0.0045181
0.00588122
0.0180271
0.0104627
0.019302
0.0187969
0.00978097
0.0192926
0.0234335
0.00928757
0.00251836
0.00560471
0.019253
0.011979
0.0127013
0.0224759
0.0186908
0.0229893
0.00621176
0.0153855
0.0047243
0.00115479
0.0156864
0.0217225
0.018193
0.0168034
0.00497758
0.00556067
0.0226698
0.000807452
0.0214339
0.0234532
0.00426338
0.0181282
0.00791275
0.00679251
0.00491045
0.0121752
0.00406554
0.005279
0.00394123
0.0214044
0.0140341
0.0193133
0.0186725
0.0220484
0.00590117
0.0206065
0.0132813
0.00694988
0.0213294
0.0138124
0.0134599
0.0175981
0.0133976
0.0233812
0.0194466
0.0223927
0.0199367
0.0205436
0.0235005
0.00846691
0.0205481
0.010817
0.0112103
0.0232333
0.00510397
0.023491
0.0229556
0.0112772
0.0139568
0.0150325
0.0228709
0.0232298
0.00276148
0.00340307
0.018708
0.004291
0.0187475
0.0182595
0.00795821
0.019406
0.0226021
0.0156703
0.0203706
0.00801171
0.00492647
0.00798592
0.0203298
0.0182048
0.0234523
0.0175058
0.00744431
0.00456375
0.0236733
0.0185712
0.0187792
0.00807954
0.018931
0.01412
0.00566971
0.0129868
0.0232731
0.00678389
0.0236
0.0182217
0.0214803
0.02353
0.0234313
0.00940894
0.0219763
0.0215751
0.00683881
0.0116993
0.0182837
0.00752312
0.020911
0.00756294
0.0202244
0.0188371
0.017527
0.0139949
0.0207046
0.0041159
0.0146675
0.0225214
0.0183809
0.0225443
0.0216702
0.0212637
0.00640753
0.0202611
0.0210103
0.0166411
0.024
0.0180276
0.0237812
0.0182445
0.0160038
0.0195536
0.0202699
0.0175824
0.0227428
0.0234902
0.00621308
0.0158253
0.0154973
0.018211
0.023223
0.0167013
0.0228738
0.0230601
0.018722
0.0139575
0.020478
0.0123321
0.0187293
0.0185337
0.00639056
0.0234916
0.0234953
0.0227657
0.0126489
0.00537977
0.00435089
0.00441287
0.0169912
0.00797945
0.0222797
0.0222414
0.019061
0.0222551
0.0172438
0.0213285
0.0182298
0.0182604
0.0202351
0.0162626
0.0202494
0.0163563
0.0239942
0.0211129
0.0240427
0.0240619
0.0234763
0.0240821
0.0229734
0.0207862
0.0214619
0.0210024
0.0240685
0.0224473
0.0240075
0.0215196
0.0199842
0.020535
0.0240176
0.0218345
0.0187932
0.0238938
0.02214
0.024114
0.0241198
0.0240042
0.0239024
0.0237081
0.0241235
0.0233178
0.024122
0.0205365
0.0240791
0.020509
0.0240707
0.0229908
0.0222781
0.0240438
0.0238237
0.0239157
0.0185556
0.0215855
0.0162099
0.0196271
0.0216806
0.0215573
0.0238892
0.0226681
0.0222911
0.0238465
0.023902
0.0238603
0.0239685
0.0237863
0.0216932
0.0233926
0.0172017
0.0179633
0.02254
0.0197157
0.0237854
0.0237743
0.0235509
0.0231961
0.0217213
0.0232147
0.0230216
0.0220364
0.0237101
0.02097
0.0219245
0.0184699
0.023692
0.0216277
0.00880066
0.0188988
0.0237253
0.0230011
0.0236974
0.0222596
0.0228401
0.00761321
0.0223396
0.0182151
0.0201887
0.0215484
0.00772682
0.019845
0.0200897
0.0237813
0.0239511
0.0232391
0.0226655
0.0241485
0.0233328
0.0232379
0.02417
0.0188204
0.0240421
0.0153902
0.0239499
0.0236781
0.0238535
0.0239054
0.0225984
0.0134282
0.0202682
0.022609
0.0193414
0.0201773
0.0224517
0.0239114
0.0240513
0.00492741
0.0210238
0.0214579
0.023632
0.0196267
0.0235705
0.0236
0.0236396
0.0238242
0.0213511
0.0223011
0.0226768
0.0237173
0.0217091
0.0170514
0.0236762
0.0224188
0.0236169
0.0236306
0.021033
0.0228016
0.0214435
0.021507
0.0213987
0.0224621
0.0222745
0.021784
0.0223599
0.0165159
0.0185908
0.0236333
0.0200493
0.0236036
0.0239132
0.00439506
0.021657
0.0179482
0.0174228
0.0182092
0.0181773
0.0170005
0.0182418
0.0181108
0.0182655
0.0180562
0.0182069
0.0182504
0.0182301
0.0181905
0.018237
0.0180667
0.0179985
0.0182567
0.0181479
0.0165746
0.0235893
0.0236816
0.00891575
0.0235163
0.0182616
0.0198945
0.0230122
0.0186679
0.0240407
0.0214908
0.0241309
0.0223818
0.0178557
0.0179349
0.0176485
0.01686
0.024077
0.0224618
0.022713
0.0199009
0.0179061
0.0235123
0.00702667
0.023482
0.0174836
0.0223848
0.0225335
0.0236601
0.0205203
0.0172011
0.0177466
0.0153539
0.0160921
0.0176753
0.0149416
0.0182175
0.0180851
0.0182433
0.0181926
0.0181905
0.0182113
0.0193104
0.0237956
0.0236932
0.0181831
0.0225806
0.0189806
0.0173153
0.0238035
0.0176115
0.0151499
0.0177239
0.0181768
0.0171086
0.0182332
0.0158789
0.0180635
0.0182086
0.0146879
0.018088
0.0182285
0.0238809
0.0218647
0.0230824
0.0166782
0.0238296
0.022337
0.0240249
0.0214653
0.0239241
0.023672
0.02171
0.00361191
0.0235002
0.0240553
0.0238882
0.0239521
0.0212164
0.0238363
0.0232874
0.0173934
0.0238319
0.0235829
0.00543861
0.00258121
0.0238127
0.0237561
0.0216139
0.0166275
0.0221246
0.00600521
0.0234777
0.0182225
0.0186428
0.0180946
0.0225329
0.0236968
0.020301
0.0202982
0.0235196
0.0129882
0.0179576
0.0228744
0.0234231
0.0180566
0.0238453
0.0235542
0.0237116
0.0202568
0.0179067
0.0238564
0.0238575
0.0239069
0.0236285
0.0237263
0.0218881
0.0234566
0.0201739
0.0214496
0.0217658
0.0236038
0.0172497
0.0236102
0.0238398
0.021483
0.0237335
0.0234448
0.0237211
0.0190389
0.0236012
0.0236219
0.0230911
0.0198977
0.0222005
0.0223556
0.0132224
0.0236257
0.020577
0.0235862
0.0236501
0.0212756
0.0188205
0.023781
0.0213392
0.0155648
0.0207235
0.023583
0.0235279
0.0233259
0.0235658
0.0161151
0.0233187
0.0232264
0.0227692
0.0163343
0.0191875
0.0232616
0.0230586
0.0223441
0.0189462
0.0217357
0.0206253
0.0196837
0.0222796
0.0227013
0.0235656
0.0199376
0.0188844
0.020722
0.00174475
0.0210555
0.00482633
0.0201581
0.0222649
0.0019887
0.0235522
0.0181808
0.0233973
0.0181799
0.0230409
0.0236922
0.0225374
0.0217591
0.0227889
0.00585213
0.0236674
0.0235303
0.0190384
0.0194993
0.0185472
0.0160659
0.0234168
0.0235772
0.0223693
0.0236167
0.0220072
0.0185524
0.0221558
0.020028
0.0223323
0.0166103
0.0155692
0.0162171
0.015249
0.0148739
0.0236672
0.0237007
0.0219839
0.0193362
0.0193686
0.0238644
0.0192157
0.0239374
0.0224653
0.0240896
0.0237752
0.0241152
0.024117
0.0238976
0.0240227
0.02405
0.0239158
0.0237608
0.0226767
0.0236649
0.0140533
0.0230587
0.0235784
0.0145079
0.023499
0.0195161
0.0232568
0.0234843
0.0238384
0.0237123
0.0224735
0.0235433
0.0196188
0.0210503
0.0210772
0.0188
0.0234835
0.0143573
0.0224843
0.0186034
0.0241284
0.0225645
0.0199298
0.00445636
0.00853576
0.0212754
0.0191301
0.0187553
0.0235469
0.0229198
0.0235793
0.0237887
0.0200636
0.0239224
0.0240583
0.023971
0.0239072
0.00267507
0.0239816
0.0171414
0.0235647
0.0239171
0.0180515
0.0190574
0.0213203
0.00442458
0.0237398
0.0181841
0.0187847
0.0237292
0.0232286
0.0236922
0.0235145
0.0213642
0.0225151
0.0237161
0.023678
0.0129976
0.0235568
0.0235643
0.0233157
0.0143484
0.0204343
0.0225541
0.0222345
0.0186826
0.019173
0.0236545
0.0202592
0.0186797
0.00935456
0.0186902
0.0234837
0.0189006
0.0228462
0.0223379
0.0233258
0.0236504
0.0220817
0.023521
0.0234657
0.0232317
0.0230791
0.0225156
0.022955
0.0220602
0.0235587
0.023841
0.0222849
0.0126654
0.0107197
0.0227946
0.0222065
0.0219815
0.0199801
0.0213483
0.0181773
0.0222848
0.0236821
0.0143403
0.0232959
0.0229187
0.0235826
0.020703
0.022658
0.0185544
0.0215445
0.0229532
0.0189185
0.0221402
0.0199147
0.0225126
0.0225484
0.0204625
0.0211654
0.0204423
0.0202374
0.0224458
0.0234833
0.0222701
0.0240525
0.0182328
0.023926
0.0186358
0.0180272
0.0166483
0.0182393
0.0182289
0.0160712
0.0182252
0.0180353
0.0153946
0.0182796
0.0181238
0.0146582
0.0181574
0.0182151
0.0150674
0.0211764
0.0186287
0.0204867
0.0211587
0.0153075
0.0230518
0.0235286
0.0201013
0.0175322
0.0198288
0.0214044
0.0153424
0.022265
0.0233232
0.0160375
0.0236974
0.0225778
0.0238928
0.0185291
0.00242964
0.0224718
0.0235671
0.0234951
0.0234422
0.0235321
0.0236693
0.0237007
0.00571632
0.0239633
0.0236577
0.0231016
0.0203383
0.0235979
0.0235587
0.0127175
0.0206486
0.020244
0.0175939
0.0196008
0.0234452
0.0235178
0.0208167
0.00503729
0.0235558
0.015831
0.0222655
0.0228061
0.0102798
0.0137652
0.0216661
0.0216777
0.0205195
0.018552
0.0217035
0.0217173
0.0216769
0.0131635
0.0229469
0.0211821
0.0195874
0.0188844
0.0186476
0.0201443
0.0237426
0.0233266
0.00382408
0.0204409
0.0204046
0.0171895
0.023518
0.000928814
0.0210377
0.00464452
0.0235102
0.0177932
0.0214072
0.0217412
0.023154
0.0212952
0.0220027
0.0213642
0.0215823
0.0187792
0.0186859
0.0212695
0.0234654
0.0186625
0.0186231
0.0225231
0.0215775
0.022239
0.0212124
0.0188429
0.0220861
0.0239773
0.0200347
0.0211626
0.0151976
0.0227405
0.0183834
0.0217373
0.0241419
0.0233863
0.0204917
0.00659775
0.0175892
0.0174669
0.0222351
0.0193988
0.0222002
0.0211152
0.0174272
0.0212086
0.0127136
0.00599491
0.0187692
0.0218455
0.0226798
0.00526704
0.0213624
0.0210853
0.0208298
0.0185414
0.0152061
0.023294
0.0222236
0.0052702
0.0116312
0.0217493
0.0186018
0.0174373
0.0209119
0.00515296
0.0230604
0.013734
0.0228867
0.0157396
0.0193533
0.0181722
0.0116241
0.0234417
0.00594538
0.0145974
0.0208003
0.00810272
0.0207929
0.0157726
0.0141943
0.0125402
0.0222628
0.0197749
0.0121559
0.0232661
0.0169306
0.0221028
0.0236582
0.0225493
0.0204849
0.0168678
0.0234799
0.0199366
0.0210175
0.0198969
0.0226478
0.0234936
0.0206454
0.0233153
0.0219131
0.0156358
0.0098576
0.0184606
0.0234514
0.0221934
0.0228107
0.0216331
0.0224031
0.0229979
0.00722433
0.0192013
0.0168995
0.00101906
0.0214966
0.0216823
0.019926
0.020815
0.0171585
0.0152
0.0233022
0.0238724
0.0239663
0.0215055
0.0230156
0.0216419
0.0182563
0.0234894
0.0230288
0.0152085
0.00463239
0.0202153
0.019969
0.0207257
0.011326
0.0224585
0.0208418
0.0227397
0.0229425
0.0233729
0.0220904
0.021638
0.0205785
0.0227566
0.0233559
0.0228161
0.00835911
0.00743702
0.0235992
0.0219618
0.0203841
0.022411
0.0201175
0.023531
0.0221586
0.0200625
0.0224786
0.00238805
0.019976
0.00708586
0.0231534
0.0235088
0.0105715
0.0214575
0.021132
0.0223116
0.0202795
0.020123
0.0188531
0.0214061
0.0170732
0.0232687
0.0229144
0.0234494
0.0215361
0.0125868
0.022597
0.0200657
0.0235116
0.0171177
0.00818277
0.0224036
0.0202287
0.0139407
0.0235053
0.0232595
0.0223158
0.017871
0.0057063
0.00384526
0.0236848
0.0233366
0.020204
0.0215423
0.0160355
0.0193223
0.0234179
0.0215948
0.0171032
0.0203953
0.0136716
0.0224217
0.0209933
0.0202303
0.0133156
0.0194046
0.0212094
0.0207016
0.00716499
0.0211605
0.020691
0.0153681
0.0234343
0.0188982
0.0199954
0.0165273
0.00505561
0.0187462
0.0214821
0.0221228
0.00443151
0.0204779
0.0181034
0.0195803
0.0112085
0.0224486
0.0187336
0.0208026
0.0111223
0.0159697
0.0235115
0.0202967
0.0234814
0.0233094
0.0191545
0.00907691
0.0223793
0.0235123
0.0234235
0.0142579
0.0212454
0.0186587
0.0188009
0.0235099
0.0233609
0.00737388
0.020781
0.02184
0.0234808
0.0187186
0.0104567
0.00511459
0.00271954
0.0070731
0.0115758
0.0209625
0.0183015
0.023213
0.0215989
0.0232203
0.0180663
0.0234758
0.00697638
0.00396379
0.0232526
0.0234026
0.0154554
2.10189e-05
0.0155425
0.00833778
0.0217447
0.0133414
0.0234905
0.0194499
1.72275e-05
0.0233743
0.0144163
0.022934
0.023061
0.0157161
0.00325182
0.00801112
0.0138498
0.015241
0.0185831
0.00184498
0.0216045
0.0139108
0.0232589
0.01152
0.0194863
0.0194615
0.018868
0.02292
0.0200694
0.0227943
0.00273685
0.0150943
0.00653322
0.00762409
0.023263
0.0145105
0.0227992
0.0222028
0.0234684
0.0192423
0.00993994
0.0227506
0.0203567
0.0131226
0.00578712
0.023427
0.0220395
0.012295
0.0218621
0.0235813
0.0205079
0.0181761
0.0207169
0.0203371
0.0234823
0.00628309
0.0229851
0.0228066
0.0234703
0.0163978
0.0135631
0.0207135
0.0188034
0.0127965
0.0158947
0.016365
0.021795
0.00390952
0.0181781
1.69035e-05
0.0123478
0.0114807
0.022484
0.0234904
0.0109788
0.0118645
0.0207962
0.0228596
0.0145291
0.0173273
0.017736
0.0175424
1.82035e-05
0.023077
0.00721041
0.0228279
0.00490581
0.0234723
0.0228629
0.0234928
0.0228972
0.00406057
0.0228146
0.0139042
0.0027937
0.0234664
0.0177529
0.0140965
2.24008e-05
0.0200202
0.0225402
0.0203472
0.0194303
0.0117798
0.0182293
0.0133036
0.0141755
0.0141759
3.28846e-05
0.0200078
0.0225459
0.0180553
0.00647297
0.02324
0.0126441
0.0198344
0.0195754
0.0189584
0.0235272
0.00678882
0.0213492
0.0229333
0.0169841
0.018205
0.0104468
0.0132846
0.0053828
0.00792134
0.0158819
0.00219964
0.0149661
0.0208992
0.0181075
2.49567e-05
0.0186012
0.0129574
0.0233909
0.00415107
0.0050614
0.0237098
0.0234117
0.0181944
0.0224092
0.023333
0.0226779
0.0238441
0.0228196
0.0121799
0.0189
0.019618
0.0217895
0.0217038
0.0147382
1.58192e-05
0.00491619
0.0112234
0.00566571
0.0126281
0.00307458
0.0225766
0.0185586
0.00380387
0.0182224
0.00632911
0.0157366
0.0179206
2.91744e-05
0.0221636
0.0198363
0.0131928
0.0233749
0.00958552
0.0132182
0.0171235
0.00690534
0.0230702
0.012712
0.0180961
0.0233714
0.0126505
0.000817942
0.0189927
0.0187315
0.0185733
0.0223284
0.0230781
0.00516008
0.0233393
0.018899
0.012007
0.0234656
0.00927271
0.0168569
0.0226559
0.01783
0.00574842
2.7088e-05
0.00913168
0.0104557
0.0115593
0.0221903
0.0158168
0.0231974
0.0230331
0.0145445
0.0209801
0.00698378
0.0127296
0.0115693
0.0114757
0.0224115
0.0131556
0.0230859
0.0195729
0.0229758
0.0195403
0.0137705
0.0232804
0.020676
0.018473
0.0060717
0.0232942
0.00765602
3.85338e-05
0.0235478
0.00200127
3.51803e-05
0.0123991
0.0234909
0.00452581
0.0186415
0.0228129
0.023436
0.00531149
0.023162
0.0211192
0.0222189
0.0142643
0.0215836
0.0119497
0.0220761
0.0235027
0.0173695
0.0224473
0.016762
0.0208333
0.0184185
0.0191484
0.0201972
0.0235974
0.0196403
2.96329e-05
0.0168019
0.0206648
0.00342551
0.0168258
0.0122069
0.0225512
0.0224995
0.00735146
0.0115195
0.00841934
0.0117208
0.00893829
0.0103032
0.0204998
0.0118867
0.00952104
0.0192898
0.0123057
0.0206763
0.00642263
0.00439916
0.00519861
0.0165971
0.00829263
0.00111503
0.0201005
0.0235196
0.0234726
0.0085841
0.0130121
0.00374683
1.92908e-05
0.00935767
0.0190158
0.0227623
0.0128091
0.00456102
0.0134952
0.0177738
0.0139038
0.0230854
0.00864604
0.00322863
0.0117653
0.00886402
0.00675322
0.0132821
0.0214745
0.00727518
0.013057
0.00359998
0.0130943
0.00788597
0.0178667
0.0113974
0.00432492
0.0184161
0.00675557
0.0148707
0.0194501
0.00907699
0.0178407
1.96977e-05
0.00859069
0.0177792
0.0136585
4.94671e-05
0.0173722
0.0146386
0.00565239
0.0186268
0.0127752
0.0187397
0.0224711
0.0193625
0.0226234
0.0231895
0.0216108
0.0220983
0.0206283
0.0228775
0.0186452
0.0100686
0.0233344
0.0153389
0.00081093
0.00911348
0.0228945
0.0175941
0.0185436
0.00861924
0.0205271
0.00566753
0.00829455
0.0216249
0.0124307
0.0120121
0.00741436
0.021798
0.0195021
0.00985039
9.17965e-05
0.00648514
0.0228655
0.0234906
0.0221769
0.0212248
0.0134812
0.020924
0.0226305
0.0208737
0.0102693
0.0216973
0.0172155
0.0187682
0.0231038
0.0087589
0.0180576
0.0182241
0.0187742
0.00953477
0.0202788
0.0100649
0.0238979
0.017992
0.0236041
0.0167716
0.00773499
0.00690141
4.5516e-05
1.80189e-05
0.0186561
0.0170642
0.0101887
0.0229827
0.00605844
0.0198688
0.0181965
0.0195072
0.0193166
0.00850959
0.020525
0.0178507
0.000752596
0.00593829
0.00279758
0.0107161
0.0179152
0.00921863
0.00413686
0.0229559
0.0163083
5.76203e-05
0.0164732
0.023538
0.0120891
0.0213742
0.0144303
0.0124656
0.0141125
0.0218709
0.0184433
0.0109008
0.0227053
0.0164742
0.0227835
0.015122
0.0233156
0.0113538
0.0187409
0.00819893
0.0210385
0.0193477
0.0189894
0.0179629
0.0103905
0.0119906
0.0221298
0.0206578
0.0222748
0.0234986
0.0174764
0.0221699
0.00268035
0.00188892
0.00740908
0.0234055
0.0210418
3.89317e-05
3.9164e-05
0.00318087
0.00477473
0.00980669
0.0195334
0.0152409
0.00871076
0.0234402
0.009083
0.023164
0.017813
0.0227819
0.00915406
0.0234407
4.11914e-05
0.0233569
0.00511155
0.0110379
0.0211087
0.00754344
0.0185314
0.00417551
0.0153486
0.018213
0.019512
0.00723199
0.00456686
0.0189408
2.34772e-05
0.0133563
0.0197313
0.00574793
0.022632
0.00866226
0.0210915
0.0195902
0.022719
3.59732e-05
0.0220478
0.00847477
0.0214424
0.0222466
0.0233684
0.0232616
0.0229707
0.0213025
0.00947673
0.0144128
0.0174587
0.0151398
0.0179786
0.0229276
0.0233311
0.0227523
0.0082824
0.0176384
0.0232293
0.0181558
0.0222812
0.0238771
0.00528069
0.0203722
0.0187415
0.0210622
0.0112736
0.0186869
0.0203926
0.00845978
0.0116752
0.0232776
0.0231595
0.00259489
3.82114e-05
0.00418948
0.0219703
0.0187012
0.00423572
0.0213692
0.0194144
0.0231678
0.00999548
0.0159223
0.00586165
0.0228323
0.00943102
0.0154027
0.00606462
4.47008e-05
0.0192088
0.02076
0.0210053
0.000918002
0.0231703
0.0204387
0.0164096
0.0152201
0.019361
0.0215924
0.0186838
0.0203752
0.0228485
0.00938183
0.0192897
0.00802807
2.01978e-05
0.0116042
0.0206919
2.62003e-05
0.0134489
0.00603374
0.00625454
0.0196398
0.0195062
0.0190921
0.0161594
0.00993907
0.0193688
0.0101619
0.0225432
0.0196061
0.0208054
0.0233962
0.00909389
0.0217377
0.0230509
4.45649e-05
0.00535237
0.0192111
0.0103022
4.80955e-05
0.00767596
0.0131658
2.37597e-05
0.00525975
0.0231588
0.0170079
0.015049
0.0234781
0.0181299
0.023407
0.0187795
0.0195765
0.0182812
0.00675465
5.10218e-05
0.0194512
0.00934187
0.0229652
0.0225309
0.0234233
0.00891919
2.24497e-05
0.0178076
0.0234955
0.00932807
0.00816198
0.00297284
0.0118644
0.0183666
0.0129611
0.022741
0.0225405
0.0193378
0.0230413
0.0105047
0.0227413
0.013958
0.0106503
0.000863165
4.63383e-05
0.0227972
0.0197037
0.0159737
0.0107851
0.0109978
0.0171681
0.0159001
0.0063343
0.00529271
0.00777666
0.00557027
4.9859e-05
0.00644293
0.0200383
0.0225936
0.0192862
0.00471958
0.0218475
0.0181792
0.0209996
0.0115543
0.015537
0.0145994
0.00967135
0.00907804
0.021917
0.00987605
0.0156227
2.21709e-05
0.0229055
0.00494397
0.0103706
0.00312343
0.0182226
0.0105154
0.0151383
0.00182889
0.0235189
0.0149868
0.0181038
0.0229661
0.0226562
0.00064899
0.0201194
0.00135906
0.00630935
0.00341378
0.0232555
0.00548594
0.0234291
0.00993396
0.0175872
0.0112726
0.0231518
0.0234469
3.56659e-05
0.00673973
0.0227264
2.44409e-05
0.0130224
0.0215393
0.0225555
0.0223098
0.0100822
2.1121e-05
0.0203382
0.0219959
0.0192315
0.0149943
0.0208123
0.0225728
0.0170094
0.0176993
4.6936e-05
0.0186365
2.03396e-05
0.0209627
0.0019868
0.00456173
0.0144397
0.0149116
0.00215067
0.0232483
0.0186167
0.0191753
0.0214152
3.13244e-05
0.0197717
0.022899
0.0103862
0.00785471
0.0100091
0.0169188
0.00198178
0.019511
0.0217538
0.0232542
0.0103078
0.0105123
0.0194584
0.00774523
0.0214436
0.00771827
0.00830714
0.000688673
0.0207293
0.0085219
0.0222519
0.0235118
0.000739823
0.00418207
0.0210019
0.020171
0.0124778
0.0142591
0.0220476
0.0222935
0.0149228
0.0109306
0.0235448
0.0234835
0.00400443
0.0220268
0.0111917
0.0235539
0.00410117
3.08788e-05
0.0187135
4.21477e-05
0.00995011
0.0200065
0.0113891
0.00897375
0.0121817
0.00850723
0.0167489
0.0213631
0.0204789
0.0233985
0.0229831
0.0108225
0.01904
0.00580947
3.36745e-05
0.0230999
0.0199219
0.0210419
0.0214454
0.0217579
0.0220028
0.0234357
0.0193604
0.0193782
0.0218854
0.0188502
0.020735
0.0202892
0.0193359
0.021166
0.0216143
0.00238404
0.00861659
0.00874588
0.00924403
0.0188274
0.00296568
0.0203105
0.000705857
0.021709
0.0175621
0.00983015
0.0140781
0.0184844
0.0204226
0.0218009
0.00259512
0.0206234
0.0118857
0.0215719
0.0213122
0.0230202
0.0111192
0.00913721
0.0159154
0.0179499
0.0211241
0.022889
0.0196953
0.0127009
0.0158509
0.0182472
0.0211144
0.0215177
0.0198389
0.0113972
0.00114249
0.00384129
0.0147634
0.00420684
0.0112674
0.00759111
0.0135128
0.0142358
0.00935095
0.00207352
0.0220947
0.00609595
0.0106492
0.0060765
0.00186381
0.0156511
0.0201873
0.0112402
0.0194983
0.000782361
0.00798276
0.000937917
0.019449
0.01755
0.011211
0.00607673
0.0205525
0.00743187
0.0141307
0.0216047
0.0228708
0.0227656
0.0185205
0.0183196
0.0231472
0.0234529
0.00566558
0.0230245
0.00993262
0.00990693
0.00253276
0.0214746
0.0136523
0.0141726
0.00197862
0.0181074
0.0137186
0.0234734
0.00447082
0.0113624
0.00921135
0.0184258
0.0200971
0.0213915
0.00084715
0.0117013
0.0161815
0.0199233
0.0083602
0.010986
0.0217158
0.0190005
0.0177063
0.00693063
0.0186959
0.020401
0.00849014
0.013879
0.023313
0.00713979
0.0163936
0.00605595
0.0176606
0.00247074
0.0101276
0.0216623
0.0170259
0.00575666
0.0142308
0.0222832
0.000722676
0.00996194
0.00106996
0.0126644
0.0114225
0.0146182
0.0218781
0.00633047
0.018205
0.0228775
0.0204168
0.020649
0.0224045
0.00346456
0.00770603
0.00961198
0.0136333
0.0195207
0.0152219
0.0234954
0.0169767
1.8658e-05
0.0133407
0.0207832
0.022308
0.0109513
0.0185084
0.00724337
0.0187166
0.00620498
0.0231123
0.00817629
0.0207383
0.00850819
0.0171055
0.0208868
0.00914957
0.00270644
0.000984667
0.0185937
0.00322008
0.0130067
0.0109673
0.0168208
0.0163081
0.0137446
0.0161626
0.0220297
0.0179885
0.0103324
0.017287
0.0100329
0.00479537
0.021067
0.00948045
0.0191156
0.00886997
0.0233626
0.0226609
0.0228915
0.0201776
0.00582725
0.00632343
0.0177764
0.0142841
0.0210615
0.020623
0.0179961
0.0192502
0.0231403
0.0230674
0.023628
0.0198969
0.0186948
0.00821155
2.73504e-05
0.0203864
0.0182858
0.0137721
0.00548131
0.0164424
0.0197108
0.0231596
0.00537907
0.0202879
0.0234255
0.0235528
0.00383355
0.0226117
0.0193834
0.0203531
0.0151633
0.000223634
0.0109486
0.0212267
1.71479e-05
0.0036373
0.0230151
0.0109527
0.00590354
0.0227134
0.00990155
0.0187553
0.0230415
0.0188227
0.00374413
0.0196751
0.0137494
0.0102599
0.0230787
0.0209178
0.00466661
0.0185307
0.00282796
0.0217863
0.0144507
0.0155726
0.023535
0.01241
0.00734898
0.022365
0.0187346
0.0123928
0.0199807
0.00771866
0.00344222
0.00579166
0.0179769
0.0189151
0.0228838
0.00859168
0.0192652
0.0189429
0.0197614
0.0155876
0.0227616
0.0239231
0.0187131
0.0225933
0.0120907
0.00991384
0.0166369
0.0210944
0.00569458
0.0205049
0.0182638
0.0178672
0.00122937
0.0233584
0.0201635
0.00404858
0.0192004
0.0229706
0.0223036
0.0100343
0.0229509
0.0135175
0.00709834
0.0209678
0.00777332
0.0174542
0.0234878
0.00608002
0.00893871
0.00386435
0.0185945
0.0139704
0.0178707
1.96583e-05
0.00571132
0.0232956
0.014782
0.0229402
0.00978657
0.0231709
0.0231297
0.0213368
0.0193224
0.0197748
0.0232546
0.00347556
0.0195778
0.0212212
0.0233344
0.0204198
0.000970555
0.0130673
5.36759e-05
0.0189549
0.0234905
0.00538707
0.0231487
0.0227401
0.0195412
0.0234631
0.0233599
0.0163945
0.0190461
0.020016
0.0134396
0.00939603
0.00482679
1.12213e-05
0.0118374
0.0225745
2.83827e-05
0.00230804
0.0150147
0.00112424
0.00189613
0.00416081
0.0119132
0.0196884
0.00353866
0.0181995
0.00966342
0.0194882
0.0180037
0.0214555
0.0194383
0.00801156
0.0155755
0.00132616
0.0225603
0.023598
0.0219735
0.0163039
0.0182161
0.0201616
0.0173018
0.0110318
0.0176749
0.0049408
0.0230667
0.0226768
0.00977152
0.0193261
0.0184487
0.0167101
0.0186894
0.0157497
0.000778321
0.0215
0.0217959
0.0134273
0.0177457
0.010811
0.0111457
0.0134178
0.0186799
0.0200363
0.014205
0.00809645
0.0214592
0.0196797
0.00705845
0.0200127
0.0211556
0.0146886
0.0212638
0.00411504
0.02055
0.0100222
0.0205365
0.023165
0.0186103
0.0206173
0.0221952
0.0125887
0.0184356
0.0183839
0.0190606
0.0132348
0.00876432
0.0193816
0.0156296
0.00889815
0.0117798
0.0203408
0.0101154
0.00711684
0.00379051
0.0233688
0.00559483
0.0187027
0.00953269
0.0196999
0.0127345
0.00286445
0.0059466
0.0232766
0.023378
0.0111631
0.000101022
6.06357e-05
0.0192403
0.00378242
0.0189352
0.0221473
0.0068936
0.0129574
0.0196279
0.0114258
0.0174778
0.0227723
0.00568498
0.00257283
0.0121498
0.0194777
0.0223862
0.0172162
0.0191029
0.0217985
0.0187693
0.00791489
0.00830135
0.0100551
0.01969
0.0188763
0.00820877
0.0100265
0.0113049
0.0160311
0.00808382
0.00885112
0.0233284
0.0232919
0.0182725
0.0199489
0.0202954
0.00104135
0.0115063
0.0233377
0.0234842
0.0234148
0.01896
0.0168929
0.0008811
0.00898672
0.0186899
0.0184929
0.0187899
0.000682304
0.0125331
0.0103738
0.0232066
0.0122409
0.0228925
0.0185403
0.0122038
0.0220982
0.00294069
0.0168816
0.0201231
0.00854509
0.0211477
0.0055413
0.00752754
0.017122
0.00885084
0.0227722
0.016389
0.00417739
0.0145146
0.0191692
0.00810121
0.0074271
0.0229858
0.0205051
0.00726003
0.000782327
0.0197649
0.0118533
0.00886251
0.0157615
0.00106294
0.00768685
0.00104774
0.0074482
0.00596518
0.00613549
0.00926068
0.0118908
0.00872638
0.011028
0.0183811
0.0203506
0.020429
0.011909
0.0202077
0.00892522
0.00118574
0.02182
0.0208022
0.018251
0.0183609
0.0205714
0.00928077
0.0136244
0.0129296
0.014505
0.0101918
0.00961788
0.0201498
0.0197159
0.00958525
0.0185067
0.0224496
0.0230459
0.019433
0.000893901
0.0232444
0.00298514
0.0233592
0.0223992
0.00217273
0.0189018
0.0134315
0.00878393
0.0103851
0.00690235
0.0217607
0.0233126
0.0188834
0.0181826
0.0157812
0.00702158
0.00621258
0.0193892
0.00364187
0.00885514
0.0067853
0.0232199
0.0222351
0.020749
0.0183703
0.0103603
0.0160932
0.00958677
0.0183947
0.00731412
0.012657
0.0181175
0.0116264
0.00980161
0.0184131
0.0113466
0.0115819
0.0130856
0.0171738
0.00125867
0.0181846
0.0183912
0.0173065
0.0119687
0.0226251
0.00654077
0.0131523
0.00568353
0.0183479
0.0231128
0.00930218
0.0189925
0.0229309
0.0133441
0.0048303
0.0207192
0.0133255
0.0183795
0.00873803
0.0124774
0.023156