/*--------------------------------*- C++ -*----------------------------------*\
  =========                 |
  \\      /  F ield         | OpenFOAM: The Open Source CFD Toolbox
   \\    /   O peration     | Website:  https://openfoam.org
    \\  /    A nd           | Version:  10
     \\/     M anipulation  |
\*---------------------------------------------------------------------------*/
FoamFile
{
    format      ascii;
    class       volScalarField;
    location    "700";
    object      p;
}
// * * * * * * * * * * * * * * * * * * * * * * * * * * * * * * * * * * * * * //

dimensions      [0 2 -2 0 0 0 0];

internalField   nonuniform List<scalar> 
23845
(
-0.126149
-0.168604
-0.25516
-0.252111
-0.145857
0.000105564
-0.239603
-0.257743
-0.000875439
-0.0849466
-0.0158989
0.000258139
-9.38079e-05
-0.000273305
-0.247081
-0.0412232
0.000316112
-0.000189576
-0.00173016
0.000212479
-0.145336
-0.0146435
-0.191334
-0.00026883
-0.0477262
-0.000219897
-0.215902
0.00282467
-0.265538
9.63026e-05
-0.247739
-0.244342
-0.25774
-0.000499354
0.000383709
0.000544408
-0.254659
0.000128978
0.0010489
0.000285228
-0.00551012
0.000637345
-0.000434601
-0.000631452
0.000170315
0.000415022
-0.163649
-0.0317499
-0.237181
-0.2683
-0.245242
-0.247345
-0.237234
0.000942987
-0.246945
-0.000155407
-0.193691
-0.254875
-0.148589
-0.231127
-0.263843
0.00173763
-0.0269726
-0.266116
-8.26533e-05
-0.0019242
-0.228105
-0.000783386
-0.00175448
-0.00397281
-0.260275
-0.259731
-0.000885037
-0.246586
-0.00119338
-0.248176
0.00028539
-0.000319392
-0.254406
-0.00127377
-0.198211
-0.239774
-0.179808
-0.258516
-0.251278
0.000475281
-0.234084
-0.234681
-0.000541637
-0.00179339
-0.249752
-0.0123558
-0.267711
0.00168515
-0.251873
-0.254171
-0.00230365
-0.036797
-0.00027351
-0.146654
-0.000455562
-0.242544
-0.108678
-0.275952
-0.270361
-0.257477
-0.000220491
-0.000958872
-0.229647
0.000781636
-0.0125752
-0.000295804
-0.255642
-0.0611214
0.000351921
-0.126625
-0.000538959
-0.0652915
-0.264391
-0.26382
0.000324742
-0.248449
-0.00445156
-0.262187
-0.233997
0.00112243
-0.262948
-0.269571
-0.258005
-0.185549
-0.2598
-0.0579355
-0.0373637
-0.000329663
0.000622229
-0.116302
-0.273814
0.000272969
-0.224571
0.000110272
-0.264342
0.000119373
0.000583987
-0.000242891
-0.0166899
0.000394193
-0.0978574
-0.246453
-0.263349
-0.00515111
-0.242625
0.000266516
-0.223507
-0.00127691
-0.255342
-0.00850827
-0.117546
0.000407028
-0.260579
-0.259021
-0.00812202
-0.250747
-0.250609
-0.000167171
-0.00238208
-0.00356627
-0.000496839
-0.251433
-0.00119802
9.09113e-05
-0.000846357
-0.253331
0.000228542
-0.261921
-0.000474706
-0.253409
-0.0175208
-0.0168935
0.000751888
0.000621129
-0.140419
-0.143388
-0.244362
-0.0096903
-0.02477
-0.000943287
0.00142953
-0.257964
-0.266681
8.25193e-05
-0.268174
-0.00165842
-0.000199894
7.46351e-05
-0.0144365
-0.000483525
-0.273355
-0.268359
-0.283398
-0.0154562
-0.00224408
-0.00111069
-0.263467
-0.0500389
-0.258129
-0.251716
-0.256987
0.000140755
-0.171509
0.000135625
-0.0027162
-0.256072
-0.0275703
-0.00212815
-0.240671
-0.251396
-0.0454091
0.00075459
-0.266041
-0.259176
-4.85919e-05
-0.248429
-0.27358
-0.00959893
0.000922877
-0.248623
-0.269038
0.00133964
-0.000178136
-0.00636297
0.000853871
-0.238089
0.000596555
-0.000141874
-0.131504
-0.263676
-0.000218203
-0.248867
0.00221048
-0.256951
-0.236427
-0.0786241
-0.256406
-0.122616
-0.249281
-0.0322677
7.63092e-05
0.00217437
-0.252194
-0.242087
0.000859937
0.000689598
-0.246309
-0.000693306
-0.237734
-0.252094
-0.263376
-0.252153
6.30526e-05
-0.000336594
-0.233019
-5.32301e-05
-0.262229
-0.0102186
-0.00730071
0.00146626
-0.252642
-0.263591
-0.233837
-0.250997
0.000417878
-0.25528
-0.242673
0.000935069
-0.010962
-0.000315232
-0.251647
0.00215676
-0.279369
-0.192404
-0.258142
0.000520677
-0.247517
-0.0105472
0.000514522
-0.264428
-0.259497
-7.67129e-05
-0.253037
-0.252091
-0.25311
-0.240922
-0.265694
-0.25234
-0.253033
0.000385754
-0.264565
-0.000282511
0.000317933
-0.261555
-0.263483
-0.245329
-0.264358
-0.249912
-0.000216404
-0.248739
-0.268072
-0.243687
-0.00145316
-0.272336
-0.241917
-0.219585
-0.000790911
0.00362477
-0.254752
-0.265764
-0.264408
-0.0343446
-0.253255
-0.000470588
-0.271225
-0.253888
-0.263134
0.000677112
-0.251081
0.000366253
-0.253012
-0.195166
-0.264249
0.000775418
-0.249029
-0.0122581
-0.247935
2.85271e-05
-0.26086
-0.249695
-0.251261
-0.000605619
0.000326326
-0.253209
-0.254577
-0.263229
-0.0149986
0.000501186
0.000344416
-0.283403
0.000314414
-0.252695
-0.253592
-0.246906
-0.247905
-0.264175
-0.269869
-0.249924
-0.237202
0.00237299
0.000177913
-0.00145291
-0.251392
-0.254464
-0.260356
0.00269903
-0.0915928
-0.00869379
-0.265763
6.0696e-05
-0.261317
-0.001011
-0.263134
0.000329736
0.000624574
-0.251521
-0.272683
0.000146223
-0.000467959
-0.250309
-0.253129
-0.250358
0.000518981
-0.257693
-0.248517
0.000647605
-0.178741
-0.000599615
-0.000153448
0.000638622
0.000788728
-0.25263
-0.00183286
-0.252962
-0.230994
0.00118687
-0.268574
-0.271899
-0.241346
-0.259216
-0.00649381
0.00013084
-0.00454759
0.000243752
-0.253543
-0.237605
-0.251154
-0.255963
-0.22263
-0.246839
-8.96054e-05
-0.269861
-0.268968
-0.263518
-0.251506
0.0010561
-0.235068
-0.263777
-0.119338
-0.254194
-0.23117
-0.00819762
0.000761693
-0.120307
-0.265103
9.62561e-05
0.000412852
-0.253708
-0.262756
-0.156364
-0.273687
-0.245576
-0.26139
-0.261118
-0.000413979
-0.000372735
-0.263237
-3.29443e-05
-0.000104435
6.31856e-05
0.00086932
-0.000743174
-0.265477
-0.261272
-0.249813
-0.269476
-0.270738
-0.263502
-0.242086
-0.264944
0.0006402
-0.219176
0.00131371
-0.255754
-0.255334
0.00115372
-0.276776
0.000771045
-0.000748549
-0.261775
-0.220178
-0.0559231
-0.251442
-0.00247672
-0.192862
-0.253125
-0.271743
-0.208313
0.00145796
-6.43476e-05
0.000343169
-0.239198
-0.000379305
-0.256158
0.0014092
-0.000343855
-0.240732
-0.263341
-0.266885
-0.121411
-0.00120539
-0.24713
-0.000682403
-0.00467578
-0.19412
-0.221887
-0.246373
-0.0155863
-0.00171324
-0.244721
-2.82408e-05
0.000397106
-0.249385
-0.262643
-0.000384947
-0.263419
-0.252628
-0.210578
-0.259743
-0.175279
-0.00106618
-0.255789
5.72704e-06
0.000480606
-0.233377
-0.261592
-0.262281
-0.185265
-0.257534
-0.256095
-0.00853382
-0.00126585
-0.000179877
-0.26249
-0.246542
-0.263398
-0.255584
-0.243949
0.00138734
2.40148e-05
-0.230004
-0.256019
-0.255277
0.00598481
-0.248022
-0.000241747
-3.08867e-05
-0.265852
-0.00131408
-0.248514
-0.253859
-0.265646
-0.176165
-0.260458
-0.262111
-0.270456
-0.0915715
-0.189545
-0.000421756
-0.00127722
-0.00107722
-0.264563
-0.146531
-0.254878
-0.259812
0.00308321
-0.177804
-0.178527
-0.0117334
-0.17651
-0.0175106
0.00297923
-0.000417288
0.000466274
-0.00191447
0.000402974
-0.26169
-0.00157284
-0.256069
-0.205553
0.000817286
-0.262087
-3.80763e-05
0.00204764
-0.251972
-0.253608
-0.20466
-0.000749129
0.00220818
-0.272779
-0.269783
-0.00124307
-0.265682
-0.000681249
-0.000806902
-0.244436
-0.00136399
0.000952019
-0.0499085
-0.122962
-0.263751
-0.25033
-0.252099
-0.145746
-0.000519796
0.000337527
-0.0122246
-0.250129
-0.264862
0.00132148
0.000359973
0.00039813
-0.2504
-0.00172915
-0.199781
-0.251249
-0.151627
-0.00748478
-0.256479
-0.00140676
-0.00099025
0.00319023
5.26169e-05
0.000355293
-0.253343
-0.000509543
-0.119355
-0.248005
-0.258227
-0.0452722
-0.249894
-0.13288
-0.241752
-0.00757587
-0.192211
-0.121687
-0.201176
-0.120929
-0.264588
-0.120408
-0.0649278
-0.101049
3.25674e-05
-0.000956866
-0.12366
-0.260438
-0.156831
-0.0031519
-0.148035
-0.00136327
-0.00448418
0.000177817
-0.00196571
-0.0533694
-3.54972e-05
0.000190661
-0.2113
-0.00040865
0.000396057
-0.255476
-0.111683
-0.0585269
-0.000956702
-0.00791245
-0.182788
-0.00280541
0.00136237
-0.00120521
-0.113992
-0.036046
-0.143207
-0.000648159
-0.0407259
-0.255993
0.000214499
0.000592168
-0.0711119
-0.256939
-0.265139
-0.267909
-0.262998
-0.0423455
-0.263117
-0.0144642
-0.00419533
-0.00167535
-0.000992993
-0.144667
-0.00107261
-0.00183605
-0.00177463
-0.113308
-0.237533
-0.0275265
-0.0433091
-0.00306594
-0.0111219
-0.00718306
-0.00376649
-0.0431061
-0.00159076
-0.0599741
-0.0125849
-0.000811709
-0.0183968
0.000503295
0.00235553
-0.000114285
-0.000244673
-0.0421335
-0.00023891
0.000941654
-0.0358647
-0.0365852
0.00123964
-0.000170952
-0.00495608
-0.00884718
-0.0137127
-0.0212082
-0.0366417
-0.00200715
-0.0529008
-0.00152113
-0.0180943
-7.61278e-05
-0.00945855
-5.85078e-06
3.26136e-05
-0.000577091
-0.000604731
0.000495633
4.11744e-05
-0.00181029
-0.000577371
-0.235235
0.00173608
-3.24353e-05
-0.000372787
0.00022573
0.000285836
-0.00696962
0.000963458
-0.00891336
-0.014885
-0.000982411
0.00134677
-0.000948439
0.00024368
-0.0257291
-0.0110723
-0.0790928
0.00163836
-0.00699005
0.000173781
0.000149018
0.000563559
-0.000398674
-0.0303291
0.00137285
-0.105128
0.00095514
-0.000332089
-0.00112567
-0.000767652
0.000592829
-0.000183776
-0.261894
0.000740189
-0.00175224
-0.0655047
0.00027689
0.000349686
0.000611743
-0.236091
-0.00411852
-0.000293484
-0.0394473
0.000804883
-0.262024
-0.0206267
-0.0140756
-0.02725
-0.0174911
-0.0504916
-0.00487203
-0.00216859
-0.00514176
-0.0136154
-0.000339338
-0.00783901
0.000713248
-0.159584
-0.00102031
5.31629e-05
-0.0371251
-0.0224506
-0.0292164
-0.253101
-0.00845833
-0.00350333
-0.102018
-0.0129219
0.00100508
0.000110039
-0.000553011
-0.246159
0.00244869
-0.00699844
0.00128871
-0.000685218
0.000721242
0.00194894
0.000380669
0.000439275
-0.000929869
-0.000329791
0.000372781
0.000901115
0.000493392
-0.182276
0.00082368
0.000855825
0.00136727
0.00216232
-0.00010219
-0.058213
-0.00286204
-0.014073
-0.0017212
0.00268802
0.00119592
-0.000150685
0.00358033
-0.126
-0.0269501
-0.024656
0.000358285
-8.93051e-05
-0.00361465
-0.266153
-0.00845501
-0.00579732
-0.0152293
-0.00114715
-0.00176136
-0.0254698
-0.00235632
-0.00255409
-0.000895349
-0.00424458
-0.00179286
-0.000952658
-0.00147379
-0.00173053
-0.000783553
-0.00208315
-0.00510162
-0.00154552
-0.00219696
-0.0400879
0.000662618
-0.0021252
-0.257001
-0.0423655
3.62207e-05
5.47373e-05
7.63431e-05
-0.0234289
-0.0123179
-0.015364
-0.00749825
-0.000156814
-0.00916689
-0.00565902
-0.00871646
-0.0303031
-0.000481604
0.00150519
-0.00103082
-0.00165987
-0.00682236
0.000349999
-0.247497
0.000560301
-0.0263376
0.00267324
-0.0623518
0.00027785
-0.00168635
-0.0212226
-0.00831277
-0.0862415
-0.057344
-0.0104126
-0.104366
-0.00218596
-0.00377587
-0.00046285
-0.000656348
-0.00103761
-0.000710985
-0.0012112
0.000301147
-0.0013544
-0.0240293
0.000343722
-0.0234248
-0.0301228
-0.0173327
-0.0116442
-0.0952109
-0.00943478
-0.00104815
-0.0238485
-0.000736502
-0.0638214
-0.00414153
-0.00104621
-0.113724
-0.00431824
-0.00109272
-0.0078966
0.000547646
0.000175838
-0.232465
-0.00125703
0.000209094
-0.00213722
0.000199418
0.00063052
-2.21739e-05
-0.00807479
-0.269764
0.000557396
-0.000431161
-0.00388796
-0.00649612
-0.108183
-0.0127274
0.000981976
-0.0136512
-0.000390976
0.00261714
-0.258106
-0.273646
0.00048686
-0.000744999
0.00282813
-0.222481
-0.000330832
-0.251515
0.00126831
-0.000733381
-0.00361796
-0.00262834
0.000218391
0.00012468
0.000538621
-0.0981877
-7.49575e-05
-0.138061
-0.010662
-0.0397531
-0.000855471
-0.0100806
-0.00150432
-0.00615781
-0.00185479
-0.00112053
-0.0193445
-5.61302e-05
-0.0110466
-0.0163207
-0.0245158
0.00273623
-0.00991249
-0.0133339
-0.000226191
-0.0297797
-0.0168302
-0.00731034
-0.0379889
-0.000145513
0.000768616
0.00026387
0.000734286
0.00111762
-0.000268306
-0.00956467
-0.000307595
0.000450429
-0.00611223
-0.0054756
-0.00589805
-0.000721962
-0.211224
0.000817974
-0.000539025
0.000809014
0.000320824
-0.00153492
-0.00266032
-0.0117085
-0.0951583
-0.132495
-0.000275353
-0.00231204
-0.0196609
-0.0387258
0.00122531
-0.0443213
-0.00153783
-0.00356006
-0.00952701
-0.0395217
-0.00168617
-0.0120127
-0.0258193
-0.0128797
-0.0305788
-0.0223284
-0.0280735
0.000896049
0.000937897
0.00149992
0.000491331
-0.00749127
-0.0129503
-0.000436377
-0.28255
0.000188518
-0.257112
-0.000329968
0.000148911
-0.270633
0.000535732
-0.00136539
0.000176106
-0.000884095
-0.00254879
0.000214014
0.000921791
0.000562469
-0.043292
-0.264821
0.00025232
-0.00150197
-0.00513437
-0.177928
-0.203059
-0.125401
-0.016046
0.000118442
-0.00219985
0.00185605
0.000113929
-0.000482771
0.00260075
-0.132776
-0.091544
-0.0371033
-0.0835187
-0.0553177
-0.102091
-0.122838
-0.0372555
0.000795133
-0.0702651
-0.020485
-0.0283113
-0.0263712
-0.00951127
-0.0155264
8.55542e-05
-0.0113677
0.00137175
-0.00699392
-0.00143668
-0.000462474
0.000769882
-0.000315278
0.000681682
-0.00020248
-0.000564283
-0.00285498
-0.164556
-0.0591879
0.000274751
-0.0890185
0.000202718
-0.00263477
0.00306898
0.000350434
0.000446353
0.00227818
-0.000727738
0.00112135
-0.003677
-0.00115352
-0.11647
-0.00216611
0.000759115
-0.0804755
-0.00123604
-0.000801562
-0.00378625
-0.0474829
-0.00164246
-0.260055
-0.255161
-0.00015291
-0.00867625
-0.011578
-0.0209524
-0.000239896
0.000998821
-0.0123523
-0.00520106
-0.00865638
-0.00530096
-0.00237666
0.000511889
-0.276798
0.000207079
-0.0336232
0.000418701
0.000381332
-0.0520061
-0.000893087
-0.000551076
-0.264497
0.00076585
-0.000443386
-0.000755658
0.000851525
0.0017148
0.000299712
0.000702259
0.000748375
-0.069062
0.00136945
0.00117012
-0.191153
0.00012305
0.00124022
0.00120322
-0.215266
-0.000370561
-0.000215126
-0.083015
-0.00032628
-0.00147353
0.000623149
-0.000990408
-0.000800809
-0.26202
-0.00168304
0.00124308
-0.00909702
-0.0201664
-0.0901633
-0.0138561
-0.00556022
-0.00100899
0.000682476
0.000427603
-0.00229671
0.000874234
-0.0579568
0.000594059
0.000572786
-0.000851657
-0.000756062
0.000209178
-0.247159
-0.260541
0.000791175
-0.00101135
-0.000159235
-0.16878
-4.30496e-05
-0.00133673
-0.0161326
6.13696e-05
-0.251923
0.000198793
0.00215544
0.000169385
-0.00188892
-0.000863165
-0.00332782
-0.01156
-0.000358914
-0.0262874
-0.00258098
0.000422943
-0.00364806
0.00171651
-0.002217
-0.0108735
-0.00504875
-0.0113078
0.000252233
0.000884397
-0.000653412
-0.00262886
-0.00290609
0.00112317
-0.00462469
-0.00365671
-0.0390683
-0.00105406
-0.00133596
-0.0616906
-0.000507885
-0.00309784
-0.0931174
-0.000547726
-0.00258588
-0.133647
-0.00192132
-0.0011684
-0.110515
-0.055373
-0.174717
-0.0010284
0.00338167
-0.0628328
-0.000252781
0.000403154
-0.110043
-0.0289274
-0.0499195
0.0001213
-0.0757903
-3.42863e-05
-0.0028323
-0.0475128
-0.0158209
-0.000775177
-0.0137526
-0.0728157
-0.280568
-0.000550588
-0.000290674
-0.000113049
0.000761013
0.00119362
0.00120735
0.00105526
-0.248314
4.87633e-06
-0.00205262
-0.050588
-0.000617636
-0.0247717
-0.000471324
-0.157389
-0.000904462
-0.00175458
-0.179255
-0.00137071
0.00217667
-9.37332e-05
-0.00246118
-0.263736
0.000564159
-0.102036
-0.00331359
-0.0248471
-0.260742
-0.25364
-0.0544924
0.00081889
-4.97201e-05
-0.185004
0.00122893
0.00260883
-0.000391777
-0.126641
0.000803687
0.000208293
-0.00103149
-0.108321
-0.00203795
0.000457646
-0.00141493
-0.00206273
-0.268135
-0.00398412
-0.0049202
-0.0947278
0.000220193
-0.26272
-0.000348787
-0.257771
0.000876726
-0.110569
-0.0014503
0.000914136
0.000217149
-0.000615411
-0.00414061
-0.0049194
-0.00984111
-0.0245889
-0.00025017
0.000347264
0.00069855
-0.0238202
-0.0215851
-0.000125118
5.12894e-05
8.57594e-05
-0.00124263
-0.00520629
-0.00530569
0.00221296
-0.00821978
-0.00663396
-0.0876432
-0.00158832
-0.170661
-0.00145003
-0.00392237
0.0010045
0.00156247
-0.255578
-0.0643478
-0.033058
-0.00011182
-0.0466297
-0.00053559
0.000414803
-0.0688425
2.13434e-05
-0.226597
-0.263296
-0.0959261
-0.00490945
-2.78673e-05
-0.264842
-0.00320229
-0.00814288
-0.00214634
-0.0563663
-0.19781
-0.00196089
0.000344295
-0.251772
-0.25123
-0.000377998
-0.0832267
-0.0997271
5.47529e-05
-0.261585
0.000298934
-0.113743
-0.000138365
-0.0697856
-0.000443784
-0.055705
-0.203751
0.000911849
-0.256233
-0.10253
0.000561668
-0.263619
0.000582874
-0.0513043
-0.0952368
-0.255804
-0.000510767
-0.0292965
-0.177481
0.00175447
-0.0875885
0.000178817
0.00146753
0.00278129
-0.00549239
-0.0747042
-0.000692186
5.71922e-06
-0.136865
-0.00393899
0.000459263
0.00117244
-0.000366237
0.000763677
0.0012264
-0.0756034
-0.216833
-0.0788274
0.000548961
-0.00493812
0.000283547
-0.000863321
-0.00416806
-0.000470686
-0.259524
-0.00131387
-0.0846783
-0.259194
-0.000716673
0.000209633
-0.0101529
-0.028678
-0.0925116
-0.179503
-0.00984233
0.000732037
-0.00429259
-0.00130054
0.000679449
0.000230277
-0.000305458
6.3756e-05
0.000111357
-0.090561
-0.262144
-0.000394598
-0.000719589
0.00154525
-0.213561
0.000102015
-0.00533303
-0.00205831
0.000772315
0.00120134
-0.00352154
-0.023921
-0.0246734
-0.00201463
-2.33082e-05
-0.00522551
-0.243654
-0.255167
-0.000851104
0.00694893
-0.0233039
-0.000697402
-0.000298161
-0.000309143
-0.000305155
-0.00497535
-0.00335339
-0.262714
-0.000666382
-0.246267
6.70183e-05
0.00106531
-0.192663
-0.00438307
-0.0857769
-0.00306075
-0.00978695
-0.0151115
-0.0066898
-0.0030779
-0.0695812
0.00212963
0.000378878
0.000762415
-0.00219546
-0.253857
-0.00465917
-0.00147985
-0.00456966
-0.0548853
-0.254339
-0.0106432
0.00124757
-0.214821
0.000514213
-0.0003032
-0.0282789
-0.202366
-0.261246
-0.264468
-0.0025124
-5.33788e-05
-0.0218559
-0.000589399
-0.214197
-0.0627262
0.00119528
-0.0083991
-0.143076
-0.000459903
-0.215654
-0.00885778
-0.0384991
-0.00354224
-0.130036
-0.0790005
0.000554209
0.000596418
-0.261966
0.00236742
-0.000718112
-0.0929568
0.00145037
-0.00858215
-0.0919473
-0.0432691
-0.257252
1.20602e-05
6.94847e-05
0.00188626
-0.26073
0.00050956
-0.0023424
-0.00251303
-0.259317
0.000396544
-0.00174844
-0.00155887
-0.260829
-0.0466621
0.000155279
-0.00535251
0.000221626
0.000830362
0.00205665
-0.236334
-0.0183465
-0.000118858
0.00084104
-0.154642
-0.0403596
-0.00149322
-0.0144913
0.00013698
0.000886193
-0.259133
0.00184539
-0.0281411
0.000433532
-0.0162995
-0.257664
-0.261374
-0.258083
-0.234465
-0.208274
-1.11924e-05
-0.0869013
0.000984145
-0.000467883
0.000670159
-0.20512
0.000679862
-0.245756
-0.266661
0.000483192
3.37964e-05
-0.244274
-0.264446
-0.0769869
-0.235069
-0.0996047
-0.204922
0.000114527
-0.0955961
-0.269214
0.00136054
-0.246058
0.000745497
0.00046367
-0.173228
-0.266492
-0.261474
-0.187809
-0.154009
-0.00108166
-0.271062
-4.44252e-05
-0.106916
0.000498996
-0.216514
-0.0707182
-0.0022776
-0.163391
0.000326126
-0.000949292
-0.000293933
-0.269501
-0.246372
-0.257342
-0.259633
-8.51642e-05
-0.149444
0.000918438
0.00299752
-0.000262424
-0.0427326
-0.261121
0.000975518
-0.00252212
-0.185224
-0.244632
-0.00940815
0.000298919
-0.253682
0.000715455
0.000363872
-0.000396115
-0.000727779
0.000372216
8.70761e-05
0.00134356
-0.245065
0.00035815
0.00151567
-0.00011195
-0.0348092
-0.254344
-0.0940353
0.000167435
-0.256389
-0.0658358
-0.0494958
4.2936e-05
-0.265657
-0.00585224
-0.270568
-0.25784
-0.258725
0.00239643
0.000378212
-0.191912
-0.16022
-0.000700148
-4.45937e-05
-0.149309
-0.171286
-0.213646
-0.0127807
-0.267342
0.00292993
-0.255109
-0.00252163
-0.25607
0.000747166
0.0007775
-0.0035678
0.00115337
-0.262183
-0.0014185
-0.253287
-0.257223
-0.00690685
-0.0164329
-0.103178
-0.267543
-0.157229
0.00043083
-0.0694701
-0.0655901
-0.191194
-0.000893497
-0.253487
-0.134489
-0.252742
-0.259475
3.77741e-05
0.000376495
-0.0479734
-0.252641
-0.00619037
-0.17225
0.00189387
0.00125669
0.000535776
-0.00143877
-0.263965
-0.000137807
0.000483326
-0.213684
-0.0310632
-0.205948
-0.178544
-0.26546
-0.253809
-0.171987
-0.24147
-0.248669
-0.0756352
-0.010812
-0.265806
-0.000879578
-0.251373
0.000947192
-0.262863
-0.265493
0.000680079
-0.000996709
-0.00156488
0.00155077
-0.000245946
-0.00026473
-0.00354747
-0.000244219
-0.163564
-0.134491
-6.00507e-05
-0.0717843
-0.046282
-0.246679
-0.264893
-0.253939
-0.256582
-0.257949
-0.19247
-0.268551
-0.0213331
-5.82211e-05
-0.265536
-0.000610645
-0.245377
-0.0756456
-0.00571881
-0.261829
-0.0558016
-0.000716296
-0.254931
-8.39726e-06
-0.22268
-0.118551
-0.0254954
-0.24342
0.00232066
-0.148582
-0.00299485
0.000343131
-0.208265
-0.280185
-0.0020356
-0.00359189
-0.00326782
-0.00733274
0.000730499
-0.250748
-0.00381863
-0.00211881
-0.190124
0.000268385
-0.260751
-0.0240044
0.00206246
-0.0393709
-0.256899
-0.26394
-0.260156
-0.261425
-0.235865
0.000352465
-0.241327
0.000101818
0.000298512
-0.251512
0.000449553
-0.257097
-0.204512
-0.216667
-0.258626
-0.00688107
-0.242832
0.000916044
0.000672166
-0.000332549
-0.0048314
-0.254047
0.000603776
0.000256202
-0.0045293
-0.248972
0.000192552
-0.241752
-0.256933
-0.00176972
-0.266188
-0.259205
-0.203375
0.000583951
-0.257858
-0.00194876
-2.32008e-05
0.00151931
-0.260661
0.000790136
0.00179835
0.000586925
-0.10032
-0.00076927
-0.253091
0.000370483
-0.00107179
-0.0161863
8.64031e-05
-0.213709
-0.00113164
-0.00126682
-0.159199
0.000705214
-0.00035013
-0.000187152
-0.261556
-0.0275437
0.000916202
-0.26959
-0.196734
-0.20096
0.00038314
-0.000675795
-0.250088
-0.197903
-0.242146
-0.178337
-0.247158
-0.243585
0.00312507
-0.251806
-0.224464
-0.00110343
-0.257905
0.000231539
-0.263533
-0.262945
-0.261232
-0.034897
-0.225382
-0.280984
-0.000748027
0.000393029
0.000538146
-0.24871
-0.252363
-0.245788
-0.271936
-0.221178
-0.00730991
0.00105229
-0.215985
-0.262775
-0.253172
-0.00898531
-0.143932
-0.000106615
-0.255284
-0.267863
-0.258709
-0.261262
-0.261131
-0.254387
-0.000320172
-0.246199
-0.255465
-0.275177
-0.23381
-0.258316
-0.0146102
-0.254058
-0.262518
-0.00146613
-0.245346
-0.238607
0.00191955
-0.252717
-0.00851241
-0.276016
-0.248792
-0.193328
-0.203359
-0.252214
-0.0154455
-0.200605
-0.254029
1.35547e-05
-0.222131
-0.00100932
-0.000712785
-0.0741962
0.00227964
-0.00107401
-0.0656388
0.000552762
0.000145856
0.000262804
-0.00112459
-0.210612
0.00139074
-0.0916479
-0.274405
-0.260436
0.000145494
-0.0171106
-0.0013424
-0.248445
-0.000347559
-0.255382
-0.23345
-0.0226275
-0.243341
-0.258241
-0.2481
-0.0636256
-0.00254701
-0.232531
-0.233821
-0.260938
-0.000110665
0.000388187
6.93513e-05
-0.0144561
-0.211525
-0.00102921
-7.94213e-05
-0.000802085
-0.261818
0.000384599
-0.0226085
-0.00735627
-0.00298589
-0.262211
-0.00752977
-0.00254424
-0.000312412
-0.218015
-0.000892644
-0.250483
-1.48473e-05
-0.0116399
0.000642551
-0.0331031
-0.261921
-0.263907
-0.254526
-0.273186
-0.0189625
-0.0227712
-0.243852
-9.58664e-05
-0.26253
-0.0057685
-0.00120783
-0.000777082
-0.146355
-0.239398
0.000529848
-0.159482
-0.275279
-0.255303
-0.258923
-0.225735
-0.00282941
-0.261518
-0.264773
0.00017709
-0.0515349
-0.234694
-0.158502
0.000108285
-0.255009
1.30437e-05
-0.225885
-0.15778
-0.246394
0.000360191
-0.00430514
-0.245113
-0.00160543
-0.0440386
0.00296401
-0.219685
0.000591858
-0.254968
-0.000850611
-0.244823
0.00241499
0.00148802
4.93328e-05
-0.00938463
-0.233445
-0.250351
-0.00228517
-0.000427375
-0.000776412
-0.000158428
-0.0237089
-0.00145377
-0.241194
-0.267547
-0.243902
0.000417535
-0.00110755
-0.256763
-0.249473
-0.241185
-0.265874
-0.235509
-0.000274691
-0.2295
-0.234599
-0.000217107
-0.239486
-0.0337005
-0.0597976
0.000629466
-0.225675
-0.000452142
-0.254219
0.000538256
-0.261301
-0.251943
-0.00145528
-0.243611
0.000209526
-0.262703
-0.214517
-0.00455874
-0.000920069
-0.245013
-0.261155
-0.00288094
-0.275894
-0.197004
-0.00154569
-0.264283
4.28781e-05
-0.263088
0.000820586
-0.00241609
-0.00471314
-0.233069
-0.000469006
-0.256332
-0.0301786
0.000703865
-0.000760385
0.000890652
0.000487349
-0.00110149
-0.262431
-0.142298
-0.0138219
-0.128143
-0.0130794
1.6947e-05
-5.25488e-05
0.00236904
-0.23315
-0.130271
0.00058582
-0.00877517
-0.0210604
-4.39491e-05
-0.258937
-0.0657984
0.000301873
-0.00356076
-0.254788
-0.000287708
-0.000341249
-0.258631
-0.227888
-0.00102718
0.000904111
-0.259914
-0.240884
-0.265397
-2.51094e-07
-0.00214067
-0.262866
-0.00143686
-0.00019534
-0.00124087
-0.204113
-0.189042
-0.254473
0.000275802
-0.236308
-0.244435
-0.253008
-0.243432
0.000489088
-0.0778927
0.00290232
-0.262261
0.000623897
-0.00146412
-0.031205
-0.0654817
-0.00429759
-0.0200419
0.000297471
-0.000212428
-0.0021425
-0.256006
-0.00459767
-0.241311
-0.273199
-0.177638
-0.000721293
-0.232241
-0.137774
-0.260702
-0.25482
-0.00841605
-0.0785677
0.00246125
-0.068359
-0.219208
0.00122356
-0.259595
0.000106433
-0.00260886
0.00385997
0.000335855
-0.254361
-0.00116255
0.000530948
-0.251509
-0.252775
-0.00189591
-0.253172
-0.246036
-0.247643
-0.250077
-0.277456
-0.260944
0.000644228
-0.221606
-0.0722537
0.000635623
-0.006968
0.00117235
0.000683879
-0.000669421
-0.194708
-0.261955
-0.236644
0.00115468
-0.26218
0.00144758
0.00206466
0.000563257
-0.234452
-0.277859
-0.00809743
0.000344347
-0.258894
-0.260669
-0.272577
-0.24132
-0.145941
-0.205464
-0.00167653
0.00192716
0.00205999
-0.00137035
-0.254104
-0.00078896
-0.107694
-0.200936
-0.277764
-0.238616
0.000110938
0.000487817
-0.231183
-0.254617
-0.25847
-0.0251486
-0.0683368
-0.264278
-0.256767
-0.23993
-0.263383
-0.235045
-0.264083
5.87839e-05
-0.00464264
-0.00437746
-0.262271
0.000189524
-0.00176161
-0.00055919
-0.190179
-0.0588954
-0.246077
-0.259396
-0.251814
-0.00049751
-0.208772
-0.22782
-0.274518
-0.00131569
-0.257508
-0.210113
-0.270575
-0.000804511
-0.212071
-0.244992
-0.27531
0.000661217
-0.0708622
-0.00566784
5.60565e-05
0.000978608
-0.2671
-0.0198911
-0.253671
-0.248414
-0.270734
0.00039857
-0.255415
0.000291301
-0.256054
-0.0113664
-0.181883
-0.000308015
0.00025507
-0.236084
-0.262929
0.00212747
-0.232965
-0.134512
-0.017812
-0.00197169
0.00168712
-0.254646
-0.279387
-0.00048109
0.000639414
-0.00120117
-0.145605
0.000211088
-3.98137e-05
-0.028618
-0.00959376
-0.248733
-0.00223436
-0.269098
0.000185724
-0.27187
-0.25574
-0.123734
-0.236534
-0.264825
0.000267414
-0.000544972
0.00131859
0.000524904
-0.280004
0.00037155
0.00154618
-0.233427
-0.263289
-0.25265
-0.163364
-0.274923
-0.00279071
0.00136664
0.000952999
-0.261316
-0.260984
-0.000288349
-0.255481
-0.000365774
-0.246713
-0.244861
-0.26987
0.000158529
-0.235756
-0.00160759
0.000302661
-0.270429
-0.263899
-0.00168302
-0.000169387
-0.258344
-0.249484
0.00132651
-0.00159958
-0.241106
-0.260037
0.0005858
0.000596703
-0.263231
0.000218204
-0.22028
0.000476677
-0.261226
-0.243522
-0.000220079
-0.233869
-0.256783
-0.0723151
-0.239691
-0.239161
-0.182259
-0.234414
-0.033859
-0.00185174
-0.00410239
6.04567e-05
0.000116977
-0.255609
-0.00420469
-0.259757
-0.240869
-2.08326e-05
0.000985645
0.000199996
0.000654748
0.000961521
-0.00173276
-0.00281436
-0.00192343
0.000964318
-0.00347006
0.00171511
-0.00294778
0.00303527
-0.00130172
-0.0376346
-0.0761971
-0.250213
-0.263263
-0.257064
-0.257098
-0.0024446
-0.267872
0.000114026
-0.271129
-0.00207971
-0.0207282
-0.226696
-0.252173
-0.00186925
0.000773519
0.00157239
-0.278186
-0.0725423
-0.255874
0.000399132
-0.000418027
0.00221331
-0.189191
-0.256156
-0.0479996
-0.00316566
0.00029348
-0.00193979
-0.00253103
-0.128532
-0.0501235
-0.00310092
0.000530129
0.000583498
-0.00172067
-0.178217
-0.252137
-0.266584
-0.0711922
-0.266344
-0.17875
-0.262485
-0.0940183
-0.246845
-0.2499
-0.267077
-0.00160118
-0.257319
-0.206563
-0.257937
-0.26882
-0.240605
-0.00217628
-0.259019
-0.00219252
-0.267664
-0.241173
-0.261117
-0.00256913
-0.0151919
-0.231847
-0.256198
0.000228647
-0.264191
-0.252544
0.000666542
0.00209244
0.000986594
-0.000731793
-0.00409017
0.000198818
0.000689923
-0.251726
1.84261e-06
-0.22359
-0.234952
-0.260951
0.00026225
-0.247222
-0.242104
-0.276792
-0.00956515
-0.252751
0.000349698
-0.257323
-0.183505
-0.242043
-0.000715669
-0.00199257
-0.00229374
-0.266031
-0.256548
-0.038964
0.00111062
-0.262407
-0.175833
0.000240652
-0.00151108
-0.009824
-0.255015
-0.00116329
-0.00105221
-0.257083
-0.253491
0.00103862
-0.253838
-0.1962
-0.254945
-0.0181764
-0.274702
-0.256266
-0.00149965
-0.0478144
-0.261028
-0.251558
-0.00312303
-0.272452
-0.235712
-0.256975
-0.25785
-0.257464
-0.23053
-0.000120369
-0.260165
-0.00079368
-0.000561108
0.00157841
-0.057258
-0.000411654
-0.271384
-0.240696
-0.261892
-0.154765
-0.000463788
-0.241209
0.000400762
-0.0231426
-0.274531
-0.243931
0.000196153
-2.25188e-05
-0.234513
-0.00138721
-0.251518
0.000399037
-0.257675
0.000794072
-0.259828
-0.00243565
-0.254902
-0.0198268
-0.0462064
-0.248253
-0.274646
-0.245594
9.79601e-06
-0.272158
-0.134685
-0.256358
-0.227249
-0.0361701
-0.0951694
-0.0607136
0.000517006
-0.183317
-0.213863
-0.0179476
-0.227767
-0.251703
-0.00247677
-0.254223
-0.0024601
-0.227817
0.000568498
0.000408
0.000104123
-0.0485171
-0.260997
-0.26172
-0.0161293
-0.101503
-0.00085858
-0.000615346
-0.00296188
-0.00114683
0.000226349
2.89505e-05
0.000551406
-0.00133662
0.00108562
-0.23947
-0.238184
-0.00314857
-0.00472635
-0.235017
-0.261096
-0.0540797
0.00166065
-0.00176948
-0.263721
-0.0393066
0.000811511
0.000324146
-0.265703
-0.0305897
-0.00154737
-0.0018287
-0.0663729
-0.264554
-0.243343
-0.0529187
-0.27187
-0.26459
0.000328488
-0.229842
-0.259694
0.000254241
-0.250655
-0.00755434
0.000469755
-0.00126392
-0.266996
-0.00231092
-0.24216
-0.208376
-0.000351537
-0.0317117
-0.271884
-0.000974902
-0.255305
3.68053e-06
-0.225326
-0.239432
0.000219291
-0.256185
-0.245056
-9.6821e-05
-0.00100444
-0.253766
-0.000129228
-0.244034
-0.268308
-0.261003
-0.0101479
-0.00578255
-0.00242631
-0.258517
-0.000291407
0.00269646
-0.00175277
-0.056347
0.00024021
-0.00027639
-0.00633005
0.000192663
-0.235551
-0.259858
-0.0290237
-8.90527e-05
-0.24024
0.00141382
-0.00160213
-0.00704735
-0.235816
0.000623308
-0.00050721
-0.256511
0.00177657
0.000993503
-0.00104203
-0.216883
9.86587e-05
-0.137026
-0.261323
0.000680096
-0.261246
-0.0267972
6.05083e-06
-0.258891
-0.248403
-0.267523
0.000412113
-0.0990819
-0.00375748
-0.270574
-0.249915
-0.000980319
-0.0796478
-0.000540058
-0.261205
0.000554283
6.65174e-05
-0.00137067
0.0012823
-0.00212052
-0.000568191
-0.244935
-0.00550772
0.000351924
-0.000566836
-0.00080454
-0.260139
-0.241254
-0.282441
-0.0112544
-0.000138635
-0.255005
0.00268975
-0.000161204
-0.000825989
0.000195728
0.000854158
-0.0449328
-0.000725354
-0.000772106
-0.110609
-0.260593
-0.264667
-0.282527
-0.230083
-0.00147819
-0.246455
-0.263302
-0.0693682
-0.243104
-0.276723
-0.244306
-0.158423
-0.00372766
-0.253486
-0.00142593
-0.250405
-0.00048802
-0.158884
0.00123643
-0.00163143
-0.25024
-0.222746
-0.23902
-0.000341922
-0.0336548
-0.0373441
-0.0441842
-0.000549536
-0.000111897
-0.0198388