/*--------------------------------*- C++ -*----------------------------------*\
  =========                 |
  \\      /  F ield         | OpenFOAM: The Open Source CFD Toolbox
   \\    /   O peration     | Website:  https://openfoam.org
    \\  /    A nd           | Version:  10
     \\/     M anipulation  |
\*---------------------------------------------------------------------------*/
FoamFile
{
    format      ascii;
    class       surfaceScalarField;
    location    "700";
    object      phi;
}
// * * * * * * * * * * * * * * * * * * * * * * * * * * * * * * * * * * * * * //

dimensions      [0 3 -1 0 0 0 0];

internalField   nonuniform List<scalar> 
38623
(
0.218831
-0.215982
0.0798908
-0.0827397
-0.0604821
0.0775967
0.125145
-0.142259
-0.00690346
0.0134247
0.0340797
-0.0406011
0.0042711
-0.00234903
-0.0225299
0.0206078
0.0157483
0.0283875
-0.0343869
-0.00974889
-0.126094
-0.254283
0.238209
0.142168
0.0853997
-0.0714272
0.0822923
-0.0962648
-0.00867621
0.00858928
-0.00646236
0.00654929
0.0195254
0.0204738
-0.242519
-0.0362658
0.0798781
-0.321495
0.277883
0.112193
0.126861
-0.113933
-0.125121
-0.22047
0.195033
-0.00546804
0.0309049
0.460762
-0.0458133
-0.467588
0.0526386
-0.228655
0.207793
-0.0101847
0.0310461
0.0378764
0.047101
-0.0526992
-0.0322782
0.0440537
-0.293593
-0.0477614
0.297301
-0.0146294
0.387356
-0.000588767
-0.372138
-0.00877089
0.267909
-0.00937307
-0.249765
0.00603066
-0.027032
0.410828
-0.389827
0.403268
-0.282592
0.239633
-0.360309
0.18407
0.138574
-0.0440587
-0.278585
0.110957
0.0823599
-0.081124
0.317629
-0.271963
-0.00102129
-0.0446439
-0.219925
0.290083
-0.264382
0.194225
0.0431108
0.253067
-0.0439394
-0.252238
-0.0363443
0.574353
-0.547771
0.00976251
0.0300314
-0.179012
-0.0554331
0.204414
0.223254
-0.179182
-0.491475
0.447403
-0.00923421
-0.00078081
0.00142499
0.00859003
-0.273145
0.293053
0.38336
-0.0150142
-0.0206004
0.0196636
0.015951
0.00571297
-0.00155595
0.000782768
-0.00493977
0.0291925
-0.0324977
-0.0336865
0.0369917
0.295623
-0.0246655
-0.279729
-0.0104144
-0.0110035
-0.237616
0.259034
-0.342043
-0.173977
0.146619
0.369401
-0.000610202
0.000144011
-0.00727054
0.00773673
0.00528136
-0.236166
-0.147745
0.166784
0.00340031
-0.0224388
-0.056956
0.0721893
0.317448
-0.332682
0.0661291
0.412001
-0.428726
-0.0494042
0.272876
0.185548
-0.255592
-0.202833
0.330275
-0.184995
0.33178
-0.47706
-0.418403
0.205072
0.339047
-0.125715
0.597041
0.239775
-0.511696
-0.32512
-0.0296859
0.0734148
-0.429497
0.385768
-0.0125541
0.0260111
-0.0019888
-0.0114683
-0.261488
0.193851
0.155405
-0.0877672
-0.000938051
0.00191516
0.00100866
-0.00198577
0.00756247
-0.000509443
-0.00771666
0.000663624
-0.00501802
-0.00135047
0.00145801
0.00491048
-0.0111875
0.0295749
-0.0239513
0.00556382
-0.00189905
0.000714082
-0.00172043
0.0029054
-0.380645
-0.109302
0.294138
0.195809
-0.00102113
0.000443978
0.00629013
-0.0205008
-0.396582
0.402453
0.0406265
-0.0237478
-0.0561251
0.0392463
-0.00443563
-0.00813368
0.00858462
0.00398469
-0.141991
0.186775
0.139286
0.00294866
-0.00768086
0.00575138
-0.00101918
-0.00921186
0.00366716
-0.00324313
0.0087878
-0.343501
-0.110615
0.0357128
-0.337753
0.326458
0.0839456
-0.0726508
-0.00575973
-0.00743466
0.0087505
0.00444388
-0.24542
-0.321147
0.346641
-0.500484
0.35199
-0.230123
0.378617
-0.168911
0.144492
-0.0254315
0.0498504
-0.535908
0.421436
0.174067
-0.0595947
0.12058
0.536659
-0.0601979
-0.389741
-0.0648257
0.0643116
0.390255
0.00894159
-0.00308734
-0.00903529
0.00318104
0.0150284
-0.00779972
-0.0141322
-0.0508196
-0.0180754
-0.514252
0.583147
0.061254
-0.0617502
0.0383725
0.39947
-0.37845
-0.26644
0.0413646
-0.0617062
0.0595984
-0.0392568
0.022019
-0.181842
0.175882
-0.0160585
0.113941
0.189825
-0.194558
-0.109208
-0.0118348
0.00541608
-0.00529032
0.0117091
0.0378709
-0.0299946
0.343077
-0.350954
-0.110578
0.225392
-0.207808
0.0929947
0.0447141
-0.0564894
-0.0892343
0.10101
0.0726374
-0.092493
-0.0106424
0.00849272
-0.000392754
0.00254244
-0.0185113
0.0434408
-0.0255772
0.00064774
-0.236434
0.247231
-0.0218005
-0.0586056
0.0934008
-0.100257
0.0654618
-0.00143333
0.000375876
0.000311124
0.00074633
-0.288045
-0.101516
0.135394
0.254167
0.362637
-0.36533
0.0405641
-0.00693055
-0.000331114
0.00661894
0.000642716
-0.423596
0.0717421
0.402411
-0.0505572
0.00393677
-0.00744038
-0.00225612
-0.334159
-0.188076
0.202014
0.320221
-0.00693216
-0.00326882
0.00529902
0.00490196
-0.00746058
0.000114656
-5.97082e-05
0.00740563
0.495098
-0.112736
-0.392781
0.0104193
0.075742
-0.103776
-0.233454
-0.278205
-0.0289474
0.0666649
0.240488
0.00755943
0.000284938
0.00790403
0.348352
0.06396
-0.095746
-0.316566
-0.0389232
-0.103306
-0.0266817
-0.0589515
0.0226033
-0.127071
0.163419
-0.00674654
6.55162e-06
0.00673685
3.11177e-06
0.00131477
0.00747426
-0.00828679
-0.000502258
7.88793e-05
0.00195602
-0.0126773
0.27108
-0.107194
-0.28998
0.224004
0.41524
-0.144993
0.149826
-0.0437567
0.356076
-0.317608
-0.12823
0.0897625
-0.115032
0.156742
0.0918189
-0.133529
-0.274815
0.07972
0.200377
0.0575954
-0.04116
-0.0349466
-0.00536929
0.288818
-0.000748075
-0.2827
-0.140338
-0.331922
0.130217
-0.307689
-0.054304
0.0591646
0.302829
-0.18309
0.369053
-0.550528
0.364566
0.0541699
-0.283339
-0.05615
0.285319
-0.000161968
0.000331693
-0.00940392
0.00539941
-0.00770513
-0.00428555
0.00659122
-0.120097
0.0234186
0.210619
-0.000184476
0.00583015
0.000233159
-0.00587884
-0.0417391
-0.38231
0.0400014
0.384047
-0.00528292
0.00364379
0.00713293
-0.00549379
-0.0928659
0.0857005
-0.0961405
-0.0779248
-0.670103
0.550317
0.197711
-0.00897057
0.00248017
-0.00272147
0.00796766
-0.000121976
-0.000283206
-0.000984282
-0.0103656
-0.00490131
0.0162512
0.0162152
-0.0112049
-0.0144974
0.00948701
0.00816053
0.00933862
-0.00685025
-0.0106489
0.029027
0.165576
-0.150705
-0.0438978
0.135918
-0.000974289
-0.0187512
-0.116192
-0.211214
0.200838
0.0564113
-0.0460356
0.421641
0.0877104
-0.19707
-0.312281
-0.0994278
0.218122
-0.177646
9.21847e-05
0.00639469
-0.00646839
-1.84849e-05
0.0423432
0.174709
0.0519697
-0.120539
-0.170038
0.238607
-0.109109
0.151189
0.00868119
-0.00871945
-0.000123697
0.167553
-0.18367
-0.257847
0.273964
-0.141617
-0.240688
0.219268
0.163037
0.0824938
0.303743
-0.114262
-0.271974
0.363036
0.0135188
-0.0382542
-0.338301
0.476611
-0.195509
0.0749737
0.288515
-0.0546346
-0.283603
0.0497227
-0.0688587
0.0394628
-0.0193855
0.0487813
-0.0034298
0.00258702
0.00681515
-0.00597238
0.0236053
-0.372083
0.389138
-0.0406611
0.0474543
-0.00307973
-0.0398574
-0.00451717
0.268892
-0.118922
-0.461386
0.311416
0.0712321
-0.0903818
-0.0576741
0.0768238
-0.0498841
0.431561
0.146252
-0.527929
0.0352004
-0.0334621
0.0222028
-0.0239412
-0.0641881
0.0490067
0.294134
-0.278952
0.0155419
0.082975
-0.0759135
-0.275197
0.157284
0.235205
-0.117292
-0.0101091
0.0111211
-0.00642821
0.0054162
0.00231469
0.0103533
-0.00850226
-0.00416575
0.0552167
0.380334
-0.382189
-0.053361
0.0816683
0.029358
-0.0450655
-0.0659608
0.00255338
-0.0094799
-0.00136801
0.00829451
-0.161493
0.163531
0.460386
-0.000180076
-0.409863
-0.0503432
-0.000119244
0.367825
-0.3441
-0.188775
0.187938
-0.0669004
0.0677373
-0.00629704
-0.001698
0.00712248
0.000872563
-0.229589
0.403977
0.206418
-0.380806
0.282244
0.129496
-0.244187
-0.177058
0.0315734
0.183601
-0.0381171
0.0193642
0.00480519
-0.0198983
-0.232716
-0.31231
0.223879
0.00226777
-0.00700373
-0.000546957
0.284419
-0.5446
0.336372
-0.0761907
-0.0135621
0.000245157
0.0105116
0.00280533
0.334688
0.0521303
-0.335164
-0.0516538
0.0522225
0.246303
-0.0546984
-0.243827
-0.262935
-0.0294313
0.274256
0.0181099
-0.202426
0.17083
-0.128341
0.159937
0.00846837
0.0079347
-0.012233
-0.00417004
0.0201524
-0.00358754
-0.00809643
0.0763788
0.0355811
-0.0705953
-0.0981994
-0.134316
0.0784119
0.154104
-0.0423557
0.0910875
-0.39941
0.350679
0.42042
-0.408253
-0.0326675
-0.195229
0.0826933
-0.00463726
0.00509579
0.0080342
-0.00745368
-0.000799345
0.00565757
0.00259546
0.287686
-0.19848
-0.00272643
0.0045757
0.00690445
-0.00875371
-0.390476
0.0721253
0.0410238
0.277327
-0.300252
0.35979
-0.116494
-0.294187
0.142628
-0.180987
0.332546
-0.0518899
-0.324216
0.0596215
0.316485
0.151892
-0.202351
-0.293411
0.34387
0.000384792
-1.92725e-06
-0.00749599
0.0071131
-0.000548883
0.00714307
-0.00932062
0.00210816
-0.00625727
-0.000534549
0.00468366
0.164206
-0.133242
-0.145997
0.321909
-0.0251122
-0.296916
-0.261159
-0.324263
0.278118
0.307305
-0.00437368
0.00684018
-0.00589632
0.0132369
-0.126608
-0.0334418
0.146813
0.00957438
-0.00711212
-0.0111385
0.0027981
-0.00965198
0.00940726
-0.030855
0.0163877
0.0235867
-0.00911949
-0.0646066
-0.19675
0.0802643
0.181092
0.19595
-0.00400851
-0.0603567
-0.131585
-0.0958598
0.235638
0.066546
-0.206324
0.30944
-0.0384683
-0.300966
-0.00811645
-0.000739946
0.0082462
0.35537
-0.344579
-0.0531463
-0.443851
0.247182
-0.0329206
-0.00320895
-0.00119378
0.00250368
-0.00454233
0.00114434
0.00934977
-0.00595178
0.115476
-0.0104504
-0.0917884
0.0397986
-0.300806
-0.000188656
0.00731025
-0.00123365
-0.00588797
-0.0123218
-0.00971681
0.00786243
0.0141762
0.0803753
-0.0523841
-0.511545
0.483554
-0.0398637
0.0394116
-0.00699875
0.000344795
6.23649e-05
0.0065916
0.31568
-0.0755256
-0.304342
-0.100068
0.310885
0.018626
0.0302784
-0.0139644
-0.03494
-0.000160798
0.00707077
-0.00741942
-0.309223
0.0706386
-0.243543
0.0637245
-0.0047881
0.184607
0.402392
0.0481509
-0.401315
-0.0492278
-0.200629
0.239318
-0.281673
0.242983
-0.00244504
7.36627e-05
-0.00134633
-0.0624691
-0.211
-0.577378
0.599373
-0.0583399
0.0526625
-0.0409206
0.0166456
0.0108975
0.000359132
-0.00679696
-0.00445962
-0.246895
-0.36427
0.0283118
-0.008549
0.00253776
-0.0223005
0.0623299
-0.468214
0.522265
-0.116381
-0.0115797
-0.00671347
0.0111724
0.00712068
-0.00142968
0.00240288
0.000941941
-0.308523
0.0446852
-0.0526061
0.316444
0.00131468
-0.0122894
0.0110536
0.012387
0.000304982
0.0399707
-0.00111565
-0.00620252
-0.121656
-0.321237
0.10514
-0.0866132
0.253725
0.103968
0.0368675
-0.489795
-0.0587679
-0.0113294
0.00256938
-0.000719874
0.0796015
0.0229256
-0.0208588
0.121389
0.460036
-0.429387
-0.152038
0.0763679
-0.225846
0.310739
-0.161261
-0.00505235
-0.00129399
0.00174646
0.00459987
-0.486568
0.486483
-0.0460799
0.0461655
0.10148
-0.0137049
-0.0584174
0.00474524
-0.00774392
0.00188303
0.00677292
-0.00574718
0.00445557
-0.000673316
-0.00685131
0.00306905
-0.0906172
-0.339347
0.0916986
0.338266
-0.302461
-0.2122
0.000676587
0.000707964
-0.0534133
0.0829137
-0.309406
0.279906
0.000645401
-0.00863603
-0.000979951
-0.114845
0.173388
0.0326515
0.264
-0.247645
0.0569228
-0.360782
0.376048
-0.0100837
-0.00912073
0.00564233
0.00912233
0.00546628
-0.0093241
-0.0052645
-0.033661
0.00675278
0.00879512
0.0181132
0.00894424
0.0170185
0.179084
-0.254094
-0.119547
0.0053276
0.0189003
-0.00486372
0.000391372
0.000701841
0.00275747
-0.00385068
0.0938633
-0.220927
0.291289
-0.164225
0.111698
-0.154195
-0.24599
0.039601
0.00047703
0.00731436
-0.00743594
-0.000355437
0.0571029
-0.0834965
-0.282829
0.00659911
0.00086011
-0.000718774
-0.00674046
0.27444
-0.317244
0.0873953
-0.0445911
0.00764132
-0.015052
0.00936671
0.0838804
-0.050204
-0.27722
5.8644e-05
-0.000426159
-0.0046505
-0.0712357
-0.331906
0.0851006
0.318041
0.237173
0.0386124
-0.236534
-0.0392513
0.00713857
0.00544243
-0.00301086
-0.00957014
0.00575707
-0.0033857
-0.0055049
0.00313352
0.0899404
-0.362303
0.548947
-0.276584
0.00832655
-0.00882792
0.00329946
-0.0494706
0.0478794
0.0367916
0.00324017
-0.0143244
-0.00269244
-0.00199708
0.00325984
0.00438468
-0.00834419
-0.00347515
0.00329675
-0.00463649
0.00579532
-0.0108998
0.00381724
-0.0118674
-0.225645
0.00576189
-0.00523103
0.00454212
-0.00507299
-0.356905
0.306814
0.0123105
-0.00841825
-0.240326
0.00904667
0.000471891
-0.00903727
-0.000481291
0.00489391
-0.00782095
-0.00942699
0.012354
-0.0305806
-0.0325935
0.0178638
0.0453103
0.00949522
0.00173392
-0.0273334
0.0201946
-0.0142451
0.0213839
-0.12275
-0.392365
-0.0208503
-0.0150321
0.0071337
-0.00158398
0.00320077
-0.00416804
0.376586
0.0524646
-0.0806985
7.19093e-06
-0.00691375
0.00176466
-0.00350786
0.0558476
0.0490091
-0.0336246
-0.395919
0.0632942
-0.060488
0.393112
0.135923
-0.200944
-0.112036
-0.0116305
-0.00124191
0.00839258
0.00447981
0.00838901
-0.000488622
0.00599934
0.00552392
0.10299
-0.0440506
-0.0812523
0.022313
-0.00337129
0.00641853
-0.0369547
0.00677589
0.507686
-0.477507
0.00236912
-0.0086399
0.00661561
-0.00180219
0.000808215
-0.00175505
-0.00510042
0.000967486
0.00588797
-0.367449
-0.28515
0.208748
0.0642252
-0.0340942
-0.22845
0.0210051
0.213477
-0.00603259
0.0127229
0.0126571
-0.0142427
-0.0111373
0.00152328
-0.00652172
0.0212137
0.0041611
0.00709851
-0.00492973
-0.00632988
0.210953
-0.0978683
-0.208945
-0.0818082
-0.0215483
0.0588761
0.0444803
0.00720966
-0.216172
-0.174723
0.383685
-0.00776334
0.00130982
-0.285548
-0.0158335
0.247968
0.00735544
0.00413147
-0.00732579
0.00341264
-0.0234048
-0.0101442
-0.00229731
0.000536909
0.0119046
-0.165167
-0.260907
0.0667613
0.359313
-0.275047
0.317119
0.154661
-0.196733
-0.00922464
0.00889648
-0.00975557
0.0052771
0.0146593
-0.0151312
0.00659385
-0.104404
0.0818329
0.585807
-0.606003
-0.0577294
0.487226
-0.653064
0.223745
-0.0579068
-0.00151318
-0.00723815
0.00142066
0.00733069
-0.104914
-0.175853
0.205866
0.0749006
-0.000477338
-0.00833663
-0.0327579
0.0208033
0.0113701
-0.00526388
-0.0162505
-0.00464883
0.00538332
0.0115833
-0.0123178
0.00717028
-0.000211093
-0.00750807
-0.000237307
-0.00606801
0.000389062
-0.000856654
0.00287047
0.0500731
0.246129
0.0635878
-0.187594
0.30592
0.22857
-0.346896
0.36738
-0.601946
0.353822
-0.119256
-0.063763
0.0524997
-0.01354
0.010419
0.0117818
0.140658
-0.387466
0.232965
0.0138433
-0.0488425
0.0288341
0.334943
-0.0144655
-0.313268
0.00292388
-0.00137421
-0.00900337
-0.209602
0.0655867
-0.0595874
0.203603
-0.00332982
0.00317742
0.00725092
-0.27059
0.214089
-0.277658
1.88455e-06
0.0442239
0.470455
0.0596745
0.157547
-0.229845
0.00654912
-0.00513522
-0.00211765
0.00343217
0.00382072
-0.0481004
-0.143965
0.162736
0.02933
-0.392912
0.00138188
-0.00582905
-0.00158305
-0.00410118
-0.00594628
0.00493649
-0.0214222
0.299544
-0.204893
-0.0153815
0.00437483
0.00353883
0.00746778
0.0644183
-0.0611524
0.0609592
-0.0228259
-0.301416
0.0148362
0.213039
-0.405008
0.269304
-0.0773344
0.477143
0.0686366
-0.0585542
0.0663629
-0.0579336
0.138707
-0.205235
0.252044
0.19251
0.00635027
0.00796229
0.262102
0.0528766
-0.053128
-0.261851
-0.00366945
-0.0113964
0.0151896
0.174147
-0.137367
-0.0392795
0.240844
0.00213147
0.00631699
0.00666127
0.00119777
-0.00291354
0.00966193
-0.00650866
0.000248235
-0.00340151
0.0140627
0.224239
-0.20565
-0.554692
-0.446093
0.122481
0.0136999
-0.322073
-0.00624317
0.00270394
0.0237598
0.0214978
-0.0317346
-0.0135231
0.0074691
0.00371355
-0.0028561
0.00825644
-0.00673854
0.00375916
0.00651318
0.0273087
-0.0403055
0.00648371
-0.0447078
0.0719186
0.049168
-0.166516
-0.0792548
0.134387
0.111384
0.00471729
-0.00748338
-0.000162751
-0.00970802
-0.00303104
0.00396745
-0.00864155
-0.0473806
0.701989
-0.0583919
0.110784
-0.0157807
-0.0594225
-0.00450958
0.00556091
0.00630413
0.0733605
0.080004
-0.0583155
-0.0950489
-0.0149884
-0.00805631
0.0118572
0.00434166
-0.0319235
-0.00607915
0.141744
0.0582341
-0.121566
-0.219216
-0.0370258
0.0675602
0.188681
-0.0578785
0.255338
0.0489265
-0.246386
-0.00334415
0.00564305
0.00724031
-0.00953922
0.310607
-0.203122
0.197744
-0.305228
-0.216368
-0.0712839
0.129218
0.158435
0.0119656
-0.00906403
0.00908469
-0.00937637
0.000937058
-0.238923
0.17453
-0.00554269
0.0114506
0.00331501
-0.00922288
-0.0182591
-0.00552123
0.00876621
0.00148201
0.0065428
-0.000830091
0.00944499
-0.176798
-0.20011
0.383463
-0.335618
-0.0285247
-0.0193197
-0.00519984
-0.00218482
0.00577091
0.00161376
-0.135906
0.178113
-0.207375
-0.332555
0.353224
-0.179794
0.159125
-0.524255
-0.0607714
0.498349
0.0866778
-0.113156
0.167037
-0.101981
-0.0336655
0.0253972
0.428688
0.00229598
0.00862422
-0.00430763
0.00243273
-0.00151087
0.0521343
-0.0372437
-0.00231074
0.00128379
-0.0023172
-0.00332275
-0.00530996
0.00859181
-0.0134912
0.0154072
-0.00990658
0.00524337
-0.462856
-0.196776
0.292183
0.011857
-0.0379462
-0.0045677
0.030657
-0.318311
-0.0425218
0.00460536
0.0073179
-0.00447305
0.0273199
0.48206
-0.559264
-0.001197
-0.00238286
-0.00196282
0.188818
-0.0737413
-0.219991
-0.154456
0.320537
-0.00506432
0.00840343
0.00296575
0.00649615
0.00765489
-0.105236
0.00411329
-0.00942309
-0.265123
-0.376682
0.0752343
0.146738
-0.0772455
-0.144727
0.0198636
0.00927528
1.15904e-05
-0.000127965
-0.00696702
0.00708339
-0.0105397
0.0153536
-0.00599259
0.00117886
-0.319014
-0.00945052
0.0596227
0.268842
-0.055295
0.19536
-0.249273
0.266834
-0.305703
0.00163735
-0.617294
0.0684312
-0.0571397
-0.0106635
-0.0360587
-0.20865
-0.176136
0.0581612
0.326626
-0.0667436
0.196265
-0.194128
0.0203321
-0.021457
0.0226227
0.00853381
-0.00648334
0.00477921
0.00627984
0.0104485
0.0398706
-0.0347771
0.531017
-0.559826
-0.272383
0.301193
-0.00637659
0.139409
-0.427074
0.510919
-0.0142251
-0.331048
0.344054
0.0012198
-0.0237986
0.0253969
-0.0202516
0.0186534
0.050162
0.000523993
-0.038829
-0.016096
0.0058877
-0.0106419
-0.141939
0.0321148
0.154751
-0.0449268
0.216777
-0.0599226
0.0447259
-0.20158
-0.074609
0.0498081
0.0642636
-0.1988
-0.117764
0.00989095
-0.262408
0.0556273
0.19689
0.0424494
0.0206087
-0.0269652
-0.036093
0.000506512
-0.00145235
0.00771877
-0.0471368
0.363135
0.01883
0.00361163
-0.0120452
-0.0103965
-0.0065914
0.00510314
-0.00472097
-0.0422294
0.00900418
0.00970874
0.00540581
-0.00554018
0.0210215
-0.0250176
-0.0152543
0.0192505
-0.112303
-0.535624
0.123671
0.0119119
-0.0109946
0.00503519
-0.00595263
0.409153
-0.16101
0.127292
0.222536
0.0832934
0.061625
-0.0785234
-0.066395
-0.000297604
-0.00861854
-0.000473637
0.0093898
0.000224931
-0.00124213
0.00783233
0.0200101
-0.0227872
0.00911804
-0.00913506
0.00798904
-0.00797202
-0.0132647
-0.00209597
0.00307123
0.0798711
0.166007
-0.0917747
-0.439692
-0.0431377
0.0307383
0.452092
-0.486896
0.0371247
0.00757162
-0.0210259
-0.0174296
0.0234234
-0.00319986
0.00432195
-0.000210295
-0.000114358
-0.00751431
0.00783895
-0.0167899
0.317423
-0.744733
0.184127
-0.0566883
0.0354532
0.0190504
0.0327382
0.00682177
-0.0103675
0.0248825
-0.0214882
0.0174091
-0.154376
-0.309789
0.0451987
0.418966
0.000115884
-0.0051097
0.0004515
0.290211
0.2072
-0.358002
-0.100709
0.0754401
0.00474652
0.00369762
-0.630648
-0.0576286
-0.0564568
0.118581
-0.0241059
-0.0933637
-0.00111141
0.0372578
0.0871481
-0.00500218
-0.0067122
-0.0222547
0.325749
-0.0904561
0.00669891
0.00248713
0.000475899
0.00385905
-0.0101841
0.0188566
0.0100545
-0.0174606
0.00796553
-0.0590808
0.0176489
0.0334664
0.263333
0.0217242
-0.243968
-0.0410898
-0.392157
0.379273
0.0255507
-0.0126673
-0.0408431
-0.432515
-0.0771307
-0.36708
0.179087
-0.00633808
0.0125019
-0.0153504
0.00918658
-0.0134594
-0.00509555
-0.00679969
-0.363872
0.26414
0.057299
-0.0469983
-0.0409618
-0.0464173
-0.355247
-0.0601182
0.34413
0.296844
-0.0497948
0.0457486
-0.134782
-0.0529052
0.578156
-0.0781183
-0.169763
-0.336104
0.248606
-0.33002
0.28254
0.28818
-0.240701
-0.0329708
0.131187
0.333345
-0.0034301
-0.00418617
0.000856714
0.00675954
-0.361816
-0.170751
0.501368
0.0311988
-0.00575781
-0.000862001
0.0115189
-0.00489905
0.0730258
-0.126167
-0.0496094
0.102751
-0.274424
0.181188
0.399156
0.00781508
-0.00246337
-0.265428
-0.0263654
-0.362786
0.102516
0.286635
0.00850821
0.00128356
-0.0194421
-0.00385599
0.0142341
0.0129462
-0.0133052
-0.0101807
-0.385467
-0.157454
0.0800643
0.235812
-0.0730685
0.00108701
-0.000230521
0.00580478
0.00583835
-0.00225664
-0.539342
0.00425545
0.00726753
-0.00859912
0.040732
-0.481488
-0.0458128
-0.593995
0.537973
-0.0562811
0.178485
0.0251243
-0.0394397
-0.393938
0.149571
0.0221173
-0.341787
-0.0467845
0.366454
0.00908931
0.00929389
-0.00472668
0.00639828
-0.00500144
-0.0173755
0.00394778
0.018811
-0.0072814
-0.000391845
-0.0114487
0.0126701
-0.00267327
-0.543919
0.601611
-0.0550183
0.0130666
-0.363338
0.0668712
-0.0587805
0.0302223
0.0349468
0.00422092
-0.156369
0.287575
0.0973643
0.0389029
0.475118
-0.475575
-0.0384454
0.545384
-0.520737
-0.000733958
-0.00527541
-0.229205
0.224599
-0.230996
0.256241
0.0135001
-0.0387458
-0.00417379
0.0278144
0.0238137
-0.0288678
0.26216
-0.00443046
-0.228862
0.0659928
0.155622
-0.00834113
-0.000216082
0.00849751
0.0440944
-0.261494
-0.561478
-0.0339831
-0.0576029
-0.0965746
0.0229134
0.285062
-0.0154321
-0.00172133
-0.0570617
0.169431
-0.172524
0.0601544
-0.0252839
0.0222073
-0.292292
0.20337
0.00843432
-0.00714084
0.00058436
-0.00187769
-0.0494459
0.0576015
0.00855417
0.218776
0.0360381
-0.211703
-0.00443456
-0.00882745
0.00581313
0.046003
0.0766545
0.0706282
0.299717
-0.0762114
0.0273579
0.00699049
-0.0143383
0.0103607
-0.0634247
0.126425
0.032755
-0.026003
0.0463829
-0.0531349
0.0133493
-0.00810312
-0.00463481
0.00472187
0.00413386
0.110924
-0.029024
0.0920589
-0.173959
-0.0168995
0.0375426
0.00786311
-0.0285062
0.0906698
-0.373121
0.396645
-0.306116
0.243814
-0.422281
-0.00345107
0.0131248
-0.010548
0.00676944
0.00609328
0.0201001
-0.222917
-0.0664755
0.188788
0.100604
0.0870105
-0.0927406
-0.0286567
0.172502
-0.0763925
0.0713996
-0.167509
0.385042
-0.396555
0.0606385
-0.0491249
0.253519
-0.137676
0.186089
-0.301932
0.414705
-0.421037
0.056014
-0.0496819
0.452751
-0.374793
-0.0558407
0.451515
-0.0204381
-0.337815
-0.046471
0.505676
-0.0349447
0.000273492
0.0299504
-0.166753
-0.376339
0.341758
0.201333
-0.0253487
-0.0422076
-0.102435
0.155043
-0.026191
-0.320965
-0.51464
0.0254359
-0.0547151
0.179789
-0.0315136
-0.134213
-0.0238961
0.0160743
-0.00338326
0.0730903
0.248084
-0.0590722
-0.371096
0.0268532
-0.041568
0.474209
-0.459494
0.210567
-0.0911636
0.0138438
-0.0312554
-0.187709
0.20512
-0.0418996
0.279893
-0.266861
-0.0461178
0.486787
-0.038777
0.22825
0.0293026
0.0199123
-0.0162218
-0.328537
0.316764
-0.128566
-0.244707
0.0780314
0.243043
-0.016922
0.0299044
-0.0298819
-0.000999568
-0.0137737
-0.00905908
0.0282036
0.0168759
-0.0262229
0.00251946
-0.00343612
-0.00228321
0.258975
-0.0446853
0.00560299
-0.00738272
0.0310459
-0.041281
0.185972
-0.175737
-0.374926
0.1927
0.255317
0.37975
-0.0176555
0.000618538
-0.362713
0.323039
0.0355021
-0.0491015
-0.0489589
0.357047
-0.0443958
0.0390658
-0.351717
-0.110465
0.767534
-0.0554589
0.405318
0.0591738
-0.0497867
-0.00130577
0.0138749
0.0274017
-0.0150197
-0.0320597
0.0256225
0.0143843
-0.00273089
-0.215626
0.203973
0.337006
0.170884
-0.0551393
0.218308
-0.183743
0.0225843
-0.0571494
0.248834
-0.199473
0.165134
-0.200957
0.0872051
-0.0513824
0.170126
0.119209
-0.0710275
0.0723025
-0.00261273
0.0147527
-0.0844424
0.176905
-0.0774431
0.0730406
0.0401395
-0.0174189
0.014822
0.242145
0.108543
-0.101854
0.361294
-0.0168119
0.00742815
-0.35191
0.155741
-0.142908
0.12354
-0.136373
0.226862
-0.240408
-0.0673027
0.0808491
0.303895
-0.520926
-0.0927586
0.17426
-0.0700551
0.0971304
-0.201336
0.360847
0.022511
-0.0220639
0.175051
-0.172925
0.0339125
0.019811
0.415432
-0.410982
-0.0242605
0.283
-0.319869
0.0154272
0.0214424
-0.0432894
0.195564
-0.13843
-0.0404501
0.237445
0.228806
-0.208368
0.145593
-0.166031
0.271268
-0.185948
0.202366
0.0536383
-0.0607425
0.172239
0.00746585
0.148477
-0.139704
-0.0162394
-0.0237924
0.126089
-0.11201
0.00971386
0.0954153
-0.0501719
-0.0720412
0.0267981
0.0603154
0.0163953
-0.00440804
0.167088
-0.0733546
0.0369362
-0.0300833
0.0332866
0.0786385
0.220005
-0.121738
0.171591
-0.149092
0.205851
-0.0559014
0.0769119
0.240339
0.10158
-0.0997744
0.0913226
-0.0529684
0.0138523
-0.023843
0.321655
-0.311665
0.334685
-0.0240484
0.0177628
-0.328399
0.240433
0.0299104
0.0126563
0.247125
-0.125184
0.131578
0.300231
-0.209101
-0.0629488
0.0644877
-0.408028
0.406489
0.387642
-0.37677
-0.00804555
-0.00282708
0.0271863
0.0225309
0.287573
-0.493194
0.234108
0.248846
-0.211686
0.387956
0.0162682
-0.0168679
0.237131
0.147145
-0.137151
-0.325178
-0.123271
0.158468
-0.0935142
0.0847916
0.17473
-0.190883
-0.278879
0.203859
0.265902
0.166085
-0.152874
-0.00574536
0.132509
-0.124187
0.213332
-0.199821
0.0651274
-0.00426433
0.317899
-0.349458
0.0358233
0.417168
-0.0331924
0.00366648
-0.120641
-0.319739
0.101033
0.228132
-0.444304
0.307259
-0.0435852
0.348103
0.0432705
-0.347788
0.0329053
-0.0316954
-0.0181318
0.124908
0.324181
-0.148189
0.0564287
0.157754
-0.0627135
0.316653
-0.31536
0.0614208
-0.00598406
0.304899
-0.323148
-0.168588
0.0608697
-0.428838
-0.0605531
0.428521
0.0552465
-0.0779996
-0.0842741
0.107027
-0.081475
0.194326
0.270612
-0.00817937
0.0096719
-0.00337016
0.304059
-0.408392
-0.251678
0.484107
-0.253763
-0.406567
0.176223
0.272885
0.421177
-0.336615
-0.0559983
-0.0285644
-0.000140592
0.00142414
-0.0094918
-0.00130872
0.260799
-0.362792
0.0312997
-0.0188142
0.193463
-0.119014
0.346729
0.362104
0.19086
-0.357458
-0.195505
-0.263581
0.267706
-0.377246
-0.00852493
-0.0598585
0.462827
-0.113733
0.0464332
-0.0590849
0.0166444
0.0309974
-0.00517346
-0.182058
0.175334
-0.136184
0.096507
-0.124389
-0.0763358
0.0779161
0.0536664
-0.119809
0.0585211
0.120106
-0.0588174
-0.050775
0.078166
0.00954531
-0.305395
0.157911
-0.0682656
-0.0344969
0.205053
0.00923324
0.0240569
0.16174
0.150392
0.101211
-0.0315974
-0.0904031
0.0821338
-0.329549
0.337818
-0.196319
0.0545635
-0.0467758
0.0791799
-0.158859
0.172926
0.226366
-0.271018
0.161715
0.172355
-0.0630516
-0.0536262
0.0376059
-0.087358
0.0629638
-0.0182991
0.0189434
-0.00703642
0.103238
-0.0992866
0.236387
-0.373881
0.378382
0.0993306
-0.103832
0.0390457
0.0503183
0.0384392
0.264303
-0.257478
-0.0452648
-0.0715973
0.326735
-0.336613
0.252256
-0.0772099
-0.142074
0.0370776
-0.00519706
0.000928302
0.00297476
-0.424294
0.0140797
-0.198222
0.0995683
0.201892
-0.319589
0.301318
0.164831
-0.146561
0.0209161
-0.461715
0.473049
-0.0322499
-0.13712
0.330248
0.212618
-0.338743
-0.112634
0.142934
-0.176549
0.222797
0.285652
-0.141604
-0.329996
0.334504
-0.0236624
-0.260102
0.285222
-0.0610865
0.0411245
-0.31821
-0.260181
0.345201
0.233189
0.00684427
0.00660493
-0.0220035
0.00855426
-0.0741343
0.0239856
-0.232108
0.282257
0.448489
0.270901
-0.436293
-0.283097
-0.217267
0.203508
0.208084
0.251538
-0.153889
0.0884408
-0.284477
0.200375
-0.0368942
-0.0178205
0.00393972
-0.301924
-0.0937608
0.172767
-0.215245
0.0294277
0.224365
-0.0385476
-0.23415
0.18644
0.24041
-0.472221
-0.0299065
0.149447
-0.0392211
0.00297491
-0.00822512
0.422418
-0.435702
0.0153349
0.274089
0.146278
-0.0479934
0.0247469
-0.103824
0.228665
-0.182591
-0.0567541
0.0535944
-0.0841982
0.0114785
0.370656
-0.0591735
-0.322961
0.242804
0.179173
-0.260263
-0.138667
-0.0915359
0.221997
0.00820644
-0.00738059
-0.00637532
0.0327045
0.409671
-0.0490181
0.33397
-0.051172
0.502467
-0.497345
-0.05124
-0.44862
0.455457
-0.0499751
0.345567
0.0624814
-0.0526787
-0.434317
-0.0496689
-0.432424
0.426324
0.055526
-0.0494252
0.489005
-0.537334
0.102308
-0.0539791
0.377175
0.05687
-0.0490033
-0.51467
0.537201
0.0299705
-0.052501
0.497011
0.0138358
-0.0504606
0.513449
0.0527445
-0.514349
-0.0518445
-0.571361
0.682012
-0.0576315
-0.0530192
-0.480869
0.0491887
0.486233
-0.0545522
0.442042
0.0590582
-0.452174
-0.0489261
-0.0493799
0.0606459
0.394616
-0.0499436
-0.432156
0.439624
0.0421794
-0.0496473
0.0900748
0.301679
-0.0547478
-0.0665781
0.181954
-0.270016
0.262232
-0.168765
0.0127525
-0.00871873
0.00419638
0.0713569
-0.0556654
0.150969
-0.224265
0.213953
0.313891
-0.208557
0.313633
-0.0394822
0.326913
-0.273047
-0.0115001
0.00138059
0.136208
-0.204304
-0.0372912
0.0272268
0.158542
-0.0271942
0.333421
-0.337957
0.358583
0.0288883
-0.049514
0.441591
0.0169859
-0.0489062
0.359688
0.0242929
-0.050011
-0.435329
0.36714
-0.0534667
0.181938
-0.046142
-0.222144
0.336944
-0.394273
0.401566
-0.161226
-0.00932432
-0.0131779
-0.363159
0.385661
0.050317
-0.0554988
0.167917
0.0558083
0.025586
-0.212619
-0.257821
0.0923304
-0.10995
0.27544
0.257837
-0.422068
0.0166041
-0.0397966
-0.0137016
0.239157
-0.259887
-0.254115
0.274845
-0.24198
-0.157296
0.114798
-0.343396
0.356275
0.0393918
-0.0522714
-0.380535
0.420821
-0.0496108
-0.317768
0.325362
-0.0564364
-0.345158
-0.0558253
-0.3551
0.359599
0.0455902
-0.0500888
0.316268
-0.318708
0.0583109
-0.0558706
-0.575321
0.464622
0.159753
-0.0490536
-0.383233
0.400712
0.0315849
-0.0490636
-0.532809
-0.0637472
0.647201
-0.0506445
0.474536
0.168163
-0.591054
-0.0516458
0.473419
-0.451548
0.0308611
-0.0527316
0.50244
-0.489398
0.0402458
-0.0532881
0.059969
-0.3914
-0.0103686
0.00816931
0.320099
0.205542
0.238072
-0.271259
0.215867
0.160873
-0.148075
0.340097
-0.231757
0.368929
-0.248385
-0.0240369
-0.289936
0.0609122
0.10876
-0.111151
-0.359871
0.0550925
-0.0503215
-0.0561342
0.0289174
-0.0498536
0.0783375
0.448034
-0.051836
0.0546621
-0.0524906
0.504319
0.0516739
-0.0535529
-0.332413
0.0433668
-0.056112
0.0429987
-0.0490564
-0.0529333
-0.324469
0.060964
-0.0552033
-0.454165
-0.0719834
-0.0491734
0.014693
-0.0504917
-0.127247
-0.380027
0.257214
-0.296051
-0.0447439
0.0553635
-0.165202
-0.0288283
-0.271437
0.29227
-0.163747
0.0218684
0.174129
-0.389836
0.277685
-0.238554
0.229836
0.21851
-0.190156
0.00266832
0.000426929
0.00162205
-0.107312
0.102315
-0.23971
-0.164602
-0.00764515
0.0190449
0.145066
0.301819
0.224689
-0.0438866
-0.346215
0.0536606
-0.28168
-0.0419958
0.0591109
-0.0483061
0.0402693
-0.0510741
-0.000392409
0.00489038
-0.268854
0.227113
-0.457524
0.132312
-0.0294952
-0.00190429
0.194721
0.0552265
-0.0479892
0.440556
0.0508527
-0.0520747
0.524776
-0.0320266
-0.0656769
-0.427073
0.0586624
-0.0490447
0.23761
-0.352855
0.0833295
-0.335072
0.0097632
0.0274978
0.0389495
0.262185
-0.276158
0.193146
-0.0496566
-0.299932
-0.105842
0.383446
-0.368007
-0.0823271
0.0882281
-0.00170463
-0.311489
0.0830677
0.0624038
-0.189184
-0.00389437
0.231531
-0.10891
-0.00252885
0.381607
-0.37165
0.185659
-0.104041
0.134249
-0.0110639
0.00325586
0.0416677
-0.0502902
0.0780344
0.026143
0.107491
-0.0512738
-0.424025
-0.0925935
0.282468
0.00968273
0.14775
-0.160163
0.0428033
-0.0526717
-0.0439785
0.262504
0.304603
-0.203993
-0.282023
0.181413
0.168067
-0.0606965
0.349946
-0.147558
-0.243746
0.0715652
-0.293639