/*--------------------------------*- C++ -*----------------------------------*\
  =========                 |
  \\      /  F ield         | OpenFOAM: The Open Source CFD Toolbox
   \\    /   O peration     | Website:  https://openfoam.org
    \\  /    A nd           | Version:  10
     \\/     M anipulation  |
\*---------------------------------------------------------------------------*/
FoamFile
{
    format      ascii;
    class       volVectorField;
    location    "700";
    object      U;
}
// * * * * * * * * * * * * * * * * * * * * * * * * * * * * * * * * * * * * * //

dimensions      [0 1 -1 0 0 0 0];

internalField   nonuniform List<vector> 
23845
(
(0.718281 -0.108627 1.15905e-20)
(0.482362 0.0988892 -5.10262e-21)
(0.244929 -0.0134613 2.73156e-20)
(-0.136964 0.0165319 7.27667e-22)
(0.0812595 0.0598627 5.29595e-21)
(0.809944 -0.00687943 -1.39744e-23)
(0.920764 -0.0309251 -1.2819e-20)
(-0.0760234 0.0669463 -2.66606e-22)
(0.92862 -0.00662114 6.61776e-24)
(0.855801 0.0972358 -5.67102e-21)
(0.456596 -0.048038 -5.19277e-21)
(0.752693 -0.00115941 4.56192e-24)
(0.926018 0.0145377 -1.15947e-23)
(0.885888 -0.00754819 1.46111e-24)
(0.720737 0.0355498 -2.15193e-20)
(0.934428 0.073201 -1.00385e-21)
(0.810465 0.0198354 3.81796e-23)
(0.606539 -0.0162205 3.99308e-24)
(0.94641 -0.0254169 -2.18481e-22)
(0.777198 0.0075858 1.08347e-22)
(0.892503 0.0995899 1.88056e-20)
(0.409571 -0.0363728 -9.25295e-21)
(1.05725 -0.0543891 -3.1708e-21)
(0.935339 -0.00710009 8.87487e-24)
(0.764159 0.0871427 -9.8212e-22)
(0.988407 0.00517233 -3.13185e-24)
(0.941574 0.0545028 1.06182e-20)
(0.805746 -0.00843581 3.45782e-22)
(-0.0526741 -0.118212 7.79649e-21)
(0.801962 0.00862089 -7.47235e-23)
(-0.149151 -0.008435 3.21976e-20)
(-0.0314404 0.0870203 4.15359e-22)
(0.421176 -0.0212098 1.00688e-20)
(0.655099 -0.0216254 -4.58682e-23)
(0.74968 0.000128096 -1.68132e-23)
(0.743515 0.00360094 1.61182e-22)
(-0.0441067 0.118051 -7.1378e-21)
(0.751619 -0.00114494 -4.8828e-24)
(0.778788 -0.00419089 -1.84597e-23)
(0.914737 0.00728171 8.78604e-24)
(0.974281 -0.0317458 1.43421e-22)
(0.739562 -0.0158718 1.84497e-22)
(0.945648 -0.013402 -3.02204e-22)
(0.687393 0.0128438 -4.70669e-23)
(1.00489 -0.00576915 -7.87118e-23)
(0.884578 0.0152726 1.90804e-23)
(-0.0664774 -0.025733 -1.84986e-21)
(0.892953 -0.0704667 -4.49502e-21)
(-0.0238605 0.00990282 1.55763e-21)
(-0.0596948 -0.116259 3.42795e-21)
(-0.0496902 -0.0444015 7.13663e-22)
(0.15987 -0.0169661 -3.98467e-21)
(-0.022316 -0.0410534 -3.6287e-21)
(0.855495 -0.00848884 -1.55467e-22)
(-0.0346574 0.0969658 7.57156e-21)
(0.866279 0.0198609 -1.13696e-23)
(0.216758 0.0726395 2.66552e-20)
(-0.0915958 -0.0368154 1.87215e-20)
(0.78775 0.105858 -3.65136e-20)
(0.013296 0.0277161 -1.71813e-20)
(-0.0426303 0.103545 2.55047e-21)
(0.700722 0.0145999 3.67193e-23)
(0.922857 0.0620661 -1.11343e-21)
(-0.0370857 -0.0968054 3.35484e-21)
(0.954313 -0.00708102 -2.34649e-23)
(0.908305 0.0139856 -3.02596e-22)
(0.981911 0.0368952 1.09317e-20)
(1.01575 0.0042153 1.00585e-22)
(1.01188 -0.00554887 -1.68343e-22)
(0.936287 -0.0324831 6.23254e-23)
(-0.0607625 0.0880596 2.72119e-22)
(0.150789 0.0042977 1.66829e-20)
(0.980073 0.00807206 2.5143e-23)
(0.801351 0.0333845 1.23988e-20)
(0.974393 -0.00673147 -2.55882e-22)
(0.66428 0.0344365 -7.65189e-23)
(0.757804 -0.0021907 -5.53919e-24)
(0.776102 -0.0045712 1.61992e-23)
(-0.119671 -0.022537 3.81439e-21)
(0.790628 0.0297614 2.51248e-23)
(0.971023 0.0718369 -2.58743e-21)
(0.688067 -0.0407154 -3.78541e-20)
(0.332012 0.0874977 -4.53706e-21)
(-0.0855447 -0.0533584 -7.91504e-22)
(0.248581 -0.0011296 -7.80252e-21)
(0.750927 0.00125754 -4.03103e-23)
(0.616496 0.0604673 1.4355e-20)
(-0.0179109 -0.0134478 1.6913e-20)
(0.954281 -0.00646823 8.01404e-23)
(0.855925 0.0289221 -1.586e-22)
(-0.0482679 -0.0822976 -1.26295e-20)
(0.971339 0.0407346 -6.37787e-22)
(-0.0479161 -0.106613 1.1313e-20)
(0.752531 -0.00501336 -1.60866e-22)
(-0.0886766 -0.0249533 2.80475e-21)
(-0.0539951 -0.0925999 -3.54328e-20)
(0.845209 -0.019484 7.68292e-23)
(0.875033 -0.0731395 -3.46908e-22)
(0.97274 -0.00652832 1.72754e-23)
(-0.00591138 0.0389685 -8.08899e-21)
(0.850415 -0.023255 1.28438e-22)
(0.978358 0.0333793 3.75251e-21)
(0.413847 -0.0997056 1.46159e-20)
(-0.0690972 -0.0880402 -1.58671e-20)
(-0.053782 -0.0940552 -2.95515e-20)
(-0.0939358 -0.0451974 5.2248e-21)
(0.828947 -0.00768026 1.66798e-23)
(0.986215 -0.00654474 1.59879e-22)
(1.03744 0.0284051 -1.69017e-21)
(0.714884 0.0133982 1.1903e-22)
(0.50467 -0.0438048 -1.54123e-21)
(0.756426 -0.00238781 -9.95051e-24)
(0.364334 0.0136144 1.59228e-20)
(0.849433 -0.0893155 -2.14236e-21)
(0.747196 0.00413284 -7.17583e-23)
(0.956019 -0.0907685 -2.68254e-21)
(0.972033 -0.0067069 -1.47486e-22)
(0.940668 0.0835898 -5.74151e-21)
(-0.0525672 -0.119776 5.72618e-21)
(-0.0215435 0.0843216 -1.58869e-20)
(0.76877 -0.00361486 -2.85121e-23)
(-0.0398518 -0.094424 -1.96118e-21)
(0.937747 0.0317538 6.91018e-23)
(0.0247613 0.0431494 3.49602e-20)
(0.962775 0.0319249 -3.62742e-21)
(0.983364 0.00576798 -3.86502e-24)
(-0.0456551 0.100107 2.14699e-21)
(-0.0607189 -0.111535 -1.29554e-20)
(0.128898 0.0215077 1.05162e-21)
(-0.0546416 -0.0351688 1.25635e-20)
(0.132358 0.0265741 1.84606e-20)
(0.477454 0.0852204 5.74304e-22)
(0.325523 -0.0515298 2.58418e-22)
(0.855319 -0.007395 1.11701e-24)
(0.826917 -0.0287332 6.20987e-23)
(0.580751 -0.108594 4.23728e-21)
(-0.066119 0.0944574 3.31892e-20)
(0.753942 -0.00129403 1.09105e-23)
(1.02884 -0.0328819 6.46245e-23)
(0.783452 -0.00489458 1.6675e-23)
(-0.0553442 -0.124711 -1.56565e-20)
(0.730831 -0.0138489 -1.13877e-23)
(0.768378 0.00448096 5.07049e-23)
(0.664325 0.0122706 3.12616e-22)
(0.927857 -0.0539969 -2.32057e-21)
(0.703537 0.0115681 -8.98296e-23)
(0.954514 -0.0890956 -3.12583e-22)
(0.395151 0.0237125 4.25718e-20)
(0.0103677 0.0733004 -1.29821e-20)
(0.868871 0.0388223 2.27622e-22)
(0.444437 0.0191071 -1.67563e-20)
(0.948653 0.00968295 2.28817e-23)
(0.451452 -0.0671735 1.53308e-20)
(0.901991 -0.0106237 4.95734e-23)
(0.326092 -0.00704554 -5.79874e-21)
(0.732643 0.0500321 -8.42344e-22)
(0.240258 -0.0847689 -5.05056e-21)
(0.753095 -0.00322572 -8.15956e-23)
(0.15857 0.0196529 1.28893e-21)
(-0.0540792 -0.108047 3.73304e-21)
(0.926845 0.0402462 2.95086e-22)
(0.665855 -0.032914 -1.81073e-21)
(-0.0838915 0.0126975 -1.02733e-21)
(0.946622 -0.00677601 1.23805e-23)
(0.989824 -0.0153201 -1.81183e-23)
(0.791809 0.0385026 1.87267e-22)
(0.827007 -0.00688403 -2.36666e-23)
(-0.0452172 0.102284 -5.63499e-21)
(0.798037 -0.00810646 -8.82557e-23)
(0.701826 -0.01131 5.95572e-23)
(0.839459 0.006774 2.24589e-23)
(-0.118022 0.0211462 5.21033e-21)
(0.941326 -0.00757944 -1.23863e-23)
(-0.0102792 0.0449319 -7.37506e-21)
(0.953646 0.00667061 2.90208e-22)
(-0.107906 -0.00146951 -4.46897e-21)
(0.974735 0.0489494 6.18371e-22)
(0.67726 0.0606355 1.47929e-21)
(0.986498 -0.00568666 -1.52148e-23)
(0.757424 -0.00352665 2.97523e-23)
(0.0123568 -0.0425354 6.80266e-21)
(-0.0367222 -0.0255024 8.20508e-22)
(0.767921 0.0368609 1.09454e-20)
(0.490827 -0.0360006 -6.43057e-22)
(0.925071 -0.0629775 -2.97297e-21)
(0.916004 0.0193338 1.9053e-23)
(0.728535 0.0149302 -1.31409e-22)
(-0.0777909 -0.0605955 2.74739e-21)
(-0.0553645 0.118089 1.84053e-21)
(0.766219 -0.0163581 1.6107e-23)
(-0.0464358 0.10257 2.94161e-20)
(0.884399 -0.00752694 2.12692e-23)
(0.89055 0.00706096 1.13258e-23)
(0.844423 0.00707313 -9.72984e-24)
(0.936322 0.049732 -8.36895e-22)
(0.904538 -0.0074667 -7.17429e-23)
(-0.0647791 -0.0928186 -2.72977e-21)
(-0.0556541 0.108945 1.94e-21)
(-0.0789415 -0.0704905 -1.00432e-20)
(0.570786 -0.0520003 2.51888e-22)
(0.705286 0.0374028 -8.58767e-23)
(0.893989 -0.0084532 -3.1767e-22)
(0.00378355 0.0745397 -6.85226e-21)
(0.357307 0.0684459 1.15619e-21)
(-0.0823741 0.0592713 1.16119e-20)
(-0.0847258 0.0264341 7.31838e-22)
(0.222529 0.0036726 -3.80439e-20)
(0.80465 -0.00584643 -1.47837e-23)
(0.744584 -0.0929155 -1.12892e-20)
(0.616695 0.0195348 -1.55899e-22)
(0.723609 0.0279905 -7.39093e-23)
(-0.0487439 0.115636 1.05884e-20)
(0.974367 -0.0579696 9.3705e-23)
(0.828757 -0.0102873 6.87028e-23)
(-0.0346585 -0.0363858 2.49849e-21)
(-0.0399547 -0.107986 -5.96668e-21)
(0.255521 0.0482367 -3.5904e-21)
(0.706185 0.0157806 -6.32898e-23)
(-0.0529157 0.119334 1.55944e-20)
(0.152818 0.0261571 -1.85323e-22)
(0.97416 -0.00983703 1.3558e-23)
(0.73669 0.0348704 -6.47335e-21)
(-0.0668531 0.0910112 -2.07618e-20)
(0.817903 0.0508297 -1.00338e-21)
(0.676612 0.0100961 -9.51082e-23)
(0.463795 -0.0226796 2.13736e-20)
(-0.0597475 -0.11321 -7.46595e-21)
(0.882261 -0.00741754 7.00214e-23)
(0.809171 0.00696301 5.97335e-24)
(0.975527 0.0316041 5.70734e-22)
(0.771781 -0.00533538 1.19956e-22)
(-0.0286011 -0.00630659 -9.44231e-21)
(0.755884 -0.00245967 8.03832e-24)
(1.01077 0.0043761 -1.24631e-23)
(0.123241 0.0647167 8.22856e-21)
(-0.0497413 -0.11325 -1.06176e-20)
(0.960902 -0.00747154 5.81549e-23)
(-0.154239 0.0078364 8.79846e-21)
(0.951452 0.00675647 9.64753e-23)
(-0.0790992 -0.0256503 2.20135e-20)
(-0.0225159 0.0252645 8.67496e-21)
(0.94179 -0.087865 6.46379e-21)
(-0.0976305 -0.0431205 -1.28235e-20)
(0.129708 0.0672155 -1.359e-20)
(-0.0429003 0.0931898 3.14171e-21)
(0.913857 0.0648041 -2.37961e-22)
(0.836893 -0.00760489 -1.66491e-23)
(1.01228 -0.00508878 3.07914e-22)
(-0.0972624 0.0115718 2.11502e-21)
(0.615891 -0.0321452 5.20785e-21)
(0.853019 -0.0147251 1.21892e-23)
(0.75012 0.00216433 -1.15351e-23)
(-0.0516954 0.0545566 -4.38859e-21)
(0.963428 0.013736 -5.55405e-24)
(0.794318 -0.0317451 -7.98671e-21)
(-0.0512585 0.0882174 2.17414e-21)
(-0.00361089 0.0733813 4.22285e-20)
(-0.0621086 0.0621114 7.5095e-22)
(0.746634 -0.00476417 -3.01453e-23)
(0.927259 -0.00773198 -9.33238e-23)
(-0.0136853 0.000690471 -2.09736e-20)
(0.746583 -0.00236297 -2.12758e-23)
(-0.049996 0.0958571 -3.47447e-21)
(0.552181 -0.0455688 1.86255e-21)
(0.642576 0.0457119 -2.58121e-23)
(0.939388 0.00606949 -2.9279e-23)
(-0.117196 -0.00439903 -3.10283e-21)
(0.0584113 0.044204 -1.41249e-21)
(-0.139647 -0.00216913 5.51315e-21)
(-0.148519 0.00958324 -1.55274e-20)
(0.769028 -0.00395792 4.73777e-24)
(-0.114471 0.0268233 -3.1117e-21)
(-0.0443201 -0.0145288 -5.08764e-22)
(0.878553 0.00730855 -7.45421e-23)
(0.445996 -0.0320684 -1.07318e-21)
(0.897889 0.00722555 1.09009e-23)
(-0.0595133 -0.0695827 6.90775e-21)
(0.873739 -0.00743844 -3.62348e-23)
(-0.0648855 -0.0717624 3.70399e-21)
(1.05967 0.0575601 1.81064e-20)
(-0.0838491 -0.0472371 1.88889e-20)
(0.813612 0.00705271 -2.10429e-23)
(-0.0610455 -0.034233 1.00833e-20)
(0.87793 -0.0487479 6.0281e-23)
(0.747262 -0.000269831 -1.6592e-23)
(-0.019598 -0.0881129 -1.2924e-20)
(-0.0250949 0.0348061 -3.96149e-21)
(0.907984 -0.00740231 -2.40225e-23)
(-0.0858449 0.0385347 -3.88276e-22)
(0.433854 -0.0213668 9.97176e-21)
(-0.109521 0.0103003 2.56247e-21)
(-0.036816 0.0300458 -1.05434e-20)
(-0.0345621 -0.0983527 2.60214e-20)
(-0.0608957 0.0732757 -5.21429e-21)
(-0.0972267 0.0237974 3.36305e-22)
(0.750577 -0.00136085 -6.14306e-24)
(-0.0103891 0.0829977 1.67228e-20)
(0.851086 -0.00793647 -8.49821e-23)
(0.74957 0.00105968 -5.49595e-24)
(-0.0529876 -0.118582 -6.90153e-21)
(0.14788 0.0159699 3.11468e-20)
(0.463303 -0.0196809 1.48764e-20)
(-0.0473145 -0.111956 1.9094e-20)
(-0.156817 -0.000956522 8.10049e-20)
(0.85824 0.00705815 1.97079e-23)
(-0.161475 0.0018342 -4.71389e-20)
(-0.0389113 -0.0927227 -1.30267e-20)
(-0.0465651 -0.0291734 -3.14707e-21)
(0.859455 -0.0224658 2.17497e-24)
(-0.0647745 0.0981293 4.47994e-21)
(-0.0420253 0.000344846 -1.27582e-20)
(0.332705 -0.0630534 3.13726e-20)
(0.917324 -0.0205306 2.08078e-23)
(0.83557 0.00696722 9.31037e-23)
(0.0561501 0.00321001 3.07652e-20)
(-0.0566261 -0.12295 1.44942e-20)
(-0.0160986 -0.0855769 1.80099e-21)
(0.329619 0.0503041 -1.35778e-20)
(-0.051771 0.0966693 5.61514e-21)
(0.970668 -0.0109469 4.2547e-23)
(-0.0553529 0.0877981 8.78856e-21)
(-0.047108 0.109738 -8.06175e-21)
(0.0237345 0.0635538 -2.29779e-20)
(0.814519 -0.00890483 -1.03065e-22)
(0.539914 -0.0300988 -1.24214e-20)
(0.800102 0.00616025 -2.06148e-23)
(-0.137452 -0.00751424 -1.9402e-20)
(-0.0749978 -0.0273577 1.15269e-20)
(-0.000667249 -0.070289 -6.13671e-22)
(0.577222 0.015598 3.24371e-22)
(0.346772 -0.0318445 5.18694e-20)
(0.821768 -0.0463922 -1.62385e-22)
(-0.0503204 -0.0675557 9.62451e-21)
(0.741715 -0.000671642 1.70864e-23)
(0.000909838 -0.0747954 -4.67326e-21)
(-0.140188 0.0129039 -2.26718e-21)
(-0.0706111 -0.0139413 -1.20655e-20)
(0.595155 0.0133376 -1.56924e-22)
(0.726487 0.010584 2.67392e-22)
(-0.124134 -0.00951648 1.07439e-20)
(-0.0890502 0.0227734 -1.32662e-21)
(0.0167653 0.0696548 -1.32511e-20)
(0.458419 -0.0404586 6.39429e-21)
(1.00887 0.00533081 -3.98032e-23)
(1.00746 -0.00597792 6.86134e-23)
(-0.0695245 0.0670911 -4.8497e-21)
(0.743456 0.00138017 -3.88937e-23)
(-0.0561196 -0.0818321 6.04514e-21)
(-0.129061 -0.0147224 9.17484e-21)
(0.372247 -0.0174993 -4.1546e-21)
(-0.0957322 -0.0104882 1.6401e-20)
(0.126157 -0.0286932 -6.92405e-21)
(-0.0620127 0.11016 2.057e-20)
(-0.0567236 -0.0538265 -1.07539e-20)
(-0.0213278 0.0424914 2.14273e-20)
(0.888693 0.00697601 5.72635e-23)
(0.691161 -0.00966011 -2.30724e-23)
(0.96599 0.00750546 -3.31362e-23)
(0.484454 0.028245 -7.45611e-21)
(-0.0974147 -0.0393707 3.60044e-21)
(0.0693923 0.034859 -1.22178e-20)
(0.960737 0.00545588 -4.78543e-23)
(0.94826 -0.0899466 -6.91125e-21)
(0.887198 -0.043513 -8.83604e-22)
(-0.0539568 0.119816 1.06653e-20)
(0.836731 -0.00714608 2.14835e-24)
(0.0274911 -0.0563591 -3.1227e-21)
(0.762754 -0.00648076 7.67894e-23)
(-0.0528042 -0.120118 6.71355e-21)
(0.988061 0.00598957 2.6917e-23)
(0.706914 -0.0127088 -1.91271e-23)
(-0.0474258 -0.0940264 1.90486e-20)
(-0.0296148 0.0665567 -1.37988e-20)
(0.753489 0.00150597 8.97827e-24)
(0.75709 -0.00417687 5.0223e-23)
(-0.0522767 0.0782586 -3.45786e-21)
(0.0526744 -0.00635982 -2.18805e-20)
(-0.117631 0.0157528 -3.67442e-21)
(0.723176 -0.0127488 -2.76745e-23)
(-0.0855568 0.0359333 6.89333e-21)
(0.659403 -0.0384378 -1.21882e-20)
(0.745956 -0.00275312 -1.02283e-23)
(1.02737 -0.0669098 1.49281e-20)
(1.00982 -0.00583235 1.85063e-23)
(1.01042 0.00487788 6.11694e-24)
(0.762984 -0.00331813 -1.24402e-23)
(0.78707 -0.00586403 -2.42278e-22)
(-0.117277 -0.0173402 -6.35855e-21)
(0.620451 0.030663 -3.37002e-23)
(-0.0988511 -0.0255515 -1.34545e-20)
(0.945925 -0.0424422 -2.70911e-21)
(0.694202 0.0104322 5.23269e-23)
(-0.0352096 -0.0838249 3.07805e-20)
(-0.0523383 -0.0851024 7.55585e-21)
(-0.0391199 0.0152411 9.45532e-21)
(-0.0536501 0.114269 6.63749e-21)
(0.558249 0.0391373 -8.64594e-22)
(0.993407 -0.00620589 -1.16805e-23)
(0.931954 -0.0333593 -2.81423e-22)
(0.740093 -0.000958847 5.89483e-23)
(-0.0232497 -0.00770591 -1.80215e-20)
(-0.159773 0.00108407 4.81677e-20)
(-0.0751682 0.0451804 2.647e-22)
(-0.0519248 0.0207497 -7.73093e-21)
(0.128465 0.0503546 1.92557e-20)
(0.699825 0.0386608 1.15496e-20)
(0.800018 -0.00568427 4.54711e-24)
(-0.0343146 0.0769631 1.96165e-20)
(-0.0536554 -0.101648 9.78515e-22)
(-0.0289942 0.0814272 -1.61929e-20)
(0.555827 -0.0251421 -1.04492e-20)
(1.01202 0.00395107 2.08467e-23)
(0.85861 0.0333626 9.75769e-21)
(0.030245 -0.0636495 1.1425e-20)
(0.339137 0.0953003 -1.49845e-20)
(0.0833199 -0.00476093 -1.62904e-20)
(-0.134947 -0.00566591 1.73888e-20)
(0.447354 -0.0267533 -4.25339e-22)
(0.78546 0.00547304 6.13734e-23)
(0.96212 0.0932091 1.34275e-21)
(0.145919 -0.00676072 6.88038e-21)
(0.749 0.00955854 1.80468e-23)
(0.917539 -0.0070067 -5.76741e-24)
(-0.131202 -0.00181346 6.20186e-21)
(-0.0459141 0.0874921 6.56648e-21)
(0.657976 0.102802 5.85463e-20)
(0.112713 0.0122122 -6.37349e-21)
(-0.138047 -0.00640679 1.45352e-20)
(0.0129609 0.0320255 1.15835e-20)
(0.055481 0.0299713 -2.58006e-20)
(0.894037 -0.00737737 1.51231e-24)
(0.644785 0.017953 3.58216e-23)
(0.0142717 -0.0696826 -2.51498e-20)
(0.568009 0.00696415 2.08987e-22)
(0.854142 0.0117361 -1.18431e-22)
(0.981796 -0.0080659 1.14593e-22)
(0.751526 0.000830196 3.18659e-23)
(0.916989 0.0186273 -8.13361e-23)
(-0.0461021 -0.110681 4.29898e-21)
(-0.0201353 0.025762 4.20721e-21)
(0.580422 0.0323893 -4.89369e-22)
(0.0546687 -0.0213127 -1.54874e-20)
(-0.0562525 0.0969496 -2.1178e-20)
(0.118473 0.0288805 -4.98256e-21)
(-0.14938 -0.00226173 -8.23923e-21)
(-0.016174 -0.0838408 -6.68362e-21)
(0.789772 -0.00894435 2.17628e-22)
(-0.161918 0.00402768 -2.31085e-20)
(0.779991 0.00548 -3.88253e-23)
(-0.0912868 0.0302501 -6.03975e-21)
(-0.123104 0.00258132 3.03235e-21)
(0.940331 -0.0102247 -7.66138e-23)
(0.0239724 0.0347847 -1.6024e-20)
(0.745462 0.00247986 -2.14502e-22)
(1.00548 0.00438942 -1.31404e-22)
(0.0151566 -0.0689218 -1.63229e-21)
(0.00698676 0.0319791 4.87574e-21)
(0.351315 0.0695661 2.20841e-21)
(-0.0687884 0.0641699 1.29356e-20)
(0.870427 -0.00858992 1.77625e-22)
(0.781268 -0.0923004 -6.61688e-21)
(-0.149367 0.00440246 -5.24109e-20)
(-0.0629288 -0.102869 2.25909e-20)
(-0.0352177 -0.0300547 -7.19332e-21)
(0.77973 0.00557278 5.73554e-23)
(0.787473 -0.00551771 -1.88579e-23)
(0.834332 0.00738187 3.3827e-23)
(-0.0317692 -0.0212897 3.47979e-21)
(1.0076 0.00566976 -2.46335e-23)
(0.344773 -0.0124729 -4.03107e-21)
(0.809672 0.00760912 -2.25183e-23)
(0.817237 -0.00649348 -8.58505e-24)
(-0.168636 -0.000856793 -3.83615e-21)
(-0.0389285 0.0912054 7.88027e-21)
(-0.0312489 0.0910185 -2.22173e-20)
(0.109032 -0.062441 7.17802e-21)
(0.953204 -0.00923693 -3.08378e-23)
(-0.0415923 0.0820045 -6.13603e-21)
(0.841301 -0.0088085 -2.24002e-22)
(0.888371 0.0329592 1.0417e-22)
(-0.133058 0.0100694 2.27582e-21)
(-0.161571 -0.000301619 -2.09461e-20)
(-0.163577 0.00268333 -8.38746e-21)
(0.391412 0.030499 -2.92566e-21)
(0.568884 0.0271459 -1.56851e-23)
(0.539168 0.0359255 -1.06898e-20)
(0.763008 -0.00355422 3.16287e-23)
(0.756782 0.00279444 -2.62467e-23)
(0.283242 0.0260909 -3.65981e-21)
(0.0237146 0.0611612 -9.62738e-21)
(0.984911 0.00582483 -1.6088e-23)
(0.168149 -0.0118487 2.25415e-20)
(-0.0561705 0.0886772 6.91302e-21)
(-0.154963 0.00365755 -1.65588e-20)
(-0.0722428 0.065975 -7.467e-21)
(-0.104008 0.0166687 6.70332e-20)
(0.978699 -0.00873696 -3.74391e-22)
(0.0753879 0.00489608 -7.35809e-21)
(0.966665 -0.00641575 1.21216e-23)
(0.750756 0.00279707 1.09746e-22)
(0.468606 -0.057068 1.84648e-20)
(-0.0528984 0.125608 -1.36567e-20)
(0.0433054 0.0593279 2.09206e-21)
(-0.126875 0.00247715 -1.51518e-20)
(-0.095269 0.0463253 1.19833e-20)
(-0.108773 -0.034078 1.30589e-20)
(0.528197 -0.0382704 1.62013e-21)
(0.958929 0.0167388 6.21002e-23)
(0.773212 -0.00756266 -6.63557e-23)
(0.0328056 0.0618023 -2.36297e-20)
(-0.164498 -0.00244179 1.1103e-20)
(0.0580227 -0.0524765 -1.80412e-20)
(-0.0455013 -0.118613 3.07226e-20)
(-0.16851 0.000279051 1.03847e-20)
(0.868227 0.00741539 -5.22908e-23)
(1.00623 0.00591309 -6.07021e-24)
(-0.165574 -0.00131344 4.7552e-21)
(0.322235 -0.00846422 -9.68657e-21)
(0.290226 -0.0026076 5.22788e-21)
(0.750781 0.0112391 1.39451e-22)
(-0.0337389 -0.101599 2.56273e-20)
(0.875099 -0.00913698 -1.74239e-23)
(0.606524 0.0171815 4.2021e-24)
(-0.0162468 -0.0797971 1.16655e-20)
(1.0041 0.00567829 -4.22446e-23)
(0.856144 -0.0394633 5.69217e-21)
(0.751988 -0.0354086 -5.91014e-21)
(-0.0296441 0.0951027 -2.46569e-20)
(0.982858 -0.0750985 1.17436e-22)
(-0.0530533 0.118018 -3.56489e-21)
(-0.0514345 -0.112019 1.01673e-21)
(0.215114 -0.00625823 -5.34837e-21)
(0.122584 -0.0493948 2.34009e-20)
(1.07552 0.0464465 -1.47691e-20)
(0.900293 0.0248584 1.31768e-23)
(0.958091 0.0174575 1.36038e-23)
(0.849272 -0.00901293 1.33759e-22)
(0.00437393 -0.0752649 1.81441e-20)
(-0.0704639 0.00204012 -8.45395e-20)
(-0.120145 -0.0264061 -1.58259e-20)
(0.25622 0.0049463 6.33077e-21)
(0.879489 -0.00839793 -8.9304e-23)
(1.05584 0.0640179 1.55738e-20)
(1.05223 -0.0613169 -2.58196e-21)
(0.933071 -0.045547 7.24035e-23)
(1.04562 -0.069831 -7.04388e-21)
(0.362392 0.0280654 9.80116e-22)
(0.933241 -0.0135678 2.29503e-22)
(0.824303 -0.00928846 1.88959e-22)
(0.924305 0.0114742 2.08325e-22)
(0.906316 -0.010783 7.58803e-23)
(0.748455 -0.000148499 3.55334e-23)
(0.0221006 -0.0442141 -2.80122e-21)
(0.897837 -0.0125593 -2.83301e-22)
(-0.0867445 0.0523615 -4.23972e-21)
(0.516135 0.0821336 -1.61222e-20)
(0.718507 -0.0107479 -5.17268e-22)
(0.0553147 0.0543751 -1.23327e-20)
(0.741783 0.00100632 -1.19472e-23)
(0.784051 0.00667021 -2.56156e-22)
(-0.0957246 -0.0010205 1.78553e-21)
(-0.135726 0.00565278 -2.16573e-21)
(0.0434985 -0.0404758 -9.68556e-21)
(0.773405 -0.00817763 4.89168e-23)
(0.712348 0.0122427 5.6315e-23)
(-0.050804 -0.0766398 -5.13321e-23)
(-0.0480588 0.0970141 5.33806e-22)
(0.979963 0.00562843 4.55508e-23)
(-0.0486337 0.113807 -2.22152e-20)
(0.961863 0.0144311 -1.86715e-23)
(1.00419 -0.00688458 3.98266e-23)
(0.821174 -0.0442277 2.52142e-21)
(0.915251 0.0202454 -2.48502e-24)
(0.826002 0.00705882 1.72977e-22)
(0.918541 -0.0784242 6.71096e-21)
(0.021344 -0.0386282 -1.70305e-21)
(0.00751568 -0.0573454 -4.56018e-20)
(0.215311 -0.0118874 8.39728e-21)
(-0.0657672 -0.0574206 8.37286e-21)
(-0.0501275 0.0202286 1.40968e-20)
(1.00189 -0.00765296 5.39269e-23)
(0.756767 -0.0023145 -6.21984e-25)
(0.928913 -0.0478143 5.34788e-22)
(0.335105 0.0228118 8.514e-21)
(-0.00816823 0.0776027 1.10376e-20)
(0.675293 -0.00599686 1.94488e-22)
(0.982176 0.00792591 -7.10681e-24)
(0.973988 -0.00876578 2.12018e-24)
(-0.0662828 -0.042508 -1.16554e-20)
(0.97091 -0.0085446 3.74611e-22)
(1.08295 -0.0403368 -6.66812e-21)
(0.432355 0.0236139 1.19656e-21)
(0.661589 -0.102443 -3.9426e-21)
(0.477358 -0.0292493 -8.1423e-22)
(-0.0591115 -0.0904121 -3.95128e-21)
(0.675923 -0.00731384 4.53931e-22)
(1.00475 -0.00599489 -1.37365e-22)
(0.869759 -0.00801709 2.75411e-22)
(0.610804 -0.0149971 6.55853e-24)
(0.761305 0.00312868 1.99078e-23)
(0.149454 -0.0118778 8.51963e-21)
(0.850269 -0.011346 -2.3241e-22)
(-0.0179079 0.00643181 -3.54853e-21)
(0.607097 0.0372097 -9.20316e-21)
(-0.0588053 0.02931 -1.08096e-21)
(0.639984 0.0859965 -4.10646e-22)
(-0.0633306 0.0500169 -1.08512e-21)
(-0.0364839 0.0160416 -2.18442e-20)
(0.853376 -0.034574 -1.92746e-21)
(0.747397 0.0488993 1.09786e-21)
(-0.130048 -0.00629677 7.48435e-20)
(0.389916 0.0918041 -1.00695e-20)
(0.21601 -0.0688858 -1.83331e-20)
(0.0316207 0.0376789 -5.02082e-21)
(-0.00313037 0.0708009 3.05478e-20)
(0.601671 0.106039 2.39502e-20)
(0.125865 0.0230424 -2.40127e-20)
(0.265824 0.0794263 1.81905e-20)
(0.809662 0.00996674 -4.19725e-24)
(0.861488 -0.0101548 -4.25879e-23)
(-0.0152865 -0.0174427 2.18969e-20)
(-0.0551472 -0.102426 -2.93811e-21)
(-0.0784862 -0.0144395 3.99715e-20)
(0.717846 0.0420689 1.14022e-23)
(0.217388 0.0799724 -3.08993e-20)
(0.489126 0.0118977 9.69249e-23)
(0.977133 -0.0280359 -4.26195e-23)
(0.619174 0.00676571 4.38854e-22)
(0.985941 -0.0183608 7.70813e-24)
(0.976697 -0.0722424 2.60334e-21)
(0.927722 0.0136829 1.71271e-23)
(0.897528 -0.0124444 -8.25594e-23)
(-0.139061 0.0138436 2.52171e-20)
(0.807901 -0.00873491 1.46624e-23)
(0.752442 0.00153007 6.20091e-23)
(0.40884 -0.0166502 3.04907e-20)
(0.49213 0.104879 6.77076e-21)
(0.930149 -0.0814281 2.31125e-21)
(1.00149 -0.00832016 6.28222e-23)
(0.496452 0.0281002 -4.11885e-22)
(0.0408862 -0.0522988 -5.49268e-21)
(0.60976 0.0267395 -3.59853e-22)
(0.769108 -0.0063582 -7.13065e-23)
(0.960403 0.0155932 -9.46732e-24)
(0.746144 -0.108234 -1.41402e-20)
(0.524405 0.0730863 1.93093e-21)
(0.842742 -0.100682 -4.38082e-21)
(0.964933 0.0130474 2.37957e-23)
(0.648121 0.0828136 -3.18959e-23)
(0.181831 0.0136595 -1.87081e-21)
(0.734071 0.00263599 3.88411e-23)
(0.746201 0.000776244 -4.26771e-23)
(0.0879705 0.00665447 -8.19404e-21)
(-0.104364 -0.0368137 9.1687e-21)
(-0.0357744 -0.100715 -3.26467e-20)
(0.327285 -0.0202259 9.51434e-21)
(0.0487703 -0.0539177 -9.83404e-23)
(0.768281 0.0839297 9.46156e-22)
(-0.0129921 0.0706713 2.07625e-20)
(0.487051 0.04503 -4.14197e-22)
(0.67983 0.0318694 -7.3849e-23)
(0.904629 0.0280585 1.69922e-22)
(0.71491 0.0260689 -4.20046e-23)
(0.272997 0.0933055 1.23415e-20)
(0.780266 -0.0268449 -1.1486e-23)
(0.99885 -0.00703757 -1.92442e-22)
(0.987044 -0.0173827 -4.43124e-23)
(0.122506 0.0624944 1.71318e-20)
(-0.171268 0.00086893 3.09345e-20)
(0.552716 -0.0732839 -1.08879e-21)
(0.977746 -0.0702097 -6.02461e-22)
(0.459644 0.0133924 -3.62035e-22)
(0.631553 -0.0529986 3.88694e-22)
(0.42118 0.0103395 -2.68853e-22)
(0.464613 0.00847541 4.76004e-22)
(0.196517 0.0132245 1.14208e-20)
(0.492337 0.00742656 -2.51152e-22)
(0.133059 0.0140795 1.61897e-20)
(0.675052 -0.052759 1.17638e-21)
(0.776317 0.0274337 -1.41503e-22)
(0.585304 -0.0575832 -4.39747e-21)
(0.527675 0.003222 -5.15636e-23)
(0.774643 0.0136665 2.67125e-22)
(0.551634 0.00533855 -7.16222e-24)
(0.775931 0.0264954 3.07252e-23)
(0.508727 0.0794007 -4.51936e-21)
(0.868569 0.018414 -2.97884e-23)
(0.574835 0.00220954 -3.75113e-22)
(0.39522 0.0572909 -6.66657e-21)
(0.65368 0.080224 1.3589e-21)
(0.602556 0.00509823 -4.77421e-22)
(0.792214 -0.0166191 -4.91757e-24)
(0.431163 0.00440744 6.07671e-22)
(0.386045 7.31821e-07 3.01042e-22)
(0.341995 -0.00258119 5.12017e-22)
(0.278111 0.00636156 -5.39273e-21)
(0.22146 0.00977267 -6.62449e-21)
(0.472641 0.00216938 -3.40237e-22)
(0.151134 0.00158977 -1.36534e-20)
(0.499258 0.00188293 -2.77818e-23)
(0.642987 -0.0577845 7.63784e-22)
(0.537222 2.98529e-05 -1.75178e-23)
(0.706632 -0.0521489 -1.57549e-22)
(0.555841 0.00200494 1.82021e-23)
(0.664958 -0.0198764 -1.30365e-23)
(0.720474 -0.0245712 8.10617e-23)
(0.584202 0.000998479 -2.78901e-22)
(0.617932 0.00393659 -2.17035e-22)
(0.605695 0.000758112 1.3626e-22)
(0.952777 -0.0205025 -1.58428e-22)
(0.816331 0.0179607 1.1219e-23)
(-0.163053 -0.000430636 -2.69279e-20)
(0.948022 -0.00803986 -5.21377e-23)
(0.819569 -0.0171845 6.31687e-23)
(0.811321 0.0195135 3.09994e-24)
(0.621063 0.000755909 2.18521e-22)
(0.818972 -0.00750507 2.57143e-22)
(0.563288 -0.0398476 1.91611e-21)
(0.632214 0.00226155 -5.05147e-23)
(0.399056 0.0152096 1.28508e-21)
(0.350628 0.013651 3.97358e-22)
(0.516813 0.0117444 3.55596e-22)
(0.640561 -0.00111388 -1.95833e-22)
(0.814021 0.0173394 -4.53696e-23)
(0.738752 -0.00437775 -9.79158e-24)
(0.840266 -0.0688997 -1.44101e-21)
(0.860343 -0.0544241 -8.74439e-22)
(0.0875869 -0.0203415 2.98889e-20)
(0.939485 -0.011038 -1.41659e-22)
(0.439082 -0.0183167 -3.0258e-22)
(0.656586 0.000289112 -1.19851e-22)
(0.615525 -0.0140817 -1.41209e-23)
(0.755858 -0.00624089 -1.22991e-22)
(0.82049 0.0169406 9.02675e-23)
(0.276735 0.0319432 -1.01951e-22)
(0.65992 0.0188455 -3.52477e-22)
(0.0100522 0.0039298 -4.65452e-21)
(0.648828 0.00553349 6.87181e-23)
(0.894843 -0.00817125 -6.34665e-23)
(0.83269 0.0110778 -3.26301e-23)
(0.994522 -0.00569795 -1.11732e-22)
(0.668117 0.00142985 2.91728e-23)
(0.703038 0.0352734 1.27592e-22)
(-0.0540687 0.0836252 -1.53397e-20)
(0.970793 -0.00821013 1.3103e-22)
(0.66517 0.00557429 7.48904e-24)
(0.115681 -0.00512487 8.53743e-21)
(0.670805 0.000792288 1.51874e-22)
(0.81576 0.0111844 -1.74646e-23)
(0.784043 0.00907985 9.86033e-23)
(0.395285 -0.0274186 -4.01886e-20)
(0.789596 0.0119153 1.2686e-22)
(1.00955 -0.00562693 -4.78934e-23)
(0.520845 0.0759506 2.35748e-21)
(0.814384 0.0182901 -1.85961e-23)
(0.015192 0.0576093 4.76895e-21)
(0.660731 -0.064645 -3.7348e-21)
(0.700172 -0.0562036 -3.78756e-21)
(0.251101 0.0109107 -3.49097e-21)
(0.30382 0.0037692 -6.20652e-21)
(0.174733 -0.0182075 3.37414e-20)
(0.763815 0.0141029 -2.5487e-22)
(0.484587 -0.00189063 7.99251e-22)
(0.498327 0.02644 -2.58732e-22)
(0.413908 0.0311624 1.98262e-21)
(0.510909 -0.000575189 3.2e-22)
(0.846292 0.0459005 -3.84739e-22)
(0.565641 0.000590476 1.98139e-22)
(0.353907 0.0916724 -3.47592e-20)
(0.591871 0.00412676 1.86262e-22)
(0.68577 0.000583816 1.04206e-22)
(0.231518 -0.00192889 -4.95461e-21)
(0.287982 -0.00693778 3.02533e-21)
(0.316948 0.0455806 8.2642e-21)
(-0.103756 -0.0155748 -1.69106e-20)
(0.734478 -0.0501302 1.92109e-21)
(0.806947 0.0111153 7.18881e-23)
(0.231189 0.0794022 1.72294e-20)
(0.701048 0.0563591 -6.2725e-22)
(0.71964 0.0232787 -1.70306e-22)
(0.61314 -0.00164755 7.2954e-23)
(0.560693 -0.00273725 2.16724e-23)
(-0.0455401 0.0462525 3.30767e-21)
(0.897713 0.00751723 3.04533e-23)
(0.662688 -0.0461601 -1.3393e-21)
(0.681519 0.00371167 5.99306e-23)
(0.919342 0.0164165 -2.20185e-23)
(0.656808 0.0108392 -1.42583e-22)
(0.684702 0.00577015 -1.20606e-22)
(0.683013 0.00209601 -8.64132e-23)
(0.628716 -0.00229712 -1.6735e-22)
(0.831551 -0.0182499 -4.04031e-23)
(0.72488 -0.0233626 -2.54883e-23)
(0.751904 -0.014057 2.46335e-23)
(0.662467 0.00157936 1.01915e-22)
(0.823736 -0.016448 -3.83215e-23)
(0.00987959 0.0477599 1.70302e-20)
(0.552627 0.0163916 6.87829e-23)
(0.805186 -0.0105098 -1.48079e-22)
(0.623823 0.0137285 1.78951e-22)
(0.643019 0.0103973 2.90805e-22)
(0.852774 -0.0169458 1.6372e-22)
(0.176014 -0.0284653 -1.46753e-20)
(0.681273 0.0440173 2.31717e-22)
(0.593115 0.0531607 -4.7145e-22)
(0.747048 0.0349816 1.22142e-22)
(0.762474 0.0147548 1.66683e-22)
(0.82041 0.0116815 -2.69755e-22)
(0.812038 0.0170063 2.77676e-23)
(0.777465 -0.0152963 -2.67833e-23)
(0.386213 -0.0958039 -5.45244e-21)
(0.742792 -0.067996 8.02163e-21)
(0.28906 -0.0232718 -1.85222e-21)
(0.823538 -0.0328186 2.21484e-22)
(0.690865 0.00328831 -1.34883e-23)
(0.518875 -0.0122302 1.86206e-22)
(-0.0432207 0.105529 8.75868e-21)
(0.653229 0.0446453 -4.15208e-22)
(0.976721 0.0299791 -2.6478e-22)
(0.973234 0.0464188 3.54871e-22)
(0.994842 0.0117425 -3.29027e-24)
(0.990017 0.0154597 -4.70806e-23)
(0.974699 -0.055286 -2.28891e-21)
(0.984834 -0.0192966 1.07565e-22)
(0.986861 0.0184118 -6.3075e-25)
(1.0022 0.00869911 5.29919e-23)
(0.978772 -0.0265356 9.3026e-23)
(0.998439 0.0103424 -6.23216e-23)
(0.989251 -0.0145682 -9.43969e-23)
(0.996332 0.0110558 4.79815e-23)
(0.99706 0.00836702 2.3252e-22)
(1.00444 0.00785207 -5.16924e-25)
(0.983616 0.0197278 -3.60344e-23)
(0.975985 -0.0299477 9.98775e-23)
(0.988604 -0.0164395 -7.10284e-23)
(0.988537 0.0170102 -6.24741e-23)
(0.980152 -0.0669121 1.65716e-21)
(0.671063 0.00890019 4.89839e-23)
(0.637762 -0.00786633 1.99334e-22)
(0.11728 0.00483362 -2.53107e-20)
(0.193315 -0.0137481 -1.0198e-20)
(1.00104 -0.00711549 2.42478e-22)
(0.945574 0.00619066 6.49634e-23)
(0.732359 0.0118897 -6.78182e-22)
(0.688298 -0.0734342 1.07531e-21)
(0.357955 -0.000780601 1.70403e-22)
(0.578044 0.0548877 -3.18229e-22)
(0.401439 -0.00153872 -3.6153e-22)
(0.708826 0.024522 2.51006e-23)
(0.979143 0.0260645 -4.81446e-22)
(0.976527 0.0285643 -4.75023e-23)