/*--------------------------------*- C++ -*----------------------------------*\
  =========                 |
  \\      /  F ield         | OpenFOAM: The Open Source CFD Toolbox
   \\    /   O peration     | Website:  https://openfoam.org
    \\  /    A nd           | Version:  10
     \\/     M anipulation  |
\*---------------------------------------------------------------------------*/
FoamFile
{
    format      ascii;
    class       volScalarField;
    location    "850";
    object      epsilon;
}
// * * * * * * * * * * * * * * * * * * * * * * * * * * * * * * * * * * * * * //

dimensions      [0 2 -3 0 0 0 0];

internalField   nonuniform List<scalar> 
10435
(
0.0190352
0.0454429
0.0742347
0.0390203
0.22627
0.403708
0.0463128
0.015055
0.00932933
0.270507
0.0805108
0.0496011
0.214986
0.0190058
0.0183719
0.0339363
0.0195805
0.333121
0.00782314
0.0203619
0.02202
0.0276977
0.0515028
0.0164428
0.190543
0.00683064
0.0120111
0.118724
0.010905
0.322996
0.100701
0.106687
0.0124657
0.0113294
0.0210097
0.0224394
0.0302178
0.012849
0.0042576
0.0105565
0.399696
0.0527569
0.0151938
0.0310957
0.0461808
0.0138179
0.39883
0.0143438
0.00747955
0.0198981
0.0181104
0.205524
0.00417878
0.00823258
0.00482375
0.00968913
0.0262122
0.0139069
0.018631
0.0181498
0.00483471
0.0348968
0.0138157
0.19661
0.0500298
0.104966
0.0167098
0.0170694
0.0184142
0.0177556
0.00797573
0.00975963
0.00976129
0.0863564
0.0178295
0.0139809
0.0193279
0.0351961
0.0102339
0.0164716
0.0206583
0.0152518
0.00412356
0.00853682
0.0208373
0.0200822
0.0221333
0.0398865
0.0177837
0.0251024
0.0475408
0.056685
0.0156151
0.0185943
0.0289808
0.0190593
0.060656
0.0177649
0.0191043
0.089771
0.0176318
0.397159
0.0200013
0.033816
0.420384
0.0352167
0.0161982
0.0203315
0.0210451
0.015815
0.0190347
0.35404
0.0151507
0.0153631
0.0877954
0.0259363
0.0895809
0.0229342
0.049897
0.0603747
0.0834813
0.010845
0.0269995
0.0132907
0.190181
0.00588828
0.0607791
0.0113819
0.142438
0.0116003
0.0122796
0.140619
0.0240284
0.0172429
0.011115
0.00420582
0.0169912
0.0412974
0.0400638
0.0238629
0.0219733
0.0714026
0.0148102
0.102407
0.0288267
0.0164813
0.0146891
0.274523
0.0190255
0.0672324
0.0120937
0.0417469
0.0222955
0.0760877
0.263198
0.00946909
0.246067
0.0326029
0.277048
0.0701026
0.0622256
0.0180256
0.079375
0.0311278
0.017439
0.123716
0.0126353
0.0422514
0.0301518
0.135877
0.19471
0.00795785
0.0108494
0.0166416
0.0463166
0.0492788
0.0274836
0.0188317
0.017999
0.0124193
0.0602761
0.405712
0.0610356
0.00551304
0.0652333
0.0124442
0.012244
0.0292889
0.263537
0.143537
0.0679301
0.00414953
0.010826
0.0206534
0.302543
0.0228592
0.0170259
0.0181949
0.0168832
0.0331246
0.0178064
0.012933
0.15905
0.0139754
0.118232
0.124448
0.0629027
0.041982
0.0143835
0.029277
0.0101083
0.0568379
0.0903598
0.0349226
0.011999
0.0185212
0.0172273
0.00600712
0.00690933
0.0187165
0.0113324
0.0198372
0.0161525
0.0154424
0.00826241
0.0229738
0.00546067
0.0171255
0.133827
0.0139314
0.0189643
0.0166728
0.00613892
0.0385785
0.0126317
0.0198338
0.024419
0.00798652
0.0243753
0.136561
0.0276301
0.00705114
0.00682028
0.00933347
0.101494
0.00993612
0.0168681
0.0186687
0.00838915
0.0353982
0.00797233
0.0182464
0.240738
0.0297345
0.0239731
0.186395
0.00736609
0.029031
0.0085116
0.0132809
0.0354827
0.180261
0.00682739
0.0237557
0.0174284
0.019539
0.0247111
0.0783124
0.0050507
0.135176
0.0443284
0.0139694
0.0193166
0.163474
0.00774837
0.0598063
0.0120345
0.203978
0.0294714
0.0120329
0.2277
0.017776
0.0561312
0.0168269
0.0190591
0.00508576
0.278819
0.00484312
0.00881973
0.011821
0.0155566
0.100361
0.0143684
0.0161645
0.00433634
0.00779149
0.016608
0.0180459
0.172726
0.123827
0.0174699
0.0255052
0.0707202
0.00932691
0.138775
0.0180989
0.019366
0.0356056
0.114942
0.00898576
0.0170272
0.011325
0.0263952
0.290148
0.0120287
0.00813013
0.00607111
0.0974978
0.018057
0.0441099
0.434561
0.0125148
0.0204014
0.00417597
0.0103845
0.165791
0.00865143
0.089483
0.0181255
0.0130481
0.0134358
0.0130873
0.00902626
0.0611149
0.0526982
0.0149831
0.00853545
0.00855021
0.0100898
0.0104745
0.0094317
0.00964039
0.00481152
0.0107669
0.0103459
0.0112272
0.0159334
0.0127395
0.00420202
0.00897677
0.00931413
0.157494
0.0115498
0.114481
0.00912904
0.00663754
0.21231
0.0778383
0.00881538
0.0101365
0.00860191
0.00601151
0.0101162
0.00503401
0.0117432
0.0101391
0.0155108
0.0407407
0.00992153
0.00831853
0.00538325
0.0109002
0.246604
0.00578072
0.00539478
0.011843
0.0131728
0.0123793
0.0098974
0.00769942
0.0137974
0.00513616
0.0112479
0.0164273
0.0156399
0.00818574
0.146233
0.182696
0.00746129
0.0925926
0.0158081
0.0142287
0.00984524
0.0102315
0.00834799
0.0751553
0.00938161
0.253497
0.0133101
0.0127203
0.0114393
0.013956
0.00695204
0.0389673
0.0127202
0.0131655
0.0335868
0.00782734
0.00846956
0.0125612
0.00629247
0.0124773
0.00916964
0.00792088
0.00994509
0.0153566
0.0113291
0.0895407
0.00803202
0.00879417
0.0112548
0.0121359
0.32614
0.00590256
0.00461384
0.0049223
0.00998844
2.08832e-05
1.96997e-05
1.83011e-05
1.68452e-05
1.5456e-05
1.4075e-05
1.26808e-05
1.12209e-05
9.6376e-06
2.18303e-05
2.04391e-05
1.88128e-05
1.71822e-05
1.56287e-05
1.41282e-05
1.26496e-05
1.11707e-05
9.69019e-06
2.31592e-05
2.15048e-05
1.96259e-05
1.77868e-05
1.60519e-05
1.44033e-05
1.28152e-05
1.12758e-05
9.80083e-06
2.50524e-05
2.30707e-05
2.08839e-05
1.87876e-05
1.68288e-05
1.49906e-05
1.32493e-05
1.1594e-05
1.00353e-05
2.77433e-05
2.53595e-05
2.27793e-05
2.03488e-05
1.80974e-05
1.60062e-05
1.40495e-05
1.22104e-05
1.04818e-05
3.15737e-05
2.86833e-05
2.55819e-05
2.27012e-05
2.00537e-05
1.76167e-05
1.53595e-05
1.32588e-05
1.12981e-05
3.70801e-05
3.34968e-05
2.96791e-05
2.61782e-05
2.29847e-05
2.00692e-05
1.73935e-05
1.49317e-05
1.26696e-05
4.51344e-05
4.04595e-05
3.56334e-05
3.12707e-05
2.73199e-05
2.37361e-05
2.04715e-05
1.74993e-05
1.48142e-05
5.69187e-05
5.04887e-05
4.42639e-05
3.87124e-05
3.37117e-05
2.91893e-05
2.50852e-05
2.13668e-05
1.80297e-05
7.37395e-05
6.48235e-05
5.6767e-05
4.96078e-05
4.31582e-05
3.73154e-05
3.20087e-05
2.71938e-05
2.28481e-05
9.69612e-05
8.51649e-05
7.48978e-05
6.56172e-05
5.71826e-05
4.94868e-05
4.24634e-05
3.60612e-05
3.02469e-05
0.000128156
0.000114004
0.000101253
8.92126e-05
7.8074e-05
6.77939e-05
5.8339e-05
4.96652e-05
4.17495e-05
0.000169405
0.00015531
0.000139691
0.000124001
0.000109173
9.53165e-05
8.24551e-05
7.05622e-05
5.96552e-05
0.000231433
0.000215886
0.000195817
0.000175003
0.000155109
0.000136358
0.000118801
0.000102424
8.72965e-05
0.000326432
0.000304274
0.000276627
0.0002485
0.000221752
0.000196474
0.000172632
0.000150156
0.000129044
0.000465476
0.000428436
0.000389158
0.000351229
0.000315678
0.000282123
0.000250291
0.000220021
0.0001913
0.0006516
0.000592586
0.000538711
0.00048918
0.000443296
0.000399986
0.000358619
0.00031893
0.000281051
0.000873439
0.000795724
0.000728006
0.000666873
0.000610232
0.000556472
0.000504565
0.000454019
0.000404903
0.00112557
0.0010367
0.000958793
0.000887975
0.000821635
0.000757956
0.000695541
0.000633569
0.000571829
0.00141099
0.00131831
0.0012344
0.00115688
0.00108324
0.00101158
0.000940091
0.000867564
0.000793718
0.0017391
0.00164742
0.00156073
0.00147967
0.00140222
0.00132601
0.00124849
0.0011676
0.00108241
0.00212284
0.00203303
0.0019452
0.00186384
0.00178723
0.00171167
0.00163335
0.0015489
0.00145638
0.0025792
0.00248433
0.00239518
0.00231726
0.00224777
0.0021803
0.00210917
0.00202927
0.00193789
0.00312715
0.00300785
0.0029157
0.0028467
0.0027931
0.00274383
0.00269093
0.002627
0.00254853
0.00377772
0.0036015
0.00350899
0.00345837
0.00343314
0.00341475
0.00339379
0.00336165
0.0032971
0.000564039
0.000552302
0.000544004
0.000539143
0.000537707
0.00053961
0.000544734
0.000552882
0.000563838
0.000577296
0.000592935
0.000610387
0.000629233
0.000649043
0.000669294
0.000689447
0.000708919
0.000727099
0.00074338
0.000757164
0.000767824
0.000774653
0.000776581
0.000771961
0.000760795
0.000744602
0.000723884
0.000698213
0.000667661
0.000633982
0.000597899
0.000559735
0.00051993
0.000479253
0.00043838
0.000397924
0.000358439
0.000320414
0.000284265
0.000250325
0.000218829
0.000189922
0.000163642
0.000139943
0.000118781
0.000100128
8.39339e-05
7.0117e-05
5.85485e-05
4.90558e-05
4.14191e-05
3.5391e-05
3.07233e-05
2.71841e-05
2.45741e-05
2.273e-05
2.15265e-05
2.08726e-05
2.0697e-05
0.000591644
0.000581718
0.000575001
0.000571521
0.000571251
0.000574113
0.000579961
0.000588585
0.000599686
0.000612864
0.000627604
0.000643386
0.000659912
0.000676841
0.000693787
0.000710319
0.000725971
0.00074026
0.000752692
0.000762774
0.000770013
0.00077389
0.000773809
0.000769014
0.000758834
0.000743018
0.00072173
0.000695518
0.000665301
0.000632021
0.000596297
0.000558602
0.000519431
0.000479348
0.000438936
0.000398772
0.000359397
0.000321298
0.000284895
0.000250533
0.000218475
0.000188906
0.000161935
0.000137618
0.000115986
9.70502e-05
8.07705e-05
6.70603e-05
5.57381e-05
4.65501e-05
3.92157e-05
3.34583e-05
2.90172e-05
2.566e-05
2.31891e-05
2.1442e-05
2.02954e-05
1.96617e-05
1.94709e-05
0.000608736
0.00060045
0.000594768
0.000591678
0.000591137
0.000593078
0.000597397
0.000603958
0.000612585
0.000623052
0.000635079
0.000648335
0.000662461
0.000677081
0.000691794
0.00070618
0.000719794
0.000732178
0.000742857
0.000751348
0.000757143
0.000759699
0.000758422
0.000752711
0.000742111
0.000726448
0.000705824
0.000680613
0.00065145
0.000619084
0.000584184
0.00054732
0.000509033
0.000469875
0.000430396
0.000391131
0.000352582
0.000315202
0.000279386
0.000245467
0.000213713
0.000184335
0.000157494
0.000133307
0.000111855
9.31636e-05
7.71922e-05
6.38187e-05
5.28395e-05
4.39897e-05
3.69765e-05
3.15013e-05
2.72934e-05
2.41168e-05
2.17751e-05
2.01132e-05
1.90129e-05
1.83909e-05
1.81807e-05
0.000600141
0.000592437
0.000587159
0.00058426
0.000583657
0.000585247
0.000588902
0.000594472
0.000601786
0.000610643
0.000620815
0.000632043
0.000644047
0.000656518
0.000669117
0.000681475
0.000693194
0.000703846
0.000712978
0.000720112
0.000724745
0.000726357
0.000724421
0.000718442
0.00070804
0.000693027
0.000673456
0.000649627
0.000622042
0.000591312
0.000558058
0.00052287
0.000486309
0.000448917
0.000411221
0.000373714
0.000336857
0.000301069
0.000266718
0.000234124
0.000203559
0.00017525
0.000149384
0.000126105
0.000105507
8.76203e-05
7.2395e-05
5.96974e-05
4.93157e-05
4.09829e-05
3.44083e-05
2.92955e-05
2.53724e-05
2.24097e-05
2.02213e-05
1.86617e-05
1.76216e-05
1.70234e-05
1.68051e-05
0.000576523
0.000569416
0.000564549
0.000561865
0.000561274
0.000562662
0.000565891
0.000570805
0.000577234
0.000584989
0.000593864
0.000603636
0.00061406
0.000624869
0.000635765
0.000646422
0.000656482
0.000665555
0.000673221
0.000679036
0.000682533
0.000683239
0.000680694
0.000674485
0.000664305
0.000650005
0.000631617
0.000609364
0.000583631
0.000554911
0.000523748
0.000490699
0.000456311
0.000421115
0.000385614
0.000350279
0.000315541
0.000281795
0.000249396
0.000218653
0.000189836
0.000163174
0.000138856
0.000117024
9.77627e-05
8.10879e-05
6.69358e-05
5.51636e-05
4.5559e-05
3.78624e-05
3.1793e-05
2.70747e-05
2.34561e-05
2.07227e-05
1.87008e-05
1.7255e-05
1.62834e-05
1.57143e-05
1.54905e-05
0.000538384
0.000531495
0.000526735
0.000524045
0.000523334
0.00052448
0.000527337
0.000531745
0.000537527
0.000544492
0.000552441
0.00056116
0.00057042
0.000579973
0.00058955
0.000598853
0.000607558
0.000615312
0.000621739
0.000626442
0.00062901
0.000629024
0.000626087
0.000619857
0.000610076
0.000596625
0.000579529
0.000558972
0.000535261
0.000508804
0.000480075
0.000449576
0.000417827
0.000385332
0.000352563
0.000319966
0.000287943
0.000256859
0.000227056
0.000198824
0.000172415
0.000148039
0.000125864
0.000106012
8.85465e-05
7.34625e-05
6.06852e-05
5.007e-05
4.14139e-05
3.44754e-05
2.8998e-05
2.47332e-05
2.14559e-05
1.89748e-05
1.71343e-05
1.58128e-05
1.4918e-05
1.43853e-05
1.41635e-05
0.000488843
0.000482158
0.000477454
0.000474683
0.000473767
0.000474593
0.000477022
0.000480899
0.000486049
0.000492286
0.000499413
0.000507226
0.000515504
0.000524013
0.000532499
0.000540692
0.000548293
0.000554973
0.0005604
0.000564218
0.000566066
0.00056558
0.000562433
0.000556346
0.000547093
0.000534592
0.000518877
0.000500111
0.000478542
0.000454512
0.000428442
0.000400779
0.000372023
0.000342649
0.000313082
0.000283742
0.000254989
0.000227155
0.000200564
0.000175467
0.000152072
0.00013055
0.00011103
9.36013e-05
7.82982e-05
6.50962e-05
5.39152e-05
4.46175e-05
3.70213e-05
3.09156e-05
2.60795e-05
2.22999e-05
1.93843e-05
1.71684e-05
1.55176e-05
1.43261e-05
1.35139e-05
1.30233e-05
1.28083e-05
0.000426153
0.000419438
0.000414568
0.000411526
0.000410256
0.000410662
0.000412615
0.000415971
0.000420554
0.000426166
0.000432642
0.00043975
0.000447278
0.000454991
0.000462661
0.000470068
0.000476942
0.000482943
0.000487783
0.000491095
0.000492563
0.000491861
0.000488777
0.000483117
0.00047463
0.000463308
0.000449184
0.000432429
0.000413193
0.000391782
0.000368595
0.000344046
0.000318658
0.000292877
0.000267017
0.000241487
0.000216605
0.000192646
0.000169925
0.000148598
0.000128818
0.000110695
9.4309e-05
7.9709e-05
6.69056e-05
5.5851e-05
4.64761e-05
3.86536e-05
3.2231e-05
2.70368e-05
2.28952e-05
1.96374e-05
1.71094e-05
1.51787e-05
1.37349e-05
1.26896e-05
1.19747e-05
1.15404e-05
1.13462e-05
0.000346895
0.000339939
0.000334737
0.000331348
0.000329768
0.000329886
0.000331541
0.000334476
0.000338713
0.000344266
0.000350588
0.000357479
0.000364645
0.000371779
0.000378894
0.00038574
0.000392355
0.000398641
0.000403766
0.00040712
0.00040853
0.000407856
0.000405131
0.000400161
0.000392837
0.000383083
0.000370988
0.000356649
0.000340043
0.000321362
0.000301216
0.000280063
0.00025844
0.000236752
0.000215243
0.000193929
0.000173261
0.000153961
0.000135854
0.000118869
0.000103214
8.89496e-05
7.60862e-05
6.46042e-05
5.44855e-05
4.57476e-05
3.83145e-05
3.21203e-05
2.70082e-05
2.2801e-05
1.93805e-05
1.66515e-05
1.45183e-05
1.28829e-05
1.16562e-05
1.07724e-05
1.01766e-05
9.82509e-06
9.68061e-06
0.00788391
0.00702305
0.00625521
0.00555332
0.00490462
0.00430567
0.00375579
0.00325551
0.00280337
0.00239654
0.00204784
0.0017667
0.00154953
0.0013837
0.00124662
0.00112687
0.00102392
0.000937944
0.000869779
0.000817736
0.00077576
0.000737788
0.000698753
0.000654164
0.000599413
0.00753622
0.00686368
0.00616614
0.00548575
0.00484009
0.00423767
0.00368375
0.00318042
0.00272856
0.00233071
0.00199125
0.00171098
0.00148559
0.00130693
0.00116491
0.00105137
0.000960991
0.000889891
0.000834948
0.000792986
0.000760004
0.000731453
0.000702793
0.000669345
0.000625786
0.00758488
0.00685304
0.00612605
0.0054244
0.00476096
0.0041447
0.00358141
0.00307398
0.00262428
0.00223383
0.00190256
0.00162774
0.00140439
0.00122612
0.00108611
0.000978049
0.000896309
0.000835765
0.000791808
0.000760238
0.00073691
0.000717451
0.000697324
0.000671974
0.000636919
0.00771226
0.00687973
0.0060908
0.00534918
0.00466009
0.00402826
0.00345721
0.00294876
0.00250355
0.00212094
0.00179835
0.00153132
0.00131433
0.00114156
0.00100724
0.000905784
0.000831682
0.000779499
0.000744104
0.000720784
0.000705071
0.000692443
0.000678232
0.000657807
0.000626522
0.0078545
0.00692329
0.00606244
0.00527128
0.0045506
0.00390089
0.00332213
0.00281351
0.0023733
0.00199857
0.00168492
0.00142679
0.00121819
0.00105327
0.000926427
0.000832265
0.000765349
0.000720255
0.000691731
0.000674816
0.000664768
0.000656885
0.000646468
0.000629117
0.000601017
0.0079767
0.00695563
0.00602215
0.00517947
0.00442643
0.00375942
0.00317424
0.00266676
0.00223254
0.00186649
0.00156274
0.00131481
0.00111618
0.000960674
0.000842516
0.000756188
0.000696266
0.000657408
0.000634423
0.000622329
0.000616321
0.000611689
0.00060383
0.000588553
0.000562165
0.00808948
0.00697256
0.00596147
0.00506614
0.00428217
0.00360019
0.00301084
0.00250635
0.00207964
0.00172363
0.00143118
0.001195
0.00100791
0.000863172
0.000754632
0.000676566
0.000623521
0.000590293
0.000571867
0.000563388
0.000560134
0.000557528
0.000551143
0.000537025
0.000511904
0.00821268
0.00696596
0.00586712
0.00492035
0.00411014
0.00341798
0.00282818
0.0023293
0.00191224
0.00156817
0.00128883
0.00106622
0.000892555
0.000760017
0.000662047
0.000592691
0.000546459
0.000518376
0.000503726
0.000497888
0.000496279
0.000494572
0.000488509
0.000474335
0.000449229
0.00831505
0.00690772
0.00571866
0.0047293
0.00390298
0.00320847
0.00262387
0.00213339
0.00172805
0.00139834
0.00113394
0.000927067
0.000769459
0.000650755
0.000564357
0.000504236
0.000464701
0.000441263
0.000429755
0.000425871
0.000424922
0.000423172
0.000415958
0.000398933
0.000370699
0.303847
0.28
4.91392
0.0551523
0.000161541
0.000229197
0.0273948
1.96406e-05
4.97859
1.4766e-05
3.5678
6.56774e-05
0.00141013
0.00030406
0.0200061
0.000205732
5.33685
0.0370965
9.16343e-06
0.143631
0.00129254
9.01954e-05
3.69849
0.000708554
1.35463e-05
3.14018e-05
1.36479e-05
0.00382635
0.579889
3.91396
8.37144e-06
5.39929e-05
2.50432
0.00268838
3.62384
0.000104685
0.00974775
0.0204768
0.010182
9.90994e-05
3.73298
2.90301e-05
6.30466e-05
0.0122769
0.00213433
0.000142358
5.75693
6.38384
1.08442
1.24338
5.28418
2.79177
0.00105873
0.0299774
0.0248339
4.56935
0.000238188
0.00096278
4.60277e-05
2.59283
0.00020866
4.76257
0.000156731
0.000140664
2.05975e-05
0.011759
3.57469e-05
0.00292852
0.00153755
1.12806
4.11324
0.000127895
6.42168e-05
0.124776
1.47118e-05
0.00114378
0.0771351
5.46748
1.13396e-05
0.0209906
0.002362
0.000340529
2.58109e-05
3.68357
0.000167311
0.000226959
5.02718e-05
5.18411
2.54988
0.000386695
0.000895389
9.27405e-05
3.66069e-05
7.24925e-05
8.65515e-05
3.57679
3.29662e-05
4.12781
6.06268e-05
2.46174
0.00118392
3.65591
0.00143744
0.000128364
3.9342e-05
0.00193257
3.84954
0.00228685
9.84835e-05
3.92561
9.73847e-05
7.22235e-05
3.68979
0.000120043
0.00100408
1.04328
2.35539
8.11187e-05
0.00114023
4.82542e-05
3.13942e-06
6.32319e-05
0.000682145
1.39273e-05
2.67561
6.00307e-05
2.84214
0.0550781
1.95331e-05
6.35292
2.36982e-05
0.114585
1.17775
0.00716865
0.00526628
5.11503e-05
0.00195059
0.0006524
0.000176878
0.176287
8.44672e-05
0.00940492
2.83234
3.3221e-06
0.743398
0.000264204
0.0838273
0.0122977
0.000207323
3.91167
0.00275729
0.000135608
0.0834623
0.0304864
1.5893e-05
3.56282
3.27946e-05
8.14747e-05
0.0668703
3.22736e-05
6.67259e-05
4.47395
8.63429e-05
4.4113
6.06949e-05
4.62399
0.000321778
1.41832e-05
0.000286042
3.93721e-05
0.000248144
0.000149536
0.00313358
4.0526
3.41604e-05
0.00250507
0.00501879
0.849169
1.45676
8.74864e-05
0.00643387
5.33322e-05
0.00107038
0.00794287
0.0089678
2.94901e-05
5.09566
9.86843e-05
1.53909
0.000191814
4.91858
2.65114
0.280844
0.0088946
0.0248263
1.82252
1.43244e-05
8.68792e-05
0.885576
0.394531
0.00229736
0.000298105
0.000305889
0.00021385
0.00204973
2.93116e-05
4.34852e-05
0.00144808
1.19688
6.4431e-05
3.63539e-05
8.54712e-05
0.00580507
0.00184024
0.00333098
4.59313
9.76196e-05
1.78826e-05
0.000225123
0.000817277
0.00109393
3.23453e-05
1.74557e-05
3.77822
0.00124636
2.57529
0.000322277
5.23583
9.38632e-05
7.66786e-05
3.28141
0.000107542
5.43907e-05
2.07128e-05
0.0101341
2.00322e-05
0.0501735
0.00210497
0.00840219
0.0340173
9.30848e-06
0.000207334
5.80453e-05
0.00722829
5.71933e-05
4.3093e-05
4.85529e-05
0.00358501
0.00019462
4.03197e-05
8.75107e-05
0.00277743
1.94267e-05
1.04048
4.6885e-05
1.66786e-05
3.65933
0.0689854
0.0619392
8.98595e-06
0.00299588
2.53407e-05
0.000112482
1.46911e-05
0.105559
1.47283e-05
3.37333e-05
0.154765
0.0282437
1.42114e-05
0.00216777
0.361336
6.41316e-05
1.8067e-05
1.01735e-05
0.159466
5.96772e-05
6.52166
0.000260553
3.53697
0.0142161
0.00289224
0.0022787
0.000140052
1.45015
0.000220684
0.00214364
0.00424107
4.86237
5.30191
0.038499
9.64218e-05
2.03419e-05
5.247
0.005586
4.42222
4.00804
5.93336e-05
3.40707e-05
1.72004
2.98541
6.79033e-05
0.00017491
0.000236103
3.60946
4.52889e-05
0.00135692
1.83707e-05
0.175178
0.000323343
0.000129953
5.65901e-05
1.97253
1.57174e-05
6.87836e-05
0.00869216
6.28751
2.21193e-05
1.38093e-05
0.00950552
0.0653262
4.67627e-05
0.000200194
8.44212e-06
5.62583e-05
1.50269e-05
2.27135
0.00247698
5.25472e-05
0.00104412
5.72739e-05
0.0238631
0.000804568
1.68191e-05
4.46072
0.000253289
4.36412e-05
2.86154e-05
2.81737e-05
0.00286877
9.37704e-05
5.61236e-05
1.80876
4.84368e-05
0.0950731
9.77345e-05
0.000312799
5.45874e-05
4.76435e-05
5.64782
0.0308753
3.81734e-05
6.31186e-05
0.0578267
5.26415
0.000957417
0.0133201
0.0108141
5.78527e-05
6.28195
1.21047
3.47574
2.97118e-05
2.46965
2.16339e-05
4.25263e-05
0.000228343
6.29055
9.41923e-05
1.41471
8.47123e-05
0.0300885
0.555577
3.74927
0.00142763
1.74434e-05
2.8295e-05
6.08363e-05
3.43044e-05
1.75448e-05
3.89829
0.000141914
2.66145
0.013877
0.0118936
0.00919711
6.33587e-05
0.136775
3.27622
4.9625
0.0163845
3.06728e-05
0.00148002
2.64054
0.00639079
1.17268e-05
4.65266e-05
2.48337
8.22443e-05
0.60675
2.0929e-05
6.30074e-05
0.00016289
0.824433
4.86606e-05
4.77624e-08
0.0238497
0.00173226
0.0070419
9.51209e-06
1.34323
0.000104445
1.66826
0.00016501
3.91993e-05
0.000228263
1.19045
5.63729
6.01144e-05
8.90015e-05
6.64789e-05
3.52716e-05
0.000470014
0.00181472
0.000231382
4.40816
1.60396e-05
0.000246824
1.40834e-05
5.38457e-05
0.000193471
1.85192e-05
0.00041341
1.10612e-05
0.0375061
0.000210367
9.54617e-05
1.56512e-05
5.21232e-05
0.000217256
3.06467e-05
0.0338011
5.0952
0.00886384
0.00167474
1.79895
0.00259136
1.50563
3.40785e-05
1.11103e-05
3.75096
6.08769e-05
8.55453e-05
1.58902
5.18002e-05
1.03444
5.85596
0.000226313
0.000963236
0.044645
9.74384e-05
0.00815473
1.20031
0.00512224
3.73014
2.97722e-05
5.64493e-05
4.30645
2.94599e-05
3.32354
0.00302099
3.39915e-05
3.47962
0.000219101
1.42249e-05
0.00201668
0.000297441
2.74125e-05
0.0121386
0.00738508
0.00357885
0.0106617
3.18294e-06
5.85401e-05
3.54966
0.000120453
0.000320535
0.000171545
1.11956
9.46221e-05
0.023071
0.000120279
2.35319e-05
2.52315
8.59256e-05
0.00010212
0.0217015
0.000197847
4.24622e-05
1.34662
6.62597e-05
0.0374536
0.000129492
0.00559041
0.00436774
0.00333395
0.000205645
0.00018179
0.0253091
4.76176e-05
7.93476e-05
0.00297983
3.34856e-05
0.000244076
3.10136e-05
6.22886
3.4981
1.25708
1.80709e-05
0.00846483
2.77781e-05
5.24923
0.149853
0.435128
0.00259163
0.000175718
4.12808
3.6343
2.90885e-05
0.000184789
0.00270827
9.90982e-05
0.290297
2.69901
5.82535e-05
0.00957673
6.32507e-05
1.56735
0.986136
0.000131698
0.00897281
4.45593
8.55474e-05
4.1197
8.56065e-05
2.98571
6.26312e-05
0.000827785
0.000190315
6.68925
0.0104689
0.0112591
1.84924e-05
1.08712
1.23923
6.35816
1.58677e-05
4.79125e-05
0.00123904
1.3894
1.60471e-05
0.00740935
6.47829e-05
0.00161821
4.12705
1.18376e-05
0.00748702
3.33164e-05
5.33007e-05
0.00376219
2.15156
0.00020681
0.0143592
7.29479e-05
0.000156531
3.67023
6.16348
1.44531
0.00102367
0.0041109
0.174846
0.00102911
0.000289331
3.09011e-05
1.93914e-05
2.48729
8.25139e-05
0.000230531
0.0118507
0.000248644
0.00040296
0.00025837
0.00012872
0.0284425
5.86662e-05
4.48566e-05
0.00215894
1.29649
0.000128028
5.12974e-05
1.85833
0.00369324
2.43715e-05
0.000240935
0.0479795
5.31436e-05
0.000236972
1.47871e-05
0.00307009
5.92893e-05
6.75029e-05
0.0104928
3.86834e-05
0.000268355
0.0015623
0.00115694
3.15884e-05
0.000296739
2.71418
0.000159491
2.31148e-05
4.61906e-05
3.77594e-05
0.000335825
3.23521e-05
2.30045
7.12631
0.00331261
2.37298
1.829e-05
1.52207e-05
2.82626e-05
3.44853e-05
0.000259784
4.82658e-05
0.00158921
0.000386194
1.97753e-05
0.000107037
0.0233042
0.00663973
0.000593439
0.0115093
8.22994e-05
0.000201061
2.24222e-05
0.00121106
0.00982897
2.19738
0.0279209
0.0562147
4.54376e-05
1.48262e-05
5.18428e-05
0.000190629
1.29944e-05
6.20378
8.54296e-06
0.00274235
4.53319e-05
1.58497
0.0124882
3.50843
4.77517e-06
2.90714e-05
1.79245e-05
3.74471
1.74819
0.00850929
0.00102631
2.85982e-05
1.29339e-05
0.000147331
2.73855
1.1457e-05
3.70947e-05
0.0083973
8.9532e-05
9.09724e-05
1.86021e-05
6.10944e-05
0.00114038
0.000256008
2.70835e-05
3.29063e-05
0.00084255
6.05445e-05
0.775086
4.20151
5.13155e-05
0.0229747
6.77544e-05
3.4085
2.02993e-05
4.82504e-05
4.2828e-05
2.71128e-05
0.0128918
0.000187697
8.05755e-05
4.84521e-05
0.00250533
4.65476e-05
0.000176881
0.000113442
3.80718
0.0192156
0.0022934
5.87788
0.0253626
1.19961
3.60547
9.87115e-06
3.20082e-05
2.61594e-05
2.05713e-07
0.000116686
0.0139116
0.000257527
7.92983e-05
0.00131433
1.74921e-05
1.12906e-05
0.00574311
5.54273e-05
1.88926e-05
2.5228e-05
0.00222978
0.00308594
3.93602
1.46457e-05
1.61595
0.0284861
0.800822
0.00300227
3.83753
4.87301
0.277227
1.73652e-05
0.00019977
5.51927e-06
0.00194336
7.63459e-05
0.00493128
0.569453
3.76446e-05
0.0818468
0.00862825
2.75599e-05
2.33619e-05
0.00011858
6.90833
2.19974
3.94031e-05
0.0331115
0.0308835
0.00126382
1.87895
2.70942e-09
3.76148e-05
0.00622557
8.15318e-06
0.454507
0.00708909
3.5406
0.0289612
1.88878e-05
0.0292687
6.62454e-05
2.41495e-06
0.00788277
0.000350858
0.000825409
3.23512e-05
5.94625e-05
0.00815328
0.00020871
2.09943e-05
6.82923e-05
0.00012237
0.00472487
9.97856e-05
2.82909
0.0236087
8.47967e-05
0.0237059
0.000152216
0.167424
0.000244038
2.57695e-05
8.49089e-05
0.004031
0.00291582
1.01281e-05
0.000103195
5.67713
1.91226
0.0270656
0.00019337
0.00993986
0.00424449
0.0381031
2.15813
0.00796217
0.000559386
5.60532e-05
3.77802
6.33287e-05
2.01803e-05
0.001368
1.85045
4.68767
5.49087e-05
0.000121857
1.27569
2.44519e-05
2.93975
1.67083
9.52394e-05
5.54085e-05
6.8967
0.584564
0.635897
5.38728e-05
2.90737e-05
3.33291e-05
0.00796511
0.0102501
6.08807e-05
2.04344e-05
0.000126185
0.0242013
0.000130544
0.00588576
0.651112
1.38501e-05
5.83575e-05
1.12285
1.74216e-05
0.00212026
8.59339e-05
0.00361993
4.05348e-05
2.31008e-05
0.00430516
0.000119012
3.92816e-05
4.20088e-05
0.00312544
0.00230956
4.79059
2.21915e-05
3.11423e-05
7.57024e-05
0.0157321
0.173219
3.55391
5.44382e-05
0.00220244
0.0224823
2.0823e-06
1.71939e-05
0.000229431
3.35369
5.53555e-05
0.137602
0.000220921
9.87186e-06
0.0121778
0.000185416
0.52367
0.480584
0.0103714
2.94757
3.56855
6.73877
1.86108e-05
2.22573
0.0122837
7.10631e-05
0.023824
8.28421e-05
0.000235644
0.0632803
0.000176576
0.000691179
0.00392278
2.30198
1.76966e-05
1.1124e-05
2.00295
0.00040418
0.000247769
0.0219271
0.68356
0.0108202
3.24272e-05
0.0019028
5.94982
3.53488
0.0056146
0.00167949
1.19044
0.00042667
2.99604e-05
0.00976914
1.40248
3.5036e-05
0.00370917
0.000191764
1.53187
0.000238999
0.0107921
0.56175
6.9391e-06
0.000172338
3.56735e-05
1.58391
0.011428
1.74173
0.911572
0.000232435
0.00442022
0.00734245
0.000937516
0.514968
0.000915343
2.97667e-05
0.000211268
0.000159466
3.99245e-05
0.010156
3.47732
9.48528e-05
1.65191
9.82049e-05
0.0459663
1.89839e-05
8.65625e-05
1.79171e-05
2.92666
1.60007
0.00343321
0.00266081
4.2019e-05
5.1879e-05
0.0359577
1.27897e-05
0.0116816
0.00749957
3.26812
7.7438e-05
0.00246578
0.0387325
0.000223492
0.000257636
0.000294398
3.22696
7.1539e-05
0.000958138
0.0421054
0.0246484
5.75503e-05
0.000944742
1.58933e-05
0.000111112
8.03484e-05
5.80283e-05
0.00135738
3.49824e-05
0.00252142
1.52788
0.155219
2.88612
8.05914e-05
0.00195433
0.00755184
1.13287e-05
0.707219
0.000176696
0.000405905
3.68228
0.000227791
0.00497855
0.000406205
1.5236e-05
1.14156
2.16151e-05
0.00244908
4.21306e-05
0.0292094
0.0344277
2.34584
1.74483e-05
0.0359216
4.59051e-05
0.00361443
0.000198775
1.92312
0.00801311
0.00193868
4.41236
0.000104284
5.72667
0.000122182
0.954962
0.000349829
2.13074e-05
6.77722e-05
0.0119299
0.0229635
7.15393e-05
3.50452e-05
0.0803703
2.71017e-05
3.419e-05
1.98143e-05
4.24602e-05
0.000135496
6.19093
0.000259128
0.000105646
0.0311655
0.00329992
6.72082
3.79306e-05
5.20084e-05
5.60155e-05
0.000556707
0.000299217
0.000229313
3.59887
0.000694739
0.0114246
3.06498e-05
0.00106708
0.0144948
1.71507
5.06514e-05
3.06788e-05
0.000153243
0.000286935
4.4396e-05
0.0040177
4.82169
0.0307389
0.00434949
3.75706e-05
0.0372596
3.13016
0.00234582
0.0432376
0.000230939
0.736702
3.44849
6.22378
0.000147391
0.000154451
0.00149962
1.71338
0.000247535
2.60517
0.000342276
0.00526831
1.28409
1.12351e-05
0.000127333
0.000406855
1.99168e-05
8.41024e-06
0.000168541
0.603825
1.19192e-05
2.00694
3.9622e-05
5.49255e-05
3.27885e-05
1.65692e-05
0.00124925
8.20153e-05
0.162439
0.00542177
0.00013198
0.000216842
0.899439
3.41644
2.79013e-05
6.17657e-05
0.000116126
0.0047674
0.0173549
0.00189618
3.20216
2.89287e-05
2.21973e-05
0.00125099
0.000120413
0.00179508
0.0333198
4.29659e-05
4.39643e-05
1.11747e-05
0.000584153
0.00710604
1.56948
0.0358201
2.36715e-05
0.00178879
1.06066e-05
3.04888
3.42451
6.10874e-05
2.09022e-05
0.0783447
4.74107e-05
8.24896e-05
0.44515
0.613007
0.000280724
2.57816e-05
2.87942e-05
0.00694355
0.62296
3.62793e-05
1.90696e-05
0.549182
1.64123
1.0919e-06
5.10161e-05
2.33101e-05
0.000101632
0.00458288
0.00117122
9.26759e-05
0.0400678
0.000169158
6.60479e-05
9.76172e-05
0.00128507
5.72881e-05
4.65591
1.14394
3.38433
0.489304
0.00823548
0.108455
5.00656e-05
2.67234
0.00159026
2.21902e-05
0.00126997
0.000104324
0.00136397
5.95861e-05
9.69262e-05
3.68596e-05
2.04396
1.69806e-05
0.00305638
0.034913
0.000422283
0.00205907
0.00383125
6.19945
3.83954e-05
5.03286
4.05954
0.000379518
5.59331e-05
0.00152924
0.00230439
0.00107366
0.027075
2.06288
7.30621e-05
2.25784e-05
4.27974e-05
0.0116377
3.216
0.000252057
0.000260109
2.16052e-05
2.82686e-05
0.000281582
0.00472489
2.03746e-05
0.000552985
0.000888874
1.15274
4.77049e-05
0.00165703
6.9314
0.000175418
0.00255766
0.00118867
0.455069
0.0026485
0.00289703
0.00112533
7.59696e-05
0.848888
1.51214
0.000123556
0.00865352
0.0216116
5.03015e-05
0.000355459
7.79918e-05
0.013553
4.46332e-05
0.00172143
3.47647e-05
0.033821
1.10055
0.0611212
1.02782
0.000441273
0.00026338
0.0748749
0.0287169
0.000438008
0.00015284
0.000109144
3.38141
7.74022e-05
0.00187908
3.73725e-05
0.000175174
0.0098198
6.65173e-05
6.15722e-05
2.68573e-05
1.84856
0.074582
1.35039e-05
0.000153602
8.99854e-06
5.53323e-05
0.000168466
0.763356
0.000126313
0.00788674
1.87688
0.0232958
1.88072e-06
0.0453664
0.532378
0.166362
0.793277
0.000690953
0.0047982
2.49587
2.12992
2.54333e-05
1.41609
4.70169e-05
5.26013
0.00533359
1.52778e-05
0.00170661
0.0183736
5.14819
0.00416096
0.00249712
6.62257e-05
0.0293984
1.43525
0.00189702
2.58938
0.00020378
0.161344
2.71044e-05
1.60584
0.00201585
4.10006e-05
0.00015929
0.093962
3.49862e-05