/*--------------------------------*- C++ -*----------------------------------*\
  =========                 |
  \\      /  F ield         | OpenFOAM: The Open Source CFD Toolbox
   \\    /   O peration     | Website:  https://openfoam.org
    \\  /    A nd           | Version:  10
     \\/     M anipulation  |
\*---------------------------------------------------------------------------*/
FoamFile
{
    format      ascii;
    class       volScalarField;
    location    "850";
    object      k;
}
// * * * * * * * * * * * * * * * * * * * * * * * * * * * * * * * * * * * * * //

dimensions      [0 2 -2 0 0 0 0];

internalField   nonuniform List<scalar> 
10435
(
0.990278
1.1303
1.127
1.29813
1.74214
1.7851
1.04336
0.922968
0.852208
1.58224
1.3246
1.4192
1.36826
0.761778
0.780996
1.04878
0.745263
1.55567
0.824102
1.03718
0.97321
1.23929
1.1223
1.11957
1.47299
0.422929
0.558182
1.20644
0.502245
1.59074
1.37985
1.42617
0.899173
0.501263
1.02104
0.897847
1.09718
0.587955
0.325007
0.919937
1.6804
1.07718
0.610992
1.1847
1.1831
1.02999
1.73395
0.585741
0.805374
1.18757
0.953336
1.63607
0.316244
0.435432
0.348449
0.465076
1.1209
0.603178
0.673275
1.03361
0.34304
1.0446
0.589047
1.6727
1.15589
1.21631
0.619723
0.652718
0.944176
1.18949
0.430579
0.514113
0.465002
1.20161
0.805936
0.608233
1.23925
1.00663
0.869184
0.779019
1.26096
0.90241
0.307945
0.441072
1.2792
0.891267
0.973051
1.22106
0.833619
1.03049
1.29132
1.36462
0.943336
0.871632
1.0911
0.836422
1.41346
0.79211
0.703296
1.52086
0.811782
1.85656
0.919383
1.1545
1.86829
1.24333
0.987002
1.22957
1.28253
0.80342
1.13772
1.81234
0.864936
0.83202
1.48804
1.18984
1.53543
0.949357
1.23638
1.45665
1.52554
0.521652
1.01273
0.656796
1.53364
0.384554
1.44225
0.557873
1.6372
0.577946
0.607709
1.41672
0.997528
0.757755
0.551171
0.289164
0.760882
1.34208
1.15695
1.13738
1.08615
1.27655
0.577779
1.51701
1.28128
0.721881
0.70517
1.73707
0.733436
1.43891
0.535212
1.21101
1.02105
1.43352
1.66287
0.479205
1.64332
1.08217
1.63738
1.17921
1.33925
0.738965
1.41027
1.3434
0.834465
1.60847
0.904984
1.39026
1.30356
1.60568
1.52428
0.404572
0.505973
0.748943
1.35998
1.07374
0.966837
0.693116
1.08559
0.54089
1.22373
1.82249
1.44092
0.366016
1.30501
0.534169
0.545498
0.989738
1.77933
1.57121
1.48186
0.302923
0.554575
0.824208
1.74
0.964853
0.683545
0.839802
0.646086
1.07583
0.841136
0.577823
1.28174
0.601904
1.21994
1.56009
1.32153
1.37234
0.594138
1.31184
0.477729
1.11139
1.53068
1.3535
0.547365
0.748606
0.866668
0.363361
0.427195
0.721819
0.511533
0.717754
0.617178
0.718687
0.458726
1.0092
0.37265
0.799609
1.49159
0.629237
0.689266
0.95144
0.398268
1.2445
0.601211
0.727964
1.16619
0.458636
1.21668
1.42873
1.12834
0.41761
0.382204
0.459774
1.49116
0.863144
0.782491
0.939624
0.402589
0.979694
0.407151
0.879289
1.43279
1.33172
0.963398
1.69202
0.364572
0.982592
0.44127
0.574275
1.00492
1.53544
0.417373
1.28653
0.903752
0.698531
1.07377
1.25622
0.339052
1.60685
1.03212
0.908593
0.941455
1.38759
0.458992
1.46037
0.579012
1.68906
1.0079
0.891136
1.45113
0.681594
1.0636
0.775969
0.922014
0.327756
1.78422
0.347794
0.44553
0.519139
0.736394
1.29575
0.586108
0.923359
0.330327
0.424546
0.69995
0.945401
1.61406
1.36093
0.659394
1.25695
1.098
0.439704
1.52454
0.768579
0.721627
1.27397
1.29735
0.446409
1.03488
0.542179
0.896685
1.77589
0.905537
0.428642
0.379181
1.45187
0.667158
1.40368
1.86104
0.551759
0.969935
0.298168
0.871348
1.3155
0.494222
1.1395
0.66108
0.596074
0.947588
0.54226
0.443886
1.08149
1.35133
0.617143
0.433255
0.416261
0.464572
0.48756
0.520159
0.498272
0.336636
0.505414
0.485687
0.525451
0.62937
0.608038
0.29375
0.847931
0.447851
1.32908
0.54171
1.19092
0.851219
0.781672
1.34327
1.21215
0.449355
0.476962
0.424308
0.392847
0.473427
0.331993
0.532624
0.540049
0.626562
1.36135
0.528062
0.830778
0.369839
0.562348
1.38198
0.7489
0.33261
0.558967
0.583016
0.58294
0.474477
0.45501
0.65846
0.358289
0.883484
0.631857
0.92227
0.830398
1.24946
1.30722
0.809691
1.15059
0.958826
0.662994
0.462912
0.485036
0.436366
1.11202
0.463463
1.40197
0.639596
0.552576
0.575477
0.569333
0.400803
1.0367
0.583778
0.903344
1.29619
0.406015
0.483719
0.60834
0.765707
0.61535
0.506616
0.438704
0.46977
0.61642
0.515899
1.15181
0.431462
0.488472
0.512267
0.510726
1.47229
0.34001
0.300584
0.711334
0.469278
0.0887297
0.0862194
0.0828101
0.0789236
0.0748878
0.0705931
0.0660469
0.0612004
0.0559994
0.0894342
0.0866178
0.0829505
0.0789366
0.0747923
0.070502
0.066052
0.0614617
0.0567981
0.0898458
0.0867122
0.0828182
0.0786828
0.0744688
0.0701804
0.0658197
0.0614309
0.057124
0.0901033
0.0866579
0.0825509
0.0783054
0.0740337
0.0697458
0.0654543
0.0612094
0.0571117
0.0903099
0.0865891
0.0822786
0.0779244
0.0735934
0.0692964
0.0650489
0.0608953
0.056906
0.0905805
0.0866348
0.0821246
0.0776519
0.0732482
0.0689249
0.064696
0.0605999
0.0566936
0.0910855
0.0869274
0.0822037
0.0775912
0.0730939
0.0687234
0.064492
0.0604372
0.0566178
0.0921083
0.0875984
0.0826202
0.0778376
0.073223
0.0687826
0.0645273
0.0604978
0.0567592
0.0938483
0.0887425
0.0834661
0.0784843
0.0737297
0.0691955
0.0648908
0.0608561
0.0571582
0.0961992
0.0903895
0.0848247
0.0796315
0.0747197
0.0700674
0.0656838
0.0616056
0.0578885
0.0988183
0.0925239
0.0867801
0.0813968
0.0763209
0.0715286
0.0670361
0.0628792
0.0591062
0.101324
0.095168
0.0894512
0.0839346
0.0786992
0.0737491
0.0691197
0.0648542
0.0610088
0.103389
0.098535
0.0930629
0.087473
0.0820797
0.0769509
0.0721525
0.0677412
0.0637903
0.107261
0.103351
0.098042
0.0923477
0.0867614
0.0814129
0.076397
0.0717871
0.0676723
0.114309
0.110377
0.104891
0.0989509
0.0930867
0.0874489
0.0821453
0.0772574
0.0728675
0.125095
0.120056
0.113978
0.107611
0.101359
0.0953481
0.0896804
0.084443
0.0797189
0.138967
0.132267
0.125374
0.11847
0.111752
0.105301
0.0992031
0.0935519
0.0884514
0.154065
0.146381
0.138855
0.131464
0.124284
0.117376
0.110816
0.104694
0.0991228
0.169786
0.161935
0.154142
0.146437
0.138891
0.131582
0.124583
0.11798
0.111879
0.186384
0.178913
0.171149
0.163318
0.155546
0.147946
0.140595
0.133576
0.127002
0.204494
0.197607
0.189998
0.182162
0.174311
0.16657
0.159004
0.151674
0.144682
0.22485
0.218406
0.210894
0.203102
0.19531
0.187611
0.18003
0.172583
0.165345
0.248301
0.241653
0.233997
0.22625
0.218671
0.211242
0.203917
0.196646
0.189488
0.275736
0.267477
0.259277
0.251603
0.244443
0.237578
0.230852
0.22412
0.21742
0.307791
0.295474
0.286492
0.279087
0.272658
0.266711
0.260989
0.255261
0.248803
0.143143
0.143056
0.143755
0.145251
0.147549
0.150636
0.154491
0.159074
0.16434
0.170223
0.176656
0.183559
0.190842
0.198412
0.206154
0.213953
0.22168
0.229203
0.236383
0.243084
0.24916
0.254448
0.258715
0.26162
0.263111
0.263408
0.262551
0.260403
0.256922
0.252408
0.246962
0.240612
0.233416
0.225519
0.217063
0.20819
0.199045
0.189773
0.180512
0.171396
0.162536
0.154024
0.145917
0.138237
0.13101
0.124276
0.118079
0.112467
0.107475
0.103134
0.0994488
0.0963965
0.0939396
0.0920221
0.09059
0.0895878
0.0889702
0.0886969
0.0887352
0.145587
0.145816
0.146794
0.148538
0.15105
0.15432
0.158322
0.163013
0.168335
0.17421
0.180536
0.187211
0.194162
0.201305
0.20855
0.215796
0.222935
0.229851
0.236429
0.242546
0.248081
0.252903
0.256866
0.259791
0.261511
0.261926
0.261009
0.258807
0.255444
0.25106
0.245737
0.239536
0.232528
0.224811
0.216502
0.207727
0.198619
0.189312
0.179937
0.170619
0.161468
0.152582
0.144041
0.135913
0.128271
0.121194
0.114756
0.109029
0.104042
0.0997787
0.0961991
0.0932569
0.0908977
0.0890637
0.0876955
0.0867314
0.0861207
0.0858238
0.0858035
0.145822
0.14624
0.147328
0.149094
0.151536
0.154644
0.158395
0.162755
0.167683
0.173124
0.179013
0.185276
0.191831
0.198592
0.205465
0.212352
0.21915
0.225748
0.232034
0.237888
0.243186
0.247794
0.251565
0.254348
0.256013
0.256476
0.255704
0.253712
0.25057
0.246379
0.24123
0.235202
0.228378
0.220851
0.212728
0.204124
0.19516
0.185957
0.176636
0.167312
0.158097
0.149094
0.140406
0.132132
0.124373
0.117229
0.110781
0.105087
0.100167
0.0960014
0.0925448
0.0897277
0.0874806
0.0857339
0.0844218
0.0834866
0.0828803
0.0825667
0.0825115
0.141824
0.14225
0.143317
0.145028
0.147376
0.150346
0.15391
0.158036
0.16268
0.167792
0.173316
0.179187
0.185335
0.191685
0.198153
0.20465
0.21108
0.21734
0.223319
0.2289
0.23396
0.238368
0.24199
0.244693
0.246361
0.246909
0.246295
0.244524
0.241641
0.23772
0.232843
0.227094
0.220561
0.213337
0.205523
0.197224
0.188549
0.179612
0.170523
0.161395
0.152339
0.143468
0.134895
0.126738
0.119107
0.112107
0.105818
0.100293
0.0955427
0.0915452
0.0882514
0.0855854
0.0834629
0.081809
0.0805591
0.0796597
0.0790686
0.0787542
0.0786849
0.135165
0.135578
0.136601
0.138234
0.140472
0.143296
0.146678
0.150585
0.154975
0.159799
0.165005
0.170535
0.176324
0.182303
0.188397
0.194523
0.200592
0.206507
0.212162
0.217448
0.222245
0.226432
0.229885
0.232486
0.234132
0.234748
0.234288
0.232746
0.230147
0.226543
0.222001
0.216602
0.21043
0.203577
0.19614
0.188218
0.179915
0.171338
0.162594
0.153795
0.145056
0.136494
0.128227
0.120377
0.113056
0.106362
0.100371
0.095123
0.090624
0.0868457
0.0837336
0.0812161
0.0792162
0.0776608
0.076486
0.075639
0.0750783
0.0747734
0.0746958
0.125997
0.126325
0.127238
0.128739
0.13082
0.133462
0.13664
0.140317
0.144452
0.149
0.153908
0.159121
0.164579
0.170216
0.175961
0.181737
0.187461
0.193041
0.198379
0.203372
0.207911
0.211881
0.21517
0.217673
0.219295
0.219968
0.219647
0.218319
0.215997
0.21272
0.208544
0.20354
0.19779
0.191382
0.184409
0.176966
0.169152
0.161066
0.152817
0.144514
0.136269
0.128197
0.120415
0.113039
0.106174
0.0999113
0.0943158
0.0894216
0.0852295
0.0817095
0.0788086
0.07646
0.0745932
0.0731416
0.0720465
0.0712587
0.0707375
0.070456
0.0703887
0.114737
0.114951
0.115722
0.117054
0.118942
0.121368
0.124308
0.12773
0.131592
0.13585
0.140455
0.145353
0.150486
0.155793
0.161205
0.166651
0.172051
0.177318
0.182359
0.187078
0.191372
0.195136
0.19827
0.200679
0.202274
0.202995
0.202799
0.201672
0.199619
0.196668
0.192869
0.188286
0.183001
0.177103
0.170675
0.163813
0.156605
0.149147
0.141549
0.13391
0.126333
0.118922
0.111783
0.105022
0.0987319
0.0929912
0.087857
0.083358
0.0794951
0.0762424
0.073554
0.0713722
0.0696354
0.0682848
0.067268
0.0665407
0.0660675
0.0658224
0.0657805
0.101094
0.10112
0.101678
0.102777
0.104416
0.106581
0.10925
0.112393
0.115971
0.119938
0.12425
0.12885
0.133682
0.138683
0.143793
0.148949
0.154077
0.159087
0.163892
0.168388
0.172479
0.176066
0.17907
0.181412
0.182997
0.183778
0.183716
0.182799
0.181014
0.178386
0.174967
0.170819
0.166042
0.160722
0.154923
0.148744
0.14227
0.135584
0.128802
0.121995
0.115253
0.10866
0.102305
0.0962756
0.0906566
0.0855067
0.0808832
0.0768071
0.0732824
0.0702925
0.0678056
0.0657788
0.064163
0.0629111
0.0619789
0.0613272
0.0609235
0.0607432
0.0607615
0.0844201
0.0841413
0.0843854
0.0851782
0.0865273
0.0884184
0.0908194
0.0936782
0.0969955
0.100768
0.104877
0.109265
0.113859
0.118586
0.123433
0.128334
0.133278
0.138215
0.142946
0.147316
0.151252
0.154691
0.1576
0.159902
0.161529
0.162424
0.162555
0.1619
0.160407
0.158077
0.155022
0.151325
0.147098
0.142434
0.137389
0.131957
0.126269
0.120565
0.114811
0.108999
0.103246
0.0976176
0.0921675
0.0869542
0.0820385
0.0775092
0.073409
0.0697913
0.0666387
0.063899
0.0615618
0.0596291
0.0580883
0.0569078
0.0560451
0.0554739
0.0551654
0.0550925
0.0552276
0.443081
0.410025
0.380975
0.354011
0.328348
0.303788
0.280359
0.258204
0.237426
0.218089
0.201029
0.187025
0.176217
0.168167
0.161669
0.15609
0.151488
0.147983
0.145774
0.144864
0.14483
0.145181
0.145452
0.145164
0.143732
0.421467
0.399898
0.375297
0.34995
0.324759
0.300191
0.276596
0.254228
0.233325
0.214227
0.197403
0.183172
0.171578
0.162409
0.155274
0.149844
0.145923
0.143377
0.142097
0.141932
0.142631
0.143852
0.145205
0.146226
0.146304
0.417753
0.395102
0.370458
0.345011
0.319534
0.294595
0.270633
0.247995
0.227011
0.208021
0.191315
0.177043
0.165215
0.155727
0.148407
0.143072
0.139535
0.137587
0.137011
0.137568
0.138992
0.140952
0.143059
0.144865
0.145853
0.417509
0.391835
0.365538
0.339059
0.312872
0.28742
0.263109
0.240291
0.219294
0.200403
0.183814
0.169609
0.157784
0.148278
0.140996
0.135813
0.132555
0.130999
0.130875
0.131902
0.133775
0.136142
0.138592
0.140664
0.141812
0.417793
0.389125
0.36069
0.332716
0.305511
0.279397
0.254691
0.231691
0.21067
0.19185
0.175368
0.161271
0.149548
0.140148
0.132995
0.127978
0.124927
0.123617
0.123751
0.12502
0.127081
0.129555
0.132022
0.13404
0.135166
0.417398
0.386016
0.355364
0.32575
0.297422
0.270593
0.245474
0.222286
0.201233
0.182474
0.166107
0.152156
0.140595
0.131368
0.124392
0.119544
0.116645
0.115465
0.115694
0.117004
0.119033
0.121387
0.123649
0.1254
0.126223
0.416549
0.382363
0.349367
0.31804
0.288566
0.261022
0.235492
0.212113
0.191021
0.172324
0.156086
0.142314
0.130965
0.121956
0.115182
0.110495
0.107701
0.106559
0.106754
0.107948
0.109762
0.111799
0.113649
0.11492
0.115264
0.415637
0.377972
0.342408
0.309369
0.278815
0.25062
0.224716
0.201151
0.180024
0.161393
0.145301
0.131744
0.120661
0.111914
0.105363
0.100832
0.0981006
0.0969169
0.0969733
0.0979189
0.0993598
0.100896
0.102108
0.102624
0.102145
0.414009
0.372271
0.334081
0.299497
0.268059
0.239351
0.213155
0.189402
0.168225
0.149675
0.133728
0.120421
0.109695
0.101258
0.0949535
0.0905778
0.0878623
0.0865601
0.0863908
0.0869949
0.0879254
0.0888089
0.089135
0.0883788
0.0863662
1.43771
1.41222
4.41364
0.365259
0.0453268
0.0539115
1.03867
0.0228859
4.5217
0.0508808
2.91419
0.0401911
0.451493
0.0438505
1.23181
0.0725712
4.3165
0.331181
0.0495756
0.664974
0.30316
0.0724696
3.14863
0.130268
0.019817
0.0281066
0.0199245
0.214864
1.44348
3.42843
0.05149
0.0363887
3.00926
0.573283
3.20251
0.0387184
1.0438
1.23975
1.12083
0.0658077
3.40907
0.00675918
0.0510589
0.527489
0.192524
0.112871
3.8383
4.06622
1.78353
2.13706
3.64002
2.79021
0.360749
0.310934
0.990531
4.30333
0.03896
0.325361
0.0219458
2.32403
0.0539281
4.32299
0.0441798
0.0781997
0.0234558
0.48512
0.0538355
0.256286
0.469206
2.00051
4.07303
0.0927737
0.0298713
0.724233
0.0206727
0.299357
0.860739
3.87615
0.0153757
0.286413
0.534794
0.0754807
0.0268589
2.89391
0.047049
0.0565823
0.0285379
3.78003
3.0321
0.0942756
0.133875
0.0651258
0.061603
0.0423043
0.0331049
2.93086
0.0282606
3.13857
0.0148656
2.25926
0.114314
3.40803
0.127353
0.0986529
0.0216835
0.175204
3.23777
0.520232
0.0243067
3.46741
0.0708091
0.0343563
3.28685
0.096147
0.349394
1.76265
2.84076
0.0627311
0.398733
0.0229764
0.000981372
0.032794
0.12855
0.0196862
3.08811
0.0484258
2.84904
0.546678
0.0160226
4.06413
0.0255595
0.729368
2.03012
0.961413
0.281192
0.0284624
0.184768
0.0814582
0.0509367
0.664535
0.0832694
1.04774
2.46112
0.00147263
1.55526
0.0886498
0.417163
0.514928
0.0713146
3.37143
0.316517
0.0356569
0.413329
1.46009
0.0215746
2.83297
0.0227991
0.0620742
1.08316
0.0420213
0.0527071
4.28357
0.0555382
3.27389
0.0613832
3.30324
0.0484158
0.020087
0.104715
0.0235212
0.0382273
0.0844958
0.266229
3.05861
0.0562209
0.193663
0.596794
1.7361
1.91413
0.0837511
0.810739
0.0347673
0.370988
0.83363
0.423766
0.0165535
3.4902
0.0247373
2.38396
0.0618732
3.44663
2.37294
1.02557
1.01154
1.32029
2.60332
0.0204897
0.0700006
1.65807
1.36941
0.558694
0.128352
0.0696612
0.0645839
0.179018
0.0513681
0.055472
0.124837
1.92817
0.0591267
0.0213538
0.043225
0.793749
0.163575
0.411948
3.73856
0.0324147
0.018864
0.130043
0.125985
0.0914223
0.00769767
0.0219167
3.7151
0.110625
2.92523
0.0904552
4.32153
0.0219742
0.0319029
2.69662
0.0395479
0.0335145
0.0204933
1.10416
0.052367
1.15188
0.139754
0.871367
1.52651
0.0502862
0.0535692
0.0572221
0.350826
0.0290132
0.0283419
0.0371995
0.253861
0.0707735
0.0434661
0.0194253
0.209379
0.0501054
1.79347
0.0248758
0.0202758
3.25002
0.883684
1.10699
0.0498588
0.26089
0.0170809
0.0464322
0.0210305
0.756531
0.0195062
0.0501377
0.517612
1.02774
0.0200973
0.360166
1.11483
0.0174618
0.0178969
0.0503883
0.527874
0.0585324
5.27949
0.0436392
2.90641
0.553752
0.341649
0.226042
0.11134
1.88701
0.0583839
0.184861
0.179033
3.57174
3.61504
1.42208
0.0599817
0.00537823
3.71732
0.798321
3.69164
3.50674
0.0605068
0.043783
1.99078
2.6293
0.0539424
0.069411
0.0690702
3.37747
0.0534707
0.295772
0.0514426
0.662102
0.0735232
0.0951536
0.07884
2.70456
0.0154272
0.0167086
1.01494
4.07656
0.0507441
0.019839
1.084
1.06302
0.0406243
0.0720008
0.0505467
0.029667
0.019449
2.78582
0.535149
0.0599399
0.332155
0.0605808
1.30209
0.0746196
0.0516315
3.51229
0.0607809
0.0325628
0.0287108
0.0087334
0.25508
0.0447429
0.0378585
1.93906
0.0758921
0.76064
0.0318828
0.0578605
0.0247049
0.0273738
3.72015
0.666896
0.061729
0.00909879
1.09561
3.7402
0.100297
1.18804
0.515379
0.0553105
3.94542
1.9669
3.03562
0.0354053
2.86885
0.00588375
0.0266816
0.0926466
4.11969
0.0435289
2.28158
0.0917316
1.44264
1.47029
3.89215
0.452067
0.0193257
0.021826
0.0687133
0.0387513
0.0513463
3.47006
0.0767984
3.08137
0.579989
0.54232
0.983974
0.063829
0.663913
2.81476
3.46013
0.610864
0.0508194
0.163368
3.21968
0.779205
0.050074
0.0522842
3.0046
0.0612637
1.47636
0.0232836
0.0518826
0.0462753
1.82307
0.035495
0.000235048
1.11756
0.175398
0.679101
0.0496526
2.08626
0.0444338
1.9297
0.0489779
0.0355258
0.0560804
1.81368
3.72226
0.049588
0.0641224
0.0646893
0.0408548
0.100511
0.142345
0.0974451
3.31424
0.00538242
0.0832784
0.0516687
0.0372138
0.0603499
0.0204521
0.0969497
0.0157068
1.32566
0.0870747
0.0710387
0.00444131
0.0249717
0.0630469
0.0418438
1.53009
3.70356
0.589204
0.484644
2.24128
0.162231
2.16351
0.0208787
0.015021
3.92409
0.0483418
0.0539494
1.92524
0.0774265
1.92489
3.77518
0.0567496
0.14005
0.616471
0.0618618
0.405186
1.94478
0.744314
3.00903
0.0245982
0.0246901
4.04448
0.0403356
2.86017
0.233363
0.0249116
3.04685
0.062212
0.0196769
0.510492
0.0878993
0.022445
0.547996
0.470387
0.416643
1.12467
0.00215433
0.0383093
2.82618
0.0394089
0.0736845
0.1062
2.04239
0.0847063
1.27297
0.0614047
0.0210819
3.15181
0.041559
0.0290795
1.24219
0.0562262
0.0608607
2.22275
0.0527479
1.35791
0.0462707
0.289469
0.570364
0.626917
0.062069
0.0609167
1.11631
0.0355492
0.0662802
0.585037
0.0553957
0.0825983
0.0158407
4.10112
3.35709
1.84239
0.0195594
0.398904
0.0613381
3.60121
0.668819
0.871478
0.569097
0.115193
3.17937
3.46905
0.0511191
0.0982118
0.19904
0.0887388
0.70748
3.1615
0.0248464
0.677816
0.0519389
2.01068
1.75344
0.0653963
1.04956
3.77339
0.0695786
3.3712
0.0121246
3.19943
0.042619
0.0752324
0.0559592
5.33892
1.0868
1.12376
0.0159237
1.84928
1.85466
4.12923
0.0213789
0.0732601
0.424052
2.0789
0.0526343
0.963674
0.0531211
0.469802
3.54381
0.0500653
0.395975
0.020098
0.0371885
0.295894
2.81671
0.124209
1.13149
0.0264752
0.0429016
3.30784
3.93835
2.13649
0.0886998
0.311043
0.684119
0.368784
0.12428
0.0627275
0.022889
3.01428
0.0676159
0.0533428
1.18644
0.115998
0.0752023
0.0613288
0.0746052
1.34315
0.0790192
0.0212018
0.522938
1.86501
0.0403802
0.0347393
1.98096
0.212167
0.00673749
0.0811867
0.530502
0.0267179
0.0605187
0.0491629
0.160615
0.0462488
0.0541614
1.12056
0.0276321
0.100054
0.150359
0.351315
0.0275832
0.0575637
2.98715
0.0891181
0.023112
0.0400385
0.0704136
0.0618829
0.0295636
2.17153
4.27038
0.193485
2.97566
0.0225995
0.0201996
0.0234439
0.0123523
0.0890293
0.0221642
0.36914
0.095777
0.022266
0.0314133
1.15624
0.380057
0.0618785
0.477282
0.0667403
0.050453
0.0219257
0.156274
0.663422
2.12209
1.34658
1.11913
0.0143596
0.0510728
0.00748757
0.120556
0.0488595
3.95983
0.0512039
0.302722
0.0380342
2.22175
0.248861
2.86171
0.00232592
0.0238938
0.0219484
3.47169
2.39918
0.389144
0.361298
0.0279013
0.0516433
0.0437626
2.47835
0.00421056
0.0341923
1.01914
0.0364678
0.0948765
0.0509836
0.0165849
0.357533
0.0803527
0.0276827
0.0485581
0.0780442
0.0674169
1.60318
3.44385
0.0369589
1.15735
0.0501436
2.89191
0.0234085
0.0743364
0.0439301
0.0248364
1.19568
0.05348
0.068493
0.0222999
0.237554
0.0264443
0.109333
0.0931339
2.93209
1.16975
0.300344
3.89215
1.29025
2.10681
3.17288
0.0499976
0.0230009
0.023717
0.000516524
0.0581471
0.545569
0.081602
0.035283
0.434683
0.0567035
0.0511358
0.338475
0.0467899
0.0521906
0.0246376
0.302513
0.585975
3.52971
0.0517016
2.07564
0.912484
1.68862
0.315455
3.53018
3.56411
0.684675
0.0174332
0.0678644
0.00258846
0.209771
0.0497909
0.724482
1.65355
0.0692261
1.04413
0.604538
0.025161
0.0242187
0.0443864
4.17216
2.62543
0.0309348
1.05662
1.4189
0.400655
2.38018
3.22569e-05
0.041511
0.349129
0.00364857
1.60764
0.706186
3.08538
1.3898
0.0203584
1.40234
0.0213048
0.00201091
0.37749
0.0695779
0.093103
0.0404546
0.049264
0.478056
0.0683619
0.0196184
0.0542971
0.0564162
0.332731
0.0638595
2.57839
1.2576
0.0701969
0.624682
0.0835364
0.693571
0.0590172
0.0630157
0.090935
0.422542
0.372809
0.00437773
0.0896292
3.75005
2.39605
0.829875
0.0530007
0.544453
0.706069
1.29665
2.53682
0.988958
0.078055
0.0800093
3.16813
0.0135015
0.0228312
0.156677
2.6223
4.31034
0.0335892
0.0404253
2.16228
0.0225877
3.18456
2.39054
0.0864936
0.0331503
5.43379
1.562
1.85318
0.0579717
0.0365594
0.0111832
0.508363
1.06131
0.0498383
0.0223169
0.0315268
0.809052
0.0505253
0.369201
1.77763
0.0514559
0.0417822
1.622
0.0531001
0.402944
0.0350092
0.390563
0.0532215
0.0226065
0.69981
0.0887172
0.0708066
0.0598631
0.23112
0.400573
3.62455
0.0207632
0.0496995
0.0484317
1.15488
0.678961
3.59271
0.0206184
0.539039
1.27133
0.00136123
0.0200927
0.0400302
2.72175
0.0560213
0.829349
0.0824051
0.00359667
0.974227
0.0640118
0.975317
0.954538
0.479008
2.58561
2.81796
4.13324
0.0535462
2.89511
1.0818
0.0868627
1.0025
0.0362375
0.0399168
0.659274
0.0522329
0.117523
0.32949
2.67137
0.0170421
0.0130222
2.7292
0.0625379
0.0708508
1.15027
1.6402
1.02305
0.0652714
0.185919
3.90968
3.09294
0.821891
0.39041
2.09871
0.0735667
0.0168933
0.488224
1.89976
0.0536098
0.262804
0.0434395
2.24459
0.0877229
0.738068
1.82388
0.00294632
0.0375041
0.066613
1.89158
1.1109
2.25883
1.66299
0.122058
0.24413
0.361905
0.131507
1.62478
0.315128
0.0369002
0.0614875
0.0516682
0.013871
0.5831
2.93333
0.0335827
1.99208
0.097695
1.16427
0.0575665
0.0356543
0.022003
3.35021
2.26357
0.198937
0.379995
0.0328406
0.0233521
1.38395
0.0519828
1.17056
0.992748
3.50733
0.0340161
0.232946
1.39501
0.0723981
0.111193
0.067547
3.41395
0.0605728
0.09982
1.15191
1.16295
0.0245176
0.132011
0.0506762
0.0882018
0.0265416
0.0262686
0.346455
0.0217541
0.218743
1.9232
0.682308
3.33686
0.0554176
0.1969
0.555201
0.0126793
1.52141
0.0460268
0.0566454
3.33414
0.0808904
0.336749
0.0726388
0.0202689
1.87492
0.0525592
0.226361
0.0152269
0.983909
1.10442
2.86369
0.0216426
0.935519
0.0343326
0.285431
0.073966
2.17203
0.88445
0.209652
3.78914
0.045216
3.77722
0.0474073
1.75016
0.0746195
0.0229097
0.0600873
0.778323
1.27222
0.0261181
0.0654205
0.693107
0.0346929
0.0682307
0.0219218
0.0137947
0.0684596
4.02194
0.0994782
0.0543287
1.39116
0.223336
4.12216
0.0133698
0.0767291
0.0317126
0.0804746
0.118277
0.0422369
3.44071
0.0874252
0.50939
0.0364602
0.138762
0.564003
2.02489
0.0574392
0.0618121
0.0720113
0.11318
0.0421543
0.276533
3.41922
0.308798
0.35158
0.030656
1.41674
3.35953
0.179586
0.647624
0.0759405
1.67225
3.0194
3.94452
0.0470496
0.0492449
0.149246
2.27913
0.125273
2.94859
0.0932813
0.358072
2.06579
0.0168863
0.0703992
0.0660641
0.0534351
0.052082
0.0487541
1.60715
0.0504362
2.72823
0.0536211
0.0344269
0.0213071
0.050421
0.375994
0.0393026
0.715766
0.638225
0.0413769
0.0941178
1.6956
2.79971
0.0363335
0.0466293
0.0914922
0.292355
0.269832
0.167663
2.73399
0.0266042
0.0553299
0.412815
0.0435644
0.172982
1.40201
0.0358533
0.0271447
0.00459534
0.0604929
0.79596
2.0873
0.904679
0.0568315
0.156469
0.0516031
3.22335
3.34605
0.0560056
0.0543738
1.06385
0.0540003
0.0264511
1.69528
1.56003
0.0705086
0.0554552
0.0226665
0.332743
1.71251
0.0311185
0.0176275
1.75635
2.02278
0.00125176
0.0332362
0.0253149
0.0984802
0.330269
0.39223
0.046808
1.26235
0.0507224
0.0839754
0.0370114
0.359389
0.0306519
3.52542
1.91852
3.57854
1.71191
0.897151
0.44739
0.0365256
2.93103
0.404046
0.0246087
0.16842
0.0368824
0.136775
0.0480417
0.0403542
0.0224585
2.70883
0.020109
0.206005
1.38196
0.0566885
0.196398
0.296193
3.9297
0.0129378
3.69196
3.1297
0.0610248
0.0265645
0.166801
0.228262
0.140343
0.911139
2.49781
0.0862881
0.0220448
0.055055
0.889245
3.26519
0.0842379
0.0829522
0.0205998
0.0334548
0.0650687
0.25417
0.0539109
0.0726406
0.115593
1.93881
0.0635972
0.18551
5.32923
0.0631539
0.21114
0.157239
0.917898
0.228643
0.243622
0.401117
0.0542529
1.33956
1.97555
0.0405302
0.573421
1.23678
0.0533589
0.078556
0.089067
1.10596
0.0347847
0.480512
0.0636086
1.39016
2.02136
0.572273
1.84342
0.0899007
0.0625043
0.716641
0.873037
0.0781449
0.0977602
0.0436596
2.94232
0.0895409
0.199956
0.0271849
0.113347
0.473252
0.0355837
0.0281063
0.0342634
2.32547
0.667241
0.0491889
0.113068
0.0492811
0.0436989
0.0554622
1.78386
0.104333
0.695885
2.64736
0.482497
0.00148627
0.949899
1.46504
0.676789
1.73966
0.0960169
0.783616
2.79842
2.11039
0.0102872
1.95547
0.0555322
4.6913
0.190147
0.0529138
0.481914
1.16406
3.63377
0.687145
0.182735
0.0526388
1.00825
2.25734
0.157237
2.83256
0.111359
0.675176
0.0588496
2.17103
0.191681
0.021961
0.0569136
0.637778
0.0248519
0.0647698
0.629065
0.0395953
1.71664
0.0176551
0.0641829
1.21738
0.960485
0.085658
0.386799
1.31855
0.118368
0.427634
0.188521
0.0668031
0.244637
0.0215775
1.84834
0.577824
0.016469
3.58992
0.0615531
0.329209
0.173682
0.08151
0.0287136
0.304212
0.656332
1.06767
0.0248843
3.4075
0.0314869
0.420265
3.53266
0.284534
0.104178
0.930718
0.0818425
0.0413973
0.0023459
1.14197
2.35532
0.048874
2.90391
0.184936
0.0577015
0.953856
0.0674463
0.0426183
0.510987
0.0977811
0.0422458
0.118513
0.0324312
0.0697845
0.104627
2.05071
2.23512
0.111715
0.0564249
0.0233168
0.543442
3.4404
0.0415604
0.0179016
0.171452
3.02021
0.0195715
0.824033
0.499115
0.0232279
0.38316
2.99341
0.0383758
0.133426
0.051247
0.205751
0.0362165
0.0388761
0.0892613
0.291349
2.3054
0.0150706
2.81801
0.0228819
3.02532
0.0661686
0.976451
0.335853
0.706608
1.87686
0.0679964
0.450594
0.115833
0.0897006
0.0938058
2.06129
1.98515
0.0669154
0.0598
0.317009
0.0944297
0.0433512
0.0176284
3.71308
2.14253
0.613945
2.9571
0.10644
0.0242813
0.596402
0.137904
1.78734
0.0138957
0.0789269
0.0216964
0.0606791
0.0450292
0.0565605
0.0509301
0.272278
3.37547
2.22929
0.0560127
0.196083
0.461625
4.05026
0.0483451
3.35147
1.68907
2.28048
0.0845929
0.631357
0.0258657
0.108202
0.0807379
0.0757065
0.0504337
1.70071
3.26031
0.0929153
0.187005
0.632094
0.215342
2.10595
4.14481
0.0556793
0.0159352
0.0601916
0.159473
0.678534
0.0207821
2.02915
0.568397
0.0707593
0.0763532
0.102964
0.352909
0.111935
0.0271313
0.0653452
0.0366037
0.0970562
0.443307
0.101835
3.69331
0.0809637
0.0569974
0.19811
0.0670731
0.0350247
3.49156
2.16767
0.0589806
2.32768
0.0521143
0.957746
0.0858154
0.115671
0.0373622
0.0258287
2.09759
0.0680778
0.0935666
1.51497
1.56068
0.049539
0.0555082
0.0505865
0.101192
1.25144
0.029935
0.0495004
3.05684
0.0511916
0.0527684
0.086882
2.83919
0.0562636
2.32365
1.75171
0.0218319
1.88883
0.0930675
0.0141091
3.47226
0.304981
0.0505653
0.000924121
0.375489
0.0778738
0.123812
0.0219507
1.20729
4.01904
0.0523157
0.0209201
1.90269
0.0703663
0.723304
0.739048
0.066326
0.565961
3.43224
0.0494726
0.62077
0.0664368
0.0808685
0.108192
0.0433951
2.54415
1.88521
0.065598
0.0539843
2.61889
0.0651024
0.113195
0.0830465
0.561793
0.98985
0.0234193
0.0390531
0.0546182
0.0391837
0.0233773
0.000693194
0.0572228
0.108619
3.49435
0.391309
0.0453051
0.784798
0.0828318
0.736072
3.61485
0.797339
1.99681
0.0588183
0.000989499
0.398487
0.111384
0.0617752
1.83828
0.0724572
2.11894
2.16981
0.410291
0.0826268
4.27409
0.0240019
2.32538
0.0463376
0.0472213
1.74087
0.227323
0.738064
0.0601853
0.042767
0.0153554
0.0911469
1.30507
0.758413
0.0700743
1.63058
0.293551
2.15312
0.0164537
3.40418
0.0657755
0.0521877
0.25204
0.0607412
0.343661
2.05567
0.447966
0.0267222
1.85527
1.24891
0.133673
0.667233
0.467846
0.0115461
0.355773
2.179
0.0507063
0.0339934
0.0427083
2.80483
0.0438409
0.0126342
1.18438
0.422994
0.145078
3.49229
0.648812
0.164831
0.164251
1.05987
0.0739878
0.407392
0.0294985
0.065758
0.0409832
3.36405
0.0689787
0.818493
2.26372
0.0198607
0.661982
4.57765
0.0691283
2.93228
0.0385058
0.37418
0.106454
0.0192895
0.0851812
0.0534064
0.0278959
0.0761335
0.0620841
0.0534829
0.0560878
1.88658
0.433565
0.0580573
0.356546
0.0374642
0.0498151
0.0331383
0.0642709
0.0789295
1.43716
0.0123392
1.14597
2.17575
1.38896
0.88191
0.10765
0.091622
3.53792
0.0449133
0.488858
0.064432
0.0335618
0.118832
3.26069
0.0739503
0.0493653
0.0374504
0.139117
0.0737255
1.34984
0.401484
0.97597
2.00218
0.0447125
0.0301762
0.431714
0.0529869
0.068648
0.0219799
0.0964794
0.0250241
0.0492199
0.0865694
0.0123595
0.878181
2.32143
0.828222
0.0781463
0.0518753
0.703632
2.2212
2.00878
0.0250449
0.0533957
0.52271
0.0361204
0.022132
0.0679007
1.896
0.544116
0.0348115
0.0395842
0.0759987
0.0212127
2.21864
0.0270156
0.0674709
0.0675517
0.0597681
2.11848
0.0602663
1.46111
0.0473586
0.062484
0.0197761
0.0240537
2.22116
0.256059
0.0306462
3.04509
0.513776
0.437209
0.0195529
0.0439961
1.06936
3.34349
3.48524
0.0362292
0.647363
0.0584567
0.0518163
3.40924
1.95247
0.0197984
0.0182148
0.818404
1.25973
0.0507425
0.0221432
2.10921
0.0403636
0.0856888
0.112224
0.0656384
0.480383
0.0579108
0.0560949
0.0644941
1.692
0.049485
0.0248699
0.0401372
0.0815536
0.111642
0.0765472
0.327794
0.589032
0.479485
0.0783844
0.0732499
0.0499826
0.0198901
0.0620171
0.0474514
0.411448
0.057737
0.0692956
0.14343
0.474572
0.0269565
0.0201895
0.0619699
3.63128
0.0571893
0.662179
0.0131219
0.0559719
0.00371257
0.0648112
0.0626791
3.28915
0.073718
0.0290144
0.246258
0.0503234
1.25906
0.0529603
0.0394329
2.87335
2.46454
0.0218624
2.15831
0.0514199
0.819729
1.69521e-05
2.0025
0.027065
1.07171
0.0438612
2.4293
0.374395
0.943635
3.47563
4.30039
0.0350412
2.93616
0.0231597
0.0211776
0.0456252
2.35265
0.113444
0.0235032
0.473705
2.808
1.64512
0.116418
3.24811
0.0202743
0.103133
0.0397657
0.314579
0.0861605
1.5518
0.0534624
0.0670114
0.0543992
0.0127849
0.105367
2.07103
0.0349379
0.0558436
3.99638
0.40726
0.0222702
0.117702
2.12619
0.077276
0.058948
2.69565
0.118484
2.93667
1.06211
0.0424558
0.274008
0.618021
0.028972
0.0991576
0.0335254
0.0217138
0.112456
0.0883358
2.2698