/*--------------------------------*- C++ -*----------------------------------*\
  =========                 |
  \\      /  F ield         | OpenFOAM: The Open Source CFD Toolbox
   \\    /   O peration     | Website:  https://openfoam.org
    \\  /    A nd           | Version:  10
     \\/     M anipulation  |
\*---------------------------------------------------------------------------*/
FoamFile
{
    format      ascii;
    class       volScalarField;
    location    "850";
    object      nut;
}
// * * * * * * * * * * * * * * * * * * * * * * * * * * * * * * * * * * * * * //

dimensions      [0 2 -1 0 0 0 0];

internalField   nonuniform List<scalar> 
10435
(
4.6366
2.53026
1.53987
3.88678
1.20721
0.710398
2.11547
5.09254
7.0062
0.832926
1.96137
3.65459
0.783732
2.74797
2.98804
2.91709
2.55292
0.65385
7.81311
4.75481
3.87115
4.99051
2.20104
6.86071
1.02482
2.35677
2.3346
1.10335
2.08184
0.705092
1.70166
1.71583
5.83732
1.99603
4.46591
3.23323
3.58541
2.42138
2.23288
7.21507
0.635829
1.97942
2.21129
4.06215
2.72787
6.90988
0.678467
2.15273
7.8048
6.37901
4.51654
1.17215
2.15397
2.07275
2.26535
2.00912
4.3139
2.35452
2.18974
5.29765
2.19059
2.81423
2.26032
1.28077
2.40351
1.26848
2.06855
2.24634
4.35708
7.17181
2.09208
2.4374
1.99363
1.50479
3.27871
2.38148
7.15119
2.59113
6.64392
3.31592
6.92711
4.80539
2.06974
2.051
7.06769
3.55998
3.85006
3.36428
3.51687
3.80728
3.15676
2.95665
5.12898
3.67731
3.6971
3.3036
2.9644
3.1787
2.33017
2.31892
3.36376
0.781084
3.80344
3.54741
0.747281
3.95064
5.41268
6.69231
7.03433
3.67331
6.1202
0.834973
4.44403
4.05539
2.26986
4.91262
2.36857
3.53686
2.75723
3.16298
2.50901
2.25826
3.41881
2.92115
1.11307
2.26031
3.08013
2.46092
1.69363
2.59148
2.70676
1.2846
3.72708
2.99702
2.45983
1.78929
3.06658
3.92532
3.00688
4.87902
4.83201
2.05402
2.02864
2.0225
5.12548
2.84565
3.04675
0.989235
2.54467
2.7716
2.13174
3.16167
4.20847
2.43072
0.945539
2.18261
0.987722
3.23277
0.870933
1.78522
2.59416
2.72646
2.25509
5.21802
3.59366
1.88211
5.83363
4.1171
5.07212
1.70772
1.07395
1.85114
2.1237
3.03351
3.59393
2.10563
3.06109
2.29596
5.89284
2.12013
2.23597
0.73681
3.06155
2.18701
2.34963
2.06363
2.18729
3.01009
1.08122
1.54791
2.90935
1.99024
2.55679
2.96023
0.900646
3.66525
2.46982
3.48856
2.22519
3.14469
3.57601
2.32344
0.929621
2.33309
1.13289
1.76016
2.49876
4.0374
2.20879
5.29025
2.03202
1.95586
2.33365
4.72121
2.24726
2.72321
3.92402
1.97812
2.37717
2.50539
2.07811
2.33729
2.12238
3.01028
2.29215
3.98995
2.28876
3.36012
1.49623
2.55787
2.25465
4.88649
2.32542
3.61319
2.57533
2.40467
5.01247
2.3704
5.46566
1.34529
4.14709
2.226
1.92766
2.03839
1.97174
6.74826
3.2669
4.25635
1.73879
2.4403
1.87141
3.81354
0.767473
5.36793
3.48441
1.38235
1.62395
2.99314
2.05892
2.23488
2.56149
1.17708
2.29634
6.27071
4.21777
2.24755
4.19926
1.8136
2.04845
1.71907
2.16282
5.31869
4.12963
1.06003
2.44705
3.20937
2.50721
1.25878
3.10224
5.93966
0.832319
2.35211
1.81382
3.22052
4.01435
1.90103
1.02759
2.24782
2.02554
2.05191
3.13723
1.50563
2.15174
4.74701
2.26468
2.08195
2.65497
4.45755
1.35745
1.34617
2.23997
5.5751
1.53428
1.86563
1.50733
2.93742
2.42007
4.10247
1.31788
1.99597
5.66088
2.33609
2.74155
0.978262
6.13529
2.03393
2.13141
1.94583
2.21847
4.02014
0.717303
2.18935
4.15019
1.91605
6.58022
0.939428
2.54097
1.30595
2.17001
2.45072
6.01476
2.02211
1.96462
1.72241
3.11868
2.28777
1.97926
1.82388
1.92516
2.04251
2.58181
2.31783
2.11973
2.13524
2.05204
2.21327
2.23742
2.61188
1.84816
7.20847
1.93806
1.00944
2.28665
1.115
7.14332
8.28486
0.764884
1.69887
2.06148
2.01987
1.8837
2.3105
1.99402
1.97055
2.17419
2.58885
2.27791
4.09403
2.52949
7.46735
2.28677
2.61107
0.697018
8.73189
1.84561
2.37439
2.32234
2.47056
2.04716
2.42006
2.82817
2.24943
6.24554
2.18733
4.89469
7.58155
0.960823
0.841811
7.908
1.28679
5.23411
2.78034
1.9589
2.06943
2.05287
1.48084
2.06061
0.697822
2.76613
2.16037
2.60555
2.09033
2.07966
2.48226
2.41125
5.57844
4.50205
1.89545
2.48638
2.65159
8.38584
2.73129
2.51911
2.18682
1.99712
2.2269
2.11436
1.33347
2.08595
2.4419
2.09844
1.93439
0.59817
1.76273
1.76243
9.25172
1.98429
33.93
33.962
33.7235
33.2798
32.6563
31.8653
30.96
30.0416
29.2847
32.9754
33.0366
32.9175
32.6378
32.2131
31.6636
31.041
30.4348
29.9625
31.3701
31.4679
31.4532
31.3259
31.0931
30.776
30.4248
30.1209
29.9652
29.1658
29.2953
29.368
29.3735
29.3122
29.2053
29.1022
29.0835
29.2525
26.4579
26.609
26.747
26.8565
26.9342
27.0007
27.1057
27.3326
27.8051
23.3877
23.5504
23.7277
23.9055
24.0792
24.2699
24.5257
24.9278
25.6038
20.1372
20.3026
20.4916
20.698
20.9202
21.1798
21.5212
22.0162
22.7712
16.9174
17.0693
17.2408
17.4375
17.6627
17.9387
18.3054
18.8235
19.572
13.9265
14.0382
14.1649
14.3205
14.5127
14.763
15.1074
15.5996
16.3084
11.295
11.3435
11.4075
11.5044
11.6426
11.841
12.1309
12.5607
13.2001
9.06399
9.0467
9.04927
9.0874
9.16781
9.30492
9.52458
9.86769
10.3951
7.2099
7.15
7.11227
7.1072
7.13963
7.22047
7.37034
7.62195
8.02372
5.67892
5.62632
5.57992
5.55347
5.55388
5.59115
5.68235
5.85297
6.13907
4.47401
4.45292
4.4179
4.38581
4.36775
4.3747
4.42153
4.52828
4.72137
3.60257
3.60356
3.57949
3.54613
3.51682
3.50305
3.51792
3.57751
3.70317
3.02568
3.02778
3.00438
2.96731
2.92902
2.9002
2.89196
2.91679
2.98985
2.66739
2.65702
2.62606
2.58222
2.53548
2.49495
2.46979
2.46975
2.50534
2.44579
2.42353
2.38357
2.33244
2.27812
2.22823
2.19042
2.17274
2.18393
2.30501
2.27652
2.23028
2.17343
2.11306
2.05584
2.00833
1.97728
1.97005
2.21583
2.18529
2.13567
2.07502
2.01019
1.94738
1.8924
1.85097
1.82893
2.16411
2.13326
2.08168
2.01834
1.95018
1.88316
1.82252
1.77326
1.74052
2.14343
2.11168
2.05782
1.99187
1.92094
1.85071
1.78588
1.73068
1.68946
2.15137
2.11552
2.05743
1.98813
1.91458
1.842
1.77434
1.71503
1.66754
2.18817
2.14072
2.07504
2.0014
1.92535
1.85138
1.78242
1.72086
1.66937
2.25696
2.18171
2.10516
2.02699
1.94889
1.87485
1.80635
1.74445
1.68974
3.26944
3.33484
3.41892
3.52188
3.64391
3.78459
3.94336
4.11916
4.31097
4.51733
4.73687
4.9681
5.20929
5.45889
5.71491
5.97554
6.23879
6.50261
6.76491
7.02371
7.27677
7.52197
7.75706
7.97976
8.18939
8.38639
8.57038
8.74074
8.89796
9.04421
9.18068
9.3088
9.43099
9.55091
9.67304
9.80306
9.94789
10.1157
10.3165
10.5618
10.8651
11.242
11.7101
12.2896
13.0047
13.8822
14.9504
16.2356
17.7559
19.5146
21.4902
23.6305
25.8507
28.0358
30.0556
31.7791
33.0947
33.9221
34.2394
3.22422
3.28956
3.3728
3.47444
3.59467
3.73329
3.88979
4.0633
4.25274
4.4568
4.67398
4.90271
5.14143
5.38847
5.64206
5.90034
6.16139
6.42322
6.68383
6.94121
7.19334
7.43824
7.67398
7.89874
8.11104
8.31001
8.49533
8.66737
8.82707
8.97565
9.11426
9.24442
9.36836
9.48918
9.61094
9.73874
9.87888
10.039
10.2282
10.4576
10.7403
11.0919
11.5312
12.0807
12.7672
13.621
14.6737
15.9537
17.4787
19.2485
21.2386
23.3938
25.6267
27.8219
29.8479
31.5741
32.8897
33.7161
34.0303
3.14384
3.20553
3.28446
3.38123
3.49613
3.62909
3.77973
3.94735
4.13097
4.32943
4.54134
4.76521
4.99944
5.24233
5.49212
5.74699
6.00504
6.26433
6.52288
6.7787
7.02979
7.27415
7.50986
7.73519
7.94872
8.14953
8.3372
8.51183
8.67402
8.82473
8.96512
9.09671
9.22154
9.3424
9.46289
9.58759
9.72218
9.87367
10.0507
10.2637
10.5258
10.8531
11.2654
11.7869
12.4464
13.2759
14.3087
15.5739
17.0897
18.8559
20.8459
23.0021
25.2353
27.4302
29.4572
31.1885
32.5159
33.3618
33.7024
3.01639
3.07402
3.14833
3.23995
3.34918
3.47605
3.62023
3.78114
3.95793
4.14953
4.35469
4.57202
4.79999
5.03698
5.28131
5.53117
5.78474
6.0401
6.29531
6.5484
6.79737
7.04027
7.27523
7.50057
7.71487
7.9171
8.10672
8.28363
8.44819
8.60115
8.74357
8.87689
9.00302
9.1245
9.2446
9.36747
9.49834
9.64376
9.81195
10.0132
10.2606
10.5704
10.9631
11.4636
12.1014
12.9092
13.9205
15.1644
16.6592
18.404
20.3715
22.5031
24.7097
26.8787
28.8843
30.6033
31.9305
32.7902
33.1577
2.85204
2.90532
2.97472
3.06086
3.16408
3.28444
3.4217
3.57536
3.74466
3.92866
4.12621
4.33603
4.55672
4.78675
5.0245
5.26828
5.51629
5.76669
6.01758
6.26701
6.51306
6.75376
6.98733
7.21213
7.42673
7.63008
7.82151
8.00076
8.16799
8.32375
8.46898
8.60501
8.73364
8.85724
8.97884
9.10232
9.23259
9.37592
9.54029
9.73586
9.97558
10.2758
10.6571
11.1443
11.7667
12.5563
13.5457
14.7625
16.2239
17.928
19.8477
21.9262
24.0777
26.1939
28.1544
29.8415
31.1549
32.0215
32.4166
2.65381
2.70221
2.76619
2.84638
2.94313
3.05655
3.18645
3.3324
3.49375
3.66965
3.85905
4.06081
4.27362
4.49607
4.72665
4.96375
5.20566
5.45061
5.69674
5.94217
6.18499
6.42329
6.65535
6.87953
7.09442
7.29894
7.49233
7.67423
7.84466
8.00405
8.15324
8.29351
8.42661
8.55481
8.681
8.80888
8.94314
9.08981
9.25665
9.45355
9.69312
9.99137
10.3682
10.8478
11.458
12.2294
13.1925
14.3731
15.7861
17.4293
19.2762
21.2731
23.3397
25.3744
27.2648
28.9007
30.1879
31.057
31.4833
2.42373
2.4665
2.52432
2.59785
2.68749
2.79339
2.91545
3.05332
3.20642
3.374
3.55513
3.74876
3.95369
4.16863
4.39218
4.62283
4.85897
5.09887
5.34072
5.58268
5.82282
6.05932
6.29051
6.51479
6.73073
6.93727
7.13359
7.31926
7.49422
7.65886
7.81405
7.96109
8.10181
8.23846
8.37386
8.51164
8.6563
8.81358
8.99091
9.19759
9.44551
9.7497
10.1288
10.6052
11.2049
11.9556
12.885
14.0163
15.3628
16.9222
18.6705
20.5587
22.5139
24.4434
26.2443
27.8155
29.0695
29.9411
30.4051
2.15839
2.19407
2.2444
2.31014
2.39176
2.48953
2.60341
2.73311
2.87818
3.03794
3.21152
3.39788
3.5959
3.80439
4.02211
4.24772
4.47974
4.71646
4.95598
5.19635
5.43567
5.67221
5.90445
6.13086
6.35001
6.56087
6.76257
6.95464
7.13696
7.31001
7.4749
7.63311
7.78668
7.93796
8.08969
8.24565
8.41011
8.58821
8.78676
9.01395
9.28048
9.59967
9.98804
10.4657
11.0555
11.7818
12.6686
13.7359
14.9957
16.4477
18.0729
19.8303
21.6559
23.4673
25.1713
26.6747
27.8964
28.775
29.2852
1.849
1.87439
1.91457
1.97068
2.04334
2.13286
2.23904
2.36132
2.49985
2.65455
2.82363
3.00578
3.19968
3.4043
3.61901
3.84267
4.07455
4.31293
4.55466
4.79753
5.03991
5.28038
5.51773
5.75065
5.97767
6.19795
6.41037
6.61445
6.81011
6.99817
7.18046
7.35881
7.53523
7.7122
7.8925
8.08106
8.28204
8.49715
8.7325
8.9954
9.29499
9.64173
10.0483
10.5333
11.1173
11.819
12.6584
13.6479
14.7979
16.1167
17.5995
19.218
20.9172
22.6242
24.2527
25.7103
26.9137
27.803
28.3565
2.24114
2.15445
2.0883
2.03107
1.97836
1.92904
1.88352
1.8431
1.80975
1.78619
1.77608
1.78187
1.80359
1.83942
1.88696
1.94588
2.01714
2.10132
2.19885
2.30968
2.43349
2.57117
2.72495
2.89918
3.10185
2.12137
2.09693
2.05579
2.00918
1.96115
1.91387
1.86915
1.82897
1.79569
1.77217
1.76127
1.76489
1.78348
1.81639
1.86272
1.92204
1.99422
2.07906
2.17646
2.28631
2.40911
2.54618
2.70009
2.87504
3.07843
2.07078
2.05011
2.01623
1.97495
1.93011
1.88451
1.84056
1.80064
1.76736
1.74345
1.73142
1.73307
1.74927
1.78007
1.82506
1.88362
1.95501
2.03852
2.13371
2.24042
2.35944
2.49227
2.64142
2.81073
3.00601
2.03419
2.00852
1.9744
1.93422
1.89052
1.84569
1.80213
1.7623
1.72878
1.70421
1.69092
1.69073
1.70476
1.73338
1.77632
1.83273
1.90141
1.98137
2.07168
2.17241
2.28433
2.40902
2.54883
2.70714
2.88891
2.00007
1.96838
1.93136
1.89005
1.84599
1.80104
1.75732
1.71716
1.68305
1.65748
1.64271
1.64058
1.65229
1.67832
1.71831
1.77114
1.83526
1.90948
1.99252
2.08455
2.18641
2.29965
2.42653
2.57029
2.73583
1.96572
1.92804
1.88729
1.84386
1.79861
1.75289
1.7085
1.66757
1.63246
1.60554
1.58903
1.58473
1.59385
1.61676
1.6529
1.70085
1.75873
1.82519
1.89882
1.97982
2.06903
2.16798
2.27881
2.40464
2.55066
1.93043
1.88713
1.84269
1.79692
1.75012
1.70322
1.65771
1.61561
1.57913
1.55056
1.53205
1.52536
1.53154
1.55079
1.58224
1.62413
1.6743
1.73123
1.79357
1.86149
1.93576
2.01769
2.10916
2.2133
2.33583
1.89316
1.84579
1.79848
1.75065
1.70224
1.65389
1.60695
1.56337
1.52532
1.49492
1.47429
1.46506
1.46806
1.48315
1.50913
1.54387
1.585
1.63079
1.68017
1.73318
1.79035
1.85253
1.92085
1.99826
2.09031
1.85523
1.80562
1.75652
1.70699
1.65694
1.60699
1.55844
1.51336
1.4739
1.44188
1.41937
1.40778
1.40745
1.41801
1.43784
1.46437
1.49511
1.5282
1.56299
1.59938
1.63743
1.67741
1.71905
1.76213
1.81096
0.612256
0.641048
0.356786
0.217711
1.14464
1.14129
3.54425
2.40007
0.369606
15.7793
0.214229
2.21354
13.0102
0.569158
6.82601
2.30393
0.31421
0.266097
24.1391
0.27708
6.39944
5.24047
0.241247
2.1555
2.60912
2.26415
2.6179
1.08589
0.323384
0.270281
28.5028
2.20719
0.325441
11.0025
0.254716
1.28882
10.0595
6.75538
11.1042
3.93301
0.280194
0.141639
3.72155
2.03977
1.56297
8.05424
0.230319
0.2331
0.264
0.330576
0.225669
0.250977
11.0629
0.29026
3.55577
0.364752
0.573536
9.89567
0.941727
0.187479
1.25439
0.353158
1.12082
3.91263
2.40395
1.80123
7.29695
2.01858
12.8867
0.319297
0.362988
6.05673
1.25055
0.378328
2.61441
7.05144
0.864438
0.247319
1.87635
0.351725
10.8977
1.50578
2.51545
0.204618
1.19075
1.26957
1.45802
0.248061
0.324496
2.06858
1.80149
4.11603
9.33005
2.22187
1.1396
0.216142
2.1804
0.214776
0.328053
0.186608
0.993379
0.285926
1.01548
6.82367
1.07558
1.42954
0.24509
10.6512
0.539921
0.275643
4.63372
1.47088
0.263512
6.93072
10.9421
0.268023
0.308353
4.36604
12.5492
0.984626
0.0276096
1.53072
2.18026
2.50436
0.32078
3.51579
0.257037
0.488344
1.18286
0.233994
2.48103
0.417837
0.314945
11.6045
1.35128
1.4254
1.57518
0.915373
1.32017
0.225454
7.38798
10.5049
0.192469
0.0587514
0.292839
2.67706
0.186839
1.94049
2.20777
0.261522
3.27004
0.843807
0.184223
6.29357
2.63587
0.202736
1.42652
4.2564
1.57905
4.92417
3.74702
0.369116
3.21513
0.218677
5.58714
0.212376
0.655633
2.56033
3.45007
1.26466
0.530012
4.29701
2.0357
0.207758
8.32751
1.34746
6.38692
0.319446
0.226359
7.21578
9.19459
2.03984
11.5724
7.8743
1.80223
0.836273
0.215151
0.558085
0.332336
1.79625
0.217366
0.191154
0.33706
10.3533
6.31933
0.334676
2.63777
5.0761
0.279398
0.427788
12.2282
4.97371
1.42778
1.75542
1.40715
8.10196
6.36868
0.968582
0.279563
4.88332
1.12886
1.9674
9.7679
1.30859
4.58517
0.273869
0.968701
1.79093
6.76079
1.74787
0.687633
0.164873
2.47659
0.328773
0.8837
0.299046
2.28497
0.32102
0.462993
1.19462
0.199445
1.30892
1.85859
1.82484
10.8273
12.3205
2.38001
0.835075
8.13304
6.16512
24.449
1.24567
5.07695
1.53247
1.32461
1.67762
2.56509
1.61788
2.31631
4.21722
0.388078
1.42058
11.6309
0.278227
1.18785
2.21839
0.259785
1.01878
1.78059
24.8978
2.04472
1.03621
1.72504
2.70948
0.487981
2.32507
6.70678
0.155804
3.36579
2.55788
5.3856
0.309562
0.427908
1.59555
22.4612
0.157266
5.16687
0.384652
0.65781
0.214944
1.9413
3.6322
2.01806
7.96632
0.220994
1.39014
1.43476
0.680196
0.236132
0.221838
4.72763
3.35819
0.127976
0.237023
10.2683
0.277357
0.276133
5.55328
5.06376
0.207373
0.20841
3.85668
2.47905
1.81854
0.284434
5.68176
5.80232
12.9647
0.225223
1.50462
6.27055
9.88543
0.333743
1.36281
0.365289
10.6659
0.237876
10.4771
2.56514
11.1256
1.55682
3.17624
2.3306
27.2381
1.40801
2.26552
0.307514
10.4056
6.15354
9.50978
5.76707
6.3944
0.622853
14.2649
0.248896
1.31269
2.1867
2.59258
0.243649
2.04127
1.92144
2.29839
0.187087
10.7019
0.547701
0.936067
0.963255
1.00628
1.41549
0.220537
1.29643
8.98382
0.118046
1.86821
0.239169
0.945618
9.53673
2.21057
4.7592
0.223015
0.287641
0.23861
3.79708
0.299931
0.144018
1.50663
3.38309
0.242819
1.81043
0.331166
8.93993
6.22528
0.350192
0.363643
12.8834
1.927
1.51524
6.98492
3.93971
13.5242
0.277999
3.74043
0.321078
2.18165
2.22556
9.47454
5.78725
0.29004
0.217647
0.217133
2.04973
7.57791
1.62296
0.353327
8.55049
19.2437
5.28789
0.327172
4.10718
0.323309
2.33128
3.84499
1.18317
0.362823
2.33023
0.104104
4.71301
1.59838
5.89415
23.3265
0.291627
1.70131
0.200891
1.30838
2.8977
1.24002
0.248689
0.2212
3.68143
4.15781
5.66532
4.25895
1.93446
1.00489
3.69345
0.22426
0.162556
2.52883
17.0604
2.31472
1.69426
2.0328
2.04623
2.00732
4.21701
3.24377
4.75777
0.113427
1.07673
1.64664
5.14186
6.23369
0.242281
3.52494
12.6223
0.251315
0.91408
0.279797
1.15125
1.82773
0.369468
3.4549
3.0621
0.209934
10.4158
0.322369
0.219038
1.28074
1.83264
0.766118
3.53474
1.81193
0.28359
9.73407
0.218459
1.8291
0.971915
0.34186
4.97037
0.221527
1.6224
1.64314
0.240111
1.58982
2.44966
11.6301
2.33782
1.65399
2.22653
2.69649
4.36543
10.6774
0.131231
2.2563
0.202514
1.16042
1.52447
5.91715
0.335329
6.82466
6.32137
2.82134
1.69982
0.354339
1.80904
0.745255
6.39926
1.4381
7.8508
0.330202
3.77923
4.43092
1.48802
1.34897
6.70333
10.6097
1.68607
1.83715
4.43138
2.38855
4.98283
10.3375
8.24777
2.51571
0.728181
0.243018
0.289959
0.24302
1.90534
1.69184
12.1899
0.222354
0.268655
0.157086
11.2471
6.79635
0.220383
0.298019
8.08513
4.69779
1.31653
7.15161
0.155177
0.333292
0.953777
4.31767
3.83851
0.232147
0.2806
2.92259
11.0491
0.287586
5.09316
0.248283
0.15455
0.30856
2.6101
0.615368
1.48085
0.383506
10.1541
10.0945
1.23407
0.283121
0.249814
0.24135
2.59239
10.0816
13.0615
0.279953
15.5376
11.2804
3.92027
12.2754
0.27387
19.0569
1.88481
1.09117
2.33522
2.09447
0.331873
6.71392
8.02442
0.864785
1.05825
0.268311
0.226488
0.284239
0.691714
2.1181
0.240907
11.8939
4.80449
11.46
2.43156
0.328763
4.98669
1.11088
10.6903
4.87043
1.26311
1.31018
3.89165
5.7085
9.579
0.901906
11.4
0.241453
1.14624
2.11734
0.190052
1.09696
0.167632
2.46213
0.527911
1.20891
1.39099
14.7108
0.756249
3.24689
3.9111
10.7702
1.77642
3.35738
1.30238
9.60121
2.16773
1.005
0.295881
4.48164
2.07983
3.12352
11.8176
1.02629
2.43138
0.184486
0.230309
1.0171
0.335827
2.51319
2.41265
1.75021
0.398205
2.74597
0.916021
7.71692
2.13776
2.25635
0.82973
5.163
1.9579
0.580691
1.78133
4.87104
1.13944
1.92962
1.8149
4.03008
0.184444
5.8449
2.0052
0.408422
15.8341
0.0973274
6.86168
16.5342
0.227479
27.6211
3.00752
2.87202
0.280294
0.446331
0.210078
0.101963
1.76745
2.4188
0.289672
0.296333
1.60166
11.4471
2.44992
18.5584
1.16991
0.201858
0.139268
2.83653
11.1319
1.33685
8.90534
12.576
0.405197
10.0885
2.26982
2.54657
6.44892
0.650622
6.75624
0.29844
0.254053
2.39569
5.24713
3.33991
0.220825
2.42945
10.3073
4.05545
2.0476
9.9807
1.37142
5.24001
0.923713
2.02722
1.3521
6.08223
6.88153
0.203233
6.40875
3.53997
0.231954
5.90737
0.333005
0.251297
22.7915
1.48755
1.93524
0.116724
2.60784
1.92559
2.32714
1.41289
12.9385
16.5433
20.8437
1.79535
3.55487
12.9758
2.1655
3.69376
10.0141
0.28488
16.4264
0.239948
2.63063
0.320459
2.9831
0.29227
0.234611
0.152186
1.57513
2.07489
0.109256
2.03789
2.92251
9.57938
0.432135
11.4572
1.19881
3.81213
2.06738
2.25963
1.49531
0.226773
0.282015
2.18579
3.03458
5.86704
11.4313
0.271362
0.034563
4.12296
1.76212
0.146947
0.511776
6.33126
0.241983
6.00251
1.97492
6.04703
0.616656
0.150703
1.62695
1.24181
0.94515
4.5529
3.67331
2.52271
2.01525
1.64994
3.8853
2.34086
2.10882
3.67812
0.211492
6.02914
5.22997
1.48151
4.12604
0.258587
1.28452
13.8687
8.765
3.9863
4.28996
0.170298
7.00622
0.222939
0.270201
2.29008
1.30742
2.68401
10.5709
3.97122
0.268377
11.0552
0.980241
10.2783
0.239103
0.259065
2.32472
1.61498
0.334448
0.356705
1.84927
1.20697
0.329852
1.8779
0.310479
0.307824
7.06958
1.78501
0.385308
0.375641
0.48606
5.61443
4.13751
0.337714
2.92011
9.8901
3.6719
2.19355
0.708915
2.4342
1.75996
2.08432
0.436789
17.2052
2.69233
0.210874
14.5662
6.89196
1.28364
3.79249
6.2891
1.99104
10.238
5.95204
11.4868
7.67753
1.53818
6.25284
0.24681
1.74842
7.13834
2.78864
7.63008
0.239517
0.326873
0.702829
11.8735
6.47021
0.0800873
2.11321
0.628587
0.198801
5.10257
0.449875
2.7664
0.117936
7.01446
1.98892
0.163484
0.170632
1.9911
0.204129
0.200272
0.228162
13.8655
0.338923
8.57451
9.55576
3.79665
1.42662
0.608551
0.618168
1.3906
1.79846
2.49077
0.279003
1.47706
1.37199
0.334691
0.870874
1.82342
5.43078
0.35421
8.70571
11.8244
1.63492
0.231217
0.243562
10.8281
8.16787
0.332997
1.14159
0.857283
2.19596
0.231602
7.38271
1.67583
0.885618
0.296002
2.89783
4.54287
0.532954
0.11259
0.734544
11.1947
0.203311
9.719
0.263652
0.273044
5.7686
1.2135
1.60543
1.66021
0.461369
9.76409
4.1169
1.61058
1.50668
0.433732
3.01305
0.222699
1.0701
0.216207
8.74691
2.65405
15.7107
1.32171
2.43186
0.345156
0.288198
1.03746
4.88411
2.31004
0.946027
4.79393
19.0152
10.5567
11.8272
0.338765
1.3448
1.98061
4.52192
2.11074
4.31909
1.39482
0.32506
4.61588
0.935944
2.83622
4.93827
0.940048
1.66017
14.5424
6.30141
0.789077
1.07022
7.95858
1.21752
1.70792
0.217874
0.269934
0.34722
3.42964
1.7854
3.67358
1.27719
0.294566
1.07904
0.711455
0.271702
2.58524
2.04999
1.16905
2.42679
0.277146
11.5022
1.88296
0.495296
2.98283
3.18864
0.314628
2.41607
2.19276
2.31097
2.02865
2.47711
0.220784
8.78592
2.0405
0.292854
1.76445
0.224226
1.65548
0.288678
1.43249
2.21692
4.79464
4.5701
6.34353
0.858186
10.9911
0.537956
3.99694
12.2547
2.18281
0.403354
3.11304
0.235157
3.43703
2.51448
5.58885
1.36037
0.227547
0.424135
10.188
1.61584
1.04697
4.20782
0.70016
0.296055
0.990133
2.0441
3.9035
1.62401
1.97512
0.21516
5.86229
11.2086
3.04552
4.01788
3.60232
1.713
0.218222
0.279193
2.55772
2.25126
4.84821
0.324513
1.23735
0.873025
2.24746
0.34163
0.237932
0.224997
1.35171
1.41311
1.33681
0.272853
5.70588
0.300355
2.288
2.19035
0.299103
2.28421
3.50297
0.96546
12.9026
29.0275
1.26929
0.384987
19.2079
0.333788
6.53097
1.94207
1.24615
13.809
10.1849
1.69508
0.283854
6.7616
1.16749
3.67656
0.287685
0.206488
4.25826
3.1682
6.48754
1.61354
0.377577
1.33425
0.210084
2.20198
12.4126
12.2602
1.41851
1.50024
5.3094
2.69264
1.50838
0.170076
0.5638
8.02412
0.249838
2.05638
12.2799
1.23181
22.5953
0.306702
0.294246
4.62119
12.73
1.30014
5.53552
0.763364
0.581056
0.35731
1.59385
10.7354
1.60586
1.43509
0.42369
2.40226
1.46649
0.50553
0.224373
0.129152
1.94876
2.47428
8.58833
2.1421
11.8218
2.12773
3.57938
1.36883
9.6092
1.26295
9.0458
1.47602
0.240248
0.289583
0.34055
0.539047
8.79599
0.166098
2.39827
0.289329
9.23922
2.45618
2.01019
1.17353
1.23438
3.48605
1.5121
1.23156
0.323099
2.14324
1.24966
4.92316
0.684904
1.68596
2.06088
0.224186
0.392361
0.243748
0.217155
0.883125
1.13547
1.63743
2.03495
1.65103
2.75958
0.2722
9.17175
1.93714
6.3741
6.11532
0.298362
2.53372
2.38091
1.7677
3.56331
1.35326
1.23055
12.8383
0.858791
1.3529
0.293483
7.63053
1.86917
0.368765
2.04629
1.5687
1.87197
0.16663
1.77647
1.84384
12.8679
3.48697
0.190246
0.232289
1.19656
3.41978
6.36997
5.09419
1.56247
9.15434
8.12242
2.43984
12.0715
10.4746
5.14263
0.334134
0.482232
0.297561
1.64839
1.335
0.617319
2.38874
1.25476
5.62767
1.57183
0.230422
9.32249
1.91499
1.7797
6.6008
2.0527
1.71321
1.15469
3.93407
0.263289
0.537247
16.1256
7.49073
24.2902
3.10603
1.64333
0.375177
7.75604
5.52612
0.336071
0.899401
0.10571
1.79004
0.362843
0.247797
0.343357
1.20085
11.5178
0.282387
0.188193
0.374484
0.243027
5.90308
0.376559
0.610099
16.4937
12.2475
6.63745
0.230835
10.2128
1.20351
3.76554
3.11213
0.319528
1.17296
0.278871
5.47692
0.254286
11.4998
0.264162
1.64037
1.05867
1.83014
0.389609
1.58878
1.01202
0.194437
3.09303
0.263722
0.645341
4.81594
8.88479
2.75384
2.30303
11.2927
6.3264
5.39331
7.32865
1.11551
11.9052
1.43642
2.51146
0.349741
11.5119
1.38412
0.287595
13.9724
7.49249
1.08576
9.34175
1.25907
7.60336
3.9568
4.71323
0.979632
0.218995
2.38055
7.98894
0.253032
3.00444
5.55476
9.57967
4.47929
3.19035
0.0977236
2.52878
0.323152
1.27483
0.330509
1.81335
1.76363
10.3312
4.43533
2.06603
12.106
8.31086
3.75464
1.0881
1.63765
5.27908
8.30329
0.335192
0.294503
1.79223
9.29519
1.55224
11.7415
0.230029
1.42916
0.996816
1.30106
0.325871
0.908078
9.27674
12.5092
2.2259
8.84375
0.287992
1.52951
1.6947
7.18977
1.01443
1.25414
2.81125
1.26554
1.3232
0.311482
0.231677
0.323567
2.40387
0.214372
5.15835
7.50097
3.8029
0.265822
0.29183
0.927531
4.52297
4.48258
5.31133
3.30376
0.253617
0.224825
10.3997
5.24764
2.05615
5.90364
2.12616
0.669111
0.276486
0.192115
0.659092
0.318127
6.31412
1.98298
11.4669
2.14789
0.296641
0.451031
1.54233
1.13721
4.95132
1.35322
6.943
1.24312
3.40171
0.3007
0.272957
13.4113
1.60288
2.28571
0.366708
2.27033
0.303721
0.42033
0.188566
6.61185
0.604698
2.46652
7.23796
7.2715
1.49182
26.8073
0.43864
0.315855
8.5613
1.14018
0.196236
1.81386
0.312185
0.233101
6.98153
1.18092
4.83388
1.19687
10.6127
2.54871
0.288824
1.97736
7.50196
0.771297
4.76417
1.56209
4.87745
1.35308
8.03221
1.2113
1.99988
8.47773
8.23004
0.353494
2.35999
3.68625
2.04196
0.70207
2.87625
0.355964
0.31446
2.52072
0.301034
14.7282
2.05028
6.35475
5.6839
1.62672
1.75419
0.247781
3.50898
4.50125
0.225155
0.463427
21.292
10.2114
7.65682
5.85777
3.87731
0.95747
3.11812
0.325631
1.26051
14.2498
6.061
0.342776
1.37426
0.288545
0.326031
1.39324
0.237691
5.54083
0.481919
0.299758
1.648
19.8887
0.0294647
10.7208
0.948027
5.56605
2.69639
6.58743
0.304416
0.92835
1.81169
0.211672
10.9907
1.48452
10.6042
4.88405
2.52044
0.232363
23.6199
10.9334
7.55771
2.80718
6.52227
1.59279
0.31077
0.227106
4.86345
12.0946
0.282082
4.621
4.6451
2.16806
2.55196
10.6233
2.0945
1.13136
12.026
3.11233
1.91254
0.0597981
0.640168
7.43845
0.293214
10.8595
1.1848
8.94005
1.22397
2.20473
0.232265
0.395669
0.195824
1.18685
0.102799
9.82429
6.92145
4.72257
0.268326
2.51639
0.242418
0.292881
12.7815
6.76756
0.230705
1.6001
0.2441
0.993688
2.87821
0.243122
1.32709
2.56457
3.79732
3.27117
1.35461
6.71072
6.30734
5.10403
6.92573
0.533697
1.57738
0.304403
2.20113
0.304204
4.81113
6.6118
1.82117
10.6341
8.58965
0.183148
3.59575
1.41316
0.369175
3.71205
1.01296
0.234179
4.35287
0.42627
3.07478
0.208662
16.5945
0.627327
1.01802
0.319727
2.28759
0.966153
3.26979
5.83962
0.873371
0.286201
9.73889
1.58321
1.08945
3.99009
0.82545
2.85463
0.70698
6.93578
1.92848
0.277537
1.37848
9.32244
0.300734
2.67934
2.16222
0.361775
7.60273
0.210978
3.56768
2.23401
4.45283
2.10758
2.498
11.775
0.888607
2.71151
3.56539
0.884359
1.63999
0.319458
4.64929
1.61386
1.6922
1.17642
1.48386
1.90266
4.90497
2.60438
5.89476
1.14707
9.14139
0.318565
5.4314
0.77981
1.06877
5.68036
0.239126
3.34691
2.54994
4.68386
2.12745
1.7368
0.211989
3.19891
6.72591
1.21679
1.19648
0.594183
4.9917
1.75372
9.46692
0.368614
2.03765
2.29375
0.199032
9.64427
1.38755
1.13505
0.895241
2.44942
23.4933
6.59509
0.979834
3.44178
0.315866
9.34762
0.750481
11.638
4.07034
0.188655
0.251266
1.48956
2.61275
2.3582
3.68375
2.31545
0.68166
0.199981
2.32892
1.57723
3.1287
4.08841
1.21524
0.305814
2.43324
5.01975
1.41956
5.03069
0.262581
8.38667
6.27272
1.13636
0.845159
2.41843
1.36356
0.235011
2.51535
1.52034
0.295039
3.49641
3.12306
1.96632
3.30218
5.08683
0.310404
0.28267
1.52588
0.472844
8.09335
19.2968
0.282539
0.237787
2.60526
0.601032
3.29421
3.81074
12.1626
2.03061
0.239501
1.70171
0.971377
2.0203
3.8768
0.172067
9.23866
5.25901
3.23853
0.500519
13.3151
1.85743
1.08169
9.85171
1.09663
1.21743
8.88518
4.11952
1.91304
6.88711
6.76195
18.0135
1.3992
4.48801
1.40795
5.0993
4.48976
1.26887
1.14174
0.383629
1.85946
2.28374
3.1308
0.246284
1.27295
2.3274
0.175817
12.4695
0.091597
4.68976
8.14723
0.226368
5.50324
1.23467
1.74554
11.8984
4.01026
1.5996
3.85082
0.345059
0.326215
2.31157
0.256188
7.5696
2.81584
0.021646
0.336896
2.42273
9.59198
2.83642
0.27097
1.53675
7.88845
0.215726
0.237412
0.809269
0.31375
1.46669
2.66495
1.57935
0.253619
2.21204
1.14711
1.05129
0.203984
0.369414
6.4892
0.309822
2.46628
4.24298
1.24697
1.93574
2.32296
5.6606
3.91862
3.58462
10.6886
1.26475
5.40083
0.336608
3.03908
11.8584
0.235689
2.14805
1.85242
1.74899
0.195899
7.11379
4.6468
0.277802
5.23981
0.321023
4.21663
3.18572
1.56345
0.396332
0.75832
5.48108
3.88618
2.40055
5.32957
2.20266
0.322927
1.7067
10.2469
0.859567
0.571225
0.240135
4.98203
0.742941
6.24663
2.53319
1.45677
2.0446
11.517
0.455495
3.31839
3.53775
2.90461
6.31311
1.01345
4.79965
1.47242
0.575703
8.947
8.50316
8.91266
0.778849
9.0489
3.98161
0.093042
6.31222
11.2723
2.84759
1.85636
1.55794
3.20652
1.29719
1.12821
4.82852
6.32452
0.374784
0.345723
0.246857
0.858436
0.075335
2.18345
5.81386
1.76049
3.51506
0.250806
8.9484
0.207104
1.72284
0.201021
3.40821
1.64209
2.36669
12.7662
0.356419
4.53716
0.306477
2.03201
1.6527
1.54777
0.22093
4.78326
1.55148
1.7206
0.913023
4.93099
3.39797
1.8973
1.26227
1.16961
1.88947
0.215414
6.87444
3.15027
9.38921
3.25556
7.12066
0.282161
0.0569216
0.828334
3.38947
3.62151
0.831304
1.26966
0.202797
1.22098
0.691976
5.27926
1.43925
1.13744
1.65243
2.24676
5.83472
0.226956
0.594612
3.05964
6.77472
0.217322
1.84872
2.44692
0.732664
3.42133
1.05489
1.27132
11.9321
4.62477
29.0454
1.57097
7.76917
0.290838
10.5241
0.754662
1.64586
12.3948
0.236696
0.622912
1.59487
2.30043
4.28456
0.320733
0.282593
5.11023
3.54183
9.65424
3.03861
0.379243
0.200361
0.326914
0.205723
0.163026
0.635496
2.13182
0.657157
3.52037
5.40054
2.39112
2.50099
1.51276
0.224036
4.77245
6.08232
0.358422
0.193488
0.557978
4.37276
1.22534
0.33742
0.242945
0.730151
2.45318
1.65382
10.7604
1.94468
5.80494
2.77277
0.0480159
3.63044
1.30679
0.870694
1.67036
3.87671
10.0297
2.63702
0.306261
1.30529
5.13896
2.38075
5.34115
2.04361
0.261987
1.71529
0.295012
3.21518
2.97176
5.24794
0.231501
1.28119
2.26546
3.13276
0.274585
1.11256
1.47337
12.5712
0.107394
1.57618
0.807089
0.162984
2.65555
9.69485
0.375308
3.29339
2.74353
0.216496
2.6769
6.73752
5.52618
1.68771
5.5892
12.0761
0.209388
13.4183
9.30674
2.25016
0.220491
7.03646
8.83984
3.88127
1.32064
13.0661
2.3876
0.857733
3.23507
7.09334
0.306098
4.39356
2.16529
2.96886
0.315196
3.01019
0.197544
0.651086
19.9317
0.250133
3.14015
2.90066
0.364495
8.27105
0.677821
0.856326
1.13953
0.221222
0.21968
8.44653
2.21275
1.29276
2.06299
1.88083
0.759399
1.11612
5.75804
1.18738
4.27751
0.359533
7.07457
0.333109
21.85
1.39785
0.367734
0.500887
3.21075
2.11414
2.59711
1.17087
2.4835
1.68983
2.50772
4.81023
4.24746
1.61357
3.4739
0.292014
4.32577
1.62331
3.4625
0.202045
0.316874
0.335744
0.32881
0.184036
2.01374
0.133284
4.45522
2.17999
1.97504
0.276115
1.17628
2.17577
0.673277
11.7719
8.9338
4.58936
3.82429
2.34317
2.51708
0.503723
0.21635
1.20917
0.359066
0.208745
1.44832
1.54964
2.53014
10.263
0.656571
2.26173
5.39754
7.45108
2.87284
1.77925
2.25515
0.688923
0.27998
5.16687
0.800809
0.27184
0.344144
0.3342
1.39766
14.4955
0.200907
1.03407
1.89243
1.11238
7.36014
2.27651
3.3926
0.384207
0.26021
1.30741
22.3664
3.63985
0.266737
1.92636
0.326633
0.326871
0.211
0.331686
0.189783
3.57196
0.31175
8.53279
11.3664
0.47348
0.212969
0.225537
0.851336
7.27337
0.313878
21.4962
0.310499
2.60379
0.228493
1.52191
2.00415
0.303486
7.62069
0.347553
1.26304
0.521475
4.68982
4.46477
1.22582
1.08156
0.926088
3.07679
2.43455
0.58075
1.6664
3.47563
1.33552
20.2178
2.40193
0.407961
2.34944
0.387707
0.310472
9.05631
4.2853
6.73556
3.17849
4.86498
0.155135
0.336814
0.19807
0.311855
2.15728