/*--------------------------------*- C++ -*----------------------------------*\
  =========                 |
  \\      /  F ield         | OpenFOAM: The Open Source CFD Toolbox
   \\    /   O peration     | Website:  https://openfoam.org
    \\  /    A nd           | Version:  10
     \\/     M anipulation  |
\*---------------------------------------------------------------------------*/
FoamFile
{
    format      ascii;
    class       volScalarField;
    location    "850";
    object      p;
}
// * * * * * * * * * * * * * * * * * * * * * * * * * * * * * * * * * * * * * //

dimensions      [0 2 -2 0 0 0 0];

internalField   nonuniform List<scalar> 
10435
(
0.011216
0.499352
-8.94159
-2.26012
-4.03292
-7.80271
-9.06515
-8.87859
-9.56347
-8.94258
-0.337864
-5.88391
-9.32924
-0.188576
-0.00874572
-8.75527
-0.426714
-9.38263
-10.7859
-0.250706
-9.34713
-2.62891
-8.81838
-9.18925
-8.39487
-1.52254
-2.33066
-9.40723
-2.03497
-8.68826
-7.67411
-0.772386
-9.30891
-1.14183
-9.0187
1.15667
-8.80786
-3.42856
-0.790209
-10.0473
-8.61955
-9.44116
-0.0248885
-1.06451
-8.35418
-10.1541
-8.50271
-0.917453
-9.17849
-3.71653
-9.05645
-7.46494
-1.453
-2.12725
-0.285506
-2.0724
-9.06254
-2.03862
-0.982084
-8.94972
-1.23325
0.801446
-1.67733
-6.44218
-8.55332
-8.94923
-1.06961
-1.46233
-9.20309
-8.66691
-1.37305
-2.25999
0.541071
-8.83889
0.0274591
0.485644
-6.96604
-9.21285
-8.99666
-0.127167
-5.27551
-0.356737
-1.15791
-1.60209
-6.14294
0.886265
0.57712
-0.69675
0.830084
0.379401
-1.21907
-1.71781
-0.654677
0.651935
0.153857
1.19027
-2.78049
0.517492
-0.252902
-3.16722
-0.281543
-4.55478
0.683762
-0.239348
-5.54226
-1.63789
-1.0288
-4.41923
-6.90363
0.0271827
-2.87973
-3.58226
-0.130842
-0.167531
-1.65467
-1.89602
-3.89674
0.808832
-0.354039
-4.2891
-4.5311
0.734911
0.658331
1.10446
-0.965878
-1.30109
-3.57667
0.813408
-3.70556
-2.61603
1.10528
-0.34791
-8.91834
-0.182997
-1.82004
0.270312
1.38721
-2.98517
0.0753617
-1.27345
-0.732519
-8.27177
-0.792424
-6.15319
-3.36635
0.400523
1.39479
-7.06445
-0.168396
-7.02219
-0.961206
-8.34386
0.114344
-7.22781
-7.816
-1.07951
-1.71913
0.431702
-8.37596
0.474566
-7.71014
-0.270804
-1.32453
-5.82548
0.32493
-5.24908
-9.48835
-4.63776
-7.829
-6.45513
-8.44767
-0.174954
-3.17647
0.561844
-7.057
0.833146
1.01544
-0.820566
-2.15166
-1.34738
0.101061
-7.44014
-6.31323
-1.48265
-8.41351
-0.00220901
-0.12608
-9.19377
-4.69371
-7.01711
-5.67112
-0.906063
-1.19275
1.37172
-2.61218
-9.19389
0.158875
0.855073
-0.728744
-8.79804
0.968285
-0.489023
-9.37897
-1.63097
-9.14932
-2.36852
-0.857656
-3.84888
-1.90777
-4.28355
-0.33969
-8.62346
-5.76759
-6.34859
-1.48615
0.00158649
0.147917
-0.558606
-4.35001
-0.391698
-1.39116
-1.12753
-0.882641
0.897653
-1.5658
-9.10437
-3.78112
0.782195
-7.74129
0.473659
-0.982448
-9.12394
-3.88568
-8.04387
-2.41567
-0.526137
-8.70398
-2.6229
-8.45282
-8.14148
-0.573625
-1.21989
-0.54473
-2.02817
-2.2067
-9.2776
1.18026
-9.18916
-5.8474
1.07181
-5.81214
0.347109
-9.17258
-5.14535
-9.32914
-4.62331
-7.72693
-9.39685
-1.08421
-1.45357
-9.79454
-7.92493
-2.18669
-8.00635
0.344609
-0.411969
-0.141048
-8.60031
-0.638261
-3.12654
-9.56349
-9.77239
-9.92272
-9.06802
-5.0874
-5.0536
-1.18332
-2.92721
-9.25751
-9.3903
-8.82432
-0.531475
-9.46372
0.113321
0.419073
-0.337507
-5.89476
-3.4512
-1.41184
-1.70729
1.2089
0.100726
-2.03504
-9.51199
-3.06375
-6.79408
0.197114
0.228578
-2.01133
-8.2951
-1.07036
-7.66173
-9.56063
-7.83166
-1.38362
0.137345
0.0373368
-7.76767
-8.52638
-1.31507
-1.60632
-2.11582
1.24264
-6.05237
-9.72379
-7.68691
-0.63706
-7.41467
-1.19407
-5.27422
-6.42837
-3.052
0.32412
-0.567623
-8.72218
-9.12671
-6.33094
-9.65514
-0.873923
-2.16007
-9.69077
-1.66372
-1.27187
-9.16383
-7.45798
-1.84959
-1.56402
-2.92595
-0.779953
-2.8124
-7.37705
-1.17097
-0.912028
-5.95927
-9.00269
-2.16772
-1.6478
-0.0978399
-0.321456
-8.82416
-1.02347
-8.64743
-5.52556
-9.67846
-9.28763
-8.65554
-9.68445
-8.83103
-2.05572
-1.22388
-3.16786
-0.994547
-2.08623
-1.10128
-3.15609
-7.80782
-2.00444
-6.62933
-1.41505
-9.06197
-1.05847
-8.35671
-9.63993
-8.84097
-0.280664
-7.35405
-3.24771
-2.87809
-1.31704
-1.65816
-9.30403
-2.78276
-9.50514
-1.34471
-9.19969
-8.37988
-9.71287
-9.65049
-8.80394
-9.49612
-9.15896
0.938473
-0.613444
-1.75964
-0.74689
-9.17753
-1.56275
-9.38189
-8.56457
-2.01522
-11.159
-0.774482
-1.37502
-8.60744
-3.81922
-9.27435
-7.46449
-0.318221
-1.58576
-6.10384
-9.91894
-6.60288
-1.38962
-2.01058
-1.95856
-0.955605
-1.62208
-9.14158
-4.71213
-2.61357
-2.10147
-0.322011
-9.18613
-0.0226554
0.169039
-8.47857
-0.856931
84.1614
22.6871
39.7155
27.5212
29.2401
23.9542
22.0284
19.1681
13.6378
71.6887
20.8834
32.6325
23.6355
24.5897
20.9115
19.4063
17.0584
14.6993
57.2177
17.1802
26.2336
19.9907
20.4389
17.9372
16.6819
14.8467
12.9255
44.1061
12.3296
19.8273
15.9786
16.3994
14.8501
13.9697
12.6652
11.1344
32.0711
7.77236
13.9994
12.0696
12.5568
11.752
11.2697
10.5309
9.39223
20.9662
4.55244
9.10672
8.61078
9.12006
8.84203
8.65577
8.27813
7.68399
11.3386
3.4626
5.41775
5.82601
6.25038
6.30893
6.32892
6.22278
6.00922
3.81521
3.64819
2.82888
3.7256
4.00799
4.2565
4.40222
4.48771
4.08148
-1.52028
3.22296
0.923007
2.16675
2.36412
2.71461
2.9283
3.07986
3.11097
-4.85724
1.87584
-0.425796
1.07334
1.26304
1.6631
1.91767
2.12694
2.23119
-6.78516
0.44554
-1.15478
0.425194
0.629524
1.02633
1.28533
1.50436
1.73474
-7.14631
0.00829676
-1.19013
0.187773
0.363859
0.703097
0.927007
1.10329
1.50837
-5.80195
0.465664
-0.659147
0.247111
0.34094
0.589906
0.766324
0.940454
1.12805
-4.33601
0.997337
-0.0764275
0.392425
0.412212
0.576894
0.713281
0.87886
0.975911
-3.38011
1.25962
0.337709
0.503301
0.481836
0.584268
0.690185
0.828403
0.950837
-2.53078
1.28241
0.562186
0.540256
0.509177
0.575545
0.663816
0.779203
0.922559
-2.01739
0.986541
0.573378
0.489728
0.481853
0.53791
0.620593
0.71864
0.915548
-1.90093
0.417218
0.390471
0.36572
0.40769
0.474941
0.563359
0.663107
0.834095
-1.81567
-0.103645
0.169711
0.220363
0.309134
0.392577
0.485938
0.587514
0.709023
-1.64684
-0.397967
-0.0176012
0.0850961
0.204315
0.304223
0.405624
0.515209
0.645196
-1.59938
-0.541398
-0.182128
-0.0365986
0.0970155
0.209025
0.314797
0.431415
0.521029
-1.75235
-0.559817
-0.334008
-0.147972
-0.0136379
0.106624
0.216988
0.345913
0.332081
-2.16181
-0.411774
-0.456338
-0.234135
-0.108852
0.0123796
0.124486
0.252267
0.209726
-2.67394
-0.2103
-0.675253
-0.429259
-0.3033
-0.167587
-0.0185552
0.145785
0.0848745
-2.72375
0.340722
-0.336541
-0.123802
-0.051969
-0.0325713
0.066862
0.219862
-0.551645
10.4393
10.1447
10.1454
10.4804
10.915
11.4935
12.2268
13.1214
14.1763
15.3797
16.7171
18.1579
19.6625
21.2013
22.7325
24.2018
25.5758
26.8125
27.8803
28.7675
29.5362
30.3587
30.9408
30.7565
30.3801
30.6334
31.4981
32.542
33.4405
34.4294
35.5512
36.364
36.7331
36.8719
36.8957
36.821
36.6749
36.5481
36.4955
36.6276
37.0684
37.9838
39.3248
40.9726
43.0277
45.5941
48.6478
52.0039
55.523
59.2628
63.3052
67.5626
71.9028
76.0823
79.7929
82.9443
85.3853
87.254
89.0525
0.845791
0.181101
-0.367052
-0.897921
-1.40665
-1.8815
-2.31662
-2.70109
-3.02064
-3.27244
-3.51256
-3.77307
-3.97915
-4.07602
-4.06753
-3.94997
-3.72074
-3.37637
-2.91007
-2.31139
-1.56138
-0.63376
0.457248
1.65232
2.62093
3.05006
2.9074
2.2068
1.3555
0.698008
0.231374
-0.0987261
-0.352542
-0.547183
-0.684223
-0.764128
-0.775414
-0.698636
-0.51348
-0.204263
0.237095
0.820316
1.51386
2.09763
2.40886
2.4478
2.29132
2.15516
2.20559
2.2785
2.23724
2.2187
2.33567
2.88798
4.21146
6.15519
8.4715
11.1814
14.9082
4.33396
4.34365
4.3303
4.3869
4.49118
4.64096
4.83509
5.07191
5.34923
5.66286
6.00965
6.39525
6.82668
7.29949
7.80972
8.35224
8.92173
9.51266
10.1211
10.7419
11.3712
11.9991
12.5963
13.1107
13.5063
13.8021
14.0022
14.0777
14.0534
14.0171
13.9896
13.9633
13.9324
13.9093
13.907
13.9384
14.0187
14.1648
14.3946
14.7234
15.1679
15.7386
16.4469
17.2896
18.2833
19.4398
20.84
22.6045
24.7756
27.2244
29.6959
32.0031
34.2672
36.5664
38.7676
40.7491
42.439
43.9719
44.755
1.25949
0.991698
0.789041
0.631031
0.506316
0.417388
0.364478
0.348254
0.368816
0.425744
0.517971
0.644957
0.809892
1.01629
1.26637
1.56185
1.90313
2.2885
2.7152
3.17718
3.66607
4.16851
4.66474
5.12687
5.52087
5.82023
6.01143
6.09535
6.09357
6.03629
5.94149
5.81903
5.67566
5.51773
5.35057
5.18033
5.01296
4.85516
4.7156
4.60273
4.5279
4.50325
4.54648
4.67624
4.92346
5.32229
5.91335
6.73816
7.80417
9.22585
11.0939
13.1927
15.28
17.3069
19.2523
21.0304
22.7019
24.4666
26.3181
2.55001
2.5122
2.47635
2.49055
2.53908
2.61982
2.73126
2.87162
3.03889
3.23069
3.44543
3.68141
3.93702
4.21153
4.50348
4.81167
5.13483
5.47025
5.81607
6.16836
6.52214
6.87009
7.20281
7.5099
7.7796
8.00517
8.18117
8.30744
8.3881
8.43169
8.44654
8.43748
8.41199
8.37741
8.33913
8.30674
8.28737
8.28745
8.32121
8.3996
8.5377
8.7525
9.06632
9.50293
10.0928
10.8624
11.8407
13.0424
14.4563
16.1316
18.0858
20.2084
22.3515
24.386
26.2405
27.8765
29.2791
30.509
31.3637
1.49009
1.35483
1.25697
1.19878
1.17008
1.17146
1.20315
1.26453
1.35526
1.47411
1.62155
1.79652
1.99877
2.22739
2.4811
2.75821
3.05673
3.3709
3.70052
4.04048
4.38568
4.72668
5.05434
5.36147
5.63195
5.8638
6.04668
6.18325
6.27252
6.31701
6.32374
6.28951
6.22409
6.135
6.01822
5.89017
5.7505
5.59372
5.44676
5.31647
5.21913
5.17346
5.20267
5.33407
5.60182
6.02839
6.64986
7.48239
8.54079
9.82292
11.3179
12.9738
14.7211
16.5019
18.3061
19.9987
21.4243
22.6852
23.8549
1.82095
1.76866
1.73403
1.73649
1.76537
1.82009
1.89874
2.00157
2.12676
2.27098
2.43471
2.61573
2.8148
3.02948
3.25762
3.49884
3.75571
4.01296
4.28165
4.55318
4.83018
5.09973
5.35715
5.60879
5.82177
6.01793
6.17196
6.30102
6.39624
6.45468
6.49386
6.48547
6.45335
6.41387
6.33398
6.2658
6.1955
6.08576
6.01878
5.97122
5.96269
6.0091
6.12792
6.34386
6.69875
7.18192
7.84981
8.6915
9.7264
10.9453
12.3254
13.8229
15.3753
16.9191
18.4071
19.7417
20.8657
21.8704
22.6682
1.59627
1.50295
1.43794
1.41066
1.40219
1.42629
1.4657
1.54625
1.64595
1.73967
1.88087
2.03436
2.21643
2.42486
2.64402
2.89394
3.16464
3.37399
3.62585
3.8922
4.18558
4.45771
4.70628
4.98836
5.17043
5.37342
5.4976
5.62454
5.71711
5.77199
5.8325
5.78793
5.73278
5.70631
5.54634
5.49103
5.46917
5.17946
5.00241
4.83253
4.69474
4.59552
4.54667
4.57726
4.8457
5.09156
5.6214
6.19507
6.88896
7.79831
8.93571
10.2703
11.6211
13.0081
14.4205
15.7914
16.9936
18.1782
19.1477
1.63885
1.63719
1.61956
1.65195
1.68857
1.75884
1.82317
1.88377
1.9973
2.18751
2.24658
2.40232
2.60629
2.75987
2.99654
3.09388
3.3612
3.5861
3.82165
4.00158
4.25134
4.44629
4.64617
4.90301
5.01777
5.20948
5.28219
5.39387
5.53455
5.44054
5.63209
5.5552
5.41328
5.42981
5.22135
5.22054
4.97392
4.62473
4.69515
4.53014
4.41465
4.39487
4.29447
4.3236
4.52308
4.66491
5.03249
5.42216
6.27785
7.14655
8.07037
9.11143
10.2283
11.6395
12.9163
14.026
15.1083
14.9396
15.7443
-6.82152
-6.67431
-6.18349
-5.52241
-4.81772
-4.2314
-3.75779
-3.22714
-2.64221
-2.16807
-1.79064
-1.37937
-1.00346
-0.668864
-0.19516
0.410853
1.04553
1.7088
2.44238
3.27582
4.19715
5.18179
6.2907
7.83846
9.48339
-0.642078
-0.591144
-0.796743
-0.918674
-0.792962
-0.525767
-0.237362
0.0836383
0.37932
0.460288
0.305621
0.0599284
-0.184359
-0.335755
-0.257354
0.0517227
0.41637
0.676014
0.745931
0.762805
0.908463
1.17248
1.52283
2.05455
2.23558
-1.83127
-1.78794
-1.67182
-1.50954
-1.25413
-0.962107
-0.678173
-0.412412
-0.194317
-0.0959307
-0.111909
-0.178224
-0.250487
-0.281032
-0.202547
-0.0107585
0.243398
0.520555
0.796491
1.09943
1.46605
1.90052
2.40724
3.00789
3.80352
-1.32224
-1.29428
-1.16833
-1.04006
-0.871282
-0.683867
-0.496229
-0.322649
-0.179515
-0.0904339
-0.0531301
-0.042568
-0.0345925
-0.0054207
0.0692529
0.191547
0.343669
0.507677
0.671828
0.841876
1.02671
1.22027
1.40605
1.54215
1.70492
-1.23243
-1.19868
-1.06897
-0.942656
-0.790405
-0.63207
-0.475259
-0.332969
-0.213426
-0.125953
-0.0691168
-0.0291535
0.00898799
0.058393
0.132865
0.235956
0.362944
0.507758
0.666436
0.840433
1.03565
1.25529
1.50804
1.78955
2.23018
-1.09657
-1.04101
-0.911413
-0.800185
-0.66838
-0.538842
-0.408183
-0.290695
-0.188414
-0.10478
-0.0412325
0.0116857
0.0647091
0.122821
0.195272
0.284416
0.388908
0.506133
0.633185
0.767805
0.911523
1.06081
1.21636
1.35675
1.58137
-0.920861
-0.934269
-0.794161
-0.701047
-0.58217
-0.474008
-0.358272
-0.256903
-0.165346
-0.0837753
-0.0198502
0.0367255
0.0970784
0.158431
0.230483
0.314681
0.411014
0.519409
0.638351
0.764014
0.902066
1.04933
1.21678
1.39382
1.68435
-0.745122
-0.842599
-0.685548
-0.61505
-0.501605
-0.409429
-0.298294
-0.210309
-0.130926
-0.0515623
0.00675496
0.0603964
0.128923
0.193038
0.265176
0.347557
0.439435
0.541608
0.652482
0.76682
0.897495
1.03172
1.19234
1.36493
1.60618
-0.752677
-0.789775
-0.567739
-0.527951
-0.430132
-0.380117
-0.280102
-0.210406
-0.108201
-0.0295926
0.0342993
0.0765601
0.133582
0.189595
0.26812
0.347467
0.437016
0.538571
0.673182
0.792372
0.913124
1.05293
1.18931
1.2618
1.41345
-8.91842
-9.30863
4.25481
4.94652
0.557416
0.423477
-5.23175
1.04619
3.93558
6.72417
-10.5405
0.862787
-11.8602
-0.765239
-13.3597
1.99926
-0.328379
4.86355
4.18909
-35.6393
-33.1086
2.60996
-7.31634
2.84846
0.907208
1.70856
0.865907
-0.347855
-9.69972
-3.88054
9.00709
2.15028
-10.2374
-18.1329
-4.82446
0.883163
-4.10767
-12.3585
-7.02522
3.53566
-11.8823
2.56514
2.09925
-0.337042
1.16494
3.61551
-10.8313
-9.5524
-9.61847
-10.6245
-10.7731
-11.2924
-25.1374
4.83418
-4.94059
3.94279
-0.793731
-29.1014
-0.241595
-8.752
1.05389
4.56874
0.559948
2.20912
0.999301
-0.437381
1.91704
2.78792
-6.91287
-10.3577
3.63064
3.1215
0.593591
-34.8088
0.266045
-34.6596
-33.6355
-10.8766
-0.701254
4.79447
-16.9782
1.12652
1.34169
-8.64679
0.749763
1.1108
0.630167
-11.0259
-10.8002
1.59295
2.22496
0.939016
3.24987
0.941286
0.495023
-10.286
1.63381
-10.3929
2.51987
-8.82383
0.0244558
-12.2499
-0.0262485
2.48955
-0.115947
0.0831439
-7.18949
-20.9916
1.54127
-3.03047
2.15363
1.21687
-4.56624
2.27669
-26.4933
-9.55381
-11.9324
4.10281
-18.0368
1.45327
1.85078
1.11836
3.01283
1.03946
-9.94996
2.12128
-11.4767
-35.8532
-1.06419
-9.80109
1.41789
-34.8526
-10.2251
-13.0844
-0.490399
0.620964
1.31849
0.110416
1.22279
-35.2737
0.705234
-5.85087
-9.20064
1.89068
-9.74101
1.67509
4.84965
-33.9265
1.08156
-4.81653
-2.26732
-1.46937
4.83147
-18.8667
0.790814
-9.54971
0.307456
3.57881
-31.2104
3.50568
2.22659
3.75817
1.5383
-10.382
2.25524
-8.49919
-0.853289
0.634731
2.98492
0.252915
-0.743369
2.35465
2.73532
-8.82383
1.25413
-0.256803
-27.085
-9.93005
-9.18264
3.01468
-19.8644
2.44297
-22.2321
-20.2934
0.0981087
2.94502
-8.92766
1.48467
-11.0256
1.43389
-9.38682
-9.30828
2.00018
-4.70891
-15.8634
-10.8927
0.306219
2.5237
-9.62037
-9.36411
-5.45987
2.83395
1.28867
1.27009
-2.19522
3.70993
2.96063
0.0278323
-9.93086
3.56407
-0.146268
1.00127
-19.5721
-2.31108
-2.12957
-11.0991
0.318114
3.09971
5.37122
0.872955
-0.155252
2.60295
0.897846
4.55121
4.07703
-11.9319
2.14491
-0.165083
1.52857
0.564085
-9.26329
0.977726
2.32481
1.51091
-6.99657
4.81659
-30.1467
-0.337476
-20.9919
-16.6561
7.94669
0.999321
2.52112
-0.326
0.560949
0.839248
2.06994
0.211173
1.83077
2.62789
1.56819
-0.246945
3.42164
-9.88646
1.92859
0.354129
-4.60962
-33.223
-30.9905
9.3701
2.18878
-1.07518
1.3194
0.660225
-34.6313
1.14206
3.74508
4.8601
-6.20544
0.669625
-31.3383
1.83667
2.40386
3.10065
4.86289
4.81662
2.37535
3.66973
-0.871802
-10.7176
-0.283868
-2.09823
3.05442
3.08494
-8.95039
1.45173
-0.0525896
4.32829
-10.4353
-9.31392
-9.87777
1.75887
2.36104
-10.8281
-11.9408
-11.1407
-7.49431
1.49331
3.39702
-9.34894
-10.0938
2.07751
3.47621
1.33864
-5.18591
2.9721
-34.4529
2.57565
-35.4058
1.29663
2.56219
1.93399
-11.3986
-0.951241
2.38812
-3.41185
-10.8112
3.35117
0.94772
-11.4027
-31.6055
1.58285
3.46049
8.87314
0.833316
1.16518
-12.0238
-23.1475
2.03582
-28.5867
2.07188
-15.9045
-0.182955
5.88564
-11.4098
1.06397
1.13259
1.37203
1.37175
2.56667
0.997213
0.769583
-9.281
0.362281
-34.582
0.323156
0.243113
2.4896
0.641117
-9.76239
2.72506
3.47249
2.07688
-31.1972
-10.787
4.03252
-8.71144
-0.688022
2.43387
-8.67207
-10.0377
-7.14426
3.05667
-12.0386
2.63779
0.529603
2.39932
-11.2523
1.18559
-10.5951
3.12208
-19.8821
-9.64588
0.698117
-10.2399
1.34278
1.31588
2.58733
3.46563
5.38498
-7.13181
1.60661
-9.28148
-0.602579
-0.269576
-10.3369
2.45188
-35.6154
-10.5267
-9.21085
-3.56808
3.82045
0.67425
-3.58564
-19.8997
7.60978
2.55343
-8.8816
3.53856
-9.58437
0.959384
2.27329
0.694126
-9.75503
0.672732
2.97726
-5.95184
0.707928
-0.93136
4.1439
-0.425944
1.06981
-9.19965
1.08916
1.68276
3.64478
-9.51237
-9.46038
3.61348
1.69131
2.06024
3.2715
1.60614
-0.101114
3.31174
-10.4417
1.40456
3.34203
2.89609
2.1871
0.906261
0.327418
0.810093
-0.655129
-7.14331
2.56488
1.53813
2.333
2.44471
3.44283
3.37581
-16.8703
-10.7704
-0.825031
-11.5821
5.06902
-0.277544
2.06683
-0.243641
-0.743289
0.797817
2.30663
1.43405
-9.33611
2.70026
-10.3691
-8.37998
1.29577
2.25726
-34.7866
1.51006
-1.01512
-0.513082
-19.0242
-10.4425
0.73612
0.124053
4.77419
3.23856
-9.67772
-0.293191
0.642994
-6.72939
3.52162
1.08618
-19.2969
0.921493
0.405629
-33.6222
-33.0136
-2.31835
-8.41172
2.79697
0.775662
-9.19446
0.655645
1.03299
3.90435
-5.12846
2.22814
-19.948
1.88615
1.2383
-3.20818
1.10442
0.0532199
-17.7202
1.04716
3.54655
-10.8162
2.11277
-8.5292
1.26198
-0.331309
-28.0923
-18.6596
1.60421
1.45431
-5.81908
1.81112
2.39697
-15.5967
1.66791
1.04702
2.96468
-11.2846
-5.39789
-9.33952
1.2921
-3.1168
2.45481
-9.60741
-35.5973
5.12026
-16.5538
4.16183
-10.5342
-11.793
3.32906
3.36936
-0.11293
1.92081
4.733
2.97897
1.38419
-1.01346
1.66126
-9.48317
-9.67992
1.78214
-12.1561
-2.63809
1.80386
-7.95373
2.09164
4.73721
1.51497
-0.198738
1.07179
3.4472
-6.46208
-8.77788
-1.04859
-9.8451
-9.41058
-10.6967
0.819961
2.30225
-8.29017
-10.3631
1.15226
-14.8709
1.48885
-16.8353
-4.15938
6.98889
-2.90815
-0.383243
2.31426
1.88617
-11.5469
4.777
-12.9539
0.128478
0.424544
-3.85238
-9.82145
-10.2009
-0.189842
2.17702
-34.8368
-25.3191
2.60495
2.25713
1.19813
-8.33153
2.43904
0.429673
-6.2464
3.95595
0.3883
0.670625
2.36269
-22.6799
2.71864
-0.384782
-19.1201
-9.58439
0.580218
2.45623
-9.25042
-0.325429
2.68815
3.53381
-35.5691
2.01199
1.31953
4.10781
4.28842
2.29541
2.35054
-6.58146
0.907738
2.90595
-0.0380587
-27.149
3.34573
0.280381
4.88169
2.62917
0.738825
1.38873
1.78011
-1.60215
0.367838
-8.88163
-8.81366
-0.350576
-7.46871
0.0527908
0.503479
0.548943
2.87419
1.8056
1.4818
-28.1324
1.92555
1.02973
-1.4023
-24.9683
-3.04701
-0.620713
-0.450507
2.28599
0.552136
2.9619
2.20151
-0.601073
-8.98461
-21.7842
-30.9712
3.09357
5.49692
2.03088
4.40772
4.39505
-9.79281
16.0689
-35.3898
2.63314
-10.2172
4.69431
-10.6264
1.95618
0.628633
1.15759
-9.05108
1.96364
-0.416594
-25.7468
0.313487
5.4549
0.8637
-9.94696
2.73937
1.55598
-13.6286
0.918474
3.27502
5.01763
2.45728
-24.4271
3.4202
1.37379
3.73658
-0.623192
2.53153
-9.66323
-8.01442
1.96513
-6.65673
3.54111
-9.8205
1.30022
2.69306
2.5724
1.6689
-5.43881
1.87556
2.46232
-0.201953
2.86012
1.86439
3.26352
3.94968
-8.76708
-20.5969
-1.99485
-10.0385
-9.84693
-5.6883
-5.14419
7.14821
0.355377
0.713426
2.97673
1.62071
-1.11078
1.83595
0.971335
-9.51666
0.827667
4.89367
0.407633
2.42833
1.3032
0.881949
-1.79006
-20.765
-9.04264
3.54185
-9.68013
-4.72092
-9.97943
-35.1905
-11.5986
-10.7741
4.79454
3.0843
1.71711
2.73513
3.2483
1.39966
-11.7407
-9.47976
0.593192
-32.1251
-0.521927
3.29307
0.956752
1.16597
-8.61691
4.76236
0.997377
-5.21339
-21.7412
-21.0991
-10.4618
2.97865
2.99989
0.63051
2.80365
-9.394
-1.61051
-7.13577
-20.4399
0.244021
-22.8386
1.56624
3.02961
-0.0781396
0.349306
0.142333
3.52621
1.90321
1.82615
1.30348
1.51221
2.14271
1.33876
2.28548
3.60152
-10.1841
-9.14682
2.42617
2.59006
2.19384
-35.0827
0.799846
5.21365
1.81215
-32.3595
-2.04405
2.84626
0.875843
-10.1464
4.66013
-32.6877
1.47986
-33.2275
-13.3405
-26.7537
5.04077
-13.932
-0.966387
1.74801
-7.902
2.48861
0.946611
1.59138
-10.8173
4.22983
2.17675
0.72514
-10.6655
0.581421
4.63607
-0.167786
3.30444
2.30468
3.49213
-9.62367
-7.98721
2.68915
3.43936
2.83831
-33.4184
-6.883
2.45194
0.786968
0.103357
-31.084
3.4178
1.27832
-9.2242
4.56184
1.29583
5.04675
3.30756
-26.8881
1.26058
-32.5789
3.41711
1.15698
-12.2768
2.88185
1.82525
2.96626
-0.23868
-30.1476
-11.1328
2.96546
3.49582
1.16507
-14.4445
-35.0827
4.33773
1.51314
-14.0484
-11.9116
1.46745
-0.00288173
0.00557048
-9.48032
3.68501
-34.1011
1.98814
1.47329
-21.6094
1.64567
5.10629
4.5722
-34.7651
-9.92963
-8.93249
-9.16717
3.21976
-7.60802
-14.6555
1.79698
-5.09526
0.851314
0.0182597
-34.9257
1.34973
0.711493
-34.7474
4.80111
3.33211
3.21067
-10.3464
-0.976594
1.80453
-25.0094
-9.82075
-10.1023
1.11141
1.70282
-9.64633
-6.31928
-12.7398
-26.5856
-9.95481
-1.57537
2.90262
-3.15885
-9.21679
2.93573
3.31748
-1.52132
0.373787
2.11179
-3.05065
-8.07991
2.00352
0.156679
1.89014
-8.86214
-4.98779
-10.0081
-9.59246
4.31247
-0.360311
-2.8456
1.37049
-9.52911
-26.5816
2.9268
1.25425
1.28759
3.07835
-32.8442
-9.8269
1.18306
-9.44375
1.31042
-29.8316
2.22119
0.872604
1.08006
2.65486
-10.392
-0.4997
-30.7508
1.80825
1.95275
-9.19887
3.58904
-8.29224
-13.1985
-2.4186
1.22135
3.04587
-8.32004
1.61395
2.92323
1.06294
-3.39778
1.79337
-0.0765918
-29.8323
-6.50362
0.0889597
1.65028
2.71317
2.59592
0.0415752
2.39442
-29.1661
2.8015
1.57886
-9.30877
-35.2784
2.26922
1.62086
2.16576
-3.02696
3.20082
-9.6071
0.437962
0.0421603
-4.09896
1.56093
1.73092
-1.56228
0.546376
-9.88563
5.13219
3.27073
2.74069
-5.90583
-5.90609
-11.9349
0.94474
-32.2829
1.89694
2.6938
1.81077
-9.66331
-19.9655
2.76066
-1.95352
3.42333
-9.82655
1.4368
-9.72919
0.619873
0.805416
2.89909
-3.16762
-11.0997
1.44371
1.5936
-34.9268
3.2612
1.02317
1.04646
2.71731
1.46809
-9.95954
2.22767
1.57024
-23.6376
-0.161202
-9.27864
3.0965
-0.398665
2.21614
3.87194
3.01118
0.0913058
-9.75563
3.86435
-0.665421
3.26852
1.27572
-3.37712
-9.42246
1.93541
1.90747
1.73807
2.88084
3.62603
3.27709
-9.53641
4.87678
-34.8637
1.76443
-9.97858
-4.04555
-0.169745
-34.7072
1.71095
-9.95143
-7.49862
-9.3777
1.16255
1.33397
-0.146295
-10.2054
3.07612
4.64336
2.7896
1.66231
-1.62166
-0.480677
3.33762
0.196745
5.41179
9.33866
3.65586
-9.7195
7.11901
-10.9698
3.65714
2.28324
2.78119
5.48014
-23.3577
3.39534
-34.8979
-26.1454
0.776443
2.86418
-9.803
-10.2087
3.14656
3.4292
3.20672
3.31824
4.7036
-0.134221
-10.3401
1.6069
4.24748
-17.4627
1.0955
-2.15451
-11.3813
2.59629
0.688523
2.82368
-0.219887
-23.316
4.8291
-32.7993
0.140126
-0.0960505
5.97599
-12.3351
-12.4958
2.31868
4.96877
-32.0004
3.26449
0.00329129
-1.72341
-9.75378
3.47621
4.21907
3.32773
-0.433726
-9.51829
0.533095
3.36361
-9.00949
-9.44685
3.02095
2.45076
0.179887
4.77001
2.35841
-22.1581
0.979362
-27.926
1.12539
2.10956
0.911715
-25.3533
2.23879
-9.98016
-1.28415
-2.00226
-9.01855
-10.9386
5.118
1.90618
-11.9239
-25.1198
1.29868
3.17575
1.19355
-0.0386348
2.26122
1.00661
1.37916
0.736538
0.0589566
-0.218749
-10.9736
0.0564436
1.61996
2.44985
-9.51655
3.08266
-10.5454
-10.4325
0.130784
2.4216
1.6987
2.63724
1.54743
-31.26
4.73013
2.42706
1.18282
2.79585
-24.33
-12.3262
2.11786
1.80852
0.189861
3.01994
0.716448
-0.318152
4.40597
0.0923817
-1.0201
-9.97554
2.63402
2.29324
2.39122
1.44089
1.15412
2.59683
4.65665
1.72262
3.18775
-12.1705
1.79385
5.14261
-9.58011
0.665653
-2.9907
-9.69847
2.65325
1.3834
2.50216
-14.5646
1.91945
-16.941
2.53178
-10.4182
-10.2561
-35.6315
-9.97789
3.48466
1.07277
-34.6643
-31.2391
0.19338
2.76758
3.4639
-8.49821
2.36089
2.33139
3.31633
3.63412
-3.53377
3.3958
0.405735
3.12266
-10.2107
-35.0104
6.04886
4.55166
6.38947
2.34906
1.25896
-2.42396
4.26108
-0.279475
-9.83366
-35.2945
2.82147
-31.9852
-9.58968
-35.2822
-10.0157
-1.01524
-14.4896
-11.4878
-9.19236
3.00516
-9.55029
3.34521
3.62467
4.37122
1.62441
-13.1993
-19.0687
-10.3942
-19.2712
-0.138817
2.15077
-5.38492
-10.8285
3.93537
-11.8935
2.97152
-35.3361
2.33817
-9.99966
-2.25017
-0.0962058
1.38928
-35.4809
1.2082
-1.62167
-35.2206
2.55132
-9.67323
1.63628
2.04969
-8.22151
-5.19476
1.71967
-22.9979
-14.4716
4.61718
-26.1842
3.98631
1.66637
-0.251194
0.00900747
-10.0689
-14.1986
3.09805
-12.0117
-0.0949816
-30.5355
3.94892
1.99494
2.26237
-31.3397
-3.07479
-26.2178
2.01281
-9.71477
0.519701
-25.694
-11.8707
-2.00983
3.34237
-12.4904
2.65433
1.75702
2.67416
-30.0565
-11.0329
1.04205
-11.7404
1.99945
1.35834
-5.4507
2.0764
0.996986
-13.9391
2.97477
2.76154
3.95547
1.1608
2.39894
4.4188
-9.4827
-10.3352
1.50818
3.87672
1.7324
-14.0028
-10.649
1.09297
-1.15035
-0.0385377
-12.3741
-1.19108
-2.48224
-9.65086
0.854514
-25.091
-11.942
0.987115
1.21392
3.70036
4.01481
0.840634
1.93267
0.178142
-0.287299
-10.7759
2.14837
-11.9975
0.886366
-11.1561
2.46079
-20.3102
-1.96625
-34.6983
-9.93481
0.228323
-1.20046
2.4387
2.48212
2.24358
-9.76786
-9.41167
2.11586
2.75681
2.55623
2.83694
1.0186
1.67879
-10.9385
-9.42427
-34.6585
-12.1004
3.63355
0.78613
-16.9266
3.33986
-9.9994
2.81065
1.07246
-0.0675654
1.85292
1.10086
2.38922
1.1226
-1.71678
-9.60584
-10.2416
2.96352
1.35152
-33.1482
3.42313
1.30088
-4.3524
-9.45803
-9.20075
2.01514
-35.2513
1.35216
3.67181
3.25517
0.905658
10.3545
-1.72635
-5.61691
2.23786
-0.138167
-35.2417
2.12783
-10.7464
-9.19555
2.20137
-0.877533
3.3166
-0.0168608
-19.0142
0.131184
-10.0213
-0.031518
2.11439
-0.013241
4.03654
-0.595335
3.74704
2.06337
2.19591
0.795914
1.83516
-24.8557
3.37999
-0.85541
1.54205
2.11651
2.79039
-0.00532275
1.39448
2.12739
-10.6233
1.67301
-10.6064
5.68154
-31.5633
2.82978
3.55185
1.02587
0.769893
-9.76114
2.59697
2.23688
3.06619
-0.852926
4.34402
4.57195
4.31587
2.97255
-7.42247
1.15573
1.65736
-12.4504
1.20341
4.45327
1.86304
-7.04248
1.92875
-10.4419
-10.0523
3.41844
4.73647
3.02185
2.80284
-11.7374
3.22506
2.47734
2.40394
-24.0699
0.1105
3.38098
0.613514
-8.73255
-0.92813
0.196869
1.54535
-9.25601
2.15167
2.44353
-13.686
1.91491
-3.38001
-10.771
8.09427
-18.1289
2.41294
1.91979
3.83354
1.07838
1.17462
-9.14956
2.21795
4.9932
-11.078
2.29705
3.38933
3.51536
-0.399988
-6.04394
0.813625
0.646504
5.08695
1.74367
0.609929
1.74727
-0.0334861
3.59542
-1.72999
-22.0954
0.737628
-11.8637
0.23306
-32.9211
-10.5407
-34.1275
-9.30184
3.70824
2.69044
-25.1768
3.13385
2.32284
-9.64414
1.80606
4.97327
-10.3302
-13.6096
2.26683
-9.43274
0.516324
-10.1671
0.32159
3.48032
2.99402
-0.262867
-32.5789
2.23499
3.39292
-0.848688
1.27097
-16.1355
-0.202068
1.14246
-9.22377
-0.341174
-10.5381
-0.509059
-12.0482
2.05213
3.96705
1.78408
3.10924
-29.3748
-8.89316
-32.3518
0.536264
-9.61243
-27.8854
3.96305
-35.2839
-2.53067
3.02282
-33.8525
-9.80394
2.96332
-0.0114502
0.424609
-11.8923
0.886717
3.1464
-29.1413
-29.5306
-0.47872
-12.0124
-19.8096
1.38155
-0.119243
-5.49029
0.0924757
-33.7518
0.0350587
2.49792
1.1389
-3.18544
0.696453
-2.77327
-10.5754
0.789348
-4.01657
1.52482
2.32557
-10.6631
2.56872
-34.7999
2.9293
1.19082
1.68248
4.83019
1.40951
1.92792
3.47094
0.244757
3.49148
-10.3445
-31.0628
1.30042
-35.1662
0.800742
1.14906
2.09536
2.18574
1.89684
-13.8194
3.17402
-4.45453
-10.7518
-10.553
-33.828
3.85262
2.66039
-10.3286
2.43142
1.929
1.91178
0.92203
1.69337
-9.52024
3.22426
3.66495
0.901639
-0.0160318
-0.279978
-9.10048
-3.3854
-3.0623
-6.0661
1.41569
1.10627
4.60515
1.79825
0.882405
1.38802
-0.0368815
1.20139
6.49763
2.85224
3.15767
-4.51367
-10.9178
-11.706
0.0274662
3.79793
-3.31505
-9.20392
-9.76231
0.507913
1.41645
-0.543246
2.84411
0.887687
0.000100087
-9.34083
-3.4797
1.0415
1.71251
2.18839
-0.107266
-10.4956
0.329531
2.21066
1.31588
1.80862
-9.98746
3.67856
-18.2797
3.64072
0.179742
-0.115567
2.71032
-9.96516
-2.30351
2.17048
-12.0947
-32.2482
-0.728113
3.11339
1.78958
-25.6907
-12.0835
-12.2033
1.1765
-35.1469
2.98754
6.9488
-2.52825
-9.6528
0.970055
1.24247
-4.0817
-8.26774
4.48311
0.59701
-9.69245
1.08274
3.84903
2.45553
3.27518
4.71456
4.14555
2.87082
3.51645
-9.25713
3.16544
0.771398
0.498155
1.71947
-1.94841
0.251263
-27.6772
-3.0008
-3.43467
3.26163
2.12167
3.19756
3.37677
2.00532
1.0837
-30.8739
3.6679
0.352615
3.88149
3.67627
1.73259
0.0308221
3.49133
-10.2151
0.930643
-33.1036
2.13519
5.38514
2.5591
2.25894
2.72079
-10.5606
2.64457
0.48486
3.33312
3.91857
-27.4278
1.30507
2.6774
-6.37744
-11.2994
0.80781
-9.94592
3.47891
-31.1948
2.9837
-10.0114
3.25201
-4.20003
1.35705
-10.4851
-0.282548
-20.2002
-9.26845
-9.79858
-1.21742
-12.1298
1.25476
0.276714
1.15153
-10.3376
3.28535
0.20769
-35.0573
-10.0529
-9.72369
3.7667
-12.3295
-0.06583
2.29388
0.983131
-2.66733
3.49461
-12.5416
2.06209
1.88944
4.29135
3.19572
3.22036
-8.87816
2.70785
3.56887
-10.1311
-2.89526
0.49385
1.42306
-9.46752
2.14632
2.39055
-11.2488
3.51657
2.84817
-5.7066
2.42685
-0.0534964
-35.6166
1.36987
3.0974
3.12836
0.899831
3.53252
2.05571
-10.9714
0.680912
-18.4764
-0.538375
-0.0859442
-9.88236
-0.390811
-0.953777
3.44474
0.536523
1.74501
0.685774
-10.764
-9.26266
2.79252
2.17254
1.61185
-24.1727
0.149787
-3.13963
0.719545
-0.111663
2.11115
3.43595
-3.44049
0.0728614
-24.3741
-29.2316
2.87647
-20.0455
4.28469
-32.8012
-2.70928
0.955155
2.23996
0.227873
2.30615
2.03378
-23.1891
1.27486
-6.08567
-9.73092
-35.0928
2.42206
0.694388
-6.37882
0.821679
-6.03127
-12.0202
2.43667
-9.7754
-33.8653
-9.19889
3.46554
0.715752
1.38723
4.76086
-9.88148
3.23477
-10.7745
3.12603
3.54189
-0.330497
-10.0505
-27.6883
1.46497
3.31417
4.00829
3.03808
2.07662
-3.45118
-34.3923
2.21847
1.09319
-10.7666
3.36032
-30.7332
2.35925
1.68399
3.84274
-9.90413
2.50967
1.37776
2.75684
2.93365
-0.341136
1.86255
-9.74185
-0.172387
1.43629
2.17805
1.26315
-34.6966
0.718569
0.421857
-12.8731
-10.1385
-0.0582618
-32.1268
3.65197
-9.44074
-34.8724
3.3051
-0.324541
1.91329
1.75792
0.467316
-17.9127
-2.39833
7.88785
1.00609
-11.3042
1.00207
-9.24144
-33.8256
-1.61473
2.5707
-7.82075
-0.025719
1.06033
1.34966
3.56221
-34.6589
-10.8083
2.53206
-31.9
1.14897
-33.3799
3.74749
-9.51736
-11.6577
-9.40639
4.41829
-0.35457
3.36155
0.024789
-34.4474
-9.55833
3.25909
-3.02729
0.558437
-10.7244
2.62594
-5.80752
1.20912
-9.48146
-0.0933591
-28.5458
-0.623168
-7.1629
-10.2664
2.96357
0.109749
2.12627
4.6496
1.78832
-7.42304
3.50256
1.71146
-30.326
0.515102
-1.22353
-0.289242
2.61553
2.80756
-32.6496
-11.6454
-0.570919
-26.4175
1.41487
3.46085
2.11461
-10.4893
-32.1344
-10.6525
1.78187
2.48564
2.89722
-9.63437