/*--------------------------------*- C++ -*----------------------------------*\
  =========                 |
  \\      /  F ield         | OpenFOAM: The Open Source CFD Toolbox
   \\    /   O peration     | Website:  https://openfoam.org
    \\  /    A nd           | Version:  10
     \\/     M anipulation  |
\*---------------------------------------------------------------------------*/
FoamFile
{
    format      ascii;
    class       surfaceScalarField;
    location    "850";
    object      phi;
}
// * * * * * * * * * * * * * * * * * * * * * * * * * * * * * * * * * * * * * //

dimensions      [0 3 -1 0 0 0 0];

internalField   nonuniform List<scalar> 
16133
(
1.84491
0.13247
-0.32214
-1.65551
-1.4406
0.737106
-0.924794
1.62827
-0.488907
-2.28956
1.72954
1.04892
-0.312968
0.128185
-2.70349
2.88826
-0.657962
-0.201157
3.99609
-3.13698
4.71282
1.49523
-5.8921
-0.315958
-2.3288
0.741946
1.39769
0.189161
-0.0137928
-2.12035
0.529896
1.60425
-1.23643
1.88078
1.26787
-1.91221
0.554209
3.35435
-0.189939
-3.71862
2.0665
-1.8388
0.716284
-0.944009
2.85571
-0.898112
0.788811
-2.74641
-0.104703
-3.53662
2.07222
1.5691
0.963948
-0.838959
0.530705
-0.655695
1.06459
0.575027
-0.67567
-1.09018
0.78481
-2.35013
2.65549
-0.580623
0.460454
-0.718792
-4.96764
1.22925
3.78244
-0.0440414
-3.30278
2.74162
-0.675277
-0.00681248
2.04355
-0.191827
-0.442967
1.79075
-1.50173
0.153947
-0.466921
-2.6493
2.80324
-2.60245
2.65203
-1.13975
4.16916
-3.33115
0.031762
-0.869766
-3.26692
3.9636
-0.142469
-0.00259538
0.0038439
-0.0660847
0.064836
0.0186055
-0.00635895
-0.0127995
0.000552917
-0.220004
-1.70063
1.56751
0.353132
-0.0326091
0.0572481
-0.0464277
0.0217888
-4.14577
2.53249
2.13464
-0.63313
-3.40846
1.90695
-0.915643
0.814103
2.16803
0.682885
-1.93181
1.23514
-0.0187838
0.176652
-0.0311165
-0.126752
-1.93814
-1.90552
1.95112
1.89254
-0.909562
0.934818
1.0351
-1.06036
-1.56079
-2.85601
2.47867
-0.0277143
0.0755908
-0.0879265
0.04005
0.0419038
0.0834711
-0.0223313
-0.103044
-3.14504
0.581364
-0.739103
-4.25953
-0.0761743
-2.29967
-0.51803
-0.874742
-0.247731
0.0379776
1.08449
-0.244264
2.42853
0.019141
-2.20341
2.81191
-1.22339
-3.14931
1.84599
-0.821869
0.643154
-0.189868
-0.41967
-0.277955
0.588195
0.109428
1.5093
0.855855
-0.484369
2.7851
-2.63336
-0.618666
-1.09765
-1.46567
-3.91483
4.0746
-2.77242
2.61266
0.114606
0.0415322
-0.114234
-0.0227821
0.0354215
0.0603062
-0.0729456
-0.0156761
0.0465539
0.0525933
-0.038309
-0.0237105
0.0294105
2.66453
-1.37933
-4.14121
-0.0365602
-0.0679294
0.101707
0.00278305
-0.572062
0.846952
-0.460876
0.185985
2.60501
0.0700734
0.0173024
0.0272298
0.774057
-1.21627
-0.998402
0.0603732
-0.03042
0.0275265
-0.0574797
1.81687
-3.18865
2.77928
-1.40749
1.34156
-1.1321
-2.68968
1.84713
-1.44701
-0.480083
-0.152121
0.0601416
0.0500001
0.245476
-0.0710134
-0.224462
0.687726
1.63292
-2.77992
0.366961
-0.918195
0.0351836
0.00926791
-0.0672336
0.0909252
-0.020137
0.00718249
-0.0779708
-0.908674
0.373454
1.46526
-0.930048
1.44379
-2.32303
-1.81043
0.520414
-0.847157
1.39133
-0.692623
-0.975252
0.949161
0.718701
-3.0472
1.19669
-0.929412
-1.36582
0.878582
1.22918
-1.26375
1.18095
0.765693
1.30901
-1.19885
0.410256
3.03598
-2.89387
0.661534
-0.803664
1.72515
-1.55223
-0.255389
0.0824566
0.0544138
0.112384
-0.125266
0.0425881
0.0714574
-0.078624
3.37096
0.536688
-0.871673
-0.987883
0.800396
1.15977
-0.972292
1.50532
-1.32678
-0.785188
0.606641
2.33131
-2.08356
-0.492035
0.945737
-0.523933
0.374544
-0.796345
1.68224
-0.706042
0.529108
2.626
0.187352
-0.482054
3.28591
-0.531749
1.89308
-0.0354536
1.1591
-0.785437
0.572069
1.88722
-0.572461
0.367474
-1.14592
-0.751524
1.08332
2.74394
-0.541362
0.74462
-0.661871
-0.929907
0.850652
-0.299382
0.295682
-2.51055
2.7641
-0.692015
0.438454
1.01147
-0.790778
3.69295
-3.48052
0.690076
-0.902482
0.632722
-0.494668
0.298327
0.501295
3.96673
-0.775072
-0.0876053
2.04414
-0.157872
0.614812
-0.723583
-0.0789358
4.36977
-0.919877
1.34821
-0.40084
0.36164
0.307763
-2.43182
-0.509311
-3.11896
-1.01951
-1.42437
-0.316051
0.188196
-0.362127
0.285956
0.293208
-1.72047
-2.42914
-0.679192
2.59388
0.849393
1.3094
-1.90953
-0.707889
2.12536
-2.70368
-0.478659
2.50313
1.62182
1.51041
-0.538363
0.583529
-0.24228
-1.03388
1.46549
-0.862144
-0.778818
0.512291
1.48087
-1.21434
-2.03673
2.28794
0.897428
-1.14865
-0.0451555
0.108851
0.00581169
-0.0695069
-0.651766
0.710095
0.987493
-1.11406
3.60856
-2.96033
-0.0498922
0.0442949
-0.0109613
0.0165586
1.10274
-1.17147
-1.80233
-1.15004
-1.81458
-1.0542
0.430384
-0.0163819
0.0894
0.0179071
-0.0607194
0.136199
0.0955456
-0.171026
-0.576851
0.665132
-1.23421
-0.531448
2.87833
-1.66709
-2.20305
-0.206955
-0.0763838
-0.0831121
-2.39399
3.30525
-0.0168633
-0.156211
-0.307009
-0.651601
1.68421
-3.46419
2.43159
2.8866
0.929028
-0.960615
0.705301
-0.673723
1.16844
-1.233
0.909453
-3.00741
-0.768372
0.787183
-0.599441
2.25303
0.880157
-3.78479
-0.464493
0.114602
-0.0697784
-1.03868
-3.48996
1.80583
-1.59886
2.74952
1.18773
3.80261
1.76722
-0.141405
0.028141
0.26429
-0.151026
2.65827
0.751392
-1.12174
0.727145
-1.38282
0.91842
1.60223
-1.13785
4.0658
0.965177
-1.83294
-3.19803
-0.941914
0.418415
-2.35959
2.64193
3.153
-3.13123
-0.100711
-0.289871
1.28037
2.5161
2.71427
-1.74998
1.37585
-1.55768
-2.81414
-0.366006
2.70147
-2.37066
1.60546
-1.06007
1.82526
-3.08209
-3.57076
-0.177607
-2.36217
0.421791
-0.50166
-0.828806
0.00817058
-0.000407033
-0.00393828
-0.00382532
-0.316268
0.583426
2.82691
-2.77
0.82324
-1.15441
-1.15321
-1.04332
-0.637402
0.595146
-0.171041
0.213294
-2.24025
-0.398526
-0.0654226
0.119948
0.00272265
-4.50169
-0.480952
-1.86543
0.93634
0.0944255
-0.0695077
-0.779244
-0.969106
1.81145
-2.20816
1.93549
2.75067
2.43846
2.43141
-1.81912
0.135259
0.0556526
-0.136498
-0.0581888
-0.00808536
0.825693
-1.22093
0.627384
-1.08809
1.59801
-1.87939
-0.593313
0.774096
-0.726389
-1.03134
-0.0112296
1.47009
1.09614
0.132073
0.0181489
-0.177936
-2.28801
1.9633
0.171103
-0.904828
1.05132
-1.69357
2.43428
-0.447528
-0.587577
0.0505083
0.0736349
-0.06377
2.96055
-0.23561
0.0288276
-0.257711
1.79614
1.04809
2.89372
0.0103251
0.016451
-0.768792
0.900276
-0.434447
1.35269
0.128561
-0.118789
-0.155436
0.145664
-0.0537408
0.0511453
0.369191
0.0700816
-0.0824879
-0.0530164
0.66886
-0.318003
0.244286
0.282883
-0.102746
-0.197
0.740808
0.122826
-1.1799
-0.0266238
-0.0828073
0.141119
-0.0316884
1.60663
0.0525819
-0.0571438
0.0045619
-0.533457
-0.989276
2.55923
-3.35503
0.95531
0.750881
0.419236
-0.412089
-0.178188
-1.60902
-0.00115894
0.810316
-3.3351
-0.0457684
0.0504535
0.0172652
-0.0219503
-0.349315
-3.29913
-0.0843889
-0.0176931
0.0754581
-2.52137
-0.410809
-1.96429
3.69364
-1.98147
-0.0283056
-0.12512
0.0706178
0.21899
-0.2786
0.188172
-0.024296
-0.0501325
0.0361195
-0.772111
1.37996
-0.614417
1.38832
0.826137
-0.616446
0.0120626
-0.0237614
0.0116988
-0.979772
-1.17305
0.0257494
-0.0390767
0.0133274
1.23376
-3.08937
0.782002
0.808062
-0.370166
1.07901
0.021464
0.00428542
0.299572
-0.158025
-0.183606
0.316357
0.126574
-0.464808
1.50144
-0.359644
-0.540988
2.71414
0.155152
-0.0601789
0.0402858
-0.0876015
0.107138
-0.651535
0.866168
-1.55222
-0.343333
1.6206
-0.451111
2.79412
0.0466394
0.00450577
0.145651
-2.59721
0.930051
-0.51348
-1.4618
1.06372
0.70447
0.202535
-1.53151
1.40167
-0.154458
-0.0325824
0.0682514
4.33098
-0.07282
0.0419738
0.0849869
-0.0843726
-0.11144
0.162738
-1.14411
0.133379
0.0370773
-0.0951513
0.0289068
0.0326557
-0.0615625
-0.409456
-2.29335
3.01018
-0.373319
0.28079
0.147768
-1.40372
0.00761726
0.00444535
-0.816618
-2.92929
0.23604
0.0403071
0.0920114
-0.0903448
-0.279227
-0.149123
-0.0109054
-1.1974
-0.0839298
-2.26521
-1.20467
-0.01017
0.124458
0.228881
-0.161594
-0.618888
-0.0254922
0.0167197
-0.0216475
0.0559128
0.147733
-0.147993
-0.214947
-1.60753
-2.41084
0.0431481
0.0034913
0.102144
-1.43685
0.022574
0.921153
-0.00281459
0.0232554
0.0591205
0.0770405
-0.0958539
0.387188
0.12834
0.000892828
0.0327566
-0.0437252
-0.0133315
0.0110341
-0.135101
0.21083
-0.106846
-0.00681571
0.0140259
0.0443514
-0.00120337
-0.000620036
-0.00331826
0.130962
0.0232992
0.00278874
-0.00882276
-0.159265
1.24873
-0.90405
0.836272
0.0251231
-0.101103
-0.00967725
0.158408
-0.264313
-0.411454
0.65761
0.441903
-1.07407
-0.964856
-0.0232119
0.0333856
-0.0440174
0.0245887
-0.061432
-0.0141071
0.0189901
-0.00114122
-0.000417454
0.0447688
-0.0524665
-0.0514238
1.33177
-0.0103162
0.0366835
-1.52555
0.350576
-1.19103
-0.473182
-0.0741498
0.0046192
-0.0142965
-0.0382458
0.0151189
-0.0415184
0.0516486
-0.0115077
0.393303
-0.535745
-0.71434
0.57787
-0.0369415
-1.04678
-0.328625
-0.0633246
-0.0317536
-1.05347
-0.921302
-0.0203305
-0.0443277
0.0257222
0.112097
-0.398165
0.0370694
0.0180705
-0.0422808
1.06622
-0.0155578
0.0263375
-0.00379854
-0.0729237
2.92111
-0.0599695
-0.204905
-0.694921
-0.183509
-0.649962
-0.00472892
0.124995
-0.120266
-0.00900431
0.130962
-0.126686
-0.0132721
0.142867
-0.138599
-0.0178615
0.15278
-0.14819
-0.022677
0.162585
-0.157769
-0.0278922
0.17141
-0.166195
-0.0334457
0.180046
-0.174493
-0.039449
0.188333
-0.182329
0.196516
-0.190355
-0.04561
-0.00383261
0.128828
-0.00778413
0.134913
-0.0116146
0.146697
-0.0157072
0.156872
-0.0199421
0.166819
-0.0245389
0.176007
-0.0294426
0.18495
-0.0347163
0.193606
0.202141
-0.0403417
-0.00333099
0.132159
-0.00672889
0.138311
-0.0100708
0.150039
-0.0136103
0.160412
-0.0172991
0.170508
-0.0212734
0.179981
-0.0255181
0.189195
-0.0300663
0.198155
0.206999
-0.0349237
-0.00294873
0.135107
-0.00578539
0.141148
-0.00858923
0.152843
-0.0115518
0.163375
-0.0146737
0.17363
-0.0180422
0.18335
-0.0216533
0.192806
-0.0255405
0.202042
0.2112
-0.0297422
-0.00258133
0.137689
-0.00484804
0.143414
-0.00708885
0.155084
-0.00947192
0.165758
-0.0120143
0.176173
-0.0147816
0.186117
-0.017786
0.19581
-0.0210556
0.205312
0.214755
-0.0246101
-0.00209663
0.139785
-0.00381585
0.145134
-0.00550775
0.156776
-0.0073179
0.167568
-0.00927946
0.178134
-0.0114457
0.188284
-0.0138217
0.198186
-0.0164318
0.207922
0.217624
-0.0193011
-0.00133337
0.141119
-0.00259029
0.146391
-0.00378407
0.157969
-0.00506135
0.168845
-0.00644979
0.179523
-0.0080023
0.189836
-0.00974113
0.199925
-0.0116766
0.209857
0.219781
-0.0138332
-0.000321061
0.14144
-0.00121457
0.147284
-0.00195342
0.158708
-0.00270754
0.169599
-0.00352855
0.180344
-0.0044754
0.190783
-0.0055661
0.201016
-0.00681975
0.211111
0.221158
-0.00819673
0.000610761
0.140829
0.000123237
0.147772
-0.000118771
0.15895
-0.000334297
0.169815
-0.000576603
0.180586
-0.000902385
0.191109
-0.00134796
0.201461
-0.00191586
0.211679
0.221865
-0.0026236
0.00122098
0.139608
0.00126173
0.147731
0.00161719
0.158595
0.00199835
0.169434
0.00236346
0.180221
0.00264427
0.190828
0.00282356
0.201282
0.0028814
0.211621
0.221915
0.00283219
0.00153648
0.138072
0.00222695
0.14704
0.00326204
0.15756
0.00426758
0.168428
0.00523783
0.179251
0.00611144
0.189954
0.00688541
0.200508
0.00753489
0.210971
0.221404
0.00804554
0.00177548
0.136296
0.00322246
0.145593
0.00490726
0.155875
0.00649802
0.166837
0.00801346
0.177735
0.00944527
0.188522
0.0107718
0.199181
0.0120026
0.20974
0.220363
0.0130439
0.00239093
0.133905
0.00452464
0.14346
0.00665774
0.153742
0.00868649
0.164809
0.0106499
0.175772
0.0125362
0.186636
0.0143428
0.197375
0.0160534
0.20803
0.218735
0.017681
0.00332069
0.130584
0.005961
0.140819
0.00839556
0.151307
0.0107415
0.162463
0.0130372
0.173476
0.0152673
0.184406
0.0174305
0.195211
0.0195058
0.205954
0.216738
0.0215024
0.00412223
0.126462
0.00720606
0.137736
0.00990084
0.148613
0.0124841
0.159879
0.0150201
0.17094
0.0175116
0.181914
0.0199407
0.192782
0.0222784
0.203617
0.214478
0.0245387
0.00453482
0.121927
0.00799846
0.134272
0.0109283
0.145683
0.0137248
0.157083
0.0164643
0.168201
0.0191545
0.179224
0.021778
0.190159
0.0243094
0.201085
0.212032
0.0267551
0.00425322
0.117674
0.00808749
0.130438
0.0112892
0.142481
0.0143319
0.15404
0.0172812
0.165251
0.0201551
0.17635
0.0229285
0.187385
0.0255965
0.198417
0.20952
0.0281084
0.00342353
0.11425
0.00746177
0.126399
0.0109926
0.13895
0.014322
0.150711
0.0175009
0.162072
0.0205538
0.173297
0.0234715
0.184468
0.0262425
0.195646
0.206918
0.0288448
0.00268642
0.111564
0.00662836
0.122457
0.0103526
0.135226
0.0139142
0.147149
0.0173042
0.158682
0.0205363
0.170065
0.0236031
0.181401
0.0265069
0.192742
0.204166
0.0292589
0.00228611
0.109277
0.00597573
0.118768
0.00971167
0.13149
0.0133906
0.14347
0.016924
0.155149
0.020299
0.16669
0.0234978
0.178202
0.026505
0.189735
0.201364
0.0293072
0.00212847
0.107149
0.00559854
0.115298
0.00925717
0.127831
0.0129598
0.139767
0.016578
0.15153
0.0200691
0.163199
0.0234026
0.174868
0.0265348
0.186603
0.198495
0.0294041
0.00219417
0.104955
0.00552354
0.111968
0.0090834
0.124271
0.0127513
0.136099
0.0164147
0.147867
0.0200101
0.159603
0.0234935
0.171385
0.0267866
0.18331
0.195421
0.0298599
0.00258016
0.102374
0.00577081
0.108777
0.00921243
0.12083
0.0128141
0.132498
0.0165091
0.144172
0.0202202
0.155892
0.0239102
0.167694
0.0274226
0.179797
0.192277
0.0305667
0.00327124
0.0991031
0.00627944
0.105769
0.00958401
0.117525
0.013137
0.128945
0.0168793
0.14043
0.0207136
0.152058
0.0246667
0.163741
0.0284481
0.176016
0.189472
0.0312532
0.00395178
0.0066773
0.00996849
0.0136473
0.0175793
0.0216437
0.0261203
0.0311099
0.0370729
-0.101417
-0.00115569
0.102572
-0.100076
-0.00134026
-0.0985213
-0.00155491
-0.0967188
-0.00180251
-0.0946417
-0.00207713
-0.0922634
-0.00237831
-0.0895619
-0.00270145
-0.0865251
-0.00303683
-0.0831432
-0.00338196
-0.0794226
-0.00372062
-0.0753755
-0.00404701
-0.0710208
-0.0043547
-0.0663809
-0.00463984
-0.0614804
-0.0049005
-0.0563535
-0.00512693
-0.0510334
-0.00532004
-0.0455611
-0.00547231
-0.039977
-0.00558403
-0.0343281
-0.00564886
-0.0286662
-0.00566193
-0.0230544
-0.00561175
-0.0175743
-0.00548007
-0.0123127
-0.00526155
-0.00729953
-0.00501312
-0.00243931
-0.00486016
0.0024244
-0.0048637
0.00744957
-0.00502511
0.012774
-0.00532441
0.0183871
-0.00561304
0.0241605
-0.00577342
0.0299878
-0.0058272
0.0357994
-0.00581163
0.0415477
-0.0057482
0.0471853
-0.0056376
0.052666
-0.00548061
0.0579475
-0.0052814
0.0629879
-0.0050404
0.0677467
-0.0047588
0.0721914
-0.00444457
0.0762945
-0.0041031
0.0800438
-0.00374917
0.0834408
-0.00339698
0.0865068
-0.00306592
0.0893099
-0.00280316
0.0919345
-0.00262445
0.0944554
-0.00252091
0.0969177
-0.00246214
0.0993445
-0.00242677
0.101734
-0.0023891
0.104072
-0.00233823
0.106345
-0.00227273
0.108531
-0.00218602
0.110617
-0.00208576
0.112583
-0.00196625
0.114415
-0.00183248
0.116104
-0.0016882
0.11764
-0.0015359
0.119028
-0.00138865
-0.00123798
-0.0975938
-0.00273302
0.0991711
-0.0958756
-0.0030585
-0.0940081
-0.00342237
-0.09198
-0.0038306
-0.089786
-0.00427114
-0.0874135
-0.0047508
-0.0848586
-0.00525633
-0.08211
-0.00578544
-0.0791627
-0.00632924
-0.0760089
-0.00687452
-0.0726388
-0.00741698
-0.0690429
-0.00795063
-0.0652106
-0.00847219
-0.0611436
-0.00896745
-0.0568417
-0.0094288
-0.052311
-0.00985073
-0.0475625
-0.0102208
-0.042612
-0.0105346
-0.0374743
-0.0107865
-0.0321671
-0.0109692
-0.0266996
-0.0110792
-0.0210591
-0.0111206
-0.0152069
-0.0111137
-0.00911548
-0.0111046
-0.00284019
-0.0111354
0.00351749
-0.0112214
0.00985619
-0.0113638
0.0160844
-0.0115526
0.02221
-0.0117387
0.0282877
-0.0118511
0.0343264
-0.0118659
0.0403023
-0.0117875
0.0461767
-0.0116226
0.0519176
-0.0113784
0.0574911
-0.0110542
0.0628706
-0.0106609
0.0680337
-0.0102034
0.0729709
-0.00969602
0.0776756
-0.00914922
0.0821528
-0.00858036
0.0864121
-0.00800837
0.0904657
-0.0074506
0.0943336
-0.00693376
0.0980027
-0.00647231
0.101449
-0.00607053
0.104655
-0.00572684
0.107611
-0.00541859
0.110304
-0.00511993
0.112737
-0.00482181
0.114914
-0.00451503
0.116853
-0.00421118
0.118579
-0.00391267
0.120119
-0.00362584
0.121501
-0.00334821
0.122741
-0.00307255
0.123865
-0.00281135
0.124885
-0.00255608
0.125819
-0.00232289
-0.00210524
-0.104811
-0.00450532
0.106584
-0.102896
-0.00497368
-0.100833
-0.00548594
-0.0986215
-0.00604168
-0.09625
-0.00664266
-0.0937132
-0.00728765
-0.0910009
-0.00796862
-0.0881055
-0.0086809
-0.0850122
-0.00942251
-0.081705
-0.0101817
-0.0781677
-0.0109543
-0.0743903
-0.0117281
-0.0703678
-0.0124947
-0.0660947
-0.0132405
-0.0615682
-0.0139553
-0.056794
-0.014625
-0.0517706
-0.0152441
-0.0465065
-0.0157987
-0.0410079
-0.0162852
-0.0352802
-0.0166969
-0.0293244
-0.0170349
-0.0231429
-0.0173021
-0.0167432
-0.0175134
-0.0101567
-0.0176912
-0.00343541
-0.0178566
0.00336859
-0.0180254
0.0102015
-0.0181967
0.0170059
-0.018357
0.0237413
-0.018474
0.0304015
-0.0185114
0.036982
-0.0184464
0.0434644
-0.0182699
0.0498242
-0.0179823
0.0560311
-0.0175853
0.0620637
-0.0170868
0.0678999
-0.0164971
0.0735227
-0.0158261
0.0789218
-0.0150951
0.0840927
-0.0143201
0.08903
-0.0135177
0.0937361
-0.0127144
0.0982109
-0.0119254
0.102448
-0.0111713
0.106434
-0.0104578
0.110159
-0.00979571
0.113606
-0.00917359
0.116774
-0.00858717
0.119678
-0.00802347
0.122335
-0.00747934
0.124763
-0.00694252
0.126969
-0.00641769
0.128967
-0.00591068
0.130775
-0.00543347
0.132407
-0.00498
0.133885
-0.0045505
0.135226
-0.00415225
0.136454
-0.00378423
0.137574
-0.0034435
-0.00312969
-0.111137
-0.00630964
0.112941
-0.109188
-0.00692184
-0.107082
-0.00759204
-0.10481
-0.00831401
-0.102365
-0.00908806
-0.0997363
-0.00991593
-0.0969154
-0.0107895
-0.0938865
-0.0117098
-0.0906431
-0.0126659
-0.0871739
-0.0136509
-0.0834716
-0.0146566
-0.0795236
-0.015676
-0.0753271
-0.0166912
-0.0708707
-0.0176969
-0.0661531
-0.0186729
-0.0611645
-0.0196136
-0.0559055
-0.0205032
-0.0503749
-0.0213294
-0.044574
-0.0220861
-0.0385059
-0.022765
-0.0321755
-0.0233653
-0.0255911
-0.0238865
-0.0187692
-0.0243352
-0.0117421
-0.0247183
-0.00455284
-0.0250459
0.00274544
-0.0253237
0.0100947
-0.0255459
0.017441
-0.0257033
0.0247437
-0.0257767
0.0319766
-0.0257443
0.0391194
-0.0255892
0.0461521
-0.0253026
0.0530506
-0.0248808
0.0597935
-0.0243282
0.0663554
-0.0236487
0.0727193
-0.0228609
0.0788698
-0.0219766
0.0847858
-0.0210111
0.0904563
-0.0199906
0.0958746
-0.018936
0.101029
-0.0178691
0.105909
-0.0168056
0.110502
-0.0157639
0.114795
-0.0147508
0.118773
-0.0137732
0.122437
-0.0128378
0.125785
-0.0119348
0.128834
-0.0110729
0.131596
-0.0102412
0.134101
-0.00944775
0.136368
-0.00868492
0.138415
-0.00795786
0.140255
-0.00727326
0.141917
-0.00664185
0.143422
-0.00605549
0.144789
-0.00551935
0.146031
-0.00502597
0.147159
-0.00457151
-0.00416118
-0.120649
-0.00825371
0.122593
-0.118533
-0.00903793
-0.116241
-0.00988343
-0.113764
-0.010791
-0.111092
-0.0117603
-0.108217
-0.0127907
-0.105127
-0.0138799
-0.101818
-0.0150191
-0.0982786
-0.0162051
-0.0945009
-0.0174287
-0.0904768
-0.0186807
-0.086199
-0.0199538
-0.0816598
-0.0212304
-0.0768551
-0.0225016
-0.0717748
-0.0237533
-0.0664168
-0.0249716
-0.0607782
-0.0261417
-0.0548553
-0.0272523
-0.0486524
-0.0282889
-0.0421703
-0.0292471
-0.0354206
-0.0301151
-0.0284153
-0.0308918
-0.0211757
-0.0315748
-0.0137304
-0.0321637
-0.00611899
-0.0326573
0.00161196
-0.0330547
0.00941508
-0.033349
0.0172438
-0.0335321
0.0250564
-0.0335893
0.0328175
-0.0335054
0.0404966
-0.0332683
0.0480641
-0.0328701
0.0554908
-0.0323074
0.0627522
-0.0315897
0.0698256
-0.030722
0.0766819
-0.0297173
0.0833013
-0.0285959
0.0896662
-0.027376
0.0957578
-0.0260822
0.101564
-0.0247419
0.107065
-0.02337
0.112255
-0.0219956
0.11712
-0.0206288
0.121656
-0.019287
0.125862
-0.0179791
0.129736
-0.0167119
0.133292
-0.0154915
0.136541
-0.0143212
0.139499
-0.0131999
0.142188
-0.0121368
0.144636
-0.0111324
0.146866
-0.0101882
0.148903
-0.00930979
0.150754
-0.00849317
0.15244
-0.00774164
0.153971
-0.00705048
0.155362
-0.0064161
0.156625
-0.00583539
-0.00530474
-0.129565
-0.0102743
0.131586
-0.127368
-0.0112351
-0.124987
-0.0122641
-0.122409
-0.0133697
-0.119618
-0.0145512
-0.11661
-0.0157984
-0.113372
-0.0171175
-0.109894
-0.0184973
-0.106165
-0.0199345
-0.102178
-0.0214153
-0.0979237
-0.0229352
-0.0933949
-0.0244827
-0.0885813
-0.026044
-0.0834765
-0.0276065
-0.0780763
-0.0291534
-0.0723764
-0.0306715
-0.0663736
-0.0321446
-0.0600732
-0.0335527
-0.0534741
-0.034888
-0.0465844
-0.0361368
-0.0394114
-0.0372881
-0.0319734
-0.0383299
-0.0242911
-0.0392571
-0.0163952
-0.0400596
-0.008324
-0.0407285
-0.00012107
-0.0412576
0.00816825
-0.0416383
0.0165004
-0.0418643
0.0248333
-0.0419222
0.0331276
-0.0417996
0.0413481
-0.0414889
0.0494575
-0.0409795
0.0574241
-0.040274
0.0652194
-0.0393851
0.0728113
-0.0383139
0.0801762
-0.0370822
0.087288
-0.0357078
0.0941146
-0.0342026
0.10064
-0.0326071
0.106842
-0.0309438
0.112709
-0.0292373
0.118224
-0.0275107
0.123383
-0.0257881
0.128179
-0.0240825
0.132615
-0.0224152
0.136697
-0.020794
0.140436
-0.0192309
0.14385
-0.0177353
0.146964
-0.0163133
0.149798
-0.0149712
0.152381
-0.0137154
0.154732
-0.0125395
0.156872
-0.0114495
0.15882
-0.0104409
0.160593
-0.0095146
0.1622
-0.00865819
0.163661
-0.0078762
0.164991
-0.0071654
-0.00650928
-0.140029
-0.0124172
0.142172
-0.137695
-0.013569
-0.135159
-0.0148002
-0.13241
-0.0161191
-0.129436
-0.0175247
-0.126224
-0.0190111
-0.122763
-0.0205785
-0.119041
-0.0222192
-0.115055
-0.0239208
-0.110789
-0.0256811
-0.106239
-0.0274847
-0.101398
-0.0293236
-0.0962552
-0.0311871
-0.0908046
-0.0330572
-0.0850417
-0.0349163
-0.0789649
-0.0367484
-0.0725683
-0.0385412
-0.0658651
-0.0402559
-0.0588532
-0.0418999
-0.0515436
-0.0434465
-0.0439411
-0.0448905
-0.0360662
-0.0462049
-0.027941
-0.0473823
-0.0195909
-0.0484097
-0.0110613
-0.0492581
-0.00239146
-0.0499274
0.0063708
-0.0504006
0.0151878
-0.0506813
0.0240182
-0.0507526
0.0328192
-0.0506006
0.0415557
-0.0502254
0.0501785
-0.0496022
0.0586526
-0.0487482
0.0669482
-0.0476807
0.0750259
-0.0463915
0.0828646
-0.044921
0.0904347
-0.0432779
0.0976873
-0.0414552
0.104613
-0.0395331
0.11119
-0.0375205
0.117408
-0.0354552
0.12325
-0.0333524
0.128712
-0.0312505
0.13379
-0.0291605
0.138494
-0.0271191
0.142829
-0.0251294
0.146811
-0.0232121
0.150452
-0.0213763
0.153778
-0.01964
0.156815
-0.0180083
0.159582
-0.0164817
0.16211
-0.0150677
0.164413
-0.0137524
0.166512
-0.0125398
0.168422
-0.0114249
0.170163
-0.0103991
0.171748
-0.00946113
0.173187
-0.00860477
-0.00781495
-0.150691
-0.0146633
0.152937
-0.148255
-0.0160045
-0.145614
-0.0174418
-0.142741
-0.0189914
-0.139632
-0.0206344
-0.136262
-0.0223805
-0.132633
-0.0242081
-0.128717
-0.0261345
-0.124502
-0.0281365
-0.120002
-0.0301806
-0.115194
-0.0322925
-0.11007
-0.0344483
-0.104623
-0.0366339
-0.0988421
-0.0388379
-0.0927272
-0.0410311
-0.086269
-0.0432067
-0.0794653
-0.0453448
-0.0723534
-0.0473678
-0.064928
-0.0493253
-0.057193
-0.0511815
-0.0491471
-0.0529364
-0.0408225
-0.0545295
-0.0322443
-0.0559605
-0.0234086
-0.0572454
-0.0144016
-0.0582651
-0.00524755
-0.0590815
0.00398814
-0.0596363
0.0132927
-0.0599859
0.022618
-0.0600778
0.0319175
-0.0599001
0.0411705
-0.0594784
0.050293
-0.0587248
0.0592543
-0.0577094
0.0680517
-0.0564781
0.0765952
-0.054935
0.0849016
-0.0532274
0.092957
-0.0513333
0.10063
-0.0491278
0.107955
-0.0468586
0.114917
-0.0444828
0.1215
-0.0420376
0.127699
-0.0395515
0.133484
-0.0370353
0.138868
-0.0345453
0.143887
-0.0321376
0.148502
-0.029745
0.152763
-0.027473
0.156664
-0.0252772
0.160211
-0.0231865
0.163444
-0.0212417
0.166395
-0.0194324
0.169089
-0.0177616
0.171546
-0.0162097
0.173786
-0.01478
0.175829
-0.0134674
0.177691
-0.0122618
0.179382
-0.0111516
0.180924
-0.0101467
-0.00922069
-0.162751
0.165078
-0.016991
-0.160191
-0.0185644
-0.157403
-0.0202297
-0.154355
-0.0220396
-0.151048
-0.0239407
-0.14745
-0.0259791
-0.14355
-0.0281075
-0.139384
-0.0303009
-0.13492
-0.0326003
-0.130064
-0.0350366
-0.124936
-0.0374208
-0.119472
-0.0399119
-0.113625
-0.0424815
-0.107485
-0.0449776
-0.100955
-0.0475615
-0.0941525
-0.0500087
-0.0869966
-0.0525006
-0.0794565
-0.054908
-0.0715344
-0.0572475
-0.0633381
-0.0593778
-0.0548269
-0.0614476
-0.0460948
-0.0632616
-0.0370946
-0.0649606
-0.0277705
-0.0665695
-0.0182822
-0.0677535
-0.00865837
-0.0687053
0.00101102
-0.0693057
0.0108033
-0.0697782
0.0206465
-0.069921
0.0303844
-0.0696381
0.0401355
-0.0692295
0.0497449
-0.0683341
0.0591349
-0.0670995
0.0684213
-0.0657645
0.0774523
-0.0639661
0.086213
-0.0619881
0.0945919
-0.0597122
0.102575
-0.0571109
0.110343
-0.0546261
0.117679
-0.0518198
0.12463
-0.0489878
0.131232
-0.0461543
0.137401
-0.0432044
0.143171
-0.0403144
0.148548
-0.0375151
0.153513
-0.0347103
0.15809
-0.0320502
0.162271
-0.0294579
0.166181
-0.0270967
0.16975
-0.0248107
0.172991
-0.0226732
0.175937
-0.0207077
0.178608
-0.0188806
0.181077
-0.0172495
0.183329
-0.0157195
0.185373
-0.0143056
0.187227
-0.013005
0.188845
-0.0117656
-0.0107299
-0.0708746
0.00931199
-0.0790445
0.00816983
-0.0861208
0.00707626
-0.0922471
0.00612624
-0.0979183
0.00567113
-0.103441
0.00552263
-0.108829
0.00538816
-0.114115
0.00528553
-0.119314
0.00519905
-0.124015
0.00470089
-0.127564
0.00354957
-0.129623
0.00205872
-0.130239
0.000615775
-0.129817
-0.000422173
-0.128971
-0.000846443
-0.128048
-0.000922401
-0.127032
-0.00101663
-0.12567
-0.00136155
-0.123641
-0.00202957
-0.120902
-0.00273844
-0.117686
-0.00321624
-0.114171
-0.0035146
-0.110464
-0.00370722
-0.106701
-0.00376365
-0.00412847
-0.0751538
0.0172321
-0.0829391
0.0159551
-0.0903497
0.0144869
-0.09743
0.0132064
-0.104117
0.0123581
-0.110378
0.0117841
-0.116256
0.011266
-0.121678
0.0107075
-0.126408
0.00992852
-0.130284
0.00857736
-0.133351
0.006616
-0.135629
0.00433673
-0.137089
0.00207556
-0.137662
0.000151188
-0.1373
-0.0012085
-0.136096
-0.00212625
-0.134205
-0.00290813
-0.131768
-0.00379845
-0.128931
-0.004866
-0.125692
-0.00597748
-0.121924
-0.00698409
-0.117529
-0.00791021
-0.112404
-0.00883203
-0.106312
-0.00985582
-0.0112691
-0.0819849
0.0262714
-0.0905888
0.024559
-0.0988046
0.0227027
-0.106606
0.0210081
-0.113851
0.019603
-0.120467
0.0183999
-0.126425
0.0172244
-0.131649
0.0159311
-0.136053
0.014332
-0.139703
0.0122279
-0.142708
0.00962131
-0.1451
0.00672858
-0.146862
0.00383682
-0.147904
0.001194
-0.14808
-0.00103275
-0.147311
-0.00289534
-0.145648
-0.00457071
-0.143209
-0.00623817
-0.140114
-0.00796039
-0.136396
-0.00969616
-0.132001
-0.0113792
-0.126871
-0.0130402
-0.120957
-0.0147459
-0.114195
-0.0166173
-0.0188807
-0.0886413
0.0362887
-0.0980304
0.0339481
-0.106916
0.0315887
-0.115276
0.0293674
-0.123003
0.0273307
-0.130015
0.0254112
-0.136258
0.0234676
-0.14169
0.0213629
-0.146298
0.0189404
-0.150155
0.0160849
-0.153353
0.0128189
-0.155923
0.00929867
-0.157824
0.00573807
-0.158972
0.00234129
-0.159229
-0.00077561
-0.158517
-0.00360711
-0.156833
-0.00625501
-0.154246
-0.00882491
-0.150827
-0.011379
-0.146618
-0.0139057
-0.141585
-0.0164115
-0.135698
-0.0189279
-0.128923
-0.0215209
-0.121272
-0.0242682
-0.0272117
-0.0952419
0.047158
-0.105449
0.0441547
-0.115023
0.0411634
-0.123958
0.0383016
-0.132178
0.0355511
-0.139625
0.0328581
-0.146254
0.0300962
-0.152042
0.0271509
-0.157001
0.0238995
-0.161184
0.0202679
-0.164653
0.0162887
-0.167429
0.012074
-0.169461
0.00776994
-0.170668
0.00354864
-0.170959
-0.000484522
-0.17025
-0.00431638
-0.168521
-0.00798334
-0.165814
-0.0115319
-0.162178
-0.0150158
-0.157647
-0.0184368
-0.152238
-0.02182
-0.145971
-0.0251949
-0.138889
-0.0286035
-0.13107
-0.0320867
-0.0356889
-0.101883
0.0586959
-0.112863
0.0551351
-0.123122
0.0514218
-0.132655
0.0478352
-0.14141
0.0443059
-0.149352
0.0407998
-0.156436
0.0371805
-0.162658
0.0333727
-0.168035
0.0292762
-0.172594
0.0248268
-0.17638
0.0200748
-0.179386
0.0150804
-0.181569
0.0099528
-0.182858
0.00483739
-0.183159
-0.000183864
-0.182421
-0.00505366
-0.180628
-0.0097771
-0.177781
-0.014379
-0.173925
-0.0188716
-0.169087
-0.0232742
-0.163307
-0.0276001
-0.156614
-0.0318879
-0.149051
-0.0361666
-0.140673
-0.0404654
-0.0447756
-0.108408
0.0712501
-0.120269
0.0669955
-0.131253
0.062406
-0.141428
0.0580108
-0.150766
0.0536431
-0.159254
0.0492883
-0.166836
0.0447628
-0.173531
0.0400677
-0.179348
0.0350928
-0.184304
0.0297824
-0.188428
0.0241989
-0.191706
0.0183589
-0.194074
0.0123202
-0.195462
0.00622528
-0.195814
0.000168481
-0.195075
-0.00579279
-0.193223
-0.011629
-0.190269
-0.0173335
-0.186237
-0.0229035
-0.181177
-0.0283336
-0.175128
-0.0336491
-0.168149
-0.0388673
-0.160281
-0.044035
-0.151594
-0.0491522
-0.0541972
-0.114951
0.0850977
-0.127759
0.0798036
-0.139467
0.0741133
-0.150316
0.0688605
-0.160271
0.0635976
-0.169348
0.0583653
-0.177455
0.0528704
-0.184635
0.0472473
-0.190921
0.0413791
-0.196281
0.0351423
-0.200748
0.0286661
-0.20433
0.0219405
-0.206905
0.0148953
-0.208431
0.00775093
-0.208854
0.000591961
-0.208127
-0.00651971
-0.20624
-0.0135168
-0.203193
-0.0203802
-0.199013
-0.0270833
-0.193752
-0.0335949
-0.187456
-0.0399447
-0.1802
-0.046124
-0.171996
-0.0522385
-0.162891
-0.0582571
-0.0641516
-0.121936
0.100188
-0.135478
0.0933454
-0.147788
0.0864234
-0.159315
0.0803872
-0.169918
0.0742001
-0.179649
0.0680964
-0.188298
0.0615194
-0.195976
0.0549256
-0.202741
0.0481433
-0.208537
0.0409382
-0.213328
0.0334573
-0.217199
0.0258122
-0.220034
0.0177297
-0.221706
0.00942278
-0.222214
0.0010998
-0.221525
-0.00720848
-0.219609
-0.0154323
-0.216509
-0.0234804
-0.212194
-0.0313981
-0.206704
-0.0390857
-0.20018
-0.0464681
-0.192666
-0.0536385
-0.18417
-0.0607349
-0.174969
-0.0674577
-0.0740423
1.2804
0.969761
0.284517
-1.25427
-0.237925
0.519583
-0.281662
0.287371
-0.382329
0.0949586
0.353605
-0.416458
0.0628532
-0.226444
-0.519009
0.745452
-0.424855
0.741361
-0.316505
1.50778
-1.42296
-0.0848359
-0.0408456
-0.207745
0.24859
4.83574
-3.26684
-1.56889
-0.837266
1.75899
-0.921728
-0.893784
0.299105
0.594679
1.06152
-1.77999
0.718476
-0.957458
0.0292606
0.928198
0.120853
-0.123273
0.00241965
3.65132
-3.42635
-0.22496
-0.504643
0.266722
0.138469
-0.0270481
-0.111421
0.0776553
0.000786584
0.318808
0.136706
-0.455514
-0.350756
0.22381
0.126945
2.79576
1.58158
-4.37734
-0.476969
0.818117
-0.341148
1.22103
-0.9494
-0.271634
-0.911957
0.291598
0.620359
1.04731
0.173719
-1.14069
0.674884
0.4658
-1.16309
0.240439
0.922655
4.09375
-2.37585
-1.71789
-0.029851
-0.15014
0.179991
0.236972
0.462463
-0.699435
0.383224
-1.24515
0.861931
0.739376
0.801947
-1.54132
2.32136
-4.38383
2.06248
-0.298464
-0.0759304
0.374395
0.274908
1.27828
-1.55318
-0.902326
-0.0551323
-2.62242
1.09038
1.53203