/*--------------------------------*- C++ -*----------------------------------*\
  =========                 |
  \\      /  F ield         | OpenFOAM: The Open Source CFD Toolbox
   \\    /   O peration     | Website:  https://openfoam.org
    \\  /    A nd           | Version:  10
     \\/     M anipulation  |
\*---------------------------------------------------------------------------*/
FoamFile
{
    format      ascii;
    class       volVectorField;
    location    "850";
    object      U;
}
// * * * * * * * * * * * * * * * * * * * * * * * * * * * * * * * * * * * * * //

dimensions      [0 1 -1 0 0 0 0];

internalField   nonuniform List<vector> 
10435
(
(1.60746 0.250242 7.98231e-24)
(1.51808 0.571071 2.57268e-21)
(3.01499 -0.166507 -1.04573e-20)
(2.04634 -0.0290441 1.0577e-20)
(2.67665 0.171043 -1.14469e-20)
(3.47182 -0.0842893 1.30382e-19)
(2.94924 -0.162954 -2.91028e-20)
(2.76631 -0.179729 9.01428e-21)
(2.63977 -0.202593 3.06903e-20)
(3.34585 -0.188528 -3.82854e-20)
(1.77978 0.472793 -1.88596e-21)
(2.48747 -0.255571 3.49145e-20)
(3.33054 -0.194632 4.59041e-20)
(0.916856 0.542427 4.89701e-22)
(1.0093 0.568308 -4.43925e-23)
(2.83889 -0.178777 -1.91131e-21)
(0.82687 0.491913 -1.32669e-22)
(3.48037 -0.245922 1.76574e-19)
(2.59016 -0.215524 -1.24462e-20)
(1.69961 0.167097 -1.06056e-21)
(2.80765 -0.176739 8.26899e-21)
(2.05088 -0.138276 -1.59749e-20)
(2.8917 -0.176668 9.64234e-20)
(2.52396 -0.348363 -1.84313e-20)
(3.19917 -0.189402 3.96522e-20)
(0.220736 0.357464 2.73352e-22)
(0.0502935 0.0693654 9.54284e-22)
(3.15358 -0.176389 2.87464e-20)
(0.232843 -0.0675137 -1.99688e-22)
(3.43552 -0.212758 2.12575e-19)
(2.93421 -0.176933 4.76698e-20)
(1.93837 0.430259 -1.61744e-21)
(2.7327 -0.184431 -1.7809e-20)
(0.474563 -0.0529717 -1.18752e-21)
(2.70734 -0.216972 1.54475e-20)
(1.22388 0.731224 -2.2499e-21)
(2.74269 -0.21388 2.7434e-20)
(0.156902 0.253197 -4.01539e-21)
(0.353285 0.343764 5.55945e-23)
(2.57965 -0.255365 3.71364e-21)
(3.51948 -0.21234 -2.21628e-19)
(2.95345 -0.169304 -2.65839e-20)
(0.611166 0.606524 2.51415e-21)
(1.8427 0.115552 -1.19601e-20)
(2.80501 -0.202934 -6.68222e-20)
(2.55281 -0.306243 3.03322e-20)
(3.51796 -0.158766 -1.59466e-19)
(0.444644 0.480489 1.06008e-20)
(2.63401 -0.197636 8.24725e-21)
(2.04515 -0.241072 -6.3922e-21)
(2.7687 -0.183567 -1.61436e-21)
(3.10755 -0.119497 4.94523e-19)
(0.395864 0.360547 5.00053e-22)
(0.317453 -0.153134 -1.49648e-22)
(0.311687 0.349251 -1.4956e-22)
(0.18274 -0.0966688 5.1147e-22)
(2.67149 -0.252629 -7.67477e-20)
(0.164311 0.183078 -1.58765e-21)
(0.689713 0.247893 8.85978e-22)
(2.63908 -0.252328 4.30107e-20)
(0.353385 0.36904 -2.34537e-22)
(1.40773 0.626533 -5.07893e-21)
(0.181889 0.0847308 1.87149e-21)
(2.97677 -0.0744184 -3.64359e-20)
(2.85638 -0.18862 -1.30426e-19)
(3.06974 -0.177018 9.98903e-20)
(0.620477 0.129453 -1.47872e-21)
(0.349842 0.241851 -5.87599e-21)
(2.80265 -0.173968 -1.3666e-20)
(2.46659 -0.391336 1.35389e-21)
(0.27047 -0.17495 4.51066e-22)
(0.17481 0.328489 -1.7953e-22)
(0.689039 0.698325 2.97569e-21)
(3.0094 -0.173867 -1.16013e-19)
(1.10237 0.573315 -2.10712e-22)
(0.747951 0.732906 8.00454e-22)
(2.40673 -0.415137 6.86078e-20)
(2.91661 -0.161541 6.03299e-20)
(2.70901 -0.186229 2.41575e-21)
(1.18081 0.469737 -3.53483e-22)
(2.18369 -0.359248 6.87506e-21)
(1.56568 0.231188 3.66278e-22)
(0.437248 0.378073 -4.14111e-22)
(0.358735 -0.137137 9.61238e-23)
(2.24939 -0.395199 -1.43986e-20)
(1.22424 0.681138 8.64239e-21)
(1.38948 0.524775 1.15216e-21)
(1.79062 0.242004 2.02485e-21)
(1.12639 0.669732 2.54816e-22)
(1.48261 0.457911 -1.17817e-21)
(1.90312 0.175496 -1.21753e-21)
(2.03549 0.106053 -2.35828e-21)
(1.65368 0.146951 7.97909e-22)
(1.20874 0.638656 2.4722e-21)
(1.58054 0.386084 6.56776e-22)
(1.14438 0.77309 2.86048e-21)
(2.15757 0.0241939 2.8136e-20)
(1.03406 0.656681 1.93301e-22)
(0.788182 0.345097 8.88876e-23)
(2.33024 0.0262083 -3.65997e-20)
(1.07854 0.666176 1.75319e-21)
(2.99984 0.284856 -4.08657e-20)
(1.29632 0.586931 -1.6747e-21)
(1.68401 0.312551 2.53594e-22)
(3.18143 0.204143 -1.99358e-21)
(1.94279 0.0428212 -2.55709e-22)
(1.7389 0.0602798 3.51628e-22)
(2.11753 -0.31076 8.13067e-21)
(2.3204 -0.412837 -2.10729e-20)
(1.27872 0.435302 8.10972e-23)
(1.97264 -0.173626 -2.64965e-21)
(2.78636 0.378522 -1.45287e-20)
(1.47357 0.308152 -1.27437e-22)
(1.37793 0.380212 5.3513e-23)
(2.19839 0.108924 -1.84742e-20)
(1.96545 -0.0671346 4.51724e-21)
(2.43457 -0.0472256 -2.42175e-20)
(1.31078 0.629461 7.37226e-22)
(1.72338 0.37736 -5.26404e-21)
(2.36481 -0.13931 -5.88765e-21)
(2.5115 -0.109588 -7.59032e-20)
(0.7561 0.786035 1.54642e-21)
(1.40092 0.571133 -6.64678e-21)
(0.934335 0.874462 -1.16545e-20)
(2.09054 0.565311 3.55267e-22)
(0.292599 0.367437 -3.28448e-22)
(2.27238 -0.0724997 3.59131e-20)
(0.813735 0.832699 -1.43447e-21)
(2.55896 0.0474796 -5.36326e-20)
(0.073875 0.260459 4.32922e-22)
(0.872597 0.861349 4.02245e-21)
(1.88418 0.599124 -4.33875e-21)
(2.79435 -0.183374 -2.30889e-20)
(1.08445 0.478996 -8.73237e-22)
(0.156141 0.2923 -1.65807e-23)
(0.581167 0.455099 1.44158e-23)
(1.06283 0.856641 1.10433e-20)
(2.14666 -0.107376 -9.93518e-22)
(1.60798 0.440855 1.66589e-21)
(1.87829 0.0063811 3.46049e-21)
(1.78984 0.0851629 3.5966e-23)
(2.88391 -0.185555 -1.63978e-19)
(0.550866 0.0447364 -3.02474e-21)
(2.78455 -0.164654 2.86782e-19)
(2.13485 -0.209527 2.47884e-21)
(0.895155 0.744215 3.35196e-21)
(0.996783 0.875055 -4.311e-21)
(3.18869 -0.0594566 -1.47909e-19)
(0.778912 0.578938 -3.7209e-22)
(2.67046 -0.225627 1.58854e-20)
(0.383476 0.453001 1.27782e-21)
(2.74544 -0.227168 5.36669e-20)
(1.55149 0.349066 5.83394e-23)
(2.7535 -0.20649 1.28877e-19)
(3.25626 -0.133242 -1.32494e-19)
(0.31668 0.408356 -9.28329e-22)
(2.31451 0.512775 2.95047e-20)
(1.49997 0.506618 2.62345e-21)
(3.34318 -0.164901 -1.26228e-19)
(1.54841 0.661565 -1.17203e-21)
(2.77911 -0.225565 -2.47057e-20)
(0.990856 0.4612 1.25435e-22)
(2.00025 0.253097 1.9156e-20)
(2.36442 -0.329915 1.91925e-20)
(1.20398 0.544916 1.00442e-21)
(2.63805 -0.0491559 2.28876e-19)
(2.70595 -0.19298 -3.20964e-20)
(2.32229 -0.228756 -1.67201e-20)
(2.48966 -0.34104 3.154e-20)
(2.80097 -0.102527 -5.00245e-19)
(3.17702 -0.178884 1.27148e-19)
(0.647225 0.636161 -1.58796e-21)
(0.0376741 -0.000228647 -7.29677e-22)
(0.963481 0.745452 1.0876e-21)
(2.60995 -0.280249 -5.26655e-20)
(1.41884 0.7022 3.17031e-21)
(1.31027 0.68135 9.62297e-21)
(0.568847 0.449245 -9.82581e-22)
(1.89858 -0.101832 1.34026e-21)
(0.284978 -0.0309365 1.78814e-22)
(1.64124 0.518383 -4.75658e-22)
(3.4074 -0.0062265 -2.08759e-20)
(2.59398 -0.237159 -1.32447e-19)
(0.338916 0.382032 -1.46514e-22)
(2.82715 -0.203514 2.12769e-20)
(0.55332 0.584379 -1.3461e-21)
(0.698831 0.718667 -1.20911e-21)
(2.882 -0.161641 -4.56678e-20)
(2.85909 0.116959 2.67656e-20)
(2.93165 -0.140591 -2.68892e-19)
(2.52186 -0.179612 1.77562e-20)
(0.474827 0.39744 -3.84532e-22)
(0.0981366 0.293677 -4.92322e-22)
(1.13518 0.826073 -9.41751e-21)
(2.55427 0.451522 2.49911e-20)
(2.83917 -0.166088 2.40376e-21)
(0.740435 0.659542 -1.33716e-21)
(1.14245 0.721744 -3.42365e-21)
(0.504166 0.479506 -8.44022e-21)
(2.79696 -0.191379 4.15366e-20)
(1.16381 0.606845 -7.11263e-22)
(0.220302 0.306223 -1.20941e-21)
(3.23585 -0.184006 -9.81034e-21)
(0.210417 0.259342 -1.61622e-21)
(3.12817 -0.181438 -3.21493e-20)
(2.2552 0.192538 1.64305e-22)
(1.8489 0.317314 1.04977e-20)
(2.24124 -0.178262 -1.03333e-20)
(0.2553 0.0671523 1.36003e-21)
(2.2141 -0.269494 -8.93459e-21)
(0.440333 0.489083 1.30904e-21)
(2.93901 -0.174246 -1.33263e-19)
(2.63504 -0.155423 2.35205e-19)
(2.44798 -0.317896 1.67733e-20)
(0.0831325 0.0499977 -3.39891e-22)
(0.863193 0.627888 3.79839e-23)
(1.31754 0.477765 3.11731e-22)
(0.447261 0.443034 3.59415e-22)
(0.208997 0.34729 -6.37088e-22)
(0.896848 0.41495 -3.44576e-22)
(0.333432 -0.0637447 6.58551e-23)
(0.63527 0.406635 -2.69654e-21)
(0.460914 0.0836644 2.47789e-21)
(0.952868 0.800482 -1.07863e-20)
(0.253206 0.372986 -4.09283e-22)
(2.75611 -0.195266 -1.15238e-20)
(0.262485 0.343915 1.27581e-21)
(1.06892 0.742644 -1.30644e-22)
(2.97524 -0.172722 3.32322e-19)
(0.815046 0.783412 -3.62512e-21)
(0.495115 0.324384 1.25003e-20)
(2.73115 -0.192295 3.97483e-20)
(0.237223 0.347514 2.04342e-21)
(2.68735 -0.259754 5.80067e-20)
(0.0651876 0.182868 -2.28525e-21)
(0.728621 0.429707 4.88429e-21)
(2.60745 -0.297426 -5.8753e-20)
(0.217197 0.357751 4.83543e-22)
(2.55142 -0.335106 -3.75602e-21)
(3.04387 -0.181002 2.03858e-21)
(1.74515 0.191471 3.29309e-21)
(0.300147 0.388876 -8.07195e-23)
(0.483999 0.478791 -5.08546e-23)
(0.232295 -0.118571 1.64927e-23)
(2.12025 0.228888 -4.02707e-20)
(2.68038 -0.193043 9.46236e-21)
(1.07066 0.803012 -1.38094e-20)
(2.83004 -0.167448 1.11099e-20)
(0.0992021 -0.0862939 -5.96303e-22)
(1.30777 0.743777 -2.634e-21)
(0.160512 -0.14185 -6.76738e-22)
(1.26615 0.556987 -1.6804e-21)
(3.34392 -0.211875 -8.38164e-20)
(2.28765 -0.311052 -1.5955e-20)
(2.86337 -0.160393 -3.5032e-20)
(2.81588 -0.00351716 1.15764e-19)
(0.10772 -0.117932 2.25213e-21)
(2.89193 -0.161384 5.52921e-20)
(0.392457 0.44987 -1.12094e-22)
(0.305752 0.36093 3.33838e-21)
(2.92416 -0.160394 3.1528e-21)
(3.11055 -0.165225 1.3666e-21)
(0.264719 0.3717 -1.20415e-22)
(2.39754 -0.391879 -4.44379e-20)
(1.4156 0.407055 6.1504e-23)
(0.594222 0.293151 -5.44827e-21)
(1.64739 0.270338 4.06938e-22)
(2.93713 -0.182797 9.1745e-20)
(0.421909 0.404827 1.15216e-22)
(2.39691 0.131053 8.0109e-21)
(2.95527 -0.158972 2.03299e-23)
(2.78891 -0.172789 -5.07737e-21)
(2.83898 -0.16513 -4.27862e-21)
(3.16619 -0.188532 -1.50689e-19)
(0.179349 0.347433 1.10472e-21)
(2.43631 -0.179681 -2.91553e-20)
(0.12013 0.250351 2.1206e-21)
(2.48396 0.269898 6.42211e-21)
(2.84908 -0.169207 1.45555e-20)
(2.75995 -0.179058 1.861e-21)
(3.28606 -0.198563 8.66945e-20)
(0.647828 0.56943 6.09003e-21)
(2.99469 -0.161334 -2.49736e-21)
(1.02257 0.745149 -1.0927e-21)
(1.35883 0.495562 -6.92503e-22)
(0.501543 0.445407 9.893e-23)
(3.00811 0.0397493 2.02334e-20)
(0.293276 0.333508 4.94808e-23)
(0.402921 -0.120389 5.14747e-22)
(0.399239 -0.0496417 -2.88283e-22)
(0.999554 0.81482 1.26511e-20)
(1.7003 0.632106 -1.38534e-21)
(0.327913 0.0304544 -8.08446e-22)
(2.81226 -0.169137 1.06491e-20)
(0.33665 0.319615 -4.88534e-23)
(0.233871 -0.176145 -1.94493e-21)
(0.828799 0.714215 4.88938e-22)
(1.5136 0.331034 1.98539e-22)
(2.28726 0.338386 -1.00137e-21)
(3.04575 -0.176725 7.04127e-20)
(0.421031 0.356373 -2.25695e-20)
(2.5036 -0.357 -1.3722e-20)
(3.04186 -0.16576 -9.5152e-22)
(0.0685442 -0.0545 -7.71215e-22)
(2.10412 0.396413 -7.83978e-21)
(0.944049 0.654978 2.3466e-22)
(0.691007 0.511114 -7.39111e-22)
(2.62238 -0.289525 -3.92821e-21)
(3.0588 -0.177653 -7.82044e-22)
(0.446119 -0.108208 -2.33425e-22)
(1.81929 -0.0226916 1.03246e-21)
(0.220614 0.330211 1.85793e-22)
(1.21495 0.786897 4.86257e-21)
(3.1125 0.00412366 -6.65201e-20)
(2.66361 -0.206574 -5.97618e-21)
(0.198412 -0.16156 -4.61114e-22)
(0.36055 0.402362 1.18172e-22)
(2.8555 -0.188872 -2.95528e-19)
(0.429396 0.213606 -2.29343e-22)
(2.40102 -0.255183 2.17577e-20)
(3.32936 0.093905 -2.78152e-20)
(0.165573 0.0189756 -1.83187e-21)
(1.45591 0.425008 -2.05456e-22)
(0.512671 0.418983 1.65045e-22)
(2.72806 -0.182458 -9.71773e-22)
(3.22109 -0.194878 -3.36655e-20)
(0.154236 0.343735 4.99027e-22)
(3.09108 -0.169233 -1.46794e-22)
(0.518536 0.181221 -5.44697e-22)
(0.110997 0.184755 2.98741e-21)
(2.64095 -0.227185 9.05658e-23)
(0.481408 -0.00739083 6.36638e-22)
(0.484002 -0.0976257 -2.36762e-22)
(3.00042 -0.163749 2.95525e-21)
(2.68867 -0.254761 5.48083e-20)
(0.229595 0.165147 4.38917e-21)
(0.187633 -0.147793 -8.03265e-22)
(0.111891 -0.107898 -4.39064e-22)
(0.532393 -0.0662264 -1.09403e-22)
(0.0681217 -0.0274746 -1.45022e-22)
(0.131092 0.332522 -1.26361e-21)
(0.234168 0.361553 -7.69193e-22)
(0.390914 0.383691 1.07594e-22)
(0.0307749 0.00847105 8.42281e-22)
(0.0471554 -0.0240086 -1.13025e-21)
(0.305287 0.394536 6.86353e-22)
(0.297118 0.14551 -1.08342e-21)
(0.0184936 0.141999 2.40864e-22)
(0.545634 0.437125 1.47935e-22)
(2.69547 -0.187278 -4.94938e-21)
(0.512955 -0.0847332 -4.27363e-22)
(3.16645 -0.187406 4.60703e-21)
(0.0241119 0.0393979 -2.49494e-22)
(3.15164 -0.172126 -6.11651e-22)
(2.70641 -0.186124 2.22976e-21)
(2.63282 -0.197762 -1.63393e-21)
(3.33031 -0.178399 -2.53124e-21)
(2.96307 -0.173676 -6.69395e-20)
(0.27548 -0.135803 -4.10629e-22)
(0.420527 -0.0875793 1.1246e-21)
(0.144529 -0.125844 8.03711e-23)
(0.250899 0.356425 -6.92415e-22)
(0.106694 -0.051174 -6.92905e-24)
(0.46362 0.425433 -1.57371e-22)
(0.116519 0.0146811 9.28313e-22)
(0.111374 0.316103 -7.05132e-22)
(0.280402 0.260061 1.04132e-20)
(2.5345 -0.296151 -4.94915e-21)
(0.119936 0.317448 8.7089e-22)
(2.66721 -0.191376 5.44021e-21)
(0.276428 0.351599 -9.95882e-23)
(0.0937164 0.292323 1.00597e-21)
(3.37132 -0.177548 -2.29674e-20)
(2.611 -0.203574 -4.95798e-21)
(0.535234 0.473781 -2.51606e-22)
(0.0224491 0.0805147 -7.59475e-22)
(0.124692 0.100892 -1.02357e-21)
(0.037034 0.113899 9.1149e-23)
(0.368639 -0.0991578 -4.02016e-22)
(0.186171 0.35203 5.31535e-24)
(0.0161309 0.119701 9.80532e-22)
(0.316774 0.358974 2.90147e-22)
(2.73452 -0.181586 -1.71994e-21)
(0.371193 0.115521 1.42108e-21)
(2.79922 -0.171586 1.13791e-21)
(2.68114 -0.189995 7.05913e-21)
(3.22013 -0.174839 -4.94185e-22)
(3.28719 -0.179041 3.96072e-20)
(2.65765 -0.19251 -3.25624e-21)
(3.09393 -0.172778 -8.32255e-21)
(2.69043 -0.207074 -7.8086e-21)
(0.880309 0.812726 3.19483e-22)
(0.538887 0.557921 1.10867e-21)
(0.278003 -0.0952197 -6.6803e-22)
(0.22625 -0.157538 3.13488e-22)
(3.04618 -0.168583 1.00717e-20)
(0.318618 -0.11893 1.1439e-21)
(3.38264 -0.197378 -9.69011e-20)
(0.0205328 0.144903 -1.36189e-22)
(0.22172 -0.00185315 1.39162e-22)
(0.0705129 0.257463 -1.93879e-22)
(0.404579 0.0127587 2.11361e-22)
(0.385171 0.428174 -5.9732e-22)
(2.89967 -0.166916 8.90807e-20)
(0.0835361 0.119649 4.33259e-22)
(2.76726 -0.176843 4.19759e-22)
(2.55986 -0.317401 -1.66e-20)
(0.525485 0.518148 1.18318e-22)
(0.157877 0.342564 -8.38047e-23)
(0.0565952 0.183676 3.63726e-22)
(2.59775 -0.209057 7.98168e-21)
(0.0670909 0.225735 -9.95875e-22)
(0.136675 0.331408 4.82604e-23)
(0.316943 0.401496 1.11438e-21)
(0.146428 -0.0722197 -1.23435e-22)
(0.350839 0.362851 -3.63226e-21)
(0.149944 -0.0216372 -5.48381e-23)
(3.07026 -0.173579 6.47877e-20)
(0.218614 -0.1791 -5.29912e-23)
(0.181806 0.339423 -4.59936e-22)
(0.189327 -0.0392354 2.79935e-22)
(0.568719 -0.0159921 1.42677e-21)
(3.44145 -0.231991 -7.37492e-20)
(0.617417 0.541471 1.9428e-22)
(0.595881 0.481747 -3.68202e-22)
(2.5906 -0.20833 -1.01485e-20)
(0.468186 -0.0802769 2.19164e-22)
(0.465955 -0.398153 1.03682e-21)
(0.491177 -0.395243 -8.88212e-23)
(0.546009 -0.403412 -5.4204e-22)
(0.58325 -0.411023 2.87478e-22)
(0.62134 -0.415956 -3.06681e-22)
(0.652128 -0.418843 -8.90073e-22)
(0.68198 -0.420174 1.81076e-22)
(0.708413 -0.420679 2.46544e-22)
(0.735786 -0.419204 2.51612e-22)
(0.498489 -0.390045 -7.1044e-22)
(0.523431 -0.386966 -6.74286e-23)
(0.575251 -0.393596 4.4335e-22)
(0.612741 -0.401305 -7.67696e-22)
(0.649061 -0.406501 6.76869e-22)
(0.679646 -0.410291 1.0882e-21)
(0.708498 -0.412525 -6.77649e-22)
(0.734777 -0.413911 6.95671e-22)
(0.759872 -0.413911 -3.43549e-22)
(0.531889 -0.37469 1.87242e-21)
(0.555146 -0.37243 4.28361e-22)
(0.604163 -0.378963 -8.72254e-22)
(0.641147 -0.386851 4.2215e-22)
(0.67628 -0.392509 -1.01622e-21)
(0.706506 -0.39704 -1.34243e-22)
(0.734673 -0.400178 -3.43783e-23)
(0.760426 -0.402492 -3.43833e-22)
(0.78457 -0.40398 -5.13607e-22)
(0.564287 -0.354024 -8.1753e-22)
(0.585334 -0.352868 1.82513e-22)
(0.631866 -0.359894 6.16135e-22)
(0.668165 -0.368208 3.56079e-23)
(0.702288 -0.374454 4.33054e-22)
(0.732164 -0.379669 1.16483e-21)
(0.759833 -0.383563 -6.95829e-22)
(0.785259 -0.386621 1.09039e-22)
(0.809244 -0.388951 2.29664e-22)
(0.594692 -0.329525 1.5118e-22)
(0.612926 -0.329127 -1.261e-22)
(0.657293 -0.336968 2.17916e-23)
(0.693006 -0.345819 -1.96328e-22)
(0.726418 -0.352782 1.09538e-22)
(0.75608 -0.358654 -2.61449e-22)
(0.783508 -0.363225 8.90373e-23)
(0.808863 -0.366908 4.02023e-22)
(0.83302 -0.369634 8.13393e-23)
(0.621977 -0.302485 1.12222e-22)
(0.637164 -0.302203 -2.73862e-22)
(0.679712 -0.311058 6.46221e-23)
(0.715105 -0.320307 4.33066e-22)
(0.748111 -0.327986 -1.40259e-22)
(0.777724 -0.334476 -1.96595e-22)
(0.805098 -0.339711 -7.86187e-23)
(0.830533 -0.344026 -6.24137e-22)
(0.854717 -0.347585 2.96468e-22)
(0.644341 -0.274746 6.38105e-23)
(0.657713 -0.273209 1.9763e-22)
(0.698795 -0.283058 5.91586e-23)
(0.734161 -0.292285 -1.96336e-22)
(0.767002 -0.300534 4.1348e-23)
(0.796703 -0.307536 -1.50481e-23)
(0.824152 -0.313365 1.57319e-22)
(0.849711 -0.318268 -1.4773e-22)
(0.874007 -0.322543 -1.12402e-22)
(0.660338 -0.246109 -8.31458e-23)
(0.67501 -0.242596 1.35049e-22)
(0.714757 -0.253304 -1.10724e-23)
(0.75014 -0.2621 2.12497e-23)
(0.782895 -0.270745 -5.94707e-23)
(0.812752 -0.278134 2.12207e-22)
(0.840364 -0.284465 2.61662e-22)
(0.866102 -0.28993 -2.89814e-22)
(0.890639 -0.294347 8.99535e-23)
(0.670558 -0.213514 4.61575e-23)
(0.689579 -0.209432 8.51852e-24)
(0.727807 -0.221246 -1.2927e-23)
(0.76299 -0.229706 -4.22796e-23)
(0.79562 -0.238732 -2.12123e-23)
(0.825661 -0.246439 -3.01635e-23)
(0.853503 -0.253176 -1.737e-23)
(0.879516 -0.258988 2.78253e-22)
(0.904132 -0.264099 -2.11467e-23)
(0.676496 -0.175637 -6.05284e-23)
(0.700934 -0.172863 -8.41163e-23)
(0.737457 -0.186336 -1.01673e-23)
(0.772334 -0.195027 4.05369e-23)
(0.804907 -0.204572 -2.12722e-23)
(0.83523 -0.212571 5.73383e-23)
(0.863429 -0.219578 1.62933e-23)
(0.889821 -0.225543 1.22339e-22)
(0.914788 -0.230585 -2.28411e-23)
(0.678582 -0.133766 1.15406e-22)
(0.707816 -0.133341 4.36274e-23)
(0.742741 -0.148971 -2.5962e-23)
(0.777606 -0.158403 2.05606e-23)
(0.810434 -0.168517 -1.24405e-23)
(0.841267 -0.176725 2.37268e-24)
(0.870043 -0.183845 -3.01535e-23)
(0.897071 -0.189755 -1.21903e-22)
(0.922655 -0.194705 -3.42494e-23)
(0.677652 -0.09045 -2.13811e-22)
(0.709388 -0.0930983 -3.43814e-24)
(0.742985 -0.110732 3.8893e-23)
(0.778475 -0.120711 6.39193e-24)
(0.812023 -0.131027 -1.74604e-24)
(0.843644 -0.139152 4.62411e-23)
(0.873195 -0.146119 1.02679e-23)
(0.900986 -0.151744 -4.87791e-23)
(0.927392 -0.157017 -4.32171e-23)
(0.672631 -0.0494728 -4.27835e-23)
(0.704333 -0.0554644 5.42924e-24)
(0.738588 -0.0732243 3.09348e-24)
(0.775276 -0.0828281 5.04603e-24)
(0.809861 -0.0925055 -2.65114e-24)
(0.84243 -0.0999865 -6.72283e-24)
(0.872852 -0.106314 -1.6511e-23)
(0.901438 -0.11142 3.78795e-23)
(0.928882 -0.115782 -1.97805e-23)
(0.659677 -0.0120981 5.02504e-23)
(0.694718 -0.0197663 -5.75366e-24)
(0.730819 -0.036276 -3.86679e-24)
(0.768738 -0.0446642 1.29695e-23)
(0.804353 -0.0528935 -2.577e-24)
(0.83785 -0.0591296 -1.49727e-24)
(0.869137 -0.0642729 -1.38221e-23)
(0.898544 -0.068314 1.00616e-24)
(0.926598 -0.0710979 1.69264e-23)
(0.640783 0.0244879 -1.39485e-22)
(0.681175 0.016002 3.83298e-23)
(0.720008 0.00135699 2.34169e-23)
(0.759163 -0.00546461 -4.44991e-23)
(0.795696 -0.011768 4.83115e-24)
(0.83001 -0.0163422 1.99341e-23)
(0.862103 -0.0198987 1.61809e-23)
(0.892349 -0.0223998 2.72306e-23)
(0.921185 -0.0237287 -1.20191e-22)
(0.616281 0.0617395 -1.2574e-22)
(0.663611 0.0529301 -8.78329e-23)
(0.705875 0.0408499 -5.0339e-23)
(0.746351 0.0355954 7.75833e-23)
(0.783725 0.0313349 2.65374e-23)
(0.818752 0.0285869 -1.39276e-23)
(0.851555 0.0268365 -3.6442e-24)
(0.882493 0.0261392 8.93275e-23)
(0.911799 0.0262779 -3.41963e-23)
(0.587365 0.101466 -2.17676e-22)
(0.641333 0.0922812 -1.84511e-23)
(0.687656 0.0829898 7.71872e-23)
(0.729639 0.0789571 -4.09063e-23)
(0.76793 0.0765183 -5.11882e-23)
(0.803687 0.0755381 1.95016e-22)
(0.837189 0.0756491 -1.47938e-22)
(0.868793 0.0769387 -8.24104e-23)
(0.899005 0.0785475 1.19326e-23)
(0.558645 0.141945 3.78488e-22)
(0.613673 0.133401 1.62201e-23)
(0.664278 0.12687 -2.24672e-23)
(0.708176 0.12391 3.22693e-23)
(0.747698 0.123071 1.34532e-23)
(0.784374 0.123791 -1.60343e-22)
(0.818679 0.125788 1.1581e-23)
(0.850969 0.129038 -1.05596e-22)
(0.881798 0.132945 -1.7123e-22)
(0.532482 0.179115 1.00568e-22)
(0.583141 0.172413 8.21166e-24)
(0.636148 0.169605 1.98974e-23)
(0.681926 0.168387 -1.0172e-22)
(0.722881 0.169401 3.72614e-23)
(0.760657 0.171974 5.59611e-23)
(0.795884 0.175929 8.91994e-23)
(0.828988 0.18109 1.34877e-22)
(0.860505 0.187191 -9.19118e-23)
(0.507267 0.211744 -6.82781e-23)
(0.551579 0.207259 1.16347e-23)
(0.605005 0.208832 7.59361e-27)
(0.65188 0.210393 5.10169e-24)
(0.694034 0.213831 2.90367e-23)
(0.732836 0.218644 -1.83174e-23)
(0.768944 0.224804 -3.26113e-22)
(0.802771 0.232119 -6.60936e-23)
(0.834798 0.240331 2.07752e-23)
(0.482025 0.240853 -1.68082e-22)
(0.519779 0.238126 3.03067e-22)
(0.57235 0.243751 -1.41339e-22)
(0.619266 0.248777 1.59674e-23)
(0.662072 0.255098 -1.62962e-24)
(0.701593 0.262513 1.7589e-23)
(0.738427 0.271095 6.11016e-23)
(0.772995 0.280634 9.77683e-23)
(0.80554 0.291533 -2.38354e-23)
(0.456399 0.266295 -5.45378e-22)
(0.487697 0.265213 -1.69155e-22)
(0.539023 0.274137 3.38378e-22)
(0.585046 0.282994 3.04027e-23)
(0.627841 0.292429 1.3352e-23)
(0.6676 0.302673 2.15487e-23)
(0.704846 0.313803 1.97714e-23)
(0.740131 0.325574 -2.38942e-23)
(0.7727 0.339855 -6.8992e-23)
(0.430317 0.286198 4.33712e-23)
(0.4556 0.288615 7.56661e-23)
(0.505775 0.300254 -2.54739e-22)
(0.550137 0.313139 -1.64989e-22)
(0.592251 0.325666 -3.64635e-23)
(0.631685 0.338736 -1.47948e-23)
(0.668894 0.3523 4.40733e-24)
(0.704622 0.366346 1.33732e-22)
(0.737399 0.383281 -5.09761e-22)
(0.403075 0.300146 -2.18722e-22)
(0.423414 0.308274 9.40866e-23)
(0.471947 0.322103 1.03407e-22)
(0.51396 0.338723 -1.81196e-22)
(0.554784 0.354044 1.98275e-22)
(0.593458 0.369897 -1.81332e-23)
(0.630299 0.385803 5.38783e-23)
(0.666683 0.402187 -9.95789e-23)
(0.700181 0.424084 6.67122e-22)
(0.373806 0.310848 -5.58454e-22)
(0.393275 0.328097 -7.96377e-24)
(0.440334 0.345058 5.12967e-23)
(0.480318 0.363757 1.8658e-22)
(0.519555 0.380807 -7.21403e-23)
(0.556556 0.398293 1.22899e-22)
(0.592059 0.415185 4.41555e-23)
(0.62972 0.431644 3.93602e-23)
(0.665235 0.455506 8.63343e-23)
(0.373917 0.344542 -2.707e-22)
(0.367475 0.342527 -3.1883e-22)
(0.360846 0.339323 -9.24508e-22)
(0.353541 0.335409 1.29774e-21)
(0.345367 0.330549 -9.77217e-22)
(0.33622 0.324709 7.33183e-22)
(0.325996 0.317833 2.96344e-22)
(0.314598 0.309874 -6.17409e-23)
(0.301963 0.300796 -5.40496e-22)
(0.288072 0.290582 -2.54189e-22)
(0.272964 0.279228 2.6637e-22)
(0.256748 0.266724 -3.21341e-22)
(0.239595 0.253023 8.54483e-22)
(0.221718 0.238101 -2.17254e-21)
(0.20336 0.221938 3.81141e-21)
(0.184794 0.204547 -4.3416e-21)
(0.166305 0.185971 3.9132e-21)
(0.148158 0.166283 -1.74674e-21)
(0.130586 0.145617 -5.71213e-22)
(0.113759 0.124179 6.08801e-22)
(0.097716 0.102239 -2.11249e-22)
(0.0822582 0.0801219 4.52034e-22)
(0.0671719 0.0585476 3.68714e-23)
(0.0532091 0.0375957 -6.28045e-22)
(0.0428048 0.016313 4.9479e-22)
(0.0374819 -0.0057356 -2.70994e-22)
(0.0371272 -0.0288674 3.38627e-22)
(0.0411772 -0.0533187 2.71197e-22)
(0.0466985 -0.0791529 -3.21903e-22)
(0.0521069 -0.105835 8.66783e-24)
(0.0582699 -0.132638 -2.91883e-22)
(0.0658214 -0.159161 2.60398e-22)
(0.075016 -0.185164 4.91941e-22)
(0.0857879 -0.21034 -3.8976e-22)
(0.0979642 -0.234364 5.50713e-22)
(0.111327 -0.257028 -9.17246e-22)
(0.125591 -0.278127 6.60356e-23)
(0.14045 -0.297503 1.984e-22)
(0.155599 -0.31504 -2.92017e-22)
(0.170756 -0.330661 6.50905e-22)
(0.185715 -0.344347 -3.69983e-22)
(0.200326 -0.356154 -1.60057e-21)
(0.214608 -0.366041 3.23245e-21)
(0.22939 -0.373813 -3.47252e-21)
(0.245285 -0.379555 3.01451e-21)
(0.262131 -0.383664 -1.77169e-21)
(0.279683 -0.386519 9.19537e-22)
(0.297666 -0.388445 -3.08756e-22)
(0.315718 -0.3897 3.0533e-22)
(0.333444 -0.390515 -3.08536e-22)
(0.350496 -0.391094 -4.59315e-22)
(0.366618 -0.391584 -1.52374e-22)
(0.381641 -0.392088 2.22354e-22)
(0.395465 -0.392661 5.95184e-22)
(0.408038 -0.393319 -8.84431e-22)
(0.419334 -0.394068 1.14785e-21)
(0.429381 -0.394888 -7.69056e-22)
(0.438241 -0.395752 -2.7897e-22)
(0.446045 -0.396667 -2.06291e-22)
(0.384274 0.295374 -2.10887e-23)
(0.377914 0.291374 -2.11812e-23)
(0.371309 0.286922 8.40792e-24)
(0.3643 0.28194 -6.72412e-23)
(0.356815 0.276469 -7.88897e-23)
(0.348753 0.270558 2.73282e-22)
(0.339994 0.264256 -4.91935e-23)
(0.33042 0.257599 9.46058e-23)
(0.319911 0.250612 -3.05023e-22)
(0.308364 0.243289 -2.23085e-23)
(0.295756 0.235576 1.55848e-22)
(0.282199 0.227238 1.11847e-22)
(0.26783 0.218068 -4.09222e-22)
(0.252731 0.207981 5.22649e-22)
(0.237006 0.196849 -5.42583e-22)
(0.220808 0.184568 2.44381e-22)
(0.204318 0.171054 3.48681e-22)
(0.187739 0.156253 -1.64949e-22)
(0.171272 0.140139 -4.98323e-24)
(0.155109 0.12271 4.04843e-23)
(0.139436 0.103965 7.57625e-24)
(0.124482 0.0838317 -6.57713e-25)
(0.110752 0.0620646 4.19758e-23)
(0.0990995 0.0382009 -6.29276e-23)
(0.0902595 0.0124187 1.87134e-22)
(0.0843777 -0.0147106 -6.81574e-23)
(0.0816357 -0.0424391 -1.88866e-24)
(0.082154 -0.0700023 2.47608e-23)
(0.0854143 -0.0969237 2.13912e-23)
(0.0903997 -0.123282 -4.33203e-25)
(0.0968146 -0.149224 -2.62444e-23)
(0.104782 -0.174645 -9.84233e-24)
(0.11436 -0.199309 -3.75843e-24)
(0.125395 -0.222998 3.91877e-23)
(0.137692 -0.245518 -1.20845e-22)
(0.151053 -0.266719 4.70822e-23)
(0.165265 -0.286496 -6.52389e-23)
(0.18012 -0.304795 4.6046e-23)
(0.195443 -0.321607 6.70713e-25)
(0.211117 -0.336955 -2.47469e-23)
(0.227096 -0.350872 -3.97321e-23)
(0.243427 -0.363391 1.61592e-23)
(0.260261 -0.374504 -1.26441e-22)
(0.277746 -0.384088 -1.14581e-22)
(0.295822 -0.391978 1.71361e-22)
(0.31425 -0.398075 -1.40953e-22)
(0.332597 -0.402515 5.64095e-23)
(0.350272 -0.405604 2.2717e-23)
(0.366866 -0.407599 -4.845e-23)
(0.382235 -0.408639 2.83226e-23)
(0.396458 -0.408812 4.7722e-23)
(0.409575 -0.408264 -1.46706e-23)
(0.421608 -0.407186 1.65052e-23)
(0.432609 -0.405777 -5.55678e-23)
(0.442527 -0.404236 1.13983e-23)
(0.45141 -0.402702 2.68869e-23)
(0.459402 -0.401224 -4.3564e-23)
(0.466635 -0.399817 6.25812e-24)
(0.473276 -0.39854 -1.76794e-23)
(0.444437 0.271797 -2.38771e-22)
(0.438278 0.267656 5.21256e-23)
(0.43176 0.263104 -1.96165e-22)
(0.424865 0.258197 -4.18522e-23)
(0.417515 0.252946 6.71098e-22)
(0.409641 0.24738 -2.06947e-22)
(0.40117 0.241516 -4.09306e-22)
(0.392028 0.235352 6.41687e-25)
(0.382149 0.228858 2.45353e-22)
(0.371488 0.221964 -6.04912e-23)
(0.360036 0.214553 6.68294e-22)
(0.347803 0.206494 -8.09194e-22)
(0.334791 0.197721 7.35738e-22)
(0.321022 0.18815 -1.02593e-22)
(0.30656 0.177679 -6.80054e-22)
(0.291508 0.166201 2.15635e-22)
(0.276009 0.153606 8.30406e-22)
(0.260239 0.139791 -3.15129e-22)
(0.244405 0.124659 -8.39277e-23)
(0.22874 0.108116 2.13474e-23)
(0.213517 0.0900645 -2.19749e-22)
(0.199066 0.0703982 4.7608e-23)
(0.185827 0.0490224 -5.90605e-22)
(0.174359 0.0259453 7.11524e-22)
(0.165286 0.0013755 -2.7099e-22)
(0.159073 -0.0243338 1.01436e-23)
(0.155904 -0.0507559 3.95613e-23)
(0.155697 -0.0773898 -1.67935e-22)
(0.158045 -0.103761 1.08575e-22)
(0.162443 -0.129627 5.58094e-23)
(0.168575 -0.154919 1.24249e-22)
(0.176276 -0.179542 -1.31788e-22)
(0.185426 -0.203349 5.55331e-23)
(0.195891 -0.226186 7.18096e-23)
(0.207514 -0.247922 -2.65436e-22)
(0.220134 -0.268451 7.24753e-22)
(0.233592 -0.287698 -4.71993e-22)
(0.247743 -0.305613 -9.77975e-23)
(0.262479 -0.322172 -1.23963e-22)
(0.277726 -0.337359 -4.10586e-23)
(0.293452 -0.351158 -1.87284e-22)
(0.309646 -0.363536 -3.36035e-22)
(0.326303 -0.374436 7.77334e-22)
(0.343373 -0.383774 3.72084e-22)
(0.360698 -0.391492 -7.55333e-22)
(0.378004 -0.3976 -2.56352e-22)
(0.394978 -0.402217 7.93182e-22)
(0.411284 -0.405565 -9.33515e-22)
(0.426717 -0.407907 6.48822e-22)
(0.441066 -0.409544 -1.91186e-23)
(0.454323 -0.410594 2.81212e-22)
(0.466664 -0.411021 6.34466e-23)
(0.478087 -0.410945 -4.27576e-22)
(0.488516 -0.410546 -2.2148e-22)
(0.497995 -0.409945 6.7779e-22)
(0.506635 -0.409208 -3.2625e-24)
(0.514543 -0.408374 -1.84834e-22)
(0.521823 -0.407489 6.26192e-23)
(0.528535 -0.406569 -2.18742e-22)
(0.486419 0.258204 -1.12135e-23)
(0.480254 0.25475 1.15687e-22)
(0.473721 0.250967 -4.90261e-23)
(0.466751 0.246826 2.97068e-23)
(0.459293 0.242325 -2.73179e-23)
(0.451297 0.237465 1.10215e-23)
(0.442715 0.232238 -1.4882e-23)
(0.433496 0.226625 -2.3051e-23)
(0.423594 0.220591 1.22283e-23)
(0.412976 0.214087 3.07382e-23)
(0.401624 0.20705 8.25852e-24)
(0.389539 0.199407 -1.17314e-22)
(0.376739 0.191078 1.01472e-22)
(0.363263 0.181962 -4.71777e-23)
(0.349176 0.171945 7.04677e-24)
(0.334579 0.160903 -8.45664e-23)
(0.319602 0.148707 9.29736e-23)
(0.304416 0.135232 -5.05389e-23)
(0.289229 0.120357 -1.0695e-22)
(0.274288 0.103973 3.84074e-23)
(0.259881 0.0859879 -1.68188e-23)
(0.246344 0.0663359 -2.18727e-22)
(0.234065 0.0449992 1.22285e-22)
(0.223463 0.0220444 1.56812e-22)
(0.214934 -0.00233582 -1.19852e-22)
(0.208778 -0.0278285 1.47011e-23)
(0.205163 -0.0540451 1.36152e-22)
(0.204115 -0.0805688 -1.56117e-22)
(0.205492 -0.107021 5.07354e-23)
(0.209056 -0.133128 -1.37285e-23)
(0.21458 -0.158705 6.39599e-23)
(0.221873 -0.183601 -1.46559e-22)
(0.230766 -0.207672 1.07434e-22)
(0.241092 -0.230786 -5.09055e-24)
(0.25268 -0.252827 -1.25762e-22)
(0.265369 -0.273695 3.60605e-23)
(0.279004 -0.293312 1.36866e-22)
(0.293443 -0.311614 -3.95273e-23)
(0.308567 -0.32855 -6.06402e-23)
(0.324272 -0.344076 1.03086e-22)
(0.340464 -0.358144 -1.32788e-23)
(0.357044 -0.370709 -3.35886e-23)
(0.373892 -0.381725 2.11046e-22)
(0.390855 -0.391157 -1.96424e-22)
(0.407733 -0.399004 8.67702e-23)
(0.424301 -0.405318 2.45961e-25)
(0.440335 -0.41021 2.70553e-22)
(0.455649 -0.413835 -2.39401e-22)
(0.470127 -0.416356 1.18761e-22)
(0.483602 -0.41806 1.08537e-22)
(0.495968 -0.419181 1.40531e-22)
(0.507259 -0.419824 -1.3684e-22)
(0.517633 -0.420007 -2.82111e-23)
(0.527239 -0.419764 -5.02175e-23)
(0.536127 -0.419186 -8.46763e-23)
(0.544367 -0.418342 5.77965e-23)
(0.552024 -0.417291 -1.14695e-22)
(0.559116 -0.416106 2.33057e-22)
(0.56569 -0.414861 -6.308e-23)
(0.542084 0.250668 -3.12332e-22)
(0.536168 0.247024 3.74811e-23)
(0.529764 0.243076 2.90949e-22)
(0.522842 0.238833 -2.05983e-22)
(0.515344 0.234274 5.1766e-23)
(0.507233 0.229391 1.85187e-22)
(0.498471 0.224169 -2.2107e-22)
(0.489027 0.218583 8.72971e-23)
(0.478878 0.212598 2.8243e-22)
(0.468015 0.206164 -8.26333e-23)