/*--------------------------------*- C++ -*----------------------------------*\
  =========                 |
  \\      /  F ield         | OpenFOAM: The Open Source CFD Toolbox
   \\    /   O peration     | Website:  https://openfoam.org
    \\  /    A nd           | Version:  10
     \\/     M anipulation  |
\*---------------------------------------------------------------------------*/
FoamFile
{
    format      ascii;
    class       volScalarField;
    location    "1050";
    object      epsilon;
}
// * * * * * * * * * * * * * * * * * * * * * * * * * * * * * * * * * * * * * //

dimensions      [0 2 -3 0 0 0 0];

internalField   nonuniform List<scalar> 
10435
(
0.0641362
0.211871
0.297186
0.186079
0.673899
0.685096
0.236633
0.0984244
0.0478052
0.521869
0.380039
0.21844
0.450047
0.0298565
0.0309947
0.187986
0.0292385
0.546671
0.0325486
0.0754587
0.139106
0.122894
0.24198
0.0612892
0.457684
0.0115952
0.0195451
0.358462
0.0181435
0.555229
0.353644
0.47555
0.0780571
0.0186391
0.113383
0.0746301
0.153969
0.0199992
0.00772414
0.0432466
0.618976
0.250022
0.0211625
0.139523
0.213535
0.0532065
0.643746
0.0201684
0.0361027
0.0780036
0.115086
0.533501
0.007512
0.014434
0.00860238
0.0164099
0.123657
0.0215317
0.027422
0.086382
0.00850348
0.150887
0.0216724
0.544901
0.232156
0.346645
0.0251883
0.0248489
0.121643
0.0634739
0.01406
0.0157044
0.0140374
0.319306
0.0330643
0.0207067
0.0692509
0.201188
0.0610253
0.0307949
0.0772083
0.0441565
0.00732075
0.0148661
0.0759652
0.056763
0.0707786
0.184988
0.0388929
0.0911492
0.228054
0.275349
0.0499138
0.0453142
0.117022
0.0541279
0.287957
0.0324177
0.0282828
0.39738
0.0350597
0.842039
0.0557061
0.148126
0.822506
0.164781
0.0561148
0.078003
0.07583
0.0326965
0.0745144
0.845027
0.0392619
0.0354831
0.401361
0.113554
0.384312
0.0749571
0.235279
0.274346
0.354278
0.0164778
0.100825
0.0270862
0.695996
0.0100993
0.282642
0.0184307
0.52769
0.0186791
0.0219859
0.592156
0.145071
0.0295644
0.0176234
0.00701617
0.0482662
0.194482
0.180543
0.100753
0.0877735
0.287497
0.0229371
0.38188
0.126342
0.0275021
0.0352064
0.621887
0.0279914
0.276521
0.01753
0.188997
0.0782769
0.303003
0.561433
0.0145834
0.7759
0.13582
0.553787
0.348956
0.25764
0.0288723
0.370994
0.130026
0.0361824
0.463466
0.0754978
0.190606
0.126284
0.465944
0.471224
0.0115677
0.0178558
0.029885
0.199874
0.244602
0.105708
0.0263322
0.0689937
0.0201163
0.28903
0.720751
0.262217
0.00944412
0.263711
0.0174066
0.017655
0.178999
0.707285
0.452857
0.293493
0.00724752
0.0174759
0.0700891
0.825384
0.148023
0.0248441
0.0446007
0.0234744
0.176109
0.0379665
0.0196254
0.401102
0.021196
0.361487
0.515363
0.300554
0.193324
0.0224067
0.12537
0.0147833
0.261855
0.361076
0.149247
0.0194656
0.0287541
0.0403957
0.00969052
0.0117754
0.0285466
0.0187308
0.0281913
0.0244837
0.028885
0.013348
0.132846
0.00958604
0.036965
0.417373
0.0219606
0.0268419
0.100788
0.0106117
0.171068
0.0202507
0.0287548
0.104921
0.0131647
0.100638
0.405788
0.116646
0.0115959
0.0105779
0.0159843
0.45314
0.0563626
0.0409341
0.124466
0.0141149
0.162829
0.013822
0.0437103
0.475668
0.12478
0.152759
0.576611
0.0126151
0.175462
0.013
0.0195505
0.200066
0.469212
0.0114512
0.0913748
0.046339
0.028014
0.0961402
0.300784
0.00857158
0.528777
0.228168
0.0922689
0.126835
0.418767
0.0130415
0.266762
0.0191037
0.676445
0.175498
0.0771768
0.471
0.0250351
0.257898
0.0329071
0.0519487
0.00835213
0.679187
0.00863746
0.0152561
0.0193273
0.0324626
0.470434
0.0224547
0.107482
0.00788552
0.0137573
0.0257925
0.0542859
0.638819
0.382206
0.024719
0.104008
0.286557
0.0154622
0.568325
0.0302112
0.0276917
0.155205
0.365559
0.0154724
0.0626936
0.0174983
0.106057
0.674034
0.0650871
0.0142302
0.0100944
0.352279
0.0262332
0.196033
0.792369
0.0201399
0.0634225
0.00717497
0.0633345
0.412476
0.0144051
0.31607
0.0266045
0.020611
0.0660863
0.020876
0.0155115
0.271212
0.224714
0.0227918
0.0147674
0.0145168
0.0169348
0.0173068
0.0155526
0.0152213
0.00835979
0.017774
0.0170767
0.0168779
0.0239813
0.0206507
0.00710509
0.050785
0.0158933
0.409374
0.0190231
0.348514
0.0522585
0.0303363
0.441174
0.300506
0.015282
0.0170855
0.0147181
0.0103799
0.01684
0.00841268
0.0191286
0.0165747
0.0229121
0.177253
0.0161529
0.0442287
0.00945041
0.0176917
0.47053
0.0237408
0.00863633
0.019385
0.0208828
0.02009
0.0167897
0.0128968
0.0225108
0.00902558
0.0702416
0.0246908
0.104702
0.0439621
0.382688
0.416346
0.0373982
0.323799
0.0876853
0.0244756
0.0141178
0.0172647
0.0145834
0.297138
0.0160903
0.479827
0.0215844
0.0204506
0.0184895
0.0219674
0.011122
0.213678
0.0203914
0.0861316
0.143807
0.0116678
0.0140645
0.0202515
0.026039
0.0201361
0.0150889
0.0126331
0.016688
0.0220627
0.0186
0.32165
0.014135
0.0144112
0.0185566
0.0196162
0.538406
0.00903599
0.00748655
0.0177586
0.0168537
4.9181e-05
4.67453e-05
4.34892e-05
3.98826e-05
3.62123e-05
3.24711e-05
2.86465e-05
2.47341e-05
2.07483e-05
5.23001e-05
4.9228e-05
4.53813e-05
4.13129e-05
3.72437e-05
3.32134e-05
2.92241e-05
2.53131e-05
2.15708e-05
5.6396e-05
5.26421e-05
4.81525e-05
4.35406e-05
3.90179e-05
3.46312e-05
3.03989e-05
2.63677e-05
2.26316e-05
6.20343e-05
5.74912e-05
5.22204e-05
4.69375e-05
4.18415e-05
3.69783e-05
3.23701e-05
2.80542e-05
2.40982e-05
6.99514e-05
6.4436e-05
5.81589e-05
5.19988e-05
4.61348e-05
4.06097e-05
3.54374e-05
3.06344e-05
2.62199e-05
8.11889e-05
7.44103e-05
6.67863e-05
5.94351e-05
5.25114e-05
4.60536e-05
4.0062e-05
3.45332e-05
2.9458e-05
9.7319e-05
8.87839e-05
7.92947e-05
7.02893e-05
6.18845e-05
5.4109e-05
4.6947e-05
4.03868e-05
3.44206e-05
0.00012083
0.000109555
9.74272e-05
8.61089e-05
7.563e-05
6.59914e-05
5.7159e-05
4.91209e-05
4.18933e-05
0.000155226
0.000139507
0.000123705
0.000109189
9.58241e-05
8.35578e-05
7.23345e-05
6.21344e-05
5.29805e-05
0.000204406
0.000182301
0.000161709
0.000142892
0.000125567
0.000109625
9.49982e-05
8.16473e-05
6.9551e-05
0.000271909
0.000242627
0.000216394
0.000192012
0.000169362
0.000148358
0.000128968
0.000111146
9.48458e-05
0.000361009
0.000326716
0.000294449
0.000263093
0.000233445
0.000205632
0.000179736
0.000155748
0.000133652
0.000477114
0.000443558
0.000404657
0.000364555
0.000325855
0.000289115
0.000254602
0.000222371
0.000192522
0.000642822
0.000606474
0.000557826
0.000506231
0.00045592
0.000407796
0.000362247
0.000319391
0.000279452
0.000879127
0.000828906
0.000764641
0.000697807
0.000632938
0.000570798
0.000511679
0.000455617
0.000402608
0.00119867
0.0011191
0.0010325
0.000946683
0.000864484
0.000785944
0.000711033
0.000639705
0.000571934
0.00159423
0.00147621
0.00136362
0.00125672
0.00115546
0.0010589
0.000966588
0.000878431
0.000794814
0.0020398
0.00189233
0.00175624
0.001629
0.00150867
0.00139373
0.00128331
0.00117708
0.0010754
0.0025278
0.00236286
0.00220896
0.00206438
0.00192679
0.00179462
0.00166668
0.00154234
0.00142157
0.00306242
0.00289017
0.00272407
0.00256597
0.00241422
0.00226744
0.00212411
0.00198331
0.00184522
0.00365527
0.00348222
0.0033077
0.00313971
0.00297785
0.00282049
0.00266538
0.0025108
0.00235626
0.00432301
0.00414988
0.00396809
0.00379344
0.00362654
0.00346439
0.00330333
0.0031403
0.00297393
0.00508993
0.00490488
0.00471343
0.00453544
0.00437023
0.00421139
0.00405299
0.00389019
0.0037213
0.00598546
0.00575559
0.00554876
0.00537247
0.00521854
0.00507415
0.00493018
0.00477925
0.00461924
0.00703186
0.0066972
0.00647448
0.00631023
0.00618196
0.00606638
0.00595178
0.00582939
0.00567259
0.000764641
0.00074962
0.000738622
0.000731621
0.000728607
0.000729486
0.000734145
0.000742378
0.000753979
0.000768645
0.000786059
0.000805842
0.000827534
0.000850655
0.000874616
0.000898817
0.000922612
0.000945324
0.00096627
0.000984774
0.0010001
0.00101144
0.00101758
0.00101679
0.0010084
0.000993996
0.00097402
0.000947968
0.000915125
0.000877628
0.000836299
0.000791468
0.000743666
0.000693801
0.000642698
0.000591141
0.000539867
0.000489558
0.000440827
0.00039421
0.000350146
0.000308977
0.000270931
0.000236138
0.000204638
0.000176459
0.000151609
0.000130051
0.000111669
9.62875e-05
8.36603e-05
7.349e-05
6.54661e-05
5.92858e-05
5.46826e-05
5.14293e-05
4.93465e-05
4.83019e-05
4.81878e-05
0.000785574
0.000772743
0.000763657
0.000758329
0.000756717
0.000758717
0.00076415
0.00077275
0.000784146
0.000798046
0.000814165
0.00083217
0.000851672
0.000872224
0.000893331
0.000914456
0.000935022
0.000954435
0.000972087
0.000987368
0.000999658
0.00100831
0.00101261
0.00101163
0.00100448
0.000990639
0.000970064
0.000943136
0.000910711
0.000873805
0.000833081
0.000789044
0.000742246
0.000693344
0.000643049
0.000592091
0.000541183
0.000491003
0.000442172
0.000395237
0.000350665
0.000308838
0.000270052
0.00023452
0.00020238
0.000173724
0.000148584
0.00012691
0.000108579
9.33388e-05
8.08776e-05
7.08693e-05
6.29921e-05
5.6931e-05
5.24091e-05
4.91958e-05
4.71095e-05
4.60115e-05
4.57927e-05
0.000790284
0.000778778
0.000770525
0.00076552
0.000763736
0.000765103
0.000769515
0.000776817
0.0007868
0.000799209
0.000813746
0.000830074
0.000847812
0.000866538
0.000885787
0.000905056
0.000923809
0.000941486
0.000957505
0.000971268
0.000982146
0.000989468
0.000992499
0.000990475
0.00098274
0.000968919
0.000948941
0.000923045
0.000891791
0.00085594
0.000816204
0.000773199
0.000727535
0.000679852
0.000630817
0.000581105
0.000531379
0.00048227
0.000434363
0.000388184
0.000344194
0.00030279
0.0002643
0.00022899
0.000197062
0.000168646
0.000143786
0.000122427
0.000104406
8.94666e-05
7.72937e-05
6.75385e-05
5.98633e-05
5.39524e-05
4.95294e-05
4.63654e-05
4.42802e-05
4.31432e-05
4.28436e-05
0.00077157
0.00076086
0.000753195
0.000748544
0.000746848
0.000748014
0.000751923
0.000758422
0.000767324
0.000778406
0.000791412
0.000806047
0.000821975
0.000838823
0.000856173
0.000873565
0.000890505
0.000906461
0.000920873
0.000933152
0.000942677
0.000948804
0.000950872
0.000948244
0.000940371
0.000926903
0.000907751
0.000883105
0.000853407
0.000819262
0.000781314
0.0007402
0.000696546
0.000650983
0.000604141
0.000556646
0.000509103
0.000462095
0.000416162
0.000371804
0.000329467
0.000289552
0.000252402
0.000218308
0.000187493
0.000160098
0.00013617
0.000115648
9.83678e-05
8.4073e-05
7.24553e-05
6.31642e-05
5.58563e-05
5.02222e-05
4.59965e-05
4.29613e-05
4.09422e-05
3.98128e-05
3.94669e-05
0.000738956
0.000729162
0.000722166
0.000717932
0.000716397
0.000717468
0.000721023
0.000726917
0.000734972
0.000744982
0.000756711
0.00076989
0.000784217
0.000799349
0.000814907
0.000830471
0.000845584
0.000859749
0.00087244
0.000883098
0.000891145
0.000895985
0.00089704
0.000893766
0.000885722
0.000872629
0.000854407
0.000831191
0.000803312
0.000771248
0.000735556
0.000696829
0.000655676
0.000612706
0.00056852
0.000523707
0.000478833
0.000434439
0.00039104
0.000349108
0.000309079
0.000271341
0.000236234
0.000204044
0.000174986
0.000149193
0.000126698
0.000107435
9.12375e-05
7.78563e-05
6.69873e-05
5.83006e-05
5.14725e-05
4.62077e-05
4.22526e-05
3.93989e-05
3.74832e-05
3.63859e-05
3.60064e-05
0.000692018
0.000682849
0.000676294
0.000672314
0.000670842
0.000671782
0.000675009
0.000680376
0.000687707
0.0006968
0.000707427
0.000719337
0.000732243
0.000745828
0.000759742
0.000773596
0.000786968
0.000799399
0.000810409
0.000819494
0.000826127
0.000829781
0.000829954
0.000826186
0.000818107
0.000805493
0.000788279
0.00076658
0.000740657
0.0007109
0.000677787
0.000641853
0.000603669
0.00056381
0.000522836
0.0004813
0.000439723
0.000398606
0.000358439
0.000319666
0.000282693
0.000247883
0.00021555
0.000185955
0.00015929
0.000135663
0.000115095
9.75084e-05
8.27395e-05
7.05505e-05
6.06563e-05
5.27527e-05
4.65417e-05
4.17534e-05
3.81532e-05
3.55482e-05
3.3789e-05
3.27664e-05
3.23883e-05
0.000632907
0.000624333
0.00061816
0.00061436
0.000612878
0.000613621
0.000616473
0.000621291
0.000627903
0.000636111
0.000645696
0.000656415
0.000668
0.00068015
0.000692538
0.000704812
0.00071658
0.000727418
0.000736891
0.000744545
0.00074991
0.000752524
0.000751966
0.000747855
0.000739867
0.000727836
0.000711719
0.000691625
0.000667759
0.000640442
0.000610103
0.000577212
0.00054232
0.000505966
0.000468651
0.000430895
0.000393163
0.000355913
0.000319616
0.000284666
0.000251419
0.000220191
0.000191254
0.000164832
0.00014108
0.000120079
0.000101829
8.62486e-05
7.31788e-05
6.24002e-05
5.36549e-05
4.66706e-05
4.11826e-05
3.69504e-05
3.37663e-05
3.14598e-05
2.98973e-05
2.89808e-05
2.86279e-05
0.000559592
0.000551316
0.000545261
0.000541423
0.000539768
0.000540217
0.000542655
0.00054695
0.000552922
0.000560363
0.00056908
0.000578808
0.000589284
0.000600218
0.000611319
0.000622298
0.000632809
0.00064242
0.000650754
0.000657343
0.000661769
0.000663622
0.000662609
0.000658455
0.000650811
0.000639603
0.000624795
0.000606517
0.000584869
0.000560133
0.000532726
0.000503082
0.000471784
0.000439345
0.000406131
0.000372652
0.000339329
0.000306548
0.000274783
0.000244319
0.000215451
0.000188429
0.000163469
0.000140746
0.000120385
0.000102424
8.6861e-05
7.35988e-05
6.24858e-05
5.33235e-05
4.58884e-05
3.99498e-05
3.52839e-05
3.16882e-05
2.89875e-05
2.70367e-05
2.57215e-05
2.49565e-05
2.46695e-05
0.000468891
0.000460589
0.000454399
0.000450401
0.000448608
0.000448916
0.000451154
0.000455052
0.000460636
0.000467928
0.000476336
0.000485598
0.000495376
0.000505307
0.000515371
0.000525262
0.000534969
0.00054436
0.000552485
0.000558595
0.00056243
0.000563776
0.000562618
0.000558691
0.000551805
0.000541819
0.000528772
0.000512711
0.000493545
0.000471422
0.000447001
0.000420786
0.000393365
0.000365244
0.000336711
0.000307801
0.000279109
0.000251599
0.000225155
0.000199777
0.000175852
0.00015358
0.000133083
0.00011445
9.77553e-05
8.31098e-05
7.04742e-05
5.98125e-05
5.09184e-05
4.35385e-05
3.74972e-05
3.26507e-05
2.88477e-05
2.59285e-05
2.37472e-05
2.21945e-05
2.11781e-05
2.06235e-05
2.04662e-05
0.0140134
0.0125617
0.0112442
0.0100225
0.00887772
0.00780788
0.00681564
0.00590478
0.00507648
0.00432874
0.00367762
0.00313816
0.0027057
0.00236163
0.00207341
0.00182428
0.00161436
0.00144322
0.0013077
0.00119984
0.00111039
0.00103207
0.000959091
0.000886492
0.000809274
0.0133921
0.0122879
0.011105
0.00992734
0.00879097
0.00771514
0.0067137
0.00579505
0.00496417
0.00422648
0.00358861
0.00305228
0.00261139
0.00225374
0.00196366
0.00172791
0.00153732
0.00138467
0.00126346
0.00116693
0.00108803
0.00102018
0.000957753
0.000895742
0.000829273
0.0134382
0.0122586
0.0110445
0.00984169
0.0086802
0.00758217
0.00656412
0.00563657
0.00480627
0.00407758
0.00345137
0.00292405
0.00248831
0.00213415
0.00185014
0.00162508
0.00144849
0.00131085
0.00120378
0.00111986
0.00105224
0.000994609
0.000941335
0.000887563
0.000829211
0.0136141
0.0122933
0.0109934
0.00973395
0.0085342
0.00741128
0.0063792
0.00544749
0.00462156
0.00390301
0.00328926
0.00277417
0.00234945
0.00200555
0.00173224
0.00151891
0.00135486
0.00122988
0.00113483
0.0010618
0.00100384
0.000954675
0.000908727
0.000861222
0.000808002
0.0138152
0.0123591
0.0109577
0.0096253
0.00837645
0.00722355
0.00617633
0.00524098
0.00441984
0.00371144
0.00311062
0.0026095
0.00219878
0.00186855
0.00160849
0.00140796
0.00125618
0.00114278
0.00105839
0.000994855
0.000945096
0.000902909
0.000862878
0.000820547
0.000772468
0.013987
0.0124102
0.0109064
0.0094974
0.00819716
0.00701389
0.00595233
0.00501455
0.00419931
0.00350217
0.0029158
0.00243078
0.00203667
0.00172267
0.00147789
0.00129129
0.00115197
0.00104959
0.000974824
0.000919557
0.000876791
0.000840494
0.000805497
0.000767618
0.000723521
0.0141438
0.0124393
0.0108265
0.00933881
0.00798815
0.00677663
0.00570288
0.00476454
0.00395703
0.00327311
0.00270349
0.00223721
0.00186249
0.0015672
0.00133955
0.00116803
0.00104157
0.000950005
0.000884258
0.000836418
0.000799699
0.000768339
0.00073745
0.000703127
0.000662475
0.0143083
0.0124339
0.0106991
0.00913363
0.00773791
0.0065036
0.00542191
0.00448597
0.0036889
0.00302105
0.00247115
0.00202689
0.00167498
0.00140118
0.00119272
0.00103753
0.000924476
0.00084371
0.000786596
0.000745579
0.000714117
0.000686804
0.000658953
0.000626856
0.000588154
0.0144392
0.0123578
0.0104974
0.00886433
0.00743575
0.00618804
0.00510528
0.00417476
0.00339076
0.00274265
0.0022157
0.00179739
0.0014731
0.00122403
0.00103699
0.000899606
0.000800462
0.000730482
0.000681826
0.000647363
0.000620516
0.000596628
0.000570496
0.000537665
0.000497507
0.521165
0.500341
6.22276
0.55959
0.000324625
0.000474342
0.0323706
4.8632e-05
5.07357
2.88279e-05
3.12646
0.000229472
0.00265296
0.00112049
0.0247076
0.000317782
3.48715
0.405771
1.83077e-05
0.112423
0.00372183
0.000153046
3.42565
0.00166562
3.92695e-05
7.97802e-05
3.73564e-05
0.00767924
0.74671
3.08137
1.98085e-05
0.000118844
2.55688
0.00472199
3.01578
0.000193736
0.015203
0.0250576
0.0161709
0.000259729
3.92783
5.9702e-05
0.000116015
0.0201006
0.00394008
0.000237282
5.00721
5.848
1.30605
1.3503
4.58931
3.26349
0.00232358
0.325686
0.0297636
4.86597
0.000933971
0.00242548
0.000154711
3.14408
0.000328675
6.50901
0.000323046
0.000238714
5.06002e-05
0.0191439
0.000111928
0.00647619
0.00292541
1.29996
4.33948
0.000214765
0.000142072
0.0983519
3.85562e-05
0.0033156
0.0690853
5.15364
4.00838e-05
0.221828
0.00420398
0.000488111
6.09891e-05
3.14199
0.000302089
0.000360601
0.000109724
4.96354
2.61745
0.00104179
0.00199302
0.000307173
5.2573e-05
0.00025111
0.000189288
3.14641
8.48399e-05
3.58153
0.000153984
3.04723
0.00255548
3.8545
0.00307137
0.000215211
0.000119554
0.00390836
3.64085
0.00412943
0.000198133
3.09397
0.000172499
0.000266668
3.53057
0.000201847
0.00227955
1.25453
2.65655
0.000215072
0.00219158
0.000197819
1.25116e-05
0.000245949
0.00162214
4.36105e-05
2.73404
0.000113178
3.29048
0.0569921
0.000102954
5.81935
5.72721e-05
0.0924785
1.36247
0.0119289
0.00989033
0.000112098
0.00367738
0.0014486
0.000283072
0.13016
0.00013362
0.015359
3.30723
1.67515e-05
0.914656
0.000383603
0.737988
0.0199852
0.000319121
3.03552
0.00513778
0.000497646
0.737981
0.038149
5.38768e-05
3.04881
8.18223e-05
0.000203284
0.0614285
7.19681e-05
0.000116285
4.47764
0.000162633
3.83675
8.73767e-05
3.93235
0.00114143
3.63193e-05
0.000413307
9.96916e-05
0.000971614
0.000250105
0.00672567
3.45488
0.000113643
0.00507985
0.00924334
1.02142
1.89329
0.000139238
0.0102749
0.000118314
0.00224891
0.012388
0.0153412
7.99673e-05
4.32475
0.000192463
1.62421
0.000300342
4.81842
3.1762
0.976146
0.0148609
0.0306623
1.88776
3.75684e-05
0.00014734
1.072
0.593965
0.00503459
0.000435844
0.000446787
0.00032396
0.0039059
5.59414e-05
0.000138327
0.00311193
1.41849
0.000159848
0.000111397
0.000294468
0.00941159
0.00357222
0.0062006
4.55952
0.000232222
5.50378e-05
0.000350721
0.00188925
0.00264216
7.1212e-05
6.63826e-05
6.00828
0.0080414
2.91924
0.000867726
3.44094
0.000176195
0.000166409
2.80553
0.000197405
0.000123451
6.4013e-05
0.0160627
3.77843e-05
0.0518911
0.00466583
0.0128343
0.0409158
2.49534e-05
0.000331144
8.77695e-05
0.0128881
0.00012616
9.60886e-05
0.000107205
0.00595124
0.000305414
7.45183e-05
0.000146258
0.00557842
5.31024e-05
1.24204
0.000129135
4.14149e-05
3.40354
0.0641754
0.0586928
1.82006e-05
0.00602686
0.000137219
0.000206294
4.62808e-05
0.0866793
5.0322e-05
6.0528e-05
1.0378
0.0333026
3.62376e-05
0.00541706
1.07561
0.000161918
5.63383e-05
1.98726e-05
1.05174
0.000187949
5.28531
0.000970096
3.81024
0.0222
0.00539085
0.00520912
0.000234235
1.91552
0.000331279
0.00433182
0.0283088
4.4106
5.09543
0.0437998
0.000177403
2.91945e-05
4.71768
0.0141929
4.42683
4.06353
0.00019986
7.56881e-05
2.30905
3.41524
0.000115501
0.000460506
0.00034786
3.67595
7.27537e-05
0.00399936
5.78195e-05
0.13022
0.000456564
0.000217757
9.46484e-05
2.05845
7.97118e-05
0.000170878
0.0152827
5.52627
5.90464e-05
4.02089e-05
0.0216817
0.0609979
9.62679e-05
0.000536657
1.9785e-05
0.000120452
5.09302e-05
2.57599
0.00447001
0.000176191
0.00260756
8.3042e-05
0.0293452
0.00205035
3.19961e-05
4.47022
0.000393641
9.75879e-05
6.62168e-05
2.22211e-05
0.00591877
0.000317585
0.000192951
2.49838
8.40117e-05
0.0806872
0.000236581
0.000697529
0.000134296
0.000107168
4.81123
0.200565
5.45129e-05
0.000147219
0.0566026
4.76027
0.00613497
0.0376739
0.0184041
8.96286e-05
5.32089
1.42695
3.02996
6.47283e-05
2.81284
4.57102e-05
9.60035e-05
0.000347614
5.62516
0.000181241
1.49345
0.000144908
0.0378526
0.725521
3.17866
0.00267159
7.03117e-05
0.000136639
8.24523e-05
8.21051e-05
3.44409e-05
3.96509
0.000240859
2.70735
0.0222729
0.0198533
0.0264325
8.91037e-05
0.108336
2.83228
4.85438
0.0221489
5.76108e-05
0.00299197
2.44786
0.0103344
2.29699e-05
7.56298e-05
2.49326
0.000201919
0.772458
5.10807e-05
0.000117733
0.000301419
0.952684
0.000165494
4.83994e-08
0.0283735
0.00337386
0.0166117
2.54343e-05
1.80764
0.000195363
2.28261
0.000269462
8.44688e-05
0.00131258
1.45796
4.80634
0.000145086
0.000295257
9.32482e-05
8.23779e-05
0.00121271
0.00384093
0.000352262
4.42312
9.95306e-06
0.000635673
4.2197e-05
0.000115752
0.000301753
4.60507e-05
0.00110209
3.62549e-05
0.0425657
0.000326187
0.000168529
1.77111e-05
0.000127832
0.000812683
6.67497e-05
0.0407205
4.67004
0.0175647
0.00319635
4.33746
0.00553396
2.39229
0.0001098
4.09595e-05
3.17162
0.000107396
0.000162281
2.14228
8.91465e-05
1.20075
4.94955
0.00034898
0.0021119
0.049015
0.000178108
0.014207
1.70251
0.00848891
3.94503
6.90946e-05
0.000152051
6.45794
6.43261e-05
2.87919
0.00522196
7.86684e-05
3.00541
0.00087007
4.457e-05
0.0035977
0.000844086
6.66058e-05
0.0196703
0.0138483
0.00645241
0.0158324
5.92344e-06
0.000204022
3.03232
0.000238115
0.000449119
0.000279063
1.32256
0.000153535
0.0292131
0.000214059
0.000112472
2.3519
0.000169128
0.000280964
0.0276152
0.000305726
6.15626e-05
1.44569
0.00011762
0.0425349
0.000227106
0.0104036
0.00823927
0.00578242
0.000314871
0.000289432
0.0299283
0.000108594
0.000119856
0.00526087
0.000111815
0.000716669
8.40396e-05
5.57087
3.5627
1.55868
7.62656e-05
0.0128238
4.56352e-05
5.05188
0.115857
1.99715
0.00457183
0.000284857
4.22571
3.77248
5.71405e-05
0.00029653
0.00547134
0.000164471
1.39708
3.39332
0.000224965
0.0208706
0.0001194
2.0061
1.18155
0.000229134
0.0206455
3.18622
0.000142544
3.95865
0.000196521
5.12949
0.000128217
0.0021348
0.000297538
5.1453
0.015817
0.016138
9.70101e-05
1.29097
1.51563
5.64427
5.58129e-05
7.72289e-05
0.0023194
1.64795
4.91343e-05
0.0119107
0.000120781
0.00295423
3.08087
2.34363e-05
0.0114184
0.000120701
0.00011626
0.00760936
2.24429
0.000326792
0.0188731
0.000197339
0.00033885
3.46772
5.27404
1.70898
0.00246076
0.00828358
0.124808
0.002148
0.000424713
4.9332e-05
4.89456e-05
2.47108
0.00013311
0.00048657
0.0294812
0.000376526
0.000810763
0.000439
0.000222231
0.0363496
9.59931e-05
0.000169227
0.00383438
1.61354
0.000256697
0.0001119
2.53447
0.00749321
5.52577e-05
0.000626226
0.0518442
0.00013934
0.00034997
4.04991e-05
0.0197311
0.000108198
0.000119092
0.0159787
8.78198e-05
0.000393036
0.00322869
0.00273731
9.48695e-05
0.000654747
5.06825
0.000263333
5.48907e-05
9.55238e-05
6.68906e-05
0.000956587
0.000102654
2.92835
6.09152
0.00680016
2.30771
5.09351e-05
3.80335e-05
6.67188e-05
9.37151e-05
0.000379398
0.000190976
0.00381459
0.00101352
8.38047e-05
0.000424519
0.0307013
0.0102778
0.00182456
0.0188462
0.000137627
0.000412956
6.05891e-05
0.00254306
0.0206663
2.84625
0.0357149
0.0555921
0.000118106
2.83426e-05
0.000123688
0.000305367
3.49528e-05
5.31417
1.77368e-05
0.00729424
9.10447e-05
1.88478
0.112857
3.04807
1.18324e-05
6.80442e-05
4.66792e-05
3.83253
2.56361
0.0147362
0.00221754
8.85329e-05
2.38215e-05
0.00027981
3.23554
2.57383e-05
8.13646e-05
0.0131011
0.000172052
0.000156611
3.86958e-05
0.000156107
0.00261373
0.000686109
6.39884e-05
6.08719e-05
0.00236491
8.23834e-05
0.947794
4.09578
0.000113232
0.0273582
0.000166909
2.98957
5.10253e-05
8.00124e-05
7.81711e-05
7.41226e-05
0.0352266
0.000294741
0.000120223
0.000158964
0.00549155
0.000125766
0.000286552
0.000190629
4.01141
0.0251028
0.00457116
5.47877
0.0298482
1.33831
3.0154
1.93269e-05
7.85568e-05
6.1404e-05
2.03319e-07
0.000209982
0.0218726
0.000373729
0.000156907
0.00244985
3.22895e-05
3.21062e-05
0.00885329
9.71692e-05
5.98704e-05
6.03085e-05
0.00456668
0.00548151
4.00716
2.57669e-05
2.04058
0.0335701
0.971661
0.0076976
3.95698
4.39791
1.38062
5.60744e-05
0.000310225
1.17058e-05
0.00442872
0.000148599
0.0147509
0.728611
6.4453e-05
0.0700607
0.0176508
8.57278e-05
5.62909e-05
0.000213174
5.86594
4.27503
8.94602e-05
0.0379481
0.0385359
0.00251225
2.27662
3.22937e-09
7.20815e-05
0.00935546
1.71641e-05
0.637094
0.0170671
3.17441
0.0368432
4.74438e-05
0.037175
0.000201934
1.52095e-06
0.013842
0.000705574
0.00181208
7.39735e-05
0.000113075
0.017974
0.000319704
6.86581e-05
0.000118148
0.000218602
0.0104471
0.000247626
3.30478
0.0279767
0.000136299
0.13794
0.000253914
0.12259
0.00042541
4.66933e-05
0.000143943
0.0087494
0.00559996
2.11806e-05
0.000172194
4.86029
3.91516
0.0345284
0.000302348
0.0169469
0.0102424
0.0441094
4.74043
0.0124721
0.00166001
9.73717e-05
3.50344
0.000154125
4.93347e-05
0.00278806
1.89212
5.72591
0.00012812
0.00022081
1.39839
5.81913e-05
4.88125
2.11057
0.000155828
0.000127798
6.04736
0.751189
0.84008
8.06863e-05
6.85591e-05
8.92249e-05
0.0144585
0.0154851
0.000103743
4.90877e-05
0.000342406
0.0318639
0.000431676
0.00995121
0.802972
2.47499e-05
0.000120162
3.39159
2.93631e-05
0.0048647
0.00028672
0.00823149
9.22283e-05
0.000106535
0.0112391
0.000200616
6.84939e-05
6.20968e-05
0.00616916
0.00534945
4.69816
6.09072e-05
6.27587e-05
0.000148539
0.0202967
0.126783
5.55544
0.000183641
0.00430623
0.0271005
1.52736e-06
4.51133e-05
0.000615044
2.86143
0.000130645
0.0991383
0.000336741
1.46441e-05
0.0173617
0.000293982
2.25366
1.75437
0.0177928
3.38485
3.837
5.7407
3.08936e-05
2.15138
0.0167834
0.000122757
0.0286672
0.000162478
0.000645754
0.062093
0.000282258
0.0016563
0.00932931
4.70341
8.99116e-05
6.43489e-05
2.03335
0.00129764
0.000360194
0.0290224
0.847415
0.0339955
5.44018e-05
0.00362624
5.53565
3.12584
0.0129998
0.00382952
1.26336
0.00115002
8.08302e-05
0.014092
1.79574
0.000106774
0.0113741
0.000635528
2.08749
0.000357638
0.0150356
0.780241
2.33211e-05
0.000435959
5.82688e-05
2.17484
0.0309359
2.13165
1.10395
0.000358792
0.00868054
0.0114065
0.00208848
0.684375
0.00239091
6.36447e-05
0.000320627
0.000263105
0.000108916
0.0170742
3.07276
0.000227913
2.18359
0.000168829
0.0492431
3.45628e-05
0.000167919
4.54649e-05
3.37314
1.88676
0.00704144
0.00635649
0.000100791
0.000141627
0.0411525
3.73481e-05
0.0293226
0.0128621
3.05861
0.000275956
0.00587863
0.0439088
0.000336128
0.000385364
0.000438878
3.11861
0.000228084
0.00210181
0.0466978
0.0291029
0.000157979
0.00209043
4.85928e-05
0.000186235
0.000227399
0.000141807
0.00340399
8.86143e-05
0.00459116
2.0252
0.117748
3.22535
0.000152426
0.00377353
0.0112847
6.87671e-05
0.87718
0.000377504
0.000979918
3.57895
0.000343495
0.0087234
0.00112132
3.79991e-05
1.35671
4.09182e-05
0.00651732
0.000114306
0.0343601
0.0392791
2.61039
6.86423e-05
0.042037
0.00010737
0.0079758
0.000310626
2.50192
0.0122375
0.004155
3.18008
0.000340935
4.90931
0.000218692
1.14393
0.000583006
5.13231e-05
0.000206558
0.0162809
0.0274762
0.000246269
5.57759e-05
0.0728709
6.44714e-05
6.07737e-05
8.63101e-05
0.000115524
0.000233767
5.68634
0.000383103
0.000195111
0.0387617
0.00655494
5.7205
9.33258e-05
8.74243e-05
0.000134298
0.00351004
0.000432886
0.000577395
3.69643
0.00445939
0.0190172
7.38043e-05
0.00230151
0.0200085
2.26697
7.65384e-05
4.78438e-05
0.00048046
0.000417802
0.000108141
0.0118295
4.73662
0.322851
0.00988426
9.32481e-05
0.0425938
3.05522
0.0048004
0.0478511
0.000344916
0.901653
2.9358
5.29952
0.000248347
0.000256904
0.00308738
2.06546
0.000377602
4.53944
0.000900876
0.00988186
1.64899
3.18716e-05
0.000337416
0.000902973
3.4619e-05
1.95154e-05
0.000948686
0.767991
2.2106e-05
2.05236
9.14894e-05
0.000125296
8.37724e-05
3.49879e-05
0.00273603
0.000277337
0.118049
0.00964401
0.000253092
0.000335009
1.08407
2.9523
6.16774e-05
0.000154288
0.000194855
0.0151063
0.171835
0.00388885
3.57091
7.54558e-05
3.53549e-05
0.00236941
0.000215007
0.00351018
0.0386595
8.94614e-05
9.82948e-05
2.44602e-05
0.00160311
0.0113464
3.59183
0.0419677
3.74859e-05
0.00370898
2.95603e-05
3.29553
3.64778
9.41283e-05
3.40877e-05
0.0682797
0.000109227
0.0002386
1.02461
0.779411
0.00112639
4.25995e-05
0.000106433
0.0124937
0.775657
0.000116983
9.72085e-05
0.730337
2.13552
7.67026e-07
0.000113588
6.88209e-05
0.000174177
0.00961278
0.00232988
0.000178573
0.0453647
0.000273879
0.000112613
0.000185068
0.00303617
0.000137776
4.30394
1.61374
3.12078
0.677165
0.0267238
0.89499
0.000111651
3.05359
0.00342569
5.42603e-05
0.00327361
0.000264253
0.00284799
0.000104477
0.000183862
0.00016939
2.48788
4.40554e-05
0.00613087
0.0401418
0.00103502
0.00388627
0.00824624
5.27384
8.0982e-05
4.64223
3.54722
0.000860681
0.000135913
0.00304668
0.0048866
0.00230578
0.0344208
4.3306
0.000123131
0.000105445
0.000106653
0.0173077
3.47181
0.000369483
0.000750416
5.49493e-05
6.39245e-05
0.000457659
0.00904839
3.41596e-05
0.00124977
0.00235626
1.35654
6.65846e-05
0.00332564
4.58787
0.000282888
0.00453655
0.00251571
1.73894
0.00484042
0.00784992
0.00214273
0.000144681
2.88903
1.93354
0.000225232
0.0125804
0.025949
8.01093e-05
0.000498986
0.000133233
0.0181083
0.000103252
0.00311941
5.27056e-05
0.0391014
1.2048
0.0611427
1.21884
0.00169548
0.00040033
0.0691848
0.0359619
0.000890903
0.000252796
0.000415317
2.95811
0.000133558
0.00373459
0.000123807
0.000284093
0.0142534
0.000222254
0.000145492
6.15156e-05
2.2694
0.0694601
3.08739e-05
0.000254109
2.18669e-05
0.000103289
0.000273846
1.2652
0.000213463
0.0187799
1.87558
0.0314279
3.33142e-06
0.0489839
0.705026
0.12414
0.954267
0.00192667
0.00933367
2.92005
2.7825
5.65224e-05
1.76386
7.32122e-05
4.84224
0.0369723
2.70565e-05
0.00313777
0.0239183
4.94493
0.00707354
0.00509746
0.000113129
0.0345322
1.62701
0.00951113
3.02093
0.000321677
0.121747
4.19712e-05
1.95026
0.00386696
0.000120768
0.000263884
0.0823002
0.000165267
0.00102692
0.135549
8.91582e-05
1.21595
0.000135765
0.000116149
0.0456073
0.0350625
0.000816292
0.00244672
0.0299951
0.000359753
0.00492752
0.0143964
5.78772e-05
0.00734894
4.55085e-05
1.01271
0.00521999
5.73805e-05
4.1198
4.37856e-05
0.00343944
0.0130143
0.000105258
0.00014432
0.00310621
0.0139072
0.029086
0.00014944
4.69577
0.000121117
0.00434771
4.45895
0.00462672
0.000284806
0.0232339
0.000229105
9.91832e-05
1.0922e-05