/*--------------------------------*- C++ -*----------------------------------*\
  =========                 |
  \\      /  F ield         | OpenFOAM: The Open Source CFD Toolbox
   \\    /   O peration     | Website:  https://openfoam.org
    \\  /    A nd           | Version:  10
     \\/     M anipulation  |
\*---------------------------------------------------------------------------*/
FoamFile
{
    format      ascii;
    class       volScalarField;
    location    "1050";
    object      k;
}
// * * * * * * * * * * * * * * * * * * * * * * * * * * * * * * * * * * * * * //

dimensions      [0 2 -2 0 0 0 0];

internalField   nonuniform List<scalar> 
10435
(
1.15488
1.32467
1.55699
1.59991
1.97016
1.83751
1.4678
1.20068
1.02092
1.76093
1.57808
1.71424
1.64662
0.842006
0.864152
1.44003
0.824605
1.70256
0.945098
1.22315
1.31376
1.47748
1.54238
1.2423
1.7545
0.504855
0.657116
1.59496
0.602474
1.72997
1.75193
1.69001
1.13774
0.608539
1.30636
0.996493
1.42741
0.67967
0.396329
1.05246
1.75322
1.5072
0.665693
1.44361
1.55541
1.16068
1.79317
0.649316
0.944796
1.35768
1.25855
1.88294
0.38541
0.533191
0.422638
0.560475
1.38879
0.697037
0.772257
1.25417
0.415204
1.20287
0.686445
1.92409
1.55702
1.62445
0.725204
0.737452
1.25986
1.29584
0.526962
0.601532
0.520783
1.6218
0.894027
0.660576
1.34824
1.40923
1.07093
0.881054
1.40475
1.04192
0.375025
0.540601
1.40883
0.988405
1.1081
1.49436
0.917031
1.19565
1.59911
1.70092
1.09546
0.965654
1.2911
0.916269
1.76334
0.867294
0.798687
1.87659
0.89004
1.96412
1.03042
1.39149
1.95308
1.52781
1.15027
1.3874
1.40525
0.911906
1.31313
1.9602
0.992365
0.948899
1.83639
1.4237
1.887
1.069
1.49842
1.79191
1.87467
0.576181
1.16208
0.71033
1.75629
0.461233
1.78987
0.611437
1.95284
0.675413
0.660808
1.64343
1.34346
0.855593
0.641078
0.351172
0.825917
1.64683
1.38141
1.35937
1.29177
1.66566
0.684868
1.86006
1.51421
0.78156
0.762491
1.9059
0.799242
1.76445
0.603239
1.54288
1.19055
1.77356
1.84378
0.553933
1.8512
1.26754
1.80055
1.37191
1.684
0.834707
1.72966
1.55066
0.932018
1.94266
1.13694
1.67257
1.50528
1.92571
1.7925
0.462949
0.59918
0.813343
1.64544
1.23719
1.09195
0.760387
1.26127
0.643526
1.4512
1.88369
1.76091
0.439589
1.6687
0.59069
0.598212
1.37576
1.96887
1.88512
1.81604
0.36843
0.648854
0.903108
1.9205
1.31732
0.739361
0.921538
0.709076
1.44508
0.931351
0.662013
1.62447
0.689746
1.61243
1.87959
1.61673
1.66803
0.692944
1.53223
0.542637
1.54412
1.87805
1.58276
0.644554
0.815242
0.976847
0.430838
0.510492
0.816876
0.615507
0.79366
0.718399
0.778459
0.538802
1.33399
0.449573
0.872311
1.82424
0.682074
0.767003
1.2309
0.478233
1.53519
0.701934
0.808366
1.37611
0.541904
1.39596
1.77113
1.35855
0.49435
0.447483
0.557267
1.81236
1.05384
0.85045
1.2577
0.482043
1.11025
0.494276
0.982319
1.67527
1.53972
1.31809
1.96164
0.440172
1.36113
0.51031
0.650417
1.40433
1.82211
0.496687
1.43425
1.02893
0.784527
1.27335
1.65782
0.407765
1.92716
1.44849
1.17406
1.26203
1.71163
0.54592
1.78672
0.673555
1.93307
1.39212
1.12785
1.70208
0.740074
1.48857
0.84448
1.04198
0.392744
1.95973
0.421449
0.546861
0.624863
0.797709
1.50858
0.687765
1.21439
0.402524
0.518931
0.75671
1.08901
1.87248
1.72711
0.733176
1.43066
1.52124
0.522388
1.78768
0.838469
0.789627
1.52938
1.68441
0.549324
1.20645
0.625457
0.997633
1.93676
1.11181
0.522258
0.451688
1.80224
0.755412
1.6832
1.92509
0.650134
1.11225
0.362309
1.07805
1.64984
0.585256
1.55098
0.756131
0.692961
1.14323
0.649818
0.548079
1.51167
1.66438
0.709733
0.526112
0.500745
0.571975
0.57903
0.61356
0.579885
0.406792
0.598903
0.575552
0.600826
0.72283
0.713181
0.356711
1.02454
0.553494
1.67344
0.641097
1.57927
1.03137
0.905271
1.62935
1.62777
0.54764
0.581735
0.512659
0.471716
0.564858
0.3987
0.629365
0.634808
0.71101
1.62199
0.619987
0.991361
0.446392
0.659009
1.64096
0.854405
0.396256
0.659023
0.680371
0.684657
0.577615
0.540375
0.774559
0.432951
1.10574
0.728356
1.21002
0.989833
1.60325
1.62064
0.952185
1.5634
1.20726
0.717456
0.522316
0.586234
0.532142
1.53738
0.56439
1.6505
0.749798
0.65288
0.673134
0.674063
0.47173
1.45207
0.682935
1.15812
1.52708
0.468401
0.572393
0.711098
0.87622
0.719431
0.597285
0.514075
0.563201
0.690565
0.612727
1.5706
0.527097
0.575422
0.610809
0.620797
1.67484
0.40101
0.362334
0.799795
0.575079
0.101347
0.0988398
0.0950489
0.090621
0.0859472
0.0810653
0.0760119
0.0708451
0.0656431
0.101425
0.0985187
0.0945236
0.09004
0.0853523
0.0805509
0.07569
0.070872
0.0662513
0.101195
0.0979676
0.0938058
0.0892715
0.0846046
0.0798984
0.0752269
0.0707011
0.0664813
0.100851
0.0973582
0.0930434
0.0884697
0.0838334
0.0792211
0.074712
0.0704086
0.0664406
0.10055
0.096837
0.0923758
0.087763
0.0831499
0.0786152
0.074232
0.0700844
0.0662589
0.100441
0.0965442
0.0919368
0.0872723
0.0826618
0.0781774
0.0738816
0.0698418
0.0661208
0.100712
0.0966325
0.0918604
0.087117
0.0824789
0.0780118
0.0737682
0.0698061
0.0661832
0.101663
0.0972702
0.0922845
0.087422
0.0827205
0.0782342
0.0740069
0.0700931
0.0665531
0.103581
0.0986132
0.0933555
0.088331
0.0835286
0.0789833
0.074731
0.070821
0.067312
0.106464
0.100767
0.0952319
0.090017
0.0850794
0.0804338
0.0761105
0.0721506
0.0685974
0.109986
0.103799
0.0980916
0.0926943
0.0875984
0.0828135
0.0783727
0.0743124
0.0706646
0.113784
0.107834
0.102165
0.0966327
0.0913699
0.0864134
0.0818133
0.0776098
0.0738407
0.117928
0.113241
0.107798
0.102179
0.0967397
0.0915803
0.0867792
0.0823884
0.0784629
0.124676
0.120827
0.115498
0.109746
0.104087
0.0986782
0.0936245
0.0889934
0.0848548
0.135314
0.131305
0.125738
0.119707
0.113742
0.108016
0.102644
0.0976997
0.0932362
0.150123
0.144931
0.138737
0.132257
0.125885
0.119769
0.11402
0.108716
0.103914
0.168092
0.161358
0.15437
0.147349
0.140505
0.133948
0.127776
0.122079
0.116943
0.187505
0.179901
0.172287
0.164766
0.157455
0.150448
0.143836
0.137708
0.13216
0.20799
0.200147
0.192181
0.184283
0.176571
0.169157
0.162128
0.155572
0.149574
0.229733
0.222049
0.213932
0.205777
0.19776
0.190018
0.182644
0.175723
0.169356
0.253158
0.245782
0.237581
0.229239
0.221013
0.213051
0.205434
0.198229
0.191524
0.278801
0.271595
0.263223
0.254704
0.246365
0.23832
0.230613
0.223272
0.216369
0.307425
0.29973
0.290911
0.282186
0.273846
0.265898
0.258308
0.251054
0.24421
0.339961
0.330248
0.320527
0.311592
0.303422
0.29581
0.288602
0.281692
0.275152
0.377313
0.362651
0.351721
0.342751
0.335038
0.328075
0.321569
0.315338
0.30868
0.175137
0.175157
0.175887
0.177328
0.179492
0.182368
0.185942
0.190181
0.195052
0.200499
0.206467
0.212889
0.21968
0.226756
0.234008
0.241329
0.248604
0.255708
0.262516
0.268905
0.274736
0.27986
0.284067
0.287064
0.288712
0.289209
0.288583
0.286715
0.283445
0.279079
0.273713
0.267367
0.260101
0.252049
0.243343
0.23412
0.224523
0.214694
0.204776
0.194908
0.185217
0.175819
0.166803
0.15824
0.150175
0.142657
0.135737
0.129469
0.123886
0.119013
0.114849
0.111367
0.108524
0.106263
0.104529
0.103263
0.102419
0.101954
0.101834
0.176416
0.176767
0.177785
0.179483
0.181862
0.184914
0.188614
0.192923
0.197783
0.203141
0.208947
0.215136
0.221636
0.228365
0.235232
0.242135
0.24897
0.255625
0.261986
0.267935
0.273355
0.27812
0.28209
0.285099
0.286972
0.287594
0.286914
0.284947
0.281787
0.277559
0.272335
0.266166
0.259117
0.251279
0.242758
0.233679
0.224173
0.214374
0.20442
0.194445
0.184575
0.174927
0.165609
0.156712
0.148319
0.14051
0.133359
0.126926
0.121258
0.116352
0.112177
0.108695
0.105857
0.103598
0.101853
0.100562
0.0996732
0.0991362
0.0989145
0.174941
0.175401
0.176471
0.17816
0.180471
0.183397
0.186924
0.191023
0.19566
0.200787
0.206351
0.212287
0.218525
0.224986
0.231582
0.23822
0.244798
0.25121
0.257346
0.263091
0.268324
0.272916
0.276725
0.279603
0.281416
0.282067
0.281505
0.279724
0.276771
0.272729
0.267677
0.261686
0.25483
0.247194
0.238881
0.23
0.220671
0.211019
0.201171
0.191252
0.181388
0.171696
0.162293
0.153289
0.14479
0.136894
0.129687
0.123231
0.117556
0.11266
0.108513
0.105062
0.102245
0.0999966
0.0982502
0.0969455
0.0960309
0.0954662
0.0952128
0.169734
0.170201
0.171253
0.172898
0.175133
0.17795
0.18133
0.185248
0.18967
0.194554
0.19985
0.205502
0.211445
0.217605
0.223903
0.230249
0.236549
0.242701
0.248597
0.254121
0.259155
0.263571
0.267239
0.270028
0.271818
0.272518
0.272073
0.270471
0.267742
0.263943
0.259144
0.253419
0.246845
0.239509
0.231506
0.222936
0.213911
0.204543
0.194951
0.185255
0.175577
0.166037
0.156759
0.147862
0.139463
0.131666
0.124561
0.118207
0.112636
0.107841
0.103796
0.100438
0.0976979
0.0955058
0.0937982
0.0925198
0.09162
0.0910601
0.0908035
0.162081
0.162546
0.163569
0.165156
0.167305
0.170005
0.17324
0.176984
0.181205
0.185862
0.19091
0.196295
0.201956
0.207824
0.213825
0.219876
0.225885
0.231756
0.237383
0.242658
0.247463
0.251679
0.255185
0.257865
0.259614
0.260351
0.260023
0.258611
0.256129
0.252615
0.248126
0.242728
0.236499
0.229522
0.221886
0.213689
0.205033
0.196025
0.186778
0.17741
0.168041
0.158795
0.149796
0.141168
0.133029
0.125485
0.118619
0.112491
0.107125
0.102516
0.098628
0.0954046
0.0927782
0.0906798
0.0890449
0.0878174
0.0869498
0.0864054
0.0861489
0.152017
0.152421
0.153365
0.154852
0.156881
0.159441
0.162515
0.166078
0.170096
0.174532
0.17934
0.184469
0.18986
0.195448
0.201161
0.20692
0.21264
0.218226
0.22358
0.228599
0.233172
0.237189
0.240537
0.243113
0.244822
0.245591
0.245369
0.244137
0.241897
0.238676
0.23452
0.229489
0.223654
0.217095
0.209897
0.202152
0.193955
0.185407
0.176621
0.167709
0.15879
0.149984
0.141415
0.133204
0.125466
0.118301
0.11179
0.105985
0.100909
0.0965535
0.0928833
0.0898447
0.0873738
0.0854057
0.0838776
0.0827334
0.0819287
0.0814297
0.081203
0.139846
0.140162
0.140995
0.142353
0.144235
0.146631
0.149524
0.152891
0.156699
0.160911
0.165482
0.17036
0.175491
0.18081
0.186249
0.191732
0.197178
0.202497
0.207594
0.212371
0.216726
0.220554
0.223756
0.226238
0.22791
0.22871
0.228591
0.227532
0.225529
0.222601
0.218786
0.214139
0.208729
0.202636
0.195935
0.188716
0.181066
0.17308
0.164871
0.156544
0.14821
0.139983
0.131978
0.124312
0.117092
0.11041
0.104342
0.0989347
0.0942085
0.0901551
0.0867424
0.083921
0.0816322
0.0798151
0.0784116
0.0773703
0.0766488
0.0762142
0.0760351
0.125311
0.125462
0.126117
0.127288
0.128977
0.131176
0.13387
0.137035
0.140639
0.144641
0.148999
0.153658
0.15856
0.163643
0.168843
0.174093
0.179318
0.184423
0.189322
0.193909
0.198087
0.201759
0.204843
0.207262
0.208921
0.209771
0.209767
0.208893
0.207129
0.204488
0.201014
0.196755
0.191796
0.186216
0.180068
0.173447
0.166436
0.159114
0.151606
0.143994
0.136377
0.128859
0.121541
0.114531
0.107931
0.101821
0.0962737
0.0913287
0.087003
0.0832898
0.0801629
0.0775815
0.0754943
0.0738488
0.0725937
0.0716821
0.0710746
0.0707391
0.0706448
0.107917
0.107788
0.108171
0.109092
0.110562
0.112569
0.115085
0.118061
0.121501
0.125401
0.12965
0.134186
0.138934
0.14382
0.148824
0.153876
0.158958
0.16402
0.168872
0.173361
0.177412
0.180955
0.183959
0.186345
0.188041
0.18899
0.189158
0.188518
0.187013
0.184635
0.181477
0.177609
0.173122
0.168104
0.162601
0.15661
0.150254
0.143765
0.137132
0.130364
0.123595
0.116915
0.110401
0.104137
0.098208
0.0927238
0.0877446
0.0833385
0.0794918
0.0761514
0.0733012
0.0709361
0.0690348
0.0675561
0.0664502
0.0656832
0.0652196
0.0650264
0.0650716
0.542934
0.5034
0.468253
0.435352
0.403811
0.373477
0.34446
0.316989
0.291276
0.267473
0.246341
0.228719
0.214793
0.204137
0.195554
0.188372
0.182718
0.178731
0.176417
0.175455
0.175348
0.175664
0.176007
0.175971
0.175051
0.51722
0.491885
0.462291
0.431428
0.400494
0.37013
0.340848
0.313052
0.287098
0.263398
0.242452
0.224623
0.209991
0.198355
0.189301
0.182445
0.177534
0.174365
0.17273
0.172358
0.172902
0.173985
0.175238
0.176277
0.176642
0.513533
0.487174
0.457756
0.426891
0.395643
0.364807
0.335026
0.306822
0.280649
0.256935
0.236025
0.218117
0.203253
0.19133
0.182142
0.175432
0.170917
0.168288
0.16724
0.167448
0.168574
0.170252
0.172102
0.173738
0.174765
0.514424
0.48477
0.453563
0.42154
0.389434
0.357922
0.327623
0.299072
0.272731
0.248982
0.228087
0.210178
0.195279
0.183323
0.17417
0.167607
0.163346
0.161051
0.160368
0.160937
0.162402
0.164387
0.166502
0.168355
0.169526
0.516241
0.483368
0.449798
0.416038
0.382665
0.350246
0.319319
0.290373
0.26382
0.239984
0.219075
0.20119
0.186335
0.174448
0.165397
0.158973
0.154887
0.152789
0.152306
0.153049
0.154641
0.156696
0.158827
0.160664
0.161859
0.517502
0.481755
0.445732
0.410046
0.375243
0.341806
0.310185
0.280796
0.253992
0.230041
0.209113
0.191275
0.176517
0.164757
0.155846
0.149558
0.145591
0.143587
0.143162
0.143913
0.145449
0.147386
0.149346
0.15098
0.151958
0.518355
0.47969
0.441088
0.403377
0.367081
0.332582
0.300225
0.270354
0.243268
0.219184
0.19824
0.180482
0.165869
0.154281
0.145537
0.139382
0.135495
0.133509
0.133036
0.133664
0.134994
0.136641
0.138239
0.13946
0.140036
0.519073
0.476917
0.435532
0.395774
0.358013
0.322475
0.289379
0.259
0.231611
0.207389
0.186443
0.168802
0.154398
0.143035
0.13449
0.128474
0.124639
0.122614
0.12201
0.122411
0.123404
0.124602
0.125626
0.126156
0.125978
0.519036
0.472887
0.428661
0.386974
0.347898
0.311413
0.277628
0.246705
0.21898
0.194626
0.17368
0.156204
0.142117
0.131046
0.122742
0.116884
0.113075
0.110959
0.110165
0.110276
0.11083
0.111465
0.111695
0.111047
0.109435
1.66181
1.65208
5.43739
1.1027
0.0633309
0.0747922
1.19691
0.031918
4.81914
0.0630666
2.81458
0.0622461
0.540836
0.0984328
1.31091
0.0982761
3.36738
0.901113
0.0602945
0.78851
0.443074
0.0944368
3.11774
0.175604
0.0263181
0.0429187
0.0262687
0.321728
1.75688
3.01377
0.0615225
0.0553523
3.27379
0.648264
2.93886
0.0560054
1.10359
1.318
1.15534
0.0858978
3.74658
0.0100597
0.0708007
0.658477
0.254864
0.137609
3.69752
4.08205
2.19225
2.4026
3.50109
3.27619
0.470253
0.788662
1.14724
4.74922
0.0892693
0.445996
0.0342419
2.87264
0.0740275
5.61592
0.0619942
0.104052
0.0329984
0.606311
0.0693115
0.31358
0.555721
2.33242
4.48842
0.117872
0.0417607
0.851464
0.0276044
0.435625
0.977356
3.9633
0.0239333
0.641589
0.617751
0.0972329
0.0389294
2.75068
0.0651829
0.0765762
0.0400536
3.91035
3.31691
0.131693
0.185205
0.0857926
0.0741534
0.065482
0.0467162
2.83806
0.0434852
3.01639
0.024955
2.83101
0.163722
3.75106
0.1824
0.123646
0.0318666
0.234018
3.25785
0.609809
0.0306359
3.03483
0.0944315
0.0557163
3.29583
0.120551
0.460931
2.15954
3.26935
0.0815944
0.495684
0.0368982
0.00198162
0.0537654
0.172978
0.0265729
3.36448
0.0679684
3.32133
0.70487
0.031392
4.0788
0.0369389
0.858275
2.37731
0.997895
0.386071
0.0397609
0.246802
0.117343
0.0724631
0.780846
0.102257
1.10335
2.96129
0.0033463
1.8941
0.114476
1.33335
0.687957
0.0968655
2.95841
0.440277
0.0755121
1.32593
1.5187
0.0301442
2.70172
0.0309225
0.0800962
1.13416
0.0579352
0.0722911
4.53144
0.0779031
3.15029
0.0774809
3.13704
0.106042
0.0261346
0.131292
0.032396
0.0874246
0.110754
0.323779
2.90745
0.0697717
0.264728
0.737118
2.04726
2.4773
0.103266
0.897433
0.0535865
0.476473
0.939277
0.533028
0.0277603
3.31205
0.0307842
2.64838
0.08657
3.6499
2.90448
1.77383
1.07546
1.40515
2.85869
0.0272426
0.091556
2.02483
1.66937
0.631742
0.155756
0.0910454
0.0892264
0.276727
0.0656002
0.0720274
0.180909
2.32504
0.0758375
0.0313781
0.0678828
0.872825
0.256351
0.541721
3.95728
0.0466806
0.032649
0.157314
0.172104
0.150182
0.0119097
0.0315958
5.39815
0.187425
3.36511
0.126765
3.36881
0.0268186
0.0448276
2.57164
0.057473
0.0520044
0.0307841
1.14489
0.0651724
1.20881
0.222937
0.969577
1.5904
0.0606346
0.0733533
0.0743726
0.464788
0.0404375
0.0408559
0.0556811
0.314898
0.096469
0.0621
0.0225087
0.283769
0.0630445
2.1733
0.0396841
0.0264539
3.19802
0.998637
1.15613
0.0604571
0.321421
0.035317
0.0687172
0.0287659
0.884225
0.0268886
0.0657988
1.68255
1.19148
0.0261743
0.509793
1.90613
0.0286848
0.0310902
0.0612803
1.70864
0.0771341
4.74196
0.0973278
3.28524
0.667648
0.467428
0.283975
0.136258
2.47038
0.0810711
0.247732
0.296678
3.52747
3.77075
1.54519
0.0832466
0.00581337
3.65292
0.84547
3.93415
3.76225
0.0773423
0.0595007
2.6128
3.09529
0.073379
0.0951671
0.0937438
3.58377
0.0702061
0.438125
0.0634341
0.77678
0.0954014
0.120335
0.0950762
2.99099
0.028969
0.0274472
1.07707
3.95618
0.0640259
0.0264823
1.10116
1.13197
0.0583419
0.0997186
0.060869
0.0418599
0.0269307
3.22076
0.626613
0.0755442
0.454382
0.0765228
1.38528
0.126221
0.0640597
3.74815
0.081261
0.0482985
0.0418686
0.00662323
0.313631
0.070094
0.0577079
2.60486
0.0916584
0.890312
0.0461305
0.0824592
0.039756
0.0378936
3.53837
0.797091
0.0744539
0.0161199
1.16181
3.69017
0.169741
1.22903
0.650774
0.0730139
3.74278
2.35522
2.88693
0.0534802
3.31393
0.00900023
0.0368665
0.119509
4.04993
0.0648114
2.52904
0.112087
1.49928
1.75755
3.44922
0.540423
0.0278728
0.0349757
0.082482
0.0550205
0.0639479
3.73294
0.102687
3.33722
0.705709
0.674633
1.03547
0.0794321
0.78957
2.6941
3.66066
0.795012
0.0654911
0.217434
3.13507
0.878273
0.0616181
0.0695412
3.20824
0.0792288
1.78294
0.032446
0.0718897
0.0642369
2.00287
0.0536059
0.00024381
1.24201
0.231773
0.80446
0.0602611
2.7549
0.0659868
2.57258
0.0699821
0.0515985
0.0931595
2.27182
3.54166
0.0667963
0.0849291
0.0804406
0.0569989
0.141291
0.205921
0.124557
3.56259
0.00359452
0.112528
0.0625245
0.0563536
0.0847803
0.0268275
0.134552
0.0238209
1.46665
0.113803
0.0944605
0.00479761
0.0403346
0.098318
0.0578576
1.58798
3.68728
0.722815
0.567108
4.40188
0.251895
3.24419
0.0313195
0.0238184
3.4905
0.0678859
0.0761624
2.54313
0.0935363
2.24156
3.57708
0.0772366
0.192058
0.775049
0.0852918
0.511674
2.64826
0.82798
3.35608
0.0337085
0.0354472
5.617
0.0566369
2.74032
0.293414
0.0339555
2.88141
0.0983813
0.0266956
0.58773
0.120025
0.0300177
0.71936
0.641822
0.547242
1.16191
0.00291465
0.0589133
2.69118
0.0554169
0.0957668
0.133187
2.31071
0.105616
1.36146
0.0859059
0.0328844
3.09906
0.0620436
0.0442473
1.33099
0.0794708
0.0746285
2.48999
0.0724536
1.49112
0.0679757
0.397593
0.708293
0.703659
0.0865207
0.0856324
1.24829
0.0538024
0.0844082
0.671492
0.0692796
0.112694
0.0262617
4.03081
3.57127
2.32684
0.0285405
0.551777
0.0738352
3.75953
0.790807
2.58595
0.639743
0.141977
3.46833
3.80119
0.065228
0.125377
0.273753
0.110746
2.09725
3.98359
0.0399002
0.806121
0.0721085
2.56145
2.12624
0.090509
1.0696
3.12402
0.0905297
3.44175
0.0204596
4.9494
0.0620551
0.129214
0.0794476
4.60787
1.13732
1.16851
0.0310583
2.22766
2.31567
4.03353
0.0300007
0.0877557
0.516929
2.50286
0.0635821
1.00693
0.0733845
0.552884
3.01355
0.0616725
0.542809
0.0319552
0.0561844
0.358897
3.1163
0.151438
1.20327
0.0388954
0.0607806
3.27844
3.75615
2.56114
0.143962
0.374448
0.818315
0.473069
0.151682
0.0752954
0.0323228
3.18097
0.0874497
0.0744078
1.22807
0.143602
0.101209
0.0820558
0.0999502
1.4191
0.0950923
0.035153
0.600192
2.35967
0.0567423
0.0536442
2.6342
0.323061
0.0106279
0.110339
0.691593
0.0423103
0.0829378
0.0613132
0.265522
0.0659121
0.073946
1.15858
0.0398154
0.126711
0.204413
0.47109
0.0436335
0.0814763
4.89652
0.115719
0.0313156
0.057554
0.0848773
0.117217
0.0431183
2.77343
4.07707
0.293025
3.07382
0.031684
0.0262547
0.0315252
0.0205492
0.115019
0.0350297
0.501596
0.134763
0.0333325
0.0681852
1.25899
0.521779
0.127309
0.600869
0.087392
0.0702041
0.0371969
0.211422
0.791987
2.74012
1.42624
1.17855
0.0210452
0.0632141
0.0141071
0.147559
0.0606769
3.77949
0.0614125
0.46182
0.0575879
2.67166
0.471418
2.75328
0.00209907
0.0322861
0.0307583
3.77515
3.39141
0.507582
0.468594
0.0402989
0.0629714
0.0610905
2.98603
0.00657603
0.0499117
1.06055
0.052949
0.116041
0.0637121
0.0275488
0.473416
0.111189
0.0404761
0.0643997
0.15232
0.0814664
1.9356
3.55749
0.0557471
1.26714
0.0680766
2.79022
0.0333845
0.0893452
0.0627901
0.0382227
1.25224
0.0760434
0.0863594
0.0344885
0.294776
0.0420439
0.136454
0.116963
3.28071
1.26422
0.421196
3.9601
1.37909
2.3316
2.92782
0.0608676
0.0310882
0.0321941
0.000504258
0.0823157
0.663072
0.106961
0.0516614
0.525643
0.0684584
0.0615872
0.402936
0.0662037
0.0639685
0.0348443
0.424092
0.678283
3.81617
0.0633277
2.61216
1.09029
1.99508
0.476434
3.84739
3.50815
2.06721
0.0303567
0.0931746
0.00388565
0.267352
0.071038
0.790673
1.79865
0.0833091
1.10585
0.736734
0.0406584
0.0341283
0.0654655
3.96527
4.46042
0.0456995
1.22666
1.46175
0.502391
2.8839
4.22527e-05
0.0601403
0.410897
0.00534437
1.73611
0.829779
2.98426
1.46114
0.0268237
1.4698
0.031298
0.00155312
0.491471
0.0941265
0.133672
0.0565399
0.0688768
0.534488
0.0935644
0.0294698
0.0739124
0.0807196
0.391684
0.08322
3.06957
1.34515
0.0901782
0.71917
0.109818
0.814605
0.0794712
0.0758716
0.111182
0.584905
0.500373
0.0063506
0.112254
3.5765
4.23234
0.972265
0.074536
0.714898
0.756228
1.33672
4.66015
1.03467
0.15131
0.0968352
3.1468
0.0224302
0.0315051
0.214427
2.85412
5.20169
0.0519142
0.0574446
2.45168
0.0301143
4.82634
3.02206
0.107665
0.05145
5.13084
1.80305
1.89018
0.0743828
0.052896
0.0185256
0.678567
1.11919
0.0691488
0.0299578
0.0485087
0.955137
0.0770623
0.43469
1.85387
0.0629717
0.060659
3.7269
0.0649465
0.541722
0.0551724
0.552931
0.0678522
0.035191
0.755698
0.113205
0.085336
0.0739616
0.307648
0.54462
3.81252
0.0354801
0.0642688
0.0695571
1.2299
0.798562
5.17722
0.031025
0.608197
1.35152
0.000429579
0.0271483
0.0639189
2.59252
0.0718183
0.937317
0.10869
0.00366036
1.07858
0.0890932
2.79995
2.48214
0.652875
3.05779
3.20053
3.93534
0.0655159
2.98066
1.1525
0.105623
1.15314
0.0533217
0.064736
0.808965
0.0747938
0.161621
0.494926
4.67293
0.0280503
0.0227936
2.94764
0.127427
0.0954181
1.25317
1.89496
1.09091
0.0784447
0.248446
3.97346
2.96496
0.860598
0.518545
2.30219
0.134776
0.0284654
0.644067
2.44109
0.0689381
0.333314
0.0885029
3.00133
0.114096
0.877004
1.8532
0.00410463
0.0568676
0.0798766
2.53268
1.18568
2.76361
2.04227
0.149757
0.362592
0.508016
0.18179
1.76752
0.437461
0.0547906
0.0856913
0.0747706
0.0208178
0.75115
2.84111
0.0453805
2.59
0.119615
1.22532
0.069503
0.0514733
0.0304293
3.95035
2.70336
0.303869
0.534058
0.0501215
0.0371964
1.50679
0.0624757
1.1937
1.02115
3.36936
0.0546856
0.291983
1.52483
0.0977292
0.138577
0.0886994
3.39518
0.0806298
0.144247
1.22462
1.27988
0.0354818
0.183803
0.0623708
0.111791
0.039965
0.0417806
0.477755
0.0365672
0.284502
2.51571
0.803913
3.8394
0.0774282
0.258724
0.69767
0.0225778
1.85925
0.0648726
0.086717
3.37794
0.106922
0.40395
0.134027
0.0263438
2.26761
0.0655314
0.289585
0.0259301
1.15748
1.27226
3.27386
0.0313593
1.05831
0.0522622
0.343044
0.0998928
2.76443
0.971607
0.266444
3.13066
0.0691828
3.60557
0.0699313
2.1099
0.0973086
0.0313133
0.0793743
0.917145
1.35379
0.0407309
0.0783416
0.834612
0.0511866
0.0822095
0.032974
0.0236104
0.0938824
4.04506
0.126267
0.0777723
1.43451
0.306092
3.92278
0.0190702
0.0924601
0.0494279
0.135655
0.145294
0.0648013
3.75801
0.148103
0.642878
0.0527418
0.191726
0.742323
2.62698
0.0736189
0.0741982
0.0983599
0.14019
0.0588262
0.344155
3.62748
0.776988
0.518661
0.0470272
1.53715
3.38681
0.249375
0.804546
0.101449
1.94466
2.83675
3.75255
0.0680827
0.0713656
0.201494
2.76063
0.153005
4.63603
0.129871
0.423341
2.61227
0.0244188
0.0928755
0.093956
0.0659509
0.0619912
0.0806058
1.82709
0.0617369
2.96917
0.0681512
0.0530128
0.035959
0.0629554
0.489273
0.061259
0.837775
0.772055
0.0580213
0.1212
2.0516
2.68652
0.0536509
0.0644424
0.115552
0.363226
0.563443
0.227892
3.16623
0.0406556
0.0674642
0.507884
0.0639726
0.26904
1.50966
0.0552142
0.0376926
0.00687613
0.10681
0.901899
3.98936
1.0324
0.0688946
0.21602
0.0617975
3.60756
3.70908
0.0738586
0.0666119
1.12257
0.0692118
0.0403385
1.99326
1.82094
0.111124
0.0684343
0.0377031
0.450671
1.83785
0.0457469
0.0287175
1.80431
2.59936
0.00104621
0.051834
0.0360441
0.120776
0.391683
0.493166
0.0689292
1.30365
0.0727976
0.101837
0.0530296
0.482447
0.0479789
3.5211
2.57002
3.38504
1.76847
0.972679
1.47794
0.0551482
3.38242
0.522142
0.0352926
0.22518
0.0512298
0.187489
0.0675403
0.0598965
0.0365018
3.32573
0.0269669
0.286963
1.50201
0.0880151
0.259902
0.354892
3.73649
0.0170128
3.68716
3.01927
0.0883143
0.0423817
0.226344
0.285386
0.194454
1.04161
4.46339
0.104855
0.0342464
0.0701459
1.0128
3.64552
0.109986
0.115874
0.0273969
0.0513473
0.0861416
0.358648
0.0662929
0.105975
0.204148
2.3131
0.0771059
0.24379
4.18047
0.0882647
0.274725
0.211594
2.45104
0.294352
0.307854
0.497055
0.0758771
3.33726
2.52159
0.0573881
0.719674
1.3193
0.070777
0.100547
0.108535
1.18006
0.052588
0.561639
0.0760903
1.50358
2.25691
0.727453
2.20062
0.138513
0.0832553
0.85747
1.00844
0.105306
0.124173
0.0694792
2.81495
0.109092
0.258687
0.0437284
0.140224
0.630698
0.055744
0.0394617
0.0515509
2.8436
0.812723
0.0613315
0.138947
0.0601022
0.063405
0.0794297
2.22737
0.129007
0.822312
2.82382
0.652657
0.00201209
1.06403
1.74549
0.795447
2.0059
0.176304
0.822353
3.28284
2.73215
0.0141881
2.46087
0.0718525
4.64861
0.319059
0.0644757
0.562203
1.25576
3.78141
0.766577
0.255559
0.0720522
1.17912
2.62139
0.242371
3.31502
0.13886
0.794521
0.0710085
2.6531
0.29337
0.0319113
0.0813186
0.778851
0.0409576
0.121049
0.750699
0.0591868
2.11873
0.0264047
0.0822118
1.27467
1.13475
0.119176
0.491463
1.40095
0.146072
0.562342
0.283336
0.0803763
0.332107
0.030119
2.06827
0.639135
0.0286623
3.88628
0.0741907
0.463736
0.266574
0.0983736
0.0451626
0.437942
0.800538
1.18045
0.0394243
3.61866
0.0463669
0.548915
3.77273
0.404255
0.131251
0.983885
0.107611
0.0596325
0.00359661
1.20983
2.71697
0.0693335
3.22358
0.244523
0.0820812
1.02906
0.090672
0.0666924
0.58556
0.120402
0.0613853
0.193286
0.0532281
0.0885526
0.128266
2.22983
2.65565
0.156696
0.0699577
0.0370022
0.610729
3.65538
0.0612688
0.0379827
0.23475
3.37131
0.0429353
0.924299
0.579042
0.0320795
0.505965
3.43346
0.0570788
0.182042
0.0664396
0.309794
0.051655
0.0573164
0.120006
0.404121
2.69804
0.0246752
3.20022
0.0337582
2.91878
0.083328
1.07403
0.46049
0.838126
2.24602
0.0974389
0.582678
0.143232
0.11551
0.120572
2.55142
2.55663
0.0799227
0.0764988
0.37492
0.12004
0.0675163
0.027206
3.93216
2.75449
0.770627
3.35289
0.133076
0.0335606
0.657136
0.184793
2.13924
0.0236382
0.100897
0.0309606
0.0793158
0.0654802
0.0718151
0.0709081
0.390496
3.69634
2.69914
0.067973
0.259779
0.634646
4.31604
0.070646
3.48617
1.82637
2.84419
0.10607
0.784362
0.0377709
0.133933
0.0984158
0.0974959
0.0607523
2.12136
3.40686
0.113943
0.265397
0.751702
0.278757
2.46708
4.14001
0.0711544
0.0294949
0.0777359
0.22187
0.750876
0.0280065
2.42553
0.685699
0.0842369
0.115281
0.130342
0.465698
0.139531
0.0430079
0.0783268
0.0517857
0.136972
0.566459
0.125306
3.39135
0.106465
0.0790732
0.255658
0.104085
0.0511679
3.79777
2.53325
0.0834878
2.74903
0.0642748
1.074
0.108555
0.143256
0.0557815
0.036024
2.61336
0.0922905
0.120503
2.85461
2.03673
0.0603592
0.0687126
0.0648263
0.12774
1.40439
0.0387729
0.0702326
3.40358
0.0716211
0.0648213
0.110695
2.87943
0.0788979
2.77355
2.05148
0.0352489
3.75808
0.119008
0.0238953
3.80209
0.372841
0.0617668
0.00133659
0.485146
0.111264
0.151551
0.030406
1.28811
3.22805
0.075176
0.031752
2.51688
0.0845645
0.836858
0.785622
0.0857166
0.724639
3.65585
0.060448
0.691214
0.0797113
0.1072
0.134747
0.0643783
3.32448
2.44447
0.0842293
0.0666865
3.118
0.0870885
0.140701
0.116097
0.694821
1.05732
0.0320285
0.0550074
0.0671888
0.0565544
0.0315022
0.000865485
0.0915898
0.134159
3.26503
0.498112
0.0630757
0.863064
0.112244
0.892072
3.7717
0.912192
2.63947
0.0980206
0.00134859
0.512129
0.137763
0.0795313
2.24382
0.0983882
4.35068
2.58183
0.504785
0.102568
4.08118
0.0324675
2.88083
0.0661232
0.065832
3.08669
0.313257
0.894163
0.08289
0.0599133
0.0272279
0.11475
1.39212
0.886134
0.0839875
1.73542
0.390274
2.53856
0.0241046
3.75178
0.0859459
0.0666
0.319096
0.0730003
0.470811
2.6952
0.613871
0.0368453
2.00138
1.30148
0.216909
0.783091
0.601474
0.0166176
0.520332
2.77986
0.0618924
0.0546003
0.0608542
3.20041
0.0675614
0.0236984
1.25525
0.570714
0.240913
3.8148
0.740104
0.223841
0.234257
1.20522
0.109184
0.57644
0.0456131
0.0797102
0.0611545
3.36015
0.0909405
0.918601
2.6752
0.0261768
0.846603
3.59788
0.0823773
2.81967
0.0575202
0.544603
0.133871
0.0271598
0.110759
0.0662837
0.043274
0.105457
0.0813492
0.0774785
0.0876616
2.205
0.591298
0.0821731
0.528486
0.0527855
0.0724735
0.0512394
0.0818901
0.105026
1.52896
0.0221115
1.23123
2.53298
1.49095
0.989228
0.177952
0.117151
3.5209
0.0644976
0.545868
0.0852448
0.0527606
0.166746
3.10572
0.0976513
0.0640102
0.0531212
0.192248
0.130876
1.46421
0.55327
1.06461
2.17852
0.0662466
0.044348
1.31405
0.066329
0.090232
0.0353616
0.140864
0.0363007
0.0599915
0.108948
0.0228642
1.0362
2.70385
0.892164
0.119373
0.0648004
0.847913
2.80662
2.49608
0.0341801
0.0763839
0.658304
0.0545652
0.0299491
0.106941
2.54628
0.704451
0.0516981
0.0572136
0.101333
0.0302896
2.6114
0.0388881
0.0863944
0.0891093
0.0784776
2.59383
0.0736965
1.5255
0.0778547
0.091285
0.027964
0.0399425
2.79222
0.371985
0.0479409
3.47088
0.680978
0.575571
0.033659
0.0628656
1.18131
3.6936
3.80457
0.0581995
0.792647
0.0724572
0.0630587
3.26259
2.47599
0.026508
0.0193379
0.97824
1.41512
0.0635124
0.0294069
2.65445
0.0602828
0.14537
0.155838
0.0853272
1.52857
0.0712177
0.0731059
0.0852442
1.76975
0.0619805
0.0343688
0.0567975
0.0987034
0.186111
0.103873
0.454022
0.72907
0.643084
0.0953062
0.0879431
0.0611039
0.032079
0.0831727
0.06906
0.56482
0.0744657
0.0933023
0.225732
0.984834
0.0423122
0.0272447
0.0825647
3.65747
0.0771669
0.826229
0.0217193
0.0680247
0.00562003
0.0860402
0.0758721
3.55188
0.0945765
0.040528
0.314648
0.0631206
1.31648
0.0765319
0.0582164
2.87803
2.82096
0.0293291
2.66146
0.066223
0.964858
1.32244e-05
2.21194
0.0428245
1.15171
0.063193
2.94002
0.498007
1.03892
3.30478
4.19194
0.0777854
3.34475
0.0378708
0.0285147
0.0692237
2.89305
0.154082
0.0327966
0.645546
2.68571
1.87551
0.143599
3.62411
0.0284327
0.130489
0.057076
0.443461
0.117987
1.63272
0.0725322
0.0903463
0.0675407
0.0228177
0.132608
2.22476
0.0539294
0.0681024
4.02755
0.550605
0.0295997
0.163857
2.7425
0.0930994
0.0766892
3.19837
0.146197
3.89355
1.20127
0.0621065
0.365371
0.762454
0.0376762
0.125862
0.0504676
0.0293915
0.140039
0.124315
2.62343
0.0346908
0.811723
0.232518
0.0678293
2.78228
0.93708
0.106137
0.0652086
0.0260932
0.0378885
0.0300128
0.662501
1.6847
0.0550257
0.0692884
0.0841516
1.04897
0.101845
0.809713
0.100398
0.0570968
0.104346
0.118399
1.10786
0.0965203
0.552541
1.07568
0.000184633
1.29898
0.0905224
0.787504
0.465582
0.0695527