/*--------------------------------*- C++ -*----------------------------------*\
  =========                 |
  \\      /  F ield         | OpenFOAM: The Open Source CFD Toolbox
   \\    /   O peration     | Website:  https://openfoam.org
    \\  /    A nd           | Version:  10
     \\/     M anipulation  |
\*---------------------------------------------------------------------------*/
FoamFile
{
    format      ascii;
    class       volScalarField;
    location    "1050";
    object      nut;
}
// * * * * * * * * * * * * * * * * * * * * * * * * * * * * * * * * * * * * * //

dimensions      [0 2 -1 0 0 0 0];

internalField   nonuniform List<scalar> 
10435
(
1.87161
0.7454
0.734152
1.23804
0.518383
0.443556
0.819406
1.31823
1.96222
0.534769
0.589753
1.21075
0.542212
2.13715
2.16838
0.992797
2.09305
0.477225
2.46981
1.7844
1.11667
1.59866
0.884805
2.26626
0.60532
1.97832
1.98833
0.638706
1.80052
0.485118
0.781104
0.540539
1.49251
1.78811
1.35464
1.1975
1.19098
2.07886
1.83023
2.30516
0.44693
0.817718
1.88462
1.34431
1.01968
2.27879
0.449543
1.88141
2.22525
2.12679
1.23868
0.59811
1.77964
1.77264
1.86879
1.72285
1.40377
2.03084
1.95734
1.63882
1.8246
0.863035
1.9568
0.611471
0.939827
0.685126
1.87916
1.96971
1.17436
2.38094
1.77753
2.07367
1.73888
0.741364
2.17563
1.89661
2.36239
0.888399
1.69142
2.26866
2.30027
2.21268
1.72905
1.7693
2.35151
1.54898
1.56135
1.08645
1.94599
1.41156
1.00916
0.945645
2.1638
1.85204
1.28202
1.39594
0.971818
2.0883
2.02989
0.797582
2.03354
0.412332
1.71542
1.17645
0.417393
1.2749
2.12211
2.22094
2.34374
2.28898
2.08266
0.409234
2.25743
2.28381
0.7562
1.60649
0.833881
1.37211
0.858861
1.05336
0.89279
1.81327
1.20544
1.67654
0.398869
1.89579
1.02011
1.82559
0.650425
2.19799
1.78751
0.410495
1.11973
2.22848
2.09882
1.58191
1.27196
1.25505
0.951275
1.65066
1.711
0.868519
1.84042
0.815393
1.63331
1.99894
1.48625
0.525692
2.05387
1.01329
1.86827
1.13358
1.62968
0.934303
0.544959
1.89365
0.397506
1.06464
0.526878
0.485423
0.990633
2.17184
0.725768
1.66435
2.1607
0.732856
1.54093
1.32092
1.61483
0.716295
0.613668
1.66748
1.80958
1.99222
1.21913
0.563191
1.01516
1.97617
2.07513
1.85279
0.655779
0.443074
1.06428
1.84152
0.950326
1.80404
1.82426
0.951654
0.493269
0.706253
1.01134
1.68563
2.16819
1.0473
0.402174
1.0551
1.9803
1.71367
1.92768
1.0672
2.05622
2.00982
0.592123
2.02008
0.64731
0.61696
0.782697
1.29527
1.92868
1.68539
1.79263
0.819492
0.879139
1.51065
1.92085
2.08025
2.12599
1.72394
1.9918
2.10378
1.82034
2.01093
1.89713
1.88818
1.95742
1.20559
1.8976
1.85266
0.717598
1.90661
1.97253
1.35294
1.93971
1.23993
2.18975
2.04525
1.62438
2.00759
1.74271
0.69574
1.42404
1.89673
1.70372
1.74854
0.65238
1.77337
1.59021
1.14379
1.48162
0.681327
1.59079
1.98685
0.531015
1.70995
1.02359
0.600615
1.38228
0.950287
1.80289
1.94746
0.88717
0.636826
1.93891
2.02611
2.05623
1.97735
1.51787
0.822365
1.74583
0.632132
0.827596
1.34452
1.13017
0.629636
2.05671
1.07703
2.13733
0.497171
0.993852
1.4834
0.55358
1.96898
0.773274
1.95044
1.881
1.66213
0.508915
1.85074
1.76422
1.8182
1.7642
0.43539
1.8959
1.23488
1.84925
1.76169
1.99805
1.96617
0.49397
0.702399
1.95717
1.77112
0.726822
1.58839
0.506088
2.09435
2.02645
1.35634
0.698522
1.75527
2.08947
2.01206
0.844584
0.500858
1.70926
1.72505
1.81902
0.829817
1.95776
1.30072
0.420936
1.88883
1.75551
1.64657
1.6515
0.593918
2.14001
0.684967
1.93412
2.09682
1.7799
1.82045
1.74291
0.758312
1.10948
1.98909
1.68692
1.55456
1.73867
1.74352
2.17849
1.98826
1.78152
1.81623
1.74585
1.92496
1.96084
2.2167
1.61178
1.86021
1.73481
0.61566
1.9445
0.644073
1.83196
2.43129
0.541581
0.793549
1.76625
1.78264
1.60712
1.92935
1.70521
1.70059
1.86366
2.18818
1.98577
1.33581
2.14169
1.99987
1.89768
2.2093
0.51505
2.76742
1.63631
2.01641
1.99501
2.09995
1.78845
2.03775
2.39861
1.86915
1.56659
1.93372
1.25856
2.0058
0.604509
0.567756
2.1819
0.679376
1.49595
1.89278
1.73917
1.79154
1.74759
0.71589
1.7817
0.510964
2.34418
1.87587
2.20558
1.86151
1.80072
0.888092
2.05852
1.40147
1.45944
1.69235
2.09656
2.24722
2.65365
2.31337
2.12789
1.88272
1.71067
1.94532
1.81662
0.69022
1.769
2.06783
1.80949
1.76818
0.468899
1.60168
1.57826
3.24183
1.76605
18.7962
18.8091
18.6963
18.5317
18.359
18.2144
18.1524
18.2627
18.6913
17.7022
17.7446
17.7193
17.6615
17.6043
17.5821
17.6433
17.8586
18.3133
16.3421
16.4087
16.4469
16.473
16.5107
16.5902
16.7545
17.0617
17.5762
14.756
14.8384
14.9202
15.0076
15.1171
15.2749
15.5196
15.9036
16.4863
13.008
13.0977
13.2051
13.3313
13.4877
13.697
13.9947
14.4303
15.0695
11.1834
11.2736
11.3903
11.5333
11.7111
11.9438
12.2626
12.7126
13.3572
9.38016
9.46574
9.57757
9.71759
9.89341
10.1226
10.4321
10.859
11.453
7.69826
7.77267
7.86719
7.98796
8.14281
8.34735
8.62387
9.00175
9.51558
6.22074
6.27361
6.34066
6.43117
6.55296
6.71933
6.94861
7.26499
7.69683
4.99059
5.01295
5.04745
5.10367
5.1882
5.31143
5.48803
5.73826
6.08911
4.004
3.99661
4.00185
4.02736
4.07775
4.16038
4.28639
4.4717
4.73836
3.22764
3.20321
3.19031
3.19434
3.21858
3.26825
3.35162
3.48059
3.67162
2.62332
2.60196
2.58452
2.57753
2.5848
2.61081
2.66203
2.74724
2.878
2.1763
2.16648
2.15226
2.14128
2.13868
2.14903
2.1778
2.23169
2.31893
1.87447
1.87198
1.86088
1.8482
1.83959
1.83966
1.85317
1.88551
1.94325
1.69213
1.68925
1.67778
1.66293
1.6498
1.64264
1.64557
1.66285
1.69921
1.59509
1.58736
1.57279
1.55487
1.5377
1.52496
1.5202
1.52691
1.54855
1.55124
1.53926
1.52112
1.49988
1.47898
1.46163
1.45093
1.44995
1.46174
1.54023
1.52582
1.50478
1.48054
1.4563
1.43499
1.41941
1.4123
1.4164
1.55105
1.53539
1.51209
1.4852
1.45795
1.43317
1.41344
1.40123
1.39893
1.578
1.5613
1.53582
1.50636
1.4763
1.44839
1.42504
1.40853
1.4011
1.61825
1.59975
1.57148
1.53916
1.50628
1.47549
1.44896
1.4287
1.41677
1.67113
1.64845
1.61594
1.58014
1.54437
1.51094
1.48163
1.45816
1.44237
1.73781
1.70543
1.66638
1.62645
1.58777
1.55205
1.52047
1.49428
1.47509
1.82211
1.76737
1.71963
1.67554
1.6342
1.59684
1.56367
1.53522
1.51174
3.61027
3.68348
3.76952
3.86823
3.9796
4.1032
4.23855
4.38483
4.54133
4.70696
4.88079
5.06174
5.24854
5.44009
5.6349
5.83165
6.02891
6.22514
6.41881
6.60849
6.79249
6.96923
7.13701
7.29406
7.43939
7.57321
7.69513
7.80457
7.90132
7.98702
8.06252
8.12879
8.18746
8.24096
8.29224
8.34504
8.40382
8.47379
8.56117
8.6731
8.8177
9.00424
9.24259
9.54356
9.91866
10.3797
10.9374
11.6001
12.3696
13.2392
14.1899
15.1889
16.1912
17.1418
17.983
18.6605
19.1316
19.368
19.3681
3.56557
3.63925
3.72508
3.82322
3.93363
4.05604
4.18999
4.33483
4.48974
4.65384
4.82615
5.00559
5.19101
5.38115
5.5747
5.77027
5.96644
6.16173
6.35466
6.54371
6.72738
6.90416
7.07258
7.23119
7.37871
7.51427
7.63741
7.74815
7.84703
7.93484
8.01238
8.08066
8.14118
8.19605
8.24797
8.30033
8.35725
8.42369
8.5055
8.60951
8.74369
8.91716
9.14029
9.42467
9.78294
10.2282
10.7725
11.4248
12.1876
13.0535
14.0031
15.0038
16.01
16.9666
17.815
18.5006
18.9798
19.2239
19.2294
3.48531
3.55544
3.63748
3.73169
3.83808
3.95648
4.08652
4.22763
4.37907
4.53999
4.70939
4.88621
5.06926
5.25732
5.44907
5.64315
5.83814
6.03257
6.22497
6.41382
6.59762
6.77484
6.94399
7.10369
7.25273
7.39027
7.51579
7.62918
7.73071
7.82097
7.90073
7.97101
8.0332
8.0892
8.14143
8.19298
8.2476
8.30989
8.38532
8.48046
8.60308
8.76236
8.96899
9.23521
9.57451
10.0009
10.5274
11.1636
11.9126
12.7679
13.7108
14.7088
15.7169
16.6803
17.5407
18.2433
18.7437
19.0121
19.0435
3.36049
3.42657
3.50439
3.59422
3.69613
3.81002
3.93557
4.07229
4.2195
4.37639
4.54203
4.71538
4.89529
5.08054
5.26987
5.46189
5.65522
5.8484
6.03995
6.22834
6.41208
6.58964
6.75957
6.92052
7.07132
7.21106
7.33918
7.45544
7.55995
7.65315
7.73571
7.80858
7.87304
7.93082
7.98412
8.03573
8.08912
8.14855
8.21923
8.3075
8.42101
8.56895
8.7622
9.01332
9.33626
9.74555
10.2547
10.8741
11.6076
12.4496
13.3823
14.3737
15.3795
16.3458
17.215
17.9322
18.4523
18.7446
18.8025
3.19952
3.26113
3.33431
3.41938
3.51645
3.62547
3.74618
3.87815
4.02078
4.1733
4.33482
4.50435
4.68078
4.86294
5.04955
5.23929
5.43076
5.62252
5.81309
6.00096
6.18463
6.36261
6.53344
6.69581
6.84859
6.99086
7.12198
7.24164
7.3498
7.44675
7.53303
7.6095
7.67735
7.73816
7.79394
7.84728
7.90142
7.96039
8.02922
8.11407
8.22253
8.36376
8.54872
8.79008
9.10194
9.49901
9.99504
10.6006
11.3202
12.1488
13.0692
14.051
15.0508
16.0158
16.8892
17.6165
18.1528
18.4668
18.5508
3.00543
3.06202
3.1301
3.21
3.30189
3.40578
3.52145
3.64851
3.78642
3.93448
4.09183
4.25752
4.4305
4.60961
4.79361
4.9812
5.17099
5.36157
5.55144
5.73912
5.92311
6.10192
6.27413
6.43846
6.59376
6.73914
6.8739
6.99766
7.11029
7.21196
7.30316
7.38464
7.45753
7.5233
7.58383
7.64155
7.69952
7.76161
7.83269
7.9188
8.02737
8.16748
8.35001
8.58758
8.89421
9.2845
9.77218
10.3679
11.0762
11.8926
12.8009
13.7716
14.7626
15.7226
16.596
17.3295
17.8789
18.2129
18.3231
2.78103
2.83195
2.89434
2.96861
3.05498
3.15349
3.264
3.38618
3.51953
3.66338
3.81692
3.97924
4.14929
4.32595
4.50801
4.69418
4.8831
5.07334
5.26342
5.45184
5.6371
5.81771
5.99231
6.15963
6.31854
6.46814
6.60771
6.73683
6.85532
6.9633
7.06123
7.14985
7.23027
7.30391
7.37257
7.43859
7.50489
7.57518
7.65421
7.7478
7.86318
8.00923
8.19663
8.43777
8.74641
9.13685
9.62252
10.2138
10.9153
11.723
12.6211
13.5813
14.563
15.5165
16.3878
17.1252
17.6857
18.0387
18.1753
2.5255
2.56959
2.62535
2.69328
2.77369
2.86671
2.97225
3.09
3.21951
3.36013
3.51105
3.67128
3.83978
4.0154
4.19701
4.38336
4.57315
4.76492
4.95709
5.14808
5.3364
5.52059
5.69939
5.87161
6.03605
6.19189
6.3384
6.47514
6.60187
6.71876
6.82638
6.92554
7.01742
7.10347
7.18539
7.26566
7.34706
7.433
7.5281
7.63785
7.76926
7.93087
8.13301
8.38788
8.70894
9.10987
9.60357
10.1997
10.9026
11.7087
12.6034
13.5595
14.5377
15.4893
16.3617
17.1045
17.6756
18.0459
18.2072
2.23538
2.27023
2.31753
2.3781
2.45236
2.54046
2.64212
2.75674
2.88431
3.02459
3.17597
3.33717
3.5069
3.68405
3.86783
4.05705
4.25089
4.44787
4.64556
4.84224
5.03661
5.22732
5.41342
5.59378
5.76715
5.93286
6.09009
6.23842
6.37766
6.5082
6.63101
6.74702
6.85725
6.96331
7.06694
7.17152
7.27983
7.39333
7.51694
7.65618
7.818
8.01034
8.2426
8.52776
8.87965
9.31049
9.83224
10.4506
11.169
11.9874
12.8963
13.8703
14.8685
15.8414
16.7349
17.4946
18.0764
18.4527
18.6203
1.89318
1.81561
1.755
1.70195
1.65309
1.60782
1.5668
1.53154
1.50415
1.48744
1.48507
1.50027
1.53463
1.58808
1.65993
1.75059
1.86125
1.99208
2.14198
2.30914
2.49212
2.69092
2.90697
3.14378
3.40781
1.79781
1.77211
1.73202
1.68743
1.64209
1.59812
1.55741
1.52201
1.49436
1.47737
1.47424
1.48774
1.51974
1.57117
1.64241
1.73374
1.8452
1.97612
2.12528
2.29119
2.47287
2.67047
2.88568
3.12212
3.38638
1.7662
1.74249
1.70751
1.6665
1.62301
1.5797
1.53895
1.50314
1.4749
1.45709
1.45267
1.46433
1.49421
1.54378
1.61383
1.70446
1.81508
1.94443
2.0911
2.25339
2.43057
2.62286
2.83183
3.06078
3.31504
1.74943
1.72046
1.68417
1.64297
1.59936
1.5557
1.51435
1.47774
1.44852
1.42948
1.42346
1.43312
1.46079
1.50815
1.5761
1.66454
1.77242
1.89804
2.03962
2.19539
2.36462
2.54755
2.74566
2.96195
3.20111
1.73616
1.70142
1.66172
1.61843
1.57333
1.5284
1.48581
1.44791
1.41726
1.39658
1.38862
1.39604
1.42118
1.46579
1.53067
1.61548
1.71877
1.8385
1.97255
2.11908
2.27729
2.44747
2.63113
2.83122
3.05235
1.72323
1.68313
1.63949
1.59332
1.54598
1.49914
1.45478
1.41512
1.38263
1.35993
1.34972
1.35461
1.37689
1.41817
1.47908
1.55897
1.65603
1.76788
1.89221
2.02704
2.17155
2.32606
2.4921
2.6726
2.87235
1.70974
1.66483
1.61735
1.5681
1.51817
1.46902
1.42246
1.38066
1.34599
1.32099
1.30828
1.3104
1.32947
1.36693
1.42308
1.49693
1.58636
1.68864
1.80137
1.92241
2.05089
2.18703
2.33223
2.48948
2.6641
1.69477
1.64635
1.59565
1.54345
1.49079
1.43907
1.39003
1.34582
1.30878
1.28132
1.26601
1.26523
1.2809
1.31411
1.36485
1.43176
1.51236
1.60374
1.70326
1.80879
1.91925
2.0345
2.15548
2.28503
2.42853
1.67916
1.6286
1.57539
1.52041
1.46494
1.41047
1.35878
1.3121
1.27278
1.243
1.22526
1.22176
1.23397
1.26269
1.30755
1.36678
1.4376
1.5169
1.60197
1.69067
1.78159
1.8742
1.96815
2.06416
2.16647
0.476904
0.490953
0.427602
0.195565
1.11197
1.06136
3.98305
1.88535
0.411972
12.4173
0.228042
1.51963
9.92299
0.778243
6.25972
2.73533
0.292655
0.180102
17.8716
0.497737
4.74721
5.24448
0.255376
1.66622
1.58743
2.07797
1.66248
1.21311
0.372026
0.26529
17.1972
2.32026
0.377252
8.00981
0.257752
1.45711
7.2099
6.23927
7.42895
2.55673
0.321632
0.152554
3.88868
1.9414
1.48373
7.18246
0.245736
0.256444
0.331178
0.384748
0.240382
0.296005
8.56542
0.17188
3.97982
0.417174
0.767915
7.38084
0.682082
0.236217
1.50059
0.436084
1.07073
4.08191
1.93676
1.72824
3.86292
1.36653
9.50103
0.37664
0.417823
5.82237
1.10477
0.663426
1.77871
5.15117
1.24441
0.27431
1.28611
0.167009
8.16977
1.74321
2.23638
0.21673
1.26583
1.46353
1.31591
0.277257
0.378296
1.49827
1.54894
2.15655
9.41329
1.53682
1.03766
0.230394
2.00597
0.228638
0.363984
0.236712
0.944022
0.328536
0.974905
6.39352
0.76445
1.26109
0.262362
8.10476
0.426331
0.267913
4.65253
1.0477
0.276904
6.4798
8.38812
0.334568
0.362116
2.78599
10.0901
0.619421
0.0282468
1.0578
1.66011
1.45723
0.372626
3.67361
0.301722
0.784596
0.861465
0.257296
2.14421
0.716894
0.373323
7.51295
1.35634
1.26928
1.49073
0.855472
1.66948
0.421594
7.04301
7.1336
0.238638
0.0601617
0.353014
3.07461
0.216812
2.13136
2.64622
0.259493
3.39562
1.03123
0.214408
5.44131
1.51791
0.215473
1.05177
2.84029
1.8846
4.19746
4.04472
0.412729
3.35848
0.232799
6.18353
0.225232
0.88664
1.69253
3.75357
0.94747
0.707971
4.41405
1.40283
0.220209
3.8553
1.24162
5.29039
0.369304
0.291731
6.89284
7.05451
2.18432
9.08548
6.40955
1.6668
0.867321
0.228285
0.443149
0.388651
2.24575
0.248828
0.23904
0.290103
7.00458
5.79542
0.38961
1.77793
5.12029
0.344209
0.422268
7.13439
5.00957
1.66978
2.21176
1.76451
6.9234
3.37545
0.946531
0.342985
3.23819
0.79547
1.4084
7.28507
1.65567
4.25951
0.309113
0.844523
1.7431
6.35065
1.41103
0.768283
0.179264
1.35347
0.436498
0.393159
0.349118
1.6667
0.296837
0.367384
1.08682
0.212152
1.50596
1.97164
1.33238
7.3443
10.1172
2.53434
0.958686
6.59225
5.56368
13.2604
1.4624
5.67185
1.50857
1.16651
1.56343
2.6028
1.4996
2.74239
4.6576
0.311761
1.29916
6.73632
0.342253
1.09757
1.52077
0.270442
1.39858
2.04963
18.0739
1.54276
0.818081
2.06009
1.60915
0.811806
1.29306
6.43757
0.245509
3.8365
1.70151
4.31785
0.304014
0.45735
1.54413
17.0071
0.249826
2.84902
0.382902
0.878823
0.254932
1.80711
3.64766
1.39329
7.13372
0.286736
1.78559
1.27508
0.279827
0.253906
0.25114
4.90606
3.51572
0.104183
0.254563
4.5328
0.314668
0.313498
2.69371
4.20978
0.266086
0.252479
4.19567
1.77003
2.27365
0.314451
6.0973
4.31963
6.26346
0.417024
1.79412
5.98482
8.59554
0.39114
0.947515
0.396784
6.83173
0.254896
6.24828
1.56975
5.03327
1.89061
3.18216
1.66763
16.8539
1.30926
1.28162
0.362423
7.90555
2.91516
7.12608
6.34638
5.88543
0.699323
11.5429
0.282845
1.50976
2.15136
2.3826
0.177671
1.49571
1.39234
1.55334
0.244428
9.00011
0.884142
0.809541
0.877322
1.05921
1.2059
0.234203
0.285104
9.15204
0.158857
2.14624
0.257456
0.422671
3.60849
2.07103
5.35313
0.236945
0.349862
0.247558
3.9768
0.351386
0.159491
1.27415
3.69785
0.262423
2.08587
0.385446
7.80304
5.34457
0.383183
0.336853
9.83877
0.994436
0.80575
7.42605
3.31835
10.6861
0.316295
3.94011
0.370226
2.01241
2.06321
3.6507
6.37292
0.517907
0.230639
0.248443
2.56825
6.70044
1.42214
0.361368
6.71762
14.8764
5.75485
0.371542
2.79789
0.370374
1.85485
3.95072
1.23208
0.378966
1.56273
0.110536
4.89302
1.43298
3.50621
12.8498
0.377871
2.00593
0.260944
1.63576
2.83674
0.595073
0.318599
0.234878
2.76772
2.19865
6.2453
3.54947
1.48153
0.993592
3.96383
0.258253
0.116834
1.7928
8.33801
2.46921
2.14378
1.40659
1.47845
1.40862
4.54815
3.57344
4.76505
0.116962
1.1454
1.0705
4.51351
5.57341
0.26202
2.67705
9.05565
0.402054
1.03192
0.395949
0.804022
1.24656
0.345729
3.86201
3.21705
0.271709
8.8328
0.37661
0.232666
1.53847
1.57193
1.10299
3.67599
1.65854
0.370746
7.26826
0.256955
1.48005
0.743736
0.439701
4.48802
0.234732
1.48378
1.31906
0.248628
1.00118
1.43906
8.64117
1.53604
1.21754
2.36769
2.67717
4.17714
7.67439
0.129075
1.53106
0.214958
1.16076
1.83785
5.7209
0.363342
6.53875
5.71047
3.10281
0.86532
0.367523
2.04844
0.627143
5.77355
1.85919
8.14207
0.385978
4.01683
4.70462
1.83114
1.36753
5.47998
7.7065
2.13969
2.2802
4.68589
2.39905
5.35
7.71376
3.86325
1.59488
0.738591
0.262485
0.322188
0.312621
0.961254
2.13675
10.7515
0.251801
0.485805
0.301351
8.0568
6.36874
0.256203
0.34471
6.70142
4.77097
1.23273
6.7113
0.283347
0.420888
0.636909
2.80226
3.91934
0.294348
0.34436
3.21764
4.98724
0.275672
5.17458
0.26931
0.191702
0.429806
2.70303
0.70389
1.90925
0.371391
7.36005
7.61475
0.894911
0.345958
0.318421
0.259421
1.45135
8.97456
10.3688
0.342115
7.40503
7.66133
4.01285
9.3125
0.265294
14.6062
2.32236
0.761407
2.44368
1.52347
0.389441
6.31597
6.90435
0.689964
0.981216
0.278954
0.24076
0.34544
0.758001
1.52337
0.482882
9.37684
4.87545
10.3431
1.92109
0.368531
5.17068
1.02408
4.60407
4.92914
1.13708
1.38037
4.04581
4.9862
8.478
0.657201
8.45529
0.310574
1.12885
2.3145
0.246406
1.25355
0.18397
1.74972
0.830317
1.15626
1.76895
8.35421
0.321582
3.61371
4.13226
7.56052
1.62462
3.67654
1.16475
7.2967
1.80616
0.912497
0.425755
4.57666
1.60792
3.12091
9.69305
1.2927
1.63001
0.236403
0.245591
1.1364
0.368484
1.77381
1.63113
1.34063
0.405531
3.13824
0.578276
5.93612
1.61268
1.19319
0.985656
4.64657
2.38404
0.799467
1.72416
4.99438
1.07415
2.05524
1.58192
2.7316
0.237415
5.12598
2.24866
0.337504
12.6891
0.144807
6.41733
9.47998
0.241921
19.1373
2.63153
3.27831
0.340837
0.177226
0.22383
0.0335139
1.37874
1.82409
0.334676
0.403787
1.57351
8.91175
1.65092
14.9816
1.2004
0.248019
0.151214
2.75557
7.72668
1.46655
7.73828
9.4411
0.437546
7.71734
1.62172
2.3043
6.13188
0.882962
7.25036
0.355763
0.278095
2.47012
5.28209
2.49895
0.234374
1.96584
8.979
4.53918
1.77393
4.00635
1.76573
5.58307
0.67343
1.42407
1.26499
5.84804
6.4588
0.241479
5.73012
3.49289
0.257615
5.73467
0.365589
0.25585
17.2525
1.10726
1.51914
0.112556
2.90419
1.8091
2.75508
1.53085
10.1505
13.0628
10.6325
1.65048
4.05956
6.15123
1.81188
3.54456
7.55377
0.327085
14.0078
0.300946
3.18691
0.368677
2.65396
0.336674
0.251857
0.278572
1.47907
2.51861
0.116083
1.45255
3.05638
3.81434
0.399615
9.69136
1.57095
2.76758
1.73549
1.86223
1.8094
0.241241
0.418847
2.10104
3.56862
4.99025
9.04195
0.328786
0.0497546
4.51595
1.62422
0.149766
0.42579
3.63085
0.252495
5.21515
1.3649
5.23006
0.436582
0.142737
1.5705
1.13012
0.887462
3.88934
3.77591
1.43045
2.46443
1.13843
4.16151
2.68254
1.32165
2.5171
0.256599
5.82085
5.36974
0.337454
4.27469
0.487171
1.33615
11.0955
7.72899
3.51913
4.02388
0.17137
6.58611
0.236863
0.41177
2.46397
1.65374
2.71419
5.02511
3.6458
0.412311
7.72522
1.24127
8.66715
0.254381
0.293789
1.81073
1.48422
0.387469
0.425292
1.89321
1.345
0.386848
1.40259
0.429485
0.389446
6.69498
1.86418
0.391791
0.389501
0.382763
6.17146
3.67302
0.346178
2.86619
7.2801
4.14814
1.64547
0.6185
2.57676
1.23814
1.70894
0.385213
14.4198
2.75592
0.368582
12.9286
5.42925
0.955496
3.34276
4.49269
1.0462
4.57305
5.74922
9.56876
7.9284
1.38078
4.99023
0.278444
1.86013
5.92337
2.93147
6.70738
0.452687
0.434227
0.471734
7.73098
6.06607
0.0108739
1.47036
0.597854
0.2114
3.55319
0.797579
3.15735
0.0823436
6.03053
2.43003
0.31308
0.316063
2.15604
0.24861
0.240267
0.242797
12.5045
0.371662
7.12274
8.17922
4.17464
1.57491
0.584073
0.948547
1.78372
1.41939
2.36305
0.417839
0.787591
0.726655
0.384574
1.12618
2.27492
4.86997
0.38137
3.15065
10.1802
1.53197
0.256692
0.253113
5.12752
6.31933
0.37757
1.42155
0.902199
2.6493
0.298654
4.00586
0.879086
1.10923
0.38837
3.27595
4.60387
0.39615
0.0650193
0.667615
9.85475
0.265446
4.08989
0.322464
0.340033
5.62567
1.36311
2.03631
1.42414
0.410843
7.20375
4.24514
2.06118
1.91238
0.358114
2.9741
0.236423
0.813225
0.276485
7.6272
2.74407
12.5788
1.42006
1.83294
0.41637
0.348604
1.1802
4.03833
2.24322
0.879222
4.9654
9.40581
4.37349
7.29636
0.334052
0.975325
1.30521
4.76579
2.55733
4.4849
1.61339
0.332664
2.56531
0.890975
2.89032
5.06579
0.717224
1.4545
7.20498
6.03945
0.632142
1.10788
6.03483
1.35807
1.58668
0.281252
0.493979
0.411332
3.53983
1.5965
3.88198
0.667151
0.354672
1.00333
0.690655
0.28694
2.99542
1.68349
1.44179
1.64372
0.341107
9.4455
1.15804
0.529398
3.50927
3.70881
0.369538
1.28939
2.39794
2.28946
1.32791
2.89117
0.274903
6.94276
1.53775
0.277382
1.26348
0.238326
2.01258
0.350243
1.46175
1.71944
2.74511
4.64986
6.00329
0.606291
9.90332
0.860315
3.65753
10.0086
1.13377
0.434287
3.39334
0.258976
3.74546
2.79004
4.77798
1.28641
0.242101
0.350712
8.80075
1.63726
0.471851
4.38899
0.654541
0.343855
0.442686
1.95593
3.39211
1.43745
2.47864
0.273974
6.37297
10.3563
1.81226
4.23357
2.87999
0.90112
0.250025
0.168294
2.44944
2.13452
4.99264
0.337895
1.16593
1.21745
2.68551
0.377478
0.246694
0.239144
1.6798
1.78422
1.18353
0.332079
5.57983
0.426121
1.68501
1.63224
0.372444
1.68379
2.3008
0.879866
11.3076
17.7225
0.616385
0.391205
15.5175
0.386597
4.56897
2.01867
1.38918
10.1951
7.8745
1.2178
0.535099
5.56264
1.19712
3.94631
0.349437
0.220019
4.2002
2.42244
6.16719
0.786026
0.166277
1.20193
0.252667
1.97147
11.5862
9.79785
1.71308
1.85587
5.30575
3.06696
1.30084
0.173968
0.640483
6.4521
0.398781
2.28573
11.3958
1.13233
11.6272
0.355421
0.339427
5.21584
11.7152
1.66103
3.94704
0.613778
0.34899
0.382886
0.986666
9.8943
1.20204
1.46309
0.391916
1.61006
0.763538
0.401182
0.284755
0.128432
2.12883
1.69899
7.53723
1.43636
9.39494
2.39461
3.37167
1.74148
8.28833
1.36757
6.89948
1.50372
0.259259
0.368369
0.33045
0.415666
3.18627
0.219653
2.45155
0.337199
7.16261
2.06599
1.39404
0.893857
1.11085
3.9296
1.75611
0.70792
0.400117
1.48561
1.20885
5.05816
0.67361
1.56433
1.37461
0.238255
0.321665
0.263572
0.231291
0.815572
1.18943
1.5134
1.50003
1.47591
2.83682
0.414023
8.03627
1.00103
4.15215
5.33398
0.344512
2.94663
1.61032
1.22937
3.71202
1.45924
1.2794
11.5788
0.808762
1.59189
0.354974
8.03607
1.60843
0.342832
2.47857
1.49732
1.60173
0.310928
1.61099
1.08659
10.3773
3.58138
0.346954
0.295964
1.316
3.70528
6.03684
5.62786
1.82346
7.95742
6.92108
2.41056
9.10091
9.88654
5.20357
0.380502
0.778946
0.357593
1.01843
1.55829
0.956466
2.54505
1.12025
5.48945
1.0461
0.241084
8.01976
1.61269
1.39003
6.22908
2.5117
1.25832
0.963283
3.88804
0.320677
0.855839
10.9653
6.83787
14.8675
3.50298
2.07349
0.352913
7.01689
3.24058
0.382631
1.21983
0.109372
2.08017
0.388932
0.458728
0.379484
1.45197
6.52088
0.332164
0.241445
0.320532
0.308998
6.34662
0.401644
0.247804
13.8281
9.06584
5.93369
0.26025
7.47682
1.15311
4.13013
3.62355
0.380116
0.555867
0.327396
5.3948
0.466653
10.8121
0.324831
2.00311
0.758891
2.25533
0.663362
0.913537
1.28418
0.374178
3.53616
0.332258
0.462186
5.23716
3.20628
3.30525
1.56594
8.88464
5.88899
5.33795
5.77585
0.50187
10.046
1.35075
1.79403
0.380167
7.043
1.28855
0.32994
11.3138
5.62724
0.491423
8.27454
1.27196
5.55706
4.14733
4.31179
0.93606
0.250975
1.59755
6.23724
0.28729
3.17892
5.44378
3.74981
4.54901
3.22678
0.106593
2.65899
0.384457
1.57599
0.388332
1.59785
2.19815
6.62217
4.47394
1.45706
8.39981
7.38658
4.23543
0.510604
1.10855
5.51836
7.34481
0.373297
0.355109
1.45181
8.85219
1.3284
7.99825
0.26252
1.69211
0.837199
1.1886
0.38257
0.837468
5.58519
8.68007
1.75912
6.81231
0.334646
1.73417
1.41108
6.76727
0.430368
1.32558
2.85076
1.11387
1.37109
0.372301
0.262127
0.381377
1.33081
0.228327
5.62211
6.35432
3.7155
0.528313
0.353164
0.85257
3.52385
4.61773
5.23185
3.63053
0.316576
0.286816
9.56029
5.85206
1.28106
5.7009
1.49193
0.523769
0.311697
0.244676
0.988346
0.372481
6.01625
1.61098
7.67614
1.63164
0.356143
0.47593
1.75096
0.808146
2.51763
1.65621
3.32327
1.50482
3.30913
0.35053
0.33304
11.9819
1.52136
2.37009
0.413265
2.52608
0.327593
0.393099
0.238187
6.3567
0.929698
2.15509
6.67231
7.06859
1.67803
18.742
0.346731
0.344928
7.58549
1.12943
0.375567
1.61005
0.372281
0.25555
3.40282
0.806026
3.0848
1.11739
7.60202
1.76932
0.350658
1.85009
7.77156
0.760215
4.83249
1.52255
4.93241
1.28368
8.36552
1.24552
1.51708
6.61938
7.3143
0.334696
2.7873
3.77486
1.45335
0.7044
2.81218
0.403872
0.374823
2.84625
0.361705
12.6399
2.29049
6.10944
5.55667
1.80316
1.49145
0.309042
2.15772
4.60486
0.362793
0.334668
11.5348
9.42052
6.26383
5.66974
4.28776
0.71892
3.2161
0.382204
1.55116
12.6486
5.84864
0.371809
1.77001
0.348482
0.372898
0.715528
0.389023
5.41657
0.503215
0.347179
0.802073
15.806
0.0523206
8.3306
0.874059
5.47297
1.64952
6.1698
0.285646
0.848102
1.37172
0.274714
9.46434
0.322727
5.05005
5.12373
2.97003
0.265228
15.5092
7.78659
7.96152
3.19094
6.16941
1.88825
0.401656
0.293966
5.19149
10.6771
0.336157
4.67014
4.74797
1.54791
2.24435
6.62606
1.64799
1.09082
10.9618
3.10659
1.47592
0.0208063
0.649898
6.80589
0.289068
8.50323
1.277
3.25751
1.08315
2.389
0.262102
0.726624
0.252123
0.553086
0.103449
7.62699
6.4546
5.2288
0.334106
2.92195
0.396655
0.35342
10.2669
6.55681
0.246034
1.23868
0.297903
0.907755
2.18415
0.379049
1.27515
2.67328
3.88948
2.57925
0.90133
6.34279
5.73536
2.82726
7.33225
0.427939
1.47158
0.365011
1.60274
0.352898
4.98155
4.86081
1.6322
10.2268
6.48635
0.237554
3.28667
1.17591
0.37547
3.4826
0.462735
0.432277
4.25472
0.368726
2.80553
0.261144
8.27339
0.57198
0.933774
0.37671
1.57859
0.545754
3.20129
4.74972
1.06842
0.328478
7.32012
1.47189
1.0695
4.33925
0.789196
2.73133
0.600174
7.43032
2.13536
0.2889
1.41451
5.92812
0.361506
1.64018
2.69046
0.328586
7.91697
0.224707
3.96737
2.25501
4.5894
1.14635
2.91166
10.1023
0.646863
1.72056
2.47923
0.812557
1.08377
0.374019
3.97424
2.05715
1.84013
1.17629
1.87137
1.90861
5.3698
3.01098
5.58108
0.676382
3.54798
0.378929
5.3889
1.1633
0.497166
5.52574
0.257692
3.81562
1.56132
4.80357
1.40481
1.46098
0.225111
2.1614
5.44814
1.28478
1.09142
0.706739
5.11162
2.19873
4.49741
0.362146
2.29036
2.16657
0.220002
4.61305
1.47176
0.661952
0.862652
2.09329
13.5108
6.3026
0.558866
3.85703
0.376713
3.61811
0.752158
9.17572
4.25697
0.23956
0.315761
1.18385
2.85443
2.15761
3.95398
1.73659
0.696155
0.261507
2.79195
1.69328
3.13531
4.21067
0.852303
0.366565
1.65041
5.28746
1.71079
2.59153
0.324394
8.58253
5.47744
0.514455
0.789245
1.76266
1.52841
0.29039
2.80279
1.51731
0.342472
3.27878
2.67574
1.88187
3.38091
4.60554
0.361369
0.324098
1.10116
0.774199
8.15512
15.253
0.285811
0.303421
1.5109
0.423869
3.71822
4.23788
8.80277
1.49979
0.29928
1.93267
0.433539
1.60981
2.56566
0.23698
9.07267
5.82408
2.26074
0.409239
7.83379
1.52908
1.012
8.46504
1.41004
1.08532
6.62522
4.2162
2.38492
6.87574
7.05438
9.29489
0.716971
4.57997
1.75649
4.23834
3.12023
1.16797
0.540275
0.208347
1.69068
1.5954
2.21572
0.267175
1.38706
2.47709
0.210606
11.584
0.114758
4.77762
8.47096
0.261021
5.53594
1.06394
0.970434
7.9473
3.69813
2.01555
4.22654
0.370231
0.387451
1.70618
0.316534
6.89977
2.87499
0.0440429
0.377531
2.08734
4.14508
2.90696
0.32719
1.55497
6.54705
0.228973
0.255936
0.989311
0.367169
0.817498
1.79714
1.1932
0.308522
1.61701
0.85468
1.36342
0.217061
0.386058
6.15182
0.35956
1.7924
4.4183
1.41334
2.33842
1.66082
5.407
4.37663
2.00972
9.51417
0.648486
5.32828
0.369667
3.40407
11.205
0.259896
2.57181
1.36565
1.43098
0.24891
7.13685
5.21471
0.32913
5.21994
0.419838
4.51291
3.63929
1.44453
0.671035
0.600744
5.37901
3.74576
1.76842
5.28365
1.57485
0.383433
1.40288
7.45328
1.07047
0.565286
0.296557
2.60682
0.978066
4.78569
1.67812
1.27274
1.53197
5.98503
0.426053
3.67937
3.75204
3.15496
5.50246
0.917662
4.72179
1.52301
0.543047
7.94267
7.50968
3.86073
0.746455
7.0442
3.76668
0.0305853
5.66056
9.21758
2.86664
2.26954
1.91742
3.53267
1.14229
1.14699
4.84661
5.5657
0.353939
0.36754
0.30952
1.18387
0.0722654
1.61421
5.64638
1.53093
3.99563
0.28004
8.96558
0.220172
1.98322
0.213429
2.31784
1.41377
2.58711
8.78388
0.377684
4.34361
0.367296
1.43005
1.0396
1.06448
0.234769
4.37397
1.99571
1.33972
0.407693
4.92441
3.62632
2.3771
1.58043
1.16659
1.03464
0.22925
5.9222
3.13734
8.20494
3.37221
6.59193
0.344594
0.102228
0.652802
3.69366
3.67483
0.969385
1.15136
0.253716
1.20034
0.547817
5.36146
0.881203
1.45527
1.41732
1.54311
5.579
0.280286
0.602233
3.04667
5.30079
0.282214
1.9751
1.76695
0.87105
3.59684
0.896138
1.04825
9.49872
4.38674
16.5592
1.44356
6.81321
0.391925
4.40384
1.13308
1.92427
10.2548
0.249496
0.642859
1.85292
1.82882
4.45433
0.602467
0.321771
5.08694
3.35649
8.74514
2.89588
0.396572
0.25578
0.38694
0.263075
0.255737
0.780941
1.52208
0.63847
3.06124
5.38278
2.09921
2.9181
1.2237
0.238646
5.36403
5.79684
0.39497
0.244683
0.560155
4.06045
1.40501
0.365248
0.295485
0.726486
1.70617
1.64118
10.1794
1.74787
5.66661
1.99182
0.103476
3.50005
1.09578
1.08588
1.64568
4.11002
8.5083
2.72441
0.356418
1.49103
4.64809
2.03343
3.62534
2.04048
0.316826
2.02278
0.355165
3.24491
3.38191
5.19158
0.290839
1.43999
2.69925
3.20579
0.309347
0.991598
0.996116
10.1062
0.130008
1.02898
0.754567
0.250379
2.78224
8.22657
0.396057
3.61164
3.11564
0.230623
2.67811
5.8723
4.95071
1.12915
5.44513
11.2219
0.222411
12.0834
7.15158
2.58294
0.248473
6.24503
8.68701
4.36286
1.59811
10.9965
2.39605
0.81189
3.69153
7.06115
0.355309
4.95138
1.61764
3.33619
0.367689
2.98254
0.239756
0.360377
15.8624
0.173909
3.61536
2.93775
0.666411
3.44473
0.48683
0.786107
1.52364
0.235722
0.233389
6.86723
1.63709
1.28041
1.52684
1.29802
0.333704
1.2327
5.60336
1.21525
3.03317
0.655073
4.05257
0.380689
12.8993
1.15517
0.339511
0.40439
2.94326
1.51561
1.76869
0.887583
2.23998
1.33345
1.72795
4.94035
3.46018
1.44727
3.95494
0.338203
3.89455
1.23852
3.30071
0.254171
0.369274
0.379335
0.385331
0.23941
2.01343
0.126991
4.51614
1.5725
2.19592
0.319757
1.22509
1.95086
0.781859
11.1505
7.07089
4.62617
3.47876
2.62635
1.7646
0.377271
0.266866
1.05243
0.620537
0.222422
1.61322
1.40322
1.61781
9.95377
0.566404
1.25259
5.37138
7.85645
2.03877
1.57801
1.62216
0.867088
0.338498
4.92917
0.289062
0.382091
0.372734
0.377967
1.25387
11.7161
0.243877
0.472356
2.345
1.4121
7.80553
1.64847
3.71927
0.370108
0.302066
1.26851
14.0909
4.16829
0.297594
1.8092
0.380812
0.38622
0.397096
0.378959
0.236662
3.45702
0.365107
6.96516
7.67535
0.772403
0.397143
0.277703
1.20078
3.38085
0.365342
14.5842
0.360636
2.44327
0.239303
1.67869
2.04221
0.3595
6.47711
0.380207
0.878552
0.272568
2.35398
4.537
1.16661
0.795296
0.842361
3.43881
1.79166
0.703462
2.08343
2.33436
1.00187
10.5489
2.32503