/*--------------------------------*- C++ -*----------------------------------*\
  =========                 |
  \\      /  F ield         | OpenFOAM: The Open Source CFD Toolbox
   \\    /   O peration     | Website:  https://openfoam.org
    \\  /    A nd           | Version:  10
     \\/     M anipulation  |
\*---------------------------------------------------------------------------*/
FoamFile
{
    format      ascii;
    class       volScalarField;
    location    "1050";
    object      p;
}
// * * * * * * * * * * * * * * * * * * * * * * * * * * * * * * * * * * * * * //

dimensions      [0 2 -2 0 0 0 0];

internalField   nonuniform List<scalar> 
10435
(
0.00205717
0.0222872
-10.3407
-2.298
-5.56694
-9.5849
-10.5053
-10.2643
-10.3159
-10.0304
-1.01477
-6.13233
-10.3296
0.632759
0.733597
-9.89589
0.461811
-10.2735
-10.6195
-0.321373
-10.6063
-2.53773
-10.0593
-8.51589
-9.75214
-0.474249
-0.903165
-10.5937
-1.05605
-9.90617
-8.82528
-1.66648
-10.5878
-0.25442
-9.51962
0.944217
-9.41421
-2.11871
0.185584
-9.33115
-10.255
-10.7489
0.77313
-1.11436
-9.22635
-9.37405
-9.99454
0.0801793
-10.3666
-3.09839
-10.2546
-8.7642
-0.336372
-1.17164
0.577281
-1.20379
-9.10863
-0.94462
-0.066068
-9.22965
-0.164621
0.399294
-0.647376
-7.94596
-9.62998
-10.2946
-0.180361
-0.415308
-10.6452
-8.0601
-0.442409
-1.14527
1.24895
-10.0717
0.680965
1.15946
-6.87485
-10.766
-10.7375
0.5333
-4.69642
-0.0730027
-0.107359
-0.681108
-5.55005
0.915328
0.539017
-0.889278
1.09939
0.273298
-1.44721
-2.03064
-0.381864
0.87314
-0.0286456
1.12897
-3.07827
1.07311
0.589146
-3.84852
0.49132
-6.80847
0.750928
-0.427579
-7.76153
-1.67307
-0.744131
-3.84875
-6.57958
0.541494
-2.38051
-5.77323
0.201327
0.309274
-2.51289
-1.85739
-4.61874
0.719055
-0.683534
-4.62381
-5.25686
1.29622
0.474293
1.46197
-2.48659
-0.262768
-3.85383
1.39634
-4.89671
-1.62409
1.53477
-1.57357
-9.95059
0.551904
-0.838702
1.06729
1.40924
-3.07302
-0.217524
-1.27493
-0.767916
-9.12638
0.125459
-7.17223
-3.29117
1.09412
1.53544
-8.6004
0.682679
-7.7091
0.00465921
-8.9968
0.094418
-7.87395
-9.35622
-0.114568
-3.55471
0.172311
-9.7108
-0.168026
-8.41099
0.522054
-1.91531
-5.78899
0.815971
-6.17425
-10.3217
-4.73185
-7.41092
-7.37903
-9.72267
0.618707
-2.11152
1.16164
-7.52335
0.357474
0.702259
0.176225
-1.74684
-0.409489
-0.446143
-9.23284
-6.69306
-0.387074
-9.29212
0.797271
0.717648
-10.6693
-6.32527
-8.20088
-6.03855
0.0862432
-0.332085
1.24309
-4.65731
-10.6664
0.929965
1.03953
0.239225
-9.72929
1.15017
0.372247
-10.4962
-0.59915
-10.4246
-3.34225
-1.25671
-3.90109
-0.869172
-4.156
0.49323
-9.96741
-6.53975
-6.32164
-0.365518
0.802434
0.543217
0.333277
-2.56693
0.441313
-0.509752
-0.0604457
0.0502423
1.30827
-0.55665
-9.90793
-2.10363
1.09632
-8.85752
1.12935
0.0120457
-10.0743
-2.22299
-8.61397
-1.49814
0.35398
-8.98388
-1.449
-8.24317
-9.42033
-0.638081
-0.20454
0.364317
-1.14124
-2.76605
-10.5688
1.28212
-10.843
-4.34293
0.737341
-4.45992
0.685202
-10.3885
-4.99752
-11.1086
-6.22078
-6.04871
-11.1878
-0.0952871
-0.423992
-11.3542
-9.25162
-0.998924
-7.00544
0.507218
0.477941
-0.220938
-9.77972
0.295029
-4.14042
-11.048
-11.9338
-11.809
-10.1465
-3.08259
-5.44129
-0.36454
-4.38278
-10.5226
-11.7373
-10.2472
0.42312
-10.9144
0.771892
0.586528
0.530619
-7.55733
-1.76966
-0.524289
-0.7682
1.4554
-0.806986
-1.02776
-11.6899
-1.40593
-5.40889
0.964631
0.281862
-3.31803
-9.54731
-0.0609174
-7.58377
-10.9127
-5.51977
-2.46132
0.867914
0.859903
-8.17299
-9.7917
-0.438091
-1.23237
-1.00802
1.00935
-7.73238
-9.81826
-6.14552
0.269533
-8.48916
-0.193675
-5.47096
-8.59595
-1.90747
0.373862
0.370725
-11.2845
-10.3445
-4.12801
-10.883
0.064438
-1.0378
-9.96606
-0.757568
-0.392124
-10.5629
-8.01918
-0.771564
-0.646165
-2.08696
0.0132112
-1.97107
-5.12232
-0.227463
0.0955923
-4.48591
-6.47367
-0.968625
-0.600127
0.680364
0.558636
-10.7955
-0.196629
-9.97535
-4.27156
-10.8046
-11.9371
-11.7146
-10.649
-10.0223
-1.14996
-0.357656
-2.10337
0.0568466
-1.36499
-0.0501216
-1.87611
-5.60839
-0.874751
-6.85809
-0.463488
-10.7173
0.00791145
-6.17445
-10.4358
-12.0563
0.528555
-6.40047
-1.98219
-1.49445
-0.4422
-0.748185
-8.3645
-1.37882
-11.2502
-0.344946
-10.9404
-11.5941
-10.7391
-10.6043
-11.8302
-10.7384
-9.72575
1.35537
0.301648
-0.829626
0.0760242
-10.6034
-0.670666
-10.4903
-6.66883
-1.00658
-8.50032
0.113355
-0.329192
-10.1134
-2.42337
-11.018
-7.93181
0.528283
-0.667038
-4.53331
-9.72577
-4.89626
-0.408702
-0.867125
-1.21471
0.0205864
-0.65815
-10.4823
-3.57043
-1.43872
-1.11149
0.455226
-10.2697
0.772373
0.961687
-10.3797
-0.0250499
45.5722
14.1116
23.2288
16.5905
18.1583
15.5811
15.04
13.7278
10.9141
38.1759
12.2619
18.8581
14.1574
15.1328
13.4387
12.9799
11.9285
10.9589
30.2424
9.56649
15.0659
11.9444
12.5773
11.4535
11.0382
10.2123
9.28538
23.4237
6.97785
11.5306
9.62637
10.1208
9.46908
9.19286
8.63882
7.92696
17.1707
4.85025
8.46643
7.48888
7.91666
7.60452
7.47806
7.18866
6.66845
11.4886
3.43257
5.98333
5.68273
6.0424
5.95651
5.93766
5.80912
5.5568
6.75893
3.01008
4.16544
4.28814
4.5512
4.60159
4.65407
4.64207
4.57089
3.25262
3.21217
2.9346
3.27922
3.43809
3.56019
3.65235
3.71939
3.5515
0.886395
3.09665
2.0515
2.55373
2.65238
2.81164
2.92288
3.01192
3.04204
-0.569119
2.43983
1.41067
2.04494
2.135
2.3139
2.43716
2.54612
2.60086
-1.38534
1.72452
1.04606
1.73298
1.83149
2.01034
2.13428
2.24637
2.36088
-1.50733
1.46665
0.992215
1.597
1.68511
1.84045
1.94858
2.03937
2.23577
-0.998686
1.61047
1.1759
1.58189
1.63573
1.75367
1.84177
1.93277
2.02704
-0.503192
1.80778
1.3833
1.59942
1.62044
1.70288
1.77475
1.8637
1.91711
-0.213145
1.91556
1.52639
1.60077
1.6008
1.65598
1.71541
1.79237
1.86154
0.0419304
1.91834
1.58846
1.56736
1.56021
1.59933
1.65232
1.71971
1.80622
0.142726
1.73457
1.53912
1.48713
1.49111
1.52673
1.57891
1.63808
1.76186
0.0778889
1.38247
1.38542
1.3648
1.39596
1.43968
1.49729
1.55977
1.6703
0.0315021
1.03658
1.20431
1.22592
1.28489
1.34008
1.40273
1.46909
1.54954
0.0454285
0.793075
1.03294
1.08778
1.16749
1.2351
1.30477
1.37879
1.46797
-0.00173564
0.624532
0.868741
0.95498
1.04703
1.1249
1.19926
1.28107
1.34042
-0.170223
0.534991
0.709113
0.828036
0.923902
1.00983
1.08915
1.18336
1.16092
-0.520262
0.570062
0.570689
0.721944
0.814557
0.903314
0.985077
1.08107
1.03549
-0.970338
0.65349
0.354089
0.531735
0.628179
0.73123
0.843704
0.973388
0.911129
-1.08258
1.06701
0.6003
0.756605
0.809928
0.8203
0.89077
1.0121
0.326795
12.0082
11.9244
12.1299
12.5665
13.0897
13.7262
14.4732
15.3309
16.2893
17.3298
18.4394
19.597
20.7711
21.9408
23.0783
24.1477
25.1302
26.0005
26.7388
27.3413
27.8605
28.4263
28.8175
28.5874
28.1793
28.2959
28.9847
29.8955
30.6332
31.3935
32.2718
32.8723
33.0949
33.119
33.0301
32.8434
32.5785
32.3039
32.0518
31.8963
31.8942
32.1195
32.6577
33.4468
34.3613
35.4206
36.7159
38.1388
39.516
40.9256
42.4743
44.0987
45.678
47.0755
48.2242
49.1954
49.6949
49.5088
49.4405
1.48442
0.958552
0.559905
0.175532
-0.178972
-0.492021
-0.753811
-0.986441
-1.23682
-1.48395
-1.67552
-1.79761
-1.84957
-1.82866
-1.73339
-1.56305
-1.31748
-0.993599
-0.584425
-0.0787517
0.542481
1.30311
2.19487
3.22245
4.09516
4.48729
4.39766
3.79424
3.02515
2.43358
2.01726
1.72328
1.49953
1.32916
1.2046
1.11936
1.07552
1.08077
1.1424
1.26548
1.45081
1.69136
1.98606
2.31097
2.52496
2.54013
2.38172
2.16315
2.04547
1.95673
1.79313
1.74828
2.0707
2.76142
3.71086
5.13659
6.95926
8.49968
10.2359
5.56443
5.65503
5.7177
5.83172
5.97979
6.15986
6.37041
6.60854
6.87482
7.17251
7.5026
7.86224
8.24911
8.659
9.08884
9.53462
9.99268
10.4601
10.9356
11.4174
11.9047
12.3916
12.8562
13.2632
13.5721
13.798
13.9484
13.9978
13.9479
13.8835
13.8239
13.7619
13.6929
13.6258
13.5686
13.5291
13.5161
13.5395
13.6093
13.734
13.9226
14.179
14.5102
14.9157
15.3934
15.9467
16.5764
17.3429
18.334
19.4214
20.4084
21.3221
22.284
23.2588
24.1654
24.962
25.5906
26.1167
26.3108
2.36192
2.16297
2.03445
1.93573
1.86151
1.81505
1.79653
1.80636
1.84401
1.91085
2.00948
2.14228
2.31088
2.51718
2.76162
3.04412
3.3635
3.71701
4.10145
4.51129
4.93955
5.37552
5.80346
6.20189
6.54136
6.79834
6.9612
7.03012
7.02238
6.96608
6.87725
6.76436
6.63287
6.48757
6.33184
6.16976
6.00498
5.84196
5.68659
5.54482
5.42437
5.33339
5.28336
5.28602
5.35648
5.5114
5.77046
6.14963
6.65476
7.37285
8.30661
9.30037
10.2884
11.2384
12.1844
13.1866
14.1709
15.1044
16.0703
3.67085
3.68652
3.70596
3.76099
3.84041
3.9428
4.06697
4.21188
4.37623
4.55846
4.75774
4.97299
5.2028
5.4467
5.70332
5.97167
6.25055
6.53765
6.83151
7.12903
7.42631
7.71759
7.9953
8.25125
8.47532
8.66182
8.806
8.90752
8.96917
8.99838
9.00216
8.98438
8.9509
8.90738
8.85728
8.80777
8.76334
8.7279
8.71131
8.72029
8.76364
8.85096
8.99411
9.205
9.49807
9.88465
10.3769
10.9794
11.6814
12.5173
13.513
14.5617
15.5747
16.492
17.3192
18.0776
18.7259
19.3059
19.6736
2.56606
2.47027
2.41486
2.3887
2.3852
2.40569
2.45078
2.52042
2.61479
2.73315
2.87651
3.04419
3.23612
3.45142
3.68863
3.94587
4.2209
4.50778
4.80628
5.11165
5.41948
5.7215
6.01002
6.27946
6.51575
6.71793
6.87709
6.99613
7.07428
7.114
7.12173
7.0947
7.04127
6.96775
6.87008
6.76219
6.64294
6.50693
6.37597
6.25393
6.15184
6.08148
6.05659
6.09299
6.20976
6.41648
6.7322
7.1623
7.71222
8.37858
9.15486
10.0048
10.9134
11.8678
12.7821
13.5811
14.2892
14.9788
15.6301
2.86473
2.84138
2.83752
2.86279
2.90882
2.97556
3.06118
3.16659
3.29036
3.42937
3.58462
3.75414
3.93909
4.13704
4.34584
4.56511
4.79752
5.02779
5.26716
5.50743
5.75157
5.98761
6.21182
6.43112
6.61531
6.78553
6.91887
7.0318
7.11633
7.16977
7.20819
7.20653
7.18545
7.15903
7.09753
7.0461
6.99106
6.9
6.84242
6.7955
6.77364
6.78599
6.84253
6.9575
7.15734
7.42738
7.80398
8.2735
8.84538
9.51086
10.2542
11.0477
11.8607
12.695
13.489
14.1668
14.7436
15.2693
15.6833
2.60687
2.53053
2.48337
2.46987
2.4705
2.50212
2.54461
2.62843
2.72867
2.81748
2.95378
3.09975
3.27305
3.47067
3.6765
3.9109
4.16502
4.35444
4.58192
4.82088
5.08416
5.32541
5.54381
5.79499
5.95299
6.13252
6.24023
6.35347
6.43772
6.48932
6.55034
6.52274
6.49042
6.48598
6.36603
6.34089
6.34651
6.12201
5.99512
5.87205
5.77471
5.70373
5.66636
5.68092
5.86615
6.01432
6.35548
6.70478
7.114
7.64428
8.29826
9.05756
9.80766
10.5704
11.3366
12.0787
12.7384
13.4077
13.9405
2.56991
2.57916
2.56681
2.60846
2.64979
2.72565
2.78661
2.84155
2.95385
3.14634
3.19502
3.34145
3.53955
3.68393
3.90995
3.99364
4.24541
4.44497
4.66402
4.82186
5.04895
5.22162
5.39651
5.62654
5.72362
5.89278
5.95702
6.06044
6.19331
6.12122
6.30554
6.26008
6.15211
6.19844
6.04454
6.08682
5.90114
5.6276
5.73121
5.61819
5.54788
5.54807
5.47304
5.4966
5.63575
5.71645
5.95633
6.19847
6.74344
7.27199
7.80471
8.39837
9.02684
9.80957
10.5172
11.1229
11.7401
11.5532
12.1847
-5.43397
-5.32793
-4.89331
-4.30388
-3.62665
-3.01878
-2.53116
-2.0395
-1.51518
-1.07572
-0.736068
-0.392126
-0.0782412
0.203523
0.630212
1.23324
1.89538
2.58811
3.35846
4.24014
5.23464
6.34667
7.65066
9.36786
11.0302
0.190565
0.266069
0.106154
-0.0457626
-0.00331979
0.201347
0.447532
0.714047
0.956908
1.02697
0.908432
0.723326
0.541434
0.430209
0.504773
0.771034
1.05762
1.21089
1.26014
1.37332
1.61266
1.91723
2.25004
2.66107
2.7699
-0.932432
-0.870275
-0.768548
-0.638693
-0.428691
-0.172995
0.0806454
0.315042
0.507741
0.603212
0.601833
0.557506
0.506822
0.489352
0.565522
0.746537
0.986541
1.24858
1.53602
1.88373
2.30677
2.80188
3.37208
4.02827
4.8676
-0.466176
-0.426737
-0.316998
-0.208342
-0.0656977
0.0972079
0.26245
0.41499
0.541281
0.622551
0.660121
0.675101
0.687366
0.71692
0.785971
0.899642
1.04445
1.20735
1.38724
1.59233
1.82344
2.06908
2.3109
2.50785
2.72123
-0.38521
-0.34799
-0.233476
-0.12127
0.013492
0.154903
0.295562
0.422706
0.529607
0.608545
0.660695
0.697828
0.732975
0.778086
0.846841
0.945259
1.07188
1.224
1.40218
1.60901
1.84786
2.11932
2.43086
2.77791
3.27714
-0.258802
-0.204907
-0.0897073
0.0119077
0.131795
0.249527
0.3682
0.473848
0.565409
0.639539
0.695369
0.741173
0.786582
0.836988
0.901997
0.986292
1.09117
1.21667
1.36243
1.52673
1.71015
1.90745
2.11879
2.32117
2.60315
-0.104639
-0.105255
0.0190527
0.10639
0.217353
0.317576
0.424498
0.516261
0.598525
0.669865
0.724661
0.77188
0.821713
0.873101
0.935893
1.014
1.10966
1.22498
1.36021
1.51179
1.68518
1.87591
2.09593
2.33197
2.68103
0.043113
-0.0271751
0.118743
0.188611
0.297003
0.383225
0.487012
0.566915
0.639388
0.708234
0.757355
0.800686
0.855583
0.90742
0.968093
1.04219
1.13101
1.2372
1.36048
1.49573
1.65674
1.82851
2.04013
2.27409
2.57724
0.0452556
0.0261145
0.2297
0.270991
0.371013
0.421739
0.521963
0.584388
0.673897
0.740415
0.791916
0.823796
0.868522
0.911649
0.974458
1.04277
1.12544
1.22624
1.36916
1.50358
1.64697
1.81738
1.99546
2.09666
2.28565
-10.5053
-10.601
3.08237
5.12108
1.2098
1.11471
-3.32877
1.62595
2.34752
6.32864
-11.3519
1.53899
-12.2215
0.289802
-8.94245
2.84193
-4.4023
5.099
5.94141
-21.0326
-21.4642
3.30904
-10.0394
3.05518
1.57236
2.32147
1.54056
0.537919
-9.68462
-7.60864
7.12381
2.80552
-12.8828
-13.3259
-8.35158
1.48958
-3.89447
-8.5107
-6.03359
3.6682
-12.4441
3.30624
2.71465
0.435628
1.66279
4.70031
-11.079
-9.28694
-9.14701
-12.0754
-11.0539
-11.4957
-18.1461
5.12608
-3.08418
2.44245
0.269396
-19.9687
0.754672
-8.23721
1.69072
3.67886
1.22347
2.93861
1.58471
0.350163
2.62341
3.02987
-9.06145
-10.9797
1.92286
3.90342
1.28912
-20.2933
1.12225
-22.5393
-19.2959
-11.1498
0.365702
5.15168
-12.9424
1.84689
1.87499
-8.21105
1.37486
1.75854
1.27889
-11.3344
-13.1476
2.1203
2.50995
1.92452
4.60725
1.59872
1.19367
-11.1812
2.2215
-10.7411
3.24289
-8.34131
0.849255
-12.8931
0.808426
3.33254
0.840694
0.835755
-10.0043
-15.5824
2.1584
-6.92702
2.79201
1.84032
-8.20225
3.19469
-19.0984
-9.06106
-12.4693
4.0454
-14.5191
2.04605
2.51852
1.7523
3.2135
1.67703
-12.6536
2.73633
-11.7214
-21.6914
0.0802273
-9.57221
1.99075
-20.4016
-10.6534
-9.92086
0.303253
1.28982
1.76839
0.944476
1.89491
-20.5291
1.76142
-4.88173
-8.8558
2.55173
-9.46963
2.45565
4.85077
-20.574
1.74206
-8.42382
-1.03208
-0.245015
4.80615
-10.6164
1.50363
-9.31929
1.11916
3.7499
-16.9666
4.08795
2.90352
2.04047
2.19421
-10.7612
3.20923
-8.07287
0.216231
1.36932
3.84339
1.09401
0.294899
3.07194
2.90063
-8.38757
2.16151
0.542795
-17.579
-10.1736
-8.6417
3.87301
-13.6369
3.15228
-16.7641
-13.7184
0.913117
3.7248
-8.47746
2.10205
-12.805
2.20764
-9.02238
-8.99629
-0.451732
-4.01034
-10.0346
-12.8682
1.15144
3.20548
-9.19563
-9.68206
-8.89597
3.57658
2.01778
2.02352
-0.852401
4.12335
3.20696
0.874983
-9.81372
3.75802
0.821601
1.65607
-13.5277
-0.997536
-1.04455
-12.1082
1.08419
3.87028
6.02599
1.56241
0.767278
3.34745
1.58069
3.67866
4.72558
-12.3735
2.51687
-4.11903
2.13499
1.25681
-9.01803
1.60008
2.99975
2.05666
-5.74662
4.84257
-16.5232
0.577764
-14.1237
-9.66275
5.79012
1.61687
3.39363
0.476916
1.26667
1.47418
2.69351
0.936822
2.6113
3.43673
2.18475
0.582065
3.49503
-9.64809
2.55032
1.16847
-8.13224
-18.9601
-16.9089
9.55699
2.48795
0.0852707
2.00176
1.40209
-20.198
1.75399
4.4107
4.68664
-4.23862
1.38781
-20.2517
-0.82713
3.11445
3.87436
6.60153
4.62392
2.86611
1.51396
0.199347
-10.7426
0.47366
-0.918523
3.28056
4.2848
-8.34177
2.21857
0.707496
4.92371
-11.5843
-8.96899
-6.33507
2.40512
3.09571
-11.6842
-10.0512
-12.215
-10.341
2.2665
3.94034
-9.02168
-10.024
2.7034
3.81263
2.12996
-8.88185
3.85568
-22.1305
2.9187
-20.6836
2.03883
3.36858
3.5899
-13.1682
0.233099
3.08767
-3.39718
-11.0455
3.5087
1.59518
-8.65884
-17.5687
2.18488
3.79428
6.97623
1.46618
1.77522
-12.5488
-16.1246
2.59151
-19.4529
3.01524
-10.1199
0.757175
5.6529
-11.7062
1.71841
1.72969
1.93841
2.01531
2.8114
1.64985
1.4658
-8.9302
2.504
-20.2096
1.10953
1.0169
3.20403
1.34021
-9.50857
1.825
4.76452
2.75595
-17.259
-11.7075
4.68577
-7.67771
0.0804904
3.30837
-8.24655
-10.0068
-9.92667
3.87668
-12.4982
3.38285
1.23671
3.15244
-11.5383
1.83553
-12.4191
4.44476
-11.1821
-9.80508
-2.87235
-10.6888
1.90615
1.90087
3.73199
4.03654
5.13542
-10.1008
2.28397
-12.2607
0.224589
0.499008
-8.71273
3.45522
-21.0458
-11.6071
-8.80066
-1.82096
4.34636
1.35901
-7.95169
-13.7492
7.48126
3.41408
-12.0833
3.77192
-9.45825
1.56773
2.89899
1.31336
-11.2857
1.39183
3.75543
-4.03945
1.36728
-0.526945
3.91389
-4.45213
1.70728
-8.78578
1.7392
2.26986
4.33271
-8.90704
-9.28669
4.01511
2.36613
2.95499
3.85737
2.10907
0.738442
4.13486
-10.4364
2.0492
3.61612
3.02343
2.83086
1.54445
1.15167
1.56977
0.388257
-4.38363
3.33954
2.21157
3.06007
3.14658
4.01976
3.97718
-9.62631
-11.9035
-0.119015
-11.5666
4.81747
0.648624
-0.802042
0.75329
0.329722
-2.78347
3.01696
2.06206
-8.91222
4.27196
-10.9754
-7.95339
1.97766
2.51
-20.7354
2.1548
-0.187774
-4.51037
-13.4295
-10.4388
1.39284
0.996906
4.06696
3.91384
-11.0098
0.535013
1.33766
-9.66519
4.09496
1.7054
-14.4812
1.71102
1.18554
-20.3935
-20.2406
-1.162
-6.87459
3.55743
1.467
-8.87101
1.30598
1.76427
4.65292
-8.76834
3.07342
-12.4371
2.58645
1.82593
-7.61532
1.74973
0.945425
-11.0536
1.69309
4.58079
-12.371
2.74018
-5.48045
1.94798
0.491422
-18.4194
-13.488
2.4486
2.20792
-3.81721
2.37699
3.10586
-12.3976
2.4596
1.80632
3.7567
-11.5898
-9.14121
-8.71174
1.86419
-1.63776
4.42012
-9.31451
-20.9983
5.02961
-12.625
4.93564
-10.5271
-13.0388
3.81818
4.06719
0.679071
2.92545
4.35032
0.778071
1.99127
-0.323635
2.24051
-9.12816
-9.33291
2.45093
-9.5984
-6.67064
2.45274
-10.5328
2.75879
4.06806
2.1657
0.743465
1.7363
1.1494
-5.39266
-6.95375
0.112152
-9.65772
-8.88504
-10.923
1.51501
3.9619
-10.5649
-10.4174
2.20266
-10.8818
2.06867
-13.775
-7.73374
6.90183
-1.4264
0.644272
3.00608
2.22731
-13.2962
5.48564
-9.19786
1.01177
1.12816
-7.6616
-9.64203
-10.2759
0.721076
2.39996
-20.0075
-18.7171
3.34512
4.12815
1.7493
-11.7478
3.11168
1.12493
-5.26238
4.6625
1.0921
1.30144
3.05332
-12.8396
4.11255
0.646852
-13.9293
-9.03797
1.22311
3.16322
-8.91075
0.601606
3.44585
3.78568
-21.3696
2.65317
2.03776
3.85887
4.88609
2.98144
3.03745
-5.89484
1.54338
3.74179
0.761687
-19.1758
3.98942
1.03221
4.3733
3.32278
1.40352
1.98
3.73523
-0.370086
1.16948
-8.3925
-8.36986
0.512471
-11.1793
0.960456
1.27679
1.26813
3.65893
2.59965
2.07108
-19.0624
2.32181
1.67519
-0.182519
-14.7647
-1.62166
0.403395
0.364642
2.93074
1.22516
3.73369
2.46961
-0.024164
-8.54237
-12.5257
-17.1274
3.88282
5.60226
2.70175
5.22263
4.04357
-9.66712
13.0945
-22.1376
3.42582
-10.2832
5.13808
-11.0352
2.61736
1.32715
1.72619
-11.6386
-0.944839
0.360465
-18.8383
1.13702
6.95043
1.49189
-9.83456
3.49793
2.13853
-10.2532
1.53999
4.50795
4.7897
3.16186
-17.6189
3.74936
1.91958
4.4057
0.364492
3.61126
-9.38992
-10.6211
2.58515
-4.67224
3.95372
-11.1729
1.87097
4.1855
3.36368
2.24074
-5.11091
2.72549
3.24053
0.784399
3.02603
2.47186
4.04597
4.7623
-8.26028
-12.9575
-0.849674
-9.8829
-6.75561
-9.32913
-8.57821
8.2043
1.14252
1.38054
3.75251
2.3013
-0.272148
2.68894
1.61333
-10.9096
3.42189
4.07246
1.04629
3.18462
2.23541
1.50045
-0.69659
-15.1894
-11.5152
5.35876
-9.41518
-2.77942
-10.2104
-21.9892
-12.7157
-11.8221
4.45609
3.8451
2.51715
3.49794
3.358
2.04263
-9.31238
-10.5588
2.8365
-17.6982
0.110413
3.95146
1.55666
1.83799
-8.15316
4.14187
1.59458
-3.20114
-11.9208
-15.8258
-10.5553
3.75859
3.86814
1.24939
3.56782
-10.0489
-0.965235
-10.0234
-11.4412
1.08686
-13.0784
2.16195
3.81069
0.725947
1.05493
0.972267
4.09517
2.4502
1.9705
2.04335
2.06698
2.76425
1.99272
2.50712
3.80395
-10.1452
-6.28229
3.11096
1.89294
2.88184
-20.3865
1.43815
6.51872
3.23299
-20.3328
-0.924183
3.61848
1.85122
-10.0301
3.95686
-19.4547
2.20837
-20.2764
-10.7177
-14.5931
4.77645
-10.3093
0.0746908
3.52506
-10.4591
3.21231
1.56358
1.99193
-13.0716
3.0025
2.83594
1.3151
-11.9135
1.29632
3.85952
-4.11335
4.13417
2.99171
1.49406
-10.0551
-10.2622
3.64862
4.07367
3.61567
-20.5602
-5.45344
3.21467
1.44521
0.990059
-18.1582
3.96503
1.69827
-10.828
6.33403
1.91259
4.81335
5.11485
-17.9573
1.88806
-20.4593
3.75351
1.76377
-10.2788
3.64009
3.77943
3.97451
0.551875
-19.87
-11.3907
3.73833
3.95243
1.79627
-9.88477
-20.321
3.29564
2.11163
-10.9662
-7.99462
2.11316
0.922492
0.907258
-9.15889
3.92657
-19.3278
2.76511
2.12469
-13.9573
2.43469
4.9763
3.9545
-21.4088
-9.83074
-8.47233
-8.83878
4.80869
-11.338
-10.3012
3.42688
-3.28623
1.45091
0.929307
-20.7648
2.06082
1.41853
-21.5649
4.21554
4.04781
3.97714
-12.9131
0.115788
2.70858
-14.9508
-10.1298
-9.36607
3.30457
2.07538
-9.44269
-9.41181
-10.0657
-18.2792
-11.9058
-0.340823
3.68184
-1.66021
-8.66098
3.21616
3.69056
-0.293111
-3.3517
2.89521
-1.88163
-10.1091
2.66398
1.00738
3.76095
-8.30714
-4.16689
-9.97055
-9.05161
5.03647
0.55945
-1.35606
1.88438
-10.3835
-18.7179
3.69396
2.00745
1.98862
3.86226
-20.0436
-11.2527
1.83901
-9.08801
2.7917
-16.3708
4.36762
1.49175
1.67489
0.246362
-10.5203
0.377818
-19.67
2.41831
2.57712
-6.00221
3.41561
-7.61723
-9.99938
-6.54458
1.85574
3.28882
-5.1186
2.4254
3.67121
1.74498
-7.47452
2.48821
0.757634
-16.5188
-4.41181
0.981685
2.07571
2.99301
3.37333
0.948608
3.09041
-19.577
3.57311
1.94204
-8.85338
-20.6323
-0.458106
2.26198
2.40952
-1.70936
3.95607
-9.21135
1.13252
0.914361
-7.87903
2.31281
2.05661
-0.345169
1.29871
-9.67951
5.09902
3.55329
3.50356
-3.99663
-3.80414
-12.5172
1.60295
-18.8819
2.52985
2.91091
2.57313
-9.50362
-13.4245
2.92895
-5.98195
3.9705
-9.78783
2.17492
-9.52797
1.28874
1.44806
3.18047
-1.94095
-7.65416
2.04444
3.56428
-20.6636
3.95159
3.24648
1.67832
3.47535
2.10368
-9.8244
3.01243
2.25282
-13.0156
0.633988
-8.89067
3.87868
1.73992
2.86729
4.54803
3.78962
0.959835
-12.1847
4.54538
0.156461
3.9044
1.78741
-1.70306
-9.08805
2.82715
3.83722
2.31261
3.67454
4.10941
3.56464
-9.26175
5.17365
-21.6418
2.37308
-6.43398
-8.19914
0.646937
-20.6702
2.52039
-10.4716
-10.07
-9.124
1.82046
2.03615
0.61832
-10.2564
3.8528
3.90474
2.96804
2.01626
-5.77859
0.546076
3.5244
0.979504
5.7078
7.48282
4.32949
-10.2417
8.21737
-13.24
3.89557
2.95216
3.5382
5.09216
-16.948
3.98524
-20.192
-17.081
1.40458
3.62229
-9.53875
-10.4166
3.92447
3.89501
4.01133
3.62039
5.11663
0.667393
-10.3203
2.13948
5.65837
-14.4332
1.73733
-0.856171
-7.36984
3.36428
1.3424
3.58958
0.741037
-15.4128
4.31868
-19.3265
2.48526
0.718748
4.67332
-13.0542
-13.2227
3.15541
5.96252
-17.6004
3.63747
0.928637
-4.5696
-10.0389
4.07393
4.81629
4.00129
0.392943
-10.6463
1.30229
4.06798
-10.5233
-9.10642
3.80131
3.15677
1.04125
5.80559
2.54322
-17.0664
1.58267
-15.2437
1.78814
3.71801
1.52822
-17.6291
2.90413
-11.5093
-5.2423
-6.03197
-10.43
-9.63166
5.23447
2.52937
-12.3099
-17.6692
1.85712
3.51633
1.84308
0.759094
2.96818
1.63504
1.96692
-2.86822
0.968443
0.59602
-7.43048
0.935593
1.99656
2.65169
-9.19651
3.86932
-11.7975
-10.9985
0.942663
3.11625
2.07824
2.88173
1.97479
-18.3444
4.09449
3.84007
1.79032
3.24273
-15.3396
-12.9884
2.97117
2.30376
1.05942
3.81125
1.34851
0.515204
5.16987
0.92221
0.0103467
-10.0116
3.81525
2.50738
-0.772488
2.16311
1.66795
2.76594
4.11605
2.0642
3.53499
-12.3492
2.46138
5.06651
-9.18084
1.26156
-1.65192
-6.88798
3.53238
2.16066
3.85019
-10.0183
2.51494
-13.1003
4.2127
-6.92992
-11.8378
-21.4204
-10.0096
4.05901
1.73787
-20.3924
-18.2841
0.911592
3.57521
4.05718
-10.6542
3.83317
2.53882
3.9538
4.47165
-2.05308
3.99077
1.14392
3.86891
-10.2799
-20.7634
5.26897
5.39802
5.44134
3.05841
1.96193
-6.00953
5.14969
-0.0182506
-12.6135
-21.3812
3.58757
-18.197
-9.69152
-20.5971
-10.5317
0.0461781
-10.9856
-11.7848
-8.85321
3.79337
-9.15588
4.30667
1.81991
4.96325
4.22879
-11.2843
-12.1021
-10.3868
-13.755
0.679986
2.84257
-3.42858
-11.4932
4.54227
-12.2518
3.74869
-20.6463
4.19441
-9.92466
-0.936005
0.857671
2.10642
-21.1307
1.8147
-0.375347
-20.362
3.32198
-9.13079
2.2149
2.78774
-7.31204
-3.31503
2.24357
-17.2007
-9.39134
5.35948
-17.7176
4.56447
3.7413
0.557283
0.91903
-11.2747
-11.1849
3.87367
-13.2637
2.53625
-20.3245
4.56913
3.5242
2.92831
-20.7914
-1.79872
-15.4447
2.64689
-9.49063
1.2907
-17.6592
-12.221
-0.84203
4.10377
-10.0903
3.37996
2.34354
3.42842
-16.5282
-11.8294
1.66554
-13.2338
2.30996
2.09306
-4.1758
2.74795
1.64945
-11.8274
4.15163
3.61412
4.59953
1.78868
3.11729
5.38062
-11.661
-10.5271
2.00011
4.54215
2.3094
-11.4248
-10.7059
1.74523
0.0199367
0.768606
-13.5428
-0.0104249
-2.00049
-10.2395
1.49635
-17.5955
-12.3497
1.62167
1.80522
4.33196
4.59597
1.45649
2.52965
0.931268
0.544523
-11.2629
2.82496
-12.7615
1.55749
-11.704
3.26174
-13.2744
-0.85287
-19.869
-9.86684
1.02635
-0.448758
3.19729
3.25177
3.01532
-9.54852
-9.0269
3.80299
3.70727
2.74106
3.5976
1.67084
2.26735
-12.505
-9.17843
-20.4755
-12.7746
4.46344
1.41631
-12.329
3.46035
-9.94909
3.58825
1.78811
0.862843
2.47901
1.75199
2.76229
1.75936
-0.619227
-12.1407
-10.248
5.00278
1.80084
-20.1021
1.49035
1.96798
-8.29062
-10.4857
-8.84094
2.85848
-21.1591
1.90761
4.56601
4.15715
1.59806
9.36146
-4.89225
-9.57479
3.53312
0.694873
-20.3717
2.39998
-11.2954
-8.76113
2.71985
0.232036
3.54964
0.794419
-13.557
1.02141
-10.082
0.791739
3.30091
0.856981
4.78914
0.198236
4.47207
2.69893
3.49542
1.41302
2.26877
-17.226
4.52212
-4.73459
2.34379
2.76588
3.11007
0.885127
1.9423
-0.621425
-11.1684
2.3841
-10.9175
6.12859
-17.9639
3.60543
4.26972
1.65711
1.41669
-9.56076
2.93198
2.95667
0.971057
-3.78506
3.93411
5.03741
4.5878
3.73503
-4.84351
1.81055
2.2981
-13.6713
1.86359
5.46544
2.65165
-10.8938
2.79127
-10.6105
-10.3803
4.12257
4.13913
3.75752
3.57649
-13.1746
3.44397
4.8281
3.12524
-17.6417
0.911962
4.11429
1.36493
-6.16546
-5.00963
0.982197
2.1046
-8.74874
3.92202
1.64975
-9.74913
2.60129
-1.87805
-10.8554
6.83487
-13.2927
3.65843
2.6684
4.60349
1.71522
-2.18485
-8.52327
2.93612
5.35257
-11.3239
2.96617
4.1335
3.82694
0.394117
-4.62218
1.46383
1.29975
5.64423
2.36405
1.31137
2.40261
0.873645
4.47017
-5.7648
-16.4066
1.34579
-10.3873
0.966181
-19.6434
-10.5711
-19.2958
-8.97306
4.39017
3.43801
-17.8691
4.02414
3.12626
-9.27416
2.55052
4.61575
-10.4772
-12.8849
3.1132
-8.99241
1.24015
-10.1563
1.0643
3.93213
0.84275
0.554896
-19.5561
2.87214
3.90435
0.259398
2.21734
-10.0582
0.0769168
2.27403
-10.3441
0.441515
-10.8602
0.520009
-13.2212
2.70423
4.16909
2.11071
4.74987
-19.9523
-8.40314
-20.1295
1.23868
-11.3116
-15.2246
4.62287
-20.517
-1.34776
3.81026
-21.0719
-9.67843
3.14105
0.91102
1.14321
-12.5793
1.56227
3.92371
-16.1301
-19.1865
0.458932
-12.8022
-14.0719
1.84222
0.722374
-3.56474
0.928394
-20.9216
0.948967
3.63068
1.77709
-7.09936
1.34798
-2.21145
-10.8561
1.48375
-2.27642
-1.7637
3.59166
-11.036
3.34876
-21.5052
3.67155
1.80132
2.50617
4.98928
2.02867
2.42187
3.75464
1.03611
4.04642
-10.9572
-19.7235
2.04968
-21.5895
1.43019
1.83211
2.7429
2.93849
2.66364
-8.60672
3.94824
-3.74499
-11.3754
-6.86228
-19.3975
4.53742
3.4494
-11.7251
3.18722
2.03351
2.55031
1.57956
2.13489
-9.34448
3.46271
4.09195
1.52731
0.793294
0.687133
-5.97219
-1.95322
-2.55192
-9.37925
2.0905
1.69291
4.40542
2.56623
1.5472
1.97374
0.809785
1.76509
5.22048
3.64998
3.93652
-2.83966
-11.4657
-9.64782
0.906526
4.02354
-1.99483
-8.87102
-9.46909
1.23495
2.07421
0.334819
3.63027
1.52241
0.896243
-8.88948
-1.96249
1.67206
2.25296
2.89797
0.854699
-10.8458
1.15738
2.8646
2.04551
2.47634
-9.85838
4.69703
-10.3906
4.33268
0.998763
0.835242
3.46316
-9.86053
-1.04897
2.83013
-12.5587
-19.9081
0.0243379
3.85788
2.39386
-15.3424
-13.3529
-12.9435
1.81472
-20.8481
3.87691
8.08942
-6.49287
-9.24653
1.62352
1.88821
-2.47483
-5.60677
4.3664
1.311
-9.47261
1.72319
4.53799
2.69128
3.52975
4.50519
5.0032
3.81564
3.78202
-10.5099
3.3728
1.42514
1.18101
3.38141
-0.648094
0.983242
-19.1055
-1.73947
-1.91979
4.11799
3.15021
3.26089
4.0817
2.63566
1.73624
-19.8059
3.89864
1.04332
4.52862
2.61267
2.33166
0.947791
3.80578
-11.7453
1.55866
-19.9125
2.81307
6.78397
3.31337
2.90815
3.92199
-10.593
3.35618
1.191
3.66963
3.9039
-15.0752
2.02798
3.4528
-10.4405
-12.2108
1.46365
-9.81115
4.0683
-18.4919
3.76365
-11.7913
3.90154
-3.46879
1.95973
-10.6077
0.529576
-13.4817
-9.02864
-9.60786
-0.0546302
-12.7306
1.84997
1.12708
1.79739
-10.3723
3.52464
1.0606
-21.2226
-10.0336
-10.2783
4.55325
-13.1551
0.874959
3.0188
1.61463
-1.2769
3.74846
-7.40112
2.74052
2.45011
4.68102
3.9554
3.95088
-11.5275
3.49996
4.93018
-10.0388
-1.45711
1.2424
1.94988
-9.23393
3.11336
3.22014
-11.4924
4.26246
0.607753
-3.83521
3.17076
0.712682
-21.2951
1.99372
3.84452
3.87025
1.53191
4.24987
2.46641
-11.7456
1.36603
-13.1675
0.40174
0.855651
-9.76783
-0.0903373
0.106747
3.86183
1.30418
2.34009
1.37516
-9.84864
-9.83782
3.60211
2.79342
2.2783
-15.24
0.946899
-1.95144
1.39519
0.844348
3.47443
4.58992
-2.81133
0.924264
-17.1136
-17.2981
3.64764
-12.3952
5.75428
-19.9289
-1.28622
1.56883
2.92092
0.956943
2.98563
2.77631
-14.5688
-1.98523
-10.2877
-9.4558
-21.149
3.14205
1.38133
-4.63142
1.46856
-3.68983
-12.4081
3.56551
-9.75042
-20.3231
-8.83143
3.69088
1.37026
2.04703
4.46421
-11.3482
3.95423
-11.1666
3.40129
4.08371
0.681865
-10.0815
-16.6468
2.27101
3.97254
4.67988
3.79206
2.70279
-1.91733
-20.6041
2.88531
1.70923
-11.0454
3.94045
-18.0614
3.80883
2.2985
4.67367
-9.84904
3.24213
2.00676
3.5473
3.69609
0.568971
2.4675
-9.59771
0.653743
2.06034
2.81914
1.86548
-20.8819
1.36131
1.20707
-8.0202
-10.1045
0.865501
-19.4222
4.01375
-8.91949
-21.4014
3.48826
0.617501
2.52879
2.34925
1.20207
-14.3477
-1.27702
6.1404
1.55422
-8.03506
-2.46153
-8.33232
-19.3715
-0.406126
4.46304
-10.292
0.885904
1.70889
1.90733
4.34612
-19.9335
-12.4086
3.2739
-19.57
2.78843
-20.6386
1.86017
-9.27832
-12.5463
-9.09921
3.86803
0.614374
3.70704
0.913299
-21.6418
-6.20274
3.93929
-1.58512
1.26357
-11.061
3.50827
-4.22877
-2.02119
-9.25263
0.855473
-16.9981
0.267179
-10.9305
-10.273
3.74722
1.00681
2.76187
5.35111
2.37215
-5.31337
3.85414
2.3666
-18.0935
1.23052
-0.0633078
0.496252
3.35302
4.35574
-19.64
-13.1636
0.35073
-15.9519
1.97276
3.71883
2.74966
-10.5636
-18.3224
-10.892
2.41869
3.23829
3.66382
-9.38401
0.347277
-1.51705
2.27488
-12.4918
2.41295
0.199116
-15.0063
3.39679
4.03113
0.960785
4.07709
2.17685
5.17934
0.255648
2.74974
3.30518
-11.5094
2.44783
-13.9424
-15.3712
0.265422
-7.60641
4.8971
-9.58381
4.59281
-13.4196
1.86734
3.26304
4.4196
4.74295
2.61997
-0.329711
5.70606
-21.1622
2.60708
3.24314
1.88984
-12.8911
3.23405
3.33971
2.73372
-13.431
2.21856
-8.85231
-4.93077
6.13432
5.18742
-3.19106
-18.8883
-19.9138
-2.21137
3.90264
0.991649
-18.3042
-11.2224
-10.2004
-12.7044
3.49145
2.83342
2.60434
0.348425
4.76734
3.63364
4.14591
1.38211
3.8123
-19.9711
3.2337
-12.8591
4.70747