/*--------------------------------*- C++ -*----------------------------------*\
  =========                 |
  \\      /  F ield         | OpenFOAM: The Open Source CFD Toolbox
   \\    /   O peration     | Website:  https://openfoam.org
    \\  /    A nd           | Version:  10
     \\/     M anipulation  |
\*---------------------------------------------------------------------------*/
FoamFile
{
    format      ascii;
    class       surfaceScalarField;
    location    "1050";
    object      phi;
}
// * * * * * * * * * * * * * * * * * * * * * * * * * * * * * * * * * * * * * //

dimensions      [0 3 -1 0 0 0 0];

internalField   nonuniform List<scalar> 
16133
(
1.81708
0.305193
-0.526124
-1.59631
-1.46806
1.19026
-1.47317
1.75094
-0.637889
-2.71433
2.06176
1.29047
-0.108429
-0.184335
-2.96862
3.26135
-1.12527
0.127403
5.06743
-4.06957
5.4572
1.63761
-6.94058
-0.154204
-2.7727
0.848931
1.66372
0.260058
-0.053314
-2.33108
0.621522
1.76288
-1.28395
1.88335
1.34391
-1.94328
0.52393
3.96959
-0.0724939
-4.421
2.44696
-2.087
1.3095
-1.66952
3.36306
-1.25159
1.08639
-3.19789
-0.188728
-4.10348
2.4129
1.87927
0.867977
-0.761081
0.619319
-0.726223
0.94747
0.67643
-0.755933
-1.21561
0.859394
-2.72153
3.07777
-0.642365
0.547124
-0.665849
-5.74614
1.27851
4.28076
0.186799
-3.27269
2.66683
-0.678095
0.163448
2.0593
-0.405674
-0.520913
2.01433
-1.70484
0.211431
-0.325413
-2.85934
3.07628
-3.09159
3.18302
-1.30704
4.37655
-3.55681
-0.0795568
-0.740173
-3.9633
4.75463
-0.267365
-0.00242628
0.00308203
-0.0705157
0.0698594
0.0279754
-0.00621551
-0.0182282
-0.00353227
-0.211505
-2.046
1.87112
0.386387
-0.0317107
0.0562126
-0.035075
0.0105732
-4.60961
2.83306
2.55538
-0.780715
-4.16263
2.38798
-1.67145
1.45603
2.66235
0.709168
-2.09453
1.33205
-0.0343543
0.168211
-0.0127749
-0.121082
-2.13673
-2.05904
2.17018
2.02561
-0.802473
1.18257
0.945103
-1.32522
-1.7754
-3.19407
2.83275
-0.0392313
0.0816801
-0.0953023
0.0528534
0.0423317
0.0877628
-0.0228048
-0.10729
-3.20433
0.593746
-0.662102
-4.84248
0.160388
-2.75441
-0.656171
-0.875449
-0.30851
0.0864841
1.09747
-0.550552
2.59068
0.24455
-2.2847
3.31289
-1.42694
-3.66135
1.87799
-0.705761
0.594556
0.0201772
-0.424455
-0.320243
0.602259
0.142436
1.50851
0.917685
-0.54283
2.98438
-2.79018
-0.519634
-1.21017
-1.64182
-4.82566
5.05864
-3.45091
3.21796
0.119669
0.0413107
-0.118648
-0.0233522
0.0364953
0.0542781
-0.0674212
-0.0161939
0.0491314
0.0548253
-0.0308469
-0.0218558
0.0209923
2.91819
-1.57778
-4.53447
-0.0531994
-0.0762965
0.114913
0.0145824
-0.540215
0.79619
-0.539491
0.283508
2.73715
0.0731074
0.0168508
0.0297109
1.15602
-1.16837
-1.45573
0.0763389
-0.0182917
0.0133848
-0.0714323
2.25579
-3.96631
3.51654
-1.806
1.52005
-1.29873
-3.3017
2.24727
-1.65988
-0.476553
-0.213607
0.149942
0.0178962
0.275721
-0.0481504
-0.245468
0.810319
1.82553
-3.04731
0.273361
-0.782854
0.0318483
0.00724234
-0.0624429
0.100903
-0.0263613
0.0097134
-0.0842553
-0.898785
0.408251
1.44102
-0.950481
1.67155
-2.77315
-2.20009
0.637409
-0.951056
1.26111
-0.714072
-0.943197
0.995512
0.661747
-3.44596
1.19758
-0.798949
-1.6331
1.02428
1.45775
-1.35596
1.22059
0.844548
1.20247
-1.09631
0.531237
3.27106
-3.11582
0.549699
-0.704982
1.67803
-1.48111
-0.425349
0.228419
0.0538273
0.117213
-0.12973
0.0448189
0.0639121
-0.0722357
3.62101
0.416589
-0.766561
-1.18146
0.98654
1.05485
-0.859937
1.43153
-1.23686
-1.01257
0.817898
2.52745
-2.17814
-0.899901
0.854984
-0.439361
0.467729
-0.883353
1.64504
-0.979751
0.766229
2.95219
0.521885
-0.946661
3.87928
-1.11149
1.87622
0.107
1.06101
-0.925021
0.718997
1.90712
-0.890406
0.628321
-1.34585
-0.638092
0.901364
3.29916
-0.321316
0.588773
-0.725092
-0.814741
0.797895
-0.398369
0.39666
-3.1691
3.49485
-0.527882
0.202081
1.00541
-0.855998
4.53387
-4.3439
1.05309
-1.24302
0.81069
-0.85466
0.583621
0.704636
4.79374
-0.964489
0.143931
2.06363
-0.0239563
0.496719
-0.628176
-0.266883
4.69041
-0.802539
1.24748
-0.536417
0.491393
0.154203
-2.54175
-0.402648
-3.96408
-1.50505
-1.33758
-0.475513
0.331973
-0.514028
0.423917
0.10481
-2.37261
-2.56121
-0.578536
3.30105
0.772281
1.22484
-2.02305
-1.22758
2.3507
-3.26474
-0.346108
3.03227
1.83363
1.97144
-0.504054
0.535437
-0.189308
-1.0602
1.42186
-1.17678
-0.696306
0.415972
1.58434
-1.30402
-2.60516
2.96869
1.64277
-2.00629
-0.0492716
0.115573
0.00689016
-0.0731922
-0.493486
0.657795
1.02894
-1.1513
4.73305
-3.83338
-0.0574702
0.048594
-0.0119359
0.0208122
1.19103
-1.22954
-2.23755
-2.03903
-2.05562
-0.963931
0.54405
-0.0158313
0.104304
0.0124312
-0.0572578
0.139771
0.0921977
-0.174711
-0.475987
0.56267
-1.43255
-0.364617
3.30461
-1.68746
-2.27027
-0.0463985
-0.295893
0.0849181
-2.87087
3.99933
-0.0601426
-0.154272
-0.26214
-0.702196
2.12464
-4.41324
2.99081
3.20837
0.82384
-0.866095
0.767616
-0.725369
1.30823
-1.36825
1.16477
-3.73464
-0.810585
0.707543
-0.539332
2.72497
1.15178
-4.57896
-0.496255
0.133987
-0.0621894
-1.22523
-4.0139
1.77433
-1.53422
3.34423
1.50537
4.60263
2.09363
-0.158532
0.0363441
0.280397
-0.15821
3.43831
1.41121
-1.88082
0.77619
-1.53138
1.56365
1.89464
-1.9269
4.87682
1.17922
-2.26092
-3.79512
-0.871536
0.52692
-2.71355
3.05804
3.53714
-3.50373
-0.300326
-0.461855
1.18655
3.30554
3.26113
-1.85281
1.42272
-1.66443
-3.26209
-0.219927
3.13586
-2.57333
1.85886
-1.32899
2.04345
-3.72749
-4.65208
-0.276097
-2.911
0.445549
-0.496519
-0.847815
0.00401758
0.00602621
-0.00719667
-0.0028476
-0.410072
0.508817
3.31778
-3.21348
1.04747
-1.18323
-1.82132
-1.40006
-0.659176
0.624504
-0.122001
0.156666
-2.30386
-0.284307
-0.0447392
0.113996
-0.0130446
-5.35703
-0.418774
-2.46374
1.24782
0.0973722
-0.0735367
-0.787442
-1.15746
2.10127
-2.57691
2.63671
3.48381
3.05644
2.88569
-2.16585
0.140699
0.0540507
-0.140922
-0.0651355
-0.00816592
0.741672
-1.50425
1.1944
-1.72014
1.80916
-2.15629
-0.517665
0.702586
-0.613655
-1.17131
0.0295666
1.63127
1.01128
0.152798
0.00371453
-0.195745
-2.72248
2.32225
0.181279
-1.023
1.22427
-2.08145
3.1408
-0.954597
-0.450985
0.0725939
0.0590047
-0.05526
3.30707
-0.236397
0.0125188
-0.272377
2.10017
1.32887
3.29465
0.022243
0.0097497
-0.821741
0.803058
-0.58925
1.26177
0.128111
-0.12485
-0.159827
0.156565
-0.0572642
0.0548377
0.473483
0.081072
-0.0709611
-0.0548502
0.670017
-0.242586
0.197067
0.262664
-0.138461
-0.184348
0.770953
-0.00993685
-1.17109
-0.0258871
-0.0889821
0.151768
-0.0368988
1.74583
0.0558078
-0.0604143
0.00460651
-0.423772
-1.07324
3.19509
-4.13975
0.98525
0.705432
0.459697
-0.440383
-0.141319
-1.7488
-0.00145641
0.974761
-3.80945
-0.0575953
0.057312
0.0243617
-0.0240783
-0.394203
-3.63927
-0.0909572
-0.0179876
0.0830573
-2.8345
-0.531417
-2.37771
4.48961
-1.99697
-0.0276982
-0.134128
0.0728435
0.23375
-0.288654
0.183015
-0.023862
-0.0432273
0.0362428
-1.39603
1.41067
-0.501169
1.59633
0.930411
-0.717588
0.00665866
-0.0167902
0.0101311
-0.93533
-1.70365
0.0213066
-0.0345196
0.0132134
1.14103
-3.66385
0.838882
0.960669
-0.445877
1.24576
0.0169337
0.00437296
0.366447
-0.16118
-0.196645
0.334345
0.171871
-0.636016
1.42227
-0.322382
-0.576683
3.2773
0.163636
-0.0605271
0.0375893
-0.490503
0.154403
-0.7417
0.988231
-1.72872
-0.402717
2.02766
-0.642614
3.36961
0.0505048
0.00433237
0.362351
-3.3657
1.13291
-0.584251
-1.59841
1.19688
0.736469
0.270231
-1.82762
1.31571
-0.159488
-0.0306434
0.0652809
5.43421
-0.0766084
0.045855
0.0761036
-0.0771397
-0.100552
0.147269
-2.01243
0.118563
0.0680264
-0.0994133
0.0262291
0.0307472
-0.0569763
-0.599384
-2.9091
3.64558
-0.392921
0.221938
0.206129
-1.6767
0.00648836
0.000170021
-1.02802
-3.31285
0.229817
0.044501
0.0836347
-0.0822808
-0.155326
-0.16175
-0.021563
-1.59373
-0.106441
-2.35376
-1.25394
-0.00829048
0.12688
0.273324
-0.138924
-0.669727
-0.0288483
0.0281284
-0.0175721
0.0534326
0.152881
-0.152263
-0.260976
-1.72029
-2.9066
0.0471697
0.00333504
0.156731
-1.71862
0.0338687
0.977132
-0.0309479
0.0448863
0.0602532
0.0712235
-0.0869756
0.494199
0.147967
-0.0196696
0.027482
-0.0381304
-0.00999908
0.0101426
-0.134798
0.218513
-0.09649
0.000226038
0.0122885
0.0489332
-0.00176368
0.00267758
-0.0098747
0.158822
0.0306488
0.00458451
-0.0108717
-0.163313
1.32823
-0.970794
0.863158
0.0169358
-0.0914801
-0.0160904
0.231497
-0.297241
-0.452859
0.703225
0.546781
-1.3038
-1.08794
-0.0234169
0.0344677
-0.0498398
0.0329227
-0.065082
-0.00673865
0.0170958
0.00568307
-0.00115527
0.0500885
-0.0838598
-0.0565774
1.35756
-0.011344
0.0419227
-1.75052
0.453229
-1.16388
-0.506571
-0.0836029
0.00434345
-0.0204339
-0.0471005
0.016764
-0.0446973
0.0562041
-0.0158494
0.456305
-0.620773
-0.763919
0.731494
-0.0676584
-1.26457
-0.329374
-0.0536824
-0.029699
-1.25016
-0.959203
-0.026721
-0.0401763
0.0299869
0.122265
-0.418736
0.0405396
0.0189995
-0.0507991
0.96013
-0.0178016
0.0243963
0.00520672
0.00125988
3.21569
0.105824
-0.195273
-0.719982
-0.186678
-0.717496
-0.00436518
0.121621
-0.117255
-0.00872963
0.127089
-0.122724
-0.013035
0.138724
-0.134418
-0.0176673
0.148492
-0.143859
-0.0224831
0.158385
-0.153569
-0.0276469
0.167315
-0.162151
-0.0330443
0.17606
-0.170663
-0.0387504
0.184382
-0.178676
0.192474
-0.18675
-0.0444743
-0.0037028
0.125324
-0.00767947
0.131066
-0.0115371
0.142581
-0.0156734
0.152628
-0.0199057
0.162617
-0.0244339
0.171843
-0.0291761
0.180802
-0.0341724
0.189379
0.197724
-0.0394224
-0.00336671
0.128691
-0.00674783
0.134447
-0.0100954
0.145929
-0.0136504
0.156183
-0.0173107
0.166278
-0.0212001
0.175733
-0.0252804
0.184883
-0.0295811
0.193679
0.202257
-0.0341138
-0.00301143
0.131702
-0.00583791
0.137274
-0.00864196
0.148733
-0.0115974
0.159139
-0.0146697
0.16935
-0.017935
0.178998
-0.0213757
0.188324
-0.0250267
0.19733
0.206159
-0.0289288
-0.00260553
0.134309
-0.00487673
0.139545
-0.00711808
0.150974
-0.009479
0.1615
-0.0119548
0.171826
-0.0146037
0.181647
-0.0174312
0.191151
-0.0204705
0.20037
0.209437
-0.0237484
-0.00207719
0.136385
-0.00380119
0.141269
-0.00548977
0.152663
-0.00726727
0.163277
-0.00915094
0.17371
-0.0111899
0.183686
-0.0133889
0.19335
-0.0157794
0.20276
0.212054
-0.0183956
-0.00128514
0.137671
-0.00253338
0.142518
-0.00371765
0.153847
-0.00495629
0.164516
-0.00626236
0.175016
-0.0076872
0.185111
-0.00925619
0.194919
-0.0109892
0.204493
0.213985
-0.0129203
-0.000229592
0.1379
-0.00111865
0.143407
-0.00185233
0.154581
-0.00257183
0.165235
-0.00331523
0.175759
-0.00414302
0.185938
-0.00507935
0.195855
-0.0061538
0.205568
0.21517
-0.00733852
0.000739263
0.137161
0.000229297
0.143917
-2.23405e-05
0.154832
-0.000216218
0.165429
-0.00039544
0.175938
-0.000621401
0.186164
-0.000937476
0.196171
-0.00135637
0.205986
0.215717
-0.00190409
0.00129333
0.135868
0.00129746
0.143912
0.00163443
0.154495
0.00202104
0.165042
0.00242533
0.175534
0.0027747
0.185815
0.00304551
0.1959
0.00321014
0.205822
0.215649
0.00327823
0.00146715
0.1344
0.00211073
0.143268
0.00311214
0.153493
0.00409718
0.164057
0.00506785
0.174563
0.00596018
0.184922
0.00676589
0.195095
0.00745402
0.205133
0.215096
0.00800744
0.00154914
0.132851
0.00290578
0.141911
0.00450923
0.15189
0.00602949
0.162536
0.0074833
0.173109
0.00885956
0.183546
0.0101338
0.19382
0.011312
0.203955
0.21411
0.012298
0.00199666
0.130854
0.00395466
0.139953
0.00593411
0.14991
0.00781531
0.160655
0.00962669
0.171298
0.0113547
0.181818
0.0129951
0.19218
0.0145313
0.202419
0.212658
0.015983
0.00275304
0.128102
0.00510874
0.137597
0.00729088
0.147728
0.00938297
0.158563
0.0114085
0.169272
0.0133507
0.179875
0.015207
0.190323
0.0169569
0.200669
0.211
0.0186148
0.00343597
0.124666
0.00609299
0.13494
0.00840269
0.145418
0.0105989
0.156366
0.0127262
0.167144
0.0147838
0.177818
0.0167529
0.188354
0.0186073
0.198814
0.20924
0.020367
0.00377287
0.120893
0.00667319
0.13204
0.00907317
0.143018
0.0113379
0.154102
0.0135238
0.164958
0.015633
0.175708
0.0176467
0.18634
0.0195438
0.196917
0.207444
0.0213396
0.00348893
0.117404
0.00662744
0.128902
0.00916743
0.140478
0.0115394
0.15173
0.0137991
0.162699
0.0159587
0.173549
0.0179935
0.184306
0.019903
0.195007
0.205707
0.0216401
0.00277583
0.114629
0.00600584
0.125672
0.00874581
0.137738
0.0112765
0.149199
0.0136458
0.160329
0.0158733
0.171321
0.0179509
0.182228
0.0198706
0.193088
0.203964
0.0216134
0.00215932
0.11247
0.00525693
0.122574
0.00810138
0.134893
0.010768
0.146532
0.0132574
0.15784
0.0155824
0.168996
0.0177374
0.180073
0.0197282
0.191097
0.202123
0.0215687
0.00180774
0.110662
0.00468142
0.1197
0.00751266
0.132062
0.0102524
0.143792
0.0128376
0.155254
0.0152622
0.166571
0.0175141
0.177821
0.019584
0.189027
0.200245
0.0214618
0.00163978
0.109022
0.0043461
0.116994
0.00712365
0.129285
0.00989236
0.141024
0.0125579
0.152589
0.0150921
0.164037
0.0174741
0.175439
0.0196683
0.186833
0.198296
0.0216172
0.0016661
0.107356
0.00428323
0.114377
0.00701071
0.126557
0.00978523
0.138249
0.0125256
0.149848
0.0151877
0.161375
0.0177392
0.172887
0.0201142
0.184458
0.196119
0.0222918
0.00199353
0.105362
0.00452349
0.111847
0.00719425
0.123887
0.00996364
0.13548
0.0127872
0.147025
0.0156096
0.158553
0.0184041
0.170093
0.0210302
0.181831
0.193834
0.023315
0.00262063
0.102742
0.00502772
0.10944
0.00762772
0.121287
0.0104151
0.132692
0.0133454
0.144095
0.0163469
0.155551
0.0194512
0.166988
0.0223917
0.178891
0.191819
0.0244058
0.00332831
0.00547852
0.00811664
0.0110793
0.0142517
0.0175401
0.0212154
0.0253948
0.0305358
-0.0949466
-0.00126271
0.0962093
-0.0935078
-0.00143876
-0.0918719
-0.00163598
-0.0900153
-0.00185653
-0.0879219
-0.00209346
-0.0855761
-0.00234585
-0.0829666
-0.00260947
-0.0800906
-0.002876
-0.0769436
-0.00314697
-0.0735294
-0.0034143
-0.0698515
-0.00367781
-0.06592
-0.00393151
-0.0617492
-0.0041707
-0.0573535
-0.00439562
-0.0527545
-0.00459887
-0.0479724
-0.00478216
-0.0430337
-0.00493853
-0.0379661
-0.0050675
-0.0328043
-0.00516174
-0.0275893
-0.00521489
-0.022375
-0.0052142
-0.0172341
-0.00514085
-0.0122474
-0.00498662
-0.00746394
-0.00478337
-0.00281336
-0.00465045
0.001851
-0.00466428
0.00667272
-0.00482158
0.0117958
-0.005123
0.0172279
-0.00543191
0.022841
-0.005613
0.0285266
-0.00568547
0.0342131
-0.00568633
0.0398495
-0.00563632
0.0453868
-0.00553714
0.050778
-0.00539105
0.0559815
-0.00520339
0.0609577
-0.00497609
0.0656696
-0.00471179
0.0700892
-0.00441946
0.074194
-0.00410479
0.0779754
-0.00378124
0.0814369
-0.00346152
0.084593
-0.00315584
0.0874757
-0.00288281
0.0901441
-0.00266818
0.0926714
-0.00252724
0.0951069
-0.00243529
0.0974802
-0.00237329
0.0997939
-0.00231358
0.102041
-0.00224692
0.104213
-0.0021721
0.106295
-0.00208133
0.108273
-0.00197819
0.110127
-0.00185439
0.111845
-0.00171739
0.113418
-0.00157268
0.114839
-0.00142096
0.116117
-0.00127796
-0.0011379
-0.0925739
-0.00274092
0.0940521
-0.09097
-0.00304259
-0.0892327
-0.00337329
-0.0873514
-0.00373781
-0.0853209
-0.00412396
-0.0831284
-0.00453842
-0.0807685
-0.00496941
-0.0782277
-0.00541675
-0.0754971
-0.00587765
-0.0725648
-0.00634656
-0.0694209
-0.00682186
-0.0660578
-0.00729461
-0.0624676
-0.00776097
-0.0586526
-0.00821057
-0.0546131
-0.0086385
-0.0503541
-0.00904117
-0.045885
-0.00940764
-0.0412189
-0.00973359
-0.036368
-0.0100127
-0.0313469
-0.0102359
-0.0261635
-0.0103976
-0.0208066
-0.0104978
-0.015243
-0.0105501
-0.00943571
-0.0105906
-0.00342441
-0.0106617
0.00269183
-0.0107804
0.00881857
-0.0109483
0.0148545
-0.0111589
0.020796
-0.0113734
0.0267006
-0.0115175
0.0325795
-0.0115643
0.03841
-0.0115168
0.044154
-0.0113803
0.0497791
-0.0111621
0.0552504
-0.0108623
0.0605394
-0.0104924
0.0656214
-0.010058
0.0704832
-0.00957365
0.0751135
-0.00904962
0.0795106
-0.00850198
0.0836767
-0.00794727
0.0876148
-0.00739959
0.0913395
-0.0068806
0.0948579
-0.00640121
0.0981606
-0.0059709
0.101228
-0.00559486
0.104053
-0.00526011
0.106627
-0.00494753
0.108957
-0.00464325
0.111048
-0.00433817
0.112921
-0.00404514
0.114602
-0.00376207
0.116111
-0.0034876
0.117475
-0.00321853
0.11871
-0.00295241
0.11984
-0.00270237
0.120876
-0.00245748
0.121833
-0.00223474
-0.00202889
-0.100272
-0.00438892
0.10192
-0.0984936
-0.00482075
-0.0965788
-0.00528814
-0.0945262
-0.0057904
-0.0923208
-0.00632937
-0.0899547
-0.00690459
-0.0874143
-0.00750973
-0.0846886
-0.00814249
-0.0817625
-0.00880379
-0.0786249
-0.00948416
-0.0752668
-0.0101799
-0.0716814
-0.0108801
-0.0678634
-0.011579
-0.0638076
-0.0122665
-0.0595109
-0.0129352
-0.0549786
-0.0135735
-0.0502087
-0.0141776
-0.0452083
-0.014734
-0.0399821
-0.0152389
-0.0345342
-0.0156839
-0.028864
-0.0160678
-0.0229723
-0.0163895
-0.0168632
-0.0166593
-0.0105596
-0.0168942
-0.00410836
-0.017113
0.00244189
-0.0173307
0.0090407
-0.0175472
0.0156327
-0.0177509
0.0221716
-0.0179123
0.0286491
-0.017995
0.0350598
-0.0179751
0.0413856
-0.0178426
0.047602
-0.0175968
0.0536788
-0.0172389
0.0595932
-0.0167767
0.0653211
-0.0162203
0.0708428
-0.0155796
0.0761444
-0.0148753
0.0812173
-0.0141226
0.0860524
-0.0133371
0.0906489
-0.0125438
0.0950058
-0.0117565
0.0991202
-0.010995
0.102985
-0.010266
0.106598
-0.00958407
0.109946
-0.00894285
0.113029
-0.00834249
0.115855
-0.00777368
0.118443
-0.00723175
0.120808
-0.00670355
0.122957
-0.00619316
0.124901
-0.00570619
0.126663
-0.00525014
0.128262
-0.00481762
0.12972
-0.00440969
0.131049
-0.00403132
0.132271
-0.00368016
0.133391
-0.00335484
-0.00305534
-0.106772
-0.00607285
0.108456
-0.104954
-0.00663823
-0.102989
-0.00725349
-0.100866
-0.00791274
-0.0985792
-0.00861666
-0.0961161
-0.00936768
-0.0934668
-0.0101591
-0.0906158
-0.0109935
-0.0875576
-0.011862
-0.084282
-0.0127597
-0.0807814
-0.0136806
-0.0770417
-0.0146198
-0.0730585
-0.0155621
-0.0688205
-0.0165046
-0.0643261
-0.0174296
-0.0595665
-0.0183332
-0.0545428
-0.0192012
-0.0492547
-0.0200222
-0.0437041
-0.0207895
-0.037894
-0.021494
-0.031829
-0.0221329
-0.0255159
-0.0227026
-0.0189685
-0.0232067
-0.0122143
-0.0236485
-0.00529159
-0.0240357
0.00175051
-0.0243729
0.00885684
-0.0246535
0.0159749
-0.024869
0.0230632
-0.0250007
0.030095
-0.0250268
0.0370496
-0.0249297
0.0439067
-0.0246997
0.0506419
-0.0243321
0.0572333
-0.0238303
0.0636539
-0.0231974
0.0698847
-0.0224512
0.0759081
-0.021603
0.0817002
-0.0206675
0.0872478
-0.0196702
0.0925422
-0.0186315
0.0975717
-0.0175733
0.102327
-0.0165116
0.106798
-0.015466
0.110977
-0.0144456
0.114854
-0.0134605
0.118431
-0.0125202
0.121706
-0.0116177
0.124695
-0.0107625
0.127407
-0.00994362
0.129871
-0.00916777
0.132104
-0.00842559
0.134122
-0.00772477
0.135942
-0.00706984
0.137591
-0.00646706
0.13909
-0.00590795
0.140454
-0.0053953
0.141695
-0.0049215
0.142825
-0.00448454
-0.00409006
-0.116071
-0.00790197
0.1179
-0.114082
-0.00862698
-0.11193
-0.00940527
-0.109605
-0.0102379
-0.107097
-0.0111252
-0.104397
-0.0120676
-0.101492
-0.0130643
-0.098377
-0.0141082
-0.0950407
-0.0151983
-0.0914732
-0.0163273
-0.0876653
-0.0174884
-0.0836089
-0.0186763
-0.0792951
-0.0198759
-0.0747196
-0.0210802
-0.069872
-0.0222771
-0.0647508
-0.0234544
-0.0593534
-0.0245986
-0.0536769
-0.0256987
-0.0477262
-0.0267402
-0.0415024
-0.0277179
-0.0350166
-0.0286187
-0.02828
-0.0294392
-0.021312
-0.0301747
-0.0141382
-0.0308224
-0.00679501
-0.0313789
0.000674088
-0.031842
0.00822434
-0.0322038
0.0158111
-0.0324558
0.0233935
-0.0325831
0.0309368
-0.0325701
0.0384108
-0.0324038
0.0457861
-0.0320751
0.0530337
-0.0315797
0.0601287
-0.0309253
0.0670472
-0.0301159
0.0737594
-0.0291634
0.0802437
-0.0280873
0.0864811
-0.0269049
0.0924518
-0.0256409
0.0981429
-0.0243227
0.103536
-0.022966
0.108625
-0.0216008
0.113398
-0.0202395
0.117854
-0.0189013
0.121991
-0.0175976
0.125808
-0.0163373
0.129318
-0.0151279
0.132529
-0.0139735
0.135458
-0.0128728
0.138125
-0.0118341
0.140556
-0.010857
0.142773
-0.00994177
0.144796
-0.00909241
0.14663
-0.00830156
0.148296
-0.00757406
0.149808
-0.00690692
0.151182
-0.00629556
0.152434
-0.00573628
-0.00522527
-0.124859
-0.00981295
0.126769
-0.122783
-0.010703
-0.120535
-0.0116529
-0.118101
-0.0126713
-0.115468
-0.0137586
-0.112629
-0.0149064
-0.109571
-0.016122
-0.106283
-0.0173965
-0.102753
-0.0187287
-0.098973
-0.0201071
-0.0949319
-0.0215295
-0.090622
-0.0229862
-0.0860321
-0.0244658
-0.0811548
-0.0259576
-0.0759857
-0.0274462
-0.0705206
-0.0289196
-0.0647566
-0.0303626
-0.0586998
-0.0317556
-0.0523498
-0.0330903
-0.0457152
-0.0343525
-0.0388035
-0.0355304
-0.0316323
-0.0366105
-0.0242211
-0.037586
-0.0165983
-0.0384451
-0.00879986
-0.0391774
-0.000866521
-0.0397753
0.00715885
-0.0402292
0.015235
-0.040532
0.0233216
-0.0406697
0.0313808
-0.0406293
0.0393787
-0.0404017
0.0472791
-0.0399755
0.055051
-0.0393516
0.062666
-0.0385404
0.0700916
-0.0375416
0.0773037
-0.0363756
0.0842752
-0.0350588
0.0909733
-0.033603
0.0973807
-0.0320484
0.103476
-0.0304181
0.109248
-0.0287379
0.11468
-0.0270326
0.119768
-0.0253277
0.124505
-0.0236383
0.128895
-0.0219873
0.132941
-0.0203837
0.136653
-0.0188401
0.140046
-0.0173661
0.143141
-0.0159676
0.145957
-0.0146505
0.148521
-0.0134207
0.150851
-0.0122717
0.152967
-0.0112083
0.154889
-0.0102233
0.156635
-0.00932025
0.158217
-0.00848947
0.159654
-0.00773256
0.160964
-0.00704553
-0.00641245
-0.135025
-0.0118515
0.137064
-0.132807
-0.0129213
-0.130398
-0.0140616
-0.127788
-0.0152816
-0.124965
-0.0165812
-0.121915
-0.0179566
-0.118628
-0.0194095
-0.115089
-0.020935
-0.111295
-0.0225229
-0.107229
-0.024173
-0.102886
-0.0258723
-0.098258
-0.0276146
-0.0933325
-0.0293913
-0.0881041
-0.031186
-0.082568
-0.0329823
-0.0767223
-0.0347653
-0.0705619
-0.036523
-0.0641004
-0.0382171
-0.0573367
-0.039854
-0.0502821
-0.0414071
-0.0429419
-0.0428705
-0.0353361
-0.0442163
-0.0274859
-0.0454362
-0.0194145
-0.0465165
-0.0111651
-0.0474268
-0.00277438
-0.048166
0.00571257
-0.0487162
0.0142608
-0.0490802
0.0228312
-0.0492402
0.0313831
-0.0491812
0.0398836
-0.0489022
0.0482857
-0.0483776
0.056556
-0.0476219
0.0646655
-0.0466499
0.0725748
-0.045451
0.0802628
-0.0440636
0.0876986
-0.0424946
0.0948324
-0.0407369
0.101654
-0.0388702
0.108141
-0.0369044
0.114281
-0.0348784
0.120057
-0.0328091
0.125466
-0.0307364
0.130501
-0.0286728
0.135169
-0.0266561
0.139476
-0.0246904
0.143433
-0.0227966
0.14705
-0.0209837
0.150352
-0.0192694
0.15336
-0.0176588
0.156093
-0.0161531
0.158581
-0.0147602
0.16084
-0.0134669
0.162893
-0.012277
0.164759
-0.0111861
0.166455
-0.0101857
0.167996
-0.00927351
0.169394
-0.00844353
-0.00768059
-0.14535
-0.0140029
0.147501
-0.143018
-0.015253
-0.14049
-0.0165895
-0.137743
-0.0180293
-0.134768
-0.0195555
-0.131545
-0.0211798
-0.128072
-0.0228828
-0.124322
-0.0246847
-0.120281
-0.0265645
-0.115963
-0.0284907
-0.111344
-0.0304907
-0.106416
-0.0325427
-0.101173
-0.034635
-0.0956018
-0.0367568
-0.0897036
-0.0388806
-0.0834688
-0.0410001
-0.0768951
-0.0430968
-0.0700199
-0.0450923
-0.0628395
-0.0470343
-0.0553585
-0.0488881
-0.047576
-0.0506531
-0.0395238
-0.0522685
-0.0312259
-0.0537341
-0.022676
-0.0550664
-0.0139572
-0.0561456
-0.00509134
-0.0570319
0.00385944
-0.057667
0.0128855
-0.0581062
0.0219416
-0.0582963
0.0309827
-0.0582223
0.0399907
-0.0579103
0.0488866
-0.0572735
0.0576416
-0.0563769
0.0662544
-0.0552626
0.0746358
-0.0538324
0.0828012
-0.0522289
0.0907355
-0.050429
0.0983061
-0.0483074
0.105546
-0.0461099
0.112435
-0.0437941
0.118957
-0.0413998
0.125104
-0.0389561
0.130843
-0.0364758
0.136187
-0.0340163
0.141165
-0.0316345
0.14574
-0.0292656
0.149958
-0.0270148
0.153814
-0.024839
0.15731
-0.0227654
0.160485
-0.0208343
0.163369
-0.0190373
0.165989
-0.0173798
0.168366
-0.0158442
0.170523
-0.0144339
0.172481
-0.0131442
0.174261
-0.0119651
0.175872
-0.0108846
0.177339
-0.00991129
-0.00901715
-0.156842
0.15909
-0.0162517
-0.154375
-0.0177199
-0.151692
-0.0192724
-0.14876
-0.0209614
-0.145579
-0.022736
-0.142115
-0.0246444
-0.138359
-0.0266385
-0.134345
-0.0286984
-0.130042
-0.0308682
-0.125355
-0.0331773
-0.120399
-0.0354471
-0.115116
-0.0378254
-0.109458
-0.040293
-0.103514
-0.0427003
-0.0971908
-0.0452042
-0.0906014
-0.0475895
-0.0836722
-0.0500259
-0.076373
-0.0523914
-0.0686985
-0.0547089
-0.0607576
-0.056829
-0.0525111
-0.0588996
-0.0440524
-0.0607272
-0.0353365
-0.06245
-0.0263044
-0.0640986
-0.0171109
-0.0653391
-0.00778429
-0.0663585
0.00159425
-0.0670455
0.0111022
-0.0676141
0.0206744
-0.0678686
0.030157
-0.0677048
0.0396638
-0.0674172
0.0490549
-0.0666646
0.0582456
-0.0655676
0.0673614
-0.0643784
0.0762517
-0.0627227
0.0848968
-0.060874
0.0931826
-0.0587148
0.101091
-0.0562162
0.108801
-0.0538194
0.11609
-0.0510832
0.122999
-0.0483088
0.129561
-0.0455176
0.135685
-0.0426003
0.141402
-0.0397336
0.146716
-0.0369487
0.151605
-0.0341539
0.156088
-0.0314987
0.160166
-0.0289171
0.16396
-0.026559
0.167404
-0.0242781
0.170511
-0.0221441
0.173316
-0.020185
0.175842
-0.0183701
0.178158
-0.0167505
0.180258
-0.0152435
0.182152
-0.0138596
0.183866
-0.0125983
0.185354
-0.0113988
-0.010414
-0.0671386
0.0101621
-0.0761196
0.0089809
-0.0839111
0.00779153
-0.0905082
0.00659702
-0.096377
0.00586895
-0.10194
0.00556257
-0.107288
0.00534881
-0.112452
0.00516339
-0.117433
0.00498175
-0.121857
0.00442406
-0.125125
0.0032679
-0.126944
0.00181849
-0.127386
0.000442069
-0.126849
-0.000536258
-0.125919
-0.000929756
-0.124889
-0.00103007
-0.123635
-0.00125378
-0.121835
-0.00180012
-0.119326
-0.00250853
-0.116253
-0.00307327
-0.112817
-0.00343592
-0.109103
-0.00371382
-0.105128
-0.00397524
-0.100928
-0.00420038
-0.00471826
-0.0710595
0.0187787
-0.0794559
0.0173773
-0.087352
0.0156875
-0.0948201
0.0140651
-0.101809
0.0128577
-0.108254
0.0120077
-0.114184
0.0112789
-0.119554
0.010533
-0.124166
0.00959423
-0.127882
0.00813942
-0.130741
0.00612697
-0.132767
0.00384524
-0.133939
0.00161379
-0.134199
-0.000276122
-0.133507
-0.00162188
-0.131973
-0.00256416
-0.129796
-0.00343065
-0.127165
-0.0044316
-0.124158
-0.00551504
-0.1207
-0.00653154
-0.116704
-0.0074316
-0.112126
-0.00829208
-0.106909
-0.00919233
-0.10089
-0.0102191
-0.0115564
-0.0771524
0.0285098
-0.0863777
0.0266024
-0.0951219
0.0244316
-0.103377
0.0223202
-0.110992
0.0204725
-0.117858
0.0188736
-0.123938
0.017359
-0.129177
0.0157722
-0.133513
0.0139298
-0.137019
0.0116453
-0.139812
0.00892065
-0.141934
0.00596677
-0.143376
0.00305618
-0.144068
0.000415466
-0.14388
-0.0018098
-0.142758
-0.00368666
-0.140791
-0.00539761
-0.138128
-0.00709391
-0.134865
-0.0087783
-0.130997
-0.0103995
-0.126491
-0.0119381
-0.121328
-0.0134547
-0.115508
-0.0150125
-0.109027
-0.0166999
-0.018664
-0.0830332
0.0393072
-0.0931208
0.0366899
-0.10261
0.0339209
-0.111484
0.0311936
-0.119629
0.0286183
-0.126942
0.026186
-0.133362
0.0237788
-0.138856
0.0212669
-0.143428
0.0185017
-0.147159
0.0153761
-0.150151
0.0119121
-0.152445
0.00826078
-0.154014
0.00462511
-0.154792
0.00119397
-0.154671
-0.00193153
-0.153601
-0.00475656
-0.151614
-0.00738409
-0.148805
-0.00990344
-0.145234
-0.0123485
-0.140931
-0.0147027
-0.135877
-0.016992
-0.130072
-0.0192602
-0.123518
-0.0215663
-0.116254
-0.0239643
-0.0264623
-0.0888737
0.0510412
-0.0998678
0.0476841
-0.110134
0.0441873
-0.119657
0.0407161
-0.128353
0.0373139
-0.13615
0.0339829
-0.142998
0.0306274
-0.148884
0.0271526
-0.153829
0.0234468
-0.157897
0.0194446
-0.161164
0.0151789
-0.163662
0.0107584
-0.165359
0.00632211
-0.166197
0.0020318
-0.166111
-0.00201715
-0.165049
-0.00581889
-0.163022
-0.00941122
-0.160091
-0.0128339
-0.156311
-0.0161285
-0.151717
-0.0192968
-0.146335
-0.0223741
-0.140198
-0.0253969
-0.133362
-0.0284029
-0.125908
-0.0314184
-0.0344701
-0.0947699
0.0635303
-0.106634
0.0595484
-0.117676
0.0552288
-0.127876
0.0509161
-0.137168
0.0466062
-0.145511
0.0423256
-0.152856
0.0379727
-0.159206
0.0335027
-0.164588
0.0288288
-0.169042
0.0238988
-0.172628
0.018765
-0.175356
0.0134863
-0.177202
0.00816818
-0.178121
0.00295001
-0.178046
-0.00209166
-0.176959
-0.0069061
-0.174869
-0.0115014
-0.171801
-0.015902
-0.16781
-0.0201188
-0.162932
-0.0241755
-0.15721
-0.028096
-0.150681
-0.0319256
-0.143389
-0.0356946
-0.135387
-0.0394211
-0.0430875
-0.100568
0.0771232
-0.113417
0.0723965
-0.125276
0.0670885
-0.1362
0.0618395
-0.146141
0.0565475
-0.155085
0.0512695
-0.162969
0.0458564
-0.169821
0.0403549
-0.17566
0.034668
-0.18052
0.0287582
-0.184445
0.0226906
-0.187443
0.016484
-0.18947
0.0101949
-0.190484
0.00396378
-0.190458
-0.00211703
-0.189367
-0.00799714
-0.187216
-0.013652
-0.184038
-0.0190801
-0.179872
-0.0242848
-0.174778
-0.0292703
-0.168797
-0.0340771
-0.161989
-0.0387333
-0.154388
-0.0432954
-0.146055
-0.0477543
-0.0520788
-0.106438
0.0920809
-0.120322
0.0862805
-0.132989
0.0797558
-0.144667
0.0735179
-0.155296
0.0671766
-0.164887
0.0608598
-0.173337
0.054307
-0.180704
0.0477213
-0.187029
0.0409935
-0.192301
0.0340298
-0.19657
0.0269592
-0.199866
0.0197801
-0.202093
0.0124222
-0.203235
0.00510626
-0.203273
-0.00207928
-0.202186
-0.00908448
-0.19999
-0.015848
-0.196709
-0.022361
-0.192385
-0.028609
-0.18708
-0.0345754
-0.180845
-0.0403114
-0.173755
-0.0458235
-0.16581
-0.0512403
-0.157046
-0.0565188
-0.0616233
-0.11276
0.108352
-0.127457
0.100977
-0.14082
0.0931194
-0.153271
0.0859689
-0.164629
0.0785342
-0.174937
0.071168
-0.183967
0.0633369
-0.191858
0.0556124
-0.198681
0.0478161
-0.204398
0.0397473
-0.20899
0.0315508
-0.212573
0.0233636
-0.215048
0.0148969
-0.21632
0.0063786
-0.21643
-0.00196929
-0.215366
-0.0101493
-0.213125
-0.0180886
-0.209771
-0.0257144
-0.205287
-0.0330933
-0.199724
-0.0401387
-0.193229
-0.0468062
-0.18584
-0.053213
-0.177553
-0.0595265
-0.168647
-0.065425
-0.07118
1.3825
1.73674
0.259041
-1.9958
0.21495
0.345522
-0.560473
0.278065
-0.375636
0.0975706
0.343199
-0.409372
0.0661733
-0.423595
-0.512694
0.936289
-0.442377
0.750746
-0.30837
2.13093
-2.24779
0.116848
-0.037986
-0.202958
0.240944
5.00119
-3.3933
-1.60789
-0.859065
1.81791
-0.958842
-0.819607
0.272641
0.546967
1.16656
-1.89002
0.72346
-1.17003
0.245582
0.924446
0.115775
-0.117746
0.00197048
4.44249
-4.25618
-0.186288
-0.364936
0.579911
0.13601
-0.0270502
-0.10896
-0.0508633
-0.0738449
0.347776
0.197254
-0.545029
-0.344095
0.223701
0.120394
2.91406
1.88457
-4.79863
-0.508791
0.824297
-0.315506
1.25827
-0.994596
-0.26367
-0.942388
0.325942
0.616446
1.08962
0.168644
-1.16557
0.759678
0.405895
-0.992364
0.172159
0.820205
4.73223
-2.63769
-2.09454
-0.0286311
-0.146655
0.175286
0.19621
0.490029
-0.68624
-0.413371
-0.35503
0.768375
0.800974
0.711022
-1.512
2.72498
-4.94259
2.21762
-0.291967
-0.0751493
0.367116
0.13591
1.42404
-1.55995
-0.89846
-0.271568
-2.71454
1.27939
1.43515
-0.341951
0.643274
-0.301323
1.85647
-1.57503