/*--------------------------------*- C++ -*----------------------------------*\
  =========                 |
  \\      /  F ield         | OpenFOAM: The Open Source CFD Toolbox
   \\    /   O peration     | Website:  https://openfoam.org
    \\  /    A nd           | Version:  10
     \\/     M anipulation  |
\*---------------------------------------------------------------------------*/
FoamFile
{
    format      ascii;
    class       volVectorField;
    location    "1050";
    object      U;
}
// * * * * * * * * * * * * * * * * * * * * * * * * * * * * * * * * * * * * * //

dimensions      [0 1 -1 0 0 0 0];

internalField   nonuniform List<vector> 
10435
(
(1.60443 0.395768 7.11764e-23)
(1.71359 0.954653 2.54314e-23)
(3.61629 -0.274981 -2.25249e-20)
(2.33809 0.172558 3.02952e-20)
(3.47044 0.424716 -2.42961e-20)
(4.04303 -0.205687 1.98486e-19)
(3.50863 -0.254812 -7.82965e-20)
(3.04722 -0.253178 3.70946e-20)
(2.6871 -0.251607 1.05371e-19)
(3.95014 -0.354107 -5.74595e-20)
(2.18983 0.938104 -1.96744e-20)
(2.97436 -0.158324 9.39507e-20)
(3.87099 -0.339017 6.50067e-20)
(0.856825 0.613059 -1.96345e-21)
(0.941589 0.644012 -2.63415e-21)
(3.28635 -0.263827 -5.81349e-21)
(0.776503 0.560359 7.19027e-22)
(3.91317 -0.40215 2.30947e-19)
(2.53672 -0.244345 -3.69813e-20)
(1.73366 0.318131 -3.08952e-21)
(3.17926 -0.256218 3.01252e-20)
(2.28338 0.000559596 -4.52094e-20)
(3.42086 -0.273028 2.37761e-19)
(2.64381 -0.280204 -4.55828e-20)
(3.8609 -0.332263 6.5203e-20)
(0.233308 0.385203 1.00138e-22)
(0.0455318 0.114148 5.12951e-22)
(3.75824 -0.297239 5.13994e-20)
(0.219551 -0.026919 -1.3273e-22)
(3.94424 -0.389482 2.89794e-19)
(3.57699 -0.252088 9.80209e-20)
(2.46334 0.907877 -4.47112e-21)
(2.94831 -0.25508 -7.32975e-20)
(0.462998 0.0011403 -4.48439e-22)
(2.95779 -0.252176 4.75744e-20)
(1.22515 0.942337 -2.73182e-21)
(3.09287 -0.256066 7.41576e-20)
(0.153408 0.299948 -2.63116e-21)
(0.365497 0.362779 -4.89316e-23)
(2.58373 -0.237697 1.20744e-20)
(3.9679 -0.40841 -3.18403e-19)
(3.52091 -0.27029 -6.55642e-20)
(0.577051 0.645404 -1.32145e-21)
(1.99536 0.323843 -3.4664e-20)
(3.27531 -0.257108 -1.65699e-19)
(2.62173 -0.251981 7.68577e-20)
(4.03098 -0.322446 -2.36348e-19)
(0.428219 0.523271 -2.72835e-21)
(2.65573 -0.271371 2.96422e-20)
(2.22234 -0.146714 -1.53213e-20)
(3.06825 -0.256085 -6.13955e-21)
(3.86053 -0.17192 8.53958e-19)
(0.405964 0.382061 1.09127e-22)
(0.306264 -0.125564 -7.00235e-23)
(0.324943 0.36964 -6.65409e-23)
(0.16889 -0.0636575 3.35032e-22)
(2.95115 -0.255292 -2.09205e-19)
(0.158996 0.232617 -8.12373e-22)
(0.667274 0.324097 2.26281e-22)
(2.80912 -0.244614 1.22898e-19)
(0.364732 0.392589 1.36536e-23)
(1.5194 0.953273 -7.26188e-21)
(0.17371 0.135732 1.17078e-21)
(3.75166 -0.0574097 -6.93109e-20)
(3.36569 -0.272284 -3.22462e-19)
(3.69908 -0.30236 1.82908e-19)
(0.606376 0.203127 -2.81376e-23)
(0.335809 0.299131 -3.05236e-21)
(3.15381 -0.25219 -5.30303e-20)
(2.61475 -0.304932 3.27712e-21)
(0.25852 -0.152373 1.61042e-22)
(0.18049 0.367826 -7.96614e-23)
(0.660005 0.719815 1.47321e-20)
(3.62742 -0.289742 -2.28881e-19)
(1.02951 0.657936 -1.21251e-21)
(0.7004 0.768662 1.62584e-21)
(2.58632 -0.325562 1.81579e-19)
(3.44301 -0.243547 1.8566e-19)
(2.86813 -0.259613 9.7249e-21)
(1.121 0.559419 5.39918e-21)
(2.4005 -0.272844 1.80219e-20)
(1.54214 0.348497 4.33125e-22)
(0.44515 0.401439 8.09214e-23)
(0.347258 -0.104635 3.52321e-23)
(2.47199 -0.309255 -3.68435e-20)
(1.18099 0.837943 2.03062e-20)
(1.36134 0.700452 2.37732e-21)
(1.97734 0.517934 6.72276e-21)
(1.0516 0.771446 -4.98789e-22)
(1.49096 0.663797 -2.04144e-21)
(2.17049 0.463801 -4.58972e-21)
(2.40217 0.39541 -7.49259e-21)
(1.65518 0.265012 1.41488e-21)
(1.14115 0.759608 6.31115e-21)
(1.63682 0.619708 2.27645e-21)
(1.11603 0.935186 7.86569e-21)
(2.59318 0.284611 9.36126e-20)
(0.95738 0.734255 1.8277e-21)
(0.756779 0.42167 -8.86478e-22)
(2.91144 0.288764 -1.07883e-19)
(1.00188 0.753985 4.34405e-21)
(3.74362 0.473667 -9.35548e-20)
(1.24321 0.733404 -4.32351e-21)
(1.79958 0.569692 -4.25502e-22)
(3.88664 0.297772 -6.27706e-21)
(2.16295 0.25263 -4.25369e-22)
(1.77165 0.175138 6.129e-22)
(2.31987 -0.221867 1.99659e-20)
(2.53633 -0.3224 -5.22386e-20)
(1.21883 0.533002 -1.38828e-21)
(2.1169 -0.0734975 -5.91845e-21)
(3.55939 0.670622 -3.83242e-20)
(1.43145 0.420725 -1.71261e-21)
(1.32431 0.486113 -1.17558e-21)
(2.72879 0.422231 -5.85277e-20)
(2.1465 0.0809614 1.24434e-20)
(3.04651 0.162224 -6.72227e-20)
(1.29499 0.824729 5.15626e-22)
(1.958 0.727388 -2.63403e-20)
(2.87992 0.0310166 -1.64264e-20)
(3.13074 0.0546389 -2.08802e-19)
(0.718206 0.812671 2.00951e-21)
(1.4258 0.808428 -1.25463e-20)
(0.891277 0.950852 -2.48447e-20)
(2.79812 1.10483 4.46604e-21)
(0.304947 0.394134 -1.55536e-22)
(2.7531 0.139309 1.03761e-19)
(0.769696 0.86871 -3.01371e-21)
(3.28301 0.280699 -1.42034e-19)
(0.0758572 0.303624 3.2545e-22)
(0.826026 0.914331 8.11098e-21)
(2.5045 1.1604 -4.8043e-20)
(3.15807 -0.257066 -7.70335e-20)
(1.02814 0.562954 3.6348e-21)
(0.157723 0.336132 6.93191e-25)
(0.579256 0.481214 6.8387e-23)
(1.04949 1.01225 2.54517e-20)
(2.49756 0.0713524 -3.62798e-21)
(1.75809 0.758517 7.13392e-21)
(2.00638 0.158574 9.51682e-21)
(1.86811 0.238302 5.81046e-22)
(3.46247 -0.254082 -3.58646e-19)
(0.537384 0.111443 1.18968e-21)
(3.46982 -0.125502 6.78949e-19)
(2.40984 -0.0841519 7.10177e-21)
(0.827791 0.800071 1.24878e-20)
(0.9648 0.985858 -7.97719e-21)
(3.93623 -0.0926259 -2.53187e-19)
(0.724406 0.636166 4.08704e-21)
(3.25925 -0.179309 4.03416e-20)
(0.376553 0.493749 1.01384e-21)
(3.17199 -0.254167 1.38516e-19)
(1.55052 0.52297 2.10812e-22)
(3.36892 -0.182967 3.04674e-19)
(3.95958 -0.240837 -2.20033e-19)
(0.318902 0.44705 -4.10889e-22)
(3.07339 0.986971 1.0977e-19)
(1.58013 0.78569 5.79418e-21)
(3.98584 -0.303766 -1.98641e-19)
(1.92426 1.16854 -6.05735e-21)
(3.33798 -0.238578 -5.74941e-20)
(0.941763 0.541627 -8.76273e-22)
(2.44171 0.628517 6.47297e-20)
(2.70298 -0.231663 5.42352e-20)
(1.13154 0.640093 3.94201e-21)
(3.35924 0.115845 5.41677e-19)
(2.88402 -0.256424 -1.18273e-19)
(2.74318 -0.0997837 -4.85289e-20)
(2.82165 -0.278264 8.47607e-20)
(3.54554 -0.0338943 -1.04432e-18)
(3.86394 -0.304412 2.17591e-19)
(0.629921 0.656072 -5.06377e-21)
(0.0286443 0.0395677 -5.39188e-22)
(0.892475 0.811696 8.8898e-22)
(3.08646 -0.235852 -1.44181e-19)
(1.67046 1.14192 4.65674e-21)
(1.35678 0.948533 1.90453e-20)
(0.5362 0.50393 1.06347e-21)
(2.00595 0.00335737 3.36337e-21)
(0.272997 0.0174358 8.33029e-23)
(1.93827 0.949927 7.41249e-21)
(4.04155 -0.0715177 -3.26945e-20)
(3.15852 -0.165377 -3.45516e-19)
(0.349842 0.408777 -3.77201e-23)
(3.38574 -0.245084 4.94132e-20)
(0.531748 0.618089 3.96168e-21)
(0.662636 0.747261 -1.17672e-20)
(3.36774 -0.23867 -1.48084e-19)
(3.6659 0.301043 5.53522e-20)
(3.66951 -0.146205 -5.34247e-19)
(3.09801 -0.0540954 4.73767e-20)
(0.480432 0.422326 1.21881e-22)
(0.102545 0.334482 -2.99385e-22)
(1.15408 1.0387 -2.34373e-20)
(3.3338 0.838441 6.77516e-20)
(3.25645 -0.23976 8.22263e-21)
(0.687311 0.704434 1.00145e-20)
(1.0826 0.845742 -7.39463e-21)
(0.478771 0.526973 4.46599e-21)
(3.20278 -0.25963 1.17277e-19)
(1.08755 0.705272 -4.32828e-21)
(0.216857 0.353143 -1.63922e-22)
(3.82355 -0.315791 -1.55849e-20)
(0.204951 0.308782 -4.76411e-22)
(3.74497 -0.307887 -5.70357e-20)
(2.88643 0.539828 -1.23569e-21)
(2.18058 0.689785 4.18674e-20)
(2.6339 -0.0256137 -2.99569e-20)
(0.24473 0.120847 6.86724e-22)
(2.51743 -0.157038 -2.41208e-20)
(0.43502 0.524714 -7.70439e-22)
(3.50845 -0.2763 -3.14953e-19)
(3.29098 -0.057085 5.57515e-19)
(2.82239 -0.232791 3.8757e-20)
(0.0763373 0.0960692 -7.21885e-23)
(0.798766 0.68813 -1.12408e-20)
(1.25271 0.587866 1.246e-21)
(0.451399 0.472859 -3.47636e-23)
(0.221448 0.372094 -4.19898e-22)
(0.85664 0.493265 6.51611e-22)
(0.321651 -0.0176143 6.77712e-24)
(0.600784 0.470409 9.61426e-22)
(0.446959 0.147193 -3.75878e-23)
(0.888995 0.868753 -2.55338e-20)
(0.260531 0.409006 -2.80983e-22)
(3.06939 -0.25447 -3.50014e-20)
(0.277275 0.365008 7.8506e-22)
(1.00028 0.841232 1.90531e-21)
(3.68196 -0.23615 6.167e-19)
(0.761487 0.82546 -1.2725e-20)
(0.471096 0.384975 -8.14053e-22)
(2.96967 -0.251269 1.42289e-19)
(0.25148 0.370129 1.33883e-21)
(3.09153 -0.249546 1.56123e-19)
(0.0624425 0.229841 -1.46785e-21)
(0.689516 0.498105 -1.28053e-21)
(2.85801 -0.267712 -1.66094e-19)
(0.226313 0.391794 2.81895e-22)
(2.80752 -0.280702 -9.99744e-21)
(3.72443 -0.289732 3.54121e-21)
(1.8379 0.39249 9.4463e-21)
(0.309276 0.421107 -3.19119e-23)
(0.483862 0.508732 2.9154e-23)
(0.21957 -0.0865969 -6.79677e-24)
(2.66278 0.611887 -1.25422e-19)
(2.79769 -0.260601 3.74007e-20)
(1.02408 0.923793 -2.95753e-20)
(3.22598 -0.239792 4.41413e-20)
(0.08008 -0.0564414 -5.14587e-22)
(1.45575 1.10505 -4.86102e-21)
(0.144783 -0.114659 -6.9831e-22)
(1.19673 0.671929 -4.61011e-21)
(3.88654 -0.361799 -1.15751e-19)
(2.61016 -0.209173 -4.54401e-20)
(3.31055 -0.226623 -1.25266e-19)
(3.60323 0.117875 2.49907e-19)
(0.0903939 -0.088383 2.03062e-21)
(3.37768 -0.234901 1.82578e-19)
(0.394071 0.485131 5.48206e-23)
(0.299434 0.407746 -2.56639e-22)
(3.44918 -0.238642 9.46753e-21)
(3.82394 -0.269241 7.45245e-22)
(0.27571 0.401956 -6.79122e-23)
(2.64303 -0.306758 -1.17477e-19)
(1.36306 0.530725 6.58728e-22)
(0.568011 0.361683 1.7577e-21)
(1.68854 0.459773 1.2902e-21)
(3.53985 -0.279563 1.9516e-19)
(0.429201 0.43203 -1.29976e-23)
(3.07476 0.431509 2.41534e-20)
(3.50942 -0.241894 5.70679e-23)
(3.09489 -0.24355 -2.23988e-20)
(3.24289 -0.233747 -1.70332e-20)
(3.81634 -0.336557 -2.41629e-19)
(0.189181 0.376169 8.1015e-22)
(2.96677 -0.0386077 -8.27154e-20)
(0.118557 0.296184 1.31947e-21)
(3.24903 0.617189 1.99389e-20)
(3.29644 -0.250313 4.66403e-20)
(3.00892 -0.254142 8.50982e-21)
(3.88136 -0.359581 1.2757e-19)
(0.605354 0.61732 -1.14507e-20)
(3.57268 -0.253133 -5.98933e-21)
(0.951005 0.826361 -2.31604e-21)
(1.30268 0.629898 -2.23743e-21)
(0.504209 0.473255 -8.04742e-23)
(3.80326 0.130437 3.95785e-20)
(0.307892 0.353007 -7.10643e-23)
(0.391489 -0.0830059 1.93697e-22)
(0.387331 0.00142369 -1.15085e-22)
(0.941754 0.902269 2.74479e-20)
(2.20563 1.18465 3.45572e-20)
(0.315918 0.0858527 -4.35661e-22)
(3.16373 -0.237945 4.48455e-20)
(0.350316 0.337662 -7.35035e-23)
(0.219649 -0.155841 -1.83221e-21)
(0.766212 0.763556 5.85121e-23)
(1.48156 0.467049 5.86311e-22)
(2.99668 0.759548 -4.07329e-21)
(3.70251 -0.29401 1.32592e-19)
(0.402034 0.410689 -1.01046e-21)
(2.77556 -0.296487 -3.91861e-20)
(3.63312 -0.265386 -2.04899e-21)
(0.0516815 -0.0242058 -6.3675e-22)
(2.73277 0.865643 -3.29184e-20)
(0.872583 0.721892 6.16768e-21)
(0.647234 0.569821 5.4143e-21)
(3.00007 -0.259225 -9.79233e-21)
(3.7019 -0.300666 -1.62515e-21)
(0.434633 -0.0666557 -1.04292e-22)
(1.88814 0.0877538 2.32557e-21)
(0.220467 0.374354 5.75347e-22)
(1.2838 1.07047 1.14865e-20)
(3.88484 0.0323277 -1.25307e-19)
(2.77247 -0.245987 -1.99013e-20)
(0.183643 -0.137925 -4.28166e-22)
(0.369287 0.431793 -6.13144e-23)
(3.51995 -0.210117 -6.40503e-19)
(0.412238 0.275861 -2.85417e-23)
(2.84661 -0.142386 6.32939e-20)
(3.98183 0.0970675 -5.04668e-20)
(0.155647 0.0667762 -1.25782e-21)
(1.42233 0.57979 -5.57959e-22)
(0.515845 0.444615 3.38507e-22)
(2.91425 -0.255879 -4.36641e-21)
(3.82464 -0.335461 -5.36255e-20)
(0.164079 0.375898 4.09494e-22)
(3.68873 -0.275521 -2.83104e-22)
(0.501036 0.249228 -5.74172e-22)
(0.107074 0.231578 1.95401e-21)
(2.73516 -0.239557 9.60838e-22)
(0.469313 0.0527017 2.45187e-22)
(0.472461 -0.0525753 -6.52072e-23)
(3.58741 -0.263886 6.97764e-21)
(3.19872 -0.230494 1.39806e-19)
(0.221083 0.218211 2.20192e-21)
(0.173607 -0.120727 -7.24936e-22)
(0.0933977 -0.077878 -4.05291e-22)
(0.520856 -0.0126603 -7.87822e-24)
(0.057917 0.0113425 -1.15057e-22)
(0.141109 0.366568 -1.02903e-21)
(0.238608 0.401199 -2.85725e-22)
(0.400356 0.408896 4.9869e-23)
(0.0236247 0.0447375 7.28706e-22)
(0.0355874 0.00878131 -9.56085e-22)
(0.303413 0.436976 1.24067e-22)
(0.28565 0.202181 -4.89154e-22)
(0.0140189 0.188788 2.19349e-22)
(0.546378 0.463325 -2.27835e-22)
(2.82751 -0.263789 -2.25097e-20)
(0.501448 -0.035936 -5.94761e-23)
(3.80068 -0.33347 6.93549e-21)
(0.0225958 0.0814991 -2.34659e-22)
(3.74831 -0.285348 -1.12751e-21)
(2.84898 -0.262303 1.03016e-20)
(2.62702 -0.267633 -7.22601e-21)
(3.84861 -0.318426 -3.67766e-21)
(3.56265 -0.279809 -1.41561e-19)
(0.263557 -0.105863 -1.99062e-22)
(0.408964 -0.0419944 4.31863e-22)
(0.129111 -0.0971317 2.85518e-23)
(0.264533 0.380908 -2.38161e-22)
(0.0924562 -0.0146072 -9.5868e-24)
(0.468588 0.453051 4.86215e-23)
(0.106521 0.0600188 6.69314e-22)
(0.119333 0.352532 -5.94162e-22)
(0.270663 0.312796 4.33595e-21)
(2.96948 -0.230876 -1.07819e-20)
(0.126796 0.355313 4.58959e-22)
(2.75183 -0.265203 2.45024e-20)
(0.290092 0.37372 -1.54137e-22)
(0.0995382 0.331775 8.4421e-22)
(3.84577 -0.332698 -3.0305e-20)
(2.54371 -0.276349 -2.01453e-20)
(0.534572 0.50157 1.20252e-21)
(0.0194989 0.127475 -7.94694e-22)
(0.119546 0.149385 -7.53296e-22)
(0.0323785 0.159069 9.04622e-23)
(0.357151 -0.0580673 -2.03166e-22)
(0.197195 0.382712 -2.34193e-23)
(0.012253 0.170077 1.04308e-21)
(0.329334 0.382098 1.46081e-22)
(2.94239 -0.255933 -7.37089e-21)
(0.357586 0.175713 4.35296e-22)
(3.13534 -0.243012 4.86475e-21)
(2.77515 -0.26284 3.42126e-20)
(3.80242 -0.296545 -7.33559e-22)
(3.84099 -0.311646 5.66973e-20)
(2.70732 -0.262803 -1.45322e-20)
(3.69741 -0.285383 -1.64589e-20)
(2.86439 -0.244368 -2.72553e-20)
(0.822454 0.866976 7.56152e-22)
(0.526017 0.588547 -1.49187e-21)
(0.265404 -0.0567099 -3.93323e-22)
(0.212881 -0.132189 1.23989e-22)
(3.6444 -0.275416 2.20607e-20)
(0.306719 -0.0834558 5.42128e-22)
(3.86597 -0.34461 -1.34158e-19)
(0.0161092 0.194853 -1.08341e-22)
(0.2103 0.0463538 7.55009e-23)
(0.0747664 0.299471 -1.81054e-22)
(0.392218 0.0708529 -1.93127e-23)
(0.390858 0.460225 -1.225e-22)
(3.41801 -0.256017 2.58245e-19)
(0.080315 0.165963 3.62372e-22)
(3.04049 -0.249052 1.93362e-21)
(2.92446 -0.274819 -5.00855e-20)
(0.519933 0.547824 -1.12065e-22)
(0.167867 0.375086 -3.89295e-23)
(0.0529941 0.231303 3.28298e-22)
(2.5324 -0.272865 2.68088e-20)
(0.0669586 0.270238 -8.49883e-22)
(0.145593 0.366172 5.86819e-23)
(0.323171 0.436736 4.87503e-22)
(0.131574 -0.0375778 -9.00932e-23)
(0.338566 0.412722 -1.47408e-21)
(0.137194 0.0213738 -2.9533e-23)
(3.67892 -0.288221 1.28598e-19)
(0.204247 -0.15759 -4.43551e-23)
(0.189907 0.37511 -2.80821e-22)
(0.175754 0.00288634 1.70914e-22)
(0.557057 0.046401 -7.30859e-22)
(3.83691 -0.369275 -1.00852e-19)
(0.609183 0.564876 2.16953e-21)
(0.591938 0.507586 -4.37315e-21)
(2.4433 -0.269721 -3.05905e-20)
(0.456733 -0.0317314 4.17399e-23)
(0.451479 -0.390094 1.05348e-21)
(0.475965 -0.383679 -6.72064e-23)
(0.530245 -0.391085 -5.76246e-22)
(0.567596 -0.398094 3.03746e-22)
(0.606489 -0.403472 -3.28808e-22)
(0.638012 -0.407042 -9.97281e-22)
(0.668313 -0.409453 2.19189e-22)
(0.694701 -0.411172 2.89335e-22)
(0.720899 -0.411232 2.99413e-22)
(0.484258 -0.379876 -6.89723e-22)
(0.508547 -0.375444 -5.42664e-23)
(0.559753 -0.381378 4.74857e-22)
(0.597273 -0.388674 -8.46716e-22)
(0.634287 -0.394158 7.65524e-22)
(0.665251 -0.398522 1.27169e-21)
(0.694223 -0.401589 -8.02096e-22)
(0.720008 -0.403851 8.21086e-22)
(0.743822 -0.404846 -4.07951e-22)
(0.518329 -0.363768 1.9021e-21)
(0.540144 -0.36111 4.53784e-22)
(0.588561 -0.366995 -9.60883e-22)
(0.625422 -0.374735 4.80796e-22)
(0.660939 -0.380655 -1.18102e-21)
(0.691301 -0.385711 -1.64813e-22)
(0.719295 -0.389506 -3.55698e-23)
(0.744326 -0.392491 -4.1042e-22)
(0.767284 -0.394597 -6.23842e-22)
(0.550582 -0.343781 -8.54794e-22)
(0.569711 -0.342238 2.23142e-22)
(0.615754 -0.348596 7.06532e-22)
(0.651839 -0.356928 4.39457e-23)
(0.686133 -0.363433 5.1698e-22)
(0.715905 -0.369115 1.42884e-21)
(0.743145 -0.373543 -8.57487e-22)
(0.767643 -0.377114 1.32116e-22)
(0.790276 -0.379857 3.07675e-22)
(0.580416 -0.320542 1.55454e-22)
(0.596596 -0.31959 -1.40712e-22)
(0.640492 -0.326725 2.75358e-23)
(0.67589 -0.335626 -2.54502e-22)
(0.709273 -0.342811 1.37439e-22)
(0.738623 -0.3491 -3.24379e-22)
(0.76541 -0.354123 1.19505e-22)
(0.789679 -0.358223 5.23745e-22)
(0.812373 -0.361264 1.07634e-22)
(0.607012 -0.294726 1.26556e-22)
(0.620208 -0.293906 -4.15288e-22)
(0.662205 -0.302077 7.71091e-23)
(0.697158 -0.311357 5.88076e-22)
(0.729944 -0.319205 -1.93177e-22)
(0.759059 -0.326055 -2.73977e-22)
(0.785621 -0.331668 -1.03302e-22)
(0.809851 -0.336325 -8.4852e-22)
(0.832517 -0.340116 4.1499e-22)
(0.6287 -0.268011 7.82685e-23)
(0.64019 -0.26615 3.09093e-22)
(0.68063 -0.275399 8.04747e-23)
(0.715433 -0.284622 -2.80215e-22)
(0.747875 -0.292984 5.97466e-23)
(0.776916 -0.30028 -5.54793e-23)
(0.803418 -0.306419 2.22447e-22)
(0.827695 -0.311598 -2.07151e-22)
(0.850444 -0.316035 -1.49019e-22)
(0.643888 -0.240644 -1.44162e-22)
(0.656969 -0.236784 2.6375e-22)
(0.696032 -0.246966 -4.18729e-23)
(0.730755 -0.255675 8.47855e-23)
(0.762945 -0.26436 -1.02905e-22)
(0.792004 -0.271969 3.39582e-22)
(0.818566 -0.278543 4.35865e-22)
(0.842975 -0.284229 -5.20889e-22)
(0.865973 -0.28877 1.56195e-22)
(0.653081 -0.209369 2.567e-23)
(0.671235 -0.204766 4.50208e-23)
(0.708738 -0.216073 9.13569e-24)
(0.74315 -0.224335 -1.14641e-22)
(0.775052 -0.23332 -4.08225e-23)
(0.80417 -0.241163 -9.2045e-23)
(0.830881 -0.248072 -5.10164e-23)
(0.855535 -0.254051 5.33603e-22)
(0.878625 -0.25924 -4.89443e-23)
(0.658225 -0.172028 -1.67694e-23)
(0.682606 -0.168868 -2.18411e-22)
(0.718299 -0.181887 -8.53175e-23)
(0.75227 -0.190335 5.68488e-23)
(0.783956 -0.199776 -4.51768e-23)
(0.813246 -0.207825 1.63791e-22)
(0.840249 -0.214921 3.08176e-23)
(0.865263 -0.220986 3.17857e-22)
(0.888712 -0.226057 -2.98101e-23)
(0.660327 -0.130103 6.2399e-23)
(0.689677 -0.129546 3.02446e-23)
(0.723636 -0.14471 3.25426e-23)
(0.7575 -0.153903 1.09665e-22)
(0.789327 -0.163842 -3.82771e-23)
(0.819054 -0.171994 -2.78362e-23)
(0.846597 -0.179082 -1.02999e-22)
(0.872246 -0.184972 -3.77879e-22)
(0.896323 -0.189824 -6.96037e-23)
(0.660127 -0.0867001 -1.02409e-22)
(0.691426 -0.0893561 1.53655e-22)
(0.724051 -0.106218 -8.66904e-23)
(0.758493 -0.115901 7.04529e-23)
(0.790984 -0.1259 -1.33029e-23)
(0.821468 -0.133806 2.3756e-22)
(0.849779 -0.140566 2.75489e-23)
(0.876208 -0.146 -1.96538e-22)
(0.901135 -0.151039 -1.45356e-22)
(0.656329 -0.0457609 -1.23158e-23)
(0.686858 -0.0514972 -3.15559e-23)
(0.720038 -0.0680647 9.51362e-24)
(0.755619 -0.0772062 5.13249e-23)
(0.789126 -0.0863236 -3.3921e-23)
(0.820554 -0.0933399 -4.65456e-23)
(0.849744 -0.099206 -8.80256e-23)
(0.876983 -0.103882 1.66594e-22)
(0.90296 -0.107773 -9.38575e-23)
(0.645665 -0.00838323 5.89909e-24)
(0.678102 -0.0153863 -6.90352e-24)
(0.712888 -0.0301968 -3.11206e-23)
(0.749642 -0.0378133 9.18377e-23)
(0.784176 -0.0451267 -1.69035e-23)
(0.816539 -0.0505614 -9.82926e-24)
(0.846605 -0.054913 -6.91349e-23)
(0.874673 -0.0582114 7.74664e-24)
(0.901209 -0.0602267 6.54297e-23)
(0.629768 0.0279812 1.82459e-23)
(0.665925 0.0206991 1.30067e-23)
(0.70306 0.00840966 1.89634e-22)
(0.740946 0.00284748 -2.85894e-22)
(0.776368 -0.0020855 3.21532e-23)
(0.809536 -0.00545491 1.07403e-22)
(0.840399 -0.00785343 7.66357e-23)
(0.869299 -0.00927872 1.12435e-22)
(0.896615 -0.00959071 -4.10436e-22)
(0.60857 0.0650736 -5.04196e-23)
(0.65039 0.0579128 -1.44775e-22)
(0.690444 0.0487816 -2.96899e-22)
(0.729433 0.0453745 4.08744e-22)
(0.765592 0.0429725 1.39626e-22)
(0.799409 0.0418506 -7.44658e-23)
(0.830928 0.0416144 -1.22246e-23)
(0.860453 0.0422985 3.30066e-22)
(0.888132 0.0436488 -1.37968e-22)
(0.583484 0.104498 8.82249e-23)
(0.630642 0.0975231 -2.28422e-22)
(0.6743 0.0915579 3.14772e-22)
(0.714511 0.0899692 -2.06878e-22)
(0.751401 0.0898452 -2.30228e-22)
(0.785815 0.0908784 9.05327e-22)
(0.817926 0.0928012 -6.15767e-22)
(0.848011 0.0956947 -2.64134e-22)
(0.876501 0.098628 5.75658e-23)
(0.558493 0.144401 -8.10414e-23)
(0.606421 0.138575 3.15031e-22)
(0.653685 0.135716 -1.56826e-22)
(0.69543 0.135758 2.44773e-22)
(0.733265 0.137641 6.07715e-23)
(0.768382 0.140696 -7.35971e-22)
(0.801114 0.144721 6.47341e-23)
(0.831719 0.149692 -3.70226e-22)
(0.860669 0.15497 -4.95323e-22)
(0.535122 0.181511 8.34325e-24)
(0.579679 0.177734 -6.46602e-23)
(0.628948 0.178711 -1.39373e-22)
(0.672155 0.180858 -7.18691e-22)
(0.711058 0.184858 1.90136e-22)
(0.746982 0.189963 3.106e-22)
(0.780391 0.196052 3.79398e-22)
(0.811599 0.202958 4.89417e-22)
(0.841067 0.210403 -2.41606e-22)
(0.512062 0.215084 1.17225e-23)
(0.551767 0.213442 2.85047e-23)
(0.601418 0.218659 5.31586e-22)
(0.645432 0.223617 -4.15598e-23)
(0.685191 0.230071 2.85714e-22)
(0.721834 0.237428 -1.93405e-22)
(0.755854 0.245679 -1.51828e-21)
(0.787548 0.254632 -2.45992e-22)
(0.817317 0.264002 -9.77511e-24)
(0.488526 0.245921 1.15188e-23)
(0.52312 0.245828 -4.61903e-22)
(0.572152 0.254891 3.15036e-22)
(0.61614 0.263083 -4.96729e-22)
(0.656324 0.272244 3.84946e-22)
(0.693436 0.282035 -6.93107e-23)
(0.727935 0.292528 4.11653e-22)
(0.760138 0.303494 3.98342e-22)
(0.790229 0.315334 -1.22773e-22)
(0.46437 0.273645 -1.03253e-22)
(0.493644 0.274899 4.99453e-22)
(0.54175 0.287109 -8.76627e-22)
(0.584964 0.298761 1.72596e-22)
(0.625053 0.310726 -1.02973e-21)
(0.662257 0.323052 3.20779e-22)
(0.69699 0.335812 1.32165e-22)
(0.72972 0.348727 -1.87407e-22)
(0.75967 0.363626 -1.32387e-22)
(0.439556 0.296343 -2.13599e-22)
(0.463619 0.300613 -4.42078e-22)
(0.51087 0.315436 4.12053e-22)
(0.552658 0.33069 5.13366e-22)
(0.592111 0.345383 6.7736e-22)
(0.62895 0.360176 -6.13882e-23)
(0.663557 0.375038 -2.27542e-22)
(0.696597 0.389896 7.80214e-22)
(0.726618 0.407089 -2.14787e-21)
(0.413422 0.313484 -1.30926e-22)
(0.432947 0.322729 3.32771e-22)
(0.47884 0.339627 -9.09662e-23)
(0.518567 0.358246 1.79007e-22)
(0.556878 0.375407 -4.70443e-22)
(0.593017 0.392631 -1.90434e-22)
(0.62727 0.409506 9.95414e-22)
(0.660922 0.426353 -1.06236e-21)
(0.691608 0.448056 1.62128e-21)
(0.385783 0.326983 -3.32598e-22)
(0.404007 0.344951 3.01857e-23)
(0.448742 0.364848 2.15901e-22)
(0.486606 0.385321 -2.1362e-22)
(0.523447 0.403951 4.32883e-23)
(0.557969 0.422449 -4.19568e-22)
(0.590931 0.440005 3.83297e-22)
(0.625813 0.456547 -2.67944e-22)
(0.658212 0.4799 1.21785e-23)
(0.355379 0.317903 -2.76336e-22)
(0.348579 0.315599 -3.31846e-22)
(0.341509 0.312339 -1.00278e-21)
(0.333673 0.308494 1.41527e-21)
(0.324963 0.303927 -1.07055e-21)
(0.315312 0.298606 8.08568e-22)
(0.304665 0.29249 3.21685e-22)
(0.292989 0.285536 -7.75597e-23)
(0.280284 0.277709 -5.94744e-22)
(0.266592 0.268947 -2.65955e-22)
(0.251987 0.259186 2.86253e-22)
(0.23658 0.248361 -3.30475e-22)
(0.220519 0.236418 8.90348e-22)
(0.203985 0.223312 -2.24871e-21)
(0.187177 0.209003 3.92223e-21)
(0.170312 0.193481 -4.44435e-21)
(0.153611 0.176759 3.97872e-21)
(0.137276 0.158884 -1.78413e-21)
(0.121482 0.139956 -5.79894e-22)
(0.106356 0.120145 6.1552e-22)
(0.091916 0.0996846 -2.12902e-22)
(0.0779869 0.0788727 4.58606e-22)
(0.0643697 0.058326 3.3749e-23)
(0.0513897 0.038293 -6.35662e-22)
(0.0413507 0.0179803 5.01076e-22)
(0.0361442 -0.00312267 -2.73494e-22)
(0.0355747 -0.0253211 3.47701e-22)
(0.0395714 -0.04881 2.78405e-22)
(0.045265 -0.0737355 -3.33456e-22)
(0.0507126 -0.0996474 8.95054e-24)
(0.0568004 -0.125748 -3.0016e-22)
(0.0641889 -0.151663 2.70497e-22)
(0.0731457 -0.177141 5.10118e-22)
(0.0836282 -0.201856 -4.09425e-22)
(0.095493 -0.225486 5.78834e-22)
(0.108549 -0.247813 -9.64474e-22)
(0.122548 -0.268632 7.27639e-23)
(0.137222 -0.287781 2.08097e-22)
(0.15231 -0.305147 -3.09376e-22)
(0.167576 -0.320652 6.89139e-22)
(0.182834 -0.334272 -3.93036e-22)
(0.197964 -0.346031 -1.67524e-21)
(0.212899 -0.356009 3.40232e-21)
(0.227665 -0.364227 -3.64616e-21)
(0.242915 -0.370578 3.15876e-21)
(0.259063 -0.375175 -1.8532e-21)
(0.275849 -0.378404 9.51784e-22)
(0.292964 -0.380627 -3.23467e-22)
(0.310088 -0.382116 3.07156e-22)
(0.326863 -0.383113 -3.19562e-22)
(0.342958 -0.383839 -4.61209e-22)
(0.358142 -0.384454 -1.42176e-22)
(0.372267 -0.385065 2.35086e-22)
(0.385208 -0.385736 6.00218e-22)
(0.396899 -0.386487 -8.93725e-22)
(0.40734 -0.387324 1.15727e-21)
(0.416562 -0.388205 -7.78122e-22)
(0.424751 -0.388989 -2.71231e-22)
(0.432168 -0.389637 -1.92885e-22)
(0.368658 0.275979 -1.7239e-23)
(0.362426 0.272656 -8.37355e-24)
(0.355814 0.269064 -1.24771e-23)
(0.348679 0.265126 4.60592e-24)
(0.340957 0.260872 -4.57552e-23)
(0.33256 0.25632 5.30091e-23)
(0.323391 0.251468 -1.19628e-23)
(0.313376 0.24632 5.74145e-23)
(0.302515 0.240773 -1.03813e-22)
(0.290866 0.234651 -3.63159e-23)
(0.278466 0.22786 8.70451e-23)
(0.265339 0.220299 1.98888e-23)
(0.25154 0.211859 -1.6589e-22)
(0.237155 0.202435 2.51689e-22)
(0.222308 0.191924 -2.59422e-22)
(0.207144 0.180241 1.4416e-22)
(0.191825 0.167324 1.73728e-22)
(0.176523 0.153135 -3.9866e-23)
(0.161403 0.137666 4.10299e-23)
(0.146618 0.120926 3.57294e-23)
(0.13231 0.102922 7.25385e-24)
(0.118663 0.0836017 -1.10337e-22)
(0.106093 0.0627682 1.17491e-22)
(0.0953077 0.0399819 -7.33159e-23)
(0.0870833 0.0153042 2.45729e-22)
(0.0815944 -0.0107688 -9.57864e-23)
(0.0790298 -0.03753 -6.76369e-24)
(0.0795459 -0.0642384 3.98041e-23)
(0.0828371 -0.0903582 1.87924e-23)
(0.0878344 -0.115947 -1.62803e-24)
(0.094199 -0.14117 -3.67367e-23)
(0.102042 -0.165934 4.28707e-25)
(0.111416 -0.190018 -1.06905e-23)
(0.122183 -0.213205 9.15032e-24)
(0.134174 -0.235301 -9.45537e-23)
(0.147212 -0.256146 4.62406e-23)
(0.161104 -0.275623 -1.40307e-23)
(0.175657 -0.293658 -3.38159e-23)
(0.190701 -0.310216 1.65537e-24)
(0.206102 -0.325295 -3.10793e-23)
(0.221778 -0.338905 -2.20535e-23)
(0.237698 -0.351061 4.94738e-23)
(0.253886 -0.361773 -1.81259e-22)
(0.270419 -0.371026 -1.38795e-22)
(0.287339 -0.378736 2.25188e-22)
(0.304506 -0.384819 -1.8697e-22)
(0.321649 -0.389271 9.11618e-23)
(0.338319 -0.39234 1.41938e-23)
(0.354039 -0.394355 -5.58244e-23)
(0.368705 -0.395409 3.03417e-23)
(0.382435 -0.395555 5.88967e-23)
(0.395252 -0.394979 -1.63394e-23)
(0.407025 -0.393961 2.48535e-23)
(0.417683 -0.392734 -8.8058e-23)
(0.42731 -0.391414 1.35419e-23)
(0.436051 -0.390104 4.17185e-23)
(0.443917 -0.388877 -5.59992e-23)
(0.451064 -0.387707 1.11515e-23)
(0.457759 -0.386605 -1.67642e-23)
(0.427471 0.257599 -2.79168e-22)
(0.42128 0.254325 5.79717e-23)
(0.414658 0.250763 -2.3656e-22)
(0.407582 0.24694 -5.3805e-23)
(0.399995 0.242834 8.15014e-22)
(0.391844 0.238433 -2.53439e-22)
(0.383085 0.233701 -4.95943e-22)
(0.373689 0.22858 -8.07615e-25)
(0.363637 0.222979 2.97354e-22)
(0.352912 0.216833 -7.43372e-23)
(0.341499 0.210084 8.05391e-22)
(0.329397 0.202659 -9.64534e-22)
(0.316635 0.194473 8.73631e-22)
(0.303267 0.185433 -1.21179e-22)
(0.289378 0.175443 -7.86535e-22)
(0.275077 0.164406 2.44629e-22)
(0.260502 0.152234 9.42805e-22)
(0.245809 0.138846 -3.6856e-22)
(0.231176 0.124169 -9.33732e-23)
(0.216795 0.108133 2.03384e-23)
(0.202891 0.0906644 -2.50917e-22)
(0.189735 0.0716744 5.75289e-23)
(0.177699 0.0510817 -6.49691e-22)
(0.16726 0.028876 7.82442e-22)
(0.159005 0.00521985 -2.99836e-22)
(0.153409 -0.0195707 8.00495e-24)
(0.150677 -0.0451022 4.29073e-23)
(0.150775 -0.0709112 -1.87413e-22)
(0.153345 -0.0965205 1.1968e-22)
(0.157893 -0.121668 6.23726e-23)
(0.1641 -0.146283 1.4057e-22)
(0.171799 -0.170275 -1.47104e-22)
(0.180874 -0.193506 6.35814e-23)
(0.191199 -0.215825 8.51306e-23)
(0.202629 -0.237103 -2.99251e-22)
(0.215016 -0.257229 8.25264e-22)
(0.228209 -0.276116 -5.37768e-22)
(0.242066 -0.293702 -1.15661e-22)
(0.256468 -0.309949 -1.35847e-22)
(0.271321 -0.324831 -4.44062e-23)
(0.286562 -0.338332 -2.09204e-22)
(0.302145 -0.350429 -3.64115e-22)
(0.318029 -0.361098 8.66242e-22)
(0.33416 -0.370304 4.05818e-22)
(0.350444 -0.378013 -8.31229e-22)
(0.366705 -0.384227 -2.71084e-22)
(0.3827 -0.389013 8.59029e-22)
(0.398187 -0.392532 -9.96795e-22)
(0.412939 -0.395027 6.95148e-22)
(0.426728 -0.396783 -2.47489e-23)
(0.43959 -0.397869 2.85629e-22)
(0.451618 -0.398301 5.59868e-23)
(0.462709 -0.398267 -4.50176e-22)
(0.472859 -0.397936 -2.27772e-22)
(0.482161 -0.397402 7.08465e-22)
(0.490701 -0.396727 -9.59376e-24)
(0.498555 -0.395947 -1.96953e-22)
(0.505839 -0.395094 6.33453e-23)
(0.512596 -0.394187 -2.28509e-22)
(0.467946 0.247265 -3.66683e-23)
(0.461754 0.244568 2.18238e-22)
(0.455151 0.241619 -1.01475e-22)
(0.448069 0.238365 7.33039e-23)
(0.440472 0.234788 -7.76467e-23)
(0.432325 0.230863 3.8192e-24)
(0.423596 0.226556 -4.90383e-23)
(0.414255 0.221826 -1.17354e-22)
(0.404283 0.216621 7.6333e-23)
(0.393667 0.210887 1.07121e-22)
(0.382406 0.204556 7.06114e-23)
(0.370512 0.197549 -3.23542e-22)
(0.358014 0.189776 2.90029e-22)
(0.344963 0.181137 -7.97967e-23)
(0.331434 0.171526 3.42465e-23)
(0.317529 0.160835 -1.88114e-22)
(0.303377 0.148959 1.91171e-22)
(0.289137 0.135796 -8.77909e-23)
(0.274995 0.121256 -1.51983e-22)
(0.261168 0.105255 6.80039e-23)
(0.247909 0.0877243 -3.33246e-23)
(0.235507 0.0686163 -2.79793e-22)
(0.224303 0.0479195 1.67057e-22)
(0.214667 0.0256902 1.94019e-22)
(0.206969 0.00209473 -1.52647e-22)
(0.201497 -0.0225829 1.81822e-23)
(0.198422 -0.0479817 1.73269e-22)
(0.197784 -0.0737076 -2.00928e-22)
(0.199469 -0.0993924 6.58749e-23)
(0.203247 -0.124763 -1.78138e-23)
(0.208897 -0.149639 8.32714e-23)
(0.216232 -0.173875 -1.93256e-22)
(0.225085 -0.197331 1.44105e-22)
(0.235293 -0.21988 -5.56348e-24)
(0.246689 -0.241405 -1.75636e-22)
(0.259117 -0.261807 5.96149e-23)
(0.272422 -0.281004 1.92482e-22)
(0.286459 -0.298924 -7.25789e-23)
(0.301102 -0.315514 -8.03958e-23)
(0.316237 -0.33073 1.41102e-22)
(0.331761 -0.344531 -3.00971e-23)
(0.347574 -0.356884 -4.79058e-23)
(0.363567 -0.367758 2.95093e-22)
(0.379613 -0.377137 -2.71773e-22)
(0.395564 -0.385024 1.17564e-22)
(0.411252 -0.391458 -7.7835e-24)
(0.426498 -0.396522 3.51167e-22)
(0.441143 -0.400341 -3.14196e-22)
(0.455065 -0.403057 1.42728e-22)
(0.468101 -0.404947 1.21884e-22)
(0.480096 -0.40624 1.44938e-22)
(0.491191 -0.406959 -1.61759e-22)
(0.501531 -0.407129 -3.38451e-23)
(0.511163 -0.406847 -5.50998e-23)
(0.520145 -0.40621 -8.96799e-23)
(0.528476 -0.405328 6.21104e-23)
(0.536165 -0.404283 -1.23329e-22)
(0.543283 -0.40312 2.51406e-22)
(0.549904 -0.40189 -6.91127e-23)
(0.520977 0.241544 -4.04645e-22)
(0.51493 0.238654 4.44469e-23)
(0.50838 0.235522 3.88368e-22)
(0.5013 0.232128 -2.77439e-22)
(0.493654 0.228439 7.14606e-23)
(0.485419 0.224424 2.45104e-22)
(0.476573 0.220048 -3.03373e-22)
(0.467102 0.215269 1.15828e-22)
(0.456996 0.210035 3.71621e-22)
(0.446256 0.204286 -1.20259e-22)