/*--------------------------------*- C++ -*----------------------------------*\
  =========                 |
  \\      /  F ield         | OpenFOAM: The Open Source CFD Toolbox
   \\    /   O peration     | Website:  https://openfoam.org
    \\  /    A nd           | Version:  10
     \\/     M anipulation  |
\*---------------------------------------------------------------------------*/
FoamFile
{
    format      ascii;
    class       volScalarField;
    location    "150";
    object      epsilon;
}
// * * * * * * * * * * * * * * * * * * * * * * * * * * * * * * * * * * * * * //

dimensions      [0 2 -3 0 0 0 0];

internalField   nonuniform List<scalar> 
23845
(
0.0074181
0.0122654
0.027816
0.0215589
0.0150111
0.00239988
0.01755
0.0124377
0.00184174
0.00625866
0.00293594
0.00260904
0.00299807
0.00199684
0.0246837
0.00372288
0.00150959
0.000941797
0.00171234
0.00259119
0.00934116
0.00280808
0.0106159
0.00200014
0.00455769
0.00226637
0.0151973
0.00233363
0.0129013
0.00265036
0.0235251
0.0205522
0.0353202
0.000952509
0.00262521
0.00246368
0.0164617
0.00261265
0.0024783
0.00217609
0.00193417
0.00110702
0.00231872
0.0010616
0.00180324
0.00280064
0.0174927
0.0029425
0.020038
0.0123224
0.0141113
0.024812
0.0243939
0.00232248
0.0196467
0.00187701
0.017598
0.0123653
0.00945275
0.0286206
0.0167249
0.00104967
0.00293486
0.0259692
0.00198622
0.00300084
0.017148
0.00177495
0.0016999
0.00162781
0.012582
0.0361333
0.00287945
0.0225408
0.00196717
0.0238492
0.0025763
0.00251742
0.0138872
0.00116044
0.0129609
0.0170091
0.014655
0.0151454
0.0419764
0.00262503
0.0174814
0.025343
0.00186583
0.00134643
0.0140706
0.0024159
0.0182902
0.00236916
0.012281
0.0130596
0.00141785
0.00316049
0.00177038
0.0146995
0.00122699
0.0178112
0.00810295
0.0169905
0.0247085
0.0159377
0.00234184
0.00187491
0.0173451
0.00134554
0.00242708
0.00259293
0.0333264
0.00425692
0.00247017
0.00699921
0.00219573
0.004796
0.0125479
0.03174
0.00253914
0.0166425
0.0018898
0.0518376
0.0185812
0.00246863
0.015503
0.0129059
0.051283
0.0206348
0.0761733
0.00584244
0.00435005
0.00210672
0.00118403
0.00726686
0.0150396
0.00259837
0.0147156
0.00247457
0.0123842
0.0012054
0.00255845
0.000854945
0.00215069
0.00138424
0.00546122
0.0269483
0.0599907
0.00167246
0.0384465
0.00307205
0.0142498
0.00243031
0.0298223
0.00199012
0.00988017
0.00253806
0.0782943
0.0125687
0.0020235
0.0207786
0.0121148
0.00193433
0.00247536
0.00152115
0.00222451
0.0139936
0.00230479
0.00118174
0.0021584
0.025881
0.00205541
0.0433833
0.00231238
0.0122589
0.00271626
0.00270134
0.00177272
0.00255895
0.0137769
0.0145092
0.0213056
0.00218191
0.00263919
0.00231082
0.00133055
0.0153437
0.012581
0.00126075
0.0256699
0.00213526
0.00221424
0.00233702
0.00240674
0.00214064
0.0197557
0.0172288
0.0302432
0.00249982
0.00143836
0.00229358
0.0514693
0.00537214
0.0138947
0.0119997
0.0369753
0.0023834
0.00982742
0.00101603
0.00106866
0.0126791
0.00257276
0.00232945
0.0171812
0.0204375
0.0053837
0.00100821
0.0131756
0.0629611
0.00257822
0.0230905
0.0238232
0.00205947
0.00109977
0.0282162
0.0128005
0.00217752
0.00243187
0.00234925
0.00246824
0.0181868
0.00259128
0.00212308
0.0131213
0.0132607
0.00204043
0.0207247
0.00260924
0.0304893
0.0228207
0.00474393
0.0140631
0.0117413
0.0144947
0.00309298
0.00230122
0.00178076
0.012049
0.0204363
0.00205105
0.00257591
0.0133725
0.00322777
0.0189218
0.0127078
0.0441535
0.012222
0.0022968
0.00212613
0.0285342
0.00251231
0.0145105
0.00224599
0.00194424
0.00213953
0.0126948
0.0602456
0.0292704
0.0189409
0.00254931
0.0226194
0.0148531
0.00230014
0.0023528
0.00225374
0.0128783
0.00222294
0.037038
0.0117918
0.0189704
0.00244868
0.0131916
0.00185476
0.00261319
0.0299146
0.0403077
0.00232431
0.011967
0.0230572
0.0122999
0.0163301
0.0236886
0.0120311
0.0120701
0.00261234
0.0522352
0.00228213
0.00262246
0.0124654
0.0842442
0.0263267
0.0140994
0.0179512
0.002359
0.0197691
0.0300132
0.0146072
0.00127908
0.0187197
0.0151211
0.0148703
0.00166562
0.00221416
0.0350405
0.0121592
0.0359554
0.00466269
0.0124848
0.00258201
0.0365011
0.0133169
0.0773059
0.00229557
0.0209683
0.00239232
0.0146845
0.0227916
0.0374619
0.00102253
0.0201305
0.00163036
0.013829
0.00252816
0.0406599
0.0241372
0.0349332
0.000922721
0.00172359
0.0133411
0.0318996
0.0688989
0.00261933
0.00236126
0.0020416
0.0451888
0.00255101
0.0130042
0.0142723
0.0326285
0.0316324
0.0841457
0.012957
0.0132894
0.0240797
0.00215609
0.0012931
0.00271035
0.0257591
0.0128883
0.055451
0.00202015
0.005099
0.00167332
0.0119897
0.00221543
0.052899
0.00234054
0.01242
0.00216454
0.00106767
0.0141907
0.0697537
0.00260942
0.00248898
0.0127663
0.037688
0.0290427
0.0013144
0.0263869
0.0185007
0.00247375
0.0096863
0.00195526
0.00224201
0.00256711
0.00245021
0.013152
0.00131986
0.0123613
0.0152975
0.00144697
0.0392473
0.0318453
0.0155979
0.0112999
0.00190619
0.00191977
0.00162215
0.00249519
0.0363769
0.0248324
0.0119763
0.0377222
0.022726
0.0217308
0.00237978
0.0582024
0.0194768
0.0272608
0.0236104
0.00198005
0.0198439
0.0588554
0.0109038
0.0317671
0.0288536
0.00210676
0.00247608
0.0073521
0.102998
0.0023992
0.00193394
0.0136806
0.0178158
0.0106374
0.0974086
0.0267093
0.0467297
0.0493691
0.00219083
0.000886239
0.0597846
0.000933396
0.00285507
0.00233965
0.0026174
0.00241302
0.0153924
0.0410212
0.0253526
0.104401
0.0265437
0.0578344
0.0257651
0.0411097
0.00223641
0.0233236
0.00251344
0.0281904
0.0130146
0.00248499
0.100252
0.00254281
0.00196611
0.0549167
0.027233
0.00596401
0.0118349
0.00232142
0.0109775
0.0168783
0.0129026
0.0245028
0.00251645
0.00247803
0.00240594
0.0175979
0.00248235
0.0377438
0.00263759
0.00232524
0.0227666
0.0200699
0.0415658
0.0115681
0.00245608
0.0147878
0.00235042
0.00155505
0.020285
0.0245045
0.0216651
0.00277769
0.00139377
0.0217214
0.00256511
0.00260273
0.0253185
0.0578573
0.00209692
0.089761
0.0119364
0.0222773
0.015313
0.0178485
0.00239798
0.0371156
0.00191262
0.0025508
0.0153683
0.0112342
0.0724477
0.0188828
0.0153266
0.0146699
0.00203
0.00295018
0.00231901
0.0649048
0.020705
0.0772093
0.0186404
0.0217398
0.00227035
0.00258457
0.0248879
0.0440057
0.0401548
0.00204161
0.0239237
0.0023519
0.000970414
0.0476631
0.0026856
0.0164712
0.018766
0.0352315
0.00942563
0.0111707
0.0128443
0.0780418
0.00870352
0.0126981
0.00167926
0.00287264
0.00234633
0.0435472
0.0143387
0.0152772
0.0383352
0.00232635
0.0108368
0.00975313
0.00192373
0.00885178
0.00298619
0.00231195
0.00233188
0.00306411
0.00243588
0.00262346
0.0476623
0.00237155
0.0124017
0.014635
0.00143077
0.0789255
0.00253664
0.00254582
0.0121008
0.0143242
0.0210013
0.00218429
0.00175364
0.0406503
0.0308172
0.00256948
0.0150383
0.00318519
0.00235388
0.0160216
0.00220731
0.00238519
0.00364011
0.0124576
0.0429489
0.0707186
0.0126515
0.014075
0.0025234
0.00258847
0.00198405
0.0275973
0.0617433
0.00133019
0.00299236
0.00252715
0.0128017
0.00244422
0.0119348
0.0372866
0.00892754
0.00197229
0.0125698
0.00118466
0.00213017
0.00234048
0.000909251
0.00256374
0.0283757
0.00234623
0.0112234
0.0227109
0.0355885
0.004762
0.0124052
0.0127104
0.0175871
0.00188953
0.0204862
0.00979089
0.0152932
0.0114937
0.0738738
0.00925558
0.00689859
0.0105449
0.00269097
0.00235854
0.0118691
0.012677
0.0157129
0.00168472
0.0141474
0.00141912
0.00197482
0.000751115
0.00232836
0.00331677
0.00305197
0.00221981
0.0233659
0.00236064
0.00261925
0.0262862
0.00968436
0.00386616
0.00257045
0.001875
0.018701
0.00124367
0.00228959
0.00308229
0.00678501
0.00419488
0.00820136
0.00326241
0.00441588
0.0453847
0.00240546
0.00259263
0.00730738
0.0168414
0.0205212
0.0518499
0.0793465
0.00424503
0.0380811
0.0026444
0.00126565
0.00161703
0.00101782
0.0124547
0.00105474
0.00249155
0.0023726
0.0105855
0.0232738
0.00356844
0.00312035
0.00163941
0.00229937
0.00191144
0.00154364
0.00497339
0.00134439
0.00635435
0.00210411
0.00107388
0.00277083
0.00110571
0.00212054
0.000995381
0.00105474
0.00492487
0.00209788
0.000876016
0.00417857
0.00409922
0.000772629
0.00142715
0.00177868
0.00219234
0.00268315
0.0035375
0.00446441
0.0014514
0.00579957
0.00127479
0.00255239
0.00104938
0.00194614
0.000962951
0.000895453
0.000961068
0.000837953
0.000741508
0.00075174
0.0019169
0.00185072
0.0256234
0.00225374
0.00159958
0.00160982
0.000746204
0.00237426
0.00188921
0.00079315
0.00221139
0.00272054
0.00125136
0.000892608
0.00193856
0.00226607
0.00278179
0.00204598
0.00781051
0.00247326
0.00193527
0.00119558
0.000877604
0.00225448
0.00227727
0.0040611
0.00086162
0.00990335
0.000935014
0.00234463
0.00279374
0.00178627
0.00142468
0.00134768
0.0158579
0.00250274
0.00125547
0.0067056
0.00150645
0.00273255
0.00261988
0.0202801
0.00230089
0.00187899
0.00454951
0.00173347
0.0524706
0.00278683
0.00234429
0.00393595
0.00314777
0.00555463
0.00197744
0.00137416
0.00176704
0.00259119
0.00119641
0.00191801
0.000914564
0.0130824
0.00081507
0.00179701
0.00425488
0.00340626
0.00421738
0.0301023
0.00182535
0.00270629
0.0100489
0.00237592
0.000930943
0.000740325
0.000947705
0.0143426
0.00231096
0.00180071
0.00170587
0.00276861
0.000864533
0.00168331
0.00174909
0.000763009
0.0015344
0.000940916
0.00147582
0.00130536
0.00171221
0.0204418
0.00116021
0.00216481
0.000822396
0.000775956
0.00177616
0.00603155
0.0017375
0.00250588
0.00128113
0.00183648
0.00275191
0.00202996
0.00168006
0.00902372
0.00281389
0.00365371
0.00128397
0.00189817
0.00127275
0.0225358
0.00181878
0.00236872
0.00264916
0.00347494
0.00336641
0.00247155
0.00228336
0.00314266
0.0031879
0.00200637
0.0033665
0.00250357
0.00343513
0.00328714
0.00306018
0.00296482
0.00195493
0.00241854
0.00326672
0.00294687
0.00117117
0.000764414
0.0358185
0.00502022
0.00243532
0.0020015
0.00197874
0.00325601
0.00250624
0.00268281
0.00205006
0.000973707
0.00252845
0.00239386
0.00264529
0.00318125
0.00100714
0.00271782
0.00168528
0.00224825
0.00174577
0.00260365
0.019183
0.00260652
0.00325205
0.00143762
0.00649799
0.00197443
0.0018278
0.00230068
0.00198544
0.0045658
0.00349672
0.00203193
0.00532008
0.00214781
0.00206338
0.00256737
0.00263029
0.00269454
0.00267892
0.00159937
0.000991087
0.00180547
0.00257636
0.00266325
0.0022419
0.00303959
0.00307541
0.00205777
0.00491423
0.00200879
0.00268065
0.00238283
0.00266071
0.00371661
0.00203582
0.00269064
0.00578194
0.00210037
0.00253405
0.00206757
0.00280499
0.000932061
0.0235001
0.00132837
0.00152775
0.0011661
0.00286189
0.000907927
0.00189163
0.00192707
0.0830792
0.00257532
0.00117592
0.00176086
0.00204862
0.0102326
0.00253893
0.00191101
0.00206016
0.000837688
0.000767954
0.0237466
0.045755
0.000776114
0.00103347
0.00235625
0.0278508
0.00165439
0.0267473
0.00139089
0.00340577
0.0021961
0.00305344
0.00135784
0.00127426
0.00181476
0.00974808
0.00204224
0.00758465
0.00210557
0.00494217
0.00170387
0.00194026
0.00132517
0.00164699
0.00187251
0.00127832
0.00238771
0.000978515
0.00237005
0.00291989
0.00369635
0.000873934
0.00207596
0.0026938
0.00140871
0.00384319
0.00270919
0.00223986
0.00395967
0.00189658
0.000795865
0.00106543
0.000770206
0.00224115
0.000870693
0.00183735
0.000801882
0.00195056
0.00184326
0.00174633
0.0017634
0.00122248
0.0129476
0.00202973
0.00220385
0.000955265
0.00114377
0.00111162
0.00316629
0.00248446
0.00927804
0.0107346
0.00296247
0.00153184
0.0032251
0.00441758
0.00206048
0.00408488
0.0013154
0.0011693
0.00168496
0.00382715
0.00161431
0.00241511
0.00377646
0.00246607
0.00380657
0.00386045
0.00387668
0.00308128
0.000951542
0.000869649
0.00142152
0.00167617
0.00227757
0.00238816
0.0420428
0.00291179
0.0684355
0.00304506
0.00229727
0.0140966
0.00212043
0.00173162
0.00258687
0.00270275
0.00156114
0.00165611
0.00192898
0.00214504
0.0048795
0.0177555
0.00188956
0.00124069
0.00140069
0.0183525
0.0211923
0.00901128
0.00297319
0.0020085
0.0015757
0.00101471
0.00234023
0.00198508
0.00234955
0.0130231
0.00866195
0.00332955
0.00525073
0.00409488
0.00603484
0.00703043
0.00455139
0.00136759
0.00679018
0.00257174
0.00311801
0.00381369
0.00208894
0.00287219
0.000938843
0.00234463
0.000816358
0.00191538
0.00130112
0.000744196
0.00111099
0.000976234
0.000873179
0.00108756
0.00226916
0.00140403
0.00994229
0.00625015
0.00209085
0.00591446
0.00224113
0.00249901
0.000823401
0.00259055
0.00149546
0.000768299
0.00162161
0.00086113
0.00176722
0.00168125
0.0112527
0.00327415
0.00208289
0.00526549
0.00128813
0.00210984
0.00156154
0.00540818
0.00145496
0.0125462
0.0271859
0.00187179
0.00194468
0.00237968
0.00330464
0.000978503
0.00200065
0.00266411
0.00181086
0.00219628
0.00179033
0.00139104
0.00121838
0.0630641
0.00105514
0.0033134
0.00189332
0.00083669
0.00515111
0.00140792
0.00104561
0.0867302
0.000760964
0.00276813
0.0032782
0.000797714
0.00222003
0.00144103
0.00195523
0.00285693
0.00704614
0.000929469
0.00118853
0.0127388
0.00217516
0.00213498
0.00208553
0.0224208
0.0017044
0.00197471
0.007948
0.00255904
0.00183934
0.0018301
0.00196969
0.00229767
0.0411377
0.00252489
0.00188909
0.00175281
0.00317116
0.00866662
0.0025136
0.00180987
0.00225321
0.000848584
0.00105259
0.000864554
0.00205662
0.00615033
0.00087341
0.00273956
0.00227579
0.00109557
0.000930009
0.0348902
0.0195627
0.00211837
0.00244883
0.00278317
0.0164756
0.00105342
0.00270251
0.00283738
0.00173408
0.0153926
0.00206246
0.00241727
0.00224277
0.00130726
0.00168422
0.00184204
0.00234504
0.00213801
0.00353655
0.000993679
0.00302316
0.00178204
0.00187698
0.00153151
0.00160627
0.00129107
0.00223501
0.00106946
0.0020452
0.0012039
0.00147048
0.002226
0.000770771
0.00173733
0.0024222
0.00350624
0.00312852
0.00345832
0.00434414
0.00333427
0.00287144
0.00562361
0.00323766
0.00320842
0.00762182
0.00331754
0.00347587
0.00649879
0.00659242
0.0182085
0.00229381
0.00233658
0.00500786
0.00243634
0.00241097
0.0105514
0.0034623
0.00534973
0.00103324
0.00522282
0.00251861
0.000849764
0.00326044
0.0028251
0.00218297
0.00234206
0.00605119
0.0779988
0.00224209
0.00153845
0.00234004
0.00258941
0.00220752
0.000873539
0.00157708
0.0273636
0.00103836
0.00108649
0.00553305
0.00127947
0.00345594
0.00221971
0.00964008
0.00229706
0.00119048
0.018787
0.00185126
0.0010759
0.00223351
0.00229565
0.0813219
0.00227104
0.00821818
0.00165185
0.00351742
0.0343868
0.0157222
0.00601497
0.002134
0.00299034
0.0198742
0.00208542
0.00202821
0.00272809
0.00859415
0.0023467
0.0028642
0.00268879
0.00919184
0.00246157
0.00120337
0.000772954
0.00218736
0.0490259
0.00122763
0.0013998
0.00727276
0.00261068
0.012485
0.00289634
0.0115202
0.00227576
0.00790884
0.00103023
0.00111158
0.00210021
0.00121849
0.00159688
0.00137105
0.00219891
0.00329404
0.00218614
0.00129777
0.00241233
0.00307667
0.00288304
0.00226619
0.00110381
0.000930787
0.0012243
0.00169334
0.00165324
0.000791046
0.001729
0.00169397
0.00641684
0.00102878
0.018431
0.00210843
0.00166406
0.00201191
0.00234503
0.0343732
0.00607484
0.00370039
0.00220836
0.0045267
0.000936929
0.00123125
0.00668849
0.00116105
0.0237829
0.0142656
0.00900561
0.0015593
0.0022768
0.0570065
0.00148085
0.00142001
0.00128285
0.00539138
0.0181254
0.0025042
0.00261472
0.0330576
0.0339846
0.00231416
0.00791714
0.00882731
0.00191336
0.073398
0.00215959
0.00828161
0.000852077
0.00396685
0.00242843
0.00458613
0.0137874
0.00260638
0.0213396
0.00798843
0.00212054
0.0237849
0.00224604
0.00405879
0.00612937
0.0133019
0.00265466
0.00382868
0.0112578
0.000822175
0.0078476
0.000984943
0.00152944
0.00117908
0.00143136
0.00555877
0.00219139
0.00294719
0.0132496
0.00126428
0.00240184
0.000794696
0.00292936
0.00156869
0.00126644
0.00615344
0.0143147
0.00665874
0.00215353
0.00136317
0.00226469
0.00113383
0.00152258
0.000971506
0.0126971
0.00293514
0.00609281
0.0144584
0.00236086
0.00275632
0.00165204
0.0033747
0.00675471
0.0146793
0.00225376
0.000808495
0.00167749
0.00224355
0.00222327
0.00279073
0.00219094
0.00240843
0.00167245
0.00573231
0.0491095
0.00139052
0.00212605
0.00118608
0.0145852
0.00184712
0.00160719
0.000872725
0.00113245
0.000953286
0.00119661
0.00357352
0.00358789
0.00159268
0.00248609
0.00172539
0.0197546
0.0125654
0.00172983
0.00115895
0.00332816
0.00155145
0.00246938
0.00212328
0.000953759
0.00159847
0.00140224
0.012785
0.00232813
0.013393
0.00226719
0.00233812
0.0130249
0.00133678
0.00856842
0.0014417
0.00210621
0.00253033
0.00173721
0.00237228
0.00505643
0.00249571
0.000858674
0.000825353
0.00117468
0.0126346
0.001618
0.00130187
0.00169637
0.00426176
0.0125183
0.00230256
0.00298365
0.0183017
0.00234954
0.00251568
0.0040326
0.0223285
0.0127244
0.0939323
0.00148308
0.00211511
0.00309641
0.0027416
0.0268657
0.00519598
0.00243247
0.00206549
0.011519
0.00177963
0.0218169
0.00215297
0.00499001
0.00118814
0.00816776
0.00790475
0.00282336
0.00121735
0.0478461
0.00238428
0.0027812
0.00669063
0.00244037
0.00198186
0.00888491
0.00444425
0.0534817
0.00222258
0.00204279
0.00211973
0.0881742
0.00289928
0.00212187
0.00140953
0.0281772
0.00209501
0.00247718
0.0028172
0.0232361
0.00395565
0.00234668
0.00134995
0.00251533
0.00244633
0.00297694
0.0182665
0.00304661
0.00236047
0.00241914
0.00911773
0.00459285
0.00278841
0.00240801
0.00237357
0.00253907
0.0527326
0.00239701
0.00360696
0.00256447
0.00255102
0.0133047
0.0277911
0.0121455
0.0180121
0.0130144
0.00269306
0.00734599
0.00215118
0.00270729
0.000812728
0.0233603
0.00233232
0.0134481
0.0580594
0.00210228
0.0020692
0.0228893
0.034363
0.00425489
0.0177125
0.00995433
0.0138756
0.00229851
0.00840574
0.0200946
0.00257014
0.0297575
0.00242409
0.00251809
0.016338
0.0134384
0.0134651
0.0124534
0.0100416
0.00204765
0.0152618
0.00267073
0.0066836
0.00252092
0.0135696
0.00663853
0.00289274
0.0167632
0.00255919
0.0024359
0.00230375
0.0204917
0.0228857
0.0199986
0.0481582
0.00232472
0.0100571
0.00239686
0.00231589
0.00260817
0.00406377
0.017278
0.00232986
0.00135978
0.0136765
0.0138614
0.00208342
0.00262914
0.0124341
0.00222388
0.00163115
0.00198278
0.00284699
0.00154684
0.00194309
0.00245547
0.024214
0.00232337
0.000902036
0.00232267
0.00278333
0.0167178
0.00938703
0.00172262
0.0162698
0.00568406
0.00387459
0.00266755
0.0849539
0.00259664
0.0206981
0.0204133
0.0166839
0.000994168
0.0018059
0.0130579
0.010668
0.00274057
0.00199163
0.0109305
0.0165859
0.0241443
0.00208603
0.0214084
0.00171673
0.0117015
0.000854133
0.011798
0.00240891
0.00206805
0.000791981
0.00147086
0.0110708
0.0025035
0.0152752
0.014338
0.00148594
0.00217166
0.00678475
0.0250899
0.0154195
0.00235921
0.0071101
0.00639082
0.012105
0.00227479
0.0265369
0.00686558
0.0161576
0.035706
0.00223536
0.00259605
0.00416018
0.028027
0.0019871
0.0119933
0.00225301
0.00250273
0.00155547
0.00185766
0.0288358
0.00226759
0.0024868
0.0265171
0.00354178
0.0143598
0.0107384
0.0554033
0.0360108
0.0130574
0.0180823
0.0200404
0.00770132
0.00162438
0.0274248
0.0029369
0.0344467
0.00256293
0.0916068
0.0206171
0.000792462
0.00132862
0.00343875
0.00102906
0.000799107
0.00257168
0.00157577
0.00238668
0.00945911
0.0126449
0.00292767
0.00743371
0.00516058
0.0261268
0.0213846
0.0435333
0.0136417
0.0113532
0.011862
0.0159809
0.00327305
0.00236378
0.0941509
0.00264026
0.0136619
0.00491709
0.0019235
0.0328756
0.00587995
0.00181767
0.0149193
0.00192387
0.0138808
0.00771171
0.00295898
0.022384
0.000854091
0.00818875
0.00208978
0.000809509
0.0180176
0.0238585
0.00159681
0.0032605
0.00217579
0.00148393
0.00179675
0.0660269
0.0015926
0.00148691
0.0132514
0.00259759
0.0143088
0.00248348
0.00255294
0.00373673
0.0601571
0.0299084
0.0456932
0.0282862
0.0197437
0.00259548
0.0233258
0.00252931
0.00241719
0.0168587
0.00207246
0.041759
0.0135867
0.0172102
0.0327769
0.00202536
0.0334343
0.0010618
0.00245654
0.000922816
0.00237478
0.0204428
0.000798654
0.0025997
0.00161884
0.0286348
0.00253761
0.0211734
0.0392867
0.00140166
0.0107148
0.0297921
0.0122659
0.00259784
0.0620982
0.00269779
0.00233439
0.00253258
0.0394765
0.00199399
0.00246078
0.00268758
0.00712474
0.00201359
0.0122888
0.00115364
0.00120634
0.00248736
0.00262449
0.0255084
0.00205903
0.00172432
0.0164314
0.00239953
0.00115287
0.00284864
0.0281935
0.00325059
0.00247563
0.0518987
0.0229769
0.0151133
0.0025316
0.00235454
0.0188603
0.0117548
0.0165923
0.0120165
0.0211521
0.0203996
0.00255136
0.0374649
0.0146821
0.00163642
0.0180786
0.00218611
0.0168899
0.0648741
0.0114811
0.00359847
0.0152801
0.034132
0.00187442
0.00261047
0.00259403
0.012736
0.0128258
0.0148355
0.0233516
0.0136327
0.00143417
0.0025188
0.0160519
0.0796853
0.0135186
0.00236641
0.00749149
0.00186101
0.0116909
0.0632324
0.0202923
0.0158176
0.0134917
0.022567
0.00255216
0.0210084
0.0190976
0.100259
0.0238995
0.0126592
0.00235235
0.0121958
0.08405
0.00205388
0.0135103
0.0327005
0.00173869
0.0124538
0.00179308
0.0311719
0.0127142
0.0217827
0.018769
0.0447564
0.00217343
0.0203626
0.043959
0.00257479
0.0191162
0.00313735
0.00110791
0.00707152
0.00223003
0.00189964
0.00705275
0.00252125
0.00270888
0.00249459
0.00314593
0.0122448
0.00256787
0.00733734
0.014848
0.0445717
0.00243044
0.00243034
0.0019821
0.0126424
0.00223873
0.0518481
0.0174441
0.00331622
0.0316259
0.0259639
0.0127431
0.00641276
0.00145054
0.0187442
0.0586723
0.0648575
0.000853691
0.0026103
0.0021571
0.00300982
0.01472
0.00286704
0.00246943
0.00280404
0.0284748
0.00239111
0.00287166
0.00180294
0.00149887
0.03936
0.00197755
0.00164708
0.00223682
0.0129005
0.00132932
0.0122225
0.000941807
0.00217375
0.001054
0.00268974
0.0145953
0.022682
0.0413421
0.0241329
0.00270921
0.00280288
0.0294114
0.00237269
0.0126803
0.0013859
0.00347469
0.00251362
0.0151802
0.0202452
0.00223109
0.0150853
0.0179202
0.0343888
0.013663
0.0213636
0.00265368
0.0184866
0.0947895
0.0010187
0.00394103
0.0624497
0.0122569
0.00258124
0.0354367
0.00208676
0.0224504
0.00883822
0.0311258
0.0022876
0.00182438
0.0287639
0.00199011
0.00367734
0.000990297
0.0269362
0.00252155
0.0377092
0.00257945
0.0180474
0.0020291
0.00235618
0.00140853
0.00206796
0.016846
0.035071
0.0021253
0.00138987
0.000983653
0.00255981
0.00288921
0.00117933
0.0174517
0.0109682
0.0172049
0.00256746
0.00241976
0.0327051
0.0551552
0.0169502
0.0356717
0.0154953
0.00194957
0.0301421
0.0148503
0.00237119
0.0173168
0.00445978
0.00558218
0.000899983
0.0137495
0.00252515
0.0358848
0.00249689
0.0752622
0.0121906
0.0023732
0.019779
0.00220374
0.0887256
0.0253797
0.00189373
0.00318734
0.0200929
0.0683024
0.00158851
0.0276367
0.0160007
0.00211846
0.0440464
0.000957222
0.0232785
0.00291172
0.00239679
0.00126542
0.0595523
0.00184752
0.0378799
0.0032178
0.00242974
0.00247994
0.00245694
0.00247835
0.00107923
0.0342449
0.00830589
0.00212198
0.00798778
0.00225313
0.00259914
0.00221409
0.00240005
0.017575
0.0107047
0.00251106
0.00173076
0.00335515
0.000974925
0.0695095
0.00649222
0.00324216
0.00232722
0.0124102
0.00256781
0.00208993
0.0436972
0.0179632
0.00242808
0.00240614
0.0116728
0.0581645
0.0962604
0.00224135
0.00264443
0.0696701
0.00152445
0.00210409
0.00237301
0.0119044
0.0196617
0.0308675
0.00086611
0.019427
0.0236206
0.0322178
0.0503449
0.00314748
0.00773037
0.00253076
0.0157627
0.00237172
0.002436
0.00287451
0.00410947
0.00140831
0.003085
0.0022788
0.00131073
0.00141578
0.0352861
0.00140687
0.0160156
0.0244199
0.00934778
0.00240592
0.0787827
0.0079165
0.0116446
0.0115708
0.00151361
0.00748838
0.00205365
0.00469063
0.0127886
0.00183015
0.0397318
0.00111337
0.00308551
0.00238043
0.00256895
0.0124263
0.00136072
0.00255619
0.0397887
0.0343285
0.00223465
0.0240211
0.0465764
0.0176858
0.0345704
0.0312909
0.0576204
0.00250671
0.0247963
0.00513805
0.00255293
0.00220773
0.00240374
0.002753
0.00200872
0.0221514
0.0126953
0.0613524
0.00236563
0.0199123
0.00245552
0.00252338
0.0025277
0.0170012
0.0349168
0.00234734
0.00245428
0.0435358
0.0137245
0.0937648
0.0306315
0.0137871
0.0113468
0.00219172
0.00217258
0.00157386
0.00231326
0.0120525
0.00238477
0.00592157
0.0124393
0.0200331
0.0589741
0.00257912
0.00278942
0.0277667
0.0383736
0.0341829
0.00254746
0.00461461
0.024516
0.0337864
0.0190784
0.0708405
0.0629225
0.0372221
0.00218128
0.00107503
0.0014864
0.0837903
0.00209989
0.00340695
0.00122816
0.0109864
0.00449163
0.0310063
0.0131896
0.0125561
0.00219776
0.0126794
0.0291977
0.0254359
0.00225115
0.0477594
0.0127653
0.0725091
0.00260573
0.0160424
0.0266451
0.0302574
0.00257454
0.00440675
0.00168284
0.00253402
0.00133605
0.0116818
0.00288741
0.0187375
0.0202664
0.0985013
0.00253162
0.0706017
0.00258087
0.0126318
0.00241456
0.0101442
0.00241685
0.00259498
0.0611228
0.0146726
0.00223156
0.0613277
0.00857479
0.00287516
0.00214526
0.00211643
0.0123629
0.0356226
0.00234796
0.00224452
0.00305835
0.00876555
0.00236725
0.00236451
0.00306404
0.00192544
0.0437724
0.00259136
0.0237677
0.00205782
0.016274
0.0774269
0.00629852
0.0310891
0.0106749
0.00252848
0.00305283
0.002314
0.0026067
0.0391681
0.00172431
0.00259155
0.018651
0.0189881
0.0123459
0.0168289
0.0244739
0.00245123
0.00246799
0.00251106
0.0219484
0.0353228
0.00194367
0.0392405
0.00108558
0.0223058
0.0192833
0.0111828
0.00249015
0.0184673
0.00233347
0.00262176
0.0127074
0.0917354
0.00215863
0.00269365
0.0217031
0.0255897
0.00206252
0.0020998
0.0291567
0.0188058
0.00258958
0.00257785
0.0112321
0.00103821
0.0131088
0.00259484
0.0870326
0.0571175
0.00258245
0.0630189
0.0119823
0.00628579
0.0249341
0.0167672
0.0106564
0.0146398
0.00341464
0.00106814
0.00116661
0.00255065
0.00237952
0.0127058
0.00161803
0.0686954
0.0567872
0.00244502
0.00220184
0.0022413
0.00196077
0.00201087
0.00205466
0.0012647
0.00153139
0.00266545
0.00112111
0.0032369
0.00260898
0.00227436
0.00302439
0.00415472
0.00786113
0.0164658
0.0435117
0.0117716
0.0407459
0.0014384
0.0142746
0.00208127
0.0117307
0.00201449
0.002733
0.0162569
0.0226117
0.00207699
0.00228952
0.00112467
0.0740167
0.00692744
0.0130683
0.00256531
0.00111849
0.00234697
0.0108119
0.0126277
0.00359042
0.00272438
0.00291906
0.00120098
0.00127888
0.00757882
0.00436867
0.00167826
0.00191519
0.00229001
0.00200989
0.0112934
0.0177466
0.0910684
0.00483678
0.0168737
0.0100751
0.0535053
0.00709084
0.0284927
0.0292669
0.0121411
0.00268391
0.0412473
0.0117161
0.0125566
0.0116396
0.0262038
0.00241644
0.0172207
0.00131112
0.0133093
0.0192744
0.0136723
0.00194743
0.0023422
0.0180697
0.0451704
0.00207546
0.0268
0.0181056
0.00241927
0.00229236
0.00224051
0.00195816
0.00170899
0.00253181
0.00257265
0.0266306
0.00114735
0.0159075
0.0184541
0.0132479
0.00209031
0.0332952
0.0337093
0.0303397
0.00178852
0.0178284
0.00254942
0.0629104
0.010579
0.0176041
0.00167263
0.00244822
0.00197857
0.0139164
0.0324042
0.00303704
0.00257203
0.0171467
0.0116687
0.00217371
0.00191451
0.00239417
0.0259337
0.00254968
0.00155668
0.012639
0.0189918
0.00237188
0.0213542
0.0214994
0.0372918
0.00259226
0.0542334
0.042554
0.00242812
0.00385743
0.0314916
0.0169161
0.00116745
0.0130124
0.0160496
0.0153509
0.0252528
0.0133337
0.0313818
0.0021508
0.0627051
0.00292255
0.00241151
0.00238654
0.00591196
0.00115283
0.0857928
0.0188886
0.021053
0.0081657
0.00250798
0.0297922
0.00255483
0.00235597
0.0271598
0.033505
0.00187515
0.00225704
0.0159018
0.00203633
0.0314678
0.00282189
0.0544371
0.00253111
0.0501561
0.00189997
0.0313099
0.00239074
0.00484919
0.0215972
0.0509308
0.0231817
0.00182753
0.0908721
0.00814764
0.0405089
0.0245449
0.0035225
0.00588743
0.00526883
0.00215244
0.0202381
0.0138698
0.00223029
0.0164735
0.0572355
0.00194219
0.0118291
0.00223279
0.0166144
0.00241861
0.0023593
0.00230231
0.00500621
0.0228712
0.0625212
0.00246601
0.00632566
0.00198833
0.00117395
0.0028014
0.00141226
0.00251993
0.00109957
0.00110094
0.00133388
0.00328447
0.0167884
0.0586004
0.00187202
0.00187495
0.0287303
0.0733116
0.00489746
0.00283786
0.00243355
0.0129501
0.00439061
0.00234357
0.00259175
0.101813
0.00376121
0.00228532
0.00168211
0.00449897
0.0148472
0.0298514
0.00552744
0.0222233
0.0115178
0.00105653
0.015337
0.0540667
0.00260701
0.012334
0.00186176
0.00236702
0.00226041
0.0161171
0.00248299
0.0324143
0.0132629
0.00252237
0.0044803
0.0627593
0.00212183
0.0148803
0.00279544
0.0275722
0.0278227
0.00101253
0.014336
0.0211345
0.001038
0.00148299
0.0127621
0.00153276
0.0201405
0.0940246
0.0649137
0.00214102
0.00143843
0.00262275
0.0120419
0.00216709
0.00197471
0.00141918
0.00467558
0.00257747
0.00101149
0.00155782
0.00231333
0.0270932
0.0145051
0.00333372
0.00194733
0.023214
0.00286275
0.00245329
0.00234546
0.0248979
0.00242164
0.00236645
0.0133311
0.00245769
0.00256211
0.00100937
0.0140774
0.00249936
0.00947018
0.012214
0.0013231
0.0458008
0.00306288
0.00215568
0.0251196
0.0122021
0.0996645
0.00174669
0.00564143
0.0025816
0.0231177
0.0280839
0.0024296
0.0055109
0.000984373
0.0174789
0.002423
0.00242817
0.00266547
0.00251305
0.0031258
0.00240172
0.0161245
0.0014195
0.00265286
0.00252079
0.00302643
0.0168748
0.0297368
0.0399614
0.00216109
0.000975683
0.0271446
0.00239553
0.00236905
0.00260632
0.00250149
0.00252471
0.00359384
0.00197377
0.00156724
0.00640756
0.0150175
0.0138919
0.0412597
0.0152212
0.00249413
0.0546857
0.0108083
0.00538
0.0231792
0.0391467
0.0148355
0.00878437
0.0031391
0.0143917
0.00345977
0.0124305
0.00180277
0.0168644
0.00141364
0.00218421
0.0126508
0.0283632
0.0236313
0.00227694
0.00413535
0.00476316
0.00335739
0.00299431
0.00146841
0.00279621
0.0377661
0.00187804
0.0548124
0.00353831
0.00103563
0.0132059
0.00178734
0.00246676
0.0028054
0.00257607
0.0227105
0.0215939
0.00203766
0.00185731
0.0304598
0.00183589
0.0178353
0.0382037
0.00872516
0.00171812
0.00180709
0.0324635
0.0233331
0.00251393
0.00181333
0.0115811
0.00184853
0.00237123
0.00579079
0.00111332
0.087402
0.00300821
0.0166051
0.00118217
0.00389379
0.00310509
0.00200438
0.00256303
0.00866111
0.00166399
0.00158835
0.00172287
0.0176525
0.013444
0.00175582
0.00481582
0.0161932
0.0100722
0.00264949
0.0419991
0.0211961
0.074519
0.00232806
0.013065
0.00302237
0.0240228
0.00188829
0.0135989
0.0737057
0.0695102
0.00247424
0.00238237
0.0235368
0.0371033
0.0490111
0.00174377
0.0916024
0.00183419
0.00245533
0.0590738
0.0208556
0.00247329
0.0166645
0.0022898
0.00236278
0.0184379
0.0672881
0.0127054
0.00218021
0.00216561
0.0248244
0.00149016
0.00205199
0.0203692
0.0287228
0.0432494
0.0235395
0.00177896
0.00240498
0.0316634
0.0135646
0.0287064
0.00967163
0.0185748
0.0162378
0.00252239
0.00252259
0.00170519
0.00274343
0.00235984
0.0247559
0.0108223
0.00254817
0.00248067
0.00255668
0.0017723
0.00349262
0.0147724
0.02569
0.00171846
0.00163789
0.00168279
0.0110894
0.0104151
0.0140917
0.00250207
0.0236321
0.00246371
0.00218666
0.0145006
0.00271257
0.0164725
0.0243572
0.00249943