/*--------------------------------*- C++ -*----------------------------------*\
  =========                 |
  \\      /  F ield         | OpenFOAM: The Open Source CFD Toolbox
   \\    /   O peration     | Website:  https://openfoam.org
    \\  /    A nd           | Version:  10
     \\/     M anipulation  |
\*---------------------------------------------------------------------------*/
FoamFile
{
    format      ascii;
    class       volScalarField;
    location    "150";
    object      k;
}
// * * * * * * * * * * * * * * * * * * * * * * * * * * * * * * * * * * * * * //

dimensions      [0 2 -2 0 0 0 0];

internalField   nonuniform List<scalar> 
23845
(
0.0317597
0.0391332
0.0416758
0.0432269
0.0421583
0.0427552
0.0464877
0.0290858
0.0366415
0.0297642
0.0183019
0.0455509
0.0392582
0.0385788
0.0446245
0.0244707
0.0233549
0.0115011
0.0221299
0.0403074
0.0370929
0.0178667
0.0419788
0.0383981
0.0245406
0.03567
0.0470836
0.0411594
0.0192337
0.040557
0.0485017
0.0156411
0.042116
0.0120386
0.0452501
0.0408015
0.0127042
0.0452954
0.0445525
0.0362518
0.0230573
0.0206353
0.0341329
0.0195189
0.0364012
0.0382725
0.0449982
0.0209119
0.0208475
0.014585
0.0270071
0.0417866
0.017599
0.0417003
0.0149376
0.0269189
0.0439591
0.0322283
0.0362434
0.051389
0.0259459
0.0185716
0.0223193
0.0289643
0.0382858
0.0402283
0.0493418
0.0309351
0.0350585
0.0201185
0.0265666
0.0444658
0.0402308
0.0458005
0.0381366
0.0443699
0.0455282
0.0445452
0.0356496
0.0146645
0.0447915
0.0427985
0.041287
0.033599
0.0470755
0.0449861
0.0436052
0.0172207
0.0367981
0.0173725
0.0244895
0.0246995
0.0232004
0.0414419
0.032126
0.0250001
0.0226893
0.0213317
0.0356488
0.0418598
0.0179252
0.0494143
0.0314858
0.012011
0.0245806
0.0350423
0.0421064
0.0370709
0.0510535
0.0236555
0.016682
0.0451851
0.0446582
0.024335
0.0404678
0.0326627
0.0400881
0.0271945
0.0195088
0.0362941
0.044941
0.020165
0.0221085
0.0499098
0.0493195
0.0373009
0.0261954
0.0149199
0.0487835
0.0480546
0.0529943
0.0267059
0.022285
0.0400083
0.0155885
0.0305519
0.010662
0.0456961
0.0478416
0.0442852
0.0158242
0.0229628
0.0433949
0.0150605
0.01967
0.0248583
0.0287692
0.043505
0.0473548
0.0177587
0.0454669
0.0415024
0.0395409
0.0402005
0.0419322
0.0163844
0.0339216
0.0436972
0.0520594
0.0233498
0.0209016
0.042419
0.0313108
0.0376285
0.0323895
0.0155008
0.0415514
0.019107
0.0404942
0.0233076
0.0383907
0.0448804
0.0390265
0.0473474
0.0366816
0.0335751
0.0250155
0.0184399
0.0357382
0.0441324
0.0397845
0.0411098
0.0455569
0.0157904
0.0206396
0.0307831
0.0229147
0.0329095
0.0169453
0.0228875
0.0265414
0.0399246
0.0370332
0.0389693
0.0219453
0.03993
0.0187211
0.0198
0.0149878
0.0170895
0.0141291
0.0412801
0.0449577
0.0253263
0.0311003
0.0310592
0.0457478
0.04309
0.036887
0.0116492
0.0129935
0.017507
0.0221612
0.0405776
0.0233853
0.0157538
0.0251979
0.0174753
0.00775226
0.0506951
0.0395221
0.0449359
0.0198434
0.0176726
0.0208416
0.0418626
0.00937951
0.0403622
0.040548
0.0263982
0.0431061
0.0225829
0.0449165
0.033861
0.0395754
0.0228719
0.0388812
0.0448907
0.0388493
0.0468326
0.0188902
0.0267095
0.0338586
0.0374449
0.0199681
0.0224061
0.0417532
0.0362808
0.0324505
0.0420728
0.0337455
0.0434006
0.0258088
0.0405243
0.0442228
0.0227649
0.0429098
0.0269258
0.0402949
0.039747
0.0154694
0.0431313
0.0264804
0.0161418
0.0156195
0.0355082
0.0345819
0.0514426
0.0536127
0.0423123
0.0446379
0.0415994
0.0265008
0.0379177
0.0163606
0.0371968
0.0276719
0.0408072
0.0255165
0.0442681
0.0367174
0.0404183
0.0291088
0.0176737
0.0445907
0.0344318
0.047322
0.0412937
0.0307814
0.0411299
0.0335117
0.0239136
0.0288817
0.0259451
0.0321864
0.0450177
0.0422788
0.0414496
0.0446378
0.0205573
0.0517545
0.0416194
0.0231446
0.0427477
0.0387629
0.0451737
0.0299735
0.0267053
0.0188042
0.0174959
0.0260464
0.0394391
0.0235085
0.0387015
0.0486298
0.015268
0.0363535
0.0234467
0.0217838
0.0384488
0.0285952
0.0183551
0.0516697
0.0400524
0.0415218
0.0412278
0.0376691
0.0499536
0.0413686
0.0114644
0.0401674
0.0159755
0.0260362
0.0430132
0.0416135
0.0462458
0.0511231
0.0111418
0.0291692
0.0355858
0.0471523
0.0496873
0.0172794
0.0357988
0.0387449
0.0236221
0.0430825
0.0263075
0.0366955
0.0423396
0.0511704
0.0565612
0.0143329
0.0279074
0.0173382
0.0366462
0.0255357
0.0393362
0.043472
0.0329919
0.0505531
0.0341002
0.0277299
0.0175581
0.0172943
0.0412168
0.0489492
0.0411447
0.0198997
0.0349021
0.0207874
0.0231032
0.0417784
0.0453488
0.0431445
0.0240873
0.0484664
0.0479919
0.0252718
0.0417991
0.042442
0.0426309
0.0396269
0.0380491
0.0348512
0.0450266
0.043054
0.0349554
0.0130295
0.032998
0.0463738
0.026257
0.03353
0.0275821
0.0251623
0.0195425
0.0151562
0.0376797
0.0196655
0.0425382
0.0508963
0.0524097
0.0294163
0.0487335
0.0465087
0.0447065
0.0433392
0.0395236
0.0221924
0.0350274
0.0417011
0.0327529
0.0471634
0.0497167
0.0363896
0.0442623
0.0542525
0.0154882
0.0422101
0.0335612
0.0554364
0.037712
0.0376764
0.0362393
0.029628
0.0374383
0.051023
0.0511508
0.0493335
0.0494965
0.0404332
0.0114105
0.0463071
0.0110696
0.0403478
0.0404908
0.0454992
0.0320526
0.0232377
0.0488828
0.0440246
0.0533138
0.024219
0.0505757
0.0517808
0.0375854
0.0392666
0.0524434
0.0423814
0.043915
0.0351069
0.0402698
0.0490625
0.0427029
0.0328393
0.0457022
0.051396
0.0267532
0.0276867
0.0415652
0.0391825
0.0406147
0.009588
0.049679
0.041628
0.0439478
0.0396195
0.0231404
0.036734
0.0430756
0.0405543
0.0423766
0.0503011
0.0300737
0.0355538
0.0364071
0.0406631
0.0210653
0.0414125
0.0185998
0.0493001
0.0530536
0.0474808
0.0179182
0.013119
0.0434589
0.0446069
0.044679
0.0432331
0.0492499
0.0344211
0.0567919
0.0238231
0.0515815
0.0312437
0.0462698
0.0406035
0.0457974
0.0374227
0.0427453
0.040151
0.0151006
0.0527576
0.0476642
0.0336545
0.0353126
0.0152872
0.0367796
0.0408493
0.0509077
0.0469783
0.0534596
0.0143855
0.0485522
0.037938
0.0375652
0.052926
0.0440823
0.0441479
0.0327263
0.0137734
0.041374
0.0113882
0.0393825
0.0383623
0.045008
0.0435604
0.0337766
0.0384793
0.0188063
0.0231148
0.0485241
0.0316792
0.0465489
0.022578
0.0358031
0.0417672
0.0417384
0.0413857
0.0367969
0.0459229
0.0414405
0.0423947
0.0402005
0.0195255
0.0379853
0.0185551
0.034666
0.0409231
0.0414506
0.0406028
0.0449208
0.0490597
0.0384544
0.0306293
0.0417433
0.0274699
0.0540137
0.0428219
0.0408342
0.0325626
0.0369751
0.0450629
0.0385303
0.0300353
0.0309234
0.0279412
0.0381164
0.0213462
0.0399029
0.0398056
0.0444063
0.0294769
0.0397729
0.0233522
0.0378669
0.0455707
0.0535476
0.0290595
0.0410397
0.0397079
0.0454234
0.0194551
0.0434714
0.0449211
0.0263624
0.0408743
0.0402087
0.0296331
0.0406799
0.0452459
0.0453687
0.0345351
0.015006
0.0264196
0.0238902
0.039316
0.0414476
0.0114395
0.0448136
0.0422212
0.0408392
0.0365624
0.0440756
0.0470421
0.024443
0.0278537
0.0389925
0.0453258
0.0161821
0.049276
0.0346572
0.040021
0.0370582
0.0482049
0.0347854
0.028508
0.035776
0.0405996
0.0412058
0.0373687
0.0251774
0.043196
0.0151757
0.0409476
0.0129624
0.023894
0.0115844
0.02945
0.0235667
0.0399526
0.0349963
0.0523354
0.0417838
0.0451742
0.0414982
0.0350816
0.0241289
0.0396085
0.0148826
0.0446655
0.0126116
0.0403584
0.0384848
0.0304505
0.0224804
0.0344151
0.0410388
0.0235085
0.0469481
0.0402452
0.0439313
0.0292731
0.0367552
0.0280108
0.043851
0.0531977
0.0236761
0.0412353
0.0176408
0.0131845
0.0210151
0.0127463
0.0386544
0.0143713
0.0399446
0.0302187
0.0355579
0.0510565
0.0205461
0.0231481
0.0138374
0.0166074
0.0148347
0.0134149
0.0239555
0.0126207
0.0272562
0.0161203
0.014406
0.0180693
0.0116373
0.0330086
0.0112493
0.0145888
0.0244575
0.0298124
0.0109155
0.02218
0.0226192
0.0110211
0.0251514
0.0143088
0.015826
0.0174882
0.0201181
0.0226651
0.0130144
0.0259173
0.0123006
0.0175372
0.0114228
0.0157442
0.0111503
0.0120657
0.0130475
0.0108573
0.0120557
0.0111767
0.0254923
0.0281486
0.0523823
0.0406246
0.0272797
0.0248497
0.0129338
0.0423547
0.0148425
0.0151433
0.0159507
0.017661
0.0122785
0.0183012
0.0294165
0.0397672
0.0196923
0.0178044
0.0300614
0.0405437
0.0148506
0.0240414
0.0113948
0.0397633
0.0336885
0.0216582
0.0116036
0.0342563
0.0186771
0.0413579
0.0405894
0.0359671
0.0273954
0.0137533
0.0291931
0.0404678
0.0243964
0.027925
0.0287126
0.0400224
0.0402263
0.0406366
0.034854
0.0373314
0.0234702
0.0265506
0.0482629
0.0184507
0.0171305
0.0212571
0.0189746
0.0252603
0.0314721
0.0126882
0.0144651
0.0173267
0.0119755
0.017835
0.0110215
0.0395627
0.0108654
0.0326887
0.022049
0.0197081
0.0221918
0.0497945
0.0155413
0.0404663
0.0348247
0.0174765
0.0129511
0.0116355
0.0111406
0.0251676
0.0376016
0.0149366
0.0310995
0.0364985
0.0157958
0.0303186
0.0319267
0.0139677
0.0256266
0.0131688
0.0273602
0.0256865
0.0291454
0.0482129
0.0119737
0.037538
0.0111094
0.0128416
0.0291469
0.0263186
0.0151158
0.0174363
0.0139788
0.0296563
0.0405489
0.0306955
0.0300365
0.0330517
0.0189956
0.0203939
0.0154222
0.0336093
0.0123201
0.0260179
0.015193
0.0269433
0.0250858
0.0424333
0.0399863
0.0220179
0.0287089
0.0369487
0.041622
0.0243766
0.0423506
0.0330571
0.0425029
0.042135
0.0408543
0.0348679
0.0234777
0.0310125
0.0385872
0.0229412
0.0224833
0.013477
0.0446195
0.0239722
0.0399073
0.0342528
0.0326204
0.0201584
0.0169095
0.0179998
0.0153101
0.0125614
0.0295108
0.0275117
0.0255978
0.0249913
0.011293
0.0405618
0.0277407
0.0346842
0.0196053
0.0455466
0.0414797
0.0447373
0.0211809
0.0236915
0.0273377
0.03495
0.0291172
0.0218802
0.0225941
0.027272
0.0242681
0.02239
0.0292913
0.0269287
0.0252701
0.034469
0.0361267
0.0382905
0.0388911
0.0224855
0.020434
0.0330488
0.0185862
0.0398271
0.0172782
0.0202472
0.0187052
0.0222312
0.0282169
0.02252
0.0369398
0.0219608
0.0391312
0.0248863
0.0248431
0.0386075
0.0304888
0.0262597
0.0337601
0.0153424
0.0408846
0.0115749
0.0521433
0.0125409
0.0272038
0.0118839
0.0407742
0.0111288
0.0338754
0.0152319
0.0490511
0.043665
0.0119292
0.0143265
0.0153729
0.0349304
0.0170738
0.032497
0.0194691
0.0109065
0.0128348
0.0417343
0.0312946
0.0139594
0.0207838
0.0407066
0.0540708
0.0292424
0.0441485
0.0262646
0.042465
0.0279474
0.0359038
0.0251006
0.025518
0.0284606
0.0341048
0.0348806
0.0340943
0.0204373
0.0237489
0.0300884
0.0176777
0.0126249
0.0139716
0.0147884
0.0173163
0.0183659
0.011255
0.0165078
0.0182854
0.0206241
0.0109903
0.0156418
0.0174902
0.01544
0.0210477
0.0176726
0.0159634
0.0228694
0.0344079
0.0109817
0.015205
0.0131913
0.0392719
0.0167522
0.0164047
0.0147178
0.0350108
0.0145516
0.0161779
0.0144809
0.0202195
0.0469009
0.0357541
0.0311757
0.0192476
0.0226772
0.0144643
0.0418109
0.0168066
0.0332258
0.0366338
0.0412384
0.0281488
0.0192625
0.0226006
0.0363815
0.0241457
0.012733
0.0121972
0.0143027
0.0234401
0.021268
0.0167458
0.0209114
0.0170599
0.0218082
0.0213274
0.0216051
0.0404578
0.0138545
0.0123752
0.0277255
0.0160497
0.0180604
0.0335803
0.0258013
0.0411572
0.0519331
0.0408523
0.0396488
0.0157424
0.0370197
0.0305165
0.0437458
0.0379798
0.0291932
0.0310951
0.0340105
0.0321425
0.0238755
0.027109
0.0341277
0.0123581
0.0173062
0.0466083
0.0503631
0.0338557
0.0183664
0.0349276
0.0255966
0.0208967
0.0402693
0.0383516
0.0416316
0.0394679
0.0319977
0.0252207
0.0296802
0.0269722
0.0315789
0.0339518
0.0228074
0.0269241
0.0283288
0.018001
0.0194573
0.0208557
0.0167444
0.018087
0.0125621
0.0163617
0.0162965
0.014802
0.0123967
0.0125762
0.0116674
0.0112252
0.011038
0.0222625
0.0351779
0.0129925
0.04054
0.0268568
0.035947
0.0300166
0.0371689
0.0400325
0.0132536
0.0452606
0.0133158
0.0114423
0.0265134
0.0167943
0.0242242
0.0275523
0.0361235
0.0416781
0.0369634
0.0272452
0.0215256
0.0394122
0.0134308
0.0248836
0.0152037
0.0217244
0.0415109
0.0311907
0.0164812
0.0177963
0.0193655
0.0118147
0.0357742
0.0173975
0.0161677
0.0158051
0.0143132
0.0127565
0.012113
0.0382577
0.011492
0.0210166
0.0331985
0.0109752
0.0254481
0.0188777
0.0146133
0.0547195
0.0118667
0.0388965
0.0414223
0.0152136
0.0391966
0.0280723
0.0352449
0.0410181
0.0285142
0.0190644
0.0241357
0.045866
0.037655
0.0366657
0.0371468
0.0473442
0.0268444
0.034775
0.0306669
0.0370564
0.0364959
0.0334963
0.0308745
0.0291635
0.0469339
0.036386
0.0327519
0.0164008
0.0189525
0.0317857
0.016901
0.0143808
0.038513
0.0114178
0.0211532
0.0162238
0.0366562
0.0268757
0.0121889
0.0407602
0.0381088
0.0116699
0.0134268
0.0517895
0.0355126
0.0373613
0.0362768
0.0408652
0.0444621
0.0157314
0.0375329
0.0182417
0.0321905
0.0388027
0.0368155
0.0432736
0.0382772
0.0149209
0.0305574
0.024485
0.0169151
0.0378466
0.0210948
0.0150535
0.0414391
0.0147243
0.0331541
0.014874
0.0148667
0.0154491
0.0170569
0.0126235
0.0364853
0.0129299
0.013064
0.0279101
0.0111433
0.0232054
0.0280077
0.0258423
0.0412652
0.0425018
0.0275679
0.0422576
0.0338118
0.0305722
0.0419124
0.0377965
0.0353467
0.0392979
0.042234
0.0327125
0.028087
0.04638
0.0411163
0.0389272
0.0266252
0.0437549
0.041083
0.034843
0.0215548
0.0255169
0.0151442
0.0263209
0.0372818
0.0144983
0.0223345
0.0179129
0.0381387
0.0163086
0.0271128
0.0393247
0.0389049
0.0293343
0.0386579
0.0446918
0.0383355
0.0176253
0.0299076
0.0442255
0.0114191
0.0223911
0.0253703
0.0177013
0.0199429
0.037499
0.0387402
0.0324015
0.0164268
0.0466006
0.0273337
0.0117536
0.038879
0.0371828
0.0564503
0.0388532
0.0325707
0.0144198
0.0202074
0.0444888
0.0381215
0.0267324
0.0360526
0.0408178
0.0484971
0.0352571
0.0344266
0.0389194
0.0346294
0.0414523
0.0410816
0.0354914
0.0327419
0.0309559
0.0169
0.0114922
0.0386991
0.0374499
0.0148036
0.0146548
0.0302812
0.0457576
0.00985234
0.0401441
0.0206719
0.0393761
0.0308674
0.0147586
0.0171223
0.0373088
0.0140993
0.0144124
0.0209874
0.0164371
0.0205143
0.0302971
0.0197436
0.0399621
0.0200197
0.0195679
0.0416438
0.013584
0.0138366
0.013891
0.0164579
0.0142128
0.0109184
0.0154688
0.0147582
0.0289844
0.0121072
0.0454743
0.0367936
0.0138488
0.036076
0.0378436
0.0433661
0.027684
0.0221529
0.0409232
0.0233892
0.014354
0.0195
0.0290507
0.0181995
0.0461569
0.0251549
0.033098
0.0140922
0.0419966
0.0497283
0.0141542
0.014195
0.0142924
0.0257025
0.0428625
0.040186
0.0383984
0.0440723
0.0493786
0.0392924
0.0312223
0.0330741
0.0309678
0.0534483
0.0347009
0.033544
0.0128046
0.0255976
0.0374772
0.0238868
0.046805
0.0444394
0.0428195
0.0326895
0.0358987
0.0345621
0.0363696
0.0236029
0.0290821
0.0342891
0.0405639
0.0213818
0.0420829
0.0117108
0.0314964
0.0159392
0.0294262
0.0126327
0.0151263
0.0265459
0.0385155
0.0411316
0.0396936
0.0159539
0.0367234
0.0114089
0.0412277
0.0137086
0.013278
0.028598
0.0433056
0.0284178
0.038008
0.0134177
0.0398665
0.0134892
0.0135937
0.0182748
0.0265399
0.040844
0.0277475
0.0111338
0.0399577
0.0407745
0.0154168
0.0198641
0.0290636
0.0398687
0.0161879
0.0110385
0.013873
0.0409591
0.0392409
0.0396885
0.0394529
0.0406469
0.0308277
0.0275433
0.0440115
0.0207493
0.0326988
0.0146539
0.0480191
0.0324604
0.0147349
0.0129875
0.0122141
0.0186835
0.0131469
0.0205567
0.0208299
0.0139659
0.0402754
0.0141565
0.0429332
0.0275961
0.0322372
0.013175
0.0201477
0.0139705
0.0398826
0.0375042
0.0150203
0.0157869
0.0134375
0.0164477
0.041131
0.0288912
0.0363735
0.0396192
0.0420651
0.0138385
0.031921
0.0134843
0.0166837
0.0179381
0.0178787
0.0406144
0.0253563
0.0399577
0.0124342
0.0115506
0.0135894
0.0341892
0.0138246
0.0172296
0.0139614
0.0233097
0.0287609
0.0165094
0.0413723
0.0422552
0.039378
0.0408298
0.0214245
0.0510768
0.0239133
0.0540192
0.0131345
0.0376045
0.0195371
0.0407087
0.0514653
0.0249788
0.0398483
0.0160058
0.0363671
0.0255576
0.0441265
0.0159994
0.0244063
0.0160673
0.0331711
0.0310477
0.0409235
0.0149256
0.0490775
0.0403977
0.0406722
0.0298546
0.0421644
0.0177065
0.0327133
0.0239707
0.0469355
0.0401422
0.039019
0.0375479
0.0563934
0.0410486
0.0261899
0.0177052
0.0422055
0.0365364
0.0355976
0.0408683
0.0386767
0.0250517
0.0400288
0.0148898
0.0423512
0.0426113
0.0410638
0.0428103
0.0188662
0.0404694
0.0395164
0.038749
0.0233707
0.0347606
0.0183852
0.0408649
0.0421882
0.0511539
0.0396605
0.0203142
0.0432408
0.0187414
0.0314547
0.0413369
0.016591
0.0439235
0.0388007
0.0402481
0.0297746
0.038183
0.0405843
0.0137887
0.0516442
0.0389378
0.0287587
0.0428164
0.034649
0.0347573
0.0494196
0.00232763
0.0263984
0.0465149
0.0340246
0.048406
0.0398556
0.0313245
0.00163247
0.0440817
0.0527184
0.0412339
0.0413222
0.0431108
0.0189537
0.0265355
0.0377691
0.0348697
0.0274174
0.015636
0.0381188
0.0308714
0.041121
0.0467012
0.0280037
0.0407826
0.0436165
0.0406923
0.0406614
0.0403514
0.02101
0.0474838
0.044226
0.0483315
0.0374623
0.0352403
0.0425005
0.0417392
0.0442014
0.0221761
0.0317613
0.0401308
0.0193613
0.0406473
0.0266744
0.0155887
0.0403659
0.0331986
0.0376979
0.0308678
0.0283283
0.0394305
0.0246304
0.0377312
0.0419777
0.0451997
0.0364684
0.0146637
0.0403413
0.0211708
0.0376976
0.0329228
0.0350744
0.0357602
0.0274716
0.0265031
0.04046
0.051212
0.0354774
0.00169203
0.0388944
0.0337029
0.0157794
0.0332347
0.041207
0.0383188
0.0404619
0.0355549
0.0371705
0.0425523
0.0526739
0.0220578
0.00169732
0.0316728
0.0257064
0.0132173
0.0216707
0.0414699
0.0365777
0.0120436
0.0134935
0.0185215
0.0408134
0.0374498
0.0191963
0.0133844
0.0181749
0.032271
0.00221269
0.0429844
0.0419528
0.0292838
0.027962
0.0436198
0.0396681
0.0462883
0.0332388
0.0393687
0.00327402
0.0406159
0.0405334
0.0227603
0.0440435
0.0152736
0.0392014
0.0363482
0.0394503
0.0210909
0.0339385
0.0355181
0.0376513
0.0412038
0.0532532
0.021022
0.0422905
0.0363624
0.0495439
0.0457427
0.0381347
0.0193061
0.0452567
0.0304127
0.0193168
0.00244966
0.040528
0.0491081
0.0452284
0.0546213
0.0261616
0.0112964
0.0126316
0.0411238
0.0169059
0.0121786
0.0405976
0.0134783
0.0421987
0.0358369
0.0379583
0.0384135
0.0296902
0.0243644
0.0489066
0.00153507
0.045222
0.0325484
0.0219573
0.0377091
0.0200752
0.0195221
0.0364583
0.0533838
0.0393362
0.0276651
0.0288903
0.0226265
0.00293874
0.0259767
0.0362545
0.0356439
0.034843
0.0406018
0.0332378
0.0249674
0.0465917
0.0151995
0.035568
0.0257056
0.0118079
0.0432972
0.0140277
0.0180938
0.0419442
0.0298108
0.0138065
0.0328491
0.0527913
0.0135926
0.0172807
0.0406504
0.0450185
0.0289
0.0203747
0.0405458
0.0217462
0.0519431
0.00268147
0.0493717
0.0397688
0.043388
0.0402909
0.0499624
0.04234
0.0426121
0.0408466
0.0392071
0.0458348
0.0388758
0.0425437
0.044567
0.015572
0.0524452
0.0119373
0.0380109
0.012041
0.0358474
0.0423651
0.0127662
0.0360535
0.0173671
0.044169
0.0422208
0.0480316
0.00374249
0.0128528
0.0132392
0.00280333
0.045053
0.0442738
0.0487667
0.0336544
0.0427323
0.0422234
0.0452145
0.0357832
0.038791
0.0406375
0.0313787
0.0338944
0.0333466
0.0182522
0.0121771
0.0219646
0.0405279
0.0532471
0.0332699
0.0224401
0.0441506
0.03775
0.0119642
0.0374684
0.00248076
0.022324
0.0385678
0.0381764
0.0507001
0.0417699
0.0380892
0.0419905
0.0458319
0.0382749
0.0405363
0.039849
0.0428766
0.040581
0.0389971
0.0488411
0.0462155
0.0218189
0.0361008
0.040335
0.0275056
0.0472145
0.0209102
0.0228262
0.0444524
0.0192265
0.0369195
0.0457064
0.0444501
0.0303862
0.0344979
0.0223818
0.0020492
0.0439921
0.0172991
0.0408348
0.0401291
0.0542762
0.035587
0.0252381
0.034777
0.0337808
0.0275198
0.0414933
0.0366665
0.0304821
0.0260362
0.042912
0.0365832
0.0440497
0.0383509
0.0551721
0.0442008
0.027675
0.0196606
0.0318459
0.0529333
0.025462
0.0283833
0.054252
0.0234514
0.0303606
0.0197166
0.00269998
0.0304099
0.0500791
0.0445113
0.00457579
0.0218134
0.0461702
0.0468307
0.0375964
0.0417918
0.0392244
0.0126137
0.0294027
0.0393655
0.0344123
0.0285491
0.0398454
0.0372516
0.0409741
0.0416786
0.0426349
0.0431116
0.0312024
0.0109484
0.0493928
0.0429611
0.0242839
0.0264293
0.0303453
0.0407765
0.0491237
0.0446729
0.0198536
0.0474991
0.0423495
0.0283001
0.0271788
0.0203509
0.0429319
0.00698846
0.0523204
0.0133266
0.0442667
0.0404643
0.0186599
0.0499496
0.0396058
0.0402929
0.038834
0.0407723
0.0387523
0.0249694
0.0179733
0.0132896
0.0448888
0.0209953
0.0205968
0.0312958
0.0423298
0.0196941
0.0315441
0.0112315
0.0195945
0.0116613
0.0224395
0.0281326
0.0305721
0.00419562
0.00205412
0.0191369
0.0222337
0.0454896
0.0414371
0.0229776
0.0162942
0.0419527
0.0332897
0.0415426
0.0493303
0.03661
0.040971
0.011943
0.0430767
0.0185741
0.0435946
0.0311455
0.0327007
0.0568596
0.0120143
0.0229538
0.00569488
0.0372732
0.045374
0.0495347
0.0362017
0.0453528
0.0371068
0.0503781
0.0414131
0.0221353
0.0464496
0.0352518
0.0261201
0.0167799
0.0500568
0.0436833
0.0499113
0.0391861
0.0470015
0.0387642
0.0368974
0.0177881
0.0207394
0.0397576
0.0483681
0.0364151
0.0203323
0.0129405
0.0449981
0.0206158
0.0207983
0.0209148
0.0131691
0.0436597
0.0445052
0.0384039
0.00311678
0.00453975
0.0224412
0.0416328
0.0475588
0.0288712
0.0528019
0.0413926
0.0411525
0.0478945
0.0225376
0.0265201
0.015258
0.0421321
0.0444699
0.00340262
0.0448895
0.0535034
0.0324739
0.038109
0.0464101
0.0296331
0.0538032
0.0510294
0.0216857
0.0415397
0.0451703
0.0508508
0.0185443
0.00264059
0.0423384
0.0396528
0.039896
0.0167599
0.0337749
0.040516
0.0410054
0.0126767
0.00444354
0.032021
0.0463366
0.0192522
0.0395386
0.0438126
0.0444685
0.041367
0.016394
0.0431079
0.0369422
0.0219048
0.0319716
0.0195321
0.0398927
0.0362834
0.0403351
0.0456392
0.0352194
0.0429799
0.0177159
0.0195391
0.0113158
0.0538139
0.0279758
0.0419604
0.0385122
0.0314857
0.0397526
0.0329672
0.0476841
0.0403195
0.0430554
0.0439269
0.0157591
0.00455723
0.0569322
0.0410757
0.0386402
0.0482537
0.014501
0.0348511
0.0422235
0.0413914
0.0465358
0.0422081
0.0141059
0.0504085
0.049075
0.044534
0.00438378
0.0416745
0.0299787
0.0391384
0.0115805
0.0417089
0.0394155
0.0217286
0.0249089
0.0163598
0.0191997
0.0403214
0.0184474
0.0130623
0.0466845
0.0193761
0.0421047
0.00219707
0.0369822
0.0407711
0.00436509
0.034893
0.0225037
0.0237319
0.0155001
0.0296217
0.0390189
0.0247128
0.0437034
0.0324881
0.0476253
0.0123743
0.0416187
0.0408435
0.0444728
0.0299452
0.0232143
0.0404833
0.00377211
0.0443413
0.0358926
0.0436086
0.00431818
0.041377
0.0507151
0.00290011
0.0485733
0.04404
0.0535559
0.0280519
0.0454528
0.0263179
0.0417646
0.039464
0.030031
0.0502177
0.0241744
0.00540847
0.0409458
0.0326323
0.0413326
0.0403141
0.0452082
0.0476211
0.00315955
0.0255333
0.0412133
0.048107
0.0282679
0.0479335
0.0481563
0.039421
0.0435486
0.0394203
0.0410508
0.0158601
0.0413299
0.0304878
0.0422833
0.0299783
0.0424714
0.0132224
0.00505209
0.0405665
0.0403097
0.0546309
0.0481013
0.0457818
0.0193105
0.028191
0.0320693
0.042284
0.044364
0.0539215
0.00540461
0.0378746
0.0402209
0.0123442
0.0182073
0.0544962
0.0397349
0.0405916
0.0181106
0.0414851
0.0264276
0.0523289
0.0288478
0.0307283
0.0406579
0.0409898
0.0548555
0.00240231
0.0403886
0.0463571
0.0396641
0.0439779
0.0394681
0.042492
0.0506547
0.0223105
0.0456307
0.0257679
0.0192884
0.0410385
0.0129171
0.00797054
0.0189685
0.0156683
0.043273
0.0521474
0.0416197
0.0548616
0.0444529
0.0307017
0.0234639
0.0389287
0.0424471
0.0437465
0.00439688
0.0266477
0.0418196
0.00372638
0.0360871
0.0185836
0.0385279
0.0403051
0.0310976
0.00294296
0.0374066
0.0380621
0.0414642
0.033261
0.0412326
0.0421501
0.0249842
0.0223283
0.0041011
0.0324095
0.00205638
0.0355517
0.0169406
0.0526894
0.0318236
0.055304
0.0135815
0.044103
0.0412314
0.0407544
0.0399196
0.00400604
0.0255604
0.0404741
0.0512721
0.0310838
0.031406
0.0442309
0.0209118
0.0376103
0.0393142
0.0398181
0.0354222
0.0442608
0.033492
0.045298
0.0138577
0.0430436
0.048478
0.0083578
0.0348008
0.0480496
0.0418623
0.0455653
0.00935721
0.0553095
0.035296
0.0398246
0.0390701
0.0484375
0.0395853
0.0376631
0.053559
0.0342602
0.0457285
0.0439654
0.0183611
0.0171894
0.0457481
0.0457223
0.0534787
0.00406692
0.038828
0.00496205
0.0292397
0.0271587
0.0428612
0.047431
0.0370997
0.0431254
0.0223026
0.0141131
0.0167501
0.045287
0.041968
0.031786
0.0177631
0.0540341
0.00408416
0.0421856
0.0359792
0.0408801
0.0382385
0.0388982
0.0368152
0.0124023
0.021473
0.0391848
0.0132114
0.041992
0.0395246
0.0358339
0.0413765
0.0219485
0.0301119
0.0194186
0.045359
0.027216
0.048213
0.0185433
0.0181501
0.0351582
0.00886705
0.0360548
0.0203387
0.0426403
0.0451609
0.0259656
0.0370039
0.0188233
0.040687
0.0284142
0.0324142
0.0397362
0.0163565
0.043273
0.0381064
0.0296668
0.0226573
0.0320384
0.0409061
0.0124093
0.0165287
0.0330572
0.0249239
0.0211651
0.0376369
0.041363
0.0306421
0.0395952
0.013472
0.0516318
0.0261011
0.0233422
0.0380215
0.0505956
0.0320359
0.0509024
0.0445211
0.0147846
0.040633
0.0449524
0.0392688
0.0250752
0.0135623
0.0516296
0.0409004
0.0346983
0.0172872
0.00968632
0.0435257
0.0102511
0.0263338
0.0219564
0.0518848
0.0476526
0.0392217
0.0353615
0.0411263
0.0352044
0.0425985
0.0399666
0.0330223
0.0218909
0.040584
0.0441247
0.0418099
0.0122101
0.0481993
0.0504861
0.017335
0.0394852
0.0533321
0.0532478
0.0233189
0.0177191
0.0398868
0.0435966
0.0476481
0.0402849
0.0400513
0.0344407
0.0380608
0.0353651
0.0103099
0.0461952
0.0219496
0.0387728
0.0306293
0.0414547
0.0372507
0.0329539
0.0250015
0.0412916
0.0399813
0.0225056
0.028688
0.0402884
0.0383699
0.0407284
0.0471394
0.0454672
0.020075
0.0334953
0.0487999
0.0389423
0.0223629
0.0443263
0.0396117
0.0190959
0.0096171
0.0480634
0.0119295
0.0434011
0.0316632
0.0553008
0.0402122
0.0525985
0.0399408
0.0430509
0.0410926
0.0262599
0.012725
0.0501318
0.0454202
0.0349589
0.036392
0.0381564
0.0531732
0.0433875
0.0202185
0.0023321
0.0503692
0.0371042
0.0413588
0.048995
0.0388131
0.0426291
0.0399383
0.0507311
0.0411177
0.0505322
0.034059
0.0445494
0.0192075
0.0237638
0.0404138
0.0345102
0.0150207
0.0319625
0.0498274
0.0344368
0.0489324
0.0531781
0.0239708
0.0292076
0.0264288
0.0375031
0.048559
0.0454884
0.0218166
0.0489796
0.047209
0.0347115
0.029186
0.0324046
0.0468988
0.0421424
0.0424245
0.0408222
0.024323
0.0419496
0.0519398
0.0198531
0.0310984
0.0383329
0.0148965
0.032942
0.0191359
0.041959
0.01207
0.0117829
0.0156537
0.0418825
0.0462229
0.00374656
0.0335614
0.0223243
0.0483123
0.053536
0.0254606
0.040582
0.0440853
0.0219489
0.0228285
0.040787
0.0456088
0.0566577
0.0206665
0.0407458
0.0241852
0.0251388
0.00531694
0.0442804
0.0252901
0.00184165
0.0177537
0.0120078
0.048435
0.048987
0.0405359
0.0315375
0.0179561
0.0418086
0.0320659
0.0209283
0.0389965
0.0509065
0.0433189
0.039618
0.0228524
0.0477716
0.0284992
0.019722
0.0401885
0.0490881
0.0542117
0.0115975
0.0338247
0.0471984
0.0127166
0.0192575
0.0339657
0.0215449
0.047595
0.0512319
0.0516379
0.0200489
0.0189766
0.0399157
0.0268218
0.0353511
0.0334235
0.0162752
0.0257556
0.0389942
0.0113875
0.0169939
0.0420362
0.0470439
0.0311866
0.0234864
0.0379405
0.0419164
0.038984
0.0317646
0.0259415
0.0173753
0.0392376
0.0370087
0.0218391
0.0371791
0.0393792
0.0128296
0.0459914
0.0387238
0.035546
0.0244887
0.0210448
0.0486153
0.0208892
0.036145
0.0414378
0.0297869
0.0564594
0.0228816
0.028329
0.0302534
0.00202092
0.0441639
0.0390349
0.0289966
0.0120279
0.0328334
0.0427027
0.0423758
0.0376949
0.0397673
0.0414757
0.0383325
0.0229984
0.0156712
0.0401089
0.0449602
0.0411582
0.0123851
0.0475171
0.00521956
0.0178028
0.0115519
0.0416597
0.0420521
0.0401612
0.0344404
0.0414909
0.0416454
0.0221499
0.0277207
0.023507
0.0303786
0.0307381
0.0216131
0.00231354
0.0491977
0.0402362
0.00382043
0.0141345
0.0275781
0.0160207
0.0256087
0.0236167
0.0357466
0.0416888
0.0216532
0.0415571
0.031344
0.0360447
0.0444216
0.0218478
0.0325888
0.029257
0.0543018
0.0175736
0.0391549
0.0216898
0.0233637
0.021807
0.0404343
0.0220051
0.0250111
0.0483687
0.0196516
0.0486986
0.0200241
0.0184925
0.0305199
0.0321396
0.0341436
0.0227168
0.0380292
0.0490618
0.0134623
0.0360043
0.0316107
0.0510572
0.0197277
0.0512622
0.0487646
0.036995
0.021363
0.0361902
0.0542493
0.0429349
0.0393526
0.0325706
0.0242697
0.0330985
0.0410256
0.0286092
0.0171864
0.054547
0.0189136
0.0485633
0.0171144
0.0210553
0.0414866
0.0384473
0.0401411
0.0354514
0.0304
0.0333609
0.0350987
0.0386096
0.0290553
0.0355116
0.0253688
0.0470021
0.0383969
0.0396329
0.0490871
0.0463405
0.0483492
0.0407903
0.0250764
0.0376807
0.0434513
0.0331857
0.0340687
0.0415924
0.0530687
0.0435035
0.0386608
0.03785
0.00650681
0.00581284
0.0246667
0.053741
0.0322607
0.0395303
0.0518911
0.0406475
0.0385065
0.05084
0.0187322
0.0426451
0.0259647
0.0378562
0.0328541
0.0401078
0.040777
0.0518545
0.0164011
0.0392884
0.0485619
0.0437588
0.0480505
0.0372204
0.0358177
0.0342598
0.0396175
0.0452266
0.0415359
0.0341961
0.0468416
0.0459104
0.0438743
0.0435129
0.0216539
0.0400692
0.041243
0.0157312
0.0400141
0.0426038
0.0417864
0.0428381
0.0317627
0.0216183
0.010905
0.0370857
0.0311022
0.0340161
0.0345968
0.00812693
0.0404242
0.0316346
0.0436223
0.0428137
0.0378885
0.0274953
0.0485706
0.0394045
0.0214652
0.0520175
0.0384462
0.0300498
0.0353325
0.0323974
0.0256118
0.0199622
0.0446949
0.0423133
0.054236
0.0497802
0.0431553
0.026021
0.048483
0.0456464
0.043403
0.0340481
0.0248326
0.010146
0.0190365
0.042764
0.0447396
0.0257129
0.0134
0.0449688
0.0151105
0.0286639
0.0532166
0.0507344
0.0435864
0.0521885
0.0334815
0.0406444
0.0319017
0.041344
0.0370198
0.0395035
0.0341456
0.0495458
0.0142162
0.0367236
0.034672
0.0327296
0.0295845
0.0348755
0.040446
0.0312797
0.0342948
0.0522303
0.0491865
0.0423481
0.0336279
0.0408725
0.0371084
0.0266733
0.0390975
0.0435583
0.0365488
0.015814
0.0431729
0.0187103
0.0442165
0.0391905
0.0315929
0.0340868
0.0356221
0.0391509
0.0403415
0.0446799
0.020535
0.0441132
0.0210719
0.0212938
0.0531791
0.0285751
0.031329
0.0280369
0.0237254
0.0464807
0.0311387
0.0429275
0.0382008
0.0373818
0.0252775
0.0329752
0.052921
0.045822
0.0350245
0.0313057
0.0492423
0.0210884
0.0493364
0.0445657
0.0181862
0.0474633
0.0503057
0.0316877
0.0221165
0.0169554
0.0332938
0.0300261
0.0220341
0.0440135
0.0391759
0.0521597
0.0520985
0.0463198
0.0343063
0.0435584
0.0298318
0.0394754
0.0429658
0.0513295
0.0235478
0.0410515
0.0480878
0.0338007
0.0477537
0.0522359
0.0392365
0.0140491
0.0392075
0.0502333
0.048898
0.0283626
0.032136
0.0309672
0.0545141
0.0817648
0.0898314
0.0906015
0.0874386
0.0823674
0.0765198
0.0706058
0.0650496
0.0600966
0.0558682
0.052403
0.0496871
0.0476769
0.0463158
0.0455865
0.0453843
0.0456284
0.0462653
0.0472442
0.0530656
0.0798747
0.0882736
0.0892276
0.0862346
0.081298
0.075561
0.0697346
0.0642478
0.0593505
0.0551689
0.0517456
0.0490699
0.0471004
0.0457868
0.0451137
0.0449652
0.0452789
0.046003
0.0470986
0.0516003
0.0780446
0.0867436
0.0879031
0.085087
0.0802938
0.0746727
0.0689377
0.0635223
0.058681
0.0545452
0.0511617
0.0485231
0.0465903
0.0453198
0.0446941
0.0445895
0.0449565
0.0457392
0.0468926
0.0501273
0.0762623