/*--------------------------------*- C++ -*----------------------------------*\
  =========                 |
  \\      /  F ield         | OpenFOAM: The Open Source CFD Toolbox
   \\    /   O peration     | Website:  https://openfoam.org
    \\  /    A nd           | Version:  10
     \\/     M anipulation  |
\*---------------------------------------------------------------------------*/
FoamFile
{
    format      ascii;
    class       volScalarField;
    location    "150";
    object      nut;
}
// * * * * * * * * * * * * * * * * * * * * * * * * * * * * * * * * * * * * * //

dimensions      [0 2 -1 0 0 0 0];

internalField   nonuniform List<scalar> 
23845
(
0.0122378
0.011237
0.00561973
0.00780053
0.010656
0.0685536
0.0110826
0.00612159
0.0656085
0.0127394
0.010268
0.0715742
0.0462661
0.0670805
0.0072607
0.0144762
0.0325194
0.0126405
0.0257402
0.0564304
0.0132564
0.010231
0.0149399
0.0663439
0.0118923
0.0505264
0.0131285
0.0653355
0.00258068
0.0558561
0.00899962
0.00107132
0.00451974
0.0136938
0.070197
0.060815
0.000882391
0.0706758
0.072083
0.0543534
0.0247381
0.0346184
0.0452211
0.032299
0.0661333
0.0470716
0.0104178
0.0133756
0.00195208
0.00155367
0.00465191
0.00633367
0.00114271
0.067386
0.00102215
0.0347447
0.0098827
0.00755986
0.0125067
0.00830433
0.00362256
0.0295723
0.0152762
0.00290744
0.066419
0.0485359
0.0127779
0.0485241
0.0650739
0.0223784
0.00504854
0.00492477
0.0505884
0.00837559
0.0665401
0.00742929
0.0724114
0.0709397
0.0082364
0.0166785
0.0139316
0.0096921
0.0104685
0.00670834
0.00475146
0.0693848
0.00978908
0.00105314
0.0653163
0.0201737
0.00383609
0.0227269
0.00264859
0.0652421
0.00756346
0.00430722
0.0326781
0.012958
0.0646049
0.0107284
0.0235686
0.0123383
0.011011
0.000764178
0.0022008
0.00693427
0.0681367
0.0659675
0.0135244
0.0374291
0.0103194
0.0708669
0.00538587
0.0125202
0.0596672
0.0137183
0.065871
0.0138779
0.0027298
0.00373514
0.0715882
0.00219896
0.023278
0.00432483
0.0117816
0.0507253
0.00398363
0.00155234
0.00417652
0.0100719
0.00331817
0.0109866
0.0102748
0.068381
0.0184708
0.0115604
0.000680274
0.0723269
0.0139983
0.071328
0.00181978
0.0393698
0.0662433
0.0238773
0.0161911
0.0401767
0.0136398
0.00632105
0.00336424
0.0169711
0.00483923
0.0504616
0.00987476
0.0598471
0.00530636
0.0121402
0.0104817
0.0677094
0.00311538
0.00390406
0.0194312
0.00779376
0.00728308
0.065879
0.0381427
0.014216
0.069852
0.002348
0.0640319
0.0413732
0.0614558
0.00700446
0.0666903
0.00465063
0.0523696
0.00827609
0.0207344
0.0113288
0.0648435
0.0685008
0.01034
0.0104831
0.00876712
0.0102847
0.014527
0.0369063
0.0355173
0.00635265
0.00205412
0.0373947
0.00246982
0.0671851
0.0557443
0.0584824
0.0180092
0.0670343
0.00159666
0.00204795
0.000668482
0.0105146
0.0124912
0.0668667
0.0035343
0.0107458
0.006265
0.00723525
0.00509415
0.0701132
0.0124609
0.0120206
0.0142185
0.00217559
0.0171803
0.0636152
0.00286467
0.00109292
0.0106142
0.0272609
0.000410516
0.00367369
0.0545259
0.00787036
0.00148756
0.0136486
0.0355471
0.0055898
0.000618554
0.0673331
0.0608472
0.026697
0.0677538
0.00252375
0.0700713
0.0486045
0.0107428
0.00355043
0.0666807
0.0087512
0.0520589
0.00647426
0.0014073
0.0135343
0.00733665
0.0107476
0.00247577
0.0146082
0.0681811
0.066526
0.00786563
0.00779547
0.0499687
0.0658118
0.00448294
0.04579
0.00930195
0.00367033
0.00375311
0.00533873
0.0636237
0.0668747
0.000754788
0.0666429
0.00434918
0.0104409
0.0112934
0.0530371
0.00847838
0.00395333
0.00883791
0.00850701
0.0703441
0.00688549
0.00425544
0.0562567
0.0102389
0.0552521
0.00535136
0.0674201
0.00158211
0.014957
0.00639603
0.0600436
0.00578089
0.0151569
0.0684793
0.00356679
0.00500013
0.0660261
0.0071258
0.00660315
0.00821738
0.00315169
0.0031692
0.00503555
0.00772464
0.0698197
0.00307982
0.0677552
0.0683815
0.00305117
0.00286154
0.00592158
0.00341932
0.00916165
0.0573254
0.00929025
0.00269404
0.00439411
0.0248803
0.00147169
0.00403788
0.00941403
0.0298619
0.060882
0.00607402
0.00172544
0.00330804
0.0106113
0.00342081
0.0515288
0.00201615
0.00227695
0.00310814
0.0628941
0.00739999
0.0639446
0.00869669
0.00985373
0.00411145
0.0115682
0.00721329
0.0140886
0.00441169
0.065863
0.00383306
0.00797443
0.00673346
0.0121084
0.044428
0.00854287
0.0062728
0.00322494
0.0102591
0.0488469
0.0661758
0.00111135
0.0654837
0.00478979
0.00849131
0.00494468
0.00744985
0.00342175
0.00142694
0.00527445
0.00112357
0.0560573
0.0453843
0.0513811
0.00660286
0.00760083
0.00414791
0.0518051
0.0135723
0.0165812
0.00224512
0.0690133
0.0040765
0.065096
0.00286955
0.05065
0.0364254
0.00338518
0.00225206
0.0709299
0.0673088
0.00409028
0.00560945
0.00713742
0.0437307
0.0059592
0.00876286
0.0661206
0.0145903
0.0666387
0.0487574
0.0710781
0.0680872
0.00836136
0.0115764
0.00792785
0.0126522
0.0428817
0.00257811
0.00215007
0.00365322
0.00304178
0.0108457
0.0665593
0.0214566
0.0652673
0.00640898
0.00995513
0.00650274
0.00566632
0.00856619
0.0082777
0.0710343
0.00241554
0.00227579
0.00405061
0.0066288
0.0487601
0.0100885
0.00377973
0.01093
0.00555052
0.00918082
0.0102478
0.0647605
0.0137882
0.00268535
0.05335
0.0660602
0.00863969
0.00443449
0.0118587
0.00240535
0.00881625
0.00468742
0.00446618
0.0671599
0.0132221
0.00322811
0.0118151
0.0513176
0.0630673
0.0711835
0.0383184
0.00315733
0.0052426
0.00688035
0.00245028
0.0019888
0.00398052
0.00936585
0.00309269
0.0620495
0.0106128
0.0643169
0.00615699
0.00852306
0.0587322
0.00216096
0.0645421
0.0493654
0.00342304
0.00872983
0.0108008
0.00582937
0.0669805
0.0125871
0.00879593
0.000641243
0.00906511
0.0619762
0.0701472
0.0587186
0.00273857
0.0489232
0.00442445
0.0561191
0.0695067
0.0100023
0.00405576
0.00273703
0.0103122
0.0605901
0.00270067
0.0656692
0.0200223
0.0107836
0.0103377
0.00936522
0.0104027
0.0111135
0.00782553
0.0698138
0.0690273
0.0066441
0.00377307
0.0508522
0.00323391
0.00427926
0.010749
0.00573729
0.0107953
0.0618762
0.00508591
0.0658996
0.0644676
0.00944083
0.0018268
0.0034577
0.0108283
0.00665094
0.00765022
0.010361
0.0412675
0.0647603
0.00359361
0.00959319
0.00333138
0.000999159
0.00975897
0.0570556
0.0491389
0.0101296
0.00397432
0.00436843
0.0472134
0.000713666
0.0655057
0.0120281
0.00292865
0.0493185
0.0110687
0.00910029
0.00291435
0.014138
0.00284951
0.00374377
0.00271538
0.0103776
0.0153576
0.0273209
0.0401609
0.0669151
0.00360043
0.0107506
0.00797667
0.00495112
0.0664384
0.0149267
0.0149129
0.0178361
0.0146704
0.0103765
0.0467814
0.0646359
0.0504661
0.0609116
0.0692251
0.00454482
0.0561179
0.00680824
0.0107158
0.0474665
0.00332684
0.0650603
0.0589473
0.00788618
0.00859
0.00870232
0.0611697
0.0462985
0.00211716
0.00228003
0.0508888
0.00272702
0.04499
0.0605823
0.0110771
0.0354278
0.059689
0.0134829
0.0103593
0.00435172
0.00364912
0.00600727
0.0107697
0.0562353
0.0717394
0.0171695
0.00616288
0.00294139
0.0470218
0.0502493
0.0575774
0.00617343
0.0609344
0.0154378
0.00496824
0.0120236
0.0102755
0.00499764
0.0433597
0.065308
0.0660598
0.0129531
0.0704998
0.00565403
0.0639776
0.0107198
0.00769847
0.00559637
0.0112918
0.00562867
0.0107658
0.0105133
0.0124726
0.0106672
0.011041
0.00942582
0.0107536
0.00283096
0.0117661
0.0106027
0.010924
0.0551288
0.0647912
0.0105887
0.00450034
0.0106874
0.012303
0.0106665
0.010656
0.0260192
0.0160799
0.0335246
0.0150704
0.0470708
0.0496558
0.01055
0.0665622
0.0701207
0.00589622
0.0114375
0.013553
0.0549299
0.0106315
0.00960113
0.0115101
0.0640253
0.0432462
0.0122993
0.0108426
0.0129974
0.0464614
0.0112635
0.00437088
0.0605997
0.0669964
0.010554
0.00721941
0.00344105
0.00333775
0.00320997
0.0118846
0.00401857
0.0105913
0.012361
0.0245803
0.014366
0.0107971
0.0176233
0.0576352
0.0346392
0.0107499
0.0100804
0.0106469
0.0154551
0.0105115
0.0107954
0.0103618
0.0104924
0.0103848
0.010663
0.010522
0.0111153
0.0173929
0.0106051
0.0110231
0.0462436
0.011442
0.0181609
0.0109313
0.038129
0.0122411
0.010596
0.011233
0.0141488
0.039893
0.0103598
0.0102819
0.0102586
0.0102972
0.0103561
0.0105029
0.0104238
0.010682
0.0108447
0.0111907
0.0114632
0.0116201
0.014632
0.0159419
0.012661
0.0176407
0.0149554
0.0305113
0.0385314
0.00963773
0.0659049
0.0418711
0.0345228
0.020176
0.0680014
0.0104949
0.0260214
0.0103547
0.0103185
0.0108431
0.0337708
0.0401741
0.0628085
0.0125462
0.0139443
0.0104132
0.0598163
0.0102562
0.0435093
0.0133154
0.0631189
0.0448531
0.0103955
0.0140642
0.0106645
0.0335773
0.0656576
0.053074
0.0651788
0.047411
0.0126319
0.0048368
0.0588907
0.0426666
0.0104663
0.049253
0.0527571
0.0555879
0.00732839
0.0475172
0.0667524
0.0108971
0.0365994
0.00399534
0.010994
0.0112661
0.0103324
0.010294
0.0103387
0.0450805
0.0105441
0.0106571
0.0104273
0.0107882
0.0149258
0.011954
0.0107678
0.0130358
0.0535166
0.0102833
0.0102625
0.0105095
0.00741321
0.0119089
0.054457
0.0108618
0.0115696
0.0162156
0.0164586
0.0117865
0.00397463
0.0550633
0.0111507
0.0510276
0.0433042
0.0259744
0.0491472
0.0524491
0.0230125
0.0385199
0.0165875
0.0456506
0.0454907
0.0446506
0.0102341
0.0111214
0.058582
0.0135064
0.0191267
0.043047
0.0103357
0.0118354
0.0109192
0.0137274
0.0431013
0.0537733
0.0417737
0.0483299
0.0108954
0.011541
0.0102449
0.0166717
0.0535583
0.0107332
0.00270342
0.0114221
0.0275824
0.021379
0.0466346
0.0427462
0.0176532
0.0324863
0.0390969
0.0489085
0.026655
0.0479495
0.0392835
0.0473299
0.0486082
0.0490875
0.036906
0.025376
0.0357903
0.0410221
0.0160736
0.0388456
0.0213844
0.00500247
0.0103024
0.0588559
0.0527567
0.0483987
0.0112323
0.0102678
0.0108689
0.0102904
0.0145846
0.0309992
0.0284563
0.0222932
0.0176694
0.0113964
0.0544823
0.0410965
0.0481571
0.0198153
0.0717086
0.00807231
0.0691068
0.0124158
0.0351385
0.0103511
0.0556795
0.0417459
0.0187279
0.0231405
0.0146609
0.0151584
0.0222045
0.0145145
0.0303863
0.0278534
0.0416498
0.0446576
0.0489712
0.0508139
0.0284509
0.0379171
0.0544455
0.0120675
0.0536028
0.0119846
0.0121383
0.0102392
0.0216158
0.0145816
0.0227218
0.0458134
0.0182157
0.0517954
0.0149973
0.0272845
0.0498574
0.0144694
0.0295479
0.0404794
0.0102463
0.0536327
0.012937
0.0104129
0.0106557
0.0435964
0.0109
0.052283
0.012277
0.0545977
0.0108357
0.00260644
0.0666312
0.0108915
0.0104906
0.0103822
0.0107316
0.0103336
0.0497355
0.0165589
0.0127801
0.0193056
0.00660125
0.00192638
0.0225968
0.037618
0.0632922
0.00944778
0.0465191
0.00655835
0.0446366
0.0476528
0.0320091
0.0379957
0.0417601
0.0459917
0.0401708
0.0107388
0.0536173
0.0137934
0.0178533
0.010271
0.0478196
0.0144955
0.0108251
0.0106671
0.0105114
0.0211112
0.0127141
0.0116511
0.0103481
0.0103059
0.0103566
0.012439
0.0106071
0.0102203
0.0152304
0.0103743
0.0103754
0.0102394
0.0118876
0.0561807
0.0136378
0.0195296
0.0203333
0.0619351
0.0290084
0.0131821
0.0243118
0.0565572
0.010339
0.0134884
0.0107024
0.030098
0.0152903
0.0566834
0.0396912
0.0349037
0.0404653
0.0169387
0.0496903
0.0102322
0.0107087
0.0112517
0.0516646
0.0465529
0.0103544
0.0104063
0.0578142
0.0128452
0.0110929
0.0114508
0.0109267
0.0129207
0.025218
0.01045
0.0104213
0.0106216
0.0112447
0.0106043
0.0108366
0.0478097
0.0181551
0.015849
0.0486684
0.0138311
0.0128892
0.0424961
0.00142506
0.0523569
0.0035469
0.0493264
0.0615872
0.00158223
0.058168
0.0484016
0.0665796
0.0480333
0.0491321
0.0525455
0.0539686
0.0433477
0.0105141
0.00372508
0.0554749
0.0110786
0.0192443
0.010653
0.0107718
0.0114477
0.010211
0.0546648
0.0374227
0.0387307
0.0623636
0.0666855
0.0663903
0.0107651
0.0106381
0.0171938
0.0150993
0.0159895
0.014872
0.0147566
0.0102861
0.0477056
0.010637
0.0113399
0.0109277
0.0102647
0.0120796
0.010251
0.0151278
0.0102761
0.0292785
0.010295
0.0106301
0.0191272
0.0110277
0.0116165
0.0125579
0.0410144
0.0490815
0.0108206
0.0148773
0.0103863
0.0556219
0.0137104
0.0554798
0.0577165
0.0191999
0.0711693
0.0106709
0.0153369
0.0390146
0.0294779
0.0298849
0.0406374
0.0104367
0.0477485
0.0590366
0.0126877
0.032374
0.0662604
0.0103966
0.0103043
0.0142984
0.00338551
0.00570458
0.0467774
0.0125711
0.011978
0.0102135
0.0128389
0.0575718
0.0102251
0.0129914
0.0102365
0.0102987
0.0105286
0.0108382
0.0020888
0.0112647
0.0119975
0.0523906
0.0129569
0.011315
0.0227805
0.0183811
0.00310711
0.0166547
0.0491898
0.047106
0.0261132
0.0622845
0.0492182
0.057179
0.0530021
0.0103852
0.035193
0.0441118
0.0148626
0.0586674
0.0566718
0.0595481
0.00899755
0.0380522
0.0551154
0.0106494
0.0482939
0.065173
0.0551773
0.0435555
0.0333146
0.00481921
0.0471921
0.0511051
0.0138113
0.0101943
0.010492
0.0102276
0.010284
0.0592452
0.0138265
0.0382594
0.0274003
0.0588009
0.0105698
0.0153092
0.05458
0.057433
0.0111877
0.0174463
0.00691866
0.00580199
0.0593041
0.0483662
0.054002
0.0107989
0.0211434
0.0469138
0.010555
0.0537809
0.00880349
0.059145
0.0697211
0.0587947
0.0153275
0.0498973
0.0292917
0.0109809
0.0602955
0.0113243
0.0205246
0.0511212
0.0109496
0.0527058
0.013001
0.0123837
0.016638
0.0117155
0.0134102
0.058579
0.0124979
0.0104457
0.0314951
0.0144993
0.0278957
0.0291465
0.0171421
0.0489859
0.0470101
0.0157451
0.0482005
0.0358326
0.0149582
0.0488311
0.0400732
0.014753
0.0418953
0.0461851
0.0148197
0.0107698
0.0106323
0.0663307
0.0583672
0.0127402
0.0707225
0.0630051
0.0103553
0.0120772
0.0109539
0.0199771
0.0119382
0.0496679
0.0222628
0.0137695
0.0102221
0.0599688
0.0102206
0.0109333
0.00178437
0.0607572
0.0503397
0.0574771
0.069422
0.0599154
0.032006
0.0510448
0.006433
0.0113021
0.0415305
0.0104696
0.0220405
0.0103574
0.0570146
0.0140115
0.041134
0.0203998
0.0104032
0.0363222
0.0115561
0.0609096
0.0542029
0.00352669
0.0598232
0.0116177
0.0113289
0.0104481
0.00518027
0.00831893
0.0106927
0.0548177
0.0501444
0.0106509
0.0536467
0.0525919
0.0499706
0.0125583
0.0658997
0.0530317
0.0421629
0.0104966
0.0350362
0.0213609
0.0153779
0.0616205
0.00257465
0.0160661
0.0138081
0.0113472
0.0721797
0.000699734
0.0500768
0.00333844
0.0613172
0.0108425
0.0190282
0.023737
0.0596488
0.0146832
0.0117069
0.0289139
0.0110582
0.0114981
0.0377891
0.0270333
0.0595804
0.011724
0.0119531
0.0688728
0.0150455
0.018512
0.0141848
0.0143962
0.0109967
0.0135631
0.0124554
0.0115719
0.0117828
0.0128235
0.0100978
0.0577866
0.0103728
0.0582198
0.0549643
0.00492406
0.0113544
0.0119359
0.0682514
0.0108765
0.0197915
0.0277949
0.011356
0.0256752
0.00806213
0.00399209
0.0109479
0.0114623
0.0697182
0.00390415
0.0121759
0.0127709
0.0143309
0.0110279
0.00912241
0.0580394
0.0507508
0.00528813
0.00645711
0.0600434
0.0110816
0.011153
0.0451092
0.00350288
0.0501828
0.012228
0.0173178
0.014866
0.0520537
0.0111973
0.0143003
0.0681932
0.00773285
0.0120392
0.0546957
0.00452002
0.0530034
0.0123531
0.0124188
0.00795501
0.0557846
0.0107469
0.0141579
0.0150126
0.011377
0.0232148
0.050954
0.0121813
0.0143867
0.0114093
0.0609246
0.0516637
0.0107024
0.0181189
0.050534
0.014741
0.0522215
0.0107817
0.0125292
0.0119618
0.0117909
0.0109152
0.0603726
0.0118864
0.063161
0.0144434
0.0109229
0.0309388
0.0049927
0.0511529
0.0113729
0.000771624
0.060866
0.0542862
0.0129483
0.0105231
0.0112547
0.00974545
0.0104644
0.013564
0.0103258
0.0672987
0.0623345
0.050799
0.0639397
0.0617394
0.0511412
0.0119109
0.00354984
0.0278659
0.045262
0.0162942
0.0142285
0.0513399
0.0121582
0.0173946
0.0118562
0.0329561
0.0129997
0.0106427
0.0108838
0.0110218
0.0587225
0.0104536
0.00839771
0.00545458
0.0540695
0.0134798
0.0109771
0.0113221
0.0579726
0.0596205
0.0212893
0.0140324
0.0115893
0.00190436
0.0653994
0.00560915
0.0525202
0.060421
0.0122267
0.0128932
0.0107027
0.0113507
0.011894
0.011445
0.0165602
0.0625801
0.0114438
0.0575769
0.016205
0.0145482
0.014149
0.00832639
0.0106308
0.0205223
0.0103415
0.0114743
0.00594705
0.0106535
0.0516313
0.00878033
0.0593974
0.0596405
0.0102442
0.0105155
0.00404468
0.00279591
0.010469
0.0601711
0.0110944
0.0544017
0.00887309
0.0108073
0.0587509
0.0111628
0.0103335
0.0330332
0.00803246
0.0107006
0.0107434
0.0195551
0.0121244
0.0109752
0.0533854
0.0164699
0.00453065
0.0616026
0.053531
0.0119894
0.065566
0.0142375
0.0108402
0.011636
0.00370715
0.065251
0.0670768
0.0598596
0.00324606
0.0523057
0.0290932
0.0200156
0.00568961
0.0573464
0.0460392
0.0533577
0.00579399
0.0142791
0.0614516
0.0147809
0.0641768
0.0667999
0.0509789
0.00902989
0.0105146
0.0624452
0.0580946
0.0148209
0.010703
0.0389998
0.0126335
0.0633201
0.0630884
0.00446602
0.0590594
0.0102967
0.0656192
0.0123917
0.00669282
0.00553367
0.00203973
0.00963986
0.0104111
0.0541361
0.0108614
0.0609966
0.054755
0.0210544
0.0102756
0.0585056
0.00553501
0.00284178
0.0513964
0.0525451
0.00960305
1.41899e-05
0.0147404
0.0109938
0.0104669
0.0151982
0.0621978
0.0105059
1.19359e-05
0.0680459
0.00840565
0.0631251
0.0610293
0.010238
0.00240592
0.0047064
0.0103093
0.0108978
0.03304
0.00144174
0.0489656
0.0128335
0.0603686
0.0144654
0.0106317
0.0517467
0.0102138
0.0582323
0.0610871
0.0636098
0.00193873
0.00886685
0.00880235
0.00436549
0.0543328
0.0111134
0.0678247
0.0677035
0.0674183
0.0108914
0.00525465
0.062211
0.024811
0.0108726
0.0046198
0.0104975
0.0557774
0.0079775
0.0575129
0.0525727
0.0364257
0.0491499
0.0352972
0.0659404
0.064587
0.0075936
0.0515178
0.0214539
0.0630603
0.0144928
0.00765052
0.0103922
0.0642737
0.00707391
0.0119496
0.0163158
0.0552308
0.00277844
0.0436251
1.24489e-05
0.00666965
0.00612744
0.0225404
0.0550468
0.0117034
0.0123875
0.0537643
0.0571259
0.0113763
0.00982539
0.0103424
0.0209916
1.21111e-05
0.0525911
0.00508259
0.0184077
0.00358243
0.0642523
0.0582256
0.0164831
0.0111409
0.00278879
0.0598826
0.00826331
0.00231308
0.0108503
0.0136897
0.0138144
1.75625e-05
0.0107844
0.0671423
0.0108548
0.0110109
0.0141464
0.0622566
0.00726667
0.0144829
0.00863313
2.70186e-05
0.0664183
0.0569581
0.011207
0.00622917
0.0105659
0.011532
0.052777
0.0559666
0.0257378
0.0558036
0.0039374
0.0562651
0.0614435
0.00962517
0.0112297
0.0112093
0.0110817
0.00398738
0.0052294
0.0100236
0.00185516
0.00919817
0.0108091
0.020674
1.96929e-05
0.0503344
0.00630088
0.0718335
0.00293116
0.00298774
0.0144926
0.0108084
0.0442616
0.0249964
0.0167045
0.05768
0.0103758
0.0671502
0.0122195
0.0102551
0.0453617
0.0106725
0.0103528
0.00823932
9.91741e-06
0.00422785
0.00698927
0.00382193
0.0107888
0.00226966
0.0104795
0.0506091
0.00272419
0.0527449
0.00504191
0.015277
0.0239544
2.36423e-05
0.0103285
0.0650806
0.00766413
0.0567934
0.0106885
0.012893
0.0189605
0.00872814
0.0243443
0.0139041
0.0284576
0.0155012
0.00936407
0.000742291
0.0184522
0.0485625
0.0367597
0.011561
0.0540505
0.0037988
0.0104409
0.0180751
0.011223
0.070219
0.00525333
0.015044
0.0579554
0.0113899
0.00403656
2.1637e-05
0.00480117
0.00503213
0.0085813
0.056291
0.0096315
0.0637884
0.067608
0.00890695
0.0667554
0.00452775
0.0100112
0.00946512
0.00545383
0.0107754
0.00740392
0.0120785
0.052934
0.01414
0.0487005
0.00790164
0.0183658
0.0450001
0.0167684
0.00613173
0.0632223
0.00980634
3.20862e-05
0.0106071
0.00147225
2.37405e-05
0.0148933
0.0679082
0.00344676
0.0377847
0.0704016
0.0633556
0.00466079
0.0577934
0.0550342
0.0553012
0.0124378
0.0513485
0.00814402
0.0259898
0.0110626
0.0174562
0.0563256
0.0100035
0.048382
0.026283
0.0106768
0.0534501
0.0111745
0.0443544
1.96456e-05
0.0137983
0.0540762
0.00252741
0.0100686
0.0103899
0.0515765
0.0673967
0.0100238
0.0112164
0.00891299
0.0118932
0.00782221
0.0072655
0.0536457
0.00573045
0.0130927
0.0261828
0.00648802
0.0669784
0.00403142
0.00309259
0.00342749
0.0130314
0.0116388
0.000974729
0.0654465
0.0720239
0.068551
0.00652474
0.0083511
0.003039
1.61844e-05
0.0127764
0.0187797
0.0595812
0.00902892
0.00332723
0.00843127
0.024225
0.0145298
0.0551867
0.00583021
0.00245053
0.00596279
0.0052868
0.00452202
0.00734387
0.0471951
0.00831258
0.00693129
0.0027325
0.00735721
0.00544514
0.0147888
0.00748412
0.00300028
0.0284087
0.00536666
0.00810065
0.028468
0.00666132
0.0195123
2.10475e-05
0.00654608
0.010362
0.00950042
4.21037e-05
0.0197036
0.00942177
0.0044901
0.0494076
0.00822285
0.0441359
0.0129248
0.0110028
0.0625408
0.0561047
0.0104008
0.056674
0.0461045
0.0605705
0.049696
0.0133604
0.0651417
0.0119421
0.000726571
0.00492618
0.0683454
0.021838
0.0317168
0.00655533
0.0668437
0.00418881
0.0102963
0.0106974
0.00642054
0.00621685
0.00565644
0.0103672
0.025697
0.00884987
7.49156e-05
0.00379861
0.0187232
0.0675627
0.0683152
0.0104116
0.0152545
0.0492409
0.05917
0.0484042
0.00525425
0.0565248
0.01954
0.0161257
0.0106048
0.00460747
0.0200613
0.0231808
0.0394081
0.0125005
0.0262594
0.0073269
0.0120548
0.0158964
0.0116117
0.0168485
0.00488035
0.00370862
3.83214e-05
1.57356e-05
0.0121658
0.0158731
0.00633217
0.0651298
0.00374733
0.0172417
0.0455875
0.0396793
0.0102318
0.010818
0.054066
0.0100148
0.000716354
0.00485635
0.00227254
0.00800634
0.0328991
0.00520594
0.00306965
0.0127524
0.0120321
4.67392e-05
0.0102013
0.0717841
0.00623174
0.0565235
0.00824568
0.0140212
0.00733848
0.0674744
0.0241711
0.00675087
0.0561991
0.0166978
0.0255892
0.00837206
0.0681094
0.00594556
0.053577
0.0110167
0.0666503
0.0520025
0.020218
0.0187193
0.00844473
0.00600361
0.0561546
0.0267697
0.0153215
0.0711908
0.0132393
0.0330115
0.00225584
0.00142305
0.00997132
0.0694321
0.0548556
2.67324e-05
3.36294e-05
0.00267399
0.00437311
0.0131373
0.0384799
0.0083247
0.0103837
0.0642791
0.0119219
0.0102505
0.0113394
0.0232812
0.0116194
0.0704837
2.90375e-05
0.0726327
0.00342317
0.00778546
0.0550761
0.00980086
0.0358622
0.00293637
0.00923416
0.0223496
0.0487236
0.00913915
0.00340723
0.0194838
2.27069e-05
0.0100826
0.0667987
0.00325229
0.0264102
0.00441038
0.0507395
0.0631387
0.0114293
2.98402e-05
0.0499486
0.00510132
0.0103668
0.0579064
0.0696628
0.0724359
0.0621426
0.0224129
0.00488383
0.0147878
0.0203507
0.0115172
0.0152389
0.0551061
0.0535135
0.0610083
0.0106665
0.0104287
0.0662089
0.0163204
0.0102409
0.0118206
0.00374961
0.0108496
0.0488752
0.0573592
0.00718934
0.0553875
0.046803
0.00468312
0.00814496
0.0687122
0.0721743
0.00191484
3.21356e-05
0.00303048
0.0677488
0.0508147
0.00300785
0.0124144
0.0519531
0.0676164
0.0129526
0.00991281
0.00519436
0.0206763
0.0117719
0.0091764
0.00554025
3.43546e-05
0.0496615
0.0104633
0.054475
0.00076571
0.0660139
0.0573982
0.0147823
0.0135883
0.0171041
0.0107541
0.0642106
0.0233669
0.0108464
0.00555883
0.0240172
0.00996236
1.77904e-05
0.013168
0.062182
2.1767e-05
0.0138416
0.00391404
0.0043807
0.0142856
0.0105457
0.0667216
0.011718
0.0134416
0.0519045
0.00513784
0.0123779
0.0505234
0.0630716
0.0692909
0.00649465
0.0356439
0.0577035
3.21849e-05
0.00515472
0.051885
0.00712513
3.60311e-05
0.00871237
0.00669595
2.4191e-05
0.0036852
0.0696358
0.0104105
0.0137838
0.0728323
0.0282358
0.0653088
0.0509141
0.0404076
0.010246
0.00414298
4.29102e-05
0.0637844
0.00481301
0.0626157
0.0579662
0.0727697
0.012005
2.57311e-05
0.0249965
0.0622863
0.00478424
0.00524004
0.00220536
0.00681365
0.0101444
0.0150424
0.0638111
0.069809
0.0143843
0.0664578
0.00694096
0.0674736
0.013659
0.0130508
0.000785445
3.89515e-05
0.0574259
0.052426
0.00967374
0.00542654
0.00551848
0.0131741
0.0154999
0.0037755
0.00476271
0.0092846
0.0036939
4.17797e-05
0.00346848
0.0667476
0.012757
0.0200723
0.00318993
0.0676693
0.0435261
0.0240357
0.0140985
0.0139944
0.00794833
0.00567855
0.00676807
0.0676942
0.011926
0.00927544
2.04199e-05
0.065216
0.00404963
0.0110919
0.0024006
0.0538031
0.0101295
0.00866694
0.00148057
0.0727875
0.0135606
0.0198972
0.0598157
0.0112396
0.000489449
0.011215
0.00117916
0.00831572
0.00248466
0.0615803
0.00383676
0.0689093
0.00671586
0.0205213
0.0134451
0.0670949
0.0663734
2.84662e-05
0.00435566
0.0705333
2.03779e-05
0.0136685
0.0108103
0.0622749
0.0690811
0.00704004
2.18819e-05
0.0536352
0.0580906
0.0505943
0.0113589
0.0646366
0.0676236
0.018335
0.0233037
3.45815e-05
0.0364805
1.60127e-05
0.0552784
0.00158711
0.00322699
0.0144712
0.00885416
0.00155516
0.0692338
0.0501182
0.0645994
0.0550205
3.68758e-05
0.0341005
0.0568901
0.0126854
0.00457963
0.00719027
0.0104626
0.00160814
0.0519364
0.0563634
0.056826
0.00514505
0.00499143
0.05194
0.00470615
0.0159208
0.00747553
0.0109686
0.00056218
0.043772
0.0112517
0.0675904
0.0712717
0.000620126
0.00300127
0.0519416
0.0529912
0.00633011
0.00825166
0.0683774
0.0607991
0.00885461
0.00561736
0.0726754
0.0674848
0.00270133
0.0256141
0.0143689
0.0725083
0.00295748
2.60619e-05
0.0525415
3.51636e-05
0.00642168
0.0105609
0.00663097
0.0120755
0.0116244
0.0114333
0.0131101
0.0167825
0.0216448
0.0723669
0.0666179
0.00715672
0.0175508
0.00382517
2.64361e-05
0.0655071
0.0529128
0.0671066
0.0671145
0.0677199
0.0593686
0.0109461
0.0270983
0.0518451
0.0140118
0.0490283
0.0538898
0.0508126
0.0509463
0.0104354
0.0103809
0.00206109
0.00425562
0.00566312
0.00513436
0.0215147
0.002077
0.0534526
0.00060322
0.0580769
0.0136223
0.0100657
0.00811773
0.029215
0.0538261
0.0283535
0.00201291
0.0104892
0.00723593
0.0553957
0.0215274
0.0718072
0.0120875
0.00627282
0.0128681
0.0339092
0.0515912
0.0115398
0.0192261
0.012977
0.0127975
0.0240228
0.0665668
0.0672402
0.0420442
0.012494
0.000920437
0.00263457
0.0126766
0.00290613
0.0129137
0.00430597
0.0130263
0.00818438
0.00609534
0.00162033
0.0553646
0.00440913
0.0118455
0.0045067
0.00142223
0.00915537
0.0623049
0.00629227
0.0205139
0.000634461
0.00884613
0.000691739
0.0320485
0.0185243
0.0134082
0.0045244
0.0667083
0.00419923
0.00840757
0.0461055
0.0712439
0.0641636
0.0501196
0.0252367
0.0585491
0.0681123
0.00590772
0.0116946
0.0131439
0.0124306
0.00204146
0.0671275
0.00768843
0.00757
0.00161305
0.015799
0.00803134
0.0670978
0.00324797
0.0138065
0.00820091
0.0638245
0.0532535
0.0568905
0.000687429
0.00592699
0.0142772
0.0526044
0.00492421
0.0132547
0.0574526
0.0510504
0.0234973
0.00591699
0.0564249
0.0292835
0.00586045
0.00769193
0.0558641
0.00699125
0.00930218
0.00498914
0.0139918
0.00186184
0.00503663
0.05621
0.0116681
0.00561526
0.00834809
0.0281116
0.000639696
0.0129541
0.000834362
0.00671328
0.00676709
0.00877058
0.0676642
0.00397088
0.0491263
0.0691702
0.0636797
0.0104978
0.0126413
0.00263645
0.00982968
0.00522451
0.0145969
0.052246
0.00854131
0.0663146
0.015616
1.80223e-05
0.00681497
0.0660773
0.0682086
0.0135862
0.0665809
0.00519742
0.0508723
0.00425497
0.0601158
0.004582
0.0549492
0.00570486
0.0138884
0.010481
0.0068062
0.00210454
0.00087595
0.0503107
0.00245894
0.0130995
0.00531969
0.0103693
0.0146811
0.013041
0.0119312
0.0588091
0.0104861
0.0134268
0.0192068
0.0131065
0.0035045
0.0558339
0.00648098
0.042326
0.0119147
0.0660868
0.0686583
0.0651438
0.0106357
0.00692485
0.00388342
0.0143849
0.0137598
0.0665114
0.0170122
0.0348633
0.0233361
0.0628788
0.0119243
0.0113497
0.0165334
0.0480665
0.0114538
2.1558e-05
0.0541516
0.0239225
0.00731169
0.00351853
0.0119127
0.0522298
0.071877
0.00334808
0.0106825
0.0638865
0.0722348
0.00283764
0.0102199
0.0653824
0.0312959
0.012642
0.000171365
0.00591155
0.010414
1.37356e-05
0.00246295
0.0122825
0.0137665
0.0039946
0.0567256
0.0072576
0.0155863
0.0664618
0.0409396
0.00244582
0.0551211
0.00719536
0.0127339
0.0560039
0.0104905
0.00327268
0.0344507
0.00235251
0.051999
0.00786545
0.00950667
0.0119553
0.00718258
0.00948649
0.0140213
0.0225061
0.00813579
0.0272557
0.0101227
0.00251236
0.00369695
0.0168967
0.0225316
0.0546729
0.00537679
0.0519004
0.0509147
0.016798
0.0127687
0.0530944
0.0115381
0.0166844
0.0687468
0.00735171
0.00603472
0.0148917
0.0665285
0.00681178
0.0477785
0.0370152
0.0258229
0.00109131
0.0572186
0.0520898
0.00321991
0.050619
0.0544728
0.0146763
0.013523
0.0539968
0.0120079
0.0044189
0.0301259
0.00464425
0.012822
0.0545449
0.00615209
0.00654421
0.00287855
0.0269773
0.0128031
0.0319082
1.59e-05
0.00625059
0.0564436
0.0137314
0.013227
0.00555084
0.0677331
0.0665579
0.0479773
0.0566362
0.0495301
0.0550622
0.00295222
0.0155709
0.054577
0.0721708
0.050376
0.000818096
0.00683357
6.13577e-05
0.0131992
0.0123096
0.00575427
0.0664381
0.0612747
0.040959
0.0619369
0.061825
0.0122864
0.0350394
0.0317322
0.0129624
0.00566236
0.00302632
1.16753e-05
0.0143114
0.0584195
2.40212e-05
0.00166359
0.012723
0.000996567
0.00150773
0.0033836
0.0130919
0.0498284
0.00293208
0.0449248
0.00711316
0.0648612
0.0105307
0.0303892
0.0437608
0.00608957
0.00935654
0.00117619
0.0605986
0.0102386
0.0103141
0.0127478
0.0491412
0.0296786
0.0201344
0.00557531
0.018507
0.003894
0.0101989
0.0297186
0.00634805
0.0520135
0.0425339
0.0165555
0.0505266
0.00953899
0.000755353
0.057256
0.0484201
0.00770248
0.0190787
0.0132604
0.00560204
0.0141174
0.0239064
0.0652295
0.00815898
0.00711036
0.0554417
0.0526523
0.00457743
0.0533376
0.063882
0.0127209
0.0238777
0.00306382
0.0107024
0.0127825
0.022299
0.0102469
0.0498866
0.0663732
0.0565807
0.0130598
0.0499851
0.0630625
0.0643534
0.00760026
0.00565149
0.0646401
0.0120274
0.0122785
0.0131737
0.053357
0.00516342
0.00911819
0.00282328
0.0643222
0.00433175
0.0422796
0.00707336
0.0524899
0.00768159
0.00211236
0.00364646
0.0688414
0.0564645
0.00547804
0.000102699
6.20476e-05
0.0314034
0.00283758
0.0510675
0.0572787
0.00410235
0.00712996
0.0539555
0.0139592
0.0137918
0.0692719
0.00329078
0.00191681
0.00764598
0.0664051
0.0691023
0.00974849
0.0162463
0.0677011
0.0104198
0.00599993
0.0048046
0.00529674
0.0649039
0.0439238
0.00446128
0.0135714
0.00540892
0.0108817
0.0106312
0.0116826
0.0686834
0.0675512
0.0247482
0.0526708
0.0648724
0.00089968
0.0133153
0.0641077
0.0633497
0.0645992
0.051232
0.012043
0.000724505
0.00481828
0.0506622
0.0635808
0.0640152
0.000536029
0.0141208
0.00639151
0.0684479
0.0069808
0.0524406
0.0311157
0.0146421
0.0515172
0.0025174
0.009998
0.0532241
0.00646774
0.0560511
0.00313598
0.00510526
0.0159334
0.0124488
0.0705646
0.00979434
0.00303671
0.00872303
0.0331304
0.0105093
0.0102763
0.0690496
0.0542584
0.0048182
0.000688566
0.0240832
0.0143657
0.011269
0.0141278
0.000908501
0.0106545
0.000895821
0.00456365
0.00396597
0.00388195
0.010737
0.0140335
0.00486916
0.012371
0.049731
0.0510896
0.0656936
0.00584534
0.0534019
0.0114483
0.000967924
0.0585322
0.0550048
0.0625276
0.0491694
0.0541989
0.00487298
0.0136818
0.00808611
0.00774896
0.0053182
0.00463216
0.053449
0.0624141
0.00471468
0.0301657
0.0594355
0.071627
0.0496772
0.000842939
0.0677853
0.0022333
0.0697234
0.0522761
0.00164587
0.0510131
0.00814879
0.00433491
0.0129497
0.00940537
0.0312381
0.0688653
0.0241695
0.0214344
0.00879039
0.0043065
0.00340202
0.0338342
0.0030985
0.0122416
0.00402556
0.0667935
0.0594069
0.0660881
0.0279073
0.00591381
0.00958203
0.0125554
0.0643148
0.00428002
0.014926
0.0206942
0.0143059
0.0124526
0.0188013
0.0143309
0.0142221
0.01298
0.0163951
0.00111467
0.0628788
0.0488021
0.0169238
0.0145389