/*--------------------------------*- C++ -*----------------------------------*\
  =========                 |
  \\      /  F ield         | OpenFOAM: The Open Source CFD Toolbox
   \\    /   O peration     | Website:  https://openfoam.org
    \\  /    A nd           | Version:  10
     \\/     M anipulation  |
\*---------------------------------------------------------------------------*/
FoamFile
{
    format      ascii;
    class       volScalarField;
    location    "150";
    object      p;
}
// * * * * * * * * * * * * * * * * * * * * * * * * * * * * * * * * * * * * * //

dimensions      [0 2 -2 0 0 0 0];

internalField   nonuniform List<scalar> 
23845
(
-0.0816909
-0.0748222
-0.150339
-0.141617
-0.0642904
-0.020905
-0.15691
-0.173123
0.00644732
-0.081103
-0.0802261
-0.00399056
-0.0559239
0.00161968
-0.174556
-0.0816005
-0.0684386
-0.0723656
-0.0718932
-0.0262862
-0.0853077
-0.0799653
-0.113569
-0.0118858
-0.0801438
-0.0149322
-0.122906
-0.0215589
-0.192551
-0.0278392
-0.120876
-0.163495
-0.181879
-0.0720972
-0.0111455
-0.023478
-0.17521
-0.009755
0.00859531
-0.0115846
-0.0762048
-0.0648532
-0.0548706
-0.0669183
-0.0132892
-0.0546551
-0.0580427
-0.0807847
-0.154082
-0.195848
-0.162668
-0.121035
-0.155132
-0.0217827
-0.166572
-0.0680509
-0.0703072
-0.167115
-0.082855
-0.0875872
-0.181447
-0.0671155
-0.0821659
-0.191958
-0.012251
-0.0522357
-0.143789
-0.00606155
-0.00859633
-0.0751893
-0.177771
-0.154295
-0.024906
-0.170925
-0.0122912
-0.169375
0.00707416
-0.00718446
-0.159083
-0.0752248
-0.107294
-0.147722
-0.0718769
-0.172344
-0.167566
-0.0142895
-0.121917
-0.151824
-0.00648062
-0.0755304
-0.170287
-0.0836593
-0.194946
-0.0225632
-0.164131
-0.176289
-0.0655019
-0.0806727
-0.00142074
-0.0632384
-0.0693675
-0.151235
-0.0749076
-0.206649
-0.198389
-0.168835
-0.0207568
-0.00964423
-0.150232
-0.0640854
-0.0796067
-0.010831
-0.168149
-0.0819093
-0.0241291
-0.0896478
-0.0230687
-0.0816093
-0.191339
-0.179194
-0.00286516
-0.170025
-0.0786422
-0.169041
-0.150076
-0.0161327
-0.180574
-0.197434
-0.161863
-0.0646026
-0.175574
-0.077825
-0.079093
0.00277141
-0.0729937
-0.0785594
-0.196892
0.00577287
-0.141767
-0.0105659
-0.191533
-0.0629854
-0.0168752
-0.0685845
-0.0794369
-0.0629034
-0.0863948
-0.156667
-0.178589
-0.0805176
-0.175412
-0.0350307
-0.0998408
-0.0334114
-0.162023
-0.0815914
-0.0719439
-0.0262418
-0.183252
-0.183577
-0.0821189
-0.165656
-0.162495
-0.00867238
-0.0627621
-0.0799598
0.00472572
-0.170955
-0.025938
-0.061861
0.0017345
-0.143051
-0.015562
-0.168283
-0.0186289
-0.160956
-0.0833906
-0.0815251
-0.000294649
-0.0245719
-0.0683672
-0.0628326
-0.164662
-0.079424
-0.0808141
-0.067852
-0.0645877
-0.176609
-0.185663
-0.0634716
-0.187451
-0.0158915
-0.0130529
-0.0168239
-0.0829455
-0.0150715
-0.202719
-0.187975
-0.21794
-0.0797741
-0.0794409
-0.0212662
-0.177973
-0.0780014
-0.172004
-0.16367
-0.157799
-0.00977646
-0.0900318
-0.0745641
-0.0748669
-0.176043
-0.0806522
-0.027671
-0.158264
-0.174847
-0.0771153
-0.0683553
-0.186309
-0.172575
-0.0362066
-0.170284
-0.19728
-0.0822451
-0.0651632
-0.169006
-0.197089
-0.0161935
-0.0195553
-0.0802253
-0.0221974
-0.15497
-0.0132664
-0.0116599
-0.0667997
-0.190612
-0.0187357
-0.132056
-0.0170887
-0.149534
-0.153523
-0.0850468
-0.16804
-0.0694846
-0.168325
-0.0820613
-0.0188284
-0.00418895
-0.162076
-0.162068
-0.0491419
-0.0224879
-0.163073
-0.0570487
-0.162104
-0.170242
-0.177267
-0.167883
-0.0266059
-0.0168586
-0.14999
-0.0261793
-0.179943
-0.0794109
-0.0809503
-0.00953378
-0.158398
-0.175417
-0.0887928
-0.14092
-0.0159905
-0.152036
-0.159006
-0.012614
-0.0794963
-0.0154888
-0.170806
-0.0168243
-0.21183
-0.109655
-0.170118
-0.0206322
-0.163598
-0.0781884
-0.0176572
-0.190723
-0.160336
-0.0240041
-0.16534
-0.157145
-0.16076
-0.15768
-0.192052
-0.169245
-0.16312
-0.0128828
-0.181153
-0.019432
-0.0169492
-0.187867
-0.18826
-0.166171
-0.191156
-0.136435
-0.0187482
-0.127553
-0.194982
-0.160455
-0.0689393
-0.194921
-0.158141
-0.0911909
-0.067256
-0.0116909
-0.12878
-0.193077
-0.190133
-0.0784241
-0.172117
-0.0422133
-0.19364
-0.173765
-0.180056
-0.0299751
-0.158215
-0.0110046
-0.150798
-0.0634611
-0.189202
-0.0745144
-0.133769
-0.0767468
-0.167166
-0.0268977
-0.183017
-0.131767
-0.125315
-0.0725979
-0.0588115
-0.156327
-0.144002
-0.179312
-0.0800545
-0.0140924
-0.0162545
-0.214582
-0.0270202
-0.173354
-0.154703
-0.165479
-0.121982
-0.193234
-0.190467
-0.167534
-0.15464
-0.00944777
-0.0593959
-0.0253267
-0.161023
-0.166774
-0.166276
-0.00659196
-0.0853752
-0.0775713
-0.184679
-0.00465267
-0.182119
-0.0311298
-0.190083
-0.0123512
-0.0646509
-0.173372
-0.197645
-0.00358457
-0.0273593
-0.168156
-0.134375
-0.131349
-0.0598769
-0.16186
-0.156522
-0.0249051
-0.100592
-0.0156447
-0.0133537
-0.00913265
-0.0233437
-0.158764
-0.078054
-0.164167
-0.14328
-0.0602047
-0.195837
-0.200869
-0.157746
-0.17873
-0.0803936
-0.01335
-0.0757059
-0.0267852
-0.128677
-0.0934849
-0.16539
-0.144614
-0.0786266
-0.162851
-0.00913051
-0.191682
-0.196301
-0.178943
-0.167835
-0.0058317
-0.161016
-0.190715
-0.0708202
-0.132622
-0.0851621
-0.0794871
-0.0174521
-0.0854677
-0.192915
-0.0398835
-0.00326733
-0.153774
-0.179629
-0.0788846
-0.205176
-0.11224
-0.161458
-0.163848
-0.0170474
-0.0718008
-0.188723
-0.073477
-0.0407372
-0.0237338
0.00159487
-0.0667699
-0.192346
-0.158872
-0.168566
-0.197711
-0.192097
-0.172763
-0.104405
-0.190366
-0.0314574
-0.0687052
-0.0212251
-0.152253
-0.157383
-0.0301398
-0.208864
-0.0234151
-0.0122443
-0.186294
-0.0731056
-0.0772618
-0.16787
-0.0300578
-0.0944327
-0.140815
-0.200374
-0.0704402
-0.0196179
-0.00873197
-0.0189195
-0.156311
-0.0179891
-0.172286
-0.0215602
-0.00927819
-0.102585
-0.180048
-0.185353
-0.0685302
-0.0318416
-0.165739
-0.026857
-0.0778005
-0.0579216
-0.0741787
-0.118439
-0.0804943
-0.0787597
-0.148437
-0.012321
-0.0128185
-0.132294
-0.175335
-0.0146077
-0.192334
-0.171243
-0.0653842
-0.174468
-0.0587407
-0.0258471
-0.139616
-0.00917759
-0.0227259
-0.113014
-0.181578
-0.177442
-0.0594398
-0.167904
-0.163712
-0.079075
-0.0649425
-0.0265602
-0.176251
-0.120374
-0.190942
-0.180681
-0.111612
-0.0121389
-0.0172221
-0.083996
-0.176407
-0.172839
-0.049309
-0.170254
-0.0276652
-0.0736814
-0.191896
-0.0215726
-0.149409
-0.158299
-0.18281
-0.10022
-0.179643
-0.187984
-0.200182
-0.0731652
-0.12126
-0.0725469
-0.0660661
-0.0232986
-0.192372
-0.059988
-0.158087
-0.167465
-0.022216
-0.106021
-0.110061
-0.0782719
-0.102101
-0.0802955
-0.0477062
-0.0285556
-0.0378715
-0.0321403
-0.0144378
-0.177323
-0.0402635
-0.169487
-0.087474
-0.0572556
-0.178123
-0.0292231
-0.0199275
-0.161968
-0.151502
-0.0665356
-0.0307825
-0.054831
-0.202234
-0.190551
-0.0202078
-0.184015
-0.0588195
-0.0241614
-0.143422
-0.0689067
-0.0139012
-0.0823288
-0.0649447
-0.186009
-0.175881
-0.169599
-0.0628469
-0.0283016
-0.00276665
-0.0786318
-0.149297
-0.182339
-0.0566362
-0.0271895
-0.0293369
-0.166589
-0.0268047
-0.130428
-0.17364
-0.0828626
-0.0791221
-0.178846
-0.0607469
-0.0192372
-0.0226964
-0.0717329
0.005592
-0.133118
-0.0298427
-0.0663253
-0.161144
-0.154645
-0.0794406
-0.165281
-0.0644331
-0.158904
-0.0814052
-0.0606488
-0.0751536
-0.075256
-0.0675369
-0.182169
-0.0758295
-0.073366
-0.0679851
-0.0277139
-0.0282437
-0.0669897
-0.184587
-0.0604405
-0.0801055
-0.0667081
-0.0782226
-0.0745566
-0.0686595
-0.0664153
-0.0816919
-0.0536833
-0.0487677
-0.0673301
-0.0239193
-0.0145014
-0.162868
-0.0713334
-0.0828538
-0.031848
-0.0800665
-0.0662553
-0.0770353
-0.0275659
-0.0622754
-0.0818713
-0.0798994
-0.087399
-0.0548117
-0.0798666
-0.161733
-0.0243582
-0.0213486
-0.0720886
-0.164318
-0.191706
-0.194917
-0.191168
-0.0803801
-0.176645
-0.0808642
-0.0770373
-0.0748899
-0.0739982
-0.0726437
-0.0717071
-0.0301487
-0.0655866
-0.0705164
-0.0963888
-0.0796151
-0.0818862
-0.0790468
-0.0794157
-0.0795752
-0.0783856
-0.0776502
-0.0775648
-0.0755349
-0.0791783
-0.0735474
-0.0799516
-0.0750699
-0.0562873
-0.0735759
-0.072738
-0.0786747
-0.0660467
-0.0716253
-0.0798303
-0.0802037
-0.0694666
-0.0618633
-0.0791934
-0.0799133
-0.0801378
-0.0795114
-0.0786281
-0.0779305
-0.0767869
-0.0767841
-0.0797916
-0.0740422
-0.0785634
-0.0735116
-0.0707197
-0.0711636
-0.070404
-0.0687702
-0.0687919
-0.068063
-0.0653883
-0.0917872
-0.0202899
-0.0601119
-0.0676739
-0.0686476
-0.0203807
-0.078659
-0.0679217
-0.0801547
-0.0803051
-0.0769296
-0.0658445
-0.0642823
-0.0266432
-0.0801131
-0.0791612
-0.0731263
-0.0289029
-0.0792215
-0.0612704
-0.0709554
-0.0276658
-0.0592199
-0.0786694
-0.0704105
-0.0690051
-0.0660403
-0.0234291
-0.035888
-0.00881488
-0.0568374
-0.0784083
-0.178734
-0.0277094
-0.0630103
-0.0750241
-0.055296
-0.0366553
-0.0271106
-0.140848
-0.0580288
-0.0144478
-0.0794671
-0.0659961
-0.171854
-0.0801048
-0.0798958
-0.078658
-0.0797368
-0.0771973
-0.0622341
-0.0774253
-0.0798408
-0.0806304
-0.076673
-0.0819482
-0.0722311
-0.0715193
-0.0689617
-0.0464966
-0.0790912
-0.0795794
-0.0789872
-0.135194
-0.0781644
-0.0351138
-0.0700358
-0.0817055
-0.0713207
-0.0687489
-0.072718
-0.16257
-0.0169897
-0.0782635
-0.0509322
-0.0616372
-0.0679056
-0.0524447
-0.0492397
-0.0681282
-0.0623954
-0.0705389
-0.0575767
-0.0592465
-0.0576768
-0.0617056
-0.0762141
-0.0369726
-0.0705689
-0.068904
-0.0588842
-0.0773471
-0.0800504
-0.0812894
-0.0776165
-0.0601399
-0.0309872
-0.0625092
-0.0522375
-0.0746094
-0.0802245
-0.0792061
-0.074905
-0.0454464
-0.0761989
-0.18391
-0.0806806
-0.0795598
-0.0834327
-0.0537584
-0.063815
-0.0801738
-0.0676527
-0.0672504
-0.0342253
-0.0740474
-0.0446068
-0.0595072
-0.0500134
-0.041348
-0.0295181
-0.0700839
-0.0753829
-0.0643944
-0.0660523
-0.0809363
-0.0635952
-0.0678608
-0.146348
-0.0772193
-0.0252417
-0.00392851
-0.0544495
-0.0803842
-0.0802273
-0.0811783
-0.0797062
-0.0732258
-0.0799839
-0.0785025
-0.0838815
-0.0824092
-0.0732881
-0.0295664
-0.0633805
-0.054386
-0.0773086
0.0070762
-0.152488
-0.0162447
-0.0816204
-0.0658518
-0.0762365
-0.0406281
-0.0612153
-0.0795981
-0.0772495
-0.0864816
-0.0832666
-0.0778613
-0.0887939
-0.0689662
-0.0728603
-0.0543344
-0.0527854
-0.0443045
-0.0401121
-0.0681815
-0.0642625
-0.047901
-0.0795991
-0.0348084
-0.0788546
-0.0805003
-0.0796109
-0.0779395
-0.0876524
-0.0775415
-0.0513574
-0.0796429
-0.0378714
-0.0839123
-0.0733312
-0.042634
-0.0902648
-0.0712331
-0.0584564
-0.0795371
-0.0285579
-0.0729343
-0.0869995
-0.0767356
-0.0591288
-0.0750386
-0.0359788
-0.07212
-0.0442128
-0.078627
-0.194596
-0.0235429
-0.0760766
-0.079532
-0.0798894
-0.0693012
-0.0804051
-0.0514757
-0.0790475
-0.0703478
-0.0676882
-0.176884
-0.198014
-0.0684598
-0.0652095
-0.0245574
-0.0761275
-0.057106
-0.174461
-0.0603382
-0.0461522
-0.0731239
-0.0691862
-0.0610168
-0.060068
-0.0604014
-0.0702244
-0.0436734
-0.0911322
-0.082813
-0.0776717
-0.0571209
-0.0786164
-0.0776856
-0.0793084
-0.0799271
-0.0739512
-0.0797068
-0.0737654
-0.0803404
-0.0800314
-0.0790901
-0.0717852
-0.0790941
-0.0800837
-0.0775745
-0.079197
-0.0801453
-0.0797955
-0.0805873
-0.0415806
-0.0696343
-0.0718746
-0.0687595
-0.0241611
-0.0676528
-0.0780953
-0.0682429
-0.0397473
-0.0787042
-0.0810062
-0.0782963
-0.0685125
-0.133503
-0.0380156
-0.0649794
-0.065483
-0.0638207
-0.0743308
-0.0390059
-0.0799841
-0.070554
-0.0723796
-0.035485
-0.0592641
-0.080089
-0.0786415
-0.0349255
-0.0809739
-0.0778559
-0.0762708
-0.0795851
-0.0810368
-0.074299
-0.0806341
-0.0793029
-0.0809384
-0.0803579
-0.0791995
-0.0798739
-0.0497448
-0.0706512
-0.069831
-0.0552894
-0.0809329
-0.082171
-0.0622165
-0.216168
-0.0325188
-0.190302
-0.0470598
-0.0310434
-0.198698
-0.0330723
-0.010875
-0.018265
-0.046589
-0.0554729
-0.050067
-0.0450289
-0.0604549
-0.0781505
-0.192021
-0.0420242
-0.0770196
-0.0751946
-0.0616876
-0.0646453
-0.0762336
-0.0795602
-0.0420192
-0.0662758
-0.0632305
-0.0275328
-0.0166743
-0.0236814
-0.0656791
-0.0709634
-0.0817973
-0.0839362
-0.0822993
-0.0859744
-0.0891335
-0.0782228
-0.057019
-0.0762989
-0.0796618
-0.0793835
-0.0788786
-0.0791708
-0.0798664
-0.0723444
-0.0801169
-0.0669938
-0.07938
-0.0772908
-0.0685825
-0.0748557
-0.072932
-0.0713172
-0.0629368
-0.0510389
-0.0783932
-0.100618
-0.0765349
-0.0385421
-0.0829475
-0.0359592
-0.0378471
-0.0684613
0.00589736
-0.0789705
-0.0693994
-0.0643129
-0.0666823
-0.0711094
-0.0611537
-0.0700258
-0.0527042
-0.0324364
-0.0836574
-0.0680524
-0.0190248
-0.0781935
-0.0773325
-0.0768759
-0.18581
-0.140143
-0.0553966
-0.0785601
-0.0797015
-0.0795398
-0.0738111
-0.0371714
-0.0799199
-0.0811274
-0.0795999
-0.0789866
-0.0771886
-0.0761927
-0.209207
-0.0740124
-0.0808325
-0.0474593
-0.0702019
-0.0791341
-0.072081
-0.0707956
-0.186926
-0.0682401
-0.0209978
-0.0528805
-0.0675563
-0.0291748
-0.0550956
-0.0390582
-0.0308644
-0.0750883
-0.0652618
-0.0605513
-0.108563
-0.0310122
-0.0362695
-0.0321177
-0.0730927
-0.0623515
-0.0432819
-0.0728687
-0.0485959
-0.00809648
-0.0420112
-0.0583363
-0.0703967
-0.176679
-0.051247
-0.0491141
-0.0777861
-0.0795685
-0.0716749
-0.0801548
-0.078804
-0.0340092
-0.0701195
-0.0638365
-0.0673933
-0.0365808
-0.0764035
-0.0700183
-0.0269144
-0.0326314
-0.0749747
-0.0699476
-0.111102
-0.177936
-0.0344676
-0.0534858
-0.0289615
-0.0611458
-0.0693133
-0.0491281
-0.080683
-0.0475501
-0.146909
-0.0359426
-0.010717
-0.0308476
-0.0776072
-0.0546405
-0.069255
-0.0812737
-0.0316759
-0.0807004
-0.0707386
-0.0309079
-0.0800528
-0.0470959
-0.0781782
-0.0802889
-0.0769031
-0.0817215
-0.0736681
-0.0349361
-0.0751721
-0.0777136
-0.0690786
-0.0695915
-0.0699803
-0.0758408
-0.0820466
-0.0325118
-0.0520754
-0.0822224
-0.0410333
-0.0717558
-0.0849742
-0.0354525
-0.067074
-0.091015
-0.0650057
-0.0560077
-0.0873848
-0.0747131
-0.0620887
-0.0242572
-0.0330457
-0.0806651
-0.00802912
-0.0231831
-0.0702755
-0.0810562
-0.0783133
-0.0697986
-0.0808298
-0.049366
-0.0689129
-0.0809322
-0.0797072
-0.0331512
-0.0798505
-0.0780504
-0.21195
-0.0320365
-0.0525501
-0.0305652
-0.0163414
-0.0253089
-0.0664402
-0.0522375
-0.180244
-0.0742161
-0.0637564
-0.0769722
-0.0731778
-0.0796937
-0.0348318
-0.0919336
-0.0638818
-0.0716219
-0.0668236
-0.0631253
-0.0754981
-0.0319417
-0.0449325
-0.190186
-0.02664
-0.0754011
-0.0804787
-0.0801005
-0.173097
-0.153389
-0.0764508
-0.0414481
-0.0440464
-0.0581079
-0.0436423
-0.045145
-0.0480276
-0.0815734
-0.0293289
-0.0280551
-0.0632932
-0.0727542
-0.0703205
-0.0704062
-0.0684217
-0.0323254
-0.187397
-0.0740027
-0.0761331
-0.0785906
0.00435576
-0.183183
-0.0458397
-0.176679
-0.0273048
-0.075391
-0.0705232
-0.0698567
-0.0323402
-0.0775926
-0.0805533
-0.0708075
-0.0812168
-0.0812159
-0.0601147
-0.069775
-0.0237757
-0.0815739
-0.0817626
-0.0100728
-0.0737198
-0.0693744
-0.0750825
-0.0777635
-0.0779589
-0.0698451
-0.0778989
-0.0779956
-0.0798152
-0.0746197
-0.0611445
-0.0069083
-0.0787569
-0.0369083
-0.0399974
-0.159253
-0.0778719
-0.080728
-0.0107589
-0.079416
-0.0689344
-0.0668139
-0.0769615
-0.06763
-0.0851437
-0.190664
-0.0740148
-0.0775726
-0.00438959
-0.19155
-0.0770344
-0.0768162
-0.0757374
-0.0792177
-0.0691627
-0.0285485
-0.045578
-0.184441
-0.116508
-0.0329723
-0.075559
-0.0741511
-0.0565539
-0.187169
-0.0493775
-0.0788929
-0.0689271
-0.0848958
-0.0170785
-0.0810149
-0.116099
-0.0206827
-0.172883
-0.0774559
-0.00983387
-0.188812
-0.0443436
-0.0815747
-0.0830422
-0.163924
-0.0237878
-0.0800809
-0.0993896
-0.0700356
-0.0758713
-0.0678805
-0.052452
-0.0769762
-0.0788839
-0.0793651
-0.0302692
-0.0257785
-0.0639649
-0.0744078
-0.0473196
-0.0690319
-0.0309915
-0.0787669
-0.0761978
-0.0789302
-0.0997011
-0.0764858
-0.031628
-0.0768304
-0.0268416
-0.074117
-0.0774879
-0.0661582
-0.183604
-0.0286427
-0.0789833
-0.179811
-0.0326557
-0.025618
-0.0778964
-0.0793359
-0.0791547
-0.0700645
-0.0804707
-0.0691354
-0.0785454
-0.0251436
-0.025796
-0.0433663
-0.0196234
-0.0239302
-0.0522969
-0.0808538
-0.186632
-0.0674435
-0.0557317
-0.0740864
-0.122752
-0.050682
-0.0778516
-0.0698181
-0.0750078
-0.0657484
-0.0765561
-0.0800632
-0.080298
-0.079295
-0.0248271
-0.0782892
-0.129074
-0.17596
-0.0480981
-0.075918
-0.0808658
-0.0789401
-0.0324527
-0.0317101
-0.0684313
-0.0806573
-0.0790203
-0.189652
-0.0213953
-0.161804
-0.0437465
-0.0236152
-0.0950986
-0.0758586
-0.0723715
-0.0771374
-0.0816947
-0.0816568
-0.0811282
-0.0351049
-0.0799355
-0.0271966
-0.0693889
-0.0693225
-0.0744386
-0.160575
-0.0778885
-0.0746776
-0.0783942
-0.0797794
-0.173385
-0.080871
-0.0291922
-0.0800652
-0.02839
-0.0254649
-0.0784518
-0.0646927
-0.187205
-0.184428
-0.0776086
-0.0313746
-0.0812266
-0.0247944
-0.0699407
-0.0784871
-0.0242468
-0.0810908
-0.0698909
-0.0689104
-0.0740966
-0.0806986
-0.0777585
-0.0725924
-0.0815024
-0.0742546
-0.0275234
-0.0762052
-0.173402
-0.0293063
-0.024899
-0.0797075
-0.0234392
-0.0821708
-0.072958
-0.0807747
-0.173871
-0.0203209
-0.00556185
0.0035621
-0.188114
-0.0252578
-0.0705278
-0.0766349
-0.169453
-0.0392064
-0.0523376
-0.0261915
-0.174386
-0.081577
-0.0257167
-0.0758782
-0.0292105
-0.0245478
-0.0268244
-0.113686
-0.080524
-0.0256334
-0.0285738
-0.0972218
-0.0794102
-0.0671822
-0.0821061
-0.0230201
-0.025855
-0.172704
-0.0331315
-0.0794639
-0.0233657
-0.0820099
-0.173954
-0.182021
-0.178132
-0.152575
-0.0895799
-0.023181
-0.0751657
-0.0304629
-0.0242122
-0.067945
-0.0655929
-0.0289496
-0.160888
-0.193921
-0.0475313
-0.0457496
-0.111803
-0.184898
-0.0856848
-0.142516
-0.0681854
-0.124731
-0.0268667
-0.0740388
-0.189717
-0.00868139
-0.112539
-0.0151783
-0.0231252
-0.0677625
-0.193467
-0.179221
-0.0765993
-0.0743122
-0.0659487
-0.192559
-0.0508579
-0.0808565
-0.0232835
-0.132055
-0.0760131
-0.0285991
-0.0667228
-0.0233616
-0.0351458
-0.00860351
-0.189878
-0.122321
-0.168707
-0.163675
-0.0384681
-0.07629
-0.025976
-0.0228032
-0.0205398
-0.0799806
-0.17647
-0.0107534
-0.0723163
-0.0766814
-0.160702
-0.0802019
-0.0227237
-0.161762
-0.0367561
-0.0499917
-0.0671732
-0.0229698
-0.0632249
-0.0081586
-0.023583
-0.176573
-0.0456216
-0.0693117
-0.0268634
-0.0797797
-0.154675
-0.0703641
0.000111373
-0.162526
-0.079149
-0.0822032
-0.0232402
-0.185623
-0.061182
-0.191344
-0.166282
-0.170762
-0.0693821
-0.0458664
-0.0878243
-0.0829382
-0.0245869
-0.0404353
-0.076027
-0.0664451
-0.0687371
-0.0784289
-0.187739
-0.0479217
-0.172136
-0.0699733
-0.175167
-0.0283093
-0.0381135
-0.0697332
-0.0796815
-0.181451
-0.0244717
-0.152642
-0.182367
-0.0789165
-0.0796144
-0.0843563
-0.195671
-0.0600916
-0.0259646
-0.0755345
-0.0773349
-0.103534
-0.0223595
-0.143277
-0.0940279
-0.147666
-0.185846
-0.0233317
-0.0229083
-0.0797489
-0.168079
-0.0797098
-0.0791729
-0.0120742
-0.0358744
-0.0697299
-0.0445121
-0.190108
-0.0372004
-0.0204818
-0.0689653
-0.0806167
-0.0938375
-0.0818343
-0.184475
-0.147608
-0.0735627
-0.159767
-0.130539
-0.0740826
-0.0763993
-0.193675
-0.0263685
-0.131169
-0.00133576
-0.183238
-0.183143
-0.0686218
-0.0767571
-0.0612111
-0.0690089
-0.0686332
-0.0233671
-0.0780667
-0.0239325
-0.0866684
-0.0678513
-0.0578916
-0.0732832
-0.0779665
-0.120734
-0.185514
-0.186678
-0.171701
-0.177568
-0.0826403
-0.196032
-0.0804293
-0.0160671
-0.187494
-0.0354657
-0.160755
-0.0831277
-0.0762013
-0.188806
-0.0773797
-0.00151432
-0.158961
-0.0409221
-0.108442
-0.0822196
-0.0827546
-0.173021
-0.0671424
-0.0934955
-0.0716557
-0.0688859
-0.0782003
-0.212859
-0.0786947
-0.0497654
-0.0649381
-0.0797744
-0.0467133
-0.171258
-0.0779609
-0.0760682
-0.0824387
-0.00484142
-0.177299
-0.0801812
-0.0226537
-0.0808153
-0.178764
-0.191445
-0.168596
-0.172561
-0.0946692
-0.0222797
-0.105837
-0.0202983
-0.0263515
-0.141803
-0.0118039
-0.160401
-0.0816551
-0.0840914
-0.161185
-0.0804721
-0.101706
-0.0754876
-0.0406393
-0.0714127
-0.0540385
-0.146548
-0.0682543
-0.0584025
-0.0775506
-0.173609
-0.0227958
-0.169296
-0.182627
-0.0771441
-0.185736
-0.180149
-0.113164
-0.0212069
-0.188846
-0.0683368
-0.00569815
-0.0228931
-0.186807
-0.0385633
-0.0194227
-0.0266405
-0.0804677
-0.0511578
-0.162147
-0.0690731
-0.0757658
-0.082843
-0.023152
-0.0681942
-0.0533295
-0.0710236
-0.0601475
-0.016454
-0.0751619
-0.0597857
-0.182381
-0.0815904
-0.0146753
-0.197721
-0.0637908
-0.0807985
-0.0436439
-0.0254899
-0.164666
-0.0896324
-0.129907
-0.0841666
-0.12371
-0.112265
-0.0214686
-0.13012
-0.137059
-0.0734161
-0.165565
-0.0188189
-0.189887
-0.187857
-0.180923
-0.0810382
-0.135406
-0.210554
-0.00294822
0.00669433
-0.0215692
-0.163369
-0.15814
-0.163702
-0.200805
-0.117972
-0.0758599
-0.0247176
-0.0827829
-0.193034
-0.155571
-0.0827009
-0.096753
-0.0446815
-0.171419
-0.194363
-0.168313
-0.184721
-0.186558
-0.150651
-0.0555628
-0.15305
-0.157738
-0.211835
-0.0907016
-0.180813
-0.0825438
-0.164702
-0.17988
-0.074801
-0.160479
-0.0932901
-0.070915
-0.168392
-0.0776437
-0.200572
-0.162715
-0.0623877
-0.0715984
-0.176187
-0.0790567
-0.0666823
-0.175523
-0.046386
-0.0845473
-0.0607406
-0.0740877
-0.0768149
-0.00339528
-0.0431889
-0.0743249
-0.0209784
-0.0567571
-0.0211406
-0.0353844
-0.110562
-0.0174207
-0.0779864
-0.204238
-0.162692
-0.0217494
-0.0842003
-0.0669836
-0.162026
-0.0215329
-0.180333
-0.129294
-0.0806386
-0.108217
-0.161515
-0.163096
-0.0771378
-0.069631
-0.106613
-0.150971
-0.172372
-0.0685241
-0.0190138
-0.00514329
-0.07931
-0.133685
-0.0498259
-0.021363
-0.0533898
-0.178097
-0.0174016
-0.0829037
-0.081483
-0.0775488
-0.180398
-0.0817206
-0.074276
-0.0597181
-0.11379
-0.0682356
-0.162353
-0.0726684
-0.0828449
-0.0738676
-0.0804266
-0.186847
-0.180504
-0.179404
-0.195201
-0.081887
-0.0823856
-0.117272
-0.00580448
-0.180779
-0.0773639
-0.0578959
-0.0657226
-0.0622964
-0.165563
-0.0131129
-0.0665638
-0.199694
-0.165692
-0.184638
-0.0913556
-0.0745645
-0.184935
-0.193919
-0.0732093
-0.0805977
-0.152119
-0.0704921
0.0139912
-0.14047
-0.00658024
-0.0828384
-0.0975151
-0.117289
-0.0182943
-0.0772428
-0.106544
-0.0430956
-0.0822045
-0.0681386
-0.0715357
-0.0248627
-0.139229
-0.0388642
-0.161359
-0.00735073
-0.0143076
-0.0739139
-0.0824909
-0.103598
-0.122809
-0.0434104
-0.0702886
-0.0718981
0.013617
-0.0820567
-0.0659428
-0.158894
-0.187324
-0.152478
-0.00454808
-0.0184093
-0.177706
-0.172514
-0.158334
-0.189327
-0.148402
-0.0612072
-0.0802881
-0.121476
-0.028083
-0.157563
-0.0783093
-0.0787354
-0.0675826
-0.116113
0.0136477
-0.175075
0.0138892
-0.177392
-0.162786
-0.0189919
-0.157605
-0.0623768
-0.182033
-0.0714049
-0.0794212
-0.0449657
-0.154691
-0.191398
-0.0780641
-0.206501
-0.0746133
-0.0170269
-0.180118
-0.0669534
-0.178768
-0.0402366
-0.028099
-0.0759234
-0.150081
-0.0522684
-0.147726
-0.0796622
-0.0183626
0.0134488
0.0142921
-0.0191502
-0.068952
-0.180921
-0.0937572
-0.0787316
-0.0786714
-0.0826513
-0.0293828
-0.0418749
-0.0183529
-0.136028
-0.0707855
-0.0175863
-0.0777317
-0.0795461
-0.072943
-0.184461
-0.0770941
-0.0420085
-0.043057
-0.166821
-0.03461
-0.0535632
-0.15603
-0.0947203
0.0130466
0.0146846
-0.179879
-0.160798
-0.196469
-0.0176513
-0.020014
-0.188876
-0.0802916
-0.0118068
0.0123288
-0.103738
-0.0672013
-0.169715
-0.0680816
-0.162604
-0.115426
-0.174357
-0.162908
-0.04202
-0.0747674
-0.0140833
-0.18924
-0.0283385
-0.0349739
-0.0809477
-0.0834012
-0.0753613
-0.0808708
-0.021707
-0.0724784
-0.0771505
-0.139857
-0.0718931
-0.134717
-0.202462
-0.0937782
-0.0296322
-0.149238
-0.086483
-0.179687
-0.173979
-0.0764303
-0.0740499
-0.0122588
-0.0797312
-0.118197
0.00247102
-0.16594
-0.0755261
-0.0381467
-0.0227823
-0.0152646
-0.171445
-0.0637396
-0.0237949
-0.172169
-0.183681
-0.0138973
-0.11502
-0.165973
-0.142774
-0.121535
-0.208993
-0.176732
-0.0164059
-0.0736205
-0.0817993
0.0151658
-0.0794737
-0.0291657
-0.020049
-0.060375
-0.0617374
-0.179927
-0.155083
-0.0247313
-0.177824
-0.0175766
-0.0221131
0.0150199
-0.138461
-0.204224
-0.0818437
-0.0304926
-0.153757
-0.184151
-0.197323
-0.0994813
-0.0661
-0.118583
0.0108149
0.0118786
-0.0777956
0.0112329
-0.167421
-0.0230308
-0.0872599
-0.0980612
-0.2094
-0.157714
-0.023416
-0.0231246
-0.0841771
-0.134634
-0.163395
-0.0795868
-0.0826589
-0.190977
-0.176607
-0.141688
-0.188976
-0.152926
-0.179573
-0.0207928
-0.0752355
-0.0772719
-0.180019
-0.00539563
-0.0625518
-0.0707677
-0.106764
-0.0814893
-0.113975
-0.175454
-0.166162
-0.015384
-0.105456
-0.0809958
-0.204356
0.0116526
-0.187486
-0.0964632
-0.20072
-0.0344098
-0.0916925
-0.113727
-0.200398
0.0147336
-0.0842423
-0.0767454
-0.0236911
-0.0766469
-0.18734
-0.0814188
-0.177726
-0.1698
-0.197911
-0.0229431
-0.175145
-0.0234506
-0.172659
-0.0833994
-0.0981327
-0.0229726
-0.0200208
-0.153933
-0.189075
0.0123952
-0.150126
-0.0850789
-0.0810278
0.0089034
0.0110525
-0.169537
-0.211948
-0.0178967
-0.014225
-0.0342413
-0.079985
-0.0276863
-0.0244038
-0.0823919
-0.0770003
-0.169075
-0.069314
-0.197444
-0.00620203
-0.200451
-0.172236
-0.0920128
-0.0902184
-0.184582
-0.0173309
-0.0306448
-0.0232072
-0.0221879
-0.208662
-0.063496
-0.0220161
-0.159735
-0.188872
-0.166351
-0.0638122
-0.205155
-0.0473736
-0.022539
-0.0276349
-0.175022
-0.168381
-0.00658424
-0.15664
-0.0730878
-0.142455
-0.159485
-0.190518
-0.0603167
-0.155669
-0.0266166
-0.00633731
-0.198716
-0.194372
-0.0477461
-0.0219792
-0.16074
-0.129612
0.0100146
0.00804973
-0.101626
-0.173129
0.0138333
-0.0239419
-0.182221
-0.0673396
-0.12557
0.0138621
-0.189882
-0.16441
-0.0402035
-0.15132
-0.170924
-0.0782643
-0.104738
-0.154204
-0.0865283
-0.126632
-0.0811457
-0.0725076
-0.0708767
0.00736957
-0.0228814
-0.170332
-0.0796802
-0.182494
-0.159841
-0.0107897
-0.0119108
-0.0214618
0.00869897
0.00932299
0.00699057
-0.0762628
-0.0689921
-0.0183285
-0.0757162
-0.0379166
-0.0257547
-0.0453633
-0.0324852
-0.0796641
-0.0727055
-0.173078
-0.175248
-0.173679
-0.149853
-0.0736216
-0.187402
-0.0101368
-0.192278
0.00544102
-0.0821982
-0.101336
-0.138427
-0.0744774
-0.0148756
-0.0661625
-0.210296
-0.0763632
-0.166363
-0.0217044
-0.0712685
0.0144226
-0.0906654
-0.175164
-0.0808564
-0.0735001
-0.0369515
-0.0752839
-0.0739405
-0.086134
-0.0808859
-0.0736852
0.00825102
-0.0213093
-0.0600356
-0.0870235
-0.172502
-0.192453
-0.08296
-0.193117
-0.0920584
-0.180778
-0.0814871
-0.119863
-0.129148
-0.194493
-0.0255657
-0.166307
-0.0971634
-0.181705
-0.189007
-0.103315
-0.0275852
-0.174863
-0.0737449
-0.195541
-0.135392
-0.181673
-0.0705908
-0.0831987
-0.154507
-0.17516
-0.0162027
-0.190021
-0.144425
-0.0566973
0.013236
0.00749724
-0.00689561
-0.0729564
-0.0241867
-0.0246621
-0.17397
-0.0747955
-0.130888
-0.156104
-0.187364
-0.0100131
-0.113676
-0.100784
-0.20802
-0.0779042
-0.152703
-0.0253173
-0.183613
-0.100935
-0.11952
-0.00108283
-0.0199815
0.0043662
-0.193731
-0.153004
-0.0806294
-0.0198589
-0.187162
-0.0923323
-0.0101039
-0.00849375
-0.0831605
-0.154971
-0.0337131
-0.070255
-0.17794
-0.148989
-0.0329854
-0.148654
-0.0669047
-0.175244
-0.0823376
-0.200111
-0.143163
-0.0195206
-0.0803627
-0.180219
-0.14686
-0.0695399
-0.194441
-0.151041
-0.177588
-0.155999
-0.16919
-0.0810382
-0.0108117
-0.183405
-0.0249825
-0.0240696
-0.0208587
-0.0770867
-0.0745531
-0.203902
-0.146078
-0.184346
-0.100259
-0.0169288
-0.104117
-0.0249518
-0.0796206
-0.197639
-0.108083
0.00772956
-0.0152306
-0.151729
-0.0184468
-0.153677
-0.022102
-0.177795
-0.0280412
-0.168694
0.00312151
-0.14271
-0.0796646
-0.0785767
-0.12564
-0.205833
-0.166878
-0.00141909
-0.204597
-0.0834811
-0.144135
-0.0807181
-0.0815673
-0.084932
-0.0796903
-0.004496
-0.0619476
-0.11558
-0.0793694
-0.137935
-0.171085
0.00347973
-0.168442
-0.0597824
-0.132258
-0.0212458
-0.0194065
0.00152675
-0.0782105
-0.172395
-0.186684
-0.0824399
-0.0834
-0.00691613
-0.0738689
-0.0727726
-0.0717028
-0.0213948
-0.074222
-0.0745629
-0.0755697
-0.0459606
-0.154296
-0.15659
0.00124374
-0.0780322
-0.0902512
-0.176147
-0.0799717
-0.0224681
0.00545191
-0.182338
-0.0793872
-0.0268495
0.01429
-0.196755
-0.079482
-0.0260221
-0.0700597
-0.0822706
-0.184938
-0.110772
-0.0775377
-0.193123
-0.183561
-0.0737013
-0.150049
-0.168704
-0.0230814
-0.162967
-0.0817173
0.00396668
-0.0590643
-0.185908
-0.0406544
-0.103133
-0.0998402
-0.0309268
-0.0785182
-0.193585
-0.0648225
-0.179198
-0.0387963
-0.0783183
-0.096368
-0.0732768
-0.164772
-0.166655
-0.0731679
-0.0728515
-0.16225
-0.0718561
-0.160166
-0.189959
-0.173789
-0.0829475
-0.0732377
-0.0347121
-0.175615
-0.0131328
-0.00465973
-0.0771795
-0.0807718
-0.0381113
-0.0732975
-0.0769773
-0.0142389
-0.0968033
-0.180298
-0.0821098
0.00188878
-0.171758
-0.0511263
-0.0630513
-0.0809504
-0.153247
-0.0291925
-0.044571
-0.180995
-0.0447104
-0.0365005
-0.0725667
-0.131619
-0.0372388
-0.0792564
-0.179435
-0.0657894
-0.16829
-0.0818977
-0.0400896
-0.167688
-0.162563
-0.199561
-0.0693367
-0.0829916
-0.0755397
-0.199157
-0.178564
-0.0321345
-0.0822953
-0.0726818
-0.181253
0.00581863
-0.00382072
-0.0539164
-0.0343441
-0.0459968
-0.03827
-0.164146
-0.0763077
-0.0225275
0.00602115
-0.0419804
-0.186582
-0.100456
-0.213439
-0.082221
-0.0728409
-0.177752
-0.0235077
-0.0146179
-0.064471
-0.0204814
-0.0265786
-0.0807274
-0.0634592
-0.0660344
-0.084758
-0.182363
-0.18296
-0.216302
-0.149412
-0.0227948
-0.168391
-0.183051
-0.080539
-0.163377
-0.203076
-0.161708
-0.0899986
-0.0459362
-0.176577
-0.0596809
-0.163743
-0.001681
-0.0612793
-0.0686703
-0.0570074
-0.163913
-0.076567
-0.157591
-0.0124842
-0.0789794
-0.0782822
-0.0808246
-0.0270595
-0.066587
-0.0829562
-0.158448
-0.0779482
-0.1862
-0.0794726
-0.0666317
-0.176561
0.00181531
-0.059247
-0.0806016
-0.0454664
-0.0643893
-0.203045
7.32496e-05
-0.0528691
-0.0891709
-0.0778076
-0.151099
-0.146493
-0.0900048
-0.0777063
0.00896202
-0.0973325
-0.137019
-0.0204997
0.00347371
-0.177912
0.000925657
-0.0276219
-0.0806768
-0.068318
-0.191835
-0.0800115
-0.154468
-0.0692924
-0.0792522
-0.0330437
-0.00778221
-0.0214145
-0.0833731
-0.000375313
0.00619818
0.00614782
-0.157285
-0.182189
0.0069264
-0.0811754
-0.147602
-0.0873839
-0.0210473
-0.159317
-0.165415
-0.19356
-0.0243786
-0.165831
-0.0637039
-0.118712
-0.00224844
-0.161744
-0.196224
-0.174388
0.00703159
-0.0334533
-0.170647
-0.217874
-0.22208
-0.0663499
-0.196312
0.00103035
-0.0151172
-0.175344
-0.159993
-0.039407
-0.145153
-0.0788731
-0.0118056
-0.18223
-0.207933
-0.163615
-0.0178378
0.00374743
-0.0662953
-0.0766339
0.00205627
-0.0612669
-0.144256
-0.15644
-0.181349
0.006389
-0.0523373
-0.18754
-0.126733
-0.166749
-0.0732402
-0.147546
-0.125435
-0.00233197
-0.00645203
-0.073221
-0.0249139
-0.0233951
-0.155972
-0.0903418
-0.0244738
-0.0236842
-0.0169757
0.00099876
-0.0814448
-0.191702
-0.186088
0.00437174
0.00499602
0.00547375
-0.188892
-0.0952555