/*--------------------------------*- C++ -*----------------------------------*\
  =========                 |
  \\      /  F ield         | OpenFOAM: The Open Source CFD Toolbox
   \\    /   O peration     | Website:  https://openfoam.org
    \\  /    A nd           | Version:  10
     \\/     M anipulation  |
\*---------------------------------------------------------------------------*/
FoamFile
{
    format      ascii;
    class       surfaceScalarField;
    location    "150";
    object      phi;
}
// * * * * * * * * * * * * * * * * * * * * * * * * * * * * * * * * * * * * * //

dimensions      [0 3 -1 0 0 0 0];

internalField   nonuniform List<scalar> 
38623
(
0.157474
-0.164431
0.0513207
-0.0443639
-0.0868439
0.0836395
0.141528
-0.138322
0.00572069
-0.00438302
0.100428
-0.101742
-0.00595168
0.00295658
-0.00798271
0.0109938
0.0202359
0.128011
-0.0525615
-0.0957042
-0.120503
-0.194283
0.185213
0.129569
0.0879096
-0.0702441
0.0543698
-0.0720329
-0.00624734
0.00681172
-0.00586133
0.00529895
0.0417766
-0.0139365
-0.19243
-0.000451893
0.0235242
-0.189005
0.165931
0.104617
0.126656
-0.134922
-0.0963521
-0.200115
0.179791
-0.00441516
0.0247378
0.246094
-0.0543963
-0.243871
0.0521804
-0.186767
0.170799
-0.0338017
0.0497701
0.0282045
0.0662357
-0.0671765
-0.0272666
-0.000736773
-0.14474
0.000879849
0.144598
0.00438851
0.167031
-0.0129959
-0.158423
-0.00299659
0.146745
-0.0025918
-0.141154
-0.0100861
0.00164278
0.159796
-0.151347
0.238208
-0.21552
0.190061
-0.21275
0.110682
0.0839131
-0.0203697
-0.17423
0.120615
0.0841231
-0.100123
0.174267
-0.151641
0.0160803
-0.0387041
-0.208319
0.206088
-0.180423
0.182656
0.0045621
0.161012
-0.00196976
-0.163606
-0.136143
0.489093
-0.441232
0.0882764
-0.00583114
-0.131992
-0.0224992
0.160335
0.121761
-0.104332
-0.332756
0.31533
-0.00882993
-0.00125453
0.00218967
0.00789288
-0.215196
0.172073
0.281328
-0.00849446
-0.00256597
0.015442
-0.00435574
0.0063818
-0.00159789
0.000819639
-0.00560341
0.0682463
-0.0551354
-0.0627177
0.0496096
0.147582
-0.00637283
-0.144204
-0.0050764
-0.0194801
-0.211492
0.236046
-0.25276
-0.102419
0.069787
0.285389
-0.000421362
4.5929e-05
-0.00780978
0.00818509
0.00566735
-0.21086
-0.136444
0.15224
-0.00291826
-0.0128791
0.00129756
0.00527579
0.263702
-0.270279
0.0103711
0.163909
-0.169715
-0.00456532
0.106957
0.0757962
-0.100863
-0.0818773
0.160022
-0.072106
0.145768
-0.233681
-0.174083
0.0926836
0.142287
-0.0609034
0.42928
0.244767
-0.445772
-0.228267
-0.0428151
0.0584061
-0.21855
0.202966
0.0858411
-0.0579924
-0.0547775
0.0269127
-0.130654
0.076731
0.0829027
-0.0289759
-0.00119962
0.00230875
0.00113588
-0.00224431
0.0074391
-0.000744862
-0.00775694
0.00105994
-0.00545605
-0.0011833
0.00112822
0.0055125
-0.0339528
0.0776213
-0.0876485
0.0439968
-0.00218127
0.000831211
-0.00188627
0.0032341
-0.296056
-0.0491863
0.231106
0.11413
-0.000981967
0.000420251
0.00694404
-0.000610032
-0.171871
0.17687
0.0826734
-0.0709386
-0.0955386
0.0837974
-0.00585856
-0.00717393
0.00814747
0.00488602
-0.11612
0.130957
0.0958437
0.0894055
-0.0303008
-0.00458601
-0.0545139
-0.00482223
0.00459914
-0.00396257
0.00418296
-0.142779
-0.0583375
0.0270239
-0.166945
0.157248
0.0183833
-0.008688
-0.00536407
-0.0023579
0.00290403
0.00481542
-0.234378
-0.217964
0.244024
-0.293605
0.215342
-0.101682
0.179949
-0.124987
0.102015
-0.0380903
0.06106
-0.378904
0.373676
0.195064
-0.189833
0.148286
0.441972
-0.160973
-0.157026
-0.0104081
0.0111522
0.156279
0.00679506
-0.000995989
-0.00755636
0.00175615
0.0709047
-0.0138149
-0.0513642
0.037753
-0.0924511
-0.370221
0.424928
0.0748787
-0.0711069
0.0244318
0.27984
-0.24214
-0.272076
0.0319146
-0.0811026
0.0864477
-0.0372599
0.0201528
-0.166999
0.163521
-0.0166765
0.108156
0.162281
-0.165772
-0.104666
-0.00979454
0.00662125
-0.00706241
0.0102386
0.0498495
-0.0468358
0.150282
-0.153288
-0.0790069
0.133104
-0.126439
0.0723452
0.0126168
-0.0474297
-0.100479
0.135292
0.113115
-0.117289
-0.00741541
0.00555
0.0014802
0.000392099
-0.0687548
0.105042
-0.0618724
0.025585
-0.208923
0.220313
-0.0308716
-0.0535865
0.123347
-0.115717
0.0459724
-0.00164027
0.000497821
0.000364455
0.000775749
-0.211921
-0.118319
0.137898
0.192343
0.150012
-0.149728
0.0495611
-0.00746446
-0.000592283
0.00719813
0.000858196
-0.183409
-0.000302994
0.170887
0.0128323
0.00236231
-0.00519034
-0.00253763
-0.236356
-0.135648
0.138798
0.233215
-0.00770416
-0.00279935
0.00497517
0.00552851
-0.00787418
0.000263055
-0.000243674
0.00785398
0.200305
-0.0483267
-0.156925
0.00494301
0.0243777
-0.0342779
-0.120751
-0.218078
-0.0593576
0.0867087
0.190727
0.00556052
0.101845
-0.0871815
0.138135
0.0173148
-0.0295803
-0.12588
-0.0493736
-0.0732254
-0.00238742
-0.0346278
0.00311856
-0.165013
0.196506
-0.00653278
2.69326e-05
0.00626942
0.000235276
0.00262064
0.00404944
-0.00567356
-0.000993921
0.00240963
-0.00170107
-0.00812024
0.208386
-0.11069
-0.218203
0.232614
0.291997
-0.104617
0.0994774
-0.0442358
0.154417
-0.136081
-0.0565215
0.0381822
-0.0803421
0.138473
0.0723743
-0.130504
-0.244333
0.0684997
0.181499
0.0784748
-0.0858796
-0.0613508
0.013779
0.152888
-0.0173929
-0.149275
-0.0723201
-0.240128
0.0596902
-0.161967
-0.0228375
0.0289939
0.155808
-0.0751752
0.194416
-0.409036
0.289797
0.00697108
-0.147055
-0.00588577
0.145971
-0.000579291
0.00107959
-0.00933035
0.00702709
0.00341063
-0.00562798
-0.00481603
-0.105322
0.0239198
0.189558
-0.000299613
0.00653394
0.000316969
-0.00655094
0.0193048
-0.153509
-0.0171193
0.151337
0.0276245
-0.0368949
0.0341334
-0.0248586
-0.0661771
0.0821213
-0.0891703
-0.165234
-0.508324
0.42332
0.250232
-0.00520805
0.00391919
-0.00353631
0.00754772
0.000371995
-0.000482238
0.0284547
-0.0402756
-0.0350993
0.0469238
-0.0777622
-0.0371007
0.105954
0.00889574
0.00504524
0.0457397
-0.006337
-0.0444463
0.00247471
0.165275
-0.156822
-0.0109336
0.184395
-0.0229043
-0.000486971
-0.161007
-0.174657
0.167679
0.0675061
-0.0605276
0.173972
0.0272331
-0.0673356
-0.133873
-0.059373
0.190597
-0.165852
-8.26819e-05
0.00579207
-0.00589544
0.000187026
0.0367088
0.163234
0.0574062
-0.0779826
-0.131476
0.152051
-0.10737
0.133208
0.00908426
-0.00931047
-0.000353197
0.0699943
-0.0762015
-0.100984
0.10719
-0.148774
-0.190047
0.205858
0.132959
0.0488085
0.124873
-0.0619691
-0.111739
0.154621
-0.00994601
-0.000648558
-0.144025
0.209937
-0.0826124
0.027116
0.138304
-0.0149304
-0.139071
0.0157022
-0.1292
0.0382962
-0.0113673
0.102263
0.0140727
-0.0157364
0.00836295
-0.00670152
-0.0211368
-0.168697
0.174088
0.015752
0.0821139
0.0120401
-0.0725835
-0.0215712
0.203038
-0.128454
-0.266084
0.191498
0.120955
-0.123299
-0.0748241
0.0771846
-0.0689192
0.247166
0.110167
-0.288408
0.0463402
-0.0778574
0.0702248
-0.0387069
-0.00997149
0.00570357
0.170278
-0.166012
-0.00274957
0.158474
-0.152626
-0.222032
0.124517
0.194456
-0.0969465
-0.0239971
0.0463317
-0.0271811
0.0048454
0.00236035
0.0106881
-0.00865521
-0.00439516
-0.00541616
0.164369
-0.168871
0.00993294
0.105173
0.0134315
-0.0381195
-0.0804845
0.00301195
-0.0101198
-0.00189427
0.00899967
-0.16704
0.161209
0.221305
0.00732847
-0.193434
-0.0351961
-0.0313578
0.180142
-0.169919
-0.159975
0.16113
-0.0741597
0.0730055
-0.00682471
-0.00157159
0.00761749
0.0007787
-0.157886
0.243969
0.145562
-0.231644
0.111749
0.0542767
-0.0960269
-0.14283
-0.00683429
0.159701
-0.0100397
0.00278036
-0.0113961
0.0026846
-0.216928
-0.210416
0.20938
0.0244596
0.0183422
-0.0151798
0.227804
-0.434903
0.204842
0.00225411
-0.0142444
0.000883827
0.011184
0.00217626
0.139634
-0.00349726
-0.142594
0.006453
0.0144437
0.162363
-0.0107055
-0.166104
-0.235842
0.026797
0.220696
-0.0116489
-0.169832
0.145722
-0.106503
0.130609
-0.0481478
0.129716
0.00351023
-0.085102
-0.0839682
0.0760258
-0.0402299
0.0917182
0.0204187
-0.080221
-0.0697138
-0.128924
0.0637821
0.134859
-0.001685
0.0206468
-0.172774
0.153816
0.190733
-0.181999
-0.00934327
-0.0807312
0.0373358
-0.00351088
0.00464799
0.00441621
-0.0060261
-0.000947382
0.00451602
0.00245742
0.113031
-0.0822855
-0.00282236
0.0040049
0.00218831
-0.00336904
-0.304352
0.0164406
0.0642518
0.223659
-0.252692
0.297421
-0.043432
-0.258645
0.0757224
-0.111664
0.294583
0.00301026
-0.144436
0.0029676
0.138456
0.159214
-0.1883
-0.208727
0.237812
0.00100918
-0.000141381
-0.00632395
0.00545692
-0.000592607
0.00468602
-0.00691419
0.00179595
-0.00526919
-0.000618223
0.00409195
0.132017
-0.0819848
-0.130374
0.173983
-0.042702
-0.162636
-0.147525
-0.270968
0.169757
0.24874
0.0129547
0.0080677
-0.00695321
-0.0185442
-0.161023
-0.00583459
0.185396
0.00582729
-0.00393872
-0.00813208
0.00299617
-0.0100596
0.0100755
-0.0876341
0.015655
0.0751276
-0.00315513
-0.0700377
-0.165093
0.0822908
0.15284
0.151625
-0.00616463
-0.0478746
-0.0975916
-0.0777466
0.124214
0.059572
-0.106037
0.145487
-0.0482433
-0.144075
-0.00852145
-0.000404763
0.00850421
0.142891
-0.13854
-0.00603145
-0.262405
0.144696
-0.0401755
-0.00363069
-0.00117786
0.00262835
-0.00519313
0.00131622
0.0105934
-0.00671406
0.183607
-0.0508237
-0.151335
0.0302634
-0.12423
-0.00022906
0.00694868
-0.000999659
-0.0057212
-0.0527162
-0.0153284
0.042692
0.0253506
0.0777539
-0.0686236
-0.282101
0.272968
-0.0335761
0.0273516
-0.00496076
0.000746256
0.000125068
0.00409094
0.163358
-0.0122172
-0.161114
-0.0458898
0.131651
0.041571
0.0340975
-0.0149417
-0.0607296
-0.000244566
0.00744245
-0.00794526
-0.233189
0.0880495
-0.208218
0.0297944
0.0248814
0.153539
0.158787
-0.0173383
-0.159663
0.0182299
-0.149391
0.179376
-0.230077
0.200087
-0.00276938
-7.07519e-05
-0.00225605
-0.0576798
-0.1844
-0.48493
0.524612
-0.175826
0.165344
-0.0413376
0.00398039
0.00969225
-0.000200616
-0.00632484
-0.00316704
-0.161752
-0.297318
0.0164729
-0.00195365
-0.00459569
-0.00990997
-0.0458807
-0.349939
0.420209
-0.0243914
0.0133222
-0.000775757
-0.0167945
0.00428137
-0.00160308
0.0028172
0.00109328
-0.146436
0.0088703
-0.0107257
0.148295
0.00309376
-0.00975928
0.00907905
-0.00957893
0.0530459
0.121863
-0.00101666
-0.00679026
-0.028143
-0.170682
0.0318782
-0.0959476
0.199556
0.104776
0.0886254
-0.380613
-0.15378
-0.0117894
0.00290878
-0.00124001
0.112862
-0.000583307
-0.00710571
0.040091
0.216508
-0.198225
-0.0583697
0.0779791
-0.182092
0.259522
-0.155417
-0.0054079
-0.00151404
0.00186665
0.00505567
-0.262043
0.268559
-0.055859
0.0493441
0.103838
-0.028659
-0.0617454
0.00500982
-0.00820971
0.00218365
0.00779931
0.0121806
0.0046985
-0.000512212
-0.00732958
0.00314384
-0.0620707
-0.223497
0.0581366
0.227432
-0.200804
-0.197911
0.000815688
0.0008135
-0.0478915
0.065355
-0.242108
0.224641
0.00259873
-0.00577206
-0.0020366
-0.0702003
0.13896
-3.51016e-05
0.173018
-0.167277
-0.0240449
-0.290381
0.3197
-0.0106418
-0.00847133
0.00486939
0.0539796
-0.00880112
-0.00400145
-0.0411754
0.0265724
0.00941271
-0.0238834
-0.012101
0.00765072
0.0117863
0.162595
-0.217658
-0.110711
-0.00770125
0.00806402
0.00242253
0.000167252
0.00101901
0.00313261
-0.00431863
0.0426684
-0.129362
0.255519
-0.168826
0.104401
-0.160949
-0.194093
-0.0159309
0.000863536
0.00766211
-0.00770247
-0.000822554
0.0810236
-0.0883422
-0.225872
0.00285549
0.00184596
-0.000990137
-0.00371135
0.144787
-0.17084
0.0603416
-0.0342891
-0.00143068
-0.0053575
0.00509684
0.0332716
-0.00882022
-0.232673
-0.000373702
-7.36258e-05
-0.00500795
-0.0167303
-0.152731
0.0269134
0.142547
0.206996
0.0381709
-0.202173
-0.0429974
-0.00249671
0.00838846
-0.00475002
-0.00114975
-0.032678
0.0368478
0.014207
-0.0183701
0.106601
-0.23279
0.360853
-0.234654
0.00855652
-0.00884883
0.0032885
-0.0889417
0.0510579
0.0842241
0.00341383
-0.0143198
-0.0031697
-0.00218522
0.00375239
0.00509667
-0.00342854
-0.00402873
0.00323758
-0.0046252
0.00608611
-0.0110159
0.00386461
-0.0151753
-0.197942
0.00658031
-0.00525693
-0.00849117
0.00716664
-0.265147
0.23548
0.0196715
-0.0201404
-0.208458
0.00923519
0.000780897
-0.00932245
-0.000695281
0.0305047
-0.0216589
-0.0391367
0.030292
-0.0436612
-0.0655873
0.0413745
0.0678715
0.00762643
0.00314221
-0.0178197
0.0148423
-0.0116056
0.0145965
-0.0583213
-0.32969
-0.0111873
-0.00857769
0.00138456
-0.00289119
0.00441384
-0.00464608
0.148996
0.0131977
-0.0240653
0.000315428
-0.00535718
0.00217408
-0.00392425
0.0747076
0.104228
-0.0579821
-0.160297
0.0207857
-0.0214004
0.160907
0.142358
-0.167298
-0.117893
-0.0776792
0.0179874
0.067179
-0.00745929
0.00859916
-0.000769873
-0.00363391
0.00623363
0.129582
-0.0939895
-0.0803219
0.0447269
-0.0033022
0.00674044
-0.0519452
0.029408
0.268693
-0.246157
0.00354909
-0.0038657
0.00106592
-0.0015709
0.000666827
0.0172077
-0.00675237
-0.0176644
0.00721058
-0.21185
-0.189178
0.138621
0.0579887
-0.0340672
-0.196702
-0.00832762
0.18902
0.0160069
0.0102897
0.0125488
-0.0114819
-0.0113504
0.0231126
-0.0388306
-0.0620584
-0.0146111
0.0114374
-0.00566931
0.00883237
0.119067
-0.0807974
-0.116017
-0.152072
-0.0228035
0.0626178
0.112275
0.0154356
-0.100812
-0.0949411
0.180312
-0.00829331
0.001693
-0.224247
-0.0223633
0.198716
-0.000609669
-0.00987365
-0.00413661
-0.00926443
-0.00330067
0.0227894
-0.00729245
0.0137599
-0.0292176
-0.11854
-0.137793
0.0636735
0.192663
-0.113511
0.151288
0.0593219
-0.0970636
-0.00990635
0.00778232
-0.00851556
-0.0202299
-0.0104823
0.0193398
0.00805253
-0.08174
0.0718515
0.475293
-0.477426
-0.163103
0.329142
-0.43598
0.243002
-0.136163
0.00290712
-0.00353807
0.000278709
0.000349854
-0.0933117
-0.140876
0.1637
0.0704841
-0.000803766
-0.00941094
-0.0616257
0.0595333
-0.00261815
0.0139276
0.0114982
0.00456852
-0.00324095
0.0399514
-0.0412697
0.00586442
-0.000101735
-0.00635411
-0.000740964
-0.00642333
0.000442006
-0.00094554
0.00332051
-0.00265702
0.202748
0.0973259
-0.0791924
0.125199
0.0953431
-0.14135
0.22592
-0.472915
0.268124
-0.0211291
-0.100912
0.0501842
-0.012225
0.00946211
0.0455371
0.15551
-0.304503
0.189315
-0.040323
-0.0105213
0.0023913
0.142804
0.00704023
-0.134412
0.00303926
-0.00157056
-0.007495
-0.173052
0.0730483
-0.0701268
0.170131
0.0214456
-0.0254646
0.015458
-0.186871
0.13996
-0.189441
-0.000296197
-0.0659076
0.398463
0.156538
0.065332
-0.0905021
0.00716147
0.00607207
-0.00267602
0.00462219
-0.00801242
-0.0390939
-0.131043
0.152073
0.0180627
-0.306069
0.00133519
-0.00630722
0.023354
-0.0555351
-0.0454712
-0.0173552
0.0107962
0.118988
-0.0864342
0.00690097
-0.00666195
0.00195273
-0.00218859
0.0932422
-0.082202
0.0469486
-0.0230609
-0.229556
0.0105087
0.11925
-0.21982
0.134642
-0.0340787
0.344657
0.127113
-0.14263
0.15976
-0.169399
0.125772
-0.174437
0.189925
0.163885
0.00690609
0.00749814
0.155028
0.0604114
-0.0588165
-0.156618
-0.00293416
-0.0119428
0.0346818
0.125047
-0.102324
-0.0130744
0.10951
0.0049488
-0.000942211
0.00229773
0.00276201
-0.00324022
0.00933277
-0.00642684
-0.000171429
-0.00273575
-0.00706515
0.165601
-0.158569
-0.41172
-0.181114
0.0344547
-0.00116674
-0.246142
0.0532173
-0.0425056
-0.00410004
0.00702235
0.00578557
-0.00868111
0.0078094
0.0038965
-0.00314925
-0.0238823
0.0337339
-0.0300643
0.0181038
0.0971802
-0.13384
0.0185452
-0.0399593
0.0965587
0.0351198
-0.139575
-0.0806084
0.124347
0.0958361
0.00366855
0.00595499
-0.000644896
-0.00792109
-0.00517286
0.00686134
0.00171637
-0.0696092
0.640604
-0.181902
0.1098
-0.0294536
-0.0599271
-0.0135096
-0.0140017
0.0269016
0.101759
0.103996
-0.0440473
-0.161733
-0.083193
-0.0344505
0.08371
0.0103883
0.0347133
-0.0185244
0.132479
0.0529077
-0.1216
-0.183984
-0.0560978
0.0773782
0.162701
-0.0167152
0.139031
0.0136117
-0.135926
0.000374458
0.00477034
0.0275091
-0.0326543
0.186549
-0.0881841
0.083351
-0.181704
-0.198599
-0.026313
0.0914696
0.133443
0.0119718
-0.00793868
0.00285304
-0.00422487
0.00396507
-0.183256
0.150771
-0.019076
0.0288292
0.0292936
-0.0390457
0.00465003
-0.00633493
-0.00679786
-0.0398878
0.0316774
-0.0405006
0.0347421
-0.116212
-0.180856
0.193656
-0.167852
-0.0470255
0.0212322
-0.00494407
0.0138038
0.00234002
-0.0111978
-0.09349
0.0904205
-0.115468
-0.204361
0.218422
-0.0729372
0.0588854
-0.327432
-0.10668
0.320774
0.113348
-0.108706
0.156134
-0.0865241
-0.0150227
0.0077133
0.198038
0.00343849
0.00637617
0.0175314
-0.00659701
0.0259255
0.0874302
-0.0409426
-0.00384848
0.0237446
-0.0195215
-0.00037821
-0.00317136
0.00848228
-0.0575584
0.00910363
-0.00853963
-0.00376104
-0.264542
-0.128523
0.181218
-0.00707889
0.023778
-0.00207619
-0.0146417
-0.269016
-0.0637442
-0.0112784
0.00757555
-0.0040758
-0.025223
0.288756
-0.332446
-0.0114371
0.0174528
-0.0250906
0.14306
-0.049524
-0.18685
-0.0483568
0.310058
0.0149948
0.00503982
0.0749969
0.0324998
-0.0200618
-0.138489
0.00424239
-0.00937986
-0.169631
-0.273946
0.0453176
0.120174
-0.0567459
-0.108754
0.0162968
0.00620213
0.000146416
-0.000137058
-0.00719845
0.00718666
-0.0538549
-0.0692009
0.0839944
0.0390453
-0.268808
0.0265562
0.0170691
0.225181
-0.0648386
0.164655
-0.204483
0.231905
-0.256957
0.00188349
-0.474706
0.15266
-0.155382
0.000352838
-0.07692
-0.158436
-0.0892935
0.0134733
0.234253
-0.0735925
0.164432
-0.160877
0.00704146
-0.00382154
0.00381669
0.00159844
0.00183838
0.00509718
-0.00293035
-0.0109531
0.141464
-0.133279
0.290544
-0.369574
-0.135267
0.214303
-0.00705264
0.0659977
-0.292816
0.348582
-0.0338487
-0.136983
0.137559
0.0332813
0.0391266
-0.0278889
0.0274891
-0.0387494
-0.0193958
-0.0149069
0.0272246
-0.00504596
-0.000439959
-0.00569442
-0.162397
0.023137
0.165576
-0.0263189
0.142139
-0.0625679
0.052144
-0.131717
-0.107423
0.0402082
0.105511
-0.1696
-0.105739
0.0194353
-0.231511
0.0321398
0.179933
0.065862
0.0710152
-0.0491475
-0.0877061
-0.0246737
0.0261807
0.0062906
0.0357469
0.314361
0.0371321
0.0293939
-0.040689
-0.0258365
-0.0064594
0.00534067
-0.00455809
0.040414
-0.0120805
0.00445737
0.00258179
-0.00121128
-0.0354993
0.0692141
0.0181542
-0.0518854
-0.137006
-0.321491
0.131071
0.0316781
-0.0740704
0.0654303
-0.0230156
0.309599
-0.148952
0.118588
0.173421
0.0832358
0.114816
-0.114104
-0.0839317
0.000235439
-0.00855909
-0.000784103
0.00910642
0.0252419
-0.027246
0.0103668
-0.037036
0.0406523
0.00445954
-0.00544127
0.00595062
-0.00496563
-0.0100407
-0.00477404
0.00505949
0.0589054
0.134614
-0.0586592
-0.21327
-0.029326
0.018753
0.223838
-0.319553
0.0283518
0.00863552
-0.00904731
-0.0103543
0.0108367
-0.020603
0.0275123
-0.00021235
-0.000155304
-0.00854312
0.00891131
-0.00704845
0.287807
-0.569037
0.243012
-0.14868
-0.00923379
0.000232142
0.0510493
0.0305518
-0.0133574
0.038498
-0.0360676
0.0571006
-0.0595148
-0.156619
0.00630842
0.209834
0.000123574
-0.00585541
0.000539865
0.200317
0.121361
-0.255678
-0.0796566
0.0660779
-0.00433568
0.00498938
-0.48564
0.0591699
-0.142562
0.105416
-0.00601865
-0.0765537
-0.0228442
0.0200162
0.0832394
-0.00456894
0.00115057
-0.0180481
0.181661
-0.0443711
0.00633681
0.0029697
2.55199e-05
0.00402867
-0.0095735
0.0380977
0.0411861
-0.0504527
-0.00544032
-0.177732
0.0749374
0.108234
0.156719
0.0246783
-0.142935
-0.0384606
-0.158295
0.152153
-0.0178936
0.0240279
-0.0228475
-0.205445
-0.0780121
-0.249534
0.157916
0.0220985
-0.0565154
0.0754397
-0.0410412
-0.00966917
-0.00743017
0.00604044
-0.245356
0.136937
0.0382007
-0.0303524
-0.0106579
-0.0348958
-0.14864
-0.0102686
0.142179
0.147679
-0.0310911
0.0433799
-0.167425
-0.0383567
0.281648
-0.0573693
-0.0642557
-0.226837
0.138051
-0.241381
0.152612
0.188671
-0.0998986
-0.0461624
0.108945
0.184385
0.0235932
-0.00968574
-0.0308324
0.0169186
-0.187039
-0.0753144
0.274457
-0.0121049
-0.0052267
-0.000795334
0.0103111
-0.00428684
0.0665211
-0.134772
-0.0587889
0.127032
-0.117991
0.0772211
0.165975
0.00969465
-0.0288872
-0.212764
0.00685063
-0.271125
0.0294787
0.234788
0.0092003
0.000743219
-0.0174838
-0.00380094
0.0133486
0.0918344
-0.0519812
-0.0937224
-0.215556
-0.0992838
0.0503053
0.11381
-0.0220331
0.00264541
-0.00107804
0.00072922
0.00384484
-0.00203384
-0.401546
0.00415785
0.00474466
-0.00586324
0.0422938
-0.254534
-0.0497997
-0.366867
0.339339
-0.109473
0.152711
-0.00190052
-0.00723273
-0.172867
0.150033
0.0296429
-0.156506
-0.0406169
0.167481
0.0235534
0.0951953
0.0202456
0.0115243
-0.0103342
-0.0493943
-0.00362061
0.0497757
-0.00741056
-0.00103221
0.084918
-0.0572689
0.0492045
-0.336814
0.379159
-0.0915432
0.0100852
-0.154034
0.0148026
-0.00940847
0.0311576
0.086763
-0.0101463
-0.0662743
0.121448
0.0401715
0.0882482
0.331734
-0.321399
-0.0985816
0.337449
-0.313465
-0.00135266
-0.0054442
-0.215259
0.184316
-0.136816
0.15862
0.0232145
-0.0450261
0.00329673
0.0276633
0.051153
-0.0168287
0.212796
-0.0120419
-0.183931
0.0556635
0.135724
-0.00842506
-0.000425837
0.00860809
0.0186087
-0.105675
-0.377451
0.0711876
-0.129708
-0.0894209
0.0443844
0.151281
-0.00511829
0.000583183
-0.0429926
0.159796
-0.160681
0.0438756
-0.0955717
0.0440676
-0.188179
0.106041
-0.10699
0.0160264
-0.0598582
0.150794
-0.0535791
0.0492256
-0.0176275
0.165454
0.0034843
-0.164376
-0.00492798
0.0142677
-0.0363556
0.0541951
0.0537309
0.0164704
0.168555
-0.0147452
-0.0345806
-0.0224547
0.0199941
-0.00986455
-0.0472673
0.158879
0.0846976
-0.080247
0.0980772
-0.102534
0.12653
-0.120093
-0.00686948
-0.0126034
0.00932942
0.089237
-0.0428369
0.0899735
-0.136389
-0.0786678
0.107205
0.0387509
-0.0672872
0.147167
-0.21629
0.234164
-0.233391
0.130249
-0.285012
0.078788
-0.11511
-0.00979087
0.00641872
0.00573191
-0.0546476
-0.136742
-0.013541
0.106332
0.0439547
0.175105
-0.127364
-0.100314
0.131866
-0.074337
0.0707001
-0.128232
0.153958
-0.158172
0.00908961
-0.00487513
0.107755
-0.0763722
0.0989777
-0.130396
0.184882
-0.184809
0.0218383
-0.0219068
0.190573
-0.153956
-0.00697188
0.249713
-0.0464327
-0.161504
-0.0343851
0.235978
0.0397619
-0.0180164
-0.0263263
-0.143432
-0.247945
0.234618
0.156761
-0.0331312
-0.0787946
-0.114377
0.159559
0.00443302
-0.147159
-0.310268
0.0598567
-0.0863994
0.147102
-0.0384037
-0.115763
-0.057344
0.125866
-0.105626
0.0706518
0.14751
-0.0631283
-0.236061
0.0260435
-0.0384179
0.244904
-0.232535
0.143476
-0.0453716
-0.0129118
0.000693842
-0.168588
0.180808
-0.0225915
0.174929
-0.169169
-0.060719
0.274881
-0.00127677
0.168696
-0.0019659
0.0408845
-0.0675035
-0.233401
0.230135
-0.0690501
-0.202645
0.0748902
0.20573
-0.0740836
0.113913
-0.118503
-0.00466499
-0.00821803
-0.00474231
0.0465376
0.0499414
-0.0583804
-0.00878259
-0.0011199
-0.0106992
0.161759
-0.00202332
0.00861913
0.0104192
0.0106801
-0.0124249
0.164426
-0.162685
-0.195445
0.133319
0.132786
0.153519
-0.0404209
0.0326927
-0.145793
0.150493
0.048442
-0.0534434
-0.0279708
0.148747
-0.00710553
0.00853427
-0.15018
-0.00329185
0.479316
-0.0968572
0.183785
0.0262406
-0.0251413
0.0287479
0.00344864
0.0896556
-0.00516126
-0.00148871
0.00283711
0.0329895
-0.0243621
-0.176008
0.167384
0.141718
0.0555017
-0.00664342
0.184804
-0.161368
0.0386131
-0.0620467
0.175682
-0.113866
0.15679
-0.196738
0.0973524
-0.0574004
0.140456
0.114491
-0.0701425
0.142128
-0.00987825
0.0482923
-0.180554
0.132454
-0.072033
0.0714474
0.110856
-0.0646877
0.06103
0.155026
0.0594852
-0.0388297
0.157467
-0.0386264
0.0352835
-0.154119
0.124457
-0.0881306
0.0854574
-0.121783
0.15216
-0.164919
-0.0602556
0.0730165
0.143882
-0.240087
-0.0604004
0.103463
-0.0560865
0.0760576
-0.123433
0.156255
-0.0200146
0.021225
0.161964
-0.166912
0.00843268
0.00709016
0.188256
-0.183404
-0.0119518
0.156327
-0.190097
0.0323454
0.00142393
-0.085186
0.221919
-0.149644
-0.00227926
0.171669
0.102819
-0.0928584
0.0830882
-0.0930516
0.107106
-0.0797403
0.0856522
0.0613343
-0.0628148
0.158273
0.0165753
0.156294
-0.154157
-0.0187076
-0.0225811
0.152005
-0.14171
0.0122834
0.138851
-0.069416
-0.115724
0.0462808
0.107885
0.0449824
-0.0107475
0.134234
-0.0681141
0.0970381
-0.0834569
0.0972663
0.0738673
0.160869
-0.102279
0.12364
-0.081168
0.133233
-0.0465808
0.06551
0.144626
0.0507688
-0.0403692
0.049574
-0.0395998
0.00543075
-0.00547962
0.151064
-0.151019
0.147773
-0.00206641
0.00285398
-0.148566
0.133172
0.0284765
-0.00531699
0.103903
-0.0660035
0.0698172
0.134804
-0.108377
-0.0218981
0.0204642
-0.168843
0.170276
0.17362
-0.166496
-0.00594357
-0.00119171
-0.00497538
0.0629119
0.221616
-0.359698
0.0923707
0.106924
-0.0921923
0.169385
-0.00117821
-0.00117907
0.0973769
0.072417
-0.0659094
-0.236825
-0.124199
0.14282
-0.0550176
0.0577318
0.131901
-0.0862481
-0.113701
0.0946359
0.105296
0.170937
-0.163942
0.00958266
0.156295
-0.155741
0.148948
-0.141604
0.0665248
0.0032083
0.13134
-0.146358
0.011801
0.189372
-0.011302
-0.00444627
-0.0772197
-0.206701
0.060426
0.10463
-0.240973
0.156991
-0.00402894
0.163409
0.00512458
-0.164505
0.127875
-0.172775
-0.029186
0.0354167
0.207178
-0.144858
0.0550384
0.145488
-0.0287109
0.133552
-0.131498
0.0266722
0.00063707
0.156075
-0.201759
-0.111522
0.0421467
-0.200072
-0.0460152
0.203964
0.072218
-0.0906504
-0.136633
0.15506
-0.00927754
0.0684871
0.134454
-0.00630975
0.138654
0.0184383
0.127047
-0.169737
-0.200848
0.307483
-0.107251
-0.260873
0.0606439
0.204442
0.185851
-0.144183
-0.0333156
-0.00834768
0.0389498
-0.000806268
-0.0055172
0.00209613
0.111847
-0.153627
0.101176
-0.0519544
0.0760761
-0.0472896
0.157063
0.229813
0.0731412
-0.223413
-0.0795349
-0.203467
0.197111
-0.209934
-0.0453572
-0.111095
0.224501
-0.0743075
0.112748
-0.148703
-0.00858944
0.00998115
0.0307953
-0.101384
0.124092
-0.110838
0.0712723
-0.0615003
-0.138702
0.125838
0.0850738
-0.173654
0.0786311
0.161446
-0.0664296
-0.11743
0.177119
0.0373425
-0.138611
0.122073
-0.0598705
-0.0452379
0.165255
0.0270867
0.0118906
0.164364
0.102016
0.0885191
-0.0296644
-0.015083
0.0160352
-0.165827
0.16488
-0.122496
0.0228217
-0.097598
0.11176
-0.0749877
0.100877
0.107292
-0.13217
0.0696872
0.0868444
-0.0243615
-0.0998465
0.0690247
-0.127635
0.0928309
-0.0462568
0.000391201
0.0107652
0.0490859
-0.0396108
0.135151
-0.238939
0.231002
0.0331038
-0.0251625
0.0649506
0.110961
0.0029878
0.165397
-0.165276
-0.00310936
-0.00251034
0.148812
-0.155575
0.110187
-0.0414144
-0.0884908
0.0155696
-0.00583614
0.000989713
0.00333287
-0.323161
-0.03976
-0.135537
0.0549404
0.129683
-0.15262
0.145067
0.0658143
-0.0582573
0.022787
-0.225366
0.235643
-0.0330645
-0.069485
0.136004
0.087664
-0.164207
-0.0446539
0.0575533
-0.0786603
0.0897802
0.115596
-0.0633406
-0.132009
0.144439
-0.00214555
-0.111253
0.112253
-0.0305076
0.0198845
-0.138591
-0.102073
0.14942
0.0912448
0.106686
-0.0674963
-0.0608846
0.0216801
-0.0725481
0.0441842
-0.151454
0.179823
0.228639
0.149566
-0.237041
-0.14115
-0.131473
0.086971
0.112998
0.102929
-0.0534583
0.0494908
-0.124574
0.0783467
-0.0911913
-0.0539566
0.0277118
-0.194611
-0.0289022
0.0867755
-0.163823
0.00183695
0.165704
-0.00372132
-0.0829886
0.10902
0.10729
-0.211047
-0.0246143
0.0499458
0.0186035
0.00880078
-0.0135548
0.194138
-0.186656
0.0114338
0.119266
0.0559697
-0.0337783
0.0122386
-0.143485
0.139158
-0.135911
-0.0928406
0.0838331
-0.118633
0.0189536
0.158656
-0.0371993
-0.140407
0.12764
0.0771632
-0.13511
-0.103911
-0.0651451
0.164184
0.00487306
-0.00274965
-0.00518796
-0.0051212
0.15958
0.0185199
0.134709
0.00792959
0.302134
-0.293196
-0.0696612
-0.231163
0.239938
-0.0381041
0.138505
0.0102975
-0.00591231
-0.187764
-0.018941
-0.203785
0.205673
0.0130821
-0.0149672
0.325082
-0.349019
0.130369
-0.106434
0.150785
0.00836337
-0.0051865
-0.324392
0.346904
0.0657704
-0.0882844
0.243313
0.0164686
-0.0384754
0.316635
0.0753807
-0.312966
-0.0790523
-0.37527
0.44572
0.0261676
-0.0966188
-0.328163
0.101928
0.341514
-0.115281
0.202977
0.00265908
-0.202189
-0.00344035
-0.00466825
0.0298701
0.18231
-0.0283933
-0.213154
0.221635
0.0179455
-0.0264244
0.0233326
0.124727
-0.00633959
-0.0285723
0.0776121
-0.116281
0.108179
-0.0705817
0.017947
-0.0211031
0.02274
0.144496
-0.102808
0.086903
-0.135203
0.203807
0.159998
-0.0851115
0.134947
0.00184107
0.21099
-0.179839
-0.00575788
0.00110438
0.156659
-0.161804
-0.0392375
0.0364049
0.159132
-0.0424905
0.154358
-0.157717
0.154315
-0.0122603
0.0156677
0.169917
-0.0285295
0.0182085
0.133911
-0.00858526
0.0093818
-0.195612
0.166283
0.00118205
0.113987
-0.0368391
-0.161729
0.189265
-0.17513
0.181596
-0.0614507
0.0108686
-0.0186728
-0.144573
0.15238
0.0388049
-0.0455091
0.158776
0.0968718
0.0231653
-0.182938
-0.151508
0.0331895
-0.0383104
0.156627
0.112105
-0.182855
0.0362378
-0.117267
-0.0101666
0.131553
-0.124781
-0.140811
0.134045
-0.10411
-0.0628081
0.0423392
-0.137668
0.142714
0.000737284
-0.00578241
-0.146138
0.1615
-0.00448809
-0.136749
0.138229
-0.0120007
-0.141971
-0.00755066
-0.138107
0.138674
0.00418204
-0.00474868
0.138257
-0.142077
0.0190663
-0.0152448
-0.238009
0.197454
0.0543779
-0.0138172
-0.153179
0.160367
-0.000401792
-0.00677964
-0.26517
-0.0161738
0.326128
-0.0447766
0.231981
0.107074
-0.288161
-0.0508873
0.251743
-0.233919
0.0453711
-0.0631954
0.279974
-0.266014
0.0556875
-0.0696514
0.0174505
-0.157288
-0.00284467
0.00163529
0.132557
0.0936892
0.119676
-0.126519
0.121249
0.0761569
-0.0582485
0.22656
-0.103991
0.202004
-0.139824
0.00909082
-0.162399
0.0826175
0.142432
-0.14642
-0.140898
0.00794209
-0.00515186
-0.0134209
-0.00283702
-0.00462617
0.0634197
0.222242
-0.05368
0.00678273
-0.00594495
0.287559
0.0658599
-0.0734485
-0.137771
0.0042306
-0.00842807
0.00366231
-0.00605557
-0.066216
-0.147652
0.0229143
-0.0173393
-0.184738
-0.0411121
-0.0121582
0.0197032
-0.0415609
-0.131186
-0.256303
0.127682
-0.146668
0.00453477
0.0453511
-0.127427
-0.0218334
-0.106408
0.208331
-0.118102
0.0117861
0.0597279
-0.247457
0.157938
-0.140235
0.12108
0.100252
-0.139786
0.00518551
0.0144109
-0.0159247
-0.100196
0.0926931
-0.195146
-0.145271
0.0106037
0.123665
0.162429
0.153879
0.093785
-0.00344169
-0.177983
0.0263043
-0.124011
-0.0186029
0.0605915
-0.0562625
0.0637967
-0.0681234
-0.0011238
-0.000484305
-0.110777
0.0956316
-0.286339
0.0579848
0.0406824
-0.0208795
0.0750179
0.0866918
-0.0540343
0.190854
0.0758526
-0.0836098
0.220785
0.0132882
-0.0582673
-0.175814
0.00795732
-0.00876031
0.100481
-0.146867
0.039404
-0.140554
-0.00297116
0.0454867
0.109116
0.145072
-0.15134
0.083439
-0.0236373
-0.160922
-0.0181323
0.174055
-0.170999
-0.149902
0.153399
0.0192387
-0.135506
0.025481
0.064734
-0.13489
0.0162327
0.187636
-0.086322
0.0312518
0.158233
-0.154199
0.0822442
-0.0389347
0.0779396
0.00313853
-0.00465164
0.0490842
-0.0564872
0.112908
0.0265522
0.120927
-0.0633575
-0.211208
-0.00978541
0.138008
-0.00789637
0.151936
-0.168403
0.0419013
-0.0590987
-0.00152967
0.16101
0.150463
-0.10713
-0.136649
0.0933225
0.0949924
0.00273073
0.151011
-0.0890071