/*--------------------------------*- C++ -*----------------------------------*\
  =========                 |
  \\      /  F ield         | OpenFOAM: The Open Source CFD Toolbox
   \\    /   O peration     | Website:  https://openfoam.org
    \\  /    A nd           | Version:  10
     \\/     M anipulation  |
\*---------------------------------------------------------------------------*/
FoamFile
{
    format      ascii;
    class       volVectorField;
    location    "150";
    object      U;
}
// * * * * * * * * * * * * * * * * * * * * * * * * * * * * * * * * * * * * * //

dimensions      [0 1 -1 0 0 0 0];

internalField   nonuniform List<vector> 
23845
(
(0.527088 -0.0432766 9.86169e-21)
(0.532886 0.0686439 -2.77404e-21)
(0.620399 -0.21526 1.44745e-20)
(-0.063171 -0.0311781 7.06455e-22)
(0.388292 0.0435836 1.7485e-21)
(0.655811 -0.0624836 1.35723e-21)
(0.766794 -0.18077 -7.72296e-21)
(-0.0590063 0.0572116 -2.81679e-22)
(0.752926 -0.131647 -5.64553e-23)
(0.497903 -0.00460198 -8.05692e-21)
(0.446827 -0.00394252 -3.67832e-20)
(0.688726 0.00679991 -6.69089e-23)
(0.487623 0.0600044 -1.94797e-21)
(0.724224 -0.112588 -4.93754e-24)
(0.792022 0.189383 -1.32377e-20)
(0.446537 -0.0294532 -3.16674e-21)
(0.343712 -0.0158309 2.45324e-21)
(0.336856 -0.0100378 3.47596e-21)
(0.374309 0.0183684 -6.83937e-21)
(0.505845 0.0747212 -9.56075e-21)
(0.542772 0.0384259 1.36926e-20)
(0.438308 -0.00610897 -7.49838e-20)
(0.576694 -0.0850074 -2.38512e-21)
(0.730709 -0.130288 -4.0882e-23)
(0.474481 -0.0178094 -2.812e-21)
(0.788473 0.177255 8.42615e-22)
(0.671928 0.129801 6.22035e-21)
(0.536181 -0.0391196 -6.28068e-21)
(-0.0416263 -0.117306 7.18742e-21)
(0.532888 0.0842784 5.79066e-21)
(-0.0558495 0.0441409 2.74338e-20)
(-0.0337416 0.0978966 3.12369e-22)
(0.726619 -0.207643 5.47922e-21)
(0.333812 -0.00197192 -1.06661e-20)
(0.676951 0.021841 2.46541e-22)
(0.534448 0.0530676 -6.14076e-21)
(-0.0446292 0.126731 -5.58333e-21)
(0.677251 0.00819286 1.03854e-22)
(0.704193 -0.0354103 -7.42186e-23)
(0.751347 0.162797 -2.11198e-23)
(0.386939 0.0220749 2.14422e-21)
(0.293449 -0.0100482 -1.81811e-20)
(0.444565 -0.0392845 -9.77081e-21)
(0.291678 -0.0074218 1.70259e-20)
(0.798574 -0.157853 3.65934e-21)
(0.456946 0.0595197 -2.75891e-21)
(0.313495 -0.0468046 -7.50182e-22)
(0.429327 0.0128735 -1.9223e-20)
(-0.0277333 0.0130021 1.16729e-21)
(-0.0557032 -0.11948 2.96084e-21)
(-0.0558671 -0.0444906 5.62335e-22)
(0.541232 -0.203029 -1.57752e-21)
(-0.0258227 -0.0455319 -2.56418e-21)
(0.625024 -0.0756356 -2.29831e-22)
(-0.036689 0.107983 5.70996e-21)
(0.374213 -0.0113989 -3.3046e-21)
(0.47154 0.0973951 9.5404e-21)
(-0.0963722 -0.0263681 1.71451e-20)
(0.543478 0.0393077 -2.45741e-20)
(0.326366 0.139378 -6.46434e-21)
(0.00325401 0.0699191 2.94932e-21)
(0.296613 -0.0142645 -3.59526e-21)
(0.429881 -0.0354985 -5.98067e-21)
(0.0129229 -0.0624309 3.61095e-21)
(0.74056 -0.137232 9.29027e-22)
(0.495455 0.0739287 -1.49985e-20)
(0.731773 0.146548 6.47088e-21)
(0.864056 0.203656 8.35114e-22)
(0.818187 -0.164213 -1.5311e-21)
(0.373791 0.0208097 1.5789e-21)
(-0.0353834 0.0739271 2.99979e-22)
(0.541521 -0.203616 9.84007e-21)
(0.68343 0.13427 6.50393e-22)
(0.796411 0.18429 7.598e-21)
(0.754095 -0.143524 -2.52729e-21)
(0.768667 0.192897 3.22135e-23)
(0.700471 -0.00577823 -4.23726e-23)
(0.685679 -0.0336544 4.47095e-22)
(-0.114532 -0.00282213 3.50854e-21)
(0.335257 -0.0634012 6.19999e-21)
(0.614383 0.0954957 -2.02171e-21)
(0.723755 -0.194142 -2.00369e-20)
(0.506721 0.0836685 -1.24798e-21)
(-0.0702566 -0.024387 -8.25126e-22)
(0.593829 0.195665 -3.8425e-21)
(0.677315 0.0360364 5.85433e-22)
(0.661408 0.171917 6.83937e-21)
(-0.0208549 -0.014062 1.19858e-20)
(0.75753 -0.141356 2.9146e-22)
(0.340419 -0.0673938 -8.61335e-21)
(-0.0543385 -0.0874434 -1.0126e-20)
(0.388608 -0.0613776 -3.77534e-21)
(-0.0197906 -0.0898192 1.12858e-20)
(0.536897 -0.00759312 1.16908e-21)
(-0.0947487 -0.0175123 2.48338e-21)
(-0.0588643 -0.0963905 -3.02639e-20)
(0.339657 -0.0102813 6.25705e-21)
(0.437114 0.0115243 -1.37574e-21)
(0.777784 -0.150254 3.24125e-23)
(0.336232 0.0276856 -4.16707e-21)
(0.33577 0.0108059 1.12354e-20)
(0.748186 0.153231 2.35285e-21)
(0.516146 -0.0427523 1.22658e-20)
(-0.0651473 -0.0846412 -1.29465e-20)
(-0.0220593 -0.0697359 -2.85551e-20)
(-0.0735683 -0.0104963 5.83485e-21)
(0.656424 -0.0741241 -8.24918e-22)
(0.776277 -0.150758 3.64855e-22)
(0.746617 0.138787 -1.09655e-21)
(0.308617 0.00493438 -7.2647e-21)
(0.437917 -0.00325061 -1.73075e-20)
(0.678008 -0.00530554 1.88971e-22)
(0.671637 0.202438 8.2307e-21)
(0.463982 0.0040506 -5.54723e-21)
(0.521625 0.0574237 2.85391e-21)
(0.498678 -0.034928 -2.67857e-21)
(0.705278 -0.123391 -3.47148e-21)
(0.464877 -0.0204542 -1.05781e-20)
(-0.0446452 -0.121621 5.25048e-21)
(0.0853103 0.010015 -1.88779e-20)
(0.690805 -0.0242855 2.18467e-22)
(-0.0456043 -0.104967 -1.46705e-21)
(0.365009 -0.0722214 1.57438e-21)
(0.297168 -0.116997 2.57271e-20)
(0.762484 0.159452 -2.20377e-21)
(0.755486 0.163775 1.04874e-21)
(-0.00196633 0.0700271 2.4637e-21)
(-0.0549777 -0.111061 -1.1258e-20)
(0.509742 -0.183974 5.69394e-22)
(0.326223 -0.0776496 5.08204e-21)
(0.480145 -0.156524 1.13587e-20)
(0.467018 -0.00377302 1.14774e-21)
(0.452658 -0.010095 7.69211e-22)
(0.714775 -0.0971996 -1.61617e-23)
(0.345582 0.0147693 7.98198e-21)
(0.523721 -0.0370672 3.81365e-21)
(-0.0637683 0.0835099 2.61335e-20)
(0.70018 0.00491942 8.67517e-23)
(0.71023 -0.146925 -1.44028e-24)
(0.696344 -0.0408551 -9.82246e-24)
(-0.0548004 -0.134913 -1.32821e-20)
(0.291767 -0.0119175 9.94657e-21)
(0.681279 0.0736516 5.76945e-23)
(0.284908 -0.0236128 -4.2273e-21)
(0.404332 0.0159588 -1.66358e-20)
(0.305358 0.0103479 1.20727e-20)
(0.467956 -0.012025 -1.62043e-22)
(0.673467 0.20514 2.28496e-20)
(0.190367 -0.0432529 -1.15588e-20)
(0.373637 -0.0613278 5.0678e-21)
(0.715876 0.191024 -9.94304e-21)
(0.594448 0.106097 2.44362e-21)
(0.609111 -0.162765 5.80128e-21)
(0.519881 -0.0570534 -2.01609e-21)
(0.677837 -0.209303 -2.84189e-21)
(0.413304 -0.036523 -1.53071e-20)
(0.488036 -0.0482521 -4.01952e-21)
(0.613284 -0.00631398 2.65054e-21)
(0.517583 -0.158475 7.95547e-22)
(-0.0551313 -0.111471 3.28279e-21)
(0.383899 -0.0615907 4.92182e-21)
(0.766361 -0.203142 -1.02062e-21)
(-0.0904648 0.0171297 -8.80597e-22)
(0.745742 -0.136841 2.4765e-22)
(0.465888 -0.0257795 1.22918e-22)
(0.375603 -0.0545376 5.76821e-21)
(0.712112 -0.0803339 1.13536e-22)
(-0.0455561 0.110982 -4.61161e-21)
(0.505836 -0.0318463 -4.77585e-21)
(0.282249 -0.00989029 -1.81533e-20)
(0.735177 0.132262 -4.72678e-23)
(-0.00772168 -0.0542962 5.72068e-21)
(0.722846 -0.128963 2.09556e-21)
(0.208964 -0.0906955 -6.53191e-21)
(0.756839 0.166864 3.35447e-21)
(-0.112143 0.00525666 -4.04663e-21)
(0.404633 -0.0473232 3.75918e-21)
(0.43716 -0.0252033 1.19519e-20)
(0.786534 -0.152949 6.71765e-23)
(0.634454 -0.0122972 -8.07864e-22)
(0.387375 -0.0458615 3.21335e-21)
(0.342934 -0.0356612 1.98981e-22)
(0.773032 0.1861 6.5136e-21)
(0.429555 -0.00550435 -1.01042e-20)
(0.417116 0.0148391 -1.32751e-20)
(0.409161 -0.00601625 8.52633e-22)
(0.312592 -0.000716229 -6.34711e-21)
(-0.0606627 -0.0307218 3.10189e-21)
(-0.0382314 0.0996326 1.74849e-21)
(0.305636 -0.0129709 6.46001e-21)
(-0.00111186 0.0571192 3.18576e-20)
(0.698238 -0.107986 2.50493e-22)
(0.73504 0.153247 -2.43822e-22)
(0.703228 0.131336 -5.32024e-22)
(0.406187 -0.0471373 -7.24987e-21)
(0.696522 -0.113573 2.73679e-22)
(-0.0488545 -0.0792506 -2.29644e-21)
(-0.0317693 0.0791346 1.88858e-21)
(-0.0631892 -0.0581846 -8.71597e-21)
(0.442988 0.000151249 -8.10035e-22)
(0.378406 -0.0477462 -4.55736e-21)
(0.645526 -0.0941511 -3.02816e-21)
(0.171244 -0.0346577 -6.67683e-21)
(0.443555 -0.00448624 2.96867e-21)
(-0.055343 0.0412663 1.30941e-20)
(-0.0896084 0.029896 6.49064e-22)
(0.568676 0.202724 -2.17253e-20)
(0.692529 -0.0613855 6.11636e-24)
(0.564538 -0.0850102 -6.35366e-21)
(0.344392 -0.0458124 7.21379e-21)
(0.335502 -0.0578903 -4.20654e-21)
(-0.0464656 0.121922 8.93903e-21)
(0.404355 0.0166872 7.9218e-22)
(0.514131 -0.0423847 1.70692e-21)
(-0.0396346 -0.0383651 1.87605e-21)
(-0.0452206 -0.122872 -4.31642e-21)
(0.425649 -0.00392022 -8.83722e-21)
(0.298469 -0.0217407 -9.26945e-22)
(-0.0490971 0.115297 1.27638e-20)
(0.528503 -0.171162 -5.88616e-23)
(0.557056 -0.0692737 2.05159e-21)
(0.783152 0.188778 -3.84638e-21)
(-0.0431102 0.0621472 -1.87851e-20)
(0.411144 -0.0416872 -1.37065e-20)
(0.287083 -0.00142552 1.60809e-21)
(0.736256 -0.208116 1.21007e-20)
(-0.0615747 -0.122128 -5.91423e-21)
(0.687164 -0.103944 -1.06864e-21)
(0.680334 0.111007 -3.0201e-22)
(0.378606 -0.073131 7.72092e-21)
(0.608109 -0.0292741 6.10423e-22)
(-0.0330478 -0.00497232 -6.9677e-21)
(0.666178 -0.00528278 -2.12041e-22)
(0.826822 0.188511 5.61018e-22)
(0.408323 0.0346941 4.17981e-21)
(-0.0364976 -0.108301 -1.05498e-20)
(0.734118 -0.134909 1.12543e-21)
(-0.0820038 -0.0210809 7.89635e-21)
(0.703745 0.145955 -2.98397e-22)
(0.0495202 0.0863292 2.22001e-20)
(-0.0260779 0.0302599 6.23375e-21)
(0.455924 -0.00226757 1.10258e-20)
(-0.0906934 -0.0194498 -1.31342e-20)
(0.408503 0.0271 -9.11182e-21)
(-0.0443264 0.102187 2.51655e-21)
(0.43557 -0.0336037 -1.02221e-21)
(0.671492 -0.0816451 1.4337e-21)
(0.80522 -0.158688 -1.27916e-21)
(-0.102401 0.015756 1.88383e-21)
(0.75319 -0.205098 2.91395e-21)
(0.38628 -0.0318461 3.76946e-21)
(0.632681 0.049935 2.75557e-22)
(-0.0555189 0.0607519 -3.58315e-21)
(0.522935 0.0600861 -3.74938e-22)
(0.771282 -0.194639 -4.48378e-21)
(-0.0512169 0.094723 1.82085e-21)
(0.153676 -0.0293406 4.38917e-20)
(-0.0636318 0.0666819 6.56074e-22)
(0.49589 -0.00198859 -3.42843e-21)
(0.704551 -0.120571 -2.20239e-21)
(-0.0160376 0.00177454 -1.45754e-20)
(0.592761 0.00466328 1.30016e-21)
(-0.0101274 0.0696606 -3.93799e-21)
(0.434904 -0.00179764 2.30211e-20)
(0.412415 -0.0315359 -1.43264e-22)
(0.769469 0.171057 2.8755e-22)
(-0.118592 0.0039326 -2.82466e-21)
(0.358331 -0.127475 -1.03026e-21)
(0.091005 -0.0850312 3.27834e-21)
(-0.095451 -0.0139187 -1.4442e-20)
(0.672876 -0.0254579 6.41876e-22)
(-0.0330402 -0.0316778 -3.453e-21)
(-0.0503549 -0.0127963 -4.01405e-22)
(0.71667 0.144356 6.09865e-22)
(0.430624 -0.00675163 -9.9489e-21)
(0.732091 0.152904 -8.32696e-23)
(-0.0658895 -0.0688493 5.89478e-21)
(0.671885 -0.0973008 6.8815e-22)
(-0.0220895 -0.0451782 3.29208e-21)
(0.58756 0.068829 1.28134e-20)
(-0.0430055 0.00381836 2.28325e-20)
(0.671592 0.111073 4.49163e-22)
(-0.0676844 -0.0315034 8.34756e-21)
(0.401558 0.0143385 7.34247e-22)
(0.650502 0.0223451 2.47988e-22)
(0.0600152 -0.033296 -1.48345e-20)
(0.205882 -0.106027 -3.30106e-21)
(0.633312 -0.0918955 2.83089e-21)
(-0.0873456 0.0398552 -3.49361e-22)
(0.709373 -0.21012 5.04048e-21)
(-0.112043 0.0138415 2.32453e-21)
(-0.0415705 0.0354915 -7.96845e-21)
(0.0164103 -0.0640055 2.84387e-20)
(-0.0605294 0.077429 -4.60352e-21)
(-0.0999591 0.0257301 3.09051e-22)
(0.665459 0.00879687 7.415e-23)
(0.119736 -0.0107619 1.63541e-20)
(0.661551 -0.0859093 -1.45256e-22)
(0.663042 0.036572 1.30374e-23)
(-0.0517692 -0.124136 -6.22203e-21)
(0.49765 -0.154717 1.74182e-20)
(0.732895 -0.208366 7.7702e-21)
(-0.0279757 -0.102243 1.8924e-20)
(-0.111786 0.00547204 6.98677e-20)
(0.699865 0.134945 5.04832e-22)
(-0.0943539 -0.00566279 -4.01899e-20)
(0.0134062 -0.0560747 -1.37889e-20)
(-0.0526308 -0.0285251 -2.4836e-21)
(0.338933 0.00886382 6.09328e-23)
(-0.0486581 0.0729227 4.00477e-21)
(-0.0478717 0.00324106 -9.79953e-21)
(0.578987 -0.158545 1.11407e-20)
(0.372411 0.000594291 1.13944e-21)
(0.726783 0.130824 -1.30574e-22)
(0.369033 0.183658 1.61067e-20)
(-0.0544871 -0.131015 1.23541e-20)
(0.0725746 -0.0266559 1.89711e-21)
(0.433373 -0.0069125 -4.06748e-20)
(-0.0503924 0.1028 4.80817e-21)
(0.520958 -0.0586959 1.46133e-21)
(-0.000416105 0.0376629 8.68286e-21)
(-0.046058 0.117314 -6.70936e-21)
(0.23686 -0.0655126 -1.72942e-20)
(0.491537 -0.0340176 3.32911e-21)
(0.735558 -0.207719 -6.5106e-21)
(0.706726 0.10551 2.08884e-22)
(-0.124959 0.00667785 -1.76315e-20)
(0.298113 -0.0843078 4.48329e-21)
(0.125768 0.0158653 -7.54537e-22)
(0.351569 -0.0400145 -3.63843e-20)
(0.649541 -0.208993 2.31566e-20)
(0.395393 0.0111989 7.34964e-21)
(-0.0568091 -0.0699859 7.69589e-21)
(0.591009 0.020116 -1.16165e-21)
(0.127108 0.00665522 -5.06929e-21)
(-0.0398905 -0.046368 -2.22892e-21)
(0.119828 0.118476 -9.48218e-21)
(0.332988 -0.0404769 1.56742e-20)
(0.327506 0.0223131 3.1122e-21)
(-0.121485 0.00242687 9.86801e-21)
(0.0794674 -0.0871696 -1.17462e-21)
(0.211769 -0.0543209 -1.08476e-20)
(0.439215 -0.00470822 5.22688e-20)
(0.797013 0.176069 9.14713e-23)
(0.755859 -0.13952 2.5241e-21)
(-0.0073986 0.0306523 -5.05471e-21)
(0.605874 0.0369521 1.26797e-21)
(-0.0618339 -0.0835492 5.20209e-21)
(-0.120611 0.00364529 8.36486e-21)
(0.70489 -0.208167 -2.16776e-21)
(0.074698 0.107091 1.30448e-20)
(0.401735 0.116791 -4.71265e-21)
(-0.051799 0.0915908 1.81906e-20)
(-0.0635202 -0.0532156 -8.91705e-21)
(-0.0244288 0.0494824 1.53291e-20)
(0.741741 0.154304 -2.52749e-22)
(0.284562 -0.00695667 -2.5311e-22)
(0.698894 0.143056 -3.12608e-22)
(0.707402 0.201559 -3.80831e-21)
(-0.0985868 -0.0237945 3.51066e-21)
(0.403209 -0.152354 -7.12865e-21)
(0.794629 0.181578 1.03423e-22)
(0.461508 -0.00663206 -1.03331e-20)
(0.389496 0.0159207 -1.2519e-20)
(-0.0365416 0.103377 1.01068e-20)
(0.703503 -0.0857288 -2.50703e-24)
(0.216568 0.0657861 -2.50453e-21)
(0.527474 -0.0158045 5.64086e-22)
(-0.0484148 -0.124365 6.10546e-21)
(0.800202 0.182333 -7.76961e-22)
(0.281644 -0.00995237 2.78834e-21)
(-0.0530525 -0.101433 1.53814e-20)
(0.101812 -0.018561 -1.19197e-20)
(0.69827 0.0391399 -3.93628e-24)
(0.596976 -0.0132402 -3.99982e-21)
(-0.0535512 0.0846774 -2.92992e-21)
(0.360947 0.179748 -1.12021e-20)
(0.0291521 -0.0760809 -3.26119e-21)
(0.293437 -0.0122033 8.11735e-21)
(0.0285644 -0.041647 8.33637e-21)
(0.741233 -0.200619 -6.49948e-21)
(0.576507 0.00308876 -1.74403e-22)
(0.550216 -0.0737615 1.19683e-20)
(0.774837 -0.146678 -7.41117e-22)
(0.813167 0.182582 1.29623e-23)
(0.681656 -0.0168231 1.35577e-22)
(0.624399 -0.0423354 4.51034e-21)
(-0.116256 -0.00309098 -5.89645e-21)
(0.375183 -0.0423288 -8.17089e-21)
(-0.103648 -0.0155848 -1.23562e-20)
(0.715787 -0.164071 -1.59387e-21)
(0.303984 0.0151604 -1.85505e-21)
(0.0324935 -0.0381528 3.13715e-20)
(-0.00976095 -0.0530488 7.48423e-21)
(-0.0445582 0.0193913 7.21944e-21)
(-0.045269 0.114734 6.09843e-21)
(0.409496 -0.0272606 -1.82311e-20)
(0.773035 -0.15015 -1.09463e-21)
(0.374796 0.0204034 -5.13557e-21)
(0.574652 0.0194639 -9.42942e-22)
(0.229999 0.149672 -1.11658e-20)
(0.00125366 0.0390271 3.25755e-20)
(-0.077781 0.0482824 2.38482e-22)
(0.185898 -0.127027 -6.07521e-21)
(0.437638 0.14062 6.59461e-21)
(0.759126 0.190563 6.56662e-21)
(0.704263 -0.0578747 -3.46456e-23)
(0.0760294 -0.000927091 1.81037e-20)
(-0.0292621 -0.0836283 9.39887e-22)
(0.0696597 0.0135972 -2.0272e-20)
(0.755435 -0.207127 -5.88419e-21)
(0.841801 0.19461 7.48392e-22)
(0.771175 0.176174 5.66825e-21)
(0.208371 0.0447723 1.0231e-20)
(0.478571 0.034453 -1.12443e-20)
(0.470107 -0.200669 -7.39953e-21)
(0.125367 -0.0854409 9.59309e-21)
(0.423033 -0.00883326 -6.59918e-21)
(0.693664 0.0931579 -6.06578e-22)
(0.504304 0.00774081 2.10331e-21)
(0.401153 0.112899 4.85738e-21)
(0.403445 0.0555911 -3.82211e-21)
(0.735063 -0.126203 3.18143e-22)
(-0.124593 0.00627302 5.56247e-21)
(0.0128427 0.0477248 8.03003e-21)
(0.547042 0.0539803 3.41713e-20)
(0.421614 -0.140443 -3.50635e-21)
(-0.0044304 0.0632536 1.11366e-20)
(0.299347 -0.136098 8.10596e-21)
(0.38949 -0.157513 -1.59789e-20)
(0.681075 -0.106148 3.67044e-22)
(0.319819 -0.0474594 -1.48844e-21)
(0.161852 0.0163548 -2.18692e-20)
(0.338754 -0.0340301 -3.16781e-20)
(0.482178 0.0783248 -9.53974e-21)
(0.672296 -0.110409 2.54547e-21)
(0.694177 0.0294801 3.67388e-23)
(0.418916 0.00369269 -7.06171e-21)
(-0.0216198 -0.0975667 4.29115e-21)
(0.238472 -0.134375 3.42044e-21)
(0.748598 0.197055 -1.43445e-22)
(0.245794 0.0749872 -1.0654e-20)
(-0.0180568 0.0566082 -2.19229e-20)
(0.482404 -0.170217 -3.21953e-21)
(-0.00690574 0.0545519 -6.19907e-21)
(0.0753314 -0.0245158 -6.93712e-21)
(0.46441 -0.0231411 -7.09589e-21)
(0.077158 0.0088409 -1.26085e-20)
(0.679547 0.0879871 4.83261e-22)
(0.037888 -0.057443 -7.04011e-21)
(-0.121036 0.00823037 2.85937e-21)
(0.552576 -0.0690736 -1.14602e-21)
(0.248911 -0.0831509 -9.23836e-21)
(0.600742 0.0465387 2.48061e-21)
(0.838573 0.195164 -2.52287e-21)
(0.16571 0.0236763 -1.47678e-21)
(0.327742 0.126349 1.75573e-21)
(0.446719 -0.00264833 4.50516e-21)
(-0.0676471 0.0664657 1.17991e-20)
(0.622645 -0.0795441 1.93449e-21)
(0.585355 -0.107301 -3.1312e-21)
(-0.114158 3.40483e-05 -4.62903e-20)
(-0.0637521 -0.105954 1.80618e-20)
(0.343327 -0.115159 -2.42706e-21)
(0.635085 0.0850581 -7.31122e-22)
(0.679045 -0.0454835 4.68828e-22)
(0.684236 0.122846 -6.0335e-22)
(-0.0365145 -0.0215846 2.5854e-21)
(0.781123 0.168083 -2.12259e-22)
(0.692427 -0.205399 -2.42175e-21)
(0.553526 0.0875875 1.25369e-21)
(0.692814 -0.0722779 -1.8628e-22)
(-0.0425467 0.0139495 -2.90866e-21)
(0.0272708 0.0449028 9.70841e-21)
(0.0542582 0.0201331 -2.36775e-20)
(0.442041 -0.0475596 4.66524e-21)
(0.596562 -0.0829202 8.8061e-22)
(-0.0439433 0.0909074 -4.87315e-21)
(0.56249 -0.0557733 4.18336e-21)
(0.35392 -0.0691726 2.95689e-21)
(0.185296 0.0167059 9.7983e-22)
(0.0826571 -0.0318525 -1.14558e-20)
(-0.067756 -0.0175128 -6.27773e-21)
(0.420931 -0.0144562 -2.34864e-20)
(0.383763 -0.0361748 -6.6529e-21)
(0.700739 0.196903 -5.67899e-21)
(0.662291 -0.0182803 -1.23303e-21)
(0.686743 0.053596 2.82851e-22)
(0.590502 0.203223 -1.77655e-21)
(0.247616 -0.0746888 -8.16574e-21)
(0.807105 0.185105 3.3519e-22)
(0.464493 0.135178 1.3475e-20)
(-0.053708 0.0926865 6.15696e-21)
(0.12294 0.0029295 -8.23219e-21)
(-0.0305481 0.0383826 -9.10604e-21)
(0.242812 0.0167758 3.04888e-20)
(0.653099 -0.102859 -6.29293e-21)
(0.453875 -0.193008 -3.66929e-21)
(0.759005 -0.143941 -3.6888e-22)
(0.612915 0.0539434 -2.18922e-21)
(0.638078 -0.182192 7.43042e-21)
(-0.0457886 0.125773 -1.19813e-20)
(0.293915 -0.0886183 1.51317e-21)
(0.213474 -0.00630472 -7.1638e-21)
(-0.063331 0.0229711 1.37413e-20)
(-0.0988138 -0.00739866 1.31536e-20)
(0.42677 -0.00463022 2.2841e-20)
(0.471187 0.019638 2.53794e-21)
(0.516993 -0.0225303 -3.01303e-24)
(0.267967 -0.0794781 -1.86435e-20)
(-0.0846457 0.0104848 9.92845e-21)
(0.2695 0.0627443 -1.35245e-20)
(-0.0511781 -0.135319 2.29801e-20)
(-0.0641797 -0.00486766 8.44505e-21)
(0.720146 0.143482 4.81349e-22)
(0.763751 0.160663 -2.27745e-22)
(0.0428596 -0.035192 2.73128e-21)
(0.678352 -0.201318 -5.61902e-21)
(0.66202 -0.203209 2.81339e-21)
(0.353284 0.0352129 -2.00739e-21)
(-0.0386482 -0.116785 1.82664e-20)
(0.588334 -0.0718146 -2.82143e-21)
(0.339217 -0.0440338 1.15196e-20)
(0.0804254 -0.0179147 1.1246e-20)
(0.748152 0.153972 -5.43801e-22)
(0.734259 -0.181682 2.99499e-21)
(0.760036 -0.197015 -3.46913e-21)
(0.0506375 0.0294164 -2.7851e-20)
(0.549844 -0.0731946 6.83189e-23)
(-0.0425469 0.116314 -3.299e-21)
(-0.0431325 -0.109395 9.99596e-22)
(0.568061 -0.179386 -2.9114e-21)
(0.43275 -0.0283922 2.17362e-20)
(0.614706 0.078493 -1.07706e-20)
(0.354667 -0.0574976 1.63744e-21)
(0.460087 0.0100915 -6.65437e-23)
(0.600629 -0.066867 2.64768e-21)
(0.133356 0.00717147 1.66427e-20)
(0.299144 -0.00909037 -4.24991e-20)
(-0.10615 0.00261765 -1.5395e-20)
(0.598187 0.204156 3.36695e-21)
(0.616227 -0.0799981 7.97954e-22)
(0.564548 0.0556309 1.16357e-20)
(0.553945 -0.0736621 -1.74566e-21)
(0.394814 0.0173337 7.07183e-22)
(0.528272 -0.0602835 -5.29933e-21)
(0.421384 -0.0130084 6.83935e-21)
(0.438595 -0.0407228 -1.36465e-20)
(0.531015 -0.0442385 9.76524e-21)
(0.552576 0.0945938 7.60896e-21)
(0.539411 -0.0632016 1.55425e-21)
(0.663863 0.0224536 -5.7703e-22)
(0.234248 0.0987722 -2.48757e-21)
(0.470037 -0.0461569 -6.18446e-21)
(-0.077502 0.0462689 -4.24894e-21)
(0.575381 0.118442 -6.9882e-21)
(0.299188 -0.00982891 7.09218e-21)
(0.322608 -0.10005 -8.44315e-21)
(0.592644 0.0346652 -1.3022e-23)
(0.585016 0.0838658 2.9055e-21)
(-0.101893 0.00482602 1.56408e-21)
(-0.123609 0.00681457 -2.41468e-21)
(0.429246 -0.129632 -3.09139e-21)
(0.443426 -0.0163804 1.20434e-21)
(0.325066 0.0272844 4.24985e-21)
(0.00340192 -0.0384446 9.08534e-23)
(0.00419112 0.047736 5.81557e-22)
(0.738946 0.15686 -9.09921e-22)
(-0.0192274 0.0871957 -2.29922e-20)
(0.512071 0.0528296 -3.17217e-22)
(0.686972 -0.110711 1.96992e-23)
(0.719548 -0.181004 1.42869e-21)
(0.399699 -0.0157364 4.24641e-22)
(0.691236 0.121407 -1.55156e-21)
(0.439559 0.010384 1.77524e-20)
(0.391961 -0.0408367 -1.3954e-21)
(0.168566 0.0550966 -4.34265e-20)
(0.537032 0.152996 5.45195e-21)
(-0.0726003 -0.0540293 7.25598e-21)
(0.310034 0.00766986 7.68372e-21)
(0.636952 -0.0905104 8.05489e-22)
(0.689962 -0.00487785 -7.7077e-24)
(0.398245 0.0165943 5.80589e-21)
(0.63818 0.206083 4.28715e-21)
(0.13508 -0.0230326 9.88614e-21)
(0.28333 -0.00168061 -9.72843e-21)
(0.66513 0.125983 -2.66643e-22)
(0.593394 -0.08094 -3.44697e-22)
(-0.0731646 -0.038882 -9.8471e-21)
(0.628036 -0.0942055 4.67431e-21)
(0.621262 -0.0999178 -4.51357e-21)
(0.710659 0.195454 7.65573e-22)
(0.547485 -0.0672696 -2.56419e-21)
(0.421263 -0.00835315 -1.48963e-20)
(-0.0618892 -0.0895435 -3.6552e-21)
(0.276027 -0.00580494 1.39143e-20)
(0.737226 -0.132313 -3.67644e-21)
(0.597036 -0.0736892 -1.37105e-21)
(0.32897 -0.00996587 -6.96698e-21)
(0.712391 0.0580605 1.42894e-22)
(0.543162 -0.210056 3.72958e-21)
(0.537479 -0.0528845 -4.43065e-21)
(0.344856 -0.00680533 -2.13411e-21)
(0.73962 0.196558 -5.12764e-21)
(0.136815 -0.096143 -1.05093e-21)
(0.472493 -0.0133026 -1.64677e-21)
(-0.0671776 0.0549522 -9.21686e-22)
(0.326617 0.00123488 -1.25533e-20)
(0.759311 -0.186096 -1.16298e-21)
(0.407293 -0.0398434 2.27844e-20)
(0.20784 -0.0286328 3.42683e-20)
(0.483805 0.0235217 -7.9711e-21)
(0.521057 -0.128153 -6.20129e-21)
(0.363669 0.0127864 -3.23958e-21)
(0.163076 -0.0372699 2.4503e-20)
(0.52219 0.0290242 1.76998e-20)
(0.40212 -0.00536962 -3.51616e-20)
(0.454097 0.026037 1.25842e-20)
(0.52277 0.085386 1.07244e-20)
(0.561344 -0.0610695 -1.19439e-21)
(0.355114 -0.0227665 1.47289e-20)
(-0.0505084 -0.0980545 -2.80346e-21)
(0.298129 -0.0282045 1.84221e-20)
(0.395381 -0.0424021 -2.95353e-21)
(0.45299 0.0536887 -1.46544e-20)
(0.390736 -0.0265438 1.22238e-20)
(0.389064 0.022164 -1.51482e-21)
(0.284994 -0.0284127 -6.12737e-20)
(0.43574 -0.00481985 -2.74002e-22)
(0.417735 0.0135973 6.8242e-21)
(0.498236 0.0663043 -9.74065e-22)
(0.418828 -0.0367327 1.3962e-21)
(0.145135 0.0419267 1.1921e-20)
(0.565871 -0.0456276 -9.47055e-22)
(0.68787 0.0383131 -8.40433e-22)
(0.71093 -0.21037 1.57774e-20)
(0.507012 0.0308835 5.29849e-21)
(0.441174 0.00834338 5.2586e-21)
(0.623711 -0.0855631 1.59687e-21)
(0.40692 -0.0236883 -1.0478e-20)
(0.417281 -0.0992028 -1.64656e-21)
(0.369714 -0.0419559 -1.33971e-20)
(0.499267 -0.0184219 3.05326e-21)
(0.492073 0.0372387 -2.19995e-22)
(0.516564 -0.0323151 -1.38293e-20)
(0.454062 -0.0123145 7.27221e-21)
(0.532996 -0.0555512 -3.47863e-21)
(0.533803 0.0670869 1.97813e-21)
(0.468126 -0.0152393 -7.97091e-22)
(0.577496 -0.195021 -9.71843e-22)
(0.504374 0.0441586 -1.85533e-21)
(0.634636 0.0344211 7.89155e-22)
(0.395873 -0.00946576 -9.18542e-21)
(-0.0797582 0.00278122 9.75927e-21)
(0.00994578 -0.0702611 -3.56825e-20)
(0.672362 -0.20102 5.32769e-21)
(0.247771 0.0537829 -6.43517e-23)
(0.469485 -0.0198636 2.67749e-21)
(0.13384 -0.0262271 2.26129e-20)
(0.425716 -0.0179234 -2.87731e-21)
(0.365623 -0.0488687 -2.01315e-21)
(0.350418 -0.0671379 8.68854e-21)
(0.329681 -0.0569706 -7.97471e-21)
(0.46668 0.0434075 5.69957e-21)
(0.333095 0.0114665 -2.68544e-21)
(0.647542 -0.095156 -4.66565e-21)
(0.443595 -0.0100156 -1.94461e-21)
(0.404158 0.0197431 1.30933e-20)
(-0.0218384 -0.0116441 2.25178e-20)
(0.466913 -3.55159e-05 -4.13505e-21)
(0.413819 0.0151384 -1.7964e-21)
(0.400535 -0.022058 -1.75089e-20)
(0.437528 0.00245414 1.18029e-21)
(0.408504 -0.0175755 -4.78204e-22)
(0.397458 -0.0224106 2.05042e-20)
(0.416456 -0.00836219 2.54131e-20)
(0.386888 -0.0264828 -8.76564e-21)
(0.405953 -0.00763563 2.47187e-20)
(0.430947 0.00378657 1.41204e-20)
(0.325834 -0.0609778 -1.84717e-20)
(0.450142 0.00177831 -3.13998e-20)
(0.366779 -0.0286447 2.00795e-20)
(0.366152 0.0370111 -6.65796e-21)
(0.350393 -0.0318973 -3.66309e-20)
(0.322325 -0.0595724 5.58117e-21)
(0.4616 -0.00924474 -1.28013e-20)
(0.390278 0.00703007 -4.59763e-21)
(0.325218 -0.028216 6.08644e-20)
(0.438206 -0.00965278 -2.41349e-20)
(0.463661 -0.0167701 4.04237e-21)
(0.295799 -0.028401 2.67998e-20)
(0.320079 -0.0163495 -6.87395e-21)
(0.405935 -0.0179964 1.47027e-20)
(0.414896 -0.0140334 3.908e-21)
(0.420836 -0.0119115 4.99282e-21)
(0.422047 -0.0100983 -2.83153e-20)
(0.419218 -0.00911322 -1.95756e-20)
(0.394183 -0.0223297 -2.5212e-20)
(0.412588 -0.0101129 -2.43471e-20)
(0.382801 -0.0252546 -1.91403e-20)
(0.444938 0.00375656 8.74283e-21)
(0.359465 -0.0272604 -2.34327e-21)
(0.423496 0.00479177 -1.3087e-21)
(0.343624 -0.029572 -1.84748e-20)
(0.319182 -0.000839048 4.9538e-21)
(0.325524 0.00580831 1.84302e-20)
(0.314669 -0.0260529 -4.61605e-20)
(0.277992 -0.0224335 7.19319e-20)
(0.28812 -0.0221645 -3.01181e-20)
(0.395105 0.00274003 -5.7413e-21)
(0.363503 0.0103268 1.72954e-21)
(0.0207385 -0.0466683 -1.89519e-20)
(0.676937 -0.111733 9.71949e-22)
(0.337563 -0.0204831 2.11882e-20)
(0.349217 -0.00674344 -8.5784e-21)
(0.271641 -0.0175037 -5.88343e-20)
(0.638671 -0.0649458 -2.54088e-21)
(0.422903 -0.00385023 4.01254e-20)
(0.267384 -0.0133782 -1.05153e-20)
(0.413555 -0.0161013 1.8237e-20)
(0.418955 -0.0131721 3.43976e-21)
(0.37863 -0.0308739 4.22691e-20)
(0.26443 -0.00721253 9.54182e-21)
(0.368031 0.0176768 -3.97281e-21)
(0.479633 0.00307321 3.28015e-21)
(0.435468 0.0118077 -7.56782e-21)
(0.412116 0.0130941 -9.29406e-21)
(0.406762 -0.0188521 3.32634e-20)
(0.567386 -0.0737854 1.43576e-21)
(0.415622 -0.0116172 -5.51681e-21)
(0.27574 0.00369346 1.16095e-20)
(0.320902 -0.00955386 8.55529e-21)
(0.479254 -0.01007 3.54117e-21)
(0.39208 0.0392229 5.6681e-21)
(0.422076 -0.00875267 -1.35727e-22)
(0.311666 -0.0480963 3.02001e-20)
(0.36161 -0.0084726 -3.70667e-21)
(0.27186 -0.00622804 -4.65058e-21)
(0.610901 -0.0829041 8.00991e-22)
(0.495331 0.0842219 -5.96533e-21)
(0.792523 -0.155324 -7.78103e-22)
(0.290544 0.0117625 7.06925e-21)
(0.37123 -0.0493225 1.35842e-20)
(-0.00534339 0.0517439 -1.86108e-20)
(0.604154 -0.0845698 -3.10827e-21)
(0.284567 0.00840602 1.08989e-21)
(0.407784 -0.0121952 1.31165e-20)
(0.297002 0.0133108 -1.51893e-20)
(0.467186 0.0756972 -2.96459e-23)
(0.493708 0.0755872 -1.90806e-21)
(0.675832 -0.208468 -1.79653e-20)
(0.385156 0.0432813 2.54552e-21)
(0.787871 -0.152583 -7.80535e-22)
(0.458273 -0.0110348 6.91604e-21)
(0.356485 0.002158 1.73777e-21)
(0.2374 -0.0763828 4.2383e-21)
(0.450863 0.00516928 -2.10344e-20)
(0.437106 0.0054736 -3.26404e-20)
(0.420906 -0.00970642 -1.64867e-20)
(0.422077 -0.0110941 -3.9686e-20)
(0.423482 -0.0128871 6.33448e-20)
(0.355132 0.0318909 -4.16959e-21)
(0.390632 -0.0219367 5.65134e-20)
(0.403443 -0.0245966 -7.5218e-21)
(0.419714 -0.0157788 1.94433e-20)
(0.377019 -0.0249639 5.00833e-20)
(0.398061 -0.0494407 -7.28432e-21)
(0.333354 -0.0277701 2.18608e-21)
(0.499758 0.059893 -1.6432e-20)
(0.307196 -0.0288763 3.6656e-20)
(0.327856 0.0197971 -2.80504e-21)
(0.422335 -0.0104551 -1.481e-20)
(0.425382 -0.0101746 1.44234e-20)
(0.427958 -0.0083393 2.96915e-20)
(0.0280676 0.0924689 -1.5592e-20)
(0.416318 0.00575204 3.16906e-20)
(0.497665 0.0821884 1.40552e-21)
(0.44038 0.0216846 1.41726e-20)
(0.42834 -0.0290665 -7.11647e-21)
(0.313826 -0.0546373 2.64787e-20)
(0.280521 -0.0177548 2.7327e-21)
(0.339418 -0.0247719 8.92704e-21)
(-0.0500061 0.0526949 2.63822e-21)
(0.723568 0.150376 2.15807e-22)
(0.418907 0.00132811 -2.52967e-20)
(0.315615 0.0221354 -1.54775e-21)
(0.455597 0.0381982 -1.23623e-21)
(0.280175 -0.0171778 2.43575e-20)
(0.312922 0.023149 7.24445e-21)
(0.320857 0.0209056 1.30585e-20)
(0.267526 -0.0132929 6.44964e-20)
(0.339203 -0.0175378 -1.45533e-21)
(0.319865 0.0062151 -1.39919e-20)
(0.310026 -0.0156691 -8.70575e-21)
(0.282474 0.00774634 -8.57802e-21)
(0.345919 -0.0232704 6.40902e-21)
(0.341596 0.0736488 6.22392e-21)
(0.368583 -0.0362976 1.87558e-21)
(0.421624 -0.0255786 9.17424e-21)
(0.30833 -0.0410268 5.01707e-22)
(0.284186 -0.0295384 -1.72427e-20)
(0.359893 -0.0245389 4.11554e-21)
(0.429774 -0.015451 -2.64748e-20)
(0.401348 -0.0378157 1.65519e-21)
(0.429109 -0.0229234 -6.1152e-21)
(0.35919 -0.0555874 -3.32206e-21)
(0.346862 0.0248021 -9.00562e-21)
(0.496111 0.0829687 2.54765e-21)
(0.372895 0.0248815 1.13194e-21)
(0.330745 -0.0190697 1.57866e-21)
(0.520187 -0.0521581 -3.94164e-21)
(0.447766 0.00837602 4.10452e-20)
(0.43213 -0.010023 -8.95341e-21)
(0.36203 0.0133995 2.11137e-20)
(0.33838 0.027402 -1.15608e-20)
(0.384081 -0.0182365 1.19986e-20)
(0.00249414 0.0625721 9.64328e-21)
(0.406948 -0.0340581 -1.21537e-20)
(0.379569 -0.0738694 -4.14028e-21)
(0.400747 -0.0507084 2.45795e-21)
(0.581567 0.0740084 -5.35857e-22)
(0.51702 0.0261094 -1.34718e-21)
(0.402115 0.0171589 -1.10181e-20)
(0.428154 0.000208206 3.46844e-21)
(0.467292 -0.0140765 -5.29879e-23)
(0.667146 0.119377 1.38217e-21)
(0.391477 0.0219743 2.32138e-21)
(0.622773 0.0987347 -1.17971e-21)
(0.471048 -0.0300383 -2.95216e-21)
(0.601667 0.0868931 1.21515e-21)
(0.638661 0.106883 4.16841e-21)
(0.691664 0.129052 6.27511e-23)
(0.440304 -0.0350539 -6.86272e-22)
(0.388083 0.0223165 2.1536e-21)
(0.452307 -0.0150638 -2.65363e-21)
(0.492836 0.00645048 -2.09903e-21)
(0.409492 0.0159813 5.22241e-21)
(0.285765 0.00420382 -8.22982e-21)
(0.272007 -0.0107664 1.04387e-20)
(0.505146 -0.199336 -1.39725e-20)
(0.422845 -0.0119538 -2.2673e-20)
(0.664538 -0.101931 5.01556e-21)
(0.785794 0.17761 -5.0903e-22)
(0.347415 0.0369175 1.41187e-20)
(0.460115 0.00601401 5.63309e-21)
(0.418991 -0.0125425 1.64351e-21)
(0.432514 -0.0211554 -2.94899e-21)
(0.412903 -0.0144409 -5.89028e-21)
(0.324061 -0.0558548 9.53481e-21)
(0.392374 -0.0694047 -4.16842e-21)
(0.380519 -0.0734481 -8.88281e-22)
(0.396474 -0.0538134 -7.38128e-21)
(0.42465 -0.0363061 -8.26421e-21)
(0.352475 -0.0255121 -1.39095e-20)
(0.512179 0.0861933 5.90207e-21)
(0.336092 0.0182667 3.40675e-21)
(0.430099 -0.0391038 1.12654e-20)
(0.384165 0.019083 -6.3292e-21)
(0.707241 0.0366025 6.33788e-23)
(0.722668 -0.204868 -9.13074e-22)
(0.653316 0.00875411 9.17078e-22)