/*--------------------------------*- C++ -*----------------------------------*\
  =========                 |
  \\      /  F ield         | OpenFOAM: The Open Source CFD Toolbox
   \\    /   O peration     | Website:  https://openfoam.org
    \\  /    A nd           | Version:  10
     \\/     M anipulation  |
\*---------------------------------------------------------------------------*/
FoamFile
{
    format      ascii;
    class       volScalarField;
    location    "450";
    object      epsilon;
}
// * * * * * * * * * * * * * * * * * * * * * * * * * * * * * * * * * * * * * //

dimensions      [0 2 -3 0 0 0 0];

internalField   nonuniform List<scalar> 
23845
(
0.0379807
0.0558581
0.0642772
0.014944
0.0402036
0.00216046
0.0716866
0.0108522
0.00193498
0.026691
0.0202278
0.00182622
0.00421639
0.002057
0.11269
0.0149104
0.00626689
0.00745937
0.00548328
0.00288837
0.0337596
0.0179879
0.0294116
0.00199318
0.0256299
0.00197938
0.0510564
0.002583
0.010523
0.00295031
0.0167136
0.0235592
0.134351
0.00790822
0.00184556
0.00230001
0.0196854
0.00184947
0.0019191
0.00228469
0.0055956
0.00526587
0.00352111
0.00524071
0.00154785
0.00448806
0.0292806
0.0149717
0.0220082
0.0110358
0.014124
0.0521565
0.0268364
0.00236716
0.0227874
0.00598568
0.054629
0.0111414
0.0405892
0.0386119
0.0110077
0.00565923
0.0130722
0.0146292
0.00191951
0.00408799
0.0552063
0.00152639
0.00146223
0.006648
0.0105728
0.0490173
0.00246184
0.0983233
0.0018179
0.110422
0.00182545
0.00194903
0.0117266
0.0092389
0.0399917
0.0885713
0.0573304
0.0115713
0.072535
0.00186518
0.0764757
0.0281524
0.00186486
0.00854028
0.0137736
0.00759218
0.012044
0.00226845
0.0113713
0.012161
0.0053439
0.0163839
0.00174931
0.0323106
0.00642313
0.0592411
0.0454679
0.0155296
0.0152113
0.0120505
0.00221362
0.00170627
0.0496154
0.00517896
0.0179577
0.00187138
0.094269
0.0211054
0.0024142
0.0245235
0.00198277
0.0178042
0.0105164
0.0146248
0.00190267
0.0170054
0.00747444
0.025864
0.0631541
0.00212328
0.0108095
0.0111462
0.049077
0.0326555
0.0708659
0.0342989
0.0241217
0.00207529
0.00803153
0.0426036
0.0136535
0.00180696
0.0466504
0.00195737
0.0115934
0.00491535
0.00199884
0.00561666
0.0102525
0.00481858
0.0199922
0.0879091
0.0238861
0.0103314
0.127533
0.00311954
0.0658029
0.00291767
0.0901254
0.0156828
0.043493
0.00201565
0.0920382
0.011172
0.00916712
0.109189
0.0116614
0.00191933
0.00324504
0.0117931
0.00205246
0.0153702
0.00269614
0.00458075
0.00221265
0.0164639
0.00201169
0.0210683
0.00222982
0.0112486
0.00861948
0.0201722
0.00166558
0.00198597
0.0323279
0.0288913
0.0956146
0.0159124
0.0123342
0.00540717
0.00547948
0.011458
0.0106539
0.00515841
0.0133991
0.0021422
0.00233209
0.00234539
0.0102327
0.00214984
0.0143305
0.0114907
0.026594
0.0192252
0.0124029
0.00232763
0.0205479
0.0301569
0.0112462
0.0114897
0.0612819
0.00204785
0.0455307
0.00858139
0.00940057
0.0139699
0.00956311
0.00278648
0.0181256
0.0213559
0.0258954
0.00598021
0.0168359
0.0652659
0.00254501
0.104973
0.014533
0.0141453
0.00487465
0.123812
0.0134542
0.00217655
0.00227559
0.0062597
0.00213312
0.0195838
0.00189932
0.00169451
0.0403301
0.0103705
0.00192439
0.0150461
0.00244947
0.018572
0.0256123
0.0184026
0.0114644
0.0380181
0.0158545
0.0140858
0.00218392
0.00147389
0.0113211
0.107642
0.00407826
0.00198871
0.0138509
0.00375622
0.0918477
0.0132537
0.0183245
0.0122209
0.00240969
0.0021012
0.0321179
0.00203833
0.0106934
0.0174039
0.0159906
0.00218677
0.0113587
0.032167
0.0219235
0.0141153
0.00194855
0.0148938
0.0153133
0.00238568
0.0159528
0.00235803
0.0120832
0.00222645
0.0259924
0.0294245
0.0130306
0.00232924
0.0128678
0.0110649
0.00189812
0.0155089
0.021523
0.00237177
0.0112783
0.0966302
0.0112589
0.0175527
0.0136001
0.0120146
0.0112565
0.00187457
0.0207027
0.00223804
0.00189101
0.0109832
0.0980324
0.11634
0.0105325
0.0140024
0.00240177
0.0148996
0.0164975
0.014882
0.00614247
0.0126455
0.0157817
0.0621216
0.00505937
0.00223664
0.0370692
0.0112431
0.0178861
0.0258726
0.0130546
0.00278334
0.0178468
0.0146612
0.0350492
0.00285301
0.104254
0.00213861
0.0122881
0.0311956
0.0181894
0.00810189
0.0723478
0.011672
0.0135715
0.00202399
0.0190125
0.0162077
0.0226749
0.00730481
0.00463516
0.0116131
0.0190113
0.0286737
0.0181095
0.00180442
0.00164815
0.0306792
0.00201102
0.0121752
0.0120051
0.115488
0.0214643
0.0673985
0.0111001
0.0129066
0.0272462
0.00229792
0.00420115
0.00244576
0.097285
0.011163
0.0347106
0.00204209
0.0192342
0.00973125
0.0105371
0.00208913
0.024968
0.00238095
0.0107034
0.00192722
0.00495283
0.0138357
0.033536
0.00183379
0.00208588
0.0132427
0.0350915
0.0182585
0.00456505
0.0157197
0.0980324
0.00208722
0.0284305
0.00158823
0.00174268
0.00189733
0.00215991
0.0114629
0.0114077
0.0112003
0.0579979
0.00451903
0.0208245
0.0187572
0.0165132
0.0114908
0.0152519
0.00169069
0.00700487
0.0020641
0.0281447
0.0191377
0.0116155
0.022729
0.0489378
0.100801
0.00200223
0.0258891
0.0128699
0.0136719
0.119933
0.00161384
0.0807008
0.0275304
0.0470818
0.0415187
0.0234277
0.0142873
0.00209094
0.0240197
0.110017
0.00355418
0.00199964
0.0118196
0.0114736
0.0490255
0.100589
0.0187561
0.0263241
0.0325697
0.00220293
0.00750631
0.0293636
0.00698553
0.00389652
0.00204737
0.00182233
0.00523711
0.0109288
0.024217
0.111022
0.0808358
0.014305
0.0472728
0.0188734
0.0202492
0.00289142
0.0212482
0.00209362
0.016852
0.0115039
0.0026828
0.0693522
0.00204911
0.00168427
0.0260351
0.0388809
0.0323328
0.0114805
0.00240126
0.0481975
0.0133396
0.0131533
0.0356463
0.00223042
0.00201475
0.00238186
0.0187488
0.00187037
0.117252
0.00287282
0.00208236
0.0173553
0.0118573
0.0177917
0.0373981
0.00243826
0.0160975
0.00258262
0.00866608
0.0247388
0.0213315
0.0159274
0.0172522
0.0114024
0.0903515
0.00194383
0.00189198
0.0653212
0.0246017
0.0019289
0.0927935
0.012039
0.0224165
0.0114636
0.0263275
0.00212649
0.0386263
0.00182067
0.00205387
0.0708458
0.0122556
0.0334542
0.0247575
0.0118597
0.011848
0.0155821
0.00436433
0.00249932
0.0280594
0.0156351
0.0442289
0.0191765
0.016375
0.00234995
0.00192625
0.0200621
0.1267
0.10029
0.00452171
0.0255415
0.00254409
0.00799582
0.0235182
0.00202423
0.073557
0.0954516
0.0155834
0.030634
0.0112316
0.0104268
0.126358
0.0299793
0.030134
0.00678565
0.00450044
0.00245179
0.0211223
0.02613
0.0122478
0.0687026
0.00242646
0.0272239
0.0269552
0.00895416
0.0254938
0.0175703
0.00354544
0.0026812
0.00346108
0.00283322
0.00187204
0.0246956
0.00325829
0.0110289
0.0629981
0.00423882
0.0409762
0.0020359
0.0024843
0.011357
0.0121275
0.0434982
0.0029131
0.004342
0.0235718
0.0151719
0.0022268
0.0107897
0.0038816
0.00185486
0.0739691
0.00557919
0.0023256
0.0158735
0.0310043
0.0207883
0.0945669
0.011835
0.0278011
0.00202224
0.00184484
0.00945286
0.0774218
0.024866
0.00393337
0.00254593
0.00235919
0.0122125
0.00224532
0.0308092
0.121835
0.0453747
0.014082
0.0111642
0.00420461
0.00172987
0.00249604
0.00714239
0.00186626
0.0494224
0.00274264
0.0257968
0.102331
0.0200359
0.0297104
0.012441
0.026921
0.0802683
0.0148771
0.0249587
0.0460089
0.0558056
0.0302808
0.0317416
0.0469964
0.0247415
0.0444565
0.00310613
0.00265248
0.0268599
0.0105093
0.0265769
0.013831
0.0490345
0.00995991
0.00516729
0.00554762
0.00367303
0.0124405
0.00408624
0.00376276
0.0244542
0.00245776
0.00185239
0.103439
0.0473921
0.0161106
0.00208322
0.0138311
0.041355
0.0106213
0.00255435
0.00411491
0.034727
0.0277608
0.0345687
0.00364275
0.0282082
0.0637244
0.00234494
0.00194211
0.0237018
0.0125994
0.0124218
0.141123
0.0456234
0.0243726
0.0167457
0.0190356
0.0111284
0.00733269
0.00896899
0.0484906
0.00791067
0.00203078
0.00355331
0.0353091
0.0179508
0.0254104
0.0114584
0.0110261
0.0180303
0.0119911
0.010321
0.0207263
0.00938724
0.0230666
0.0167986
0.00861681
0.0208435
0.00799425
0.00474187
0.00734113
0.00830982
0.0309
0.00561213
0.00642517
0.0254917
0.0268427
0.00574296
0.00499651
0.0112995
0.0128999
0.0147105
0.0173913
0.0196088
0.00978132
0.021799
0.00888899
0.0195765
0.00760177
0.0155673
0.00703521
0.00729787
0.0077863
0.00611459
0.00524023
0.00546798
0.0045514
0.00567331
0.019304
0.00215245
0.00483519
0.00605101
0.005004
0.00223867
0.0150839
0.00474516
0.0135191
0.0153302
0.0090918
0.00444706
0.00549472
0.00243477
0.016311
0.0125653
0.0248636
0.00260849
0.0127136
0.00403039
0.00684143
0.00256768
0.00496845
0.0204103
0.00734586
0.0252501
0.00459091
0.00246218
0.00353917
0.00161944
0.00381026
0.0118006
0.0111725
0.00232783
0.00419414
0.023176
0.00365409
0.00369355
0.00306918
0.0819562
0.00461309
0.00155918
0.0293466
0.00585704
0.0224373
0.0208354
0.0180933
0.0184742
0.0161998
0.0219434
0.00479874
0.00939804
0.0130429
0.0167326
0.00846513
0.0124595
0.00668491
0.0544997
0.00600921
0.00329765
0.018797
0.0169532
0.0233106
0.0192077
0.0145198
0.00328523
0.0407695
0.0182156
0.00788199
0.0052656
0.00691284
0.0150784
0.00239264
0.0148538
0.00355079
0.00465795
0.0052552
0.00374506
0.00340871
0.00487742
0.00500471
0.00750279
0.00455957
0.00393854
0.0046341
0.0384225
0.00901909
0.00331218
0.00660361
0.00567786
0.00464259
0.0240161
0.0144954
0.0193076
0.0108699
0.0050357
0.00343408
0.00531227
0.00438221
0.0479198
0.0195329
0.0184974
0.00908696
0.00329758
0.00928131
0.0124241
0.0152114
0.0060247
0.00835187
0.00302177
0.00362227
0.00912705
0.00380297
0.0041194
0.00237926
0.0049629
0.00268989
0.00316886
0.00285873
0.00260593
0.00223898
0.00443544
0.00536413
0.00342924
0.00385717
0.0107022
0.00456586
0.0051575
0.044091
0.0206382
0.00193725
0.00211621
0.00424165
0.0226321
0.0140906
0.0202382
0.0123736
0.0085505
0.0054736
0.00584499
0.00766316
0.0107662
0.00731769
0.00324357
0.00512754
0.00366987
0.00775586
0.00181012
0.0958456
0.0019001
0.0191148
0.00581383
0.0253033
0.0030464
0.0045969
0.00838117
0.00618499
0.0152753
0.0124473
0.00661375
0.0171099
0.00413842
0.00463423
0.00296143
0.00283958
0.00247036
0.00233796
0.00526983
0.00428528
0.00323581
0.0171794
0.00353812
0.0161449
0.0183585
0.0163595
0.00688296
0.016116
0.00640494
0.00271745
0.00871005
0.00227429
0.0131196
0.00479022
0.00240451
0.0182395
0.00436465
0.0030855
0.0130092
0.00332468
0.00802075
0.0191683
0.00969432
0.00477294
0.00844264
0.00366101
0.00675323
0.00317494
0.0156833
0.0417192
0.00196369
0.00848433
0.0118081
0.012798
0.0292694
0.0148184
0.00391067
0.00992868
0.00641564
0.00541059
0.124094
0.0224566
0.00502727
0.00439007
0.00278312
0.0246338
0.00453074
0.119533
0.00419439
0.00274649
0.00572025
0.00428328
0.00485902
0.0039141
0.00460731
0.0353212
0.00333574
0.0260461
0.0102377
0.0228058
0.00404246
0.0118377
0.00976864
0.0121124
0.0127189
0.00814501
0.015376
0.00752747
0.0142051
0.0157475
0.0185456
0.00684283
0.0165625
0.0162798
0.0107143
0.0252424
0.0199805
0.0143728
0.0232559
0.00313879
0.00607934
0.00799904
0.00533153
0.002467
0.00485226
0.0131382
0.00517858
0.00301974
0.0138351
0.0132753
0.0144958
0.00623419
0.0349449
0.00292821
0.00544154
0.00467841
0.00432015
0.00892864
0.00298225
0.0145961
0.0295022
0.0502745
0.00350105
0.00401874
0.0177015
0.0208247
0.00284093
0.0196201
0.010587
0.00979387
0.0135925
0.018806
0.00717585
0.0160382
0.0207755
0.0181783
0.0254654
0.024493
0.0263303
0.00395868
0.00764744
0.00733387
0.00391217
0.0126882
0.0157092
0.00513928
0.0312913
0.00346968
0.11019
0.00390014
0.00298551
0.0115274
0.00275657
0.00158159
0.00196982
0.00253813
0.00417035
0.00341866
0.00381131
0.00514327
0.0231519
0.0114652
0.00311897
0.00978007
0.00803629
0.0260035
0.0234855
0.0460842
0.0172246
0.00317412
0.00562042
0.00439455
0.00290055
0.00173787
0.00251659
0.0317572
0.0249538
0.0114334
0.0159269
0.013093
0.0175819
0.0196457
0.0197693
0.00379806
0.0273496
0.0190184
0.0226019
0.0179817
0.0153546
0.0154013
0.00816612
0.013471
0.00463176
0.0118913
0.00913303
0.00512456
0.00805589
0.00712226
0.00646741
0.00415863
0.00433
0.0105508
0.0253167
0.0230742
0.00303693
0.0206723
0.00305893
0.00272614
0.0061971
0.00183307
0.0106899
0.00587209
0.0054185
0.00492281
0.00642509
0.00482204
0.0287416
0.00351301
0.00278517
0.0242825
0.00594351
0.00182074
0.0103413
0.0245624
0.0109958
0.0111688
0.0573817
0.00439912
0.0141803
0.0166964
0.0178014
0.00854938
0.00293597
0.0151549
0.0140652
0.0133108
0.0115076
0.00983116
0.00892311
0.0395921
0.00777196
0.0198706
0.00344873
0.00615726
0.0313422
0.00659275
0.00759956
0.0583458
0.00549336
0.00202162
0.00350714
0.00486587
0.00258781
0.00370221
0.0030679
0.00341063
0.0253239
0.00449634
0.00404468
0.032542
0.00266192
0.00289402
0.0028794
0.0481914
0.00480579
0.00368914
0.0256641
0.00300359
0.00177806
0.00322671
0.00433737
0.00543747
0.0212325
0.0031052
0.00364058
0.012278
0.0194542
0.0252192
0.0160225
0.0124834
0.00322815
0.00659061
0.0046218
0.00526857
0.00310858
0.0248271
0.00704237
0.0030917
0.00275688
0.00833376
0.00723257
0.0294016
0.0127487
0.00315303
0.00453059
0.00322226
0.0253914
0.00683939
0.002625
0.0197688
0.00333038
0.0126791
0.0029621
0.00206486
0.00260416
0.0103403
0.00420618
0.00477345
0.0184049
0.00297387
0.0239594
0.00737578
0.00324965
0.0145148
0.00394215
0.0122884
0.0134365
0.00976021
0.0173471
0.00914544
0.00287797
0.0103688
0.0100478
0.00395231
0.00560031
0.00509124
0.00556111
0.0114326
0.00230201
0.00292874
0.0137171
0.00260217
0.00460848
0.01675
0.00248729
0.00398242
0.0207927
0.00374138
0.0031148
0.0185201
0.031089
0.0308986
0.00230299
0.00320768
0.0226045
0.00200317
0.00218629
0.0349899
0.0208422
0.0324921
0.00711124
0.029103
0.00431798
0.00596245
0.0146077
0.0158992
0.00313735
0.0138684
0.037233
0.0453167
0.00306679
0.00388071
0.00274472
0.00191738
0.00255103
0.0046692
0.00352302
0.121381
0.00774804
0.00420854
0.0223204
0.00789278
0.018149
0.00282536
0.0291557
0.00528902
0.00731037
0.0384884
0.00455491
0.00881982
0.0024702
0.00353401
0.0649348
0.0024876
0.0427769
0.0140405
0.0208395
0.0184328
0.0125946
0.0284819
0.00367816
0.00385529
0.0274259
0.00380887
0.00393841
0.00423379
0.0368229
0.00245907
0.00326802
0.00479093
0.0408437
0.0051654
0.00695531
0.00568435
0.00264294
0.0211088
0.00915767
0.0110753
0.0392841
0.001798
0.0153618
0.00406304
0.011767
0.00240442
0.0429044
0.00736653
0.00711129
0.00299731
0.0103286
0.0137359
0.00666752
0.0175564
0.022321
0.00383834
0.00683528
0.00244078
0.020785
0.0194466
0.00211084
0.00905735
0.00697303
0.0100796
0.0114702
0.0138525
0.00575835
0.0135442
0.014031
0.0364497
0.00906477
0.0339277
0.00226939
0.0107655
0.00300619
0.00336933
0.0739022
0.0350492
0.0221222
0.00212484
0.0306333
0.00672591
0.0058497
0.0373891
0.00609299
0.0493559
0.0104988
0.0425534
0.0132096
0.00206711
0.113503
0.0124325
0.0118566
0.0103009
0.0347983
0.0476238
0.00264627
0.00413377
0.135574
0.0374242
0.00310675
0.0415026
0.0441301
0.00440254
0.0416433
0.0040418
0.0385853
0.00658561
0.0137661
0.00227692
0.0308187
0.0387691
0.00191254
0.109875
0.0401575
0.00226585
0.0133656
0.00364732
0.021174
0.0308522
0.0113975
0.00285844
0.0269433
0.033189
0.00678454
0.0410715
0.00625408
0.00364797
0.0104814
0.0113554
0.0346359
0.00255413
0.00304613
0.0261678
0.00840975
0.00412163
0.00632617
0.0032765
0.0119488
0.0108601
0.0324077
0.0586868
0.0394552
0.00263581
0.0117901
0.00271744
0.00943992
0.0128105
0.00530418
0.0105457
0.00279898
0.0378186
0.0174812
0.00300303
0.00302427
0.0128404
0.0241533
0.0408757
0.0513402
0.0152646
0.00596245
0.0112263
0.00225911
0.00271994
0.00406093
0.00174157
0.00226512
0.00398735
0.0320948
0.132935
0.00566337
0.00403149
0.00894694
0.0414042
0.00407621
0.0132463
0.00709526
0.00975007
0.00495853
0.0105838
0.0238414
0.0250092
0.0130683
0.00253041
0.0135559
0.0794108
0.0112515
0.00343028
0.0102155
0.0237201
0.0131945
0.00294797
0.0026822
0.00648673
0.0122588
0.0121253
0.0121131
0.00230325
0.0132813
0.00366099
0.00240377
0.0538339
0.0112174
0.0311899
0.0122819
0.016515
0.0191482
0.0107214
0.00284472
0.0324723
0.00271477
0.00680898
0.0064009
0.00978328
0.0112895
0.0132131
0.00837038
0.0122897
0.026817
0.0112724
0.0173127
0.00324166
0.0525958
0.00249428
0.00241
0.0232179
0.0264326
0.0104811
0.0606254
0.0108266
0.00281504
0.0224641
0.00295897
0.0317532
0.0332756
0.00254651
0.0167686
0.0474725
0.00617581
0.0451933
0.0165403
0.0291764
0.00764335
0.0418881
0.038887
0.00313271
0.00954539
0.0504557
0.0028915
0.00291637
0.034787
0.00212871
0.0132882
0.0375856
0.0267705
0.0977999
0.00193849
0.00208165
0.00223794
0.0662831
0.00310488
0.00434698
0.00863428
0.0164243
0.00344247
0.00324568
0.00301373
0.0142577
0.0155463
0.00232689
0.0102827
0.00208015
0.00215
0.00285338
0.0729783
0.0203059
0.00226591
0.00263982
0.0237793
0.0278528
0.00464262
0.0164988
0.00222567
0.00213966
0.0392768
0.00305106
0.0236279
0.00199776
0.0173731
0.0109401
0.136284
0.0133897
0.0888814
0.0617982
0.00280718
0.0410215
0.00276493
0.00289479
0.00569921
0.0248956
0.00260722
0.0134999
0.0295096
0.00377712
0.0035394
0.0169457
0.0468931
0.0145354
0.0722959
0.0266998
0.0337954
0.00235275
0.0385301
0.027269
0.00194029
0.0210532
0.00216432
0.00229265
0.051662
0.010692
0.0106002
0.0579166
0.0515023
0.00419201
0.0116091
0.00440394
0.0276304
0.00233816
0.0410963
0.0367259
0.00284774
0.0342339
0.00255993
0.00268656
0.00216151
0.0124504
0.0162008
0.0950432
0.0422407
0.00331717
0.0538184
0.00225197
0.0022815
0.00192612
0.028112
0.0118083
0.00220389
0.00740667
0.0590713
0.0143665
0.0144188
0.00275481
0.0112603
0.00340168
0.00356369
0.00579492
0.00207981
0.00507042
0.00197936
0.00211134
0.106268
0.00389186
0.00660995
0.00231192
0.0126503
0.0128452
0.0326569
0.00166189
0.0124166
0.0303209
0.0125228
0.00282639
0.0437635
0.00297613
0.0271185
0.013837
0.0121143
0.00694385
0.00337839
0.0571874
0.0459907
0.00285864
0.00338614
0.0509501
0.0426028
0.0230952
0.00717267
0.0297983
0.00381896
0.0114663
0.00680163
0.0121126
0.00216559
0.00328421
0.00620749
0.0122243
0.0108093
0.00236684
0.0124556
0.0138699
0.0113925
0.0130816
0.0222417
0.0297293
0.0271306
0.00242284
0.0345683
0.0361051
0.0360003
0.00179954
0.0172041
0.0207312
0.012934
0.0396985
0.00219057
0.0026832
0.0278409
0.106722
0.0142498
0.0555489
0.00222408
0.00287874
0.00562169
0.00327357
0.0148825
0.00345664
0.0022536
0.0264514
0.0239972
0.063533
0.0548773
0.107692
0.0564533
0.0512228
0.0201457
0.0150486
0.0332049
0.00747119
0.031983
0.00248732
0.0216586
0.00186924
0.0762053
0.011876
0.00589295
0.0104117
0.0034092
0.00664706
0.00603778
0.00258041
0.0110025
0.00234078
0.0457817
0.0392973
0.00436567
0.0278984
0.0277505
0.0174858
0.0307221
0.143783
0.0111549
0.0108529
0.0593511
0.0115456
0.0206666
0.00203447
0.0767665
0.00220627
0.0140176
0.0151566
0.00585552
0.0370445
0.026784
0.00187882
0.0121028
0.00324078
0.0676192
0.0308819
0.00974125
0.0921867
0.00555832
0.0274139
0.00451302
0.00622814
0.059287
0.0212974
0.00939886
0.00326211
0.00388087
0.0128069
0.00367329
0.0910081
0.012096
0.00856704
0.0593808
0.00186171
0.0109656
0.0114953
0.00253468
0.0243511
0.073224
0.0342635
0.0268446
0.0152892
0.0607036
0.00268197
0.0173136
0.00210955
0.00223508
0.0133853
0.00209182
0.0567008
0.0602849
0.0624008
0.0179727
0.0159232
0.0322573
0.00913861
0.00316381
0.00759167
0.00348458
0.0145121
0.00585846
0.00481194
0.00954963
0.11984
0.00213923
0.0800502
0.0431922
0.0106503
0.0112939
0.0399836
0.0350629
0.00192541
0.144449
0.00478896
0.0020369
0.00211086
0.131531
0.00318636
0.00254379
0.00297381
0.0342976
0.00404764
0.0112366
0.00680714
0.00948102
0.0107611
0.0027732
0.0280799
0.00413184
0.00535538
0.0311815
0.00239339
0.00898184
0.00451795
0.038515
0.0155561
0.00252915
0.0277943
0.0352053
0.0616933
0.00396603
0.00237631
0.0808833
0.059146
0.0773093
0.0537853
0.071715
0.0581467
0.00259509
0.0269914
0.0543394
0.00698079
0.0127889
0.00217478
0.0111359
0.0325514
0.0105166
0.0179721
0.0681322
0.0239251
0.00192407
0.00179946
0.00192944
0.0122076
0.0114191
0.0159753
0.0275687
0.0541467
0.00826124
0.00240425
0.0575648
0.116179
0.0117171
0.00699604
0.0221635
0.00355614
0.0110658
0.0345227
0.0133007
0.0110999
0.0104332
0.0152605
0.00466742
0.0930922
0.0135028
0.0737314
0.0438492
0.0106708
0.0132654
0.0111768
0.042726
0.006163
0.0137184
0.024547
0.00655972
0.0115678
0.00792964
0.0308911
0.0123323
0.0298634
0.0561711
0.0486374
0.00780401
0.0502633
0.109188
0.00289977
0.0531911
0.00399919
0.00953226
0.0379484
0.00219697
0.00341565
0.0297352
0.00257646
0.00464555
0.00231187
0.00280323
0.0461719
0.00203346
0.0381568
0.0141372
0.0329382
0.00216426
0.00799576
0.00437165
0.012395
0.00223442
0.0927611
0.076787
0.0230568
0.034954
0.0158694
0.0128386
0.0289505
0.00582628
0.0709306
0.0680723
0.0349449
0.00636683
0.00191813
0.00209858
0.0218941
0.0352674
0.00422683
0.00238901
0.00439581
0.01577
0.0024525
0.00935404
0.0111393
0.0118935
0.0193246
0.00880118
0.00631401
0.0037138
0.0554389
0.00589645
0.0117115
0.00704657
0.0119763
0.00828981
0.0098862
0.010646
0.0123617
0.0451849
0.0277569
0.0183495
0.0123334
0.0487993
0.00210181
0.0103645
0.00969193
0.00320826
0.00507707
0.0335856
0.0701687
0.0023068
0.0421559
0.0148081
0.0952434
0.0130701
0.058791
0.00506675
0.0119306
0.0753049
0.00854559
0.0221742
0.0727637
0.049184
0.00180404
0.0223117
0.00226757
0.0434826
0.0289818
0.0202373
0.00229639
0.00719805
0.04784
0.00355153
0.0120165
0.00629637
0.0361453
0.00204727
0.0276932
0.00263019
0.0708089
0.00206652
0.00220864
0.0075162
0.00963341
0.063003
0.0317581
0.00357151
0.00698617
0.00809536
0.00183154
0.0163543
0.00545522
0.019188
0.0110634
0.0856654
0.00190042
0.00248432
0.0432103
0.0597131
0.0184362
0.141602
0.0540967
0.004345
0.0287026
0.0732005
0.00223102
0.0627447
0.0212043
0.0331047
0.00596117
0.0640523
0.00186686
0.0463756
0.00186789
0.0589089
0.0113678
0.0024391
0.0842756
0.00379505
0.0564316
0.0400062
0.00779023
0.00367841
0.0914278
0.132863
0.00892193
0.0306245
0.0594762
0.00203735
0.0178695
0.00573998
0.0129097
0.00391666
0.00236007
0.010784
0.068251
0.00421209
0.0479464
0.0227911
0.0024384
0.00190813
0.00190203
0.00220489
0.00658412
0.0177655
0.0222542
0.00749587
0.0456377
0.0126236
0.00319145
0.003432
0.00226244
0.0747164
0.0455493
0.00202541
0.00990934
0.0217901
0.00732159
0.0749407
0.0341679
0.00318665
0.00329786
0.0111182
0.00245091
0.00410927
0.0397562
0.0570529
0.00195461
0.00193462
0.0128319
0.0649365
0.0988767
0.00219449
0.00225599
0.122097
0.0129898
0.00209166
0.0020045
0.048294
0.047217
0.107695
0.00615778
0.0621785
0.0169415
0.114862
0.0608509
0.00325027
0.0339615
0.00261147
0.0163497
0.00232777
0.00309458
0.012191
0.0166178
0.00899788
0.022159
0.00198246
0.00759379
0.0116538
0.0453042
0.0062933
0.079615
0.0282165
0.0375477
0.00272701
0.0900139
0.02515
0.0104788
0.0113718
0.0111802
0.0377651
0.00187302
0.0276551
0.0468783
0.00196487
0.0220597
0.00979417
0.00329613
0.00268987
0.00195072
0.0112104
0.00523561
0.00266299
0.0504248
0.135054
0.00212675
0.0568764
0.0573767
0.0866561
0.0247487
0.0342882
0.0814888
0.00202214
0.0235502
0.018752
0.00181152
0.00595346
0.00218501
0.0023661
0.00423258
0.0267559
0.0104093
0.0691407
0.00227427
0.012288
0.00218238
0.00250945
0.00183734
0.062629
0.0334443
0.00674618
0.00219675
0.0333955
0.0105678
0.0511369
0.0408099
0.0408632
0.0312514
0.00213918
0.00204031
0.0112569
0.00205443
0.0111201
0.00232153
0.021349
0.0453385
0.0178038
0.0662173
0.002672
0.00271198
0.0235027
0.0332687
0.0194758
0.0145114
0.0144141
0.0135559
0.127662
0.0851762
0.0401698
0.0712371
0.0159403
0.00211388
0.0094937
0.00862954
0.0498461
0.00209784
0.00351715
0.00736371
0.0359791
0.0169946
0.0212674
0.0108619
0.0118424
0.00215867
0.0593965
0.0279356
0.0287611
0.00209935
0.138984
0.061722
0.0432495
0.00213709
0.0683533
0.0183912
0.0174665
0.00179248
0.0174301
0.00770993
0.00238819
0.0113436
0.0147071
0.0212816
0.0192369
0.104516
0.0720787
0.00224634
0.0601827
0.00194395
0.0109318
0.00858455
0.0383341
0.00223694
0.00196353
0.0719432
0.0105744
0.00202149
0.0698386
0.0277484
0.0212045
0.00217412
0.00205016
0.0111471
0.0394456
0.0023654
0.00231134
0.00300383
0.0490973
0.00253999
0.00231896
0.0101872
0.00621879
0.0545824
0.00495623
0.0284548
0.00224739
0.0125255
0.0806533
0.0194401
0.0261821
0.0115569
0.0020145
0.00262679
0.00216114
0.00270043
0.0375803
0.00479796
0.00279741
0.0554959
0.0118086
0.0114141
0.0464658
0.0170444
0.00321701
0.00254084
0.00284538
0.0132224
0.018042
0.00202808
0.0488798
0.00863498
0.0845751
0.071631
0.0131006
0.00498068
0.0693798
0.00231899
0.00181982
0.013185
0.117897
0.00386216
0.002693
0.0140183
0.0173361
0.00205272
0.00220065
0.0216036
0.0125537
0.00178165
0.00195619
0.010538
0.00602974
0.041052
0.00178012
0.132836
0.0632489
0.00270877
0.0717223
0.0109377
0.0347889
0.045424
0.0622816
0.0548919
0.0688624
0.0176019
0.00825589
0.00693747
0.00185223
0.00235014
0.0110133
0.00991799
0.0455007
0.0675144
0.00207272
0.00220967
0.0022558
0.00203157
0.00204732
0.0022156
0.00997623
0.00551505
0.00246554
0.00984457
0.00303371
0.00266738
0.00362863
0.00299969
0.0268716
0.0291049
0.0167026
0.0196675
0.0108069
0.0384526
0.00705139
0.0108547
0.00219334
0.012922
0.00221902
0.0154059
0.0683353
0.015688
0.00603628
0.00233627
0.00579817
0.0498422
0.0342251
0.0112689
0.0026526
0.0077137
0.00196654
0.0518963
0.0108787
0.0172797
0.00491028
0.00372411
0.0101514
0.00792107
0.032286
0.0205456
0.00599548
0.00200591
0.00232106
0.00425344
0.0463981
0.0209998
0.100513
0.0225282
0.0114653
0.0419655
0.0293177
0.0271395
0.0194698
0.0529446
0.0110771
0.00292677
0.077108
0.0568245
0.0111124
0.0109622
0.0188338
0.00259205
0.012176
0.0074506
0.0139986
0.0834022
0.0167206
0.00605131
0.010034
0.0506171
0.0850711
0.00207671
0.0142498
0.013725
0.00481822
0.0019947
0.00214566
0.00181926
0.00561024
0.00254235
0.00196653
0.125899
0.00962834
0.0516381
0.0575867
0.012645
0.00210903
0.0241864
0.0252589
0.0209353
0.0104048
0.0134202
0.00199408
0.112887
0.0366345
0.0693497
0.00159054
0.00243307
0.00221356
0.0144931
0.0188092
0.0133591
0.0024959
0.0113701
0.0415335
0.0022958
0.00193319
0.00727137
0.0831718
0.00240921
0.00664228
0.0107924
0.0138002
0.0030274
0.087531
0.0386295
0.103332
0.0146199
0.0272473
0.030673
0.00249706
0.02366
0.128426
0.013207
0.00647647
0.0130897
0.054837
0.0185237
0.0159598
0.0112234
0.0315801
0.00212644
0.0416316
0.00212375
0.00209995
0.0025041
0.0327364
0.00993972
0.0514716
0.0829157
0.0128301
0.023772
0.00235966
0.021185
0.00199027
0.0107932
0.0288666
0.027958
0.00197265
0.00215393
0.0502902
0.00175658
0.0646961
0.00242801
0.0647148
0.00237121
0.0330068
0.00216095
0.0566574
0.013063
0.0296127
0.061244
0.0303583
0.024913
0.00179411
0.0617247
0.0306617
0.0271677
0.0211692
0.0144175
0.0246588
0.0285178
0.00226816
0.0317048
0.0468006
0.00809832
0.0524419
0.105035
0.00219566
0.0112303
0.00375587
0.0630142
0.00218267
0.00215019
0.0021119
0.0315378
0.118693
0.0324327
0.0139014
0.0214805
0.00204751
0.0085911
0.00472669
0.0063305
0.00217027
0.00920648
0.00859083
0.00921011
0.00325023
0.0699568
0.0694811
0.00211976
0.00725629
0.0360371
0.0477264
0.0269786
0.00278607
0.00194658
0.0103828
0.0297042
0.00228718
0.00178673
0.0993046
0.0218563
0.0021651
0.00637551
0.0213977
0.0199406
0.0413392
0.0301627
0.0273345
0.010481
0.00885901
0.0487739
0.0665164
0.00277782
0.0117233
0.0117268
0.00205798
0.00366391
0.0110601
0.00300046
0.0297668
0.0486315
0.00301383
0.0283362
0.10957
0.00403654
0.0145219
0.00381736
0.0362592
0.0218706
0.00802959
0.0117018
0.0849692
0.00877679
0.0065976
0.0112743
0.00689427
0.079177
0.0527518
0.0536113
0.011004
0.00667624
0.00330408
0.0106505
0.00209472
0.00191887
0.00996841
0.0215096
0.00365705
0.00754566
0.00955328
0.00213288
0.046489
0.0110051
0.0139159
0.00202823
0.120247
0.00435918
0.00331031
0.00648163
0.0275574
0.00278521
0.00347547
0.012438
0.00320566
0.00334616
0.00842686
0.0495183
0.00344836
0.0443306
0.0104326
0.00559235
0.0443699
0.0176124
0.0032114
0.111374
0.0119736
0.0817913
0.00516458
0.0251293
0.00527292
0.0275788
0.12537
0.00293077
0.0197071
0.00822892
0.0117548
0.00200285
0.00204177
0.00455211
0.00271647
0.00363077
0.00318215
0.0166131
0.0100277
0.00275467
0.00188572
0.00373833
0.0174269
0.036083
0.0402216
0.0149356
0.00776
0.130553
0.00227417
0.00223977
0.00492475
0.0021946
0.00221495
0.01971
0.0043438
0.00518028
0.0273571
0.0110068
0.0105482
0.0461918
0.0455093
0.00245556
0.0599898
0.0118095
0.023873
0.0250468
0.0218936
0.0158216
0.035963
0.00356531
0.0140093
0.00331442
0.0117195
0.00182411
0.0386357
0.00649147
0.00391108
0.012628
0.0323681
0.025823
0.00224898
0.0193905
0.0259308
0.017554
0.00218129
0.00541731
0.0089704
0.0222218
0.00850931
0.129759
0.0199123
0.00557968
0.0108229
0.00194263
0.00310876
0.0101684
0.00284693
0.0423625
0.0167834
0.00224356
0.00433295
0.035935
0.00815189
0.0515688
0.0247677
0.0261494
0.00740135
0.00188553
0.0259273
0.0761657
0.00260446
0.00200938
0.0105619
0.00207029
0.00267635
0.0252404
0.00633413
0.0540276
0.0223779
0.055978
0.00670291
0.0205043
0.00269325
0.00203451
0.002623
0.0325702
0.00169596
0.0015191
0.00171435
0.0131394
0.0106341
0.00178021
0.0266314
0.0614313
0.0371045
0.00267158
0.0262033
0.0905954
0.0406231
0.00235716
0.0135373
0.00423543
0.0604959
0.00204617
0.0115761
0.0368748
0.0396364
0.00195179
0.0029237
0.0140953
0.0422143
0.0547715
0.0048391
0.0589504
0.00188102
0.00249181
0.034388
0.0142925
0.00305783
0.0463418
0.0131584
0.0020966
0.0113628
0.0356017
0.0112655
0.00205273
0.00206937
0.0288814
0.00971091
0.00207269
0.0274333
0.0676316
0.0428461
0.0138424
0.00183599
0.00331516
0.0160774
0.0482011
0.0159661
0.0499483
0.0756928
0.0646202
0.00194251
0.00197811
0.00573147
0.00270323
0.0024076
0.028259
0.038128
0.00208286
0.00213117
0.00204827
0.0018632
0.0204439
0.0153712
0.014244
0.00177218
0.00158156
0.00164495
0.0135612
0.0306903
0.0110271
0.00207541
0.0455
0.00376951
0.00571211
0.0424994
0.0039713
0.0169312
0.0306368
0.00247842
0.0124261
0.00223064
0.0141089
0.0110257
0.0104887
0.0599862
0.00202724
0.0268318
0.0396581
0.0144079
0.00461709
0.0741823
0.0808164
0.00209292
0.00215432
0.0107884
0.0133543
0.0062262
0.0356044
0.0673551
0.0162295
0.0183045
0.0772332
0.0263288
0.010975
0.0552518
0.049817
0.0689141
0.046786
0.0125128
0.0494091
0.00170793
0.00348922
0.00195619
0.0146306
0.00214021
0.065585
0.0220205
0.00224543
0.00219837
0.00147096
0.00159506
0.00219951
0.0158347
0.0228556
0.0114799
0.0288296
0.0304748
0.0170089
0.00211327
0.00244788
0.0141467
0.00590602
0.00229623
0.00197263
0.00336941
0.0197128
0.00198768
0.0109818
0.00190669
0.00382955
0.0302855
0.00196239
0.0118732
0.0153519
0.0465494
0.0896026
0.0055733
0.00200433
0.00741904
0.00814539