/*--------------------------------*- C++ -*----------------------------------*\
  =========                 |
  \\      /  F ield         | OpenFOAM: The Open Source CFD Toolbox
   \\    /   O peration     | Website:  https://openfoam.org
    \\  /    A nd           | Version:  10
     \\/     M anipulation  |
\*---------------------------------------------------------------------------*/
FoamFile
{
    format      ascii;
    class       volScalarField;
    location    "450";
    object      k;
}
// * * * * * * * * * * * * * * * * * * * * * * * * * * * * * * * * * * * * * //

dimensions      [0 2 -2 0 0 0 0];

internalField   nonuniform List<scalar> 
23845
(
0.0812632
0.096932
0.0758287
0.0477731
0.0922504
0.0253693
0.0876144
0.0339051
0.0243615
0.0716659
0.0726177
0.0231957
0.0336614
0.0250117
0.0937696
0.0572532
0.0416024
0.045673
0.0374701
0.0289461
0.0742694
0.0692216
0.0723645
0.0245014
0.0748944
0.0233298
0.0821076
0.0275589
0.0199759
0.029249
0.0522871
0.0180321
0.0903324
0.0467937
0.0232923
0.0258783
0.0152908
0.0233334
0.0238929
0.0257209
0.0373694
0.0384989
0.030998
0.0385535
0.0215483
0.0351198
0.0802891
0.0578631
0.0231571
0.0154409
0.0295521
0.0769418
0.0193484
0.0265161
0.0174288
0.0402446
0.0965338
0.036312
0.0813737
0.0783212
0.0270688
0.0399702
0.0548004
0.0261357
0.0240069
0.0334517
0.0846248
0.020325
0.0211741
0.0408771
0.030529
0.0670811
0.0257904
0.0919812
0.0233167
0.0941348
0.0232235
0.0240471
0.0406725
0.0498974
0.0772505
0.0906413
0.0986523
0.0374496
0.074534
0.0234034
0.0901403
0.0190503
0.0237881
0.04731
0.0264544
0.0426811
0.0222211
0.0257704
0.0360429
0.0268901
0.0383183
0.060058
0.0231359
0.0850447
0.0415386
0.0857739
0.0955887
0.0123078
0.0223695
0.0392921
0.0257024
0.0226323
0.0847912
0.0383065
0.068779
0.0234944
0.085693
0.0658822
0.0265018
0.0665893
0.0240938
0.0608791
0.0204844
0.0330184
0.0237414
0.0217066
0.0430876
0.0482199
0.0868802
0.0241393
0.0281418
0.0155552
0.0610905
0.0815683
0.0630836
0.0900222
0.0788312
0.0250824
0.0461101
0.0897939
0.0106858
0.0230857
0.0828055
0.0241275
0.0170166
0.0372795
0.0242213
0.039904
0.0491385
0.0370127
0.0623232
0.086568
0.0380498
0.0510996
0.0923885
0.0291168
0.0901638
0.0289599
0.0825528
0.0635234
0.0961067
0.0243363
0.0694067
0.0249467
0.0473069
0.092582
0.035585
0.0240816
0.0292223
0.0554962
0.0248775
0.0221818
0.0281079
0.0360818
0.0254859
0.0490103
0.0245407
0.0460214
0.0251262
0.0384424
0.0450961
0.0712983
0.0225527
0.0241847
0.0856567
0.0816331
0.0924091
0.0652896
0.0529164
0.0377765
0.0393592
0.0362992
0.0183447
0.0380365
0.0235055
0.0253954
0.0260804
0.0262198
0.0493523
0.0253892
0.0178943
0.0192354
0.0154922
0.0702393
0.0577075
0.0262875
0.0371432
0.086604
0.0360493
0.0355472
0.0727184
0.0247344
0.0822167
0.0489684
0.0507634
0.0206612
0.0470793
0.0285569
0.0256169
0.0168431
0.0815703
0.041047
0.00999927
0.0643641
0.0266455
0.093291
0.0174317
0.059334
0.0372219
0.092619
0.0105489
0.0255666
0.0258322
0.039051
0.0250929
0.0249362
0.0236583
0.0213595
0.0936259
0.0237476
0.0239484
0.0493361
0.0261933
0.0499614
0.0211275
0.0607442
0.0383219
0.0926949
0.0230208
0.0566548
0.025571
0.0210394
0.037167
0.0927266
0.0339094
0.0241269
0.0292478
0.0313406
0.0905324
0.0262031
0.0369821
0.0308209
0.0264969
0.0250557
0.0171943
0.0244424
0.0291568
0.0674449
0.0651232
0.0250567
0.0396778
0.0495474
0.0618626
0.0471467
0.0240118
0.0459805
0.0292205
0.0263796
0.0655314
0.0261733
0.0301458
0.0258168
0.0241595
0.0730271
0.0403874
0.0261209
0.0320085
0.0517794
0.023606
0.0309786
0.0490705
0.0264533
0.0354664
0.0882068
0.0386206
0.0267383
0.0266352
0.0298309
0.0370917
0.023481
0.0334404
0.0258634
0.0235578
0.0218247
0.069297
0.0910882
0.023652
0.047624
0.0264999
0.0496742
0.0264735
0.0293244
0.0406391
0.0162252
0.0288571
0.0916461
0.0366552
0.0256147
0.067501
0.016411
0.0315583
0.0816507
0.0252005
0.0277096
0.0233877
0.0214927
0.0423553
0.0288524
0.0915681
0.0250498
0.0430576
0.0785614
0.037417
0.0477216
0.083301
0.0540207
0.0283071
0.0243385
0.0364979
0.0503832
0.0562502
0.0453943
0.0363232
0.0407996
0.0510632
0.0398095
0.069303
0.0220008
0.0218863
0.0226913
0.0242497
0.0284704
0.0419281
0.088002
0.056504
0.0614091
0.0150801
0.0305213
0.0195212
0.0259114
0.0346181
0.025972
0.0901277
0.0374154
0.0530459
0.0240555
0.0615757
0.0489256
0.0192254
0.0250913
0.0434838
0.0263978
0.0210399
0.0230735
0.0374435
0.0248214
0.0341873
0.0232067
0.0247551
0.027599
0.0635549
0.0522526
0.0360155
0.0450592
0.0916097
0.0247246
0.0706337
0.0215975
0.0216605
0.0236849
0.0252904
0.0399049
0.0559715
0.0373571
0.0842717
0.0358947
0.0287576
0.0244831
0.0280079
0.0229333
0.0641367
0.022435
0.0418677
0.0245668
0.0611642
0.0584103
0.033755
0.053803
0.0875893
0.0932444
0.0244711
0.0311642
0.0209569
0.0335652
0.0933518
0.0208891
0.0899413
0.0425491
0.0980741
0.0689451
0.0648629
0.0623564
0.0247622
0.0669288
0.0691615
0.0319477
0.0246523
0.0417017
0.0314438
0.0887691
0.0642145
0.055322
0.0517063
0.0546069
0.0256753
0.045895
0.0391951
0.0444691
0.0331656
0.0242732
0.0231441
0.0372263
0.0232272
0.0528502
0.0939223
0.0551464
0.0210148
0.0585437
0.0566289
0.0319815
0.0290128
0.0646442
0.0247783
0.0474965
0.0404611
0.0276375
0.0492138
0.0244749
0.0214552
0.0386682
0.080713
0.0888999
0.031928
0.026669
0.0811658
0.0458366
0.0105245
0.0805582
0.0255408
0.0244676
0.0264124
0.0254452
0.0223863
0.0870939
0.0288568
0.0249767
0.0553787
0.0306548
0.0286968
0.0914348
0.0264428
0.0240994
0.0275753
0.0470237
0.0723885
0.0644387
0.0518347
0.0683745
0.0560809
0.0908455
0.0239615
0.0235624
0.0812045
0.0422918
0.0231289
0.0705985
0.027546
0.0675713
0.0355319
0.0760789
0.0246961
0.0643641
0.0234255
0.0245081
0.089095
0.0181578
0.0450426
0.0735499
0.0387612
0.0400896
0.0644518
0.0335863
0.0270462
0.043054
0.0514124
0.0486749
0.015433
0.0532227
0.0262319
0.0226806
0.0614045
0.0873361
0.0816617
0.0358475
0.014907
0.0273554
0.0473522
0.0330862
0.0232069
0.0872703
0.0910102
0.0283988
0.0711902
0.0220727
0.0242825
0.0766599
0.0855618
0.0750641
0.0420221
0.0340643
0.0269438
0.0364564
0.0782772
0.0417349
0.0747706
0.0267931
0.0710508
0.0703891
0.0464244
0.0683232
0.0690171
0.0312609
0.0280438
0.0308656
0.0285807
0.023451
0.0473136
0.0304507
0.0356094
0.0928788
0.0347284
0.0481085
0.0243958
0.0269053
0.0370399
0.0426187
0.0862028
0.0290964
0.0352227
0.0271527
0.0236194
0.0247203
0.0222351
0.0318212
0.0229379
0.0874169
0.0383223
0.0261111
0.0581959
0.0848702
0.0420151
0.0746419
0.0319022
0.0803519
0.0237964
0.0233336
0.0475436
0.0827973
0.0349202
0.0335354
0.0261142
0.0258015
0.0326083
0.0253493
0.0761698
0.0916508
0.0857135
0.061827
0.028529
0.0346423
0.0223474
0.0271254
0.0447352
0.0234014
0.0721042
0.0283289
0.0796096
0.0929377
0.0499638
0.0826169
0.0317309
0.0801439
0.0890052
0.0619178
0.0729637
0.0980004
0.0948294
0.0848089
0.0378756
0.0926459
0.0798783
0.0979418
0.0299485
0.0278753
0.0806291
0.0268493
0.0782267
0.0604696
0.0978994
0.0528132
0.0360489
0.0396749
0.0309097
0.0523134
0.033149
0.0324194
0.0697831
0.0269079
0.0233186
0.0880085
0.0955186
0.0582606
0.0240847
0.061559
0.0886994
0.0541424
0.0273133
0.0326894
0.0789498
0.0829536
0.0750091
0.0308731
0.0810766
0.0683906
0.0261033
0.0238572
0.0784017
0.0412458
0.0266799
0.0858283
0.0479181
0.0736317
0.0372342
0.0710762
0.055063
0.0434181
0.0496968
0.0992713
0.0462278
0.0238839
0.0304497
0.0908332
0.0569711
0.0787293
0.0507006
0.0554696
0.0679784
0.0577535
0.0537346
0.0745046
0.0513366
0.0777622
0.0655692
0.048444
0.072617
0.0474767
0.0366089
0.0455327
0.0476372
0.0864583
0.0390659
0.0426661
0.0810367
0.0796375
0.0403785
0.0374202
0.0561366
0.0598196
0.0636276
0.068937
0.0727976
0.0523685
0.0760706
0.049996
0.070205
0.0463227
0.0630061
0.0446109
0.0450449
0.0462655
0.0416729
0.0385853
0.0394145
0.0344862
0.0397001
0.0589803
0.0251532
0.0368032
0.0409385
0.037748
0.0258109
0.06331
0.0367846
0.0611341
0.0649039
0.0505327
0.0356052
0.0391166
0.0266226
0.0609759
0.0548384
0.0798573
0.0273435
0.0591572
0.0339477
0.0438218
0.0273508
0.0373007
0.0739107
0.0453908
0.079598
0.0361625
0.0269236
0.0318337
0.0221435
0.0330111
0.0564576
0.0321251
0.0257382
0.0346395
0.0778974
0.0323433
0.032489
0.0297947
0.0862336
0.036141
0.0214655
0.0847335
0.0403015
0.0425941
0.0715075
0.0673042
0.0708719
0.0666554
0.0761882
0.0368895
0.0513672
0.059887
0.0673767
0.0488658
0.0557487
0.0434942
0.0999428
0.0412834
0.0307747
0.0714414
0.0680382
0.0782729
0.0530521
0.0607806
0.0307752
0.0959474
0.0680546
0.0467182
0.038699
0.0442051
0.0283322
0.0263577
0.0623408
0.0318984
0.0352952
0.0386436
0.0327499
0.0312601
0.0372631
0.0373053
0.0454662
0.0359662
0.0335506
0.0360329
0.0868221
0.0502637
0.0309107
0.0432166
0.0401297
0.0359361
0.0790398
0.0621083
0.0710459
0.0542205
0.0376759
0.0313882
0.0385209
0.035241
0.0966846
0.0680394
0.070704
0.0486827
0.0307704
0.0509258
0.0241055
0.0636394
0.0383728
0.0444392
0.0277795
0.0302258
0.0461741
0.0314025
0.0320994
0.0249032
0.0353926
0.026327
0.0289298
0.02709
0.0260065
0.0242103
0.0332495
0.0366677
0.0299555
0.0311246
0.0493025
0.0360891
0.0382475
0.0659441
0.0743086
0.0233897
0.0246361
0.034769
0.0728386
0.0623587
0.0725857
0.058634
0.0486165
0.03663
0.0378049
0.0427952
0.0496482
0.0454691
0.030567
0.0381031
0.0318923
0.04372
0.0230656
0.090924
0.0236314
0.0665025
0.0403446
0.0806906
0.0296271
0.0355867
0.0445299
0.0390614
0.0567071
0.0524336
0.0401999
0.0592021
0.0326644
0.0343106
0.0280718
0.0275729
0.0259124
0.0253178
0.0373733
0.0349793
0.0304955
0.0636332
0.0318652
0.0626793
0.0645319
0.0667881
0.0409104
0.0578628
0.0396244
0.0270171
0.0452616
0.0250237
0.0534448
0.0348185
0.0256205
0.0606093
0.0334343
0.0285691
0.0598682
0.0309029
0.0473354
0.0598151
0.051963
0.0366486
0.0486878
0.0322218
0.0436624
0.0302172
0.0640876
0.0413035
0.0239849
0.0488881
0.0572887
0.0595673
0.0843982
0.0638468
0.0334422
0.0485501
0.0426119
0.0391228
0.0920756
0.0255307
0.0378305
0.035405
0.0285106
0.067753
0.0357838
0.0945378
0.0345552
0.0265838
0.0382116
0.0327095
0.0370267
0.0334361
0.0355496
0.0911532
0.0309561
0.0678015
0.0498752
0.0772716
0.0339932
0.0534189
0.052294
0.0579189
0.0593091
0.0465086
0.0602108
0.0460822
0.0625799
0.0657576
0.0709124
0.0439465
0.0657933
0.0663449
0.0529544
0.0797391
0.0718574
0.0626289
0.0724662
0.0300707
0.0415208
0.0467709
0.0389223
0.0267685
0.0371806
0.0569929
0.0383395
0.0294995
0.0612249
0.0584265
0.0620225
0.0417515
0.0784583
0.0290622
0.0385152
0.0364679
0.0350885
0.0492071
0.0282368
0.0631948
0.0850692
0.0971086
0.0313347
0.0339097
0.069348
0.0746455
0.0286268
0.0652316
0.0541926
0.0521975
0.0608578
0.0643149
0.0430696
0.0660476
0.0744848
0.0695954
0.0779579
0.0794224
0.0811384
0.0327305
0.0459765
0.0452497
0.0334259
0.0572132
0.0622718
0.0375395
0.0252389
0.0313125
0.0799605
0.0327565
0.0294523
0.0159961
0.0282037
0.0207871
0.0240348
0.0262118
0.0345192
0.0313143
0.0330091
0.0379218
0.0779959
0.0267181
0.0299686
0.0522304
0.0453006
0.0758503
0.0702179
0.0951314
0.0681396
0.0302108
0.039726
0.0353617
0.029095
0.0226878
0.0272359
0.0854708
0.0796969
0.0508498
0.057963
0.0536662
0.060227
0.062835
0.0729783
0.0329551
0.0832803
0.0680126
0.0736499
0.06996
0.0614635
0.0649867
0.0475672
0.061062
0.0363134
0.057505
0.0506452
0.0381964
0.047591
0.0448532
0.0427494
0.0344562
0.0351036
0.0542148
0.0691861
0.077819
0.0295815
0.0638625
0.0297138
0.0278026
0.0417998
0.0231997
0.0546051
0.0407926
0.0390479
0.0373729
0.0411439
0.036572
0.0830756
0.0304222
0.0283591
0.0682973
0.0408674
0.0231051
0.0537769
0.0796829
0.053138
0.023138
0.0744965
0.0351076
0.0591494
0.0634584
0.0693455
0.0487913
0.0291018
0.0643397
0.0601723
0.0605549
0.0565639
0.0523983
0.0499596
0.0350237
0.04676
0.0666606
0.031451
0.0417439
0.0842417
0.0413286
0.0453781
0.0544618
0.0394589
0.02316
0.0303715
0.0372
0.0274145
0.0325506
0.0297409
0.031177
0.0806563
0.0357839
0.0339706
0.0751626
0.0277395
0.0288878
0.0288513
0.0893446
0.0362937
0.0325092
0.0808165
0.0286309
0.0232182
0.0304765
0.0345738
0.0373049
0.0459843
0.0290746
0.0323031
0.0551065
0.0717584
0.0800113
0.0658052
0.0585754
0.0305544
0.0430309
0.0362501
0.038555
0.0299687
0.0801786
0.0442662
0.0298275
0.028245
0.0484035
0.0446732
0.0643606
0.038027
0.0301908
0.0357578
0.0304156
0.075976
0.0431781
0.0265994
0.0723747
0.0309324
0.0442748
0.0292605
0.024804
0.0274538
0.0524938
0.0345874
0.0352661
0.0695101
0.0293574
0.075782
0.0451905
0.0299991
0.0626503
0.0335429
0.0563918
0.0597047
0.0507966
0.0665693
0.0499963
0.0288282
0.0529662
0.0529929
0.0319667
0.0398844
0.0363948
0.0369854
0.0508362
0.0245134
0.0273925
0.0546769
0.0259527
0.0338534
0.0590929
0.0254568
0.031592
0.0641605
0.0306851
0.0281809
0.0614333
0.087588
0.0812141
0.0260821
0.0303353
0.0682598
0.0244389
0.0252435
0.0897935
0.0692937
0.088196
0.0439994
0.07597
0.0349828
0.0410679
0.0564688
0.0657751
0.030134
0.0617435
0.0906809
0.0356126
0.0298287
0.0333506
0.0281837
0.0237585
0.027186
0.0364375
0.0317726
0.0934632
0.0467427
0.0346235
0.0768066
0.0458639
0.0702229
0.0285695
0.0708081
0.0380274
0.0440209
0.088379
0.0350735
0.049663
0.0267638
0.0316529
0.0617534
0.0268581
0.0917787
0.0615111
0.0745141
0.044873
0.0431585
0.0847101
0.0324094
0.0327076
0.0761097
0.0329225
0.0334438
0.034544
0.0798639
0.0268614
0.030554
0.0357472
0.0946716
0.0363616
0.0430623
0.0401195
0.0276976
0.0295364
0.0490755
0.0536423
0.0913391
0.0230123
0.012356
0.0337004
0.0241699
0.0264155
0.0949097
0.0447437
0.0443025
0.0294516
0.0528529
0.0608157
0.0428002
0.0680254
0.0731984
0.0319478
0.0433017
0.0266175
0.0706992
0.0685093
0.0251825
0.049407
0.0438905
0.051838
0.0533517
0.0606339
0.0404363
0.0586554
0.0605365
0.0834305
0.0501439
0.0840714
0.025792
0.0548451
0.0294582
0.0308799
0.0754106
0.0876929
0.0711345
0.0252988
0.0845769
0.0431334
0.0400414
0.0898798
0.040845
0.0850526
0.0259183
0.0971446
0.0592029
0.0249198
0.0847586
0.0573101
0.0558974
0.0520747
0.0879372
0.0910608
0.0277243
0.0342665
0.0937557
0.0699462
0.0299947
0.0960735
0.096411
0.034983
0.0490927
0.0339791
0.0830576
0.0428415
0.0544839
0.025268
0.0831073
0.0775576
0.0236806
0.0915553
0.0866782
0.0256551
0.0337433
0.0321192
0.0665761
0.0756441
0.0390862
0.0287761
0.0803332
0.0736849
0.043715
0.0925317
0.0416439
0.0323216
0.0536946
0.0546867
0.0849891
0.0272139
0.0291175
0.0790819
0.0468543
0.0343072
0.042262
0.0303578
0.0573913
0.0540125
0.0811226
0.0862882
0.0929981
0.0276178
0.0562782
0.0281652
0.0504193
0.0586441
0.0386866
0.0285453
0.0276703
0.0884144
0.013766
0.0295043
0.0294888
0.0571299
0.0775038
0.0918364
0.0947387
0.0645247
0.0410867
0.0558394
0.0259726
0.0281594
0.0338708
0.0223422
0.0256658
0.0337525
0.0789468
0.0861076
0.039085
0.0333097
0.0487048
0.0791328
0.0340732
0.0586808
0.0445229
0.0519393
0.0374804
0.0537451
0.078333
0.079221
0.0597619
0.0271207
0.0605415
0.0897512
0.0299847
0.0314015
0.0527573
0.0771798
0.0598341
0.0290079
0.027858
0.0423868
0.0564021
0.0575387
0.0176686
0.0259844
0.0318838
0.0324073
0.0264056
0.0854873
0.0544566
0.0873058
0.0574123
0.0650895
0.069612
0.0519226
0.028759
0.0829839
0.0280395
0.0435414
0.0424131
0.0512385
0.0389935
0.0596584
0.0470046
0.0580664
0.076304
0.03148
0.0680522
0.0300501
0.0917049
0.0268927
0.0264896
0.0774611
0.0732583
0.0253085
0.0519035
0.0547447
0.028553
0.0751051
0.02918
0.0756921
0.0875685
0.0271766
0.0665898
0.0971757
0.0408207
0.0835962
0.0666226
0.0852818
0.0449747
0.0838281
0.0945795
0.0299227
0.0505433
0.0640816
0.0289677
0.0288084
0.0831268
0.0249562
0.0575507
0.0937921
0.0752497
0.0768043
0.023751
0.0251158
0.0256337
0.0586245
0.0296148
0.0333604
0.0473453
0.04428
0.0314693
0.0296863
0.0292865
0.0410019
0.0580996
0.0259963
0.0516618
0.0246445
0.0251265
0.0279123
0.0897042
0.0733931
0.025675
0.0276535
0.0675663
0.0838091
0.0345604
0.0636356
0.02547
0.0250128
0.0566566
0.029599
0.0777359
0.0241777
0.0651057
0.0349221
0.0920486
0.0197336
0.089978
0.0923038
0.0283827
0.0941517
0.0283071
0.0288905
0.0400654
0.0712435
0.0274736
0.0319036
0.0360814
0.0328858
0.0318661
0.0537777
0.00319997
0.0556435
0.0884114
0.0812647
0.0773862
0.0261527
0.0932365
0.00222142
0.0238612
0.0579273
0.0251997
0.0258958
0.0974874
0.0194309
0.0299279
0.0973077
0.0963872
0.033208
0.0154107
0.0352061
0.071935
0.0261061
0.0797419
0.0916323
0.028083
0.0857375
0.0273001
0.0277988
0.0251859
0.0193067
0.0516998
0.0901481
0.0595711
0.0309004
0.0963334
0.0258384
0.0260712
0.023771
0.0808939
0.0350796
0.0254362
0.0445035
0.0966986
0.0299749
0.0628778
0.0282552
0.038451
0.0312655
0.0319655
0.0396527
0.0234283
0.0373145
0.0244825
0.0248323
0.0923139
0.0333833
0.0430634
0.0259464
0.0532389
0.0431417
0.0879836
0.0226315
0.0410706
0.079266
0.0527272
0.0285863
0.0439298
0.0281758
0.00222013
0.042699
0.0382825
0.0439521
0.0311587
0.0887349
0.0840285
0.0285741
0.0312097
0.0950039
0.0916225
0.067933
0.0416622
0.00237506
0.0330457
0.0297387
0.0436427
0.025222
0.0251395
0.0307764
0.0419094
0.0578993
0.0216425
0.0263123
0.0430856
0.0204432
0.0561965
0.0556664
0.0652119
0.00265396
0.0787102
0.026776
0.0909969
0.0918021
0.0754244
0.0226528
0.0498188
0.0634991
0.0444668
0.00369104
0.0254214
0.0279294
0.0791159
0.0918789
0.0624177
0.0928995
0.025162
0.0284986
0.0383079
0.0306978
0.0326194
0.0314695
0.0256918
0.0710635
0.0741157
0.0905634
0.0934156
0.0834283
0.0716509
0.0970101
0.0218832
0.0496265
0.0898851
0.0431172
0.00289614
0.0258514
0.0550808
0.0235091
0.0608298
0.0252072
0.0408074
0.053595
0.0293853
0.043064
0.0412148
0.0274283
0.0552448
0.026288
0.083855
0.092387
0.0342258
0.0837257
0.0834683
0.0530274
0.00222603
0.0926686
0.0365297
0.0255913
0.0944733
0.0197281
0.0741143
0.023646
0.0584395
0.0246905
0.0309686
0.0568572
0.0381684
0.00335926
0.0825447
0.0239582
0.0412478
0.0305521
0.0886777
0.0739965
0.0475595
0.0908449
0.039535
0.0688099
0.0338954
0.04184
0.0938189
0.0144076
0.0488617
0.029356
0.0320529
0.0589963
0.0324356
0.0748211
0.0575672
0.0466035
0.0933082
0.0233748
0.0327228
0.0513943
0.0271921
0.0740252
0.0703087
0.0031162
0.0514319
0.0408954
0.0906976
0.0279175
0.0550043
0.0248716
0.0256959
0.0459185
0.0251049
0.067048
0.0949756
0.0925265
0.0467013
0.0654185
0.0690113
0.050424
0.0297376
0.0459002
0.0310138
0.0464553
0.0406134
0.036364
0.048683
0.0945986
0.0250138
0.089583
0.00416951
0.0542503
0.0156311
0.00380172
0.0763482
0.0237696
0.0886497
0.0350609
0.0247042
0.0248327
0.0922833
0.0303097
0.0271344
0.0292989
0.0803098
0.0338389
0.037915
0.0435063
0.0512731
0.0504015
0.0283748
0.0730777
0.0339758
0.0370898
0.0826981
0.0261584
0.0499902
0.0347955
0.00342388
0.0593913
0.02697
0.032689
0.0823396
0.0951735
0.0336493
0.0265503
0.088736
0.090627
0.0889135
0.0890748
0.0872071
0.0827774
0.0272429
0.058966
0.0830719
0.0425708
0.040793
0.025474
0.0275576
0.0398863
0.0241129
0.0633205
0.0859259
0.017763
0.0241887
0.0230099
0.0238088
0.0335963
0.0398545
0.0254185
0.00243228
0.0818724
0.0458611
0.0264928
0.0922593
0.0796148
0.0411319
0.0411113
0.0650161
0.0319387
0.0319442
0.035664
0.0405991
0.0322795
0.0274105
0.0467415
0.0361612
0.0917266
0.0433061
0.0558507
0.0804968
0.0300048
0.0564098
0.0368617
0.0454986
0.0393771
0.0316522
0.0635806
0.0414445
0.033598
0.0440314
0.00267977
0.0337882
0.0778066
0.094664
0.00502544
0.0432186
0.0923745
0.0862687
0.0281701
0.0880453
0.0322652
0.0510023
0.0936625
0.0253862
0.0313301
0.0859122
0.0273893
0.0357397
0.0260151
0.0273268
0.0788738
0.0244057
0.0864665
0.0114432
0.0573696
0.0253613
0.0437338
0.0338442
0.0339352
0.025747
0.0791862
0.0895984
0.0770333
0.0693458
0.0451351
0.0320284
0.0851698
0.0392634
0.091428
0.00812223
0.0494848
0.0421464
0.0237174
0.0251803
0.0744512
0.0793354
0.0343095
0.0264446
0.0349366
0.0413861
0.0267464
0.046731
0.0527994
0.0570036
0.0423155
0.0464449
0.0399161
0.0314886
0.0826892
0.039853
0.03559
0.0445633
0.0538359
0.0480891
0.0477172
0.0295776
0.0298333
0.00463985
0.00236396
0.0667195
0.0534395
0.0752834
0.0248306
0.0257811
0.0502815
0.0285608
0.036698
0.0859515
0.0885449
0.0258012
0.0927265
0.0113427
0.0821172
0.0198526
0.0859404
0.0353374
0.0340711
0.0605832
0.0485665
0.0688169
0.0066511
0.0972306
0.0230406
0.0541629
0.0257562
0.0843481
0.0700534
0.0557948
0.0261645
0.0424963
0.0771072
0.031933
0.0518381
0.0420479
0.0784609
0.0245702
0.0587263
0.0270482
0.0878286
0.0250036
0.0249221
0.0438762
0.0484246
0.0872208
0.064605
0.031994
0.0434415
0.0471248
0.0232071
0.0618045
0.0389951
0.0235813
0.0150779
0.0899511
0.0236124
0.0268106
0.00416099
0.00496045
0.025193
0.0906452
0.0842024
0.0342821
0.0699007
0.0883871
0.0255215
0.0869696
0.0749547
0.0859098
0.0408121
0.085832
0.0234236
0.00444057
0.0235741
0.0587005
0.036676
0.0266034
0.0905972
0.0316747
0.0519967
0.0838703
0.0439273
0.0315453
0.0919259
0.0853196
0.0476106
0.00292775
0.0970408
0.024617
0.0327799
0.0400727
0.0341197
0.0331647
0.0261322
0.0542015
0.00510017
0.0345775
0.0678085
0.076082
0.0267061
0.0236783
0.0238215
0.0254275
0.0423964
0.042194
0.06581
0.0424705
0.091585
0.0552128
0.0303436
0.0314074
0.0257503
0.0891523
0.0967935
0.024373
0.049258
0.0752446
0.0453897
0.0683123
0.0906962
0.0290471
0.030703
0.0365269
0.026203
0.0337391
0.0607249
0.0873947
0.0239641
0.0240676
0.018862
0.0051178
0.0701534
0.0256532
0.0248438
0.0782902
0.0588871
0.0243457
0.0242691
0.0796576
0.0933864
0.0871717
0.0414697
0.087647
0.0535413
0.0923198
0.00532921
0.0296147
0.0902032
0.0274568
0.012706
0.0261332
0.0297116
0.052364
0.0587381
0.0479726
0.0756426
0.0239181
0.0450377
0.0563396
0.0692514
0.0405757
0.0888558
0.00254629
0.0758525
0.0280974
0.0049926
0.0677284
0.0259148
0.0275701
0.0532888
0.092793
0.0235953
0.0756348
0.0792235
0.0236399
0.0490053
0.0519983
0.0300317
0.0279896
0.0239835
0.0330783
0.0382076
0.0278232
0.00482425
0.0939256
0.0244526
0.0824604
0.00535937
0.0900172
0.0596174
0.00317777
0.0710186
0.024484
0.067245
0.0619547
0.0231613
0.0384111
0.025281
0.025426
0.0338942
0.07434
0.0272717
0.00611041
0.0256787
0.0346275
0.0253016
0.0270643
0.0233506
0.0856543
0.00303347
0.0404239
0.0253002
0.0580729
0.0302926
0.0418577
0.0740402
0.0927719
0.0741104
0.0250797
0.0248662
0.0532688
0.0245718
0.035283
0.0262217
0.063705
0.0800304
0.0134616
0.00569623
0.0278699
0.0275375
0.0649206
0.0625449
0.0478838
0.0577165
0.0557441
0.0301227
0.0905015
0.0908342
0.0500102
0.00613104
0.0326855
0.0250481
0.0512245
0.0471153
0.0515998
0.0251943
0.0298127
0.0447321
0.0747492
0.0599267
0.0583903
0.0333109
0.0340097
0.0254799
0.0857523
0.0701833
0.00272109
0.0248414
0.091284
0.0881861
0.0395054
0.02435
0.0933594
0.05529
0.0191071
0.0230191
0.0596892
0.0437157
0.0264048
0.0554752
0.0101235
0.0731444
0.0167841
0.0918554
0.0535415
0.0256275
0.0617933
0.0239215
0.034081
0.045312
0.0757891
0.0256621
0.0239869
0.00519286
0.0275471
0.0247101
0.00424861
0.0698519
0.0741589
0.0252872
0.0249666
0.0347062
0.00325907
0.0260545
0.0260315
0.0286012
0.0939748
0.0272801
0.0262363
0.0484881
0.0391429
0.00515752
0.0356364
0.00248679
0.0255896
0.016682
0.0657988
0.0620478
0.066149
0.0163376
0.0244141
0.0265029
0.0250589
0.0279411
0.00385398
0.0360132
0.028503
0.0867824
0.03128
0.0350222
0.095613
0.019634
0.0299105
0.027185
0.028696
0.0377526
0.0446313
0.0240253
0.0651189
0.0482468
0.0889083
0.0884276
0.00997694
0.0369841
0.0879833
0.0262658
0.0231382
0.0104131
0.0766413
0.0330227
0.0275998
0.0430379
0.0520031
0.0250056
0.0254439
0.0598639
0.0379539
0.0229331
0.0239548
0.0212224
0.0409065
0.0785369
0.0229093
0.0805672
0.00453666
0.0273883
0.00565642
0.0340339
0.0902597
0.0761863
0.0863097
0.0899188
0.0864803
0.0629469
0.0472021
0.0430633
0.0234168
0.0263144
0.0356954
0.0501771
0.0545903
0.00487964
0.0246556
0.025121
0.0259223
0.02492
0.0249941
0.0255246
0.052521
0.038201
0.0262217
0.0518414
0.0284303
0.0276588
0.031881
0.0286351
0.0817671
0.0848889
0.0207598
0.042086
0.0317004
0.0628563
0.0424857
0.0187106
0.0251548
0.0100922
0.0255315
0.0601884
0.090497
0.048997
0.0390437
0.0259295
0.0401035
0.0387988
0.0904853
0.0377242
0.0277274
0.0459013
0.0243015
0.0850892
0.0326146
0.0608554
0.034828
0.0323756
0.0527297
0.0454303
0.0737211
0.0662247
0.0389661
0.024783
0.0262745
0.0340852
0.0828596
0.0160255
0.067418
0.0667874
0.0228117
0.0785183
0.04907
0.0705661
0.0552065
0.0753735
0.015831
0.0290866
0.0741927
0.0865747
0.0269373
0.0149731
0.0570652
0.027384
0.0381055
0.0440502
0.0109134
0.0905947
0.0129072
0.0398724
0.0488634
0.0860841
0.0783935
0.0249771
0.0333686
0.0457814
0.0367388
0.0245111
0.0250923
0.0224477
0.0378214
0.0271926
0.0240365
0.0931726
0.051462
0.0825971
0.086491
0.0185807
0.0252396
0.0604594
0.0627817
0.0218355
0.050324
0.044513
0.0241797
0.0775292
0.0747859
0.0865036
0.0222676
0.0263285
0.0254783
0.0115269
0.0486201
0.0543288
0.026565
0.0316966
0.0781101
0.0259345
0.0233191
0.0418359
0.0825406
0.0260229
0.0422736
0.031313
0.0453278
0.0295485
0.0866655
0.0848162
0.0868325
0.0588339
0.027636
0.0579002
0.0269623
0.0719984
0.0949387
0.0449738
0.0425231
0.0103168
0.0851361
0.0145395
0.0465923
0.0368578
0.072131
0.0253267
0.0542426
0.023645
0.0250149
0.0270416
0.088728
0.0519922
0.0455068
0.0906275
0.0360638
0.0666409
0.0257496
0.0596683
0.0241424
0.0500322
0.00248119
0.0640392
0.0245942
0.0254328
0.0851456
0.0227384
0.0735596
0.0256531
0.0683497
0.0262832
0.0542932
0.0250881
0.0744689
0.0549647
0.0850854
0.0800782
0.0306931
0.016283
0.0223593
0.0482074
0.0732348
0.0566525
0.0632704
0.0565451
0.0676947
0.0776138
0.0258021
0.0807722
0.0802591
0.0438957
0.083452
0.0776745
0.025336
0.0337282
0.0318823
0.0856751
0.0252948
0.0253438
0.024891
0.0867653
0.0927825
0.0473366
0.0575714
0.0645742
0.0249248
0.0477211
0.0342335
0.0406497
0.0252048
0.0503864
0.0489351
0.0488597
0.0292587
0.0871354
0.00446202
0.0247877
0.042523
0.0745193
0.054103
0.0761861
0.0278384
0.0240993
0.0243302
0.0845221
0.0258277
0.0229419
0.0671546
0.0756041
0.0251397
0.0414221
0.065811
0.00687636
0.0708133
0.0862049
0.0022664
0.0201975
0.0494432
0.0840634
0.0673394
0.0284008
0.0353255
0.0541026
0.0245672
0.0313882
0.0211076
0.0290715
0.0673097
0.0813502
0.0294933
0.0834294
0.0781447
0.0325982
0.0210464
0.0329556
0.0766926
0.0616878
0.0473356
0.0392587
0.0902054
0.049001
0.041137
0.0386615
0.0427755
0.0894487
0.0457156
0.0592581
0.0516689
0.0414567
0.0308604
0.0311553
0.0243233
0.0231932
0.0508751
0.0671924
0.0323797
0.0460765
0.0488773
0.025276
0.0802894
0.0340427
0.0560381
0.0248551
0.0923639
0.0346455
0.0294804
0.0396923
0.0191602
0.0283843
0.0312273
0.0232971
0.0297648
0.0310094
0.0480459
0.081546
0.0314817
0.0875412
0.0280107
0.0391523
0.0622093
0.0639661
0.0304
0.0907678
0.0339191
0.0610791
0.0365868
0.0685966
0.0359873
0.00242813
0.0945483
0.0290863
0.0629475
0.0476895
0.0348757
0.0242343
0.0244701
0.0357059
0.0277197
0.0314796
0.0302994
0.0250162
0.0506598
0.0281786
0.0236563
0.0322037
0.0134809
0.0724617
0.00526189
0.0608806
0.046551
0.0923539
0.025832
0.0256385
0.0361905
0.0253221
0.0254265
0.0653886
0.0340505
0.0374081
0.0701365
0.0331206
0.0232587
0.00259271
0.0842324
0.0267934
0.00423011
0.0170785
0.0694571
0.0174556
0.0218132
0.0266675
0.0752474
0.0311878
0.0231456
0.0290028
0.034894
0.0236
0.0895965
0.0423012
0.0326553
0.0330193
0.0756352
0.0192647
0.0256984
0.0722452
0.0811695
0.0618906
0.0239262
0.0382645
0.0458806
0.0514202
0.0453822
0.0879614
0.072742
0.039519
0.0335849
0.0235159
0.0288683
0.048282
0.0279705
0.0876134
0.0124324
0.0256392
0.0349502
0.0738734
0.0445497
0.085555
0.0547733
0.0687677
0.0432834
0.0240742
0.0641011
0.0857164
0.0274769
0.0240026
0.0281503
0.0244323
0.0279553
0.0706241
0.0416181
0.050724
0.0746008
0.086074
0.0424239
0.0738453
0.0268022
0.0247894
0.0276268
0.0742234
0.0217293
0.0222782
0.0230601
0.0431722
0.0315074
0.0234423
0.073532
0.0853747
0.0764353
0.0275784
0.0535851
0.0912392
0.0419037
0.0262537
0.0285612
0.0331222
0.0819858
0.0241989
0.0396172
0.0346609
0.0508284
0.0239241
0.0290681
0.0406388
0.0073988
0.00649799
0.0358941
0.0509804
0.0230085
0.0269726
0.0509569
0.044563
0.0292852
0.0834986
0.0554724
0.0250262
0.0260991
0.0323446
0.0381878
0.0246026
0.0250177
0.0748802
0.0495438
0.0250861
0.0763398
0.0791723
0.0630882
0.03833
0.0237812
0.0300166
0.037251
0.0804089
0.0435702
0.0971127
0.089021
0.0861962
0.023868
0.0240865
0.0381659
0.0275614
0.0265601
0.0178195
0.0765194
0.0247003
0.0249316
0.024488
0.0229359
0.0671184
0.0120819
0.0367052
0.0222946
0.0224223
0.0226876
0.0100252
0.0719604
0.0348814
0.0247717
0.0791584
0.0328612
0.0381271
0.0827531
0.0336069
0.0232252
0.0767663
0.026561
0.0338291
0.0255304
0.0286159
0.0297501
0.0495104
0.0838134
0.0246936
0.0705121
0.0432909
0.0476752
0.0350776
0.0888025
0.0888654
0.0249427
0.0249982
0.0288735
0.0108877
0.0406375
0.075266
0.0875942
0.058979
0.0144651
0.0881122
0.0172419
0.02943
0.0614746
0.0585007
0.0890728
0.0853329
0.033916
0.083893
0.0217006
0.0311359
0.0244255
0.0428687
0.0248487
0.0877036
0.0167301
0.0256668
0.0252987
0.0223215
0.0210043
0.0252544
0.0393446
0.0651056
0.0398024
0.0682037
0.05834
0.0413264
0.0246968
0.0265861
0.0375911
0.0386561
0.0259556
0.0242974
0.0305057
0.0144586
0.024144
0.0189175
0.0236478
0.0330708
0.0274527
0.0234261
0.041279
0.0374368
0.0796794
0.0897226
0.0393509
0.0243276
0.0435163
0.0448576
0.0723288
0.0288189
0.0291276
0.0389674
0.0258975
0.0852208
0.0299796
0.0243197
0.0258145
0.0246468
0.0394341
0.0357795
0.0779804
0.0828144
0.0221368
0.0307142
0.08334
0.0456777
0.080555
0.0841285
0.0451805
0.0814395
0.0820774
0.0718296
0.05238
0.018546
0.0218591
0.0208857
0.0513514
0.0761812
0.025281
0.0591039
0.0831974
0.0742105
0.0215165
0.0248833
0.0326173
0.0237091
0.0244791
0.0814861
0.0252175
0.0323197
0.0805512
0.021997
0.0865599
0.0844302
0.0298167
0.0160412
0.0302748
0.0627401
0.0820817
0.0200774
0.022376
0.0218305
0.0899947
0.124089
0.139203
0.144723
0.144656
0.14066
0.134089
0.125896
0.116834
0.107456
0.098148
0.08918
0.0807264
0.0728874
0.0657069
0.0591886
0.0533085
0.0480251
0.0432866
0.0390343
0.0893704
0.123246
0.138401
0.14403
0.144112
0.140284
0.133889
0.125855
0.116917
0.107648
0.0984296
0.0895295
0.0811242
0.0733161
0.066152
0.0596375
0.0537498
0.0484478
0.0436778
0.0393774
0.0887193
0.122389
0.137563
0.143315
0.143539
0.139881
0.133653
0.12579
0.116986
0.107832
0.0987063
0.089877
0.081522
0.0737462
0.0665986
0.0600871
0.0541904
0.0488682
0.0440668
0.0397268
0.088044
0.121508
0.136693
0.142573
0.142938
0.139451
0.133392