/*--------------------------------*- C++ -*----------------------------------*\
  =========                 |
  \\      /  F ield         | OpenFOAM: The Open Source CFD Toolbox
   \\    /   O peration     | Website:  https://openfoam.org
    \\  /    A nd           | Version:  10
     \\/     M anipulation  |
\*---------------------------------------------------------------------------*/
FoamFile
{
    format      ascii;
    class       volScalarField;
    location    "450";
    object      nut;
}
// * * * * * * * * * * * * * * * * * * * * * * * * * * * * * * * * * * * * * //

dimensions      [0 2 -1 0 0 0 0];

internalField   nonuniform List<scalar> 
23845
(
0.0156483
0.0151388
0.00805104
0.013745
0.0190508
0.0268111
0.0096373
0.00953356
0.0276043
0.0173182
0.0234627
0.0265158
0.0241861
0.0273712
0.0070223
0.0197858
0.0248558
0.0251686
0.0230448
0.0261078
0.014705
0.0239742
0.0160241
0.0271069
0.0196967
0.0247478
0.0118839
0.0264633
0.00341283
0.0260975
0.0147219
0.00124215
0.00546623
0.0249194
0.0264568
0.026205
0.00106895
0.0264942
0.026772
0.0260608
0.0224609
0.025332
0.0245601
0.0255259
0.0269984
0.0247336
0.0198142
0.0201268
0.00219293
0.00194438
0.00556494
0.0102155
0.00125548
0.0267322
0.00119973
0.0243525
0.0153525
0.0106513
0.0146825
0.0142981
0.00599078
0.0254072
0.0206757
0.00420231
0.0270224
0.024636
0.0116748
0.0243579
0.0275955
0.022621
0.00793371
0.00826216
0.0243164
0.00774434
0.0269158
0.00722253
0.0265906
0.0267024
0.0126962
0.0242537
0.01343
0.00834838
0.0152782
0.0109082
0.00689293
0.026429
0.00956219
0.00116019
0.0273098
0.0235872
0.00457287
0.0215947
0.0036898
0.0263485
0.0102818
0.00535127
0.0247284
0.0198137
0.027539
0.0201461
0.0241769
0.0111771
0.0180863
0.000877892
0.00296065
0.0115306
0.0268587
0.0270179
0.0130415
0.0255003
0.0237085
0.0265466
0.00701076
0.0185091
0.0261831
0.016273
0.0263499
0.0187352
0.00359107
0.00670914
0.026662
0.00249367
0.0223547
0.00809092
0.0107568
0.0246994
0.00659391
0.00195374
0.00684404
0.018337
0.00505404
0.0212648
0.0231863
0.0272836
0.0238252
0.0170329
0.000752685
0.0265449
0.0132284
0.0267667
0.00224791
0.0254465
0.0264155
0.0255151
0.021196
0.0255873
0.0174856
0.00767226
0.00545508
0.0227468
0.00602359
0.0244591
0.0111189
0.0258702
0.00680547
0.0231572
0.0191131
0.0264446
0.00471061
0.00501344
0.0219714
0.0070651
0.00977295
0.0271934
0.0236838
0.023504
0.0271381
0.00288107
0.0263729
0.0255789
0.0264198
0.0131306
0.0269436
0.00904759
0.0254815
0.011824
0.0212344
0.0226802
0.0274837
0.0265064
0.0204262
0.0207591
0.00803799
0.0241098
0.020432
0.0237529
0.0254447
0.0103497
0.00284284
0.0252423
0.00371112
0.0270952
0.0262498
0.0263807
0.0214222
0.0269858
0.002011
0.00289802
0.00081224
0.0230957
0.024165
0.0267193
0.00604272
0.0223837
0.0103999
0.00989796
0.00776602
0.0268873
0.0133616
0.0251488
0.0246711
0.00275017
0.0208595
0.0263396
0.00325839
0.00119556
0.0231251
0.0253564
0.000534494
0.00571273
0.0251073
0.00746185
0.00188177
0.0223995
0.0255798
0.00623561
0.000744385
0.0270284
0.0263919
0.0219257
0.0265661
0.00285763
0.0265222
0.0242315
0.0195616
0.00489423
0.0268226
0.0145595
0.0252088
0.0120963
0.00156852
0.0180457
0.0115289
0.0203406
0.00300837
0.0205085
0.0269465
0.0270297
0.0109817
0.00718901
0.025375
0.0263437
0.00555844
0.0235345
0.00803123
0.0046624
0.0067173
0.00699569
0.0262223
0.0268898
0.00082845
0.0263789
0.00715497
0.0235231
0.0238698
0.0258396
0.0124741
0.00686868
0.0157105
0.0141728
0.0266305
0.0127757
0.0050182
0.0262522
0.0242272
0.0261464
0.00676881
0.0269423
0.00202103
0.0163118
0.011266
0.0263636
0.00716584
0.0218076
0.0264218
0.0055691
0.0100689
0.0265539
0.0100377
0.00724659
0.011923
0.00366578
0.00469474
0.00666605
0.0110001
0.0264712
0.00486135
0.0268996
0.0264129
0.00390309
0.00440862
0.00641858
0.0047802
0.0145778
0.0263148
0.0149049
0.00382338
0.00520043
0.0241985
0.00187363
0.0047489
0.0121682
0.0239011
0.0264013
0.0110624
0.00215589
0.00501133
0.0231912
0.0043782
0.0248277
0.00275841
0.00283567
0.00460659
0.0262606
0.00723833
0.026407
0.0135787
0.017806
0.00692728
0.025298
0.00863213
0.0225018
0.00531379
0.0263403
0.0063058
0.0140959
0.0125587
0.0253885
0.0256181
0.0129005
0.0123438
0.00497431
0.0238693
0.0241424
0.0261572
0.00151048
0.0263173
0.00599172
0.0131792
0.0060352
0.0133871
0.00503569
0.00184384
0.00649584
0.00125877
0.0262961
0.0256733
0.0248222
0.00751473
0.0112866
0.00729599
0.0255033
0.0177414
0.0221384
0.00315696
0.0271221
0.00681575
0.0263407
0.00372229
0.024862
0.0254766
0.00400771
0.00313661
0.0264315
0.0264413
0.0051767
0.0103595
0.0134584
0.0255726
0.0116243
0.0077047
0.0263592
0.0157936
0.0264324
0.0242305
0.0266098
0.0266514
0.0125026
0.0247161
0.011214
0.0110203
0.02566
0.00357415
0.00287612
0.00427536
0.0041193
0.0242734
0.0267936
0.0225217
0.0263153
0.011963
0.0160448
0.00882841
0.0114624
0.0141091
0.0077629
0.0269176
0.00337627
0.00307129
0.00741638
0.00653958
0.0243345
0.00902159
0.0059185
0.0183865
0.010304
0.0161624
0.0244937
0.0263924
0.0167842
0.00391302
0.0258453
0.0273529
0.0132418
0.00775554
0.0144658
0.00368943
0.0146857
0.00914061
0.00823994
0.0269322
0.025255
0.00470865
0.0254777
0.0254064
0.0258999
0.0264543
0.0238151
0.00444289
0.0103804
0.00715109
0.00338589
0.00277848
0.00652517
0.0152921
0.00454602
0.0262006
0.0177003
0.026393
0.012048
0.0128078
0.0256243
0.00314308
0.0263099
0.0245978
0.0051688
0.0150797
0.0219989
0.00799143
0.0266573
0.0123017
0.014175
0.000757893
0.016385
0.0263224
0.0267426
0.0263597
0.00310798
0.0241145
0.00582233
0.0260874
0.0269622
0.0159036
0.0071327
0.00416572
0.0201195
0.0258094
0.00324711
0.0264987
0.0229643
0.0190636
0.0175192
0.0151823
0.0243886
0.0248243
0.00822079
0.0265835
0.0264097
0.00908549
0.00654318
0.0249599
0.00483411
0.00567241
0.0183316
0.00991193
0.0197861
0.0258128
0.00965263
0.0271263
0.0263201
0.0100841
0.00242122
0.00545806
0.0196652
0.0114016
0.0122084
0.0239932
0.0232621
0.0263411
0.00594555
0.0152152
0.0048211
0.00111783
0.0155688
0.0263537
0.0240347
0.0169148
0.00541816
0.00598441
0.0255775
0.000783032
0.0264726
0.0252383
0.00418921
0.0239451
0.00931861
0.0078098
0.0046578
0.0148895
0.00390399
0.00508954
0.00418576
0.0219777
0.0168287
0.0234211
0.0232052
0.0266488
0.00566303
0.0211044
0.0127993
0.0073237
0.0266266
0.016689
0.0165429
0.0216626
0.0164795
0.0243993
0.0248071
0.026399
0.024773
0.0259482
0.0264394
0.00815823
0.0256123
0.0103476
0.0123239
0.0256075
0.00508341
0.0263098
0.026225
0.0108722
0.0134794
0.015375
0.0261557
0.0257157
0.00281497
0.00330935
0.0246983
0.00412393
0.0234782
0.0255292
0.00929785
0.0236906
0.0263851
0.0192023
0.0209089
0.00764249
0.00530235
0.00773951
0.0209013
0.0252019
0.0265611
0.021521
0.00796914
0.00441357
0.0257326
0.0241073
0.0253961
0.00783597
0.0257569
0.0169484
0.00620502
0.0145723
0.0244307
0.00656126
0.0256881
0.0259825
0.0265304
0.0252173
0.0264091
0.00946759
0.0263351
0.022111
0.00759658
0.0112136
0.0206762
0.00728373
0.0214729
0.00888237
0.0231929
0.019197
0.018787
0.0145028
0.0213775
0.00406755
0.0164373
0.02321
0.0194197
0.0259879
0.0263651
0.0217832
0.00617356
0.0207228
0.0237938
0.0175914
0.0252041
0.0226342
0.0255369
0.0234103
0.0197984
0.0242024
0.0251389
0.0179221
0.0265132
0.026419
0.00673919
0.0173266
0.0189618
0.0250605
0.0246586
0.0171221
0.0248393
0.0262852
0.023372
0.0161539
0.022309
0.0146483
0.0235491
0.0209729
0.00660587
0.0261519
0.0263758
0.0233406
0.0121522
0.00515735
0.00469791
0.00452954
0.0200203
0.00745116
0.0238849
0.0245205
0.0231377
0.0247831
0.0182908
0.0243128
0.0252807
0.0234842
0.0210303
0.0162731
0.0219535
0.0201903
0.025115
0.0230666
0.0250347
0.0251785
0.0241038
0.0252673
0.0235937
0.023034
0.0245118
0.0227692
0.0253761
0.025437
0.0254171
0.0245778
0.0217719
0.0244743
0.025499
0.023185
0.0212643
0.025551
0.0252224
0.0251001
0.0249657
0.0247689
0.0245931
0.0243235
0.0252339
0.0238913
0.0253082
0.0226592
0.0254048
0.0229506
0.0254594
0.0250229
0.0247415
0.0255612
0.0255703
0.0255699
0.0235174
0.0250029
0.0162184
0.0264542
0.0252116
0.0249275
0.025628
0.0267829
0.0239152
0.0256639
0.0248806
0.0247307
0.0252777
0.0256564
0.0250622
0.026199
0.0205153
0.0215397
0.0230838
0.0257966
0.0247735
0.0257345
0.0252625
0.0262205
0.0252032
0.0240884
0.0252427
0.0225832
0.0256366
0.0264965
0.0257701
0.0272503
0.02574
0.0243099
0.0083135
0.0256123
0.0257479
0.023564
0.0257652
0.02572
0.0260315
0.00816609
0.025483
0.0265969
0.0220189
0.0249578
0.00727734
0.0220873
0.0225324
0.0244695
0.0246833
0.0238076
0.0255223
0.0252684
0.0247477
0.0244173
0.0253874
0.0224497
0.0254689
0.016495
0.0255256
0.025848
0.0244373
0.0245752
0.0236543
0.0131878
0.0228987
0.0259466
0.0203224
0.022883
0.0249218
0.0255973
0.0254408
0.00479122
0.0261325
0.0235478
0.0257902
0.0240701
0.0255746
0.0257753
0.0258008
0.0256219
0.0250267
0.0247969
0.0255333
0.0257223
0.0252159
0.017657
0.0252109
0.0259624
0.0254544
0.0255265
0.0250347
0.0234116
0.0239504
0.0235284
0.0243414
0.0253694
0.0258205
0.0251394
0.0255063
0.0175567
0.0213303
0.0243231
0.0234733
0.0258413
0.0251483
0.00420928
0.0239621
0.0219966
0.0212809
0.0229842
0.0226996
0.0210237
0.0233371
0.0225114
0.023459
0.022716
0.0231905
0.0237701
0.023104
0.0233584
0.023561
0.0224324
0.0225585
0.0235503
0.0226038
0.0204414
0.0256728
0.0255276
0.00887655
0.0240796
0.0254158
0.0258122
0.0256503
0.021098
0.0248375
0.0234301
0.025006
0.0248782
0.0220619
0.0220067
0.0215092
0.0206058
0.0254274
0.0259254
0.0254833
0.0249438
0.0221806
0.0264524
0.00776296
0.0264512
0.0208232
0.0251971
0.0231585
0.0259319
0.0247944
0.0212932
0.0222023
0.0189464
0.0198786
0.021991
0.0184361
0.0232037
0.0228623
0.0239487
0.0240964
0.0244623
0.024675
0.0238544
0.0256972
0.025866
0.0212129
0.0258287
0.0219006
0.0204152
0.0245397
0.0218844
0.0186975
0.0220625
0.0241745
0.0211681
0.0247799
0.0195944
0.0227775
0.0245691
0.0181262
0.0230504
0.0238074
0.0247961
0.0258518
0.025142
0.0167988
0.0250676
0.0253263
0.02527
0.0255236
0.0254066
0.025883
0.0235696
0.00368027
0.0263661
0.0253532
0.025015
0.0249526
0.0219026
0.0247583
0.0257384
0.0213664
0.025472
0.02546
0.00614865
0.00261231
0.0256209
0.0256981
0.0262859
0.0167714
0.0254358
0.00672923
0.0256213
0.023158
0.0229731
0.022481
0.0253936
0.0257065
0.0246868
0.0211715
0.0258549
0.0158847
0.021868
0.0235634
0.0257266
0.0216952
0.0251949
0.0249261
0.0248906
0.0239011
0.0212202
0.0253899
0.0248124
0.0247129
0.0244032
0.0254012
0.0235223
0.0243337
0.0235549
0.0226701
0.0232583
0.0245614
0.0203227
0.025928
0.0255221
0.0246125
0.0255733
0.0261409
0.0256408
0.0222509
0.0255461
0.025936
0.0243847
0.0231429
0.0238836
0.0251656
0.0158539
0.0259596
0.0245349
0.0255838
0.0256492
0.0244069
0.0240618
0.0246245
0.0220766
0.0168814
0.0252403
0.0257513
0.0244513
0.0240808
0.0259614
0.019519
0.024966
0.0250373
0.0245232
0.0197956
0.0232654
0.0244793
0.024034
0.02398
0.0214789
0.0231786
0.0225029
0.0243554
0.0248771
0.025127
0.0257034
0.0232186
0.0222162
0.0246783
0.00183214
0.0254325
0.00522219
0.0247604
0.0261493
0.00199774
0.0259708
0.0245887
0.0263936
0.0243626
0.0257153
0.025815
0.0257297
0.0251641
0.0236483
0.00560366
0.0259158
0.0251042
0.0229824
0.0199125
0.0188946
0.0176742
0.0242601
0.0258787
0.025271
0.0256091
0.0262663
0.0266569
0.0265286
0.0207031
0.0229081
0.0203538
0.0189852
0.0197973
0.0185677
0.0180875
0.0242459
0.0257351
0.0228231
0.0218901
0.0215994
0.0244969
0.0221431
0.0246794
0.0249369
0.0249105
0.025623
0.0250278
0.0252758
0.025623
0.0253034
0.0254221
0.0254315
0.0256937
0.0256129
0.0250722
0.0170166
0.0236205
0.0259327
0.017756
0.0259771
0.0255191
0.0253747
0.0264259
0.0251035
0.0255042
0.0253255
0.0255354
0.0237123
0.0249636
0.0216112
0.0237107
0.0259881
0.0172884
0.0252903
0.0263883
0.0251685
0.0232649
0.0231113
0.00431409
0.00870444
0.0252161
0.0222054
0.0217068
0.0243122
0.0250607
0.0259615
0.0245837
0.0231681
0.0247934
0.0250228
0.0251346
0.0251747
0.00278841
0.0253198
0.0201266
0.0258138
0.0254707
0.0203783
0.0233173
0.0243863
0.00457527
0.025509
0.0238792
0.0236714
0.0255957
0.0261378
0.0257572
0.0259484
0.0256494
0.0231201
0.0256306
0.0256782
0.0156244
0.0260162
0.025952
0.0260178
0.0149077
0.0246684
0.0257827
0.0229043
0.0245624
0.0272868
0.0259067
0.0248033
0.0230345
0.00896313
0.0245009
0.0257965
0.0222599
0.0238218
0.0228462
0.0243238
0.0247365
0.0260278
0.0252858
0.0255888
0.0253928
0.0260025
0.0233042
0.0250419
0.0258988
0.026044
0.0253021
0.0248339
0.0126798
0.0102085
0.0260173
0.0253998
0.0258389
0.0204602
0.0245332
0.0242582
0.0238471
0.0258569
0.0139144
0.026014
0.0268161
0.0260483
0.0239841
0.0255971
0.0234491
0.0236267
0.0260829
0.0215724
0.0249189
0.0249243
0.0243376
0.0256869
0.0232905
0.0238767
0.0237932
0.0229914
0.0245988
0.025989
0.0243507
0.0251539
0.0232695
0.0255644
0.0234153
0.0221382
0.0203443
0.0234931
0.0230582
0.019615
0.0232954
0.0223815
0.0187629
0.023449
0.0225554
0.0178183
0.0226499
0.0229468
0.0183403
0.0222088
0.0192118
0.0265849
0.0258195
0.0185515
0.0268341
0.0262322
0.0207391
0.0207341
0.0215458
0.0245014
0.017848
0.0255077
0.0254579
0.0196462
0.02449
0.0260492
0.02474
0.0198768
0.00251878
0.0261112
0.0257952
0.026046
0.0264956
0.0260746
0.0255915
0.0257889
0.00647699
0.0253792
0.0256362
0.0237869
0.0239858
0.0244538
0.026
0.0154769
0.0246071
0.0238573
0.0182646
0.0243065
0.025168
0.0260979
0.0255153
0.00528551
0.0260984
0.0177222
0.0242531
0.023979
0.00983157
0.0133104
0.0226748
0.0257012
0.0249736
0.0190091
0.0256113
0.0255596
0.0253664
0.0155893
0.0264076
0.0257095
0.0240052
0.0197495
0.0230369
0.023995
0.0254843
0.026124
0.00371958
0.0236693
0.023383
0.0191134
0.0265077
0.000894453
0.0251571
0.00446814
0.0261186
0.0188956
0.0244593
0.02484
0.0260452
0.024341
0.0242335
0.024727
0.0237219
0.0216039
0.0239321
0.0246885
0.0261245
0.0216432
0.0217219
0.0270387
0.0242559
0.0248634
0.0239935
0.0223342
0.0238861
0.0255557
0.0228616
0.0235066
0.0171869
0.0249645
0.0187493
0.0263817
0.0251467
0.0259799
0.0254714
0.00692548
0.0197466
0.0205862
0.0271092
0.0210161
0.0248953
0.0246676
0.0194456
0.0246428
0.013191
0.00575858
0.0199593
0.0238803
0.0270376
0.00569644
0.0237764
0.0237173
0.0236931
0.02
0.0156705
0.0261415
0.0255644
0.0058353
0.0117657
0.0260631
0.0200159
0.0189566
0.0250181
0.00520872
0.0257094
0.0160909
0.0250827
0.0194074
0.025237
0.02017
0.0139639
0.0263886
0.0068661
0.0168382
0.0261433
0.00766705
0.0254565
0.0188399
0.0166919
0.0120636
0.0260721
0.0215567
0.0147233
0.0253503
0.0187622
0.0249564
0.0257738
0.0247562
0.0237031
0.0187691
0.0260965
0.0250496
0.0215095
0.0234941
0.0257006
0.0254098
0.0253147
0.0248091
0.0241767
0.0182759
0.0114184
0.0197281
0.0260438
0.0241772
0.026273
0.0242364
0.0241615
0.0253948
0.00695402
0.024619
0.018603
0.000975638
0.0260888
0.0258783
0.0228766
0.0223827
0.0185698
0.015734
0.0245475
0.0254812
0.024997
0.0268742
0.026238
0.0254254
0.0257961
0.0261734
0.0257141
0.0174774
0.00501978
0.0242766
0.0247695
0.0238623
0.0136116
0.0256338
0.0233958
0.0251444
0.0249016
0.0254975
0.0245629
0.0231632
0.0225852
0.0245965
0.026161
0.0243344
0.00912942
0.00719172
0.0258711
0.0245216
0.0226013
0.0244201
0.0256894
0.0260407
0.0249275
0.0233553
0.0245737
0.00231947
0.0263831
0.00688874
0.0258185
0.0261061
0.0122177
0.0237931
0.0219945
0.0241538
0.0230879
0.0227763
0.0226311
0.0261667
0.0190861
0.0260645
0.0250591
0.0252931
0.0241519
0.0121215
0.0242427
0.0237563
0.0246916
0.0195401
0.00791217
0.0240748
0.0250706
0.0143905
0.0260956
0.0262045
0.0232588
0.0182732
0.00550007
0.00399927
0.0249135
0.0260652
0.0225991
0.0258984
0.0162389
0.0207401
0.0261028
0.0237991
0.0179026
0.0242833
0.0139169
0.0241514
0.0224348
0.0238175
0.0150984
0.0207029
0.0257231
0.0240866
0.00732485
0.0261185
0.0256116
0.0178775
0.0263319
0.0224326
0.0210646
0.0190369
0.00542844
0.0261905
0.0272727
0.0264252
0.00466657
0.0254224
0.0230418
0.0233652
0.0107442
0.0258908
0.0244371
0.0256138
0.0106121
0.0195417
0.026139
0.0233601
0.0262777
0.0264283
0.0245738
0.00992373
0.0238742
0.0261831
0.0260717
0.0172785
0.0226963
0.0231546
0.0220897
0.0262325
0.0263162
0.00735541
0.0258432
0.0230177
0.0263347
0.0219586
0.0100328
0.00559543
0.00261749
0.00819793
0.0124081
0.0258273
0.0194486
0.0260825
0.0259499
0.0253494
0.018349
0.0260552
0.00678565
0.00397051
0.025769
0.025821
0.0153599
1.96528e-05
0.0191709
0.00973073
0.0222607
0.0159482
0.0261636
0.0203055
1.62868e-05
0.0264097
0.0143447
0.0264066
0.0263246
0.0165565
0.00317813
0.00760467
0.0147141
0.0162351
0.0236758
0.00184116
0.0253301
0.0168553
0.0262333
0.0139256
0.0205763
0.0249247
0.0193254
0.0262024
0.025888
0.0264119
0.00269447
0.0148485
0.00769547
0.00756107
0.0259062
0.0155191
0.0266816
0.0268129
0.026403
0.0209499
0.00937917
0.0264214
0.0240662
0.0142465
0.0056287
0.024678
0.0260825
0.011817
0.025863
0.0258052
0.0244197
0.023752
0.0247146
0.0272538
0.0262856
0.00721726
0.0257717
0.0252499
0.0262073
0.020165
0.0130406
0.0213339
0.0277374
0.0122264
0.0186498
0.0199807
0.0260212
0.00396872
0.0240073
1.63581e-05
0.0118587
0.0108879
0.0250382
0.0258637
0.0123917
0.0138174
0.0257056
0.025889
0.0159434
0.0177341
0.0179838
0.0217794
1.70373e-05
0.0257352
0.00694162
0.025203
0.00472673
0.0262651
0.0259566
0.0254654
0.0246811
0.00389995
0.0263265
0.0134135
0.00271186
0.0249483
0.021319
0.0172079
2.13229e-05
0.0205516
0.0266324
0.0215585
0.0210077
0.014222
0.0256641
0.0129837
0.0175046
0.0137588
3.08863e-05
0.0265512
0.0261645
0.0202342
0.00711901
0.0246065
0.0139828
0.0256202
0.0253914
0.0234937
0.0259081
0.00643453
0.025785
0.0263606
0.0171825
0.0206017
0.0116185
0.0143116
0.00581682
0.00818459
0.0165353
0.00213935
0.014729
0.0218986
0.0223952
2.36027e-05
0.0241813
0.012607
0.0266104
0.00437008
0.00481526
0.0254325
0.0248296
0.0227955
0.0251097
0.0253205
0.0262393
0.0249652
0.0265703
0.0138232
0.019548
0.024149
0.0226142
0.0225951
0.014473
1.45162e-05
0.00537527
0.0107664
0.00543103
0.0135342
0.00303388
0.0239209
0.0247347
0.00400391
0.0248681
0.00615759
0.0191961
0.0223915
2.74162e-05
0.0228953
0.0274958
0.012652
0.0259224
0.0104665
0.0159573
0.0208979
0.00805704
0.0253082
0.0155444
0.0229116
0.025297
0.0133618
0.000877204
0.0228615
0.023776
0.0238258
0.0244596
0.0257769
0.00553619
0.0246576
0.0228165
0.0131958
0.0264134
0.0087884
0.02068
0.0262545
0.0202527
0.00607586
2.5507e-05
0.00886854
0.00984482
0.0121961
0.0261543
0.0157271
0.0263911
0.0265875
0.0141772
0.0271167
0.00713551
0.0134666
0.0123477
0.0109216
0.0241887
0.0132878
0.0250402
0.0251562
0.0249766
0.0248429
0.0133839
0.0253395
0.0247324
0.0223362
0.00672062
0.0263235
0.0090226
3.62249e-05
0.0248706
0.00194704
3.25328e-05
0.0149621
0.0264097
0.00489647
0.0231019
0.0269657
0.0262925
0.00582719
0.0259483
0.0260497
0.0259796
0.0169245
0.0254608
0.011514
0.0250254
0.0249556
0.0212458
0.0261293
0.0171166
0.0251442
0.0231186
0.0197395
0.0257306
0.0250407
0.0241184
2.73937e-05
0.0204074
0.0258839
0.00346011
0.0173321
0.0132141
0.0256944
0.0266979
0.0087616
0.0124978
0.00920335
0.0132766
0.00954412
0.0106057
0.0257393
0.0115937
0.0114297
0.0233648
0.0117106
0.0268548
0.00613764
0.00439866
0.00497583
0.0200785
0.009753
0.00118692
0.0273682
0.0264806
0.0264415
0.00832136
0.0125188
0.00363993
1.93131e-05
0.0111416
0.0229132
0.0262736
0.0133078
0.00491022
0.0129951
0.0217427
0.0171651
0.0258166
0.00829934
0.00331587
0.0111532
0.00844845
0.00648127
0.0128849
0.0252145
0.00813429
0.0125002
0.00380757
0.0132996
0.00759323
0.0215889
0.0109415
0.0043606
0.0226432
0.00657276
0.0148216
0.0235663
0.00878248
0.0220046
2.0922e-05
0.00833159
0.0182447
0.0143582
4.67326e-05
0.021541
0.015279
0.00613445
0.0246294
0.0131164
0.0234282
0.0245599
0.0208056
0.0264007
0.0258637
0.0223399
0.0262049
0.0247461
0.0263469
0.0239751
0.0121264
0.0263628
0.0176346
0.000833627
0.00899302
0.0267471
0.0215287
0.0235812
0.00836177
0.0267013
0.00608381
0.00940926
0.0231633
0.0123818
0.0115535
0.00719112
0.0225506
0.0238137
0.0106064
8.72214e-05
0.0063067
0.0251097
0.0263936
0.0271919
0.0227855
0.0160621
0.0250644
0.026345
0.0249899
0.00977507
0.0262521
0.0210113
0.0225239
0.0245888
0.0083393
0.0220586
0.0227109
0.0240287
0.0111001
0.0242423
0.00973392
0.0253641
0.0217803
0.0251068
0.0207283
0.0073957
0.00647986
4.28802e-05
1.81197e-05
0.0218335
0.0208394
0.0104527
0.0264012
0.00577158
0.0234773
0.022883
0.0238734
0.0197968
0.010056
0.0259723
0.0183566
0.000781952
0.00637201
0.00271393
0.0113064
0.0221811
0.00875691
0.00438656
0.0248413
0.0192214
5.47161e-05
0.0172991
0.026484
0.0118335
0.0263297
0.0147257
0.0152397
0.0138445
0.02683
0.0225803
0.0111851
0.0258408
0.0201262
0.025272
0.0153284
0.0265389
0.0112082
0.0250341
0.00980451
0.0272274
0.0253098
0.0230516
0.0219076
0.0108673
0.0118282
0.0257946
0.0243116
0.0246891
0.0264646
0.0210208
0.0250871
0.00260824
0.00184943
0.0085006
0.0264043
0.0260404
3.6062e-05
3.70864e-05
0.00309836
0.00522231
0.0117956
0.0243437
0.0153209
0.00960519
0.0262756
0.0108493
0.023846
0.020065
0.0251471
0.0103516
0.0264507
3.82675e-05
0.0267769
0.00526435
0.0106495
0.0261149
0.00876537
0.023793
0.00431193
0.0158246
0.0222927
0.0243473
0.0083184
0.00493102
0.022866
2.51909e-05
0.0142498
0.0267698
0.00541183
0.0251784
0.00811589
0.0252742
0.0260416
0.024518
3.43007e-05
0.0255466
0.00863087
0.0228582
0.0263244
0.0264444
0.0268513
0.0263913
0.0245699
0.00901914
0.0175152
0.0216569
0.0165412
0.0217339
0.025965
0.0258677
0.0263772
0.00957395
0.018512
0.0263966
0.022037
0.0233849
0.0253251
0.00560431
0.0216672
0.0238294
0.025726
0.0108002
0.0252125
0.0249314
0.0083478
0.0120486
0.0264427
0.0269471
0.00249534
3.63012e-05
0.00447967
0.0269893
0.024623
0.00451805
0.024026
0.0255033
0.0264449
0.0118251
0.0166231
0.00635034
0.0251351
0.0111193
0.0152289
0.00667817
4.2005e-05
0.024285
0.0215625
0.0259811
0.000888694
0.0264051
0.0256739
0.0202427
0.0186856
0.0230191
0.0232395
0.025971
0.0240401
0.0245134
0.0095271
0.0235448
0.00892522
2.06803e-05
0.0137911
0.0260547
2.49223e-05
0.0164152
0.00576799
0.00601573
0.0228594
0.0205202
0.0267518
0.0186171
0.0120498
0.0255977
0.00979783
0.0248458
0.0246262
0.0262122
0.0265383
0.00878431
0.0250944
0.026163
4.15391e-05
0.00587901
0.0253031
0.0107597
4.50542e-05
0.00841577
0.0129252
2.65059e-05
0.00557043
0.0266806
0.017281
0.0184223
0.0266518
0.0223042
0.0263255
0.0245904
0.024428
0.0185895
0.0064305
4.86014e-05
0.0260943
0.00878222
0.0264002
0.0262699
0.0267086
0.010543
2.47628e-05
0.0218002
0.0262247
0.0090887
0.00781508
0.00308361
0.0120896
0.0189558
0.0158173
0.0264631
0.027275
0.0226866
0.02645
0.0100754
0.0266556
0.0171085
0.0127141
0.000916058
4.41008e-05
0.0261623
0.0251655
0.0161395
0.0105826
0.0105956
0.0206602
0.0194023
0.00602423
0.00577421
0.00871813
0.00560351
4.74903e-05
0.00603193
0.0267123
0.024875
0.0231515
0.00480735
0.0272318
0.0227433
0.024456
0.0139767
0.0190183
0.0144281
0.00919412
0.0087904
0.0270678
0.0111423
0.0158691
2.31698e-05
0.0264552
0.00539595
0.0113397
0.00324769
0.02497
0.0114762
0.0149598
0.00188116
0.0266051
0.0183965
0.0223083
0.0262749
0.0244169
0.000627158
0.0226256
0.00131797
0.00726559
0.00357945
0.0263135
0.00571023
0.0264933
0.00956262
0.0215254
0.0134856
0.0264955
0.0263727
3.37339e-05
0.00645864
0.0271844
2.32616e-05
0.0158256
0.0233422
0.0264704
0.0273637
0.00972517
2.42343e-05
0.0258286
0.0263861
0.0245095
0.0161885
0.0263696
0.0267149
0.0207709
0.022174
4.38603e-05
0.023061
1.95599e-05
0.0262236
0.00199961
0.00483122
0.0178237
0.0150413
0.00207864
0.0266291
0.024066
0.0261507
0.0260193
3.55714e-05
0.0243282
0.0261378
0.0122136
0.00745723
0.00967134
0.0177069
0.00203553
0.0250286
0.0261772
0.0260462
0.0097012
0.0099366
0.025615
0.00780776
0.0242615
0.00841172
0.00982465
0.000683828
0.0247164
0.0100418
0.0267747
0.0264772
0.000740157
0.00448398
0.0254118
0.0254577
0.0118918
0.0140394
0.027415
0.0264763
0.0149295
0.0103272
0.0265672
0.0264007
0.00384657
0.0249763
0.0135225
0.0265348
0.00439787
2.92862e-05
0.024923
4.01488e-05
0.00953105
0.0210761
0.0115003
0.0107647
0.0132567
0.00977451
0.0202596
0.0242886
0.0240578
0.0266442
0.0265178
0.0104123
0.022847
0.00589462
3.17411e-05
0.0263958
0.0257033
0.0268096
0.027511
0.0274618
0.0264648
0.0248853
0.0238146
0.0250987
0.0245696
0.0239791
0.025812
0.0252095
0.0246016
0.0223926
0.0222832
0.00232222
0.00810531
0.00836895
0.0092473
0.0230385
0.00290268
0.0259645
0.000709382
0.0264384
0.0211632
0.0107861
0.0137726
0.0227287
0.0259004
0.0249641
0.0027182
0.0215305
0.0113658
0.026085
0.0245827
0.0270274
0.0125561
0.00880015
0.0192887
0.0222327
0.0253312
0.0246505
0.0234504
0.01515
0.0192116
0.0227926
0.0275575
0.0267686
0.0245829
0.0133177
0.00110065
0.00406979
0.0178199
0.0040848
0.0132219
0.00739171
0.0165133
0.0140883
0.00965736
0.00203625
0.026016
0.00642489
0.011871
0.0058768
0.00184065
0.0155613
0.0260371
0.0107328
0.0234394
0.000765739
0.00885668
0.000896712
0.0236449
0.0214158
0.0131762
0.00650161
0.0270366
0.0070325
0.0137439
0.0252119
0.0271075
0.0264095
0.0249282
0.0229475
0.0261764
0.0264413
0.0062058
0.0247551
0.0118905
0.0116913
0.00245722
0.0271848
0.0136019
0.0140441
0.00204971
0.0219058
0.0132879
0.0263876
0.00479215
0.0137402
0.00971105
0.0280572
0.0256412
0.0263931
0.0008251
0.0113111
0.019885
0.0254468
0.00795248
0.0132208
0.0263672
0.0253157
0.0216633
0.00737228
0.0252976
0.0242138
0.00817666
0.0133994
0.0259563
0.00772277
0.0167603
0.00656709
0.0213086
0.00252272
0.00983665
0.0262016
0.0197185
0.00631651
0.0137835
0.0251278
0.000731821
0.0118959
0.0010271
0.0122417
0.0108937
0.0148277
0.0271485
0.00636063
0.0236928
0.0268184
0.0262817
0.0216438
0.0244762
0.003621
0.00891509
0.00912336
0.0168135
0.0252892
0.0151252
0.0263566
0.0208733
1.9194e-05
0.0132017
0.0275966
0.0270272
0.0129743
0.0264907
0.00752736
0.0243933
0.00649699
0.0262197
0.00803767
0.0262141
0.00880918
0.0208146
0.0220026
0.00942341
0.00279285
0.000957828
0.025079
0.00338853
0.0157428
0.0106323
0.0170192
0.0199592
0.0167255
0.019011
0.0264167
0.01852
0.0123874
0.0214137
0.0119519
0.00516968
0.0263119
0.00911669
0.0243575
0.0104837
0.0263826
0.0268849
0.0264029
0.0214834
0.00652754
0.00621805
0.0214584
0.0174709
0.0273072
0.0238569
0.0223146
0.0234919
0.0263449
0.0248185
0.025087
0.0233281
0.0237049
0.0097679
2.57893e-05
0.0260873
0.0224272
0.0138685
0.00551984
0.0193631
0.0250345
0.026852
0.00513118
0.0216454
0.026249
0.0265121
0.00408719
0.0235374
0.0262714
0.024221
0.0182168
0.000213414
0.0109172
0.0221736
1.69124e-05
0.00350294
0.0248353
0.0130397
0.00613554
0.0261335
0.00958008
0.0224647
0.0263944
0.0242009
0.00362545
0.0253507
0.0136983
0.0122474
0.0259758
0.0221074
0.0050159
0.023693
0.0027452
0.0256057
0.0145993
0.0156595
0.0251145
0.0118539
0.00861878
0.0246216
0.0230845
0.0119319
0.023886
0.00909477
0.00356562
0.00589497
0.0218348
0.0231687
0.0259415
0.00820235
0.0254192
0.0252302
0.0233683
0.0188908
0.0258022
0.0253223
0.0225063
0.0269583
0.0124798
0.00947754
0.0203094
0.027413
0.00638517
0.0247817
0.0236287
0.0218762
0.00119897
0.026034
0.0252522
0.00392734
0.0248731
0.0258633
0.0246542
0.012086
0.0258671
0.0155584
0.00676857
0.0246696
0.00784991
0.0209086
0.0258996
0.0066577
0.00864782
0.00410507
0.0233269
0.0168526
0.022105
1.92403e-05
0.00641737
0.0259799
0.0180957
0.0248739
0.00931267
0.0263908
0.0263942
0.0252064
0.0254574
0.0245642
0.025965
0.00339028
0.023034
0.0259425
0.0267091
0.0249676
0.000938559
0.0130966
6.19536e-05
0.0223346
0.0251327
0.00587987
0.026408
0.0264134
0.0239358
0.0262957
0.0262695
0.0195236
0.0240226
0.024312
0.016183
0.00896966
0.00461568
1.30974e-05
0.0140314
0.0263115
2.68453e-05
0.00222285
0.0181873
0.00109486
0.00195597
0.00404537
0.01417
0.0245536
0.00344162
0.0228409
0.00935048
0.0274799
0.0186997
0.0248087
0.0245388
0.00777044
0.0159064
0.00129349
0.0264283
0.0242255
0.0228672
0.0196388
0.0236198
0.0243249
0.0211198
0.0107086
0.0217831
0.00536649
0.0239161
0.025191
0.00937968
0.0256197
0.0241267
0.0206329
0.0247324
0.0163081
0.000828848
0.0263702
0.0253722
0.0136679
0.0219116
0.0127746
0.0109017
0.0162761
0.0227811
0.0276639
0.0142631
0.00868181
0.0260892
0.0258047
0.00675257
0.0259502
0.0262801
0.0177849
0.0246105
0.00428601
0.0223826
0.0119116
0.0241658
0.0239356
0.0240053
0.0271842
0.0261882
0.0152231
0.0250564
0.0294048
0.0279167
0.0127666
0.00840169
0.0277825
0.0182727
0.0106785
0.0141711
0.0256219
0.00986223
0.00826989
0.00389022
0.0263169
0.00542328
0.0233121
0.00999985
0.0257568
0.0122025
0.00293219
0.00586626
0.0263924
0.0260101
0.0105451
0.000116709
6.93819e-05
0.023962
0.00396791
0.0253295
0.0262768
0.0067958
0.012505
0.0252421
0.0135403
0.0210471
0.0268855
0.00539521
0.0026447
0.0116504
0.0265382
0.0272208
0.0174726
0.022749
0.0273259
0.0191191
0.00834141
0.00836041
0.00955234
0.0277231
0.0244603
0.00776788
0.0120724
0.010701
0.0169932
0.00942265
0.0103479
0.0263944
0.026396
0.0228733
0.0252907
0.0263705
0.00101129
0.0138211
0.0263625
0.0262497
0.0263489
0.0254105
0.0198318
0.000854681
0.0085127
0.0252426
0.0286101
0.0281622
0.000667009
0.0151855
0.0099304
0.0266104
0.0123944
0.0257824
0.0229041
0.014502
0.0255956
0.00286731
0.0173118
0.0256186
0.00828874
0.0262985
0.00522354
0.00722459
0.0210337
0.0105395
0.0270711
0.0166771
0.00425307
0.014198
0.0239846
0.00956738
0.00879445
0.0267532
0.0261066
0.00695479
0.000798906
0.0238711
0.0143198
0.0102523
0.01929
0.00102879
0.00904711
0.00101621
0.00710267
0.00615584
0.00618283
0.0103615
0.0140075
0.00827365
0.01282
0.0248151
0.0250057
0.0274483
0.0113048
0.0259653
0.0105554
0.00114396
0.0264049
0.0262023
0.030485
0.0248933
0.026097
0.00879838
0.0166911
0.0124201
0.0145218
0.0100516
0.00903692
0.0259758
0.0259873
0.00898997
0.0227711
0.0264051
0.026935
0.0248572
0.000954432
0.0263945
0.0029329
0.0263964
0.025703
0.00223964
0.0251684
0.0129161
0.00821631
0.012275
0.00808585
0.0250057
0.0265749
0.022972
0.0222333
0.0159326
0.00669468
0.0058382
0.0236425
0.0035545
0.0105954
0.00644657
0.0263996
0.0264221
0.0274532
0.0225975
0.00987602
0.0164784
0.0112955
0.0277383
0.00694104
0.0150464
0.022145
0.0138655
0.011509
0.0224737
0.0135963
0.0137723
0.015694
0.0209854
0.00122703
0.029295
0.0247751
0.0211354
0.0145412
0.0264194
0.00665278
0.0155249
0.00602618
0.028102
0.0266837
0.00892429
0.0264937
0.0270166
0.0158386
0.00468673
0.0251168
0.0159339
0.0286738
0.0103074
0.0147305
0.0259411
0.000777985
0.0259133
0.00693976