/*--------------------------------*- C++ -*----------------------------------*\
  =========                 |
  \\      /  F ield         | OpenFOAM: The Open Source CFD Toolbox
   \\    /   O peration     | Website:  https://openfoam.org
    \\  /    A nd           | Version:  10
     \\/     M anipulation  |
\*---------------------------------------------------------------------------*/
FoamFile
{
    format      ascii;
    class       volScalarField;
    location    "450";
    object      p;
}
// * * * * * * * * * * * * * * * * * * * * * * * * * * * * * * * * * * * * * //

dimensions      [0 2 -2 0 0 0 0];

internalField   nonuniform List<scalar> 
23845
(
-0.113345
-0.152058
-0.247569
-0.245707
-0.130776
0.00114146
-0.234379
-0.25347
-0.000910993
-0.0778991
-0.0234163
0.000606333
-0.00462507
0.000375861
-0.242338
-0.0426818
-0.00633252
-0.00859454
-0.00893952
-0.000455041
-0.131708
-0.0224081
-0.180202
0.00187319
-0.0480906
0.00218583
-0.205617
0.00301704
-0.261768
-0.000230448
-0.239819
-0.24053
-0.253741
-0.00874711
0.000724469
0.000716197
-0.251153
0.000546411
0.00135085
0.00108224
-0.013104
-0.00538447
-0.00426828
-0.00661575
0.00498819
-0.00400024
-0.147862
-0.0363898
-0.232842
-0.264718
-0.240831
-0.236943
-0.232834
0.00245147
-0.243227
-0.00659708
-0.176731
-0.250051
-0.134285
-0.218252
-0.259957
-0.00487589
-0.0315111
-0.262168
0.00261256
-0.0056323
-0.220595
0.00286628
0.00234722
-0.0119581
-0.256259
-0.252644
-0.00131956
-0.241712
0.00220247
-0.24274
0.00061111
0.0002677
-0.249069
-0.00946532
-0.185041
-0.231965
-0.162871
-0.25358
-0.244773
0.000809369
-0.222794
-0.230275
0.00100444
-0.00973929
-0.245505
-0.0193087
-0.264051
0.00195092
-0.247126
-0.250002
-0.00797028
-0.0402762
0.000960854
-0.131912
-0.00760104
-0.234941
-0.0974467
-0.273295
-0.267023
-0.252402
0.00106528
0.00242905
-0.223071
-0.00502685
-0.0207557
0.000157417
-0.249415
-0.059399
0.000335986
-0.115641
0.00288097
-0.0622577
-0.260589
-0.259553
0.000739684
-0.244278
-0.0119729
-0.25663
-0.227381
0.0030502
-0.25901
-0.266074
-0.251614
-0.169745
-0.255362
-0.0563658
-0.0405664
0.000281023
-0.00771027
-0.104734
-0.270965
0.000582913
-0.217631
0.000467784
-0.260605
-0.00547889
0.000873031
-0.00691345
-0.0233302
-0.00502942
-0.0901455
-0.239259
-0.258893
-0.0133792
-0.237876
-0.00165732
-0.209323
-0.001793
-0.249052
-0.0168772
-0.105525
0.00106298
-0.256867
-0.25497
-0.0156422
-0.245665
-0.245946
0.00190209
-0.00759615
-0.0122636
7.18423e-05
-0.247707
-0.000818027
-0.00533308
-0.000643294
-0.246869
0.00280119
-0.256523
0.0012424
-0.248377
-0.0233189
-0.0238944
0.00312881
0.00123344
-0.126863
-0.128883
-0.238595
-0.0184552
-0.0294758
-0.00718931
-0.00466046
-0.253381
-0.263127
-0.00562804
-0.264644
5.14217e-05
0.000399445
0.000555238
-0.0212148
0.00155593
-0.270339
-0.264905
-0.28198
-0.023147
-0.0113951
0.00108229
-0.258962
-0.0503325
-0.253677
-0.247092
-0.249741
0.000775396
-0.156252
-0.00854132
-0.0107614
-0.252468
-0.0319654
-0.00178057
-0.236267
-0.247361
-0.0461635
-0.0060103
-0.262653
-0.254082
-0.00135747
-0.243165
-0.270801
-0.0175024
-0.00505176
-0.243551
-0.265534
0.00282063
0.000279288
-0.0136154
0.00167594
-0.233701
0.00106306
0.00339661
-0.117909
-0.259794
0.00300634
-0.241885
0.00328076
-0.250423
-0.232167
-0.0738912
-0.251437
-0.110566
-0.245469
-0.0361878
0.00129528
0.00796964
-0.247376
-0.236647
-0.00301614
0.00110858
-0.242154
-0.00539489
-0.233658
-0.248162
-0.258835
-0.247922
0.000252407
0.00212961
-0.228644
0.000697948
-0.258262
-0.018788
-0.016069
0.00256185
-0.247502
-0.258555
-0.223018
-0.244719
0.000879888
-0.249423
-0.238244
0.00159198
-0.0194799
0.000369568
-0.247301
0.00365834
-0.277161
-0.180796
-0.253012
0.000927968
-0.24303
-0.0182457
0.000985929
-0.260249
-0.253626
0.00183981
-0.248472
-0.245259
-0.248135
-0.236656
-0.261744
-0.248254
-0.248265
0.000858556
-0.260392
0.0012028
0.000742788
-0.257656
-0.260084
-0.240067
-0.260463
-0.243303
0.00042353
-0.241345
-0.264371
-0.239256
-0.00829907
-0.269339
-0.23752
-0.2045
-0.00722292
0.00330258
-0.24587
-0.262077
-0.26022
-0.037259
-0.249425
-0.00288998
-0.268122
-0.250243
-0.258927
0.000380359
-0.244442
0.0005782
-0.247295
-0.17958
-0.259774
-0.00813362
-0.239383
-0.0200749
-0.24361
0.000707303
-0.256044
-0.242573
-0.24306
-0.00882223
-0.00468694
-0.247863
-0.247942
-0.25886
-0.0228389
0.00319028
0.00497139
-0.282175
0.000849708
-0.248439
-0.248063
-0.241145
-0.239757
-0.26064
-0.266558
-0.2455
-0.233028
0.0026308
-0.00478009
-0.00060282
-0.244709
-0.249616
-0.254391
0.00413693
-0.0849269
-0.016666
-0.26218
0.000724638
-0.256271
-0.0003448
-0.259312
0.0029523
-0.00534855
-0.247356
-0.269849
0.000478094
0.000409854
-0.246326
-0.244678
-0.243055
-0.0047071
-0.252377
-0.24187
0.00131879
-0.165146
0.00432496
0.00289663
0.00102923
0.00165004
-0.247462
-0.0109912
-0.248108
-0.223646
-0.0041246
-0.264946
-0.268779
-0.237004
-0.255529
-0.0155121
0.00438718
-0.0123509
0.000885513
-0.245179
-0.227328
-0.246772
-0.249074
-0.207727
-0.240549
0.000325482
-0.266578
-0.265463
-0.259248
-0.246064
0.0053214
-0.22964
-0.259489
-0.107016
-0.245494
-0.219517
-0.0172089
0.000909633
-0.109599
-0.260972
-0.00263619
0.00164068
-0.248169
-0.258661
-0.140893
-0.271363
-0.236928
-0.255336
-0.254984
0.00158055
-0.00828645
-0.258996
-0.00852588
-0.00310836
0.00215227
0.00120464
-0.0067967
-0.26163
-0.255112
-0.244008
-0.26577
-0.267492
-0.258313
-0.232891
-0.260818
-1.13647e-05
-0.205721
0.00145263
-0.249743
-0.249902
0.000753328
-0.274682
0.00127533
0.00270257
-0.25725
-0.205759
-0.0547933
-0.247301
-0.00041401
-0.177251
-0.246611
-0.26842
-0.193142
0.00187445
0.000654914
0.000829434
-0.234786
0.00133496
-0.251593
0.00107526
0.000448617
-0.231261
-0.259263
-0.263109
-0.108934
-0.000426904
-0.243236
0.000443748
-0.0125523
-0.178589
-0.209335
-0.238189
-0.0231969
-0.0112068
-0.236791
0.000627022
0.000656935
-0.239723
-0.257792
0.00176653
-0.259809
-0.248767
-0.196304
-0.255359
-0.159567
0.000507521
-0.247793
0.00262068
0.00104101
-0.220961
-0.258051
-0.257652
-0.169702
-0.252758
-0.250861
-0.0174197
-0.00697989
0.0002803
-0.25772
-0.238549
-0.259436
-0.251678
-0.235151
0.00179462
0.00165782
-0.218761
-0.251802
-0.250517
0.000728386
-0.243908
0.0011932
-0.00852746
-0.261877
-0.00070941
-0.24023
-0.247125
-0.261706
-0.161827
-0.256729
-0.258126
-0.267794
-0.0842534
-0.179644
-0.00778833
-0.00718572
0.000436684
-0.260276
-0.132095
-0.249371
-0.253452
0.00440356
-0.165988
-0.166823
-0.0189824
-0.164395
-0.02471
-0.000690438
0.000148278
-0.00176068
-0.00208621
0.000836106
-0.2562
-0.00338524
-0.251608
-0.18995
-0.00399112
-0.257628
0.000555426
0.00221834
-0.247129
-0.247917
-0.188513
-0.00157523
-0.00278804
-0.269742
-0.266501
-0.000188816
-0.262012
-0.00557679
0.000924169
-0.235541
-0.00774851
0.00135688
-0.0500916
-0.110063
-0.258902
-0.245163
-0.247646
-0.131457
-0.000443632
0.000702059
-0.0195153
-0.242072
-0.260812
-0.00373416
-0.000676899
0.000258956
-0.245889
-0.000476345
-0.191354
-0.245985
-0.136756
-0.0165704
-0.252294
-0.00644446
0.00259838
0.00428357
-0.00820476
0.000613016
-0.244372
-0.00013003
-0.107529
-0.241275
-0.252098
-0.0461588
-0.245614
-0.11965
-0.236158
-0.0160289
-0.1768
-0.110126
-0.184526
-0.109069
-0.260594
-0.108102
-0.0612978
-0.0902229
-0.000664825
8.04328e-05
-0.111187
-0.256293
-0.141866
-0.0121245
-0.132419
-0.0110211
-0.0118133
-0.00694118
-0.00787218
-0.0535525
-0.00430848
-0.00335873
-0.19697
0.000623353
0.000567835
-0.249324
-0.0994747
-0.057242
-0.00135913
-0.0168331
-0.166513
-0.0116937
0.00137991
-0.00652318
-0.10314
-0.0392247
-0.130051
-0.00507147
-0.0426561
-0.249617
0.000189566
0.00107065
-0.0662446
-0.251637
-0.261164
-0.264819
-0.259155
-0.0438427
-0.258548
-0.0222511
-0.0127304
-0.00921835
-0.0091672
-0.130498
-0.00894897
-0.00150377
-0.00762616
-0.102563
-0.22758
-0.0322656
-0.0444121
-0.0126364
-0.0194871
-0.0163068
-0.0131633
-0.044643
-0.011073
-0.0578778
-0.0207309
-0.00876262
-0.0254837
-0.00868787
-0.00241386
-0.00879194
-0.00810179
-0.0436316
-0.00618697
-0.00735205
-0.0393071
-0.0394673
-0.00637514
-0.00560459
-0.0143905
-0.0177934
-0.0216764
-0.0273244
-0.0396523
-0.0116185
-0.052239
-0.0108563
-0.0252655
-0.00897583
-0.0179044
-0.00861329
-0.00790215
-0.00848822
-0.00829977
-0.00648015
-0.00716972
-0.00818407
-0.00630696
-0.224909
0.0043063
-0.00531732
-0.00665155
-0.00651262
0.00145425
-0.0160331
-0.00557243
-0.0177882
-0.0226512
-0.0103494
-0.00481067
-0.00644203
0.000119257
-0.030839
-0.0190203
-0.0734563
0.00135655
-0.0161437
-0.00503123
-0.00790031
0.000379033
-0.00518095
-0.0346187
-0.00648795
-0.0953495
-0.00515953
0.00130588
-0.00291606
0.00237126
-0.0042093
-0.00934871
-0.257774
0.000921471
-0.00670298
-0.0623731
-0.00409635
-0.00209272
-0.000526231
-0.227432
-0.00814016
0.0050264
-0.041773
-0.005306
-0.256944
-0.0271503
-0.0219706
-0.0319229
-0.0244882
-0.0505945
-0.00901751
-0.0116209
-0.0144232
-0.0216222
-0.00978413
-0.0157974
-0.00783796
-0.143547
-0.00847254
-0.00330457
-0.0406044
-0.0286812
-0.0332545
-0.245758
-0.016962
-0.00453755
-0.0919437
-0.0206296
-0.00680285
-0.00693094
-0.00902035
-0.241928
0.00310686
-0.0159137
-0.00282355
-0.00590033
-0.00586511
-0.00259153
-0.00324761
-0.00619296
-0.00623901
-0.00807967
-0.00457394
-0.00420947
-0.00445022
-0.165942
-0.00852729
-0.00102231
-0.00644732
-0.00518347
-0.00516657
-0.0571023
-0.0120087
-0.0218034
-0.0102451
-0.00272201
-0.000538913
-0.00549598
-0.00132066
-0.112821
-0.0321497
-0.0301831
-0.0083963
-0.00329321
-0.0126679
-0.262395
-0.0170345
-0.0130001
-0.0213755
-0.00546036
-0.00736775
-0.0303482
-0.00844619
-0.00870089
-0.00302208
-0.0114228
-0.0051938
-0.00576607
-0.00535981
-0.00475408
-0.00231277
-0.00849452
-0.0125078
-0.00706508
-0.00820868
-0.0422887
-0.00499667
-0.00843243
-0.249333
-0.0438122
0.00144967
0.000968753
-0.0041285
-0.0288815
-0.0206242
-0.0228181
-0.016635
-0.00829831
-0.0176765
-0.0127319
-0.0140113
-0.0334296
-0.0091461
0.000258365
-0.0062303
-0.00528416
-0.0146105
0.000643193
-0.240117
0.00106709
-0.030798
-0.00365206
-0.0600542
-0.00243002
-0.00675966
-0.0269337
-0.0156016
-0.0806284
-0.0564679
-0.0175335
-0.0962967
-0.00837766
-0.0107197
-0.00438651
-0.00456372
-0.0038778
-0.00272335
-0.00782881
-0.00533163
-0.00428422
-0.0298131
-0.0017879
-0.029864
-0.034689
-0.0244662
-0.0185323
-0.0884162
-0.0166323
-0.00471898
-0.0290088
-0.0023325
-0.0618609
-0.0112258
-0.00347989
-0.104693
-0.0111687
-0.00579555
-0.0169545
-0.000817262
-0.00810321
-0.221738
-0.0107131
-0.00494038
-0.0111568
-0.00214081
-0.00782192
-0.00305517
-0.0169043
-0.266772
0.00105466
-0.00968988
-0.0134479
-0.0157482
-0.0979297
-0.0209366
-0.00315068
-0.0208174
-0.00812387
-0.00462955
-0.253618
-0.270894
-0.00618143
-0.00623242
0.00283054
-0.209767
-0.00486179
-0.246311
-0.00390065
-0.00413374
-0.0107082
-0.00890494
-0.00514464
-0.00485845
-0.00471045
-0.0889411
-0.00312683
-0.126087
-0.0179733
-0.0417241
-0.00505837
-0.0180524
-0.0109526
-0.0152057
-0.0117837
-0.0089273
-0.0261611
-0.00865962
-0.0195657
-0.0237059
-0.0299736
-0.00580232
-0.0185428
-0.0213733
-0.00889136
-0.0341694
-0.024305
-0.0164268
-0.0404702
-0.00286267
-0.00686904
-0.00743498
-0.00619491
0.000536343
-0.00643324
-0.0176786
-0.00686983
-0.00216276
-0.0153349
-0.0139788
-0.0150564
-0.00721528
-0.203505
-0.00159729
-0.00624101
-0.0053091
-0.00510367
-0.00952831
-0.0052151
-0.0200898
-0.0865605
-0.118366
-0.00247578
-0.00674719
-0.0263796
-0.041501
-0.000919632
-0.0453096
-0.0109094
-0.0121456
-0.0180745
-0.0415426
-0.00926428
-0.0203005
-0.031034
-0.0209698
-0.0346077
-0.0278538
-0.0326793
-0.00305045
-0.00661701
-0.00613215
-0.00411919
-0.0157619
-0.0204343
-0.00572046
-0.280603
-0.0016026
-0.252967
-0.00341363
-0.000442732
-0.267243
-0.00124477
0.001078
0.000543997
-0.00395827
-0.00658797
-0.0034954
-0.00244735
-0.00459191
-0.0450321
-0.260884
-0.00268398
-0.0106868
-0.0132831
-0.162481
-0.188406
-0.113067
-0.0234127
-0.00277603
-0.00775323
-0.00394298
-0.000156788
0.00368742
0.00341779
-0.119423
-0.083724
-0.0400676
-0.0778806
-0.0542305
-0.0940539
-0.11253
-0.040055
-0.00403323
-0.0669148
-0.0270955
-0.0331428
-0.0314549
-0.0178768
-0.0230825
-0.00786571
-0.0199226
-0.00502986
-0.0161374
-0.0109105
-0.00721938
-0.00848262
-0.00887572
-0.00752535
-0.0055364
-0.00441758
-0.0122034
-0.152636
-0.057446
-0.00224177
-0.0820581
-0.00208484
-0.00341313
-0.00441358
0.000600068
-0.00958021
-0.00535346
-0.0062454
-0.00530053
-0.0102817
-0.00639124
-0.105452
-0.00630013
-0.000941346
-0.0749685
-0.00739391
0.00317641
-0.0132143
-0.0479901
-0.0105653
-0.256117
-0.246601
-0.00459771
-0.0171241
-0.0194152
-0.0274379
-0.00864196
-0.00131721
-0.0204834
-0.0138383
-0.0175529
-0.0146505
-0.0117875
-0.00903615
-0.274236
-0.00876424
-0.0376082
-0.00310768
-0.0075167
-0.051504
-0.00836871
-0.00825213
-0.261175
-0.00639223
-8.04786e-05
-0.0049634
-0.00569085
0.00107457
-0.00415731
-0.00183651
-0.00086819
-0.0652583
-0.00471797
-0.0041399
-0.179427
-0.00124235
-0.00100097
-0.000489932
-0.199626
-0.0057494
-0.00303021
-0.0768533
-0.00370122
0.000366599
-0.00256988
-0.00577047
-0.00726104
-0.256607
-0.00533606
-0.00270767
-0.0171306
-0.0268489
-0.0828056
-0.0219755
-0.0148756
-0.00233145
-0.00721269
-0.00531695
-0.00822136
-0.00110936
-0.0564559
-0.00720999
0.000208665
-0.00216071
-0.00967838
-0.0074335
-0.237578
-0.255734
-0.000940275
-0.00499913
-0.00100123
-0.153548
-0.00733084
-0.00467597
-0.0235638
-0.00330378
-0.246029
-0.00152768
0.00267422
-0.000953284
-0.0103221
-0.00485986
-0.00983129
-0.0196976
-0.00160664
-0.0311216
-0.0094949
-0.00151858
-0.0130491
-0.00212601
-0.0115929
-0.0189275
-0.0131068
-0.0192917
-0.00853151
-0.0011055
-0.0098102
-0.0121245
-0.00925142
-0.00644593
-0.0111395
-0.00998373
-0.0408029
-0.00306648
-0.00550029
-0.0593859
-0.00347648
-0.00989019
-0.086235
-0.00257218
-0.00871838
-0.122346
-0.00770682
-0.00576686
-0.10152
-0.0532212
-0.158913
0.00121011
0.00158627
-0.0601498
0.000386897
0.000708695
-0.0992263
-0.033183
-0.0499071
-0.00735868
-0.0710002
-0.00371608
-0.00929439
-0.0485873
-0.0233845
-0.00203726
-0.0219929
-0.06832
-0.278957
-0.00145903
-0.00445544
-0.00131231
0.00127037
7.421e-05
-0.00509609
-0.00308746
-0.244376
-0.00886176
-0.00703881
-0.0506036
-0.00836203
-0.0304591
-0.00219102
-0.144103
-0.00636645
-0.0093433
-0.163322
-0.00682551
-0.00708247
-0.000601051
-0.00484446
-0.259832
-0.000226017
-0.0914086
-0.0125564
-0.0304533
-0.255341
-0.247955
-0.0534341
-0.00201128
-0.0029462
-0.169266
-0.00203656
-0.00114212
-0.00374601
-0.11431
0.00133177
-0.000932275
-0.006447
-0.0977758
-0.00852929
-0.00715296
-0.0084048
-0.00239011
-0.264523
-0.0121588
-0.0134989
-0.0871978
0.000519728
-0.259321
-0.00333118
-0.254006
0.000441232
-0.0999011
-0.00892405
-0.00616051
-0.00137614
-0.00946738
-0.0132605
-0.0112758
-0.0182604
-0.0297579
-0.00521503
-0.00650726
0.000346387
-0.0292587
-0.0275188
0.000738293
-0.00857233
-0.00734174
-0.0100528
-0.0137398
-0.0144578
-0.00575834
-0.0166887
-0.0155184
-0.0798972
-0.0098993
-0.154869
-0.00111808
-0.0134379
-0.00121852
-0.000722291
-0.248908
-0.0612393
-0.0365337
0.000874745
-0.0474439
-0.00767992
-0.00615946
-0.0643618
-0.00673208
-0.21253
-0.259442
-0.0871604
-0.0139531
0.000573035
-0.261379
-0.0123446
-0.0164365
-0.0108854
-0.054735
-0.18128
-0.00208346
-0.00304815
-0.247792
-0.241484
-0.00124709
-0.0763404
-0.0899806
-0.00460258
-0.257148
-0.00347784
-0.102819
-0.00741654
-0.0668638
0.00114536
-0.0554169
-0.193153
0.00104647
-0.251277
-0.0924716
0.00114366
-0.259284
-0.00251902
-0.0512588
-0.087359
-0.250648
-0.000449166
-0.033593
-0.164321
-0.00591793
-0.0796699
-0.0067009
-0.0028195
-0.00668479
-0.0138926
-0.0701965
-0.00128535
-0.0010958
-0.123261
-0.0119699
-0.00314824
-0.00635196
-0.00174898
-0.00934523
-0.00835953
-0.0704361
-0.202269
-0.0727306
-0.00045616
-0.0137558
0.000150045
-0.00947294
-0.0133455
-0.0065392
-0.255403
-0.00235081
-0.0782869
-0.255759
-0.00113977
-1.22675e-05
-0.0185355
-0.0334706
-0.0847632
-0.162609
-0.0184871
-0.0069712
-0.0137405
0.000696728
0.000128671
-0.00291333
0.00271565
0.000295965
-0.00386205
-0.0834901
-0.258524
-0.00699856
-0.00505521
-0.00727077
-0.203325
-0.00375387
-0.0142978
-0.00901253
-0.00832648
-0.00508928
-0.0119815
-0.0295072
-0.0300214
-0.0115891
-0.000201328
-0.0144964
-0.233164
-0.250889
-0.00406962
-0.0027188
-0.0289931
-0.0103423
-0.00164971
-0.00153668
-0.00729179
-0.0135492
-0.0124705
-0.258922
0.00112417
-0.241775
-0.00306151
0.000581317
-0.178692
-0.0130058
-0.0786862
-0.012293
-0.0179961
-0.0224533
-0.0147642
-0.00259237
-0.0664876
0.0012814
-0.0071784
-0.00691048
-0.0107574
-0.248728
-0.0139077
-0.00929423
-0.0139707
-0.0544407
-0.249955
-0.0190955
-0.000480879
-0.199431
-8.67689e-05
4.46221e-05
-0.0327533
-0.187574
-0.257285
-0.26074
-0.0120338
-0.0013017
-0.0278923
-0.000657801
-0.200015
-0.0607819
0.000558397
-0.017019
-0.128056
-0.00706426
-0.200682
-0.0175771
-0.0406404
-0.0111616
-0.116788
-0.0727426
9.52088e-05
-0.0078617
-0.256105
0.00203302
-0.000698972
-0.0853843
0.00188758
-0.0165045
-0.0838295
-0.0437142
-0.252653
0.00311617
0.00102586
0.00195297
-0.256609
-0.000487027
-0.00897755
-0.0106115
-0.253966
-0.00190724
-0.0057168
-0.00171651
-0.255757
-0.047133
9.3388e-05
-0.0136501
0.000756394
0.00156327
0.00115879
-0.224124
-0.0253114
6.68319e-05
-3.03355e-06
-0.142669
-0.0428292
-0.0075769
-0.0216994
0.000460233
0.00132602
-0.253214
0.000590375
-0.0331363
0.000955193
-0.0231982
-0.252975
-0.257148
-0.254511
-0.228815
-0.192587
0.000362503
-0.0790618
-3.67507e-05
-0.000412484
-0.00624096
-0.190579
-0.000353367
-0.241271
-0.262895
-0.00312384
-0.00325577
-0.235711
-0.261085
-0.0727538
-0.226833
-0.0901186
-0.195703
3.05388e-05
-0.0871161
-0.265917
0.00157112
-0.237229
0.00091823
0.00103457
-0.156537
-0.26274
-0.257495
-0.170717
-0.137779
-0.00710718
-0.26788
-0.00390778
-0.0978767
0.00085469
-0.208234
-0.0661383
-0.00291622
-0.14834
0.000608663
-0.00066178
-2.51745e-05
-0.266158
-0.238671
-0.25197
-0.25325
-0.00256876
-0.133831
0.0018411
0.00394095
0.000212273
-0.0447963
-0.256797
0.00117023
-0.00994007
-0.168451
-0.240346
-0.0181323
0.000705193
-0.248761
-0.00144178
-0.0034809
-0.00656926
-0.000889628
-0.00530637
0.00172052
0.00170452
-0.241021
-0.00305108
-0.00583111
7.3081e-05
-0.0386198
-0.248809
-0.0852419
0.00133702
-0.251299
-0.0624057
-0.0495919
0.000279864
-0.261723
-0.0112908
-0.267341
-0.252567
-0.254081
-0.00503673
-0.00269546
-0.176504
-0.145371
-0.000498217
-0.00249269
-0.134133
-0.155306
-0.199878
-0.019662
-0.264001
-0.00128252
-0.251045
-0.0094689
-0.252296
0.000992522
-0.00138503
-0.0102388
-0.0087919
-0.258516
-0.000667017
-0.247728
-0.253279
-0.0157095
-0.0233685
-0.0942017
-0.263978
-0.142173
0.00166782
-0.0656155
-0.0625591
-0.177903
0.00143287
-0.246843
-0.123694
-0.246733
-0.255701
0.00258836
0.000703362
-0.0486816
-0.246498
-0.0154349
-0.156108
0.00347246
-0.000145933
-0.00635437
-0.00407831
-0.259765
-0.0023137
0.000920009
-0.199854
-0.0352166
-0.191373
-0.161835
-0.261313
-0.245687
-0.155966
-0.237486
-0.24159
-0.0702321
-0.0182984
-0.262185
-0.0016943
-0.243757
0.0012916
-0.259213
-0.261699
-0.00680663
-0.0105011
-0.00681464
-0.0054873
-0.00739217
0.000264081
-0.0130144
0.000938609
-0.14858
-0.120672
-0.00484524
-0.0671192
-0.0470418
-0.238755
-0.26155
-0.249849
-0.251862
-0.254278
-0.175711
-0.264969
-0.0276763
0.00209515
-0.261976
-0.0018503
-0.240987
-0.0711188
-0.0130127
-0.258103
-0.0549558
0.000118882
-0.249689
-0.00262157
-0.209606
-0.107756
-0.03001
-0.239199
-0.00458482
-0.136147
-0.00979223
-0.00706874
-0.192328
-0.278144
-0.0102434
-0.00719894
-0.00877687
-0.0160398
-0.00274255
-0.245128
-0.0132322
-0.0101214
-0.173819
0.000540016
-0.256592
-0.0291861
0.00239868
-0.0420276
-0.251683
-0.260267
-0.254102
-0.25661
-0.221928
0.00090869
-0.232287
0.000545101
0.00126975
-0.245167
0.00220757
-0.250424
-0.188106
-0.200892
-0.252988
-0.0158895
-0.232102
-0.00799796
-0.00168761
-0.00841913
-0.00863484
-0.247732
-0.00649933
-0.00458412
-0.0130457
-0.243876
0.000758601
-0.237247
-0.253097
-0.0112811
-0.262729
-0.255833
-0.191673
0.00107358
-0.253767
-0.00817876
0.000516345
0.00187594
-0.256495
-0.00160913
0.00267976
0.000361961
-0.0915995
-0.004285
-0.248131
-0.00668683
-0.0103535
-0.0225726
0.000286298
-0.19928
-0.0051659
-0.00841556
-0.143759
0.0020949
-0.00962866
-0.00520267
-0.258198
-0.0314983
0.0018663
-0.266147
-0.18088
-0.184599
-0.00287125
0.00079664
-0.245045
-0.181604
-0.232108
-0.162826
-0.236287
-0.23205
0.00410662
-0.243743
-0.216738
-0.00861449
-0.252883
0.00253081
-0.259458
-0.258722
-0.257604
-0.0379239
-0.217363
-0.279275
0.00034544
0.000697714
0.00105022
-0.244146
-0.247261
-0.24177
-0.268615
-0.209393
-0.015252
0.00155446
-0.200391
-0.259066
-0.247838
-0.0160673
-0.13279
-0.00306758
-0.251111
-0.264178
-0.253815
-0.256951
-0.257095
-0.248249
-0.00480059
-0.238823
-0.250035
-0.273204
-0.220968
-0.254092
-0.0215521
-0.249352
-0.25841
-0.00860977
-0.240902
-0.22771
-0.00532085
-0.248144
-0.0161531
-0.273486
-0.244205
-0.177966
-0.186755
-0.248244
-0.0219818
-0.18389
-0.248629
-0.00313683
-0.207373
-0.00613257
-0.00950451
-0.0695898
0.00235522
-0.00368467
-0.061841
0.00123434
-0.00447613
0.000786042
-0.00330741
-0.19715
0.00166878
-0.0830731
-0.271482
-0.25391
0.00116116
-0.0244627
-0.00753274
-0.243867
0.00205382
-0.25047
-0.223418
-0.0285931
-0.232974
-0.252429
-0.243737
-0.0613777
-0.00929502
-0.219804
-0.229559
-0.255713
-0.0072054
0.000860519
0.000829476
-0.0217507
-0.203491
-0.00445215
0.00052628
-0.00493475
-0.256794
0.00110878
-0.0276237
-0.0153315
-0.0124057
-0.257058
-0.0151406
-0.0103653
-0.0053206
-0.204893
-0.00763003
-0.245785
-0.00853253
-0.0190832
-0.00834646
-0.0366871
-0.257769
-0.259852
-0.250625
-0.270199
-0.0254326
-0.027967
-0.23337
0.000119537
-0.258696
-0.0137838
-0.0059854
-0.00662928
-0.131489
-0.234574
0.00144396
-0.143937
-0.272694
-0.249541
-0.255031
-0.212091
-0.00968624
-0.257126
-0.261146
-0.00852289
-0.0517907
-0.230514
-0.142619
0.000458896
-0.24779
0.000265885
-0.211841
-0.145075
-0.238054
0.0019851
-0.0118388
-0.233882
-0.00400461
-0.0450457
-0.00422283
-0.205316
0.00130349
-0.247306
-0.00253808
-0.239877
0.00369478
0.00346548
-0.00824367
-0.0168113
-0.220418
-0.241331
-0.00445303
-0.00727376
-0.00885042
0.000220139
-0.028976
-0.00718098
-0.2371
-0.264143
-0.236804
0.000682593
-7.81056e-05
-0.253362
-0.245433
-0.236995
-0.262265
-0.228826
-0.00551465
-0.217083
-0.222948
0.000214903
-0.234549
-0.0370638
-0.0578002
-0.00621
-0.213034
-4.16009e-05
-0.250777
0.000778968
-0.256862
-0.24713
-0.000508135
-0.236961
-0.00523754
-0.258613
-0.199424
-0.0122066
-0.00429659
-0.2378
-0.25727
-0.0108258
-0.273189
-0.18013
0.00146021
-0.260052
-0.00643776
-0.258824
-0.00223667
-0.000988284
-0.0134987
-0.228744
-0.00442095
-0.24842
-0.0351969
0.00129936
-0.000329598
0.00107068
0.000885811
-0.00807271
-0.257431
-0.130804
-0.0206319
-0.115157
-0.0203152
-0.00139331
-0.00293812
0.00238899
-0.224175
-0.116591
0.000758492
-0.0166687
-0.0273178
-0.00865896
-0.254108
-0.0630125
-0.00255296
-0.00487889
-0.250211
-0.00123929
-0.00450605
-0.251754
-0.213985
-0.000592794
0.0010752
-0.256356
-0.23661
-0.261915
0.00148
-0.00132502
-0.25931
-0.0106986
0.00117339
-0.000819304
-0.189921
-0.1724
-0.24934
-0.00669946
-0.231223
-0.236321
-0.247672
-0.239692
-0.00201642
-0.0720834
0.00370482
-0.258515
0.00118092
-0.00282552
-0.0349022
-0.0630723
-0.0123825
-0.0265802
0.00291186
-0.00787587
-0.0115661
-0.24756
-0.0119722
-0.231771
-0.270031
-0.161869
-0.000121517
-0.227859
-0.125794
-0.256934
-0.251044
-0.01665
-0.0722516
0.00600253
-0.0653355
-0.20651
0.00192019
-0.253631
-0.0086644
-0.0051261
0.0041037
0.000970725
-0.249846
-0.00667711
0.000321506
-0.24801
-0.248577
-0.000260097
-0.24209
-0.242387
-0.239034
-0.241579
-0.275032
-0.256513
0.0012741
-0.208344
-0.0680004
0.000892984
-0.014577
0.00145758
0.00131456
-0.00577015
-0.17948
-0.258035
-0.232265
0.00298918
-0.257892
0.00163522
0.00247422
0.00081979
-0.225575
-0.275652
-0.0152524
0.000634525
-0.252086
-0.256423
-0.269632
-0.229944
-0.130992
-0.195134
-0.0012585
0.00200805
-0.00749649
-0.000944807
-0.249653
0.000565404
-0.0986185
-0.185801
-0.275402
-0.23428
0.000258835
0.000600392
-0.219554
-0.246442
-0.252632
-0.0304191
-0.0650069
-0.260116
-0.252474
-0.231298
-0.258898
-0.230641
-0.259831
0.00288114
-0.0126581
-0.0123393
-0.25811
0.00103082
-0.00717138
-0.00757816
-0.177893
-0.0570498
-0.237442
-0.255185
-0.247191
0.000876778
-0.195523
-0.215501
-0.271559
-0.000898508
-0.253358
-0.195355
-0.26732
-0.00171131
-0.197662
-0.236623
-0.272757
0.00092813
-0.0674945
-0.0134566
0.000639481
-0.00881741
-0.26374
-0.0263564
-0.249687
-0.243984
-0.267822
0.000957164
-0.249878
0.00083997
-0.251462
-0.0179743
-0.167391
0.00067581
0.000718889
-0.232008
-0.258911
0.00217027
-0.228565
-0.121635
-0.0248183
-0.00157293
0.00179396
-0.249989
-0.277282
0.00066909
0.000907478
-0.00335321
-0.131309
0.00150129
0.00127687
-0.0325397
-0.0170774
-0.245165
-0.00860316
-0.265597
0.000678593
-0.268639
-0.25089
-0.1138
-0.225163
-0.261356
0.000998745
-0.00215839
0.00348298
0.0011551
-0.278176
-0.00538659
0.0010499
-0.228096
-0.259078
-0.247964
-0.146826
-0.272148
-0.00560526
0.00214712
-8.00907e-05
-0.256793
-0.255736
0.000515059
-0.2483
-0.00868149
-0.237998
-0.238466
-0.266624
-0.00493468
-0.229227
3.60917e-05
0.000653164
-0.266996
-0.260212
-0.00501837
0.000440713
-0.252834
-0.242155
0.00147009
-0.00130053
-0.231366
-0.255467
0.000866994
0.00111934
-0.259598
-0.00646308
-0.210143
0.000787294
-0.257025
-0.239321
-0.00228061
-0.229457
-0.252377
-0.0688161
-0.228081
-0.233435
-0.165722
-0.223304
-0.0376688
-0.00980811
-0.0111726
0.000425061
0.0010136
-0.250908
-0.0124462
-0.254588
-0.23703
0.000214852
0.00226405
0.00230152
0.000805732
0.00111753
-0.00146672
-0.0119595
-0.00865613
0.00206181
-0.0116824
-0.000975638
-0.00220539
-0.000620675
-0.003091
-0.0408521
-0.0705211
-0.246135
-0.258387
-0.252937
-0.249551
-0.0103823
-0.264387
0.000919215
-0.267964
-0.00184827
-0.0266018
-0.212741
-0.245377
-0.00913278
0.00187079
-0.0050401
-0.275622
-0.0681585
-0.251155
0.00107082
-0.00780409
0.00222153
-0.172838
-0.251733
-0.0485548
-0.0101035
-0.00221551
-0.0109638
-0.0107282
-0.116696
-0.0499532
-0.0106146
0.000655816
0.00236904
-0.00665109
-0.162669
-0.248576
-0.263328
-0.0674704
-0.262542
-0.162909
-0.257144
-0.0851447
-0.238759
-0.240316
-0.263438
-0.0016147
-0.251537
-0.191233
-0.253839
-0.265465
-0.231393
-0.00118772
-0.254195
-0.0104256
-0.264097
-0.231583
-0.2577
-0.00912608
-0.0225536
-0.226054
-0.250648
0.00229977
-0.259931
-0.246245
-0.00403864
0.00213552
0.00114189
0.00156717
-0.0113302
0.000275241
0.00122771
-0.247383
-0.00920898
-0.214146
-0.229188
-0.257098
0.0015754
-0.238127
-0.231958
-0.274278
-0.0172814
-0.247055
0.00097526
-0.253235
-0.17053
-0.230864
0.000302523
-0.000767283
-0.00210175
-0.262402
-0.250134
-0.0416464
0.00222755
-0.258166
-0.161697
0.000582567
-0.000691312
-0.0167903
-0.247809
-0.00177788
-0.00779053
-0.252766
-0.247575
-0.000853983
-0.246255
-0.180206
-0.249496
-0.024497
-0.272029
-0.248809
-0.000553435
-0.0487535
-0.256082
-0.245655
-0.00955291
-0.269418
-0.229651
-0.253509
-0.251769
-0.252811
-0.217765
0.00100159
-0.254971
-0.0013907
0.000300234
0.00254725
-0.0556286
-0.00939832
-0.268769
-0.232686
-0.257415
-0.143493
0.00090784
-0.231745
0.000974888
-0.0286274
-0.271734
-0.234358
0.00025531
0.00109149
-0.228869
0.0026705
-0.243906
0.000456083
-0.252217
0.00112408
-0.253726
-0.00233707
-0.246413
-0.0258708
-0.0471158
-0.238069
-0.27184
-0.241411
0.00140561
-0.269124
-0.122254
-0.249193
-0.215641
-0.0385143
-0.0871851
-0.0584394
0.000822921
-0.167555
-0.201486
-0.0241289
-0.219396
-0.24661
-0.00229047
-0.249838
-0.00725633
-0.218514
0.0011446
0.00138017
0.00029795
-0.0485627
-0.255578
-0.256833
-0.0227641
-0.0933387
0.000242577
-0.00917301
-0.0097583
-0.00876585
0.00070818
-0.00900363
-0.00864526
-0.00985476
-0.00200915
-0.233309
-0.234231
-0.00320268
-0.0121898
-0.222953
-0.256335
-0.0531267
0.00157119
-0.00123866
-0.260001
-0.0414231
0.00106471
0.000659464
-0.262131
-0.0353277
0.000985793
-0.0084429
-0.0636167
-0.261184
-0.232662
-0.0523606
-0.268741
-0.260993
-0.00855878
-0.224091
-0.254431
0.000188293
-0.245958
-0.0155394
0.000591364
-0.00613075
-0.263441
-0.00407596
-0.23188
-0.193303
-0.0014558
-0.0348485
-0.269674
-0.00675176
-0.251278
-0.0026774
-0.21195
-0.228908
-0.00854067
-0.251295
-0.2399
-0.00865461
-0.00877687
-0.248707
-0.00725046
-0.238004
-0.264802
-0.255999
-0.0173219
-0.0132175
-0.00381742
-0.254443
0.00135691
0.00457676
-0.00995649
-0.0549334
-0.00232301
-0.00899915
-0.0145826
0.00113314
-0.2233
-0.2554
-0.0323307
0.000601067
-0.236776
-0.00281485
-0.00698677
-0.0142107
-0.231398
-0.000530934
-0.0039162
-0.252511
-0.0013858
-0.00089334
-0.00926044
-0.208712
-0.00217318
-0.123511
-0.25741
-0.00569766
-0.255018
-0.0314809
-0.0026867
-0.253489
-0.24398
-0.26413
-0.00655225
-0.0907289
-0.0108251
-0.26715
-0.245445
-0.00210016
-0.0741049
-0.00895589
-0.256554
0.000706936
0.000288117
-0.00567652
0.000137046
-0.00532154
-0.00240546
-0.240617
-0.013741
0.000868906
-0.000149189
-0.00382241
-0.256341
-0.230147
-0.281109
-0.0189899
-0.00869808
-0.250933
0.00307327
0.000118843
-0.00645306
0.00069301
0.00126812
-0.0460392
-0.00671167
-0.0069513
-0.100545
-0.256181
-0.260955
-0.280847
-0.22437
-0.000658427
-0.242335
-0.25979
-0.0654604
-0.238851
-0.274268
-0.240204
-0.144003
-0.00721481
-0.2494
-0.00643048
-0.245748
0.00054949
-0.142986
-0.00557615
-0.00606422
-0.245733
-0.209076
-0.234655
-8.1854e-05
-0.0376022
-0.0397649
-0.0461021
-0.00157711
-0.0065382
-0.025112
-0.253293
-0.0181868
-0.252809
-0.0297823
-0.00819663
-0.252627
-0.00137506
-0.00692443
-0.0387498
-0.00420107
-0.182223
-0.27481
0.000570375
-0.00341301
-0.221837
-0.0173229
-0.228886
-0.248106
-0.124715
-0.0132847
0.00106844
-0.229708
-0.239809
0.00262536
-0.000952949
-0.255983
-0.00232284
0.000152465
-0.0713318
-0.007483
-0.259967
-0.0270751
-0.232195
-0.00549132
-0.0310474
-0.00280526
0.000952233
0.00169589
-0.121227
-0.00134314
-0.000171069
0.000997688
-0.250031
-0.255488
0.00142571
-0.0597658
-0.234205
-0.149673
0.00146174