/*--------------------------------*- C++ -*----------------------------------*\
  =========                 |
  \\      /  F ield         | OpenFOAM: The Open Source CFD Toolbox
   \\    /   O peration     | Website:  https://openfoam.org
    \\  /    A nd           | Version:  10
     \\/     M anipulation  |
\*---------------------------------------------------------------------------*/
FoamFile
{
    format      ascii;
    class       surfaceScalarField;
    location    "450";
    object      phi;
}
// * * * * * * * * * * * * * * * * * * * * * * * * * * * * * * * * * * * * * //

dimensions      [0 3 -1 0 0 0 0];

internalField   nonuniform List<scalar> 
38623
(
0.211181
-0.210288
0.0776491
-0.078542
-0.0622316
0.076827
0.127745
-0.14234
-0.00635914
0.0129611
0.0415986
-0.0482
0.00356271
-0.00197569
-0.0215816
0.0199947
0.0171734
0.038468
-0.0375823
-0.0180577
-0.116441
-0.230596
0.216071
0.130965
0.0855345
-0.0708037
0.0793542
-0.0940849
-0.00847029
0.00851939
-0.00649662
0.00644759
0.018958
0.0170776
-0.219041
-0.0314972
0.0724752
-0.301616
0.260638
0.111199
0.126443
-0.116781
-0.120862
-0.202027
0.17876
-0.00607292
0.0293391
0.424303
-0.0394423
-0.430696
0.0458354
-0.20719
0.188256
-0.0107536
0.0296864
0.0375135
0.0489205
-0.0538823
-0.0325517
0.0377245
-0.274147
-0.0409286
0.277351
-0.0113416
0.356221
-0.00260758
-0.342272
-0.00778348
0.253044
-0.00900285
-0.236259
0.0043732
-0.0235512
0.377545
-0.358367
0.368289
-0.255199
0.216279
-0.32937
0.174581
0.131132
-0.0412425
-0.26447
0.112292
0.0828102
-0.0839039
0.301261
-0.258354
0.000888609
-0.0437961
-0.200744
0.26109
-0.23762
0.177274
0.0376632
0.23706
-0.0380154
-0.236708
-0.0316526
0.52871
-0.504711
0.00764959
0.0268954
-0.173136
-0.0525326
0.198774
0.201001
-0.161674
-0.447522
0.408194
-0.0091808
-0.000803736
0.00147591
0.00850871
-0.24639
0.267525
0.347154
-0.0147299
-0.0193742
0.0195366
0.0145678
0.00587524
-0.0015603
0.000790493
-0.00510539
0.0343398
-0.0367362
-0.0377257
0.0401222
0.276672
-0.0222813
-0.262174
-0.0106441
-0.00890069
-0.21764
0.237185
-0.311062
-0.160474
0.135783
0.335751
-0.000583192
0.000129888
-0.00741207
0.00786541
0.00364345
-0.216315
-0.135803
0.152755
0.00226038
-0.0192119
-0.0516204
0.0654554
0.288945
-0.30278
0.0591084
0.381429
-0.396709
-0.0438279
0.251341
0.17118
-0.236244
-0.186278
0.301803
-0.169649
0.304824
-0.436977
-0.386992
0.191618
0.314015
-0.118642
0.54107
0.21992
-0.466782
-0.294206
-0.0247883
0.0652154
-0.393986
0.353558
-0.00180805
0.0179694
-0.00805558
-0.00810338
-0.242448
0.176723
0.145258
-0.0795329
-0.00102748
0.00204124
0.00100022
-0.0020139
0.00754353
-0.000505356
-0.00771439
0.000676343
-0.00509363
-0.00129759
0.0013908
0.00500051
-0.0136351
0.0353219
-0.030774
0.00908743
-0.00194127
0.00073186
-0.00169874
0.00290815
-0.346117
-0.0970843
0.267584
0.175616
-0.00101208
0.000438864
0.00644851
-0.0166122
-0.364963
0.370233
0.0440811
-0.0276769
-0.0613715
0.0449687
-0.0046224
-0.00808924
0.0085889
0.00412278
-0.137028
0.179072
0.132537
0.00995789
-0.0104665
0.0055972
-0.0050883
-0.00889193
0.00382089
-0.00336598
0.00843702
-0.317667
-0.104584
0.0352585
-0.314978
0.304369
0.0748086
-0.0642001
-0.00568618
-0.00692702
0.00812382
0.0044895
-0.224122
-0.288887
0.312266
-0.458456
0.320626
-0.212615
0.350445
-0.163396
0.139345
-0.0258943
0.0499448
-0.496906
0.391425
0.161806
-0.0563287
0.111372
0.487549
-0.0578489
-0.358645
-0.0580653
0.0575496
0.35916
0.00883753
-0.00287758
-0.00899436
0.0030345
0.0203011
-0.00873649
-0.0179236
-0.0507608
-0.012149
-0.475002
0.537909
0.0622809
-0.0621238
0.0373564
0.360513
-0.340432
-0.244201
0.0412622
-0.0635986
0.06249
-0.0401535
0.0211398
-0.166722
0.161259
-0.0156775
0.105633
0.17264
-0.177009
-0.101264
-0.0117714
0.00558066
-0.00549011
0.011681
0.0370669
-0.0299631
0.3167
-0.323804
-0.106461
0.214591
-0.198475
0.0903452
0.0427908
-0.0578582
-0.0918544
0.106922
0.0781336
-0.0962836
-0.0104317
0.00828375
-0.000238787
0.0023868
-0.0228751
0.050066
-0.0296249
0.00243417
-0.21644
0.226623
-0.0190838
-0.0596583
0.0976652
-0.102582
0.064576
-0.0014568
0.0004348
0.000318546
0.000703467
-0.259624
-0.0935851
0.1239
0.22931
0.334345
-0.336915
0.0396369
-0.0069894
-0.000361823
0.0066788
0.000672468
-0.397776
0.0638362
0.377905
-0.0439654
0.00378949
-0.0072136
-0.002262
-0.306048
-0.170296
0.182804
0.293539
-0.00708538
-0.00323186
0.00529362
0.0050236
-0.00750736
0.000127067
-7.05426e-05
0.00745089
0.45266
-0.102396
-0.359218
0.00895442
0.0682685
-0.0938715
-0.216846
-0.251564
-0.0275359
0.0616622
0.217437
0.00778116
0.0111785
-0.00178508
0.318963
0.0579492
-0.0869175
-0.289995
-0.0390036
-0.0997267
-0.0246653
-0.0577785
0.0217022
-0.13286
0.168937
-0.00676947
2.66946e-05
0.00673252
1.02561e-05
0.00146079
0.00703656
-0.00797353
-0.000523734
0.000276902
0.00168518
-0.0123937
0.245742
-0.0993511
-0.262832
0.205464
0.37497
-0.139837
0.143921
-0.0430878
0.328521
-0.292619
-0.1205
0.0845978
-0.109782
0.153659
0.0889917
-0.132869
-0.251661
0.0715722
0.183731
0.0615553
-0.045784
-0.0386464
-0.00285069
0.268928
-0.00266321
-0.263413
-0.129784
-0.301745
0.120467
-0.289245
-0.0504595
0.0557388
0.283966
-0.164325
0.333497
-0.500291
0.331119
0.0475863
-0.265425
-0.0491974
0.267036
-0.000190049
0.000392682
-0.00938338
0.00566432
-0.006852
-0.00449311
0.00568075
-0.109335
0.0222653
0.192703
-0.000196504
0.00589752
0.000242594
-0.00594358
-0.0361343
-0.355306
0.0346884
0.356751
-0.00291405
0.00061122
0.00954591
-0.00724273
-0.0898882
0.0843517
-0.09419
-0.0685536
-0.617314
0.507344
0.178522
-0.00871149
0.00267619
-0.00285659
0.00791505
-0.00010268
-0.00026874
0.00132691
-0.0133773
-0.00764917
0.0196998
0.0073557
-0.0149939
-0.0025376
0.0101772
0.00847033
0.0132698
-0.00720072
-0.0145392
0.0256594
0.162712
-0.148926
-0.0394462
0.14283
-0.00362707
-0.0166105
-0.122593
-0.191735
0.182312
0.0527095
-0.0432876
0.386906
0.0797213
-0.17957
-0.287058
-0.0954417
0.21475
-0.177087
6.46751e-05
0.00637814
-0.00645524
1.25465e-05
0.0396936
0.160207
0.0520891
-0.115618
-0.164947
0.228475
-0.101178
0.138014
0.00870708
-0.00876192
-0.000135152
0.154717
-0.168846
-0.23828
0.252408
-0.128393
-0.220597
0.19988
0.14911
0.0782838
0.28233
-0.107981
-0.252633
0.334322
0.0101124
-0.032855
-0.31158
0.439932
-0.182995
0.0715836
0.268742
-0.0494389
-0.264749
0.045445
-0.0755928
0.040918
-0.01995
0.054625
-0.0019443
0.000949291
0.007159
-0.00616389
0.0192986
-0.34412
0.359852
-0.0350305
0.0518573
-0.0023323
-0.0437686
-0.00575627
0.244723
-0.106281
-0.425529
0.287087
0.0794543
-0.0969123
-0.0617493
0.0792081
-0.0453529
0.39178
0.132973
-0.4794
0.0383389
-0.0391111
0.0275507
-0.0267783
-0.0569197
0.0431815
0.273825
-0.260087
0.0146593
0.0930444
-0.086001
-0.25208
0.142279
0.215591
-0.105791
-0.0122771
0.0152975
-0.00884019
0.00581988
0.00233588
0.0103777
-0.00851442
-0.00419905
0.0485348
0.353707
-0.35549
-0.0467529
0.0861038
0.0287482
-0.0463201
-0.0685318
0.00265628
-0.00962628
-0.00146322
0.00843324
-0.148066
0.149533
0.425878
-0.00118259
-0.379428
-0.0452675
-0.00265902
0.340261
-0.318303
-0.171744
0.171013
-0.0621995
0.0629309
-0.00643727
-0.0016819
0.00726226
0.00085697
-0.209595
0.366417
0.189505
-0.346328
0.260796
0.120134
-0.226213
-0.161062
0.0283807
0.167179
-0.0344977
0.0182366
0.00369469
-0.0183684
-0.212308
-0.280926
0.204347
0.00410791
-0.00524758
-0.00177423
0.259635
-0.497865
0.308299
-0.0700731
-0.013759
0.000320806
0.01068
0.00275823
0.313815
0.0453071
-0.314464
-0.0446581
0.0465489
0.231242
-0.0482447
-0.229547
-0.239345
-0.0245147
0.248408
0.0154515
-0.185816
0.156827
-0.11613
0.14512
0.00265781
0.0222222
-0.0115007
-0.013378
0.009264
0.00580195
-0.0124058
0.0778406
0.0346107
-0.0711891
-0.093921
-0.133526
0.0762801
0.151166
-0.0363968
0.0810025
-0.367996
0.323391
0.388243
-0.377116
-0.0277393
-0.178503
0.0775027
-0.00455307
0.00506346
0.00777341
-0.0073578
-0.00081386
0.0055749
0.00259678
0.264251
-0.181756
-0.00275408
0.00456581
0.00647469
-0.00828633
-0.353471
0.0627702
0.0393202
0.251382
-0.272903
0.327091
-0.105807
-0.267036
0.129727
-0.164809
0.302119
-0.0453354
-0.301856
0.0525203
0.29467
0.140025
-0.184839
-0.264565
0.309379
0.000443674
1.34556e-05
-0.00735224
0.00689514
-0.000553671
0.00692928
-0.00912965
0.0021281
-0.00614816
-0.000585063
0.00460536
0.158699
-0.125357
-0.143125
0.299617
-0.0259695
-0.276306
-0.234501
-0.295095
0.250115
0.279481
-0.00296558
0.00713524
-0.00611394
0.00919916
-0.129398
-0.029734
0.149931
0.00933923
-0.00684618
-0.0109633
0.00286762
-0.00976654
0.00955524
-0.0364104
0.0172518
0.0283786
-0.00921987
-0.0603433
-0.179135
0.0746806
0.164797
0.192704
-0.00478512
-0.0591089
-0.12881
-0.0921984
0.221417
0.0640696
-0.193288
0.287068
-0.0378096
-0.279222
-0.00824908
-0.000689646
0.00835556
0.328663
-0.318675
-0.0463851
-0.402978
0.223982
-0.0305994
-0.00327575
-0.00114965
0.00248421
-0.0046021
0.0011577
0.00946642
-0.00602202
0.123929
-0.0157953
-0.0989356
0.0386176
-0.278001
-0.000194899
0.00732989
-0.00121791
-0.00591695
-0.0166498
-0.0107709
0.0113316
0.0160893
0.0728259
-0.0470696
-0.468777
0.443021
-0.0401138
0.0387961
-0.00681005
0.000387902
8.2633e-05
0.00633963
0.292492
-0.0673147
-0.282097
-0.0946123
0.288127
0.021505
0.0321849
-0.0149718
-0.038718
-0.000149767
0.00711633
-0.00747177
-0.279655
0.0662089
-0.22126
0.0582571
-0.00490081
0.167904
0.377354
0.0420153
-0.376435
-0.0429349
-0.181213
0.216931
-0.258656
0.222937
-0.00249008
5.8098e-06
-5.96456e-05
-0.0586584
-0.192942
-0.536364
0.556211
-0.0514967
0.0646552
-0.0422847
0.0160986
0.0107773
0.000304681
-0.00674945
-0.00433245
-0.222199
-0.33054
0.0276205
-0.00813797
0.002046
-0.0215284
0.060723
-0.428389
0.475975
-0.108311
-0.00995472
-0.0063617
0.00935661
0.00695998
-0.00144302
0.00252403
0.000960198
-0.286974
0.0399636
-0.0469018
0.293912
0.00149202
-0.0121604
0.0109454
0.0106068
0.00502072
0.0490287
-0.00109378
-0.00635555
-0.109382
-0.30026
0.0946637
-0.0806404
0.230115
0.096268
0.0355192
-0.445958
-0.0563426
-0.0114726
0.0026444
-0.000798078
0.085365
0.0216805
-0.0209417
0.110983
0.419405
-0.391413
-0.138974
0.0685969
-0.206698
0.284044
-0.145944
-0.00512241
-0.00136651
0.00176388
0.004725
-0.451639
0.451382
-0.039674
0.0399313
0.102874
-0.0150012
-0.0591245
0.00483177
-0.00788929
0.00196375
0.00704537
-0.00434655
0.00454106
-0.000626627
-0.00699498
0.00308055
-0.0839354
-0.309748
0.0850513
0.308632
-0.272084
-0.193681
0.0007243
0.000710678
-0.0473852
0.0741417
-0.282934
0.256176
0.000873178
-0.00846105
-0.00112359
-0.108023
0.16776
0.0283386
0.248419
-0.233577
0.0515523
-0.329068
0.34297
-0.0102336
-0.00914486
0.00561952
0.0131069
0.00457968
-0.00922816
-0.00845826
-0.0292383
0.00706244
0.00623601
0.01594
0.00891296
0.0167319
0.16505
-0.231395
-0.110664
0.00443644
0.0181546
-0.00435436
0.000321965
0.000792296
0.00281608
-0.0039303
0.0853858
-0.200939
0.264534
-0.148978
0.11079
-0.155325
-0.223561
0.0360441
0.000529682
0.0073607
-0.00748295
-0.00040739
0.054205
-0.0770784
-0.256782
0.00593154
0.00110245
-0.000784374
-0.00624955
0.260513
-0.301497
0.0838127
-0.0428292
0.00702335
-0.0144034
0.00906536
0.0767935
-0.0463539
-0.251699
-1.44441e-05
-0.000355513
-0.00472359
-0.0636072
-0.305541
0.0766372
0.292511
0.217187
0.034192
-0.216608
-0.0347722
0.00624113
0.00576581
-0.00317309
-0.00883374
0.00307283
-0.000371519
-0.00419046
0.00148936
0.083384
-0.327402
0.495782
-0.251762
0.00840623
-0.00888721
0.00334862
-0.0551238
0.0506616
0.0428013
0.00329345
-0.0144452
-0.00281937
-0.00201256
0.00338893
0.00445385
-0.00787622
-0.00350457
0.00328997
-0.00466386
0.00591498
-0.0109927
0.00387057
-0.00972935
-0.206645
0.00597272
-0.00531216
0.00334859
-0.00400906
-0.323128
0.277982
0.010182
-0.00672391
-0.219899
0.00905498
0.000510293
-0.00905692
-0.000508278
0.00784449
-0.00993172
-0.013026
0.0151133
-0.0335575
-0.0367681
0.0207505
0.0495751
0.0093109
0.0018591
-0.0268262
0.0199305
-0.0141574
0.0210532
-0.111953
-0.356021
-0.0202753
-0.0146887
0.00646717
-0.00169796
0.00335466
-0.00425133
0.344631
0.0473675
-0.0730358
3.38623e-05
-0.00677919
0.00187565
-0.0035734
0.0595053
0.0571231
-0.0371735
-0.362644
0.05712
-0.0545644
0.360089
0.123814
-0.182841
-0.102036
-0.0167567
0.000193534
0.0129579
0.00360561
0.00839959
-0.000496189
0.00504202
0.00565303
0.105744
-0.0503555
-0.0803134
0.0249252
-0.00338247
0.00653234
-0.0328414
0.0054679
0.465632
-0.438259
0.0025501
-0.00817682
0.00601474
-0.0017755
0.000788695
3.9458e-05
-0.005407
-0.000892821
0.00626044
-0.334069
-0.259832
0.190922
0.0662717
-0.0360304
-0.208114
0.0193119
0.194557
-0.00575612
0.0126428
0.0127625
-0.014152
-0.0112533
0.00403263
-0.0105427
0.0138663
0.00256715
0.00763503
-0.00506835
-0.00513373
0.199714
-0.0946698
-0.197243
-0.092422
-0.0230265
0.0624968
0.0529522
0.00815225
-0.198942
-0.162468
0.353258
-0.0078331
0.00137342
-0.260963
-0.0131983
0.226776
0.00678928
0.00290365
-0.00712567
0.00253036
-0.0220658
-0.00793969
-0.00278221
0.00150177
0.00922043
-0.158232
-0.245654
0.064722
0.339165
-0.255999
0.291162
0.144204
-0.179367
-0.00937336
0.00888121
-0.00974137
0.00353553
0.0129283
-0.012769
0.00696148
-0.10107
0.0804932
0.544781
-0.563857
-0.0494761
0.444463
-0.596557
0.204989
-0.0528956
-0.000828128
-0.00672232
0.0012736
0.00627704
-0.0950497
-0.160687
0.18845
0.0672867
-0.000508474
-0.00850197
-0.0373443
0.0252919
0.0105325
-0.00390091
-0.0145712
-0.00395996
0.00501248
0.0148318
-0.0158843
0.00706876
-0.000191611
-0.00743077
-0.000309673
-0.00613257
0.000388831
-0.000856719
0.0029919
0.045191
0.223813
0.058087
-0.173394
0.282687
0.212214
-0.321508
0.34
-0.552045
0.32402
-0.111976
-0.0678929
0.0538554
-0.0135223
0.010392
0.0150451
0.129124
-0.354367
0.213186
0.012057
-0.0437017
0.0254704
0.307408
-0.0116365
-0.28762
0.00295841
-0.00140105
-0.00891516
-0.190437
0.0611307
-0.0557049
0.185011
-0.00140039
0.000876952
0.00815863
-0.247279
0.193959
-0.252728
-2.37015e-05
0.0417627
0.432968
0.0539773
0.146014
-0.213114
0.00660938
-0.00387424
-0.00226186
0.0037876
0.00234866
-0.0445309
-0.131872
0.148977
0.0274263
-0.359151
0.00136549
-0.0059648
0.000154788
-0.00798255
-0.00892862
0.00338826
-0.0192262
0.275951
-0.188549
-0.0138262
0.0036458
0.00340624
0.0067742
0.0690081
-0.0639451
0.0612089
-0.0193498
-0.275508
0.0119237
0.20197
-0.383605
0.253678
-0.0720423
0.434678
0.0639578
-0.0541736
0.0585857
-0.0501661
0.127287
-0.18855
0.228529
0.176951
0.00646793
0.00799396
0.246634
0.0520291
-0.052519
-0.246144
-0.00361591
-0.0115587
0.0167763
0.168866
-0.133553
-0.0379241
0.221857
0.00251297
0.00541502
0.00605919
0.00142106
-0.00295762
0.00971563
-0.00656269
0.000187591
-0.00334049
0.0113769
0.21413
-0.197168
-0.502888
-0.410359
0.110823
0.0140454
-0.294359
-0.00215197
-0.000436531
0.0218081
0.0206025
-0.0289062
-0.013504
0.00754882
0.00380153
-0.0029441
0.00598996
-0.00383701
0.0013827
0.00852841
0.0339065
-0.0490398
0.00660509
-0.0453698
0.0746087
0.0486019
-0.15129
-0.0734617
0.12332
0.101431
0.00477256
-0.00609662
-0.000176321
-0.00949511
-0.00330174
0.00432362
-0.00787386
-0.0509033
0.650773
-0.0528001
0.110133
-0.0165381
-0.0589846
-0.00545403
0.00396623
0.00827722
0.075466
0.0825429
-0.0572048
-0.100803
-0.0213298
-0.010524
0.018219
0.00492598
-0.0267181
-0.00744586
0.140595
0.0574883
-0.121803
-0.199992
-0.0333414
0.0612288
0.172104
-0.0525772
0.240423
0.0444642
-0.232312
-0.00323232
0.00606981
0.00999499
-0.0128324
0.283203
-0.187821
0.182689
-0.278071
-0.197063
-0.0626638
0.11614
0.143586
0.0120741
-0.00905286
0.00863459
-0.00902395
0.00126255
-0.231748
0.171547
-0.00775458
0.0143497
0.00662378
-0.0132189
-0.0167069
-0.00571779
0.00769493
-0.00160823
0.00878913
-0.00395521
0.011893
-0.158992
-0.182651
0.358936
-0.314034
-0.0289442
-0.0159583
-0.00524523
-0.00056969
0.00558265
0.000232367
-0.130253
0.16856
-0.19654
-0.302643
0.321152
-0.166032
0.147523
-0.477869
-0.0553612
0.453935
0.0792953
-0.1031
0.152925
-0.0943555
-0.0286539
0.0211457
0.395751
0.00238606
0.0084008
-0.00283589
0.00190995
0.0005545
0.0559679
-0.0388477
-0.00281091
0.00457935
-0.00500063
-0.00302936
-0.00511355
0.00909948
-0.0178971
0.0151531
-0.0100518
0.00428629
-0.42174
-0.179737
0.267407
0.0103102
-0.0328781
-0.00455299
0.027121
-0.290235
-0.0381492
0.00353857
0.00740544
-0.00447619
0.02529
0.43838
-0.509024
-0.00283823
0.000211538
-0.00512777
0.173013
-0.0681785
-0.199884
-0.142412
0.296279
-0.00321543
0.00829887
0.00894554
0.00954081
0.00431864
-0.108058
0.0041963
-0.00948676
-0.239168
-0.341449
0.0720405
0.145716
-0.0758306
-0.141926
0.0197502
0.00909338
-1.46193e-05
-9.97662e-05
-0.00700807
0.00712261
-0.0158212
0.00829803
0.00224759
0.00527607
-0.289711
-0.0099976
0.055162
0.244548
-0.0525771
0.177787
-0.226475
0.242244
-0.277403
0.00167223
-0.574944
0.0593928
-0.0483047
-0.0106174
-0.0416987
-0.188634
-0.161639
0.0541211
0.296151
-0.062274
0.178536
-0.176605
0.0195013
-0.0202005
0.021302
0.00800904
-0.00573799
0.00489643
0.00540746
0.0088678
0.052622
-0.0468308
0.483539
-0.509978
-0.24731
0.273749
-0.00655036
0.125167
-0.387852
0.463687
-0.0150295
-0.305926
0.317552
0.00340277
-0.0178599
0.020698
-0.0161137
0.0132762
0.04476
-0.000995995
-0.0334533
-0.0154037
0.00547175
-0.0103434
-0.144221
0.0307316
0.155499
-0.0420102
0.205989
-0.0592999
0.0444373
-0.191127
-0.0784901
0.0503113
0.0690969
-0.1812
-0.108853
0.00834982
-0.240115
0.0516608
0.180104
0.0459138
0.025279
-0.0298121
-0.0413801
-0.00163224
0.000798798
0.00787892
-0.0432458
0.333801
0.0216696
0.00633728
-0.0153308
-0.012676
-0.0066205
0.00520181
-0.0050257
-0.0349608
0.0071089
0.00935882
0.00514979
-0.00516935
0.0157322
-0.0153877
-0.0126736
0.0123297
-0.102406
-0.488364
0.112902
0.0141499
-0.0165166
0.00994746
-0.00758053
0.369664
-0.145686
0.115147
0.203552
0.0863616
0.0696566
-0.0846977
-0.0713199
-0.000229699
-0.00868483
-0.000520912
0.00943548
0.00245181
-0.00369195
0.00839921
0.0145648
-0.0166922
0.00880189
-0.0088555
0.00782946
-0.00777579
-0.0131061
-0.00233021
0.00327599
0.0767118
0.161172
-0.0867177
-0.408773
-0.0373356
0.0258949
0.420214
-0.443827
0.0348737
0.00795484
-0.0202495
-0.0170808
0.0226418
-0.00519434
0.0068171
-0.00020607
-0.000119332
-0.00760865
0.0079342
-0.0161519
0.288454
-0.693175
0.165804
-0.0475752
0.0321823
0.0175038
0.0365471
0.0093084
-0.0115156
0.0276822
-0.0242887
0.0218985
-0.143789
-0.283055
0.0432307
0.383614
0.000117831
-0.00517794
0.000458002
0.26302
0.186969
-0.324821
-0.0968698
0.0726321
0.00372262
0.00391838
-0.587189
-0.0586686
-0.0473216
0.11813
-0.0228366
-0.0923723
-0.00292084
0.036273
0.0882816
-0.00501057
-0.00603957
-0.0218024
0.308404
-0.0846314
0.00672093
0.00257995
0.00041478
0.00388475
-0.0101239
0.0222358
0.0140242
-0.0219103
0.00697916
-0.0747641
0.0245197
0.0432636
0.251442
0.0215914
-0.233062
-0.039971
-0.362126
0.349961
0.0215586
-0.00939343
-0.0351788
-0.402248
-0.0711628
-0.332543
0.164539
-0.00332733
0.00498708
-0.00541486
0.00375664
-0.0132755
-0.0053207
-0.00629433
-0.329228
0.250398
0.0547147
-0.0445999
-0.0373623
-0.0449817
-0.327041
-0.0533358
0.316769
0.279489
-0.0476132
0.0452619
-0.138981
-0.0505019
0.527668
-0.0705096
-0.155356
-0.305635
0.22453
-0.300577
0.26073
0.262981
-0.223135
-0.0300513
0.119417
0.302414
-0.00152834
-0.00475281
-0.00150362
0.00778493
-0.329068
-0.155419
0.455738
0.0287486
-0.00575698
-0.000884304
0.0114772
-0.00483591
0.0723154
-0.128308
-0.050742
0.106735
-0.252663
0.16764
0.36771
0.00838225
-0.00511268
-0.242064
-0.02529
-0.329416
0.0950146
0.259691
0.00866095
0.00122095
-0.0194382
-0.00388886
0.0142743
0.0206347
-0.0180957
-0.0183597
-0.35181
-0.144153
0.0742238
0.216772
-0.0693991
0.00136241
-0.000350002
0.00504681
0.0056969
-0.0022515
-0.497198
0.00428633
0.00706885
-0.00839677
0.0349587
-0.44692
-0.0396774
-0.546011
0.494113
-0.0505088
0.177697
0.0209098
-0.0340492
-0.363977
0.135692
0.023575
-0.316203
-0.0455867
0.338215
0.0113669
0.0197228
-0.00285339
0.00701501
-0.00556191
-0.0210555
0.00361058
0.0224575
-0.00732421
-0.000468403
-0.000811569
0.0052663
-0.00338496
-0.501302
0.553794
-0.049107
0.0109368
-0.334572
0.0595101
-0.0519785
0.0316692
0.0402078
0.00283805
-0.144728
0.266222
0.0907203
0.0320853
0.439662
-0.440617
-0.0311302
0.498193
-0.476288
-0.000824019
-0.00532299
-0.209237
0.204412
-0.220295
0.244987
0.0144698
-0.0391617
-0.00394331
0.0290176
0.026783
-0.0282196
0.258098
-0.00409805
-0.22578
0.0644439
0.152862
-0.00835932
-0.000223117
0.00851193
0.041378
-0.242752
-0.514107
-0.0301929
-0.0522573
-0.0884011
0.0221941
0.268905
-0.01465
-0.00121086
-0.0526783
0.155078
-0.157781
0.0553815
-0.0325328
0.0253531
-0.265297
0.183645
-0.00479456
-0.00482841
-0.00668332
0.0163078
-0.0513159
0.0580317
0.00669266
0.207882
0.0315365
-0.201756
-0.00456856
-0.00664595
0.00104153
0.0470374
0.0747701
0.0632773
0.278637
-0.0680903
0.0217466
0.00409819
-0.0112794
0.00893324
-0.0616874
0.12822
0.0401414
-0.0317573
0.0526119
-0.0609946
0.0264105
-0.0206311
-0.00500774
0.00299756
0.00484833
0.108094
-0.0296089
0.0898663
-0.168351
-0.024973
0.0466011
0.0117837
-0.033412
0.0964978
-0.34078
0.361877
-0.276294
0.219873
-0.383196
0.00611294
-0.00142862
-0.0104778
0.0067352
0.0060785
0.012443
-0.208599
-0.0596413
0.175739
0.0925011
0.0952322
-0.0977738
-0.0350402
0.16733
-0.075634
0.0705888
-0.162286
0.356622
-0.367247
0.054277
-0.0436523
0.237556
-0.130433
0.175604
-0.282727
0.384264
-0.390115
0.0504805
-0.0446297
0.419544
-0.347001
-0.0489679
0.41522
-0.0157053
-0.307967
-0.0419198
0.460869
-0.0287497
-0.00170268
0.0254266
-0.153337
-0.341287
0.309991
0.184634
-0.0276494
-0.047492
-0.102686
0.153576
-0.0217555
-0.297298
-0.474772
0.0224263
-0.0489557
0.174376
-0.0321254
-0.130874
-0.0292864
0.0277252
-0.01343
0.0708668
0.233943
-0.0581767
-0.338257
0.0222887
-0.0358171
0.440405
-0.426877
0.201487
-0.0857477
0.0102384
-0.0267277
-0.182065
0.198554
-0.0398826
0.266943
-0.25528
-0.0395921
0.451532
-0.0334698
0.216359
0.0249927
0.0229314
-0.021481
-0.299131
0.288417
-0.119072
-0.223989
0.070173
0.222412
-0.0247296
0.0408709
-0.0411149
-0.00127911
-0.0134447
-0.00866324
0.0317646
0.0211485
-0.0306773
0.00142834
-0.00328982
-0.00333282
0.242208
-0.0386185
0.00601822
-0.00604108
0.02802
-0.0369528
0.181056
-0.172124
-0.348798
0.181641
0.238024
0.351012
-0.0184303
0.00288182
-0.335464
0.299805
0.0349759
-0.0477128
-0.0478558
0.32853
-0.0398152
0.03524
-0.323955
-0.102033
0.705438
-0.0496117
0.375531
0.0534367
-0.0447037
0.00160239
0.0131233
0.0343036
-0.0143397
-0.0299132
0.0240525
0.0164802
-0.00533632
-0.209212
0.198067
0.312651
0.155084
-0.0481913
0.213886
-0.180578
0.024199
-0.0575075
0.236818
-0.186142
0.164189
-0.200395
0.088321
-0.0521149
0.166441
0.118024
-0.0705787
0.0819688
-0.00391177
0.019346
-0.0974032
0.171457
-0.0762541
0.0721272
0.0495172
-0.0238387
0.0209219
0.228153
0.10102
-0.0923549
0.333663
-0.0175832
0.00889584
-0.324976
0.150314
-0.134479
0.117752
-0.133587
0.217872
-0.231225
-0.0655189
0.0788714
0.279005
-0.478966
-0.0830948
0.166073
-0.0677026
0.0936963
-0.192068
0.333156
0.0188681
-0.0183606
0.170363
-0.169192
0.0303654
0.0161556
0.381908
-0.377978
-0.020086
0.268434
-0.30448
0.0162466
0.019799
-0.0484709
0.196909
-0.138199
-0.0349513
0.224583
0.215135
-0.19568
0.137951
-0.157406
0.248622
-0.169869
0.185498
0.0544028
-0.0608759
0.170661
0.00872943
0.149926
-0.142074
-0.016582
-0.0235916
0.130085
-0.116554
0.0100606
0.101612
-0.0527959
-0.078465
0.0296491
0.0669716
0.0204704
-0.00547276
0.163103
-0.0722964
0.0449387
-0.0375356
0.0421136
0.0773017
0.212899
-0.118744
0.163544
-0.138588
0.197232
-0.0540383
0.0746776
0.225145
0.0937787
-0.090772
0.0867717
-0.0509515
0.012632
-0.0215705
0.300277
-0.291339
0.309997
-0.0214165
0.0158779
-0.304459
0.227946
0.0291441
0.0113441
0.231576
-0.118479
0.124458
0.282357
-0.197654
-0.0568248
0.0581822
-0.375348
0.373991
0.355987
-0.346202
-0.00534868
-0.00443746
0.0249051
0.0220112
0.260768
-0.447103
0.214221
0.227553
-0.193153
0.356685
0.0129373
-0.0134009
0.221966
0.138907
-0.129296
-0.294532
-0.114241
0.145941
-0.0875779
0.0806363
0.168113
-0.179468
-0.260438
0.191933
0.247973
0.16672
-0.154362
-0.00362942
0.135833
-0.128693
0.205244
-0.192199
0.0642559
-0.00266119
0.296831
-0.327043
0.0328729
0.382998
-0.0324748
0.00546408
-0.111354
-0.292022
0.0936275
0.209446
-0.413118
0.284674
-0.0379322
0.320654
0.0377259
-0.320449
0.0453567
-0.0498976
-0.0201899
0.113819
0.29451
-0.148094
0.0561698
0.156368
-0.0573046
0.294613
-0.293774
0.0564656
-0.00563602
0.287173
-0.294788
-0.154823
0.0538553
-0.393547
-0.053363
0.393054
0.057426
-0.0793556
-0.0913071
0.113237
-0.0738668
0.180145
0.252658
-0.00817772
0.0255683
-0.00108395
0.283273
-0.380546
-0.228834
0.43997
-0.234007
-0.369358
0.163395
0.246998
0.39044
-0.312691
-0.0503984
-0.0273507
0.00284784
0.00118938
-0.00924004
-0.000973243
0.242352
-0.33758
0.0405836
-0.0235514
0.180671
-0.111152
0.320921
0.328907
0.176467
-0.324815
-0.180559
-0.237588
0.24218
-0.345373
-0.0119419
-0.0675189
0.42449
-0.102254
0.0442359
-0.0555159
0.0132908
0.0266382
-0.00241105
-0.169591
0.166687
-0.131575
0.0921109
-0.114709
-0.0853242
0.084686
0.0580646
-0.127813
0.0614013
0.126135
-0.0597229
-0.0601624
0.0920976
0.0130041
-0.280907
0.153615
-0.0667664
-0.0355005
0.198712
0.011164
0.0222725
0.161246
0.14486
0.0988193
-0.0307808
-0.0811477
0.0735876
-0.305263
0.312822
-0.187374
0.0514539
-0.0508103
0.0807824
-0.149542
0.164091
0.213397
-0.250021
0.150159
0.158698
-0.0588357
-0.0603043
0.0419518
-0.0934519
0.0672505
-0.0220828
0.0178399
-0.00580554
0.0949374
-0.0903095
0.220517
-0.339842
0.344685
0.0921307
-0.0969737
0.0420914
0.0560084
0.033418
0.247204
-0.241251
-0.0393715
-0.0642839
0.302853
-0.312436
0.236877
-0.0729996
-0.135666
0.035064
-0.00535044
0.000919703
0.00306424
-0.385591
0.0130527
-0.188263
0.0926679
0.190532
-0.294922
0.278103
0.153532
-0.136713
0.016993
-0.42574
0.435982
-0.0272349
-0.129509
0.307255
0.197617
-0.311868
-0.105034
0.133116
-0.165713
0.208212
0.261249
-0.128906
-0.302212
0.309554
-0.0211277
-0.238526
0.261815
-0.0554908
0.0374132
-0.290392
-0.238384
0.315517
0.21326
0.016389
0.000219912
-0.0272586
0.0106507
-0.072839
0.0250145
-0.22125
0.269074
0.408373
0.247503
-0.397601
-0.258276
-0.206069
0.190461
0.195753
0.234563
-0.142408
0.0834481
-0.259464
0.183293
-0.0443722
-0.0225682
0.00677792
-0.283715
-0.0848819
0.159998
-0.205224
0.025469
0.21329
-0.0335355
-0.214458
0.173916
0.222183
-0.434839
-0.025435
0.138608
-0.0384799
0.00066604
-0.0054483
0.38778
-0.399057
0.0139228
0.251195
0.13394
-0.0477744
0.0248062
-0.109893
0.214285
-0.174431
-0.0618922
0.0578735
-0.0894333
0.0119313
0.340438
-0.0556559
-0.296714
0.223179
0.166258
-0.239278
-0.134194
-0.0886032
0.214551
0.00824599
-0.00699311
-0.00630378
0.0279813
0.383966
-0.0427464
0.3127
-0.0442213
0.470633
-0.46591
-0.0443154
-0.421107
0.427403
-0.043632
0.319621
0.055066
-0.0460242
-0.402333
-0.0446059
-0.406039
0.400332
0.0490569
-0.0433502
0.458097
-0.503293
0.0908969
-0.0456995
0.349315
0.050912
-0.043605
-0.482004
0.50254
0.0243164
-0.0448532
0.459614
0.0115957
-0.0453319
0.480968
0.0454815
-0.481806
-0.0446437
-0.534126
0.637395
-0.0582288
-0.0450403
-0.450182
0.0413085
0.454718
-0.0458445
0.414936
0.0522529
-0.424295
-0.0428933
-0.0438839
0.054878
0.365555
-0.0449021
-0.405792
0.412702
0.0365082
-0.0434174
0.0808043
0.279666
-0.0478193
-0.0629504
0.168082
-0.252785
0.245129
-0.158058
0.0139608
-0.010176
0.00643755
0.0817482
-0.0498095
0.13742
-0.203997
0.1957
0.287711
-0.193825
0.289727
-0.0338493
0.308516
-0.258187
-0.010667
0.00131955
0.139432
-0.195628
-0.0375587
0.0284688
0.159016
-0.027304
0.309526
-0.31859
0.337198
0.0248102
-0.0434179
0.413482
0.0131255
-0.0426416
0.335205
0.0206725
-0.0431773
-0.408236
0.344962
-0.0461088
0.173924
-0.0443956
-0.200821
0.307919
-0.362589
0.367112
-0.147411
-0.00666262
-0.0137195
-0.333803
0.354185
0.0466156
-0.0514708
0.153832
0.0618115
0.0223295
-0.194782
-0.240257
0.0832915
-0.0995337
0.256499
0.237401
-0.389266
0.0195202
-0.0501697
-0.0137227
0.219369
-0.240097
-0.233061
0.253789
-0.220847
-0.143874
0.105258
-0.317692
0.329576
0.0338507
-0.045735
-0.351634
0.388777
-0.0438061
-0.295575
0.302272
-0.0503986
-0.319739
-0.0490173
-0.328308
0.332356
0.0400657
-0.0441143
0.294603
-0.297323
0.0532885
-0.050568
-0.532033
0.430228
0.145739
-0.0439341
-0.354815
0.370875
0.0277407
-0.0438003
-0.49243
-0.0595451
0.597335
-0.0453599
0.439715
0.153557
-0.546942
-0.0463292
0.438133
-0.41823
0.0273053
-0.0472091
0.464425
-0.452659
0.0359036
-0.0476693
0.0540617
-0.358524
-0.00872288
0.00704057
0.298513
0.190299
0.219111
-0.250712
0.201065
0.147884
-0.134664
0.308467
-0.213567
0.34272
-0.231228
-0.0193819
-0.270245
0.0640777
0.113937
-0.116614
-0.332735
0.0487388
-0.0443118
-0.050411
0.0246995
-0.0439782
0.070889
0.415214
-0.0463884
0.0478712
-0.0459413
0.465885
0.0464314
-0.0478912
-0.308175
0.0379019
-0.0494661
0.0382276
-0.0437279
-0.0473673
-0.303186
0.056207
-0.0503436
-0.42018
-0.0677441
-0.0441092
0.0124246
-0.0452409
-0.128165
-0.344802
0.236112
-0.276616
-0.0413155
0.0537323
-0.160476
-0.0274499
-0.249358
0.281654
-0.157926
0.0211318
0.161631
-0.354523
0.263634
-0.22683
0.21121
0.202268
-0.182062
0.00312789
0.00205041
-0.000405675
-0.0968994
0.0922996
-0.219389
-0.161676
-0.00520599
0.0313565
0.147438
0.277143
0.208186
-0.0381823
-0.326467
0.0504768
-0.264072
-0.0391896
0.0606683
-0.0508278
0.0435874
-0.0534279
-0.000502835
0.00425579
-0.251041
0.211599
-0.415199
0.119303
-0.0238317
-0.00388223
0.178274
0.0585774
-0.0497707
0.408718
0.0436803
-0.0447158
0.487128
-0.0271153
-0.0633489
-0.396664
0.051877
-0.0429798
0.220627
-0.327941
0.0757781
-0.306049
0.00942389
0.0298797
0.0465153
0.240368
-0.253058
0.178949
-0.04656
-0.282567
-0.095708
0.356675
-0.342115
-0.0919727
0.0976373
0.000773016
-0.288921
0.0746228
0.0617007
-0.181773
-0.00162993
0.224541
-0.105481
-0.000226432
0.351736
-0.342614
0.169954
-0.0944802
0.125591
-0.00905568
0.00213172
0.0427038
-0.050933
0.082823
0.026307
0.109609
-0.0531059
-0.392685
-0.0833351
0.261561
0.00755895
0.148201
-0.161097
0.0427374
-0.0537511
-0.0379035
0.24516
0.280798
-0.187308
-0.259886
0.166397
0.158871
-0.0540517
0.322923
-0.136144
-0.222301
0.0664226
-0.271941
0.258269
0.180878
0.14403
-0.0797789
0.29715
0.203016