/*--------------------------------*- C++ -*----------------------------------*\
  =========                 |
  \\      /  F ield         | OpenFOAM: The Open Source CFD Toolbox
   \\    /   O peration     | Website:  https://openfoam.org
    \\  /    A nd           | Version:  10
     \\/     M anipulation  |
\*---------------------------------------------------------------------------*/
FoamFile
{
    format      ascii;
    class       volVectorField;
    location    "450";
    object      U;
}
// * * * * * * * * * * * * * * * * * * * * * * * * * * * * * * * * * * * * * //

dimensions      [0 1 -1 0 0 0 0];

internalField   nonuniform List<vector> 
23845
(
(0.695877 -0.10313 1.00201e-20)
(0.487319 0.0999006 -4.36081e-21)
(0.291048 -0.0302619 2.4885e-20)
(-0.132214 0.0131867 7.31401e-22)
(0.11274 0.062147 4.45098e-21)
(0.737628 -0.0117119 -1.41575e-22)
(0.90361 -0.0433709 -1.16286e-20)
(-0.0746237 0.0668516 -2.73668e-22)
(0.839229 -0.012136 4.26643e-24)
(0.801189 0.0842977 -5.00154e-21)
(0.454669 -0.0420876 -7.13152e-21)
(0.689575 -0.00504075 1.07985e-23)
(0.852982 0.00819629 -2.03674e-22)
(0.802595 -0.013408 1.71276e-24)
(0.732562 0.0446407 -1.95102e-20)
(0.870485 0.0584403 -9.87433e-22)
(0.744809 0.0139742 2.44347e-22)
(0.573389 -0.014568 2.2194e-22)
(0.870498 -0.0205584 -7.33609e-22)
(0.707419 0.00287574 -2.0966e-22)
(0.845168 0.0932051 1.63185e-20)
(0.414088 -0.0323543 -1.35535e-20)
(1.00284 -0.0573535 -2.80353e-21)
(0.845504 -0.0131125 4.17446e-23)
(0.714472 0.072784 -9.60518e-22)
(0.910865 0.00181359 -2.31481e-22)
(0.909103 0.0594846 9.53017e-21)
(0.732808 -0.0102811 5.78606e-22)
(-0.0517735 -0.117723 7.86235e-21)
(0.728874 0.00357738 4.65925e-23)
(-0.143551 -0.00432859 3.17037e-20)
(-0.0319607 0.089681 4.16096e-22)
(0.4731 -0.0363645 8.97751e-21)
(0.613769 -0.0188034 -7.11969e-22)
(0.686204 -0.00355777 -3.11442e-23)
(0.677922 -0.000213964 2.24925e-22)
(-0.0445172 0.120306 -7.1848e-21)
(0.688248 -0.00509866 -1.40627e-23)
(0.71284 -0.0089456 -3.02765e-23)
(0.832572 0.00745847 1.29782e-23)
(0.901802 -0.024997 2.83215e-22)
(0.681702 -0.0140047 -1.36809e-21)
(0.865659 -0.0106141 -1.03072e-21)
(0.637464 0.00846018 1.2867e-21)
(0.913442 -0.010901 -2.61828e-21)
(0.811179 0.00918954 -2.62192e-22)
(-0.0272663 -0.03009 -1.72612e-21)
(0.825881 -0.0585992 -4.92202e-21)
(-0.0244839 0.0112871 1.56192e-21)
(-0.0595834 -0.116199 3.41765e-21)
(-0.0507239 -0.0441442 7.18231e-22)
(0.200947 -0.0339333 -3.57635e-21)
(-0.0228133 -0.0409199 -3.62698e-21)
(0.775227 -0.012021 -1.27553e-22)
(-0.0351583 0.099618 7.59709e-21)
(0.79624 0.0137597 -3.12626e-22)
(0.242787 0.0808763 2.26604e-20)
(-0.0928157 -0.0358875 1.89969e-20)
(0.752582 0.0996641 -3.15328e-20)
(0.0379657 0.0405449 -1.54219e-20)
(-0.0384741 0.10159 2.64047e-21)
(0.648847 0.00993876 -2.56183e-22)
(0.857749 0.0486035 -1.27674e-21)
(-0.0320902 -0.0930601 3.41323e-21)
(0.862998 -0.0128597 -3.69165e-22)
(0.833683 0.00768291 -1.54009e-21)
(0.949694 0.0438452 9.84139e-21)
(0.943774 0.00560874 -4.14898e-22)
(0.919975 -0.0101922 8.89342e-22)
(0.861426 -0.0262311 1.80988e-22)
(-0.0584423 0.0878173 2.80605e-22)
(0.190727 -0.0115829 1.5656e-20)
(0.906121 0.000275734 3.72362e-23)
(0.801066 0.0423872 1.12318e-20)
(0.882395 -0.0121308 7.15924e-22)
(0.682285 0.0439011 -5.81102e-23)
(0.694656 -0.0062112 -1.11176e-23)
(0.71007 -0.00941149 -3.61292e-23)
(-0.120342 -0.0209987 3.85972e-21)
(0.729011 0.022579 4.55421e-22)
(0.928312 0.0728378 -2.48433e-21)
(0.708723 -0.0537417 -3.41131e-20)
(0.350871 0.0925242 -3.98167e-21)
(-0.0846128 -0.051226 -8.06646e-22)
(0.286492 0.0121722 -6.97581e-21)
(0.686926 -0.00220149 -5.56144e-23)
(0.630359 0.0699783 1.28163e-20)
(-0.018373 -0.0126256 1.69146e-20)
(0.862791 -0.0124878 -7.12087e-23)
(0.78843 0.021691 -7.91172e-22)
(-0.0489798 -0.0827876 -1.27082e-20)
(0.909342 0.0300041 -8.39269e-22)
(-0.0453341 -0.104488 1.14193e-20)
(0.687175 -0.00771748 -1.53283e-22)
(-0.0901449 -0.0241631 2.84165e-21)
(-0.0544556 -0.0930529 -3.57972e-20)
(0.773048 -0.0166875 5.7024e-22)
(0.810956 -0.0609537 -3.71799e-22)
(0.880035 -0.011553 -2.90061e-23)
(0.0302816 0.0403255 -6.98553e-21)
(0.778725 -0.0195732 9.26188e-22)
(0.948175 0.0410739 3.39239e-21)
(0.429172 -0.0973348 1.25243e-20)
(-0.0694277 -0.0880049 -1.53695e-20)
(-0.0502071 -0.090809 -2.94379e-20)
(-0.0928092 -0.0426509 5.34457e-21)
(0.753492 -0.0124749 8.71543e-23)
(0.893962 -0.0123599 -2.7562e-23)
(1.00036 0.0354835 -1.52923e-21)
(0.660379 0.00878766 -5.15042e-22)
(0.494074 -0.0380638 -2.60249e-21)
(0.692717 -0.00662252 -2.70166e-23)
(0.403253 0.026405 1.42439e-20)
(0.792904 -0.0770281 -2.06711e-21)
(0.681007 0.000250463 -8.03964e-23)
(0.897652 -0.0844411 -2.3375e-21)
(0.881961 -0.00900307 7.55171e-22)
(0.877866 0.0688387 -5.16607e-21)
(-0.0518599 -0.119671 5.78432e-21)
(-0.0122494 0.0792804 -1.66652e-20)
(0.703948 -0.00825636 -6.79148e-23)
(-0.040433 -0.0954062 -1.96618e-21)
(0.87084 0.023258 1.75115e-22)
(0.0470004 0.0324424 3.58441e-20)
(0.935193 0.0401586 -3.30189e-21)
(0.905986 0.000294283 -1.20597e-22)
(-0.0416752 0.0985483 2.22211e-21)
(-0.0605287 -0.111005 -1.28626e-20)
(0.167035 0.00617217 9.84288e-22)
(-0.0175643 -0.0429947 1.15567e-20)
(0.173281 0.0113855 1.68124e-20)
(0.468316 0.0739942 5.36678e-22)
(0.3437 -0.0468476 2.62198e-22)
(0.776761 -0.0130685 -3.07223e-24)
(0.75917 -0.0240291 6.00212e-22)
(0.575955 -0.103346 3.67837e-21)
(-0.0664324 0.0939707 3.2592e-20)
(0.691104 -0.00506279 2.24735e-23)
(0.990365 -0.0433876 6.47897e-23)
(0.716537 -0.00981727 1.71712e-23)
(-0.0553631 -0.125351 -1.57412e-20)
(0.674032 -0.0124511 8.88997e-22)
(0.701175 0.00163011 4.55572e-23)
(0.618614 0.00812632 -2.89508e-23)
(0.85581 -0.0438109 -3.05332e-21)
(0.65048 0.00730729 9.72436e-22)
(0.890769 -0.0792498 -2.57535e-22)
(0.431929 0.0360244 3.82459e-20)
(0.0269712 0.0644961 -1.34977e-20)
(0.802122 0.0297572 5.4125e-22)
(0.482632 0.0305921 -1.50916e-20)
(0.872965 0.00242053 2.09058e-22)
(0.485493 -0.0801628 1.33856e-20)
(0.819076 -0.00987711 -3.17164e-23)
(0.376292 -0.0234769 -5.14638e-21)
(0.680755 0.0395671 -1.67515e-21)
(0.272057 -0.0852605 -4.2948e-21)
(0.688294 -0.00702887 -1.98822e-22)
(0.205188 0.00472899 1.13386e-21)
(-0.0540132 -0.108447 3.77688e-21)
(0.860167 0.0302279 5.82332e-22)
(0.693259 -0.0458762 -1.63389e-21)
(-0.0852523 0.0135889 -1.03921e-21)
(0.855798 -0.0129445 -5.16866e-23)
(0.916838 -0.011587 -5.68528e-24)
(0.731322 0.0298118 5.53977e-22)
(0.753087 -0.0122945 1.00898e-24)
(-0.0455158 0.104587 -5.69767e-21)
(0.726475 -0.00948057 3.63084e-23)
(0.649434 -0.0105365 -1.65125e-21)
(0.764203 0.00735751 1.41896e-23)
(-0.110558 0.0159199 5.28332e-21)
(0.850993 -0.0130387 -5.35429e-22)
(0.00682086 0.0360516 -7.63583e-21)
(0.871295 0.00439815 -1.77025e-22)
(-0.10932 -0.000724511 -4.5331e-21)
(0.91337 0.0366089 7.69038e-22)
(0.634621 0.0488443 1.99641e-21)
(0.893567 -0.0112068 -1.14295e-22)
(0.692537 -0.00762381 6.4854e-23)
(0.0550143 -0.0461857 5.84827e-21)
(0.00540362 -0.0288714 7.44734e-22)
(0.77126 0.045519 9.91967e-21)
(0.48168 -0.0315278 -1.3034e-21)
(0.854279 -0.0515275 -3.25082e-21)
(0.845122 0.0129787 9.48562e-23)
(0.67221 0.00999409 -6.6875e-22)
(-0.0765172 -0.0584715 2.8173e-21)
(-0.0540297 0.116914 1.86128e-21)
(0.704146 -0.0143537 5.79177e-22)
(-0.0422371 0.0987988 3.00437e-20)
(0.80098 -0.0134325 -2.29096e-23)
(0.809491 0.00678313 2.69451e-23)
(0.767113 0.00557756 1.01187e-23)
(0.8709 0.03803 -1.18312e-21)
(0.818301 -0.01303 -1.07718e-22)
(-0.0632163 -0.0906385 -2.65688e-21)
(-0.0535437 0.10652 1.95408e-21)
(-0.0762242 -0.069473 -9.68835e-21)
(0.550054 -0.0446467 1.39373e-22)
(0.656074 0.0290333 -3.94691e-22)
(0.809192 -0.0118079 1.33816e-22)
(0.0186057 0.0666744 -7.1886e-21)
(0.364153 0.0588928 1.14682e-21)
(-0.0801702 0.0583653 1.19647e-20)
(-0.0858297 0.0273131 7.42464e-22)
(0.258403 0.0171135 -3.47395e-20)
(0.734052 -0.0112389 -1.2487e-23)
(0.730082 -0.095692 -9.69847e-21)
(0.580378 0.0142648 3.42175e-22)
(0.670672 0.0211113 -3.49392e-22)
(-0.0487376 0.117605 1.07342e-20)
(0.903186 -0.0464477 1.29558e-22)
(0.753029 -0.0110484 4.38786e-23)
(-0.0354462 -0.0360616 2.50579e-21)
(-0.0404258 -0.109353 -5.95704e-21)
(0.276339 0.0413582 -3.60148e-21)
(0.653723 0.010862 -1.23408e-22)
(-0.0529097 0.119834 1.56767e-20)
(0.195085 0.0107973 -1.60479e-22)
(0.892304 -0.00758509 1.16845e-22)
(0.745529 0.043872 -5.86899e-21)
(-0.064709 0.0881655 -2.0458e-20)
(0.756089 0.0398851 -1.6887e-21)
(0.628165 0.00616963 5.42165e-23)
(0.511282 -0.0372887 1.91335e-20)
(-0.0603168 -0.11383 -7.40946e-21)
(0.798919 -0.0130321 2.69199e-22)
(0.73567 0.0045632 1.90735e-23)
(0.914254 0.0223278 1.10137e-21)
(0.704536 -0.00918004 8.89677e-23)
(-0.0293194 -0.00530118 -9.46103e-21)
(0.691865 -0.00672568 2.77235e-23)
(0.939198 0.000412572 -3.03749e-22)
(0.153215 0.0647936 6.9189e-21)
(-0.0484261 -0.112746 -1.08113e-20)
(0.869396 -0.0124514 -3.89613e-22)
(-0.149894 0.00584484 8.74976e-21)
(0.870297 0.00109208 1.08469e-22)
(-0.0708846 -0.0182927 2.21923e-20)
(-0.0231073 0.0269899 8.66285e-21)
(0.876927 -0.0762348 5.80636e-21)
(-0.0976806 -0.0413062 -1.30595e-20)
(0.159684 0.0651851 -1.14439e-20)
(-0.0433104 0.0955319 3.17131e-21)
(0.849154 0.0510709 -2.68699e-22)
(0.760455 -0.012823 -1.7883e-22)
(0.921769 -0.00922057 1.49198e-21)
(-0.0985927 0.0122884 2.14604e-21)
(0.64905 -0.0456802 4.69983e-21)
(0.77771 -0.0130091 3.42755e-22)
(0.684797 -0.00131529 -1.38548e-23)
(-0.0524195 0.0563023 -4.42807e-21)
(0.894361 0.00698694 -4.29722e-23)
(0.800513 -0.0447155 -7.19636e-21)
(-0.0514781 0.0901709 2.20022e-21)
(0.00989343 0.0662835 4.43908e-20)
(-0.0625749 0.0635931 7.61615e-22)
(0.682105 -0.0068773 -3.83958e-24)
(0.83838 -0.0128603 4.59175e-22)
(-0.0140821 0.00182471 -2.09187e-20)
(0.682192 -0.00593075 -8.39884e-23)
(-0.0463494 0.0946531 -3.59294e-21)
(0.533489 -0.0392551 3.25787e-21)
(0.603621 0.0361557 -3.26121e-23)
(0.856756 0.00658553 -7.07987e-23)
(-0.118438 -0.00362109 -3.14405e-21)
(0.0852451 0.0320942 -1.39574e-21)
(-0.123061 -0.0091948 5.33699e-21)
(-0.145515 0.0079119 -1.5545e-20)
(0.703605 -0.00864311 -4.55731e-23)
(-0.108892 0.0227604 -3.16593e-21)
(-0.0453461 -0.0137252 -5.11033e-22)
(0.797856 0.00598409 -1.12436e-22)
(0.444049 -0.0284945 -1.67862e-21)
(0.816097 0.00637191 1.53209e-23)
(-0.0603606 -0.0695726 6.97675e-21)
(0.791382 -0.0126135 -1.28422e-22)
(-0.0571716 -0.0677695 3.57338e-21)
(1.00805 0.0568185 1.60521e-20)
(-0.081041 -0.0436689 1.93626e-20)
(0.739246 0.00437019 -3.63059e-23)
(-0.062288 -0.0337301 1.01792e-20)
(0.808198 -0.0400196 9.89894e-23)
(0.683397 -0.00402828 -2.9469e-23)
(-0.0122638 -0.0833499 -1.33058e-20)
(-0.00784639 0.0255783 -4.13714e-21)
(0.821933 -0.0100802 -3.98225e-22)
(-0.0865148 0.0392671 -3.94544e-22)
(0.481189 -0.0371275 8.88992e-21)
(-0.110695 0.0108247 2.60037e-21)
(-0.037633 0.0317038 -1.05753e-20)
(-0.0297788 -0.094848 2.65994e-20)
(-0.0611115 0.0747909 -5.29284e-21)
(-0.0982123 0.0243858 3.41989e-22)
(0.686975 -0.00531487 -1.05229e-23)
(0.00188011 0.0755385 1.73386e-20)
(0.772224 -0.0128039 -5.9617e-23)
(0.685348 -0.00244238 -6.22571e-24)
(-0.0527471 -0.11905 -6.98778e-21)
(0.194973 0.00120379 2.76354e-20)
(0.510581 -0.0347876 1.32445e-20)
(-0.0455439 -0.1109 1.94038e-20)
(-0.154622 -0.000601911 8.0491e-20)
(0.779166 0.00523466 -2.02864e-24)
(-0.15765 0.0014146 -4.66053e-20)
(-0.0332403 -0.0885342 -1.31754e-20)
(-0.0476019 -0.0286497 -3.16602e-21)
(0.786595 -0.0188563 7.24339e-24)
(-0.0635165 0.0957599 4.44122e-21)
(-0.0430121 0.00143173 -1.28014e-20)
(0.371889 -0.0772572 2.72078e-20)
(0.840075 -0.016978 1.13242e-22)
(0.760381 0.00692577 8.66093e-23)
(0.0805164 0.0170598 2.88579e-20)
(-0.0566111 -0.123328 1.45378e-20)
(-0.00742279 -0.0801422 1.84344e-21)
(0.340352 0.0425043 -1.39005e-20)
(-0.051841 0.0985941 5.69321e-21)
(0.890111 -0.00835523 1.57459e-22)
(-0.0495279 0.0829166 8.75203e-21)
(-0.0472611 0.111887 -8.16015e-21)
(0.0457106 0.0527659 -2.29789e-20)
(0.740828 -0.00965224 -4.28653e-23)
(0.58044 -0.0444504 -1.11644e-20)
(0.728895 0.00467143 -2.59311e-23)
(-0.137679 -0.00647302 -1.95333e-20)
(-0.04073 -0.0358394 1.05931e-20)
(0.0104171 -0.0639957 -6.47968e-22)
(0.547944 0.0110666 -2.09628e-21)
(0.393353 -0.0481993 4.61501e-20)
(0.757925 -0.0385206 3.7328e-22)
(-0.0512066 -0.0677255 9.68152e-21)
(0.677594 -0.0042612 6.97296e-23)
(0.0122438 -0.0686259 -4.85639e-21)
(-0.133593 0.00876506 -2.27089e-21)
(-0.0584837 -0.0044865 -1.19567e-20)
(0.562465 0.00922517 8.4731e-22)
(0.669515 0.00633037 5.00965e-22)
(-0.125108 -0.00853084 1.08736e-20)
(-0.0774801 0.015299 -1.3535e-21)
(0.0357186 0.0598248 -1.36173e-20)
(0.455378 -0.0355371 9.29541e-21)
(0.938824 -0.00113882 -1.02493e-22)
(0.920397 -0.00651479 -9.65122e-22)
(-0.0605204 0.0617603 -4.83331e-21)
(0.678867 -0.00232024 -8.65728e-23)
(-0.0567687 -0.0820789 6.10774e-21)
(-0.129577 -0.0133352 9.26136e-21)
(0.423777 -0.0328486 -3.66525e-21)
(-0.0850363 -0.00185389 1.62327e-20)
(0.159529 -0.0167845 -6.34969e-21)
(-0.0613828 0.108762 2.04737e-20)
(-0.0577983 -0.0536626 -1.08438e-20)
(-0.0218499 0.0445579 2.14032e-20)
(0.80803 0.00737482 6.86761e-23)
(0.640035 -0.00929459 -1.03397e-23)
(0.887326 0.000839214 -3.91385e-23)
(0.517065 0.0397436 -6.68983e-21)
(-0.0982547 -0.0380991 3.66161e-21)
(0.098937 0.021703 -1.20101e-20)
(0.879291 0.00713155 -8.15201e-23)
(0.883865 -0.0789062 -6.11743e-21)
(0.81567 -0.0356935 -1.65258e-21)
(-0.0525807 0.118978 1.08156e-20)
(0.760935 -0.012801 5.8477e-24)
(0.0439052 -0.0478863 -3.18614e-21)
(0.695993 -0.00876894 5.64096e-23)
(-0.0523218 -0.120355 6.79514e-21)
(0.90995 0.00397629 2.20237e-22)
(0.65416 -0.0115809 2.33319e-22)
(-0.047992 -0.0947691 1.91798e-20)
(-0.0131592 0.0581003 -1.36807e-20)
(0.689709 -0.00149222 1.81418e-23)
(0.691591 -0.00777217 2.82041e-22)
(-0.0526602 0.080151 -3.50066e-21)
(0.0763811 0.00682442 -2.06284e-20)
(-0.107695 0.0093319 -3.68866e-21)
(0.667141 -0.011649 7.23835e-22)
(-0.0774366 0.0307527 7.09987e-21)
(0.685719 -0.0515796 -1.09799e-20)
(0.681501 -0.00611977 2.69108e-24)
(0.971558 -0.0684045 1.33777e-20)
(0.92153 -0.00722588 4.21089e-22)
(0.939744 -0.000519287 -5.36429e-23)
(0.698622 -0.00779544 -9.03286e-24)
(0.717824 -0.0100594 -5.2722e-22)
(-0.118343 -0.0161651 -6.44546e-21)
(0.584072 0.0235829 -5.91004e-22)
(-0.10024 -0.0246165 -1.36527e-20)
(0.920651 -0.0525095 -2.44815e-21)
(0.642375 0.00633398 -1.21138e-22)
(-0.0270108 -0.0785141 3.07847e-20)
(-0.0467626 -0.080818 7.48431e-21)
(-0.040033 0.0166178 9.48356e-21)
(-0.052952 0.115531 6.76875e-21)
(0.532754 0.030773 -1.97322e-21)
(0.901448 -0.0111489 5.00075e-22)
(0.857144 -0.0270088 -6.23101e-22)
(0.676061 -0.00439932 9.0202e-23)
(-0.00598593 0.00381815 -1.7813e-20)
(-0.148595 0.00450112 4.63897e-20)
(-0.0758596 0.046253 2.68817e-22)
(-0.0351531 0.0107209 -7.95767e-21)
(0.15677 0.0631939 1.68117e-20)
(0.712223 0.0476037 1.04656e-20)
(0.730435 -0.0108804 2.25285e-23)
(-0.0220788 0.0694892 1.97121e-20)
(-0.0512569 -0.0992344 9.81653e-22)
(-0.0205205 0.0770176 -1.69865e-20)
(0.596373 -0.0395988 -9.40309e-21)
(0.939859 0.00195565 -3.34463e-22)
(0.847287 0.0421732 8.74888e-21)
(0.0472626 -0.0554919 1.14458e-20)
(0.351035 0.0915318 -1.27161e-20)
(0.118397 -0.0208154 -1.50158e-20)
(-0.115275 -0.0130271 1.66263e-20)
(0.444455 -0.0240027 -8.55277e-22)
(0.715966 0.00327106 6.71607e-23)
(0.903357 0.0821565 1.15581e-21)
(0.186308 0.00498326 6.21388e-21)
(0.685984 0.00493531 -3.36623e-22)
(0.8296 -0.0132059 -1.45164e-22)
(-0.13186 -0.00117527 6.26081e-21)
(-0.040714 0.085203 6.83363e-21)
(0.64176 0.100714 5.07779e-20)
(0.1581 -0.00271818 -5.61765e-21)
(-0.129798 -0.000826015 1.42017e-20)
(0.0354573 0.0207425 1.1685e-20)
(0.083794 0.0171243 -2.51608e-20)
(0.809054 -0.012513 -6.23326e-23)
(0.603477 0.0130344 -7.07461e-23)
(0.0303841 -0.0619381 -2.54358e-20)
(0.540384 0.00404512 -1.82585e-21)
(0.779857 0.00595411 -9.679e-22)
(0.894883 -0.00764097 -2.01418e-22)
(0.688126 -0.00247982 4.69139e-23)
(0.845853 0.012342 -7.41485e-22)
(-0.0439488 -0.109153 4.36267e-21)
(-0.000803068 0.0150404 4.32578e-21)
(0.607057 0.0425749 -4.22392e-22)
(0.0867328 -0.0103704 -1.39681e-20)
(-0.0524601 0.093224 -2.13369e-20)
(0.15485 0.0141633 -4.72288e-21)
(-0.140193 0.00258845 -8.01539e-21)
(-0.00652779 -0.07808 -6.82027e-21)
(0.719729 -0.00951401 3.36369e-23)
(-0.143041 0.00453574 -2.18833e-20)
(0.710836 0.0027985 -4.59977e-23)
(-0.0823289 0.0243214 -6.2164e-21)
(-0.124032 0.00309973 3.07702e-21)
(0.855366 -0.009035 -1.04567e-22)
(0.0571073 0.022202 -1.47243e-20)
(0.680332 -0.0012487 -3.02255e-22)
(0.931205 0.00409178 1.16179e-21)
(0.0303349 -0.0610209 -1.66518e-21)
(0.0328907 0.0439819 4.32951e-21)
(0.358932 0.0605872 2.09432e-21)
(-0.0689696 0.0653374 1.31608e-20)
(0.788385 -0.0117269 -6.22179e-23)
(0.766721 -0.0958497 -5.73525e-21)
(-0.147794 0.00401916 -5.23883e-20)
(-0.0636425 -0.103085 2.21962e-20)
(-0.00109587 -0.0418235 -6.61052e-21)
(0.709376 0.00220816 8.59055e-23)
(0.719426 -0.0105236 -5.25137e-23)
(0.757633 0.00503479 5.09046e-23)
(-0.0325287 -0.020622 3.49154e-21)
(0.938131 -0.00182082 4.75816e-24)
(0.397362 -0.0279749 -3.59404e-21)
(0.735286 0.00270405 -9.12014e-24)
(0.744518 -0.012022 2.17868e-23)
(-0.160163 0.000796703 -3.73208e-21)
(-0.0330579 0.0883788 8.2085e-21)
(-0.023004 0.0850622 -2.28584e-20)
(0.149365 -0.0647751 6.07487e-21)
(0.867084 -0.00849058 -3.71854e-23)
(-0.042113 0.0843202 -6.18331e-21)
(0.763349 -0.010686 -3.99582e-22)
(0.820077 0.0248631 3.1612e-22)
(-0.104044 0.0115231 2.37699e-21)
(-0.142112 -0.00360838 -1.99416e-20)
(-0.157633 0.00133058 -8.20628e-21)
(0.393714 0.0240249 -4.20159e-21)
(0.541122 0.020627 -4.80902e-22)
(0.566069 0.0468669 -9.62895e-21)
(0.698102 -0.00803513 1.28615e-22)
(0.691869 -0.000189665 -3.20083e-23)
(0.318411 0.0404678 -3.31061e-21)
(0.0432737 0.0515989 -9.87653e-21)
(0.906073 0.00550222 -9.80774e-23)
(0.20711 0.000400651 2.01096e-20)
(-0.0561071 0.0902946 7.02561e-21)
(-0.131237 0.00394446 -1.54771e-20)
(-0.0687363 0.0644136 -7.73568e-21)
(-0.0701245 0.0180823 6.1791e-20)
(0.892449 -0.00810688 2.17478e-22)
(0.108727 -0.0101103 -6.92813e-21)
(0.874761 -0.0125143 9.16822e-23)
(0.684834 -0.000822553 1.9184e-22)
(0.505662 -0.0714584 1.62422e-20)
(-0.0523698 0.126795 -1.38686e-20)
(0.0674643 0.0480644 2.04482e-21)
(-0.0942898 0.00173709 -1.40185e-20)
(-0.0928662 0.0448467 1.23298e-20)
(-0.10878 -0.0320586 1.32662e-20)
(0.512685 -0.033203 3.037e-21)
(0.890836 0.010089 3.07215e-22)
(0.705134 -0.00942048 -5.86044e-23)
(0.0542538 0.0515077 -2.36673e-20)
(-0.159722 -0.00125506 1.09603e-20)
(0.0822197 -0.0426488 -1.71154e-20)
(-0.0459949 -0.12011 3.07744e-20)
(-0.161789 0.000144064 1.01679e-20)
(0.78876 0.00666777 -7.98979e-23)
(0.937212 -0.00207256 1.73666e-23)
(-0.150026 -0.00358836 4.52162e-21)
(0.376073 -0.0241523 -8.61445e-21)
(0.34145 -0.0188669 4.66116e-21)
(0.689569 0.00667714 -7.53847e-23)
(-0.0341788 -0.102972 2.55785e-20)
(0.792627 -0.0107498 1.94156e-22)
(0.571877 0.0123212 7.45118e-22)
(-0.00526041 -0.0735559 1.17525e-20)
(0.9356 -0.0026568 -2.49793e-23)
(0.849186 -0.0515115 5.05077e-21)
(0.765102 -0.0481994 -5.35476e-21)
(-0.0222156 0.0898707 -2.55497e-20)
(0.931049 -0.0759541 1.01361e-22)
(-0.0521407 0.118995 -3.6347e-21)
(-0.0504842 -0.111823 1.03466e-21)
(0.268435 -0.0219883 -4.72001e-21)
(0.162722 -0.049301 2.01967e-20)
(1.02599 0.0473924 -1.30588e-20)
(0.830549 0.0179065 1.52037e-22)
(0.890184 0.010783 5.47822e-24)
(0.770187 -0.0118811 -1.39553e-22)
(0.016579 -0.0686904 1.86369e-20)
(-0.0303285 0.000765249 -7.76785e-20)
(-0.120049 -0.0242624 -1.60122e-20)
(0.293693 0.01838 5.75008e-21)
(0.796322 -0.0111438 -1.48552e-22)
(1.00195 0.0614479 1.36371e-20)
(0.99502 -0.0627062 -2.22575e-21)
(0.859908 -0.0367704 1.0304e-22)
(0.985939 -0.0686039 -6.11981e-21)
(0.369364 0.0220676 1.34483e-21)
(0.852671 -0.0111155 -9.41418e-22)
(0.748819 -0.0105561 -6.66819e-23)
(0.847927 0.00470474 8.03241e-22)
(0.822683 -0.0103577 4.89296e-23)
(0.684769 -0.00386878 6.84647e-23)
(0.0388366 -0.0351997 -2.83996e-21)
(0.816419 -0.0110628 -6.59671e-22)
(-0.0862254 0.0524477 -4.33909e-21)
(0.527332 0.0887817 -1.39906e-20)
(0.662807 -0.0100653 2.28106e-22)
(0.0827671 0.0421121 -1.17927e-20)
(0.677319 -0.00265242 -1.17108e-23)
(0.712349 0.00256027 -3.05814e-22)
(-0.0972344 -0.000233411 1.80973e-21)
(-0.135819 0.00573988 -2.20561e-21)
(0.081232 -0.0540216 -8.31969e-21)
(0.705993 -0.00880562 1.27376e-22)
(0.657275 0.00774494 4.6438e-22)
(-0.0427444 -0.0715404 -3.36626e-23)
(-0.0429256 0.0927119 5.41509e-22)
(0.902855 -0.000494611 1.16033e-22)
(-0.0460557 0.112073 -2.26985e-20)
(0.892915 0.00773934 -4.87839e-23)
(0.922078 -0.00502458 -3.09466e-24)
(0.819129 -0.0557614 2.27854e-21)
(0.84457 0.0137842 3.7783e-23)
(0.750561 0.00512255 2.27514e-22)
(0.851639 -0.0661252 6.45761e-21)
(0.0648135 -0.0416753 -1.42128e-21)
(0.0208225 -0.0498091 -4.71049e-20)
(0.255336 0.000474644 7.58375e-21)
(-0.0668161 -0.0571329 8.46495e-21)
(-0.0110442 0.0197389 1.27997e-20)
(0.92267 -0.00499291 3.13426e-23)
(0.693367 -0.00643704 2.2296e-24)
(0.856254 -0.0386941 8.4608e-22)
(0.372213 0.0357131 7.65693e-21)
(0.0061097 0.0691428 1.13162e-20)
(0.626403 -0.00643232 -8.28738e-22)
(0.910098 -0.000205457 -2.69036e-23)
(0.890415 -0.00704209 -1.07593e-24)
(-0.0675323 -0.0420657 -1.17766e-20)
(0.885058 -0.00769314 6.54115e-23)
(1.03052 -0.0461947 -5.87223e-21)
(0.470771 0.0350348 1.08156e-21)
(0.653823 -0.102293 -3.45207e-21)
(0.469581 -0.0259344 -1.79901e-21)
(-0.0593274 -0.0904901 -4.00898e-21)
(0.627521 -0.00735462 1.73465e-21)
(0.91891 -0.00585348 1.08786e-21)
(0.78788 -0.0103708 3.9291e-22)
(0.57667 -0.0135866 -4.23251e-22)
(0.696549 0.000874234 3.1558e-23)
(0.190153 -0.0287415 7.78043e-21)
(0.771405 -0.0120709 -1.31212e-22)
(0.0245153 0.00533519 -3.06009e-21)
(0.629923 0.0471066 -8.34441e-21)
(-0.0449686 0.0209536 -1.1178e-21)
(0.606915 0.0726361 -4.432e-22)
(-0.0641022 0.051448 -1.09718e-21)
(0.00444608 0.0149999 -1.97643e-20)
(0.848388 -0.04685 -1.73958e-21)
(0.693315 0.0385884 2.35968e-21)
(-0.0986162 -0.00913622 6.96286e-20)
(0.396023 0.0864231 -8.65735e-21)
(0.254623 -0.0818377 -1.54681e-20)
(0.0694902 0.0363525 -4.27095e-21)
(0.0147079 0.0615423 3.07099e-20)
(0.58651 0.0994002 2.04915e-20)
(0.161463 0.0192192 -2.15346e-20)
(0.283867 0.0762224 1.54077e-20)
(0.736181 0.00450411 3.93385e-22)
(0.781028 -0.0114001 -4.25872e-24)
(0.02821 -0.0192147 1.9315e-20)
(-0.0545151 -0.102212 -2.98701e-21)
(-0.0386637 -0.0172143 3.72003e-20)
(0.667265 0.0328919 -1.85781e-22)
(0.241183 0.0820437 -2.59992e-20)
(0.475829 0.00816723 9.92098e-22)
(0.904798 -0.0219311 -1.63744e-22)
(0.581613 0.00392126 -3.36281e-21)
(0.913329 -0.0142256 -2.62595e-23)
(0.906339 -0.0595189 2.50684e-21)
(0.854442 0.00725694 -8.18478e-23)
(0.81805 -0.0104574 4.92954e-23)
(-0.115462 0.0179014 2.33768e-20)
(0.734802 -0.0111777 6.47939e-23)
(0.688474 -0.00170954 9.26308e-23)
(0.457937 -0.0323901 2.71928e-20)
(0.488803 0.0992733 5.80558e-21)
(0.863298 -0.0688465 2.16638e-21)
(0.923289 -0.00560659 7.62069e-23)
(0.481411 0.0216462 -1.10905e-21)
(0.0800457 -0.0625555 -4.70627e-21)
(0.575016 0.020392 -1.22191e-21)
(0.701533 -0.00816646 -8.19438e-23)
(0.891885 0.00893774 -3.11363e-23)
(0.716598 -0.100782 -1.23035e-20)
(0.506602 0.0612048 2.07901e-21)
(0.805208 -0.0967606 -3.81113e-21)
(0.895721 0.00624271 2.21163e-22)
(0.613143 0.0694157 -8.92343e-23)
(0.225721 -0.00240116 -1.69052e-21)
(0.670193 -0.000931025 1.85432e-23)
(0.681835 -0.00287096 -7.26086e-23)
(0.127916 0.00400174 -7.12976e-21)
(-0.103129 -0.0339699 9.32074e-21)
(-0.0316454 -0.0977836 -3.34364e-20)
(0.382766 -0.0357524 8.46304e-21)
(0.0726482 -0.0443211 -9.26514e-23)
(0.717277 0.0696078 9.19688e-22)
(-0.000669119 0.0642209 2.18278e-20)
(0.473545 0.0361349 -5.42071e-22)
(0.633982 0.0246052 -1.58602e-22)
(0.835351 0.0207884 8.75561e-22)
(0.663032 0.0195543 -5.70983e-22)
(0.291808 0.0915843 1.04673e-20)
(0.718636 -0.0226529 -1.88653e-22)
(0.918155 -0.00493012 -8.78501e-23)
(0.914357 -0.0133342 -2.1376e-22)
(0.153935 0.0594035 1.46374e-20)
(-0.160944 -2.31558e-05 2.98911e-20)
(0.538248 -0.0639366 -1.19532e-21)
(0.906782 -0.0573568 -5.90578e-22)
(0.45149 0.00942651 -1.66502e-21)
(0.600233 -0.045154 4.0127e-22)
(0.419637 0.00688136 -2.64148e-22)
(0.455755 0.00527754 1.97878e-21)
(0.226726 0.00993239 1.10954e-20)
(0.478691 0.0044247 -8.60228e-22)
(0.169191 0.0108904 1.46151e-20)
(0.636029 -0.0445749 1.97529e-21)
(0.716098 0.0206602 -1.4437e-21)
(0.563172 -0.0493906 -5.95089e-21)
(0.507833 0.000977332 1.3618e-21)
(0.710803 0.0085052 -3.79792e-22)
(0.527199 0.0027237 -2.37428e-21)
(0.715596 0.0198341 4.18997e-22)
(0.494155 0.0676162 -4.49972e-21)
(0.797874 0.012476 -4.56971e-22)
(0.545958 0.000264202 3.51069e-21)
(0.396486 0.0478752 -7.22299e-21)
(0.617201 0.066735 1.3502e-21)
(0.568229 0.00259415 1.20207e-21)
(0.726198 -0.0144851 -6.22191e-22)
(0.42836 0.00203409 1.66396e-21)
(0.391017 -0.00185398 5.51196e-22)
(0.354058 -0.00407715 8.0492e-22)
(0.298856 0.00353511 -6.63947e-21)
(0.249119 0.0067186 -6.7944e-21)
(0.462768 0.000134228 -2.16515e-21)
(0.186661 -0.000640772 -1.27299e-20)
(0.484592 -0.000162377 -1.37875e-21)
(0.610908 -0.0490517 1.2767e-21)
(0.515693 -0.00158081 -1.7156e-22)
(0.661692 -0.0438702 -2.18293e-22)
(0.530597 5.40598e-06 -1.13146e-21)
(0.621473 -0.0173793 2.95679e-22)
(0.668007 -0.0210243 1.24506e-21)
(0.553531 -0.00068067 -3.00327e-21)
(0.580601 0.00157351 4.29841e-21)
(0.570832 -0.000906929 -1.65635e-21)
(0.876258 -0.0165505 -6.04035e-22)
(0.749327 0.0122638 1.73176e-22)
(-0.149856 -0.00394761 -2.60392e-20)
(0.858342 -0.010578 -2.49197e-22)
(0.749594 -0.0148921 1.99871e-21)
(0.745299 0.0136849 -7.71001e-22)
(0.583124 -0.00105052 -3.66455e-21)
(0.744902 -0.0118819 4.58935e-22)
(0.541629 -0.0343285 4.50391e-21)
(0.591943 8.83356e-05 -7.80098e-22)
(0.400928 0.0108199 2.48559e-21)
(0.360227 0.0096902 5.94164e-22)
(0.498483 0.00798025 3.33398e-21)
(0.598517 -0.0026001 6.83335e-22)
(0.747024 0.0116841 -4.08723e-22)
(0.675427 -0.00642763 -2.19835e-23)
(0.778717 -0.0575685 -1.68137e-21)
(0.793416 -0.0448127 -1.34332e-21)
(0.129351 -0.021546 2.6062e-20)
(0.854062 -0.010007 -1.24176e-22)
(0.436697 -0.0169428 -6.76884e-22)
(0.610939 -0.00157783 1.01166e-21)
(0.580348 -0.012837 5.10468e-22)
(0.690309 -0.0078248 -5.37534e-23)
(0.751968 0.0111294 6.06738e-22)
(0.296139 0.0260879 -9.00799e-23)
(0.615867 0.0137071 1.41169e-21)
(0.0527597 0.00232124 -3.99854e-21)
(0.605224 0.00264814 -3.35039e-22)
(0.810252 -0.0101022 -1.48709e-22)
(0.758827 0.00537212 -4.11703e-22)
(0.902108 -0.011186 4.07452e-22)
(0.619883 -0.00072799 7.17837e-22)
(0.653819 0.0274077 1.0597e-21)
(-0.049753 0.0819191 -1.59673e-20)
(0.885961 -0.00694793 1.60399e-22)
(0.618116 0.00253196 1.07945e-22)
(0.15452 -0.00670367 7.76637e-21)
(0.621879 -0.00116689 -1.26493e-21)
(0.744096 0.00565649 -2.93895e-23)
(0.71391 0.0039529 -7.50485e-25)
(0.441776 -0.043308 -3.56115e-20)
(0.724011 0.00682321 3.44081e-22)
(0.919972 -0.00821765 4.17446e-22)
(0.504036 0.0641293 2.36723e-21)
(0.747784 0.0125748 1.4729e-22)
(0.0338108 0.048474 4.97393e-21)
(0.62646 -0.0550582 -4.54915e-21)
(0.657776 -0.0474929 -5.43617e-21)
(0.275196 0.0075876 -4.13975e-21)
(0.321122 0.00122914 -8.39477e-21)
(0.209356 -0.018456 3.19538e-20)
(0.701765 0.00911613 -6.01625e-22)
(0.472885 -0.0032044 4.75307e-21)
(0.482937 0.020338 -7.8791e-22)
(0.412557 0.0245013 3.08753e-21)
(0.494366 -0.00212653 3.72685e-21)
(0.781762 0.0355946 -7.77333e-22)
(0.538491 -0.00109407 3.24774e-22)
(0.368641 0.0932423 -2.95715e-20)
(0.559493 0.0018287 2.33283e-21)
(0.633413 -0.00153984 -2.08614e-22)
(0.25892 -0.00367635 -5.23036e-21)
(0.308376 -0.00793275 3.67231e-21)
(0.329824 0.0380414 8.82234e-21)
(-0.0956251 -0.00798268 -1.67647e-20)
(0.684542 -0.0420285 3.77443e-21)
(0.734852 0.00551173 1.48441e-22)
(0.252714 0.0749843 1.46405e-20)
(0.654352 0.0450259 -9.77014e-22)
(0.666513 0.0172298 1.43026e-21)
(0.576992 -0.0028505 2.43879e-22)
(0.534702 -0.00378498 5.70978e-22)
(-0.0463445 0.0480401 3.33146e-21)
(0.815634 0.0060239 1.48196e-23)
(0.624387 -0.0390517 -2.87204e-21)
(0.630379 0.00106315 -9.88119e-23)
(0.847082 0.0101853 -1.41645e-22)
(0.612202 0.00695548 1.67324e-21)
(0.633316 0.00266573 5.65139e-22)
(0.63136 -0.000254883 1.15618e-21)
(0.589315 -0.00344396 4.2876e-21)
(0.76045 -0.015661 -1.65158e-22)
(0.671465 -0.0200308 -9.18547e-22)
(0.691193 -0.0126486 -7.55753e-22)
(0.615519 -0.000582492 -7.62391e-22)
(0.752706 -0.0142501 5.32697e-22)
(0.040825 0.0546364 1.47823e-20)
(0.527705 0.0119129 2.02593e-22)
(0.734078 -0.0100578 4.241e-22)
(0.585836 0.00952294 1.8657e-22)
(0.601136 0.00679379 -9.09111e-22)
(0.778534 -0.0145164 5.02584e-22)
(0.211019 -0.0279747 -1.37194e-20)
(0.636047 0.0346141 3.06996e-22)
(0.562684 0.0426817 -8.0629e-22)
(0.691453 0.0269921 -7.80935e-23)
(0.700718 0.00964275 -6.6905e-22)
(0.747148 0.00589449 -3.90578e-23)
(0.744947 0.01138 1.34667e-22)
(0.71227 -0.0136171 1.28805e-22)
(0.406426 -0.0955983 -4.63734e-21)
(0.695506 -0.0573684 9.42515e-21)
(0.310371 -0.0219797 -2.26446e-21)
(0.757091 -0.0274199 1.70898e-21)
(0.637389 0.000491043 -1.08952e-21)
(0.501728 -0.0116205 9.78833e-22)
(-0.039078 0.102172 8.98627e-21)
(0.612506 0.0352831 -1.14225e-21)
(0.9155 0.0209322 -5.57384e-22)
(0.911874 0.0343296 4.59657e-22)
(0.933011 0.00422177 -6.21535e-23)
(0.928813 0.00822439 -1.84237e-22)
(0.903407 -0.0441273 -2.58711e-21)
(0.912153 -0.0149786 3.85976e-22)
(0.925792 0.0112202 -5.15376e-24)
(0.938272 9.61199e-05 1.65622e-22)
(0.906586 -0.0206829 2.68054e-22)
(0.93573 0.00229298 -1.84066e-22)
(0.915893 -0.0108596 -3.4873e-22)
(0.933988 0.00336584 1.66246e-22)
(0.932785 0.000117728 5.97691e-22)
(0.940142 -0.00101208 1.42385e-24)
(0.922396 0.012312 -1.02091e-22)
(0.903708 -0.0235389 2.57484e-22)
(0.916082 -0.0125118 -2.95999e-22)
(0.927477 0.00978829 -2.74885e-22)
(0.90923 -0.0542274 1.65406e-21)
(0.623347 0.00521371 -6.87998e-22)
(0.597128 -0.00783498 8.57885e-22)
(0.154458 -0.010701 -2.37345e-20)
(0.22555 -0.0143797 -9.84776e-21)
(0.919361 -0.00511924 -1.13205e-22)
(0.863566 0.00819995 1.89325e-22)
(0.673633 0.00732283 6.88458e-22)
(0.651244 -0.0627957 1.27994e-21)
(0.367463 -0.00253345 2.63467e-22)
(0.550174 0.0442568 -4.63049e-22)
(0.404004 -0.00310136 -7.66302e-22)
(0.657672 0.0183179 6.51711e-22)