/*--------------------------------*- C++ -*----------------------------------*\
  =========                 |
  \\      /  F ield         | OpenFOAM: The Open Source CFD Toolbox
   \\    /   O peration     | Website:  https://openfoam.org
    \\  /    A nd           | Version:  10
     \\/     M anipulation  |
\*---------------------------------------------------------------------------*/
FoamFile
{
    format      ascii;
    class       volScalarField;
    location    "1900";
    object      epsilon;
}
// * * * * * * * * * * * * * * * * * * * * * * * * * * * * * * * * * * * * * //

dimensions      [0 2 -3 0 0 0 0];

internalField   nonuniform List<scalar> 
10435
(
0.961654
1.35091
0.939633
1.00883
1.15441
1.32089
0.848422
0.64851
0.584559
1.24322
1.31144
0.862496
1.25469
0.470299
0.560764
0.735031
0.387415
1.41673
0.558797
0.983912
0.691688
0.969817
0.795875
0.671623
1.09967
0.0555946
0.0924459
1.09205
0.0861242
1.33765
0.884791
1.28376
0.622436
0.0935447
0.665074
1.26261
0.704319
0.101376
0.037128
0.592718
1.43847
0.849479
0.21978
1.03863
0.750668
0.631247
1.3598
0.147315
0.564694
0.931628
0.663855
1.04615
0.0361471
0.0677052
0.0412786
0.0764126
0.698732
0.109929
0.223312
0.65324
0.0408817
1.3525
0.108596
1.04068
0.769687
0.996039
0.164574
0.155489
0.67722
0.710406
0.0657301
0.0765816
0.159939
0.918684
0.649378
0.322641
0.753231
0.800915
0.600433
0.614161
0.884298
0.870048
0.0353649
0.0701597
0.853138
1.05394
1.03682
1.11349
0.815225
1.0849
1.10145
1.08188
0.907592
0.894153
1.1113
1.16512
1.02905
0.659615
0.291454
1.0395
0.72417
1.29818
0.971301
1.11742
1.30057
1.02956
0.931968
0.911419
0.809121
0.692089
0.943009
1.30139
0.820986
0.76114
1.09327
0.986515
0.991942
1.13563
1.21827
0.943867
0.947319
0.338999
1.19223
0.908902
1.36309
0.0485004
0.982118
0.491634
1.06197
0.0895949
0.701519
1.39121
0.693573
0.530398
0.0868042
0.0364424
1.29261
0.976795
1.22532
0.99274
0.99381
0.819107
0.131863
0.901294
0.946749
0.56738
1.13452
1.14375
0.387463
0.838169
0.10835
0.741952
1.01156
0.842988
1.1463
0.0764171
1.33695
1.22127
1.19548
1.45875
0.798841
0.445658
1.16642
0.860254
0.737109
0.991717
0.619278
0.91104
0.798734
0.96315
1.06778
0.0937037
0.0836592
0.653777
0.803315
1.48312
1.3244
0.242109
0.947808
0.0988222
1.33793
1.29358
0.855681
0.0455547
0.792066
0.147475
0.237789
0.760296
1.1584
0.955974
0.901289
0.0352873
0.0841028
1.40391
1.3135
0.71358
0.356433
0.952945
0.19852
0.717484
0.770472
0.105191
1.16666
0.113566
1.06743
1.14495
1.20137
0.943106
0.115386
0.919386
0.0897312
0.841408
0.907586
0.837119
0.0923859
0.473606
0.810844
0.0490794
0.0564881
0.365674
0.0907764
0.272566
0.14304
0.700537
0.0656458
0.677877
0.0459108
0.833915
0.924089
0.447872
0.207629
0.64538
0.0508228
0.747144
0.0972337
0.313476
0.706652
0.0636447
0.736928
0.957446
1.04126
0.0566045
0.0566892
0.0745647
1.16461
0.594937
1.03253
0.688132
0.0650327
1.49071
0.0635917
0.848903
1.27724
0.890741
0.727606
1.06846
0.0575409
0.764574
0.0701443
0.113894
0.803931
1.01783
0.0551879
0.804605
0.874241
0.228333
1.034
0.845114
0.0417923
1.10435
0.84927
0.640286
0.690093
1.07052
0.0625799
0.910931
0.0933345
1.19732
0.732353
0.618789
1.22683
0.280602
0.908769
0.722575
0.916551
0.0423247
1.14519
0.0414482
0.0726022
0.09613
0.868826
1.42409
0.117149
0.662637
0.0379157
0.0640301
0.455332
0.925038
1.23109
0.958102
0.177599
0.763778
0.969036
0.0713756
1.25935
0.568956
0.319553
0.760103
0.971426
0.0743652
0.946327
0.0903116
1.46718
1.15565
0.611774
0.0658245
0.0492982
0.867572
0.172953
0.882736
1.30866
0.0974704
0.971922
0.0354245
0.599859
1.15628
0.0689711
1.02892
0.179225
0.10132
0.616933
0.109649
0.0752324
0.919394
0.795068
0.121798
0.068404
0.0668214
0.0844245
0.0807974
0.0743414
0.0762851
0.0403661
0.0832326
0.0793824
0.0929171
0.134116
0.0979336
0.0358241
0.585846
0.0778783
1.10167
0.0892243
1.09125
0.584411
0.551255
1.26772
0.871404
0.071456
0.0829211
0.067908
0.049717
0.0784678
0.0416987
0.0906208
0.0792224
0.132927
0.820728
0.0776167
0.576487
0.0452832
0.084534
1.32329
0.537799
0.0453686
0.0911333
0.102177
0.0952096
0.0802911
0.0618829
0.105958
0.043315
0.612053
0.142487
0.659853
0.572728
1.15357
1.21487
0.562614
1.03127
0.635337
0.601753
0.099644
0.0816909
0.0678897
0.978372
0.0759389
1.32402
0.1018
0.100114
0.0880985
0.115688
0.0561494
0.795617
0.0981144
0.634188
0.777226
0.0691434
0.0674303
0.0959523
0.546508
0.0957314
0.0723327
0.0633732
0.077709
0.141554
0.0880143
1.0065
0.0658552
0.0695353
0.0880941
0.103164
1.43423
0.0546868
0.0407189
0.521496
0.0825716
0.000566492
0.000552884
0.000526301
0.000490928
0.000449736
0.000404042
0.000355291
0.000304752
0.000253813
0.000637962
0.000617518
0.000585158
0.000544874
0.000499113
0.000449711
0.000398059
0.000345772
0.000294795
0.000722894
0.000696334
0.000658015
0.000612194
0.000561618
0.00050816
0.000453314
0.000398702
0.000346157
0.000827946
0.00079515
0.00074998
0.000697873
0.00064187
0.000583814
0.000525183
0.000467408
0.000411958
0.000960964
0.000921043
0.000867653
0.000808165
0.000745796
0.000682351
0.000619142
0.000557222
0.000497354
0.00113139
0.00108274
0.00101928
0.0009509
0.000880886
0.000811007
0.000742313
0.000675432
0.000610513
0.00135082
0.00129111
0.00121499
0.00113568
0.00105634
0.000978715
0.000903534
0.000831124
0.000761407
0.00163402
0.00155898
0.00146671
0.00137384
0.00128307
0.00119602
0.00111309
0.00103439
0.000959907
0.0019981
0.00189987
0.0017875
0.00167806
0.00157341
0.0014749
0.00138252
0.00129598
0.00121494
0.00245411
0.00232605
0.00219096
0.00206208
0.00194083
0.0018284
0.00172446
0.00162811
0.00153783
0.00300332
0.00284955
0.00269199
0.00254094
0.00239987
0.00227046
0.00215236
0.00204425
0.00194363
0.00364196
0.0034876
0.00330873
0.00313165
0.00296627
0.00281581
0.00268045
0.00255863
0.00244807
0.00442963
0.00427141
0.00406356
0.00385286
0.00365646
0.00347948
0.00332295
0.00318556
0.0030653
0.0054365
0.00523508
0.00497895
0.00472251
0.00448616
0.00427585
0.00409327
0.00393759
0.0038069
0.00670925
0.00640263
0.00607209
0.0057555
0.00546942
0.00521856
0.00500477
0.00482711
0.00468198
0.00824988
0.00777915
0.00735203
0.00696315
0.0066189
0.00632128
0.00607224
0.00587167
0.00571796
0.00996208
0.00935102
0.00882325
0.00835653
0.00794894
0.00760049
0.00731366
0.00709012
0.006934
0.0118327
0.0111189
0.0104983
0.00995376
0.00948082
0.00907936
0.00875288
0.00850478
0.00834055
0.013887
0.0131032
0.012403
0.0117847
0.0112471
0.0107924
0.0104254
0.0101515
0.0099777
0.0161689
0.0153411
0.0145757
0.013891
0.0132938
0.0127899
0.0123858
0.0120893
0.0119125
0.0187325
0.0178824
0.0170647
0.0163248
0.0156794
0.015138
0.0147085
0.0143993
0.0142201
0.021646
0.0207878
0.0199264
0.0191462
0.0184739
0.0179194
0.0174898
0.0171935
0.0170345
0.0250283
0.024128
0.0232187
0.0224192
0.0217567
0.0212336
0.0208537
0.0206245
0.0205469
0.0290623
0.0279676
0.0269885
0.0262051
0.0256148
0.0251981
0.0249528
0.0248896
0.0250003
0.0339254
0.0323073
0.0312572
0.0305577
0.0301393
0.0299403
0.0299523
0.0302069
0.0305949
0.00202653
0.00197532
0.00193106
0.00189361
0.00186296
0.00183897
0.00182155
0.00181044
0.00180545
0.00180623
0.00181243
0.00182363
0.00183928
0.00185885
0.00188162
0.0019069
0.0019339
0.00196175
0.00198959
0.00201649
0.00204143
0.00206338
0.00208115
0.00209317
0.00209701
0.00209155
0.00207672
0.00205356
0.00202172
0.00197923
0.00192762
0.00186841
0.00180186
0.0017293
0.001652
0.00157118
0.00148799
0.00140357
0.00131904
0.00123545
0.00115381
0.00107504
0.000999955
0.000929244
0.000863493
0.000803151
0.000748531
0.000699854
0.000657178
0.000620504
0.000589725
0.000564669
0.000545158
0.000530962
0.000521896
0.000517765
0.000518423
0.000523757
0.000533601
0.00201729
0.0019701
0.00192929
0.00189482
0.00186656
0.00184441
0.00182826
0.00181797
0.00181333
0.00181406
0.00181985
0.00183029
0.00184492
0.00186317
0.00188443
0.00190799
0.00193308
0.00195887
0.00198449
0.00200901
0.00203148
0.00205092
0.00206631
0.00207654
0.00208029
0.00207611
0.00206272
0.0020394
0.00200605
0.00196328
0.00191223
0.00185389
0.001789
0.00171837
0.00164295
0.0015638
0.001482
0.00139869
0.00131499
0.001232
0.00115076
0.00107222
0.00099723
0.00092652
0.000860691
0.000800206
0.000745384
0.000696414
0.000653357
0.000616172
0.000584784
0.000559056
0.000538792
0.000523774
0.000513789
0.000508636
0.000508146
0.000512194
0.000520577
0.00197186
0.00192715
0.00188853
0.00185596
0.00182936
0.00180864
0.00179367
0.00178428
0.00178028
0.00178138
0.00178728
0.00179759
0.00181186
0.00182957
0.00185012
0.00187284
0.00189699
0.00192177
0.00194634
0.00196981
0.00199123
0.00200963
0.00202393
0.002033
0.00203559
0.0020305
0.00201675
0.00199375
0.00196136
0.0019199
0.00187016
0.00181303
0.00174938
0.00168011
0.00160617
0.00152857
0.00144838
0.00136666
0.00128453
0.00120304
0.00112322
0.00104602
0.000972264
0.000902694
0.000837899
0.000778339
0.000724326
0.000676046
0.000633558
0.000596822
0.00056572
0.000540081
0.000519706
0.000504381
0.000493904
0.00048809
0.000486782
0.000489874
0.000497174
0.00189268
0.00185071
0.00181456
0.00178417
0.00175948
0.00174036
0.00172669
0.00171831
0.001715
0.00171651
0.00172254
0.00173272
0.00174663
0.00176378
0.00178359
0.00180543
0.0018286
0.00185233
0.00187578
0.00189808
0.0019183
0.00193544
0.00194847
0.00195631
0.00195786
0.00195208
0.00193813
0.00191547
0.00188396
0.00184386
0.00179577
0.00174046
0.00167879
0.00161167
0.00154003
0.00146488
0.00138724
0.00130817
0.00122871
0.00114991
0.00107275
0.000998129
0.00092686
0.000859641
0.000797041
0.000739487
0.000687279
0.000640584
0.000599455
0.000563848
0.000533647
0.000508684
0.000488759
0.000473664
0.000463198
0.000457187
0.000455469
0.000457943
0.000464429
0.00179202
0.00175326
0.00171996
0.00169207
0.00166953
0.00165223
0.00164004
0.00163282
0.00163035
0.0016324
0.00163867
0.00164882
0.00166245
0.00167908
0.00169818
0.00171913
0.00174127
0.00176384
0.00178603
0.00180699
0.0018258
0.0018415
0.0018531
0.0018596
0.00186002
0.0018535
0.00183934
0.00181709
0.00178662
0.00174812
0.00170203
0.001649
0.00158983
0.00152538
0.00145659
0.00138444
0.00130992
0.00123405
0.00115788
0.00108239
0.00100852
0.000937134
0.00086901
0.000804799
0.000745034
0.000690114
0.000640311
0.000595776
0.00055655
0.00052258
0.000493746
0.000469877
0.000450775
0.000436232
0.000426051
0.000420053
0.000418089
0.000420056
0.000425783
0.00167121
0.00163557
0.00160507
0.00157966
0.00155928
0.00154382
0.00153318
0.00152719
0.00152566
0.00152836
0.001535
0.00154525
0.00155871
0.00157494
0.00159342
0.00161355
0.00163467
0.00165607
0.00167697
0.00169653
0.00171389
0.00172814
0.00173834
0.00174359
0.00174304
0.00173592
0.00172166
0.0016999
0.00167052
0.00163366
0.00158969
0.00153918
0.00148286
0.00142155
0.00135613
0.00128754
0.00121675
0.00114473
0.00107248
0.00100094
0.000931027
0.000863541
0.000799205
0.000738635
0.000682322
0.000630631
0.00058381
0.000541985
0.000505185
0.000473348
0.000446347
0.000424008
0.00040613
0.000392509
0.000382946
0.000377266
0.000375326
0.000377013
0.000382172
0.00153368
0.00150123
0.00147357
0.00145066
0.00143246
0.00141889
0.00140984
0.00140517
0.0014047
0.00140819
0.00141535
0.00142586
0.00143934
0.00145533
0.00147334
0.0014928
0.00151307
0.00153344
0.00155318
0.00157147
0.00158751
0.00160042
0.00160937
0.00161357
0.00161221
0.00160466
0.00159045
0.00156928
0.00154105
0.00150585
0.00146404
0.00141612
0.0013628
0.00130487
0.00124313
0.0011785
0.00111185
0.00104412
0.000976273
0.00090921
0.000843753
0.000780658
0.000720589
0.000664121
0.000611711
0.000563691
0.00052028
0.000481585
0.000447614
0.000418294
0.000393487
0.000373017
0.000356682
0.000344276
0.000335601
0.000330481
0.000328769
0.000330363
0.000335111
0.00137928
0.00134968
0.00132457
0.00130398
0.00128788
0.00127621
0.00126888
0.00126576
0.00126663
0.00127124
0.00127932
0.00129049
0.00130434
0.00132042
0.00133825
0.00135736
0.00137714
0.00139688
0.00141586
0.00143324
0.00144825
0.00146007
0.00146802
0.00147146
0.00146957
0.00146186
0.00144792
0.00142754
0.00140054
0.00136699
0.00132728
0.00128189
0.00123162
0.00117724
0.00111938
0.00105895
0.00099679
0.000933711
0.00087074
0.000808608
0.000748072
0.000689813
0.000634433
0.000582465
0.000534356
0.000490383
0.000450782
0.000415613
0.000384849
0.000358388
0.000336085
0.000317767
0.000303239
0.000292306
0.000284778
0.000280482
0.000279266
0.000281023
0.0002856
0.00120695
0.00117965
0.00115674
0.0011384
0.00112465
0.00111539
0.00111037
0.00110922
0.00111201
0.0011188
0.00112876
0.00114141
0.0011562
0.0011726
0.00119046
0.00120929
0.00122892
0.00124903
0.00126821
0.00128523
0.00129945
0.00131029
0.00131745
0.00132028
0.00131821
0.0013107
0.00129747
0.00127826
0.00125264
0.00122054
0.00118268
0.00113971
0.00109241
0.00104168
0.000988049
0.000931703
0.000873773
0.000816058
0.000758676
0.000701901
0.00064669
0.000593704
0.000543419
0.000496244
0.000452546
0.00041283
0.000377256
0.000346085
0.000319092
0.00029585
0.000276168
0.000260005
0.000247299
0.000237881
0.000231557
0.000228212
0.000227716
0.000229928
0.000234712
0.0656301
0.0592143
0.0533473
0.0478434
0.0426531
0.0377478
0.0331403
0.028854
0.0249042
0.0213049
0.0181155
0.0153607
0.0130189
0.0110374
0.00932919
0.00786784
0.00665046
0.00565435
0.00484311
0.00418029
0.00363488
0.00318105
0.0027974
0.00246632
0.00217238
0.0629065
0.0580832
0.0528155
0.0475319
0.0424003
0.0374935
0.032861
0.028545
0.0245796
0.0209975
0.0178271
0.015071
0.0127092
0.0107067
0.00901949
0.00760937
0.00644347
0.00548878
0.00471097
0.00407648
0.0035552
0.00312195
0.00275635
0.00244205
0.00216575
0.0632645
0.0580161
0.0526044
0.0472274
0.0420077
0.0370216
0.03233
0.0279833
0.02402
0.0204662
0.0173309
0.0146055
0.0122692
0.0102927
0.00864088
0.00727608
0.00615889
0.00525022
0.00451309
0.00391366
0.00342232
0.00301436
0.00266991
0.00237337
0.00211289
0.0643562
0.0583402
0.0524815
0.0468291
0.041436
0.0363465
0.0316039
0.0272474
0.0233057
0.019793
0.0167068
0.0140318
0.0117445
0.00981646
0.00821436
0.00690009
0.00583236
0.00496984
0.00427405
0.00371067
0.00325033
0.00286885
0.00254696
0.00226974
0.00202562
0.0656622
0.0588653
0.0524603
0.0464401
0.0408121
0.0355873
0.0307825
0.0264156
0.0224979
0.0190295
0.0159983
0.0133831
0.0111573
0.00929041
0.00774776
0.00649012
0.00547515
0.00466061
0.00400731
0.00348078
0.00305202
0.00269749
0.00239864
0.00214139
0.0019153
0.0669286
0.059382
0.052405
0.0459865
0.040105
0.0347377
0.0298705
0.025496
0.0216063
0.0181874
0.0152184
0.0126721
0.0105179
0.00872196
0.00724695
0.00605183
0.00509332
0.0043288
0.00371905
0.00322994
0.0028331
0.0025058
0.00223033
0.00199339
0.00178511
0.0681892
0.0598448
0.0522563
0.0454252
0.0392918
0.0337894
0.0288669
0.0244912
0.0206357
0.0172732
0.0143742
0.0119061
0.00983306
0.00811675
0.00671661
0.00558949
0.00469113
0.00397892
0.00341408
0.00296311
0.00259849
0.00229842
0.00204603
0.00182882
0.00163799
0.0695602
0.0602025
0.0519381
0.0446986
0.0383375
0.0327232
0.0277627
0.0233969
0.0195851
0.0162881
0.0134683
0.0110881
0.00910678
0.00747896
0.00616079
0.00510692
0.00427222
0.00361448
0.0030959
0.00268387
0.0023518
0.00207893
0.0018491
0.00165027
0.0014751
0.0709009
0.0603042
0.0513446
0.0437457
0.0372114
0.0315248
0.0265537
0.0222107
0.0184527
0.0152323
0.0125006
0.0102194
0.00834277
0.00681284
0.00558374
0.00460839
0.00384028
0.00323877
0.00276792
0.00239592
0.00209673
0.00185158
0.00164371
0.00145926
0.00129598
1.40706
1.37462
2.47683
3.81073
0.00216032
0.00326927
0.046012
0.00113302
2.41883
0.00034031
2.17512
0.00674574
0.221939
0.0059183
0.0686984
0.000912008
2.15043
3.85163
0.000190461
0.0612993
0.0299003
0.000706132
2.5917
0.100831
0.00220971
0.00176658
0.00195116
0.0393712
1.66048
2.2102
0.000340233
0.00165465
3.09855
0.181091
2.20944
0.000940339
0.209556
0.0694907
0.257248
0.008525
3.83417
0.00171393
0.000905978
0.188423
0.0389432
0.000796954
3.20841
4.16446
1.96319
2.23245
2.96192
3.66107
0.0485949
4.11722
0.0457866
2.48585
0.00522534
0.0349528
0.00291321
3.75318
0.00120106
2.61731
0.00226706
0.000860842
0.00108935
0.115435
0.00304846
1.245
0.253107
2.10134
2.6608
0.00079065
0.00137212
0.0593354
0.00413727
0.0294655
0.0551182
3.99528
0.00464158
4.13629
0.152608
0.0015348
0.00106595
2.11698
0.00157439
0.00139056
0.00101892
3.98455
3.147
0.0109091
0.045573
0.0046938
0.000270656
0.00707227
0.00164224
2.19645
0.00189218
2.39517
0.00383592
3.72541
0.0138901
3.81286
0.016068
0.000771118
0.00260881
0.0213868
2.80718
0.129784
0.0026292
2.22438
0.00078023
0.00341388
2.95294
0.00073878
0.0434338
1.93474
3.16318
0.00684258
0.0991165
0.00691195
0.000252497
0.00417793
0.111996
0.00239534
3.22346
0.000976576
3.66345
0.0484152
0.00336143
4.15057
0.00116281
0.058237
2.12062
0.25311
0.0484786
0.00108155
0.0433176
0.00884012
0.000965674
0.0654667
0.000532412
0.249486
3.77632
0.000388129
1.75979
0.000997519
3.44351
0.0406417
0.000913006
2.10875
0.0255307
0.00351417
3.59205
0.0506204
0.00540851
2.06757
0.00162639
0.00688539
0.054067
0.0016097
0.00083557
2.58637
0.000799196
2.54608
0.000441885
2.5271
0.00597216
0.00197517
0.00105408
0.0017447
0.0054049
0.000876588
1.1915
2.28178
0.00247125
0.0261829
0.0591847
1.87397
2.51684
0.000553971
0.120279
0.00167583
0.057028
0.0866135
0.0774111
0.00211511
2.72222
0.00168949
2.43142
0.000897186
4.05683
3.74637
1.83288
0.256047
0.0560996
2.62383
0.00392096
0.000708597
1.84395
1.52306
0.380518
0.00113226
0.00144875
0.000928193
0.0118748
0.000815459
0.00357144
0.0159741
2.04119
0.00520409
0.0026806
0.00414657
0.139801
0.0110251
0.0470963
3.92661
0.00226399
0.0016563
0.00102627
0.0137425
0.0125528
0.00197288
0.00574499
2.70819
3.03332
3.37752
0.0172788
2.16798
0.00297869
0.00145891
1.93457
0.000915761
0.00187043
0.00235648
0.248234
0.000460956
0.0530082
0.0216401
0.0924941
0.0510744
0.000600521
0.00126584
0.000493962
0.0660739
0.00124217
0.000844357
0.00151137
0.0360785
0.000898335
0.00066099
0.00274145
0.0287492
0.00152084
1.93293
0.00310452
0.00197316
2.76777
0.0543078
0.0537791
0.000197384
0.841941
0.0032238
0.000811683
0.00487048
0.0574835
0.0026417
0.00063714
3.26674
0.0447707
0.0018188
0.0354632
1.81867
0.00385697
0.0018088
0.000187273
3.16273
0.00464975
2.28184
0.00534388
3.85074
0.137325
0.0300776
1.08784
0.000793008
2.56908
0.00100722
0.0233299
3.97842
3.05808
4.10036
0.0511749
0.000806498
0.00127041
3.21076
0.459311
3.91357
3.7118
0.00354496
0.00176817
3.16911
3.7741
0.000779825
0.0245449
0.000958814
3.599
0.000501203
0.029125
0.00160017
0.065361
0.00135918
0.00079045
0.00041315
2.75534
0.00356934
0.00414698
0.306095
3.58549
0.00168948
0.00209765
0.495064
0.0545505
0.000941443
0.0329978
0.000334417
0.00101694
0.00253513
3.09332
0.124657
0.0031958
0.0362026
0.000433844
0.0581923
0.0100662
0.00036749
3.93817
0.00145914
0.000777142
0.00108944
3.92667e-05
0.946301
0.0038096
0.00819471
3.44823
0.000390045
0.0563492
0.00235973
0.00501498
0.00260698
0.00119213
2.99021
1.95968
0.000281578
0.00408041
0.0537969
3.27015
2.70755
0.648243
0.211594
0.000526634
3.22439
2.05961
2.23121
0.000875098
3.29675
0.00130115
0.0011113
0.000972511
3.80804
0.000791261
2.33309
0.000565895
0.0505743
1.65128
3.27471
0.217537
0.00340575
0.00623591
0.00035524
0.00221077
0.000456395
3.69675
0.000859862
3.20206
0.228926
0.225335
0.545854
0.000423539
0.0604155
2.01832
4.06663
0.0303683
0.000775051
0.0191326
2.89553
0.101479
0.000245125
0.000523874
3.03634
0.00698309
1.67875
0.00104774
0.000859089
0.00166809
1.90458
0.00831578
2.89121e-06
0.0561514
0.0216614
0.460579
0.000618486
2.08068
0.000807753
3.17983
0.000958921
0.00101374
1.17125
2.06509
2.99211
0.00493403
0.00480115
0.000432297
0.00215424
0.0134132
0.0190336
0.000987411
3.95254
3.58115e-05
0.0330005
0.00114576
0.00150857
0.000903792
0.00189855
0.0104492
0.00492613
0.049968
0.000943345
0.000768441
0.000732703
0.00242424
0.354524
0.00132509
0.0510584
3.294
0.356326
0.270133
3.21834
0.0261126
2.49487
0.00287503
0.00456621
3.23965
0.000818694
0.000795622
2.93984
0.000403576
2.03961
3.0248
0.00122388
0.0588222
0.0478539
0.000807764
0.0704737
1.99036
0.135659
3.87015
0.00102077
0.00224612
2.75629
0.00120173
2.05504
0.030348
0.00114102
2.21284
0.450215
0.00229871
0.194428
0.00807224
0.00144225
0.0417515
0.039262
0.0419414
0.201418
0.000184801
0.00724486
2.05738
0.00154907
0.0013013
0.000910608
1.80186
0.000610196
0.0556365
0.000818804
0.00563468
2.77324
0.000785422
0.00297207
0.0572955
0.000942411
0.000343651
2.3039
0.000863117
0.05068
0.000855492
0.0515807
0.0600373
0.166406
0.000920617
0.000883777
0.0533289
0.00166465
0.000578841
0.138875
0.00252919
0.00749593
0.00233914
3.77079
3.60437
2.14616
0.00377883
0.0221112
0.000256204
4.08804
0.0620757
4.37997
0.205361
0.000910163
3.9222
3.78016
0.000938264
0.000938752
0.0276394
0.000637553
2.93561
2.90271
0.00704494
0.496824
0.000836381
2.62757
1.90363
0.000833259
0.483434
2.15297
0.000691095
3.07294
0.00519749
2.58913
0.000779562
0.010258
0.000921845
2.26888
0.199663
0.171299
0.00339966
1.96587
2.10563
3.73259
0.00523049
0.000352338
0.165693
2.20065
0.0013022
0.218413
0.000830937
0.202422
2.0962
0.00026082
0.0225174
0.00315515
0.00157644
0.995215
2.89211
0.000985772
0.0921921
0.00248331
0.00259836
2.94192
3.25926
2.25097
0.0120209
1.01586
0.0653285
0.0580779
0.00111257
0.000263733
0.00126573
3.01198
0.000661385
0.00345745
0.662929
0.00105008
0.00518629
0.00203014
0.000844496
0.0506583
0.000412223
0.00315344
0.185222
2.19042
0.00172424
0.00149466
3.46211
0.0405443
0.00154944
0.0349269
0.0470805
0.00299919
0.00105428
0.00112328
3.70767
0.000903885
0.000834689
0.222098
0.000836652
0.00102616
0.0179944
0.0410147
0.00426908
0.00474085
2.70095
0.000893598
0.00107305
0.000926565
0.00034297
0.00487501
0.00864138
3.68984
3.68066
0.0332717
2.86862
0.00731331
0.00196135
0.00121917
0.00251661
0.000993337
0.0067612
0.0405678
0.018779
0.0060911
0.00328845
0.0512411
0.0220536
0.00877202
0.116693
0.000703955
0.00283078
0.0012817
0.0837576
0.472006
3.65587
0.0508042
0.0536355
0.00739543
0.000309807
0.00348826
0.000947012
0.000929501
3.28769
0.000198573
0.0305544
0.000944945
2.39688
4.29466
2.10665
0.000305629
0.00115204
0.00140526
3.75712
2.58967
0.0788188
0.0505525
0.00848721
0.000194987
0.00164551
3.73977
0.00075891
0.00109941
0.20832
0.000911441
0.00059951
0.000651267
0.00379753
0.0440804
0.0485707
0.00119903
0.00070115
0.0113426
0.000364615
1.78364
3.26245
0.00158013
0.0613238
0.00604023
2.12908
0.00128349
0.000366898
0.000663577
0.00200458
0.728166
0.000948405
0.00055436
0.00285684
1.04423
0.00284967
0.00092192
0.000713525
3.91037
0.0587014
0.0292077
4.12121
0.0619489
1.86772
2.22311
0.000185333
0.00151929
0.00106491
1.03413e-05
0.000810613
0.140969
0.000982074
0.00086575
0.18232
0.000231709
0.00084284
0.119806
0.00072672
0.00160752
0.000908112
0.0340396
0.123465
3.78374
0.000201327
2.63459
0.0397472
1.83425
0.0313404
3.8423
3.02755
3.01067
0.00202857
0.000903016
0.000370959
0.879611
0.000790463
0.48863
1.69354
0.00032601
0.056195
0.380578
0.00402578
0.000959144
0.000845984
3.51363
2.61431
0.000790229
0.0435101
0.0511176
0.0761756
2.81737
4.11298e-08
0.000697748
0.0872173
0.000496645
1.57137
0.48644
2.39153
0.0506883
0.0020228
0.0506392
0.00704692
7.29484e-05
0.0711407
0.00454147
0.0105553
0.00174525
0.000907561
1.29389
0.000914619
0.00267573
0.00081449
0.000810504
1.45376
0.00896239
3.74191
0.0651477
0.000645624
1.97619
0.000879908
0.0641174
0.00207885
0.000281849
0.000562109
0.0385083
0.0424244
0.00057977
0.000662704
3.04002
2.63438
0.0481617
0.00100611
0.0419602
0.430118
0.0525547
3.09764
0.20096
0.00857671
0.000430883
2.62768
0.00385436
0.00107756
0.0389451
2.61279
2.42615
0.00208124
0.00109334
2.26688
0.00124948
2.55577
2.30859
0.00061228
0.00202396
2.31869
1.69012
1.56988
0.000457825
0.0015719
0.00236151
0.0409984
0.190327
0.000724648
0.00114745
0.00327624
0.0476727
0.0819012
0.459871
1.70318
0.000196727
0.000789146
3.69886
0.00020982
0.0434655
0.00240422
0.0362447
0.00257068
0.00638386
0.451081
0.000765408
0.00034341
0.000367445
0.0318103
0.0413008
3.96851
0.00134757
0.00113153
0.000784048
0.0833221
0.0649155
2.58351
0.00672622
0.317366
0.0654474
1.19273e-05
0.00321307
0.00458465
1.95989
0.00410683
0.0603375
0.000942237
8.54613e-05
0.0709639
0.000885674
4.69297
2.77298
0.0393308
3.77161
3.87623
3.4779
0.000217414
2.73667
0.103937
0.000504047
0.0477748
0.000851997
0.0047108
0.051173
0.000926285
0.0129047
0.0324337
2.78144
0.072835
0.0181824
2.71497
0.00667227
0.000978211
0.0521915
1.77776
0.581144
0.000289268
0.0676246
4.13252
2.35111
0.43444
0.0459017
2.13293
0.0054579
0.00203652
0.0269121
2.38303
0.00301172
2.22315
0.0039239
2.27936
0.000970159
0.052678
1.50454
0.000580586
0.00367629
0.000296408
3.02622
0.730096
2.67067
1.85874
0.00103818
0.0508778
0.0204667
0.0183887
1.64632
0.032653
0.000849004
0.000935193
0.000879746
0.00686823
0.0435379
2.19009
9.8252e-05
2.9522
0.00063259
0.0525403
0.000237284
0.000938926
0.00127184
2.94909
2.40788
0.0361278
0.0366859
0.00179283
0.00348025
0.0517466
0.000987708
0.584572
0.2882
3.39081
0.00322782
1.30747
0.0507783
0.000933611
0.00104714
0.0014949
3.43826
0.00518781
0.0117921
0.052002
0.0578006
0.00234959
0.0243885
0.00137746
0.000720016
0.00275976
0.00270455
0.0370859
0.00172994
0.125138
2.72809
0.0626933
2.96857
0.000798267
0.150131
0.0384658
0.0173579
1.73911
0.00279735
0.00633579
3.14363
0.000946147
0.517243
0.00535343
0.00182882
1.99953
0.000526842
1.59038
0.00287471
0.0422058
0.0447274
3.12757
0.00555543
0.0501957
0.00176313
1.39631
0.000906361
3.29423
0.108634
0.647907
2.17019
0.050475
3.07376
0.000825284
1.89079
0.00261338
0.0010542
0.00531676
0.0535712
0.0656129
0.00677582
0.000283733
0.0538139
0.00139119
0.000324098
0.00588655
0.0029845
0.000840821
4.11967
0.00101659
0.000797459
0.0510632
0.0325482
3.46084
0.00525573
0.000392541
0.00233629
2.11888
0.00110377
0.00441164
3.73738
2.38992
0.184893
0.00186397
0.022753
0.0286697
3.06628
0.000450855
0.000255595
0.00673297
0.00107839
0.00339445
2.18874
4.03085
4.65512
0.0335846
0.00184358
0.0515328
3.41685
0.0243399
0.0481203
0.000944208
1.81468
2.12058
3.24452
0.000913535
0.000895663
0.0174661
2.58306
0.00106587
2.57464
0.0206976
0.818922
1.97238
0.00586226
0.0110709
0.00618426
0.000305341
0.000314963
0.94456
1.72066
0.000190286
2.73421
0.00258447
0.00192436
0.00165855
0.000583874
0.0508533
0.0456998
0.0634579
0.0649523
0.00152194
0.000966174
1.85628
2.0399
0.000962725
0.00560084
0.000733918
2.3675
4.34998
0.0210144
3.80725
0.00182474
0.000228672
0.109148
0.000866177
0.0115593
0.053216
0.00101469
0.00106522
0.000671043
0.00814046
0.0895431
2.69177
0.0499582
0.000226262
0.0197717
0.000746297
3.58296
3.73948
0.000537471
0.000239603
0.0560479
0.00322977
0.00286152
1.48815
1.70555
0.59639
0.000345881
0.0132539
0.066395
1.73546
0.00914035
0.0956835
1.59233
2.83924
3.73306e-05
0.00160998
0.0083437
0.000647159
1.23959
0.0758624
0.000780354
0.0523961
0.000927408
0.000471171
0.00100506
0.0418375
0.0024331
3.08515
1.92652
3.39842
1.55232
0.539731
5.16835
0.00160252
3.48578
0.0545421
0.00116481
0.788938
0.000173109
0.0160642
0.00078459
0.000827144
0.00666187
2.58663
0.00306258
0.0299766
0.052221
0.00653331
0.0965013
1.32151
3.22527
0.00405136
3.30494
2.39857
0.00590764
0.0025325
0.0531293
0.817609
0.0315848
0.0490491
2.71084
0.000499639
0.0061286
0.00322765
0.061045
3.67218
0.000977388
0.00965781
0.00196854
0.000942707
0.00192137
0.0442713
0.000264998
0.00780895
0.0138464
2.02745
0.000329283
0.181374
2.18706
0.000873118
0.0419134
0.10292
2.82364
0.183172
1.78933
0.112015
0.000797744
3.84294
2.53545
0.00114973
0.0370369
0.0697203
0.000519007
0.00149297
0.000531884
0.0928917
0.00166764
0.200288
0.000266762
0.0528452
2.1166
0.0496426
1.95229
0.809971
0.00140555
0.0534463
0.0487997
0.00576044
0.000870028
0.163462
2.15027
0.00053489
0.267476
0.00958745
0.000911335
0.0259
0.0283234
0.00167281
0.00102687
2.82963
0.0527483
0.000596725
0.000841698
0.000423786
0.000910345
0.000876106
1.65348
0.000751993
0.50793
2.57895
0.0417152
0.000106884
0.0516294
1.6371
0.0640888
1.8774
0.0104264
0.345441
3.41038
3.61624
0.00164612
2.31861
0.000469487
2.4197
4.26621
0.000202373
0.228394
0.061908
4.02818
0.15205
0.025344
0.000779857
0.0431379
2.3343
2.67774
3.48478
0.000979928
0.0634754
0.000237384
2.46871
0.0127267
0.00246348
0.000856706
0.0548252
0.00698759
0.00514915
0.0672884
0.00086276
1.91333
0.00526025
0.000577753
0.697032
0.0410078
0.00933448
0.0644492
0.0586836
0.00103582
0.0487016
2.94589
0.000305401
0.0365438
0.00683834
1.96276
0.339558
0.00224627
3.88138
0.00026822
0.0337814
2.94226
0.000441149
0.00269291
0.0301793
0.0443205
0.0510193
0.00334665
4.01941
0.00987628
0.0508609
3.93935
0.0221476
0.000922848
0.524695
0.000851153
0.00107541
0.000340588
0.0525436
2.44114
0.000997208
3.00467
0.146914
0.000871746
0.306527
0.000783172
0.00510378
0.281184
0.00065572
0.000710784
2.53206
0.00453417
0.000593852
0.000716159
2.05441
2.33507
0.0160119
0.000388631
0.00267215
0.275731
3.97149
0.000854372
0.00309823
0.0220786
3.18605
0.00302481
0.382024
0.292795
0.00101163
0.0469927
3.54888
0.000817689
0.0153399
0.000628986
3.16146
0.00104805
0.00135602
0.00746473
0.0548756
2.38111
0.00538571
2.98614
0.00631425
2.2913
0.00051655
0.0789416
0.0327685
0.0641047
1.97876
0.0066858
0.165405
0.00107057
0.000838205
0.000985174
2.38325
2.72414
0.000292844
0.000469933
1.51345
0.000819473
0.00595808
0.00464681
3.87395
3.60834
0.0488515
3.21367
0.000880437
0.000963701
0.265929
0.163471
1.91056
0.00275917
0.00168125
0.0023503
0.00412039
0.000901477
0.0029903
0.00110988
0.0306528
3.67022
2.47867
0.000219938
0.059136
0.0387002
2.77915
0.000781463
3.54189
1.72474
3.7212
0.000634812
0.0502289
0.00130351
0.000820198
0.000494007
0.00172929
0.000204503
1.59095
3.41298
0.000591804
0.0270648
0.0670806
0.209119
2.17958
4.19059
0.0030394
0.00359593
0.00558595
0.0206576
0.174805
0.00445378
2.11737
0.161529
0.000344726
0.00903614
0.000966458
0.065186
0.0010213
0.00281185
0.000307285
0.00119822
0.0141408
0.0585972
0.000697901
3.34634
0.000971617
0.000794705
0.838129
0.00803983
0.0011283
3.01806
2.2373
0.000816357
2.43406
0.000255675
0.0509513
0.000685869
0.000997194
0.000798034
0.000940779
2.54512
0.00831781
0.00092005
2.43496
1.59417
0.000731372
0.000380403
0.00108239
0.000876846
0.0486048
4.50996e-05
0.000800457
3.22233
0.00106093
0.000227812
0.000735035
2.5918
0.00098359
2.50223
1.88981