/*--------------------------------*- C++ -*----------------------------------*\
  =========                 |
  \\      /  F ield         | OpenFOAM: The Open Source CFD Toolbox
   \\    /   O peration     | Website:  https://openfoam.org
    \\  /    A nd           | Version:  10
     \\/     M anipulation  |
\*---------------------------------------------------------------------------*/
FoamFile
{
    format      ascii;
    class       volScalarField;
    location    "1900";
    object      k;
}
// * * * * * * * * * * * * * * * * * * * * * * * * * * * * * * * * * * * * * //

dimensions      [0 2 -2 0 0 0 0];

internalField   nonuniform List<scalar> 
10435
(
2.4
2.84771
2.57446
2.47758
2.71442
3.09885
2.42465
2.11627
2.12982
3.03411
2.82981
2.32205
3.06422
1.76583
1.88445
2.21754
1.64406
3.29067
2.16739
2.43892
2.16112
2.46061
2.3173
2.20644
2.80863
0.768106
0.987479
2.81853
0.919612
3.17494
2.42414
2.81036
2.10275
0.945345
2.13227
2.64422
2.16017
1.02994
0.615265
2.17933
3.30279
2.42559
1.18203
2.49542
2.21462
2.19082
3.18489
1.06232
2.13019
2.44342
2.12802
2.65611
0.596759
0.84012
0.65269
0.857067
2.15675
1.05769
1.32651
2.14529
0.638628
2.82418
1.03958
2.62166
2.25805
2.66513
1.17235
1.1755
2.1472
2.23999
0.831885
0.907069
0.896824
2.53143
1.99098
1.27374
2.26961
2.34494
2.09744
1.98062
2.40195
2.31639
0.579103
0.850432
2.36908
2.36012
2.39399
2.56689
2.06702
2.47492
2.56308
2.55128
2.36958
2.17861
2.52902
2.48208
2.49748
1.92441
1.47395
2.5214
1.97863
2.93845
2.29225
2.5585
2.97155
2.49261
2.40933
2.42889
2.32934
2.08345
2.44897
2.91315
2.25114
2.17354
2.58102
2.47152
2.46916
2.49303
2.69188
2.40876
2.4184
1.18896
2.59375
2.0346
2.92541
0.704118
2.44915
1.39604
2.57506
1.01429
1.70965
2.94587
2.15833
1.8672
0.966602
0.540038
2.63543
2.44848
2.68797
2.47401
2.46371
2.31953
1.07721
2.39427
2.44116
1.68872
2.38228
2.79482
1.59566
2.29722
0.944124
2.19539
2.41803
2.31223
2.84333
0.840226
2.91055
2.65723
2.94508
2.99931
2.26077
1.74261
2.66042
2.34713
2.09993
2.48936
2.10656
2.38237
2.27415
2.47622
2.74576
0.740957
0.903273
1.8131
2.25647
3.01287
2.75792
1.3467
2.44995
0.982277
2.8442
3.02983
2.31113
0.671386
2.26543
0.978464
1.1105
2.27575
2.74408
2.49849
2.3631
0.567147
0.975637
2.81974
2.90479
2.20142
1.45281
2.20507
1.21641
2.18154
2.07135
1.01319
2.93407
1.05634
2.77916
2.65614
2.68418
2.41592
1.05691
2.41514
0.840048
2.40081
2.37954
2.30973
0.969301
1.70346
2.19464
0.652301
0.777889
1.6122
0.945911
1.43439
1.13017
1.80689
0.814461
2.13967
0.690833
2.03825
2.47689
1.42074
1.29802
2.11714
0.731236
2.19953
1.05438
1.5159
2.18668
0.819882
2.22082
2.56056
2.48695
0.748772
0.677412
0.860047
2.66804
2.10702
2.27211
2.16755
0.73173
3.00057
0.763635
2.182
3.09648
2.38383
2.23007
2.62328
0.671766
2.28944
0.775063
1.01125
2.35378
2.64585
0.754146
2.30491
2.27539
1.34951
2.46102
2.38257
0.622306
2.61571
2.42856
2.11279
2.17431
2.78116
0.829141
2.37329
1.01391
2.74752
2.22095
2.09677
3.01797
1.36904
2.52574
1.90136
2.27534
0.597667
2.75281
0.651393
0.859616
0.964341
2.02584
2.97257
1.05542
2.1385
0.62585
0.818359
1.55773
2.34512
2.77259
2.57127
1.21118
2.24965
2.62271
0.789589
2.79351
1.8184
1.49754
2.21706
2.60913
0.864193
2.4364
0.949404
2.93864
2.78923
2.12162
0.814989
0.685673
2.36699
1.22271
2.34946
3.01688
0.981852
2.35563
0.556527
2.09071
2.91733
0.885504
2.719
1.23179
1.04464
2.14011
1.00797
0.863803
2.54157
2.24931
1.08783
0.814601
0.763149
0.896874
0.873437
0.925295
0.876563
0.623986
0.90448
0.869672
0.920376
1.12082
1.07064
0.547532
2.09809
0.871585
2.831
0.96518
2.81889
2.09356
2.13277
3.07736
2.44129
0.853963
0.905958
0.785879
0.721014
0.854497
0.60748
0.94763
0.955276
1.11006
2.28042
0.933516
2.10968
0.68587
0.990215
3.14678
2.14662
0.60218
0.990185
1.02552
1.0281
0.897714
0.819329
1.16241
0.665641
2.09607
1.13976
2.13006
2.10239
2.91597
3.00727
2.1152
2.72145
2.12097
1.63313
0.827402
0.902425
0.832045
2.63584
0.877931
3.15014
1.12393
0.99053
1.00993
1.041
0.713738
2.32774
1.02691
2.10635
2.24194
0.716091
0.865626
1.06535
2.15172
1.0787
0.901061
0.777537
0.85576
1.10245
0.925738
2.6815
0.828977
0.868888
0.926634
0.968394
3.28031
0.615169
0.557001
2.15036
0.899182
0.174029
0.172258
0.168026
0.162103
0.155031
0.147072
0.138542
0.129738
0.120996
0.174156
0.171629
0.16713
0.161201
0.154236
0.146567
0.138487
0.130343
0.122548
0.174046
0.17106
0.166386
0.160472
0.153691
0.146358
0.138768
0.13126
0.124209
0.174086
0.170807
0.165995
0.160133
0.153576
0.14661
0.139515
0.132587
0.126126
0.174587
0.171095
0.166168
0.160386
0.154073
0.147486
0.140871
0.134462
0.128456
0.175816
0.172145
0.16712
0.161432
0.155368
0.149158
0.143002
0.137076
0.131493
0.178034
0.174193
0.169068
0.163472
0.157648
0.151801
0.146087
0.140632
0.135511
0.181568
0.177481
0.172223
0.166699
0.161096
0.155588
0.150288
0.145289
0.140644
0.186748
0.18219
0.176766
0.171291
0.165884
0.16068
0.155753
0.151154
0.146906
0.193516
0.188389
0.182838
0.177409
0.172173
0.16723
0.162619
0.15835
0.154383
0.201476
0.196123
0.190595
0.185226
0.180127
0.175384
0.171015
0.167
0.163254
0.210216
0.205607
0.200273
0.194953
0.189924
0.185289
0.181074
0.177238
0.173709
0.221349
0.217437
0.212201
0.206818
0.201729
0.197077
0.1929
0.189162
0.185795
0.236323
0.232175
0.226655
0.220985
0.215655
0.210823
0.20654
0.202781
0.199477
0.255647
0.250039
0.243737
0.237504
0.23173
0.226544
0.221998
0.218064
0.214635
0.278785
0.270794
0.26333
0.256307
0.249908
0.244212
0.239265
0.235046
0.23147
0.303578
0.293854
0.2852
0.27728
0.270132
0.263803
0.258344
0.253748
0.249998
0.329613
0.318911
0.309226
0.300383
0.292404
0.285343
0.279266
0.274184
0.270081
0.357119
0.345973
0.335451
0.3257
0.316832
0.308952
0.302148
0.296457
0.291866
0.386533
0.37526
0.364047
0.353409
0.34362
0.334861
0.327256
0.320864
0.315707
0.418357
0.407112
0.395254
0.383738
0.373024
0.363376
0.35495
0.347827
0.342007
0.453217
0.441947
0.429335
0.416911
0.405308
0.394827
0.385634
0.377825
0.371369
0.492289
0.480236
0.466491
0.453093
0.440703
0.429555
0.419776
0.411466
0.404601
0.537451
0.522285
0.506688
0.492299
0.479373
0.467894
0.457889
0.44945
0.442514
0.590812
0.567547
0.549492
0.534373
0.521394
0.510127
0.500412
0.492343
0.485005
0.276483
0.276315
0.276623
0.277403
0.278667
0.280414
0.282644
0.285342
0.288501
0.292089
0.296082
0.300444
0.305124
0.310077
0.315231
0.320518
0.325863
0.33118
0.33638
0.341373
0.346055
0.350321
0.354052
0.357094
0.359214
0.360295
0.360314
0.359354
0.357368
0.354157
0.349847
0.344569
0.338334
0.331259
0.323461
0.315058
0.306165
0.2969
0.287386
0.277746
0.268099
0.258568
0.249258
0.240272
0.2317
0.223622
0.216099
0.209187
0.202913
0.197304
0.192363
0.188082
0.184452
0.181449
0.179054
0.177237
0.175979
0.175251
0.175032
0.274869
0.275031
0.275621
0.276646
0.278108
0.280008
0.282347
0.285117
0.288306
0.291895
0.295858
0.300161
0.304761
0.309607
0.314639
0.319789
0.32498
0.33013
0.335152
0.339952
0.344434
0.348498
0.352038
0.354942
0.357077
0.358296
0.358468
0.357511
0.355399
0.352172
0.347924
0.342737
0.336668
0.329789
0.322184
0.313954
0.305206
0.296059
0.286635
0.277059
0.267455
0.257943
0.248638
0.239644
0.231055
0.222948
0.215388
0.208423
0.202083
0.196384
0.191336
0.186939
0.18318
0.180038
0.177488
0.175504
0.174058
0.173127
0.172676
0.270226
0.270434
0.271063
0.272122
0.273614
0.275541
0.277898
0.280677
0.283865
0.287441
0.29138
0.295649
0.300204
0.304997
0.309969
0.315055
0.32018
0.325263
0.330219
0.334956
0.339377
0.343381
0.346858
0.34969
0.35175
0.352913
0.353073
0.352161
0.350146
0.347044
0.342913
0.337826
0.331853
0.325074
0.317575
0.309453
0.300813
0.291769
0.282441
0.272953
0.263427
0.253985
0.24474
0.235798
0.227253
0.219184
0.211655
0.204714
0.198394
0.19271
0.187667
0.183258
0.179471
0.176285
0.173679
0.17163
0.170114
0.169113
0.168594
0.262382
0.262606
0.26325
0.264318
0.265815
0.267739
0.270085
0.272846
0.276007
0.279547
0.283442
0.287659
0.292156
0.296886
0.301792
0.306809
0.311866
0.316881
0.32177
0.32644
0.330793
0.334725
0.338127
0.340885
0.342882
0.344007
0.344165
0.343289
0.34135
0.338355
0.334348
0.329387
0.323545
0.3169
0.309541
0.301563
0.293072
0.284179
0.275003
0.265665
0.256287
0.246989
0.237882
0.229071
0.220649
0.212694
0.205268
0.19842
0.19218
0.186566
0.181582
0.177223
0.173476
0.170321
0.167738
0.165705
0.164197
0.163198
0.162676
0.25231
0.252555
0.253212
0.254289
0.255786
0.257705
0.26004
0.262781
0.265916
0.269424
0.273279
0.277448
0.281893
0.286566
0.29141
0.296363
0.301352
0.306297
0.311114
0.315708
0.319982
0.323832
0.32715
0.329827
0.331756
0.332839
0.332992
0.332157
0.330304
0.327432
0.323571
0.318768
0.31309
0.306613
0.299425
0.291622
0.283309
0.274595
0.265601
0.256446
0.247251
0.238133
0.229204
0.220566
0.21231
0.204513
0.197237
0.190528
0.184417
0.17892
0.174043
0.169779
0.166114
0.163031
0.160507
0.15852
0.157048
0.156073
0.155565
0.24017
0.2404
0.241042
0.242101
0.24358
0.245478
0.247791
0.250509
0.253617
0.257094
0.260916
0.265049
0.269452
0.274078
0.278872
0.283769
0.288697
0.293578
0.298323
0.302843
0.307039
0.310809
0.314049
0.316657
0.318531
0.319583
0.319739
0.318946
0.317175
0.314421
0.310705
0.306068
0.300571
0.294288
0.287302
0.279708
0.271608
0.263111
0.254336
0.245402
0.236429
0.227531
0.218819
0.210394
0.202344
0.194747
0.187662
0.181135
0.175198
0.169865
0.165141
0.161019
0.157486
0.154522
0.152105
0.150212
0.148822
0.147914
0.14746
0.226308
0.226504
0.22711
0.228135
0.229581
0.23145
0.233735
0.236429
0.239514
0.242972
0.246773
0.250883
0.255262
0.259861
0.264622
0.269482
0.274369
0.279202
0.283895
0.288355
0.292488
0.296192
0.299371
0.301926
0.303762
0.304798
0.304967
0.304223
0.302535
0.299895
0.296321
0.291848
0.286537
0.28046
0.273694
0.266333
0.258474
0.250223
0.241701
0.233024
0.224308
0.215665
0.207202
0.199021
0.19121
0.183845
0.176986
0.170677
0.16495
0.159818
0.155286
0.151347
0.147985
0.14518
0.142909
0.141149
0.139876
0.139069
0.138701
0.210797
0.210901
0.211425
0.212377
0.213764
0.215588
0.217843
0.22052
0.223601
0.227063
0.230876
0.234999
0.239387
0.243988
0.248747
0.253603
0.258486
0.26331
0.26799
0.272427
0.276526
0.280188
0.283327
0.285859
0.287679
0.288721
0.288921
0.288241
0.286639
0.284104
0.280659
0.276336
0.271206
0.265342
0.258804
0.251691
0.244097
0.236118
0.227885
0.219502
0.211079
0.202725
0.194543
0.186634
0.179093
0.171989
0.165391
0.159339
0.153861
0.148968
0.144664
0.140942
0.137789
0.135183
0.133103
0.131523
0.130417
0.129763
0.12953
0.193657
0.193589
0.193964
0.194808
0.19613
0.197929
0.200185
0.202866
0.205982
0.209537
0.213447
0.217658
0.222108
0.226734
0.231507
0.236364
0.241275
0.24619
0.25095
0.255415
0.259502
0.263129
0.266247
0.268768
0.270604
0.271683
0.271953
0.271371
0.269866
0.267411
0.264064
0.259874
0.254909
0.249261
0.242983
0.236095
0.228726
0.221093
0.213232
0.205186
0.197098
0.189081
0.181223
0.173614
0.166341
0.159515
0.153197
0.147468
0.142327
0.137729
0.133667
0.13016
0.127218
0.124825
0.122952
0.121583
0.120693
0.120252
0.12023
0.864401
0.809961
0.76146
0.715304
0.670336
0.626146
0.582929
0.541125
0.501199
0.463661
0.429591
0.399762
0.374382
0.353121
0.334926
0.319578
0.307298
0.297974
0.291161
0.286321
0.282964
0.280649
0.278964
0.277503
0.275796
0.824443
0.79274
0.75314
0.710577
0.666918
0.62306
0.579704
0.537551
0.497295
0.459688
0.425497
0.395224
0.369063
0.346942
0.328571
0.31367
0.301971
0.293146
0.286782
0.282401
0.27953
0.277735
0.276639
0.275908
0.275222
0.817887
0.7851
0.746529
0.704662
0.661106
0.616955
0.573149
0.530569
0.490044
0.45233
0.418034
0.38755
0.361086
0.338679
0.320219
0.305476
0.294104
0.285675
0.279721
0.275751
0.27329
0.271897
0.271181
0.270804
0.270479
0.81873
0.781365
0.74064
0.697582
0.653208
0.608431
0.564148
0.521241
0.480536
0.442738
0.40838
0.377819
0.351265
0.328797
0.310356
0.295729
0.284553
0.276366
0.270664
0.266941
0.264712
0.263532
0.263009
0.262804
0.26261
0.821309
0.77941
0.735628
0.690483
0.644657
0.598874
0.553914
0.510578
0.469617
0.431668
0.397217
0.3666
0.340026
0.31758
0.299207
0.284689
0.273655
0.265625
0.260076
0.256485
0.254359
0.253252
0.252778
0.252613
0.252495
0.823463
0.777484
0.730501
0.68298
0.635447
0.588476
0.542712
0.498852
0.457555
0.419396
0.384824
0.354161
0.327605
0.305228
0.286958
0.272557
0.261638
0.253709
0.248234
0.24468
0.24255
0.241404
0.240864
0.24062
0.24042
0.825177
0.77518
0.72492
0.67493
0.62561
0.577372
0.53072
0.486248
0.444543
0.406118
0.371399
0.340694
0.314185
0.291913
0.273774
0.259505
0.248695
0.24084
0.235395
0.231817
0.229607
0.228323
0.227592
0.227116
0.226686
0.826665
0.772201
0.718561
0.666139
0.615079
0.565583
0.518009
0.472865
0.430697
0.391963
0.357071
0.326331
0.299908
0.277779
0.25981
0.245698
0.235005
0.227216
0.221782
0.218151
0.215812
0.214319
0.213283
0.212389
0.211473
0.827389
0.768067
0.711135
0.656472
0.603834
0.553151
0.504675
0.458803
0.416117
0.377044
0.341941
0.311174
0.284903
0.26297
0.245218
0.231305
0.220744
0.213023
0.207612
0.203943
0.201467
0.199763
0.198339
0.196706
0.194889
3.24134
3.20379
3.30494
5.12
0.15854
0.181699
1.35914
0.126776
3.24473
0.122044
2.61392
0.189009
1.52338
0.189724
1.57709
0.188033
2.80222
5.1923
0.112316
1.12423
0.91084
0.188342
3.04701
0.572981
0.112747
0.166558
0.111469
0.518052
3.24571
2.80212
0.118379
0.174259
4.45524
1.55006
2.78186
0.1413
1.61517
1.58198
1.80396
0.252537
4.27355
0.0561817
0.177509
1.1659
0.448527
0.219283
3.30613
3.98598
3.30325
3.99408
3.13508
4.11202
0.980558
5.39232
1.32764
3.32877
0.179404
0.919049
0.134437
4.0005
0.160367
3.43409
0.158438
0.20062
0.129118
0.968892
0.18297
2.37405
1.61006
3.68246
3.51228
0.209636
0.127525
1.14949
0.13464
0.902805
1.21642
4.03393
0.160427
5.433
1.44182
0.184188
0.14404
2.48408
0.153981
0.163676
0.122886
4.0649
4.46017
0.282916
0.43382
0.210788
0.129971
0.194427
0.135778
2.64142
0.168781
2.7427
0.116449
3.99892
0.332645
4.30211
0.35801
0.211772
0.127829
0.447012
3.22914
1.36755
0.0699779
2.825
0.193389
0.0999065
3.42934
0.207681
0.955883
3.29992
4.13044
0.235847
1.15697
0.135401
0.0160543
0.111214
0.592141
0.11563
4.48687
0.177249
4.12868
1.06744
0.141483
3.98611
0.142872
1.15125
3.65079
1.93761
0.628278
0.122811
0.452585
0.263648
0.16008
1.13419
0.178463
1.65051
4.00081
0.022272
3.2649
0.201915
4.81252
1.07314
0.186439
2.70393
0.572032
0.191306
4.92198
1.54527
0.136831
2.45883
0.116953
0.23724
1.29686
0.163835
0.172484
3.41774
0.177875
2.85508
0.147623
2.78051
0.190863
0.107948
0.218521
0.120592
0.181994
0.206916
2.30535
2.60638
0.172313
0.486074
1.21554
3.45545
3.50521
0.181169
1.55913
0.170704
1.01231
1.46123
0.847225
0.115199
2.91188
0.0550339
4.13588
0.176257
4.02272
4.00167
3.40949
1.60125
1.54483
4.25426
0.129428
0.186151
3.28663
3.23518
1.9159
0.243666
0.177889
0.178283
0.491187
0.147671
0.191264
0.352519
3.38786
0.218668
0.128027
0.137249
1.60546
0.47172
0.666054
4.22398
0.142978
0.123892
0.244796
0.325026
0.287916
0.064564
0.136984
3.56991
4.34284
4.17521
0.314152
2.83363
0.0745672
0.131743
2.35705
0.143304
0.170565
0.144394
1.75202
0.130459
1.35213
0.377462
1.50396
1.58055
0.126512
0.159828
0.149432
0.743759
0.124776
0.12589
0.177015
0.496804
0.186726
0.149672
0.0703985
0.515763
0.154782
3.32773
0.159891
0.108522
3.25779
1.22922
1.31276
0.112497
1.79486
0.141348
0.159724
0.131373
1.16442
0.118642
0.145158
4.60478
1.35073
0.107953
0.974357
3.3957
0.12512
0.120566
0.114515
4.51675
0.206983
3.05339
0.181896
4.04241
1.06827
0.589209
2.13848
0.218723
3.52515
0.168978
0.467177
5.27318
3.29798
4.02447
1.56511
0.182618
0.0382438
3.38308
2.16254
4.26079
4.19407
0.192467
0.167256
3.81684
4.03122
0.170282
0.321406
0.182162
4.21087
0.144852
0.906638
0.153414
1.13168
0.181697
0.211145
0.161649
4.29921
0.143762
0.123084
1.65077
3.5799
0.159623
0.11443
2.18361
1.30404
0.169081
0.345995
0.117694
0.124869
0.120512
4.09503
1.367
0.186589
0.93087
0.145798
1.55085
0.255466
0.124576
4.12144
0.168684
0.142796
0.150719
0.00639606
1.94486
0.129197
0.2147
3.91447
0.157358
1.16682
0.143531
0.205226
0.14813
0.121573
3.09998
3.55772
0.130785
0.0884183
1.32255
3.43868
4.01661
2.23306
1.21195
0.151056
3.24217
3.43034
2.75806
0.149708
4.1437
0.0495053
0.119866
0.209829
3.77479
0.156323
4.09013
0.18666
1.53523
3.28456
4.09758
1.51434
0.121691
0.133518
0.144236
0.169125
0.12868
4.22489
0.198908
4.48417
1.28587
1.2567
2.21396
0.147781
1.12251
2.52844
4.02284
1.03657
0.147515
0.37764
4.29748
1.47963
0.115577
0.146527
4.43616
0.237783
3.26213
0.124532
0.178494
0.154014
3.76255
0.217384
0.00184138
1.43792
0.395527
1.71121
0.127102
3.68953
0.156743
3.81441
0.15732
0.163282
2.21665
3.32163
3.10509
0.208108
0.211307
0.149718
0.17068
0.300554
0.385346
0.215206
4.04501
0.00497649
0.371719
0.142448
0.172654
0.174301
0.109409
0.283013
0.165631
1.52264
0.204905
0.19288
0.0210884
0.149051
0.944402
0.15903
1.57901
3.48818
1.52974
1.66234
4.10141
0.419514
3.88547
0.130979
0.15833
4.09115
0.165158
0.175459
3.70391
0.159836
3.65735
3.10777
0.163688
0.47397
1.10359
0.185038
0.819044
3.60877
1.56103
4.04533
0.117088
0.130335
3.57417
0.156267
2.57456
0.468317
0.11697
2.75021
1.11647
0.11749
1.52388
0.260325
0.113455
1.09667
1.0551
0.679781
1.80929
0.0165236
0.198405
2.44452
0.143815
0.181958
0.225434
3.55874
0.187909
1.5213
0.181266
0.12971
4.23314
0.153428
0.147428
1.51962
0.168213
0.135144
4.04718
0.175334
1.53803
0.157212
0.640674
1.20134
1.55781
0.175744
0.175654
1.42712
0.177024
0.167186
1.44903
0.173182
0.251396
0.112975
3.7513
4.29957
3.35084
0.121765
0.811395
0.131454
4.02422
1.1271
5.17479
1.60512
0.230601
4.04229
4.4113
0.150545
0.219389
0.494925
0.193702
4.25646
3.95408
0.133934
1.79525
0.178272
3.57228
3.32121
0.185501
2.18579
2.77392
0.183611
3.43708
0.107725
3.51237
0.16066
0.256332
0.168505
3.02709
1.67885
1.75785
0.14206
3.36027
3.34216
3.69809
0.132484
0.150634
1.35965
3.47233
0.146527
1.87516
0.178905
1.50059
2.70781
0.116389
0.79541
0.137145
0.174894
2.0354
4.34444
0.239714
1.62697
0.136996
0.160948
3.43585
3.28927
3.51386
0.283685
2.07342
1.1584
1.01165
0.240025
0.132934
0.133108
4.42264
0.177851
0.183364
2.18113
0.234162
0.224972
0.174854
0.19742
1.49381
0.161466
0.139152
1.51406
3.36954
0.14708
0.166821
3.92433
0.517801
0.0576097
0.371424
1.06025
0.16191
0.170342
0.143714
5.03416
0.166764
0.176079
1.78425
0.125734
0.214769
0.402038
0.959798
0.160125
0.202274
3.62619
0.211239
0.115871
0.167432
0.148431
0.241297
0.224353
3.99217
3.54306
0.477129
4.36495
0.205087
0.107708
0.114308
0.0987769
0.202744
0.134827
0.984999
0.323542
0.137415
0.176445
1.42585
0.767419
0.227805
0.964869
0.181767
0.172627
0.133244
0.538617
1.75228
3.98506
1.50104
1.33234
0.142615
0.12068
0.0779881
0.235612
0.138065
3.31302
0.114385
0.929599
0.158115
3.57614
5.55748
2.54357
0.0186038
0.115153
0.131159
4.39996
3.94242
0.805956
0.984497
0.222162
0.116726
0.150624
4.01619
0.0364099
0.163951
1.86901
0.138143
0.191758
0.135994
0.122647
0.970756
0.39615
0.151572
0.146955
0.258308
0.144021
3.29518
3.61488
0.175978
1.48161
0.216939
2.62308
0.137028
0.153348
0.150791
0.160768
2.2469
0.164471
0.167049
0.133792
2.08489
0.164699
0.228063
0.203718
4.00239
1.49761
0.515449
4.01124
1.56225
3.6445
2.78254
0.113717
0.11604
0.11578
0.00382119
0.177058
1.07098
0.194502
0.137466
1.4127
0.125728
0.134158
0.713314
0.158349
0.153525
0.12433
0.516706
1.40719
4.33609
0.116305
3.59116
1.27906
3.41598
0.940064
4.38359
3.26489
4.324
0.120151
0.182897
0.022116
1.8344
0.170638
2.14759
3.53275
0.145547
1.2893
1.57666
0.152677
0.125614
0.154556
3.42448
3.6021
0.139957
1.36954
1.52071
1.09838
3.77265
0.000155406
0.149675
0.673178
0.029343
3.43489
1.76041
2.89489
1.51672
0.110633
1.52052
0.135472
0.0105742
0.786467
0.212378
0.288723
0.164883
0.177576
2.53711
0.182902
0.140789
0.173675
0.174178
2.70523
0.255327
4.03666
1.56067
0.179181
3.56719
0.205756
1.14453
0.172974
0.136347
0.186003
1.02928
0.612135
0.0335063
0.196804
3.14681
3.64364
1.23413
0.161896
1.10228
2.09872
1.44918
3.96629
1.84698
0.226701
0.164513
3.06234
0.108585
0.121961
0.423856
4.26142
3.27106
0.174596
0.142425
3.98595
0.112464
3.48419
3.84893
0.189467
0.171661
3.0898
3.38636
3.41014
0.145845
0.159201
0.0907892
1.08301
1.62601
0.16144
0.114577
0.154585
1.22861
0.396227
1.24022
3.59773
0.116064
0.160596
4.52501
0.118296
1.02433
0.0795127
1.00163
0.182507
0.137396
2.1132
0.205103
0.148726
0.13626
0.552622
1.01846
4.09548
0.1297
0.156175
0.168214
1.6059
1.14023
3.48149
0.135584
1.80928
1.57563
0.00135933
0.126184
0.179094
2.36788
0.205194
1.19327
0.198376
0.0081175
1.473
0.179227
5.34734
4.05371
1.05272
4.02082
3.99925
3.41655
0.118958
4.31136
1.64631
0.176851
1.34078
0.139722
0.180028
1.12063
0.163402
0.313685
0.953125
3.72603
0.34587
0.211943
4.31941
0.2026
0.183479
1.43499
3.4557
2.21499
0.138355
0.507569
4.00939
2.8663
2.14924
1.01568
3.9654
0.253702
0.116915
0.891521
3.44677
0.18274
3.65379
0.209459
3.80971
0.203055
1.12285
3.3406
0.0257259
0.166749
0.139803
3.74082
2.21431
3.66872
3.28018
0.240213
0.583113
0.769197
0.346341
3.49205
0.905512
0.149587
0.174708
0.164267
0.140229
1.13105
2.67354
0.0146406
3.71916
0.19665
1.36379
0.127088
0.136141
0.125791
3.98467
3.61742
0.490849
0.993861
0.175978
0.152153
1.5535
0.138433
2.20174
1.99923
4.35011
0.0930891
2.45285
1.5535
0.186579
0.228406
0.175973
4.3782
0.214014
0.303664
1.36541
1.47089
0.131292
0.366006
0.148289
0.201008
0.140512
0.153059
0.955265
0.136596
0.636798
3.60342
1.13449
4.04855
0.178975
0.682226
0.914942
0.214531
3.25459
0.167168
0.214277
3.6359
0.196004
1.31841
0.239125
0.107567
3.3579
0.133893
2.8368
0.117348
1.3223
1.39923
4.16028
0.133147
1.27514
0.177054
2.59854
0.19021
3.8919
1.56635
1.49112
2.7984
0.316721
3.17523
0.160501
3.33953
0.194702
0.118326
0.215995
1.16742
1.57474
0.128378
0.13715
1.13469
0.155079
0.144832
0.134037
0.111421
0.189187
3.98771
0.214933
0.172678
1.50326
0.538266
3.40194
0.121175
0.15798
0.171465
3.37899
0.23267
0.180156
4.46076
3.67479
1.14751
0.162562
0.365794
0.989734
3.77644
0.144211
0.130918
0.236233
0.228052
0.185079
3.62433
4.02183
5.7441
0.969553
0.173099
1.56483
4.42399
0.45822
1.12065
0.190071
3.46912
2.67097
3.26885
0.155897
0.160092
0.398566
3.64925
0.242916
3.52554
0.332616
1.7904
3.62872
0.181715
0.273822
0.22565
0.123432
0.117864
1.89629
3.45407
0.114526
4.31851
0.182341
0.174076
0.134493
0.132425
1.00645
0.293945
1.15366
1.26285
0.146212
0.212672
3.31571
2.47714
0.150694
0.208271
0.204361
3.85389
5.58385
0.436241
4.03532
0.163636
0.121377
1.20069
0.152137
0.466721
1.5672
0.157486
0.120525
0.036541
0.227359
1.44991
3.73392
1.26003
0.123435
0.415106
0.131489
4.33436
4.32532
0.152946
0.120774
1.30138
0.192971
0.141522
3.10628
3.36482
1.36746
0.128345
0.177493
0.717173
3.60034
0.231427
0.401261
3.48078
3.6716
0.00734437
0.165585
0.220414
0.19876
2.39844
1.08744
0.162413
1.42213
0.161103
0.171528
0.137542
0.972719
0.167924
3.35731
3.56687
4.2943
3.44087
2.20346
5.90876
0.176336
4.17612
1.04762
0.138778
1.68784
0.0202886
0.375588
0.162882
0.148492
0.135373
3.9986
0.122627
0.504268
1.55578
0.21565
0.573513
2.50248
3.2523
0.103076
3.50896
2.76259
0.216811
0.153973
0.465737
1.75064
0.393673
1.27715
3.69273
0.176205
0.134212
0.191203
1.3826
4.31484
0.197867
0.26617
0.112185
0.149452
0.177461
0.580824
0.121641
0.245398
0.284994
3.44142
0.136614
0.738916
2.90887
0.178852
0.470416
0.582033
4.09873
0.748454
3.10113
1.194
0.178291
4.68447
3.52455
0.142551
0.946307
1.57196
0.147758
0.187041
0.181367
1.621
0.177125
1.50724
0.133075
1.56169
3.93422
1.07873
3.41695
1.71012
0.170265
1.14739
1.25378
0.234118
0.217745
0.560419
2.6742
0.181794
0.892766
0.175989
0.229763
0.88289
0.244356
0.128566
0.150469
3.75293
1.12266
0.130329
0.2243
0.120874
0.163726
0.169363
3.31643
0.212722
1.80127
4.2542
1.04028
0.0113806
1.27244
3.29059
1.13513
3.56932
0.249474
2.02923
4.11776
3.97969
0.0681021
3.43364
0.143829
3.2311
5.49505
0.118586
1.57211
1.5151
4.03442
1.56612
0.462663
0.168562
1.33779
3.82292
4.09397
4.1381
0.231064
1.13264
0.126175
3.55973
0.49024
0.126423
0.171968
1.10764
0.139989
0.258557
1.13517
0.156994
3.28192
0.133997
0.164787
2.25106
1.30919
0.266316
1.05107
1.56067
0.237072
1.05811
4.40238
0.141512
0.577054
0.197281
3.78343
1.88471
0.117756
4.3562
0.133742
0.93504
4.38089
0.166457
0.162267
0.905069
1.03406
1.38469
0.154265
4.0235
0.241181
1.05613
4.14096
0.532096
0.224385
2.21046
0.204658
0.174506
0.0205939
1.35449
3.92573
0.156073
4.35712
0.672443
0.17228
1.57906
0.190728
0.157218
1.71349
0.199814
0.152181
3.89193
0.119257
0.172844
0.20847
3.90694
3.61007
0.320861
0.132785
0.16014
1.73644
4.05413
0.149202
0.141883
0.443908
4.3524
0.144879
1.58914
1.72173
0.120282
1.00916
4.19645
0.145427
0.338056
0.144258
4.63238
0.135965
0.177197
0.262191
0.646096
3.76212
0.121062
4.18419
0.144765
2.68321
0.160604
1.50891
0.565774
1.15938
3.40435
0.231926
1.01141
0.232517
0.210552
0.210114
3.4877
3.6114
0.138894
0.14943
2.77797
0.212667
0.173388
0.135835
4.22277
3.98155
1.10047
4.23415
0.224027
0.118515
1.76422
0.690789
3.38345
0.110549
0.18863
0.123924
0.20069
0.153067
0.181812
0.157115
0.477142
4.50028
3.59341
0.122853
0.494461
1.04517
3.62889
0.164923
4.35872
3.57108
3.99938
0.190393
1.10747
0.148791
0.220529
0.171915
0.185923
0.112979
3.22903
4.47133
0.190446
0.467417
1.13281
0.790929
3.66838
3.9739
0.182372
0.144643
0.222386
0.420586
1.6195
0.144657
3.46531
1.13102
0.145232
0.25685
0.223503
0.748196
0.23102
0.165016
0.13632
0.136752
0.301558
1.09706
0.205851
4.252
0.194331
0.181336
1.76686
0.238527
0.1666
4.07432
3.71574
0.177516
3.70794
0.119111
1.28104
0.196319
0.234733
0.144918
0.119569
3.55957
0.247995
0.2151
3.82239
3.20438
0.130763
0.130702
0.154402
0.220432
1.48571
0.00947273
0.172015
4.38036
0.158104
0.118437
0.201432
4.22595
0.167017
3.67159
3.5054
0.627745
3.77565
0.213119
0.110827
4.43429
3.80857
0.114837
0.00942461
1.01096
0.254735
0.241672
0.14594
1.57489
2.82734
0.192929
0.147249
3.65187
0.146866
3.47252
2.11326
0.175082
0.965708
4.06407
0.118179
1.61596
0.139017
0.197537
0.224776
0.154197
3.9589
3.46748
0.170051
0.125938
3.98205
0.186446
0.231237
0.439761
1.37023
1.64201
0.117496
0.146032
0.123809
0.16907
0.114573
0.00252381
0.218931
0.219731
3.46633
1.05161
0.150549
2.17747
0.250107
1.19186
4.04225
1.17952
3.90575
2.44604
0.00875233
1.04658
0.225931
0.160026
3.32843
0.189309
4.4355
3.55857
1.23854
0.18304
3.54868
0.115885
3.88028
0.174191
0.216987
3.85605
0.543264
1.20072
0.184373
0.192785
0.146188
0.201987
1.5327
2.01411
0.146569
3.42851
0.659497
3.61472
0.175478
4.42907
0.179224
0.175132
0.851029
0.128516
0.950212
3.97314
1.04726
0.121017
3.76726
1.41565
4.23767
1.13206
0.762525
0.0811547
0.9724
3.95531
0.142899
0.164721
0.163347
4.14805
0.215879
0.221234
1.38563
1.04025
0.391164
4.31968
1.46328
0.420571
0.42642
1.38149
0.249747
1.0119
0.15026
0.14142
0.153433
3.64463
0.187175
1.4916
3.65876
0.11059
1.08125
3.16576
0.142271
2.59084
0.151785
0.985975
0.225389
0.121521
0.198192
0.129384
0.117823
0.250754
0.252496
0.198053
0.751282
3.60462
1.04267
0.171674
0.974063
0.139641
0.161843
0.175717
0.161869
0.194743
1.57264
0.180557
2.29671
3.77242
1.56619
1.22268
3.79377
0.210766
3.33808
0.159822
2.2473
0.182093
0.161795
0.342628
2.76876
0.297329
0.161512
0.137861
0.381023
0.252719
1.54655
0.812088
2.04017
3.52329
0.159306
0.140306
4.5286
0.166538
0.183113
0.134179
0.297158
0.14495
0.124837
0.194948
0.206215
1.24634
3.81607
2.19124
0.261141
0.13642
1.08727
3.99656
3.44817
0.118241
0.172207
1.25268
0.150173
0.11723
0.241164
3.78451
0.949138
0.139518
0.171613
0.19904
0.123903
3.6613
0.226339
0.172825
0.175508
0.201288
3.51193
0.132767
1.54973
2.15747
0.221935
0.20645
0.144044
3.83581
0.525404
0.170141
4.22656
1.09465
1.08808
0.126643
0.176557
1.39878
4.45068
4.29518
0.0945053
1.11252
0.135289
0.117187
3.45427
3.4578
0.113161
0.00300482
1.19774
1.49042
0.140246
0.111761
3.64376
0.150672
3.69465
0.393906
0.254796
4.48143
0.130811
0.147571
0.269592
3.49054
0.147118
0.11822
0.152534
0.167001
0.382688
0.234183
0.927481
0.945638
0.899233
0.167895
0.153895
0.138661
0.544013
0.183044
0.1576
1.02462
0.21965
0.207858
4.03967
3.96903
0.168914
0.13241
0.264187
3.53512
0.166926
1.15958
0.111235
0.122166
0.0334155
0.183823
0.134005
4.05522
0.184021
0.127094
3.40907
0.146621
1.4254
0.166492
0.15057
4.19253
4.02898
0.115224
3.58303
0.144897
1.24171
3.15001e-05
3.91855
0.152989
2.18486
0.164273
3.83053
0.793632
1.52281
2.91583
3.81551
0.165315
4.20272
0.13714
0.144367
0.0708691
3.84555
0.576487
0.123722
1.03765
2.45962
3.4909
0.233387
4.36516
0.197822
0.222077
0.142122
0.673983
0.411343
1.60455
0.163172
0.223211
0.131232
0.226385
0.225733
3.85353
0.152873
0.122325
3.99223
0.790493
0.111874
0.32381
3.96957
0.162145
0.156028
4.05766
0.237003
3.96553
1.38921
0.159168
0.628332
1.09891
0.0304089
0.219652
0.151037
0.118442
0.232044
0.283512
3.87842
0.117553
1.61677
0.376999
0.182833
3.79257
2.14215
0.185831
0.172655
0.108611
0.161057
0.112966
1.99779
3.27671
0.151967
0.175777
0.180393
1.41189
0.238835
1.04206
0.196345
0.166929
0.175834
0.196358
2.18461
0.229974
1.09658
1.32219
0.000841341
1.50053
0.156206
1.14918
0.706825
0.159429
0.168995
0.260859
0.157062
0.21003
1.44422
3.98086
4.2473
3.51188
1.05648
0.0271242
0.112984
1.48366
0.121055
1.45649
4.07653
0.130954
2.55968
1.13094
2.42765
0.275932
0.119843
0.16448
0.141014
3.80511
0.152102
3.7579
1.66858
1.4302
0.137534
3.03859
1.36104
0.172691
0.16987
4.41483
0.208763
0.174806
0.919962
1.10768
0.159988
0.142119
2.78803
0.153784
1.28507
0.171339
0.176316
0.2257
3.45353
0.0294239
0.0411957
0.150771
0.149347
0.376294
0.160806
3.99173
0.508602
0.0465526
0.182495
0.137285
1.0714
0.34885
0.107925
1.57205
3.90632
0.200286
1.19346
0.165499
3.56662
0.986341
0.420204
0.32579
0.176703
0.149889
0.124093
1.18226
0.738602
0.122031
0.39645
1.63039
3.83869
2.20321
1.21355
0.298318
0.141003
2.91204
0.220921
0.150996
0.143336
0.232363
1.16768
4.29914
0.217302
1.14179
0.152236
1.03781
3.14436
3.91233
4.12719
3.85382
4.23222
0.277299
0.523651
0.196856
0.95741
1.55937
0.146432
0.869703
0.118523
3.07698
0.153697
1.47274
4.14591
3.99291
0.183229
1.34798
0.573997
4.35481
3.92476
0.111948
0.135712
0.172689
0.126248
0.167384
1.52123
0.272101
0.0199814
1.28093
0.123726
0.174609
0.88017
0.213538
0.167942
1.18458
4.472
0.590804
1.38775
0.149756
0.204918
0.176617
3.86439
1.27981
3.71383
0.173154
0.160785
0.216278
3.68396
0.614436