/*--------------------------------*- C++ -*----------------------------------*\
  =========                 |
  \\      /  F ield         | OpenFOAM: The Open Source CFD Toolbox
   \\    /   O peration     | Website:  https://openfoam.org
    \\  /    A nd           | Version:  10
     \\/     M anipulation  |
\*---------------------------------------------------------------------------*/
FoamFile
{
    format      ascii;
    class       volScalarField;
    location    "1900";
    object      nut;
}
// * * * * * * * * * * * * * * * * * * * * * * * * * * * * * * * * * * * * * //

dimensions      [0 2 -1 0 0 0 0];

internalField   nonuniform List<scalar> 
10435
(
0.539071
0.540265
0.634827
0.547619
0.574432
0.654302
0.623634
0.62154
0.698393
0.666437
0.549552
0.562636
0.67351
0.596717
0.56994
0.602116
0.627917
0.6879
0.756593
0.544105
0.607699
0.561872
0.607242
0.652382
0.645606
0.955106
0.949314
0.654703
0.883744
0.678221
0.597749
0.553708
0.639329
0.859813
0.615256
0.498391
0.596279
0.941728
0.917625
0.721171
0.682501
0.623339
0.572146
0.539594
0.588021
0.684317
0.67136
0.68946
0.723215
0.576763
0.613934
0.606928
0.886681
0.938216
0.92882
0.865181
0.599146
0.9159
0.709169
0.634078
0.897862
0.530751
0.895664
0.594402
0.596207
0.641803
0.751617
0.79981
0.612715
0.635665
0.947556
0.966937
0.452589
0.627783
0.549388
0.452566
0.615485
0.617904
0.659412
0.57486
0.587182
0.555036
0.853456
0.927755
0.592081
0.475661
0.49749
0.532561
0.471686
0.50813
0.536787
0.541476
0.556796
0.477739
0.517985
0.475884
0.545517
0.505298
0.670871
0.550429
0.486556
0.598608
0.486868
0.527224
0.611049
0.543125
0.560576
0.58256
0.603526
0.56448
0.57239
0.586895
0.555538
0.558614
0.548399
0.557271
0.553166
0.49256
0.535317
0.553247
0.555651
0.375302
0.507856
0.409904
0.565054
0.920002
0.549681
0.356779
0.561961
1.03343
0.374987
0.561405
0.604484
0.59159
0.968717
0.720252
0.483591
0.552372
0.530692
0.554892
0.549689
0.591158
0.791994
0.572428
0.5665
0.452361
0.450211
0.614638
0.591417
0.566654
0.740406
0.58464
0.520206
0.570798
0.634744
0.831465
0.570267
0.520341
0.652974
0.555015
0.575831
0.613255
0.546121
0.576356
0.538417
0.562382
0.644916
0.56069
0.582743
0.572962
0.635457
0.527316
0.877742
0.452539
0.570446
0.550842
0.516877
0.674174
0.569949
0.878731
0.544164
0.638684
0.561797
0.890539
0.583153
0.584271
0.466758
0.613069
0.585031
0.587697
0.557624
0.820382
1.01861
0.50971
0.578155
0.611229
0.532944
0.45922
0.670802
0.596976
0.501179
0.878314
0.664106
0.884306
0.65122
0.554569
0.539746
0.556991
0.871288
0.570991
0.707795
0.616526
0.561487
0.57356
0.91528
0.551431
0.534604
0.78026
0.964097
0.639711
0.887095
0.679366
0.803656
0.419444
0.909444
0.607834
0.935564
0.44837
0.597508
0.405616
0.730327
0.625064
0.946889
0.582771
1.02901
0.659752
0.608986
0.950567
0.602346
0.61631
0.534588
0.891438
0.728532
0.892799
0.550109
0.671594
0.449985
0.614482
0.74099
0.543569
0.825302
0.50477
0.675624
0.57417
0.615155
0.579658
0.705834
0.616997
0.770768
0.808082
0.620232
0.619009
0.927492
0.594246
0.532994
0.717838
0.527172
0.604529
0.833978
0.55759
0.625022
0.627453
0.616566
0.650281
0.988701
0.556492
0.991282
0.567432
0.606179
0.639445
0.668172
0.601151
0.631781
0.450286
0.508368
0.759568
0.595551
0.921346
0.916013
0.870652
0.425128
0.55843
0.855759
0.621132
0.929744
0.94134
0.479622
0.535072
0.561982
0.621052
0.743396
0.596356
0.638855
0.786132
0.557698
0.523052
0.631618
0.582005
0.630702
0.903844
0.564546
0.898257
0.529726
0.605878
0.662199
0.908152
0.858313
0.581206
0.77796
0.562793
0.625938
0.890147
0.513837
0.786886
0.655813
0.662446
1.02319
0.646665
0.761928
0.969356
0.668154
0.83393
0.892622
0.632332
0.572714
0.874422
0.873074
0.784414
0.857505
0.849783
1.03651
0.906503
0.868112
0.8846
0.857491
0.820499
0.843003
1.05342
0.753158
0.676249
0.877902
0.654742
0.939672
0.655353
0.674987
0.742642
0.67232
0.615548
0.918506
0.890828
0.818528
0.941075
0.837475
0.796495
0.891851
1.0367
0.834308
0.570258
1.01049
0.694842
0.934951
1.04393
0.673475
0.771137
0.71935
0.968275
0.926351
0.999147
0.90334
0.976311
1.14769
0.920629
0.64605
0.820533
0.618842
0.694577
0.663383
0.669973
0.715704
0.646351
0.637244
0.3989
0.618335
0.897204
0.917766
0.63911
0.913481
0.674541
1.11681
0.882029
1.04198
0.84305
0.816536
0.612924
0.967325
0.629633
0.582025
0.667463
1.00011
1.06457
0.762458
1.09394
1.01022
0.858576
0.848155
0.772751
0.876325
0.64296
0.939156
0.977159
0.877227
0.818122
0.675234
0.622801
0.685739
0.79802
0.881267
4.81162
4.83024
4.82791
4.81732
4.80973
4.8181
4.86205
4.97082
5.19124
4.27885
4.29314
4.29612
4.2922
4.2896
4.29915
4.33621
4.42213
4.58497
3.77134
3.782
3.78652
3.78574
3.78529
3.79379
3.82315
3.88918
4.01122
3.29434
3.30219
3.30659
3.30694
3.30707
3.31355
3.33558
3.38492
3.47534
2.8547
2.86048
2.86413
2.86467
2.86468
2.86904
2.88465
2.92022
2.98599
2.45893
2.46324
2.46608
2.46654
2.46631
2.46893
2.47937
2.5037
2.54892
2.11178
2.11516
2.11734
2.11773
2.11746
2.11902
2.12579
2.14164
2.17058
1.81578
1.81847
1.82004
1.82042
1.82037
1.82159
1.82626
1.83664
1.85463
1.57087
1.57242
1.57324
1.57363
1.57402
1.57545
1.57923
1.58667
1.5987
1.37336
1.37321
1.37323
1.37368
1.37463
1.37658
1.38018
1.3861
1.39486
1.21642
1.21486
1.21448
1.21521
1.21679
1.21929
1.22291
1.22784
1.23413
1.09204
1.09092
1.091
1.09227
1.09443
1.09734
1.10089
1.10496
1.10934
0.995478
0.996184
0.997307
0.999164
1.00166
1.00462
1.00782
1.01094
1.01353
0.924561
0.926726
0.928616
0.93067
0.933009
0.935525
0.93795
0.939864
0.940708
0.876697
0.878821
0.880534
0.882069
0.883616
0.885107
0.886254
0.886589
0.885548
0.847877
0.848374
0.848858
0.8491
0.849216
0.849121
0.848503
0.846813
0.843321
0.832595
0.831087
0.829686
0.828044
0.8262
0.824061
0.821303
0.817323
0.811209
0.826354
0.823227
0.819737
0.81584
0.81164
0.807092
0.801916
0.795543
0.787108
0.826533
0.822146
0.816533
0.81014
0.803266
0.795986
0.788117
0.779172
0.768386
0.831641
0.826133
0.81833
0.809218
0.799374
0.789054
0.778204
0.766445
0.753022
0.840894
0.834151
0.823939
0.811828
0.798705
0.785029
0.770919
0.756183
0.740303
0.854039
0.84562
0.832543
0.817047
0.800304
0.782949
0.765258
0.747241
0.728661
0.871467
0.860261
0.843512
0.824133
0.803421
0.782087
0.760492
0.738799
0.717051
0.894522
0.877815
0.856139
0.832366
0.807416
0.781933
0.756212
0.730446
0.704939
0.926013
0.897316
0.86939
0.841031
0.811785
0.782245
0.752434
0.722223
0.691966
3.3949
3.47867
3.56634
3.6574
3.75155
3.84827
3.94714
4.04753
4.14906
4.25108
4.35316
4.45486
4.55564
4.65521
4.75299
4.84865
4.94174
5.03183
5.11845
5.20123
5.27956
5.35298
5.42092
5.48281
5.53793
5.58585
5.62634
5.65952
5.6853
5.70345
5.71448
5.71904
5.71759
5.71095
5.70002
5.68586
5.66959
5.65234
5.63531
5.6197
5.60663
5.59715
5.59193
5.59137
5.59548
5.6037
5.61484
5.62733
5.63872
5.64636
5.64722
5.6382
5.61681
5.5807
5.52873
5.46035
5.37622
5.27755
5.16726
3.37075
3.45556
3.54379
3.63516
3.7293
3.82585
3.92436
4.02439
4.12546
4.2271
4.32886
4.43027
4.53091
4.63033
4.72811
4.82383
4.91706
5.00734
5.09423
5.17723
5.25586
5.32959
5.39792
5.46031
5.51622
5.56514
5.60665
5.64052
5.66673
5.68552
5.69734
5.70269
5.70214
5.69638
5.68625
5.67273
5.65692
5.63998
5.62312
5.60756
5.59445
5.58479
5.57935
5.57856
5.58244
5.59047
5.60152
5.61392
5.62536
5.63315
5.63431
5.62586
5.60505
5.56965
5.51821
5.45016
5.36591
5.26668
5.15492
3.3329
3.41546
3.50154
3.5909
3.68318
3.77802
3.875
3.97368
4.0736
4.1743
4.27534
4.37626
4.47662
4.57598
4.67391
4.76996
4.86369
4.95462
5.04229
5.12618
5.20578
5.28055
5.34995
5.41342
5.47041
5.52044
5.56313
5.59827
5.6258
5.6459
5.6589
5.6653
5.66566
5.6607
5.65124
5.63825
5.62281
5.60607
5.58927
5.57362
5.5603
5.55036
5.54459
5.5435
5.54715
5.55509
5.56628
5.57909
5.5913
5.60023
5.60294
5.59643
5.57793
5.54517
5.49661
5.4316
5.35043
5.25424
5.14541
3.27366
3.35363
3.43722
3.52419
3.61424
3.70702
3.80215
3.89921
3.99776
4.09738
4.19761
4.29802
4.39815
4.49757
4.59582
4.69243
4.78694
4.87886
4.96767
5.05283
5.13381
5.21002
5.2809
5.34589
5.40443
5.45604
5.50036
5.53715
5.56635
5.58806
5.60259
5.61037
5.61196
5.60806
5.59951
5.58725
5.57236
5.55601
5.53944
5.5239
5.51059
5.5006
5.49479
5.49371
5.49751
5.5058
5.51763
5.53142
5.54502
5.55578
5.56077
5.55694
5.54148
5.512
5.46686
5.40528
5.32742
5.2343
5.12826
3.19718
3.27422
3.35501
3.43936
3.52698
3.61758
3.71079
3.80622
3.90347
4.0021
4.10169
4.20179
4.30194
4.4017
4.50059
4.59812
4.69379
4.78708
4.87744
4.96431
5.04709
5.12519
5.19802
5.26498
5.32553
5.3792
5.42561
5.46454
5.49587
5.51969
5.53623
5.54588
5.54919
5.54684
5.53964
5.52855
5.51465
5.49914
5.48326
5.4683
5.45551
5.44603
5.44079
5.44042
5.44512
5.45461
5.46798
5.48372
5.49969
5.51326
5.52142
5.52108
5.5093
5.48357
5.44211
5.384
5.30932
5.21901
5.11536
3.10633
3.1801
3.25786
3.33941
3.42454
3.51295
3.60431
3.69825
3.79437
3.89227
3.9915
4.09162
4.19217
4.29266
4.3926
4.49149
4.58878
4.68391
4.77631
4.86536
4.95045
5.03096
5.10626
5.17576
5.23888
5.29516
5.34423
5.38584
5.41986
5.44633
5.46545
5.47758
5.48325
5.4831
5.47796
5.46878
5.45664
5.44274
5.42838
5.41489
5.40357
5.39562
5.39206
5.3936
5.40053
5.41263
5.42905
5.44831
5.46825
5.48616
5.49893
5.50331
5.49618
5.47486
5.43739
5.38275
5.31093
5.22282
5.12075
3.00544
3.0757
3.15025
3.22894
3.31157
3.39788
3.48756
3.58025
3.67555
3.77306
3.87233
3.9729
4.0743
4.17601
4.27751
4.37827
4.47771
4.57523
4.67021
4.76202
4.85001
4.93352
5.01193
5.08461
5.15096
5.21053
5.26295
5.30793
5.34536
5.37524
5.39774
5.41321
5.42215
5.42521
5.42319
5.41706
5.40791
5.39694
5.38552
5.37502
5.36681
5.36216
5.36221
5.36776
5.37921
5.39641
5.41852
5.44403
5.47067
5.49558
5.51541
5.52662
5.52579
5.50996
5.47697
5.42564
5.35593
5.26878
5.16667
2.89946
2.96599
3.03723
3.11305
3.19329
3.27769
3.36596
3.4577
3.55256
3.65012
3.7499
3.85141
3.95416
4.05761
4.16121
4.26438
4.36654
4.46703
4.56521
4.6604
4.75193
4.83914
4.92138
4.99801
5.06839
5.13207
5.18869
5.23799
5.2798
5.31413
5.34118
5.36123
5.37481
5.38256
5.38526
5.38398
5.37979
5.37386
5.36768
5.36267
5.36029
5.36196
5.36891
5.38213
5.40216
5.42884
5.46134
5.49794
5.53616
5.57283
5.60421
5.62623
5.63487
5.62666
5.59904
5.55064
5.48145
5.39269
5.2872
2.79653
2.85923
2.92717
3.00028
3.07834
3.16107
3.24816
3.3392
3.43391
3.53194
3.63262
3.73551
3.84007
3.9457
4.05188
4.15792
4.26328
4.36729
4.46916
4.56829
4.66405
4.75567
4.84262
4.92416
4.99949
5.06829
5.13019
5.185
5.23255
5.27291
5.30633
5.33304
5.35336
5.36806
5.37792
5.3844
5.38857
5.39103
5.39377
5.39834
5.40645
5.41962
5.43916
5.4666
5.50272
5.54718
5.59894
5.65532
5.71351
5.77058
5.8226
5.86432
5.89004
5.89499
5.87562
5.8297
5.75721
5.66024
5.5428
1.02463
0.997112
0.978191
0.962502
0.94815
0.934764
0.92282
0.913341
0.907802
0.908168
0.916859
0.936344
0.968942
1.01677
1.08217
1.16827
1.27794
1.41324
1.57538
1.76499
1.98251
2.22844
2.50371
2.81015
3.15125
0.972452
0.973763
0.966567
0.956047
0.944102
0.931851
0.920398
0.911072
0.905516
0.905733
0.914019
0.932798
0.964549
1.01181
1.07726
1.1637
1.27365
1.40908
1.57121
1.76072
1.97804
2.22371
2.49883
2.80554
3.14776
0.951632
0.956189
0.953483
0.946258
0.936388
0.925326
0.914475
0.905374
0.899787
0.899741
0.907496
0.925509
0.956415
1.00298
1.06802
1.15425
1.26398
1.39898
1.56033
1.74862
1.96413
2.20727
2.47893
2.78091
3.11625
0.937417
0.941852
0.940699
0.935226
0.926761
0.916649
0.906331
0.897417
0.891725
0.891299
0.898416
0.915585
0.945538
0.99116
1.05533
1.14071
1.24947
1.38315
1.54264
1.72831
1.94027
2.17872
2.44434
2.73861
3.06413
0.92457
0.928784
0.928384
0.923965
0.916455
0.907023
0.897064
0.888192
0.882244
0.881282
0.887613
0.903795
0.932625
0.977043
1.03994
1.12391
1.23099
1.3625
1.51911
1.70094
1.90786
2.13988
2.3975
2.682
2.99578
0.91184
0.916157
0.916455
0.912909
0.906156
0.897218
0.887442
0.878442
0.872066
0.8704
0.875787
0.890828
0.91836
0.961341
1.02264
1.10476
1.2096
1.33828
1.49119
1.66818
1.86889
2.09309
2.34109
2.61405
2.9142
0.898714
0.903694
0.905074
0.902532
0.896494
0.887919
0.878158
0.868856
0.861887
0.859358
0.863652
0.877412
0.903494
0.944858
1.00433
1.08433
1.18658
1.312
1.46071
1.63225
1.82596
2.04134
2.27848
2.53846
2.82345
0.884181
0.891433
0.894714
0.893465
0.888138
0.879791
0.869873
0.860118
0.85243
0.848912
0.852
0.864374
0.888899
0.928539
0.986092
1.06386
1.16344
1.2855
1.42991
1.59586
1.78235
1.9885
2.21409
2.4601
2.72855
0.86898
0.880426
0.886446
0.886625
0.881864
0.87353
0.863258
0.852967
0.844528
0.839965
0.841807
0.85275
0.875645
0.913538
0.96922
1.04488
1.14198
1.261
1.40151
1.56239
1.74223
1.93967
2.15395
2.3864
2.63768
0.672015
0.672028
0.396892
0.61912
1.04714
0.908856
3.61328
1.27668
0.391736
3.93915
0.282711
0.476626
0.941081
0.547379
3.25843
3.4891
0.32864
0.629966
5.961
1.85564
2.49719
4.52117
0.322408
0.29304
0.517748
1.41333
0.573131
0.613495
0.57099
0.31973
3.70696
1.65167
0.576536
1.1941
0.315232
1.91091
1.12041
3.2413
1.13853
0.673283
0.428695
0.165744
3.13016
0.649283
0.46493
5.43025
0.306613
0.343364
0.500224
0.643121
0.298653
0.415666
1.78073
0.635609
3.4647
0.401176
0.55436
2.17489
0.558354
0.38377
1.92711
0.405519
0.996549
4.20793
1.37736
0.731908
0.988372
0.407427
0.92177
0.580796
0.417263
5.00251
1.06669
2.0042
0.394343
2.48953
2.41612
0.366566
0.499036
0.64226
1.226
1.98935
1.75176
0.262337
1.3554
1.7339
1.33385
0.373218
0.568916
0.660337
0.371668
0.851937
5.61721
0.481057
1.01034
0.285888
1.35496
0.28266
0.31816
0.386325
0.716968
0.436873
0.717913
5.23432
0.563717
0.84088
0.334308
1.2969
0.167625
0.322902
4.31403
0.263137
0.358434
5.25437
1.89332
0.506555
0.485413
0.731616
1.21545
0.23872
0.0918688
0.266441
0.281767
0.502361
0.56209
2.89538
0.41877
2.11812
0.535956
0.344535
1.57989
2.04825
0.565658
1.33495
0.732819
1.25507
0.425577
0.707672
2.38828
1.76844
5.38383
0.982726
0.381479
0.115023
0.545156
3.67841
0.605322
2.55024
3.42642
0.312039
1.15351
0.9373
0.606986
4.24548
0.311556
0.263171
0.7569
0.735681
2.79962
1.50076
3.20448
0.406472
3.56302
0.288143
4.43854
0.275339
0.548976
0.530967
4.07714
0.750165
0.551529
4.39576
0.401441
0.267944
1.08134
0.812139
2.24683
0.573443
0.439355
5.33238
1.81895
1.56495
1.61727
2.21868
0.834519
0.564683
0.280327
0.161342
0.633169
3.11639
0.359001
0.384693
0.570804
0.901241
3.82863
0.620805
0.384511
4.40125
0.527223
0.618474
0.868184
4.71939
1.96584
3.08195
1.82856
2.40675
0.921862
0.70015
0.50607
0.826925
0.550314
0.408859
1.65933
1.81648
0.847763
0.408949
0.812661
0.834048
5.25519
0.691854
0.594335
0.190162
0.293965
0.423524
0.559592
0.464517
0.514054
0.33333
0.168002
1.0707
0.258462
2.01825
1.39985
0.796294
1.1129
3.32299
3.10409
0.592556
2.2009
4.40203
2.3987
1.81622
4.06851
0.75349
1.12803
1.68927
1.86592
0.615694
3.49311
3.05019
0.1627
0.832754
1.41774
0.515611
0.741133
0.537174
0.345111
2.50403
2.88403
5.7705
0.344368
0.557768
2.82876
0.318921
2.12285
0.479548
2.97637
0.584179
3.66762
0.576672
2.40936
0.570623
0.365302
0.723271
6.30216
0.580539
0.829245
0.367724
0.557227
0.381925
0.747925
1.03881
0.378345
5.42942
0.435331
2.5514
0.841959
0.629037
0.320103
0.355499
4.30799
3.72157
0.103614
0.320818
0.916356
0.417495
0.42651
0.940471
1.42391
0.413727
0.387527
3.34642
0.378782
3.11475
0.443408
3.76772
2.54006
1.32375
1.76347
2.18606
5.07611
5.69218
0.603732
0.521124
0.328783
0.801235
0.321689
1.35731
0.561806
0.866826
2.80561
2.73299
0.32651
3.72787
1.37992
0.515586
0.4879
1.34915
0.980468
2.15417
4.40971
3.71976
0.583504
3.8007
0.388191
1.75506
2.36143
1.87662
0.0937655
0.359742
0.394335
0.506257
0.399937
5.71352
2.17451
0.785723
0.755855
0.757511
1.11582
0.28924
0.581302
5.46712
0.172434
2.92623
0.32543
0.536272
0.692314
0.624751
3.89953
0.293406
0.514201
0.306839
2.30502
0.468741
0.169519
1.1636
4.07454
0.336765
2.77953
0.645336
5.54128
4.1943
0.587997
0.461449
0.948762
0.391333
0.257288
5.27074
1.16444
3.2653
0.434563
4.14111
0.565168
0.650042
0.630775
0.808172
4.64075
1.87705
0.285074
0.358157
3.18434
2.52687
0.670848
0.57404
1.94166
4.90454
3.6885
0.583321
0.728714
0.570504
1.33213
3.33773
1.2798
0.668971
0.511442
0.105548
3.31401
0.649991
0.572199
2.35082
0.588817
2.7374
0.411808
2.32288
2.36698
0.377562
0.480846
0.29001
0.789988
0.836996
4.66665
1.21706
0.606112
0.702141
4.22138
0.372567
0.0622395
0.376834
1.59391
1.77841
3.02534
0.567445
0.689883
0.501209
4.17586
4.00571
4.35717
0.0546264
0.82478
0.226418
1.71774
4.39488
0.332442
0.591057
0.920674
0.47041
0.606576
0.544606
0.537037
0.494098
0.464982
2.99861
3.48249
0.419991
5.69729
0.59024
0.287371
1.97031
0.343719
2.29056
3.81486
0.856703
0.588885
1.61666
0.380559
1.20876
0.680663
0.417125
1.82882
0.290287
0.650418
1.07919
0.307628
0.249184
0.540458
1.07494
0.755577
0.803245
2.59251
2.55187
0.991603
1.46272
0.132968
0.489012
0.261407
1.20165
2.28986
5.02283
0.632579
5.20795
3.74382
3.61154
0.268734
0.58154
2.69741
0.658177
3.62739
2.70223
4.7832
0.639858
3.20557
4.20086
2.60015
0.716191
2.16348
1.31252
3.01944
3.14207
3.43719
1.69427
4.34592
1.36073
1.06725
0.758814
0.491075
0.335871
0.461598
0.470856
0.353128
2.67975
6.07022
0.356526
1.84182
0.550246
1.12912
5.25829
0.374946
0.463303
2.17395
4.61446
0.797613
5.29655
0.555444
0.484763
0.229165
0.583834
3.41984
0.437099
0.521499
3.71667
0.889454
0.321656
4.3904
0.345992
0.200948
0.428834
2.97993
0.576484
2.77211
0.363481
1.27049
1.6235
0.534257
0.516936
0.477436
0.329752
0.302016
5.79597
1.00413
0.493098
1.48389
1.44891
3.46672
1.00118
0.314808
4.67438
2.52875
0.536517
1.74628
0.374649
0.587349
5.2463
2.5841
0.680184
0.897255
0.361144
0.298761
0.493675
0.602528
0.380874
1.84866
1.58595
4.66044
6.03048
1.25981
0.58446
4.30428
0.875213
0.645861
4.69951
0.8783
1.35539
4.15363
3.96447
5.6921
0.552632
1.11387
0.466504
1.12915
1.67572
0.400344
0.595167
0.192779
0.355486
2.14891
0.786656
2.47701
1.65482
0.61517
2.76908
3.34297
1.29006
1.70059
4.04545
0.808426
2.02145
0.540541
0.776725
0.438153
4.49415
1.12609
2.72298
5.78147
1.07491
0.52423
0.388735
0.306954
0.615798
0.597761
0.517611
0.532335
0.964567
0.348929
3.72429
0.241975
2.15245
0.501686
0.279005
0.852058
3.57086
2.40341
0.53244
0.718019
4.22403
0.947447
1.24666
0.311729
0.585464
0.39095
3.9914
2.97867
0.24752
4.2308
0.156924
5.27573
1.8457
0.300468
5.9301
2.54542
2.38112
0.480205
0.647247
0.276399
0.101918
1.03592
1.10174
0.463751
0.540162
0.741713
1.72555
0.523381
6.28886
1.24089
0.388173
0.157214
2.20045
1.50915
1.88438
5.52016
2.55579
0.356496
1.92405
0.290795
1.72446
2.77206
0.529426
5.1199
0.54789
0.360485
1.76386
3.22167
0.701239
0.290852
1.31664
5.76841
3.08392
1.16043
0.623995
2.56702
4.53043
0.563919
0.374638
0.8567
5.0776
5.23472
0.368692
3.43866
0.818682
0.351378
3.54578
0.640038
0.313448
6.27973
0.797658
1.13291
0.127077
3.48067
0.732292
3.46694
1.96446
0.985167
6.13996
1.92191
0.38223
3.10531
1.31961
1.53197
0.705904
1.44345
0.447216
6.04698
0.440554
3.70442
0.57255
2.53777
0.450103
0.316875
0.558922
0.640482
3.33394
0.118667
0.344304
3.3152
0.849502
0.663244
5.8481
2.66229
0.58786
0.521123
1.48059
2.54127
0.300384
0.446682
2.23089
3.87974
4.07158
1.42537
0.454665
0.052847
2.88964
0.467628
0.156029
0.675756
0.57338
0.315378
4.08455
0.544575
4.10901
0.23439
0.137949
0.782502
0.893854
0.710778
1.40196
3.12706
0.447741
3.29185
0.666712
3.33297
3.3688
0.453064
0.654655
0.391916
3.36484
4.47556
0.579517
4.33024
1.83876
1.29532
5.93636
5.53938
2.47604
0.794916
0.174277
5.26005
0.293162
0.453561
2.84617
2.34463
2.60607
0.921645
3.59649
0.457068
1.52776
0.539298
5.65303
0.3212
0.275314
1.24235
0.415171
0.625527
0.396919
1.31823
1.66977
0.630777
0.91105
0.427488
0.577531
5.27669
1.31034
0.370561
0.610651
0.666686
4.18145
1.45114
0.314139
2.57476
1.25023
3.23697
1.02967
0.656447
2.84969
0.17252
0.301026
0.683971
6.16272
2.9414
0.498211
6.00254
2.17261
0.236669
2.49124
1.16614
0.266137
0.890981
4.94645
5.79697
4.54764
0.864035
2.26034
0.380386
1.12349
1.94
3.24808
2.78561
1.80251
0.422243
0.245975
0.928308
3.41396
0.0139428
0.445992
0.629651
0.257472
0.922706
2.12389
3.7589
0.0693933
2.75178
3.2642
0.548366
0.533336
2.53593
0.385785
0.371357
0.302066
5.85789
0.611291
2.34689
5.58455
3.38654
2.06222
0.619195
2.20863
2.59424
0.68625
2.52084
0.449227
0.147819
0.222346
0.618481
0.553663
3.09731
3.55089
0.604561
0.759808
5.9557
0.342869
0.350094
0.314493
0.956936
2.02266
0.663499
1.06137
0.604083
2.65802
0.448683
0.997917
0.540456
1.00629
0.573078
3.82497
2.15406
0.667559
0.102593
0.680702
5.93452
0.416173
0.604419
0.453577
0.520978
5.0022
0.601477
2.60177
0.587082
0.666636
2.26
2.37204
2.93743
2.76049
0.257676
2.64449
0.293734
0.196344
0.421684
5.50185
3.18599
6.12611
1.77661
1.11972
0.484552
0.489108
0.600201
2.42323
1.5546
0.598679
4.19741
1.7462
0.74634
1.24817
0.502273
0.241619
0.414146
4.27747
3.35585
4.48387
1.86433
0.501759
0.794587
0.70378
3.22661
3.36877
0.660279
0.49435
1.43675
5.05041
0.643866
0.779587
2.21453
0.970707
0.291647
0.428365
1.84765
0.496929
3.61145
0.279016
1.95864
0.238631
0.548163
0.89909
0.652219
0.378473
3.65437
0.302449
0.961305
0.569416
0.507516
3.0625
0.455407
0.431125
3.72849
3.93957
0.498059
0.287201
2.91536
1.60018
0.435231
3.59259
0.41382
2.03261
0.308855
0.324761
0.178863
0.295204
2.80928
0.530845
1.30551
1.1953
0.789736
2.28962
3.4015
0.218908
5.96658
2.1533
1.55583
5.82498
0.274681
0.374372
3.8311
0.347398
4.08978
3.36518
3.98295
0.801141
0.300965
0.251439
5.72218
1.13258
0.484965
4.4141
0.662124
0.479173
0.508539
0.640966
1.27598
0.529271
3.07508
0.418598
4.15148
6.03516
0.745966
4.34046
0.908209
0.540139
0.361155
0.637904
2.5191
1.46275
4.27652
0.51552
0.776375
2.34884
3.44354
0.596872
0.302779
0.296403
2.39439
2.57537
0.818555
0.463997
4.98257
0.434488
0.481072
0.352288
0.600839
0.506944
0.609531
0.741016
4.4907
3.96957
0.342628
0.624033
6.2036
0.613873
1.15781
1.41721
0.981547
2.70309
1.7927
0.170161
1.8876
2.20981
1.26419
4.21314
0.53303
0.27073
2.12291
0.697025
5.12143
0.564612
0.645093
0.815039
0.384934
1.32069
5.79829
1.18874
2.40494
1.69599
4.15384
2.19985
1.22731
0.179082
0.571503
2.11296
0.46616
2.86022
6.06046
0.78436
2.08503
0.471902
0.450264
3.91709
5.47894
2.71952
1.03766
0.629935
0.583551
0.59745
0.28219
4.2862
0.213926
0.697196
0.672222
0.527363
0.151447
0.6848
0.427318
0.130043
1.53272
0.524039
5.49403
0.417659
1.40289
3.04222
3.47395
2.51873
5.61994
1.69404
2.03541
1.04305
0.328813
0.594352
0.488371
0.686436
0.80961
0.60797
1.74632
0.450286
1.81102
1.48808
0.324985
0.214006
0.790329
3.04331
2.39919
0.247577
0.55632
0.441902
0.763456
4.1715
0.640632
0.306758
0.426493
0.295161
0.236024
0.335302
0.286367
0.71613
0.842526
0.367443
0.337359
0.441606
2.99292
0.452725
5.59272
0.264522
1.0194
2.81827
0.456297
3.60513
0.660211
0.575395
2.13241
1.47516
0.685818
5.0253
0.694054
0.52793
0.525738
5.10113
0.270931
0.3482
3.29728
0.475176
0.296237
0.535464
0.275241
0.483716
1.14545
3.58624
0.513926
0.440955
1.5907
2.17606
3.1898
3.78591
2.10896
5.566
2.54583
1.69317
1.02083
5.9746
4.15361
0.658144
2.10967
0.538241
0.324958
1.85629
2.21692
2.89913
0.856356
4.90464
0.172922
0.299322
5.56082
0.268184
0.290742
5.21345
2.70867
0.189734
0.889302
1.98436
0.447975
2.15047
2.56183
5.37954
3.10288
2.65015
2.9466
0.598668
5.41569
0.574903
0.631589
2.33481
0.109058
2.8224
0.59527
1.80947
0.61074
0.537227
1.07284
0.447467
0.394171
0.253572
0.457642
3.9656
0.388314
0.637007
6.25396
0.973915
3.33715
0.363661
1.45179
0.760146
3.27903
3.7339
0.563477
0.563331
0.442252
4.90359
1.81895
6.03583
0.461961
1.6996
0.583905
3.10675
2.014
0.252407
1.16848
1.72355
2.57111
0.506648
0.307204
4.23007
0.654282
3.76166
0.683828
1.54273
3.7355
4.88333
2.06902
0.592109
5.90145
0.82009
0.512226
0.656367
0.941491
0.555578
0.44002
6.0019
2.3293
0.587066
5.65275
0.879998
2.44285
2.17136
3.3823
0.639984
0.362483
0.530075
1.97377
0.39176
1.15052
4.91019
0.838111
4.42885
2.54853
0.11207
3.14252
0.568185
2.19844
0.56865
0.277007
3.06424
0.732098
4.18038
0.435866
0.939755
5.47995
2.93244
0.538392
0.282302
4.52768
5.46159
0.668694
0.502312
0.578675
4.08321
0.863731
0.984189
0.372464
2.34502
0.584773
0.80326
0.535114
0.624533
0.594948
0.911186
1.28712
1.95045
0.446597
2.3278
0.670496
2.97769
0.610889
1.58751
2.08395
0.828827
0.684631
0.534968
0.244914
0.52766
0.298709
0.282794
4.4941
2.59576
0.879167
1.88713
0.527129
0.724082
0.556601
4.54504
4.76005
4.03311
0.459357
0.430888
5.92886
4.27644
0.458915
4.96714
0.454123
0.357366
0.414269
0.395402
2.23112
0.502082
5.13033
1.31175
1.05338
0.26272
0.539264
0.398634
1.90472
0.588068
0.879742
2.3391
0.994884
2.00171
0.668449
0.496626
0.468855
6.17609
0.372095
2.54039
0.426461
3.13254
0.482753
0.665451
0.386852
5.13925
2.19761
1.52856
5.3365
5.38437
1.79903
5.61746
0.589834
0.52721
5.51577
0.726521
1.72172
0.26923
0.555673
0.339158
0.984855
0.523633
0.796819
0.770675
1.35036
0.422854
0.510424
0.712747
5.5067
0.657079
4.65187
0.772892
4.70312
0.871567
5.44278
1.40466
0.578775
1.84852
5.46456
0.486248
3.49809
3.72397
0.335224
0.6369
2.21396
0.495022
0.555403
3.47407
0.508366
4.9941
2.89875
5.05738
4.97292
2.36845
1.3677
0.448053
0.665456
4.52599
0.540034
0.579691
2.10412
4.04166
1.98227
4.98736
4.08726
0.179069
3.32689
0.535909
2.12051
5.54163
4.96811
0.620139
2.5524
0.484867
0.585193
0.178329
0.474737
4.85217
0.412624
0.469169
0.563174
6.26851
0.0613422
1.71634
0.72181
4.93886
0.345892
2.9835
0.329154
0.753137
0.837604
0.423324
5.8393
0.575351
0.935421
4.23304
2.71539
0.375155
3.68406
1.22728
5.33629
3.7811
5.18589
2.60496
0.552344
0.443904
4.24071
4.23059
0.455359
4.14394
4.61365
0.253354
0.614946
0.740216
1.21421
1.0733
4.77486
2.58846
1.05153
0.0392357
0.619955
5.37046
0.371704
1.59167
1.42042
0.826789
0.821823
2.75259
0.366104
2.05909
0.403602
0.399529
0.110879
1.7341
5.27964
4.16179
0.500093
3.6109
0.481217
0.504723
1.10764
5.19911
0.307561
0.944605
0.426775
0.812767
0.603813
0.53343
0.782695
2.79722
3.84673
0.786888
0.512575
5.18353
3.82595
0.576148
5.30914
0.685028
0.846693
0.530219
0.504279
0.474842
4.1704
1.29627
0.272075
5.95548
2.16673
0.392793
2.50851
1.05181
0.677609
3.48617
0.566249
1.78071
1.23327
0.275235
2.52178
0.404964
1.5781
0.622747
0.852829
0.51605
0.502844
0.280933
3.348
2.28737
0.558825
0.436451
1.53308
0.445261
0.722644
3.46889
0.680589
2.52351
0.64158
5.06543
2.73493
0.3815
1.29544
0.614039
0.512833
0.447345
3.27091
0.364489
5.49545
0.277238
2.63085
2.51022
4.5393
0.467257
3.57179
3.67078
0.21107
0.692255
0.64762
0.730032
0.200234
0.583806
2.41978
2.94031
2.47333
1.24628
2.69627
1.32129
4.30488
3.66831
4.21795
0.277184
0.600423
0.568029
4.06735
2.37691
0.527691
4.88442
0.326129
2.89662
0.414327
4.089
0.411404
0.521299
0.276459
0.550474
1.70481
1.50375
0.777793
0.561756
4.02152
2.65013
0.592533
0.642334
2.9346
2.18338
0.602329
1.13069
1.4285
0.249311
0.69047
1.46763
2.57377
5.13645
0.281285
3.18982
0.546431
0.850577
0.64664
2.7197
2.28114
0.389776
0.46215
0.973196
3.36527
0.618302
2.41713
1.07458
0.626924
0.413352
2.76751
2.16699
2.52571
4.23392
0.558553
0.527782
0.523865
4.3436
2.14863
0.86794
0.465142
4.88569
4.25919
0.365764
0.699469
0.513985
1.09831
0.424194
1.36612
1.04351
0.454779
2.55675
0.578887
0.86654
2.65562
3.37994
0.49131
0.430916
0.28001
2.0959
4.35284
6.30373
0.368426
0.451106
0.433337
0.126321
3.085
4.13147
2.22827
0.905555
0.436876
2.57239
0.508037
0.40637
0.667781
0.590223
4.58824
4.00346
0.579214
0.685316
1.6067
1.2989
0.951653
5.64847
1.6163
0.836436
2.23147
1.83429
2.83224
5.29747
5.30335
1.72522
0.166597
3.97088
2.51684
2.37896
0.819108
0.931287
0.556034
0.600026
1.12467
0.434098
0.567793
0.341364
1.47117
2.69985
0.213352
6.00598
0.12323
4.11993
5.20222
0.375777
4.64978
1.0018
0.515137
1.81059
3.55721
2.87722
2.71626
0.617846
0.570556
0.99893
0.452837
2.79702
2.90609
0.00358701
0.66647
0.719952
0.598983
3.04746
0.450834
0.69225
2.40459
0.281746
0.328003
0.670105
0.491948
0.249082
0.39771
0.296941
0.435189
0.26282
0.70015
2.38228
0.26601
0.620279
5.1923
0.479434
0.514127
4.45608
1.83188
2.12714
0.308122
4.48664
3.48098
0.783177
3.73398
0.230646
4.86687
0.667133
2.29754
5.62719
0.349376
2.37151
0.853576
0.610566
0.398555
5.3899
4.06076
0.446115
4.8321
0.495295
3.36976
2.72174
0.85467
2.02404
0.175679
4.86799
1.80605
1.02754
4.85851
0.609009
0.575329
1.20117
1.48995
0.551
0.599521
0.429161
0.572045
0.561787
1.36361
0.466092
0.835352
0.97196
0.859094
0.633812
2.42094
2.93767
3.60742
2.85922
0.750655
1.79324
1.38099
0.595428
5.58879
5.49771
0.590381
0.671128
1.75693
3.15308
0.0280723
3.56743
5.68313
2.68599
2.27095
2.71416
2.69963
0.844197
0.797466
4.59902
3.05295
0.451233
0.607382
0.451537
2.32153
0.0951401
0.957201
2.84137
1.46956
4.0674
0.376119
4.80853
0.270114
2.5939
0.25953
0.594003
1.33201
3.12807
2.06596
0.670891
2.04155
0.51874
0.323585
0.290467
0.50381
0.290267
3.21811
2.86858
0.275307
0.572978
4.61967
2.8037
2.9017
2.47649
0.80355
0.265045
0.283447
2.11127
3.03741
5.62244
3.50038
5.31914
0.499679
0.114047
0.176519
2.33772
1.99721
0.584027
0.770855
0.399074
0.745774
0.16695
4.50849
0.24632
2.41922
0.624015
0.570702
4.15575
0.416233
0.60719
2.78161
1.55213
0.430756
2.48852
0.366705
0.569929
2.79654
0.591027
0.940765
1.24357
1.05361
3.34088
0.540404
2.61539
0.562841
0.794183
2.35295
0.958885
5.89612
0.312751
0.610599
2.52262
1.1518
4.45447
1.95423
0.429951
4.74009
2.6289
5.77135
2.52972
0.3794
0.404829
0.55394
0.410704
0.577756
0.554033
0.235377
0.637586
2.52462
3.94987
0.761706
2.42396
1.03409
0.296466
4.10077
2.61428
0.514951
0.39371
0.59259
3.22857
0.58391
0.594066
0.423857
0.466506
0.419789
1.1277
4.7852
1.15819
3.10243
0.487535
0.102358
3.01737
0.998629
0.671639
0.714073
4.29827
5.63396
2.76283
0.487216
0.580921
3.28022
1.37353
0.923083
1.41619
0.440714
2.81491
0.493813
2.61621
2.51463
4.77701
0.430089
0.595686
2.49059
3.23242
0.410007
0.663057
0.509989
1.28154
0.134405
0.193536
0.693294
0.580933
3.10766
5.57559
0.436436
4.02578
2.19439
0.285902
1.92531
2.9271
3.23247
0.492532
4.23388
5.24982
0.272874
6.14829
1.85793
3.28054
0.246042
2.38229
4.3594
3.44737
0.930847
6.04061
2.52019
0.55761
2.64792
5.36909
0.471084
3.86493
0.256696
3.84236
0.501593
2.57521
0.375325
0.585326
5.94193
0.634778
3.40641
2.86962
2.01205
0.586472
0.296035
0.728124
2.61193
0.292719
0.288414
2.24137
0.270224
0.878537
0.360116
0.488263
0.611777
0.867304
4.9814
1.33396
0.811491
2.00048
0.993729
0.608509
2.52581
0.743921
0.353502
0.300722
2.51444
0.502937
0.488034
0.206459
1.5933