/*--------------------------------*- C++ -*----------------------------------*\
  =========                 |
  \\      /  F ield         | OpenFOAM: The Open Source CFD Toolbox
   \\    /   O peration     | Website:  https://openfoam.org
    \\  /    A nd           | Version:  10
     \\/     M anipulation  |
\*---------------------------------------------------------------------------*/
FoamFile
{
    format      ascii;
    class       volScalarField;
    location    "1900";
    object      p;
}
// * * * * * * * * * * * * * * * * * * * * * * * * * * * * * * * * * * * * * //

dimensions      [0 2 -2 0 0 0 0];

internalField   nonuniform List<scalar> 
10435
(
-0.00209775
-3.33822
-11.9221
-4.85168
-10.2396
-12.7096
-11.8235
-12.0685
-12.5522
-11.517
-5.73366
-8.59731
-11.3355
3.58056
3.35287
-11.8023
3.6866
-11.2968
-12.5488
-0.770275
-11.5706
-4.12949
-11.504
-10.0754
-12.3224
3.72435
3.76023
-11.423
3.28372
-12.2943
-11.769
-6.80478
-12.1283
3.59445
-11.5189
0.0476382
-11.4012
2.70191
4.14199
-11.5144
-13.1541
-10.951
4.11419
-2.97334
-11.4738
-10.9787
-12.2613
3.87106
-12.6723
-3.86897
-11.9052
-11.8103
3.71806
3.03798
4.36147
3.05389
-11.0451
3.44675
3.67623
-11.1897
3.84971
-2.1747
3.61586
-11.164
-11.6142
-11.7033
3.67642
3.62252
-11.825
-9.17127
3.53222
3.18037
4.57165
-11.5913
3.00072
4.08969
-8.10399
-11.6947
-12.4964
3.03218
-5.60991
0.812377
3.8286
3.33282
-6.47745
1.03213
0.316286
-3.51849
2.53567
-0.61578
-4.52967
-5.6696
0.102815
1.86012
-1.54972
1.04231
-6.45075
3.23259
3.94818
-8.03237
2.49401
-11.7016
1.15256
-2.5197
-11.9088
-3.92541
-0.6301
-4.68613
-7.31968
2.62285
-3.04739
-10.9839
1.5038
2.04702
-7.21634
-3.26444
-8.56091
0.118969
-4.08648
-7.74548
-8.77797
4.44978
-0.885968
2.99451
-8.54812
3.81198
-7.13061
4.14335
-9.65408
2.82204
3.71908
-7.40226
-11.8201
3.34161
3.33177
4.22846
1.26908
-5.62038
-2.99043
-2.40434
-1.57885
-11.583
3.75117
-10.7545
-4.91884
3.65308
2.27408
-11.8345
3.82057
-9.86923
3.76753
-11.0281
-0.316577
-10.6033
-11.9998
3.75031
-9.51882
-1.91415
-11.944
-4.93379
-11.008
3.57779
-6.27757
-7.361
2.61114
-9.85355
-12.1191
-7.11088
-9.11304
-10.7288
-11.5481
3.77499
2.9362
3.31124
-9.64119
-3.6129
-1.04724
3.74158
-2.1852
3.59168
-4.52839
-12.0096
-9.66709
3.6291
-10.8522
4.27039
3.55091
-11.624
-11.2506
-11.143
-8.93685
3.87853
3.64868
0.184159
-10.3577
-11.7375
4.07661
1.84137
3.83938
-11.5976
2.88878
4.1383
-11.4418
3.51776
-11.6181
-8.19473
-5.2483
-6.39742
3.45106
-5.73513
4.15564
-12.0029
-9.65119
-8.27249
4.00502
3.68501
1.98155
3.88709
2.39746
3.73501
3.53446
3.5191
3.82229
3.1579
3.52752
-11.6591
2.64063
2.52948
-11.5017
3.81902
3.77091
-11.8637
2.54472
-10.6248
2.93649
3.84835
-10.5441
3.04087
-9.84951
-11.7325
-2.06981
3.76617
3.85373
3.02447
-7.57204
-12.5086
1.99317
-11.8307
1.69346
-2.31165
1.41817
1.91595
-11.8554
-6.55082
-11.7347
-10.8933
0.855743
-11.604
3.70816
3.61606
-11.0688
-11.8665
3.28291
-8.22251
1.44936
4.03054
-1.17711
-11.4018
4.1383
-8.87428
-11.4047
-11.8438
-11.349
-11.0829
2.23442
-8.19704
3.52315
-9.70239
-11.4031
-12.1804
-12.1991
3.72166
-11.4941
2.70777
1.30154
4.28611
-11.1643
2.9333
3.40669
3.34258
2.89639
-6.22781
3.3183
-11.874
3.24988
0.725316
3.81548
0.752176
-8.83184
-12.0279
3.75339
-9.13543
-11.3821
1.46367
-8.00489
3.45862
4.05923
-10.1222
-12.0321
3.44954
-1.41453
3.23063
-1.04315
-12.0327
-11.9854
0.694457
3.94558
-10.9844
3.71452
-7.81495
-12.445
2.95817
0.536528
4.0068
-12.5333
-11.7773
1.7749
-11.2472
3.83363
3.40579
-11.7003
3.38628
3.45398
-11.7429
-10.2391
3.50208
3.20134
2.6849
3.65795
2.8929
1.2142
3.75252
4.05131
1.41108
0.709015
3.1419
3.56032
4.22559
4.11988
-12.6078
3.55384
-12.3612
1.35577
-11.1878
-12.7894
-13.6816
-11.1826
-11.374
3.03602
3.51772
2.71848
4.07447
2.92275
3.70301
3.21115
0.893964
3.40735
-9.12907
3.57528
-12.687
4.02882
0.608195
-10.8734
-14.021
4.19543
0.0338477
3.01124
3.29189
3.48982
3.47252
-0.892597
3.11014
-12.1588
3.65047
-11.8997
-13.339
-11.0523
-10.9929
-13.529
-11.2779
-11.7229
3.58706
3.889
3.32537
3.64514
-11.8387
3.36147
-11.8657
0.443331
3.35838
-0.597074
3.8743
3.63621
-12.1962
2.8191
-12.0191
-9.62906
4.03346
3.36893
1.42976
-12.4457
1.28462
3.57153
3.30044
2.95461
3.86617
3.63141
-11.6074
1.60112
2.99869
3.30271
3.98977
-12.2593
4.08906
4.36534
-13.4155
3.68468
17.9121
10.4745
12.4174
10.6122
11.2103
10.5982
10.6563
10.4943
9.92928
15.7511
9.55971
11.1028
9.85241
10.2006
9.82062
9.84271
9.72152
9.63112
13.7377
8.58128
9.99697
9.18717
9.4056
9.179
9.17865
9.09786
8.99971
12.2065
7.9452
9.09518
8.56961
8.72478
8.60035
8.60544
8.56816
8.49043
10.8399
7.47723
8.34143
8.02453
8.1489
8.09835
8.12275
8.13189
8.07798
9.62499
7.11184
7.71941
7.56221
7.67009
7.67196
7.71476
7.75222
7.7454
8.61737
6.86749
7.22011
7.17982
7.27739
7.31761
7.3791
7.44343
7.48378
7.82693
6.71948
6.82608
6.86516
6.95577
7.02248
7.09799
7.18153
7.19397
7.19356
6.50544
6.49402
6.59788
6.68973
6.77525
6.86127
6.9509
7.01869
6.62206
6.15421
6.19951
6.36552
6.46712
6.56617
6.66119
6.75889
6.83728
6.18187
5.84791
5.97825
6.17442
6.28282
6.38735
6.48708
6.58779
6.69153
5.99919
5.71638
5.86485
6.03024
6.13157
6.22994
6.32483
6.41507
6.54689
5.92077
5.69948
5.81626
5.91887
6.005
6.09274
6.18444
6.28334
6.38541
5.80325
5.70366
5.78413
5.82039
5.88868
5.96161
6.04387
6.13617
6.2069
5.72339
5.6963
5.74635
5.72208
5.77524
5.83588
5.9133
6.00327
6.09271
5.63252
5.62718
5.67732
5.61072
5.65467
5.70551
5.77661
5.85799
5.95166
5.43408
5.43234
5.54203
5.47466
5.52091
5.56766
5.6338
5.70482
5.80804
5.21774
5.16759
5.36793
5.32167
5.37726
5.42636
5.49453
5.57095
5.68124
5.05799
4.93625
5.18949
5.16317
5.22572
5.27587
5.3409
5.41394
5.49414
4.9173
4.75269
5.01551
5.00515
5.07006
5.11966
5.17913
5.24464
5.31483
4.74421
4.59716
4.84343
4.85085
4.91462
4.96433
5.02231
5.09122
5.15211
4.49653
4.46821
4.66851
4.69845
4.75539
4.8005
4.85087
4.91161
4.9055
4.13725
4.42508
4.51068
4.56532
4.6114
4.64908
4.69316
4.73958
4.71442
3.72368
4.4574
4.30625
4.37177
4.4052
4.43815
4.49301
4.53903
4.50281
3.55786
4.75444
4.46478
4.52268
4.51897
4.47853
4.51739
4.56097
4.18555
13.5836
13.8782
14.3978
14.9526
15.5486
16.1924
16.87
17.5803
18.3154
19.0625
19.8136
20.5588
21.2816
21.9784
22.6393
23.2504
23.8094
24.3071
24.7334
25.0847
25.3569
25.569
25.8179
25.9941
25.8107
25.4736
25.352
25.597
26.1294
26.649
27.1558
27.6531
27.9253
28.0236
28.0545
28.0095
27.8824
27.6999
27.4636
27.1934
26.8946
26.5733
26.2271
25.8617
25.4778
25.0623
24.622
24.1578
23.6591
23.1435
22.6192
22.0918
21.5763
21.0808
20.6069
20.1784
19.7759
19.398
19.1993
5.2163
5.05518
5.01848
4.96668
4.89572
4.81934
4.75853
4.71906
4.70329
4.71379
4.7525
4.81982
4.91498
5.0362
5.18162
5.3496
5.53871
5.74997
5.98689
6.25606
6.56856
6.93883
7.38998
7.91552
8.54428
9.17796
9.56657
9.62306
9.32259
8.80755
8.34831
8.0235
7.7775
7.58433
7.43831
7.32205
7.22341
7.13613
7.05581
6.98088
6.91109
6.84763
6.79374
6.75346
6.73188
6.73589
6.77227
6.85139
6.96044
7.07224
7.20063
7.37226
7.5861
7.82994
8.09922
8.40489
8.72608
9.0477
9.52878
8.74827
8.99041
9.22187
9.46524
9.71836
9.9817
10.2546
10.5365
10.8261
11.1215
11.4213
11.7234
12.0259
12.3262
12.6228
12.9144
13.1999
13.4796
13.7548
14.0269
14.2989
14.5727
14.8492
15.1185
15.3614
15.5613
15.7035
15.7977
15.8373
15.8057
15.7464
15.6837
15.6113
15.5348
15.4587
15.3831
15.3075
15.2316
15.1554
15.0787
15.002
14.9252
14.849
14.7733
14.6987
14.6257
14.5542
14.4839
14.4147
14.3461
14.2781
14.2049
14.1227
14.0295
13.9142
13.788
13.6657
13.5597
13.4235
6.23133
6.22777
6.29319
6.35839
6.42925
6.50944
6.59974
6.702
6.81776
6.94842
7.09548
7.25999
7.44225
7.64262
7.8604
8.0947
8.34417
8.60681
8.88103
9.1644
9.45459
9.74794
10.0397
10.3219
10.5832
10.8081
10.9784
11.0845
11.1249
11.1078
11.0522
10.9721
10.8743
10.7641
10.6448
10.5188
10.3877
10.2533
10.1185
9.98631
9.86025
9.74379
9.64092
9.55482
9.48882
9.44498
9.42452
9.4278
9.45343
9.49957
9.56553
9.64928
9.74817
9.85872
9.98152
10.11
10.2357
10.3735
10.5605
7.25587
7.40198
7.56318
7.7308
7.90516
8.08573
8.27145
8.4618
8.65604
8.85325
9.05306
9.25501
9.45829
9.66305
9.86862
10.0749
10.2817
10.4882
10.6944
10.8997
11.1028
11.3021
11.4945
11.6765
11.8424
11.9878
12.107
12.1982
12.2601
12.2939
12.3048
12.2965
12.2734
12.2393
12.1964
12.1484
12.097
12.043
11.9904
11.9409
11.896
11.8575
11.8265
11.8035
11.7891
11.7825
11.7827
11.7884
11.7973
11.8076
11.8174
11.8245
11.8276
11.8254
11.8276
11.8236
11.8116
11.8208
11.8141
6.36497
6.40718
6.4919
6.58182
6.67957
6.7869
6.90432
7.03212
7.17082
7.32009
7.48108
7.65347
7.8374
8.03239
8.23738
8.45113
8.67215
8.89611
9.12349
9.3517
9.57886
9.80038
10.0123
10.2127
10.3921
10.5504
10.6803
10.7829
10.856
10.9
10.9196
10.9133
10.8875
10.8468
10.7886
10.7223
10.647
10.5583
10.4693
10.3803
10.2956
10.2183
10.1511
10.0971
10.0594
10.036
10.0295
10.0377
10.06
10.0957
10.1435
10.2008
10.2656
10.3357
10.4078
10.4933
10.584
10.674
10.7779
6.53769
6.62433
6.7359
6.855
6.98153
7.116
7.25647
7.40437
7.55892
7.71756
7.88136
8.04904
8.22228
8.39956
8.57942
8.76227
8.95089
9.13305
9.31841
9.50104
9.68484
9.86139
10.0286
10.1942
10.335
10.4678
10.5749
10.6691
10.7437
10.7961
10.8384
10.8523
10.8527
10.849
10.8202
10.7962
10.7676
10.7117
10.6724
10.6319
10.5963
10.5669
10.544
10.5297
10.5322
10.5367
10.5568
10.5818
10.6142
10.6518
10.6921
10.7338
10.7743
10.8139
10.8515
10.8926
10.933
10.9859
11.0317
6.2835
6.31729
6.38174
6.46072
6.54089
6.64096
6.73959
6.86826
7.0013
7.11352
7.26099
7.40715
7.57053
7.74933
7.92922
8.12933
8.34341
8.49833
8.67817
8.86228
9.06454
9.24848
9.41309
9.60791
9.73164
9.87501
9.96411
10.0602
10.1365
10.1893
10.253
10.2553
10.2582
10.2819
10.2259
10.2344
10.2657
10.1423
10.0803
10.0158
9.96139
9.91307
9.86997
9.83575
9.87514
9.86289
9.91871
9.94261
9.95438
9.98637
10.0432
10.1257
10.1947
10.2684
10.3536
10.4497
10.5473
10.6787
10.7706
6.05897
6.14793
6.21601
6.3342
6.44287
6.57803
6.67629
6.759
6.90863
7.1305
7.19265
7.34132
7.53203
7.67362
7.87674
7.96003
8.1841
8.35294
8.54329
8.67033
8.85888
9.00433
9.13944
9.32995
9.41306
9.55503
9.61612
9.7118
9.83158
9.80201
9.96461
9.96393
9.91937
9.99325
9.92639
9.99555
9.90861
9.76187
9.86949
9.82266
9.79434
9.80432
9.74597
9.73453
9.75054
9.71363
9.7291
9.70882
9.82219
9.89704
9.93025
9.96714
10.0194
10.1228
10.2202
10.2832
10.361
10.2337
10.4068
0.623612
0.460237
0.554752
0.729172
0.996939
1.34336
1.68228
2.00802
2.31825
2.56057
2.77838
3.03307
3.26376
3.49485
3.86202
4.35244
4.87303
5.42929
6.06778
6.81693
7.68472
8.68747
9.87503
11.372
12.711
3.87249
3.92399
3.86015
3.75755
3.66426
3.6721
3.77184
3.92021
4.06519
4.12031
4.05847
3.93828
3.82045
3.75269
3.80157
3.9441
4.05182
4.11756
4.23216
4.42232
4.66493
4.94205
5.25518
5.63974
5.90262
3.1395
3.15839
3.18561
3.21301
3.26422
3.3611
3.48724
3.61816
3.73124
3.79067
3.79792
3.77982
3.76005
3.76523
3.83586
3.97275
4.1446
4.35236
4.61878
4.95526
5.36513
5.85365
6.42992
7.10603
7.92822
3.41381
3.41063
3.44464
3.4718
3.5113
3.5697
3.64323
3.72021
3.78942
3.83697
3.86185
3.8744
3.88738
3.91397
3.96926
4.05664
4.17044
4.31367
4.49537
4.7199
4.98666
5.29035
5.62105
5.95334
6.29987
3.44804
3.43633
3.46818
3.49837
3.5422
3.59628
3.65949
3.72261
3.78036
3.82603
3.85927
3.8861
3.91468
3.95311
4.01128
4.09482
4.20611
4.35011
4.53358
4.76109
5.03734
5.36548
5.75259
6.19806
6.76408
3.51722
3.50977
3.54107
3.5674
3.60818
3.65303
3.70618
3.75736
3.80634
3.84888
3.88389
3.91564
3.95015
3.99132
4.04638
4.12069
4.2184
4.34445
4.5037
4.6981
4.93127
5.20102
5.50836
5.83512
6.22547
3.5971
3.55748
3.59345
3.61287
3.65203
3.6893
3.7382
3.78183
3.82633
3.86753
3.90215
3.93507
3.97264
4.01455
4.06786
4.138
4.2294
4.34775
4.4977
4.67952
4.90135
5.16076
5.46871
5.80707
6.24113
3.66771
3.58926
3.64095
3.65264
3.69354
3.72357
3.77281
3.80919
3.84977
3.89012
3.92178
3.95259
3.99315
4.03481
4.08554
4.15166
4.23654
4.34574
4.48298
4.64632
4.85212
5.08921
5.38282
5.71937
6.11825
3.66275
3.61445
3.69596
3.69136
3.73341
3.74353
3.79863
3.82206
3.873
3.91233
3.94471
3.96869
4.00628
4.04265
4.09123
4.1512
4.22811
4.32821
4.47682
4.63215
4.81387
5.04596
5.28516
5.41789
5.65883
-13.8612
-12.7411
-1.68401
8.27577
4.18596
4.12876
-1.61015
4.97372
-3.16894
9.47951
-11.3881
5.44792
-16.7601
3.38114
-6.97245
6.91906
-8.96019
8.11015
9.51531
-18.2864
-17.6893
7.83976
-11.1217
8.52239
4.92955
6.56678
4.89669
3.72613
-11.3102
-10.3332
8.71292
7.89385
-13.0188
-12.9931
-10.575
4.60709
-2.82748
-6.42611
-4.92329
8.84679
-11.8391
8.9505
7.42619
3.73357
5.61562
9.08849
-11.1891
-9.98082
-10.6087
-12.8871
-11.1857
-11.6287
-16.8946
8.42683
-1.54534
-2.95658
3.34318
-17.7339
4.03321
-9.2626
4.80246
-0.893587
4.21106
6.98
4.91675
3.84487
7.44378
7.44289
-15.4293
-12.0035
-3.44358
8.19114
4.33057
-16.3276
4.64224
-18.3227
-14.4179
-11.0569
3.79003
8.94193
-12.9152
4.99979
5.41047
-9.11292
4.37984
4.84178
4.20368
-11.2323
-13.1144
6.29406
7.06277
6.6402
9.80423
5.51622
4.21333
-11.2406
6.41746
-10.9021
8.74436
-9.34019
3.92598
-12.3371
3.92883
7.7559
4.10577
3.96291
-11.1816
-13.7224
6.39753
-10.0375
6.89857
5.85795
-10.544
7.81137
-17.304
-10.488
-12.466
9.08028
-16.4463
5.93664
7.22078
5.77445
8.85376
5.07302
-12.9233
7.43999
-11.7834
-18.2521
3.40528
-10.2212
5.69735
-16.4446
-11.5125
-9.42105
3.67754
4.25458
5.63431
4.03102
5.24687
-17.4497
7.12637
-3.40191
-9.84038
7.27115
-10.9139
6.43558
6.57131
-15.0467
5.53737
-10.788
1.70869
2.93112
6.22094
-7.37354
5.0732
-9.94449
4.25317
9.09448
-12.2195
9.96063
8.01348
-3.54028
6.0834
-10.9242
9.21121
-9.02572
3.29421
4.67446
7.82994
4.30063
3.39129
7.15103
7.08818
-9.25808
6.8677
3.79534
-12.3884
-11.477
-10.0631
8.68679
-10.8639
8.37698
-16.544
-10.0984
4.183
10.0134
-9.32088
6.33839
-13.3619
6.05421
-9.89866
-10.0538
-6.4067
-2.33761
-7.1034
-13.0749
4.66414
7.79145
-10.6049
-11.0852
-15.3319
7.55178
5.17381
5.7768
2.01236
9.43622
7.73383
3.98928
-11.0572
9.12475
4.12655
5.67948
-10.9514
1.92366
1.48168
-11.4885
4.09661
10.2915
9.74214
5.33671
3.88032
9.04773
5.18823
-0.165963
10.7135
-12.2834
7.20013
-8.72896
6.36473
4.28915
-9.70798
4.76883
8.18082
5.82106
-4.35539
9.31638
-11.6585
3.74025
-10.2295
-6.44179
8.31708
4.66027
9.21789
3.80611
4.33958
4.64366
7.33097
4.10907
6.52128
9.52534
6.48137
3.86872
8.21432
-11.059
7.04789
4.48779
-10.3339
-13.9469
-12.1984
10.559
6.61744
3.3667
5.50765
4.94117
-15.9879
5.19326
9.96445
5.63577
-2.17445
4.68506
-15.4938
-7.02684
8.46946
10.3539
9.86619
5.34221
7.72929
-4.73624
3.22948
-11.3977
4.02371
1.64367
8.304
8.86571
-9.76851
5.71446
3.87638
10.0112
-11.5334
-9.79608
-4.07725
6.25721
8.35794
-11.5512
-12.0786
-11.6304
-11.0576
6.73283
9.78254
-10.3328
-10.7409
7.7634
10.0098
5.92839
-10.8566
9.60277
-18.1268
7.40614
-17.7939
5.17038
7.60777
8.93399
-13.164
3.5197
8.37571
-2.11313
-11.1825
8.31634
4.94926
-9.20844
-12.5691
6.38331
10.0577
8.75027
4.41905
5.2216
-12.7463
-13.7195
6.91108
-17.055
9.06006
-7.3178
3.88922
9.31077
-11.6038
4.77041
5.07052
5.73362
6.40175
7.08217
5.70776
5.3365
-10.187
8.33862
-15.8607
4.12948
4.05511
8.64879
4.44247
-10.0954
-1.2511
9.84017
7.69308
-12.2353
-11.57
10.7441
-8.10287
3.3755
9.16159
-9.15541
-11.1932
-11.1574
10.0162
-12.549
9.14424
4.29357
7.06474
-11.5524
5.29559
-13.0885
9.24186
-7.74323
-11.2455
-7.77557
-15.6796
5.43253
5.63591
9.52544
10.1416
9.03048
-10.9723
6.29074
-12.7333
3.56932
3.61761
-10.394
9.36613
-18.1931
-11.6548
-9.71454
0.525755
9.71526
5.03545
-11.395
-10.4442
10.0032
9.39779
-12.8531
9.3296
-10.9025
4.88697
7.36048
4.27399
-12.9472
5.22058
10.0856
-2.76532
5.0258
1.33228
7.99419
-10.5805
5.17185
-10.1327
5.06272
6.29376
10.6902
-10.4824
-9.91036
9.99706
6.77852
8.79235
9.9106
6.21168
3.86855
8.14593
-10.9084
6.45414
9.58288
7.42127
7.87529
5.11291
4.47698
6.08114
3.85086
-2.7291
7.35733
6.58727
8.29467
8.59823
10.6052
9.9133
-6.39332
-11.7935
2.40236
-15.4345
3.41137
3.82912
-6.71121
4.10315
3.76648
-7.90557
8.45486
5.84264
-10.3956
9.33332
-12.0323
-8.93953
5.09661
7.15377
-16.1751
6.03795
3.51949
-10.7404
-11.2991
-10.9498
4.45496
4.13237
-0.086019
9.90848
-11.2209
3.90538
4.40557
-11.032
10.6467
5.10609
-14.2798
5.81973
4.33969
-14.5106
-14.6979
1.35546
-5.92967
9.57855
5.35756
-9.60504
4.32057
5.03557
8.6934
-12.4602
7.8807
-8.49719
6.48212
5.49776
-11.3235
5.25847
4.03872
-7.77663
5.1563
9.87866
-13.1623
7.60079
-3.52732
5.42865
3.79901
-12.9933
-12.5438
6.35581
5.97206
-2.67105
6.87653
8.30674
-11.8982
7.01278
6.13703
10.0713
-11.5513
-11.208
-10.2425
5.39602
0.996626
9.34311
-10.0998
-18.1869
6.51741
-12.9141
8.95732
-11.0849
-12.432
9.41484
7.8961
3.87858
7.81511
4.08665
-4.68403
5.92429
1.83431
6.56082
-10.4733
-10.6418
6.24566
-9.90208
-10.071
7.13056
-11.3705
7.68252
0.716229
5.97543
3.86059
5.15364
-5.14316
-4.33805
-6.21489
3.43104
-10.9585
-10.3512
-11.0507
5.07161
9.2785
-16.1766
-11.5977
7.0282
-10.1768
6.49333
-14.9283
-10.1959
9.68607
1.16179
3.97728
8.12968
5.57675
-13.265
9.30774
-7.2677
4.14988
4.12913
-10.3567
-10.191
-11.3455
3.84218
5.62617
-16.3048
-17.4903
7.30976
9.4072
5.15051
-12.7853
7.97408
4.12704
-4.75701
8.57051
4.14827
4.30552
6.96444
-8.7111
9.30654
3.94652
-13.7421
-10.6178
4.17137
8.60309
-10.0485
3.74678
9.29031
9.84756
-17.7065
7.3359
5.35308
8.21429
10.3119
8.33142
7.99367
-4.86889
4.76425
7.81494
3.93294
-16.3498
10.4687
4.04042
1.43117
7.25104
4.56127
6.04716
8.99112
2.72897
4.88153
-9.50608
-9.27278
3.69557
-12.634
4.5465
4.59488
4.35875
9.81207
6.62
5.96243
-15.2811
6.90279
5.32505
2.99969
-9.75471
0.95287
3.50255
3.84407
7.57656
4.23133
9.99717
6.84919
2.15871
-9.68135
-8.46354
-12.1661
10.4511
9.46672
7.5804
9.19367
8.2694
-10.2006
11.1475
-18.0717
9.26804
-11.2971
9.487
-11.1474
7.42023
4.44225
5.1449
-11.9871
-6.78456
3.79202
-17.3144
4.82355
9.97257
4.4845
-10.6925
9.4269
6.16621
-8.91362
4.68872
9.25507
9.0778
8.55838
-15.8796
10.0417
5.61761
10.0145
3.45167
9.33166
-10.6809
-11.4614
7.45812
-3.41808
9.97198
-11.3628
5.46388
9.40365
9.33247
6.27668
-4.714
6.25609
8.45625
4.08107
7.81948
6.95505
8.03654
8.912
-9.24407
-8.76322
1.86451
-10.4833
-5.1018
-12.4983
-10.6685
10.3504
4.26731
4.47827
10.0773
6.07013
3.54426
6.71386
4.86005
-15.8977
8.71006
7.70034
4.4986
8.82445
7.19898
4.79156
1.99386
-12.934
-11.7581
9.62085
-10.7098
-0.447531
-11.5987
-17.5371
-12.0106
-11.7427
4.58769
10.3463
6.44857
9.42962
8.46604
5.8304
-12.3221
-12.3571
8.65232
-12.9554
2.36702
10.4653
4.83525
5.31826
-9.08031
1.31797
4.95078
-1.11798
-8.49413
-15.5233
-11.3789
10.093
9.94611
4.64231
9.60111
-11.2111
0.875541
-11.3373
-7.96034
4.37357
-8.64873
6.19362
10.2355
4.04658
4.12211
4.06612
10.0927
6.74214
3.49032
5.93536
5.81477
7.69096
5.67096
5.35049
9.37536
-10.8355
-5.12562
7.93186
-0.546226
6.85262
-16.9092
4.44489
10.3357
8.45693
-14.804
1.65808
9.72244
6.92867
-10.4762
1.34186
-13.3347
5.58114
-14.3324
-12.938
-10.3525
2.99692
-9.04836
3.04594
8.92842
-11.3885
8.69745
4.8765
6.09392
-13.5024
-1.85977
7.82745
4.33557
-12.6244
4.41584
0.373717
-9.85538
8.75135
8.15889
-4.64988
-11.5892
-13.2976
9.52616
10.1678
9.72354
-14.5168
-3.8552
8.73975
4.63112
4.09032
-12.4386
10.6383
4.8536
-12.6875
9.96103
5.62769
4.63397
9.66649
-14.1292
5.95627
-15.2804
9.20507
5.45355
-12.872
7.9738
9.20124
9.55731
3.84068
-14.9395
-11.313
10.0646
9.51859
5.63676
-7.95012
-16.894
-0.613425
6.07725
-13.9307
-6.31193
6.54452
4.39163
3.98831
-9.84363
9.43261
-14.9346
6.78892
6.564
-9.59415
6.38566
6.06652
2.51735
-15.7004
-10.6522
-9.47196
-9.60413
9.44214
-12.7843
-8.10555
8.74273
-1.70711
4.51896
4.0346
-16.4873
5.52285
5.52067
-17.1403
1.66785
10.748
10.697
-13.306
3.14545
6.60003
-9.83111
-11.3726
-10.5848
8.91879
6.08057
-10.0997
-10.9639
-11.7573
-14.9766
-12.904
2.68034
9.9365
0.755567
-10.1466
8.05833
7.84071
2.86802
-9.20085
6.86416
-0.354122
-12.7996
7.53683
4.07653
9.24805
-9.55687
-3.29158
-10.9447
-10.4845
8.92393
3.71892
1.27472
5.81223
-11.7462
-17.4267
9.77314
5.71922
5.50878
10.4101
-13.8789
-11.4465
6.07511
-10.5048
8.06484
-11.4964
9.09597
4.57331
5.07067
-5.30894
-11.4747
3.60867
-14.9895
6.89485
7.13503
-3.95976
7.47973
-7.90089
-9.59858
-10.0784
5.91242
8.18688
-3.31636
6.33965
7.60505
4.84591
-10.5409
7.26089
3.85465
-11.4436
-3.35277
4.1197
6.18606
7.51662
7.78667
4.09774
8.37716
-16.0908
9.60175
5.99136
-10.3261
-17.357
-6.15148
6.1892
6.46819
0.340666
10.6392
-10.5954
4.14187
4.00199
-10.4816
6.31822
5.34515
2.71399
4.59424
-11.0215
9.37716
8.56023
9.41367
-1.73333
-1.64455
-12.4332
5.19218
-13.1038
7.16015
6.73245
6.53175
-10.4168
-10.4946
7.98498
-9.58002
10.6439
-10.2665
5.89022
-10.8313
4.36266
4.63106
7.91211
-0.676086
-5.78012
6.02374
9.12733
-16.4901
10.0881
8.82566
5.3175
9.36354
5.92723
-10.3975
7.00337
6.11266
-9.03516
3.88064
-9.66176
10.4264
7.97999
7.81721
10.7721
7.75375
4.04966
-12.2789
10.564
3.47289
10.0542
5.75717
0.683431
-10.3267
8.94933
9.27649
6.67548
7.60838
10.179
7.4976
-10.0485
8.87124
-16.7203
6.74607
-4.20651
-10.9778
3.85081
-15.8284
6.55135
-11.937
-11.0849
-9.80765
5.14745
5.49207
3.76984
-11.2129
7.9676
0.665004
7.61885
4.79493
-11.1763
4.04035
8.76918
4.02448
9.6883
8.93463
10.7919
-11.6697
10.3969
-13.5557
9.14726
8.02217
9.57416
9.08354
-15.5653
10.6657
-16.4981
-12.0295
4.38165
7.48748
-10.8923
-10.6961
10.0683
10.0322
8.3833
7.10701
8.81748
3.86553
-11.0603
6.08707
9.99059
-15.6162
5.05702
2.01311
-5.20471
9.24545
4.28689
9.65247
3.87846
-11.3782
2.27609
-13.4765
8.70308
3.89768
7.87605
-12.5465
-12.7513
9.02793
9.96557
-12.9592
9.21129
4.084
-10.5698
-11.3972
10.554
9.5589
10.6497
3.755
-12.2954
5.03454
10.7462
-12.5018
-10.3912
10.2117
8.59492
4.67242
10.0236
5.59797
-16.2444
5.16601
-10.7506
5.25288
8.95373
4.59095
-15.523
7.94088
-11.5901
-10.6766
-9.88556
-12.5198
-11.6825
8.44458
7.36473
-12.2048
-14.9577
5.41633
9.32887
6.05394
3.90317
8.46541
4.97333
5.77552
-8.68953
4.41644
3.83512
-4.81137
4.01372
6.05886
6.23218
-9.87135
10.4056
-11.709
-11.0952
4.01128
8.44679
6.08652
7.77235
6.1239
-12.4095
1.7231
8.97855
5.48666
8.59172
-10.4202
-12.461
6.97206
6.61675
4.39832
9.9975
4.35851
3.78684
9.57875
4.00287
2.92848
-11.1915
9.49213
7.18417
-6.74166
5.97017
5.02703
7.37777
3.17922
5.98762
8.21125
-16.3818
6.47552
5.5077
-10.6336
4.30462
0.386115
-5.29206
9.49454
5.35065
8.9323
-8.1354
6.98278
-14.4915
9.5087
-4.72501
-12.9783
-17.8866
-11.2935
10.4095
4.83986
-15.9336
-12.5867
3.96201
7.75738
10.7256
-11.3037
8.89975
7.07641
10.5898
8.63613
0.474115
10.7005
4.15943
10.0187
-11.0922
-16.6258
8.87423
9.46032
8.47777
8.55262
5.61804
-11.5515
9.33029
1.57154
-13.3207
-16.8628
9.65469
-12.8365
-10.9879
-17.4191
-11.7383
3.00406
-12.0991
-11.8767
-9.93363
10.1842
-10.5443
10.0155
-3.96298
9.83338
9.30577
-14.1987
-8.54111
-10.8184
-12.0558
3.87664
8.09833
-1.43433
-12.218
9.93516
-12.4439
7.83848
-17.5262
9.31222
-11.0421
1.93023
4.11859
5.83221
-17.7311
5.6392
2.68585
-17.1786
9.1302
-10.6771
6.248
8.17392
-7.86051
-1.00752
6.40416
-15.9527
-6.76135
9.22373
-14.0703
9.53372
9.22166
3.86621
4.47761
-12.5406
-13.7489
10.3729
-12.7778
8.43626
-16.4579
9.64218
8.90101
7.96434
-17.3807
0.0210123
-10.2356
7.32095
-10.2341
5.01161
-14.1826
-12.0542
1.75022
8.17214
-11.7273
7.45415
6.73581
9.25616
-11.5812
-12.3725
4.88492
-12.9693
6.87444
5.86013
-1.96321
6.92305
5.64632
-14.446
8.89653
9.63086
10.3999
5.77569
8.10508
9.59155
-13.0714
-11.4352
6.16189
9.5909
6.4593
-13.5571
-11.0667
5.10325
3.30363
3.95172
-13.2197
3.25386
-0.288736
-14.8234
4.76667
-14.9099
-12.1651
4.95979
5.43631
9.67423
9.19474
4.48297
7.06142
4.04684
3.82106
-12.0271
7.79864
-12.6559
5.2158
-11.688
8.64212
-9.65424
1.76038
-15.9952
-11.11
4.08883
2.02895
7.18627
7.47651
7.05065
-10.803
-10.4283
9.25336
9.59885
5.89434
7.80749
5.63952
6.41478
-12.2019
-10.2748
-16.0118
-12.5417
8.61297
4.53338
-13.0351
8.98061
-11.2354
9.63159
4.93031
4.10594
6.94759
5.09245
7.03372
4.89356
2.08586
-12.3154
-11.3155
9.94406
5.64287
-14.618
-4.09265
5.74045
-10.762
-12.2923
-9.91067
7.70003
-16.9336
5.61942
8.80009
9.08248
4.71912
10.0494
-10.8128
-11.5775
8.58281
3.88188
-17.1958
6.55642
-12.2969
-9.61722
7.17581
3.56339
8.72204
3.94929
-12.0922
4.55441
-11.1804
4.05019
9.0249
3.95824
8.6627
3.71803
8.36556
7.34102
9.30759
4.38503
6.55659
-14.0621
9.12567
-8.94641
6.32035
6.69856
8.49924
3.98947
5.94762
-6.15099
-12.0271
6.30881
-11.7218
9.62554
-12.4926
8.14565
8.19172
5.00001
4.48263
-10.8017
7.70751
7.00126
-4.21905
-9.90565
7.83485
9.58591
9.67264
7.90093
-2.76139
6.07667
6.17181
-13.3608
5.09316
9.50895
7.22014
-12.7315
6.40873
-11.4788
-11.5762
10.7731
2.25404
7.87541
9.63724
-12.65
6.65051
9.28617
8.55268
-15.9277
3.95949
8.01416
4.94903
-5.26054
-9.32222
4.0361
5.90721
-10.2622
9.31421
-1.62294
-12.0493
7.6663
0.361504
-11.1334
9.03406
-12.5976
9.42606
6.62242
8.69519
5.11696
-8.03113
-10.0096
8.11224
9.56508
-11.7434
7.44767
7.9787
10.1537
3.35193
-2.34986
4.66685
4.26396
9.68213
6.51435
4.45027
7.03413
3.9797
8.73304
-9.49801
-15.5036
4.34359
-12.6895
4.02279
-13.6606
-10.9423
-14.9734
-10.1031
10.6983
9.28104
-15.2162
8.33183
8.6887
-10.6255
6.44654
3.41496
-11.4967
-16.1975
8.01819
-9.74404
4.31103
-10.9984
4.0907
10.1231
-4.41549
3.84435
-13.4345
6.77775
10.0733
3.59922
6.88636
-7.15566
1.55352
8.51487
-12.0209
3.81073
-11.8479
4.00146
-12.5784
7.52149
9.47763
5.90917
9.76325
-16.305
-9.54747
-14.5984
4.20906
-12.8872
-10.6212
10.1449
-17.3589
1.01577
10.2184
-16.2131
-10.6741
7.57914
4.04871
4.15161
-12.5633
5.45771
10.5742
-11.1277
-14.4396
3.59595
-12.1663
-11.8437
5.81222
3.89553
-2.18119
3.98527
-15.5665
4.06594
9.41143
5.23293
-10.0523
4.37618
-0.279272
-11.7427
4.85757
0.082859
-7.48246
9.34255
-11.1538
9.45726
-16.5334
7.66326
5.32894
6.50925
9.31558
6.06519
6.71409
9.51651
4.08121
10.6733
-12.1394
-14.4792
5.77649
-17.1505
4.39289
5.3764
7.58333
8.3748
6.60246
-5.99102
10.6049
-3.45487
-12.1887
-4.90347
-14.601
10.3121
7.70547
-11.7522
8.87339
3.79984
7.2664
5.48365
6.21149
-9.95337
8.98259
9.56971
4.59539
3.93299
3.83038
-4.24051
0.784488
-1.42012
-12.7645
5.68674
5.07785
4.83994
7.26098
4.59984
5.78186
3.92455
5.40798
8.27927
8.22615
10.6039
-1.22247
-12.1385
-11.808
4.0043
8.95161
-0.406247
-9.9313
-10.7848
4.27885
5.81303
3.29372
9.71656
4.76432
3.99232
-10.4148
0.325382
4.9166
6.38298
6.88702
4.19978
-11.7131
4.82783
7.86181
5.25464
7.03828
-11.0568
9.70858
-7.1696
10.7573
4.05743
4.37277
9.3652
-10.873
1.73458
7.74916
-12.2881
-14.0512
2.68646
10.3038
6.95612
-10.1257
-12.7645
-12.3947
5.85909
-16.964
9.41702
10.5361
-9.86626
-10.7464
5.00845
6.18603
-0.744208
-3.19189
8.92664
4.47028
-10.6871
5.1328
10.6475
7.44053
8.97831
4.90812
9.90077
9.68572
9.56814
-12.3051
8.16495
4.56601
4.16352
8.83887
2.32097
4.06391
-16.5461
0.296261
0.631871
9.08692
8.78227
7.65255
10.7392
7.18801
5.15087
-14.6584
9.4011
4.091
9.98253
0.0652768
6.60327
4.43756
9.74713
-11.7767
4.54798
-13.9315
7.79047
10.558
8.96318
7.44583
9.46576
-11.0022
8.00036
4.1491
8.27625
8.61096
-10.4309
5.70842
9.44393
-12.7674
-12.6213
4.68518
-10.9761
9.69795
-12.5529
10.1078
-12.9773
10.3454
-2.56548
5.6549
-11.3282
3.85023
-9.64102
-9.72624
-10.2001
3.06609
-12.5873
5.63071
4.66932
5.90634
-11.2347
9.55431
4.21349
-16.549
-10.4506
-11.7128
8.61774
-12.5693
4.43459
7.04128
4.85268
1.33745
9.8607
-4.86848
8.20291
6.77259
9.41327
10.6466
7.93078
-13.3874
9.54258
9.63855
-10.5466
1.01031
4.40128
5.95365
-10.2736
8.55978
8.93489
-11.7865
8.13731
-4.72169
-2.36094
8.91288
3.95602
-17.9883
6.21575
7.91924
10.048
4.82364
8.22928
6.65264
-12.4209
4.5109
-11.3308
3.53469
3.99131
-10.7875
1.25201
3.1513
9.41916
4.65698
6.57141
4.53501
-14.2061
-11.4369
9.66367
7.65533
6.06779
-10.1364
4.03674
-0.0853613
4.46524
4.00394
8.73194
9.27651
-1.78224
4.00578
-14.235
-11.3903
9.80518
-8.58922
10.0738
-13.8099
1.345
4.96401
8.20032
4.03076
8.11954
6.98417
-9.70897
-7.43002
-12.737
-10.7514
-16.6361
8.53057
4.57621
-3.46774
4.63614
-1.78214
-12.2678
9.33823
-10.2266
-14.6514
-9.58884
9.31007
4.42264
5.72926
8.84267
-12.6553
10.0446
-11.917
9.04128
10.5345
4.09227
-10.4751
-10.8551
5.97444
10.6087
10.2699
7.94233
7.62938
0.647772
-15.3786
7.87184
5.46517
-11.1826
9.60725
-12.0619
9.02889
6.06176
8.8127
-10.9648
8.79873
6.2028
9.66639
9.88321
3.72125
6.8709
-10.5726
3.88378
6.27561
7.5032
5.73521
-15.9024
5.62462
4.49386
-5.79429
-11.1625
3.97768
-13.2265
9.5069
-10.5407
-16.5233
9.15905
3.76292
7.35723
6.57998
4.22879
-15.2411
1.16327
8.18372
5.53455
-6.84915
-8.45572
-8.82555
-14.5523
2.51471
9.35909
-11.1627
3.98588
5.14562
5.56002
8.27575
-15.9543
-12.0921
7.35555
-13.5089
8.57157
-14.9513
-4.04375
-10.3896
-12.6001
-10.3134
2.80509
3.75343
10.082
3.99495
-16.6892
-4.68449
10.3529
0.734387
4.30281
-11.1572
9.26537
-3.44963
-7.4711
-10.2792
3.97889
-11.1237
3.46522
-12.647
-11.095
10.0807
4.52753
7.55648
9.78887
6.57404
-4.07034
9.97009
6.94915
-11.9923
4.2638
3.02951
3.88002
7.28457
9.33317
-13.4784
-12.6486
3.48071
-10.4018
5.72635
9.08371
7.5045
-11.3336
-12.9457
-11.7109
6.90885
8.93633
7.81856
-10.6753
3.52908
0.817272
6.12477
-12.1437
6.7539
3.54855
-16.6949
9.17022
10.6732
4.03858
3.48829
5.76008
9.7516
-5.5084
6.68455
9.21034
-11.5044
6.96839
-9.66931
-10.1575
3.66445
-5.40053
9.54742
-10.1214
9.62278
-10.4516
5.32346
8.82082
9.84067
9.6785
8.18462
2.65848
9.9789
-15.8142
7.2336
9.22575
7.69047
-12.5093
8.81382
9.19938
6.7152
-12.876
6.06176
-9.83221
-10.5859
9.54701
8.66254
-1.30099
-12.7598
-15.8121
-1.63236
10.5011
4.05252
-13.4137
-11.2673
-10.5874
-9.8094
9.30739
7.72468
6.32714
3.78441
10.2702
9.7578
8.14413
4.37533
9.50497
-15.9267
8.12876
-13.399
8.32277
6.36394
-7.22034
6.55794
-15.7587
3.92123
4.77836
6.04479
5.82089
10.5856
4.73692
-4.18914
2.1632
6.73778
-2.04728
-12.3431
-10.1493
10.6325
2.19556
-10.4633
-12.6272
-12.1003
-12.423
-9.71091
10.1431
8.11368
6.96733
5.22551
-14.1851
-12.1647
4.26699
10.4095
3.84227
9.68657
-9.71161
6.61535
-14.2446
5.47565
4.53605
6.40095
-10.8702
6.68078
-17.8919
-10.8715
3.46347
3.72344
6.53076
9.52764
4.04264
5.33639
-3.36801
9.50723
9.78748
6.70976
9.76272
3.67027
-11.5006
-0.03713
-6.1592
-8.20864
-12.6069
-11.9744
3.93721
8.24927
-10.3558
10.1197
5.76021
-16.8643
9.34476
9.61665
7.86767
-5.62002
-11.9701
7.49454
8.52126
8.67233
-12.1749
6.80143
-13.8774
-12.7656
-17.4777
-13.4814
-10.0098
-11.7257
-12.8125
-9.22537
-6.80577
-17.2677