/*--------------------------------*- C++ -*----------------------------------*\
  =========                 |
  \\      /  F ield         | OpenFOAM: The Open Source CFD Toolbox
   \\    /   O peration     | Website:  https://openfoam.org
    \\  /    A nd           | Version:  10
     \\/     M anipulation  |
\*---------------------------------------------------------------------------*/
FoamFile
{
    format      ascii;
    class       surfaceScalarField;
    location    "1900";
    object      phi;
}
// * * * * * * * * * * * * * * * * * * * * * * * * * * * * * * * * * * * * * //

dimensions      [0 3 -1 0 0 0 0];

internalField   nonuniform List<scalar> 
16133
(
3.51493
1.6713
-2.06324
-3.12259
-2.81395
2.84509
-3.11352
3.08241
-0.804063
-3.13449
2.46701
1.47155
0.879061
-1.24247
-5.26734
5.63081
-1.24361
0.54057
5.05479
-4.35174
3.87811
1.34613
-5.11016
-0.114082
-3.59851
1.13006
2.13869
0.329777
0.0130446
-3.98112
0.958738
3.00933
-2.29226
3.68967
2.41353
-3.81095
0.496474
3.21606
0.0021698
-3.7147
3.55462
-3.35499
2.64919
-2.84878
5.09194
-2.33925
2.31069
-5.06332
-0.213056
-3.37227
2.03171
1.55362
1.39756
-1.12664
1.27336
-1.54429
1.61602
1.51214
-1.7306
-1.84137
1.41126
-4.20072
4.63083
-1.26944
1.06201
-0.919222
-4.18795
0.95254
3.02932
0.206074
-6.4482
5.23837
-1.08244
1.4675
3.91128
-1.86383
-0.805236
3.25882
-2.73172
0.278128
0.602892
-5.1142
5.39039
-4.38125
4.29458
-1.7547
8.51456
-6.92747
-0.400774
-1.18631
-3.9305
4.68514
-0.258169
-0.00334351
0.00366273
-0.0960688
0.0957493
0.0538504
-0.00507012
-0.0338162
-0.0149643
-0.174817
-2.08963
1.87775
0.386691
-0.0269776
0.0508278
-0.00510951
-0.0187409
-3.30119
2.3293
3.40443
-1.01139
-5.1631
2.77007
-2.55506
2.59915
3.51054
1.34441
-3.69058
2.35921
-0.0643288
0.147954
0.02172
-0.105346
-3.75107
-3.65005
3.69414
3.70697
-1.84728
3.18721
2.07019
-3.41009
-2.90422
-5.41221
4.56536
-0.0752734
0.113201
-0.130677
0.0927488
0.0557251
0.118593
-0.0302209
-0.144098
-6.29074
1.00057
-1.15805
-3.39973
0.100707
-3.56007
-0.8425
-1.55264
-0.724914
0.26065
2.01689
-1.97849
4.76873
1.57002
-4.36021
4.89944
-2.11163
-5.69203
3.43555
-1.21175
0.462431
0.0159449
-0.641873
-0.625949
0.980839
0.286977
2.93358
1.59175
-0.835653
5.2839
-4.92537
0.244389
-2.03726
-2.7491
-4.65027
4.76933
-3.69869
3.57962
0.162522
0.0536384
-0.160435
-0.0225573
0.0361393
0.0352666
-0.0488486
-0.0216233
0.0664301
0.0737865
-0.00935758
-0.0149312
-0.00268876
5.40388
-2.74864
-8.06746
-0.104546
-0.107652
0.165387
0.0468107
-0.548598
0.897415
-0.858113
0.50929
5.18937
0.0995977
0.0215298
0.0413939
2.92832
-2.40679
-3.33545
0.121945
0.013153
-0.0221619
-0.112936
2.16082
-4.29801
3.97944
-1.84225
2.3699
-1.8517
-3.81538
2.40102
-1.72012
-0.490291
-0.370454
0.312144
-0.0583152
0.416459
0.00209169
-0.360236
1.23025
2.98732
-6.04365
0.220302
-1.10412
0.0205179
0.00153923
-0.0446147
0.144888
-0.0441054
0.0160852
-0.116867
-1.61789
0.860232
2.85961
-2.10197
2.12583
-3.22696
-2.71424
1.59718
-2.31568
2.33453
-1.66163
-1.89879
2.18676
1.37365
-6.96253
1.88418
-0.96529
-2.25495
1.42396
1.96106
-2.40789
2.32664
1.42565
1.94783
-1.67815
1.3275
5.83901
-5.52745
-0.0160771
-0.295436
3.0461
-2.64106
-1.80748
1.40244
0.0697725
0.160924
-0.177058
0.046873
0.0420481
-0.052782
6.501
-0.114824
-0.547128
-3.22426
2.81756
2.42147
-2.01473
3.11498
-2.77353
-2.90499
2.56357
4.60095
-4.16739
-2.41201
1.93646
-0.904525
1.32459
-2.3565
3.44899
-2.8103
2.47631
5.08833
1.89011
-2.37745
6.44876
-2.60288
3.41465
1.30276
2.40799
-2.58031
2.10881
3.83141
-2.56675
2.18436
-3.55939
-1.51213
0.736908
5.36671
0.345202
1.06522
-1.8105
-1.57039
0.997327
-0.810093
0.710175
-4.72795
5.11204
-0.201069
-0.182971
2.36208
-2.20137
3.54632
-3.59836
1.10571
-1.0537
2.45202
-2.42228
2.08631
0.699886
3.61314
-0.766714
1.39151
3.72677
1.15538
-0.199592
-0.0439475
-1.17905
8.45431
-0.774232
2.09637
-1.5607
1.41218
-0.923221
-4.51483
0.512699
-3.5039
-1.33809
-2.33023
-1.75594
1.44511
-1.69074
1.45689
-0.197209
-3.79381
-4.6459
-0.349257
4.83873
0.622606
2.7037
-3.77075
-2.72316
4.08193
-5.17323
0.0915695
4.73245
2.17901
3.09474
-0.434994
1.16254
-0.235901
-2.58829
2.98635
-3.09293
-1.72185
0.986507
4.22655
-3.49118
-2.99269
3.09622
2.27106
-2.37458
-0.0690445
0.158744
0.00979372
-0.0994936
-0.00757012
1.58141
2.56303
-2.98192
6.05618
-4.89298
-0.084076
0.066688
-0.016077
0.0334649
3.13108
-3.27152
-2.8649
-2.68283
-3.35772
-1.37706
1.21105
-0.0186289
0.158234
0.00528231
-0.0685729
0.204652
0.117202
-0.253279
-1.10725
1.25074
-3.70287
0.395079
5.58097
-3.34793
-4.20662
1.13074
-1.66793
1.37261
-4.02147
5.31427
-0.152714
-0.151626
-0.185953
-0.7876
2.96826
-5.74024
3.55957
5.5859
1.81129
-1.80958
1.83405
-1.83577
3.50809
-3.62881
0.890556
-3.38001
-1.65288
1.17712
-0.793704
3.87066
2.04326
-6.70149
-0.802883
0.231109
-0.0700973
-1.95402
-6.48665
3.6213
-3.20822
4.46644
2.37249
3.997
2.11845
-0.25059
0.0622693
0.412777
-0.224455
3.29074
1.82527
-2.01978
0.744732
-2.46383
2.99574
2.72325
-3.25513
6.98688
1.96234
-3.27984
-5.66939
-1.16866
1.06496
-4.35366
4.34997
5.9778
-6.01378
-1.14303
-1.52408
2.29793
4.59766
3.63754
-3.40586
2.71722
-3.00194
-5.42706
0.412417
5.10626
-4.37135
3.53701
-2.64352
3.47789
-4.57968
-5.45855
-0.243616
-2.94215
0.830768
-0.786557
-1.6621
-0.00696722
0.0235882
-0.0164282
-0.00019308
-1.1369
1.13771
5.15663
-5.12674
2.01339
-2.11303
-3.46431
-3.42953
-1.09697
1.02517
-0.0566288
0.12842
-4.1283
0.744215
0.00494492
0.0982292
-0.052347
-3.93493
-0.284677
-3.97087
2.36134
0.132589
-0.102036
-1.31836
-1.68715
3.06966
-3.63746
2.87709
3.2834
3.84032
3.95289
-3.19739
0.196031
0.0685304
-0.194789
-0.0924579
-0.010247
1.57418
-3.73352
1.46182
-1.67497
2.83244
-3.28935
-0.807342
1.34122
-1.41097
-3.18404
0.144519
2.73453
2.1626
0.23988
-0.0273852
-0.287768
-2.53085
2.14297
0.248535
-0.998425
1.30982
-2.81838
4.1595
-1.5383
0.146352
0.129846
0.0262953
-0.034197
5.71619
-0.337516
-0.0223662
-0.443002
2.86034
2.87958
5.40893
0.0544879
-0.00760495
-1.83411
1.46694
-1.84866
2.45586
0.176126
-0.184703
-0.225212
0.23379
-0.0775093
0.0741658
0.890674
0.101453
-0.0413089
-0.0552
0.993843
-0.159888
0.191214
0.242783
-0.233722
-0.161777
1.97145
-0.17881
-2.92952
-0.0330043
-0.125689
0.215198
-0.056505
3.07094
0.0755658
-0.0816675
0.00610169
-0.907786
-2.85967
3.44342
-5.02691
2.30247
1.63421
0.71462
-0.682827
-0.0884229
-3.08402
-0.00194356
1.81949
-6.34379
-0.0942454
0.0816248
0.0446024
-0.0319821
-0.735474
-6.64875
-0.126391
-0.0237997
0.117187
-5.31458
-1.11386
-2.61972
5.14618
-3.94182
-0.0360154
-0.189773
0.100099
0.361422
-0.434229
0.248934
-0.0197046
-0.0226721
0.0330194
-2.26221
2.72286
-1.18807
2.44592
1.4848
-1.09829
-0.00848866
0.00283139
0.00565651
-1.84043
-3.60804
0.00826713
-0.01858
0.0103133
2.42275
-3.13878
0.719042
1.36504
-0.645719
1.05607
0.00414319
0.00412382
0.496224
-0.226684
-0.293556
0.497279
0.230883
-2.0926
2.79252
-0.303382
-0.731282
4.19386
0.230939
-0.0804173
0.04551
-0.916453
0.204289
-1.17059
1.55413
-2.85294
-0.599425
1.93624
-0.654688
3.4036
0.0685812
0.0055844
1.10008
-3.80637
1.61961
-0.915439
-2.74832
1.12676
1.33796
0.329904
-2.21034
2.78218
-0.229686
-0.0366223
0.0816064
5.03936
-0.103291
0.0516325
0.0521831
-0.056943
-0.0733955
0.110519
-2.99042
0.0891964
0.138878
-0.133512
0.0159208
0.0222652
-0.0381862
-2.13753
-3.5194
4.15673
-0.596624
0.106628
0.242235
-1.90746
0.00385243
-0.0123414
-1.85973
-5.59791
0.275079
0.0509842
0.0621415
-0.0614935
0.971079
-0.233362
-0.0491241
-3.69577
-0.182899
-4.43078
-2.38211
-0.00265927
0.173755
0.431053
-0.103018
-0.504697
-0.0382819
0.0581702
-0.00673555
0.0657536
0.216324
-0.213546
-0.340995
-3.08195
-2.81023
0.0646134
0.00396779
0.184968
-1.84705
0.0667219
1.75916
-0.0876199
0.0839472
0.0600414
0.056696
-0.0657533
0.586446
0.219157
-0.0759317
0.0110695
-0.0204608
-0.000262094
0.00723667
-0.129578
0.226288
-0.0749907
0.0196397
0.00780059
0.0676797
-0.00306629
0.0125344
-0.0289629
0.247544
0.0524357
0.0094702
-0.0173036
-0.232505
2.38767
-1.70378
1.64275
0.000475674
-0.070012
-0.034033
0.258674
-0.462863
-0.687001
1.18676
0.484113
-1.15185
-0.830828
-0.0212022
0.0337966
-0.0594287
0.0481745
-0.0882186
0.0135117
0.0117843
0.0240065
-0.00238185
0.0700615
-0.187632
-0.0787546
2.61083
-0.0156868
0.0598146
-1.34321
0.419397
-2.26769
-0.794468
-0.14797
0.00335375
-0.0373868
-0.0737308
0.0219732
-0.0485545
0.077534
-0.0279166
0.702909
-0.963917
-1.32015
0.706534
-0.0805876
-1.37977
-0.509959
-0.0272902
-0.0211451
-1.40161
-0.620421
-0.0452203
-0.0283739
0.0437375
0.180861
-0.704025
0.0560674
0.0254343
-0.0772024
2.13504
-0.0257534
0.0180596
0.0290552
0.124281
2.21319
0.195701
-0.24442
-1.24616
-0.275189
-0.953623
-0.00383383
0.1112
-0.107366
-0.00868734
0.114848
-0.109994
-0.0134775
0.124721
-0.119931
-0.0187538
0.133027
-0.127751
-0.0241591
0.14207
-0.136665
-0.0298742
0.150252
-0.144537
-0.0357008
0.158405
-0.152578
-0.0416575
0.166027
-0.16007
0.173233
-0.167496
-0.0473943
-0.00356608
0.114766
-0.00790167
0.119184
-0.0123183
0.129138
-0.0171797
0.137889
-0.022114
0.147005
-0.0273056
0.155444
-0.0325782
0.163677
-0.0379246
0.171373
0.17859
-0.0432812
-0.00351558
0.118282
-0.00727422
0.122942
-0.0112622
0.133126
-0.0156164
0.142243
-0.0200762
0.151464
-0.0247188
0.160087
-0.02943
0.168389
-0.0341978
0.176141
0.183374
-0.0389816
-0.00328154
0.121563
-0.00664561
0.126306
-0.0102303
0.13671
-0.0140973
0.14611
-0.0180836
0.155451
-0.0222145
0.164218
-0.0264112
0.172585
-0.0306779
0.180408
0.187728
-0.0350317
-0.0029698
0.124533
-0.00600639
0.129343
-0.0092188
0.139923
-0.0126504
0.149542
-0.0161956
0.158996
-0.0198684
0.16789
-0.02363
0.176347
-0.0274974
0.184275
0.191728
-0.0314974
-0.00262724
0.12716
-0.00537691
0.132092
-0.00826019
0.142806
-0.0113118
0.152593
-0.014471
0.162155
-0.0177555
0.171175
-0.0211426
0.179734
-0.024658
0.187791
0.195405
-0.028335
-0.00220146
0.129361
-0.00474439
0.134635
-0.00736863
0.14543
-0.010123
0.155347
-0.0129668
0.164999
-0.015934
0.174142
-0.01904
0.18284
-0.0223114
0.191062
0.19889
-0.025797
-0.00166434
0.131026
-0.00415659
0.137128
-0.00660299
0.147876
-0.0091199
0.157864
-0.0117201
0.167599
-0.0144601
0.176882
-0.0173662
0.185746
-0.0204878
0.194184
0.202213
-0.023811
-0.00129617
0.132322
-0.00377886
0.13961
-0.00604887
0.150146
-0.00836344
0.160179
-0.0107761
0.170011
-0.0133556
0.179462
-0.0161533
0.188544
-0.0191997
0.19723
0.205562
-0.0225486
-0.00141862
0.13374
-0.0037451
0.141937
-0.00574664
0.152148
-0.00784541
0.162278
-0.0101077
0.172274
-0.0126167
0.181971
-0.0154095
0.191337
-0.0185322
0.200353
0.209009
-0.0219786
-0.0018238
0.135564
-0.00381609
0.143929
-0.00552528
0.153857
-0.00745215
0.164204
-0.00963519
0.174457
-0.0121541
0.184489
-0.0150341
0.194217
-0.0183269
0.203646
0.212757
-0.0220749
-0.00191199
0.137476
-0.00356026
0.145577
-0.00513949
0.155436
-0.00701261
0.166077
-0.00923026
0.176674
-0.0118291
0.187088
-0.0148535
0.197241
-0.0183045
0.207097
0.216752
-0.0223001
-0.00142275
0.138899
-0.0028705
0.147025
-0.00448572
0.157051
-0.00644696
0.168039
-0.00879598
0.179023
-0.0115828
0.189875
-0.0148469
0.200506
-0.0186355
0.210885
0.221053
-0.0229359
-0.000642862
0.139542
-0.00193105
0.148313
-0.00364261
0.158763
-0.00574621
0.170142
-0.00827389
0.181551
-0.01128
0.192881
-0.0148007
0.204026
-0.0188845
0.214969
0.225708
-0.0235399
0.000141944
0.1394
-0.000972354
0.149427
-0.00275082
0.160541
-0.00498445
0.172376
-0.00768303
0.18425
-0.010893
0.196091
-0.0146787
0.207812
-0.0191125
0.219403
0.230814
-0.0242185
0.000468832
0.138931
-0.000307565
0.150203
-0.00201918
0.162253
-0.00426028
0.174617
-0.00702084
0.18701
-0.010345
0.199416
-0.0142971
0.211764
-0.0189446
0.224051
0.236204
-0.0243347
0.000163284
0.138768
-0.000181772
0.150549
-0.00158664
0.163658
-0.00363617
0.176666
-0.00629808
0.189672
-0.0095992
0.202717
-0.0136058
0.215771
-0.0183606
0.228805
0.24182
-0.0239768
-0.000275218
0.139043
-0.000334296
0.150608
-0.00132752
0.164651
-0.00303961
0.178378
-0.00546212
0.192095
-0.00862928
0.205884
-0.0126117
0.219754
-0.0174915
0.233685
0.247687
-0.0233584
-0.00047089
0.139514
-0.000372901
0.15051
-0.000989135
0.165267
-0.00230031
0.17969
-0.00436348
0.194158
-0.0072344
0.208755
-0.0109942
0.223513
-0.0157285
0.23842
0.253501
-0.0215422
-0.000398258
0.139912
-0.000141404
0.150253
-0.000404248
0.16553
-0.00127723
0.180563
-0.00289476
0.195776
-0.0053371
0.211198
-0.00868832
0.226865
-0.0130299
0.242761
0.2589
-0.0184291
-0.000195502
0.140107
0.000346242
0.149711
0.000482344
0.165394
9.20996e-05
0.180953
-0.00100704
0.196875
-0.00293405
0.213125
-0.00580486
0.229736
-0.00977227
0.246728
0.264093
-0.0149651
0.000123483
0.139984
0.0010943
0.14874
0.00170341
0.164785
0.00184748
0.180809
0.00135153
0.197371
7.7379e-05
0.214399
-0.00210809
0.231921
-0.00542935
0.25005
0.26871
-0.0100466
0.000818956
0.139165
0.00220719
0.147352
0.00328108
0.163711
0.00396282
0.180127
0.00411681
0.197217
0.00359435
0.214921
0.00228159
0.233234
-0.000189097
0.25252
0.272785
-0.00426505
0.00211281
0.137052
0.00374725
0.145718
0.00517723
0.162281
0.00638211
0.178922
0.00720193
0.196397
0.00746542
0.214658
0.0071703
0.233529
0.0057404
0.25395
0.276287
0.0022391
0.00353964
0.00515986
0.00700641
0.00887133
0.0104793
0.0115909
0.0126149
0.0132856
0.0143832
-0.0865841
-0.00121702
0.0878012
-0.0852276
-0.00135653
-0.0837241
-0.00150352
-0.0820616
-0.00166251
-0.0802342
-0.00182731
-0.0782346
-0.00199963
-0.0760563
-0.00217829
-0.0736972
-0.00235909
-0.0711514
-0.00254575
-0.06842
-0.00273142
-0.0655018
-0.00291814
-0.0623982
-0.00310351
-0.0591119
-0.00328624
-0.0556427
-0.0034692
-0.051995
-0.00364761
-0.0481703
-0.00382459
-0.0441757
-0.00399455
-0.040018
-0.0041577
-0.0357101
-0.00430783
-0.0312699
-0.00444007
-0.0267249
-0.00454501
-0.0221159
-0.00460885
-0.017501
-0.00461482
-0.0129533
-0.00454766
-0.00854089
-0.00441234
-0.0042668
-0.00427404
-3.60148e-05
-0.00423067
0.00427742
-0.00431334
0.00880969
-0.00453216
0.0136261
-0.00481631
0.018652
-0.00502577
0.0237828
-0.00513073
0.0289491
-0.00516616
0.0340935
-0.00514434
0.0391658
-0.00507216
0.0441268
-0.00496097
0.048945
-0.00481811
0.0535941
-0.00464903
0.0580567
-0.00446258
0.0623192
-0.00426243
0.0663756
-0.00405627
0.0702243
-0.0038487
0.0738652
-0.0036408
0.0773027
-0.00343746
0.0805384
-0.00323569
0.0835795
-0.003041
0.0864269
-0.00284739
0.0890864
-0.00265949
0.0915584
-0.00247194
0.0938452
-0.00228674
0.0959541
-0.00210879
0.0978895
-0.0019354
0.0996636
-0.00177402
0.101282
-0.00161853
0.102755
-0.00147258
0.104091
-0.00133644
0.105298
-0.00120669
0.106389
-0.00109063
-0.000976985
-0.0864494
-0.00246407
0.0876964
-0.0851076
-0.00269833
-0.0836619
-0.00294926
-0.0821028
-0.0032216
-0.0804244
-0.00350572
-0.0786131
-0.00381086
-0.0766625
-0.00412896
-0.0745586
-0.00446295
-0.0722932
-0.00481117
-0.0698562
-0.00516846
-0.0672379
-0.00553639
-0.0644311
-0.00591034
-0.0614267
-0.0062907
-0.0582244
-0.00667152
-0.0548208
-0.0070512
-0.0512165
-0.00742894
-0.0474147
-0.00779631
-0.0434228
-0.0081497
-0.0392472
-0.00848334
-0.0349007
-0.00878666
-0.030395
-0.00905068
-0.0257378
-0.00926604
-0.020928
-0.00942455
-0.015944
-0.0095316
-0.0107517
-0.00960464
-0.0053502
-0.00967553
0.000193543
-0.00977441
0.00579004
-0.00990981
0.0113385
-0.0100806
0.0167913
-0.0102691
0.0221816
-0.010416
0.0275359
-0.010485
0.0328422
-0.0104725
0.0380793
-0.0103814
0.0432187
-0.0102116
0.0482328
-0.00997499
0.0530935
-0.0096788
0.0577812
-0.00933678
0.0622757
-0.00895701
0.0665638
-0.00855052
0.0706338
-0.00812625
0.074475
-0.00768993
0.0780867
-0.00725249
0.0814655
-0.00681628
0.0846136
-0.00638387
0.0875357
-0.00596306
0.0902406
-0.00555231
0.0927331
-0.00515206
0.0950292
-0.00476804
0.0971422
-0.0043997
0.0990867
-0.00405335
0.100876
-0.00372424
0.102519
-0.00341715
0.104032
-0.00313193
0.105423
-0.00286336
0.106706
-0.00261974
0.107888
-0.00238888
0.10898
-0.00218213
-0.00199153
-0.0945381
-0.00385989
0.0959339
-0.0930342
-0.00420223
-0.0914144
-0.00456899
-0.089676
-0.00496001
-0.0878037
-0.00537798
-0.0857907
-0.00582387
-0.0836264
-0.00629325
-0.0813039
-0.00678547
-0.0788118
-0.00730319
-0.0761402
-0.00784008
-0.0732801
-0.00839643
-0.0702244
-0.00896609
-0.0669672
-0.00954791
-0.0635024
-0.0101363
-0.0598256
-0.010728
-0.0559395
-0.011315
-0.0518404
-0.0118955
-0.0475328
-0.0124573
-0.0430205
-0.0129957
-0.0383076
-0.0134996
-0.0333961
-0.0139622
-0.0282888
-0.0143733
-0.0229836
-0.0147297
-0.0174816
-0.0150335
-0.011796
-0.0152903
-0.00595567
-0.0155159
-4.97935e-06
-0.0157251
0.00600975
-0.0159246
0.0120379
-0.0161088
0.0180283
-0.0162595
0.0239589
-0.0163465
0.0298204
-0.0163466
0.0355979
-0.01625
0.0412697
-0.0160532
0.0468177
-0.0157597
0.0522198
-0.0153772
0.0574547
-0.0149136
0.0625033
-0.0143854
0.0673499
-0.0138036
0.0719775
-0.0131781
0.0763769
-0.0125257
0.080541
-0.011854
0.0844648
-0.0111763
0.088145
-0.0104964
0.0915892
-0.00982811
0.0947972
-0.00917109
0.0977789
-0.00853399
0.100546
-0.00791866
0.103108
-0.0073306
0.105478
-0.00676986
0.107666
-0.00624106
0.109683
-0.00574122
0.111542
-0.00527653
0.113252
-0.00484133
0.114823
-0.00443422
0.116263
-0.00406011
0.117591
-0.00371706
0.11881
-0.00340128
-0.00311184
-0.101103
-0.00529834
0.102542
-0.0995532
-0.00575246
-0.0978783
-0.00624395
-0.0960704
-0.00676787
-0.0941228
-0.00732558
-0.092026
-0.00792073
-0.0897706
-0.00854868
-0.0873421
-0.00921394
-0.0847346
-0.00991067
-0.0819372
-0.0106375
-0.0789416
-0.0113921
-0.0757336
-0.0121741
-0.0723088
-0.0129727
-0.0686558
-0.0137892
-0.0647732
-0.0146107
-0.0606522
-0.015436
-0.056294
-0.0162537
-0.051698
-0.0170533
-0.0468661
-0.0178276
-0.0418012
-0.0185646
-0.0365067
-0.0192567
-0.0309861
-0.0198939
-0.0252451
-0.0204707
-0.0192969
-0.0209818
-0.0131583
-0.0214289
-0.00685738
-0.0218168
-0.000437094
-0.0221454
0.00605369
-0.0224153
0.0125644
-0.0226196
0.0190505
-0.0227457
0.0254805
-0.0227765
0.0318319
-0.0226979
0.0380825
-0.0225006
0.0442123
-0.022183
0.0501968
-0.0217442
0.0560168
-0.0211971
0.0616523
-0.0205492
0.067078
-0.0198112
0.0722768
-0.0190024
0.0772367
-0.0181379
0.0819452
-0.0172342
0.0863945
-0.0163033
0.0905797
-0.0153615
0.0945011
-0.0144179
0.0981573
-0.0134842
0.10156
-0.0125739
0.104713
-0.0116866
0.107631
-0.0108368
0.11032
-0.0100198
0.112799
-0.0092487
0.115079
-0.00852079
0.117174
-0.00783701
0.119095
-0.00719679
0.120859
-0.0066055
0.12248
-0.0060549
0.123969
-0.00554977
0.125337
-0.00508502
0.126593
-0.00465693
-0.00426989
-0.109663
-0.00687074
0.111235
-0.107957
-0.00745789
-0.106116
-0.00808545
-0.104129
-0.0087549
-0.101987
-0.00946752
-0.0996825
-0.0102251
-0.0972023
-0.0110289
-0.0945417
-0.0118745
-0.0916885
-0.0127639
-0.0886328
-0.0136932
-0.0853648
-0.0146601
-0.0818762
-0.0156628
-0.0781576
-0.0166913
-0.0742041
-0.0177428
-0.0700053
-0.0188094
-0.0655591
-0.0198823
-0.0608623
-0.0209505
-0.0559115
-0.022004
-0.0507106
-0.0230285
-0.0452588
-0.0240164
-0.0395644
-0.0249511
-0.0336336
-0.0258247
-0.0274781
-0.0266262
-0.0211126
-0.0273473
-0.0145603
-0.0279811
-0.00785352
-0.0285237
-0.00102865
-0.0289703
0.00587353
-0.0293175
0.01281
-0.0295561
0.0197398
-0.0296754
0.0266271
-0.0296639
0.0334399
-0.0295107
0.0401484
-0.0292092
0.0467275
-0.028762
0.0531529
-0.0281697
0.059396
-0.0274402
0.0654343
-0.0265875
0.0712481
-0.025625
0.076818
-0.0245723
0.0821316
-0.0234516
0.0871732
-0.0222758
0.0919405
-0.0210707
0.0964267
-0.0198477
0.100635
-0.018626
0.104569
-0.0174184
0.108232
-0.0162367
0.111637
-0.0150916
0.114791
-0.0139908
0.117707
-0.0129365
0.120398
-0.0119388
0.122876
-0.0109989
0.125155
-0.0101167
0.127254
-0.00929497
0.129177
-0.00852915
0.130945
-0.0078227
0.132567
-0.00717132
0.134053
-0.00657161
0.135418
-0.00602121
-0.00551698
-0.11763
-0.00852299
0.119283
-0.11584
-0.00924874
-0.113905
-0.01002
-0.111814
-0.0108458
-0.109554
-0.0117277
-0.107119
-0.0126597
-0.104498
-0.0136504
-0.101678
-0.0146946
-0.0986479
-0.0157939
-0.0954
-0.0169411
-0.0919222
-0.0181379
-0.088206
-0.0193789
-0.0842398
-0.0206575
-0.0800152
-0.0219675
-0.0755265
-0.0232981
-0.0707686
-0.0246402
-0.0657373
-0.0259818
-0.0604367
-0.0273046
-0.0548653
-0.0286
-0.0490294
-0.0298523
-0.042933
-0.0310475
-0.0365888
-0.032169
-0.0300095
-0.0332055
-0.023215
-0.0341417
-0.0162321
-0.034964
-0.00909245
-0.0356633
-0.00183293
-0.0362298
0.00550864
-0.0366591
0.0128921
-0.0369396
0.0202774
-0.0370607
0.027628
-0.0370145
0.0349061
-0.0367888
0.0420793
-0.0363825
0.0491189
-0.0358016
0.0559926
-0.0350434
0.0626756
-0.0341233
0.0691418
-0.0330537
0.07536
-0.0318432
0.0813144
-0.0305267
0.0869867
-0.0291239
0.0923689
-0.027658
0.0974497
-0.0261514
0.10223
-0.0246279
0.106706
-0.0231027
0.110886
-0.021598
0.114774
-0.0201247
0.118378
-0.0186957
0.121709
-0.0173219
0.124783
-0.01601
0.127611
-0.0147672
0.130212
-0.0135997
0.132598
-0.0125026
0.134785
-0.0114818
0.136789
-0.0105335
0.138626
-0.00966021
0.140306
-0.00885058
0.141842
-0.00810755
0.14325
-0.00742995
-0.00680389
-0.12645
-0.0102927
0.128219
-0.12453
-0.0111688
-0.12245
-0.0120998
-0.120201
-0.013095
-0.117772
-0.014156
-0.115151
-0.0152811
-0.112327
-0.0164742
-0.109288
-0.017734
-0.106027
-0.0190545
-0.102529
-0.020439
-0.098788
-0.0218791
-0.094794
-0.0233728
-0.0905349
-0.0249166
-0.0860032
-0.0264992
-0.0811925
-0.0281087
-0.0760982
-0.0297346
-0.0707134
-0.0313667
-0.0650484
-0.0329695
-0.0591009
-0.0345475
-0.0528795
-0.0360737
-0.0463863
-0.0375407
-0.0396367
-0.0389186
-0.0326464
-0.0401958
-0.0254312
-0.0413569
-0.0180266
-0.0423686
-0.0104632
-0.0432267
-0.00278062
-0.0439124
0.00498877
-0.0444285
0.0128072
-0.044758
0.0206335
-0.044887
0.028434
-0.044815
0.0361617
-0.0445165
0.043783
-0.0440038
0.0512691
-0.0432877
0.0585809
-0.0423551
0.0656965
-0.0412389
0.0725868
-0.039944
0.0792051
-0.0384615
0.0855425
-0.0368641
0.0915791
-0.0351606
0.0973079
-0.0333868
0.102716
-0.0315592
0.107802
-0.0297141
0.112563
-0.0278641
0.11701
-0.0260445
0.121145
-0.0242594
0.124978
-0.0225287
0.128516
-0.0208606
0.131777
-0.0192709
0.134776
-0.0177657
0.137523
-0.0163473
0.140046
-0.015025
0.142353
-0.0137888
0.144463
-0.0126437
0.14639
-0.0115875
0.148153
-0.010613
0.149764
-0.00971894
0.151235
-0.00890106
-0.00814649
-0.135179
-0.012172
0.137058
-0.133148
-0.0131992
-0.130954
-0.0142945
-0.128574
-0.0154742
-0.126005
-0.0167248
-0.123227
-0.0180595
-0.120237
-0.0194637
-0.117012
-0.0209595
-0.113535
-0.0225315
-0.109818
-0.0241556
-0.105839
-0.0258587
-0.101587
-0.0276246
-0.0970554
-0.0294483
-0.0922305
-0.0313241
-0.0871086
-0.0332306
-0.0816777
-0.0351655
-0.0759309
-0.0371135
-0.0698985
-0.0390019
-0.0635778
-0.0408682
-0.0569711
-0.0426804
-0.0500755
-0.0444364
-0.0429169
-0.0460772
-0.0355154
-0.0475974
-0.0278583
-0.049014
-0.0200194
-0.0502076
-0.0120161
-0.05123
-0.00390627
-0.0520222
0.00430216
-0.0526369
0.0125663
-0.0530221
0.0208393
-0.05316
0.0291023
-0.053078
0.0372801
-0.0526943
0.0453441
-0.0520678
0.0532916
-0.0512352
0.061038
-0.0501016
0.0685932
-0.0487941
0.0759438
-0.0472945
0.0829666
-0.0454844
0.0896908
-0.0435883
0.096099
-0.0415688
0.102178
-0.0394653
0.107923
-0.0373049
0.113309
-0.0350996
0.118345
-0.0329
0.123062
-0.0307614
0.127426
-0.0286241
0.13148
-0.0265824
0.135217
-0.0245971
0.138633
-0.0226875
0.141759
-0.0208911
0.144614
-0.0192032
0.147223
-0.0176338
0.149602
-0.0161679
0.151771
-0.0148119
0.153746
-0.0135633
0.15555
-0.0124166
0.157193
-0.0113617
0.158696
-0.0104043
-0.00952035
-0.144441
0.146435
-0.0141661
-0.14228
-0.0153607
-0.139949
-0.0166252
-0.137417
-0.0180062
-0.134682
-0.0194602
-0.131708
-0.0210332
-0.128494
-0.0226775
-0.125072
-0.0243817
-0.121397
-0.026206
-0.117384
-0.0281691
-0.113133
-0.0301099
-0.108593
-0.0321644
-0.103718
-0.0343233
-0.0985815
-0.0364606
-0.093103
-0.0387091
-0.0873721
-0.0408964
-0.081328
-0.0431576
-0.0749387
-0.0453912
-0.0681884
-0.0476185
-0.0611742
-0.0496946
-0.0538587
-0.0517518
-0.0463269
-0.053609
-0.0385423
-0.0553819
-0.0304399
-0.0571164
-0.0221608
-0.0584866
-0.0137309
-0.0596599
-0.00522399
-0.0605291
0.0034344
-0.0612953
0.0121854
-0.0617731
0.0208783
-0.0618529
0.0296103
-0.0618101
0.0382558
-0.0613397
0.0467276
-0.0605396
0.0551482
-0.0596558
0.06338
-0.0583334
0.0713926
-0.0568066
0.0790824
-0.0549843
0.0864295
-0.0528315
0.0935962
-0.050755
0.10038
-0.0483528
0.106816
-0.0459009
0.112939
-0.0434277
0.118666
-0.0408273
0.124029
-0.0382627
0.129026
-0.0357581
0.133638
-0.0332368
0.137882
-0.0308261
0.141754
-0.0284694
0.145375
-0.0263082
0.148688
-0.0242038
0.15169
-0.0222053
0.154407
-0.0203515
0.156861
-0.0186215
0.15911
-0.0170606
0.161152
-0.0156053
0.162996
-0.0142603
0.164667
-0.0130333
0.166122
-0.0118592
-0.0108948
-0.0498049
0.0116183
-0.0604262
0.0106212
-0.0700536
0.00962701
-0.0784934
0.00843986
-0.0857779
0.00728431
-0.0922954
0.00651753
-0.098384
0.00608858
-0.104193
0.00580895
-0.109747
0.00555444
-0.114683
0.00493568
-0.118375
0.00369265
-0.120497
0.00212188
-0.121169
0.000672096
-0.120852
-0.000317215
-0.120087
-0.000765547
-0.118998
-0.00108857
-0.117342
-0.00165614
-0.114994
-0.00234734
-0.112096
-0.00289806
-0.108795
-0.00330123
-0.105161
-0.00363434
-0.101227
-0.00393383
-0.0970201
-0.00420683
-0.0926139
-0.00440608
-0.00481276
-0.0543105
0.0213139
-0.0639731
0.0202836
-0.0731507
0.0188045
-0.0818136
0.0171026
-0.0899758
0.0154464
-0.0975619
0.0141035
-0.104493
0.0130196
-0.11068
0.0119956
-0.115916
0.0107905
-0.120057
0.00907733
-0.123199
0.00683413
-0.125413
0.00433589
-0.126664
0.00192336
-0.126871
-0.000110188
-0.126031
-0.00160568
-0.124346
-0.00277329
-0.122099
-0.00390275
-0.119419
-0.00502774
-0.116282
-0.00603528
-0.112671
-0.00691158
-0.108613
-0.00769274
-0.104117
-0.00842951
-0.0991714
-0.00915268
-0.0936733
-0.00990417
-0.0107896
-0.0596544
0.0321195
-0.0700266
0.0306556
-0.0799394
0.0287171
-0.0893621
0.0265251
-0.0982008
0.024285
-0.106272
0.0221742
-0.113414
0.0201621
-0.11952
0.0181011
-0.124523
0.0157937
-0.12851
0.0130644
-0.131609
0.00993277
-0.133886
0.00661335
-0.135353
0.00339017
-0.135952
0.000488617
-0.135589
-0.00196876
-0.134289
-0.00407311
-0.132215
-0.00597621
-0.129503
-0.00774029
-0.1262
-0.00933754
-0.122335
-0.0107773
-0.117942
-0.0120856
-0.113061
-0.0133105
-0.107735
-0.0144788
-0.102005
-0.0156342
-0.0168604
-0.0647863
0.0441236
-0.0760721
0.0419412
-0.0867445
0.0393893
-0.0968021
0.0365825
-0.106155
0.0336377
-0.114643
0.0306619
-0.122116
0.0276355
-0.128486
0.0244706
-0.133733
0.0210407
-0.137938
0.0172695
-0.141213
0.013208
-0.143625
0.00902539
-0.145174
0.00493946
-0.145829
0.00114265
-0.145527
-0.00227066
-0.144287
-0.00531266
-0.142197
-0.00806669
-0.139356
-0.0105809
-0.135818
-0.0128752
-0.131636
-0.0149599
-0.126841
-0.0168797
-0.121482
-0.0186703
-0.115594
-0.0203661
-0.109234
-0.0219948
-0.0235521
-0.0699593
0.0571396
-0.0822077
0.0541894
-0.0937098
0.0508914
-0.104457
0.0473296
-0.114363
0.0435434
-0.12331
0.039609
-0.131182
0.0355076
-0.137917
0.0312057
-0.143512
0.0266354
-0.148025
0.0217822
-0.151539
0.0167222
-0.154111
0.0115972
-0.155744
0.00657215
-0.156422
0.00182078
-0.156133
-0.00255916
-0.154883
-0.0065627
-0.152731
-0.010219
-0.149759
-0.0135526
-0.146033
-0.0166018
-0.14161
-0.0193829
-0.136547
-0.0219419
-0.130907
-0.0243108
-0.124758
-0.026515
-0.118184
-0.0285691
-0.0305005
-0.0753175
0.0709634
-0.0884952
0.067367
-0.100823
0.0632193
-0.11228
0.0587863
-0.122781
0.0540444
-0.132247
0.0490748
-0.140577
0.0438372
-0.147734
0.0383633
-0.153718
0.0326193
-0.158562
0.0266262
-0.162334
0.0204939
-0.165069
0.0143325
-0.166783
0.00828583
-0.167479
0.00251681
-0.16715
-0.00288807
-0.16583
-0.00788262
-0.163574
-0.0124753
-0.160437
-0.01669
-0.156494
-0.0205446
-0.151803
-0.0240742
-0.14643
-0.0273144
-0.140432
-0.0303092
-0.133864
-0.033083
-0.126785
-0.0356476
-0.0380028
-0.0807335
0.0859436
-0.09494
0.0815733
-0.108118
0.076397
-0.120314
0.0709824
-0.131454
0.0651839
-0.141489
0.0591107
-0.150311
0.0526586
-0.157918
0.0459707
-0.164297
0.0389981
-0.169474
0.0318032
-0.173503
0.024523
-0.176418
0.0172471
-0.178218
0.010086
-0.178918
0.00321661
-0.178553
-0.00325258
-0.177152
-0.00928408
-0.174765
-0.0148622
-0.171459
-0.0199965
-0.167298
-0.0247055
-0.162364
-0.029008
-0.156716
-0.032962
-0.150426
-0.0365999
-0.143533
-0.0399759
-0.136107
-0.0430729
-0.0458908
-0.0863969
0.102329
-0.101648
0.0968241
-0.115635
0.0903845
-0.128582
0.0839288
-0.140387
0.0769892
-0.151031
0.0697548
-0.160365
0.0619922
-0.168428
0.054034
-0.17522
0.0457894
-0.180723
0.0373068
-0.184994
0.0287941
-0.188096
0.0203486
-0.189978
0.011968
-0.190685
0.00392344
-0.19027
-0.0036676
-0.188764
-0.0107896
-0.186232
-0.0173947
-0.182734
-0.0234944
-0.17834
-0.0290993
-0.173137
-0.0342104
-0.167192
-0.0389076
-0.160588
-0.0432035
-0.153329
-0.0472353
-0.145469
-0.0509329
-0.0543016
-0.0926332
0.119971
-0.108663
0.112854
-0.123336
0.105057
-0.137052
0.0976446
-0.149563
0.0895002
-0.160884
0.0810759
-0.170729
0.0718369
-0.179247
0.0625522
-0.186459
0.0530017
-0.192316
0.0431634
-0.196793
0.0332711
-0.200067
0.0236225
-0.202055
0.0139566
-0.202742
0.00460973
-0.202267
-0.00414205
-0.20065
-0.0124069
-0.197946
-0.0200982
-0.194263
-0.0271778
-0.189607
-0.0337555
-0.184058
-0.0397593
-0.177773
-0.0451927
-0.170793
-0.0501836
-0.163108
-0.0549199
-0.155012
-0.0590292
-0.0628781
0.915962
4.42996
-0.395697
-4.03425
3.69598
-1.62151
-2.07447
0.260444
-0.359567
0.0991224
0.322441
-0.390934
0.0684931
-1.02359
-0.531852
1.55545
-0.627445
0.852775
-0.22533
3.24227
-4.55159
1.30932
-0.047771
-0.168752
0.216523
5.48322
-3.73966
-1.74356
-0.956262
2.17578
-1.21952
-1.32074
0.381962
0.938779
1.4629
-2.45767
0.994772
-1.82724
0.659757
1.16749
0.105325
-0.103746
-0.00157925
5.7508
-5.66426
-0.0865384
1.14361
2.55237
0.120401
-0.0205561
-0.0998448
-0.265238
-0.257385
0.469325
0.348699
-0.818024
-0.324996
0.19332
0.131677
3.25685
2.37655
-5.6334
-1.41562
1.38145
0.0341597
1.56674
-1.41703
-0.149706
-1.20723
0.595906
0.611322
1.48214
0.0846019
-1.30712
0.859967
0.447149
-0.281737
0.0210163
0.260721
5.79019
-3.07301
-2.71718
-0.0364932
-0.125953
0.162446
-0.137685
0.740133
-0.602448
-2.58491
1.46483
1.12008
1.33367
1.01795
-2.35161
3.38101
-5.89398
2.51297
-0.286622
-0.0649909
0.351613
-0.447278
2.64482
-2.19754
-1.11175
-0.71549