/*--------------------------------*- C++ -*----------------------------------*\
  =========                 |
  \\      /  F ield         | OpenFOAM: The Open Source CFD Toolbox
   \\    /   O peration     | Website:  https://openfoam.org
    \\  /    A nd           | Version:  10
     \\/     M anipulation  |
\*---------------------------------------------------------------------------*/
FoamFile
{
    format      ascii;
    class       volVectorField;
    location    "1900";
    object      U;
}
// * * * * * * * * * * * * * * * * * * * * * * * * * * * * * * * * * * * * * //

dimensions      [0 1 -1 0 0 0 0];

internalField   nonuniform List<vector> 
10435
(
(3.34354 1.60117 8.8656e-22)
(3.30538 2.17 -5.34163e-20)
(4.28919 -0.35567 -2.94605e-20)
(4.29196 1.05557 9.86577e-20)
(3.64955 0.610847 -3.52412e-20)
(2.93144 -0.14489 2.28466e-19)
(4.54157 -0.327977 -1.02345e-19)
(5.18966 -0.290769 7.40797e-20)
(5.15311 -0.301921 2.64882e-19)
(3.32007 -0.332802 -6.23219e-20)
(3.4701 1.79414 -1.05424e-19)
(4.83265 0.16022 1.8809e-19)
(3.18955 -0.373254 6.56702e-20)
(1.40043 1.27017 -3.30141e-20)
(1.66673 1.43458 -3.54962e-20)
(4.98169 -0.328022 -7.54581e-21)
(1.15835 1.08737 1.06963e-20)
(2.74499 -0.316703 2.23578e-19)
(4.96512 -0.312471 -1.0709e-19)
(3.57172 1.50084 -1.63135e-20)
(5.08909 -0.30987 5.00585e-20)
(4.31647 0.859246 -1.49597e-19)
(4.78817 -0.331529 3.28034e-19)
(5.07779 -0.378991 -1.23863e-19)
(3.76333 -0.297379 7.40567e-20)
(0.31771 0.526982 -1.36859e-21)
(0.0325688 0.239297 -3.33941e-21)
(3.77053 -0.347604 5.46012e-20)
(0.172082 0.0756779 6.45866e-22)
(2.97976 -0.330334 3.34379e-19)
(4.5295 -0.270232 1.44911e-19)
(3.51503 1.57374 -6.88161e-21)
(5.23167 -0.284449 -1.59321e-19)
(0.42571 0.105097 7.00684e-21)
(5.23049 -0.358562 8.49206e-20)
(2.9309 2.49572 2.32396e-20)
(5.17101 -0.345299 1.22455e-19)
(0.175472 0.469585 1.2077e-20)
(0.489164 0.492397 -1.03044e-21)
(5.04085 -0.365283 3.3353e-20)
(2.74349 -0.31929 -3.33348e-19)
(4.54491 -0.323574 -8.29735e-20)
(0.983354 1.25801 -4.90216e-20)
(3.97957 1.43406 -1.49831e-19)
(5.00225 -0.321611 -2.55031e-19)
(5.07724 -0.399856 1.96358e-19)
(2.84582 -0.233211 -2.50496e-19)
(0.622599 0.91061 -1.4894e-19)
(5.11806 -0.270869 8.74443e-20)
(4.25009 0.62007 -4.98101e-20)
(5.17997 -0.314013 -1.16454e-20)
(3.89429 -0.117728 1.13668e-18)
(0.542869 0.526186 -3.44854e-21)
(0.254003 -0.0500471 7.12778e-22)
(0.436558 0.500868 6.01904e-22)
(0.118471 0.0264853 -1.83224e-21)
(5.21714 -0.34773 -3.71365e-19)
(0.168383 0.39163 7.19885e-21)
(0.753869 0.550537 -8.08789e-21)
(5.21765 -0.375518 2.53148e-19)
(0.490857 0.540864 2.32741e-21)
(3.19049 2.31262 4.75487e-20)
(0.163278 0.278125 -6.23658e-21)
(3.96479 0.0247099 -9.61209e-20)
(4.88761 -0.322964 -4.65177e-19)
(4.11269 -0.35114 2.13914e-19)
(0.62369 0.357844 1.64654e-20)
(0.383273 0.520448 2.61994e-20)
(5.10927 -0.291684 -9.13308e-20)
(5.00896 -0.325455 9.69962e-21)
(0.203668 -0.0826674 -2.70772e-21)
(0.238891 0.532098 1.07911e-21)
(1.1998 1.51539 1.7378e-19)
(4.3452 -0.340506 -2.81746e-19)
(1.96197 1.58851 -1.38663e-20)
(1.3911 1.74844 1.45721e-20)
(4.94168 -0.251279 5.41643e-19)
(4.67014 -0.317979 2.59177e-19)
(5.23232 -0.254426 2.22716e-20)
(1.90514 1.32657 8.81909e-20)
(4.55915 0.229461 6.29083e-20)
(2.9994 1.41922 -2.03589e-22)
(0.595646 0.563305 4.66973e-21)
(0.296638 -0.0235315 -5.65293e-22)
(4.68628 0.0608132 -1.21909e-19)
(2.90095 2.35186 5.49293e-20)
(3.16834 2.11724 6.45645e-23)
(3.88154 1.64612 3.0449e-20)
(2.45357 2.09149 -8.8137e-21)
(3.37379 2.04875 1.01402e-20)
(4.01941 1.46277 -2.63848e-20)
(4.14 1.25516 -2.56423e-20)
(3.24777 1.35293 4.13771e-21)
(2.69306 2.14157 3.4265e-20)
(3.55875 1.9429 1.39787e-20)
(2.77845 2.5246 3.11589e-20)
(4.29673 1.01556 3.04948e-19)
(2.01871 1.81907 2.10083e-20)
(0.936394 0.736284 -1.35618e-20)
(4.23902 0.816564 -2.63759e-19)
(2.23627 1.97083 3.85291e-20)
(3.02795 0.491683 -1.39143e-19)
(2.93685 2.14923 -1.84121e-20)
(3.72889 1.80614 -1.53297e-20)
(2.99315 0.285355 -7.10352e-21)
(4.14322 1.2571 8.73917e-21)
(3.48051 1.24732 5.90368e-21)
(4.4135 0.413997 7.21954e-20)
(4.81279 -0.0766432 -1.51717e-19)
(2.1798 1.40325 -2.34497e-20)
(4.08243 0.795343 -1.98789e-20)
(3.07682 0.696822 -7.81356e-20)
(2.73344 1.44538 -2.55045e-20)
(2.45901 1.44395 -1.93692e-20)
(4.08488 1.03684 -1.62912e-19)
(4.15441 1.04814 4.0136e-20)
(4.36267 0.596622 -1.38631e-19)
(3.09133 2.31955 -1.66469e-20)
(3.68314 1.8304 -1.6797e-19)
(4.56441 0.545802 -3.89446e-20)
(4.49114 0.410583 -4.23457e-19)
(1.53309 1.96357 1.5369e-20)
(3.25974 2.24733 3.96587e-20)
(2.28478 2.55504 -1.26933e-19)
(3.12396 1.45948 2.9699e-20)
(0.413584 0.543031 1.32219e-21)
(4.44839 0.760362 2.75792e-19)
(1.82158 2.22224 -3.05002e-20)
(4.05615 0.59578 -2.60375e-19)
(0.093805 0.448989 -1.03569e-21)
(2.08079 2.41992 5.47925e-20)
(3.12103 1.69258 -1.72703e-19)
(5.1164 -0.329987 -1.29738e-19)
(1.63555 1.21075 6.83862e-20)
(0.199616 0.503566 1.85096e-22)
(0.794932 0.747719 4.70079e-22)
(2.58985 2.65615 3.90403e-20)
(4.43746 0.835375 -1.83334e-20)
(3.55695 1.99719 4.3309e-20)
(3.97446 1.21752 3.5674e-20)
(3.78041 1.37168 4.89873e-21)
(4.74413 -0.306294 -5.21296e-19)
(0.528126 0.238134 4.52851e-20)
(4.51477 -0.0145419 1.17751e-18)
(4.46706 0.65845 2.49275e-20)
(1.83348 1.95042 1.29423e-19)
(2.45161 2.63785 -1.49268e-20)
(3.56461 -0.0263753 -3.23322e-19)
(1.19696 1.3031 5.90664e-20)
(4.79946 -0.0302665 7.25725e-20)
(0.527519 0.810499 -4.75837e-22)
(5.08662 -0.301954 2.28048e-19)
(3.39719 1.82779 2.33817e-21)
(4.74152 -0.109856 5.03769e-19)
(3.55561 -0.189964 -2.83022e-19)
(0.437315 0.677322 4.35727e-21)
(3.1083 1.19745 2.33829e-19)
(3.41423 2.13741 -3.73465e-21)
(3.36806 -0.257829 -2.24413e-19)
(3.06855 2.14757 -2.30744e-20)
(4.87516 -0.220495 -9.44701e-20)
(1.38822 1.06983 -1.41242e-20)
(3.88824 1.40206 1.88771e-19)
(4.85137 0.137691 1.37207e-19)
(2.24631 1.67653 4.02057e-20)
(4.26973 0.369606 9.58543e-19)
(5.24653 -0.309376 -2.45992e-19)
(4.6923 0.422859 -1.27319e-19)
(5.02604 -0.145093 1.87466e-19)
(4.28624 0.131263 -1.66633e-18)
(3.84757 -0.253115 2.57639e-19)
(1.00697 1.26294 -5.38005e-20)
(0.00401916 0.147833 1.6081e-21)
(2.05358 2.04705 -3.16452e-21)
(4.98046 -0.103503 -2.73327e-19)
(3.004 2.32732 -2.8928e-20)
(3.06761 2.42239 -2.76939e-20)
(0.76218 0.925801 2.08099e-20)
(3.89839 0.961341 1.17292e-20)
(0.235387 0.13255 -9.05129e-22)
(3.40144 1.99529 6.49362e-20)
(2.98618 -0.0234612 -3.98915e-20)
(4.79848 0.0798968 -6.52971e-19)
(0.474631 0.569969 9.63877e-22)
(4.85037 -0.277376 7.31409e-20)
(0.858149 1.15181 6.99489e-20)
(1.26929 1.61684 -1.61064e-19)
(4.82116 -0.319317 -2.07426e-19)
(3.56732 0.437129 9.7579e-20)
(4.267 -0.0762669 -7.70019e-19)
(4.66332 0.281684 1.02762e-19)
(0.646051 0.605945 4.77437e-21)
(0.134578 0.483897 1.8e-21)
(2.71217 2.63833 -1.1628e-20)
(3.09156 0.943809 1.06296e-19)
(4.9951 -0.308277 1.29126e-20)
(1.2581 1.51069 1.58323e-19)
(2.68833 2.34143 -2.43085e-20)
(0.704477 0.955845 1.51403e-19)
(5.08398 -0.340629 1.84672e-19)
(2.3604 1.89529 -4.62261e-20)
(0.266278 0.555229 1.10904e-20)
(3.50604 -0.353045 -1.56814e-20)
(0.235836 0.498314 1.13207e-20)
(3.88143 -0.348386 -6.15394e-20)
(3.86537 1.04819 -1.37089e-21)
(3.78252 1.63718 1.87921e-19)
(4.57601 0.616625 -9.02766e-20)
(0.228824 0.26382 -6.37561e-21)
(4.6092 0.461197 -6.45695e-20)
(0.626903 0.86039 -2.43606e-20)
(4.60658 -0.321701 -4.23411e-19)
(4.55844 0.19133 9.49412e-19)
(4.93963 0.040141 6.92718e-20)
(0.0599784 0.220884 2.01642e-21)
(1.46068 1.50673 -1.53762e-19)
(2.54215 1.69298 1.12839e-20)
(0.624491 0.708559 -3.75864e-21)
(0.300764 0.50238 1.24588e-21)
(1.15982 0.90803 1.44578e-20)
(0.277942 0.0865185 -6.23148e-22)
(0.801812 0.850665 4.40197e-20)
(0.443611 0.298456 -2.60366e-20)
(2.16742 2.281 -2.02679e-19)
(0.353115 0.588096 8.27037e-22)
(5.19201 -0.344284 -6.04865e-20)
(0.3749 0.494221 -2.8322e-21)
(2.45398 2.27916 2.29478e-20)
(4.3294 -0.188696 8.32795e-19)
(1.68935 2.01748 -1.34928e-19)
(0.586369 0.679184 -1.50825e-19)
(5.23344 -0.331202 2.67945e-19)
(0.341675 0.500588 -3.9401e-21)
(5.10219 -0.284016 2.71776e-19)
(0.063835 0.3738 8.34571e-21)
(0.933262 0.911766 -7.45245e-20)
(5.17869 -0.350941 -3.47684e-19)
(0.30623 0.551416 -1.75798e-21)
(5.12901 -0.303927 -2.24387e-20)
(4.23285 -0.257819 5.11739e-21)
(3.80256 1.59057 4.68641e-20)
(0.421458 0.598157 4.00872e-22)
(0.683715 0.795927 5.34553e-22)
(0.165204 -0.00196433 -1.7149e-22)
(3.86797 1.24949 -3.4462e-19)
(5.22347 -0.280122 8.68263e-20)
(2.60405 2.50883 -1.05419e-19)
(5.02912 -0.278142 7.27982e-20)
(0.0259327 0.0253562 4.48647e-22)
(2.91464 2.46657 2.05866e-20)
(0.0812038 -0.039689 -6.02915e-22)
(2.63953 1.91759 -3.34137e-20)
(3.19266 -0.345038 -1.14408e-19)
(4.73629 0.282118 -1.20573e-19)
(4.89345 -0.299287 -1.75872e-19)
(3.94497 0.269871 3.84652e-19)
(0.0407019 -0.0106425 -1.32601e-21)
(4.77124 -0.297185 2.46496e-19)
(0.551723 0.747839 1.81472e-21)
(0.389974 0.65476 -4.0478e-20)
(4.63043 -0.31158 1.21826e-20)
(3.99632 -0.218252 2.45961e-21)
(0.375223 0.559119 4.38643e-22)
(4.94315 -0.127608 -2.8895e-19)
(2.81989 1.69241 8.54891e-21)
(0.678117 0.632897 8.40109e-20)
(3.60899 1.72391 7.94773e-21)
(4.605 -0.320258 2.64305e-19)
(0.583004 0.618854 -1.2529e-21)
(3.95981 0.841536 5.3065e-20)
(4.50485 -0.331539 -1.80545e-22)
(5.13947 -0.242996 -3.75644e-20)
(4.9921 -0.269661 -2.63305e-20)
(3.84502 -0.323916 -2.72826e-19)
(0.25401 0.510051 -1.17712e-21)
(4.65536 0.381818 -1.7962e-19)
(0.138043 0.453633 -7.34948e-21)
(3.56207 0.87597 3.99183e-20)
(4.95837 -0.329763 7.12977e-20)
(5.18948 -0.227161 1.51014e-20)
(3.43267 -0.351314 1.35796e-19)
(0.987694 1.21239 -2.22971e-19)
(4.33786 -0.335966 -7.1532e-21)
(2.25598 2.175 -1.5571e-20)
(2.90196 1.92335 -1.37124e-20)
(0.692039 0.715972 -1.84137e-21)
(3.56584 0.250061 5.88252e-20)
(0.414561 0.477479 -1.04849e-21)
(0.343566 0.0031886 -3.04794e-21)
(0.347938 0.108893 1.73014e-21)
(2.38735 2.42972 1.60522e-19)
(3.10877 1.93177 1.919e-19)
(0.292025 0.219412 3.4959e-21)
(5.07776 -0.250105 7.18274e-20)
(0.469561 0.456444 -1.45801e-22)
(0.156421 -0.0825589 3.9357e-22)
(1.56696 1.76597 -3.82862e-21)
(3.0919 1.6651 3.75444e-21)
(3.53156 1.12412 -5.15815e-21)
(4.25201 -0.312511 1.68734e-19)
(0.518725 0.712922 2.33017e-19)
(5.07018 -0.24925 -9.9929e-20)
(4.1496 -0.331411 -2.49184e-21)
(0.0141621 0.0625946 3.32275e-22)
(3.52276 1.3619 -8.90749e-20)
(1.72945 1.68327 8.17435e-20)
(0.969635 1.09067 8.19363e-20)
(5.10338 -0.251048 -2.15672e-20)
(4.19206 -0.326859 -2.27616e-21)
(0.389373 0.0229754 1.17516e-21)
(3.69416 1.11696 1.06542e-20)
(0.284749 0.569387 5.44094e-21)
(2.82219 2.57085 -8.52869e-21)
(3.52875 0.109097 -1.70896e-19)
(5.22377 -0.335237 -4.64632e-20)
(0.119409 -0.0618252 1.56673e-22)
(0.503938 0.61637 -1.83488e-21)
(4.5882 -0.159674 -9.37249e-19)
(0.456096 0.49087 2.22641e-21)
(4.77994 0.272158 1.50264e-19)
(2.93557 0.121934 -6.05616e-20)
(0.132587 0.194451 4.91163e-21)
(3.16082 1.89465 -2.38673e-21)
(0.698154 0.654649 2.18809e-21)
(5.22181 -0.219927 -9.48408e-21)
(3.59117 -0.344568 -5.89302e-20)
(0.217815 0.515043 -2.00693e-22)
(3.96388 -0.334491 -3.15681e-22)
(0.535164 0.443563 -1.10225e-21)
(0.110624 0.378842 -1.02244e-20)
(5.19376 -0.36688 1.65218e-21)
(0.441006 0.167621 -3.83659e-21)
(0.429523 0.0389704 1.59699e-21)
(4.32988 -0.343974 8.96373e-21)
(4.96515 -0.175671 2.34749e-19)
(0.231852 0.386923 -2.01242e-20)
(0.115916 -0.0424894 4.14044e-22)
(0.0381431 0.00869153 1.38386e-22)
(0.484114 0.0835297 1.00224e-21)
(0.0296029 0.11791 3.70532e-22)
(0.188761 0.507415 6.16749e-22)
(0.319902 0.590882 4.78322e-21)
(0.539539 0.572818 -4.18296e-22)
(0.00344058 0.151596 -7.23208e-22)
(0.00677336 0.105851 2.0505e-22)
(0.409473 0.680204 -5.46852e-21)
(0.293817 0.374428 5.77824e-21)
(0.00716132 0.325614 -1.12559e-22)
(0.744035 0.699217 -3.74071e-21)
(5.23247 -0.239098 -5.69124e-20)
(0.461248 0.0575365 3.62272e-21)
(3.80072 -0.350079 6.95346e-21)
(0.00903527 0.202976 1.25399e-22)
(3.75368 -0.343714 -1.3218e-21)
(5.22438 -0.215454 2.52318e-20)
(5.07122 -0.231698 -2.1101e-20)
(3.1169 -0.404995 -2.81509e-21)
(4.51763 -0.344125 -1.79977e-19)
(0.209499 -0.0265818 2.04353e-21)
(0.36498 0.0542997 -6.55774e-21)
(0.0756085 -0.0128614 -5.27495e-22)
(0.358879 0.518319 3.83351e-21)
(0.0526796 0.085608 -9.77722e-24)
(0.640074 0.665854 1.91646e-21)
(0.0815526 0.182108 -2.13386e-21)
(0.160892 0.492082 3.91614e-22)
(0.315521 0.523393 -5.74916e-20)
(4.96916 -0.0358662 -2.0693e-20)
(0.170735 0.503248 -3.8999e-21)
(5.20177 -0.253738 6.37785e-20)
(0.391213 0.506836 -7.9804e-22)
(0.131593 0.469768 -5.33135e-22)
(2.92774 -0.449106 -2.64821e-20)
(4.9515 -0.241772 -6.91344e-20)
(0.74489 0.783207 1.69174e-20)
(0.00480119 0.258402 -1.0045e-22)
(0.114295 0.287605 2.14117e-21)
(0.0211918 0.291226 6.53574e-23)
(0.309841 0.0349225 1.90948e-21)
(0.267768 0.527619 -4.52832e-22)
(-0.000674078 0.309369 2.92664e-22)
(0.443345 0.521595 -1.13566e-21)
(5.22374 -0.250966 -1.63415e-20)
(0.359725 0.341117 -9.65322e-21)
(5.12125 -0.270845 8.59485e-21)
(5.20635 -0.212979 8.74446e-20)
(3.52554 -0.356029 -4.78094e-22)
(3.30079 -0.379269 5.41063e-20)
(5.16082 -0.223688 -3.90319e-20)
(3.96904 -0.333411 -1.81119e-20)
(5.23686 -0.349505 -5.67533e-20)
(1.96959 2.23964 6.05291e-21)
(0.806801 1.02943 -3.12921e-20)
(0.214245 0.0373867 2.64253e-21)
(0.155767 -0.0584562 -1.84094e-21)
(4.14368 -0.332019 2.63879e-20)
(0.255233 0.00312082 -5.74585e-21)
(2.94494 -0.395806 -1.28842e-19)
(0.00810821 0.337204 1.79521e-22)
(0.179609 0.17026 -6.17594e-22)
(0.0969416 0.435412 -8.19392e-23)
(0.36424 0.196216 -2.37322e-21)
(0.539154 0.677907 4.40111e-21)
(4.74612 -0.322679 3.84884e-19)
(0.0753187 0.301165 -6.42209e-22)
(5.18731 -0.261286 3.64391e-21)
(5.06987 -0.20763 -1.11051e-19)
(0.756369 0.906523 -2.45207e-21)
(0.226603 0.51938 4.44558e-22)
(0.0490626 0.373283 2.30248e-23)
(4.96457 -0.266484 9.34167e-20)
(0.0746528 0.408033 9.21999e-22)
(0.196662 0.510883 2.02576e-22)
(0.442303 0.638901 -5.52538e-21)
(0.0845959 0.0576843 3.96953e-22)
(0.43973 0.690896 2.20258e-20)
(0.101266 0.136433 2.75459e-22)
(4.07003 -0.339614 1.48642e-19)
(0.14423 -0.085769 6.85751e-23)
(0.253856 0.530124 1.52685e-21)
(0.133 0.113255 -1.09333e-21)
(0.531566 0.150834 -2.20735e-20)
(2.67826 -0.340908 -1.06046e-19)
(0.892665 0.976455 2.47856e-20)
(0.826498 0.813379 -4.76094e-20)
(4.77933 -0.236425 -1.43358e-19)
(0.414955 0.0650406 -1.70468e-21)
(0.409316 -0.360508 1.62601e-21)
(0.430941 -0.34294 3.05242e-23)
(0.481434 -0.343493 -1.27145e-21)
(0.517266 -0.343417 6.63361e-22)
(0.556873 -0.344607 -8.20997e-22)
(0.58883 -0.345047 -2.57408e-21)
(0.619951 -0.345425 6.48314e-22)
(0.646104 -0.34581 8.1295e-22)
(0.670988 -0.34477 9.01749e-22)
(0.442518 -0.347561 -1.27236e-21)
(0.463602 -0.337361 -1.9772e-22)
(0.511652 -0.336391 1.15025e-21)
(0.547957 -0.337156 -2.46769e-21)
(0.585529 -0.337958 2.04091e-21)
(0.616961 -0.338721 3.7159e-21)
(0.646326 -0.339103 -2.34747e-21)
(0.671351 -0.339295 2.78117e-21)
(0.693133 -0.338447 -1.29319e-21)
(0.477107 -0.331547 3.47251e-21)
(0.495545 -0.325366 1.17546e-21)
(0.541843 -0.324527 -2.76913e-21)
(0.577724 -0.326148 1.41466e-21)
(0.613644 -0.327039 -3.98229e-21)
(0.644193 -0.328051 -7.05962e-22)
(0.672048 -0.328581 1.62537e-23)
(0.695719 -0.328821 -1.31942e-21)
(0.715953 -0.328232 -2.58663e-21)
(0.508863 -0.313969 -1.90185e-21)
(0.525661 -0.30909 1.61776e-21)
(0.570848 -0.308587 2.38237e-21)
(0.606388 -0.310862 7.18287e-23)
(0.640985 -0.311947 1.79225e-21)
(0.670675 -0.313143 6.01013e-21)
(0.697278 -0.313741 -3.74178e-21)
(0.719864 -0.313951 6.8925e-22)
(0.739182 -0.313273 1.63971e-21)
(0.538358 -0.293956 2.91285e-23)
(0.554213 -0.289233 -5.97617e-22)
(0.598413 -0.288962 2.52683e-22)
(0.633696 -0.291428 -1.4874e-21)
(0.667293 -0.292635 6.34618e-22)
(0.696288 -0.293863 -1.33974e-21)
(0.722004 -0.294411 7.49496e-22)
(0.743921 -0.294485 2.98606e-21)
(0.762927 -0.293373 7.68652e-22)
(0.5657 -0.270992 3.55648e-22)
(0.581072 -0.265946 -3.70504e-21)
(0.62433 -0.265798 2.43751e-22)
(0.659485 -0.267973 3.55058e-21)
(0.692377 -0.269112 -1.1814e-21)
(0.720907 -0.270172 -1.76026e-21)
(0.746082 -0.270533 -5.61505e-22)
(0.767686 -0.270369 -5.40582e-21)
(0.786488 -0.269199 3.22206e-21)
(0.590177 -0.245898 4.14461e-22)
(0.606047 -0.239611 2.7076e-21)
(0.648492 -0.239298 4.7887e-22)
(0.683674 -0.240626 -1.77445e-21)
(0.716113 -0.241402 3.87859e-22)
(0.744422 -0.242022 -9.23465e-22)
(0.769388 -0.241958 1.44268e-21)
(0.790981 -0.241302 -1.41941e-21)
(0.809882 -0.239672 -9.70842e-22)
(0.610805 -0.219394 -1.2663e-21)
(0.629498 -0.210462 2.4385e-21)
(0.671076 -0.209475 -5.6797e-22)
(0.706259 -0.209434 1.14914e-21)
(0.73839 -0.209537 -8.61486e-22)
(0.766694 -0.209438 2.5845e-21)
(0.791758 -0.208703 3.67634e-21)
(0.813649 -0.207416 -5.13922e-21)
(0.833085 -0.204597 1.57148e-21)
(0.628187 -0.188695 -3.4129e-22)
(0.652108 -0.17758 5.10025e-22)
(0.692243 -0.175715 3.42781e-22)
(0.727127 -0.174287 -1.22849e-21)
(0.759018 -0.173548 -3.42036e-22)
(0.78751 -0.172492 -1.12031e-21)
(0.812939 -0.17081 -6.3433e-22)
(0.835437 -0.16848 5.16206e-21)
(0.855425 -0.165152 -5.94572e-22)
(0.644392 -0.151008 6.54397e-22)
(0.67337 -0.139848 -1.89083e-21)
(0.711268 -0.137592 -1.06872e-21)
(0.745744 -0.1353 2.92525e-22)
(0.777628 -0.13368 -3.8732e-22)
(0.806596 -0.131443 1.72946e-21)
(0.832697 -0.128464 2.49123e-22)
(0.856022 -0.124682 3.47095e-21)
(0.876822 -0.119668 -1.51749e-22)
(0.661236 -0.108611 -6.63705e-22)
(0.691618 -0.0989055 -1.80129e-22)
(0.726855 -0.0964472 7.39196e-22)
(0.761418 -0.0934454 1.19321e-21)
(0.793825 -0.0906519 -3.58805e-22)
(0.823682 -0.0868958 -4.07882e-22)
(0.850835 -0.0822499 -1.06875e-21)
(0.875391 -0.0766191 -3.95026e-21)
(0.897417 -0.0697894 -6.03539e-22)
(0.677286 -0.0662353 1.19341e-21)
(0.704923 -0.0586427 1.7946e-21)
(0.738729 -0.0546669 -1.41347e-21)
(0.774079 -0.0502044 7.50329e-22)
(0.807521 -0.0454525 -1.37204e-22)
(0.838578 -0.0396361 2.35167e-21)
(0.866979 -0.0329061 2.2759e-22)
(0.892815 -0.0251481 -1.9506e-21)
(0.916271 -0.0173061 -1.43087e-21)
(0.68849 -0.0266587 2.88462e-22)
(0.714269 -0.020093 -3.80691e-22)
(0.747955 -0.0133125 7.05278e-23)
(0.784358 -0.0063492 4.83901e-22)
(0.819015 0.00127366 -3.28069e-22)
(0.851377 0.00981372 -4.23039e-22)
(0.881105 0.0192571 -7.89412e-22)
(0.908233 0.0295766 1.47736e-21)
(0.933169 0.0407924 -8.93417e-22)
(0.69404 0.0118177 -4.0335e-22)
(0.720871 0.0181787 -1.61432e-23)
(0.755321 0.0281981 -2.68308e-22)
(0.792785 0.038255 7.60107e-22)
(0.828566 0.0493102 -1.39117e-22)
(0.862154 0.0609844 -8.12795e-23)
(0.893164 0.0734455 -5.46679e-22)
(0.921621 0.0865495 6.86183e-23)
(0.947605 0.100849 5.15907e-22)
(0.693744 0.0513699 1.27796e-21)
(0.724763 0.0576212 -1.922e-22)
(0.760868 0.0710566 1.49791e-21)
(0.799387 0.0842615 -2.16432e-21)
(0.836125 0.0988621 2.44492e-22)
(0.870788 0.113827 7.87179e-22)
(0.902986 0.129528 5.58563e-22)
(0.932773 0.145909 8.07437e-22)
(0.9602 0.163446 -2.86692e-21)
(0.68643 0.0951291 5.87516e-22)
(0.725159 0.100345 -5.81575e-22)
(0.763928 0.116707 -2.15507e-21)
(0.803585 0.132448 2.87416e-21)
(0.841225 0.15016 9.8507e-22)
(0.876908 0.168167 -5.20452e-22)
(0.91028 0.186941 -5.91896e-23)
(0.941332 0.206432 2.18088e-21)
(0.969751 0.226565 -9.5357e-22)
(0.675677 0.143177 2.59269e-21)
(0.719512 0.147665 -1.80597e-21)
(0.762666 0.165762 2.08402e-21)
(0.804077 0.183102 -1.4222e-21)
(0.842913 0.203175 -1.51687e-21)
(0.879753 0.223802 6.09293e-21)
(0.914338 0.245409 -4.03378e-21)
(0.946664 0.267929 -1.64092e-21)
(0.976933 0.290512 4.05928e-22)
(0.664373 0.191587 -3.45633e-21)
(0.708661 0.196508 2.53362e-21)
(0.755848 0.216516 -1.17759e-21)
(0.799706 0.235159 1.84071e-21)
(0.840304 0.25719 4.20041e-22)
(0.878701 0.280228 -4.98479e-21)
(0.914783 0.304682 4.59744e-22)
(0.948525 0.330442 -2.40676e-21)
(0.980157 0.357078 -3.10228e-21)
(0.651697 0.237703 -7.37244e-22)
(0.693653 0.243837 -5.82955e-22)
(0.743737 0.266478 -1.34557e-21)
(0.790183 0.286897 -5.3829e-21)
(0.832962 0.310923 1.31468e-21)
(0.873355 0.336299 2.27588e-21)
(0.911393 0.36344 2.61409e-21)
(0.947145 0.392075 3.27761e-21)
(0.980561 0.422287 -1.53256e-21)
(0.636663 0.281458 5.85468e-22)
(0.675351 0.288736 1.46897e-22)
(0.727133 0.314213 4.69941e-21)
(0.775742 0.336967 -4.01923e-22)
(0.82075 0.363224 2.3063e-21)
(0.863291 0.391046 -1.5819e-21)
(0.903428 0.420842 -1.10585e-20)
(0.941325 0.452273 -1.70423e-21)
(0.977386 0.485146 -2.42241e-22)
(0.618059 0.323542 1.40404e-21)
(0.653563 0.331195 -6.53734e-21)
(0.706472 0.359075 4.01639e-21)
(0.756696 0.384504 -4.71935e-21)
(0.803787 0.413249 3.59243e-21)
(0.848473 0.443801 -8.50401e-22)
(0.890744 0.476555 3.29262e-21)
(0.930677 0.511187 2.95405e-21)
(0.967846 0.54821 -1.04376e-21)
(0.595906 0.363369 3.29721e-21)
(0.627762 0.37073 6.07438e-21)
(0.681903 0.400349 -1.10115e-20)
(0.73325 0.428752 1.29329e-21)
(0.782187 0.460168 -9.90039e-21)
(0.828922 0.493635 2.8575e-21)
(0.873481 0.529398 1.12203e-21)
(0.916206 0.567211 -1.6658e-21)
(0.955587 0.609227 -8.15314e-22)
(0.571395 0.397403 -2.2187e-21)
(0.598481 0.406299 -5.16989e-21)
(0.654166 0.437448 6.11779e-21)
(0.706031 0.469442 6.41159e-21)
(0.756378 0.503765 6.96182e-21)
(0.804766 0.540336 -4.67907e-22)
(0.851312 0.579065 -2.34457e-21)
(0.896725 0.620226 6.86262e-21)
(0.938591 0.666352 -1.8273e-20)
(0.54448 0.422409 7.47487e-22)
(0.566401 0.43666 2.77767e-21)
(0.622721 0.46931 -1.79255e-21)
(0.673964 0.505219 3.40796e-21)
(0.724948 0.542539 -6.54523e-21)
(0.774423 0.582517 -1.78778e-21)
(0.822508 0.624224 9.89146e-21)
(0.871031 0.66904 -1.03581e-20)
(0.917122 0.722602 1.15305e-20)
(0.513533 0.441344 1.42033e-21)
(0.535011 0.46756 4.48248e-22)
(0.592344 0.503816 1.84497e-21)
(0.642948 0.542375 -3.95296e-21)
(0.694132 0.582049 1.08847e-21)
(0.743327 0.624572 -5.55101e-21)
(0.791606 0.668136 3.80703e-21)
(0.844441 0.71472 -3.60564e-21)
(0.893385 0.770355 -4.47292e-22)
(0.326972 0.287186 -3.24251e-22)
(0.32016 0.285346 -3.96104e-22)
(0.312948 0.283031 -1.25969e-21)
(0.304983 0.28034 1.77767e-21)
(0.296268 0.277247 -1.34218e-21)
(0.286786 0.273701 1.02081e-21)
(0.276534 0.269644 3.95897e-22)
(0.265524 0.265014 -1.13127e-22)
(0.253788 0.25974 -7.41412e-22)
(0.241378 0.253748 -3.03419e-22)
(0.228367 0.246962 3.39808e-22)
(0.214849 0.2393 -3.71411e-22)
(0.200937 0.230685 1.03647e-21)
(0.18676 0.221041 -2.63008e-21)
(0.172452 0.210294 4.56526e-21)
(0.158157 0.198387 -5.16223e-21)
(0.144022 0.18528 4.59174e-21)
(0.130186 0.170952 -2.08758e-21)
(0.116784 0.155421 -6.8814e-22)
(0.103931 0.138747 7.15281e-22)
(0.0917108 0.121049 -2.46597e-22)
(0.0801496 0.102514 5.44183e-22)
(0.0691147 0.0833442 2.95593e-23)
(0.0584439 0.0640913 -7.59247e-22)
(0.0479664 0.045078 5.95636e-22)
(0.0389473 0.0261088 -3.14694e-22)
(0.0335036 0.00691639 4.21847e-22)
(0.0323028 -0.0129898 3.26749e-22)
(0.0355538 -0.033705 -4.00886e-22)
(0.0416341 -0.0555149 1.06302e-23)
(0.0481433 -0.0784074 -3.51599e-22)
(0.0549131 -0.10162 3.24345e-22)
(0.0626539 -0.124805 6.17318e-22)
(0.0716243 -0.147731 -5.14123e-22)
(0.0818466 -0.169974 7.41404e-22)
(0.0933033 -0.191298 -1.21928e-21)
(0.105892 -0.211493 1.04758e-22)
(0.119468 -0.230399 2.60895e-22)
(0.13387 -0.247904 -4.04815e-22)
(0.148934 -0.263932 9.08209e-22)
(0.164499 -0.278458 -5.10721e-22)
(0.180413 -0.291489 -2.19348e-21)
(0.19652 -0.303055 4.5165e-21)
(0.212676 -0.313214 -4.80439e-21)
(0.228743 -0.322056 4.16314e-21)
(0.244578 -0.329673 -2.45298e-21)
(0.260044 -0.33617 1.25804e-21)
(0.275014 -0.341662 -4.48575e-22)
(0.289365 -0.346259 3.98651e-22)
(0.302992 -0.350057 -4.47923e-22)
(0.315855 -0.353145 -5.98483e-22)
(0.327937 -0.355605 -1.57882e-22)
(0.339228 -0.357524 3.46978e-22)
(0.349725 -0.358985 8.17737e-22)
(0.359438 -0.360058 -1.24613e-21)
(0.368388 -0.36081 1.6222e-21)
(0.376598 -0.361297 -1.11157e-21)
(0.384094 -0.361556 -3.8744e-22)
(0.390972 -0.36168 -2.77486e-22)
(0.343582 0.257882 -1.63729e-23)
(0.337348 0.25619 4.2223e-23)
(0.330641 0.254422 -1.29284e-22)
(0.323357 0.252488 2.96072e-22)
(0.315491 0.250359 4.64893e-23)
(0.307043 0.247946 -7.46027e-22)
(0.297998 0.245193 1.35386e-22)
(0.28834 0.242031 -5.15988e-23)
(0.278059 0.238383 5.57556e-22)
(0.267168 0.234161 -7.74679e-23)
(0.255692 0.229268 -1.59087e-22)
(0.243679 0.223602 -2.97694e-22)
(0.2312 0.217061 6.70994e-22)
(0.218337 0.209548 -6.79718e-22)
(0.205202 0.200973 7.07353e-22)
(0.191911 0.191263 -2.0412e-22)
(0.178592 0.180366 -4.33058e-22)
(0.165378 0.168249 4.13253e-22)
(0.152396 0.154908 2.17292e-22)
(0.139759 0.140361 2.22448e-23)
(0.127569 0.124644 7.18365e-24)
(0.115912 0.107798 -5.61545e-22)
(0.10488 0.0898251 4.38806e-22)
(0.0947365 0.0706542 -1.24139e-22)
(0.0859738 0.0499767 5.16341e-22)
(0.0791511 0.0277106 -2.21785e-22)
(0.0747419 0.00409422 -3.08365e-23)
(0.0729113 -0.0203072 1.17873e-22)
(0.0737875 -0.0447942 5.89755e-24)
(0.0773595 -0.0687492 -8.09122e-24)
(0.0828205 -0.0920337 -9.30181e-23)
(0.0896626 -0.114804 5.51472e-23)
(0.0978843 -0.137037 -4.77817e-23)
(0.107391 -0.158614 -1.49826e-22)
(0.118064 -0.179372 4.55082e-23)
(0.129815 -0.199156 4.21419e-23)
(0.142537 -0.217814 2.73932e-22)
(0.1561 -0.235222 -4.9181e-22)
(0.170356 -0.251285 2.06851e-24)
(0.18515 -0.265937 -8.10758e-23)
(0.200324 -0.279143 1.06498e-22)
(0.215718 -0.290896 3.90483e-22)
(0.231175 -0.301213 -7.57269e-22)
(0.246543 -0.310141 -4.56191e-22)
(0.261671 -0.317749 9.44862e-22)
(0.276424 -0.32413 -8.37019e-22)
(0.290678 -0.329397 6.2999e-22)
(0.304328 -0.333682 -1.40706e-22)
(0.317285 -0.337116 -2.69878e-22)
(0.32955 -0.339803 1.55775e-23)
(0.341175 -0.341826 5.86147e-22)
(0.352162 -0.343269 -1.43684e-22)
(0.362505 -0.344227 1.67876e-22)
(0.372222 -0.34478 -7.92306e-22)
(0.381338 -0.344996 1.20607e-22)
(0.389876 -0.344949 3.01611e-22)
(0.397825 -0.344717 -1.98466e-22)
(0.405224 -0.344335 6.00727e-23)
(0.412168 -0.34392 -2.95434e-23)
(0.397609 0.247675 -4.62592e-22)
(0.391251 0.24607 9.00372e-23)
(0.384445 0.244279 -4.01504e-22)
(0.377173 0.24227 -9.86764e-23)
(0.369416 0.23999 1.38506e-21)
(0.361155 0.237395 -4.33281e-22)
(0.35237 0.234439 -8.36363e-22)
(0.343048 0.231071 -1.12512e-23)
(0.333182 0.227228 4.99469e-22)
(0.322778 0.222839 -1.31405e-22)
(0.311853 0.217828 1.35674e-21)
(0.30044 0.212111 -1.58794e-21)
(0.28859 0.205602 1.43394e-21)
(0.276373 0.198215 -1.87414e-22)
(0.263872 0.189869 -1.24092e-21)
(0.251188 0.18049 3.64159e-22)
(0.238433 0.170017 1.46042e-21)
(0.225725 0.158402 -5.96658e-22)
(0.213188 0.145609 -1.31985e-22)
(0.200947 0.131613 2.48814e-23)
(0.189134 0.116393 -4.01692e-22)
(0.177891 0.0999268 1.06919e-22)
(0.167394 0.0821735 -9.70597e-22)
(0.157892 0.0630879 1.1607e-21)
(0.149723 0.0426652 -4.52253e-22)
(0.143332 0.0209998 -1.28494e-24)
(0.139192 -0.00167438 6.15446e-23)
(0.137584 -0.0250073 -2.94686e-22)
(0.138561 -0.0485991 1.79045e-22)
(0.141903 -0.0720095 9.83198e-23)
(0.147171 -0.0949288 2.30654e-22)
(0.154011 -0.117247 -2.29603e-22)
(0.162226 -0.138877 1.07353e-22)
(0.17167 -0.159711 1.57879e-22)
(0.18221 -0.179644 -4.83234e-22)
(0.193732 -0.198576 1.37705e-21)
(0.206116 -0.216408 -8.92084e-22)
(0.219232 -0.233053 -2.13294e-22)
(0.232945 -0.248442 -2.09134e-22)
(0.24711 -0.262528 -7.20153e-23)
(0.261582 -0.275286 -3.59736e-22)
(0.27621 -0.286717 -5.82731e-22)
(0.290853 -0.296843 1.45508e-21)
(0.305371 -0.30571 6.80614e-22)
(0.319639 -0.313383 -1.39502e-21)
(0.333548 -0.319943 -4.43698e-22)
(0.347008 -0.325483 1.43588e-21)
(0.359954 -0.330103 -1.66922e-21)
(0.372345 -0.333899 1.1763e-21)
(0.384165 -0.336971 -4.83747e-23)
(0.395379 -0.339411 4.59364e-22)
(0.405962 -0.341312 7.76043e-23)
(0.415912 -0.342749 -8.19365e-22)
(0.425246 -0.343793 -3.9639e-22)
(0.433981 -0.344493 1.2936e-21)
(0.442154 -0.344898 -4.12424e-23)
(0.449793 -0.34505 -3.81912e-22)
(0.456948 -0.344998 1.13466e-22)
(0.463658 -0.344773 -4.32247e-22)
(0.434773 0.241834 -1.32572e-22)
(0.428405 0.240647 6.27638e-22)
(0.421622 0.239287 -3.0416e-22)
(0.414361 0.237673 2.33588e-22)
(0.406617 0.235779 -2.61308e-22)
(0.398376 0.233562 -1.9808e-23)
(0.389625 0.230973 -1.72149e-22)
(0.380361 0.227956 -4.60019e-22)
(0.370582 0.224446 3.10066e-22)
(0.360295 0.220374 3.93386e-22)
(0.34952 0.215661 3.11551e-22)
(0.338285 0.210225 -1.13844e-21)
(0.326637 0.203978 1.04629e-21)
(0.314634 0.196834 -2.11271e-22)
(0.302353 0.188707 1.47369e-22)
(0.289888 0.179518 -6.29212e-22)
(0.277344 0.169194 6.14753e-22)
(0.264846 0.157675 -2.52474e-22)
(0.252529 0.144911 -3.55323e-22)
(0.24054 0.130861 2.01923e-22)
(0.229043 0.115497 -1.08753e-22)
(0.218218 0.0987964 -5.72722e-22)
(0.208276 0.0807503 3.79272e-22)
(0.199462 0.0613697 3.78482e-22)
(0.192061 0.0407115 -3.13328e-22)
(0.186365 0.0189055 3.53533e-23)
(0.182639 -0.00382029 3.62084e-22)
(0.181053 -0.0271511 -4.29261e-22)
(0.181666 -0.050732 1.43354e-22)
(0.184408 -0.0742121 -3.89165e-23)
(0.189085 -0.0973118 1.83305e-22)
(0.195479 -0.119843 -4.34809e-22)
(0.203399 -0.141662 3.33151e-22)
(0.212668 -0.162646 -7.97848e-24)
(0.223117 -0.182686 -4.32691e-22)
(0.234591 -0.201682 1.79539e-22)
(0.246937 -0.219545 4.8413e-22)
(0.259999 -0.236195 -2.43106e-22)
(0.273625 -0.251573 -1.89127e-22)
(0.287662 -0.265638 3.51297e-22)
(0.301956 -0.278369 -1.24205e-22)
(0.316361 -0.28977 -1.39319e-22)
(0.330735 -0.299867 8.13857e-22)
(0.34495 -0.308704 -7.61414e-22)
(0.358888 -0.316347 3.22871e-22)
(0.372453 -0.322872 -7.2291e-23)
(0.385563 -0.328368 1.05202e-21)
(0.398158 -0.332927 -9.94785e-22)
(0.410194 -0.336644 3.99677e-22)
(0.421643 -0.339612 3.31463e-22)
(0.432491 -0.341917 3.29081e-22)
(0.44274 -0.343645 -4.85817e-22)
(0.452401 -0.344875 -1.12976e-22)
(0.461494 -0.345674 -1.40512e-22)
(0.470014 -0.346137 -2.29172e-22)
(0.478007 -0.346292 1.68585e-22)
(0.485536 -0.346158 -3.03168e-22)
(0.492613 -0.345796 6.19063e-22)
(0.499282 -0.345276 -1.75713e-22)
(0.481253 0.238509 -8.0841e-22)
(0.474916 0.237183 7.95623e-23)
(0.468107 0.235677 7.87486e-22)
(0.460801 0.233939 -5.64861e-22)
(0.45299 0.23193 1.49059e-22)
(0.444669 0.229601 4.86888e-22)
(0.435833 0.226903 -6.28544e-22)
(0.426485 0.223777 2.34226e-22)
(0.416633 0.220162 7.44956e-22)
(0.406292 0.215989 -2.63532e-22)
(0.395487 0.211185 -7.75362e-22)
(0.384251 0.205673 -2.50131e-22)
(0.372631 0.199371 6.5284e-22)
(0.360688 0.192196 5.75422e-22)
(0.348495 0.184065 -1.37245e-22)
(0.336142 0.174899 -7.99391e-22)