/*--------------------------------*- C++ -*----------------------------------*\
  =========                 |
  \\      /  F ield         | OpenFOAM: The Open Source CFD Toolbox
   \\    /   O peration     | Website:  https://openfoam.org
    \\  /    A nd           | Version:  10
     \\/     M anipulation  |
\*---------------------------------------------------------------------------*/
FoamFile
{
    format      ascii;
    class       volScalarField;
    location    "1100";
    object      epsilon;
}
// * * * * * * * * * * * * * * * * * * * * * * * * * * * * * * * * * * * * * //

dimensions      [0 2 -3 0 0 0 0];

internalField   nonuniform List<scalar> 
23845
(
0.042497
0.0594315
0.0573281
0.0138076
0.0409163
0.00243591
0.0765664
0.0107274
0.00177229
0.0258638
0.0239498
0.00206226
0.00339651
0.00212592
0.121935
0.0123387
0.00642185
0.00880728
0.00446733
0.00314579
0.0337954
0.0210342
0.0278739
0.00177858
0.0262047
0.00119167
0.0518686
0.00288392
0.0103208
0.00310788
0.0153602
0.0243409
0.135153
0.00938653
0.00207628
0.00256651
0.0205344
0.00208771
0.00218957
0.00197009
0.00407607
0.00612808
0.0028457
0.00593323
0.000849295
0.00407577
0.0282117
0.0142735
0.0225104
0.01083
0.0143704
0.0466679
0.0274311
0.00253767
0.0236158
0.00560111
0.054664
0.0110449
0.0429576
0.0353143
0.0104787
0.0063603
0.0106914
0.0125916
0.00156826
0.00347698
0.0548151
0.000705305
0.000737259
0.00561952
0.0104687
0.041872
0.00156277
0.10575
0.00132358
0.117947
0.00206854
0.00221899
0.0113037
0.00959781
0.0394808
0.0961369
0.0596908
0.0111001
0.0642756
0.00209074
0.080471
0.0287946
0.00152689
0.00798022
0.0140381
0.00528853
0.0109572
0.00258264
0.011356
0.012365
0.0056844
0.0160986
0.00129017
0.0323568
0.00668789
0.0595016
0.0507357
0.0135709
0.0128026
0.011455
0.00245069
0.00114368
0.0470469
0.00579667
0.0213786
0.00211929
0.0891511
0.0215264
0.00268612
0.0239887
0.00144388
0.0152726
0.0104646
0.0128146
0.00216438
0.0174136
0.00569236
0.0214353
0.0632763
0.00131865
0.0104131
0.0107088
0.0400145
0.0310576
0.0565838
0.038637
0.0277046
0.00226117
0.00854642
0.048527
0.0128569
0.00204179
0.0457413
0.00223167
0.0117568
0.0057356
0.00221492
0.0063949
0.00892892
0.00542149
0.018862
0.0853567
0.0189199
0.00935269
0.127343
0.00232858
0.0693731
0.00278633
0.0828076
0.016791
0.0470331
0.00228245
0.0763705
0.0113175
0.00723078
0.118718
0.01171
0.00162944
0.00212255
0.0120215
0.00229935
0.0159036
0.00301818
0.00535279
0.0022949
0.0149699
0.0017359
0.0180079
0.00163566
0.0111026
0.0061022
0.0221857
0.00109737
0.00225125
0.0325125
0.0285159
0.103276
0.018868
0.0110129
0.0044726
0.00607989
0.0109908
0.0104601
0.00588968
0.0117385
0.00221043
0.0021705
0.00239156
0.0079153
0.00211179
0.0122236
0.0106786
0.0212751
0.0228551
0.0137067
0.00232228
0.0167623
0.0342838
0.0109144
0.0115225
0.0541093
0.00232581
0.0509765
0.00989215
0.0103578
0.0144784
0.00762449
0.00306053
0.0185024
0.0219464
0.0290516
0.00669416
0.0175571
0.0527668
0.00182375
0.113279
0.0123635
0.0138127
0.0055332
0.126345
0.0135272
0.0022363
0.0024256
0.00420759
0.00242828
0.0200111
0.00215195
0.000830157
0.0418858
0.0102194
0.00149883
0.0139573
0.00176335
0.0165922
0.0262555
0.017253
0.011071
0.0400766
0.0163716
0.0117748
0.00240686
0.000716335
0.0112573
0.115694
0.00432803
0.00222188
0.0141673
0.00261482
0.101481
0.0136322
0.0153729
0.0124478
0.00274404
0.00192228
0.032877
0.00230377
0.0103918
0.0207363
0.0180991
0.00170831
0.0111037
0.0257888
0.0198762
0.0131784
0.00221502
0.0136939
0.0156048
0.00227611
0.0187535
0.00214599
0.0122367
0.00232757
0.0201397
0.0264328
0.0121484
0.00246408
0.0130535
0.0106824
0.0021365
0.0133611
0.018606
0.00225627
0.011278
0.0951025
0.0110937
0.0179584
0.0119735
0.0122558
0.0111766
0.00211577
0.0165791
0.0024308
0.00212021
0.011106
0.0815328
0.117442
0.0102099
0.0131127
0.00239164
0.0138662
0.013747
0.0151568
0.00631606
0.0113593
0.0160927
0.0630574
0.0045727
0.00231863
0.0325798
0.0113125
0.0149114
0.0295666
0.0134483
0.00204439
0.014371
0.0151829
0.0266111
0.00313888
0.109008
0.00231589
0.0117281
0.0292083
0.0154943
0.00934191
0.0687659
0.0124811
0.013805
0.00227989
0.0159405
0.0148533
0.0200714
0.00840514
0.00516794
0.011246
0.0169389
0.0221302
0.0214452
0.00090255
0.000883498
0.0236539
0.00225484
0.0123575
0.0115115
0.111142
0.0192176
0.0551371
0.0107504
0.0130967
0.0279486
0.00214882
0.00487256
0.00166418
0.0982352
0.0109329
0.0281199
0.00145988
0.0181167
0.00922271
0.0104517
0.00231721
0.0205225
0.00271408
0.0107552
0.00115649
0.00580952
0.0141286
0.0252084
0.00205718
0.00236665
0.0135842
0.0304003
0.0164537
0.00533008
0.0142551
0.105623
0.00236207
0.0271116
0.00083087
0.000861544
0.00215442
0.00245182
0.0111483
0.0131251
0.0110782
0.06108
0.00510316
0.0166136
0.0150891
0.016861
0.0118039
0.0176311
0.00107749
0.00599906
0.00232573
0.024711
0.0175536
0.0117227
0.0198467
0.0463015
0.108533
0.0022816
0.0198028
0.0113803
0.0122597
0.125444
0.000772101
0.085346
0.0221871
0.0505566
0.036157
0.0212642
0.0167012
0.00229157
0.0219102
0.0945493
0.00390856
0.00189866
0.0113867
0.0108512
0.0529455
0.0828244
0.0170853
0.0221875
0.0269558
0.00220447
0.00858963
0.0230701
0.00801881
0.00376935
0.00138631
0.00204807
0.00432194
0.0103674
0.0208545
0.115663
0.065208
0.0122227
0.038072
0.0172595
0.0164568
0.00324885
0.019655
0.00230118
0.0151796
0.0111827
0.0022487
0.0537524
0.00229105
0.000867442
0.0207361
0.035872
0.0365837
0.0116303
0.00251235
0.0537267
0.0125589
0.0127079
0.0330327
0.00244215
0.00229426
0.00245239
0.0191464
0.000949861
0.111581
0.00299668
0.00234408
0.016007
0.0110371
0.014531
0.0389276
0.00191868
0.0165875
0.00281452
0.00755167
0.0233302
0.0196287
0.0147355
0.0198909
0.013227
0.0930032
0.00220544
0.00211354
0.0608869
0.0198264
0.00118629
0.0789302
0.0123366
0.0208603
0.0110073
0.0252542
0.00147022
0.0329724
0.00138001
0.00229157
0.0741884
0.0126721
0.025837
0.0234965
0.0113569
0.0113537
0.0186175
0.00309955
0.00284892
0.0221071
0.0145013
0.0347443
0.0197293
0.0151422
0.00229576
0.000986733
0.0184179
0.119892
0.0905475
0.00493567
0.0262298
0.00260943
0.00922409
0.0186487
0.00109113
0.0810449
0.105809
0.0131703
0.0305753
0.0115208
0.0103842
0.111465
0.0319516
0.0266841
0.00576696
0.0032055
0.0026606
0.0173835
0.0256349
0.0116654
0.0611421
0.00245477
0.0242403
0.0251885
0.00763146
0.0240419
0.0201493
0.00296385
0.00295239
0.00280871
0.00272497
0.00210636
0.0207691
0.00313873
0.0109124
0.0663603
0.00493805
0.0313104
0.00228377
0.00269146
0.0113075
0.0116083
0.0408679
0.00331751
0.00486759
0.0183218
0.0127996
0.00143908
0.0103545
0.00272131
0.00104053
0.0819732
0.00461713
0.0024218
0.0146915
0.0313827
0.017596
0.0827524
0.0119491
0.0275233
0.00117571
0.00208922
0.00816483
0.0729572
0.019301
0.00452847
0.00159217
0.00168517
0.0123516
0.00162558
0.0280824
0.120651
0.0509984
0.0166011
0.0112715
0.00486306
0.000979717
0.00258537
0.00841743
0.0020863
0.0431985
0.00295353
0.0260665
0.10686
0.0176206
0.0325394
0.0126502
0.0268259
0.0883637
0.0157662
0.0235084
0.0501675
0.0555725
0.0312035
0.0239836
0.0511902
0.0266418
0.0480832
0.00323991
0.00280277
0.0270136
0.0105079
0.0258844
0.015088
0.0508796
0.0114332
0.0036993
0.00634617
0.00246076
0.0106027
0.00325913
0.00356542
0.0227534
0.00274014
0.00207609
0.100234
0.0513458
0.0148665
0.00121793
0.0160771
0.0399533
0.0122679
0.00290962
0.00290666
0.0385708
0.0316259
0.0372086
0.00251375
0.0308697
0.0530926
0.00262675
0.00217884
0.0250332
0.0118855
0.0112622
0.134508
0.0357167
0.0247953
0.0144102
0.022056
0.0124978
0.00616001
0.00993965
0.0516892
0.00892664
0.00123516
0.00236081
0.0375313
0.0165391
0.0299655
0.00945371
0.0126398
0.0213051
0.0136653
0.0118003
0.0227086
0.0107658
0.0248341
0.0197441
0.00912044
0.0246798
0.00917336
0.00504972
0.00842968
0.00880988
0.0350024
0.00523739
0.007377
0.0293293
0.029391
0.00657205
0.00563083
0.0128834
0.0146516
0.0166241
0.0194681
0.0216241
0.0111927
0.0235664
0.010196
0.0230839
0.00872752
0.0180795
0.00807779
0.00864606
0.00912922
0.00701318
0.00599233
0.00626492
0.00361789
0.00578531
0.0176698
0.00177864
0.00535095
0.00621092
0.00572056
0.00249508
0.0180183
0.0054116
0.0154291
0.0174093
0.0104582
0.00509191
0.00563421
0.0027686
0.0165952
0.0124779
0.0262892
0.00217854
0.0147211
0.00460087
0.0080511
0.00293499
0.00507183
0.0230763
0.0083947
0.0258744
0.005232
0.00242626
0.00359865
0.00100445
0.00433646
0.0130749
0.0107166
0.00166511
0.00476613
0.024766
0.00415476
0.00381729
0.00329998
0.0801498
0.00488046
0.000815538
0.0333249
0.0059826
0.0184778
0.0242481
0.0209919
0.0206082
0.0181987
0.0238749
0.00521207
0.0107805
0.0151392
0.0193497
0.00972216
0.0116779
0.0076848
0.0578552
0.00688307
0.00374326
0.0207614
0.0189772
0.0266852
0.0172629
0.0166296
0.00345272
0.0441756
0.0198266
0.00872751
0.00604761
0.00796614
0.0154319
0.00216289
0.0175697
0.00402506
0.00383184
0.00598988
0.00423909
0.00386694
0.00560978
0.00543637
0.00878958
0.00524635
0.00448721
0.00509282
0.0371619
0.0104258
0.00369053
0.00757843
0.00648536
0.00491022
0.0262318
0.016233
0.0220446
0.0118456
0.00542061
0.00353146
0.00546683
0.00497472
0.0528172
0.0217995
0.0208429
0.00960112
0.00372821
0.0108002
0.0111931
0.0171851
0.00402065
0.00588297
0.00177335
0.00221474
0.00720006
0.00256718
0.00258851
0.00128735
0.00351725
0.00153262
0.00207428
0.00166031
0.00150623
0.0011876
0.00284399
0.0038645
0.00225724
0.00238878
0.00866413
0.00518235
0.00599887
0.0376136
0.0225579
0.00112211
0.00163351
0.00469932
0.025796
0.0159519
0.0231297
0.0140793
0.00952299
0.00367516
0.00388604
0.00520509
0.00802628
0.00841434
0.00336552
0.00561088
0.00325386
0.0065745
0.00203346
0.100913
0.00214425
0.0185182
0.00623891
0.0275643
0.00344813
0.00465731
0.00650354
0.00457944
0.0132868
0.0104512
0.00491437
0.015183
0.00287051
0.0032499
0.00189564
0.0018574
0.00152666
0.00142302
0.00480804
0.00490311
0.00368685
0.018527
0.00373194
0.0178919
0.0193362
0.0184813
0.00515455
0.0141597
0.00474261
0.00173722
0.00679804
0.00137167
0.0111153
0.00337698
0.00147561
0.0163806
0.00313427
0.00200608
0.0149714
0.00334212
0.00917986
0.0176643
0.0113071
0.00537665
0.00975953
0.00357632
0.00783268
0.00359711
0.0186349
0.0314358
0.00220624
0.00974305
0.0135592
0.0146046
0.0305456
0.0168825
0.00438434
0.00865554
0.00736315
0.00632227
0.135258
0.0173963
0.00573927
0.00500286
0.00292507
0.0224638
0.00511369
0.126952
0.00476075
0.00156836
0.00433376
0.00272236
0.00558463
0.00449117
0.00456083
0.0379638
0.00375585
0.025655
0.00832662
0.0254492
0.00455983
0.011627
0.0112662
0.0140275
0.0146589
0.00782009
0.0160502
0.00866217
0.0162126
0.0177914
0.0208763
0.00786493
0.0196827
0.0187951
0.0107757
0.029674
0.0237256
0.0166935
0.0236009
0.00359205
0.00696272
0.00840976
0.00608833
0.00279893
0.0055262
0.0140681
0.0060459
0.0034418
0.0164389
0.0135833
0.01729
0.00676076
0.0325499
0.00331791
0.00507188
0.00543669
0.0049192
0.00939132
0.00201737
0.0166942
0.0312353
0.0541882
0.00307375
0.00455573
0.0201453
0.023269
0.00322631
0.0180232
0.0122804
0.0113363
0.0157511
0.01723
0.00607947
0.0185704
0.0237485
0.0210687
0.0278022
0.0281727
0.0300095
0.00313649
0.00837254
0.00825252
0.00451982
0.0128879
0.0156413
0.00481554
0.0241818
0.00321449
0.100132
0.00331195
0.00327192
0.0107774
0.00312333
0.000788838
0.00219088
0.00157831
0.00484776
0.00390135
0.00433208
0.0052718
0.0259318
0.0106992
0.00355341
0.0113296
0.00786871
0.0248472
0.0220137
0.0505699
0.0197654
0.00357775
0.00604396
0.00508592
0.00314121
0.00111947
0.00274321
0.0322807
0.0260024
0.00872873
0.0129935
0.0102177
0.0146174
0.0166788
0.0217737
0.00435074
0.0300165
0.021786
0.0262645
0.0200246
0.0170111
0.0173789
0.00910511
0.0152737
0.0053181
0.0135678
0.0105248
0.00589697
0.00930054
0.00821022
0.00748838
0.00475453
0.00465984
0.012207
0.0223238
0.0249018
0.00341505
0.0183568
0.00342702
0.00228286
0.00704896
0.00205414
0.0123088
0.00672091
0.00585806
0.00573248
0.00557097
0.00511687
0.0293393
0.00247926
0.00317407
0.0250792
0.00650499
0.00117324
0.011851
0.0273571
0.0119885
0.0113202
0.0507405
0.0047367
0.0154902
0.0182174
0.0202246
0.00976281
0.00334411
0.0172715
0.0146628
0.015254
0.0131964
0.0113951
0.010378
0.0303453
0.00899994
0.0211119
0.00389752
0.00711592
0.0343606
0.00617422
0.00855214
0.0451736
0.00638981
0.00105895
0.00241131
0.00562767
0.00295539
0.00424127
0.00351752
0.00330652
0.0272716
0.00518376
0.00465265
0.0297139
0.00301134
0.00326244
0.00329901
0.0459472
0.00487848
0.00418731
0.0272222
0.00222504
0.0013265
0.00369054
0.00425186
0.00401933
0.0182294
0.00232782
0.00410359
0.0129869
0.0226344
0.0262749
0.0186727
0.0145687
0.00353561
0.00775821
0.00538849
0.00618645
0.00356824
0.0272584
0.00832771
0.00310221
0.00309265
0.00959732
0.00845817
0.0260098
0.0118686
0.00359101
0.00471655
0.00323049
0.0245304
0.00763959
0.00165645
0.022926
0.00380714
0.0120323
0.0033948
0.00234677
0.00293038
0.0106578
0.00482866
0.00386361
0.0209863
0.00340629
0.025932
0.00799855
0.00261737
0.0167774
0.00448083
0.013908
0.014703
0.00979865
0.0188015
0.0108494
0.00328555
0.0122689
0.0115768
0.00269706
0.00645492
0.00424208
0.00363669
0.0086421
0.00123026
0.00170572
0.0108133
0.0014734
0.00298936
0.0138132
0.00138084
0.00248417
0.0178356
0.00230603
0.00184313
0.015559
0.0347062
0.0300145
0.00216056
0.0032779
0.021235
0.00228233
0.00245101
0.0367217
0.0207827
0.0367212
0.00800384
0.0322424
0.00451067
0.00677772
0.0133256
0.0181269
0.00352131
0.0158689
0.042694
0.034279
0.0033951
0.00450483
0.00307126
0.00217093
0.0028882
0.00539891
0.00401298
0.130651
0.00890285
0.00485586
0.0244073
0.00761913
0.0205656
0.00317528
0.0274694
0.00494218
0.00768117
0.0378784
0.00419007
0.0101822
0.00279657
0.00355348
0.0531822
0.00279568
0.046896
0.0159785
0.0240372
0.0161729
0.0119469
0.0318797
0.00397179
0.00340507
0.0260853
0.00414721
0.00432863
0.00423775
0.0380266
0.0027721
0.00307089
0.00394239
0.0443955
0.0037505
0.00724156
0.00661514
0.0030185
0.0166557
0.0100106
0.0124449
0.0431889
0.00202673
0.0160706
0.00382409
0.0120948
0.00271824
0.047811
0.00831042
0.00757789
0.00343321
0.0110679
0.0155663
0.00682944
0.0199869
0.0237596
0.00297598
0.00698788
0.00272811
0.0217378
0.0200281
0.00234699
0.0104612
0.00812731
0.0116043
0.0117704
0.0164638
0.00660653
0.0152706
0.0164664
0.0410929
0.0103054
0.0327105
0.00222149
0.0122968
0.00345238
0.00326467
0.0644268
0.0384894
0.0222984
0.00232755
0.0358206
0.00781388
0.0063522
0.0411285
0.00668085
0.0461643
0.0102307
0.0469849
0.0156749
0.00231994
0.105889
0.0145247
0.0137735
0.0116838
0.0402141
0.0459892
0.00292247
0.00430147
0.142446
0.0331829
0.0033198
0.0461632
0.0486118
0.00453174
0.0328412
0.00445997
0.0407491
0.00775729
0.0117558
0.00160494
0.0359375
0.0369164
0.00213612
0.121876
0.0431546
0.00199053
0.0121088
0.00362218
0.0218689
0.0337928
0.0110732
0.00290677
0.0317265
0.0316813
0.00774874
0.0450232
0.00720982
0.00420217
0.0119084
0.0117178
0.0396734
0.00290373
0.00242711
0.0259088
0.00878196
0.00443723
0.00724425
0.00284257
0.013859
0.0127975
0.034085
0.0629421
0.0448876
0.00300228
0.0139904
0.00307602
0.0109545
0.0153001
0.00622919
0.0105189
0.00201982
0.0434388
0.0182631
0.00315638
0.00293995
0.0143312
0.0285893
0.04634
0.051365
0.0176793
0.0069081
0.0129582
0.00234838
0.00310092
0.00404077
0.000954566
0.00254022
0.00460754
0.0358049
0.125845
0.00572473
0.00377838
0.00984905
0.0397453
0.00461713
0.0153695
0.00793576
0.0112068
0.00580906
0.0117845
0.0274254
0.0284141
0.0151594
0.0028062
0.0161967
0.0812208
0.0113431
0.0039475
0.0112406
0.0267596
0.0151603
0.00270422
0.00304805
0.00751124
0.0124935
0.0138963
0.0123466
0.00202345
0.0134868
0.0040558
0.00269882
0.0580203
0.0130099
0.0336864
0.0145836
0.0178107
0.0209416
0.00971387
0.00296205
0.0374231
0.00299753
0.00803488
0.0075461
0.0113464
0.0110721
0.0157938
0.00795843
0.0144548
0.0302603
0.0113411
0.0200662
0.00266282
0.0506549
0.00279649
0.00266106
0.026822
0.0248047
0.0104737
0.0464429
0.0126862
0.0032209
0.0251137
0.00283089
0.0290852
0.0385435
0.00283634
0.0190443
0.0501688
0.00577964
0.0417216
0.0191556
0.033254
0.00805589
0.0469956
0.0432319
0.00289949
0.00977265
0.0428759
0.00293301
0.00255419
0.0368738
0.00240942
0.012734
0.0412155
0.0298008
0.0848489
0.00130436
0.00215075
0.00226867
0.0534701
0.00263183
0.00303248
0.0079002
0.0147179
0.00387553
0.00249466
0.00268025
0.0130221
0.0129566
0.00261557
0.0113086
0.00233145
0.00244229
0.00206557
0.0750282
0.0235729
0.00255093
0.00294252
0.0208004
0.0319156
0.00331549
0.0165303
0.00250816
0.00237294
0.0325606
0.00300525
0.0278184
0.00223639
0.0175449
0.010734
0.142506
0.0138793
0.0987848
0.0660542
0.00254864
0.0460938
0.00317123
0.00279072
0.00671494
0.0231551
0.00292368
0.0137139
0.0228943
0.00421236
0.00396956
0.0156156
0.0489744
0.0125381
0.0774671
0.0273981
0.0305384
0.00266172
0.0422875
0.0281438
0.0021586
0.0190055
0.00234187
0.00249891
0.0524506
0.0103274
0.0103976
0.0612165
0.0560774
0.00323983
0.010893
0.00441947
0.0270286
0.00258942
0.0402543
0.0416524
0.00218247
0.03362
0.00276117
0.00243303
0.00231383
0.0111827
0.014928
0.104818
0.034784
0.00369146
0.0591254
0.00253779
0.00248607
0.00215216
0.0328344
0.0111907
0.00234171
0.00711822
0.062233
0.0146597
0.0167004
0.00273774
0.0110782
0.00370962
0.0041089
0.00542005
0.00108639
0.00525675
0.00180862
0.00237992
0.114346
0.00426215
0.00738371
0.00261695
0.0113189
0.0121318
0.0346057
0.00109866
0.0117863
0.0316087
0.00966589
0.00277002
0.0329437
0.00201545
0.0273269
0.0128022
0.0115013
0.00755221
0.003895
0.0611942
0.0491977
0.00253308
0.00388604
0.0547151
0.0419259
0.0213623
0.0054165
0.0310638
0.00441975
0.0116692
0.00762841
0.0124501
0.00244383
0.00373867
0.00708696
0.0141644
0.0110275
0.00253523
0.0118515
0.0142121
0.0132131
0.0129438
0.0198839
0.0303846
0.0265138
0.00267242
0.0385544
0.0405164
0.0347153
0.000995591
0.0155935
0.0190049
0.0122255
0.041115
0.00192933
0.00278688
0.0321648
0.108068
0.0165551
0.0596662
0.00167627
0.00242517
0.00495583
0.00376641
0.0130383
0.00363749
0.00243784
0.02426
0.0272876
0.0673784
0.0599497
0.0993571
0.0495887
0.0529424
0.0207564
0.0139782
0.036646
0.0065867
0.0329074
0.00155564
0.0191403
0.00212293
0.0601883
0.0109026
0.00687203
0.012329
0.00205915
0.00728127
0.00712303
0.00271863
0.0127939
0.0026429
0.0512889
0.0404723
0.00354752
0.0303138
0.0316727
0.0159391
0.0326916
0.147014
0.0108564
0.0110415
0.0639163
0.0106672
0.0239339
0.00123291
0.0605012
0.00131667
0.014274
0.0122339
0.00430482
0.0383523
0.0298469
0.00160758
0.0115782
0.00374029
0.0726212
0.0309005
0.00707414
0.0976561
0.00654111
0.0270982
0.00316637
0.00735068
0.0586268
0.0173033
0.00833826
0.00224272
0.00300393
0.0146444
0.00424464
0.0793459
0.0143375
0.00812862
0.0628408
0.00208252
0.0106433
0.0100707
0.00265666
0.0274644
0.0626368
0.0354087
0.022728
0.0137423
0.0591754
0.0026945
0.0159408
0.00232147
0.00253935
0.0125967
0.00204664
0.0475028
0.0624174
0.0626775
0.0159391
0.0184098
0.0287959
0.010516
0.00270481
0.0090044
0.00299839
0.0134508
0.00691117
0.00445776
0.00915519
0.124775
0.0023661
0.0826937
0.0446913
0.01256
0.0115134
0.0421915
0.033574
0.00216869
0.140593
0.00342716
0.00230891
0.00235524
0.132903
0.0036737
0.00231786
0.00301466
0.0355499
0.004416
0.0111106
0.00729725
0.0111986
0.00847803
0.00285096
0.0260345
0.00426809
0.00436212
0.0306296
0.00193989
0.0105743
0.00370293
0.0406565
0.0134305
0.00216477
0.0215172
0.0333337
0.0640938
0.00423509
0.0026214
0.0872198
0.0646548
0.0811382
0.0579976
0.0701389
0.0539745
0.0022114
0.0234344
0.0571898
0.00592706
0.0120298
0.00205528
0.0105288
0.0253213
0.0106261
0.0162621
0.0754939
0.019053
0.00169321
0.00202518
0.00217819
0.0123427
0.0111423
0.0164252
0.0267295
0.0586571
0.0079775
0.00257792
0.0566567
0.104382
0.0113229
0.00479097
0.0205282
0.00410747
0.0111513
0.0263003
0.0123747
0.0106423
0.0102744
0.0140136
0.00464391
0.0976461
0.0126053
0.0593101
0.0401875
0.0106521
0.0117815
0.0110792
0.0322734
0.00450596
0.0139457
0.0220019
0.00551151
0.0116331
0.00662522
0.0282755
0.012471
0.0282811
0.055219
0.0501104
0.00599916
0.0487661
0.103259
0.00211218
0.0502221
0.00281789
0.0113239
0.0424159
0.00231229
0.00394715
0.0327074
0.00258916
0.0042504
0.00248835
0.00181492
0.0495323
0.00225775
0.0409897
0.0128653
0.0279351
0.00245241
0.00565229
0.00344059
0.0125346
0.00211505
0.0832216
0.0822439
0.0264555
0.0307837
0.0143624
0.013052
0.0322143
0.00551772
0.0716601
0.0698059
0.0275595
0.00748556
0.00215063
0.00229119
0.0259767
0.0317206
0.00396298
0.00250526
0.00412444
0.0141004
0.00237886
0.00673785
0.0101109
0.0141825
0.0166102
0.00690221
0.00525167
0.00287714
0.0613814
0.00600431
0.0117633
0.00819391
0.0103957
0.00976806
0.00790294
0.0103323
0.0112978
0.0466637
0.0268826
0.0186992
0.00993711
0.0437859
0.00228519
0.0102582
0.00934983
0.0019128
0.00418256
0.03332
0.0705012
0.00195238
0.0422549
0.013358
0.0865376
0.0133725
0.0563923
0.00333814
0.0112019
0.0612605
0.0101635
0.0235648
0.0745779
0.0516019
0.00202296
0.0196467
0.00213992
0.0404954
0.0287571
0.0181366
0.00244066
0.00555426
0.0431925
0.00404442
0.00919847
0.00701141
0.0329872
0.00232708
0.0241179
0.00190738
0.0742656
0.00203188
0.00154436
0.00711841
0.00768754
0.0618199
0.0276558
0.00394152
0.00679983
0.00950719
0.00204925
0.0151167
0.0062132
0.0197167
0.0111513
0.0950309
0.00211924
0.00222763
0.0455135
0.0613894
0.0188981
0.144417
0.0552862
0.00393325
0.0258959
0.0786751
0.00252817
0.0639856
0.0237229
0.0363219
0.00697193
0.0710847
0.00208363
0.0486882
0.00212673
0.0461732
0.0113346
0.00223194
0.0906444
0.00276893
0.0431643
0.0374901
0.00599177
0.00279827
0.09878
0.124799
0.0077659
0.0276116
0.0606913
0.00173207
0.0147868
0.00669898
0.0118238
0.00366557
0.00199278
0.0128731
0.0695824
0.00473329
0.0416206
0.0270444
0.00247712
0.00212277
0.00216994
0.00239157
0.00731151
0.0155465
0.0193467
0.00572014
0.0516403
0.0110818
0.00344778
0.00383188
0.00240028
0.0809323
0.0486995
0.00223585
0.00932565
0.0256217
0.00852391
0.0634092
0.0384122
0.00216028
0.00336953
0.0109937
0.00171997
0.00405228
0.0332217
0.0544214
0.00216434
0.0022086
0.0132954
0.0664843
0.0842019
0.00236234
0.00142864
0.107827
0.0142884
0.00152842
0.00220461
0.0532244
0.0463715
0.10267
0.0072201
0.060869
0.0155788
0.115685
0.0631135
0.0023683
0.0374374
0.00235769
0.0168173
0.00263779
0.00296027
0.0104883
0.0153183
0.00900801
0.0253772
0.00132677
0.00725167
0.0139128
0.0396321
0.00603213
0.0858377
0.0267219
0.0403948
0.00263639
0.092033
0.0230778
0.0105577
0.0116098
0.0121223
0.0421718
0.00134555
0.0308958
0.0501076
0.00138426
0.0190594
0.0111093
0.00259671
0.00261262
0.0022127
0.0112344
0.00582528
0.0029046
0.0527528
0.139839
0.00149259
0.0533573
0.0597125
0.091381
0.0217994
0.0296872
0.0680897
0.00230128
0.0217397
0.0162845
0.002053
0.00411143
0.00247838
0.0015041
0.00382207
0.0250535
0.0103168
0.0706209
0.0018796
0.0114641
0.00236346
0.00259968
0.00208746
0.0652988
0.0294531
0.00459933
0.00246034
0.0281006
0.0103502
0.0383851
0.0366493
0.041589
0.0296135
0.00227492
0.00227183
0.0118923
0.00223955
0.0110849
0.00260696
0.0204042
0.0475101
0.0149227
0.0676842
0.00285782
0.00207029
0.0214639
0.0285423
0.0171301
0.0143559
0.0115059
0.0120802
0.127131
0.0900455
0.0320024
0.072775
0.0135997
0.0018421
0.0107453
0.00770524
0.0381656
0.00223749
0.00214154
0.00743002
0.0363639
0.0144322
0.0191051
0.0106424
0.0119399
0.00231477
0.0670118
0.0255222
0.0266605
0.00226342
0.138281
0.0672925
0.0331296
0.00125854
0.0710492
0.0167513
0.0141949
0.00202609
0.0161894
0.00658513
0.00259545
0.0135217
0.0152538
0.0235866
0.0197708
0.116051
0.0560181
0.00247363
0.0493188
0.00220157
0.0108485
0.0062312
0.0408384
0.00254208
0.00219281
0.0740168
0.0102713
0.00227451
0.0713762
0.0260253
0.0242727
0.00227424
0.00225385
0.0111113
0.033167
0.0019507
0.0023155
0.0022214
0.0545364
0.00245509
0.00257957
0.00747726
0.00473421
0.0569494
0.00356364
0.0287763
0.00201866
0.0112222
0.0653812
0.0176407
0.0236445
0.0118595
0.00229019
0.00166453
0.0016873
0.00256331
0.0321543
0.00449664
0.00302158
0.0530854
0.0110243
0.0114328
0.0468462
0.0138947
0.00274682
0.00248136
0.00313395
0.0122028
0.0158494
0.00147318
0.0412412
0.0098659
0.0847754
0.0741695
0.0132718
0.00465124
0.0720469
0.00254647
0.00204896
0.0130439
0.104497
0.00404533
0.00218885
0.0129585
0.0158131
0.0022177
0.00225864
0.0195734
0.0117738
0.00200915
0.00220569
0.0106526
0.0069174
0.0411017
0.0020039
0.121502
0.0648618
0.00197977
0.0732688
0.0109082
0.0396343
0.0406845
0.0644505
0.0609533
0.0768193
0.0160656
0.0093606
0.00736973
0.00210453
0.0026655
0.0108611
0.00895451
0.0366967
0.0697551
0.00227177
0.00170001
0.00224272
0.00208591
0.00216203
0.00222253
0.0118055
0.00510591
0.00176314
0.0108046
0.00198238
0.00235477
0.00336973
0.00226994
0.0315105
0.0314014
0.0171333
0.0167356
0.0108306
0.0329905
0.00656697
0.0104196
0.00178245
0.0128415
0.00216684
0.0140438
0.0711244
0.0144271
0.00443821
0.00195123
0.0065826
0.0386895
0.0384077
0.0110175
0.00255792
0.00801931
0.00224289
0.0585476
0.0108412
0.0167062
0.0032183
0.00349618
0.012117
0.00810118
0.0345832
0.0190202
0.00489991
0.00198996
0.00239533
0.00395755
0.04933
0.0218532
0.0831966
0.0229632
0.0106442
0.0457626
0.0242238
0.0260619
0.0176202
0.0478374
0.0110313
0.00295009
0.0663681
0.0634604
0.0112297
0.0108454
0.0171941
0.0023654
0.0114965
0.00742318
0.0142139
0.0872887
0.0174734
0.00510821
0.00781939
0.0475485
0.0764876
0.00195372
0.0126661
0.012848
0.00486511
0.00226502
0.00229331
0.00108283
0.0045464
0.00279308
0.00222253
0.130471
0.0114807
0.0518944
0.0560482
0.0129264
0.00217954
0.0215784
0.0224497
0.0164924
0.00988868
0.0125821
0.00225035
0.0992576
0.0378048
0.0678351
0.000978261
0.00195411
0.00208946
0.0148138
0.016682
0.0119486
0.00189457
0.0107739
0.0429048
0.00224476
0.00130403
0.0050195
0.0767985
0.001698
0.00629007
0.0107717
0.0128808
0.00336992
0.0864905
0.0365002
0.0983577
0.0131967
0.0206644
0.0260169
0.00240738
0.0260896
0.133038
0.0124398
0.00702297
0.0127028
0.0549348
0.0193442
0.0145015
0.0109472
0.0284974
0.00227527
0.0338818
0.0011143
0.0023804
0.00228627
0.0373558
0.0117951
0.0399122
0.0899866
0.011856
0.0222366
0.00169713
0.0191398
0.00223985
0.00929313
0.0273079
0.02468
0.00188239
0.00236544
0.0488092
0.00111492
0.0565813
0.00154814
0.0552804
0.00259567
0.0275249
0.00187028
0.0506474
0.0123746
0.0343974
0.0561248
0.0232223
0.0255375
0.00109152
0.0484645
0.0302166
0.0233634
0.0195062
0.0118499
0.0249983
0.0294976
0.00227337
0.0304044
0.0481179
0.00626006
0.051959
0.0922854
0.00198983
0.011291
0.00307083
0.0665438
0.00247538
0.00240572
0.00228389
0.0366615
0.127736
0.0261245
0.0124245
0.0191942
0.00202912
0.00940787
0.00306455
0.00592757
0.00238294
0.0109699
0.0101063
0.00966174
0.00216873
0.0756824
0.0717189
0.00175811
0.00554714
0.0324439
0.0370817
0.027716
0.00210923
0.00222137
0.0102158
0.0349399
0.00259614
0.00200823
0.0838621
0.0252982
0.0017704
0.00597118
0.021642
0.0209623
0.0361499
0.0344392
0.0270091
0.0104996
0.010549
0.0475563
0.0548801
0.00293696
0.0117852
0.0107813
0.00225173
0.00286556
0.0104884
0.00258934
0.0264496
0.0511158
0.00330735
0.0331027
0.0968082
0.00310008
0.0148787
0.00384061
0.0328636
0.0199225
0.00948117
0.011279
0.0895852
0.0103735
0.00589509
0.0110442
0.00624569
0.0829943
0.0397155
0.0427307
0.00919658
0.00620805
0.00354729
0.010618
0.00148744
0.00123576
0.00960064
0.0200309
0.0039142
0.00876631
0.00937276
0.00237615
0.0427089
0.0106726
0.0113025
0.0020201
0.129613
0.00389464
0.00215037
0.00437884
0.028172
0.00309644
0.00316558
0.0126899
0.00263732
0.00361703
0.00992407
0.0512421
0.00375882
0.0479055
0.0104056
0.00597849
0.03762
0.0166346
0.00360529
0.112519
0.0121017
0.0670317
0.00416399
0.0260675
0.0035135
0.0273851
0.134023
0.00325142
0.0173113
0.00977548
0.011117
0.00221066
0.00224371
0.00448828
0.00216657
0.00286918
0.00352265
0.016948
0.0105984
0.00256683
0.00214658
0.0032356
0.0179411
0.0321673
0.0339055
0.0147474
0.00916973
0.135145
0.00258389
0.00237413
0.00404885
0.00244608
0.00245539
0.0203623
0.00365259
0.00510398
0.0286189
0.0106267
0.0102484
0.0381931
0.0433518
0.0025515
0.0616891
0.0121855
0.0226547
0.0256371
0.0170826
0.0162347
0.0386632
0.00287515
0.0143326
0.00199378
0.0117906
0.0014634
0.0384884
0.00665932
0.00344029
0.0128061
0.0297341
0.0263923
0.00234376
0.0216186
0.0296835
0.0174963
0.00114885
0.00538735
0.00640242
0.0193812
0.00716652
0.124165
0.0228919
0.0064533
0.0106701
0.00136976
0.00211144
0.00813073
0.00208795
0.0403959
0.014514
0.00214625
0.00476418
0.0324541
0.00682032
0.0490658
0.021555
0.0238095
0.00595707
0.00163734
0.0232556
0.0736986
0.00248643
0.00150321
0.0106416
0.00163656
0.00270855
0.0242131
0.00698989
0.042388
0.026399
0.0555845
0.00707713
0.0233467
0.00170869
0.00192721
0.00263993
0.0322923
0.000979814
0.000838385
0.00122512
0.0123298
0.0104573
0.00137197
0.0288822
0.0645829
0.0379871
0.00221822
0.0224912
0.0969826
0.0312525
0.00268163
0.013863
0.00299966
0.0567463
0.00153396
0.0112176
0.0274991
0.0309173
0.00216704
0.00325789
0.0129199
0.0356446
0.0464232
0.00430082
0.0463465
0.00123124
0.00249322
0.0280355
0.0132095
0.00258448
0.0436426
0.0128746
0.00236565
0.0106399
0.026738
0.0110507
0.00164631
0.00229129
0.0267097
0.00981528
0.00220667
0.0259434
0.0620399
0.0365342
0.0126238
0.00151309
0.00242196
0.0140743
0.0505259
0.0143545
0.0544389
0.0807613
0.0691941
0.00215926
0.00219309
0.00461171
0.00211716
0.0022034
0.029054
0.0386465
0.00230692
0.00238878
0.00227831
0.00122672
0.0216302
0.0157723
0.0128264
0.00108583
0.000963923
0.00108021
0.0139573
0.0288618
0.0107317
0.00235979
0.0413805
0.004086
0.00422282
0.0402465
0.00408586
0.0173011
0.0286732
0.00197509
0.0125708
0.00204603
0.0122924
0.0111686
0.00907556
0.0660444
0.00229351
0.0246792
0.0307422
0.0134177
0.00403532
0.0761982
0.0882265
0.00237989
0.00179453
0.0109082
0.012586
0.00609418
0.0351104
0.0731423
0.0136483
0.0188447
0.0848039
0.0271694
0.0104877
0.0456213
0.039756
0.0730545
0.0434313
0.0115647
0.052855
0.000940027
0.00293362
0.00179832
0.0133891
0.00172118
0.0656102
0.022874
0.00221902
0.00191977
0.000750066
0.000832969
0.00186421
0.0140387
0.0221007
0.0111715
0.0258325
0.0261831
0.0149177
0.00169426
0.00209366
0.0127975
0.0043606
0.00236701
0.00225135
0.00288892
0.0163182
0.00219945
0.0104408
0.00212534
0.0040357
0.0228898
0.00127705
0.0114268
0.0135631