/*--------------------------------*- C++ -*----------------------------------*\
  =========                 |
  \\      /  F ield         | OpenFOAM: The Open Source CFD Toolbox
   \\    /   O peration     | Website:  https://openfoam.org
    \\  /    A nd           | Version:  10
     \\/     M anipulation  |
\*---------------------------------------------------------------------------*/
FoamFile
{
    format      ascii;
    class       volScalarField;
    location    "1100";
    object      k;
}
// * * * * * * * * * * * * * * * * * * * * * * * * * * * * * * * * * * * * * //

dimensions      [0 2 -2 0 0 0 0];

internalField   nonuniform List<scalar> 
23845
(
0.0801744
0.095669
0.0701717
0.0464752
0.0908536
0.0244519
0.0824418
0.0343817
0.0195821
0.0636492
0.0767491
0.0229179
0.0267716
0.0220637
0.0909687
0.0465392
0.0387958
0.0477998
0.0297004
0.0279973
0.0669904
0.0731906
0.0632002
0.0194947
0.0693499
0.0153914
0.0752044
0.0265619
0.0199586
0.0276259
0.0502669
0.0185084
0.0864491
0.0487185
0.0230097
0.0256133
0.015822
0.0230617
0.0234535
0.0208637
0.0280174
0.0389993
0.0241598
0.0389564
0.012938
0.0300512
0.0778607
0.050811
0.0235555
0.0152985
0.0300584
0.0720799
0.0196688
0.0244958
0.017934
0.0352492
0.0938371
0.0366823
0.0767451
0.0737856
0.0270293
0.0401017
0.0443104
0.0245318
0.0180463
0.0274658
0.0767014
0.0118644
0.0120481
0.0331941
0.03102
0.0616145
0.0176684
0.088273
0.0163389
0.0911854
0.022925
0.0236357
0.0405438
0.0469444
0.0694024
0.0892167
0.0969065
0.0373575
0.0678878
0.0230896
0.087429
0.0193705
0.0178352
0.0415096
0.0269358
0.0317354
0.0213592
0.0255952
0.0365118
0.027394
0.0359458
0.0536914
0.0161566
0.0834755
0.0385282
0.0782524
0.0977586
0.0111709
0.0204865
0.0389997
0.0244103
0.0150934
0.0754035
0.0382115
0.0726847
0.023209
0.0798373
0.060335
0.0261831
0.0591166
0.0170794
0.0504117
0.0206353
0.0318805
0.0233822
0.0221235
0.0334998
0.044831
0.0795405
0.0162192
0.0282745
0.0152018
0.0547995
0.0785742
0.0548219
0.0915144
0.0827376
0.0231523
0.0435694
0.091346
0.0101925
0.0228
0.0746094
0.0236466
0.0172716
0.0378669
0.0236644
0.0406103
0.0408491
0.0371556
0.0541591
0.0815337
0.0346216
0.0439002
0.0879608
0.0219324
0.0892514
0.024792
0.076241
0.0611508
0.0974014
0.0240921
0.0610199
0.0254052
0.0375168
0.0906773
0.0361262
0.018509
0.0203595
0.0516015
0.0236593
0.0228312
0.0272751
0.0370065
0.0235279
0.0473809
0.0191862
0.0436188
0.0185121
0.0387603
0.0338473
0.0700518
0.0148034
0.0239061
0.084599
0.0799844
0.0891792
0.0691125
0.0446257
0.0306329
0.038894
0.0362457
0.018348
0.0380066
0.0223085
0.0225151
0.0222313
0.0239533
0.0387534
0.0217157
0.0163034
0.0186492
0.0133112
0.073761
0.0570269
0.0228819
0.0344826
0.0893256
0.0362941
0.0361021
0.0666618
0.0239614
0.0811446
0.0503879
0.0500929
0.021318
0.0372576
0.0272643
0.0260458
0.0171957
0.0843899
0.0410451
0.0103598
0.0565684
0.0190691
0.0903142
0.0158769
0.0534894
0.0377468
0.0890749
0.0105696
0.0226564
0.0244408
0.0284878
0.0247192
0.0253561
0.0233826
0.0128203
0.0931612
0.0238999
0.0175605
0.0478735
0.0191863
0.0477646
0.0215071
0.0526035
0.0382992
0.0929684
0.0236531
0.0463677
0.0240978
0.0119427
0.0376183
0.0908074
0.031404
0.0237944
0.0298858
0.022956
0.0882412
0.0269047
0.0349181
0.0315043
0.0263972
0.0203793
0.0174788
0.0242347
0.029424
0.0709475
0.0656388
0.0191363
0.0398263
0.044983
0.0587567
0.0460234
0.0236461
0.0448341
0.0297231
0.0229291
0.0693674
0.0220066
0.0306586
0.0231992
0.0207123
0.0624989
0.0397337
0.0245917
0.0325591
0.0458607
0.0233452
0.0293513
0.0466162
0.0223344
0.036025
0.0837384
0.0389257
0.027241
0.0253922
0.0305367
0.0375457
0.0232183
0.0305992
0.0240208
0.0232535
0.0221935
0.0610897
0.0872935
0.0235893
0.0464269
0.0237655
0.0481762
0.0243737
0.0298276
0.0373253
0.0152687
0.0293564
0.0898639
0.0308039
0.0236743
0.0628554
0.0165622
0.0293094
0.0849029
0.0259093
0.0201891
0.0209189
0.0221471
0.0369778
0.0276297
0.0888708
0.0239639
0.0426166
0.0751724
0.035324
0.0494296
0.0789745
0.0512027
0.0287963
0.0241331
0.0341295
0.0486763
0.0531744
0.0469083
0.0360903
0.0407493
0.0489247
0.0354301
0.0734196
0.0133635
0.013179
0.0194038
0.0239999
0.0289788
0.0416439
0.0825768
0.0536024
0.0537773
0.0147859
0.031039
0.0199062
0.0221449
0.0354828
0.0184565
0.0860274
0.0376094
0.0482585
0.0173684
0.0534675
0.0429025
0.0193871
0.0236589
0.0400408
0.0261555
0.0213205
0.0151785
0.0384257
0.0252981
0.0292451
0.0228923
0.0245008
0.0282828
0.0590496
0.050128
0.0366674
0.043828
0.0899468
0.0245323
0.0620679
0.0128021
0.0130661
0.0233583
0.0247438
0.039956
0.0572061
0.0377001
0.0787051
0.0361514
0.0256821
0.021773
0.0285069
0.0236097
0.0661435
0.0145621
0.0342739
0.024378
0.0573209
0.0556982
0.0343791
0.0510243
0.0833546
0.0902288
0.0237829
0.0271862
0.0197487
0.0327785
0.091
0.0123784
0.085085
0.0385519
0.0981889
0.0643075
0.0614944
0.0658689
0.0239403
0.0573004
0.0618921
0.0313608
0.0204145
0.0415228
0.0314075
0.0862335
0.0565644
0.0528375
0.0483487
0.0502951
0.0223326
0.0468943
0.0348091
0.0461273
0.0295905
0.0166432
0.022849
0.030136
0.0228989
0.0498847
0.0907644
0.0479709
0.0194832
0.0522492
0.0540497
0.0291689
0.0282546
0.0615787
0.0240257
0.0459153
0.0405042
0.0216619
0.0422717
0.0241852
0.0131377
0.0348428
0.0763116
0.0914511
0.0326037
0.0241374
0.0794146
0.0449395
0.0102146
0.0766975
0.0247347
0.0239485
0.0243653
0.0258712
0.0137127
0.0811722
0.0270617
0.0239694
0.0530761
0.0304096
0.0263942
0.0916341
0.0199008
0.0247061
0.0259586
0.0394574
0.0693645
0.0612947
0.0500271
0.0715818
0.0580984
0.0874679
0.0236401
0.023184
0.0761486
0.0388991
0.0154241
0.062652
0.0282705
0.064456
0.0356527
0.0733964
0.0171572
0.0597129
0.0167989
0.0241605
0.0872711
0.0187408
0.0399663
0.0707078
0.0387501
0.039888
0.0680781
0.0249616
0.0266661
0.0389308
0.0496359
0.0425038
0.0157978
0.0512167
0.0231518
0.013963
0.0584725
0.081183
0.0745469
0.0349611
0.0152223
0.0245116
0.048846
0.0295992
0.0146281
0.0841382
0.0891559
0.0267136
0.0639143
0.0227145
0.0245692
0.069699
0.087034
0.0639752
0.0347092
0.025375
0.0251398
0.0336361
0.0764315
0.0413486
0.0684072
0.0236911
0.0604487
0.060922
0.038104
0.059362
0.0722109
0.0248366
0.0267526
0.0245296
0.0244908
0.0231781
0.0440595
0.0263208
0.0360814
0.0906348
0.0354644
0.0419723
0.0241579
0.0258876
0.0374903
0.0422837
0.0824539
0.0287256
0.0351902
0.0235935
0.0219109
0.0169836
0.0221336
0.0234154
0.0142916
0.0848708
0.0310989
0.0243203
0.0500958
0.0841391
0.0394468
0.0669717
0.0324167
0.0786613
0.0151562
0.0230428
0.0393283
0.0773747
0.0311669
0.034318
0.0178201
0.0183587
0.0331493
0.0180985
0.0659757
0.086831
0.0856973
0.0654324
0.0290178
0.0355189
0.0138507
0.0244228
0.0467568
0.0230101
0.0670445
0.0264781
0.0788788
0.0898297
0.0477344
0.0810011
0.0323772
0.0787699
0.0859122
0.0591488
0.0699625
0.0985255
0.0928252
0.0845317
0.0329866
0.0911892
0.081482
0.098827
0.0281734
0.0255881
0.0797291
0.0272325
0.0761592
0.0590164
0.096787
0.0551026
0.0267441
0.0407909
0.0219277
0.0428761
0.0261845
0.0278724
0.0664787
0.0259963
0.022999
0.0829432
0.0948459
0.0501129
0.015423
0.0642461
0.0859613
0.0556239
0.0270028
0.0241876
0.0771915
0.0845975
0.0711621
0.0224896
0.0794217
0.0611739
0.0259439
0.0235832
0.0794301
0.0407341
0.0258454
0.080476
0.041646
0.0679998
0.0356386
0.0736899
0.0553055
0.0356396
0.0492844
0.0992419
0.0456668
0.0155208
0.0214867
0.0916413
0.0545046
0.0820125
0.0409041
0.0579419
0.0705487
0.0603203
0.0560655
0.0768518
0.053566
0.0794757
0.0673675
0.0462768
0.0757833
0.049418
0.0351939
0.047299
0.0455392
0.0879302
0.0341414
0.0442442
0.0841594
0.0780272
0.0416265
0.0368926
0.0586611
0.0625762
0.0665026
0.0718102
0.0753685
0.0546762
0.0780203
0.0521753
0.0724546
0.0482119
0.0639847
0.0463639
0.0467859
0.0472834
0.0431587
0.0396729
0.0406598
0.0268246
0.0368781
0.0562515
0.0192554
0.0355376
0.0381976
0.0388171
0.0247197
0.0666567
0.0377057
0.0639042
0.067831
0.0526548
0.0365188
0.0364861
0.0265674
0.0559347
0.0494712
0.0810049
0.021409
0.0622883
0.0346832
0.0457435
0.0272188
0.0346213
0.0770197
0.0461073
0.0794298
0.0369503
0.023337
0.0292879
0.0140666
0.0335955
0.0557415
0.0322634
0.0183068
0.0352603
0.0794248
0.0328836
0.0304107
0.0286373
0.082158
0.0344924
0.0126738
0.0862301
0.0374736
0.0397137
0.0729832
0.0682648
0.0736994
0.069502
0.0784148
0.0359346
0.0536891
0.0624917
0.0705362
0.0509909
0.0489378
0.0451897
0.099103
0.0426625
0.0311817
0.0740897
0.0709165
0.0816881
0.0506035
0.060957
0.029126
0.0971761
0.0663324
0.0463759
0.0399401
0.0460238
0.0289244
0.0220801
0.0645509
0.0323075
0.0284682
0.0394172
0.0331357
0.0316679
0.0383722
0.0355239
0.046411
0.0360665
0.034202
0.0346771
0.0836734
0.0522207
0.029992
0.0444188
0.0410838
0.033459
0.0814135
0.0618974
0.0723314
0.0527245
0.0364936
0.0292271
0.0360137
0.0348471
0.0984048
0.0668449
0.0738996
0.0458495
0.0310615
0.0534648
0.0232928
0.0640335
0.0278853
0.033252
0.018663
0.0208271
0.0363359
0.0223972
0.0224673
0.0159562
0.0260957
0.0173578
0.0201277
0.0180726
0.0171894
0.0153234
0.0235176
0.0273153
0.0210067
0.0216092
0.0394015
0.0366579
0.0395607
0.0608825
0.0766792
0.0148268
0.0186227
0.0343979
0.0729539
0.0651927
0.074073
0.0613535
0.0483798
0.0265788
0.0274037
0.0314716
0.0382419
0.0473347
0.0286657
0.0373381
0.0263555
0.0356466
0.0227614
0.0886291
0.0233774
0.0595081
0.0390926
0.0829599
0.029901
0.0321385
0.0347175
0.0295473
0.0470804
0.0426877
0.0305542
0.0496885
0.0236684
0.0250988
0.0192416
0.0190068
0.0172419
0.0166584
0.0316307
0.0358352
0.0309501
0.0608626
0.0303147
0.0611494
0.0606568
0.0698328
0.0312419
0.0482971
0.0300517
0.0183784
0.0354077
0.0163677
0.0437391
0.0255714
0.0169613
0.0511955
0.0246401
0.019784
0.0629379
0.0281223
0.0483021
0.0570446
0.0546108
0.0362155
0.0509401
0.0288265
0.0455048
0.0305559
0.0668844
0.0353718
0.023738
0.0509144
0.0598756
0.0622366
0.0846603
0.0667594
0.0334455
0.0403787
0.0440085
0.0405267
0.0902791
0.0222379
0.0388085
0.0361636
0.0260999
0.0642546
0.0351331
0.0916784
0.0350354
0.017567
0.0295067
0.0230286
0.0370968
0.0341999
0.0316137
0.0923078
0.0311103
0.0604339
0.0402441
0.0803297
0.0342267
0.0478514
0.054502
0.0604444
0.0620184
0.0415163
0.0561361
0.0477776
0.065448
0.0686451
0.0739149
0.0453766
0.0690284
0.0698961
0.0487288
0.0839999
0.0756543
0.0660648
0.0668324
0.0304825
0.0427956
0.044441
0.0398998
0.0267568
0.0379882
0.0542032
0.0396356
0.0298507
0.0648338
0.0543878
0.0651308
0.0406729
0.0687776
0.0293018
0.0336274
0.0375449
0.0357692
0.0467477
0.0201842
0.066337
0.0858585
0.0966058
0.0261937
0.0343425
0.0724418
0.0775263
0.0288459
0.0562965
0.0562311
0.0538963
0.0629261
0.0554051
0.0355255
0.0691326
0.0778671
0.0721197
0.076181
0.0822877
0.0826945
0.0257717
0.0452214
0.0453616
0.0341984
0.0530159
0.0568472
0.0328787
0.0215353
0.0270441
0.0729528
0.026821
0.028101
0.0153429
0.0283687
0.0125019
0.0235819
0.0175251
0.0349564
0.0318495
0.0326229
0.0353395
0.0808819
0.0262726
0.0303624
0.0542646
0.0403341
0.0731906
0.0671688
0.0948311
0.0716247
0.030402
0.0384508
0.0363416
0.0273369
0.0148754
0.0256062
0.0845639
0.0801592
0.0395912
0.0468498
0.0423558
0.0492042
0.0519414
0.0755776
0.0336585
0.0854327
0.0682128
0.0750783
0.0727862
0.0599823
0.0679046
0.0473935
0.0638546
0.0373201
0.0602101
0.0530097
0.039421
0.0497212
0.0467267
0.0444796
0.0352533
0.0339858
0.0565085
0.0584901
0.0797575
0.0296941
0.053847
0.0296873
0.021797
0.0424592
0.0228617
0.05697
0.0419148
0.0379485
0.0385361
0.0343905
0.0341831
0.0827495
0.0223708
0.0285449
0.0629091
0.0400102
0.0152583
0.0562784
0.0827212
0.051175
0.0235611
0.0692013
0.0330599
0.0570644
0.0613206
0.0726599
0.0496288
0.029382
0.0674818
0.05678
0.0635873
0.059309
0.0549946
0.0523978
0.0298886
0.048862
0.0630983
0.0317344
0.043355
0.0827227
0.0356724
0.0446758
0.0469248
0.0408971
0.014452
0.0220594
0.0383614
0.0273477
0.0332232
0.03009
0.027631
0.0824702
0.0367807
0.034798
0.0649726
0.0278516
0.0290102
0.0289719
0.0853498
0.032832
0.0320764
0.0818343
0.0210608
0.0164154
0.0309385
0.0304736
0.0284393
0.0433966
0.0215472
0.0325047
0.0518461
0.0757147
0.0806102
0.0694861
0.0617809
0.029101
0.0448687
0.0372703
0.0397352
0.0299644
0.0824095
0.0458658
0.0272239
0.0282296
0.0502863
0.0454996
0.060325
0.0374731
0.0298537
0.0337736
0.0277366
0.0736094
0.0422174
0.0179502
0.0751491
0.0314494
0.0436403
0.0293784
0.0241024
0.0274882
0.049118
0.034576
0.02773
0.0706254
0.0291874
0.0734909
0.0440414
0.0236538
0.06456
0.0331941
0.0559463
0.0584733
0.0467503
0.0646761
0.0518004
0.0290458
0.0548782
0.0555306
0.0229516
0.041286
0.0291408
0.026577
0.0394431
0.0155943
0.0183156
0.0433868
0.0170306
0.0240888
0.0480459
0.0165186
0.0220193
0.0533372
0.0212382
0.019027
0.0504754
0.0901554
0.0786039
0.0217246
0.0273349
0.0595927
0.0238422
0.0250716
0.0904422
0.0631827
0.0897125
0.0432894
0.0739591
0.0330792
0.0416934
0.0482352
0.0690009
0.0294002
0.0648228
0.0937238
0.0303121
0.0287807
0.0341237
0.0280866
0.0234965
0.0272482
0.0375035
0.0323145
0.090691
0.0485632
0.0355328
0.0790165
0.0410589
0.0733059
0.0286109
0.0617524
0.0332509
0.0411527
0.0858093
0.0297244
0.0513268
0.0267945
0.0282309
0.0542833
0.0268203
0.0905776
0.062603
0.0778744
0.0428528
0.0426026
0.0874126
0.0305435
0.0274407
0.0731284
0.0312476
0.0319454
0.0315743
0.0741786
0.0262688
0.0264939
0.0288506
0.096417
0.0274429
0.0398326
0.0416216
0.0277085
0.0264991
0.0473203
0.0528051
0.0905959
0.0227281
0.0128016
0.0295021
0.024874
0.0264085
0.097165
0.0441269
0.042429
0.0294352
0.0508137
0.0614251
0.0398838
0.0689735
0.0700438
0.0243892
0.0402495
0.0264294
0.0667474
0.0639666
0.0238564
0.0497983
0.0445397
0.0520303
0.049229
0.0633907
0.0418215
0.0580283
0.0620217
0.0832056
0.0507816
0.0815859
0.0227627
0.0573441
0.0297067
0.0268055
0.0684867
0.0864652
0.0653542
0.0235795
0.0877643
0.0436192
0.0382135
0.0889992
0.0392991
0.0805147
0.0259969
0.0986848
0.0615052
0.0238105
0.0783871
0.0584911
0.0565528
0.0517205
0.0909619
0.0879764
0.0272432
0.0322609
0.09105
0.0652884
0.0279406
0.0973946
0.096816
0.0320206
0.0431663
0.0335269
0.078473
0.0441737
0.0448039
0.0182307
0.08515
0.0685164
0.0233086
0.0894908
0.0833146
0.0210433
0.0329043
0.028483
0.0615646
0.0727847
0.0391356
0.0264625
0.0834306
0.0648654
0.0445409
0.0918079
0.0417746
0.0330331
0.0543676
0.0512488
0.0861633
0.0272829
0.0227901
0.077613
0.0436476
0.0331172
0.043298
0.0251434
0.0597507
0.0556081
0.0765847
0.0827065
0.0958638
0.0277283
0.0585673
0.0276062
0.0510458
0.0615343
0.0396405
0.0289349
0.0203825
0.0902615
0.0142914
0.0270624
0.0262446
0.0560269
0.0811861
0.0939536
0.0930482
0.0675095
0.0426697
0.0586527
0.0232607
0.0278628
0.0308026
0.0137003
0.0255055
0.0340705
0.0776393
0.0802834
0.0354099
0.0284831
0.0472724
0.0701895
0.0336295
0.0594237
0.0445167
0.0532359
0.0386028
0.0534903
0.0809675
0.0803621
0.0616902
0.0267302
0.0639696
0.0865453
0.0304802
0.0319582
0.0520673
0.0775953
0.0612096
0.0241285
0.0279988
0.0427118
0.0523598
0.0586724
0.0180002
0.0207452
0.0324333
0.0320411
0.0263157
0.0822057
0.0554555
0.0887259
0.0599433
0.0629983
0.0680974
0.0446213
0.0261356
0.0841619
0.0275845
0.0449971
0.0441725
0.0518442
0.039203
0.0628291
0.0416756
0.0613449
0.0757311
0.0319717
0.0704709
0.0240576
0.088413
0.026792
0.0259459
0.0814732
0.0699814
0.0256551
0.044362
0.0576748
0.0286411
0.0748012
0.0256537
0.0718192
0.0909158
0.0269238
0.0673359
0.0975765
0.0357577
0.0794546
0.0688729
0.0878698
0.0421436
0.0832964
0.0962856
0.0257515
0.047022
0.0581757
0.0258261
0.0238366
0.0789984
0.0247834
0.0512422
0.0954676
0.0737963
0.0687967
0.016139
0.0222121
0.0232268
0.0510589
0.0240739
0.0242534
0.0409921
0.0426832
0.0307702
0.0223372
0.0244955
0.0399897
0.0473967
0.0259016
0.0501567
0.02441
0.0248654
0.0205804
0.0867974
0.0763845
0.0255735
0.0274323
0.0568512
0.0865876
0.0258001
0.0583276
0.0253527
0.0245433
0.0514466
0.0258985
0.0820732
0.0238922
0.0599781
0.0351785
0.0899691
0.0203781
0.0878978
0.0920175
0.0239762
0.096702
0.0283227
0.0255074
0.0414133
0.0680008
0.0273877
0.0324519
0.0316129
0.0327353
0.0318936
0.0516274
0.00333679
0.0459982
0.0842341
0.0812185
0.0667714
0.0261138
0.0955157
0.00228938
0.023386
0.0550152
0.024098
0.0249981
0.0954795
0.0192242
0.0303154
0.0967978
0.0973901
0.025389
0.0148653
0.0321917
0.0641466
0.0255899
0.0713634
0.0948681
0.0213272
0.0837965
0.0262066
0.0228371
0.0238609
0.0183568
0.049887
0.0869784
0.0541163
0.0306408
0.0974572
0.0250236
0.0243825
0.0234146
0.0836915
0.0350422
0.0239825
0.0396899
0.0948997
0.030556
0.0657873
0.0255235
0.0387583
0.0296625
0.0325988
0.0347149
0.0146388
0.0343558
0.0197564
0.0246659
0.0889315
0.0327182
0.0429989
0.0258746
0.0448954
0.0426207
0.0891141
0.0148194
0.0408035
0.0743315
0.0413749
0.0255275
0.0376736
0.019782
0.0022345
0.0417769
0.0381796
0.0431472
0.0316584
0.0861023
0.0802445
0.0238059
0.031124
0.0936755
0.0897047
0.0647067
0.0319706
0.0024721
0.0334024
0.0304497
0.043732
0.0259361
0.0249952
0.0305072
0.0428184
0.0598255
0.0222117
0.0250269
0.0426475
0.0208858
0.0585342
0.0500941
0.0552564
0.00270874
0.0766101
0.0255216
0.0931342
0.0933
0.0668616
0.0139771
0.0478677
0.0542181
0.043737
0.0038167
0.0202614
0.0261006
0.080196
0.0877834
0.0652289
0.0913563
0.0188522
0.02251
0.0318133
0.0311556
0.0312509
0.0289754
0.0246021
0.0674931
0.0741146
0.088159
0.093921
0.0767495
0.0658102
0.0965012
0.0223922
0.0480627
0.0920018
0.0358983
0.00297552
0.0176261
0.0523605
0.0231913
0.0524765
0.0246728
0.0423973
0.0565097
0.0200942
0.042284
0.0427861
0.025847
0.058125
0.0255635
0.0832615
0.0920607
0.0273746
0.0854672
0.0873073
0.0509435
0.00236471
0.0893511
0.0366568
0.0262585
0.0944546
0.0189965
0.0773369
0.0156692
0.0503769
0.0160351
0.0315334
0.0456913
0.0287728
0.00347245
0.0856349
0.0183735
0.0410589
0.0309265
0.0879761
0.066899
0.0361682
0.0860873
0.0407209
0.061459
0.0247778
0.0435109
0.0905573
0.0124402
0.0414623
0.0212336
0.0244221
0.0600284
0.0327272
0.0671212
0.0608659
0.0408426
0.0913297
0.0230156
0.0330019
0.0429108
0.0255464
0.073561
0.062941
0.00321548
0.0478722
0.0398413
0.0869059
0.0254123
0.052771
0.024159
0.0251732
0.0449726
0.0213901
0.0605109
0.0938112
0.0895558
0.0449601
0.06749
0.0646903
0.0517195
0.0237896
0.0477382
0.0250476
0.0452233
0.0420821
0.0315813
0.0428747
0.0913728
0.0244616
0.0833506
0.00430738
0.0572146
0.0159209
0.00400486
0.0676126
0.0235221
0.0838002
0.0262215
0.0238329
0.0245042
0.088216
0.0304785
0.0229276
0.026934
0.0746427
0.0321668
0.0382592
0.0419763
0.0539532
0.0399205
0.0263314
0.0694317
0.0310011
0.0293779
0.0805251
0.0204677
0.0525323
0.0279902
0.00360814
0.0495441
0.0219033
0.0284865
0.0787183
0.0929817
0.0322699
0.025243
0.0840946
0.0908877
0.0869425
0.0866336
0.0831593
0.0784386
0.0220512
0.0555004
0.0774202
0.0351691
0.0404286
0.0212806
0.0273038
0.0350253
0.0246773
0.0542482
0.0831269
0.0152732
0.0189932
0.0227198
0.0235611
0.0341586
0.0399907
0.0260167
0.00235603
0.077794
0.0405913
0.0252107
0.0896771
0.0724301
0.0410598
0.0302977
0.0558308
0.0321926
0.0326014
0.0305688
0.0400977
0.0322541
0.0276505
0.0453367
0.0329049
0.0885687
0.042632
0.0484826
0.0763033
0.0304225
0.0478501
0.0373147
0.0392173
0.0299069
0.0322029
0.0601357
0.0340489
0.0341052
0.0357176
0.00245202
0.0343492
0.0745364
0.0912999
0.00516963
0.0334965
0.0888196
0.080184
0.0204841
0.0842866
0.023824
0.0529607
0.0953033
0.0237485
0.031633
0.088501
0.0248447
0.0307916
0.0248263
0.0190591
0.0741204
0.023908
0.083261
0.0106822
0.0530136
0.0246465
0.0327522
0.0261423
0.034495
0.0215096
0.0720558
0.0867454
0.0794804
0.0650561
0.0436511
0.0326455
0.088233
0.0341009
0.0883872
0.00831655
0.0444111
0.0433601
0.0234226
0.0233525
0.0781648
0.0684177
0.0299413
0.024768
0.0305163
0.0399873
0.0235698
0.0353884
0.0454285
0.0602293
0.0400799
0.0367094
0.0320966
0.0240338
0.0804554
0.03634
0.0361188
0.0465214
0.0450739
0.0504853
0.0378296
0.0296827
0.0293389
0.00478418
0.00228746
0.0618382
0.04287
0.0701852
0.0238236
0.0261817
0.0449879
0.0193717
0.029663
0.0844092
0.0810959
0.0207055
0.0914129
0.0104949
0.0753042
0.0202758
0.0816922
0.0253697
0.0337531
0.0528077
0.0507222
0.0650633
0.00680627
0.0970636
0.0227096
0.0512243
0.0221363
0.080411
0.0627082
0.0531861
0.023948
0.0332547
0.0721085
0.0316357
0.0404863
0.0418616
0.0742766
0.0242608
0.0550004
0.0195149
0.0818809
0.0213388
0.0178759
0.0382771
0.0386584
0.084339
0.0605592
0.0307992
0.039088
0.0482603
0.0228348
0.0536791
0.038806
0.0240959
0.0152203
0.0882223
0.0231834
0.0224247
0.00437541
0.00509192
0.0257019
0.0873862
0.0772336
0.0287328
0.0660594
0.0872481
0.025407
0.0799658
0.07805
0.0845063
0.0417544
0.0848982
0.0229923
0.00465421
0.0231783
0.0510024
0.0371334
0.0224817
0.086706
0.0234326
0.0445632
0.0797292
0.0343301
0.0242242
0.0887153
0.0792854
0.0399383
0.00263926
0.0946264
0.0190433
0.0306298
0.0407712
0.0336297
0.0289095
0.0203843
0.0568455
0.00519154
0.0337166
0.0623798
0.0801429
0.0243896
0.0231653
0.0233552
0.0243869
0.0412391
0.0403351
0.0551022
0.0327833
0.0931434
0.0465369
0.0293348
0.0312757
0.0242937
0.0857989
0.0976097
0.0237177
0.0428911
0.0795484
0.0474335
0.0606905
0.0930205
0.0208463
0.0276521
0.036971
0.0184987
0.0298471
0.0557242
0.0838658
0.0233385
0.0234988
0.0194837
0.00523165
0.0623274
0.0236063
0.0169265
0.0710411
0.0579242
0.0177982
0.0234908
0.076698
0.0903144
0.0815204
0.0425474
0.0793172
0.0514817
0.0878791
0.00551853
0.0220904
0.0927943
0.0230627
0.0130058
0.0257675
0.0254748
0.04319
0.0504049
0.0435887
0.0777914
0.0162557
0.0400839
0.059282
0.0640659
0.0354777
0.0873871
0.00240972
0.0719226
0.0241808
0.00509657
0.0581757
0.0265024
0.0282871
0.0510838
0.0955309
0.0165185
0.0743098
0.0740279
0.0169143
0.0462544
0.0525017
0.0233731
0.0241402
0.0236947
0.0335498
0.0371537
0.0269697
0.00503862
0.0908842
0.017503
0.0779198
0.00556854
0.088163
0.0563304
0.00275177
0.0628449
0.0240223
0.0639087
0.0516298
0.0228432
0.0283366
0.0251223
0.0174016
0.028349
0.0711638
0.0277249
0.00623173
0.0197158
0.0343868
0.0242324
0.0251745
0.0230022
0.0799285
0.00267138
0.0297114
0.025099
0.053826
0.0305158
0.035474
0.0693049
0.0919823
0.0648789
0.023612
0.0234594
0.0501675
0.0235996
0.0358312
0.0253377
0.0558011
0.0745277
0.0118671
0.00581346
0.0265885
0.0209309
0.0615443
0.0583424
0.045619
0.0519003
0.0445285
0.0290525
0.0863225
0.0879523
0.0443035
0.00625387
0.0311035
0.0198083
0.0516825
0.0401547
0.0445494
0.0228777
0.0204817
0.0412376
0.0679559
0.0493619
0.0555204
0.0336994
0.0345527
0.023327
0.0855726
0.0663668
0.00252114
0.0236435
0.0868666
0.0879651
0.0337443
0.0156814
0.0907912
0.0529299
0.0168966
0.0227167
0.0514404
0.0358826
0.02542
0.0581865
0.010418
0.0723096
0.0171579
0.0899579
0.0459348
0.0249939
0.0545583
0.0236584
0.0344643
0.0343921
0.0712195
0.0252697
0.0236279
0.00533396
0.0276224
0.0235867
0.0043354
0.0608307
0.075979
0.0234983
0.0232261
0.0351358
0.0027416
0.0206064
0.0233971
0.0213956
0.0953451
0.0233816
0.0250941
0.037066
0.0300056
0.00537236
0.0267385
0.00251173
0.0212743
0.0156504
0.0573336
0.052699
0.0624116
0.0167526
0.0240198
0.0182406
0.0185381
0.0242987
0.0032982
0.0309511
0.0274086
0.0777407
0.0309063
0.0355083
0.093595
0.0173934
0.0239358
0.0241078
0.0281778
0.0372706
0.0429087
0.0174863
0.0593954
0.04818
0.0849801
0.0822142
0.0100099
0.0323126
0.0820901
0.024718
0.0228556
0.0102782
0.0694031
0.0302916
0.0217684
0.0422596
0.0499031
0.0228811
0.0232619
0.0568037
0.037696
0.0226364
0.023722
0.0216811
0.0408299
0.0710864
0.0226116
0.0741383
0.00464507
0.0198692
0.0057696
0.034596
0.0937648
0.0716006
0.0797755
0.0908023
0.0849659
0.054164
0.0468189
0.0405429
0.0230896
0.0257708
0.0359977
0.0430418
0.0484462
0.00503352
0.0238282
0.0190231
0.0224523
0.0218386
0.0224196
0.0229124
0.0553198
0.0326567
0.0191262
0.0509463
0.0200363
0.0229005
0.0271018
0.0216852
0.0859827
0.0867099
0.0211783
0.0399123
0.0323187
0.0580216
0.0365751
0.0184479
0.0196677
0.00996712
0.022454
0.0518437
0.087928
0.0473598
0.0297377
0.0206482
0.0395923
0.0332519
0.0937592
0.0380081
0.0243703
0.0432002
0.0235939
0.0849692
0.033039
0.0539239
0.0249336
0.0282427
0.055357
0.0416718
0.0695988
0.0573671
0.031009
0.0211424
0.0235058
0.0290575
0.0786764
0.0165474
0.0594022
0.0610106
0.0222092
0.0754829
0.04504
0.062048
0.0526387
0.070269
0.0158537
0.0265606
0.0668001
0.0865743
0.02741
0.0149092
0.0545251
0.0225874
0.0377623
0.0396433
0.0110376
0.0877142
0.0134117
0.0327668
0.0385336
0.0764442
0.0715078
0.0206668
0.0322295
0.0447693
0.0338004
0.0236253
0.0237236
0.0146769
0.0299146
0.0265115
0.0237924
0.090459
0.0540382
0.0751442
0.0780065
0.0189674
0.0223622
0.0570479
0.0593067
0.0189353
0.0441258
0.0436514
0.02396
0.0699903
0.0687432
0.0831448
0.0138604
0.0205067
0.0218715
0.011727
0.0464358
0.0458372
0.0201071
0.0315192
0.0718877
0.0228745
0.0162748
0.0309553
0.0766648
0.0183947
0.0373276
0.0317439
0.0444311
0.0293045
0.0826307
0.0813722
0.080969
0.050379
0.0237151
0.0539718
0.0236835
0.0700291
0.0919216
0.0442086
0.0413874
0.0100301
0.0775832
0.0150684
0.0450387
0.0371433
0.0678415
0.0230957
0.0486058
0.0148332
0.0242531
0.02233
0.0924907
0.053972
0.0390071
0.0872545
0.0354629
0.0575648
0.0188303
0.056741
0.023919
0.0413416
0.00234561
0.0603365
0.0203806
0.023823
0.0766934
0.0148346
0.067272
0.0176287
0.0614319
0.0255231
0.049832
0.0203514
0.0689494
0.0480248
0.0892643
0.0753744
0.0262956
0.0165931
0.014758
0.0414515
0.0656034
0.0532248
0.0602024
0.0457896
0.0614217
0.0723864
0.0231977
0.0777377
0.0738057
0.0341411
0.0755639
0.0698729
0.0211679
0.0343505
0.0250688
0.0804881
0.025073
0.0242595
0.0237502
0.0905958
0.0908588
0.0426717
0.0490282
0.0546435
0.0213336
0.0460663
0.0243632
0.035126
0.0244489
0.0528623
0.0513858
0.0457971
0.0208676
0.0827779
0.00459825
0.0195535
0.0330873
0.070298
0.0473374
0.0707527
0.0211159
0.0235773
0.0246182
0.0886112
0.0257349
0.0226349
0.0595126
0.0796407
0.0190881
0.0363129
0.0600045
0.00715947
0.0661723
0.0900411
0.0022371
0.0205134
0.0517638
0.0756929
0.059765
0.0269037
0.0358562
0.0469128
0.0236751
0.024016
0.0208037
0.0233333
0.0634121
0.0758519
0.0288442
0.0875993
0.0706117
0.0247899
0.021499
0.0301196
0.0724793
0.0585425
0.0496568
0.0393018
0.0850358
0.0505447
0.0345206
0.0388505
0.0367871
0.0838712
0.0388185
0.0522344
0.0423424
0.0356343
0.0297314
0.0317202
0.0174938
0.0158275
0.0454646
0.0583924
0.0311653
0.0481573
0.0436899
0.0240565
0.0755144
0.034159
0.0451667
0.0212989
0.0904166
0.0293645
0.0205079
0.0290372
0.0194774
0.0281044
0.0261757
0.0237706
0.0232541
0.0300877
0.0493532
0.0751918
0.030689
0.0844519
0.0285421
0.0369133
0.0567821
0.0563102
0.0304505
0.0869764
0.0345231
0.0533998
0.0288421
0.0632776
0.025996
0.00240852
0.0919319
0.0287583
0.052771
0.0497148
0.0346454
0.0235334
0.0236917
0.0322277
0.0211206
0.0246742
0.0299234
0.0254419
0.0476223
0.0242026
0.0232822
0.0266757
0.0138121
0.0681837
0.00443725
0.0552837
0.0487773
0.0898895
0.0254826
0.0241492
0.0292061
0.0249944
0.0249753
0.0605602
0.0273155
0.0332263
0.0650487
0.0331839
0.0233563
0.00214501
0.0751544
0.024959
0.00434307
0.0175923
0.0609776
0.0177676
0.0188798
0.0272584
0.0713005
0.0246616
0.023612
0.0197765
0.0354289
0.0173734
0.0875201
0.0394671
0.0267775
0.033615
0.0715261
0.0195818
0.0238768
0.0752053
0.0850341
0.0558955
0.0150667
0.0342845
0.0345765
0.0485997
0.0369896
0.0822503
0.076512
0.0400499
0.0339021
0.0168022
0.020405
0.0383071
0.020398
0.0838411
0.0111228
0.0222342
0.0336092
0.0693824
0.0361446
0.0762414
0.0515183
0.059027
0.0346778
0.0186369
0.0604119
0.0811462
0.0239553
0.0177574
0.028779
0.018687
0.0247997
0.0623685
0.0402686
0.0438079
0.0775516
0.0782866
0.0397732
0.0774334
0.0184799
0.0205521
0.025155
0.0667301
0.013944
0.0128633
0.0157288
0.0424418
0.0317851
0.0167744
0.0705833
0.0795599
0.0700592
0.0220082
0.0501288
0.087148
0.0361079
0.0261176
0.0292213
0.0245613
0.0772669
0.017948
0.0397006
0.0294643
0.045032
0.0233604
0.0288507
0.039913
0.00625004
0.00551034
0.0298306
0.0439196
0.0157855
0.0244067
0.0461582
0.0434728
0.0232842
0.0739129
0.0495575
0.0241131
0.0258337
0.0275358
0.0384835
0.0184519
0.023475
0.0713098
0.0452137
0.0226835
0.0733825
0.0735867
0.0578402
0.0374327
0.0177528
0.0221048
0.0357116
0.0746428
0.0423433
0.0984279
0.0846824
0.0820649
0.023355
0.0235212
0.0300893
0.0212936
0.0218371
0.0182045
0.0698059
0.0241745
0.0247166
0.024073
0.0157624
0.0634149
0.0123405
0.0356689
0.0147516
0.013784
0.014686
0.0102184
0.062849
0.0350387
0.0243625
0.0748667
0.0319617
0.0290488
0.0735116
0.0313202
0.0236412
0.0731242
0.0206311
0.034397
0.021515
0.0274188
0.0304422
0.0410281
0.0802724
0.0237239
0.0668434
0.0375972
0.0463716
0.0288247
0.0822857
0.0850507
0.024323
0.0198241
0.0295478
0.0103771
0.0361214
0.0675967
0.0844175
0.0483373
0.0148138
0.0848308
0.017659
0.0293489
0.0547267
0.0518657
0.0864498
0.0752457
0.0333695
0.0801217
0.0136618
0.0253428
0.0197433
0.0419687
0.0192692
0.0801182
0.0172456
0.0227912
0.0206586
0.0121612
0.0128863
0.020242
0.0379276
0.0574035
0.0399184
0.0643634
0.0542898
0.0398134
0.0190845
0.0209694
0.036808
0.0294883
0.0239333
0.023664
0.0245077
0.0126452
0.0235218
0.0185175
0.0231826
0.0313907
0.0234093
0.0160706
0.0411532
0.0362756
0.0767679
0.0866612
0.0385016
0.0239929
0.0353901
0.0352627
0.0684518
0.028616
0.028321
0.03172
0.0263287
0.0798372
0.0292605
0.0236534
0.0235432
0.0204825
0.0297711
0.0356059
0.073985
0.0773374
0.0138182
0.030151
0.0737079
0.0360314
0.0710868
0.0795104
0.0383859
0.0732221
0.0724921
0.0670692
0.0418292
0.018859
0.0121906
0.0126683
0.0407934
0.0680009
0.0236617
0.0530876
0.0724151
0.0664479
0.0123265
0.0243759
0.0329245
0.0167287
0.0237062
0.0706226
0.0257077
0.0274167
0.0706237
0.0128346
0.0808483
0.0739878
0.0292605
0.0164241
0.0296144
0.0565933
0.0720992
0.0117581
0.0115457
0.0140224
0.0884038
0.121901
0.136193
0.140958
0.140077
0.135306
0.128033
0.119271
0.109758
0.100064
0.0905567
0.0814942
0.0730384
0.065275
0.0582324
0.0519
0.0462418
0.0412078
0.0367406
0.0327859
0.0876997
0.120945
0.135258
0.14011
0.139365
0.134741
0.127612
0.118983
0.109588
0.0999789
0.090539
0.0815253
0.0731022
0.0653584
0.058326
0.0519972
0.0463388
0.0413026
0.0368326
0.0328747
0.0869639
0.119973
0.13429
0.139238
0.138627
0.134154
0.127176
0.118684
0.109408
0.0998913
0.0905223
0.0815599
0.0731714
0.0654487
0.0584272
0.0521027
0.0464443
0.0414058
0.036932
0.0329694
0.0861997
0.118976
0.133291
0.13834
0.137865