/*--------------------------------*- C++ -*----------------------------------*\
  =========                 |
  \\      /  F ield         | OpenFOAM: The Open Source CFD Toolbox
   \\    /   O peration     | Website:  https://openfoam.org
    \\  /    A nd           | Version:  10
     \\/     M anipulation  |
\*---------------------------------------------------------------------------*/
FoamFile
{
    format      ascii;
    class       volScalarField;
    location    "1100";
    object      nut;
}
// * * * * * * * * * * * * * * * * * * * * * * * * * * * * * * * * * * * * * //

dimensions      [0 2 -1 0 0 0 0];

internalField   nonuniform List<scalar> 
23845
(
0.013613
0.0138602
0.00773034
0.0140788
0.0181564
0.0220906
0.00798912
0.00991753
0.0194728
0.0140973
0.0221354
0.0229218
0.0189915
0.0206087
0.00610798
0.0157983
0.0210937
0.0233481
0.0177713
0.0224257
0.0119512
0.0229206
0.0128968
0.0192311
0.0165179
0.0178914
0.00981351
0.022018
0.00347366
0.0221009
0.014805
0.00126662
0.00497668
0.0227575
0.0229499
0.0230055
0.00109719
0.0229274
0.02261
0.0198855
0.0173323
0.0223373
0.0184604
0.0230202
0.0177387
0.0199414
0.0193397
0.016279
0.00221843
0.00194498
0.00565858
0.0100197
0.00126927
0.0212809
0.00122572
0.0199649
0.0144974
0.0109646
0.0123397
0.0138751
0.00627482
0.0227558
0.016528
0.00430152
0.0186896
0.0195265
0.00965937
0.0179621
0.0177198
0.0176468
0.00827247
0.00815989
0.017978
0.0066316
0.0181526
0.00634464
0.0228663
0.0226582
0.0130878
0.0206652
0.0109801
0.00745152
0.0141593
0.0113154
0.00645327
0.0229496
0.00854898
0.00117278
0.0187495
0.0194323
0.00465153
0.0171394
0.00374724
0.0228294
0.0105653
0.00546209
0.0204576
0.0161162
0.0182094
0.0193818
0.0199761
0.00926209
0.0169527
0.000827587
0.00295041
0.0119501
0.0218827
0.0179273
0.0108766
0.02267
0.0222408
0.0228752
0.00643469
0.0152198
0.0229699
0.0131116
0.0181827
0.0149759
0.0036622
0.0071382
0.0227342
0.00252966
0.0177433
0.0084386
0.00899866
0.0179544
0.00690957
0.00194218
0.00675428
0.017891
0.00478033
0.0195082
0.0222381
0.0213352
0.0199904
0.0154753
0.000727219
0.022914
0.0109527
0.0225501
0.00228359
0.0225
0.0227548
0.0232103
0.0168193
0.0229178
0.0139958
0.00700938
0.0057019
0.0185455
0.00546822
0.0185919
0.0103343
0.0198533
0.00631756
0.0200434
0.0181539
0.022887
0.00438793
0.00513257
0.017519
0.00623337
0.0100307
0.0189222
0.017576
0.0199346
0.02191
0.00294988
0.0221835
0.023026
0.0217093
0.0134968
0.0190851
0.00950881
0.0188564
0.0121784
0.0168968
0.0199071
0.0179726
0.0228474
0.0198117
0.0201913
0.00693058
0.022784
0.0162746
0.0188825
0.022393
0.0107579
0.00289659
0.0220733
0.00381569
0.0206402
0.0204934
0.0215919
0.0170764
0.0200974
0.00195704
0.00293122
0.000749557
0.0214247
0.0213536
0.0202913
0.00638424
0.0209462
0.0108621
0.0101803
0.00739137
0.0222174
0.011625
0.0230996
0.0218036
0.00282499
0.0163856
0.0218592
0.00329981
0.00121261
0.0220625
0.0226501
0.000550166
0.00545794
0.0179448
0.00648047
0.00183499
0.0186422
0.0231754
0.00565191
0.000743271
0.0206584
0.0221642
0.0173591
0.0226471
0.00289159
0.0228662
0.0178188
0.0186486
0.00503047
0.0185167
0.0147786
0.0187882
0.0123751
0.00158558
0.0144347
0.0119244
0.0194098
0.00307557
0.0164331
0.0217143
0.0179196
0.0113138
0.00641469
0.020508
0.0229335
0.00567395
0.0181383
0.00690556
0.00477897
0.00713817
0.00717609
0.0228544
0.0194447
0.000836322
0.0229446
0.00749818
0.0218467
0.0214243
0.0192926
0.0128562
0.00706166
0.0156323
0.0144657
0.0227188
0.0132108
0.0050953
0.0207886
0.0230925
0.0203106
0.00691326
0.0208107
0.00191711
0.0132998
0.0116961
0.0220884
0.00730908
0.0177197
0.0229581
0.00580301
0.0105115
0.0198976
0.0103566
0.0066359
0.0122925
0.00371894
0.00484646
0.00684771
0.0113515
0.0229316
0.0050828
0.0213634
0.0229531
0.0039915
0.00411951
0.00583957
0.00490511
0.0147941
0.021254
0.0150643
0.00388937
0.0052829
0.0198519
0.00184713
0.00481968
0.0115259
0.0186759
0.0217553
0.0109139
0.00218233
0.0051849
0.0219425
0.00449248
0.0179437
0.00274052
0.00290752
0.00462445
0.0218888
0.00652083
0.0223173
0.0139371
0.0174122
0.00724787
0.0235386
0.00816287
0.0189049
0.00540605
0.0229909
0.00657657
0.0143567
0.0126786
0.0235611
0.0226833
0.0132887
0.0127178
0.00510507
0.0226223
0.0178078
0.0176929
0.00143256
0.0229905
0.00611605
0.0135586
0.00552178
0.0134559
0.00472059
0.00183026
0.00662057
0.00127602
0.0205395
0.0232553
0.0184223
0.00678031
0.011644
0.00745378
0.018597
0.0142018
0.0179617
0.00323655
0.0217404
0.00703102
0.0226853
0.00380382
0.017929
0.0228742
0.00407679
0.00305355
0.0229272
0.0228279
0.00529971
0.0103228
0.0137449
0.0227022
0.0121277
0.00689373
0.0229313
0.0127886
0.0177531
0.0178342
0.0227926
0.0224744
0.0128883
0.0224401
0.0115467
0.00912744
0.023049
0.00357307
0.00282757
0.00433769
0.00425008
0.0223326
0.0177122
0.0176232
0.0229975
0.0119668
0.0159059
0.00907412
0.0118062
0.0135054
0.00675106
0.0223117
0.00335901
0.00308435
0.00788751
0.00594122
0.0178607
0.00763423
0.00602883
0.0171629
0.0102937
0.0160053
0.0233806
0.0225096
0.0134869
0.00364632
0.0226465
0.0197548
0.0136275
0.00818151
0.0126405
0.00347672
0.0147064
0.00948208
0.00844579
0.0203618
0.0230413
0.00472693
0.0238808
0.0209064
0.0179828
0.0229421
0.0189119
0.00455199
0.0107393
0.0064103
0.00317612
0.00279507
0.0064535
0.0152335
0.00465305
0.0221153
0.0173632
0.0225758
0.0124996
0.0132037
0.0187804
0.00299188
0.0229776
0.0179076
0.00526916
0.0146106
0.0205747
0.00822599
0.0208709
0.0105646
0.0144726
0.000738937
0.0160273
0.0225466
0.0224987
0.021787
0.0031462
0.0178168
0.00531454
0.0219944
0.022059
0.0158391
0.0075406
0.00431482
0.0194133
0.0185772
0.00331185
0.0215476
0.0185548
0.0185609
0.0172265
0.0152858
0.0231843
0.0229673
0.00740359
0.0228059
0.0228881
0.00857122
0.00686875
0.0180489
0.00447578
0.00583062
0.0179246
0.0103931
0.0191981
0.0180199
0.00973257
0.0184043
0.0229256
0.00923948
0.00249442
0.00556401
0.0191502
0.0118994
0.0126122
0.0224045
0.0180921
0.0224636
0.00617015
0.0152908
0.00467968
0.00113849
0.0155911
0.0210129
0.0177827
0.0167073
0.00494747
0.00552363
0.0222877
0.000795072
0.0207224
0.0232797
0.00422818
0.0176498
0.00786145
0.00676117
0.00487654
0.0120246
0.00403058
0.00523183
0.00392245
0.0213367
0.0138043
0.0188012
0.0180784
0.021379
0.00585758
0.0205095
0.0131905
0.0068882
0.0205779
0.0135668
0.0132614
0.0171229
0.0131914
0.023291
0.0187314
0.0218173
0.0192804
0.01981
0.0229543
0.0084121
0.0198649
0.0107371
0.011141
0.022923
0.00506384
0.022999
0.0224099
0.0111871
0.0138617
0.0149721
0.0223856
0.0228966
0.00273439
0.00337572
0.0180392
0.00425811
0.0181328
0.0176665
0.00790838
0.0188521
0.0219808
0.0153738
0.0203024
0.0079589
0.00487804
0.00791487
0.0202332
0.0175841
0.0228733
0.0170493
0.00738536
0.0045295
0.0234064
0.0179504
0.0180004
0.00800697
0.018135
0.01395
0.00562423
0.0129604
0.0232108
0.00672342
0.0233482
0.0176232
0.020764
0.0233751
0.0228404
0.00936484
0.0213637
0.0214823
0.00679621
0.0116382
0.0181475
0.00745801
0.0208166
0.00751758
0.0199714
0.0187392
0.0174147
0.0139545
0.02061
0.00408323
0.0146199
0.0224286
0.018281
0.0220489
0.0210248
0.0211784
0.00635185
0.0201674
0.0207757
0.0165704
0.0239012
0.0174011
0.0235971
0.0175856
0.0156048
0.0189335
0.0196101
0.0174808
0.022197
0.0229305
0.00617719
0.0157679
0.0152032
0.0175774
0.0231063
0.0166454
0.0226984
0.022554
0.0181147
0.0139035
0.0203664
0.0122489
0.0181085
0.0183903
0.00634367
0.0230618
0.0229733
0.0226828
0.0125643
0.00533805
0.00433337
0.00437037
0.0167837
0.00793254
0.0221581
0.0220264
0.0185579
0.0219933
0.0171488
0.0210259
0.0175528
0.0176004
0.0201387
0.0161658
0.0202014
0.0159285
0.0239049
0.021025
0.0239635
0.023974
0.0234078
0.023987
0.0228909
0.0206874
0.0211326
0.0209434
0.0239599
0.0220754
0.0238855
0.0211858
0.0198802
0.0200305
0.0238822
0.0217343
0.0186432
0.0237291
0.0217544
0.0240388
0.0240533
0.0239431
0.0238391
0.023642
0.0240383
0.0232469
0.0240295
0.0204675
0.0239696
0.0203802
0.0239502
0.0227853
0.0220408
0.0239036
0.0236393
0.0237497
0.0179001
0.0211569
0.0161168
0.0187612
0.0212416
0.0211426
0.0237056
0.0220416
0.0221931
0.0236446
0.023821
0.0237858
0.0238595
0.0235719
0.021265
0.0229447
0.0169676
0.0176524
0.0224641
0.0189353
0.02372
0.0235311
0.0233908
0.0227182
0.0212699
0.0231356
0.0227917
0.0219451
0.023486
0.020202
0.0214526
0.0177293
0.0234245
0.0213876
0.00874188
0.0181144
0.0234773
0.0229244
0.0234237
0.0218042
0.0223664
0.00757948
0.0219396
0.0177259
0.0200813
0.0211253
0.00768197
0.0197702
0.0199795
0.0237209
0.023889
0.0231791
0.0222976
0.0240644
0.0232158
0.0231415
0.0240694
0.0184572
0.023916
0.0152783
0.0237987
0.0233772
0.0237959
0.0238509
0.0225055
0.0133502
0.0201099
0.0221127
0.0192389
0.0199732
0.0221788
0.0237398
0.023931
0.00487924
0.0202867
0.0213444
0.0233388
0.0190351
0.0233451
0.023311
0.0233406
0.0236227
0.0208917
0.0220555
0.0223148
0.0234622
0.0212506
0.0169558
0.0235405
0.0219364
0.0234313
0.0234234
0.0205196
0.0227409
0.0212416
0.0213597
0.0211208
0.022112
0.0217701
0.0213521
0.0219689
0.0165006
0.0184473
0.0235814
0.0197056
0.023291
0.0238202
0.00436251
0.0214736
0.017406
0.0169154
0.017677
0.017627
0.0165036
0.0175862
0.0175508
0.0177995
0.0174252
0.0176929
0.0175778
0.017705
0.0176552
0.0177944
0.0175026
0.0173764
0.0175947
0.0175931
0.0161266
0.0233373
0.0234802
0.00886917
0.0234584
0.017632
0.0191077
0.0226605
0.0185689
0.0239788
0.0213497
0.0240625
0.0221206
0.0172997
0.0173922
0.0171258
0.0163986
0.0239653
0.0219743
0.0223622
0.0192126
0.0173947
0.0229301
0.00700566
0.0229383
0.0172106
0.0220456
0.0224714
0.0233363
0.0199599
0.0166797
0.017158
0.0150142
0.0156922
0.0170968
0.0146351
0.0175639
0.0174453
0.017578
0.0175048
0.0175255
0.0175509
0.018728
0.0235717
0.0233835
0.0179945
0.0221623
0.0188092
0.017125
0.0237481
0.0170423
0.0148262
0.0171382
0.0174985
0.0165979
0.0175779
0.0154903
0.017427
0.0175463
0.0144004
0.0174337
0.01756
0.0238124
0.0212971
0.0228739
0.0165796
0.0237383
0.0219543
0.0239295
0.0209117
0.0237928
0.0233604
0.0216055
0.00358205
0.0229868
0.0239458
0.0237963
0.0238697
0.021118
0.0237591
0.0229623
0.0169532
0.023673
0.0233804
0.0054232
0.00255842
0.0236178
0.0235271
0.0209597
0.0165413
0.021724
0.00595852
0.023205
0.0177089
0.0180809
0.017532
0.0221779
0.0234386
0.0197219
0.0201999
0.0231923
0.0128124
0.0175057
0.0228203
0.023122
0.0177242
0.0237297
0.0234409
0.0236146
0.0198366
0.0176704
0.0237173
0.0237784
0.023837
0.0235534
0.023562
0.0217879
0.023394
0.0198321
0.0214005
0.0217117
0.0235307
0.0170329
0.023281
0.0236735
0.0211362
0.0235335
0.0230208
0.0235025
0.0187957
0.0233858
0.0233006
0.023013
0.0195993
0.0220811
0.022022
0.0130794
0.0232899
0.0200659
0.023335
0.0234081
0.0209429
0.0181752
0.023724
0.0212405
0.0155005
0.0200893
0.0232996
0.0234448
0.0232468
0.0232117
0.015826
0.023173
0.0230615
0.0226253
0.0160345
0.0186834
0.0231625
0.0229781
0.0222184
0.018787
0.0216314
0.0205086
0.0190583
0.0219823
0.0224405
0.023288
0.0196278
0.0185947
0.0202035
0.00172605
0.0204775
0.00478357
0.0195482
0.0217211
0.00196582
0.0231902
0.0178323
0.0228446
0.0175135
0.0226859
0.0234009
0.0221101
0.0213208
0.0227045
0.00580628
0.0233491
0.0233917
0.0186073
0.0194033
0.0184452
0.0160049
0.0233595
0.0232507
0.0220157
0.0233712
0.0214114
0.0177895
0.0215118
0.0199375
0.02224
0.0161618
0.0152031
0.0158021
0.0149065
0.0145581
0.02361
0.0234353
0.0218842
0.0192219
0.0193154
0.023811
0.0190351
0.0238791
0.0222022
0.024026
0.0235707
0.0240476
0.0240291
0.0237175
0.0239231
0.0239342
0.0237781
0.0235252
0.0223082
0.0235429
0.0137924
0.0229909
0.0232372
0.0142157
0.0231455
0.0187307
0.0230176
0.0228998
0.0237311
0.0235261
0.0221247
0.023315
0.0191069
0.0205523
0.021005
0.018167
0.0231038
0.0142022
0.0221482
0.0178594
0.024053
0.0225116
0.0196604
0.00441346
0.00849408
0.0207668
0.0189197
0.0185766
0.0234937
0.0227057
0.0232341
0.0237294
0.0197887
0.0238561
0.02399
0.0238871
0.0238097
0.00264949
0.0238751
0.0169726
0.0232549
0.0237733
0.0179238
0.0185492
0.0210045
0.00438695
0.0235581
0.0177509
0.0181626
0.0235344
0.0227757
0.0234223
0.0231659
0.0207809
0.0224453
0.0234876
0.0234235
0.0127863
0.0231837
0.0232168
0.0228988
0.0142688
0.0198862
0.0221146
0.0221406
0.0179414
0.0182827
0.0233427
0.0196567
0.0181104
0.00929781
0.0179504
0.0231723
0.0186281
0.0227947
0.0222578
0.0232719
0.0235793
0.0215573
0.0233543
0.0232007
0.0229694
0.0226464
0.0224232
0.022735
0.0215017
0.023191
0.0237133
0.0220283
0.0125921
0.0106484
0.0223369
0.0217658
0.0214329
0.0198794
0.0209969
0.0175066
0.0221698
0.0233813
0.0142453
0.0228815
0.0222788
0.0232065
0.0203729
0.0222826
0.0179123
0.0213909
0.0225088
0.0187445
0.021825
0.0192388
0.0223586
0.0221313
0.0202544
0.0209291
0.0200745
0.0200234
0.0222588
0.0231101
0.022092
0.0239728
0.0175783
0.023766
0.0180163
0.0174802
0.0162019
0.0177899
0.0177002
0.0156675
0.0177168
0.0174701
0.0150404
0.0177847
0.0175658
0.0143554
0.017604
0.0176778
0.0147373
0.0210775
0.0185267
0.0196598
0.0205155
0.0150513
0.0224159
0.0230814
0.0200476
0.0172877
0.0197257
0.0210721
0.0152686
0.0218329
0.0230831
0.015714
0.0236389
0.0220923
0.0238315
0.0185172
0.00241238
0.021958
0.0232636
0.0231166
0.0228878
0.0231361
0.0234466
0.0234191
0.00566577
0.0238412
0.0234011
0.0230228
0.0199137
0.0235169
0.0232019
0.012494
0.020134
0.0198432
0.0174952
0.0189778
0.0232857
0.023105
0.0201855
0.00498665
0.023157
0.0157452
0.0220747
0.0227063
0.0102191
0.0136728
0.0215713
0.0211394
0.0199024
0.018451
0.0211894
0.0212183
0.0211726
0.013023
0.0224034
0.0205717
0.0190017
0.0188456
0.0180723
0.0197191
0.023569
0.0228916
0.00379439
0.0201315
0.0201652
0.0171036
0.022939
0.000917774
0.0204843
0.00460399
0.0230911
0.0177719
0.0210876
0.0213806
0.022713
0.020996
0.0218147
0.0209628
0.0214221
0.0185841
0.0179891
0.020865
0.0230439
0.0184457
0.018387
0.0218244
0.0213349
0.021968
0.020996
0.0185308
0.0219666
0.0238269
0.0198456
0.0210248
0.0151628
0.0225212
0.0183141
0.0209917
0.0240674
0.0230056
0.0198085
0.00655222
0.0174817
0.0172392
0.0214987
0.0193529
0.0219145
0.0206896
0.0173329
0.0208054
0.0126382
0.0059454
0.0186546
0.0217201
0.0219938
0.00522255
0.021199
0.0208981
0.0206055
0.0185175
0.0151467
0.0228564
0.0217761
0.00523784
0.0115611
0.0211642
0.0184934
0.0173538
0.0203628
0.00510638
0.0226829
0.0136008
0.0226392
0.0153681
0.0186376
0.0181578
0.0114449
0.0228902
0.00591399
0.0144763
0.0200218
0.00804726
0.0201578
0.0155983
0.014109
0.0124484
0.0216818
0.0197456
0.0119527
0.0230425
0.0168487
0.0217843
0.0233705
0.0223394
0.0201726
0.0168418
0.0230711
0.0192595
0.020925
0.0195241
0.0222452
0.0232908
0.0200161
0.0231845
0.0217467
0.0154868
0.00978092
0.0184258
0.0230483
0.022066
0.022298
0.0214077
0.0222732
0.0227034
0.00716332
0.0185117
0.0168799
0.0010065
0.0208826
0.0210855
0.019713
0.0207492
0.017144
0.0151702
0.0232011
0.0237204
0.0238932
0.0207357
0.0225321
0.0211326
0.0176969
0.0230484
0.0226741
0.0151518
0.00460955
0.0197123
0.0193246
0.0204204
0.0111558
0.0220451
0.0206777
0.022475
0.02276
0.0230873
0.0218516
0.0215135
0.0204556
0.022594
0.0229153
0.0227385
0.00829969
0.00737134
0.0232855
0.0217062
0.0202504
0.022242
0.0193759
0.0231473
0.0218588
0.0197494
0.0222952
0.00236183
0.0191419
0.00701967
0.0227815
0.023094
0.0104825
0.0212744
0.0210324
0.0221749
0.0200548
0.0199294
0.0184474
0.0207547
0.0170347
0.022846
0.0226794
0.0232715
0.0213199
0.0124925
0.0224946
0.0196417
0.0234308
0.0170576
0.00811181
0.0222739
0.0195617
0.0138884
0.0231014
0.022768
0.0222731
0.0177694
0.00565577
0.00381369
0.0235983
0.0229217
0.0200516
0.0209228
0.0159607
0.0193005
0.0230015
0.0214274
0.0170805
0.0199104
0.0136182
0.0222865
0.0208967
0.0198423
0.0132873
0.0193002
0.0205839
0.0203626
0.00710415
0.0204667
0.0200207
0.0152322
0.0229431
0.0185581
0.0199019
0.0164469
0.00502032
0.0179721
0.0206459
0.0214017
0.00438809
0.0198188
0.0174579
0.0191428
0.0111407
0.0219873
0.0180007
0.0201483
0.0110525
0.0156044
0.0230851
0.0200213
0.0230012
0.0227843
0.0184548
0.00903715
0.0222761
0.023074
0.0230169
0.0139846
0.0211423
0.0180691
0.018523
0.0230641
0.0228466
0.00731582
0.0200868
0.0217928
0.0229725
0.0184534
0.0103762
0.00511206
0.00269278
0.00703896
0.0115367
0.0203
0.0182588
0.0227659
0.0209826
0.0229869
0.0179731
0.02309
0.00691134
0.00392865
0.0228955
0.0230626
0.0153619
2.04612e-05
0.0151878
0.00824331
0.0216687
0.0131395
0.0230578
0.0194169
1.67609e-05
0.0228025
0.0143328
0.0223173
0.0225064
0.0156427
0.00322066
0.0079549
0.0137754
0.0152224
0.0179065
0.00182576
0.0211038
0.0137014
0.0227602
0.0113863
0.0194466
0.018757
0.0187974
0.0223857
0.019292
0.0221456
0.00271202
0.0150043
0.00649575
0.00757739
0.02289
0.0144576
0.0222067
0.0215222
0.0229267
0.0191989
0.00987577
0.0221054
0.0199174
0.0130242
0.00573204
0.0233239
0.0214156
0.012204
0.0213466
0.0232766
0.0200111
0.0177528
0.020208
0.0194227
0.0230078
0.00622492
0.0226044
0.0225363
0.0230247
0.0160266
0.0134759
0.0206532
0.0179904
0.0127133
0.0157319
0.0159395
0.0211727
0.00387742
0.0174749
1.64442e-05
0.0122696
0.0114066
0.0221857
0.0231586
0.0109034
0.0117795
0.0201355
0.0224351
0.014434
0.0172739
0.0176398
0.0169834
1.77061e-05
0.0227196
0.00715102
0.0225636
0.00486271
0.0230084
0.0224042
0.0232833
0.0227413
0.00402649
0.0222352
0.013812
0.0027624
0.0233377
0.0174484
0.01382
2.17332e-05
0.0199224
0.0219358
0.0202482
0.0193363
0.0115898
0.0176601
0.0132246
0.0139209
0.0140823
3.18873e-05
0.0191502
0.0220001
0.0179956
0.00641759
0.0231309
0.012589
0.019082
0.0188041
0.01838
0.0231946
0.00674133
0.0207731
0.022345
0.0168994
0.0181169
0.0103814
0.0132428
0.00533574
0.00786043
0.0158308
0.00217412
0.0148733
0.0207878
0.0176085
2.42145e-05
0.017974
0.0128914
0.0228011
0.00411776
0.00502516
0.0235415
0.0233109
0.0176481
0.0220998
0.0231303
0.0221164
0.0237665
0.0222537
0.0121649
0.0188466
0.0190114
0.0216871
0.02166
0.0146541
1.53944e-05
0.00488746
0.0111396
0.00562025
0.0125625
0.00304466
0.0224906
0.0179226
0.00377521
0.0175755
0.00626958
0.0153584
0.0173082
2.8296e-05
0.0221128
0.0188998
0.0131043
0.0230143
0.00959197
0.0130352
0.0166427
0.00683002
0.0228153
0.0125451
0.0174504
0.0231798
0.0125891
0.000804951
0.0185556
0.0180931
0.0178697
0.0221454
0.0227101
0.00511019
0.0232551
0.0184694
0.0119461
0.0228927
0.00920965
0.0164557
0.0221087
0.0177324
0.00569219
2.62799e-05
0.00907502
0.0103956
0.0114868
0.0215702
0.0157226
0.0226275
0.0224594
0.0144504
0.0201198
0.00693729
0.0126895
0.0115164
0.0114139
0.0222675
0.0130795
0.0228929
0.0188313
0.0227783
0.0188316
0.0136841
0.0230614
0.0201366
0.0180708
0.00602213
0.0227604
0.00756114
3.73634e-05
0.0234567
0.0019814
3.42132e-05
0.0122545
0.0229613
0.00449542
0.0180561
0.0221406
0.0229451
0.00526992
0.0227575
0.0204115
0.0216574
0.0141052
0.0210877
0.011857
0.0217316
0.0233946
0.0169177
0.0218876
0.0166652
0.0202658
0.0178068
0.019053
0.0194359
0.0234879
0.0190418
2.8819e-05
0.0164488
0.0199458
0.00339418
0.0167306
0.0121401
0.0221297
0.0218772
0.00729733
0.0114988
0.00838458
0.0116468
0.00887371
0.0102592
0.0197897
0.0118299
0.00943263
0.0187812
0.0122282
0.0198307
0.00637248
0.00436035
0.00515779
0.0162868
0.00823785
0.00110189
0.0191747
0.0229397
0.022937
0.00850807
0.0129178
0.00370884
1.86901e-05
0.00928569
0.0185884
0.0221892
0.0127748
0.00452328
0.0134005
0.017244
0.0136659
0.022708
0.00857813
0.0031977
0.0116935
0.0087979
0.00669716
0.0132005
0.0209836
0.00723016
0.0129766
0.00356686
0.0130388
0.00781983
0.0174907
0.0113108
0.00428897
0.0178648
0.00669259
0.0147927
0.0189312
0.00899889
0.0173303
1.91373e-05
0.00851482
0.0176801
0.0135861
4.79992e-05
0.0168326
0.0145594
0.00560387
0.017879
0.0127311
0.0181279
0.0222923
0.0192721
0.021952
0.0228161
0.0215523
0.0214562
0.0200759
0.0222924
0.0180131
0.00998227
0.0227853
0.0152212
0.000798261
0.00905454
0.0222926
0.0170805
0.0178771
0.00854368
0.0196873
0.00561494
0.00823441
0.0214905
0.0123736
0.0119401
0.00734874
0.0217499
0.0189677
0.0098117
8.91737e-05
0.006441
0.0226047
0.0229587
0.0214215
0.021168
0.0132812
0.0203592
0.022038
0.0203208
0.010206
0.0210178
0.016728
0.01837
0.02302
0.00870404
0.0175715
0.0176548
0.0180687
0.0094911
0.0197948
0.00998113
0.0237715
0.0175888
0.0234836
0.0162973
0.00767458
0.00685705
4.41446e-05
1.75177e-05
0.0184049
0.0166452
0.0101251
0.0223529
0.00601403
0.0194819
0.0176566
0.0189335
0.019245
0.00839544
0.0197628
0.0177984
0.000742094
0.00589762
0.00276685
0.0106509
0.0173528
0.00915334
0.00409691
0.0227822
0.0161678
5.5905e-05
0.016432
0.0229443
0.01202
0.020609
0.0143704
0.0123068
0.0140373
0.0211482
0.0179194
0.0108345
0.022271
0.0160378
0.0224941
0.0150522
0.0227636
0.0112885
0.0179695
0.00812494
0.020169
0.018622
0.0185241
0.0174961
0.0103555
0.0119349
0.02166
0.0202223
0.0220481
0.0229003
0.0171552
0.0218134
0.00265029
0.00186968
0.00737114
0.0228252
0.0203166
3.78564e-05
3.80112e-05
0.00314598
0.00475895
0.00971042
0.0188906
0.0151664
0.00870799
0.0229796
0.00899432
0.0231111
0.0176951
0.0225057
0.00912563
0.0228343
4.00415e-05
0.022735
0.0050703
0.0109488
0.0203807
0.00746448
0.0178473
0.00414067
0.0152602
0.0177027
0.0188735
0.00717085
0.00453332
0.0184855
2.27047e-05
0.0132782
0.0188435
0.00571026
0.0223327
0.0086086
0.0205202
0.0187662
0.0225919
3.48606e-05
0.0216156
0.00841437
0.0213745
0.0216124
0.0227517
0.0226236
0.0223807
0.0209341
0.0094184
0.0141245
0.0169099
0.0151202
0.0175885
0.0224631
0.0229744
0.0221293
0.00818624
0.0176077
0.0226436
0.017754
0.0222279
0.0237561
0.00522795
0.0202736
0.0181047
0.0204235
0.0111898
0.0179063
0.0197855
0.00841219
0.0116317
0.0226498
0.0225018
0.00256972
3.70511e-05
0.00415221
0.0212303
0.018049
0.00421243
0.0211339
0.0186531
0.0225271
0.00994718
0.0158309
0.00582551
0.0225655
0.00930209
0.0153114
0.0060081
4.34278e-05
0.0185444
0.0207004
0.0203037
0.000905233
0.0226542
0.0197304
0.0160068
0.0149271
0.0189828
0.0214616
0.017925
0.0199409
0.0227339
0.00932071
0.0187795
0.0080068
1.95573e-05
0.0115252
0.0199607
2.54012e-05
0.0131987
0.00598746
0.00620294
0.0193742
0.0194764
0.018251
0.0160855
0.00984304
0.0186009
0.0101027
0.0223307
0.0189345
0.0200746
0.022836
0.00901717
0.021327
0.0225376
4.33132e-05
0.00531609
0.0184726
0.0102411
4.67369e-05
0.00765525
0.0131003
2.29561e-05
0.00522037
0.0225685
0.0169087
0.0147322
0.0228754
0.017577
0.0229188
0.0181194
0.0189242
0.0181925
0.00670556
4.9491e-05
0.0186126
0.00928296
0.0223609
0.0219403
0.022812
0.00880524
2.18064e-05
0.017274
0.0230441
0.00927923
0.00809735
0.00295053
0.0117952
0.0183094
0.0127926
0.0220569
0.0218023
0.0190468
0.0223817
0.010424
0.0221638
0.0137344
0.0105218
0.000849337
4.49391e-05
0.0222636
0.0190453
0.0158821
0.010733
0.0109338
0.016887
0.0155095
0.00628832
0.00527522
0.00773169
0.00551997
4.83679e-05
0.00640226
0.0191701
0.0223723
0.0188334
0.0046801
0.0210525
0.0176299
0.0205987
0.0114295
0.0151948
0.0145211
0.00960387
0.00899922
0.0211569
0.0098347
0.015532
2.1457e-05
0.0222279
0.00491117
0.010349
0.00309334
0.0175851
0.0104417
0.015052
0.00181012
0.0229233
0.0147102
0.0175973
0.0224069
0.022535
0.00064037
0.0199512
0.00134012
0.00627586
0.00338999
0.0227287
0.0054319
0.0228813
0.00985396
0.0170839
0.0111782
0.0226075
0.0229134
3.45948e-05
0.00668558
0.0220134
2.36999e-05
0.0127965
0.0214049
0.0218515
0.0215413
0.00999953
2.0396e-05
0.0195909
0.0212776
0.0185466
0.0150021
0.0200412
0.0219704
0.0165368
0.0171159
4.56124e-05
0.018056
1.97312e-05
0.0201785
0.00196432
0.00452488
0.0141688
0.0148266
0.00212981
0.022673
0.0179899
0.0183307
0.0207304
3.04479e-05
0.0191737
0.0223759
0.0102462
0.00779802
0.00992543
0.0168296
0.00195959
0.0187719
0.0210798
0.0228016
0.010245
0.0104549
0.0186802
0.00769869
0.0211757
0.00766667
0.00820183
0.000679474
0.020203
0.00841799
0.0215938
0.0229454
0.000728903
0.00414855
0.0204142
0.019484
0.0124033
0.0141736
0.0212468
0.0215618
0.0148364
0.0108622
0.0229533
0.0229615
0.00397147
0.0216898
0.0110651
0.022963
0.00407139
2.99391e-05
0.0179468
4.08897e-05
0.00987505
0.0199642
0.0113409
0.008887
0.0121742
0.00845788
0.0164349
0.0210756
0.0200734
0.0227992
0.0224244
0.0107379
0.01862
0.00575618
3.26897e-05
0.0224936
0.0191582
0.0202298
0.0205777
0.0209236
0.0212588
0.0233302
0.018798
0.0186731
0.0216201
0.0182261
0.0200439
0.0196175
0.0186448
0.0211159
0.0215492
0.00235604
0.00856674
0.00867953
0.00918402
0.0183337
0.00293959
0.0195314
0.000696253
0.0209412
0.0172247
0.00978314
0.0139921
0.0179328
0.0196653
0.0214322
0.00257206
0.0205993
0.0118008
0.0208968
0.0209449
0.0223375
0.0110983
0.00906194
0.0156649
0.0173855
0.0205334
0.0227612
0.019292
0.0126061
0.0155723
0.0176616
0.0202164
0.0207599
0.0192013
0.0112933
0.00112768
0.00381717
0.0145888
0.00417057
0.0112054
0.00753698
0.0132952
0.0141528
0.00928972
0.00205059
0.0215219
0.00605114
0.0106296
0.00602133
0.00184462
0.0155616
0.019412
0.0111633
0.0190543
0.000771393
0.00793276
0.000926474
0.0189166
0.0170903
0.011061
0.0060167
0.0196755
0.00738084
0.01404
0.0211346
0.022178
0.0220873
0.017904
0.017715
0.0226478
0.022923
0.00564458
0.0228916
0.00979296
0.00977109
0.00250483
0.0206494
0.0135739
0.0141007
0.0019566
0.0177211
0.0136296
0.0229596
0.00444175
0.0112501
0.00917188
0.0176742
0.019368
0.0206046
0.000835504
0.0116332
0.0158256
0.0192056
0.00829889
0.0108404
0.0209787
0.0182804
0.0171811
0.00688782
0.0179345
0.0199364
0.00841937
0.0137934
0.0229346
0.00710488
0.0163268
0.0059989
0.0173091
0.00244946
0.0100767
0.0209696
0.0169173
0.00571612
0.0141398
0.0219512
0.000712783
0.00986123
0.0010564
0.0125893
0.0113423
0.0145354
0.0210995
0.00627556
0.017771
0.0222397
0.0196288
0.0206101
0.0222268
0.00343102
0.00761447
0.00954671
0.0134118
0.0188035
0.0151391
0.0229885
0.0165522
1.81329e-05
0.0132757
0.0198596
0.0215935
0.0108457
0.0177644
0.00719845
0.0180664
0.00614412
0.0225871
0.0081196
0.0199308
0.00844785
0.0167742
0.0208484
0.00911035
0.0026798
0.000970327
0.0179582
0.00319079
0.0128189
0.0109127
0.0167224
0.0159244
0.0135824
0.0159871
0.0213041
0.0178883
0.0101886
0.0167579
0.00989032
0.00476131
0.0202666
0.0094054
0.0184185
0.0087619
0.0228566
0.0220173
0.0222281
0.0201488
0.0058165
0.006273
0.0174123
0.0140007
0.0201866
0.020301
0.0174319
0.0187337
0.0225761
0.0229261
0.0235146
0.0195372
0.018071
0.00814847
2.65334e-05
0.0195725
0.0177622
0.0137087
0.00543864
0.0162554
0.0190256
0.0225221
0.00533931
0.0202254
0.0229594
0.0229608
0.00380097
0.0225644
0.0185223
0.0198748
0.0149732
0.000220073
0.0109015
0.0211871
1.66764e-05
0.003607
0.0228604
0.0108429
0.00585764
0.0221803
0.00981822
0.0183719
0.0224031
0.0181148
0.00371375
0.0189236
0.0136825
0.0101303
0.0226401
0.0208632
0.00463536
0.017841
0.00279587
0.0212589
0.0143865
0.0154825
0.0234066
0.0123253
0.00726457
0.0221649
0.0181931
0.0122999
0.0195008
0.00762816
0.00341475
0.00574666
0.0175455
0.0184087
0.0224273
0.00852843
0.018517
0.0182446
0.0193771
0.0153198
0.0223327
0.0238095
0.0183289
0.0219197
0.0120167
0.00983968
0.0162444
0.0202108
0.00567661
0.019926
0.0176024
0.0173298
0.00121196
0.0229578
0.0194799
0.0040074
0.0184534
0.0225251
0.0220894
0.00993017
0.0225505
0.0133991
0.00704608
0.0205124
0.00771341
0.0171556
0.0231467
0.00605091
0.00886374
0.00382862
0.0179799
0.0138243
0.0173107
1.90647e-05
0.0056754
0.0228927
0.0144778
0.022755
0.00971733
0.022547
0.0225147
0.0208268
0.0185302
0.0190973
0.0228767
0.00343734
0.0192586
0.0205385
0.0227271
0.0197934
0.000957006
0.0130074
5.22638e-05
0.0186519
0.0233518
0.00538097
0.0226181
0.0221077
0.0189609
0.0229857
0.0228636
0.0162103
0.0183849
0.019467
0.0133066
0.00932608
0.00479065
1.08422e-05
0.0117259
0.0219736
2.75187e-05
0.00228584
0.0147715
0.00110823
0.00187794
0.00411907
0.0118339
0.0190381
0.00350093
0.0176549
0.00958127
0.0185631
0.0179113
0.0210515
0.018758
0.0079413
0.0154852
0.00130758
0.0218918
0.0235457
0.0219237
0.0160712
0.0177833
0.0196365
0.0168059
0.0109681
0.0171827
0.00490362
0.0230154
0.0223699
0.00969455
0.0185495
0.0177474
0.0162432
0.0179348
0.015661
0.000767153
0.0207303
0.0213388
0.0133497
0.0172395
0.0106622
0.011082
0.0131702
0.0181683
0.0190919
0.0141241
0.00804118
0.0207716
0.0188792
0.00700468
0.0192038
0.0204362
0.0144585
0.0208787
0.00407478
0.0205039
0.00992348
0.0201172
0.023114
0.0179879
0.0197254
0.0215725
0.0124105
0.0178597
0.0177625
0.0181742
0.0131484
0.00869502
0.0184583
0.0155244
0.0088209
0.0116288
0.0196521
0.0100555
0.00704797
0.0037546
0.0228934
0.00554351
0.0180997
0.00946873
0.0189
0.0126456
0.00284129
0.00590315
0.022664
0.0229943
0.0110971
9.8631e-05
5.8866e-05
0.0186215
0.00374578
0.0182145
0.0215031
0.00683961
0.0128763
0.0188795
0.011266
0.0171683
0.0221206
0.00564518
0.00255216
0.0120615
0.0186128
0.0216457
0.0171345
0.0187448
0.0209858
0.018681
0.00785544
0.00824142
0.00998972
0.0187461
0.0181572
0.00815519
0.0099244
0.0112415
0.0160165
0.00799146
0.00875968
0.022735
0.0227041
0.0176687
0.0192746
0.0194778
0.00102658
0.0113479
0.0227994
0.0230168
0.0228923
0.018228
0.0167327
0.000868981
0.00892721
0.0180368
0.01774
0.0179698
0.000673297
0.0123173
0.010296
0.0226368
0.0121906
0.0225011
0.0179845
0.0120844
0.0216077
0.0029074
0.0167837
0.0193955
0.00847073
0.0203617
0.00550431
0.00746782
0.0166929
0.00878089
0.0220859
0.016294
0.00413828
0.0144234
0.0185308
0.00799737
0.00737903
0.0223728
0.0197096
0.00720343
0.000770027
0.0192689
0.0117127
0.00876878
0.0154074
0.00104806
0.00763719
0.00103299
0.00739173
0.00590845
0.00608976
0.00920711
0.0117328
0.00866577
0.0109309
0.0178697
0.0197037
0.0195081
0.0118398
0.0194153
0.00880509
0.00117019
0.0210675
0.0200077
0.0177458
0.017942
0.0197813
0.00922202
0.0134188
0.0128374
0.0144329
0.0101312
0.00956313
0.0193475
0.018902
0.00952802
0.0179472
0.0217795
0.0223861
0.0187117
0.000881908
0.0226396
0.00295578
0.0227583
0.0219749
0.00215465
0.0182011
0.0133391
0.00873196
0.0103227
0.00686749
0.0213702
0.0227491
0.0183788
0.0176817
0.0157039
0.00696813
0.00617207
0.0188433
0.00360195
0.0087775
0.00673574
0.022622
0.0215254
0.0198383
0.0178213
0.0102875
0.0160023
0.00946462
0.0176553
0.00726152
0.0125389
0.0176243
0.0114507
0.00968763
0.0179448
0.011228
0.0114167
0.0129722
0.016743
0.001241
0.0176927
0.0180288
0.0168656
0.0118276
0.0219414
0.00648175
0.0129783
0.00564083
0.0178574
0.0225283
0.00922868
0.0181493
0.022254
0.013159
0.00478304
0.020109
0.0131894
0.0177839
0.00862771
0.0123116
0.0227321