/*--------------------------------*- C++ -*----------------------------------*\
  =========                 |
  \\      /  F ield         | OpenFOAM: The Open Source CFD Toolbox
   \\    /   O peration     | Website:  https://openfoam.org
    \\  /    A nd           | Version:  10
     \\/     M anipulation  |
\*---------------------------------------------------------------------------*/
FoamFile
{
    format      ascii;
    class       volScalarField;
    location    "1100";
    object      p;
}
// * * * * * * * * * * * * * * * * * * * * * * * * * * * * * * * * * * * * * //

dimensions      [0 2 -2 0 0 0 0];

internalField   nonuniform List<scalar> 
23845
(
-0.128189
-0.170404
-0.254589
-0.251533
-0.147989
5.6754e-06
-0.23902
-0.256864
-0.000840902
-0.0867958
-0.0167585
0.000228864
0.000539433
-0.000328867
-0.246377
-0.042394
0.000944702
0.000285618
-0.00124212
0.000559512
-0.147008
-0.01543
-0.192011
-0.000396212
-0.0492439
-0.000107812
-0.216039
0.00311946
-0.264493
0.000402994
-0.247371
-0.24365
-0.256926
-1.75999e-05
0.000349121
0.000729079
-0.253779
8.68448e-05
0.00106592
0.000190007
-0.00522842
0.00129401
0.000170139
-9.70528e-06
0.000100361
0.00104593
-0.165576
-0.0327023
-0.236635
-0.267208
-0.244538
-0.247129
-0.236693
0.000947562
-0.246201
0.000463024
-0.195056
-0.254031
-0.150374
-0.231438
-0.262895
0.00239063
-0.0277581
-0.265107
-0.000217528
-0.00135754
-0.22779
-0.000736996
-0.00176053
-0.00364604
-0.259351
-0.259066
-0.000441138
-0.245876
-0.00126895
-0.247524
0.00027491
-0.000391039
-0.253631
-0.000863394
-0.198912
-0.239493
-0.181434
-0.257639
-0.250674
0.000434264
-0.234103
-0.234196
-0.000673531
-0.00138738
-0.248953
-0.0124519
-0.266644
0.00187688
-0.251073
-0.25329
-0.00172541
-0.037913
-0.000335775
-0.148776
0.000118058
-0.242279
-0.110948
-0.274718
-0.269244
-0.25663
-0.000333869
-0.00106596
-0.229278
0.0014295
-0.0131217
-0.000356317
-0.254948
-0.0626551
0.000577875
-0.128248
-0.000437484
-0.0668511
-0.263353
-0.262901
0.000291752
-0.247669
-0.00420433
-0.261373
-0.233486
0.00132268
-0.262011
-0.268467
-0.257303
-0.187045
-0.258997
-0.0597975
-0.0388138
-0.000395275
0.00111767
-0.118474
-0.272716
0.00026231
-0.224302
4.58538e-05
-0.263294
0.000767157
0.000524142
0.000369079
-0.0170597
0.00103524
-0.0995492
-0.245946
-0.262468
-0.00502581
-0.242011
0.000802362
-0.223974
-0.000888849
-0.254696
-0.00874033
-0.119817
0.000387252
-0.259737
-0.258065
-0.00812062
-0.250092
-0.24984
-0.000310916
-0.00179202
-0.0034191
-0.000565338
-0.250613
-0.000976304
0.000736821
-0.000895693
-0.252744
9.93167e-05
-0.261097
-0.000462807
-0.252622
-0.0178954
-0.0175705
0.000644104
0.000582462
-0.142532
-0.145566
-0.243744
-0.0100826
-0.0254579
-0.000342187
0.00208581
-0.257061
-0.265691
0.000736071
-0.267182
-0.00182163
-0.000304586
-2.99293e-05
-0.0147449
-0.000596942
-0.272182
-0.267363
-0.281994
-0.0160725
-0.00209205
-0.00112997
-0.262577
-0.0517809
-0.257264
-0.250929
-0.256325
5.08025e-05
-0.172871
0.00056257
-0.00232327
-0.255178
-0.0282236
-0.00189377
-0.240055
-0.250554
-0.0472218
0.00138331
-0.265019
-0.258391
0.000478856
-0.247733
-0.272494
-0.00983942
0.00157179
-0.248018
-0.267914
0.00126532
-0.000257569
-0.00615928
0.00085488
-0.237526
0.000566224
1.54575e-05
-0.133757
-0.262651
-0.000296028
-0.248388
0.00244756
-0.256263
-0.235898
-0.080194
-0.255559
-0.124837
-0.248499
-0.0331853
-5.16894e-05
0.00211204
-0.251412
-0.241582
0.00149948
0.000679797
-0.24559
-5.94369e-05
-0.237077
-0.251273
-0.262482
-0.251341
0.000289812
-0.000441485
-0.232571
-5.5528e-05
-0.261295
-0.0106506
-0.00751991
0.00138248
-0.251881
-0.262723
-0.233977
-0.250415
0.000359441
-0.254599
-0.242022
0.000894128
-0.0114575
-0.000397051
-0.250821
0.00213884
-0.278063
-0.193225
-0.257296
0.000476054
-0.246777
-0.0107161
0.000480758
-0.263441
-0.25875
1.02928e-05
-0.252231
-0.251528
-0.25233
-0.2403
-0.26468
-0.251523
-0.252237
0.000351308
-0.263658
-0.000386815
0.000275935
-0.260552
-0.26258
-0.244725
-0.263337
-0.249366
-0.000306022
-0.248293
-0.267017
-0.243016
-0.000894514
-0.271278
-0.241281
-0.220213
-0.000190185
0.00358175
-0.254289
-0.264699
-0.263433
-0.0359536
-0.252414
0.000105675
-0.27019
-0.253027
-0.262263
0.00102193
-0.250518
0.000286666
-0.25231
-0.196447
-0.263262
0.00119062
-0.248672
-0.0123636
-0.247175
4.0359e-05
-0.259982
-0.249228
-0.250837
-0.000134029
0.000962464
-0.252458
-0.253987
-0.262355
-0.0156571
0.00076883
0.00048417
-0.282161
0.000320237
-0.251846
-0.252855
-0.246307
-0.247515
-0.263178
-0.26883
-0.249131
-0.236655
0.00230451
0.000822148
-0.00119799
-0.250753
-0.253634
-0.259596
0.00255773
-0.0932872
-0.00868364
-0.264776
-2.51846e-05
-0.260431
-0.000903732
-0.262107
0.000369472
0.00127931
-0.250685
-0.271622
0.000114488
-0.000501769
-0.249516
-0.252654
-0.249898
0.00116795
-0.256923
-0.247962
0.00069685
-0.179865
-0.000457927
7.31006e-05
0.000602388
0.000760424
-0.251866
-0.0016286
-0.252157
-0.23075
0.00183884
-0.267514
-0.270753
-0.24072
-0.258287
-0.00670631
0.000136365
-0.00426402
0.000279885
-0.25307
-0.237634
-0.250368
-0.255369
-0.223267
-0.246265
-0.000181888
-0.268856
-0.267883
-0.262596
-0.250901
0.00109008
-0.23445
-0.262805
-0.121558
-0.253734
-0.231446
-0.00855993
0.000690475
-0.122074
-0.264151
0.000642053
0.000332337
-0.252975
-0.261823
-0.158186
-0.272607
-0.245306
-0.260625
-0.26036
-0.000502292
0.000138055
-0.262297
0.000426225
0.000473156
0.00033655
0.000869791
-0.000131213
-0.264444
-0.260523
-0.249186
-0.268428
-0.269711
-0.262646
-0.241929
-0.263966
0.00101459
-0.219845
0.00126667
-0.25509
-0.254563
0.00161196
-0.27565
0.000799898
-0.000709143
-0.260872
-0.220836
-0.057809
-0.250643
-0.00257347
-0.19404
-0.25253
-0.270596
-0.2093
0.00148268
-0.000133201
0.000285971
-0.238612
-3.98883e-05
-0.255407
0.00172822
-0.000447829
-0.240627
-0.262407
-0.26593
-0.123713
-0.000905323
-0.246387
-0.000552776
-0.0044038
-0.195422
-0.222408
-0.246042
-0.0163563
-0.00157045
-0.244283
-8.45833e-05
0.000355186
-0.249033
-0.261781
-0.000361216
-0.262451
-0.251798
-0.211473
-0.258857
-0.176971
-0.000784033
-0.255257
-0.000160689
0.000483141
-0.233515
-0.260631
-0.261427
-0.186733
-0.256705
-0.255284
-0.00882724
-0.000656311
1.3095e-05
-0.261631
-0.246183
-0.262439
-0.254661
-0.243706
0.00131627
0.000351805
-0.230264
-0.255276
-0.254544
0.00673354
-0.24725
-0.000123691
0.000421851
-0.264856
-0.000913858
-0.248203
-0.253338
-0.264709
-0.177424
-0.259525
-0.261112
-0.269427
-0.0937695
-0.189845
8.75086e-05
-0.000673614
-0.00104551
-0.263575
-0.148618
-0.254119
-0.259042
0.0032552
-0.178739
-0.179306
-0.0118786
-0.177721
-0.0184015
0.0036731
-0.000208525
0.000996332
-0.00157254
0.000367477
-0.260821
-0.00109724
-0.255221
-0.206484
0.00147331
-0.261238
-3.21806e-05
0.002227
-0.251188
-0.252902
-0.205732
-0.000371783
0.00287428
-0.271622
-0.268765
-0.00096354
-0.264708
-4.93909e-05
-0.000452569
-0.244197
-0.000781602
0.000912041
-0.0511761
-0.125311
-0.262793
-0.24967
-0.251271
-0.147835
-4.67323e-05
0.000310099
-0.0124186
-0.249629
-0.263954
0.0019799
0.000864232
0.000860716
-0.249607
-0.00145311
-0.199804
-0.250576
-0.153434
-0.00775076
-0.255563
-0.000775646
-0.00074385
0.00340028
0.000549256
0.000348363
-0.252899
-0.000266111
-0.12165
-0.247432
-0.257531
-0.0468397
-0.249119
-0.135089
-0.241221
-0.00773263
-0.193545
-0.123804
-0.20234
-0.123187
-0.263692
-0.122568
-0.067149
-0.103522
0.000386504
-0.000794355
-0.125979
-0.259474
-0.158783
-0.00314473
-0.150154
-0.00125183
-0.00414051
0.000784486
-0.00139503
-0.0546385
0.000592995
0.000804009
-0.212179
-0.000316481
0.000352863
-0.254827
-0.113962
-0.0599165
-0.000459416
-0.00811912
-0.184336
-0.00255981
0.00163681
-0.000586754
-0.11607
-0.0374185
-0.144923
-1.77473e-05
-0.0421799
-0.255335
0.000452383
0.000576916
-0.0734125
-0.256124
-0.264124
-0.266922
-0.262044
-0.04375
-0.262225
-0.0151393
-0.0039536
-0.0012463
-0.000548486
-0.146722
-0.000588226
-0.00139201
-0.00117988
-0.11553
-0.237529
-0.0287713
-0.0443818
-0.00311319
-0.0116021
-0.00742659
-0.00374667
-0.0448238
-0.00142983
-0.0620351
-0.0129458
-0.000341777
-0.0191736
0.000838527
0.00302631
0.00030893
0.000254477
-0.0437447
0.000384972
0.00145434
-0.0372123
-0.0379277
0.00182592
0.000469857
-0.00510047
-0.00927063
-0.0144448
-0.0224183
-0.0381863
-0.00192043
-0.054855
-0.00131848
-0.0187666
0.000311988
-0.00971328
0.000435382
0.000563713
-7.12285e-05
-8.10433e-05
0.00111089
0.000636857
-0.00124991
4.35058e-05
-0.235314
0.001849
0.00061015
0.000247452
0.000841194
0.000239655
-0.00717634
0.00159762
-0.00935692
-0.0156359
-0.000751745
0.00199088
-0.000334065
0.000519967
-0.0265381
-0.0113559
-0.0813054
0.00210283
-0.00724551
0.000817247
0.000678006
0.000858364
0.000219583
-0.0316926
0.00193303
-0.107439
0.00160597
-0.000203434
-0.000664958
-0.000887988
0.00122937
4.65459e-05
-0.260966
0.00117825
-0.00115022
-0.0676184
0.000911571
0.000882821
0.00102152
-0.235853
-0.00357004
-0.000210515
-0.0409366
0.00144825
-0.261187
-0.0214152
-0.0146263
-0.0286498
-0.0185036
-0.0523405
-0.00433482
-0.0020272
-0.00527035
-0.0142817
-6.91453e-05
-0.00794146
0.00120513
-0.16153
-0.000464522
0.000649773
-0.0385111
-0.0235429
-0.030695
-0.252555
-0.00863965
-0.00316317
-0.104395
-0.0134098
0.00154649
0.000729323
-8.97846e-05
-0.24544
0.00240175
-0.00715176
0.00192455
-6.09236e-05
0.00135715
0.00261018
0.000991892
0.00106822
-0.000309573
0.000197761
0.00101701
0.001555
0.00115188
-0.183853
0.00113712
0.00136971
0.0019287
0.00279286
0.000539662
-0.0601039
-0.0029066
-0.0146546
-0.00142428
0.00336962
0.00168147
0.000479777
0.00429266
-0.128201
-0.0277727
-0.0258823
0.000742847
0.000489731
-0.0033855
-0.265199
-0.00860419
-0.00555453
-0.0155215
-0.000514514
-0.00115159
-0.0260581
-0.00180725
-0.00199881
-0.000328082
-0.00387302
-0.00118724
-0.000332332
-0.000849542
-0.00112578
-0.000230984
-0.00155162
-0.00480431
-0.000949675
-0.00160753
-0.0410961
0.00130028
-0.00152757
-0.256418
-0.0441151
0.000411548
-3.03952e-05
0.000697601
-0.0244824
-0.0129358
-0.0160402
-0.00783737
0.000325771
-0.00880001
-0.00539212
-0.00890621
-0.0311432
-5.50371e-05
0.00192891
-0.000417381
-0.00109877
-0.00670657
0.000348589
-0.247045
0.000530044
-0.0272962
0.00334525
-0.0643527
0.00081913
-0.00109535
-0.0216727
-0.00819241
-0.0877873
-0.0586219
-0.0104089
-0.105957
-0.00167123
-0.0033507
0.00012791
-3.75037e-05
-0.000430278
-0.000135416
-0.000630056
0.000941683
-0.000801308
-0.0247712
0.00084875
-0.0240067
-0.0310991
-0.0182751
-0.0117123
-0.0967826
-0.00937768
-0.000435819
-0.0243923
-0.000185624
-0.0651872
-0.00374391
-0.000457663
-0.115288
-0.00384735
-0.000467579
-0.00824578
0.000985038
0.000661643
-0.232624
-0.00107591
0.000853644
-0.001827
0.000734198
0.00112305
0.00053703
-0.0083073
-0.268747
0.000554896
-0.000142044
-0.00401766
-0.00683553
-0.110477
-0.0133704
0.00160882
-0.0139153
0.000145546
0.00325044
-0.257246
-0.272566
0.00111507
-0.000132244
0.00320469
-0.223001
0.000300827
-0.250795
0.00192958
-0.000119207
-0.00312367
-0.002093
0.000863528
0.000770147
0.00118377
-0.100513
0.000488133
-0.139634
-0.0108014
-0.0414536
-0.000243582
-0.0102944
-0.00132566
-0.00622193
-0.00206977
-0.000657896
-0.0199568
0.000378311
-0.0115897
-0.0171891
-0.025767
0.00327855
-0.0102412
-0.0140563
4.94825e-05
-0.0310796
-0.0175484
-0.00777089
-0.0392862
0.00039666
0.00133405
0.000786398
0.00135312
0.00146835
0.000355773
-0.00975474
0.00031898
0.000993793
-0.00629183
-0.00549876
-0.00602507
-0.000115006
-0.211228
0.00134948
8.1817e-05
0.00145613
0.00096555
-0.00110136
-0.00211437
-0.0123068
-0.0974861
-0.134675
0.000254439
-0.00173119
-0.0206825
-0.0402079
0.00174383
-0.0456609
-0.00134168
-0.0032747
-0.00961712
-0.0407586
-0.00123342
-0.0125865
-0.0270624
-0.0134582
-0.0318009
-0.0236077
-0.0293324
0.00153044
0.00149776
0.00207687
0.00113001
-0.00748642
-0.013355
0.000189105
-0.281196
0.00067689
-0.25626
0.000228017
0.000522663
-0.269516
0.00101663
-0.00132238
0.00011181
-0.00025933
-0.00196918
0.000828124
0.00152879
0.00120526
-0.0449219
-0.263793
0.000808511
-0.00125704
-0.004841
-0.179543
-0.204107
-0.127533
-0.0169293
0.000668883
-0.00160517
0.00252059
0.000472356
-0.000439918
0.00279521
-0.134992
-0.0938463
-0.0380484
-0.0850867
-0.0566198
-0.103709
-0.124423
-0.0388167
0.00143867
-0.0722695
-0.0212025
-0.0293571
-0.0276859
-0.00984159
-0.0163582
0.000594735
-0.0118738
0.00202665
-0.00725273
-0.00124887
0.0001504
0.00109629
0.000128482
0.00120841
0.000442814
3.66678e-05
-0.00272978
-0.165644
-0.0611883
0.000804673
-0.090756
0.000715192
-0.00223003
0.00371778
0.000347714
0.000497623
0.00289234
-0.00010873
0.00177394
-0.00318679
-0.000541083
-0.118727
-0.0015572
0.00123396
-0.082167
-0.000632787
-0.000734263
-0.00378314
-0.0493018
-0.00147938
-0.259071
-0.254653
0.000493235
-0.0089253
-0.0120691
-0.0220007
0.000216672
0.00152196
-0.0130685
-0.00527588
-0.00908877
-0.00546967
-0.00224687
0.000767036
-0.275556
0.000590836
-0.0347596
0.001022
0.0009402
-0.0536956
-0.000398582
-3.81473e-05
-0.263574
0.00137552
-1.46775e-05
-0.000127767
0.00149171
0.00207545
0.000929262
0.00124521
0.00121312
-0.0711763
0.00202015
0.00182113
-0.191744
0.000554894
0.00176018
0.00168273
-0.216107
0.000253238
0.000332425
-0.0852317
0.000289922
-0.00156594
0.00120661
-0.000372903
-0.000269748
-0.261137
-0.00110004
0.00186822
-0.00922592
-0.0211448
-0.0924273
-0.0144565
-0.00572662
-0.000555989
0.00124359
0.00107028
-0.00170373
0.00138251
-0.0599311
0.00115341
0.000893624
-0.000430408
-0.000405688
0.0007637
-0.246906
-0.259621
0.00128569
-0.00042226
0.000207868
-0.170525
0.000533076
-0.000727701
-0.0169141
0.000648044
-0.251265
0.000673192
0.00214492
0.000574045
-0.00157752
-0.000270075
-0.00282442
-0.0120459
6.63156e-05
-0.0273902
-0.00205123
0.000975408
-0.00376367
0.0023681
-0.00209425
-0.0108889
-0.00474762
-0.0117081
0.000672429
0.0013911
-0.000345503
-0.00256477
-0.00237702
0.00171705
-0.00417545
-0.00336453
-0.0400888
-0.00048277
-0.000704666
-0.0630854
0.000101449
-0.00259336
-0.0947223
1.14971e-05
-0.00201417
-0.135178
-0.00132102
-0.00053277
-0.112108
-0.0575099
-0.176431
-0.000994036
0.0039741
-0.0644835
-0.00034777
0.000560249
-0.112355
-0.030004
-0.0516574
0.000682964
-0.0776371
0.000568314
-0.00226101
-0.0487696
-0.0166054
-0.000344505
-0.0142323
-0.0748515
-0.279376
-0.000152311
0.000323172
0.000299443
0.000734452
0.00161318
0.00186951
0.00170751
-0.247516
0.000403803
-0.00143196
-0.0524378
-0.000125589
-0.0258976
-1.26206e-05
-0.158798
-0.000288922
-0.00128538
-0.180862
-0.000769437
0.00256775
0.000231312
-0.0019785
-0.262761
0.000931056
-0.104262
-0.00334094
-0.0259633
-0.259882
-0.25292
-0.0564396
0.00140615
0.000504937
-0.186514
0.00184765
0.00328255
0.000195432
-0.128509
0.000961443
0.000632237
-0.000414923
-0.110603
-0.00149503
0.00100318
-0.000821584
-0.00176564
-0.267164
-0.00368278
-0.004791
-0.0967156
0.000205995
-0.261725
0.000211979
-0.256867
0.00119216
-0.112754
-0.000947134
0.00150302
0.000684768
-0.000273192
-0.00412885
-0.00439362
-0.0102358
-0.025569
0.000371564
0.000938978
0.000995525
-0.0246981
-0.0223603
-0.00023499
0.000476675
0.000659863
-0.000929288
-0.00521112
-0.00535618
0.00280449
-0.00833762
-0.00671595
-0.0896845
-0.00117393
-0.172409
-0.00155254
-0.00398063
0.00153025
0.00213719
-0.254946
-0.0662759
-0.0342401
-0.000234691
-0.0482976
4.09102e-05
0.00104291
-0.0708783
0.000632303
-0.227071
-0.262257
-0.0982061
-0.00489282
-0.000107618
-0.263848
-0.00309282
-0.00808413
-0.0018606
-0.0582526
-0.199046
-0.00171616
0.000944294
-0.250949
-0.250902
3.55972e-05
-0.0854513
-0.101948
0.000703961
-0.26068
0.000906609
-0.115744
0.000445387
-0.0711785
-0.000339019
-0.0573174
-0.204117
0.000875188
-0.255466
-0.104672
0.000469229
-0.262625
0.00118822
-0.0527564
-0.0971979
-0.254986
-0.000276841
-0.0306465
-0.178539
0.00233913
-0.0897237
0.000790885
0.00211382
0.00312445
-0.00531783
-0.0766581
-0.000348977
0.000463006
-0.139045
-0.0035883
0.00106484
0.00176295
8.10667e-05
0.000811678
0.00154266
-0.0775512
-0.217472
-0.0810148
0.000949697
-0.0048058
0.000590386
-0.000482794
-0.00413001
0.000155906
-0.25856
-0.000862939
-0.0867092
-0.258246
-0.000357929
0.000506374
-0.0102671
-0.0298182
-0.0945893
-0.181111
-0.0103162
0.00130076
-0.00436977
-0.0014481
0.00104435
0.000827582
-2.14944e-05
0.000251181
0.000737732
-0.0924922
-0.26127
0.00021181
-9.67143e-05
0.00198991
-0.213836
0.000721784
-0.00533818
-0.00150812
0.0011344
0.00185861
-0.00322259
-0.02506
-0.025803
-0.00201015
0.000237038
-0.00532617
-0.24345
-0.254278
-0.000278985
0.0073953
-0.0242952
-0.00062811
0.000208513
0.000107217
0.000286096
-0.00489953
-0.00321083
-0.261686
-0.000490138
-0.245553
0.00063825
0.00139013
-0.193598
-0.00418122
-0.0880562
-0.00294445
-0.0101006
-0.0156925
-0.00663079
-0.0028757
-0.0715045
0.00250958
0.000954416
0.00133666
-0.00187864
-0.253069
-0.00468542
-0.00104648
-0.00465324
-0.0565316
-0.25347
-0.0111265
0.0017757
-0.215647
0.000847668
-0.000161932
-0.0296445
-0.203445
-0.260248
-0.263569
-0.00244682
0.000367771
-0.0227335
-0.000317248
-0.214967
-0.0645351
0.00153896
-0.00870296
-0.145232
0.000142846
-0.216387
-0.00924484
-0.0401388
-0.00312079
-0.131946
-0.0812167
0.000896964
0.00100624
-0.261121
0.00278703
-0.000429191
-0.0949448
0.00156445
-0.00874998
-0.0942187
-0.0448245
-0.256493
0.000173457
-1.34851e-05
0.00188737
-0.259838
0.000946869
-0.00184544
-0.00214167
-0.258475
0.000929837
-0.00114319
-0.00126021
-0.259929
-0.0479383
0.000405033
-0.0051416
0.000259145
0.000879161
0.00254202
-0.236398
-0.0192406
8.32968e-05
0.00120802
-0.155893
-0.0418373
-0.000902628
-0.0149794
0.000315926
0.000909024
-0.258353
0.00237253
-0.0293204
0.000431918
-0.0168758
-0.256774
-0.260489
-0.257158
-0.23392
-0.209154
0.000213156
-0.089179
0.001397
-0.000219665
0.00128948
-0.206126
0.00107225
-0.245053
-0.265645
0.00108657
0.000614005
-0.244029
-0.263424
-0.0784549
-0.234788
-0.101969
-0.205152
0.000374694
-0.0978544
-0.268149
0.00134585
-0.245774
0.000678379
0.000478098
-0.174971
-0.265445
-0.26054
-0.189285
-0.155977
-0.000478223
-0.270018
0.0005572
-0.108918
0.000632338
-0.216505
-0.0728488
-0.00190154
-0.165256
0.000487567
-0.000640314
-0.000365935
-0.268495
-0.246013
-0.256597
-0.258909
0.000438329
-0.151412
0.000903392
0.00302074
-0.000337283
-0.0441823
-0.260216
0.000911945
-0.00203156
-0.186717
-0.243945
-0.00977079
0.000475404
-0.252894
0.00126669
0.00098764
0.000223888
-0.000253669
0.00101921
-2.46021e-05
0.0014643
-0.244285
0.000951339
0.00212886
0.000100644
-0.0357538
-0.253633
-0.0963973
0.000144996
-0.255604
-0.0676839
-0.0507047
0.000261254
-0.264741
-0.00524506
-0.269489
-0.257006
-0.257873
0.00302039
0.000950725
-0.193049
-0.161873
-0.000447467
0.000479961
-0.151242
-0.173035
-0.214426
-0.0129017
-0.266296
0.00360881
-0.254248
-0.00197044
-0.255185
0.000897564
0.00129894
-0.00303245
0.00126554
-0.261234
-0.00146964
-0.252583
-0.256277
-0.00684726
-0.0168509
-0.104883
-0.266424
-0.159188
0.000471197
-0.0715367
-0.0675471
-0.192104
-0.000564087
-0.25287
-0.135954
-0.252076
-0.258479
5.81533e-05
0.000541508
-0.0495452
-0.251991
-0.00644449
-0.173927
0.00186269
0.00178911
0.00108278
-0.000915038
-0.262967
0.000412014
0.000444614
-0.214455
-0.0322922
-0.206775
-0.180085
-0.264495
-0.253275
-0.17368
-0.240833
-0.248188
-0.0778434
-0.0107144
-0.264709
-0.000408646
-0.250918
0.000938366
-0.261984
-0.264536
0.00126967
-0.000800228
-0.000941158
0.00217493
0.000349427
-0.000166003
-0.00355019
-0.000217613
-0.165156
-0.136712
0.000576049
-0.0739917
-0.0480322
-0.246342
-0.263863
-0.253105
-0.255705
-0.257036
-0.193792
-0.267474
-0.022337
0.000104733
-0.264615
-7.0819e-05
-0.24468
-0.0771712
-0.00547177
-0.260793
-0.0576842
-0.000815382
-0.254175
0.000529087
-0.223036
-0.120476
-0.026141
-0.242647
0.00297704
-0.149985
-0.00253171
0.000931255
-0.209235
-0.278858
-0.0017865
-0.00303444
-0.0027082
-0.0072581
0.00133573
-0.250108
-0.00382457
-0.00184268
-0.191434
0.000236524
-0.259835
-0.0246315
0.0021794
-0.040689
-0.256119
-0.26287
-0.259357
-0.260561
-0.236135
0.000484495
-0.241179
3.39138e-05
0.000287103
-0.250907
0.000308316
-0.256431
-0.20557
-0.217385
-0.257877
-0.00717072
-0.242756
0.00132641
0.00125063
0.000171883
-0.00431407
-0.253388
0.00121218
0.000889626
-0.00440186
-0.248304
0.000176995
-0.241001
-0.255982
-0.001637
-0.265181
-0.258248
-0.203726
0.000561696
-0.256988
-0.00137745
-0.000106723
0.00159128
-0.259743
0.00132683
0.00185398
0.000875218
-0.102342
-0.000192741
-0.252298
0.000974723
-0.000799959
-0.0165814
0.00029032
-0.214534
-0.000536743
-0.000749368
-0.161164
0.000742093
-3.15623e-05
0.00044759
-0.260568
-0.0284618
0.00106621
-0.268509
-0.197997
-0.202092
0.000970473
-0.000720994
-0.249382
-0.19906
-0.241934
-0.179779
-0.246956
-0.243521
0.00324639
-0.251369
-0.224319
-0.000620703
-0.257098
0.000126892
-0.262537
-0.262018
-0.26028
-0.036024
-0.225226
-0.279779
-0.000832547
0.000389791
0.000507085
-0.247955
-0.251612
-0.245074
-0.27077
-0.221282
-0.0070846
0.00108131
-0.216747
-0.261819
-0.252433
-0.00893816
-0.145258
0.000453306
-0.254428
-0.266835
-0.257885
-0.260293
-0.26014
-0.253709
0.000297593
-0.245675
-0.254737
-0.273925
-0.234056
-0.257376
-0.0150141
-0.253248
-0.261659
-0.00103461
-0.24465
-0.238678
0.00248231
-0.251887
-0.00846629
-0.274875
-0.24804
-0.194622
-0.204499
-0.251358
-0.0156932
-0.201806
-0.253308
0.000644306
-0.222737
-0.000384093
-0.000337197
-0.0762389
0.00225156
-0.000553431
-0.0678211
0.000607497
0.000777541
0.000242355
-0.00058346
-0.211234
0.00138406
-0.0937194
-0.273208
-0.259675
7.35619e-05
-0.0173064
-0.000756919
-0.247701
-0.000395918
-0.254618
-0.233387
-0.0236251
-0.24323
-0.257467
-0.247359
-0.065592
-0.00203616
-0.232765
-0.233354
-0.260126
0.000484723
0.000355315
-2.06962e-05
-0.015371
-0.211562
-0.000462754
-0.000128325
-0.000205123
-0.260904
0.00034117
-0.0231609
-0.00735036
-0.00292467
-0.26131
-0.0074764
-0.00216733
0.000333552
-0.21846
-0.000309163
-0.249713
0.000455166
-0.0118882
0.00104031
-0.033914
-0.26093
-0.262972
-0.253622
-0.27208
-0.019638
-0.0234287
-0.243706
-0.000164136
-0.261592
-0.00550617
-0.000576243
-0.00016082
-0.148473
-0.23869
0.000469462
-0.161426
-0.274156
-0.254628
-0.257948
-0.22614
-0.00238775
-0.260554
-0.263795
0.000621031
-0.0530312
-0.234208
-0.160453
0.000123174
-0.254415
-6.88893e-05
-0.226405
-0.158926
-0.246094
0.000313135
-0.00399649
-0.245028
-0.00111371
-0.0451499
0.00361682
-0.220372
0.000560636
-0.2544
-0.000318045
-0.244195
0.00234141
0.00155289
0.000483283
-0.0094529
-0.233639
-0.250024
-0.00181128
0.000126786
-0.000291534
-0.000151851
-0.02448
-0.000864441
-0.240563
-0.266527
-0.243438
0.000383527
-0.00110997
-0.255842
-0.248672
-0.240555
-0.264927
-0.235253
0.000355708
-0.229849
-0.234626
-7.4981e-05
-0.238887
-0.0352398
-0.0616028
0.00125734
-0.225866
-0.000452674
-0.25334
0.000569396
-0.260461
-0.251152
-0.00151426
-0.243097
0.000849396
-0.261836
-0.215354
-0.00434275
-0.000331459
-0.244509
-0.26023
-0.00261508
-0.274654
-0.198287
-0.00160032
-0.263373
0.000668872
-0.262164
0.00141989
-0.00219309
-0.00448453
-0.232622
0.000136519
-0.255739
-0.0311934
0.000672478
-0.000767779
0.00094272
0.000430971
-0.000537525
-0.261506
-0.14369
-0.0139942
-0.130219
-0.0134027
0.000453469
0.000500772
0.00234289
-0.232988
-0.132514
0.000511734
-0.00881424
-0.0221536
0.000409789
-0.25809
-0.0677573
0.000887449
-0.00318336
-0.253962
0.000219847
0.000288312
-0.257971
-0.228298
-0.0010394
0.000959892
-0.258968
-0.24027
-0.264395
-0.000143423
-0.00184965
-0.261981
-0.00132691
-0.000263812
-0.00125697
-0.204855
-0.190498
-0.253779
0.000885896
-0.235657
-0.244152
-0.252308
-0.242758
0.00104502
-0.080153
0.00309437
-0.261228
0.000744499
-0.000997571
-0.0320793
-0.0669605
-0.00403798
-0.0209278
0.00052505
0.000304389
-0.00201105
-0.255472
-0.00416818
-0.241052
-0.272015
-0.179106
-0.000448667
-0.231813
-0.139556
-0.259764
-0.253954
-0.00838976
-0.0808345
0.00246724
-0.0700949
-0.219581
0.00116229
-0.258802
0.000493758
-0.00207869
0.00426419
0.000295374
-0.2535
-0.000534238
0.000797263
-0.250678
-0.251975
-0.00183761
-0.25291
-0.245309
-0.247265
-0.249718
-0.276181
-0.260101
0.000585725
-0.222182
-0.0738868
0.000665966
-0.00665797
0.0013108
0.00103289
-4.29137e-05
-0.195975
-0.261022
-0.23612
0.00139253
-0.261263
0.00141017
0.0021361
0.000594063
-0.234309
-0.276691
-0.00799947
0.000467123
-0.25822
-0.259702
-0.271535
-0.241283
-0.148076
-0.206054
-0.00168295
0.00200292
0.00224804
-0.00138764
-0.253278
-0.00082061
-0.109405
-0.202012
-0.27649
-0.238051
0.000309911
0.000830197
-0.231412
-0.254142
-0.257686
-0.0258942
-0.0697994
-0.263281
-0.255993
-0.239629
-0.262437
-0.234557
-0.263168
-1.90931e-05
-0.00428121
-0.00406449
-0.261416
0.000105926
-0.00114641
-2.44215e-05
-0.190863
-0.0603714
-0.245807
-0.258495
-0.251004
-0.000649554
-0.209397
-0.228158
-0.273308
-0.00131762
-0.256648
-0.210828
-0.269474
-0.000269676
-0.212812
-0.24473
-0.274191
0.000691857
-0.0723739
-0.00550164
0.000100753
0.00120125
-0.266067
-0.0206695
-0.252792
-0.247707
-0.269713
0.000437092
-0.254689
0.000241002
-0.255177
-0.0115455
-0.183057
-0.000289838
0.000214527
-0.235568
-0.261916
0.00221758
-0.232523
-0.136181
-0.0185934
-0.00198605
0.00175296
-0.253791
-0.278074
-0.000485153
0.000519485
-0.000658975
-0.14748
0.000400981
-7.80916e-05
-0.0293665
-0.00947482
-0.247953
-0.00168031
-0.267962
9.85544e-05
-0.270728
-0.255025
-0.125255
-0.236643
-0.263825
0.000204836
-1.40635e-05
0.00153427
0.000689779
-0.278804
0.00102189
0.00188297
-0.23284
-0.26229
-0.25183
-0.16531
-0.273719
-0.00226032
0.00135798
0.00134884
-0.260429
-0.260162
-0.000360532
-0.254874
8.67279e-05
-0.246312
-0.244394
-0.268807
0.000794872
-0.235287
-0.00172947
0.000270764
-0.269295
-0.262932
-0.00111334
4.70295e-05
-0.257582
-0.24901
0.00137871
-0.00159945
-0.240996
-0.259167
0.000612571
0.000590975
-0.262267
0.000839503
-0.220605
0.000500024
-0.260337
-0.242849
0.000345897
-0.233407
-0.255923
-0.0742177
-0.239711
-0.238668
-0.183697
-0.234413
-0.0349202
-0.00140296
-0.00367048
4.28164e-05
0.00021015
-0.254744
-0.00402176
-0.258916
-0.240249
-0.00010325
0.000936882
0.000135627
0.000694302
0.00100592
-0.00173311
-0.0025863
-0.00137653
0.00119338
-0.00310851
0.00233403
-0.00284914
0.00374067
-0.000792143
-0.0390519
-0.0784506
-0.249391
-0.262379
-0.256184
-0.256477
-0.00205646
-0.266872
-1.86594e-05
-0.270055
-0.00207322
-0.0213912
-0.22712
-0.251596
-0.0014105
0.000749713
0.00222285
-0.276936
-0.0746664
-0.255049
0.000533552
0.000106391
0.00231839
-0.190475
-0.255261
-0.0493334
-0.00270139
0.000838817
-0.00165984
-0.00214333
-0.130311
-0.0515713
-0.0027192
0.000566969
0.000564913
-0.00112207
-0.179676
-0.251299
-0.265638
-0.0728432
-0.265305
-0.180001
-0.261591
-0.0958143
-0.246481
-0.249539
-0.265997
-0.00136046
-0.256596
-0.20749
-0.256992
-0.267786
-0.240496
-0.00195168
-0.25812
-0.00176445
-0.266554
-0.240954
-0.260145
-0.00204061
-0.0154448
-0.231343
-0.255452
6.0237e-05
-0.263188
-0.251917
0.00130427
0.00218414
0.00101793
-0.000731674
-0.00368293
0.000407052
0.000673167
-0.251036
0.00033388
-0.223597
-0.23444
-0.259945
0.000150808
-0.246934
-0.242038
-0.275546
-0.00966709
-0.252048
0.000345102
-0.256531
-0.184447
-0.241947
-0.000715644
-0.00192694
-0.00228318
-0.264942
-0.255865
-0.0400536
0.00126387
-0.261417
-0.176974
0.000129743
-0.0015273
-0.00983218
-0.254436
-0.000700004
-0.000488011
-0.256167
-0.252839
0.00153401
-0.25326
-0.197469
-0.254219
-0.0187454
-0.273612
-0.255694
-0.00155601
-0.0492668
-0.260211
-0.250926
-0.00255313
-0.271365
-0.235286
-0.256058
-0.257105
-0.256619
-0.230869
-0.000236527
-0.259311
-0.000296346
-0.000709921
0.00189394
-0.0592417
-7.05896e-05
-0.270231
-0.240285
-0.26092
-0.155938
-0.000313544
-0.2411
0.00041119
-0.0237331
-0.273411
-0.243758
0.000234792
-0.000158808
-0.234049
-0.00130918
-0.250997
0.000812354
-0.256885
0.000883805
-0.259045
-0.00239885
-0.25437
-0.0204157
-0.0478979
-0.247966
-0.273446
-0.244872
-1.95686e-05
-0.271022
-0.136601
-0.255772
-0.227564
-0.0372427
-0.0969298
-0.0624507
0.000439844
-0.184846
-0.214423
-0.0182863
-0.227624
-0.251051
-0.00246337
-0.253392
-0.00186825
-0.227753
0.000677047
0.000305816
8.70099e-05
-0.0503087
-0.260302
-0.260819
-0.0166128
-0.10329
-0.000963805
-0.000186597
-0.00247775
-0.000630566
0.000184918
0.000397084
0.000905602
-0.00100043
0.00168167
-0.239041
-0.237622
-0.00310705
-0.00445601
-0.235213
-0.260266
-0.0557081
0.00205323
-0.0018555
-0.262756
-0.0409344
0.00100838
0.00034466
-0.2647
-0.0317961
-0.0014346
-0.00126212
-0.0679992
-0.263539
-0.243225
-0.0547829
-0.270777
-0.263608
0.000738061
-0.229461
-0.258919
0.000502306
-0.249877
-0.0076009
0.00046302
-0.000640538
-0.266001
-0.00183239
-0.242088
-0.209166
3.68515e-05
-0.0333285
-0.270817
-0.000366662
-0.254404
0.00055461
-0.225804
-0.239425
0.000656408
-0.255379
-0.244366
0.000349818
-0.000559052
-0.252971
0.000399403
-0.243428
-0.267339
-0.260177
-0.0103329
-0.0054324
-0.00201219
-0.25762
-0.000311461
0.00255215
-0.00146965
-0.0578993
0.000775505
0.000155415
-0.00621287
9.06868e-05
-0.235702
-0.25891
-0.029956
-0.000140257
-0.2395
0.00205832
-0.000995378
-0.00689555
-0.235306
0.00103035
0.000125936
-0.255583
0.00243547
0.00148627
-0.000582842
-0.216748
0.000610199
-0.138943
-0.260386
0.00132876
-0.260436
-0.0276804
0.000545639
-0.258158
-0.247662
-0.26648
0.000978245
-0.100997
-0.00334982
-0.269423
-0.249184
-0.00058854
-0.0813316
-7.93681e-05
-0.260269
0.000558799
1.44628e-05
-0.000775307
0.00181049
-0.00156378
-9.85235e-05
-0.244227
-0.00534466
0.000545323
-0.000608195
-0.000230358
-0.259137
-0.241251
-0.281202
-0.0115744
0.000318739
-0.254195
0.00285274
-0.000256343
-0.000208049
0.000303635
0.00092837
-0.0462443
-7.57973e-05
-0.000149861
-0.112498
-0.259638
-0.263699
-0.281159
-0.229682
-0.00153433
-0.24572
-0.262323
-0.071107
-0.242435
-0.275591
-0.243619
-0.160034
-0.00316071
-0.252611
-0.000798696
-0.249625
-0.000584247
-0.160863
0.00186714
-0.00103989
-0.249465
-0.223317
-0.238437
-0.000457254
-0.0350261
-0.0389877
-0.0454355
-2.508e-05
0.000512263
-0.020307
-0.258853
-0.0109855
-0.256326
-0.0251491
-0.00176266
-0.256149
-0.00134052
-0.00214783
-0.036595
-0.000714457
-0.199757
-0.275965
0.000424932
0.00166995