/*--------------------------------*- C++ -*----------------------------------*\
  =========                 |
  \\      /  F ield         | OpenFOAM: The Open Source CFD Toolbox
   \\    /   O peration     | Website:  https://openfoam.org
    \\  /    A nd           | Version:  10
     \\/     M anipulation  |
\*---------------------------------------------------------------------------*/
FoamFile
{
    format      ascii;
    class       surfaceScalarField;
    location    "1100";
    object      phi;
}
// * * * * * * * * * * * * * * * * * * * * * * * * * * * * * * * * * * * * * //

dimensions      [0 3 -1 0 0 0 0];

internalField   nonuniform List<scalar> 
38623
(
0.216872
-0.2138
0.0787185
-0.0817903
-0.0594547
0.0767761
0.122725
-0.140047
-0.00694109
0.0134618
0.0331265
-0.0396472
0.0043168
-0.00237346
-0.0224598
0.0205165
0.0152208
0.0263933
-0.0332635
-0.00835061
-0.126289
-0.254188
0.238291
0.142186
0.0846786
-0.0709215
0.0821022
-0.0958593
-0.00863297
0.00853257
-0.00640966
0.00651006
0.0198718
0.020341
-0.2441
-0.0359523
0.079315
-0.320213
0.27685
0.110023
0.124417
-0.111209
-0.123232
-0.219732
0.19441
-0.00537835
0.0307007
0.461466
-0.0463498
-0.468225
0.0531083
-0.229755
0.208824
-0.010436
0.0313663
0.0376578
0.0464637
-0.0520976
-0.0320239
0.0440471
-0.293359
-0.0477579
0.29707
-0.0149578
0.386258
-0.000225433
-0.371075
-0.00876719
0.264637
-0.00921576
-0.246654
0.00614809
-0.0272081
0.41174
-0.39068
0.40213
-0.28243
0.239185
-0.358885
0.182698
0.138306
-0.0435742
-0.27743
0.10848
0.0805573
-0.079014
0.317159
-0.271645
-0.0017614
-0.0437522
-0.221694
0.291823
-0.265794
0.195666
0.042949
0.251547
-0.0438329
-0.250663
-0.0377554
0.577319
-0.550297
0.010733
0.0306545
-0.17813
-0.0555174
0.202993
0.223087
-0.17862
-0.491245
0.446778
-0.00919046
-0.000761773
0.0013945
0.00855773
-0.273372
0.29257
0.382932
-0.0149483
-0.0205945
0.0195398
0.016003
0.00564281
-0.00153992
0.000773204
-0.00487609
0.0286147
-0.032012
-0.0331367
0.0365341
0.292686
-0.024581
-0.276872
-0.0102693
-0.0111274
-0.236753
0.25815
-0.340712
-0.172863
0.145638
0.367937
-0.000608584
0.000143992
-0.00719052
0.00765511
0.00534661
-0.235348
-0.14755
0.166557
0.00339789
-0.0224053
-0.0566798
0.0719409
0.318961
-0.334222
0.0663618
0.413115
-0.429845
-0.0496322
0.271333
0.184338
-0.253801
-0.20187
0.331364
-0.185359
0.332856
-0.478862
-0.415407
0.203335
0.336383
-0.124311
0.600261
0.241891
-0.515186
-0.326966
-0.0301289
0.0737515
-0.429582
0.385959
-0.0137686
0.0267641
-0.00122318
-0.0117723
-0.260995
0.193388
0.155324
-0.0877168
-0.000917515
0.00188213
0.000997802
-0.00196242
0.00752899
-0.000497722
-0.00767724
0.000645974
-0.00496561
-0.00134873
0.00145909
0.00485525
-0.010882
0.0287982
-0.023065
0.00514882
-0.00187474
0.000703628
-0.00170722
0.00287834
-0.381743
-0.109224
0.294805
0.196162
-0.0010119
0.000439244
0.00621546
-0.0208583
-0.396169
0.402069
0.039597
-0.0228789
-0.0545535
0.0378354
-0.00437207
-0.00808243
0.00852305
0.00393145
-0.141052
0.185003
0.138748
0.00193577
-0.00724324
0.00574971
-0.000442239
-0.00918057
0.00361008
-0.0031937
0.00876419
-0.341142
-0.109367
0.0351029
-0.337385
0.32619
0.0839671
-0.0727719
-0.00572137
-0.00746913
0.00879343
0.00439707
-0.24749
-0.322997
0.348792
-0.501487
0.352576
-0.229941
0.378852
-0.168296
0.144031
-0.024929
0.0491948
-0.537211
0.423346
0.175427
-0.0615623
0.121901
0.540082
-0.0617219
-0.390272
-0.0650736
0.064485
0.390861
0.00888496
-0.00309182
-0.00897018
0.00317704
0.014427
-0.00767431
-0.0136938
-0.0502163
-0.0189959
-0.516207
0.585419
0.0605783
-0.061164
0.0382435
0.401915
-0.380564
-0.268841
0.0410757
-0.0609169
0.0587094
-0.0388683
0.0218873
-0.181306
0.17539
-0.015971
0.113692
0.18955
-0.194178
-0.109064
-0.0117568
0.00534964
-0.00522118
0.0116284
0.0374476
-0.0294883
0.341657
-0.349616
-0.10975
0.224996
-0.207329
0.0920838
0.0447146
-0.0560061
-0.0881812
0.0994728
0.07066
-0.0905177
-0.0106027
0.00846837
-0.000413896
0.00254819
-0.0178264
0.0423491
-0.024941
0.000418345
-0.235593
0.246359
-0.0218927
-0.0579663
0.0917635
-0.0988097
0.0650125
-0.00141555
0.00036398
0.00030674
0.000744834
-0.289904
-0.102593
0.136607
0.255889
0.361919
-0.364708
0.0402369
-0.00686912
-0.000323296
0.00656015
0.000632274
-0.423767
0.0719858
0.402623
-0.0508423
0.00395138
-0.00743976
-0.00223299
-0.332878
-0.187267
0.201317
0.318828
-0.00685419
-0.00325062
0.00526105
0.00484376
-0.00739993
0.00011193
-5.83416e-05
0.00734634
0.494611
-0.112911
-0.392229
0.010529
0.0754724
-0.103622
-0.232845
-0.280173
-0.0295192
0.067471
0.242221
0.00735128
-0.00134433
0.00921385
0.347938
0.0639265
-0.0958186
-0.316045
-0.0383983
-0.103016
-0.0268818
-0.0579597
0.0222806
-0.124328
0.160007
-0.00672561
8.52654e-06
0.00672036
-3.27821e-06
0.00127861
0.00749922
-0.00829319
-0.00048464
4.7969e-05
0.00198169
-0.0126323
0.271457
-0.107552
-0.290194
0.226092
0.417713
-0.144635
0.1496
-0.0433629
0.353763
-0.315747
-0.126968
0.0889514
-0.113499
0.154078
0.0903422
-0.130922
-0.273961
0.0795489
0.199759
0.0567077
-0.040251
-0.034283
-0.00521037
0.28757
-0.00076474
-0.281595
-0.139382
-0.330703
0.129374
-0.307024
-0.0536501
0.0584215
0.302253
-0.183722
0.370705
-0.553992
0.367009
0.0539825
-0.283066
-0.0559751
0.285059
-0.000147144
0.000307396
-0.00935072
0.00531966
-0.00773657
-0.00421805
0.00663495
-0.119824
0.0233377
0.210179
-0.000180763
0.00577396
0.000229313
-0.00582251
-0.0420403
-0.382367
0.0402561
0.384152
-0.00547576
0.00389741
0.00686325
-0.0052849
-0.092566
0.0850737
-0.0955242
-0.0794343
-0.672919
0.552658
0.199696
-0.00893334
0.00242891
-0.00267614
0.00794025
-0.000138287
-0.000272974
-0.00118752
-0.0100441
-0.00462624
0.0158578
0.0171103
-0.0106331
-0.0158165
0.00933933
0.00810385
0.00899374
-0.00678703
-0.0103105
0.0288191
0.16289
-0.148153
-0.0435564
0.132186
-0.000571709
-0.0186478
-0.112966
-0.211881
0.201537
0.0567106
-0.0463659
0.420645
0.0875118
-0.196901
-0.311256
-0.0981942
0.21533
-0.175095
8.51069e-05
0.00636777
-0.0064368
-1.60807e-05
0.0421213
0.174176
0.0513792
-0.12033
-0.169317
0.238268
-0.109041
0.151041
0.00862565
-0.00865859
-0.00011421
0.166397
-0.182717
-0.255982
0.272302
-0.14166
-0.239851
0.218888
0.162624
0.0815392
0.301084
-0.112928
-0.269696
0.363208
0.0135874
-0.0383316
-0.338464
0.473272
-0.193619
0.07411
0.288129
-0.0541507
-0.283197
0.0492182
-0.0674343
0.0390046
-0.0192231
0.0476528
-0.00353884
0.00270806
0.00672902
-0.00589824
0.0238539
-0.37138
0.388437
-0.0409114
0.0465959
-0.00318149
-0.039108
-0.00430641
0.269976
-0.119842
-0.462381
0.312247
0.0694987
-0.0886021
-0.056799
0.0759024
-0.0504298
0.432826
0.146796
-0.529193
0.0347336
-0.0327255
0.0215692
-0.0235773
-0.0641809
0.0489633
0.292289
-0.277072
0.0153914
0.0802838
-0.0733946
-0.274199
0.156801
0.234318
-0.11692
-0.0099151
0.0107678
-0.00621986
0.00536714
0.00229163
0.0102818
-0.00844424
-0.00412917
0.055417
0.380208
-0.382003
-0.0536217
0.0806413
0.0292734
-0.0446956
-0.0652191
0.00251883
-0.00938106
-0.00134265
0.00820488
-0.162969
0.164888
0.46225
-4.02959e-05
-0.411494
-0.0507159
0.00023899
0.366259
-0.342644
-0.189067
0.188306
-0.0671492
0.0679093
-0.00622681
-0.0016851
0.00704613
0.000865778
-0.229508
0.403449
0.205949
-0.37989
0.280118
0.128404
-0.242125
-0.177329
0.0312748
0.18399
-0.0379359
0.0193388
0.00488826
-0.0199103
-0.234564
-0.313974
0.225541
0.00207406
-0.00713246
-0.00041736
0.285824
-0.547265
0.337285
-0.0758439
-0.0134267
0.000232016
0.010403
0.00279167
0.334891
0.0523307
-0.335351
-0.0518711
0.0520183
0.244254
-0.0546162
-0.241656
-0.265032
-0.02915
0.27622
0.0179615
-0.201775
0.170241
-0.127951
0.159485
0.00914531
0.0059015
-0.0121508
-0.00289604
0.0213553
-0.00477223
-0.00743775
0.0754842
0.0354647
-0.0698733
-0.0968376
-0.131648
0.077094
0.151392
-0.0423383
0.0909975
-0.399383
0.350724
0.420623
-0.408408
-0.0330729
-0.19447
0.082058
-0.00462062
0.00506811
0.00802088
-0.00741509
-0.000782952
0.00562863
0.00256941
0.286429
-0.197813
-0.00268829
0.00452987
0.00690862
-0.00875019
-0.392156
0.072179
0.041391
0.278586
-0.301546
0.361227
-0.116361
-0.295044
0.142555
-0.18087
0.333359
-0.0520923
-0.324118
0.0597842
0.316426
0.152881
-0.20372
-0.29469
0.345529
0.000367815
4.34339e-06
-0.00749033
0.00711818
-0.000532886
0.00712367
-0.00927908
0.00210284
-0.0062482
-0.000528207
0.00467357
0.161939
-0.131836
-0.143603
0.319598
-0.0245294
-0.29483
-0.261735
-0.326011
0.279133
0.308613
-0.00447475
0.00675382
-0.00581791
0.0134309
-0.123679
-0.0332019
0.14345
0.00953109
-0.00708812
-0.011076
0.00276737
-0.00955604
0.00930751
-0.0299566
0.0161932
0.0228236
-0.00906025
-0.0647087
-0.196746
0.0802998
0.181155
0.19386
-0.00360712
-0.0599951
-0.130258
-0.0944782
0.233123
0.0656327
-0.204277
0.307424
-0.0378609
-0.299051
-0.00803351
-0.000741021
0.00816595
0.355997
-0.345153
-0.0531816
-0.443543
0.247191
-0.0331563
-0.00317055
-0.00119028
0.00248609
-0.00449491
0.00113143
0.00925755
-0.00589408
0.111812
-0.00954532
-0.088836
0.0392442
-0.298847
-0.000186814
0.00724997
-0.0012314
-0.00583176
-0.0119147
-0.00957814
0.00753953
0.0139533
0.0810034
-0.0529487
-0.513912
0.485858
-0.0395497
0.0392111
-0.00698235
0.000329906
6.81708e-05
0.00658427
0.314577
-0.0755974
-0.30316
-0.0988973
0.308313
0.0182511
0.0299473
-0.0138189
-0.0343795
-0.000155973
0.0070265
-0.00736825
-0.310393
0.071119
-0.243692
0.0635177
-0.00448312
0.184657
0.402773
0.0484569
-0.401661
-0.0495681
-0.200029
0.238835
-0.281115
0.242309
-0.0024158
8.27346e-05
-0.00141667
-0.0622255
-0.210319
-0.579744
0.602076
-0.0600875
0.0498925
-0.0398622
0.016363
0.0108499
0.000374739
-0.0067631
-0.00446157
-0.24826
-0.366868
0.0281712
-0.00852968
0.00257138
-0.0222129
0.0615547
-0.470164
0.524744
-0.116135
-0.011708
-0.00673051
0.011338
0.00710051
-0.00141296
0.00236655
0.00092854
-0.308105
0.0442627
-0.0522305
0.316073
0.00127657
-0.0122232
0.0109946
0.0123497
-0.000298052
0.0378409
-0.00110765
-0.00613106
-0.121749
-0.320693
0.105057
-0.0869932
0.254226
0.104225
0.0376528
-0.492635
-0.0602031
-0.0112174
0.00253876
-0.000702455
0.0784553
0.0229656
-0.0207796
0.121354
0.459766
-0.429433
-0.151687
0.0762693
-0.224918
0.309619
-0.16097
-0.00499807
-0.00127519
0.00172769
0.00454557
-0.487561
0.487546
-0.0466563
0.0466719
0.10057
-0.0133987
-0.0578981
0.00469513
-0.00766099
0.00185822
0.00668752
-0.00584261
0.00440816
-0.000671518
-0.00677624
0.0030396
-0.0902573
-0.337685
0.0911758
0.336767
-0.303903
-0.213792
0.000663617
0.000698166
-0.0532983
0.0826669
-0.308107
0.278739
0.000606516
-0.00859053
-0.000949323
-0.113604
0.170845
0.0326408
0.261484
-0.245161
0.0564137
-0.362588
0.378116
-0.00998366
-0.00904635
0.00560334
0.00870862
0.00551035
-0.00926429
-0.00495468
-0.0338729
0.00667818
0.00899124
0.0182035
0.00887874
0.016919
0.178609
-0.253476
-0.119311
0.00538769
0.0188373
-0.00488618
0.000399282
0.000682359
0.00272375
-0.00380539
0.0938556
-0.221059
0.292427
-0.165223
0.109471
-0.150777
-0.246931
0.0392407
0.000464139
0.00725427
-0.00737448
-0.000343938
0.0575415
-0.0840078
-0.283927
0.00664606
0.000839761
-0.000714108
-0.00677171
0.274516
-0.317337
0.0866002
-0.0437801
0.00767633
-0.0150451
0.00935043
0.0835779
-0.049853
-0.277417
7.1246e-05
-0.000435016
-0.00460184
-0.0713161
-0.331393
0.0850202
0.317688
0.236277
0.0385742
-0.235601
-0.0392495
0.00721761
0.00534707
-0.00295165
-0.00961302
0.00598529
-0.00366072
-0.00560248
0.00327791
0.0905768
-0.363585
0.551274
-0.278266
0.0082458
-0.00874649
0.00326807
-0.0485636
0.0473447
0.0359525
0.00320753
-0.0141929
-0.00265207
-0.00197565
0.00321475
0.004332
-0.0083668
-0.00343433
0.00326811
-0.00459374
0.00573379
-0.0107978
0.00378054
-0.0119327
-0.224832
0.00569206
-0.00517112
0.00461555
-0.00513648
-0.357624
0.307614
0.0124091
-0.00856152
-0.239441
0.00898942
0.000455985
-0.00897649
-0.000468918
0.00466548
-0.00764738
-0.00912514
0.012107
-0.0301624
-0.0319744
0.017485
0.0446518
0.00947107
0.00168626
-0.0271865
0.0200709
-0.0141491
0.0212647
-0.122549
-0.393554
-0.0207563
-0.0149598
0.00718274
-0.00154119
0.00315188
-0.00412
0.376284
0.0524762
-0.0808227
-7.54109e-06
-0.0068897
0.00173385
-0.00346729
0.0549599
0.0475334
-0.0329945
-0.396473
0.0634588
-0.0607464
0.39376
0.136433
-0.201245
-0.112517
-0.0108816
-0.00140407
0.00772741
0.00455823
0.00834084
-0.00047696
0.00609025
0.00545936
0.100426
-0.042326
-0.0796637
0.0215637
-0.00334172
0.00635175
-0.0373856
0.00701334
0.509925
-0.479553
0.00233012
-0.00863207
0.00663185
-0.00179074
0.000803351
-0.00188616
-0.0050342
0.0011002
0.00582017
-0.366738
-0.285256
0.20845
0.0636357
-0.033744
-0.22841
0.020728
0.213479
-0.00579703
0.0126388
0.012545
-0.0141464
-0.0110374
0.00123691
-0.00599928
0.0218726
0.00434853
0.00696882
-0.00486568
-0.00645167
0.208321
-0.0963149
-0.206484
-0.0801399
-0.0213148
0.058178
0.0432767
0.00704712
-0.215551
-0.173853
0.382357
-0.0076931
0.00128812
-0.284267
-0.0159127
0.246882
0.00737208
0.0042677
-0.00729125
0.00347928
-0.0233677
-0.010354
-0.00224129
0.000421699
0.0121736
-0.162789
-0.257972
0.065726
0.355035
-0.272843
0.31532
0.153561
-0.196038
-0.00913252
0.00883214
-0.00968327
0.0054201
0.0147324
-0.0152642
0.00651396
-0.102766
0.0803245
0.588049
-0.608236
-0.0592474
0.489642
-0.65637
0.225777
-0.0590496
-0.00155022
-0.00724827
0.00142617
0.00737232
-0.104603
-0.175097
0.204967
0.0747325
-0.00046895
-0.0082506
-0.0322029
0.0202917
0.011407
-0.00539122
-0.0163697
-0.00469867
0.0054057
0.0111652
-0.0118722
0.00713854
-0.000202427
-0.007469
-0.000222665
-0.00601134
0.000383427
-0.000846651
0.00282978
0.0498158
0.247108
0.0643034
-0.186209
0.303525
0.226514
-0.34383
0.368365
-0.604717
0.355347
-0.118996
-0.0626586
0.051932
-0.0134462
0.0103507
0.0114185
0.141874
-0.389373
0.234191
0.0133091
-0.0484266
0.0284506
0.334684
-0.0145676
-0.313069
0.0028887
-0.00135286
-0.00895093
-0.210013
0.0658045
-0.0598718
0.20408
-0.00355287
0.00343348
0.00708821
-0.269716
0.213401
-0.276563
1.34415e-05
0.0431962
0.472892
0.0612313
0.156272
-0.227916
0.00649131
-0.00520229
-0.00209367
0.00339123
0.00390473
-0.0478629
-0.143495
0.162246
0.0291123
-0.391561
0.00137036
-0.00576325
-0.00178502
-0.00357853
-0.00551803
0.00505954
-0.0214905
0.29764
-0.203731
-0.015434
0.00442294
0.00352369
0.00748743
0.0634207
-0.0603104
0.0605254
-0.0228325
-0.300106
0.0148308
0.212486
-0.404254
0.269507
-0.0777389
0.479686
0.0697416
-0.0597851
0.067874
-0.059569
0.138333
-0.20509
0.251752
0.192173
0.00628359
0.0078982
0.259361
0.0520104
-0.0521639
-0.259207
-0.00365131
-0.0112853
0.0147083
0.173433
-0.136762
-0.0386727
0.239102
0.002069
0.00639236
0.00670544
0.0011616
-0.00288064
0.00957938
-0.00645024
0.000255543
-0.00338468
0.0141634
0.221323
-0.202845
-0.558154
-0.446553
0.122643
0.0134631
-0.320563
-0.00674197
0.00309661
0.0238231
0.021435
-0.0318348
-0.0134234
0.0073938
0.00367416
-0.00282217
0.0084276
-0.0069819
0.0039744
0.00617985
0.0260562
-0.0386629
0.00642693
-0.044295
0.0709038
0.0488755
-0.166459
-0.0793258
0.134387
0.111398
0.0046837
-0.00755587
-0.000144736
-0.00968965
-0.00296767
0.00389045
-0.00865935
-0.0467228
0.705553
-0.0602802
0.109857
-0.0154526
-0.0589395
-0.00435408
0.00570708
0.00601908
0.071798
0.0780881
-0.0573112
-0.0925749
-0.0142472
-0.00777126
0.0111365
0.00426154
-0.0322364
-0.00589802
0.13892
0.0571098
-0.118936
-0.218892
-0.0372619
0.0676714
0.188482
-0.0573729
0.255096
0.048433
-0.246156
-0.00335786
0.00558701
0.00691207
-0.00914123
0.309278
-0.201748
0.196638
-0.304169
-0.217936
-0.0714541
0.129937
0.159453
0.0118568
-0.00899512
0.00906674
-0.00934569
0.000885463
-0.23644
0.172164
-0.00538589
0.0112151
0.00308347
-0.00891268
-0.0183178
-0.00546513
0.00883463
0.00176845
0.0062909
-0.000532117
0.00916381
-0.177395
-0.201303
0.379809
-0.332433
-0.0278628
-0.0195128
-0.00515342
-0.00236483
0.00575404
0.00176422
-0.133887
0.175803
-0.204705
-0.33281
0.353286
-0.179313
0.158838
-0.526998
-0.0616662
0.501044
0.08762
-0.11287
0.166513
-0.101506
-0.0340788
0.0257578
0.428944
0.00225177
0.0086138
-0.00442983
0.00247334
-0.00170424
0.0512081
-0.0367937
-0.00226369
0.0009364
-0.00203056
-0.00334217
-0.00529743
0.00850653
-0.0130403
0.0153298
-0.00982451
0.0053339
-0.461407
-0.196638
0.291308
0.0119088
-0.0382345
-0.00451739
0.030843
-0.317772
-0.0427794
0.004686
0.00724763
-0.00443716
0.0271151
0.484186
-0.561731
-0.00109456
-0.00253852
-0.00175281
0.18797
-0.0733016
-0.219271
-0.154227
0.322568
-0.00526068
0.0083552
0.00208006
0.00603555
0.00788532
-0.102745
0.00407107
-0.00933632
-0.265577
-0.377901
0.0750803
0.145006
-0.0766905
-0.143396
0.0197245
0.00922511
4.31968e-06
-0.000125675
-0.00692875
0.00705011
-0.00983839
0.0160236
-0.00689856
0.00071332
-0.318649
-0.00903094
0.0592276
0.268452
-0.0553323
0.195201
-0.248932
0.267304
-0.306275
0.00161621
-0.619487
0.0698472
-0.0585962
-0.0106389
-0.035383
-0.20872
-0.175537
0.0578528
0.326404
-0.0669308
0.196486
-0.194264
0.0202666
-0.0214396
0.022608
0.00852798
-0.00651399
0.0047232
0.00632067
0.0105142
0.0375248
-0.0326476
0.533379
-0.562849
-0.273311
0.30278
-0.00630062
0.139458
-0.427757
0.511385
-0.0139416
-0.330698
0.343692
0.000947351
-0.0243415
0.0257125
-0.0205669
0.0191958
0.0503625
0.000669723
-0.0391234
-0.0160464
0.00588541
-0.0105953
-0.138613
0.0315935
0.151397
-0.044377
0.214023
-0.0587933
0.0438971
-0.199127
-0.0733844
0.0493568
0.0630322
-0.198241
-0.11746
0.0100068
-0.261582
0.0552485
0.196327
0.0416743
0.0198256
-0.0264146
-0.0350852
0.000690867
-0.00164845
0.00764511
-0.0464987
0.365164
0.0184296
0.00329566
-0.0116154
-0.0101099
-0.00653303
0.00504953
-0.00461627
-0.0427435
0.00912535
0.00967717
0.00539598
-0.00554206
0.0214481
-0.0260565
-0.0153827
0.0199911
-0.113452
-0.538306
0.12476
0.0116328
-0.0103823
0.00451444
-0.00576489
0.411916
-0.160698
0.126997
0.221671
0.0822985
0.0601043
-0.0769938
-0.0654089
-0.000307699
-0.00854388
-0.000462024
0.0093136
3.75324e-05
-0.00104031
0.0077318
0.0204574
-0.0233508
0.00908827
-0.00909567
0.00794397
-0.00793657
-0.0131937
-0.00204634
0.00301684
0.0786983
0.163385
-0.0906912
-0.440355
-0.0436211
0.0311607
0.452816
-0.485341
0.0370058
0.00748222
-0.0209575
-0.0173433
0.0233409
-0.00296363
0.004019
-0.000209949
-0.000112646
-0.00744112
0.00776372
-0.0167373
0.318621
-0.747445
0.186012
-0.0580536
0.0355269
0.0190972
0.0322762
0.00658319
-0.0102447
0.0245224
-0.0211679
0.0169372
-0.153157
-0.308696
0.0447584
0.417094
0.000114665
-0.00505522
0.000445653
0.290981
0.207702
-0.359224
-0.0992294
0.0743798
0.00484108
0.0036447
-0.632984
-0.0567238
-0.0577373
0.117646
-0.0241356
-0.0927601
-0.000750119
0.0371523
0.0863835
-0.00494976
-0.00673536
-0.0216798
0.324969
-0.0908031
0.00664442
0.00245205
0.000482903
0.00382362
-0.0101307
0.0185365
0.00973261
-0.017054
0.00800707
-0.0559047
0.0163943
0.0315034
0.262688
0.0211877
-0.243633
-0.0402418
-0.392022
0.37918
0.0258298
-0.0129879
-0.0413178
-0.433116
-0.0775203
-0.367544
0.179487
-0.00663
0.013315
-0.0165303
0.00984532
-0.0133882
-0.00502675
-0.00683063
-0.364844
0.264197
0.0565435
-0.0462236
-0.0415453
-0.0455499
-0.355517
-0.0602613
0.344463
0.296807
-0.0489796
0.0447985
-0.131307
-0.0521048
0.579863
-0.0785307
-0.169968
-0.336422
0.248626
-0.33128
0.28299
0.288917
-0.240627
-0.0333583
0.131781
0.334403
-0.00365245
-0.00407846
0.0011472
0.0065837
-0.362605
-0.170863
0.50243
0.0310384
-0.00571268
-0.0008542
0.0114318
-0.00486491
0.0723307
-0.124159
-0.0489374
0.100766
-0.27278
0.179778
0.396527
0.00772229
-0.00224865
-0.264311
-0.0259795
-0.362182
0.101891
0.28627
0.00841662
0.00128391
-0.0192916
-0.00381997
0.0141165
0.0119205
-0.012607
-0.0091519
-0.38396
-0.157197
0.0797493
0.234326
-0.0721628
0.00105292
-0.000212831
0.00586536
0.00580001
-0.00223356
-0.541517
0.00420832
0.00724356
-0.00856318
0.0412179
-0.48243
-0.0463489
-0.596907
0.540607
-0.0571521
0.177069
0.0254718
-0.0398404
-0.39404
0.149952
0.0223706
-0.341408
-0.04673
0.365768
0.00867929
0.00773642
-0.00494447
0.00627175
-0.00488015
-0.0168656
0.0039732
0.0182981
-0.00722154
-0.000375603
-0.0128155
0.0135368
-0.00227684
-0.546638
0.604668
-0.0557529
0.0130742
-0.363541
0.0669309
-0.0589069
0.0298449
0.0340012
0.00430454
-0.154948
0.285057
0.0964051
0.0396938
0.476814
-0.477157
-0.0393507
0.548204
-0.523365
-0.000712476
-0.00522762
-0.230985
0.226059
-0.230751
0.255577
0.0129899
-0.0378162
-0.00419404
0.0275034
0.0232865
-0.0281992
0.259143
-0.00471802
-0.226226
0.0648378
0.15278
-0.00828104
-0.000215291
0.00843799
0.0436141
-0.25904
-0.564355
-0.0333486
-0.0586663
-0.0970423
0.0231788
0.281633
-0.0152059
-0.00178967
-0.0567701
0.16902
-0.172116
0.0598652
-0.0243928
0.0217784
-0.292746
0.203516
0.0102191
-0.0072802
0.00153293
-0.00447185
-0.0488521
0.0570973
0.00868378
0.216583
0.035864
-0.209498
-0.00438051
-0.00893245
0.00633603
0.0454857
0.0763452
0.0704661
0.298003
-0.0761795
0.0277956
0.00724874
-0.0145869
0.0102505
-0.0624141
0.123962
0.0314862
-0.0250869
0.0451561
-0.0515554
0.0111557
-0.00608622
-0.00456481
0.00481747
0.00405188
0.109343
-0.0286467
0.091256
-0.171952
-0.0154482
0.0354144
0.00718847
-0.0271546
0.0880405
-0.372177
0.396127
-0.306381
0.244203
-0.423334
-0.00475429
0.0149665
-0.0104931
0.00673267
0.0060521
0.0209017
-0.221178
-0.0663609
0.187511
0.100028
0.0843616
-0.09036
-0.027265
0.169593
-0.074881
0.0700257
-0.164738
0.386153
-0.397661
0.0608822
-0.0493742
0.250731
-0.135907
0.183896
-0.29872
0.416207
-0.422525
0.0563291
-0.0500113
0.453295
-0.375206
-0.055719
0.452307
-0.0209695
-0.33856
-0.0466828
0.506597
-0.0354173
0.000538854
0.0302622
-0.16702
-0.37572
0.34162
0.20112
-0.0250239
-0.0414457
-0.100719
0.152751
-0.0259581
-0.32066
-0.51716
0.0259211
-0.0553994
0.176879
-0.0307784
-0.131937
-0.0229394
0.0144478
-0.00214148
0.0720364
0.245342
-0.0580175
-0.36965
0.027283
-0.0420691
0.475075
-0.460289
0.208964
-0.0902858
0.0139808
-0.0311903
-0.184986
0.202195
-0.0411967
0.278221
-0.265224
-0.0467161
0.487912
-0.0386815
0.226033
0.0292314
0.0195474
-0.0156671
-0.327006
0.315265
-0.127641
-0.243693
0.0778686
0.242093
-0.0155689
0.0276964
-0.0275758
-0.000954022
-0.0137246
-0.00906668
0.0277977
0.0164753
-0.0257365
0.00262361
-0.00343135
-0.00215589
0.257477
-0.0446115
0.00551292
-0.00746508
0.0308059
-0.041049
0.182967
-0.172724
-0.372174
0.191003
0.253207
0.37959
-0.017328
0.000328846
-0.362591
0.320851
0.0349673
-0.0483942
-0.0480755
0.355478
-0.0444026
0.03898
-0.350056
-0.110521
0.771416
-0.056227
0.406828
0.0595061
-0.0501271
-0.001653
0.013648
0.0258459
-0.014987
-0.0320411
0.0255885
0.0139376
-0.00237887
-0.212527
0.200968
0.337537
0.170809
-0.0550513
0.214293
-0.180289
0.021862
-0.0558661
0.246094
-0.197759
0.161697
-0.196709
0.0851895
-0.0501779
0.167014
0.116852
-0.069573
0.0693628
-0.00245823
0.0138661
-0.0807706
0.173925
-0.0759701
0.0716386
0.037915
-0.0162074
0.0137068
0.239921
0.107575
-0.101402
0.359676
-0.0163834
0.00707488
-0.350367
0.153701
-0.141446
0.121951
-0.134206
0.223377
-0.236672
-0.0661465
0.0794422
0.30283
-0.518669
-0.0928571
0.171802
-0.0689252
0.095614
-0.198491
0.359277
0.0227149
-0.0223167
0.172442
-0.170221
0.0336436
0.0201289
0.415125
-0.410628
-0.024626
0.279248
-0.315426
0.0149469
0.0212308
-0.0417511
0.191413
-0.135681
-0.0403723
0.235215
0.226129
-0.20601
0.143736
-0.163855
0.270426
-0.185574
0.201577
0.0523844
-0.0594241
0.168737
0.00713428
0.14503
-0.136313
-0.0158507
-0.0232762
0.122766
-0.108922
0.00943242
0.0924211
-0.0486821
-0.0695811
0.0258421
0.0580371
0.0155283
-0.0042026
0.16408
-0.0719469
0.0349602
-0.0284543
0.0314091
0.0771718
0.216337
-0.119584
0.169768
-0.147903
0.202755
-0.0549988
0.0756199
0.238433
0.100844
-0.0993559
0.0900637
-0.052149
0.0137846
-0.0237631
0.318613
-0.308634
0.332346
-0.0240513
0.0177377
-0.326032
0.23727
0.029388
0.0125907
0.244369
-0.123586
0.129948
0.296675
-0.206452
-0.0632786
0.0647411
-0.409066
0.407603
0.386675
-0.375802
-0.00838317
-0.00249068
0.027218
0.0230474
0.289332
-0.496102
0.233691
0.248214
-0.211479
0.386886
0.0165711
-0.0171988
0.234508
0.145347
-0.135486
-0.325118
-0.123618
0.158542
-0.0925669
0.083692
0.17226
-0.188652
-0.275975
0.201503
0.263124
0.162417
-0.149368
-0.00591457
0.129176
-0.120858
0.210023
-0.196755
0.0639033
-0.00443608
0.314551
-0.345642
0.0355271
0.416111
-0.0327332
0.0032973
-0.120057
-0.31803
0.100402
0.227081
-0.442488
0.306404
-0.0436466
0.347423
0.0432812
-0.347058
0.0305036
-0.0285289
-0.0175436
0.125166
0.325662
-0.145003
0.0552655
0.154576
-0.0622756
0.313544
-0.312186
0.0609167
-0.00589241
0.30131
-0.321669
-0.168039
0.0610579
-0.427845
-0.0608738
0.427661
0.0536867
-0.0760941
-0.0814614
0.103869
-0.0811795
0.192724
0.268264
-0.00794593
0.00720149
-0.00372741
0.301069
-0.404402
-0.252925
0.483853
-0.252891
-0.406695
0.175734
0.274582
0.417336
-0.333427
-0.0557485
-0.0281606
-0.000565202
0.00144612
-0.00944917
-0.00134264
0.258413
-0.359362
0.0293174
-0.0178284
0.191502
-0.117797
0.343631
0.361673
0.190279
-0.357284
-0.194669
-0.263606
0.267169
-0.37574
-0.00801054
-0.0586676
0.461439
-0.11385
0.0474448
-0.0603942
0.0166876
0.0312132
-0.00539982
-0.180629
0.173602
-0.134419
0.0956643
-0.123655
-0.0734287
0.0752746
0.0518407
-0.116078
0.0568088
0.116642
-0.0573723
-0.0484365
0.0745807
0.00881608
-0.304049
0.155147
-0.0670373
-0.0336301
0.201748
0.00876084
0.0237702
0.158433
0.147982
0.0994125
-0.0310575
-0.0905069
0.0821062
-0.328552
0.336953
-0.19349
0.0538675
-0.0455227
0.077888
-0.156984
0.17066
0.223594
-0.268783
0.160239
0.17098
-0.0624356
-0.0515414
0.0361498
-0.0846284
0.0609714
-0.0174192
0.0189648
-0.00713608
0.102592
-0.0989305
0.234771
-0.373527
0.377795
0.0988962
-0.103164
0.0377807
0.0486069
0.0384194
0.26232
-0.255446
-0.0452931
-0.0715426
0.324679
-0.334316
0.249331
-0.0762426
-0.140012
0.0365856
-0.00513174
0.000919092
0.00293746
-0.425733
0.0135794
-0.196006
0.0986858
0.199912
-0.317025
0.298837
0.163281
-0.145092
0.0212962
-0.462132
0.473535
-0.0326994
-0.135494
0.327211
0.210788
-0.33631
-0.111518
0.141571
-0.174533
0.220389
0.285258
-0.141624
-0.329208
0.332241
-0.0236584
-0.259017
0.283877
-0.060741
0.0408582
-0.317904
-0.259345
0.344383
0.232866
0.00532379
0.00746248
-0.0209143
0.008128
-0.0727635
0.0233286
-0.228968
0.278403
0.447782
0.27018
-0.435822
-0.28214
-0.214524
0.20139
0.205859
0.249101
-0.152669
0.0874642
-0.284524
0.200312
-0.0351106
-0.0167569
0.00343099
-0.299187
-0.0934644
0.171474
-0.212664
0.0293832
0.221789
-0.038509
-0.233391
0.185359
0.239036
-0.469927
-0.03016
0.148928
-0.0386025
0.00333742
-0.00858032
0.421354
-0.434066
0.0153851
0.272924
0.145757
-0.0470997
0.0242558
-0.101484
0.227222
-0.18077
-0.054777
0.0518377
-0.0816891
0.0113401
0.36947
-0.0587491
-0.322061
0.240968
0.17761
-0.258339
-0.136375
-0.0899969
0.218362
0.00800903
-0.00737543
-0.00632452
0.0327626
0.4101
-0.0493679
0.334206
-0.0514069
0.503734
-0.49856
-0.05189
-0.449452
0.456346
-0.0505147
0.346213
0.0625111
-0.0527277
-0.435813
-0.0499904
-0.433087
0.427016
0.0559762
-0.0499056
0.490386
-0.538816
0.103308
-0.0548782
0.378301
0.0571084
-0.0492558
-0.516061
0.538724
0.0306029
-0.0532661
0.499062
0.014033
-0.0508449
0.514779
0.0534244
-0.515661
-0.0525428
-0.573035
0.68399
-0.0571128
-0.0538421
-0.482286
0.0500834
0.487744
-0.055542
0.442699
0.0594936
-0.452818
-0.0493747
-0.0496194
0.0609872
0.396132
-0.0502904
-0.432888
0.440407
0.0426385
-0.0501575
0.0900546
0.302182
-0.0546991
-0.065778
0.180472
-0.267083
0.259441
-0.16689
0.0125811
-0.00853641
0.00374604
0.0683764
-0.0564763
0.151351
-0.224886
0.215409
0.312159
-0.206878
0.311813
-0.0393737
0.323801
-0.27049
-0.0113449
0.00133785
0.132773
-0.201694
-0.0364533
0.0264617
0.155021
-0.0266468
0.331114
-0.338115
0.35891
0.0291145
-0.0499089
0.442095
0.0172724
-0.049267
0.359992
0.0244498
-0.0502359
-0.435464
0.367277
-0.0535624
0.179263
-0.045433
-0.222293
0.336482
-0.39248
0.402634
-0.161331
-0.00941295
-0.013081
-0.363606
0.3861
0.0500447
-0.055215
0.167416
0.0547593
0.0255648
-0.211823
-0.256627
0.0920453
-0.10979
0.274371
0.256694
-0.419951
0.0158938
-0.037551
-0.0134534
0.237407
-0.257736
-0.2523
0.272628
-0.242121
-0.157193
0.11479
-0.344065
0.356987
0.0394531
-0.0523749
-0.381487
0.421884
-0.0498102
-0.317937
0.325567
-0.0560564
-0.345513
-0.0556514
-0.355943
0.360481
0.0457334
-0.0502712
0.316388
-0.318791
0.0577743
-0.0553712
-0.577187
0.466185
0.160351
-0.0493481
-0.384412
0.401971
0.0317729
-0.0493324
-0.535055
-0.0638403
0.649955
-0.0510593
0.47646
0.169063
-0.593428
-0.0520949
0.475515
-0.453494
0.0312306
-0.0532513
0.504757
-0.491605
0.0407006
-0.053852
0.0601122
-0.391844
-0.0104144
0.00815887
0.316807
0.203751
0.236197
-0.268968
0.214878
0.160003
-0.14766
0.33944
-0.230658
0.366801
-0.246965
-0.0241718
-0.288474
0.0591343
0.105665
-0.10799
-0.360696
0.0552415
-0.0504886
-0.0556997
0.0290379
-0.0500437
0.078894
0.449874
-0.0523083
0.0547132
-0.0525649
0.506685
0.0522096
-0.0541378
-0.332719
0.0430957
-0.0558894
0.043207
-0.0493182
-0.0534758
-0.324503
0.0603507
-0.0546394
-0.455644
-0.0720871
-0.0494561
0.0148959
-0.0508891
-0.124347
-0.380342
0.256946
-0.293354
-0.0447787
0.0544343
-0.162366
-0.0284426
-0.270147
0.287604
-0.161114
0.0214923
0.173772
-0.390188
0.273945
-0.235284
0.228078
0.216642
-0.187729
0.00262353
0.000308085
0.00175209
-0.107046
0.102033
-0.23868
-0.161534
-0.00783035
0.0168577
0.141601
0.299874
0.223073
-0.0439802
-0.34212
0.0530457
-0.278541
-0.0415883
0.0585984
-0.0478028
0.039695
-0.0504905
-0.000377502
0.00491569
-0.266121
0.224877
-0.458319
0.132416
-0.0298832
-0.00168347
0.194194
0.0543479
-0.0474339
0.436774
0.0515173
-0.0527989
0.525223
-0.0324248
-0.0653481
-0.42745
0.0591135
-0.0495015
0.235333
-0.349423
0.0834145
-0.335193
0.00965679
0.0265253
0.0371012
0.260416
-0.274426
0.19162
-0.0489521
-0.299269
-0.106045
0.38317
-0.367631
-0.0793057
0.0850875
-0.00203578
-0.308863
0.0829616
0.0612229
-0.186339
-0.00414884
0.227759
-0.107123
-0.00283933
0.380762
-0.370848
0.184918
-0.103867
0.133827
-0.0110934
0.00332635
0.0405818
-0.0490755
0.075668
0.0255647
0.104895
-0.0499025
-0.422216
-0.0926688
0.281494
0.00975978
0.144767
-0.156906
0.0418983
-0.051363
-0.0439409
0.261046
0.302248
-0.202476
-0.279933
0.180161
0.166039
-0.0608227
0.348558
-0.146738
-0.242367
0.0710744
-0.292286
0.278376
0.19139
0.15314
-0.0850891