/*--------------------------------*- C++ -*----------------------------------*\
  =========                 |
  \\      /  F ield         | OpenFOAM: The Open Source CFD Toolbox
   \\    /   O peration     | Website:  https://openfoam.org
    \\  /    A nd           | Version:  10
     \\/     M anipulation  |
\*---------------------------------------------------------------------------*/
FoamFile
{
    format      ascii;
    class       volVectorField;
    location    "1100";
    object      U;
}
// * * * * * * * * * * * * * * * * * * * * * * * * * * * * * * * * * * * * * //

dimensions      [0 1 -1 0 0 0 0];

internalField   nonuniform List<vector> 
23845
(
(0.711361 -0.106728 1.1865e-20)
(0.474447 0.09657 -5.22035e-21)
(0.239019 -0.011466 2.75088e-20)
(-0.13643 0.0167818 7.30166e-22)
(0.0751587 0.0583276 5.40904e-21)
(0.810088 -0.00716009 -2.52398e-24)
(0.915975 -0.0284867 -1.28754e-20)
(-0.0755951 0.066453 -2.67574e-22)
(0.934867 -0.00776091 6.24297e-24)
(0.852366 0.096364 -5.84976e-21)
(0.447675 -0.0478542 -5.50594e-21)
(0.750242 -0.00082283 3.9531e-24)
(0.927345 0.0154004 1.65859e-23)
(0.890178 -0.00839266 1.54818e-24)
(0.713516 0.0336464 -2.16569e-20)
(0.933718 0.0732385 -1.04285e-21)
(0.808248 0.0205136 1.66584e-23)
(0.599044 -0.0161871 -8.22465e-24)
(0.94844 -0.0257189 -1.86137e-22)
(0.775064 0.00836658 2.77576e-22)
(0.888608 0.0977179 1.9179e-20)
(0.400389 -0.0361828 -9.82601e-21)
(1.05627 -0.0515056 -3.20409e-21)
(0.941354 -0.00820146 6.92455e-24)
(0.759573 0.0870203 -1.02288e-21)
(0.992861 0.0072113 -1.08348e-23)
(0.937093 0.0519497 1.07075e-20)
(0.80486 -0.00869499 4.33241e-22)
(-0.0526818 -0.117515 7.83256e-21)
(0.80083 0.00952352 -1.6791e-22)
(-0.148767 -0.00883831 3.23221e-20)
(-0.0310734 0.0859307 4.18474e-22)
(0.414733 -0.0195808 1.01245e-20)
(0.648463 -0.0216845 -7.10248e-24)
(0.747076 0.00056387 -1.56496e-23)
(0.740275 0.00421438 2.23377e-22)
(-0.0436813 0.116763 -7.18568e-21)
(0.749084 -0.000805966 -4.01775e-24)
(0.777667 -0.00416854 -1.82482e-23)
(0.91904 0.00906449 8.49627e-24)
(0.976864 -0.0320439 1.39478e-22)
(0.735053 -0.0159496 3.59995e-22)
(0.948821 -0.0137503 -1.86703e-22)
(0.682002 0.0133577 -1.89527e-22)
(1.01124 -0.00728447 -4.61685e-23)
(0.884885 0.0161143 6.09623e-23)
(-0.0706808 -0.024964 -1.85765e-21)
(0.891651 -0.0703482 -4.67588e-21)
(-0.0235443 0.00964561 1.56949e-21)
(-0.0595621 -0.115548 3.44581e-21)
(-0.0491181 -0.044099 7.18851e-22)
(0.154631 -0.0149199 -4.02401e-21)
(-0.0220222 -0.0406874 -3.66153e-21)
(0.857445 -0.00901593 -1.58507e-22)
(-0.034266 0.0957879 7.63022e-21)
(0.865546 0.0205828 1.89037e-23)
(0.210005 0.0702327 2.71992e-20)
(-0.0907271 -0.0367138 1.88096e-20)
(0.782018 0.104046 -3.72499e-20)
(0.00971158 0.0258218 -1.73796e-20)
(-0.0429157 0.10292 2.55803e-21)
(0.695699 0.0151353 6.62094e-23)
(0.922146 0.062436 -1.15756e-21)
(-0.0377686 -0.0966511 3.36457e-21)
(0.960788 -0.0083071 5.01777e-25)
(0.90942 0.0148876 -1.0432e-22)
(0.978135 0.0343723 1.10229e-20)
(1.01973 0.00673017 9.4154e-23)
(1.01804 -0.00724853 -1.79445e-22)
(0.93766 -0.0328245 5.82273e-23)
(-0.0606106 0.0873981 2.72998e-22)
(0.146111 0.00593701 1.67828e-20)
(0.983565 0.00948103 9.20412e-24)
(0.794888 0.0313904 1.24765e-20)
(0.981068 -0.00804515 -2.82637e-22)
(0.656548 0.0324727 -7.78165e-23)
(0.755621 -0.00194634 -5.38469e-24)
(0.774744 -0.00455266 2.33075e-23)
(-0.118687 -0.0226123 3.83078e-21)
(0.787576 0.0304074 2.80457e-24)
(0.967598 0.0693487 -2.58757e-21)
(0.680263 -0.0382494 -3.80698e-20)
(0.324383 0.08502 -4.59329e-21)
(-0.0851177 -0.0533244 -7.94575e-22)
(0.24242 -0.00287762 -7.89899e-21)
(0.748419 0.00178468 -3.71469e-23)
(0.608169 0.0579252 1.45131e-20)
(-0.0176595 -0.0134199 1.70713e-20)
(0.961026 -0.00777899 9.47563e-23)
(0.854439 0.0295656 -1.25925e-22)
(-0.047787 -0.0816077 -1.27131e-20)
(0.972023 0.0413438 -6.54095e-22)
(-0.0482572 -0.106223 1.13548e-20)
(0.749458 -0.00495377 -1.76001e-22)
(-0.0877602 -0.0249065 2.81838e-21)
(-0.0535433 -0.0918664 -3.56356e-20)
(0.844131 -0.0197372 2.31882e-23)
(0.873051 -0.0729112 -3.63323e-22)
(0.97979 -0.00799881 2.11682e-23)
(-0.0112153 0.0379557 -8.22556e-21)
(0.849244 -0.0234979 6.38313e-23)
(0.974509 0.0308901 3.77786e-21)
(0.405254 -0.0980369 1.50381e-20)
(-0.0689583 -0.087736 -1.59389e-20)
(-0.0541714 -0.0939566 -2.96587e-20)
(-0.0934673 -0.0452698 5.24142e-21)
(0.829991 -0.0081025 9.72052e-24)
(0.993004 -0.00796501 1.64912e-22)
(1.03477 0.0258585 -1.70237e-21)
(0.710223 0.0139467 1.94492e-22)
(0.496031 -0.0437102 -1.62277e-21)
(0.754102 -0.0021467 -8.06503e-24)
(0.357062 0.0116841 1.61002e-20)
(0.846125 -0.0886934 -2.22042e-21)
(0.744056 0.00476231 -1.11018e-22)
(0.954181 -0.0887582 -2.74102e-21)
(0.978044 -0.00769829 -1.25863e-22)
(0.939681 0.0831578 -5.93387e-21)
(-0.0525071 -0.118993 5.75388e-21)
(-0.0224529 0.0841228 -1.59232e-20)
(0.767077 -0.00350643 -2.49721e-23)
(-0.039442 -0.0935303 -1.97615e-21)
(0.938017 0.0324205 6.59666e-23)
(0.0225042 0.0438678 3.50362e-20)
(0.958665 0.0295212 -3.65325e-21)
(0.987594 0.00761176 -1.7522e-23)
(-0.0458792 0.0994724 2.15372e-21)
(-0.0606383 -0.110954 -1.3017e-20)
(0.124806 0.0228079 1.05763e-21)
(-0.0585626 -0.0339338 1.26836e-20)
(0.128652 0.027601 1.85979e-20)
(0.469759 0.0847567 5.97747e-22)
(0.316404 -0.0511302 2.71753e-22)
(0.858154 -0.0080507 1.59159e-24)
(0.824695 -0.028966 3.18451e-23)
(0.57261 -0.106958 4.34919e-21)
(-0.0658885 0.0939718 3.33379e-20)
(0.751582 -0.000969455 1.05807e-23)
(1.02621 -0.0300805 6.46333e-23)
(0.782536 -0.0049328 1.73813e-23)
(-0.0550952 -0.123774 -1.57433e-20)
(0.726081 -0.0138976 -1.18746e-22)
(0.766796 0.0052895 5.17998e-23)
(0.658397 0.0127435 3.5006e-22)
(0.928252 -0.0541639 -2.39735e-21)
(0.69856 0.0120874 -2.14599e-22)
(0.95348 -0.0876537 -3.17721e-22)
(0.387577 0.0216293 4.29879e-20)
(0.00875914 0.0734516 -1.30114e-20)
(0.867421 0.0394806 2.25337e-22)
(0.436892 0.0173091 -1.68871e-20)
(0.951291 0.0107969 -2.94202e-23)
(0.443234 -0.0644009 1.55144e-20)
(0.904585 -0.0111169 9.18047e-23)
(0.319684 -0.00521673 -5.85082e-21)
(0.728086 0.0505832 -8.71126e-22)
(0.232229 -0.0831957 -5.20268e-21)
(0.750377 -0.00305904 -7.90247e-23)
(0.154528 0.0207095 1.30071e-21)
(-0.0537699 -0.107235 3.75276e-21)
(0.926647 0.0408748 2.95944e-22)
(0.65854 -0.0309081 -1.81937e-21)
(-0.0829994 0.0124692 -1.03266e-21)
(0.953081 -0.0079879 1.70251e-23)
(0.993705 -0.0156918 -2.04041e-23)
(0.788602 0.0391243 1.85304e-22)
(0.828457 -0.00733724 -2.70398e-23)
(-0.0447876 0.101147 -5.67061e-21)
(0.796615 -0.00829155 -3.34706e-23)
(0.696262 -0.0112889 2.69148e-22)
(0.841409 0.00817424 2.4275e-23)
(-0.117925 0.021557 5.22264e-21)
(0.947318 -0.00867372 1.41536e-23)
(-0.0119032 0.0455021 -7.38895e-21)
(0.958266 0.00853281 2.84724e-22)
(-0.106847 -0.00157459 -4.48949e-21)
(0.975349 0.0494341 6.39504e-22)
(0.671669 0.0610097 1.55009e-21)
(0.993477 -0.00722378 -1.07475e-23)
(0.754973 -0.00338287 2.7797e-23)
(0.00649626 -0.0414878 6.94541e-21)
(-0.0418518 -0.0248106 8.34028e-22)
(0.760901 0.0348155 1.10173e-20)
(0.482082 -0.035912 -6.68752e-22)
(0.925025 -0.0629144 -3.0823e-21)
(0.916537 0.0200962 1.10238e-23)
(0.724235 0.0155099 -7.30124e-23)
(-0.0774864 -0.0605119 2.75657e-21)
(-0.0552998 0.117338 1.84817e-21)
(0.762532 -0.0164836 -4.74152e-23)
(-0.0467564 0.102174 2.95081e-20)
(0.888303 -0.00826115 2.58905e-23)
(0.894128 0.008648 8.64082e-24)
(0.846217 0.00838167 -1.64943e-23)
(0.936161 0.0502848 -8.64034e-22)
(0.909141 -0.00830016 -7.01614e-23)
(-0.0648718 -0.0926971 -2.74368e-21)
(-0.0557129 0.108419 1.9482e-21)
(-0.0789187 -0.0703834 -1.00758e-20)
(0.562815 -0.0519449 2.61706e-22)
(0.700324 0.0379731 -8.09562e-23)
(0.897581 -0.00917243 -3.21895e-22)
(0.0022995 0.0746252 -6.86497e-21)
(0.349133 0.0681626 1.21399e-21)
(-0.0819998 0.0589457 1.16496e-20)
(-0.0838616 0.0261088 7.35602e-22)
(0.216614 0.00180781 -3.83999e-20)
(0.804803 -0.00605982 -1.59263e-23)
(0.737335 -0.0902464 -1.14668e-20)
(0.610048 0.0199828 -1.79732e-22)
(0.719076 0.0285863 -6.04261e-23)
(-0.0483529 0.114447 1.06493e-20)
(0.976077 -0.0578805 9.7221e-23)
(0.828605 -0.0106305 4.52083e-23)
(-0.0342311 -0.0361262 2.51804e-21)
(-0.0395719 -0.106886 -6.01264e-21)
(0.247176 0.0479933 -3.7717e-21)
(0.701302 0.0163312 -5.78766e-23)
(-0.0525267 0.118281 1.56699e-20)
(0.148654 0.0272698 -1.87759e-22)
(0.978846 -0.010401 -2.8851e-23)
(0.72951 0.0329001 -6.51687e-21)
(-0.0668564 0.0907824 -2.08413e-20)
(0.815061 0.0514208 -1.03893e-21)
(0.670921 0.0105598 -1.13569e-22)
(0.456916 -0.0208908 2.1492e-20)
(-0.0594174 -0.112389 -7.50588e-21)
(0.885955 -0.00811942 5.96443e-23)
(0.809428 0.00808658 4.04146e-24)
(0.976465 0.0322754 5.61603e-22)
(0.76985 -0.00536229 1.22629e-22)
(-0.0282311 -0.00638307 -9.52021e-21)
(0.753498 -0.00222675 6.4707e-24)
(1.01463 0.00662373 -2.47314e-23)
(0.116529 0.0633208 8.45461e-21)
(-0.049777 -0.112571 -1.06594e-20)
(0.967285 -0.00865889 6.57811e-23)
(-0.153534 0.00799758 8.83214e-21)
(0.955344 0.00834039 9.67872e-23)
(-0.0796864 -0.0263875 2.20614e-20)
(-0.0222138 0.0248344 8.75467e-21)
(0.940864 -0.0867783 6.65068e-21)
(-0.0969422 -0.0431076 -1.28733e-20)
(0.122788 0.0660048 -1.40188e-20)
(-0.0424675 0.0921166 3.1629e-21)
(0.912868 0.0651203 -2.45136e-22)
(0.838444 -0.00808486 4.9222e-25)
(1.01823 -0.00665011 2.8777e-22)
(-0.09628 0.0113786 2.12533e-21)
(0.608327 -0.0300813 5.23349e-21)
(0.852764 -0.0149962 -4.1855e-23)
(0.747472 0.00276562 -1.06662e-23)
(-0.0511323 0.0538833 -4.41581e-21)
(0.965424 0.0146276 -2.46445e-25)
(0.787848 -0.0295048 -8.02248e-21)
(-0.050786 0.0872459 2.18704e-21)
(-0.00497068 0.0734408 4.23083e-20)
(-0.061504 0.0614209 7.54928e-22)
(0.743161 -0.00468615 1.90762e-23)
(0.932645 -0.00872995 -1.17461e-22)
(-0.0134796 0.000553756 -2.1178e-20)
(0.743524 -0.00213166 -2.2211e-23)
(-0.0501283 0.0952282 -3.48575e-21)
(0.54401 -0.0455315 1.95688e-21)
(0.636523 0.0461929 -2.68007e-23)
(0.944258 0.00796552 -2.56638e-23)
(-0.116103 -0.00448756 -3.11663e-21)
(0.0556585 0.0449606 -1.41917e-21)
(-0.140331 -0.00146225 5.53894e-21)
(-0.14771 0.00970274 -1.55848e-20)
(0.76727 -0.00387069 9.74673e-24)
(-0.114206 0.0270905 -3.12035e-21)
(-0.0437767 -0.0145268 -5.12148e-22)
(0.881573 0.00882561 -7.25759e-23)
(0.436931 -0.0319348 -1.12675e-21)
(0.901577 0.00885818 1.05802e-23)
(-0.05894 -0.0690877 6.94775e-21)
(0.876935 -0.00807327 -3.13347e-23)
(-0.0654267 -0.0720344 3.71739e-21)
(1.05836 0.0550428 1.83219e-20)
(-0.0837128 -0.0474253 1.89384e-20)
(0.813971 0.00817841 -1.87653e-23)
(-0.0603546 -0.0340566 1.01433e-20)
(0.876744 -0.0489982 6.17947e-23)
(0.744472 0.000142922 -1.5924e-23)
(-0.0206526 -0.0880994 -1.29594e-20)
(-0.0266348 0.0355112 -3.9619e-21)
(0.911897 -0.00811561 -3.94406e-23)
(-0.0850322 0.0381427 -3.90085e-22)
(0.426601 -0.0192794 1.00517e-20)
(-0.108475 0.0101467 2.57416e-21)
(-0.0363636 0.0295789 -1.06266e-20)
(-0.0352444 -0.0981475 2.6099e-20)
(-0.0603434 0.0724899 -5.24125e-21)
(-0.0962888 0.0235361 3.37843e-22)
(0.747959 -0.00103376 -6.00521e-24)
(-0.0115348 0.0829758 1.67657e-20)
(0.853154 -0.00847916 -9.06934e-23)
(0.746961 0.00157375 -5.41081e-24)
(-0.0527626 -0.117716 -6.93688e-21)
(0.143993 0.0170254 3.13773e-20)
(0.456275 -0.0178568 1.49816e-20)
(-0.0474736 -0.111365 1.91736e-20)
(-0.155893 -0.00100962 8.13328e-20)
(0.860447 0.00843148 2.53503e-23)
(-0.16068 0.00186548 -4.73329e-20)
(-0.0396286 -0.0926675 -1.30653e-20)
(-0.046006 -0.0290202 -3.16825e-21)
(0.858654 -0.0227094 1.90665e-24)
(-0.0647151 0.0977721 4.49917e-21)
(-0.0415059 0.000191846 -1.28508e-20)
(0.325078 -0.060361 3.17846e-20)
(0.918735 -0.0208223 1.27501e-23)
(0.837304 0.00832481 9.31439e-23)
(0.0525459 0.0014434 3.0985e-20)
(-0.0564148 -0.122087 1.45716e-20)
(-0.017299 -0.0856493 1.80633e-21)
(0.321272 0.0501115 -1.43153e-20)
(-0.0513269 0.0956328 5.64659e-21)
(0.975006 -0.0114362 1.5873e-23)
(-0.0556755 0.0876704 8.81999e-21)
(-0.0466957 0.108566 -8.10977e-21)
(0.0218428 0.0639204 -2.30442e-20)
(0.813672 -0.00913978 -1.63891e-22)
(0.532359 -0.0279994 -1.24977e-20)
(0.800165 0.00724083 -1.83903e-23)
(-0.136376 -0.00760547 -1.94817e-20)
(-0.0782939 -0.0261887 1.16358e-20)
(-0.00223558 -0.0705833 -6.13657e-22)
(0.569854 0.0159929 4.38847e-22)
(0.339668 -0.0295387 5.23385e-20)
(0.818928 -0.0467001 -1.78467e-22)
(-0.0497887 -0.0670251 9.68858e-21)
(0.738481 -0.000317683 1.88145e-23)
(-0.00068707 -0.0750319 -4.68076e-21)
(-0.13982 0.0132445 -2.27424e-21)
(-0.0717423 -0.0149743 -1.20979e-20)
(0.587997 0.0137335 -2.2377e-22)
(0.722152 0.0111072 2.39776e-22)
(-0.123043 -0.00959704 1.07897e-20)
(-0.0895955 0.0233979 -1.32936e-21)
(0.015026 0.0699042 -1.32838e-20)
(0.449476 -0.0403062 6.7502e-21)
(1.01254 0.00731495 -4.35311e-23)
(1.01323 -0.00721966 2.09894e-23)
(-0.0698727 0.0672116 -4.85113e-21)
(0.740393 0.00189354 -3.9877e-23)
(-0.0556103 -0.0812071 6.07916e-21)
(-0.128018 -0.0148203 9.21331e-21)
(0.36583 -0.0157973 -4.1869e-21)
(-0.0964924 -0.0114355 1.64436e-20)
(0.121885 -0.0298769 -6.98608e-21)
(-0.0618706 0.109541 2.06677e-20)
(-0.0561099 -0.0534557 -1.08183e-20)
(-0.0210395 0.0418673 2.16241e-20)
(0.892335 0.00860476 5.41984e-23)
(0.685332 -0.00960023 -2.167e-23)
(0.9698 0.00904368 -3.0637e-23)
(0.476506 0.0261548 -7.53016e-21)
(-0.0965857 -0.0393053 3.61568e-21)
(0.0663155 0.0358285 -1.22629e-20)
(0.965947 0.0075547 -4.43882e-23)
(0.94729 -0.0887154 -7.10056e-21)
(0.886507 -0.0438127 -8.92657e-22)
(-0.0538811 0.119003 1.07099e-20)
(0.838584 -0.00764336 1.76321e-24)
(0.0252048 -0.0569905 -3.13147e-21)
(0.760045 -0.00652445 7.18235e-23)
(-0.0526595 -0.119282 6.74504e-21)
(0.992691 0.0081128 3.32344e-23)
(0.701483 -0.0127049 -4.77955e-23)
(-0.0469827 -0.0932114 1.91714e-20)
(-0.0306523 0.0668089 -1.38308e-20)
(0.751186 0.0020706 8.48774e-24)
(0.754476 -0.00408837 4.58365e-23)
(-0.0517686 0.0773751 -3.47742e-21)
(0.049247 -0.00795479 -2.20446e-20)
(-0.117787 0.0163012 -3.68493e-21)
(0.718219 -0.0127771 -1.19323e-22)
(-0.085789 0.0362522 6.90799e-21)
(0.651716 -0.0361665 -1.22488e-20)
(0.742807 -0.00255546 -1.1402e-23)
(1.02613 -0.0641703 1.50928e-20)
(1.01564 -0.00718979 3.69569e-23)
(1.01417 0.00699273 -1.03433e-24)
(0.760977 -0.00316502 -1.2568e-23)
(0.785925 -0.00597895 -2.35025e-22)
(-0.116231 -0.0174011 -6.38605e-21)
(0.613998 0.031167 -2.19909e-23)
(-0.0978876 -0.0255251 -1.3516e-20)
(0.941439 -0.0397354 -2.7259e-21)
(0.688929 0.0109424 7.47396e-23)
(-0.0361374 -0.0839781 3.08759e-20)
(-0.0528854 -0.0852015 7.57981e-21)
(-0.0386343 0.0149308 9.52462e-21)
(-0.0533502 0.113196 6.66805e-21)
(0.551018 0.0395508 -9.04013e-22)
(0.999965 -0.00758839 -8.87766e-24)
(0.933112 -0.0336364 -2.72603e-22)
(0.736734 -0.000627394 6.55924e-23)
(-0.0253859 -0.00904415 -1.80488e-20)
(-0.159911 0.000628389 4.84194e-20)
(-0.074431 0.0446853 2.66043e-22)
(-0.0532469 0.021642 -7.73439e-21)
(0.123081 0.0480003 1.9532e-20)
(0.692187 0.0365925 1.16335e-20)
(0.800029 -0.00587532 1.70201e-24)
(-0.0351449 0.0770499 1.96669e-20)
(-0.0539482 -0.101373 9.82178e-22)
(-0.0297734 0.0812195 -1.62297e-20)
(0.548528 -0.0232379 -1.05004e-20)
(1.01597 0.00633726 2.3408e-23)
(0.852699 0.0311339 9.82942e-21)
(0.0279304 -0.0641656 1.14759e-20)
(0.331359 0.093646 -1.55038e-20)
(0.0792971 -0.00300329 -1.64226e-20)
(-0.136009 -0.00489487 1.74867e-20)
(0.438304 -0.0266256 -4.50703e-22)
(0.784766 0.006435 5.82895e-23)
(0.960519 0.0918029 1.38463e-21)
(0.141098 -0.00816513 6.93045e-21)
(0.745482 0.0102144 8.54629e-23)
(0.923171 -0.00803256 5.7122e-24)
(-0.130095 -0.00189239 6.22827e-21)
(-0.0462434 0.0870488 6.58538e-21)
(0.650721 0.100671 5.97367e-20)
(0.109345 0.0132769 -6.41557e-21)
(-0.138104 -0.00700173 1.45955e-20)
(0.0107131 0.0329346 1.16077e-20)
(0.0525081 0.0310221 -2.59094e-20)
(0.898083 -0.00818017 4.77152e-24)
(0.638595 0.0184256 4.19183e-23)
(0.0122423 -0.0701017 -2.52071e-20)
(0.560296 0.00727474 3.30458e-22)
(0.854018 0.0125747 5.26332e-23)
(0.987454 -0.00902615 6.559e-23)
(0.749088 0.00133053 3.21733e-23)
(0.917612 0.019396 -1.08437e-23)
(-0.0463605 -0.110166 4.31586e-21)
(-0.0219124 0.0266847 4.20953e-21)
(0.572459 0.030408 -4.94691e-22)
(0.0512749 -0.0225259 -1.56129e-20)
(-0.0564667 0.0966506 -2.12432e-20)
(0.114663 0.030005 -5.014e-21)
(-0.149427 -0.0028145 -8.2758e-21)
(-0.0174377 -0.083967 -6.69909e-21)
(0.787797 -0.00911856 3.43173e-22)
(-0.162814 0.00383268 -2.32637e-20)
(0.778963 0.00639674 -3.63932e-23)
(-0.0915547 0.0306798 -6.04855e-21)
(-0.122004 0.00248604 3.0452e-21)
(0.944415 -0.0107952 -5.64466e-23)
(0.0218582 0.0355204 -1.60903e-20)
(0.742489 0.00306842 -2.25784e-22)
(1.00983 0.00676545 -1.17973e-22)
(0.0131523 -0.069357 -1.63586e-21)
(0.00325356 0.0301015 4.93805e-21)
(0.343196 0.0691655 2.30775e-21)
(-0.0681771 0.0635109 1.29985e-20)
(0.872916 -0.00915905 1.92065e-22)
(0.774265 -0.0896119 -6.70364e-21)
(-0.1484 0.00441268 -5.26241e-20)
(-0.0626561 -0.102288 2.27086e-20)
(-0.038807 -0.0284832 -7.24769e-21)
(0.778472 0.00646135 5.94969e-23)
(0.786658 -0.00561112 -1.56349e-23)
(0.83557 0.00864046 3.23371e-23)
(-0.0313658 -0.0211982 3.50752e-21)
(1.0112 0.00757836 -1.5694e-23)
(0.33867 -0.0108723 -4.05575e-21)
(0.808957 0.00852568 -4.49958e-23)
(0.818035 -0.00682657 -1.30081e-23)
(-0.168319 -0.00106556 -3.85464e-21)
(-0.0393977 0.090769 7.90209e-21)
(-0.0319574 0.090853 -2.22777e-20)
(0.101946 -0.0611576 7.38006e-21)
(0.95795 -0.00992745 -5.13384e-23)
(-0.0411505 0.081027 -6.17749e-21)
(0.842054 -0.0092044 -2.79444e-22)
(0.887547 0.0336436 9.77468e-23)
(-0.135468 0.00966506 2.23594e-21)
(-0.162454 -3.22902e-05 -2.10708e-20)
(-0.162971 0.0027843 -8.42956e-21)
(0.38282 0.0306782 -3.10148e-21)
(0.561638 0.027577 -8.85825e-24)
(0.530992 0.0336893 -1.07796e-20)
(0.760921 -0.00341992 2.2064e-23)
(0.754624 0.003458 -2.52586e-23)
(0.276499 0.0238214 -3.6955e-21)
(0.0217418 0.0615167 -9.64091e-21)
(0.989756 0.00798926 -1.80777e-23)
(0.16316 -0.0132339 2.27748e-20)
(-0.0557064 0.0877514 6.9487e-21)
(-0.156477 0.00350115 -1.67009e-20)
(-0.0721188 0.0656684 -7.48804e-21)
(-0.107388 0.0161297 6.77655e-20)
(0.984198 -0.00965337 -2.68861e-22)
(0.0716738 0.00642603 -7.41066e-21)
(0.973434 -0.00775092 5.21431e-24)
(0.748077 0.00343383 1.13591e-22)
(0.460425 -0.0543376 1.86647e-20)
(-0.0526078 0.124483 -1.3724e-20)
(0.0410071 0.0597752 2.10463e-21)
(-0.129721 0.00237361 -1.53188e-20)
(-0.0948071 0.0461753 1.20213e-20)
(-0.108 -0.034148 1.31089e-20)
(0.519776 -0.0382363 1.69509e-21)
(0.960502 0.0175562 3.45694e-23)
(0.770847 -0.00768907 -7.14329e-23)
(0.0306875 0.0621769 -2.37133e-20)
(-0.163821 -0.00254209 1.11431e-20)
(0.0550133 -0.0532351 -1.81754e-20)
(-0.0450709 -0.117455 3.09444e-20)
(-0.167976 0.000257358 1.04295e-20)
(0.870998 0.00889904 -4.84624e-23)
(1.00978 0.00770057 1.0562e-24)
(-0.165973 -0.00115128 4.78868e-21)
(0.316456 -0.00696035 -9.74683e-21)
(0.28449 -0.00104493 5.26587e-21)
(0.747188 0.0118265 1.75996e-22)
(-0.0333723 -0.100511 2.5834e-20)
(0.877434 -0.0097061 5.6227e-24)
(0.599649 0.0176113 -3.4895e-23)
(-0.0175898 -0.0800199 1.17003e-20)
(1.00757 0.00735789 -2.53246e-23)
(0.850046 -0.036924 5.72645e-21)
(0.745045 -0.033228 -5.93383e-21)
(-0.0303326 0.0948359 -2.47217e-20)
(0.980616 -0.0723699 1.19073e-22)
(-0.0528078 0.116953 -3.5813e-21)
(-0.0513649 -0.111296 1.02105e-21)
(0.210514 -0.00493518 -5.38259e-21)
(0.114876 -0.0485938 2.42442e-20)
(1.07418 0.0438807 -1.49478e-20)
(0.900098 0.0255862 3.45379e-24)
(0.95958 0.0182637 1.42282e-23)
(0.850667 -0.00948868 1.31776e-22)
(0.00268401 -0.0755282 1.81904e-20)
(-0.0750385 0.00199873 -8.56624e-20)
(-0.11929 -0.0265342 -1.58875e-20)
(0.249951 0.00307832 6.38929e-21)
(0.882273 -0.00900253 -9.46326e-23)
(1.05477 0.0616281 1.58039e-20)
(1.05147 -0.0585832 -2.62025e-21)
(0.933846 -0.0457586 7.21121e-23)
(1.04498 -0.0672309 -7.14913e-21)
(0.353682 0.0282201 1.03755e-21)
(0.936087 -0.0139063 4.42396e-22)
(0.824136 -0.00962205 8.01954e-23)
(0.926253 0.0125021 7.66646e-23)
(0.909221 -0.01132 5.39756e-23)
(0.74576 0.00027207 3.30108e-23)
(0.0197924 -0.0450434 -2.80571e-21)
(0.899885 -0.0129661 -1.80934e-22)
(-0.0860985 0.0519594 -4.25687e-21)
(0.507954 0.079497 -1.63944e-20)
(0.713446 -0.0107327 -6.15714e-22)
(0.0528173 0.0549286 -1.24155e-20)
(0.738597 0.00148883 -1.23104e-23)
(0.782666 0.00756851 -2.85689e-22)
(-0.0947336 -0.00113612 1.79433e-21)
(-0.134651 0.00560238 -2.17161e-21)
(0.0387406 -0.0385066 -9.84032e-21)
(0.770691 -0.00827454 2.42496e-23)
(0.707578 0.0128423 2.8716e-24)
(-0.0515344 -0.0769031 -5.39464e-23)
(-0.0484241 0.0967247 5.3589e-22)
(0.984023 0.00739606 6.4233e-23)
(-0.0487473 0.113115 -2.22933e-20)
(0.963763 0.015307 -1.4492e-23)
(1.00961 -0.00781143 3.86364e-23)
(0.814546 -0.04168 2.53656e-21)
(0.915707 0.021007 -6.4391e-24)
(0.827008 0.00827964 1.65036e-22)
(0.917622 -0.0778992 6.956e-21)
(0.0151318 -0.0377309 -1.76518e-21)
(0.00566817 -0.0578902 -4.56845e-20)
(0.209718 -0.0133194 8.4722e-21)
(-0.0651106 -0.0570606 8.41909e-21)
(-0.055008 0.019769 1.43067e-20)
(1.00703 -0.00839352 3.33946e-23)
(0.754504 -0.00207068 -9.30469e-25)
(0.929478 -0.048007 5.48908e-22)
(0.327979 0.0206973 8.59562e-21)
(-0.00940101 0.077699 1.10674e-20)
(0.669085 -0.00584806 3.31205e-22)
(0.985453 0.00925895 5.90021e-25)
(0.978954 -0.00942346 1.03259e-23)
(-0.0655672 -0.0422713 -1.17216e-20)
(0.976156 -0.0093329 3.22013e-22)
(1.08204 -0.0374964 -6.72885e-21)
(0.424845 0.0217701 1.20592e-21)
(0.653863 -0.100093 -4.0026e-21)
(0.468497 -0.029164 -8.50198e-22)
(-0.0586873 -0.0897722 -3.97028e-21)
(0.669715 -0.00718825 2.96288e-22)
(1.01045 -0.00713887 -6.1704e-23)
(0.871967 -0.00855135 2.99453e-22)
(0.60337 -0.0149564 3.41151e-23)
(0.759473 0.00385625 2.00885e-23)
(0.144484 -0.00994323 8.59142e-21)
(0.851166 -0.0118229 -1.83358e-22)
(-0.0237204 0.00627268 -3.60617e-21)
(0.599049 0.035098 -9.27661e-21)
(-0.0597943 0.0299816 -1.08168e-21)
(0.633608 0.0858211 -4.3017e-22)
(-0.0626736 0.0494269 -1.09113e-21)
(-0.0418176 0.0157053 -2.21793e-20)
(0.847447 -0.0322027 -1.93731e-21)
(0.743143 0.0494874 1.13104e-21)
(-0.132612 -0.00604662 7.55355e-20)
(0.382121 0.090397 -1.0361e-20)
(0.209105 -0.0663513 -1.86903e-20)
(0.0253978 0.0369706 -5.16602e-21)
(-0.00453181 0.0710132 3.0644e-20)
(0.594288 0.104425 2.45288e-20)
(0.118099 0.0228562 -2.51175e-20)
(0.258143 0.078069 1.87148e-20)
(0.808682 0.0108975 -1.86489e-22)
(0.86303 -0.010674 -3.09392e-23)
(-0.0211298 -0.0170903 2.22946e-20)
(-0.0549553 -0.101758 -2.95139e-21)
(-0.082749 -0.0140273 4.04401e-20)
(0.713081 0.0426296 1.11391e-23)
(0.210197 0.0780574 -3.17501e-20)
(0.48071 0.0121852 9.65295e-23)
(0.979913 -0.0283222 -3.70605e-23)
(0.612184 0.00711979 7.65918e-22)
(0.989491 -0.0187058 1.03468e-23)
(0.977864 -0.0717294 2.69235e-21)
(0.929162 0.0145609 3.33573e-23)
(0.899111 -0.0127178 -1.07593e-22)
(-0.140812 0.0131291 2.54279e-20)
(0.807289 -0.00906679 2.24489e-23)
(0.750053 0.00208748 5.73384e-23)
(0.401913 -0.0147459 3.07143e-20)
(0.484405 0.103231 6.96431e-21)
(0.929441 -0.0807868 2.38941e-21)
(1.00653 -0.00900994 2.44023e-23)
(0.488456 0.0284426 -4.32247e-22)
(0.0356634 -0.0504693 -5.5897e-21)
(0.6031 0.0272099 -3.40059e-22)
(0.766512 -0.00640646 -1.18567e-22)
(0.962139 0.0164392 -6.78865e-24)
(0.739749 -0.106571 -1.45036e-20)
(0.516997 0.0730281 2.02706e-21)
(0.837671 -0.098503 -4.46555e-21)
(0.967026 0.0139554 -5.73185e-24)
(0.641887 0.0827416 -3.54522e-23)
(0.177027 0.0151099 -1.88881e-21)
(0.730326 0.0031535 7.02156e-23)
(0.743347 0.00127008 -4.25251e-23)
(0.0804391 0.00663832 -8.54316e-21)
(-0.103824 -0.0369702 9.20032e-21)
(-0.0363655 -0.100425 -3.27509e-20)
(0.321626 -0.0187194 9.56609e-21)
(0.0459045 -0.0546496 -9.91731e-23)
(0.763851 0.0839157 9.85222e-22)
(-0.0142033 0.0707331 2.08014e-20)
(0.479217 0.0452798 -4.38428e-22)
(0.674399 0.0324223 -6.93332e-23)
(0.904391 0.0287595 1.27557e-22)
(0.710201 0.0266492 -1.23497e-23)
(0.265472 0.0915442 1.26365e-20)
(0.776672 -0.0270544 -8.74521e-26)
(1.00408 -0.00778276 -9.19199e-23)
(0.990685 -0.017732 -2.60081e-23)
(0.115434 0.0614729 1.7649e-20)
(-0.171069 0.000898203 3.11001e-20)
(0.544505 -0.0730296 -1.14299e-21)
(0.97914 -0.069832 -6.20725e-22)
(0.451025 0.0137071 -3.71066e-22)
(0.624413 -0.0530163 4.10266e-22)
(0.412309 0.0105853 -2.73203e-22)
(0.45596 0.00875889 4.79213e-22)
(0.188029 0.0132092 1.19871e-20)
(0.483848 0.00768928 -2.42191e-22)
(0.125084 0.0140072 1.69491e-20)
(0.668635 -0.0528603 1.22418e-21)
(0.772985 0.0280817 -6.28126e-23)
(0.577502 -0.0574918 -4.61566e-21)
(0.519418 0.00348144 -9.88341e-23)
(0.771719 0.0143251 3.61116e-22)
(0.543657 0.00561896 1.08662e-22)
(0.772612 0.0271487 6.73868e-24)
(0.501187 0.0791658 -4.72937e-21)
(0.868009 0.0191451 1.67857e-23)
(0.567093 0.0024785 -6.14404e-22)
(0.38701 0.0572584 -7.03606e-21)
(0.647563 0.0802518 1.41736e-21)
(0.595242 0.00543402 -6.08185e-22)
(0.789416 -0.0167801 7.0685e-23)
(0.422227 0.00461166 6.32834e-22)
(0.376897 0.000221625 3.17802e-22)
(0.332796 -0.00238623 5.43748e-22)
(0.269102 0.00650898 -5.73484e-21)
(0.212748 0.00983256 -6.95663e-21)
(0.463934 0.00238413 -3.24854e-22)
(0.142902 0.00165589 -1.42997e-20)
(0.490727 0.00211563 1.74863e-23)
(0.635959 -0.0577669 8.08331e-22)
(0.529 0.000261191 -9.24104e-24)
(0.700827 -0.0523293 -1.63144e-22)
(0.547847 0.00225813 7.93573e-23)
(0.658514 -0.0199245 -3.47909e-23)
(0.715297 -0.0247186 4.72827e-24)
(0.576559 0.00125948 -8.28692e-23)
(0.61081 0.00425233 -6.24837e-22)
(0.598338 0.00102883 2.85982e-22)
(0.955341 -0.0208265 -1.18497e-22)
(0.814384 0.0186598 -6.96429e-24)
(-0.163205 -0.000108104 -2.7064e-20)
(0.953513 -0.00898636 -6.03665e-23)
(0.817767 -0.0173997 -1.78265e-22)
(0.809169 0.0202013 8.18567e-23)
(0.613916 0.00103594 5.81702e-22)
(0.819403 -0.00784743 2.55706e-22)
(0.555258 -0.0398741 1.98506e-21)
(0.625288 0.00256901 2.29079e-23)
(0.39019 0.0154926 1.36149e-21)
(0.341663 0.0138303 4.19845e-22)
(0.508641 0.0120517 2.8415e-22)
(0.633731 -0.000858072 -2.90632e-22)
(0.812048 0.0180401 -2.98194e-24)
(0.734917 -0.00426311 -5.76254e-23)
(0.837371 -0.0688814 -1.49672e-21)
(0.858473 -0.0546338 -9.0429e-22)
(0.0800225 -0.019979 3.11399e-20)
(0.943669 -0.0117036 -1.8392e-22)
(0.429993 -0.0181711 -3.17627e-22)
(0.650101 0.000578832 -2.64404e-22)
(0.608158 -0.0140335 -4.94802e-23)
(0.75265 -0.00625275 -1.88506e-22)
(0.818842 0.0177119 2.34659e-23)
(0.268003 0.0319168 -1.05321e-22)
(0.654018 0.019351 -4.85862e-22)
(0.00370041 0.00386663 -4.77876e-21)
(0.642341 0.00589539 1.13713e-22)
(0.898096 -0.00880482 -7.18495e-23)
(0.832116 0.0119608 7.13909e-23)
(1.00128 -0.00726522 -1.33327e-22)
(0.661934 0.00175848 -6.44723e-23)
(0.698059 0.0358448 1.05697e-22)
(-0.0542196 0.0831662 -1.53794e-20)
(0.975856 -0.00888637 1.88253e-22)
(0.659034 0.00597961 -5.47738e-24)
(0.107816 -0.00501253 8.91561e-21)
(0.664679 0.00111025 3.5444e-22)
(0.814519 0.0120005 -1.76218e-23)
(0.782065 0.00990416 1.36122e-22)
(0.387895 -0.0251703 -4.05488e-20)
(0.787119 0.0125589 9.76766e-23)
(1.01548 -0.00706536 -3.64971e-23)
(0.513402 0.0758026 2.46735e-21)
(0.812351 0.0189807 -3.59664e-23)
(0.0133099 0.0580096 4.77448e-21)
(0.653904 -0.0646224 -3.89319e-21)
(0.694148 -0.0562407 -3.95844e-21)
(0.242201 0.0110104 -3.72072e-21)
(0.294731 0.00395033 -6.62668e-21)
(0.166189 -0.0179858 3.5366e-20)
(0.760541 0.0147459 -2.12914e-22)
(0.475895 -0.0016921 7.40257e-22)
(0.490303 0.0267921 -2.69042e-22)
(0.405418 0.0313653 2.09917e-21)
(0.502421 -0.000355524 2.30012e-22)
(0.844161 0.0465189 -3.92225e-22)
(0.557727 0.000830376 2.06747e-22)
(0.346102 0.0895449 -3.5604e-20)
(0.584379 0.00443362 3.36998e-23)
(0.679983 0.000899602 1.56771e-22)
(0.222599 -0.00177655 -5.21221e-21)
(0.278809 -0.00674759 3.22425e-21)
(0.308462 0.0455134 8.72788e-21)
(-0.104124 -0.0163682 -1.69638e-20)
(0.729282 -0.0503296 1.97526e-21)
(0.80567 0.0120236 4.90593e-23)
(0.223552 0.0782285 1.78524e-20)
(0.695877 0.0568202 -6.56236e-22)
(0.715046 0.0238654 -2.84197e-22)
(0.605809 -0.00141503 6.01627e-23)
(0.552656 -0.002534 -9.68601e-24)
(-0.0450136 0.0456379 3.32927e-21)
(0.901281 0.00913566 3.20488e-23)
(0.656121 -0.046294 -1.37372e-21)
(0.67569 0.00411008 8.42478e-23)
(0.92029 0.0172323 -7.65863e-24)
(0.650662 0.0113002 -3.18563e-22)
(0.679041 0.00621075 -2.22638e-22)
(0.677196 0.00245689 -3.0224e-22)
(0.621616 -0.0020625 -5.95385e-22)
(0.830114 -0.0184957 -2.60269e-23)
(0.719821 -0.0234923 3.68304e-23)
(0.747842 -0.0141507 1.3155e-22)
(0.656145 0.0019044 2.13593e-22)
(0.822161 -0.0166813 -1.14057e-22)
(0.00516286 0.0460999 1.73238e-20)
(0.544973 0.0167559 7.54717e-23)
(0.803532 -0.010704 -3.10115e-22)
(0.617128 0.0141617 1.79429e-22)
(0.636605 0.0108145 3.98906e-22)
(0.852246 -0.0172089 1.22783e-22)
(0.167519 -0.0281152 -1.53187e-20)
(0.675847 0.044575 2.38116e-22)
(0.586404 0.0535136 -4.95289e-22)
(0.742965 0.0356218 1.34956e-22)
(0.759145 0.0153878 2.7313e-22)
(0.819529 0.0126113 -3.32979e-22)
(0.810057 0.0177179 1.59902e-23)
(0.774314 -0.0154825 -4.94989e-23)
(0.377699 -0.0938821 -5.59509e-21)
(0.737464 -0.0679918 8.35466e-21)
(0.279872 -0.0230454 -1.95895e-21)
(0.821087 -0.0330504 1.61018e-22)
(0.685305 0.00368756 1.85099e-22)
(0.510342 -0.0121129 1.6825e-22)
(-0.0435528 0.105054 8.78542e-21)
(0.647346 0.0451637 -4.24877e-22)
(0.977722 0.0306593 -2.56972e-22)
(0.973841 0.0469402 3.66019e-22)
(0.99716 0.0127108 3.75926e-24)
(0.991951 0.0163205 -3.17055e-23)
(0.9765 -0.0552341 -2.36852e-21)
(0.988303 -0.0196423 8.10434e-23)
(0.988534 0.0192087 1.3712e-25)
(1.00509 0.00995812 1.98607e-23)
(0.981641 -0.0268228 8.42208e-23)
(1.00104 0.011445 -3.75791e-23)
(0.993181 -0.0149461 -6.05748e-23)
(0.998792 0.0120787 2.72786e-23)
(0.999803 0.00950602 1.5265e-22)
(1.00744 0.00921574 -2.16115e-24)
(0.985133 0.0205015 -3.13196e-23)
(0.978671 -0.0302394 9.39763e-23)
(0.992328 -0.016789 -4.49615e-23)
(0.990343 0.0178437 -4.03971e-23)
(0.981769 -0.0666464 1.71664e-21)
(0.665176 0.00935739 1.37439e-22)
(0.630767 -0.00772885 1.36387e-22)
(0.112993 0.00643301 -2.54806e-20)
(0.184684 -0.0135309 -1.06937e-20)
(1.00641 -0.00794953 1.49621e-22)
(0.950741 0.00819958 5.05664e-23)
(0.728212 0.0125035 -8.85124e-22)
(0.681864 -0.0732941 1.12219e-21)
(0.348772 -0.000577497 1.81262e-22)
(0.571157 0.0551946 -3.34065e-22)
(0.39232 -0.00130449 -3.81454e-22)
(0.70399 0.0250934 -1.36113e-23)
(0.980273 0.0268035 -4.71842e-22)
(0.977569 0.0292526 -4.51909e-23)