/*--------------------------------*- C++ -*----------------------------------*\
  =========                 |
  \\      /  F ield         | OpenFOAM: The Open Source CFD Toolbox
   \\    /   O peration     | Website:  https://openfoam.org
    \\  /    A nd           | Version:  10
     \\/     M anipulation  |
\*---------------------------------------------------------------------------*/
FoamFile
{
    format      ascii;
    class       volScalarField;
    location    "350";
    object      epsilon;
}
// * * * * * * * * * * * * * * * * * * * * * * * * * * * * * * * * * * * * * //

dimensions      [0 2 -3 0 0 0 0];

internalField   nonuniform List<scalar> 
23845
(
0.0329281
0.0505505
0.0603569
0.0128709
0.0355399
0.00192568
0.069104
0.00940532
0.00250961
0.0239262
0.0165051
0.00160377
0.00351927
0.0022457
0.108552
0.0129637
0.00453832
0.00563695
0.00451815
0.00231765
0.0315455
0.01477
0.028429
0.00258949
0.0219608
0.00298703
0.049967
0.00217284
0.00926158
0.00238659
0.0144034
0.0204622
0.12777
0.00581422
0.00162434
0.00192082
0.0169898
0.00161984
0.00168262
0.00252188
0.00479468
0.00377729
0.00361352
0.00394941
0.00319146
0.00348392
0.0255535
0.0119239
0.019169
0.009713
0.0123454
0.0479291
0.0234099
0.00225025
0.019773
0.00439312
0.0491636
0.00968741
0.0371678
0.0343779
0.00963325
0.00422226
0.0109892
0.0133904
0.00273049
0.00335398
0.0552655
0.00327141
0.00327216
0.00517905
0.00917832
0.0456534
0.00307917
0.0957702
0.00289597
0.105408
0.00160024
0.00170089
0.0101183
0.00685871
0.0389584
0.0824641
0.0517787
0.010046
0.0687115
0.00164681
0.0718598
0.024523
0.00269891
0.00631782
0.012034
0.00646167
0.0108267
0.00187147
0.00990005
0.0106362
0.00396484
0.0130901
0.00284739
0.0282389
0.00464277
0.0592822
0.0396115
0.0142235
0.0140847
0.0104405
0.00202931
0.00297813
0.0507582
0.00385095
0.0144644
0.00163199
0.0893255
0.0173937
0.00199624
0.0221153
0.00297225
0.0159319
0.0092322
0.0130535
0.0016593
0.0148396
0.00593095
0.0235643
0.0633666
0.00298227
0.00943008
0.00985772
0.0464979
0.028719
0.0694385
0.0297897
0.0203512
0.0020716
0.00569905
0.036778
0.0119588
0.0015899
0.045906
0.00171669
0.0101326
0.00354895
0.0017714
0.00426558
0.0080681
0.00361323
0.017641
0.0829603
0.0223365
0.0079414
0.121751
0.00312299
0.0600286
0.00288074
0.0858387
0.0124647
0.0381841
0.0017225
0.0903791
0.00977834
0.00733283
0.102447
0.010148
0.00265325
0.00390427
0.00902795
0.00191871
0.013346
0.00221264
0.00335436
0.002089
0.0142515
0.00265218
0.0188317
0.0027555
0.0097428
0.00747032
0.0165681
0.00296846
0.00170637
0.0283024
0.0251585
0.0922988
0.0127963
0.00990499
0.00416705
0.00404502
0.0099666
0.00925525
0.00371209
0.0120643
0.00228271
0.00239845
0.00218391
0.00845695
0.00243261
0.0131949
0.0101338
0.0255838
0.0152225
0.00961978
0.00247373
0.0188972
0.0260548
0.00973
0.00998854
0.0573852
0.00183211
0.0406195
0.00668219
0.00707945
0.0120964
0.00807648
0.00238429
0.0158237
0.0186519
0.0222592
0.00445048
0.0144242
0.0632753
0.00337643
0.101097
0.0131993
0.01117
0.00369984
0.117092
0.0117713
0.0022971
0.0020267
0.00533449
0.001816
0.0170766
0.00164946
0.00319856
0.0355984
0.00911753
0.00280309
0.0129248
0.00283532
0.0162163
0.0223182
0.0159283
0.00993127
0.0334526
0.0137801
0.0118679
0.00204734
0.00331369
0.00982226
0.101001
0.00327294
0.00173104
0.0120766
0.00352059
0.0868727
0.0115337
0.0166123
0.010647
0.00195407
0.0025807
0.0279931
0.00173366
0.00930742
0.0137527
0.0128703
0.00264938
0.0098123
0.0300044
0.0190331
0.0121246
0.00169177
0.0128687
0.0133777
0.00235813
0.0129725
0.00244682
0.0105625
0.00228202
0.0252344
0.0294589
0.0113145
0.0020665
0.0112525
0.00829067
0.00165596
0.0141205
0.019096
0.00260304
0.00979367
0.0911954
0.00974187
0.0153015
0.0123305
0.0104614
0.00975911
0.00163574
0.0192861
0.00215322
0.00166258
0.00961491
0.0964869
0.110148
0.00929133
0.0120151
0.00226931
0.0127837
0.0153048
0.0130061
0.00449377
0.011259
0.0137764
0.0563581
0.00412627
0.00209207
0.0333385
0.00983733
0.0165312
0.0221803
0.0113511
0.00347001
0.0166674
0.0127132
0.033869
0.00237375
0.0980579
0.00191965
0.0105662
0.027402
0.0164996
0.00637582
0.0676162
0.0085395
0.0118581
0.00172817
0.0174079
0.0139761
0.0198993
0.0057065
0.00345252
0.0100135
0.0165889
0.0272858
0.0147586
0.00317747
0.00330428
0.0296654
0.0017307
0.0106455
0.0103389
0.110151
0.0187407
0.0653566
0.00965258
0.011282
0.0236918
0.00237422
0.0031079
0.00293264
0.0921365
0.00968157
0.0323228
0.00278025
0.0168099
0.00722401
0.00913978
0.00198177
0.0230128
0.00195181
0.00937837
0.00297866
0.00359968
0.01209
0.0328162
0.0016267
0.00176724
0.0115302
0.0316515
0.0158479
0.00332318
0.0136569
0.0915352
0.00176168
0.0270308
0.00330032
0.00318539
0.00165175
0.00186202
0.00990123
0.00897866
0.00972421
0.0556195
0.00341582
0.0197193
0.0177223
0.0144037
0.00996217
0.0123934
0.00307332
0.00540026
0.00175094
0.0249567
0.0165033
0.0101073
0.0200493
0.0439485
0.0963187
0.00178682
0.0249198
0.0116914
0.012091
0.113021
0.00321259
0.0790544
0.0257501
0.041925
0.0378012
0.0203848
0.0115739
0.00185731
0.0224623
0.108198
0.00271207
0.00244774
0.010175
0.0100153
0.0446859
0.0999632
0.0162249
0.0237484
0.0299216
0.00239503
0.0057668
0.0279954
0.00547434
0.00305427
0.00314934
0.00161278
0.0040633
0.00969399
0.0215409
0.105559
0.0804888
0.0130123
0.0448944
0.0163001
0.0189501
0.00231869
0.0183019
0.00185182
0.0146548
0.00992055
0.00307718
0.0695341
0.00176221
0.00312022
0.0245788
0.0345569
0.0280607
0.00998965
0.00235697
0.0436701
0.0114499
0.0116226
0.0315798
0.00193125
0.00176547
0.00216303
0.0163617
0.00316764
0.112176
0.00236269
0.00189845
0.0149159
0.0104003
0.0164663
0.0328949
0.0030549
0.014001
0.00231617
0.00657705
0.0213798
0.0183852
0.013674
0.01441
0.00909493
0.0854244
0.00168339
0.00167755
0.0606171
0.0227515
0.00294273
0.090292
0.0104754
0.0193243
0.00993185
0.0227807
0.00315167
0.0352546
0.00280705
0.00177575
0.0651871
0.0105796
0.0319041
0.0213769
0.0102424
0.0102395
0.0123556
0.00378471
0.00203907
0.026336
0.0134219
0.0427119
0.0167397
0.0140564
0.00229228
0.00316243
0.0172873
0.12156
0.0964156
0.00334443
0.0222676
0.00247749
0.00623666
0.0222958
0.00316117
0.0694003
0.0896576
0.0141877
0.0284857
0.00972981
0.00914935
0.123732
0.0260292
0.0306009
0.00509833
0.00385234
0.00227524
0.019579
0.0225649
0.0105632
0.064758
0.00244779
0.027101
0.0258953
0.00698591
0.0241986
0.0147172
0.00354231
0.00229998
0.00313114
0.00285167
0.00164069
0.0223905
0.00305569
0.00955583
0.0581453
0.00311068
0.0396384
0.00174424
0.00208833
0.00986357
0.0104273
0.0388531
0.00230115
0.00326657
0.022692
0.0138795
0.00297553
0.00943229
0.00356314
0.00338613
0.0694521
0.00427757
0.00210535
0.0131878
0.0270716
0.018828
0.0914114
0.0103413
0.0240817
0.00348112
0.00161359
0.00737372
0.0727368
0.0236065
0.00295151
0.0031444
0.00327324
0.0106747
0.00313968
0.0305379
0.116143
0.0399816
0.0113116
0.00976605
0.00313272
0.0033039
0.00243553
0.00538653
0.00166314
0.0455896
0.00245737
0.0222318
0.0972033
0.0176004
0.0254881
0.0108414
0.0232616
0.0761885
0.0117398
0.0215934
0.0408852
0.0501274
0.0263297
0.0307548
0.042238
0.0212486
0.0394401
0.002491
0.00245827
0.0232536
0.00920566
0.0230183
0.0108664
0.0437744
0.00801166
0.0045569
0.00427199
0.00400344
0.0106786
0.0034611
0.0033596
0.021186
0.00210533
0.00163939
0.0981293
0.042379
0.0136013
0.00351065
0.0113086
0.0367351
0.00836141
0.00206959
0.00366457
0.029867
0.0236778
0.0307061
0.00348047
0.0240631
0.0609538
0.00193398
0.00168991
0.0203114
0.0108951
0.0111444
0.135583
0.0442236
0.020748
0.0149994
0.0158432
0.00859612
0.00555303
0.00674631
0.0432131
0.00558834
0.00341254
0.00397639
0.0309496
0.0154284
0.0207078
0.00985378
0.00894598
0.0140617
0.00980579
0.00833881
0.0175905
0.00752029
0.0197175
0.012921
0.00636477
0.0166146
0.00632497
0.0034855
0.0057686
0.00611656
0.0265983
0.00414092
0.0049988
0.0217636
0.0227704
0.00443849
0.00364861
0.0091926
0.0105808
0.0121731
0.01458
0.0165765
0.00786226
0.0185594
0.00708813
0.0153665
0.00598541
0.0118113
0.00550768
0.00533766
0.00557773
0.00473837
0.00402412
0.00420623
0.00409717
0.00411428
0.0166415
0.00281737
0.00360616
0.00438265
0.00383038
0.00200802
0.0117882
0.00363378
0.0111422
0.0127403
0.00725864
0.00337876
0.00399039
0.00196656
0.0127067
0.00949261
0.0213753
0.00303747
0.0102881
0.00306996
0.00515093
0.00206291
0.00364343
0.0172946
0.00561245
0.0217355
0.00350667
0.0025674
0.00280039
0.00305518
0.00291287
0.00911141
0.0097183
0.00320908
0.00320394
0.0198215
0.00279616
0.00285229
0.00243337
0.0768607
0.0034014
0.00328983
0.0251443
0.00424356
0.0204843
0.0163811
0.0139455
0.015556
0.013513
0.0186737
0.0035328
0.00751311
0.0106295
0.0139334
0.00671428
0.00974388
0.00520953
0.0490801
0.00466463
0.00253739
0.0158371
0.0141704
0.0198741
0.0167172
0.0108849
0.00259167
0.035999
0.0147672
0.00586838
0.0040233
0.00537922
0.013148
0.00246366
0.0113203
0.00272249
0.00372491
0.00400831
0.00286589
0.00261769
0.0037075
0.00373387
0.00536021
0.00330985
0.00300443
0.00348872
0.0339697
0.00716446
0.00263717
0.00510374
0.00434601
0.00359273
0.0205387
0.0114994
0.0158973
0.00829312
0.00368934
0.0027066
0.00386556
0.00322217
0.0420059
0.0152064
0.0155055
0.00648604
0.00254412
0.00731108
0.0110662
0.0121723
0.00514896
0.00722544
0.00346771
0.00363507
0.00768996
0.00402979
0.00384028
0.003296
0.00445933
0.0033773
0.00387811
0.00341812
0.00332544
0.00326737
0.00400343
0.00466888
0.00395172
0.00372712
0.00919109
0.00348198
0.00386919
0.0406989
0.0174903
0.0033923
0.00267877
0.00317511
0.0179324
0.0116282
0.0167512
0.0101142
0.00642777
0.00467843
0.00500799
0.00669736
0.00947164
0.00573262
0.00258832
0.00376929
0.0034583
0.00602131
0.00160837
0.089794
0.00165151
0.0158796
0.00423782
0.0217164
0.00236866
0.00366227
0.0070262
0.00522593
0.0137195
0.0108782
0.00555883
0.015597
0.004109
0.00430867
0.00382891
0.00375409
0.00366491
0.00360983
0.00421531
0.00325368
0.00248431
0.0132224
0.00272386
0.0122738
0.0144272
0.0136083
0.00576642
0.0145813
0.00538861
0.00373343
0.00732577
0.00358218
0.011513
0.00437398
0.00363662
0.0167427
0.00416044
0.00384925
0.0105869
0.00270899
0.00616385
0.0164931
0.00764812
0.00348459
0.00664621
0.00291973
0.005201
0.00245664
0.0120948
0.0410627
0.00169856
0.00674438
0.0096225
0.0105094
0.0253983
0.0122844
0.00296728
0.00776403
0.00498798
0.00403128
0.11693
0.0214169
0.00385274
0.00335032
0.00256257
0.021446
0.00333917
0.114087
0.00319461
0.00339546
0.00453776
0.00391902
0.00350818
0.00296214
0.00371644
0.0309622
0.00257562
0.02368
0.0081947
0.0193756
0.00307415
0.00889532
0.00783131
0.00983589
0.0104078
0.00597913
0.0117225
0.00591781
0.011741
0.0131152
0.015622
0.00533301
0.0129002
0.0134024
0.00809684
0.0209644
0.0161065
0.0117094
0.0196663
0.00240326
0.0047097
0.00586659
0.00409013
0.00198449
0.00370935
0.009748
0.00384101
0.00233137
0.011009
0.0103276
0.0111798
0.0045557
0.0347205
0.00228502
0.00402967
0.00347535
0.00329957
0.00661492
0.00321328
0.0120049
0.0256146
0.0450891
0.00298992
0.00307126
0.0148565
0.0176687
0.00221879
0.0168312
0.00843776
0.00771743
0.0109796
0.016015
0.00541316
0.013308
0.0176053
0.0150604
0.0214756
0.0208249
0.0223478
0.00340507
0.00564751
0.0055251
0.00291749
0.00981494
0.0125643
0.00382949
0.0307374
0.00289399
0.106306
0.00327313
0.00250693
0.0102874
0.00216844
0.00322213
0.00173868
0.00368989
0.00305787
0.00260957
0.00288474
0.00375271
0.0197694
0.0101905
0.00240139
0.00778758
0.00585399
0.0225233
0.0202669
0.0410739
0.0142736
0.00246141
0.00409709
0.00328383
0.00253147
0.00307201
0.0022769
0.0277005
0.0214569
0.0100648
0.01484
0.0118862
0.0166204
0.0188467
0.0166997
0.00287987
0.0236188
0.0147312
0.0179517
0.0150971
0.0115821
0.0127785
0.00612343
0.0110837
0.00351242
0.00967777
0.00725357
0.00389201
0.00632428
0.00555129
0.00497304
0.00316127
0.00320685
0.00848025
0.025037
0.019716
0.00237254
0.0189084
0.00239336
0.00313404
0.00469751
0.00163168
0.00862942
0.00452788
0.00395754
0.00364758
0.00479354
0.00367995
0.0249814
0.00339329
0.00217669
0.0205811
0.00435244
0.00309474
0.00832281
0.0209598
0.00794039
0.00977434
0.053474
0.0034027
0.0105988
0.0127504
0.0148456
0.00656456
0.00227351
0.0125059
0.0110155
0.0108756
0.00931298
0.00781133
0.00701267
0.0391505
0.0060639
0.0157532
0.00265177
0.00472603
0.0270396
0.00492302
0.00536764
0.0572895
0.00413148
0.00319328
0.00344034
0.00364727
0.00206127
0.00280273
0.00235213
0.00280113
0.021763
0.00338128
0.00304854
0.0326233
0.00211071
0.00227292
0.00223611
0.0431472
0.00377041
0.00280885
0.0221007
0.00357468
0.00283393
0.00246393
0.00360179
0.00437181
0.0189944
0.00360063
0.00278847
0.00904681
0.0161291
0.0217188
0.0131341
0.0100322
0.00267557
0.0049432
0.00340815
0.00384916
0.00238768
0.0213102
0.0051249
0.00255413
0.00219114
0.00659962
0.00515192
0.0260384
0.0111196
0.00246156
0.00334965
0.00264462
0.0219051
0.00483113
0.00371141
0.0165405
0.00254059
0.0108895
0.00228959
0.00183165
0.002085
0.00778371
0.00309086
0.00416873
0.0150741
0.00232559
0.0200713
0.00542158
0.00304563
0.0117339
0.00296253
0.00899238
0.0104996
0.00727893
0.0139731
0.00668185
0.00223502
0.00763767
0.00803602
0.00406197
0.00427844
0.00427562
0.00481174
0.0102217
0.00328292
0.00344342
0.0125366
0.00335935
0.00410187
0.0157105
0.00330479
0.00377992
0.0200975
0.00367932
0.00348846
0.0176408
0.0270154
0.0269845
0.00262488
0.00286582
0.0198115
0.00176952
0.00182869
0.0306736
0.017393
0.0280979
0.00501269
0.0243023
0.00321284
0.0045133
0.0119921
0.0131529
0.00248734
0.0113676
0.0317385
0.0451193
0.00249358
0.00287877
0.00218777
0.00166055
0.00203988
0.00350367
0.00269234
0.116904
0.00611212
0.00316412
0.0190338
0.00577666
0.0152614
0.00223281
0.0279983
0.00392748
0.00520817
0.0339886
0.00384483
0.00693607
0.00198758
0.00310649
0.0627355
0.00201098
0.038076
0.0111728
0.0176349
0.0162956
0.0108434
0.02462
0.00296456
0.00319244
0.0238196
0.00302678
0.00307768
0.00320936
0.0335469
0.00204356
0.00277354
0.00380028
0.0357566
0.00421725
0.0049931
0.0042858
0.00209413
0.01993
0.00651163
0.00801043
0.0345928
0.00158848
0.0132072
0.00320077
0.0102123
0.0019491
0.0373231
0.00519325
0.0051947
0.0023272
0.00779053
0.0108533
0.0048396
0.0143009
0.0185699
0.00384187
0.00497838
0.00199933
0.0171753
0.0159634
0.00197496
0.00647165
0.00495375
0.00726578
0.00844132
0.0105534
0.00443944
0.0100463
0.0105644
0.0310513
0.00695275
0.0298496
0.00227214
0.00871344
0.00231187
0.00310474
0.0704556
0.0305654
0.0185881
0.00206095
0.0254094
0.0047692
0.00422411
0.0327863
0.00436087
0.0444735
0.00923885
0.0376101
0.00995606
0.00190665
0.108893
0.00922619
0.00869253
0.00741091
0.0292646
0.0425728
0.00214962
0.00310015
0.12969
0.0335507
0.0026844
0.0365829
0.0391188
0.00351292
0.0399816
0.00303147
0.0348074
0.0047468
0.0121731
0.00282531
0.0254541
0.0385373
0.00168913
0.103818
0.0359432
0.00248382
0.0118612
0.00316992
0.0172994
0.0262682
0.00985849
0.00240845
0.022047
0.0322533
0.00517689
0.0363111
0.00443242
0.00274541
0.00811036
0.0086536
0.0291137
0.00203486
0.0029469
0.0226059
0.00600453
0.00307568
0.00486316
0.00288428
0.00966386
0.00799161
0.0284707
0.0553286
0.0339137
0.00208254
0.00878434
0.00219688
0.00678314
0.00978598
0.00383126
0.0092288
0.00301697
0.0320842
0.0150523
0.00268862
0.00258973
0.00944298
0.0196619
0.035149
0.0458372
0.012622
0.0045473
0.00902868
0.00232114
0.00216681
0.00311497
0.00335144
0.00187908
0.00294172
0.0270349
0.127822
0.00424266
0.00355364
0.00635784
0.0413367
0.00306015
0.0098482
0.00530808
0.00761787
0.00363635
0.00810327
0.0201754
0.0211042
0.0104956
0.00207293
0.0106688
0.0742948
0.00983685
0.00258809
0.00776295
0.0198847
0.0104977
0.00303624
0.00211419
0.00459585
0.00943299
0.00955498
0.0105785
0.00277147
0.0116118
0.0027843
0.00195943
0.0503951
0.00820156
0.0271595
0.00926014
0.0132162
0.015624
0.00828195
0.00262997
0.0269993
0.00218872
0.00492895
0.00477036
0.00705524
0.00976858
0.0102426
0.00616373
0.00979621
0.0218951
0.00984925
0.0142801
0.0029764
0.0473271
0.00202195
0.00200891
0.0195009
0.0229615
0.00918723
0.0601334
0.00858151
0.00219994
0.0187033
0.00258358
0.0279982
0.0280264
0.0020703
0.0135793
0.0419747
0.00452837
0.0406088
0.0135794
0.025128
0.00542902
0.0366019
0.0341823
0.00271929
0.00710494
0.0472122
0.00271485
0.00272093
0.0307307
0.00178557
0.0104379
0.033025
0.0219199
0.0949627
0.00308748
0.00225103
0.00216385
0.0645992
0.00284849
0.00419195
0.00643277
0.0143813
0.00268529
0.00362246
0.00273986
0.0124448
0.0136172
0.00191044
0.00738074
0.00177317
0.00180845
0.00304782
0.0681194
0.0170691
0.00187093
0.00212564
0.0233393
0.0238893
0.00392659
0.0132834
0.00184281
0.0018437
0.036506
0.00288301
0.019585
0.00172946
0.0140769
0.00952299
0.128932
0.0115804
0.083503
0.0559049
0.00261632
0.0355463
0.00217122
0.00254026
0.00415983
0.0215891
0.00209328
0.0117965
0.0283988
0.00286634
0.00271426
0.0145785
0.0399158
0.0129491
0.0697932
0.023107
0.0344367
0.0019167
0.0336066
0.0233292
0.00172305
0.0183111
0.00193394
0.0019764
0.0462156
0.0094464
0.00921118
0.0518179
0.045467
0.00399241
0.0101894
0.00332175
0.0249691
0.00196477
0.0401899
0.0315474
0.00294082
0.0301033
0.00213762
0.00291325
0.00196539
0.0111096
0.0139316
0.0905452
0.0394973
0.00256208
0.0477064
0.00196559
0.00214087
0.00169639
0.0230375
0.0102572
0.00200417
0.00539098
0.0537667
0.0125322
0.0118728
0.00241079
0.00973844
0.0028028
0.00267754
0.00426256
0.00321058
0.00385574
0.00252876
0.00177761
0.103444
0.0029297
0.00492759
0.00189194
0.0102546
0.011056
0.0285195
0.00296334
0.0107062
0.0264806
0.0113046
0.00247806
0.0430406
0.00377043
0.0233162
0.0119971
0.0104779
0.00510268
0.00254847
0.053046
0.0423976
0.00267571
0.00256554
0.0460428
0.0378214
0.0199698
0.00599496
0.0253203
0.00282758
0.00997571
0.00510079
0.0105223
0.00180678
0.00253053
0.00474873
0.0097558
0.00936081
0.00205645
0.0107087
0.0121211
0.00917627
0.00995794
0.020696
0.0259419
0.0234822
0.0021408
0.0301885
0.0314885
0.0350942
0.00337184
0.0149329
0.0193064
0.0111199
0.0344489
0.00270692
0.00227041
0.0226556
0.101302
0.0117064
0.050699
0.00270713
0.00319171
0.00445905
0.00248373
0.0134126
0.0029446
0.00197663
0.0230842
0.0191872
0.0589537
0.0488512
0.103159
0.0525381
0.0455518
0.0175176
0.0129315
0.0289844
0.00568604
0.027841
0.00311583
0.0189871
0.00163096
0.0753852
0.0105062
0.00444854
0.00810821
0.00355955
0.00489096
0.00445012
0.0021971
0.0087904
0.00200142
0.040581
0.0346635
0.00358238
0.0241377
0.0236188
0.0150993
0.0263365
0.137717
0.00968753
0.00942034
0.0532491
0.0103325
0.0174381
0.00298928
0.0762656
0.00356155
0.0122346
0.0140266
0.00495909
0.032162
0.0229551
0.00264181
0.010425
0.00245484
0.0619726
0.0281873
0.00852305
0.0908693
0.00402916
0.0251408
0.00424662
0.00461135
0.0537788
0.0201491
0.00717405
0.00332461
0.00388082
0.0101123
0.00273754
0.0877567
0.00956071
0.00629591
0.0543872
0.00165428
0.00951684
0.0092028
0.00218121
0.0195619
0.0700863
0.0297874
0.0242498
0.013388
0.0553042
0.00235134
0.0148817
0.00185523
0.00190756
0.0114957
0.00240157
0.0537467
0.0543248
0.0569737
0.0157447
0.0130022
0.028617
0.00710261
0.00330316
0.00556878
0.00346492
0.0125191
0.00429861
0.00364242
0.00704677
0.114066
0.00185109
0.0799023
0.0375064
0.00837127
0.00972823
0.0342233
0.0340755
0.00167072
0.138793
0.00400715
0.0018412
0.00180706
0.125746
0.00242282
0.00249779
0.00245937
0.030591
0.00316503
0.00974621
0.00497126
0.00733939
0.00889686
0.00234086
0.0245242
0.00336826
0.00443949
0.0272145
0.00265157
0.00694843
0.00365194
0.0328741
0.0131058
0.00259852
0.026835
0.0310377
0.0563726
0.00297888
0.00213264
0.0779693
0.0532735
0.071617
0.0495356
0.0665564
0.0534089
0.00264072
0.0239846
0.0519686
0.00525438
0.0110459
0.00251828
0.00985308
0.0312768
0.00912495
0.0152086
0.0638801
0.0225448
0.00258753
0.00159427
0.00166942
0.01067
0.00985555
0.0139071
0.0243916
0.0507001
0.00605076
0.00207152
0.052017
0.11255
0.010092
0.0059555
0.0207848
0.0026642
0.00961559
0.0337926
0.0115178
0.00971955
0.00915311
0.0132051
0.00347524
0.0883278
0.0116483
0.0727597
0.0393908
0.00932952
0.0106788
0.00968542
0.0417787
0.00497219
0.0119792
0.0214759
0.00493298
0.0100981
0.00617186
0.0273309
0.0107742
0.0260867
0.0506984
0.0424101
0.00650986
0.045064
0.104283
0.00354868
0.0481225
0.00361109
0.00700078
0.033247
0.00203009
0.00256923
0.0257028
0.00231848
0.00355884
0.00201762
0.00320367
0.0430648
0.00178285
0.0338468
0.0127532
0.0299262
0.00189751
0.00679083
0.00404082
0.0108211
0.00257269
0.0887923
0.0727164
0.0194039
0.0313134
0.0138238
0.0111959
0.0249222
0.00445174
0.0655886
0.0594105
0.0329827
0.00457383
0.0016784
0.00206515
0.0177162
0.0362995
0.00329494
0.00211285
0.00338118
0.0138743
0.00233747
0.00815805
0.00864632
0.00929887
0.0173263
0.00702377
0.00498153
0.00379492
0.0511082
0.00436295
0.0102011
0.00542721
0.00954586
0.00636382
0.00841009
0.00933889
0.010909
0.0393133
0.024096
0.0149654
0.0103347
0.044506
0.00189031
0.00901219
0.00727315
0.0035062
0.00396751
0.0294828
0.0708185
0.00255676
0.0373643
0.0131549
0.0912061
0.0114184
0.053748
0.00441256
0.0104606
0.0737651
0.00634211
0.0179533
0.0631145
0.0435989
0.00161113
0.0196294
0.00235142
0.0388731
0.0267969
0.017616
0.00224894
0.00566556
0.0434102
0.00269765
0.0107718
0.00466838
0.0321151
0.00175011
0.0246337
0.00339831
0.0689609
0.00237307
0.00281458
0.00552887
0.00771443
0.0576798
0.0284037
0.00283942
0.00508548
0.00581744
0.00163814
0.0134606
0.00390838
0.0166966
0.00953695
0.0802093
0.00169082
0.00250318
0.0370494
0.0521516
0.0160554
0.134761
0.0526911
0.0037788
0.0252581
0.0675908
0.00184309
0.0616537
0.0179302
0.0287165
0.00425831
0.0590009
0.00167183
0.0398604
0.0016402
0.0574638
0.00988475
0.0024634
0.0817652
0.00391671
0.0556515
0.0355275
0.00618391
0.00332689
0.0874562
0.128151
0.00679966
0.0278675
0.0539422
0.00272437
0.0163682
0.00409939
0.0113289
0.00312788
0.00292537
0.00814275
0.0591357
0.00317838
0.0442285
0.0185907
0.00222034
0.00171153
0.00167518
0.00194668
0.00466488
0.0157778
0.0216528
0.00624745
0.0396802
0.0101177
0.00249766
0.00263987
0.00202852
0.0714715
0.0401358
0.00179915
0.00739883
0.0180439
0.0056498
0.0721852
0.0297696
0.00329197
0.00292172
0.0096306
0.00335631
0.00346552
0.0367659
0.05191
0.00175731
0.00171573
0.011086
0.0564036
0.09664
0.00216126
0.00299335
0.119007
0.010115
0.00277109
0.001809
0.0444508
0.0421376
0.102643
0.00441112
0.0633347
0.0145727
0.109239
0.0527397
0.00320415
0.0295227
0.00254827
0.0142381
0.00193231
0.00301507
0.0100766
0.0141222
0.00652469
0.0185372
0.00313325
0.00555399
0.00897479
0.0414392
0.00469313
0.0738907
0.0251746
0.0338741
0.00277942
0.0781067
0.0237072
0.00909846
0.00988566
0.00811472
0.0327039
0.00291026
0.0228307
0.0439537
0.00279803
0.019631
0.00756519
0.00312387
0.00270953
0.00168442
0.0097838
0.00381947
0.00217666
0.0434191
0.129031
0.00282347
0.0520192
0.0496437
0.0809112
0.0217988
0.031561
0.0792062
0.00175838
0.0204055
0.0168976
0.00159302
0.00496357
0.00181889
0.00301092
0.00372654
0.0232767
0.00904801
0.0602225
0.00293021
0.0107188
0.00193864
0.00219116
0.00161283
0.0611169
0.0299986
0.00573924
0.00184653
0.0304438
0.00925028
0.0510828
0.0366768
0.0361345
0.0303618
0.00198743
0.00194217
0.00819061
0.00186519
0.00964845
0.00201171
0.0189753
0.0430453
0.0165634
0.0575746
0.0022132
0.00286247
0.0204288
0.0299894
0.0171606
0.0112499
0.0132532
0.0121805
0.121523
0.0807155
0.0382658
0.0620966
0.014394
0.00267317
0.00728599
0.00649953
0.048686
0.00215494
0.0035948
0.00535487
0.0338716
0.0150983
0.0185123
0.00941616
0.0103444
0.00216076
0.0541943
0.0244786
0.0258779
0.00192432
0.13309
0.0560895
0.0426853
0.0035385
0.0631802
0.0158859
0.0162028
0.00158136
0.0149608
0.00591639
0.00203758
0.00859422
0.0125777
0.0176001
0.016804
0.0984459
0.0719957
0.0019241
0.0578017
0.00167784
0.00952635
0.00724191
0.0350407
0.0018871
0.00172045
0.0622515
0.00929893
0.00187649
0.0607302
0.0262036
0.0176413
0.00205329
0.00201288
0.00971136
0.036906
0.00261298
0.0022225
0.00310461
0.0430671
0.00262594
0.00206155
0.00894624
0.00516638
0.0470981
0.00410046
0.0249242
0.00244166
0.011334
0.0792578
0.0179736
0.02293
0.00995605
0.00174085
0.00316402
0.00294761
0.00249482
0.0341888
0.00392323
0.00226761
0.0569625
0.0104243
0.00995075
0.0413765
0.016004
0.00335583
0.00236391
0.00227081
0.0115194
0.0159025
0.00276594
0.0457802
0.00614002
0.0795255
0.0710879
0.0112522
0.00373399
0.068374
0.00214561
0.00160566
0.0115887
0.114856
0.00318369
0.00274987
0.0121264
0.0149932
0.00208774
0.00212325
0.0187804
0.0108877
0.00157755
0.00168682
0.00912767
0.004279
0.0395641
0.00158083
0.128991
0.0549337
0.00343346
0.0625299
0.00948927
0.0297797
0.0412574
0.0606632
0.0489992
0.063807
0.0147792
0.00584825
0.00493292
0.00161994
0.00198434
0.00957645
0.00758975
0.0433115
0.0584979
0.00184934
0.00268122
0.00244248
0.00224849
0.00216601
0.00219567
0.0077354
0.00432013
0.00287329
0.00743347
0.00326631
0.00261729
0.00331952
0.00305651
0.0224194
0.0251995
0.014583
0.017662
0.00938255
0.0350479
0.00524188
0.00948111
0.00259399
0.0111428
0.00226913
0.012614
0.0634808
0.013543
0.00485557
0.00258564
0.00413645
0.0496867
0.0296026
0.00974119
0.00244765
0.00562593
0.00176255
0.0465878
0.00949446
0.0140839
0.00429795
0.00301143
0.00767308
0.00567696
0.0284615
0.0177507
0.00480897
0.00233388
0.00235093
0.0036706
0.0431177
0.018167
0.0994234
0.0189256
0.0102359
0.0379829
0.0269767
0.0247772
0.0168981
0.0486388
0.00971153
0.00245787
0.0739776
0.0513384
0.00972366
0.00948601
0.0162517
0.00285944
0.0105844
0.00537662
0.0122148
0.0786416
0.0143676
0.00456811
0.00821062
0.0522843
0.0810312
0.00250353
0.0127506
0.0118118
0.00355392
0.00181413
0.00196867
0.003001
0.00459665
0.0020954
0.00169197
0.118906
0.00727491
0.0511006
0.0585347
0.0110417
0.00226302
0.021202
0.0221838
0.0200208
0.00778029
0.0115641
0.00170799
0.110118
0.034063
0.0641292
0.00307366
0.00268373
0.00234433
0.0126336
0.0164899
0.0109466
0.00275813
0.00999052
0.0394117
0.00227724
0.00287489
0.00619296
0.078783
0.00331632
0.00485099
0.00942799
0.0118785
0.00237175
0.0822939
0.0342793
0.0983119
0.0119027
0.0263519
0.0276926
0.00237164
0.019047
0.122457
0.0113472
0.0047348
0.0113522
0.0539131
0.0159687
0.0138645
0.00970575
0.0278844
0.00215728
0.03925
0.0032288
0.00186686
0.00276794
0.0280071
0.00731604
0.050707
0.0793062
0.0112567
0.0224379
0.0028173
0.0183985
0.0017103
0.00862011
0.0252461
0.0247265
0.00241952
0.00205657
0.0501517
0.00310895
0.0612009
0.00304216
0.0614912
0.00200023
0.0302871
0.00250038
0.0524583
0.0101095
0.0249548
0.0568065
0.0296782
0.0217108
0.00299355
0.0613015
0.028208
0.0242543
0.0182734
0.0124544
0.0213538
0.0247527
0.00220482
0.0277564
0.0452595
0.00676511
0.052241
0.102033
0.00242121
0.00975994
0.00369855
0.0611517
0.0018239
0.00195023
0.00191563
0.0265677
0.111485
0.0304206
0.0112577
0.0198077
0.00235577
0.00608533
0.00418917
0.00478031
0.00189262
0.00693398
0.00662838
0.00663129
0.00336175
0.0669256
0.0601009
0.00257729
0.00574704
0.032112
0.0461337
0.0232689
0.00289734
0.00171761
0.00903359
0.0247163
0.00187609
0.00159178
0.0976189
0.0182845
0.00288242
0.00467072
0.0178076
0.0170621
0.037557
0.0257502
0.0236123
0.0090814
0.00662648
0.0483209
0.0640381
0.00229042
0.0102225
0.00913656
0.00185176
0.00375286
0.00970178
0.00320469
0.0263426
0.0463162
0.00237393
0.023763
0.106406
0.00394905
0.0126927
0.00296045
0.0322717
0.0189846
0.00612379
0.0100981
0.0838236
0.00637193
0.00501161
0.00976115
0.00507765
0.0781123
0.0525125
0.051591
0.00879003
0.00500267
0.0025759
0.00924345
0.00280642
0.00289615
0.00750862
0.0187191
0.00278437
0.00585194
0.00699103
0.00196679
0.0419103
0.0095967
0.0119201
0.00233656
0.113411
0.00342801
0.00392836
0.00552525
0.0240332
0.00222038
0.00329009
0.0108791
0.00342718
0.00258954
0.00608345
0.0475058
0.00264549
0.0401858
0.00906227
0.00409298
0.0411556
0.014565
0.00249373
0.10523
0.0104299
0.0804143
0.0043553
0.0215255
0.0045425
0.0243008
0.119979
0.00231228
0.0178899
0.0060728
0.0102742
0.00179391
0.00182618
0.00341647
0.00320031
0.00324674
0.00247488
0.0144976
0.00720624
0.00255359
0.00164923
0.0031584
0.0151772
0.0322482
0.0370879
0.0118715
0.00588521
0.123595
0.00189739
0.00202536
0.00387951
0.00185923
0.00188278
0.0158567
0.00391439
0.00402549
0.0237731
0.00961444
0.00919476
0.0436003
0.0456324
0.00216255
0.0521277
0.0101804
0.0210739
0.0218226
0.0207667
0.0137856
0.0322075
0.00320296
0.0122439
0.00352926
0.0102278
0.00273681
0.0341078
0.00470382
0.00363308
0.011015
0.0285222
0.0225174
0.00208326
0.0163322
0.0219815
0.0141011
0.00324856
0.00413165
0.00780503
0.0196547
0.00664423
0.124493
0.0166406
0.00398584
0.00943636
0.00281333
0.0037645
0.00871148
0.00350687
0.037672
0.0151515
0.00231539
0.00329378
0.0319794
0.00636774
0.052869
0.0219733
0.0250084
0.00570648
0.00260134
0.0227468
0.0712068
0.00244733
0.0027329
0.00917141
0.00265592
0.00260871
0.0224447
0.00450763
0.0528081
0.0179487
0.0554453
0.00479714
0.0172322
0.00318676
0.00247453
0.00232227
0.0301474
0.00308508
0.00317352
0.00287138
0.0113412
0.00929217
0.00277519
0.0220239
0.0593013
0.034755
0.00269385
0.0234512
0.0883352
0.0396736
0.00192566
0.0117951
0.00372083
0.0557085
0.00271754
0.00998648
0.0363444
0.037845
0.00174393
0.00230636
0.0122585
0.0393523
0.0519723
0.00404512
0.0579654
0.0028912
0.00227391
0.0320587
0.0123675
0.00326641
0.0473714
0.0101106
0.00189333
0.00999064
0.0349633
0.00973915
0.0028236
0.0019922
0.0252979
0.0070356
0.00215645
0.0238718
0.0631551
0.03949
0.0121459
0.00268804
0.00369018
0.0143858
0.045787
0.0139377
0.0439962
0.0735028
0.0620317
0.00173018
0.00175907
0.004673
0.0028072
0.00272793
0.0245435
0.0360654
0.00181605
0.0018045
0.00178092
0.00290062
0.0163346
0.0133895
0.0125977
0.00299258
0.00307127
0.0029706
0.0116124
0.0296925
0.00960243
0.00178318
0.0410957
0.0028492
0.00460209
0.0424273
0.00301734
0.0147705
0.0268472
0.00269392
0.0108397
0.00239599
0.0126792
0.00958308
0.00831991
0.0563493
0.00185364
0.0234161
0.0384461
0.0123928
0.00397251
0.0740312
0.0772699
0.00183496
0.00255062
0.00937269
0.0118943
0.00462104
0.0339382
0.0640301
0.0143161
0.0159631
0.0730839
0.0228747
0.00966031
0.0526173
0.0476834
0.0645263
0.0485024
0.0110245
0.0460602
0.00308408
0.00306453
0.00250283
0.0126973
0.00261175
0.0660706
0.0190821
0.00223911
0.00247813
0.00327142
0.00319313
0.00253135
0.0140287
0.020465
0.00990451
0.0254178
0.0273905