/*--------------------------------*- C++ -*----------------------------------*\
  =========                 |
  \\      /  F ield         | OpenFOAM: The Open Source CFD Toolbox
   \\    /   O peration     | Website:  https://openfoam.org
    \\  /    A nd           | Version:  10
     \\/     M anipulation  |
\*---------------------------------------------------------------------------*/
FoamFile
{
    format      ascii;
    class       volScalarField;
    location    "350";
    object      k;
}
// * * * * * * * * * * * * * * * * * * * * * * * * * * * * * * * * * * * * * //

dimensions      [0 2 -2 0 0 0 0];

internalField   nonuniform List<scalar> 
23845
(
0.0725412
0.0894445
0.0711899
0.0425995
0.0835261
0.030499
0.0859423
0.0305443
0.0384672
0.0657008
0.0620024
0.0267551
0.0391065
0.0351592
0.0927983
0.0523583
0.0374638
0.0379287
0.0406755
0.030755
0.0700009
0.0592268
0.0697924
0.0392109
0.0667317
0.0451006
0.0804168
0.0316372
0.0182194
0.0321307
0.0466941
0.0161992
0.0876422
0.0389278
0.0268222
0.0277598
0.0136715
0.0268073
0.0279968
0.0390859
0.0400108
0.0347622
0.0432425
0.0332204
0.0462576
0.0377307
0.0717603
0.050218
0.0209276
0.0140887
0.026833
0.0710058
0.0174497
0.0339247
0.0156411
0.0380613
0.0887026
0.0328495
0.075759
0.0713682
0.0244248
0.0344864
0.0495617
0.0242558
0.040877
0.0385002
0.0842958
0.0491284
0.0472886
0.0401681
0.0275133
0.0623897
0.043437
0.0916045
0.0428082
0.092258
0.02687
0.0280407
0.0365534
0.0424959
0.075136
0.086386
0.090764
0.0338402
0.0712871
0.0270605
0.086329
0.017174
0.0407015
0.0413773
0.0240159
0.0408382
0.0204657
0.0279419
0.0326333
0.0244329
0.0386776
0.0519568
0.0424867
0.0763971
0.0394438
0.0855551
0.0850999
0.0115104
0.0209444
0.0354316
0.0317748
0.0438956
0.085315
0.0335903
0.0581632
0.0270001
0.0825311
0.0574911
0.0282231
0.0613768
0.042943
0.056193
0.0186547
0.0299666
0.0275548
0.0196633
0.0401464
0.0441275
0.0868064
0.0443079
0.0253748
0.0142353
0.0573703
0.0731785
0.0608908
0.0804413
0.0686266
0.0329769
0.0404348
0.0796444
0.00965379
0.0267109
0.0813093
0.028355
0.0154451
0.0337818
0.0286161
0.0339455
0.0437658
0.0324871
0.0568162
0.0830871
0.0352732
0.0446139
0.0902649
0.040893
0.0833377
0.0389618
0.0788807
0.0544522
0.0860373
0.0272692
0.0674668
0.0226795
0.0429151
0.0893597
0.0321938
0.0400784
0.0459999
0.0473409
0.031047
0.0200009
0.0314673
0.0321344
0.0333493
0.0437758
0.0397932
0.0417303
0.0418843
0.0346534
0.0428794
0.0618637
0.0438576
0.0273962
0.076583
0.0728591
0.0911174
0.0551783
0.0467753
0.0385016
0.0345388
0.0328495
0.0165057
0.035475
0.0214575
0.0353142
0.0373231
0.0341007
0.0450076
0.0370295
0.0167643
0.0174255
0.014954
0.0591744
0.0488696
0.0368103
0.0341319
0.0770224
0.0324144
0.0321332
0.0688579
0.0297436
0.0750949
0.0411882
0.0428298
0.0185924
0.0437661
0.0335287
0.02322
0.0152041
0.0722553
0.0353015
0.00886583
0.0616218
0.044716
0.0921257
0.0160861
0.0512722
0.0321027
0.0893606
0.00955435
0.035324
0.0317362
0.0387158
0.0285017
0.0225776
0.0270798
0.048046
0.0847438
0.0216458
0.0415495
0.0439233
0.0415053
0.0450542
0.0190403
0.0548775
0.0345706
0.0836648
0.0207744
0.0510797
0.0321727
0.0475412
0.0335537
0.0891879
0.0380227
0.0274483
0.0264847
0.0405082
0.0879634
0.0236845
0.0337648
0.027891
0.0280637
0.0387818
0.0154333
0.0270664
0.0262792
0.0566534
0.0557936
0.0409085
0.0356918
0.0459324
0.0552098
0.0420145
0.0277473
0.0410885
0.0265146
0.0364767
0.0557108
0.0378296
0.0273803
0.0349784
0.0233821
0.071739
0.0364425
0.0320437
0.0290697
0.0445126
0.0268707
0.0286336
0.0443321
0.0380382
0.0320295
0.08417
0.0347795
0.0242043
0.0245916
0.0269815
0.0334599
0.0268538
0.0309489
0.0333188
0.027074
0.019842
0.0675912
0.0877118
0.0215944
0.0424431
0.0350618
0.0442136
0.0247487
0.0266195
0.0394885
0.0148009
0.0261675
0.0842107
0.0410418
0.0332847
0.0620018
0.0149109
0.0293914
0.0721912
0.0227609
0.0447523
0.0218128
0.0193605
0.040109
0.0328993
0.0877546
0.0308162
0.0385395
0.0704498
0.034501
0.0401075
0.0782651
0.0453265
0.0256993
0.0268931
0.0338166
0.0449043
0.0508259
0.038083
0.0325441
0.0366396
0.0457532
0.0372957
0.0590498
0.0472972
0.0468837
0.0217866
0.0270572
0.0258639
0.0376023
0.0848658
0.0508629
0.059563
0.0135882
0.0277173
0.0175616
0.0371206
0.0308079
0.042389
0.0871826
0.0337873
0.0491539
0.0428128
0.0558677
0.0426965
0.017285
0.0317484
0.0404319
0.0287147
0.0191403
0.0452057
0.0331909
0.0225323
0.0327833
0.0270656
0.0276201
0.0249617
0.0584177
0.0466845
0.0327594
0.0403739
0.0877014
0.0271782
0.0671668
0.0470334
0.0476847
0.0273323
0.0293035
0.0358996
0.0473358
0.0337513
0.0818562
0.0315672
0.0272129
0.0231896
0.0253769
0.0206589
0.0550051
0.0448503
0.040237
0.0269062
0.0556268
0.0521075
0.0305245
0.0484425
0.0803856
0.0912298
0.0292946
0.0295052
0.019423
0.0303603
0.0899598
0.0483818
0.0892289
0.0399234
0.08921
0.0631831
0.0579329
0.0528607
0.029854
0.0630963
0.0682431
0.0308129
0.0376217
0.0373799
0.0283442
0.0823927
0.0630333
0.0494956
0.047092
0.050224
0.0364024
0.0385976
0.0372101
0.0372085
0.0360067
0.04432
0.0268696
0.0385442
0.0212576
0.047795
0.0916923
0.0545355
0.0193155
0.0550354
0.0505944
0.030007
0.0316516
0.0575613
0.0295514
0.0425364
0.0363321
0.0417122
0.048282
0.0272987
0.0473752
0.0364506
0.0734588
0.0793097
0.0288639
0.0351069
0.0751633
0.0408791
0.00960033
0.0725878
0.02977
0.0287874
0.0334494
0.0230555
0.0468562
0.0841445
0.0325077
0.0305884
0.0493002
0.0276699
0.0264901
0.0818868
0.0422243
0.0217666
0.0337609
0.0417408
0.0645762
0.0573344
0.0461078
0.0593222
0.047549
0.0876795
0.0275086
0.0275408
0.0765228
0.0389786
0.0449216
0.0690125
0.0248942
0.0601751
0.0319483
0.0679211
0.0440784
0.059047
0.0419048
0.0276295
0.0830137
0.0162888
0.0422819
0.0655271
0.0347856
0.0360812
0.0541352
0.039499
0.0296366
0.0400082
0.0457757
0.0467689
0.0139175
0.0473435
0.0357414
0.0464609
0.0546399
0.0846274
0.0786756
0.033058
0.013408
0.0359625
0.0397987
0.0312928
0.0460454
0.0842751
0.0879221
0.0260138
0.0670552
0.0198695
0.0221102
0.0749889
0.0760175
0.074336
0.0391409
0.0392594
0.0338564
0.033994
0.069717
0.037477
0.0712754
0.0360192
0.0695077
0.0675843
0.0420102
0.065001
0.0599703
0.0425297
0.0329615
0.0393302
0.0390654
0.0268534
0.0436035
0.0393607
0.0320872
0.0870326
0.0318075
0.0456454
0.0270076
0.0304863
0.033469
0.0381335
0.0780737
0.0308799
0.0316252
0.0260215
0.0217234
0.0438439
0.0200563
0.0402679
0.0468244
0.0838902
0.0384791
0.0328929
0.0515942
0.0757699
0.0387024
0.0727032
0.0289647
0.0717541
0.0470234
0.0269188
0.0426396
0.0789558
0.0326695
0.0296273
0.0434934
0.044375
0.0296079
0.0436107
0.074446
0.0893573
0.0773307
0.0522101
0.025929
0.0304045
0.0466441
0.0356664
0.0371908
0.0276428
0.066672
0.0347862
0.070828
0.090571
0.0449254
0.0734043
0.0287247
0.0714561
0.0865656
0.0529994
0.0650164
0.0890229
0.086319
0.0759248
0.0359251
0.085025
0.0707511
0.0888522
0.0328129
0.0352638
0.0717763
0.0244265
0.0697018
0.0514971
0.0893452
0.0446858
0.0404542
0.0333457
0.0445177
0.0479415
0.0392845
0.040244
0.0623711
0.0314079
0.0270939
0.0843579
0.0872659
0.0520305
0.0471102
0.0527632
0.0800313
0.0457321
0.0296235
0.0398864
0.0701342
0.073248
0.0683177
0.0407489
0.0717967
0.0648881
0.0273566
0.0270188
0.0693411
0.037111
0.0245192
0.0836197
0.0461866
0.0653874
0.0338219
0.0616886
0.0464685
0.0398293
0.0419276
0.0904168
0.0397803
0.0465285
0.0449556
0.0816881
0.0506772
0.0672213
0.0467456
0.0471732
0.0568726
0.0493155
0.0455503
0.0653965
0.0433078
0.068628
0.0545591
0.0412727
0.0613105
0.0397941
0.0341351
0.0380902
0.0406612
0.0768022
0.0378267
0.0356023
0.0714751
0.0702954
0.0338077
0.0362454
0.0477586
0.0511413
0.0547287
0.0598863
0.0636968
0.0442403
0.0669006
0.0420498
0.0588775
0.0387403
0.0522617
0.0372458
0.0376667
0.0390444
0.034776
0.0324492
0.0330105
0.0422608
0.0367235
0.0524926
0.0409471
0.0372304
0.0371487
0.0317984
0.0313005
0.0529064
0.031185
0.0524985
0.0560533
0.0425991
0.030395
0.0364036
0.0277922
0.051881
0.0466974
0.0706421
0.0415317
0.050125
0.0294357
0.0364797
0.0290129
0.035845
0.0647587
0.0382442
0.0707299
0.0309187
0.0373201
0.034597
0.0448503
0.0289976
0.047733
0.0289342
0.0438907
0.0300556
0.0687076
0.0286422
0.0339899
0.0314485
0.0815445
0.0342827
0.0471035
0.0750429
0.0369489
0.0390075
0.0600972
0.0561251
0.0618013
0.0576968
0.0668701
0.0338061
0.0432525
0.0512169
0.0583498
0.040983
0.0483746
0.0362773
0.0916535
0.0345272
0.0280434
0.062307
0.0589378
0.0689186
0.0476908
0.0503434
0.0329162
0.0866793
0.0587367
0.0396444
0.032447
0.036827
0.0256608
0.0378621
0.0516941
0.0286281
0.0387291
0.0328995
0.0292152
0.0282661
0.0315026
0.0378842
0.0385632
0.0337787
0.029267
0.0371443
0.078653
0.0423804
0.0337169
0.0363219
0.0339033
0.038584
0.0695198
0.0529405
0.0615046
0.0458354
0.0343194
0.0338342
0.0360916
0.0345895
0.0865391
0.057195
0.0613339
0.04172
0.0281478
0.0425697
0.0218948
0.0543974
0.0384798
0.0423311
0.0425734
0.0406268
0.0430942
0.0440374
0.0390626
0.0448389
0.0407426
0.0438498
0.0461957
0.0431964
0.0440975
0.0453861
0.0384246
0.0402024
0.0453791
0.0398529
0.0456766
0.0312185
0.0323486
0.0609404
0.0650654
0.0466385
0.041449
0.031802
0.0615313
0.0535394
0.0630101
0.0500064
0.0410244
0.0380982
0.0382812
0.0413662
0.0465967
0.0379535
0.0333786
0.0342767
0.0413519
0.0407261
0.0269358
0.0867516
0.0268906
0.0585735
0.035823
0.0711236
0.0276627
0.0396468
0.0419425
0.0399125
0.0527129
0.0484609
0.0400978
0.0552942
0.0429444
0.0413954
0.0466075
0.0466329
0.0471917
0.047172
0.0407865
0.030026
0.0280112
0.0534911
0.032756
0.0523325
0.054836
0.0576348
0.0402751
0.0539144
0.0399779
0.0469003
0.0424475
0.0471561
0.0493998
0.0410624
0.0471795
0.0567413
0.0424417
0.0464144
0.0508842
0.0349844
0.039818
0.0532563
0.043489
0.0356201
0.0406997
0.0358242
0.0363308
0.0278365
0.0533463
0.0397285
0.0269397
0.0410901
0.0488643
0.0510318
0.0754204
0.0550494
0.0303623
0.0432897
0.035691
0.0330398
0.0897585
0.0241243
0.0319671
0.0303997
0.0358862
0.0605229
0.0354059
0.0928302
0.0302488
0.0435329
0.0384856
0.0386815
0.0345514
0.0292735
0.0400575
0.0819422
0.0286176
0.062812
0.0447416
0.067618
0.0303265
0.0456257
0.0442267
0.0494075
0.0507429
0.0406717
0.0507709
0.0386574
0.0538488
0.0568684
0.0618413
0.0368503
0.0550187
0.0568303
0.0452264
0.0687708
0.0609192
0.0533013
0.0641407
0.0282727
0.0348079
0.0400964
0.0328717
0.0275671
0.0316589
0.0476272
0.0326286
0.0277598
0.0514793
0.0500076
0.0516
0.0365194
0.0770512
0.0275149
0.0377244
0.0314746
0.0302908
0.0418888
0.0420751
0.0540902
0.0760054
0.0889469
0.0378424
0.0298915
0.0603247
0.0655102
0.0275075
0.058564
0.0458734
0.044049
0.0519705
0.0575712
0.0396185
0.0570761
0.0652539
0.0602579
0.0686
0.0698711
0.0714386
0.0393418
0.0392458
0.0382586
0.0300039
0.0489451
0.053908
0.0374625
0.0246468
0.0368386
0.0781376
0.0385701
0.0340276
0.0147156
0.0273222
0.0484521
0.0280633
0.0471519
0.0322
0.0283006
0.0336837
0.0359265
0.0687748
0.0244627
0.0278467
0.0441309
0.0407205
0.0676065
0.0625326
0.086711
0.0586248
0.0279908
0.0355718
0.0306172
0.0348598
0.0446716
0.0335885
0.0766993
0.0707432
0.0476002
0.0549508
0.0505872
0.057396
0.060239
0.0637449
0.029005
0.0740306
0.0569188
0.0621421
0.0608091
0.0511808
0.0559946
0.0401916
0.0523195
0.0308873
0.0489048
0.0424986
0.0321289
0.0397412
0.037379
0.0355939
0.0297292
0.0330733
0.0459685
0.0673907
0.0685107
0.0278179
0.059518
0.0283656
0.0420829
0.0354498
0.027234
0.0463423
0.0343124
0.0350316
0.0320262
0.0387225
0.038561
0.073997
0.0410019
0.0277668
0.0605109
0.0358707
0.0445276
0.0454499
0.0699099
0.0443989
0.0210312
0.0694598
0.0376902
0.049289
0.0531046
0.0599256
0.0410507
0.0277902
0.0551958
0.0514808
0.0516084
0.0479414
0.0439902
0.0417341
0.0342479
0.0389706
0.0567847
0.0286281
0.0347892
0.0751022
0.0401242
0.0394416
0.052444
0.0331351
0.046104
0.0409804
0.0315981
0.0285691
0.0289641
0.0284453
0.0358924
0.0712216
0.0306907
0.0296131
0.0740112
0.0271746
0.027564
0.0288712
0.0817821
0.0396322
0.0334035
0.071788
0.0448497
0.0423117
0.0282723
0.0402861
0.0384053
0.042071
0.0446632
0.0293191
0.0462371
0.0617483
0.0709283
0.0562178
0.0494604
0.034948
0.0358865
0.0317304
0.0332392
0.0302587
0.070973
0.0371639
0.0342802
0.0276397
0.0406925
0.0381577
0.058466
0.0344281
0.0316488
0.0347158
0.0348254
0.0676515
0.0386787
0.0470497
0.0629736
0.0282773
0.0395527
0.0291723
0.0296228
0.0271715
0.0446688
0.0334143
0.0418205
0.0600175
0.0305779
0.0664856
0.0388054
0.039629
0.053602
0.0338993
0.0466751
0.0507422
0.0434764
0.0573133
0.0413965
0.0280672
0.0437312
0.044634
0.043525
0.0333564
0.0412802
0.0381422
0.0479251
0.0451416
0.042888
0.0516098
0.0441163
0.0382275
0.0561469
0.0443746
0.0394417
0.0617234
0.0402353
0.0422333
0.0587242
0.0781632
0.0729417
0.038579
0.0375537
0.0618625
0.0289853
0.0269639
0.0802425
0.0610115
0.0785835
0.0388386
0.0662422
0.0343114
0.0349151
0.0499076
0.056525
0.0325711
0.0527336
0.0795644
0.0346949
0.0332726
0.0305198
0.0279518
0.0270738
0.0271733
0.031175
0.0284371
0.0926826
0.0391854
0.0300786
0.0676697
0.040249
0.0611668
0.027601
0.0678534
0.0375928
0.0398564
0.0799859
0.0412998
0.041817
0.0271982
0.0388599
0.0596745
0.0271139
0.0835275
0.0523699
0.0652241
0.0408016
0.0386746
0.0753236
0.0362188
0.0379322
0.0681122
0.0362659
0.0361993
0.0355702
0.0739218
0.0302118
0.0365815
0.0386852
0.0845217
0.0384367
0.0397173
0.0336189
0.0284675
0.0275866
0.0416555
0.0445691
0.0824937
0.0266767
0.0109931
0.0368541
0.021796
0.0271053
0.0844022
0.0390842
0.0385734
0.0301447
0.0447111
0.0516794
0.0381206
0.0585813
0.0640665
0.0437886
0.0384105
0.0276829
0.0617607
0.0597408
0.0315495
0.041315
0.0378366
0.0430861
0.0450727
0.0502793
0.0337733
0.0486102
0.0500639
0.0734717
0.0422025
0.0754237
0.035805
0.0465095
0.0287507
0.0394677
0.0716747
0.0786991
0.0627793
0.0326337
0.0730786
0.0375519
0.0384376
0.0809428
0.0383793
0.0782157
0.023634
0.0877825
0.0489358
0.0307999
0.0825916
0.0472936
0.0461383
0.0433991
0.0765762
0.082551
0.0292281
0.0342022
0.0927002
0.0640826
0.0357403
0.0867219
0.0874523
0.0390233
0.0469499
0.031592
0.076358
0.0363979
0.0504274
0.0423543
0.0716022
0.0762325
0.0275355
0.0894271
0.0792407
0.0386765
0.0308299
0.03888
0.0576869
0.0668894
0.0352131
0.0337029
0.0687542
0.0712874
0.0368862
0.0838017
0.0371196
0.0291682
0.0452712
0.0465613
0.0741192
0.0275172
0.0398032
0.0703896
0.0409406
0.0328955
0.0355896
0.0379801
0.0488898
0.0445813
0.0732982
0.0824745
0.082087
0.0276578
0.046434
0.0307468
0.041963
0.04862
0.0340453
0.0259551
0.041548
0.077547
0.01227
0.0363792
0.0353984
0.0473814
0.0661715
0.081152
0.0858368
0.055639
0.0342695
0.0471719
0.0353414
0.0299594
0.035544
0.0469165
0.0271197
0.0320428
0.06917
0.0837157
0.0396481
0.0411268
0.0413697
0.0781154
0.0344574
0.0484742
0.0377891
0.0437836
0.0326087
0.0453369
0.0687388
0.0695388
0.0508883
0.0287301
0.050654
0.0855867
0.0272417
0.0291289
0.0445185
0.0675391
0.0508516
0.04048
0.0275593
0.0373025
0.0481744
0.0487308
0.0160244
0.0400463
0.0289488
0.0305868
0.0271463
0.0811046
0.0450373
0.0781207
0.0474701
0.0559098
0.0602408
0.0453166
0.0364593
0.0719396
0.0292608
0.0367566
0.035469
0.0425691
0.0351314
0.0496733
0.0410629
0.0488543
0.065454
0.0285854
0.0587812
0.0390354
0.0835143
0.0273631
0.0289606
0.0672066
0.0655862
0.0230327
0.0503832
0.0459228
0.028899
0.0655326
0.0358459
0.0680324
0.0762558
0.028153
0.0571962
0.0874228
0.0382086
0.0759994
0.0574063
0.0756804
0.0401085
0.0752021
0.0851773
0.0366566
0.043093
0.0604444
0.0371819
0.038065
0.0753763
0.0272222
0.0498037
0.0844556
0.0647873
0.0743404
0.0440739
0.0351482
0.0343758
0.0570333
0.0385725
0.0421737
0.0415833
0.0400747
0.0333863
0.0444285
0.0377604
0.0370851
0.0532468
0.0270256
0.0433366
0.0270461
0.0279022
0.0415116
0.0852883
0.0640139
0.0269765
0.0282039
0.0655203
0.0741689
0.0390201
0.0551871
0.0270007
0.0282702
0.0530703
0.0384393
0.0669214
0.0272017
0.0565617
0.0316331
0.0895533
0.0177373
0.086936
0.0846674
0.0373971
0.0835136
0.0290722
0.0356863
0.034157
0.0635298
0.0274951
0.0289516
0.0344831
0.030422
0.0294441
0.047939
0.00272259
0.0515909
0.0864258
0.0722426
0.0769835
0.0271356
0.0829865
0.0019003
0.0281469
0.0519874
0.0308411
0.030094
0.089253
0.0177582
0.0269686
0.0883749
0.0867408
0.0430329
0.0139496
0.0358447
0.0662747
0.0288175
0.0777684
0.0808069
0.0407164
0.0768709
0.0307273
0.0401678
0.0315751
0.017588
0.0460092
0.0884373
0.0554293
0.0296154
0.0869007
0.0305121
0.0329802
0.0274742
0.0693536
0.0315565
0.0319698
0.0395086
0.0895117
0.0271597
0.0540881
0.0346817
0.0346073
0.0356725
0.0292433
0.0379205
0.0459513
0.0390548
0.0385888
0.0269318
0.092133
0.031672
0.0367639
0.0272365
0.0472447
0.0385673
0.0784266
0.0438143
0.0367872
0.0713683
0.049671
0.0352221
0.0422037
0.0464462
0.0019094
0.0384494
0.0343647
0.0378819
0.0292833
0.0835277
0.0785949
0.0378539
0.0312709
0.0873733
0.0826093
0.0605162
0.0405335
0.0020175
0.0314146
0.026878
0.0370579
0.0227655
0.0269978
0.031731
0.0354079
0.0491662
0.0194698
0.0312841
0.0385171
0.0185406
0.0477587
0.0474565
0.0613346
0.00231495
0.0702575
0.0321898
0.0815449
0.082265
0.0732428
0.0469174
0.0447534
0.0598332
0.0397713
0.00320013
0.0397831
0.0326145
0.0677251
0.0891817
0.0536276
0.0863632
0.0413808
0.0420867
0.0405559
0.028958
0.0300097
0.0372388
0.0307585
0.0635445
0.0629622
0.0853993
0.084685
0.081151
0.0674649
0.0876381
0.0197476
0.0442562
0.0805301
0.0404306
0.00251969
0.0435505
0.0494237
0.0271825
0.0591686
0.0228255
0.0341312
0.0446666
0.0412876
0.0371016
0.0347461
0.0320733
0.0465121
0.03042
0.0761581
0.0829033
0.0389337
0.0745477
0.0730714
0.0472549
0.00190673
0.0913645
0.0330273
0.0230723
0.0861297
0.0181494
0.0647704
0.0448147
0.0570446
0.0471843
0.0280742
0.0537972
0.0398771
0.00291418
0.0726045
0.0400498
0.0369441
0.0294394
0.0825588
0.0686607
0.0448821
0.0911739
0.0341009
0.0641202
0.041736
0.035125
0.0868464
0.0138091
0.0429682
0.0415458
0.0438225
0.0500407
0.0312178
0.072723
0.0482419
0.0413779
0.0870532
0.0274067
0.0294619
0.0456125
0.0322225
0.0630364
0.0677187
0.00270722
0.0472988
0.0368038
0.0841267
0.0342625
0.0489192
0.0293838
0.0295128
0.0409959
0.0368483
0.0631469
0.0866941
0.0861426
0.0419698
0.0562375
0.0627362
0.0424489
0.0421313
0.0382773
0.0423954
0.0416161
0.0344026
0.0374419
0.0424493
0.0925078
0.0286972
0.090218
0.00361724
0.0453527
0.0139967
0.00325107
0.0741177
0.0268763
0.0871264
0.038796
0.0299724
0.0275777
0.0904126
0.0298979
0.037378
0.0335788
0.0733924
0.0367521
0.0342237
0.0379711
0.0426522
0.0458381
0.0331657
0.0656555
0.038903
0.040834
0.0742381
0.0400499
0.0415834
0.0388007
0.00291996
0.0532316
0.0387732
0.0313303
0.0744391
0.0885431
0.0330198
0.032317
0.087469
0.0830613
0.0837142
0.083429
0.0823988
0.076525
0.0389215
0.0532628
0.0804423
0.0393702
0.0365548
0.0378446
0.0251818
0.0380853
0.0217186
0.0565463
0.0822478
0.0168331
0.0393732
0.0267531
0.0269446
0.0304972
0.0358096
0.0229847
0.00215271
0.0780389
0.0410241
0.0311914
0.0843543
0.0780235
0.0368781
0.0398075
0.0614741
0.0310242
0.0288484
0.034534
0.0364086
0.0293444
0.0249567
0.0419553
0.0361308
0.0891983
0.0387319
0.0548364
0.073219
0.0272662
0.0496908
0.0332299
0.0435031
0.0387323
0.0287062
0.056941
0.0389788
0.0304833
0.0408701
0.00237505
0.0306578
0.0698963
0.0871742
0.00437765
0.0411767
0.0846121
0.083853
0.0449645
0.0805105
0.0400649
0.0421611
0.0841791
0.0324828
0.0303962
0.076001
0.0346115
0.0375441
0.0310377
0.0427315
0.0745441
0.0283698
0.0785985
0.0105911
0.052973
0.0299595
0.0415409
0.0426385
0.0307705
0.0382459
0.0766998
0.0864705
0.0674132
0.0629161
0.0407112
0.0290114
0.0751188
0.0402564
0.0863053
0.00708135
0.0461829
0.036065
0.0270704
0.032801
0.0633218
0.0794407
0.0370703
0.0324125
0.037162
0.037576
0.0357686
0.0441989
0.0460601
0.0475676
0.0387792
0.0422812
0.0401693
0.0439151
0.0777356
0.0395428
0.0322227
0.0370592
0.0475128
0.0399296
0.044349
0.0269243
0.0269797
0.00403293
0.00205389
0.0580708
0.0484282
0.0698793
0.0305567
0.0232307
0.0434025
0.0419005
0.0385992
0.0769764
0.0893492
0.0394101
0.0834875
0.0103537
0.0788151
0.0180044
0.0800699
0.0380138
0.0309734
0.0592224
0.0402483
0.0591416
0.00576294
0.0876508
0.0270606
0.0490344
0.0369105
0.0764736
0.065672
0.0498822
0.0343047
0.0397699
0.0712654
0.0325085
0.0487941
0.0361053
0.0708368
0.0278222
0.0535065
0.0446302
0.086712
0.0365838
0.0424904
0.0404178
0.0437202
0.0806656
0.0585462
0.0350354
0.0387949
0.0395543
0.0274112
0.054509
0.0362909
0.0213071
0.0135143
0.08633
0.0278817
0.0378165
0.00356433
0.00432798
0.0227848
0.0881651
0.0825372
0.0416524
0.062778
0.0830994
0.0272453
0.0859413
0.0653966
0.0768461
0.0356317
0.0805781
0.027856
0.0038129
0.0275108
0.0562908
0.033173
0.0376521
0.0893345
0.0440703
0.0502112
0.0762732
0.0406043
0.0400081
0.0898077
0.0837511
0.0421716
0.00266819
0.0896205
0.040467
0.0300718
0.0355289
0.0307824
0.0368364
0.0413583
0.0448311
0.00441437
0.0355016
0.0633596
0.0650094
0.0339786
0.0283851
0.0279766
0.030618
0.0385399
0.0384849
0.0635115
0.040832
0.0816345
0.0486594
0.0313848
0.0295603
0.031944
0.0866136
0.0868817
0.0291263
0.0429367
0.064739
0.0377458
0.0660752
0.081142
0.0416867
0.0377964
0.032911
0.0447896
0.0400087
0.0561236
0.0802752
0.0289953
0.0285107
0.016936
0.00444077
0.0688159
0.0336057
0.0438285
0.0763867
0.0499541
0.0426525
0.0296843
0.0747143
0.0852098
0.0838267
0.0357944
0.0885752
0.0476342
0.0897697
0.0046139
0.0408621
0.0800832
0.0377157
0.0114409
0.028964
0.0397081
0.0469682
0.0526702
0.041751
0.0660256
0.0443758
0.0398155
0.0467961
0.0643312
0.040127
0.0841278
0.00227339
0.069892
0.0386077
0.0043274
0.0641594
0.0233579
0.0248964
0.0446273
0.0822434
0.0426667
0.0654565
0.0755919
0.0430474
0.0446887
0.0438031
0.0401944
0.0379615
0.0273775
0.0300121
0.0371868
0.0302004
0.00414975
0.0924826
0.043067
0.0768618
0.00463213
0.0853764
0.0535935
0.00293083
0.0684579
0.0285163
0.0601155
0.0573386
0.0268666
0.0384278
0.0274288
0.043295
0.0417066
0.0663687
0.024581
0.00531675
0.0416317
0.0311836
0.0307183
0.0328065
0.0271401
0.0842715
0.00272696
0.039396
0.0272445
0.0532052
0.0275431
0.0408106
0.0679268
0.0834071
0.0718149
0.0320848
0.0313892
0.0447269
0.0304359
0.0318374
0.030801
0.058269
0.076617
0.0127396
0.00494767
0.0312835
0.040545
0.0581742
0.0569538
0.0434395
0.0493461
0.0526656
0.0276917
0.087594
0.0880105
0.047565
0.00533871
0.0298034
0.0396545
0.043139
0.0416543
0.0493973
0.0339354
0.0409585
0.0391453
0.0708584
0.055174
0.0521814
0.0299934
0.0308622
0.033761
0.0798781
0.0632076
0.00245086
0.0312314
0.0896201
0.0815461
0.0385406
0.0471799
0.0875607
0.0492561
0.0178506
0.026698
0.0537235
0.040671
0.030414
0.0459155
0.00898248
0.0636421
0.0151507
0.0892336
0.0524095
0.029141
0.0593904
0.027153
0.0308945
0.0425257
0.0705178
0.0289617
0.0275278
0.00448834
0.0251104
0.0305567
0.00369046
0.0662301
0.0645559
0.0329767
0.0322857
0.0314494
0.0030564
0.0398015
0.0349177
0.0412357
0.0842298
0.0376203
0.03164
0.0456672
0.0398434
0.00444567
0.0385889
0.00217784
0.0381712
0.0154669
0.0638029
0.0582699
0.0595799
0.0146284
0.0281486
0.0432623
0.0421362
0.0363981
0.00351476
0.0407902
0.0309176
0.0878118
0.0285365
0.0317425
0.0870732
0.0186023
0.0423762
0.0354998
0.0296268
0.0339519
0.040232
0.0426533
0.0607689
0.0407286
0.0851417
0.0882255
0.00889931
0.0374071
0.0873059
0.0328545
0.0267506
0.00946637
0.0753228
0.0381889
0.0396253
0.0385365
0.0465603
0.0332342
0.0339304
0.0536868
0.0340905
0.026636
0.0268975
0.0190833
0.0370463
0.0759485
0.0266741
0.079261
0.00393619
0.0446736
0.00492623
0.0306975
0.0793739
0.0697606
0.0848123
0.0819137
0.0818298
0.0560318
0.0402158
0.039461
0.0271452
0.0299402
0.0323031
0.0438799
0.0519622
0.00422335
0.0298936
0.0411935
0.0367367
0.0352545
0.0342256
0.0349277
0.0437128
0.0405329
0.041771
0.0437475
0.0420378
0.0383267
0.0404116
0.0410457
0.070742
0.0752506
0.0188073
0.0382573
0.0286007
0.0581926
0.0402608
0.0168824
0.0402469
0.0090269
0.0359408
0.0530777
0.0857134
0.0438601
0.03864
0.0396284
0.0371981
0.0382233
0.079964
0.0339243
0.0360751
0.0396126
0.0291088
0.0780352
0.0295989
0.0530817
0.0380305
0.0367552
0.0436374
0.0405168
0.0667945
0.0596354
0.0402525
0.0363067
0.0354132
0.0412338
0.0780948
0.0143485
0.0659896
0.0588258
0.0209397
0.0725173
0.0456139
0.0656059
0.0495041
0.070348
0.0144069
0.0339802
0.0708615
0.0798423
0.0244875
0.0134536
0.0508062
0.0399523
0.0344426
0.0403382
0.00985919
0.0872342
0.0114845
0.0385152
0.0445056
0.0872158
0.0755574
0.0380384
0.0305963
0.0409538
0.0359418
0.0297703
0.0317409
0.0458281
0.0405305
0.0295956
0.0270567
0.0900336
0.0426007
0.0814479
0.0870447
0.0168469
0.0352036
0.0545362
0.0563385
0.0209242
0.0435945
0.0398851
0.0269603
0.0754268
0.0703609
0.0807003
0.0450642
0.040211
0.0369738
0.0103966
0.0439722
0.0483092
0.0406108
0.0288591
0.0746286
0.0357939
0.0441446
0.0402829
0.0784415
0.0445938
0.0385487
0.0284382
0.0404616
0.0289505
0.082308
0.0764968
0.0840957
0.0518574
0.0263564
0.0527607
0.0359317
0.061508
0.093091
0.0401359
0.0370038
0.00926022
0.083817
0.0129804
0.0419292
0.0331458
0.0653175
0.0338561
0.0512797
0.0457679
0.0299491
0.0392004
0.0779604
0.0429473
0.0444185
0.0883036
0.0327686
0.0632222
0.0418337
0.0532529
0.0268971
0.0446297
0.00217258
0.0576804
0.0373567
0.0324418
0.0844481
0.0448801
0.0694292
0.0433386
0.0653787
0.0295407
0.0504144
0.0390883
0.0698919
0.0474221
0.0740951
0.074529
0.0297348
0.0146639
0.0456868
0.0474099
0.0683501
0.0513144
0.0564533
0.0516156
0.0607197
0.0696382
0.0348571
0.0726617
0.0778104
0.0415333
0.082784
0.0753416
0.0380226
0.0304695
0.043226
0.0838044
0.0277985
0.0309647
0.0310118
0.0755799
0.0898209
0.0445143
0.0507307
0.0604497
0.0364561
0.0409049
0.0381073
0.040118
0.029573
0.0417104
0.0406777
0.0419723
0.0415644
0.0849878
0.00385528
0.0401304
0.0398317
0.0674188
0.0514055
0.0681222
0.0405602
0.0284783
0.0219161
0.0731649
0.0274234
0.0268123
0.0660996
0.0654324
0.0415813
0.0383601
0.0576751
0.00606521
0.0647569
0.0756194
0.00195891
0.018155
0.0409339
0.0829091
0.0642143
0.0318954
0.0320098
0.0470905
0.0301532
0.0438401
0.0190674
0.0417946
0.0606493
0.0781913
0.0301627
0.0724328
0.0758273
0.0434584
0.0190865
0.0350322
0.0693172
0.0552449
0.039275
0.0352304
0.0902718
0.0407207
0.0402564
0.0348547
0.0390196
0.089126
0.044437
0.056272
0.045976
0.0401887
0.0317963
0.0280894
0.042971
0.044392
0.0438734
0.0607015
0.0323153
0.0383449
0.0424199
0.0313168
0.0738907
0.0308732
0.0510089
0.0363009
0.0896986
0.0378473
0.0457838
0.0390123
0.0172755
0.0286255
0.0408657
0.0211608
0.0429512
0.0313541
0.0401182
0.0788674
0.0310591
0.0807649
0.025251
0.0386184
0.0582856
0.0563842
0.0285563
0.0872295
0.0306981
0.0599207
0.0411353
0.0610769
0.0380027
0.00213983
0.093258
0.0291241
0.0584477
0.0395908
0.0316528
0.0293848
0.0297062
0.0363793
0.042617
0.0395599
0.0295844
0.0226764
0.0429489
0.0368616
0.0275357
0.0383078
0.012139
0.0656766
0.00486442
0.05264
0.0386297
0.0895712
0.0287967
0.0320574
0.0386492
0.0277077
0.0282509
0.0562587
0.042435
0.0401124
0.0630002
0.0300704
0.0209594
0.00245325
0.0836383
0.0327637
0.00367191
0.0153025
0.0631595
0.0157271
0.0206353
0.0241352
0.0689603
0.0397805
0.0210066
0.0415845
0.0316407
0.0411865
0.0810505
0.0378011
0.0422667
0.0299162
0.0683789
0.0173744
0.0330704
0.0628848
0.0708782
0.0535158
0.0455841
0.0398358
0.0435197
0.046721
0.0414821
0.0861079
0.0629157
0.0355548
0.0304601
0.0432577
0.045591
0.044865
0.0448289
0.0797405
0.0114811
0.0364899
0.0366229
0.0672955
0.0410961
0.0863129
0.0498372
0.0656559
0.0399533
0.0395644
0.0578305
0.081474
0.0363889
0.0421986
0.0253871
0.0411926
0.0369405
0.0644561
0.0384282
0.0492615
0.0631783
0.0852047
0.0394036
0.0641432
0.0430679
0.0378533
0.0342491
0.0696315
0.0466662
0.0461472
0.0427611
0.0387577
0.0286201
0.0416347
0.063841
0.0835718
0.0722365
0.0391044
0.0490152
0.0906025
0.0405377
0.0281145
0.0258492
0.0396883
0.0767884
0.0419933
0.0355593
0.0334151
0.0478221
0.0287204
0.028724
0.0364908
0.00691427
0.00617897
0.0413421
0.0497688
0.0442987
0.0344285
0.047762
0.0400416
0.0421085
0.0838832
0.0474855
0.0304153
0.0235815
0.0311612
0.0343522
0.0413553
0.0319748
0.0670655
0.042562
0.034044
0.0681668
0.0749501
0.0588568
0.0347957
0.0406036
0.0444213
0.0341299
0.077358
0.0391337
0.0871565
0.0876563
0.0837604
0.0284218
0.0286919
0.0403981
0.0401141
0.039196
0.0160057
0.0728438
0.0285346
0.0271172
0.0279546
0.0444164
0.057455
0.010886
0.0334639
0.0455631
0.0450275
0.0439004
0.00891251
0.0693267
0.031603
0.0284138
0.0722606
0.0319153
0.0384721
0.0817697
0.0344584
0.0210434
0.069124
0.0400566
0.0306531
0.0376031
0.0260546
0.0268659
0.0441384
0.0801232
0.0302251
0.0633328
0.041655
0.0425863
0.0417356
0.0890984
0.086993
0.0294157
0.0397123
0.0260583
0.00999104
0.0399801
0.0719123
0.0843778
0.0541745
0.0130326
0.0853666
0.0154824
0.0268295
0.0587076
0.0552605
0.0849762
0.086462
0.0308951
0.0792088
0.0468648
0.0385966
0.0383461
0.0384309
0.0405311
0.088117
0.0149963
0.0354319
0.0387301
0.0471824
0.0478774
0.0394249
0.0358692
0.0597684
0.0357417
0.0613262
0.0535014
0.0373311
0.0407234
0.040956
0.033881
0.0385244
0.0334933
0.0289807
0.0426044
0.0135178
0.0290112
0.0173308
0.0281435
0.0334024
0.0263586
0.0443806
0.0369851
0.0338569
0.0742661
0.0877088
0.0372669
0.0277895
0.039959
0.0411688
0.0649399
0.0263077
0.0264146
0.0384487
0.0234801
0.0829808
0.027466
0.0292094
0.0341428
0.0373239
0.0387546
0.0324192
0.0704695
0.0803506
0.0452043
0.0280815
0.082837
0.0417188
0.0801138
0.08104
0.040967
0.0797263
0.082101
0.0648028
0.0475149
0.0167177
0.047315
0.048009
0.0466479
0.0734713
0.0324808
0.0559367
0.0842069
0.0712372
0.0467781
0.0289384
0.0296045
0.0429579
0.0295353
0.0820952
0.0229117
0.0376724
0.079556
0.046176
0.085471
0.085502
0.0300459
0.0143798
0.0304345
0.0593951
0.081476
0.0497979
0.0483142
0.0464846
0.10239
0.138608
0.155406
0.16196
0.162479
0.158796
0.152313
0.144064
0.134802
0.125137
0.115477
0.106129
0.0972742
0.0890142
0.0813938
0.0744156
0.0680526
0.0622596
0.0569783
0.0521341
0.101826
0.13773
0.154489
0.161105
0.161726
0.158179
0.151844
0.143758
0.134664
0.125136
0.115589
0.106341
0.0975697
0.0893755
0.081803
0.0748541
0.0685007
0.0626949
0.0573732
0.0524535
0.101211
0.136813
0.153517
0.160207
0.160931
0.157527
0.151348
0.143419
0.134494
0.125111
0.115684
0.106539
0.0978505
0.0897205
0.0821931
0.0752698
0.0689219
0.0631004
0.0577404
0.0527647
0.100549
0.135852
0.152498
0.159268
0.160098
0.156843
0.150826