/*--------------------------------*- C++ -*----------------------------------*\
  =========                 |
  \\      /  F ield         | OpenFOAM: The Open Source CFD Toolbox
   \\    /   O peration     | Website:  https://openfoam.org
    \\  /    A nd           | Version:  10
     \\/     M anipulation  |
\*---------------------------------------------------------------------------*/
FoamFile
{
    format      ascii;
    class       volScalarField;
    location    "350";
    object      nut;
}
// * * * * * * * * * * * * * * * * * * * * * * * * * * * * * * * * * * * * * //

dimensions      [0 2 -1 0 0 0 0];

internalField   nonuniform List<scalar> 
23845
(
0.0143829
0.0142438
0.00755706
0.0126894
0.0176673
0.0434741
0.0096195
0.00892746
0.053066
0.0162371
0.0209624
0.0401713
0.0391101
0.0495414
0.00713975
0.019032
0.0278337
0.0229685
0.032957
0.0367304
0.0139802
0.0213746
0.0154205
0.0534371
0.0182498
0.061287
0.011648
0.0414581
0.0032257
0.0389318
0.013624
0.00115419
0.00541055
0.0234569
0.0398616
0.0361067
0.000990114
0.0399278
0.0419252
0.0545202
0.0300494
0.0287922
0.046573
0.025149
0.0603419
0.036776
0.0181368
0.0190345
0.00205629
0.00183921
0.00524898
0.00946739
0.00117063
0.0460302
0.00111354
0.0296782
0.0144036
0.0100252
0.0138977
0.0133344
0.00557356
0.0253509
0.0201173
0.0039544
0.0550757
0.0397748
0.0115718
0.0664008
0.0615067
0.0280385
0.00742273
0.00767354
0.0551477
0.00788579
0.0569512
0.00726737
0.0406063
0.0416048
0.0118848
0.023697
0.0130418
0.0081445
0.0143192
0.0102593
0.00665634
0.0400194
0.00933406
0.00108246
0.0552429
0.0243893
0.00431351
0.023229
0.00348178
0.0375466
0.00968117
0.00505131
0.0339575
0.0185603
0.0570559
0.0186015
0.0301594
0.0111125
0.0164543
0.000838331
0.00280305
0.0108219
0.0447775
0.0582291
0.0129059
0.0263695
0.0210493
0.0402029
0.00686281
0.0171022
0.035912
0.0153305
0.0558394
0.0178377
0.00339245
0.00619144
0.0411823
0.00234495
0.0244574
0.00743715
0.0107025
0.059246
0.00614517
0.00185012
0.00637065
0.0167819
0.00480559
0.0195495
0.0208276
0.0472451
0.0258197
0.0155226
0.000701374
0.0403877
0.0129614
0.0421512
0.00211888
0.0289406
0.041605
0.0243125
0.0213668
0.0262887
0.0164689
0.00748927
0.0050132
0.0225572
0.00602294
0.0481914
0.0104128
0.047426
0.0065238
0.0214089
0.0174475
0.0388535
0.00453268
0.00473419
0.0226043
0.00701496
0.00919189
0.0544862
0.048777
0.0223422
0.045214
0.00269768
0.0402764
0.027706
0.0479158
0.0121018
0.0537349
0.00832256
0.0572988
0.011093
0.0221514
0.0207894
0.0583178
0.0395868
0.0186503
0.01899
0.00809559
0.0214138
0.0198802
0.0320163
0.0265422
0.00974437
0.00264924
0.0305118
0.00343477
0.0491688
0.0522717
0.0479219
0.0215577
0.0507301
0.00191692
0.00269676
0.000786666
0.0207026
0.0223437
0.0492981
0.0055484
0.0204922
0.00971866
0.00930352
0.00743618
0.0434589
0.0124948
0.0228491
0.0233204
0.00257192
0.021345
0.0424343
0.00306661
0.00111542
0.0211092
0.0252013
0.000490443
0.00540104
0.053298
0.00755555
0.00176438
0.0211813
0.0250693
0.00613771
0.000697942
0.0488879
0.0447262
0.0252886
0.0402595
0.00268657
0.0400123
0.0649536
0.0181563
0.00462503
0.055429
0.013434
0.0546826
0.0112658
0.00146195
0.0170162
0.0108306
0.0188321
0.0028187
0.0197862
0.0455015
0.0613863
0.010316
0.00708807
0.0397548
0.039171
0.00522743
0.0419482
0.0080161
0.00437727
0.0061765
0.00657571
0.0362738
0.0524518
0.000765789
0.0380314
0.00667786
0.0210042
0.0217683
0.0568492
0.0116844
0.00632843
0.0144133
0.0131031
0.0409581
0.0118073
0.00472969
0.0507815
0.0215327
0.0526384
0.00638781
0.0482527
0.00194992
0.0157231
0.0105638
0.0447191
0.00675885
0.0215089
0.0392418
0.00522569
0.00926268
0.0500266
0.0094275
0.00699173
0.011175
0.00344581
0.00441402
0.006263
0.0103248
0.0396769
0.00446979
0.0464017
0.0396794
0.00368524
0.00426142
0.00628609
0.00451697
0.0134937
0.0487546
0.0137625
0.0036018
0.00490337
0.0312301
0.00175114
0.00447331
0.0113246
0.0367398
0.0476603
0.0103778
0.0020341
0.00470302
0.0211468
0.00410755
0.0519449
0.00256921
0.00265352
0.00427488
0.0410374
0.00706804
0.0445225
0.0126513
0.0163012
0.00649282
0.0227069
0.0081532
0.0216528
0.0050127
0.0376651
0.00591231
0.0129847
0.0116835
0.0228737
0.0276089
0.0120659
0.0113571
0.00458801
0.0212635
0.0633625
0.05987
0.00144003
0.0380704
0.00565541
0.0123082
0.00588464
0.012424
0.00488547
0.00172156
0.00612855
0.00117158
0.0522337
0.0274852
0.0551429
0.00742456
0.0106122
0.00672743
0.0593341
0.0167109
0.0227117
0.00294201
0.0457755
0.00639322
0.0380201
0.00351569
0.0617458
0.0275434
0.00377945
0.00294754
0.0405294
0.0388505
0.00486357
0.0097037
0.0123771
0.0290644
0.0107422
0.00756253
0.0377361
0.0150208
0.0603253
0.0642448
0.040705
0.0415046
0.0117148
0.0224601
0.0105431
0.0108422
0.0262554
0.00337987
0.00273092
0.00402389
0.00385569
0.0219714
0.0589067
0.0269823
0.0372114
0.011159
0.0148072
0.00829668
0.0105341
0.0132329
0.00777688
0.0432252
0.00314408
0.00290407
0.00686111
0.00644435
0.0655768
0.00906416
0.00557079
0.0170843
0.0095047
0.0148179
0.0217284
0.0431878
0.0159513
0.00387382
0.031507
0.052042
0.012359
0.00721954
0.0136725
0.00357719
0.0135892
0.0084043
0.00758717
0.0497955
0.0232503
0.00445121
0.0227611
0.0382034
0.0561335
0.0402893
0.0329065
0.00419534
0.00954427
0.00716824
0.00332556
0.00258048
0.00607205
0.0141337
0.00427637
0.0388857
0.0162932
0.0424422
0.0111118
0.0119753
0.0508881
0.00301727
0.0380601
0.064738
0.0048651
0.0140538
0.0201742
0.00750587
0.0470625
0.0116431
0.0131354
0.000713696
0.0150162
0.0413009
0.0422462
0.0465538
0.0029239
0.0623793
0.0056806
0.0402538
0.0443564
0.0146653
0.00662538
0.00383542
0.018346
0.0525256
0.00304554
0.0442893
0.0238414
0.0175543
0.0160918
0.0139925
0.0219792
0.0223731
0.00809948
0.0404571
0.0406932
0.00869419
0.00601016
0.0617166
0.00474732
0.00532435
0.0168644
0.00924931
0.0182257
0.0554822
0.00890066
0.0563013
0.0386907
0.00951438
0.00225709
0.00504319
0.0180775
0.0106326
0.0114426
0.021347
0.0371008
0.0387675
0.00547004
0.0140507
0.00460902
0.00104141
0.0143512
0.0501555
0.0614325
0.015543
0.00530241
0.00577796
0.0294086
0.0007266
0.0469818
0.0228575
0.00395284
0.0603626
0.00921042
0.00775982
0.00429276
0.0142063
0.00365183
0.00480879
0.00409028
0.0199806
0.016252
0.0270443
0.0360085
0.0453416
0.00531201
0.019386
0.0119667
0.00706039
0.0477021
0.0160444
0.015875
0.0227368
0.0157142
0.0219932
0.0459558
0.0425139
0.0444622
0.0481645
0.0395563
0.00764223
0.0456308
0.00969701
0.0117244
0.0292716
0.00473064
0.0376363
0.0400547
0.010221
0.0125512
0.0141197
0.037295
0.0275561
0.00268555
0.00306002
0.0581428
0.0038382
0.040957
0.0582751
0.00911968
0.0311526
0.0462512
0.0181665
0.0190863
0.00716002
0.00520414
0.00730141
0.0192419
0.057168
0.0404165
0.0221913
0.0077136
0.00406908
0.026766
0.0541441
0.0541429
0.00739102
0.0545185
0.0163337
0.00618743
0.0134613
0.0216885
0.00619578
0.0265581
0.0592665
0.0470076
0.0231102
0.0413502
0.00877534
0.0443186
0.0203085
0.0075952
0.0103205
0.019026
0.00684965
0.0197552
0.00885206
0.0215339
0.0176184
0.0174454
0.0133777
0.0197044
0.00377682
0.0154039
0.0212021
0.0180153
0.0389007
0.0455272
0.0199395
0.00583323
0.0189957
0.0219645
0.0164121
0.0224315
0.0323222
0.0234257
0.0445528
0.0193709
0.0401302
0.0433866
0.0165257
0.0421697
0.0402998
0.00652673
0.0161726
0.0179134
0.0568965
0.0221561
0.0156921
0.0225116
0.0381619
0.0390724
0.0148221
0.0203936
0.01368
0.0429375
0.0192797
0.00621686
0.0348268
0.0388786
0.0213051
0.0113768
0.00485512
0.00464145
0.00434131
0.0185462
0.00686379
0.0216177
0.0226078
0.025711
0.0234518
0.0170265
0.0254857
0.0570956
0.0457426
0.0194046
0.0149812
0.0196392
0.0199582
0.0223875
0.0207019
0.0223217
0.0223934
0.0218813
0.0224461
0.0214977
0.0207339
0.0240872
0.0203621
0.0225331
0.0300871
0.0226359
0.0243274
0.0199589
0.0310987
0.0228209
0.0211262
0.019531
0.023176
0.0324057
0.022331
0.0222468
0.0221448
0.0221381
0.0220286
0.0224043
0.021704
0.0224511
0.0203032
0.0225671
0.020812
0.0226688
0.0239225
0.0245981
0.0229706
0.0235494
0.023316
0.0392315
0.029501
0.014902
0.0535606
0.0345934
0.0283396
0.023758
0.0439115
0.0213703
0.0240866
0.022262
0.0221955
0.0225002
0.0246087
0.0298893
0.0353492
0.0190645
0.0206749
0.0210115
0.0511083
0.0219795
0.0254014
0.023252
0.0367235
0.0317387
0.0218236
0.0234542
0.0207147
0.0245353
0.0488242
0.0384682
0.0592566
0.0259804
0.0225058
0.0077531
0.0540267
0.0253752
0.0214346
0.0264054
0.0364542
0.0365791
0.00778624
0.0310982
0.0606982
0.0201568
0.0289545
0.00668526
0.0198431
0.0203292
0.0220973
0.0221715
0.0215514
0.0291148
0.0224102
0.0222103
0.021992
0.0225139
0.0216145
0.0227359
0.0154041
0.023001
0.0278945
0.0220618
0.0220621
0.0215094
0.0122447
0.0209558
0.0376255
0.0187838
0.0210263
0.024104
0.023551
0.0226911
0.00450738
0.0523686
0.0212454
0.0270933
0.0362411
0.0243031
0.0268042
0.0274697
0.024091
0.0345938
0.0249693
0.0310256
0.0256587
0.0355926
0.0163901
0.0225626
0.0387971
0.0232643
0.0238032
0.0372935
0.021178
0.0219353
0.0214158
0.0227996
0.0287325
0.0380655
0.0303279
0.0334182
0.0160457
0.0193612
0.0218353
0.0241519
0.028028
0.0223081
0.00389874
0.021879
0.0258814
0.0223202
0.047041
0.0408653
0.0217348
0.0433116
0.0357604
0.054899
0.033502
0.0512399
0.0495251
0.0491303
0.0526286
0.0567403
0.0331917
0.0311554
0.0468994
0.0383521
0.0204298
0.0251907
0.0243407
0.00821241
0.0217844
0.0577081
0.0577212
0.0286677
0.0190018
0.0221859
0.0213313
0.0222516
0.0235649
0.0279223
0.026336
0.0229949
0.0206314
0.0226148
0.0387402
0.0280531
0.0445011
0.0247912
0.0405992
0.0075431
0.0394061
0.0194449
0.0272537
0.0209645
0.0290756
0.0386286
0.0225336
0.0274344
0.018228
0.0194298
0.0260316
0.0176425
0.0403943
0.0357934
0.0510598
0.0521341
0.0546902
0.0554784
0.0355179
0.0249381
0.0284251
0.0194759
0.0354519
0.0200819
0.0187583
0.0219689
0.0253168
0.0179414
0.0266935
0.0530256
0.0221357
0.0558691
0.0190768
0.034694
0.0550872
0.0173068
0.0389663
0.0503699
0.0220111
0.0406617
0.0231499
0.0154768
0.022256
0.0327703
0.0224311
0.0395596
0.0228405
0.0283877
0.0211763
0.00345939
0.0384545
0.0225307
0.0223326
0.0223021
0.0201565
0.022202
0.027961
0.0217232
0.0229844
0.0243711
0.00620109
0.00244565
0.0238715
0.0248254
0.0452295
0.0153722
0.0337875
0.00679807
0.0257775
0.050232
0.0293763
0.0343615
0.0306262
0.0260368
0.0388582
0.0195176
0.0286172
0.014995
0.0219854
0.0212379
0.0269254
0.021062
0.022479
0.0223365
0.0222656
0.0248994
0.0197902
0.0227272
0.0222274
0.0221928
0.0220325
0.0229167
0.0211186
0.0216881
0.0227358
0.0203033
0.0207372
0.0218365
0.0188272
0.0299349
0.0231529
0.0246643
0.0237766
0.0344648
0.0243185
0.0209429
0.0249457
0.0297485
0.021665
0.021793
0.0214343
0.0263471
0.0153891
0.0298186
0.0317847
0.0256546
0.0250269
0.0238733
0.0495844
0.0219341
0.0202976
0.0157918
0.0431063
0.0261831
0.0220453
0.0218603
0.0306923
0.0183396
0.0224459
0.0226277
0.0221395
0.0186262
0.0260969
0.0220313
0.0217676
0.0216988
0.0197217
0.0210987
0.0205529
0.0409096
0.0245455
0.023843
0.0277709
0.0219671
0.0208166
0.0329834
0.00177868
0.0422039
0.00516898
0.0409054
0.0415683
0.00189449
0.0309832
0.0655729
0.0407662
0.0542284
0.0305165
0.0276226
0.0353977
0.0309547
0.0215331
0.00528509
0.0290621
0.0225074
0.0254927
0.0182636
0.0173647
0.016475
0.0216706
0.0286477
0.0277957
0.0256916
0.0432036
0.0584634
0.0445945
0.0191134
0.0209916
0.0202607
0.0183128
0.0193767
0.0178387
0.0173286
0.021899
0.0262915
0.0208837
0.0197933
0.0193602
0.0220438
0.020355
0.0220829
0.0237421
0.0222271
0.0244454
0.0222418
0.0224099
0.0238704
0.0224757
0.0226519
0.0229282
0.0251621
0.0306987
0.0224261
0.0163253
0.0214259
0.0293548
0.016861
0.0302565
0.0508569
0.024077
0.0409103
0.0223984
0.0234018
0.0279085
0.0253074
0.0281522
0.0363661
0.0197266
0.0445892
0.0318785
0.0160119
0.0266066
0.0576603
0.0223377
0.0209862
0.0223431
0.00407272
0.00812019
0.037573
0.0206293
0.019906
0.0217706
0.0231035
0.0305723
0.0219251
0.0216535
0.0220409
0.0222113
0.0222962
0.0223533
0.00269633
0.0225406
0.018422
0.0278158
0.023048
0.0187736
0.0294322
0.0260837
0.00432075
0.0239173
0.0599077
0.0439333
0.0246376
0.0356369
0.0269389
0.0309602
0.0413918
0.0209772
0.0250712
0.0258892
0.0151116
0.0314875
0.0300846
0.0335489
0.013951
0.0374931
0.0357518
0.0209865
0.0506434
0.0568556
0.029197
0.0405542
0.0303643
0.00838654
0.0498612
0.0277445
0.0212681
0.0212756
0.0208471
0.0216566
0.0219463
0.0410837
0.0234475
0.0265874
0.0258332
0.0345119
0.0212736
0.0242549
0.0414082
0.0313789
0.0225815
0.0254354
0.011815
0.00959356
0.0366223
0.0323816
0.0412735
0.0188041
0.02787
0.0536806
0.0215781
0.0283259
0.0129296
0.0334523
0.0431174
0.0318686
0.0230709
0.0325108
0.0377587
0.0215064
0.0361846
0.0198208
0.0249978
0.0464078
0.0220374
0.034911
0.0218041
0.0220703
0.0233713
0.0211573
0.023082
0.0317219
0.0225353
0.0223117
0.0419743
0.0234053
0.0358696
0.0272115
0.020223
0.0558646
0.0480755
0.0191218
0.0521418
0.0320636
0.0180594
0.053625
0.0370401
0.0170608
0.0395995
0.046017
0.0175938
0.0203533
0.0177452
0.0510312
0.0442893
0.0173852
0.042731
0.0357822
0.0188924
0.0192616
0.0197802
0.0270831
0.0162504
0.0329785
0.0243093
0.0186931
0.0218626
0.0383861
0.0220165
0.0179512
0.00240111
0.039957
0.0291204
0.032141
0.0397273
0.0325779
0.024965
0.0270322
0.00661319
0.0226099
0.0257338
0.0216523
0.0252392
0.0220638
0.0307073
0.0147997
0.0323846
0.0274508
0.0169409
0.0399265
0.02269
0.0334964
0.0437497
0.00510865
0.0329018
0.0164911
0.0220925
0.0217113
0.0091945
0.0124145
0.0207403
0.0398246
0.0405635
0.0175291
0.0391073
0.0383195
0.0354812
0.0146601
0.0401983
0.043424
0.0354419
0.0179814
0.0315286
0.0284336
0.0237343
0.0348287
0.0034366
0.0239827
0.0223179
0.0177051
0.0403206
0.000823515
0.0381909
0.00418672
0.0339246
0.017178
0.0264732
0.0257785
0.0351424
0.0230943
0.022147
0.0270242
0.0215972
0.0198928
0.0449182
0.026672
0.0344971
0.0199876
0.0201215
0.0453594
0.023738
0.0260095
0.0229951
0.02166
0.021559
0.0231239
0.0211685
0.0213525
0.015646
0.0230549
0.0171522
0.0507803
0.0223427
0.0321792
0.0451545
0.00656233
0.0182369
0.0190827
0.0465059
0.018916
0.026611
0.0314789
0.0179848
0.0303993
0.0123803
0.00544127
0.0184397
0.0216475
0.0447785
0.00563783
0.0218185
0.0220404
0.0228735
0.0180338
0.0144064
0.0357669
0.03396
0.00596344
0.0110159
0.0428264
0.0185021
0.0175954
0.0390141
0.00496194
0.0296308
0.0150758
0.0251185
0.0188007
0.0571441
0.0181274
0.0135719
0.0403985
0.00693281
0.0157225
0.0542021
0.00721204
0.0429188
0.0173127
0.0153294
0.0113198
0.0424461
0.0192971
0.0141805
0.0236538
0.0174064
0.0279774
0.0278904
0.022743
0.0225474
0.0169827
0.03349
0.0483854
0.0197259
0.025123
0.0316646
0.0234407
0.0450109
0.0222601
0.0223828
0.0169836
0.0110645
0.017882
0.0330585
0.0220905
0.038729
0.0233639
0.0217404
0.0272279
0.00656964
0.0514959
0.0168687
0.00090018
0.0443017
0.0435469
0.0213968
0.0200428
0.0168627
0.0144668
0.0220737
0.0232437
0.0221812
0.0484295
0.037281
0.0365024
0.0591101
0.0352262
0.0314123
0.0159277
0.00493457
0.0333465
0.042837
0.0242269
0.0132856
0.0349193
0.0214737
0.0242124
0.0226481
0.0263174
0.0228289
0.0210777
0.0206219
0.0222061
0.035837
0.0216448
0.00887354
0.00678979
0.029506
0.0229772
0.0206459
0.0221697
0.0485721
0.0323322
0.0272491
0.0221425
0.0223677
0.00218466
0.0520781
0.00649534
0.030241
0.0338481
0.0117475
0.0222582
0.0202234
0.0219011
0.021287
0.0209041
0.0223164
0.0454892
0.0172514
0.0352067
0.0246694
0.0237349
0.0231164
0.0113711
0.021681
0.0246206
0.0219275
0.0176103
0.00746669
0.0217765
0.0460753
0.0132634
0.0333275
0.0375747
0.0208455
0.0168604
0.00519693
0.00379926
0.0221174
0.0341662
0.0206652
0.0447608
0.014878
0.0186733
0.0344553
0.021682
0.0163872
0.0290149
0.012801
0.0218414
0.0205141
0.0266682
0.0139059
0.0191025
0.0444725
0.0235232
0.00696466
0.0458312
0.0479266
0.0166395
0.0373518
0.0213872
0.0194382
0.0172339
0.00523768
0.0566241
0.0493933
0.0491496
0.00453181
0.0470092
0.0381866
0.0241925
0.0100505
0.0373585
0.0490414
0.0468367
0.00994613
0.0187388
0.0344082
0.0229009
0.0371282
0.0387448
0.0508851
0.0096106
0.0216063
0.0350069
0.03368
0.0165541
0.0207245
0.0348982
0.0206352
0.0356052
0.0390129
0.00694355
0.046126
0.0205802
0.0385057
0.0204541
0.009457
0.00559817
0.0024451
0.0081459
0.0115405
0.0481091
0.0176588
0.0350344
0.0451198
0.0252421
0.0168253
0.0325032
0.00639495
0.00376837
0.0290597
0.0287466
0.0141876
1.67134e-05
0.018499
0.00963199
0.0203276
0.0154888
0.0345756
0.0184431
1.39312e-05
0.0413813
0.0132838
0.0442648
0.041241
0.0155131
0.00300453
0.00710632
0.013565
0.0148934
0.0417454
0.00171878
0.0348118
0.015832
0.0380402
0.0135435
0.0186284
0.0507355
0.0176666
0.0397522
0.0498449
0.0456546
0.00250598
0.0136751
0.00777406
0.00700091
0.0308095
0.0142466
0.042628
0.0457257
0.0400467
0.0187908
0.00873756
0.0458975
0.026059
0.0134118
0.00529743
0.0221764
0.0449038
0.0110685
0.0408619
0.0287448
0.0303613
0.0591908
0.0356027
0.0529979
0.0367229
0.00738526
0.0308156
0.024686
0.0352887
0.0195898
0.0121083
0.01941
0.0583034
0.0113763
0.0173111
0.0196424
0.0450569
0.00372447
0.0514934
1.40728e-05
0.0110903
0.0101436
0.0253109
0.0302834
0.0118373
0.0131126
0.0481975
0.034304
0.0149224
0.0162391
0.0165048
0.0246651
1.44677e-05
0.0314116
0.00651769
0.0242308
0.0044329
0.0363075
0.0358096
0.0237611
0.0223004
0.00364462
0.0428323
0.0124685
0.00255239
0.0223708
0.0203547
0.0163594
1.8592e-05
0.0189186
0.0435616
0.0198242
0.0193428
0.0137575
0.0587549
0.0120711
0.0166888
0.0128021
2.67549e-05
0.0526215
0.0421658
0.0182208
0.00706604
0.0221103
0.0132404
0.0569288
0.0499468
0.0331978
0.0303861
0.00604297
0.0423846
0.0430771
0.0157428
0.0185948
0.0111337
0.0132124
0.00574543
0.00779694
0.0151748
0.00200354
0.0136315
0.020137
0.0258734
2.05235e-05
0.0547842
0.0115785
0.0407737
0.00417963
0.00446312
0.0235683
0.0221454
0.043101
0.0253299
0.0244164
0.0421385
0.0221496
0.0416123
0.0128633
0.0178449
0.0380822
0.0207212
0.020346
0.0133101
1.2424e-05
0.00545521
0.0101339
0.0050858
0.0125382
0.00286921
0.0216519
0.0604669
0.0038401
0.0562599
0.00579786
0.01857
0.0288594
2.37648e-05
0.0206676
0.054644
0.011783
0.0317745
0.0098985
0.0150524
0.0212713
0.00823315
0.0259752
0.0147182
0.0369165
0.0240796
0.0126222
0.000851763
0.0231618
0.0467258
0.0445361
0.0222863
0.0320395
0.00542383
0.0219079
0.0244748
0.0125405
0.0408647
0.00820862
0.0203465
0.0428413
0.0182816
0.0058888
2.21441e-05
0.00830296
0.00910569
0.0115173
0.044933
0.0144726
0.0418851
0.0410945
0.013158
0.0508841
0.00667722
0.0124516
0.0117221
0.0100689
0.0218916
0.0123781
0.0228327
0.0483641
0.0236791
0.0466859
0.0124507
0.0247797
0.0346391
0.0230141
0.00675216
0.0400399
0.0091679
3.13972e-05
0.0221135
0.00181241
2.77954e-05
0.0145092
0.0389116
0.00492238
0.033805
0.0439121
0.037878
0.00585069
0.033205
0.0503408
0.0412618
0.0158471
0.0384085
0.0108158
0.0261026
0.0223082
0.0212549
0.0422907
0.0158194
0.0404392
0.0338028
0.0182262
0.0544431
0.0223973
0.0371021
2.33422e-05
0.0194589
0.0520691
0.00329208
0.0160678
0.0125165
0.0329411
0.0440745
0.00883135
0.0116554
0.00880692
0.0126462
0.0091811
0.00986814
0.0516298
0.0106453
0.0112065
0.0265495
0.0108875
0.0511853
0.00579219
0.00417383
0.00465237
0.0189218
0.00953072
0.00113116
0.0539209
0.0404045
0.0391401
0.00784507
0.0117101
0.0034189
1.70992e-05
0.0108107
0.0250329
0.0422692
0.0123115
0.00486796
0.0121284
0.0239471
0.0163637
0.0325144
0.00778953
0.00317625
0.0103581
0.00797344
0.00612419
0.0119971
0.0338075
0.00810697
0.0115909
0.00371954
0.0122489
0.00717186
0.0208099
0.0102608
0.00407688
0.0271545
0.00619108
0.0135875
0.0277198
0.00828185
0.0243578
1.85752e-05
0.00785129
0.0168551
0.0134904
4.06681e-05
0.0234409
0.0142981
0.00606828
0.051276
0.0121227
0.0400066
0.0228517
0.0191822
0.0467771
0.0323651
0.0202256
0.046503
0.0356466
0.0429718
0.0512969
0.011613
0.0406292
0.0164268
0.000791608
0.00843918
0.0425724
0.0228703
0.0404927
0.00787479
0.0511713
0.00596287
0.00925436
0.0210786
0.0113772
0.0107905
0.00676587
0.0203776
0.032763
0.0102209
7.59646e-05
0.00581994
0.0255937
0.0392948
0.0468882
0.0203694
0.0156469
0.0375359
0.0447507
0.0367598
0.00915908
0.0492605
0.0215515
0.0220831
0.0218995
0.00781149
0.0229069
0.0291519
0.0457371
0.0106412
0.0322551
0.00916049
0.0227749
0.0212838
0.0225484
0.021048
0.00698614
0.00600523
3.72345e-05
1.57563e-05
0.0202801
0.020424
0.00987462
0.044455
0.00538934
0.0233104
0.0450655
0.0337973
0.0180879
0.0101456
0.0546722
0.0167892
0.000733408
0.00612967
0.002555
0.0107354
0.0294736
0.00825399
0.00427921
0.0229882
0.0175342
4.73589e-05
0.0158591
0.040906
0.011024
0.0521451
0.0135399
0.014485
0.0127124
0.0470948
0.0251251
0.0105295
0.0352574
0.0198925
0.0251315
0.0140621
0.0398071
0.0104599
0.0527518
0.00981291
0.0507584
0.0577314
0.0265921
0.0222999
0.010153
0.0108609
0.038907
0.0266354
0.0242046
0.0412806
0.0198663
0.0303278
0.00244718
0.00172354
0.00836259
0.0413793
0.0514176
3.08615e-05
3.23254e-05
0.00291013
0.00519126
0.011636
0.0413208
0.0140429
0.00919498
0.0362476
0.0107817
0.0214669
0.0185078
0.0268336
0.00990415
0.0417721
3.28255e-05
0.0415293
0.00496276
0.0100195
0.0517947
0.00878441
0.0446285
0.00407724
0.0147374
0.0239952
0.0433013
0.00830002
0.00492608
0.0235393
2.2992e-05
0.0134008
0.0540977
0.00497234
0.0277132
0.00752769
0.0390434
0.0526242
0.0222142
2.96572e-05
0.0356888
0.00816893
0.0204597
0.0467985
0.042368
0.0420505
0.0433412
0.0286565
0.00844843
0.0167661
0.0240183
0.0151153
0.0210618
0.0354934
0.0297903
0.0452732
0.00944675
0.0169265
0.042437
0.0224252
0.0209047
0.0226959
0.00544341
0.0199049
0.0475096
0.0440052
0.0101221
0.0537941
0.0415703
0.00771059
0.0111726
0.0430578
0.0426392
0.00232857
3.14668e-05
0.00441025
0.0470285
0.0577561
0.00441269
0.0222033
0.0590854
0.0438385
0.0113024
0.0155079
0.00616135
0.0261411
0.0111487
0.0140134
0.00663934
3.6328e-05
0.0468997
0.019551
0.0502392
0.000827386
0.0390735
0.0470655
0.0197032
0.0176794
0.0240445
0.0211653
0.0565639
0.0256887
0.0219603
0.00898824
0.0308783
0.00862049
1.84768e-05
0.0129787
0.0482654
2.15779e-05
0.0156272
0.00539687
0.00564301
0.0220887
0.0186142
0.0562974
0.01689
0.0117003
0.0596052
0.00915581
0.0228261
0.0465458
0.0478671
0.040048
0.00828564
0.032585
0.0377118
3.56948e-05
0.00596581
0.059122
0.0102212
3.88991e-05
0.00810792
0.0118586
2.44947e-05
0.00532514
0.0416214
0.0159393
0.017511
0.0407799
0.0267757
0.0372262
0.0560299
0.0420093
0.0170313
0.00601019
4.22451e-05
0.0532344
0.00816481
0.0438066
0.0442067
0.0411033
0.0104579
2.231e-05
0.0243384
0.0361779
0.0083686
0.00738099
0.00293436
0.0113223
0.0173271
0.0152878
0.0466175
0.0456581
0.0219819
0.0446986
0.00945498
0.0424431
0.0161038
0.0122735
0.000881868
3.82661e-05
0.0397972
0.0516865
0.0149094
0.00973465
0.00989646
0.0194804
0.0188354
0.00566601
0.0056824
0.00863684
0.00532116
4.13093e-05
0.00555385
0.052942
0.0229876
0.024026
0.0045107
0.0480963
0.0420007
0.0257545
0.0133411
0.0181461
0.0132377
0.00859846
0.00828686
0.0474752
0.0105961
0.0146891
2.08907e-05
0.0456194
0.00543137
0.0106701
0.00313185
0.0566157
0.0109214
0.0137452
0.00176994
0.0405668
0.0173627
0.0251626
0.0408578
0.0220777
0.000577341
0.0207117
0.0012294
0.0072795
0.00343365
0.0397214
0.00549205
0.0395484
0.00901734
0.0224746
0.0127722
0.0400034
0.0396408
2.91248e-05
0.00610261
0.0447827
2.01836e-05
0.0150658
0.021261
0.0476657
0.0466064
0.00916616
2.27807e-05
0.0545639
0.0493731
0.0492927
0.0148261
0.0485068
0.0437041
0.0209802
0.0276547
3.77671e-05
0.032684
1.71266e-05
0.0537067
0.0018996
0.00462255
0.0170019
0.0139328
0.00193442
0.0409635
0.053238
0.0542106
0.0477926
3.25199e-05
0.0381691
0.037939
0.0121831
0.00703065
0.00911315
0.0164914
0.00194601
0.04816
0.0479803
0.034788
0.00900614
0.00916054
0.0591976
0.00725985
0.0243149
0.00820391
0.00985451
0.00063346
0.033727
0.0100332
0.0452775
0.0401104
0.000695946
0.00444571
0.0412275
0.0513898
0.0110219
0.0130131
0.047614
0.0487998
0.0138125
0.00960671
0.040476
0.0386009
0.00359078
0.0288663
0.0131214
0.0405077
0.00438329
2.53838e-05
0.0523132
3.49288e-05
0.0089375
0.0190405
0.010616
0.0106717
0.0123244
0.00944489
0.0191188
0.0248892
0.0284102
0.0409384
0.0406571
0.0098068
0.0228321
0.00561066
2.74421e-05
0.0434892
0.0569596
0.0497293
0.0497487
0.0486726
0.0500052
0.0222319
0.0342264
0.0546528
0.0231717
0.0486928
0.0505118
0.0442771
0.049608
0.0200897
0.0202241
0.00218299
0.00745814
0.00784646
0.00869592
0.0278305
0.00270553
0.0562004
0.000658152
0.051234
0.0201008
0.0104159
0.012784
0.0276743
0.0546623
0.0301061
0.00264642
0.0194403
0.0106329
0.0478529
0.0251024
0.0432663
0.0117639
0.00830467
0.0180057
0.0302862
0.0403745
0.0223353
0.0260253
0.014108
0.0180316
0.0303232
0.0508322
0.0480102
0.0416882
0.0127301
0.00101993
0.00394189
0.0164562
0.00385528
0.0124606
0.0069414
0.0156342
0.0130523
0.00915721
0.00192351
0.04228
0.0061089
0.0111755
0.00555011
0.00171725
0.0142948
0.0502394
0.0100871
0.0272374
0.000716207
0.00870892
0.000826201
0.0292261
0.0217118
0.0130937
0.0063408
0.0520155
0.00660769
0.0127796
0.0327141
0.0439685
0.0460583
0.0629856
0.0321636
0.0376211
0.0389404
0.00613548
0.0224516
0.0116836
0.0116497
0.00231338
0.0492864
0.0126251
0.0128771
0.00196816
0.0219842
0.0123809
0.0383007
0.00464982
0.0130805
0.00913981
0.0594633
0.0542243
0.0524822
0.000770017
0.0105531
0.0191877
0.0538158
0.00750276
0.0127183
0.0506353
0.0610066
0.0235823
0.00702914
0.0539679
0.0275696
0.00772019
0.0124042
0.0318043
0.00740898
0.0153637
0.00647416
0.0203337
0.00237248
0.0090469
0.0489947
0.0178764
0.00636902
0.0127767
0.0260276
0.000679838
0.0117277
0.000949613
0.0114123
0.0101875
0.0137702
0.0478202
0.00602967
0.0583879
0.0432413
0.0499652
0.0195309
0.0226902
0.00350189
0.00884895
0.00858517
0.0160325
0.0559064
0.0138723
0.0380699
0.0207959
1.68267e-05
0.0121098
0.0519098
0.0460583
0.0127979
0.058309
0.00708874
0.0555662
0.00625607
0.0392647
0.00755255
0.0549959
0.00838072
0.0200205
0.0198001
0.00880025
0.00268123
0.000891384
0.0627535
0.00329997
0.0149055
0.00977083
0.0156964
0.0192522
0.0155391
0.0176326
0.0495966
0.0171195
0.0120395
0.0229488
0.0118066
0.00500695
0.0537396
0.00856101
0.0454676
0.0103364
0.0381316
0.0442477
0.045184
0.0193509
0.00651299
0.00586237
0.0205748
0.0166034
0.050775
0.0247462
0.0311983
0.0303016
0.0415882
0.0225813
0.0224672
0.0239095
0.046251
0.00971323
2.22573e-05
0.0562375
0.024846
0.0127391
0.00515518
0.0179492
0.0511025
0.0424958
0.0047853
0.0194924
0.036077
0.040647
0.00402815
0.0210738
0.053986
0.0283543
0.0168118
0.000194045
0.010049
0.0199861
1.46263e-05
0.00326649
0.0227576
0.012803
0.0057952
0.0399744
0.00902093
0.0218437
0.04419
0.0460918
0.00337267
0.0490565
0.0125671
0.0118803
0.0344917
0.0198707
0.00486328
0.0430426
0.00258309
0.0373096
0.0133999
0.0144686
0.0226702
0.0110621
0.00874945
0.0234208
0.0291028
0.0112012
0.0269864
0.00915234
0.00338429
0.005524
0.0216429
0.0290568
0.0353237
0.00768233
0.0592162
0.0612393
0.023072
0.0177157
0.0337544
0.022613
0.0231655
0.0448787
0.0117247
0.00893891
0.0196452
0.0507575
0.00638496
0.0376072
0.0480236
0.0247909
0.00111762
0.0332141
0.0456827
0.00370437
0.0484459
0.0341672
0.0238109
0.011784
0.0328182
0.0146088
0.00633231
0.0327938
0.00742911
0.0196447
0.0294305
0.00650775
0.00813182
0.00401849
0.0349666
0.0155971
0.0286139
1.69582e-05
0.00652393
0.0330147
0.0171858
0.0232296
0.00877647
0.04332
0.0434903
0.0348637
0.0510759
0.0433815
0.0318282
0.00319223
0.0230376
0.0478894
0.0413765
0.0418168
0.000873802
0.0120381
5.74212e-05
0.0210073
0.0228204
0.00584221
0.0393345
0.0456663
0.0346535
0.037163
0.0381513
0.0179643
0.0414025
0.0359734
0.0150259
0.00846443
0.00429991
1.24232e-05
0.0137968
0.0446748
2.32787e-05
0.00207015
0.0170363
0.00102008
0.00184542
0.00380295
0.0132887
0.0444663
0.00324364
0.0440983
0.00880957
0.0557837
0.0173341
0.0273401
0.0442551
0.00731262
0.0147538
0.00120654
0.0472475
0.0217915
0.0205688
0.0182791
0.0575677
0.0345673
0.0218394
0.00999542
0.0233088
0.00536023
0.0214088
0.0285443
0.00884915
0.0598618
0.0496928
0.0207953
0.051575
0.0151909
0.000782985
0.0517562
0.0366482
0.0127451
0.0238703
0.0126822
0.0101731
0.0155133
0.0251756
0.0541571
0.0132323
0.00838995
0.0486955
0.0586427
0.00632458
0.0574997
0.0470783
0.0166593
0.0294846
0.00413578
0.0200145
0.0117843
0.0291294
0.0214883
0.0523842
0.0521144
0.0454598
0.0144745
0.0635302
0.0603939
0.0573125
0.0119206
0.00793358
0.056216
0.0166551
0.0105998
0.0135126
0.0510881
0.00922017
0.00836351
0.00372785
0.0369422
0.00509841
0.0381003
0.00952605
0.0584019
0.0113955
0.00276498
0.00543866
0.0425691
0.0321963
0.00977622
0.000109337
6.61153e-05
0.0380273
0.00384582
0.0610867
0.0469142
0.00640415
0.0116676
0.0488551
0.0133683
0.0200719
0.0439746
0.00500946
0.00249953
0.0109051
0.0545131
0.0461876
0.0160014
0.0231731
0.0483709
0.0175187
0.00800531
0.00789494
0.00897143
0.0551994
0.0481257
0.00728753
0.0117628
0.00988898
0.0155392
0.00940816
0.010179
0.0420198
0.0421191
0.0314317
0.0515898
0.0506866
0.000939412
0.0132415
0.0403513
0.0366756
0.0394918
0.0612124
0.0181882
0.000796557
0.00800025
0.0624343
0.0594128
0.0583897
0.00061563
0.0145679
0.00936091
0.0407478
0.0114354
0.032175
0.0289454
0.0141834
0.0354167
0.00269824
0.0160178
0.0536051
0.00780144
0.0531135
0.00481858
0.00677862
0.0210745
0.0102535
0.0443559
0.0154165
0.00406186
0.0131708
0.039463
0.00965088
0.00881457
0.0424399
0.0556477
0.00652035
0.000755309
0.0311309
0.0137139
0.0100073
0.0184504
0.000957606
0.00897421
0.000943119
0.00670619
0.00589524
0.00576376
0.0100717
0.0138717
0.00779223
0.0122592
0.064093
0.0437498
0.0528754
0.0104687
0.0566093
0.0105768
0.00106069
0.0504608
0.0544773
0.0612444
0.0646083
0.0552626
0.00825406
0.0157099
0.0116081
0.0133167
0.0094053
0.00833423
0.0568809
0.0516956
0.00832493
0.0282196
0.0474594
0.0430422
0.0474456
0.00090593
0.0427098
0.00277483
0.0419105
0.0345448
0.0021194
0.0612143
0.0120413
0.00758825
0.0116681
0.0081215
0.0311948
0.0403075
0.0254056
0.0235807
0.014598
0.00631864
0.00539764
0.0302105
0.00334732
0.010465
0.00607023
0.0427462
0.0486257
0.0518146
0.0268252
0.00930092
0.0152803
0.0110405
0.0596295
0.00653889
0.014752
0.0232196
0.0135719
0.011199
0.024658
0.0132862
0.0135461
0.0145867
0.0207007
0.00114406
0.0614782
0.0648769
0.0209835
0.0140936
0.0469242
0.00632749
0.0152646
0.00575531
0.0610814
0.0416246
0.0084236
0.0563607
0.0436695
0.015507
0.00442317
0.0412664
0.0155107
0.0604574
0.0102475