/*--------------------------------*- C++ -*----------------------------------*\
  =========                 |
  \\      /  F ield         | OpenFOAM: The Open Source CFD Toolbox
   \\    /   O peration     | Website:  https://openfoam.org
    \\  /    A nd           | Version:  10
     \\/     M anipulation  |
\*---------------------------------------------------------------------------*/
FoamFile
{
    format      ascii;
    class       volScalarField;
    location    "350";
    object      p;
}
// * * * * * * * * * * * * * * * * * * * * * * * * * * * * * * * * * * * * * //

dimensions      [0 2 -2 0 0 0 0];

internalField   nonuniform List<scalar> 
23845
(
-0.0847561
-0.11999
-0.205276
-0.203931
-0.10056
0.00651431
-0.193432
-0.210643
-0.00117422
-0.0528227
-0.00359583
0.00294875
0.00527857
0.00146132
-0.1999
-0.0206914
0.00516595
0.0057341
0.0056682
0.00619256
-0.101383
-0.00263581
-0.14487
0.00537477
-0.0256659
0.00795703
-0.167662
0.00799453
-0.217906
0.0067116
-0.198758
-0.199029
-0.210455
0.00543318
0.00440553
0.0073939
-0.208584
0.00400725
0.00172077
0.00722138
0.00441532
0.00446105
0.00454546
0.00399166
0.00789734
0.00550465
-0.116209
-0.014667
-0.192
-0.220674
-0.199153
-0.196092
-0.191971
0.00805684
-0.201456
0.00522272
-0.142321
-0.207478
-0.103998
-0.179691
-0.216356
0.00585147
-0.0104846
-0.218168
0.00610302
0.00407059
-0.180922
0.00547793
0.00461861
0.00485835
-0.21311
-0.209968
0.00539264
-0.19955
0.00534586
-0.200394
0.00142924
0.00354254
-0.206647
0.00583458
-0.149555
-0.190903
-0.12974
-0.210629
-0.201904
0.00482879
-0.182883
-0.189689
0.00298538
0.00577842
-0.203341
0.000318515
-0.219984
0.00772899
-0.204839
-0.207372
0.00310517
-0.018062
0.00204147
-0.101519
0.00499298
-0.194111
-0.0703072
-0.228809
-0.2228
-0.209596
0.00651815
0.00542467
-0.183378
0.00504388
-0.00137274
0.00386767
-0.206486
-0.0358282
0.00699169
-0.0867261
0.00680622
-0.0382703
-0.216839
-0.215905
0.00302441
-0.202241
0.00519612
-0.21337
-0.186709
0.00885405
-0.215527
-0.221932
-0.208468
-0.136068
-0.211803
-0.0329221
-0.0184982
0.00144338
0.00651608
-0.0767688
-0.226634
0.00151574
-0.178737
0.00321465
-0.216882
0.00405467
0.00584748
0.00463774
-0.00313027
0.00463204
-0.0635438
-0.197105
-0.215114
0.0042115
-0.19527
0.00610544
-0.171329
0.00464218
-0.206172
0.00163263
-0.0775749
0.0073649
-0.213399
-0.211806
0.00276729
-0.203392
-0.20382
0.00489891
0.00346032
0.00494894
0.00120443
-0.205462
0.00572255
0.00407436
0.000626685
-0.205039
0.00673023
-0.213418
0.00853946
-0.206013
-0.00293286
-0.00416739
0.00548588
0.00696559
-0.0968284
-0.0988425
-0.19669
0.000538805
-0.00903535
0.00509304
0.00548018
-0.210403
-0.219326
0.00403627
-0.220661
0.00447669
0.00660016
0.00731563
-0.00139687
0.00586381
-0.225991
-0.220964
-0.237377
-0.0034053
0.00562508
0.00674837
-0.215233
-0.0273429
-0.210828
-0.204858
-0.206827
0.00398198
-0.12403
0.0065115
0.00466897
-0.209762
-0.0104771
0.00492113
-0.195048
-0.204995
-0.0235018
0.00533188
-0.218941
-0.210517
0.00510582
-0.200829
-0.22657
0.00120133
0.00510745
-0.200984
-0.221418
0.00705519
0.00704082
0.0043542
0.00761674
-0.192758
0.00474334
0.00754858
-0.0887884
-0.216088
0.00667873
-0.200506
0.00948411
-0.208107
-0.191422
-0.0490408
-0.208726
-0.0819857
-0.203445
-0.0145678
0.00626586
0.0109353
-0.205113
-0.194912
0.00473793
0.0071924
-0.200425
0.00508715
-0.192568
-0.205859
-0.215202
-0.205633
0.00672062
0.00642264
-0.188236
0.00738412
-0.214879
0.0002059
0.00229183
0.00852263
-0.205233
-0.215008
-0.183988
-0.202974
0.00474804
-0.207251
-0.196846
0.00755263
-0.000245699
0.00720203
-0.204959
0.00801889
-0.232632
-0.145266
-0.210139
0.0080042
-0.201142
0.00089983
0.0058748
-0.216317
-0.210947
0.00701168
-0.206121
-0.20279
-0.20581
-0.195452
-0.217775
-0.205928
-0.205925
0.00481238
-0.216541
0.00636708
0.00550074
-0.214199
-0.216348
-0.197513
-0.216686
-0.201672
0.00773987
-0.200052
-0.220218
-0.197748
0.00438782
-0.225141
-0.196206
-0.167147
0.00484866
0.00759901
-0.204208
-0.218223
-0.216277
-0.0156378
-0.206988
0.00425939
-0.224039
-0.207758
-0.215148
0.00637339
-0.20202
0.00512286
-0.205122
-0.144971
-0.21591
0.00697675
-0.197823
-0.000739421
-0.201639
0.00748066
-0.212357
-0.201199
-0.201657
0.00553808
0.00454263
-0.205575
-0.20606
-0.215064
-0.00309608
0.00740415
0.008029
-0.237702
0.00777698
-0.205976
-0.205776
-0.198166
-0.198664
-0.216794
-0.222528
-0.203352
-0.192213
0.00778677
0.0039895
0.0070456
-0.202241
-0.207075
-0.211143
0.0098509
-0.058594
0.00195549
-0.218444
0.00310071
-0.212625
0.00674746
-0.215696
0.00904238
0.00436682
-0.205
-0.225681
0.00253035
0.00725693
-0.204193
-0.20287
-0.201691
0.00421463
-0.209883
-0.200128
0.0075981
-0.130494
0.00646722
0.00698811
0.00411588
0.00741656
-0.205184
0.00570585
-0.20572
-0.18394
0.00526728
-0.220759
-0.224489
-0.195753
-0.212454
0.00279985
0.00673054
0.0046708
0.00749659
-0.203607
-0.187781
-0.204589
-0.207117
-0.170209
-0.198412
0.00299991
-0.22251
-0.221321
-0.215699
-0.203464
0.00927319
-0.188547
-0.215621
-0.0789484
-0.203943
-0.180974
0.00166077
0.0063497
-0.0812405
-0.216687
0.00477256
0.00374736
-0.205886
-0.21523
-0.109762
-0.227272
-0.196248
-0.212436
-0.211946
0.00629398
0.00551671
-0.21508
0.00613112
0.00474768
0.00654338
0.00306307
0.00509675
-0.217739
-0.212485
-0.201462
-0.221391
-0.223386
-0.214761
-0.192675
-0.216831
0.00614291
-0.168485
0.00731876
-0.207567
-0.207437
0.00646539
-0.23044
0.00803596
0.00839393
-0.213422
-0.168463
-0.0313802
-0.205072
0.00642906
-0.142257
-0.204676
-0.224114
-0.157311
0.00836677
0.00432994
0.00801014
-0.193723
0.00626535
-0.208439
0.00755202
0.00383258
-0.191227
-0.215733
-0.219154
-0.0805523
0.00534593
-0.20143
0.00677725
0.00437348
-0.144017
-0.171652
-0.197331
-0.00329413
0.00590185
-0.195169
0.00484193
0.00436009
-0.19819
-0.214187
0.00819106
-0.216023
-0.20641
-0.160043
-0.212343
-0.12674
0.00547944
-0.205807
0.00573518
0.00767506
-0.181606
-0.214727
-0.21392
-0.135927
-0.210053
-0.208242
0.00134802
0.00503464
0.0066599
-0.214029
-0.197586
-0.215535
-0.208867
-0.194651
0.00752424
0.00748893
-0.180127
-0.208789
-0.207495
0.00830704
-0.201916
0.00718555
0.00620123
-0.217812
0.00537617
-0.198824
-0.204865
-0.217848
-0.128604
-0.213533
-0.214597
-0.223824
-0.0578753
-0.145147
0.00668181
0.00514583
0.006557
-0.21625
-0.101637
-0.206945
-0.210257
0.0093046
-0.132292
-0.133496
0.000599244
-0.129369
-0.00455355
0.00688719
0.00639665
0.00583119
0.0043305
0.00511918
-0.212796
0.00394708
-0.208968
-0.154014
0.0042464
-0.213904
0.00764128
0.00878516
-0.204877
-0.205699
-0.153006
0.00506684
0.00587508
-0.225424
-0.222416
0.00597854
-0.218255
0.00518109
0.0054163
-0.19447
0.00499887
0.00735227
-0.0275494
-0.0815248
-0.21516
-0.201855
-0.20528
-0.101035
0.00507151
0.00288155
9.32692e-05
-0.199805
-0.216937
0.0047824
0.0061575
0.00587
-0.203707
0.0052143
-0.156302
-0.202871
-0.106009
0.00209853
-0.209421
0.00330678
0.00529341
0.0091299
0.00575582
0.00133013
-0.202676
0.00590641
-0.0791627
-0.199091
-0.20975
-0.0238893
-0.203527
-0.0902527
-0.195112
0.00225884
-0.142403
-0.0817869
-0.14943
-0.0805665
-0.216756
-0.0800375
-0.0371168
-0.0637128
0.00618364
0.00630851
-0.0826587
-0.212969
-0.110545
0.00516659
-0.102081
0.00617575
0.0050026
0.00510455
0.00492789
-0.0293531
0.00536478
0.00444811
-0.160609
0.00698228
0.00432689
-0.206443
-0.0720022
-0.0337824
0.00467743
0.00170407
-0.133174
0.00485255
0.00725186
0.00491591
-0.0753424
-0.0175589
-0.0998152
0.00517057
-0.0207454
-0.206576
0.00681194
0.00679405
-0.0415693
-0.208962
-0.217252
-0.221005
-0.215276
-0.0218533
-0.215041
-0.002592
0.00391002
0.00619957
0.00562934
-0.100384
0.00517998
0.00348773
0.00448536
-0.0746471
-0.187973
-0.0113711
-0.0218319
0.00516015
-0.000384467
0.00230075
0.00449109
-0.0220774
0.00591257
-0.0339952
-0.00148815
0.00581773
-0.00544524
0.00692908
0.00598785
0.00617497
0.00607993
-0.0215094
0.00500269
0.00641959
-0.0175449
-0.0178777
0.00616676
0.00395348
0.00381443
0.00124335
-0.00190405
-0.00669671
-0.0176728
0.0056752
-0.0289019
0.00585043
-0.00519818
0.00630024
0.000859926
0.00618999
0.0054879
0.00525787
0.00503508
0.00518336
0.00502508
0.00481568
0.00443962
-0.185647
0.00862154
0.00392358
0.00466175
0.00481929
0.00696642
0.00245093
0.00508395
0.00125249
-0.00277613
0.00621683
0.00511862
0.0041202
0.00650469
-0.0101573
0.000138982
-0.0479907
0.00670985
0.00248603
0.00416115
0.0056483
0.00653819
0.00450036
-0.0132347
0.00652812
-0.0680652
0.0050136
0.00673482
0.00466138
0.00520155
0.00440879
0.00699244
-0.214462
0.00621739
0.00282854
-0.0380331
0.00419606
0.00512501
0.0058329
-0.186453
0.00175424
0.00664597
-0.0198501
0.00543517
-0.213524
-0.00704341
-0.0023982
-0.0107107
-0.00422674
-0.0273703
0.0011123
0.00549914
0.00369501
-0.00196154
0.0066038
0.00247986
0.00636114
-0.112325
0.00448017
0.00443346
-0.0184783
-0.00793359
-0.0120388
-0.204059
0.00165791
0.00363118
-0.0650909
-0.00138888
0.00654337
0.00494592
0.0055815
-0.200214
0.0104415
0.0024796
0.00517733
0.00488216
0.00515249
0.00561804
0.00453899
0.00479052
0.00381565
0.00528542
0.0040611
0.00466631
0.0040932
-0.132542
0.00735332
0.0054173
0.00654663
0.00656867
0.00385179
-0.0332672
0.00537877
-0.00232521
0.00586223
0.00620617
0.00634096
0.00457807
0.00606902
-0.0842514
-0.0114602
-0.00924504
0.0070174
0.00443117
0.00415678
-0.218571
0.0013497
0.00474082
-0.00127925
0.00518113
0.00499772
-0.00878393
0.00494569
0.00527233
0.00499405
0.00525628
0.00446546
0.00445406
0.00489841
0.00427257
0.00513484
0.00630562
0.00481657
0.00481733
0.00495484
-0.0192725
0.00491776
0.00304613
-0.20704
-0.0212706
0.00645546
0.00448808
0.00439128
-0.00876265
-0.00106533
-0.00317995
0.00217459
0.00601298
0.000684496
0.004925
0.00455976
-0.012084
0.00585405
0.00699451
0.00370517
0.00357836
0.00365616
0.00122495
-0.198275
0.00562729
-0.0102983
0.00646038
-0.0359183
0.00466528
0.00326726
-0.00563323
0.00322241
-0.054554
-0.0326463
0.00209444
-0.0688413
0.0053583
0.00515355
0.00559379
0.0042047
0.00368176
0.00414328
0.00471245
0.0043234
0.00372991
-0.00906151
0.00535356
-0.00871218
-0.0135046
-0.00427779
0.00147145
-0.0617093
0.0027387
0.0037681
-0.00736947
0.00438895
-0.0374604
0.00499821
0.00374714
-0.0764775
0.00335252
0.00408599
0.00190966
0.00612566
0.00611363
-0.182718
0.00606846
0.00396853
0.00495534
0.00507771
0.00628038
0.00435493
0.00169889
-0.222692
0.00712588
0.00646651
0.00461856
0.002923
-0.0704157
-0.00133437
0.00495964
-0.00101656
0.00522033
0.00635634
-0.210472
-0.226723
0.00499994
0.0036384
0.00792589
-0.172164
0.00375059
-0.203444
0.00501673
0.00569999
0.00450756
0.00564617
0.00407069
0.00398254
0.00506788
-0.0622756
0.00449429
-0.0960769
0.000944296
-0.0194616
0.00377759
0.00101001
0.00594945
0.00286493
0.00624636
0.00592436
-0.00581638
0.00623329
-0.000200703
-0.00364205
-0.00905928
0.00777538
0.00036374
-0.00169762
0.00715822
-0.0129448
-0.00442009
0.00245969
-0.0188015
0.00444758
0.00587725
0.00633718
0.00534813
0.00672565
0.00413751
0.0011846
0.00434641
0.00489378
0.00303634
0.00377871
0.00317266
0.00434038
-0.166367
0.00508516
0.00475283
0.00472244
0.00440283
0.00549791
0.00369518
-0.000617188
-0.0600643
-0.0893128
0.00487606
0.00236745
-0.00594189
-0.0193113
0.00557401
-0.0231387
0.00589145
0.00418207
0.000374771
-0.019726
0.00603042
-0.000848458
-0.0101055
-0.00151528
-0.0135695
-0.0073456
-0.0117537
0.00598164
0.00636466
0.00647172
0.00421528
0.00227958
-0.00118423
0.00470652
-0.235974
0.00558028
-0.20931
0.00522577
0.00579454
-0.223027
0.00519291
0.00407008
0.0059807
0.00411962
0.0024524
0.0043789
0.00475759
0.00507756
-0.0224655
-0.217015
0.0046293
0.00580747
0.00360759
-0.129343
-0.152845
-0.0843673
-0.00341824
0.00452206
0.00306669
0.00525272
0.00583415
0.00593977
0.00852632
-0.0900839
-0.0574181
-0.0177759
-0.0522387
-0.0307801
-0.0669453
-0.0837286
-0.0179608
0.00437341
-0.042133
-0.0067628
-0.011978
-0.010321
0.000928746
-0.00311138
0.00602832
-0.000559364
0.00517062
0.00250796
0.00600687
0.00442804
0.00708955
0.00588555
0.00614562
0.00405012
0.00401486
0.00507432
-0.120168
-0.0336054
0.00478125
-0.0563463
0.00490924
0.0033428
0.00710273
0.00129334
0.00766337
0.00689286
0.00402374
0.00494952
0.00387995
0.00349662
-0.0772359
0.00394511
0.00537116
-0.0504335
0.0038578
0.0069089
0.00450841
-0.025103
0.00633316
-0.212822
-0.204524
0.00382677
0.00161991
-0.000586393
-0.0068611
0.00601819
0.00530938
-0.000874227
0.00398067
0.00147135
0.00366002
0.00534466
0.0072328
-0.229748
0.00647313
-0.0160869
0.00466417
0.00560408
-0.0286819
0.00586734
0.00543014
-0.217489
0.00530315
0.00597228
0.00498389
0.00494051
0.00678624
0.00414207
0.00505025
0.00619333
-0.0406065
0.00511788
0.00477051
-0.143904
0.00520868
0.00546059
0.00554984
-0.162979
0.00447535
0.00444101
-0.0511213
0.00432663
0.00231653
0.0048029
0.00347351
0.00671492
-0.213285
0.00333695
0.00516903
0.00163598
-0.00641185
-0.0565882
-0.00230294
0.00343554
0.00443696
0.00578464
0.00430843
0.00293328
0.00537914
-0.0327057
0.00567774
0.00707756
0.00475456
0.00596228
0.00542427
-0.196875
-0.212552
0.0054204
0.00406388
0.00603615
-0.121134
0.00513726
0.00389071
-0.00369575
0.00426715
-0.204021
0.0051502
0.00566846
0.00571609
0.00584216
0.0035746
0.00393379
-0.000551441
0.0049329
-0.0105103
0.00381032
0.00547957
0.00477502
0.00498333
0.00555393
-0.000484369
0.00341484
-0.000278474
0.00633667
0.00537361
0.0061337
0.00528432
0.00442288
0.00594507
0.00306513
0.00702385
-0.0187018
0.00485218
0.00483663
-0.0353215
0.00531834
0.00556067
-0.0598437
0.00604858
0.00510921
-0.0926931
0.0050838
0.00503494
-0.073748
-0.0299391
-0.126139
0.00634536
0.00687529
-0.0365071
0.00354697
0.0071416
-0.0716609
-0.0122933
-0.0271027
0.00542683
-0.0463516
0.00448403
0.00283056
-0.0253708
-0.00343627
0.00465305
-0.00240807
-0.0438637
-0.234584
0.00507163
0.00381004
0.00547524
0.00553691
0.00631078
0.00498795
0.00483751
-0.201755
0.00638143
0.00282959
-0.0273882
0.00615693
-0.00949018
0.00451018
-0.11253
0.00445506
0.00504045
-0.130122
0.00378216
0.00812652
0.00630839
0.0031104
-0.216016
0.00614533
-0.0647698
0.00509225
-0.00963519
-0.212225
-0.205701
-0.0300485
0.00489949
0.00543547
-0.13556
0.00491678
0.00554761
0.00460126
-0.085964
0.00757118
0.00602253
0.00469224
-0.0704003
0.00553106
0.00630933
0.00387289
0.00507338
-0.220506
0.00412935
0.00383162
-0.060983
0.00157908
-0.215908
0.00508754
-0.211119
0.00633064
-0.0722998
0.00474656
0.00617741
0.00510011
0.00664808
0.00446932
0.00185837
0.000618574
-0.00936037
0.00490035
0.00570842
0.00675777
-0.00889332
-0.00733031
0.00417069
0.00628156
0.00514057
0.00587383
0.0041525
0.00354265
0.00689902
0.00188226
0.00274368
-0.0548232
0.00528717
-0.122453
0.00262415
0.00447996
0.00535363
0.00590539
-0.206057
-0.0374228
-0.0152824
0.00439097
-0.024894
0.00464571
0.00501011
-0.0402733
0.00490224
-0.174391
-0.215786
-0.0608634
0.00381123
0.00293464
-0.217811
0.00486718
0.00171185
0.00533801
-0.0318854
-0.146569
0.00496836
0.00488364
-0.204756
-0.200435
0.00528911
-0.0511151
-0.0634712
0.00396339
-0.213303
0.00461716
-0.0753606
0.00486862
-0.0422198
0.00780639
-0.0324654
-0.156493
0.00601797
-0.208498
-0.0658894
0.00648035
-0.215574
0.00459848
-0.0286283
-0.0613212
-0.208038
0.00674699
-0.0126809
-0.130829
0.00679223
-0.0542464
0.00486918
0.00481701
0.00887597
0.00341041
-0.0455154
0.00563993
0.00563816
-0.0935614
0.00402413
0.00482639
0.00598844
0.00553684
0.00768324
0.00740212
-0.0457986
-0.165105
-0.0477948
0.00572481
0.00363814
0.00632937
0.00583687
0.00423378
0.00394152
-0.212189
0.00483324
-0.0529768
-0.212714
0.00546085
0.00709462
0.000545054
-0.0122916
-0.0592615
-0.129568
0.000637859
0.00562482
0.00425433
0.00659426
0.00630633
0.00504218
0.0061632
0.00696677
0.00394959
-0.0576112
-0.215084
0.00482069
0.00379305
0.00747553
-0.165665
0.00405299
0.00362148
0.00380695
0.0069275
0.00489725
0.00432932
-0.00889722
-0.0094505
0.00581685
0.00652883
0.00359948
-0.192173
-0.208171
0.00385987
0.0115969
-0.00860955
0.00658365
0.0043569
0.0052806
0.0047001
0.0040524
0.0047164
-0.21537
0.0058321
-0.200025
0.00466261
0.00679404
-0.143893
0.00373059
-0.0529168
0.00487621
0.000763181
-0.0029374
0.00319099
0.00458154
-0.0418245
0.00750624
0.00533529
0.00562339
0.00517792
-0.206334
0.00393279
0.00584148
0.0040409
-0.0308976
-0.207344
5.05819e-05
0.00617416
-0.162998
0.00631665
0.00704699
-0.0115333
-0.152058
-0.213853
-0.216914
0.00532852
0.00522851
-0.00765152
0.00671581
-0.163418
-0.0366504
0.00674882
0.00157811
-0.0981384
0.00518078
-0.163787
0.00125534
-0.0187127
0.00380788
-0.0881166
-0.0476707
0.00699195
0.0073346
-0.212724
0.00756304
0.00681343
-0.0593998
0.00773564
0.0019547
-0.0576804
-0.0223765
-0.209275
0.00725927
0.00330091
0.00268847
-0.212786
0.00608852
0.00541569
0.00546812
-0.211045
0.00493604
0.00289533
0.00572597
-0.212639
-0.0246469
0.00660612
0.00333631
0.00775963
0.00767941
0.00777184
-0.184299
-0.00518095
0.00680961
0.00641226
-0.111183
-0.0207003
0.00515006
-0.00226187
0.00702329
0.00831256
-0.209974
0.00613766
-0.0120225
0.00729583
-0.00355686
-0.210063
-0.21366
-0.211566
-0.187845
-0.156472
0.0075786
-0.0536021
0.00601125
0.00693545
0.00507092
-0.154825
0.00605526
-0.199582
-0.218772
0.00482372
0.00456778
-0.195122
-0.217465
-0.0476004
-0.186491
-0.0633148
-0.159009
0.00646228
-0.0607078
-0.221867
0.00507202
-0.196534
0.00628665
0.00798081
-0.124024
-0.218812
-0.214206
-0.136925
-0.106813
0.00480752
-0.223756
0.0046151
-0.0703087
0.00776582
-0.170231
-0.0417463
0.00460013
-0.116516
0.00755502
0.00553545
0.00365726
-0.222137
-0.197708
-0.209317
-0.210184
0.00468196
-0.103406
0.0075939
0.00865923
0.00565533
-0.0225226
-0.213623
0.00572613
0.00466605
-0.134774
-0.198778
0.000784098
0.00773078
-0.206383
0.00498733
0.00423091
0.00495777
0.00560363
0.0048426
0.00453726
0.00771928
-0.198827
0.00481262
0.0062454
0.00674913
-0.01589
-0.206558
-0.0588663
0.00217693
-0.208773
-0.0385643
-0.0265909
0.00739097
-0.217711
-0.00149933
-0.223162
-0.209823
-0.211235
0.00714839
0.00454884
-0.14192
-0.113819
0.00705443
0.00462961
-0.103751
-0.12294
-0.163245
0.000504487
-0.220134
0.00558774
-0.208431
0.00344272
-0.209566
0.00767055
0.00522111
0.0025666
0.00815167
-0.215125
0.00709471
-0.205552
-0.210295
0.00215764
-0.00356271
-0.0674129
-0.219981
-0.110846
0.00785451
-0.0411751
-0.0385581
-0.143151
0.00545141
-0.204881
-0.0936383
-0.204657
-0.212508
0.00725757
0.00765088
-0.0259192
-0.203722
0.00291186
-0.123579
0.0103258
0.00611458
0.00713856
0.0037543
-0.215925
0.00449972
0.00760919
-0.163224
-0.0141517
-0.155262
-0.128957
-0.217572
-0.203169
-0.123612
-0.196249
-0.200195
-0.0453238
0.0004077
-0.218353
0.00524198
-0.202381
0.00297327
-0.215579
-0.217919
0.00545496
0.00617241
0.00489344
0.00591745
0.00469423
0.00749577
0.00468793
0.00730779
-0.116863
-0.0912929
0.00526839
-0.0423683
-0.0243496
-0.197859
-0.217953
-0.206509
-0.209086
-0.211367
-0.141307
-0.220848
-0.00722474
0.00764514
-0.218056
0.0044413
-0.19935
-0.0460691
0.00472432
-0.214673
-0.0314098
0.00102839
-0.207301
0.00457323
-0.171435
-0.0796393
-0.00885237
-0.197371
0.00606445
-0.105283
0.00538754
0.00521638
-0.156184
-0.233568
0.00640221
0.00310668
0.00281434
0.00187426
0.00467219
-0.20181
0.00447675
0.00609785
-0.139564
0.00296318
-0.21342
-0.00832627
0.00930177
-0.020239
-0.208269
-0.216622
-0.211015
-0.213521
-0.182926
0.00794815
-0.192131
0.00676053
0.00746874
-0.20331
0.0059912
-0.207484
-0.152537
-0.163742
-0.210427
0.00257352
-0.192036
0.00720451
0.00520307
0.00539497
0.000677406
-0.205622
0.00513291
0.00523349
0.00462217
-0.201244
0.0075208
-0.195793
-0.210157
0.00573582
-0.21897
-0.2128
-0.154725
0.00654955
-0.210045
0.00508904
0.00297612
0.00847413
-0.212868
0.00510939
0.00991672
0.00736064
-0.0652506
0.00388745
-0.205772
0.00563799
0.00595135
-0.0025665
0.00727206
-0.162711
0.00349405
0.00574754
-0.112346
0.0092662
0.00629791
0.00518596
-0.214922
-0.0107043
0.00801402
-0.221901
-0.146098
-0.149245
0.00489309
0.00717665
-0.203187
-0.146528
-0.191586
-0.129665
-0.195312
-0.191831
0.0114608
-0.20237
-0.177598
0.00629759
-0.21022
0.00731508
-0.215725
-0.214812
-0.214321
-0.0164388
-0.177807
-0.234815
0.00189605
0.00146497
0.00646559
-0.202156
-0.20502
-0.200099
-0.224252
-0.171143
0.00210611
0.00893004
-0.163625
-0.215254
-0.205586
0.00273529
-0.102046
0.00443628
-0.208494
-0.220044
-0.211042
-0.213558
-0.213699
-0.206048
0.00469209
-0.197086
-0.207683
-0.228988
-0.182226
-0.211028
-0.00196057
-0.206915
-0.214698
0.00693746
-0.19926
-0.188329
0.00828226
-0.205738
0.00264972
-0.229
-0.202223
-0.143366
-0.151268
-0.205813
-0.00152755
-0.148702
-0.205214
0.00443855
-0.16983
0.00500305
0.00583933
-0.0449109
0.00503996
0.00405306
-0.0375821
0.00840319
0.00521345
0.0078346
0.00494631
-0.160002
0.0072878
-0.0574149
-0.227037
-0.210987
0.00682151
-0.00372775
0.00488181
-0.201927
0.00719994
-0.207224
-0.183415
-0.00817392
-0.192842
-0.20974
-0.201834
-0.0372187
0.00404109
-0.18066
-0.189097
-0.212195
0.00476461
0.00617658
0.00322938
-0.00212421
-0.166183
0.00442678
0.00805158
0.00446644
-0.213507
0.00844579
-0.00667766
0.002795
0.00497989
-0.213556
0.00312374
0.00589039
0.00451148
-0.167309
0.00464743
-0.203662
0.0059534
0.00011628
0.0067149
-0.0142403
-0.214276
-0.216222
-0.20794
-0.22582
-0.00548057
-0.00739519
-0.192671
0.00331695
-0.215261
0.00317301
0.00517988
0.00497358
-0.101108
-0.193533
0.00813036
-0.112589
-0.228323
-0.206522
-0.211867
-0.17346
0.00643839
-0.213696
-0.21717
0.00614798
-0.0286234
-0.189977
-0.111412
-0.000493579
-0.20578
0.00417016
-0.174148
-0.114012
-0.197281
0.00716127
0.00519289
-0.193491
0.00385836
-0.022595
0.00703217
-0.168229
0.0073324
-0.205357
0.00436354
-0.198571
0.00643832
0.0098793
0.00715405
0.00187117
-0.181279
-0.200299
0.00350063
0.00566928
0.00524651
-0.000693332
-0.00854338
0.00360936
-0.195878
-0.220275
-0.195599
0.00319771
0.00743363
-0.210577
-0.203289
-0.195769
-0.218613
-0.188661
0.00466524
-0.178796
-0.183344
0.00706637
-0.193828
-0.015303
-0.0343489
0.00493622
-0.174574
-0.000970373
-0.208256
0.000161118
-0.213212
-0.204863
0.00732802
-0.195285
0.00560777
-0.214758
-0.162852
0.00513185
0.00458095
-0.196058
-0.213429
0.00580853
-0.228635
-0.145333
0.00546317
-0.216252
0.00439563
-0.215376
0.0054854
0.00439489
0.00340656
-0.18836
0.00381051
-0.205888
-0.0137699
0.00847492
-0.00124524
0.000193342
0.00713198
0.00442359
-0.214015
-0.100378
-0.000448494
-0.0864326
-0.000913502
0.00568929
0.00459111
0.00831914
-0.183986
-0.0876534
0.00580401
0.00205702
-0.00686362
0.00603915
-0.210338
-0.0388487
0.00616854
0.00300272
-0.20769
0.00505402
0.00404925
-0.209061
-0.175595
-0.0014731
0.000148015
-0.213204
-0.195389
-0.217919
0.00636468
0.0049978
-0.21561
0.00636109
0.00711147
-0.0016844
-0.153668
-0.13846
-0.206529
0.00486345
-0.19065
-0.195681
-0.204727
-0.198304
0.00649906
-0.0471014
0.00924287
-0.215034
0.00763156
0.00390329
-0.0134907
-0.0389717
0.00430381
-0.00641479
0.00709297
0.00632102
0.00543942
-0.205461
0.00307809
-0.191089
-0.225584
-0.128552
0.0060911
-0.18754
-0.0957156
-0.213711
-0.208467
0.00173055
-0.0471876
0.00964857
-0.0407248
-0.168827
0.00221476
-0.210706
0.00653861
0.00321847
0.00875409
0.00564489
-0.20726
0.00345576
0.00704951
-0.205774
-0.205465
0.0054756
-0.201162
-0.200728
-0.19759
-0.200542
-0.230453
-0.212931
0.0054917
-0.17086
-0.043483
0.000184724
0.00364424
0.00787129
0.00782651
0.0042613
-0.144777
-0.214679
-0.191469
0.00787536
-0.21458
0.00727334
0.00952947
0.000149426
-0.185477
-0.231138
0.00337286
0.00742759
-0.20952
-0.213094
-0.22548
-0.18995
-0.100736
-0.157674
-0.00231218
0.00108647
0.00874523
-0.0018055
-0.207201
0.00689456
-0.0712319
-0.150333
-0.230879
-0.19329
0.00720599
0.00750873
-0.180853
-0.204778
-0.209873
-0.00936322
-0.0404971
-0.216215
-0.209276
-0.190334
-0.214955
-0.190011
-0.216097
0.00753603
0.00319933
0.00434481
-0.214421
0.00336751
0.00502435
0.00562111
-0.142977
-0.0335341
-0.196869
-0.212171
-0.204892
0.00523915
-0.158786
-0.177134
-0.227046
-0.00199322
-0.209818
-0.158746
-0.223
0.00448222
-0.160677
-0.196057
-0.228468
0.000153861
-0.0432023
0.00436778
0.00777555
0.00743548
-0.219912
-0.00629982
-0.207113
-0.202024
-0.223751
0.00778759
-0.206388
0.00637388
-0.208713
0.00139163
-0.133725
0.00706216
0.00638508
-0.191347
-0.215297
0.00101651
-0.188172
-0.0919504
-0.00488678
-0.00236184
0.00103143
-0.207403
-0.232681
0.00809176
0.00706662
0.00414309
-0.101362
0.00705361
0.00720202
-0.0110584
0.00213326
-0.203222
0.00510351
-0.22146
0.00462797
-0.22435
-0.207513
-0.0847181
-0.185897
-0.217707
0.00577741
0.00509757
0.0080373
0.00825035
-0.233653
0.00488106
0.0073605
-0.187999
-0.215409
-0.205587
-0.115281
-0.227749
0.00240206
0.0100641
0.00623924
-0.213649
-0.212783
0.00447684
-0.205662
0.00585957
-0.196324
-0.19705
-0.222545
0.00508215
-0.188548
0.00652181
0.00308035
-0.222781
-0.216199
0.00294802
0.00770618
-0.21026
-0.200765
0.000885069
-0.00218074
-0.191324
-0.212474
8.72216e-05
0.00705482
-0.216105
0.00479226
-0.171314
-8.55799e-05
-0.212988
-0.197817
0.00457962
-0.188959
-0.209634
-0.0441812
-0.188242
-0.192791
-0.132336
-0.183469
-0.0159686
0.00477385
0.00344709
0.00130847
0.00725062
-0.208228
0.00482386
-0.210847
-0.195901
0.00459746
0.00878635
0.00756096
0.000450222
0.000656296
-0.00247201
0.00480671
0.00439032
0.00877523
0.00419259
0.00697253
0.00611056
0.00595625
0.00435713
-0.0188594
-0.0454156
-0.203886
-0.214961
-0.210142
-0.207106
0.00555189
-0.220483
0.00640725
-0.223793
-0.00280332
-0.00641976
-0.174463
-0.203587
0.00642167
0.00898052
0.00551217
-0.231063
-0.0434887
-0.208566
0.00785986
0.0058056
0.000701126
-0.138578
-0.208939
-0.0255897
0.00588162
0.00520571
0.0053005
0.00498159
-0.0878593
-0.0273102
0.00556634
0.000330909
0.00776352
0.00329292
-0.129498
-0.206272
-0.219424
-0.0434114
-0.218582
-0.129668
-0.213535
-0.059519
-0.197774
-0.19887
-0.219487
0.00586676
-0.208347
-0.1552
-0.210799
-0.221509
-0.19141
0.00494791
-0.211178
0.00486197
-0.220096
-0.190655
-0.214458
0.00461953
-0.00232525
-0.186241
-0.207455
0.00648393
-0.216117
-0.204256
0.00531091
0.00083738
0.00119216
0.00555909
0.00435713
0.00709883
0.00707681
-0.204766
0.00648978
-0.175293
-0.188745
-0.213722
0.00487376
-0.197374
-0.192043
-0.229823
0.0016513
-0.204886
0.00730838
-0.209703
-0.13615
-0.190488
0.00107572
0.00677483
-0.00312836
-0.218549
-0.20772
-0.0189957
0.00913085
-0.214619
-0.128428
0.00572636
0.00246234
0.00225137
-0.205277
0.00440189
0.00515321
-0.209851
-0.205525
0.00599639
-0.204083
-0.145615
-0.206426
-0.00455852
-0.227817
-0.206654
0.00727153
-0.0259673
-0.212826
-0.203714
0.00266535
-0.225158
-0.189543
-0.210691
-0.209241
-0.210076
-0.179296
0.00444164
-0.21132
0.00548706
0.0057592
0.00754695
-0.0320981
0.00621641
-0.224627
-0.191631
-0.213995
-0.111771
0.00740115
-0.191791
0.00739226
-0.00747058
-0.227289
-0.194089
-9.53397e-05
0.0054304
-0.188994
0.00532886
-0.201492
0.00675493
-0.208867
0.00848728
-0.210568
-0.00370977
-0.20422
-0.00560203
-0.0244182
-0.196877
-0.227439
-0.199669
0.00309051
-0.224673
-0.0927502
-0.207193
-0.177261
-0.0169475
-0.061356
-0.0349998
0.00409398
-0.133991
-0.164327
-0.00330979
-0.179977
-0.203412
-0.00340297
-0.207347
0.00297779
-0.179019
0.00737485
0.00625491
0.00139531
-0.0257684
-0.212456
-0.213056
-0.00303541
-0.0663807
0.00265693
0.00587299
0.00602486
0.00537111
0.00726791
0.00636586
0.00682529
0.0060046
0.00704049
-0.19259
-0.193368
-0.0044627
0.0049668
-0.184037
-0.212664
-0.0302081
0.00786661
0.000585727
-0.216433
-0.01948
0.00712922
-0.00029746
-0.218034
-0.0138724
0.00586354
0.00436925
-0.0396056
-0.217587
-0.192235
-0.0291211
-0.224453
-0.217345
0.00640907
-0.184733
-0.21109
0.0070743
-0.203807
0.00266292
0.00134019
0.00399172
-0.219579
0.00330923
-0.192006
-0.15724
0.005459
-0.0135819
-0.225907
0.00490526
-0.208557
0.00486528
-0.174135
-0.189226
0.0062566
-0.208726
-0.198127
0.0059524
0.00641187
-0.206291
0.00639973
-0.196346
-0.220732
-0.212377
0.00145599
0.00291732
0.00374448
-0.211495
0.00777508
0.0097605
0.00621759
-0.0317924
0.00498304
0.00597239
0.00338456
0.00528079
-0.184023
-0.21222
-0.0117191
0.00162635
-0.194774
0.00620801
0.00428086
0.00413431
-0.190688
0.00594829
0.003234
-0.209627
0.00562223
0.00590991
0.00519802
-0.170602
0.00500056
-0.0941255
-0.214119
0.00496341
-0.211783
-0.0107958
0.00462841
-0.210561
-0.202056
-0.219978
0.00673854
-0.0635692
0.0057106
-0.222891
-0.202762
0.00515769
-0.0491015
0.00553735
-0.213215
0.00118686
0.00298697
0.00403864
0.00609776
0.00379678
0.00470083
-0.198948
0.00361623
0.00800082
0.00125486
0.00453294
-0.213071
-0.190441
-0.236607
1.18725e-06
0.0058905
-0.207888
0.00828824
0.00573653
0.00489009
0.00701192
0.00822347
-0.0236303
0.00385452
0.00423706
-0.0730474
-0.212894
-0.217287
-0.236196
-0.185073
0.0072656
-0.200523
-0.216319
-0.0412864
-0.197371
-0.229918
-0.198672
-0.112389
0.00240584
-0.206831
0.00508097
-0.203599
0.0015538
-0.11167
0.00601647
0.00351364
-0.203636
-0.171529
-0.193593
0.00510403
-0.0157991
-0.0178307
-0.0234025
0.00546116
0.0048188
-0.00441199
-0.210601
0.00126236
-0.209285
-0.00896242
0.00302177
-0.209733
-0.00299294
0.00339614
-0.0160836
0.00335418
-0.147268
-0.230397
0.00154308
0.00457707
-0.182771
0.001839
-0.188633
-0.205925
-0.0954454
0.00392036
0.000886366
-0.189877
-0.198124
0.00950281
-0.0027642
-0.212847
-0.00350811
0.00596293
-0.0466654
0.00462333
-0.215988
-0.00692914
-0.19185
0.00679044
-0.0100491
0.00484914
0.0040389
0.00854957
-0.092136
-0.00361957
0.000343356
0.00135327
-0.20758
-0.212275
0.00173187
-0.0364343
-0.193354
-0.117539
0.00849071
-0.210209
-0.198434
-0.218551
0.00615036
-0.20267
0.00494936
-0.191595
0.00332702
-0.207492
-0.225094
-0.212703
0.00106369
0.00468078
-0.21224
-0.239895
-0.240439
0.00478536
-0.219414
0.00659298
0.0090393
-0.209467
-0.208612
0.00521721
-0.179707
-0.00835319
0.00449954
-0.217148
-0.231819
-0.207351
0.0073452
0.00136622
-0.155407
0.00391178
0.00151936
-0.136033
-0.202072
-0.208267
-0.213642
0.000433159
0.0053707
-0.215489
-0.168167
-0.211433
-0.0904461
-0.190546
-0.17587
0.00290922
0.00457535
0.00509413
0.00682196
0.00634197
-0.193137
-0.123819
0.00665191
0.00853875
0.00673456
-0.00244366
-0.0175176
-0.216899
-0.214625
-0.00228978
-4.55611e-06
0.000570427
-0.221243
-0.120935
-0.211027
0.00696058
-0.188521