/*--------------------------------*- C++ -*----------------------------------*\
  =========                 |
  \\      /  F ield         | OpenFOAM: The Open Source CFD Toolbox
   \\    /   O peration     | Website:  https://openfoam.org
    \\  /    A nd           | Version:  10
     \\/     M anipulation  |
\*---------------------------------------------------------------------------*/
FoamFile
{
    format      ascii;
    class       surfaceScalarField;
    location    "350";
    object      phi;
}
// * * * * * * * * * * * * * * * * * * * * * * * * * * * * * * * * * * * * * //

dimensions      [0 3 -1 0 0 0 0];

internalField   nonuniform List<scalar> 
38623
(
0.203695
-0.203599
0.0745892
-0.0746857
-0.0609715
0.0753194
0.122434
-0.136781
-0.0064631
0.0132517
0.041957
-0.048744
0.00352064
-0.00195359
-0.0207089
0.0191422
0.0158211
0.035931
-0.035185
-0.0165659
-0.0992236
-0.211458
0.196094
0.114588
0.0836691
-0.0689884
0.077507
-0.0921876
-0.00797436
0.00808562
-0.00617977
0.00606857
0.0116103
0.0196718
-0.1866
-0.0284817
0.0676909
-0.287342
0.24813
0.107137
0.120212
-0.110797
-0.116553
-0.189041
0.166925
-0.00375729
0.0258742
0.385372
-0.0372705
-0.392035
0.0439341
-0.178496
0.162012
-0.00443156
0.0209164
0.0369462
0.0479147
-0.052682
-0.0321791
0.0346346
-0.257004
-0.0372618
0.25963
-0.0131105
0.339503
-0.000303011
-0.326091
-0.00832148
0.246015
-0.00823435
-0.229459
0.00533953
-0.0220306
0.336968
-0.320278
0.351214
-0.244561
0.210934
-0.317588
0.166114
0.12632
-0.0380201
-0.254417
0.106699
0.0798426
-0.0794055
0.286757
-0.246627
-0.000415455
-0.039716
-0.163931
0.225384
-0.207104
0.145651
0.0351334
0.224943
-0.0351868
-0.22489
-0.0133672
0.444262
-0.428469
-0.00242478
0.0278501
-0.167336
-0.0521001
0.191586
0.189748
-0.157399
-0.403134
0.370784
-0.0087124
-0.000764479
0.0014089
0.00806801
-0.232466
0.251892
0.33179
-0.0141207
-0.0188686
0.0187198
0.0142696
0.00554404
-0.00145901
0.000735239
-0.00482038
0.0353759
-0.0376108
-0.0383484
0.0405835
0.267237
-0.0224144
-0.253145
-0.00817357
-0.00995036
-0.204844
0.222969
-0.302284
-0.153164
0.128883
0.326564
-0.00053123
0.000112071
-0.0069792
0.00739832
0.00559341
-0.202808
-0.122379
0.139006
0.00391638
-0.0205431
-0.0511689
0.0637843
0.24991
-0.262526
0.0557621
0.33992
-0.354572
-0.0411103
0.23928
0.163077
-0.227039
-0.175321
0.26158
-0.151316
0.266132
-0.376395
-0.380702
0.185759
0.310161
-0.115218
0.464732
0.176725
-0.388751
-0.252705
-0.0244137
0.0625427
-0.365114
0.326985
-0.00247925
0.018386
-0.00768769
-0.00821846
-0.225447
0.165378
0.133868
-0.0738003
-0.000949767
0.0019116
0.00094444
-0.00190626
0.00713741
-0.000460168
-0.00729956
0.000622389
-0.00485206
-0.00127854
0.00138431
0.00474634
-0.0140335
0.0358523
-0.030779
0.00896032
-0.00183398
0.000686398
-0.00162712
0.00277446
-0.300367
-0.0944281
0.234046
0.16075
-0.000938997
0.000402367
0.00608061
-0.0179123
-0.341806
0.346608
0.0431763
-0.0271041
-0.0586777
0.0426053
-0.00431434
-0.00780473
0.00824631
0.00387278
-0.133443
0.171405
0.12815
0.00955861
-0.00948786
0.00499514
-0.00506576
-0.00833991
0.00367092
-0.00322598
0.0078951
-0.31139
-0.101172
0.0318594
-0.294094
0.283622
0.0696981
-0.0592273
-0.0053648
-0.00651101
0.00760974
0.00426613
-0.182225
-0.250372
0.268667
-0.41794
0.296641
-0.195196
0.316496
-0.158535
0.135161
-0.0241671
0.0475422
-0.425437
0.320195
0.125171
-0.0199303
0.0856013
0.410656
-0.0315249
-0.324003
-0.0543641
0.0547366
0.323632
0.00835785
-0.00265459
-0.00851816
0.00281502
0.0206419
-0.00887663
-0.0182277
-0.0457113
-0.0088699
-0.412786
0.467367
0.0607454
-0.0605026
0.0367033
0.309614
-0.296186
-0.195653
0.040666
-0.0621619
0.0612163
-0.0397206
0.0179968
-0.154858
0.149549
-0.0126872
0.0942082
0.1599
-0.164942
-0.0891666
-0.0113207
0.00526276
-0.00515295
0.0112109
0.0330093
-0.0270109
0.301098
-0.307098
-0.100805
0.207513
-0.192577
0.0858689
0.0425112
-0.0576147
-0.0904708
0.105574
0.0745195
-0.0923146
-0.00998262
0.00795897
-0.000349795
0.00237348
-0.022566
0.0497605
-0.0296016
0.00240721
-0.204177
0.21297
-0.0187437
-0.0589352
0.0945442
-0.0993156
0.0637062
-0.00137643
0.000393714
0.000299253
0.000683292
-0.22247
-0.0726799
0.0997335
0.195417
0.313843
-0.315601
0.0347671
-0.00667695
-0.000305533
0.00637132
0.000611205
-0.365562
0.0600048
0.346876
-0.0413234
0.00359484
-0.00682768
-0.00213194
-0.284876
-0.166902
0.176652
0.275124
-0.00671911
-0.00313782
0.00509942
0.00475752
-0.00716769
8.72767e-05
-2.47338e-05
0.00710521
0.413293
-0.0908811
-0.329498
0.00708594
0.0644058
-0.0874469
-0.202408
-0.212676
-0.0173013
0.0464702
0.183507
0.00701738
0.00920025
-0.000395259
0.292656
0.0541042
-0.0795492
-0.26721
-0.0369651
-0.097009
-0.0245613
-0.0556676
0.02095
-0.12974
0.164457
-0.00643562
5.63225e-05
0.00641169
-3.21553e-05
0.00137544
0.00659025
-0.00751148
-0.000454173
0.000137084
0.00176105
-0.0118807
0.220143
-0.0818279
-0.237539
0.164101
0.322238
-0.135415
0.13952
-0.0410704
0.323255
-0.286972
-0.116664
0.0803795
-0.105971
0.146091
0.0862413
-0.126362
-0.234612
0.0693994
0.170806
0.0610493
-0.0451011
-0.0385139
-0.00255785
0.253583
-0.00259372
-0.248432
-0.123744
-0.293244
0.114703
-0.274884
-0.0464833
0.0521953
0.26917
-0.149108
0.294328
-0.422592
0.277372
0.0438231
-0.250514
-0.0448581
0.251548
-0.000191038
0.000392114
-0.00891352
0.00548227
-0.00632633
-0.00433363
0.00517777
-0.102279
0.0189004
0.177587
-0.000162171
0.00560861
0.000215284
-0.00566174
-0.0351021
-0.327652
0.0339387
0.328813
-0.00247765
0.00010054
0.00983513
-0.0074574
-0.0876269
0.0815273
-0.0909092
-0.0491347
-0.530873
0.434105
0.145905
-0.00819195
0.00260672
-0.00275458
0.00749073
-0.000122327
-0.000230932
0.001676
-0.013706
-0.00799807
0.0200285
0.00732583
-0.0145009
-0.002803
0.00997871
0.00834979
0.014122
-0.00703765
-0.0154336
0.0239155
0.155138
-0.142059
-0.0369958
0.136529
-0.00231562
-0.016754
-0.117458
-0.167753
0.158971
0.0419029
-0.0331206
0.359062
0.0763964
-0.167763
-0.267696
-0.0915542
0.208009
-0.172123
4.99996e-06
0.00600227
-0.0060535
4.62263e-05
0.0357409
0.149181
0.0501257
-0.112273
-0.158906
0.221052
-0.0883409
0.125862
0.00824716
-0.00830607
-0.000132168
0.147417
-0.15911
-0.229916
0.241608
-0.119286
-0.207625
0.187244
0.139667
0.0752481
0.278629
-0.105143
-0.248734
0.306331
0.0108784
-0.0314981
-0.285712
0.434712
-0.178624
0.0671636
0.252581
-0.0454378
-0.249493
0.0423487
-0.0742434
0.0406253
-0.0200679
0.0536861
-0.00145145
0.000424158
0.00692277
-0.00589528
0.0194041
-0.321297
0.335898
-0.0340089
0.0516355
-0.00235653
-0.0436436
-0.00563552
0.219198
-0.0946247
-0.379099
0.254525
0.0780721
-0.0949649
-0.0620498
0.0789427
-0.0312303
0.34379
0.11101
-0.42357
0.0385954
-0.0395795
0.0280395
-0.0270553
-0.0540361
0.0411996
0.259036
-0.2462
0.014347
0.0905705
-0.0839685
-0.235386
0.136998
0.201612
-0.103222
-0.0126909
0.0163622
-0.00950197
0.00583071
0.00226903
0.00987846
-0.00811244
-0.00403497
0.0462894
0.327065
-0.328986
-0.0443716
0.0856903
0.0285083
-0.0462346
-0.0679643
0.00248072
-0.00915596
-0.00134259
0.00801788
-0.118466
0.12138
0.364673
-0.00321365
-0.325462
-0.0359974
-0.00152119
0.321283
-0.300358
-0.152566
0.151103
-0.0510376
0.0525009
-0.0060849
-0.00156854
0.00686312
0.000790343
-0.185916
0.340067
0.169451
-0.323602
0.252918
0.115284
-0.220785
-0.145632
0.0301765
0.149594
-0.0341378
0.0173799
0.0036724
-0.0175312
-0.173493
-0.244524
0.167645
0.00444989
-0.00487517
-0.00205213
0.222974
-0.427165
0.271784
-0.0675918
-0.0131036
0.000245717
0.0101677
0.00269025
0.289215
0.0420726
-0.290109
-0.0411778
0.0440164
0.219265
-0.0454799
-0.217801
-0.197309
-0.0289467
0.208963
0.017293
-0.171622
0.145475
-0.111793
0.13794
0.00328435
0.0206363
-0.0113966
-0.0125243
0.0103029
0.00502325
-0.0120415
0.0758695
0.0340932
-0.0692967
-0.0910033
-0.127096
0.0740862
0.144012
-0.034258
0.0760878
-0.33946
0.297629
0.356917
-0.347075
-0.027754
-0.174988
0.0737752
-0.00429342
0.00476012
0.0074923
-0.00690158
-0.000755819
0.00522454
0.00243292
0.249049
-0.168879
-0.00254576
0.0042489
0.00600998
-0.00771307
-0.306525
0.0618368
0.0278149
0.216875
-0.238427
0.286693
-0.0994353
-0.23868
0.120472
-0.152766
0.270975
-0.0422104
-0.279813
0.0491925
0.27283
0.113056
-0.152266
-0.231305
0.270515
0.000386009
5.84835e-05
-0.0069589
0.00651457
-0.000483141
0.00647739
-0.00854004
0.00200548
-0.00586355
-0.000558667
0.00441694
0.150331
-0.120397
-0.135907
0.285785
-0.02421
-0.263097
-0.213331
-0.247893
0.222529
0.238696
-0.00247687
0.00690086
-0.0058754
0.00816249
-0.122798
-0.0277975
0.142432
0.00887113
-0.00643131
-0.0104141
0.00270211
-0.00928231
0.00906094
-0.0360437
0.0173231
0.0280231
-0.00930273
-0.0502346
-0.162054
0.0637066
0.148582
0.187046
-0.00397241
-0.0584709
-0.124603
-0.0890134
0.215255
0.0612431
-0.187486
0.275851
-0.0351879
-0.267675
-0.00778936
-0.000622531
0.0078807
0.299744
-0.291074
-0.0429287
-0.369206
0.204668
-0.021378
-0.00310525
-0.00112186
0.00239316
-0.00436169
0.00108706
0.00898643
-0.00571193
0.116493
-0.0152794
-0.0930512
0.0355838
-0.271727
-0.000195751
0.0068312
-0.0011305
-0.00550476
-0.0174613
-0.0107494
0.011947
0.016264
0.0568674
-0.0343264
-0.401001
0.378459
-0.0395948
0.0381782
-0.00637413
0.000307954
0.000138785
0.00592736
0.274542
-0.0634492
-0.265129
-0.0917901
0.285286
0.0218589
0.0323433
-0.0151064
-0.039096
-0.000129254
0.00670971
-0.00704057
-0.244401
0.0509309
-0.203353
0.055135
-0.0062087
0.154427
0.344782
0.0404679
-0.344322
-0.0409321
-0.174866
0.203954
-0.233734
0.204647
-0.00235946
3.3256e-05
-0.00233541
-0.0515104
-0.180766
-0.449251
0.461356
-0.0254742
0.0604943
-0.0394749
0.0149128
0.0102539
0.00026397
-0.00642523
-0.00409264
-0.193135
-0.276543
0.0265697
-0.00785248
0.00203463
-0.0207517
0.0583382
-0.373762
0.414415
-0.098989
-0.00978172
-0.00570074
0.00901266
0.00647016
-0.00136202
0.00237539
0.000898054
-0.269228
0.0372399
-0.0431505
0.275139
0.00131364
-0.0116677
0.0104912
0.00978932
0.00506995
0.0456363
-0.00101511
-0.00600878
-0.101175
-0.281317
0.0883963
-0.0650107
0.20448
0.0806751
0.0209151
-0.378257
-0.0314085
-0.0109263
0.00247874
-0.000708346
0.0851197
0.0215514
-0.0209809
0.102851
0.37865
-0.351404
-0.130099
0.06671
-0.196387
0.269555
-0.139878
-0.00484158
-0.00128987
0.00166385
0.00446763
-0.404063
0.403038
-0.0367947
0.0378196
0.101438
-0.0147085
-0.0582211
0.00456898
-0.00745953
0.00187545
0.00683493
-0.0038295
0.00429667
-0.000585042
-0.00661611
0.0029045
-0.074332
-0.297329
0.0773468
0.294315
-0.23823
-0.15856
0.000674495
0.000663311
-0.0482812
0.0741111
-0.267862
0.242033
0.000908617
-0.00798221
-0.00111828
-0.104212
0.159299
0.0270541
0.236462
-0.222317
0.0541207
-0.282353
0.292017
-0.00974138
-0.00878295
0.00542075
0.0135913
0.00431346
-0.00896333
-0.00894109
-0.0283393
0.00676282
0.0061416
0.0154349
0.00855948
0.0160568
0.15025
-0.216609
-0.0985821
0.00437086
0.0172573
-0.0042478
0.000346154
0.000716308
0.00266781
-0.00373025
0.0789203
-0.184142
0.232971
-0.127749
0.107061
-0.147917
-0.19675
0.0372433
0.000459393
0.00703472
-0.00715771
-0.000336391
0.0395222
-0.0621245
-0.221798
0.00546059
0.00109297
-0.000727687
-0.00582575
0.250525
-0.2908
0.0786539
-0.0383797
0.0069083
-0.0137691
0.00862202
0.0727807
-0.0445971
-0.231536
3.45917e-05
-0.000386041
-0.00450057
-0.0602081
-0.282253
0.0727976
0.269663
0.204779
0.0342656
-0.204439
-0.0346057
0.00580382
0.00559677
-0.00305964
-0.00834084
0.00275966
0.000230405
-0.00402915
0.00103969
0.0640822
-0.287977
0.433044
-0.209148
0.00796974
-0.00843835
0.00317075
-0.0552026
0.0507491
0.043049
0.00310596
-0.0137865
-0.00264832
-0.00190717
0.00319351
0.00425133
-0.00743551
-0.00332681
0.00309376
-0.00440461
0.00560755
-0.0104634
0.0036599
-0.0111097
-0.194034
0.00570498
-0.00501386
0.00281951
-0.00351048
-0.287732
0.245427
0.0111747
-0.00738177
-0.20797
0.00860915
0.000517174
-0.00861705
-0.000509243
0.00875861
-0.0104406
-0.0140847
0.0157666
-0.0339032
-0.037055
0.0210579
0.0499
0.00883931
0.00180671
-0.0258856
0.0191493
-0.013574
0.0203107
-0.1047
-0.318121
-0.0195882
-0.0141498
0.00599572
-0.00158818
0.00320218
-0.00403761
0.31504
0.0439681
-0.066352
-2.1294e-05
-0.00634791
0.00174868
-0.0033918
0.0597175
0.0561434
-0.0377891
-0.324258
0.0509511
-0.0475149
0.320822
0.108334
-0.165278
-0.0886886
-0.016728
-0.000284896
0.0128452
0.00416812
0.00795027
-0.0004676
0.00461822
0.00543693
0.0998862
-0.0480041
-0.0758525
0.02397
-0.00318186
0.00618232
-0.0229908
0.000131129
0.398992
-0.376132
0.00236716
-0.00757308
0.0055138
-0.00165285
0.000726608
0.000611164
-0.00519535
-0.00149794
0.00608249
-0.310553
-0.22918
0.170526
0.0660752
-0.036158
-0.191598
0.0201551
0.178483
-0.00703969
0.0121702
0.0121812
-0.0136234
-0.0107278
0.00383024
-0.0101179
0.0136143
0.00220862
0.00753071
-0.0049461
-0.00479293
0.194321
-0.0917921
-0.191543
-0.0924763
-0.0234057
0.0629101
0.0529726
0.00583542
-0.185046
-0.150592
0.329806
-0.00748461
0.00126709
-0.249173
-0.0149581
0.21585
0.00647869
0.00257302
-0.00684302
0.00254904
-0.0212231
-0.00781529
-0.00219131
0.00115411
0.00885298
-0.153902
-0.239386
0.0620676
0.331219
-0.249341
0.287949
0.13812
-0.176732
-0.00891306
0.00854075
-0.00936902
0.00348531
0.0121707
-0.0119827
0.00674047
-0.0976346
0.0779697
0.459604
-0.47847
-0.0302695
0.382193
-0.511865
0.16219
-0.0325184
-0.000543576
-0.00625493
0.0011894
0.00560942
-0.0918826
-0.153516
0.179297
0.0661028
-0.000438509
-0.00806344
-0.0380336
0.0259893
0.0100481
-0.00399984
-0.0138634
-0.00366709
0.00484824
0.0152246
-0.0164049
0.00661987
-0.000145668
-0.00695737
-0.00024246
-0.00585782
0.000359272
-0.000803613
0.00281965
0.0453768
0.19603
0.0452859
-0.16577
0.275402
0.205695
-0.315327
0.297199
-0.478349
0.282137
-0.100987
-0.0664156
0.0532218
-0.0129671
0.00996638
0.0153679
0.102951
-0.302196
0.180478
0.0187676
-0.0401021
0.0234548
0.283339
-0.0127086
-0.264793
0.00278994
-0.00131967
-0.00837179
-0.168716
0.0500673
-0.044487
0.163136
-0.00111247
0.000518124
0.00812508
-0.22967
0.185995
-0.241201
-4.03852e-05
0.0497016
0.362943
0.0316171
0.14032
-0.207161
0.00629644
-0.00324225
-0.0021283
0.00366898
0.00170149
-0.0413658
-0.123841
0.139723
0.0254835
-0.336142
0.00127598
-0.00564173
-0.000170218
-0.00748771
-0.00906973
0.00339262
-0.0183745
0.265348
-0.178201
-0.0130486
0.00356517
0.00312406
0.00635981
0.0684584
-0.0629959
0.0606128
-0.0220721
-0.26154
0.0157497
0.192599
-0.364559
0.242106
-0.0701454
0.371781
0.0427982
-0.0323857
0.0382016
-0.0278485
0.117371
-0.167378
0.211967
0.159366
0.00614413
0.00765939
0.237339
0.0492185
-0.0502506
-0.23631
-0.00351494
-0.0110089
0.015929
0.164318
-0.130121
-0.0356244
0.220995
0.00246467
0.00490647
0.00560765
0.00136861
-0.0028059
0.00916543
-0.00619406
0.000145948
-0.00311727
0.0107175
0.204639
-0.188303
-0.427443
-0.372092
0.103854
0.010472
-0.281716
-0.00185307
-0.000623011
0.02133
0.0199373
-0.0283745
-0.0128925
0.00714706
0.00359716
-0.00277445
0.00537477
-0.00317393
0.00128509
0.0075652
0.0327168
-0.0477239
0.0074419
-0.0447846
0.0728267
0.0478275
-0.138223
-0.0629188
0.109539
0.0916034
0.00447019
-0.00534522
-0.000131356
-0.00896825
-0.00323107
0.0042447
-0.00733984
-0.0509463
0.533802
-0.0227449
0.107061
-0.0156865
-0.0572813
-0.0054567
0.00355292
0.00838243
0.072427
0.0784587
-0.0541438
-0.0967423
-0.0215465
-0.0110983
0.0186118
0.00472183
-0.0260403
-0.00702021
0.134171
0.056004
-0.11609
-0.18637
-0.0292051
0.0559652
0.15961
-0.0479311
0.229193
0.0407647
-0.222026
-0.00313072
0.00615102
0.0107129
-0.0137332
0.279177
-0.182505
0.175722
-0.272394
-0.163222
-0.0591987
0.101026
0.121395
0.0115177
-0.00870548
0.00810248
-0.00850443
0.00131069
-0.222713
0.164589
-0.0084734
0.0152224
0.00784258
-0.0145917
-0.0163149
-0.00537801
0.00757218
-0.0019576
0.00916767
-0.00429163
0.0121695
-0.141559
-0.15187
0.349443
-0.305492
-0.0270905
-0.0168634
-0.00501697
-0.000169733
0.00531988
-0.000133145
-0.126956
0.164646
-0.191591
-0.282244
0.302099
-0.154943
0.135089
-0.409832
-0.0379399
0.388711
0.0590612
-0.0974222
0.143504
-0.087447
-0.0284366
0.0219755
0.363379
0.00228606
0.00796217
-0.00277454
0.00206511
0.000940443
0.0549651
-0.0385333
-0.00290275
0.00571306
-0.00594099
-0.00283078
-0.0047636
0.00906934
-0.0184617
0.0145672
-0.00955195
0.00386736
-0.396108
-0.158868
0.244422
0.0100639
-0.0324781
-0.00431884
0.0267331
-0.271681
-0.033975
0.0034932
0.00703776
-0.004303
0.0285129
0.377385
-0.437129
-0.00341758
0.00132526
-0.00638108
0.164642
-0.0640577
-0.192466
-0.131701
0.240067
-0.00271308
0.00798031
0.00848815
0.00863527
0.00367501
-0.102558
0.00398341
-0.00897306
-0.215942
-0.297756
0.0707322
0.141352
-0.0744839
-0.1376
0.0189861
0.00872285
-4.65848e-05
-7.40034e-05
-0.00661511
0.0067358
-0.0152516
0.00769771
0.00258492
0.00496991
-0.272932
-0.0096001
0.0524865
0.230047
-0.0421743
0.162857
-0.20985
0.219763
-0.251682
0.00157915
-0.489725
0.0434584
-0.0322029
-0.010506
-0.0426338
-0.177692
-0.152983
0.0505648
0.28011
-0.0511518
0.159456
-0.158539
0.0188786
-0.0197019
0.0207607
0.00747817
-0.00522829
0.00461116
0.00486614
0.00895729
0.0506879
-0.0452983
0.420456
-0.432451
-0.219052
0.231047
-0.00619179
0.117599
-0.342684
0.414834
-0.0126175
-0.284861
0.296169
0.0013089
-0.0182437
0.0204676
-0.0160033
0.0137799
0.0438436
-0.000870449
-0.0329084
-0.0149001
0.00530159
-0.00998956
-0.137075
0.0286638
0.14797
-0.0395581
0.198367
-0.0570331
0.0423742
-0.183711
-0.0765024
0.0497219
0.0674063
-0.17011
-0.0980096
0.00829241
-0.226036
0.0486132
0.169131
0.0454763
0.0244389
-0.0296696
-0.0402458
-0.00211562
0.00129896
0.00765162
-0.0472142
0.278456
0.0219928
0.00691835
-0.0158742
-0.0130366
-0.00624114
0.00493475
-0.00463412
-0.0348317
0.00698835
0.00887184
0.00480808
-0.00480871
0.0157353
-0.016493
-0.0122685
0.0130272
-0.0782088
-0.420117
0.0884938
0.0145703
-0.0168341
0.0102073
-0.00794246
0.314302
-0.139996
0.111072
0.193567
0.0860467
0.0686316
-0.0831389
-0.0715402
-0.00018536
-0.00817744
-0.000513276
0.0088761
0.00297204
-0.00428311
0.00823407
0.0145956
-0.0171038
0.00838417
-0.0083666
0.00739813
-0.0074156
-0.012596
-0.00209023
0.00301861
0.0746234
0.153466
-0.0840763
-0.368834
-0.035446
0.0258006
0.37848
-0.415906
0.0288371
0.00775731
-0.0196352
-0.0164594
0.021945
-0.00554837
0.00720123
-0.000178871
-0.000120243
-0.0072146
0.00751379
-0.0156566
0.254008
-0.592135
0.136223
-0.0338121
0.0313765
0.017189
0.0371983
0.00989108
-0.0117136
0.0280144
-0.0246389
0.0226139
-0.13923
-0.276568
0.0393874
0.37641
0.000121395
-0.00490649
0.00042328
0.23097
0.167754
-0.281124
-0.0938019
0.0696702
0.00328077
0.00378875
-0.502234
-0.0544373
-0.0354652
0.115725
-0.0226052
-0.0906213
-0.0024982
0.035817
0.0871724
-0.00469851
-0.0055436
-0.0198325
0.294941
-0.0825094
0.00633622
0.00247022
0.000358988
0.00373301
-0.00964106
0.0231476
0.0152873
-0.0232125
0.00744797
-0.0714621
0.0229924
0.0410225
0.240332
0.019219
-0.22372
-0.0358311
-0.335963
0.32484
0.0223167
-0.0111949
-0.0337502
-0.363519
-0.0571117
-0.298006
0.139176
-0.00332328
0.00543781
-0.00672125
0.00460741
-0.0127817
-0.00496716
-0.00635123
-0.290786
0.240109
0.0503345
-0.0399196
-0.0370948
-0.0407075
-0.298771
-0.0503023
0.288864
0.265294
-0.0430201
0.0423454
-0.131891
-0.0475286
0.459095
-0.0575714
-0.139943
-0.270616
0.20755
-0.270325
0.233514
0.238375
-0.201564
-0.0206618
0.0981192
0.266333
-0.00136207
-0.00480053
-0.00167975
0.00784259
-0.289765
-0.141441
0.399942
0.0312635
-0.0054631
-0.000843275
0.0108677
-0.00456134
0.071101
-0.123681
-0.050195
0.102777
-0.239329
0.160505
0.354224
0.00823259
-0.0057749
-0.232531
-0.0237915
-0.313102
0.0898148
0.24708
0.0082383
0.00122106
-0.018605
-0.00374118
0.0136408
0.020996
-0.0176598
-0.0185885
-0.332419
-0.127703
0.0640153
0.214953
-0.0662338
0.00134574
-0.000317683
0.00457974
0.00525717
-0.00207796
-0.429076
0.00404271
0.00661988
-0.00787258
0.0334894
-0.400668
-0.0368851
-0.466559
0.422637
-0.0342871
0.174165
0.0219165
-0.0336528
-0.335338
0.122132
0.0217997
-0.294634
-0.0427792
0.315615
0.011252
0.0183411
-0.00255116
0.00699256
-0.00555356
-0.0214939
0.00353771
0.0228048
-0.00701351
-0.000386651
-0.00241634
0.00611095
-0.0100821
-0.424947
0.469698
-0.0346698
0.0121908
-0.306173
0.0564765
-0.049075
0.0315709
0.0394383
0.00223539
-0.143997
0.261794
0.0878997
0.0281471
0.382404
-0.384018
-0.0265334
0.424094
-0.405663
-0.000730078
-0.00509315
-0.168181
0.168521
-0.210935
0.233753
0.0128669
-0.0356832
-0.00396996
0.0289297
0.0266759
-0.0262856
0.25072
-0.00512693
-0.219308
0.062833
0.145961
-0.0079877
-0.000159437
0.00812243
0.0391931
-0.239236
-0.439348
-0.0393891
-0.0331285
-0.0726467
0.0128311
0.261698
-0.0138343
-0.00184938
-0.0494772
0.144678
-0.14746
0.0522597
-0.0328105
0.0258346
-0.234822
0.168873
-0.00259345
-0.00435302
-0.00612555
0.0130735
-0.0507464
0.0571577
0.00609358
0.197911
0.0294784
-0.192256
-0.00431061
-0.00617735
0.00116822
0.0461544
0.0733317
0.0603355
0.263311
-0.0646102
0.0217976
0.0041301
-0.0113316
0.00793984
-0.0584711
0.122958
0.0392265
-0.0321206
0.0526985
-0.0598049
0.0233731
-0.0179357
-0.00477809
0.00219121
0.00482249
0.103082
-0.0292579
0.0875233
-0.161349
-0.0232862
0.0428446
0.011187
-0.0307445
0.0914687
-0.32458
0.340397
-0.260379
0.200312
-0.335446
0.00459654
0.00052978
-0.0099827
0.00641634
0.00583541
0.0132616
-0.198076
-0.0570419
0.166838
0.0882813
0.0913718
-0.092928
-0.0336286
0.161085
-0.0732649
0.0681809
-0.156002
0.316078
-0.326404
0.0505767
-0.0402522
0.234372
-0.127662
0.171832
-0.278541
0.332493
-0.338401
0.0428755
-0.0369662
0.386019
-0.319616
-0.0446031
0.376881
-0.0159227
-0.270396
-0.0342645
0.407513
-0.0285785
-0.00124535
0.0251895
-0.129659
-0.31809
0.283383
0.164366
-0.0278715
-0.047866
-0.0988451
0.147783
-0.0199562
-0.277235
-0.402727
0.0127099
-0.0349297
0.166889
-0.0309829
-0.125189
-0.0284174
0.0274562
-0.0135398
0.0674583
0.225718
-0.0558382
-0.320787
0.0222132
-0.0337274
0.395428
-0.383913
0.193571
-0.0814313
0.00929868
-0.024944
-0.173336
0.188981
-0.0370968
0.256454
-0.245644
-0.0366185
0.402386
-0.031169
0.205807
0.0232736
0.0232156
-0.0221442
-0.292502
0.281586
-0.11283
-0.212425
0.0684378
0.210698
-0.0235801
0.0373522
-0.0370576
-0.00105089
-0.01292
-0.00820906
0.0325721
0.0223093
-0.031734
0.00106462
-0.00311441
-0.00349847
0.229556
-0.0357827
0.00591368
-0.0054984
0.0263115
-0.0349065
0.172499
-0.163903
-0.333674
0.172334
0.228796
0.325472
-0.0150175
0.000364753
-0.31082
0.288834
0.031837
-0.0448215
-0.0448457
0.30929
-0.0385375
0.0346598
-0.305412
-0.096085
0.600472
-0.0346885
0.324052
0.0450054
-0.0365638
0.001597
0.0120854
0.0319543
-0.0139356
-0.0291341
0.023368
0.0151136
-0.00439357
-0.200416
0.189695
0.286722
0.143308
-0.0440123
0.205176
-0.173043
0.0237431
-0.0558774
0.22385
-0.177731
0.157067
-0.191457
0.0850635
-0.0506746
0.159865
0.113873
-0.0685628
0.076721
-0.00471434
0.0187397
-0.0907458
0.165297
-0.0740484
0.0698355
0.0455997
-0.0226008
0.0198462
0.215339
0.0974664
-0.0889536
0.318376
-0.0152379
0.00649054
-0.309631
0.1424
-0.128727
0.11333
-0.127006
0.21143
-0.223924
-0.0641447
0.0766387
0.268674
-0.463765
-0.0814785
0.161747
-0.066043
0.0910717
-0.186775
0.317941
0.0197733
-0.0193404
0.162284
-0.161253
0.0284469
0.0174615
0.357065
-0.353631
-0.0208932
0.262728
-0.297519
0.0154677
0.0193219
-0.0465456
0.187062
-0.131219
-0.0326035
0.213466
0.211765
-0.192516
0.134938
-0.154188
0.231861
-0.155722
0.17291
0.0527062
-0.0591844
0.163544
0.00905815
0.143195
-0.135592
-0.0166627
-0.0217386
0.123893
-0.110967
0.00881276
0.0954277
-0.049455
-0.0745295
0.0285584
0.0625605
0.019948
-0.00578692
0.156922
-0.0703215
0.041221
-0.0355724
0.0399521
0.0750462
0.205587
-0.115337
0.154275
-0.132274
0.191722
-0.0530105
0.0727189
0.21193
0.0903825
-0.0869738
0.0845468
-0.0497562
0.0128284
-0.0215003
0.290209
-0.281537
0.296124
-0.0213377
0.0161489
-0.290934
0.223291
0.0282456
0.0111892
0.228623
-0.115992
0.121742
0.277862
-0.193757
-0.048864
0.051219
-0.331283
0.32893
0.339262
-0.329708
-0.00720537
-0.00234755
0.0242038
0.0105429
0.22027
-0.379921
0.197566
0.209619
-0.175325
0.339894
0.0145609
-0.0149515
0.219222
0.136067
-0.126666
-0.269975
-0.0944255
0.126862
-0.0848631
0.0784499
0.159878
-0.176094
-0.257781
0.188019
0.245855
0.159158
-0.147189
-0.00291151
0.129214
-0.122289
0.198401
-0.185486
0.0621295
-0.00448954
0.293026
-0.322134
0.0335966
0.365314
-0.0290919
0.00304002
-0.101416
-0.282068
0.0861565
0.197746
-0.386477
0.264816
-0.0366016
0.296912
0.0368053
-0.297116
0.0420641
-0.0457895
-0.0198544
0.104442
0.252281
-0.141582
0.0547859
0.149628
-0.0584459
0.291269
-0.290211
0.057389
-0.00518147
0.279708
-0.28199
-0.140212
0.0535963
-0.374521
-0.0521469
0.37307
0.0534469
-0.0745182
-0.085999
0.107071
-0.0730945
0.177064
0.245471
-0.0071596
0.0223935
-0.00215952
0.280447
-0.376726
-0.19287
0.416246
-0.220645
-0.346609
0.15101
0.210531
0.387129
-0.309392
-0.0528105
-0.0249258
0.00132817
0.0010462
-0.00873676
-0.000813756
0.239699
-0.333769
0.0374372
-0.0226855
0.176136
-0.107352
0.318349
0.314894
0.164646
-0.308221
-0.171318
-0.227328
0.235352
-0.332604
-0.0116268
-0.0675979
0.407201
-0.09914
0.0256265
-0.0321023
0.0122219
0.027647
-0.0017506
-0.161331
0.157335
-0.124733
0.0854333
-0.10889
-0.0807934
0.0801195
0.0541219
-0.121464
0.0574755
0.119767
-0.0557766
-0.0570226
0.0868172
0.0114272
-0.27205
0.147962
-0.0650895
-0.0343752
0.190407
0.0108566
0.0206865
0.153595
0.139843
0.0961628
-0.030419
-0.0764366
0.0698588
-0.286045
0.292622
-0.18291
0.0500369
-0.0495302
0.0790356
-0.146799
0.160541
0.209547
-0.24815
0.146561
0.157733
-0.0561427
-0.0570439
0.0388116
-0.0890782
0.0630425
-0.0211777
0.0170234
-0.00582106
0.0913033
-0.0862705
0.206897
-0.322687
0.327383
0.0864922
-0.0911881
0.0395159
0.0535497
0.0316619
0.234186
-0.228639
-0.0372088
-0.063439
0.291997
-0.301654
0.233058
-0.071187
-0.132272
0.0339092
-0.00504984
0.000867325
0.00289266
-0.341581
0.0170829
-0.178209
0.0896701
0.179842
-0.293406
0.276408
0.149906
-0.132906
0.0176849
-0.389597
0.398484
-0.0265718
-0.126469
0.303926
0.193371
-0.31064
-0.101406
0.129665
-0.162346
0.205473
0.239416
-0.115536
-0.279601
0.295522
-0.0208986
-0.22287
0.248889
-0.0568668
0.0387448
-0.263695
-0.223066
0.290416
0.196346
0.0148337
0.000712378
-0.0252858
0.00973996
-0.0706391
0.0238678
-0.213895
0.260664
0.377147
0.226523
-0.359547
-0.244121
-0.201042
0.187258
0.190845
0.231584
-0.140828
0.0810758
-0.233071
0.166942
-0.0419481
-0.0207326
0.00565812
-0.269982
-0.0809118
0.152818
-0.195253
0.0240242
0.202937
-0.0317084
-0.204327
0.164032
0.212629
-0.42209
-0.026694
0.128911
-0.0353529
0.00278989
-0.00722068
0.369744
-0.372612
0.0102343
0.235594
0.126783
-0.0460616
0.0239269
-0.107605
0.201042
-0.164628
-0.0578617
0.0542981
-0.0855134
0.00825504
0.318417
-0.0504453
-0.276228
0.222426
0.162589
-0.238453
-0.129598
-0.0850218
0.207563
0.00705719
-0.00651326
-0.00589829
0.0268159
0.350518
-0.0408385
0.287975
-0.0409693
0.412911
-0.409541
-0.0399888
-0.374357
0.379225
-0.0403129
0.291065
0.0514786
-0.0428
-0.349919
-0.0373448
-0.363873
0.357922
0.0467946
-0.040843
0.395898
-0.435907
0.0796028
-0.0395956
0.308899
0.0471848
-0.0400066
-0.420299
0.437695
0.0224087
-0.039805
0.392854
0.00749233
-0.0356732
0.420314
0.0415209
-0.42181
-0.0400256
-0.464587
0.553847
-0.0495147
-0.0397445
-0.388419
0.0356961
0.3917
-0.0389787
0.372753
0.050279
-0.382115
-0.0409171
-0.0408508
0.0459112
0.314536
-0.0363953
-0.362123
0.367579
0.0350809
-0.0405363
0.0745707
0.255952
-0.0438029
-0.0610036
0.167666
-0.247472
0.24061
-0.155482
0.0142592
-0.0104508
0.00511398
0.0769894
-0.0342684
0.122746
-0.181857
0.162062
0.284811
-0.189096
0.280697
-0.0328882
0.293441
-0.245441
-0.00947655
0.000430662
0.132938
-0.186143
-0.0367896
0.027983
0.152001
-0.0251499
0.298745
-0.288656
0.305688
0.0243987
-0.0414305
0.377232
0.0140716
-0.0407876
0.308982
0.0193746
-0.0403822
-0.379284
0.319995
-0.0418864
0.169313
-0.0436339
-0.189242
0.289298
-0.352136
0.322467
-0.133768
-0.00851891
-0.0103279
-0.303883
0.322728
0.0434829
-0.0476926
0.143933
0.0615928
0.0231218
-0.18289
-0.226826
0.0783268
-0.0931255
0.241625
0.229421
-0.376762
0.0188679
-0.0470462
-0.0137693
0.218411
-0.234906
-0.232484
0.248979
-0.197889
-0.13115
0.0959682
-0.288888
0.299312
0.0322887
-0.0427129
-0.316493
0.349548
-0.0415779
-0.275034
0.280649
-0.0457165
-0.294968
-0.0446034
-0.296148
0.299445
0.0384253
-0.0417224
0.274821
-0.27811
0.0490877
-0.0457994
-0.465926
0.375273
0.128378
-0.0377239
-0.313096
0.326702
0.0259451
-0.0395527
-0.42024
-0.0541958
0.50966
-0.0352222
0.376899
0.127322
-0.46911
-0.0351104
0.373413
-0.357032
0.0187135
-0.0350939
0.395006
-0.385482
0.0254648
-0.0349898
0.0486761
-0.321714
-0.0101725
0.00850261
0.294694
0.185929
0.217376
-0.245571
0.187574
0.140204
-0.126739
0.29901
-0.204761
0.321921
-0.216771
-0.0197167
-0.253988
0.0602217
0.108586
-0.111333
-0.300534
0.0462501
-0.0418642
-0.0456507
0.0246697
-0.0417169
0.0563445
0.355507
-0.0349528
0.0450205
-0.0428452
0.395973
0.0340346
-0.0350018
-0.284828
0.0348492
-0.0449902
0.0355347
-0.0397322
-0.0350603
-0.284368
0.0518432
-0.0455857
-0.368627
-0.0590243
-0.0382742
0.00786771
-0.0352534
-0.122368
-0.321586
0.218836
-0.268575
-0.0403194
0.0523966
-0.154606
-0.0273893
-0.236316
0.273212
-0.153024
0.0196531
0.147891
-0.329854
0.257432
-0.221229
0.210237
0.198118
-0.172689
0.00312975
0.00252211
-0.00118171
-0.0939822
0.0898597
-0.208302
-0.154712
-0.00431621
0.0282994
0.140424
0.275434
0.202749
-0.036443
-0.319596
0.0490905
-0.258604
-0.0379571
0.0603356
-0.0509636
0.0437988
-0.0531709
-0.000446013
0.00383148
-0.248182
0.209271
-0.367073
0.110873
-0.0232941
-0.00361601
0.166694
0.0576056
-0.0492859
0.403827
0.0400118
-0.0399968
0.445384
-0.0274262
-0.0551928
-0.362765
0.0497766
-0.0408962
0.217624
-0.322876
0.0670578
-0.275344
0.0103971
0.0276712
0.0437992
0.239746
-0.251903
0.174745
-0.0428049
-0.269176
-0.089328
0.330494
-0.317605
-0.0876183
0.0928916
-0.000158539
-0.284782
0.0711354
0.0594882
-0.17514
-0.00143682
0.215586
-0.100632
-0.00241003
0.331028
-0.322129
0.160396
-0.0885518
0.115728
-0.00811316
0.00134735
0.0398232
-0.0476548
0.0783198
0.0257361
0.104313
-0.050207
-0.370505
-0.0795357
0.245712
0.00804089
0.142211
-0.154645
0.0415171
-0.0505473
-0.0351379
0.232089
0.273328
-0.185873
-0.251564
0.164109
0.155282
-0.0531396