/*--------------------------------*- C++ -*----------------------------------*\
  =========                 |
  \\      /  F ield         | OpenFOAM: The Open Source CFD Toolbox
   \\    /   O peration     | Website:  https://openfoam.org
    \\  /    A nd           | Version:  10
     \\/     M anipulation  |
\*---------------------------------------------------------------------------*/
FoamFile
{
    format      ascii;
    class       volVectorField;
    location    "350";
    object      U;
}
// * * * * * * * * * * * * * * * * * * * * * * * * * * * * * * * * * * * * * //

dimensions      [0 1 -1 0 0 0 0];

internalField   nonuniform List<vector> 
23845
(
(0.672194 -0.097375 7.93321e-21)
(0.470645 0.0923431 -3.54733e-21)
(0.293779 -0.0299943 2.14313e-20)
(-0.126705 0.0132307 6.53401e-22)
(0.104821 0.0576291 3.83852e-21)
(0.664053 0.00513918 -5.98372e-22)
(0.883251 -0.0414363 -9.74301e-21)
(-0.0702807 0.0635523 -2.42699e-22)
(0.712367 0.0114772 4.6451e-24)
(0.762528 0.0764193 -3.58339e-21)
(0.435096 -0.0430017 -1.41417e-21)
(0.645076 0.00200033 4.64168e-23)
(0.775401 0.0109179 1.80982e-22)
(0.691506 0.00886996 1.64024e-24)
(0.719271 0.041491 -1.60901e-20)
(0.815013 0.0522818 -5.02733e-22)
(0.710567 0.0180341 -1.30732e-22)
(0.556822 -0.0157423 -1.59715e-22)
(0.776806 -0.0211922 3.12475e-22)
(0.680658 0.00546252 2.60083e-21)
(0.810512 0.0835504 1.32584e-20)
(0.395953 -0.0337281 -1.93515e-21)
(0.956684 -0.0494382 -2.35177e-21)
(0.718964 0.0110101 4.63107e-23)
(0.677869 0.0669079 -5.26718e-22)
(0.773029 -0.0187985 -5.04854e-22)
(0.879598 0.0514918 7.97671e-21)
(0.669992 0.00313298 2.28722e-21)
(-0.0490612 -0.111709 6.89825e-21)
(0.692492 0.00485087 -1.59436e-21)
(-0.138731 -0.0052908 2.82052e-20)
(-0.0299724 0.0846806 3.66274e-22)
(0.482712 -0.0393462 7.44076e-21)
(0.59225 -0.0203019 4.59167e-22)
(0.646112 0.00218847 -1.43891e-22)
(0.656626 0.00399096 2.23005e-21)
(-0.0417213 0.113308 -6.33936e-21)
(0.64529 0.00232253 -6.99549e-23)
(0.650182 0.00304357 -5.15085e-23)
(0.720953 -0.0145561 2.37362e-23)
(0.804863 -0.0276573 -7.23787e-23)
(0.650032 -0.0109951 1.08159e-21)
(0.751492 -0.0026257 4.89061e-22)
(0.627301 0.0117459 -1.02707e-21)
(0.771499 0.0146785 -2.99695e-21)
(0.750846 0.0119955 2.78599e-22)
(-0.0294125 -0.0298 -1.55671e-21)
(0.766486 -0.0560742 -2.0882e-21)
(-0.0230615 0.0104033 1.37339e-21)
(-0.0566216 -0.109699 3.00039e-21)
(-0.0481071 -0.0426105 6.24936e-22)
(0.203332 -0.0321155 -3.10923e-21)
(-0.0214939 -0.0390757 -3.15901e-21)
(0.684897 0.00575089 -6.36751e-23)
(-0.0329241 0.0940137 6.68041e-21)
(0.746576 0.0179935 2.21462e-22)
(0.234449 0.0746995 1.92102e-20)
(-0.0883717 -0.0350866 1.66967e-20)
(0.723437 0.0907365 -2.55953e-20)
(0.0370496 0.0365898 -1.36017e-20)
(-0.0352581 0.0957544 2.35202e-21)
(0.636071 0.0133178 2.37203e-22)
(0.799694 0.0443431 -4.01338e-22)
(-0.0298867 -0.0876213 3.00784e-21)
(0.731058 0.0117305 -6.03415e-22)
(0.761886 0.010063 1.32614e-21)
(0.920323 0.0373815 8.26541e-21)
(0.780397 -0.0327051 -6.05636e-22)
(0.777603 0.0167857 9.81873e-22)
(0.777688 -0.0289141 -4.94752e-23)
(-0.0545548 0.083301 2.48948e-22)
(0.193757 -0.0117805 1.37685e-20)
(0.787824 -0.00220491 -1.40418e-22)
(0.783362 0.0387786 9.28012e-21)
(0.745626 0.0126266 1.16721e-21)
(0.67009 0.0405391 -4.61874e-23)
(0.645135 0.0019889 -2.25265e-23)
(0.65069 0.00319259 -2.61925e-22)
(-0.114997 -0.02095 3.40919e-21)
(0.692849 0.0254492 -3.5744e-22)
(0.894404 0.0633986 -2.15297e-21)
(0.700262 -0.0512051 -2.86539e-20)
(0.338901 0.0854847 -3.50896e-21)
(-0.0803588 -0.050008 -7.10679e-22)
(0.285361 0.0114112 -5.9244e-21)
(0.647859 0.00182277 -2.84698e-22)
(0.614511 0.0634982 1.0764e-20)
(-0.017264 -0.0122439 1.47364e-20)
(0.729438 0.0125914 -1.73818e-22)
(0.7402 0.0253127 4.70765e-22)
(-0.0463862 -0.079336 -1.11089e-20)
(0.835971 0.0301996 -1.59684e-22)
(-0.0429641 -0.0987065 1.00418e-20)
(0.649713 0.00301061 -4.8537e-22)
(-0.0858308 -0.0237919 2.49774e-21)
(-0.0515645 -0.0891708 -3.13546e-20)
(0.708007 -0.0127306 -3.02496e-22)
(0.755758 -0.0582466 -1.78061e-22)
(0.741486 0.0141162 -4.45587e-23)
(0.0239206 0.0370089 -5.83452e-21)
(0.716061 -0.0188823 -4.91147e-22)
(0.919568 0.0351224 2.84443e-21)
(0.418487 -0.0937672 9.72117e-21)
(-0.0665031 -0.0831539 -1.3385e-20)
(-0.0475063 -0.0851003 -2.58726e-20)
(-0.0882936 -0.0418975 4.71293e-21)
(0.671394 0.00578584 3.62167e-22)
(0.753955 0.0133736 -1.39692e-22)
(0.968132 0.0294446 -1.28878e-21)
(0.647651 0.0124702 5.66306e-22)
(0.472579 -0.0394138 -8.44292e-23)
(0.64574 0.00247979 -1.25687e-22)
(0.400103 0.0246831 1.19783e-20)
(0.747541 -0.0722552 -1.18419e-21)
(0.660239 0.00411346 -1.08275e-21)
(0.852269 -0.0767827 -1.85092e-21)
(0.748395 0.0110023 1.21969e-21)
(0.826575 0.0612454 -3.43479e-21)
(-0.0490748 -0.113746 5.07326e-21)
(-0.0092986 0.0743468 -1.49422e-20)
(0.648221 0.00275448 -2.36461e-22)
(-0.038213 -0.0910121 -1.71822e-21)
(0.803188 0.0261096 -7.51583e-23)
(0.0502034 0.0302791 3.21797e-20)
(0.90786 0.0347192 -2.7726e-21)
(0.776829 -0.0130907 -4.77286e-22)
(-0.0382927 0.0930992 1.97635e-21)
(-0.0576015 -0.10476 -1.12727e-20)
(0.17115 0.00378497 8.64212e-22)
(-0.0179881 -0.0417006 1.00814e-20)
(0.18147 0.00578575 1.4409e-20)
(0.44629 0.0688886 3.37191e-22)
(0.328722 -0.0474423 1.31273e-22)
(0.677841 0.0074814 -7.35509e-24)
(0.705947 -0.0265906 -3.61429e-22)
(0.558833 -0.0987419 2.86798e-21)
(-0.0630801 0.0878255 2.88184e-20)
(0.644706 0.00166714 4.73841e-23)
(0.958009 -0.0390321 6.3346e-23)
(0.652141 0.00338329 2.24967e-23)
(-0.0523807 -0.118873 -1.38129e-20)
(0.645179 -0.00890025 -6.18315e-22)
(0.657512 -4.12294e-06 3.56715e-23)
(0.60858 0.0109667 4.49363e-22)
(0.783672 -0.0439725 -4.7287e-22)
(0.640118 0.0110566 -9.00229e-22)
(0.838627 -0.0722792 -2.33197e-22)
(0.426462 0.0329562 3.22141e-20)
(0.0302337 0.0588366 -1.21632e-20)
(0.749636 0.031139 -1.60838e-22)
(0.481352 0.0299288 -1.24919e-20)
(0.775789 0.0039794 -3.73637e-22)
(0.480918 -0.0755058 1.14012e-20)
(0.717288 0.00262812 3.79493e-22)
(0.380872 -0.0248467 -4.35192e-21)
(0.64445 0.0382462 2.09686e-22)
(0.265198 -0.0829213 -3.33978e-21)
(0.647533 0.00350736 -1.0945e-21)
(0.216505 -0.00098178 9.33591e-22)
(-0.0510675 -0.103667 3.30548e-21)
(0.796502 0.0311807 -1.3048e-22)
(0.689394 -0.0452664 -1.37365e-21)
(-0.0810599 0.0124535 -9.14314e-22)
(0.725198 0.0117989 -1.23143e-22)
(0.787256 -0.00496431 -1.8388e-23)
(0.690789 0.0308473 -2.09557e-22)
(0.665887 0.00609602 2.94048e-23)
(-0.0427 0.0989306 -5.01942e-21)
(0.668777 0.00261705 1.38827e-21)
(0.628786 -0.00693016 1.26294e-21)
(0.682365 -0.0111029 -9.92183e-24)
(-0.105383 0.0161229 4.73608e-21)
(0.72355 0.0106882 -9.7875e-22)
(0.0102508 0.0343805 -6.86023e-21)
(0.748659 -0.0150596 -1.33982e-21)
(-0.104264 -0.0012602 -3.99644e-21)
(0.84217 0.0341166 1.16153e-22)
(0.601811 0.0458408 4.0084e-22)
(0.752467 0.0149402 -1.26623e-22)
(0.647775 0.00341737 3.30849e-22)
(0.0506482 -0.04566 4.95455e-21)
(0.00139736 -0.0289959 6.16352e-22)
(0.753923 0.0411948 8.25154e-21)
(0.461007 -0.0331878 1.21538e-22)
(0.787023 -0.0496948 -1.27535e-21)
(0.778338 0.0170565 -5.85883e-23)
(0.656575 0.0136951 3.25696e-22)
(-0.0725315 -0.0568931 2.47832e-21)
(-0.0507116 0.109592 1.65634e-21)
(0.664771 -0.0106008 -3.60867e-22)
(-0.0393527 0.0918194 2.69324e-20)
(0.69322 0.00838136 -1.03535e-22)
(0.709783 -0.0120683 1.3631e-22)
(0.691166 -0.00665708 2.31282e-22)
(0.806885 0.0362455 -9.23946e-23)
(0.703992 0.00902386 -1.6575e-22)
(-0.060315 -0.0851511 -2.29869e-21)
(-0.0504813 0.0993568 1.74336e-21)
(-0.0725831 -0.0658638 -8.40963e-21)
(0.524836 -0.0455623 2.37456e-22)
(0.625397 0.0294711 1.97583e-22)
(0.703098 0.00734053 9.51903e-22)
(0.0215883 0.0615489 -6.48826e-21)
(0.345354 0.0546245 6.11564e-22)
(-0.075564 0.0556397 1.061e-20)
(-0.0815424 0.0256246 6.52856e-22)
(0.256359 0.0152852 -2.97608e-20)
(0.659211 0.00488594 -3.87528e-24)
(0.709509 -0.0892803 -8.0744e-21)
(0.563027 0.0153812 -4.86734e-22)
(0.643839 0.0234262 1.72551e-22)
(-0.0456232 0.111123 9.47645e-21)
(0.823787 -0.0445493 9.00595e-24)
(0.681521 0.00214065 -3.99832e-22)
(-0.0335439 -0.0347175 2.18583e-21)
(-0.0382473 -0.103775 -5.21389e-21)
(0.260081 0.0378123 -1.88167e-21)
(0.639255 0.0142224 9.74213e-24)
(-0.0491369 0.111768 1.38987e-20)
(0.201729 0.00643806 -1.33584e-22)
(0.760604 0.00359798 -2.65702e-22)
(0.730525 0.0402305 -4.86346e-21)
(-0.0614029 0.0819481 -1.81678e-20)
(0.710549 0.0386797 6.06251e-23)
(0.620001 0.00955247 -1.7566e-22)
(0.516559 -0.0388227 1.59333e-20)
(-0.0570231 -0.107097 -6.50575e-21)
(0.692977 0.00810142 5.74286e-22)
(0.677157 -0.00280247 1.53874e-22)
(0.836217 0.0247912 -3.0493e-22)
(0.653477 0.00393117 -1.67285e-22)
(-0.0276855 -0.00541931 -8.25572e-21)
(0.646041 0.0026881 1.2673e-22)
(0.788444 -0.0242625 -3.90501e-22)
(0.143516 0.0600778 5.68348e-21)
(-0.0457008 -0.107511 -9.48575e-21)
(0.736672 0.0113337 -5.58588e-22)
(-0.144344 0.00586763 7.81501e-21)
(0.759911 -0.00747327 1.85296e-22)
(-0.0672607 -0.0193388 1.97317e-20)
(-0.0217203 0.0253425 7.57925e-21)
(0.822303 -0.0699549 4.10011e-21)
(-0.0930165 -0.0404868 -1.15177e-20)
(0.149071 0.0606467 -8.95615e-21)
(-0.0406724 0.0903859 2.78724e-21)
(0.79331 0.0463991 -1.16431e-22)
(0.673497 0.00630613 -6.48097e-22)
(0.780147 0.0159636 1.47974e-21)
(-0.0938747 0.0112476 1.89009e-21)
(0.646633 -0.0450493 3.93625e-21)
(0.702737 -0.0048542 -2.91923e-22)
(0.651708 0.0022074 -9.36048e-23)
(-0.0495056 0.0532112 -3.88512e-21)
(0.799201 0.00955809 3.1863e-23)
(0.789129 -0.0435784 -5.9946e-21)
(-0.048394 0.0853792 1.9339e-21)
(0.0128402 0.0617448 3.99452e-20)
(-0.059098 0.0601909 6.69942e-22)
(0.649413 0.00291407 1.16151e-21)
(0.716466 0.00978754 9.91686e-22)
(-0.0131751 0.00149985 -1.81979e-20)
(0.646903 0.00359196 -5.49957e-22)
(-0.0427956 0.0895832 -3.18978e-21)
(0.509599 -0.0406391 2.25385e-23)
(0.574629 0.0347542 -1.32917e-23)
(0.733005 -0.017745 -1.97159e-22)
(-0.113103 -0.00404174 -2.77337e-21)
(0.0887163 0.0288724 -1.24419e-21)
(-0.119201 -0.0081489 4.77298e-21)
(-0.139809 0.00781449 -1.38704e-20)
(0.649296 0.00314413 -3.04849e-22)
(-0.103609 0.0225081 -2.83081e-21)
(-0.0429582 -0.0135646 -4.47566e-22)
(0.70717 -0.00912794 -3.57428e-22)
(0.42496 -0.0301625 -1.86152e-22)
(0.71514 -0.0114804 4.66133e-23)
(-0.0572474 -0.0669759 6.10684e-21)
(0.689819 0.00767846 -3.0679e-22)
(-0.0527391 -0.0629926 3.07599e-21)
(0.965383 0.0469534 1.34494e-20)
(-0.0768912 -0.0430093 1.70813e-20)
(0.680824 -0.0023766 -2.30541e-22)
(-0.0591529 -0.0327858 8.90754e-21)
(0.745452 -0.0414987 -5.26789e-24)
(0.646285 0.00242084 -1.27957e-22)
(-0.0104478 -0.0789922 -1.17241e-20)
(-0.00407818 0.0249178 -3.73464e-21)
(0.711887 0.00759019 -1.0167e-21)
(-0.0821011 0.0371145 -3.48048e-22)
(0.48326 -0.037138 7.48231e-21)
(-0.105543 0.0099104 2.29528e-21)
(-0.0355358 0.0297808 -9.24648e-21)
(-0.0277219 -0.0896824 2.34322e-20)
(-0.0576168 0.0708384 -4.65959e-21)
(-0.0934332 0.0228983 3.01749e-22)
(0.645441 0.0025041 -3.97271e-23)
(0.00499928 0.0691958 1.56077e-20)
(0.680524 0.00659828 2.40381e-23)
(0.648218 0.00206597 -1.23641e-23)
(-0.0498227 -0.113454 -6.12697e-21)
(0.207691 -0.00473883 2.322e-20)
(0.51479 -0.0361451 1.10226e-20)
(-0.0430034 -0.105585 1.70205e-20)
(-0.148924 -0.00089018 7.16142e-20)
(0.699356 -0.0069161 -2.14653e-22)
(-0.152114 0.00122976 -4.15626e-20)
(-0.0307979 -0.0829761 -1.16125e-20)
(-0.045124 -0.0278076 -2.76722e-21)
(0.720182 -0.0176633 9.9859e-26)
(-0.0603075 0.0891616 3.94887e-21)
(-0.0407133 0.000903516 -1.11979e-20)
(0.369883 -0.0730314 2.33379e-20)
(0.749796 -0.01385 -5.41421e-23)
(0.682011 -0.0095329 1.42433e-22)
(0.0803759 0.0140146 2.53091e-20)
(-0.0535686 -0.116762 1.27507e-20)
(-0.00548644 -0.0754676 1.61996e-21)
(0.322083 0.0389963 -6.66849e-21)
(-0.0486704 0.0933353 5.01472e-21)
(0.760985 0.0016777 -1.14014e-22)
(-0.045983 0.0762729 7.81211e-21)
(-0.0443033 0.105796 -7.2006e-21)
(0.0505841 0.0463292 -2.02847e-20)
(0.676505 0.00211012 -8.51907e-22)
(0.580179 -0.0439828 -9.3634e-21)
(0.668887 -0.0044553 -1.2873e-22)
(-0.131939 -0.00679717 -1.73095e-20)
(-0.0402134 -0.0344207 9.30258e-21)
(0.0120221 -0.0611684 -5.77016e-22)
(0.532204 0.0115162 2.114e-21)
(0.394299 -0.0464129 3.92782e-20)
(0.705365 -0.0405655 -5.51244e-22)
(-0.0485339 -0.0650787 8.45829e-21)
(0.64683 0.00347577 4.95328e-22)
(0.0138993 -0.0652619 -4.28392e-21)
(-0.128269 0.00907719 -2.0328e-21)
(-0.0554997 -0.00635659 -1.06488e-20)
(0.548476 0.0102012 -8.67211e-22)
(0.656694 0.0106329 -5.80308e-23)
(-0.11961 -0.00880637 9.60912e-21)
(-0.0727927 0.0156825 -1.21223e-21)
(0.0395888 0.0537137 -1.21767e-20)
(0.435671 -0.0368749 1.48376e-21)
(0.795478 -0.0171204 -1.1156e-22)
(0.779111 0.0135076 -1.09629e-21)
(-0.0549644 0.0569986 -4.27298e-21)
(0.648667 0.00312777 -5.71045e-22)
(-0.0537935 -0.07881 5.35187e-21)
(-0.124007 -0.0135232 8.19419e-21)
(0.430942 -0.035157 -3.03303e-21)
(-0.0816373 -0.00376512 1.44327e-20)
(0.163799 -0.0134589 -5.36531e-21)
(-0.0580027 0.101568 1.8199e-20)
(-0.0548455 -0.0517692 -9.48991e-21)
(-0.0204863 0.0420136 1.87139e-20)
(0.706838 -0.0132801 1.90152e-22)
(0.623299 -0.00506629 -4.30115e-23)
(0.772854 -0.00551266 4.92445e-23)
(0.509577 0.0365277 -5.59192e-21)
(-0.0935909 -0.0372963 3.22271e-21)
(0.102409 0.019227 -1.06618e-20)
(0.742606 -0.0226893 -1.40588e-22)
(0.830402 -0.0720923 -4.4611e-21)
(0.749621 -0.0380572 2.37182e-22)
(-0.0492115 0.111752 9.6085e-21)
(0.670635 0.00653377 8.92947e-24)
(0.0452525 -0.0456679 -2.79978e-21)
(0.65368 0.00272988 -1.83777e-22)
(-0.0494526 -0.114552 5.9574e-21)
(0.768664 -0.0204932 4.55803e-22)
(0.631349 -0.00871033 -1.74099e-22)
(-0.0454244 -0.0906437 1.67895e-20)
(-0.0071125 0.0513197 -1.22005e-20)
(0.647434 0.000535112 4.97745e-23)
(0.649267 0.00362558 1.68498e-21)
(-0.0495977 0.0758894 -3.08063e-21)
(0.0766059 0.00444401 -1.81608e-20)
(-0.102728 0.00991131 -3.30672e-21)
(0.64101 -0.00738412 -5.47089e-22)
(-0.072672 0.0300977 6.36497e-21)
(0.679884 -0.0498484 -9.19189e-21)
(0.647174 0.00352707 6.95344e-23)
(0.926293 -0.0601364 1.11202e-20)
(0.780351 0.0146291 4.26211e-22)
(0.792489 -0.0205914 -7.42962e-24)
(0.647082 0.0026787 -1.33379e-23)
(0.657844 0.00441854 -1.98916e-21)
(-0.113038 -0.0162154 -5.68848e-21)
(0.561285 0.0236665 4.37946e-22)
(-0.0955295 -0.0242786 -1.20076e-20)
(0.89588 -0.0483446 -2.06399e-21)
(0.634167 0.0102325 1.71232e-22)
(-0.0240679 -0.0729747 2.70769e-20)
(-0.0436597 -0.0752537 6.58738e-21)
(-0.0378463 0.0153976 8.30259e-21)
(-0.0494613 0.109225 5.98684e-21)
(0.50892 0.0292401 3.64739e-22)
(0.761028 0.0132948 5.44495e-22)
(0.775992 -0.0302774 1.3015e-22)
(0.647046 0.00356789 4.15913e-22)
(-0.00420003 0.00139852 -1.58379e-20)
(-0.14489 0.0033481 4.11666e-20)
(-0.0718734 0.0437166 2.36493e-22)
(-0.0310235 0.0112426 -7.18666e-21)
(0.152472 0.0578372 1.45528e-20)
(0.697358 0.0433097 8.72152e-21)
(0.656526 0.00451335 7.10648e-23)
(-0.017559 0.0625247 1.76496e-20)
(-0.0487308 -0.0933785 8.64402e-22)
(-0.0173693 0.0725905 -1.52031e-20)
(0.597921 -0.0402705 -7.82692e-21)
(0.784359 -0.0279049 -6.32417e-22)
(0.82535 0.0373824 7.26815e-21)
(0.0489274 -0.0523778 1.00333e-20)
(0.336068 0.0854533 -9.65325e-21)
(0.121442 -0.0195239 -1.32439e-20)
(-0.111952 -0.011954 1.48322e-20)
(0.425572 -0.0258228 8.32739e-23)
(0.663967 -0.0023854 2.92113e-22)
(0.859126 0.0725237 7.88767e-22)
(0.196828 0.00859863 5.16456e-21)
(0.670583 0.0089616 5.10626e-22)
(0.707349 0.0104297 -2.63869e-22)
(-0.126183 -0.00160853 5.54663e-21)
(-0.0372084 0.0806581 6.08312e-21)
(0.6189 0.0922911 4.143e-20)
(0.173234 -0.00897873 -4.68914e-21)
(-0.125653 -0.00218799 1.26439e-20)
(0.0388152 0.0198559 1.04672e-20)
(0.0870372 0.0157496 -2.23774e-20)
(0.699636 0.00865951 -1.76691e-22)
(0.587814 0.0149548 1.01487e-22)
(0.0330406 -0.057424 -2.23161e-20)
(0.527049 0.00441998 1.6589e-21)
(0.728469 0.00903666 1.13965e-21)
(0.759411 0.00918186 -6.55841e-22)
(0.646308 0.00122649 8.92731e-23)
(0.777971 0.0162197 4.82696e-22)
(-0.0415451 -0.103673 3.83056e-21)
(0.00289442 0.015043 3.89491e-21)
(0.597815 0.0394689 -3.51239e-22)
(0.0967946 -0.005794 -1.16947e-20)
(-0.0493241 0.0863924 -1.90813e-20)
(0.159078 0.0111064 -4.13984e-21)
(-0.136168 0.00130069 -7.13002e-21)
(-0.00427168 -0.0731015 -6.01997e-21)
(0.667159 0.00135675 1.75889e-21)
(-0.140805 0.00395278 -1.93194e-20)
(0.663308 -0.000890546 -2.34165e-22)
(-0.0774964 0.024153 -5.57994e-21)
(-0.118508 0.00251514 2.72033e-21)
(0.73675 0.00377611 1.42738e-22)
(0.0695172 0.0156567 -1.23899e-20)
(0.651321 0.00306755 -1.31428e-21)
(0.77651 -0.0280957 1.86688e-21)
(0.032455 -0.0568958 -1.46346e-21)
(0.031482 0.0399065 3.81742e-21)
(0.340579 0.0561745 1.25814e-21)
(-0.0651421 0.0618996 1.15912e-20)
(0.69266 0.00597691 -6.31195e-22)
(0.745698 -0.0888939 -4.81239e-21)
(-0.141988 0.0037544 -4.66459e-20)
(-0.0604692 -0.0970181 1.94307e-20)
(0.000412661 -0.0396774 -5.86578e-21)
(0.66848 0.000900229 3.74632e-22)
(0.654628 0.00391328 -2.13375e-22)
(0.689422 -0.00437928 2.81665e-22)
(-0.0307551 -0.0200151 3.04511e-21)
(0.798002 -0.0141188 4.35953e-23)
(0.406091 -0.0309704 -2.99167e-21)
(0.694488 0.00357952 -4.28755e-22)
(0.663782 0.00562282 1.11502e-22)
(-0.155652 0.000206016 -3.31953e-21)
(-0.0297915 0.0834352 7.31938e-21)
(-0.0199636 0.078246 -2.05638e-20)
(0.143919 -0.0635245 4.86813e-21)
(0.742529 0.00573423 -2.17237e-22)
(-0.0396117 0.0797821 -5.43331e-21)
(0.683688 0.00407517 -1.4903e-21)
(0.764236 0.027653 -1.40648e-22)
(-0.10474 0.0100761 2.28424e-21)
(-0.139546 -0.00342056 -1.76612e-20)
(-0.152388 0.00132498 -7.32347e-21)
(0.374162 0.0215118 -6.68154e-22)
(0.520518 0.0202503 3.65508e-22)
(0.55534 0.0423586 -8.07653e-21)
(0.648056 0.00311292 6.54668e-22)
(0.650855 0.000601744 -1.37926e-22)
(0.313553 0.0365035 -2.84608e-21)
(0.046454 0.0473588 -8.8218e-21)
(0.762958 -0.0222062 -2.00947e-22)
(0.213201 0.00340515 1.68168e-20)
(-0.0527294 0.0855391 6.19015e-21)
(-0.130108 0.00316847 -1.3556e-20)
(-0.0643934 0.0613911 -6.87447e-21)
(-0.0727278 0.016235 5.28604e-20)
(0.75806 0.00788007 1.47354e-21)
(0.111809 -0.00946374 -6.14221e-21)
(0.73899 0.0127174 1.68177e-22)
(0.65406 0.00243059 1.03705e-21)
(0.501888 -0.0674783 1.38279e-20)
(-0.0489137 0.119502 -1.22864e-20)
(0.0715761 0.0426484 1.80976e-21)
(-0.095616 0.000764662 -1.20213e-20)
(-0.0878916 0.0429669 1.09511e-20)
(-0.103775 -0.031685 1.17177e-20)
(0.490499 -0.0349196 -1.20191e-22)
(0.803542 0.0134219 -1.79081e-22)
(0.658289 0.00264503 -4.43484e-23)
(0.0577288 0.0466324 -2.10755e-20)
(-0.154455 -0.00168558 9.76668e-21)
(0.085631 -0.0386297 -1.4751e-20)
(-0.0433853 -0.113896 2.69879e-20)
(-0.156719 -1.61659e-05 9.07109e-21)
(0.700412 -0.00923304 -2.99707e-22)
(0.799757 -0.0110388 7.62658e-23)
(-0.146569 -0.00359237 3.99056e-21)
(0.386971 -0.0279124 -7.19033e-21)
(0.349126 -0.022109 3.94118e-21)
(0.672492 0.0111029 2.84975e-22)
(-0.0321905 -0.0975975 2.23397e-20)
(0.697463 0.00538722 8.57518e-22)
(0.556182 0.0134286 -5.74389e-22)
(-0.0025438 -0.0683926 1.03259e-20)
(0.801195 -0.00882741 1.15255e-22)
(0.831906 -0.0484498 4.24964e-21)
(0.755615 -0.0466689 -4.47739e-21)
(-0.0193964 0.0833098 -2.29599e-20)
(0.890674 -0.068355 8.88639e-23)
(-0.0486303 0.112425 -3.21527e-21)
(-0.0476361 -0.106772 9.0797e-22)
(0.284208 -0.0273226 -3.91105e-21)
(0.154147 -0.0492496 1.50396e-20)
(0.983665 0.0377671 -1.09739e-20)
(0.771376 0.0221095 -1.14543e-22)
(0.804441 0.0143299 3.15169e-24)
(0.68463 0.00480868 -9.5495e-22)
(0.0183311 -0.0648926 1.64356e-20)
(-0.0347923 -0.000613838 -6.4939e-20)
(-0.114757 -0.0242343 -1.41668e-20)
(0.291639 0.0168831 4.9178e-21)
(0.697513 0.00605062 -3.36775e-22)
(0.9577 0.0510506 1.1361e-20)
(0.947048 -0.0540722 -1.83683e-21)
(0.783938 -0.0383728 -1.68522e-23)
(0.935489 -0.0598207 -5.06841e-21)
(0.350489 0.0194611 2.74824e-22)
(0.742993 -0.00293023 1.22587e-21)
(0.678189 0.00305176 -2.64971e-21)
(0.764271 0.00649682 -8.67831e-22)
(0.718183 0.0029837 -2.80907e-22)
(0.646189 0.0023146 3.22536e-22)
(0.0401111 -0.0344576 -2.50108e-21)
(0.718366 -0.000163341 6.37374e-22)
(-0.0816185 0.049849 -3.83679e-21)
(0.511814 0.0812 -1.17269e-20)
(0.638575 -0.00541698 -7.47196e-22)
(0.0878829 0.0362815 -1.0348e-20)
(0.648582 0.00334531 -1.95751e-23)
(0.676475 0.00263799 -1.31087e-21)
(-0.092617 -0.00080319 1.59275e-21)
(-0.130041 0.00523718 -1.96142e-21)
(0.0825243 -0.0512501 -7.26821e-21)
(0.661257 0.00109218 -2.13411e-22)
(0.647544 0.0115786 -3.22288e-22)
(-0.0389565 -0.0661493 -1.08881e-23)
(-0.0398453 0.0857518 4.85438e-22)
(0.778019 -0.0108252 3.62535e-22)
(-0.0429105 0.105218 -2.0216e-20)
(0.799668 0.0104399 2.65025e-23)
(0.780425 0.00955697 3.09698e-24)
(0.803132 -0.052188 1.9138e-21)
(0.778728 0.018021 -2.7062e-23)
(0.683765 -0.00459145 9.18334e-22)
(0.793285 -0.0615759 3.63801e-21)
(0.059496 -0.0414287 -1.06861e-21)
(0.0223534 -0.0480096 -4.15886e-20)
(0.2596 0.00266839 6.34733e-21)
(-0.0634362 -0.0551916 7.41799e-21)
(-0.0164865 0.0174611 1.0655e-20)
(0.780644 0.00711697 -1.15974e-22)
(0.645364 0.00218813 1.42633e-23)
(0.782173 -0.0398734 -2.29826e-23)
(0.367495 0.0325351 6.51555e-21)
(0.0098327 0.0624572 1.01834e-20)
(0.614958 -0.00227921 9.00215e-22)
(0.792377 -0.000663007 4.40224e-23)
(0.758284 0.00555831 6.4499e-23)
(-0.0641588 -0.0408004 -1.0316e-20)
(0.753688 0.00715491 -8.94528e-22)
(0.985181 -0.0386381 -4.97634e-21)
(0.468904 0.0339648 8.93921e-22)
(0.635804 -0.0962924 -2.88806e-21)
(0.449903 -0.0277896 2.76451e-22)
(-0.056175 -0.0868609 -3.51898e-21)
(0.614036 -0.00391463 -7.70263e-22)
(0.778277 0.0126009 1.38326e-21)
(0.694197 0.00590794 6.74963e-22)
(0.560671 -0.0145249 3.20437e-22)
(0.650386 -0.00131043 4.57865e-23)
(0.192878 -0.0276249 6.80859e-21)
(0.68943 0.00247771 1.00202e-21)
(0.0174146 0.0035394 -2.47224e-21)
(0.61832 0.043156 -6.96442e-21)
(-0.0407071 0.0209342 -1.0081e-21)
(0.577639 0.067323 -1.92526e-22)
(-0.060647 0.0486162 -9.64495e-22)
(-0.00179722 0.0128947 -1.62169e-20)
(0.832365 -0.0447034 -1.44867e-21)
(0.655942 0.0375457 -4.29668e-22)
(-0.0990256 -0.00935388 6.05833e-20)
(0.37912 0.0804506 -6.79692e-21)
(0.253375 -0.0779491 -1.31501e-20)
(0.060929 0.0332039 -3.43507e-21)
(0.0196144 0.0546154 2.74918e-20)
(0.563916 0.0915859 1.62191e-20)
(0.14896 0.0165135 -1.40742e-20)
(0.270286 0.0708922 1.22307e-20)
(0.698188 0.00571058 -2.57025e-21)
(0.693072 0.00379593 2.9524e-22)
(0.0222493 -0.0200041 1.5567e-20)
(-0.0514853 -0.0978998 -2.61662e-21)
(-0.041878 -0.017729 3.12016e-20)
(0.633698 0.0326908 1.62548e-22)
(0.2305 0.0762257 -2.13308e-20)
(0.458086 0.00696032 -6.44749e-22)
(0.803143 -0.0237868 7.80623e-23)
(0.572413 0.00561231 3.10436e-21)
(0.791036 -0.00964357 6.61519e-24)
(0.834794 -0.0544955 1.42021e-21)
(0.775184 0.009918 1.10731e-22)
(0.723141 -0.0024377 -1.62646e-22)
(-0.11488 0.0160973 2.04984e-20)
(0.669368 0.00363325 3.5847e-22)
(0.647886 0.00121847 4.45728e-22)
(0.461889 -0.0334161 2.28842e-20)
(0.469619 0.0921546 4.49574e-21)
(0.804646 -0.0637316 1.34784e-21)
(0.78143 0.00614607 -2.374e-22)
(0.460498 0.020027 3.03594e-22)
(0.0796268 -0.0601867 -4.1042e-21)
(0.553922 0.0205515 4.71967e-22)
(0.657373 0.00277531 -9.61549e-22)
(0.801617 0.0118962 1.68719e-23)
(0.689707 -0.0950476 -9.52847e-21)
(0.481986 0.0569522 9.26903e-22)
(0.77454 -0.0897205 -3.08566e-21)
(0.798681 0.00874062 -1.78095e-22)
(0.58311 0.0643608 2.36483e-23)
(0.230583 -0.00484461 -1.44499e-21)
(0.652153 0.00425941 6.57291e-22)
(0.647998 0.00250263 -3.74702e-22)
(0.116801 0.00185618 -4.99212e-21)
(-0.0983187 -0.0336821 8.24616e-21)
(-0.0295662 -0.0928385 -2.9425e-20)
(0.396772 -0.0398852 7.03278e-21)
(0.0766173 -0.0399373 -7.88257e-23)
(0.679787 0.0640171 5.12922e-22)
(0.00238681 0.0602859 1.96078e-20)
(0.450851 0.0335442 -1.32458e-22)
(0.607525 0.0253645 6.90884e-23)
(0.775455 0.0245279 -5.61843e-22)
(0.638241 0.0220111 3.90019e-22)
(0.278905 0.0854297 8.75738e-21)
(0.676339 -0.0243745 1.19212e-22)
(0.777721 0.00777257 7.15938e-22)
(0.789933 -0.00816688 9.56431e-23)
(0.142889 0.0552253 1.14747e-20)
(-0.156628 -0.000150183 2.65604e-20)
(0.514983 -0.0628931 -5.02167e-22)
(0.833049 -0.0527714 -3.10796e-22)
(0.433117 0.00766983 8.02485e-22)
(0.570647 -0.0460863 2.16958e-22)
(0.401196 0.00495715 -1.7697e-22)
(0.437794 0.00364922 -8.87856e-22)
(0.212044 0.00745354 6.21526e-21)
(0.461611 0.00327329 3.1295e-22)
(0.156484 0.00850185 9.40834e-21)
(0.602694 -0.0456493 6.7873e-23)
(0.683712 0.0237717 9.81889e-22)
(0.537007 -0.0497189 -1.3379e-21)
(0.492428 0.000246646 -1.14106e-21)
(0.687572 0.0126263 7.16155e-22)
(0.513088 0.00260124 1.84845e-21)
(0.684033 0.0231368 -2.93783e-22)
(0.470501 0.0628971 -2.41011e-21)
(0.747046 0.0164423 3.1916e-22)
(0.533916 0.000480102 -3.15571e-21)
(0.376298 0.0442038 -3.03902e-21)
(0.586573 0.0619214 7.33983e-22)
(0.558254 0.00379056 -1.55748e-21)
(0.678109 -0.0100199 4.05407e-22)
(0.410353 0.000262013 -4.58336e-22)
(0.373162 -0.00388708 -1.59579e-23)
(0.33666 -0.00612962 6.1744e-23)
(0.282375 0.00118666 -1.90789e-21)
(0.233881 0.00426252 -3.42228e-21)
(0.445366 -0.00133871 1.22067e-21)
(0.173703 -0.00269814 -7.81671e-21)
(0.468128 -0.00135721 1.04368e-21)
(0.580475 -0.0495016 6.14178e-23)
(0.501007 -0.00229327 1.04314e-22)
(0.625329 -0.0451026 -3.94645e-23)
(0.517185 -9.76958e-05 9.19559e-22)
(0.600374 -0.0184215 -2.26569e-22)
(0.637708 -0.0224029 -7.92242e-22)
(0.542108 -0.000312366 1.85049e-21)
(0.571847 0.00325799 -3.44664e-21)
(0.561153 0.000172752 1.39092e-21)
(0.771739 -0.0132486 2.66358e-22)
(0.714286 0.016171 -1.18822e-22)
(-0.145796 -0.00352001 -2.32027e-20)
(0.732433 0.0090515 -3.93532e-22)
(0.691222 -0.00939592 -1.24564e-21)
(0.71117 0.0176011 5.64794e-22)
(0.574619 0.000816535 2.95052e-21)
(0.668824 0.00522585 1.20644e-21)
(0.51773 -0.0361274 -8.72315e-22)
(0.584243 0.00247163 4.94298e-22)
(0.382223 0.00861999 -1.89364e-22)
(0.34209 0.00742308 7.78261e-23)
(0.481664 0.00722554 -2.12356e-21)
(0.591008 0.000114228 -7.40498e-22)
(0.712688 0.0155259 2.60479e-22)
(0.647216 0.00281876 -1.08488e-21)
(0.727046 -0.055921 -6.14806e-22)
(0.73497 -0.0454284 -7.47867e-23)
(0.119409 -0.0227628 1.82815e-20)
(0.735463 0.00381435 -3.78051e-22)
(0.418392 -0.0188993 1.11309e-22)
(0.604516 0.00205087 -9.69001e-22)
(0.564915 -0.0135395 -3.90379e-22)
(0.653062 0.00243545 -1.05988e-21)
(0.715664 0.0145883 -4.01768e-22)
(0.279218 0.0231532 -6.85739e-23)
(0.60036 0.0159744 -1.55722e-21)
(0.0445403 0.000460026 -3.07618e-21)
(0.598532 0.0055787 3.52001e-22)
(0.706293 0.00675729 -3.23491e-22)
(0.714735 0.00756445 9.95677e-22)
(0.760415 0.0153485 5.84327e-22)
(0.614024 0.00366618 -5.75324e-22)
(0.624239 0.0280735 -6.76362e-22)
(-0.045989 0.0777122 -1.42071e-20)
(0.754893 0.00610057 6.87812e-22)
(0.612235 0.00631543 -7.74293e-23)
(0.142968 -0.00845853 5.06089e-21)
(0.616108 0.00338229 1.3536e-21)
(0.707184 0.00857415 -2.58301e-23)
(0.685975 0.00636751 5.20994e-22)
(0.442686 -0.042032 -3.02551e-20)
(0.696834 0.0113889 -1.4413e-22)
(0.778879 0.0154605 3.80314e-22)
(0.479723 0.0596615 1.24612e-21)
(0.713109 0.0165813 -1.29785e-22)
(0.036917 0.0450175 4.47036e-21)
(0.594987 -0.0546096 -1.50152e-21)
(0.622061 -0.0481396 -8.7721e-22)
(0.259194 0.00510023 -1.26279e-21)
(0.304138 -0.00102568 -1.61946e-21)
(0.196557 -0.0199376 1.90417e-20)
(0.681173 0.0131193 1.60557e-22)
(0.455847 -0.00473232 -2.61565e-21)
(0.462471 0.0187722 2.6112e-22)
(0.392536 0.0221234 2.77962e-22)
(0.478381 -0.00333509 -2.47475e-21)
(0.732481 0.0353509 1.42619e-22)
(0.525938 -0.00108404 -1.29337e-23)
(0.354966 0.0864889 -2.44657e-20)
(0.548769 0.00264679 -1.45547e-21)
(0.625913 0.00369344 3.75302e-22)
(0.243772 -0.00586898 -2.47494e-21)
(0.292125 -0.00997971 1.09257e-21)
(0.311816 0.0346905 3.80381e-21)
(-0.0916922 -0.00951428 -1.49327e-20)
(0.645084 -0.0435982 -4.21726e-22)
(0.699451 0.00718051 -2.29382e-22)
(0.239321 0.0699589 1.09908e-20)
(0.619996 0.0426224 -6.46287e-23)
(0.644298 0.0202768 -1.36061e-21)
(0.567266 -0.00175569 -7.61384e-23)
(0.521551 -0.00417108 -3.9746e-22)
(-0.0437615 0.0453282 2.92388e-21)
(0.717093 -0.0101602 -7.53992e-23)
(0.592788 -0.0408693 4.48679e-22)
(0.624721 0.00555006 1.91808e-22)
(0.775094 0.0133616 8.98351e-23)
(0.603694 0.00974933 -1.42315e-21)
(0.627546 0.00707143 -7.26186e-22)
(0.624705 0.00454098 -1.51313e-21)
(0.580234 -0.00165654 -3.26866e-21)
(0.698541 -0.0106453 4.51829e-23)
(0.640895 -0.0212088 6.19745e-22)
(0.656335 -0.00751237 5.97804e-22)
(0.609453 0.00326624 7.52269e-22)
(0.69192 -0.00796297 -4.02447e-22)
(0.0365748 0.0504874 1.27346e-20)
(0.510699 0.0116866 -7.41143e-23)
(0.676285 -0.00030747 -1.4334e-21)
(0.573518 0.0113042 1.22686e-22)
(0.591423 0.00910397 1.06833e-21)
(0.706664 -0.00816942 -1.82927e-22)
(0.199026 -0.0290879 -8.61765e-21)
(0.605303 0.0338396 9.16527e-23)
(0.535228 0.0401279 -6.09607e-24)
(0.658443 0.0283241 2.88974e-22)
(0.68011 0.0136067 7.68484e-22)
(0.707263 0.00753628 -6.4523e-22)
(0.711228 0.0151501 -6.6462e-23)
(0.668237 -0.00696246 -1.33576e-22)
(0.397366 -0.0919602 -3.69471e-21)
(0.656329 -0.0563396 3.46311e-21)
(0.294723 -0.0236037 -7.01276e-22)
(0.704502 -0.0306902 -1.05087e-21)
(0.631023 0.00542405 1.44296e-21)
(0.484675 -0.0133694 -5.00232e-22)
(-0.0362114 0.0953451 8.0372e-21)
(0.583289 0.0341271 3.44276e-22)
(0.836242 0.0237333 1.92649e-22)
(0.840219 0.0324937 3.71042e-23)
(0.818896 0.00638235 3.73598e-23)
(0.825119 0.0111009 9.36937e-23)
(0.822582 -0.0429728 -7.60825e-22)
(0.791963 -0.0109478 -1.71485e-22)
(0.829368 0.0150841 4.83857e-24)
(0.811778 0.000792517 -1.93395e-22)
(0.802606 -0.0221963 -1.12394e-22)
(0.815063 0.00381398 1.15086e-22)
(0.78555 -0.00384063 1.48243e-22)
(0.816713 0.0052649 -1.11838e-22)
(0.811253 0.0020246 -4.08864e-22)
(0.810454 -0.00136066 -1.30187e-23)
(0.830393 0.0167105 4.0985e-23)
(0.8044 -0.0258727 -9.06729e-23)
(0.789566 -0.00692355 1.38557e-22)
(0.827285 0.0130607 1.41906e-22)
(0.832831 -0.0501976 7.92563e-22)
(0.616385 0.00875438 6.1932e-22)
(0.585515 -0.00641513 -3.49311e-22)
(0.15746 -0.0104528 -2.09169e-20)
(0.211807 -0.0161047 -5.61531e-21)
(0.778044 0.00852517 -1.08725e-21)
(0.732735 -0.0214259 4.72149e-22)
(0.660843 0.0113446 -1.67509e-21)
(0.618219 -0.0612121 4.20747e-22)
(0.349818 -0.00460316 2.34201e-23)
(0.523313 0.0414754 -6.53778e-23)
(0.386089 -0.00514839 1.01126e-22)
(0.634617 0.0208939 -4.83975e-22)
(0.835068 0.0209613 7.12524e-23)
(0.834952 0.0228367 5.18602e-23)