/*--------------------------------*- C++ -*----------------------------------*\
  =========                 |
  \\      /  F ield         | OpenFOAM: The Open Source CFD Toolbox
   \\    /   O peration     | Website:  https://openfoam.org
    \\  /    A nd           | Version:  10
     \\/     M anipulation  |
\*---------------------------------------------------------------------------*/
FoamFile
{
    format      ascii;
    class       volScalarField;
    location    "1750";
    object      epsilon;
}
// * * * * * * * * * * * * * * * * * * * * * * * * * * * * * * * * * * * * * //

dimensions      [0 2 -3 0 0 0 0];

internalField   nonuniform List<scalar> 
10435
(
0.815349
1.27005
0.813896
0.963895
1.09072
1.18945
0.738461
0.59904
0.553463
1.09589
1.26525
0.841754
1.10744
0.295836
0.364045
0.667597
0.239473
1.26727
0.518537
0.85982
0.630812
0.916789
0.709534
0.620107
0.96663
0.0402559
0.0656865
0.947912
0.0623583
1.19134
0.799307
1.24749
0.582092
0.0666577
0.626905
1.06574
0.661984
0.0698877
0.0276626
0.548468
1.29319
0.741083
0.133224
0.965841
0.700108
0.581847
1.21953
0.0929097
0.535577
0.852607
0.613658
0.947804
0.026882
0.0510959
0.0305333
0.0561456
0.66211
0.0754783
0.141084
0.616865
0.0301459
1.23582
0.0752943
0.952624
0.70391
0.864841
0.10781
0.101014
0.616525
0.651894
0.049907
0.0540644
0.090175
0.80215
0.440944
0.192013
0.695728
0.699855
0.564719
0.40541
0.820822
0.685125
0.0261924
0.0525544
0.790143
0.849958
0.871813
1.04005
0.60834
0.942056
1.04047
1.03672
0.7424
0.695447
0.992265
0.935297
0.992088
0.452561
0.180053
1.00489
0.518211
1.20976
0.787224
1.02369
1.19951
0.969338
0.787468
0.842304
0.749768
0.476891
0.85407
1.22469
0.619399
0.548729
1.05679
0.919984
0.95782
0.953964
1.14637
0.918001
0.913403
0.183799
1.03907
0.620405
1.32275
0.03537
0.952341
0.276953
1.01442
0.0632149
0.437978
1.35789
0.637536
0.337773
0.0607164
0.0257679
1.04113
0.943054
1.13426
0.912623
0.891823
0.748803
0.0890795
0.846934
0.905168
0.370369
0.850909
1.03778
0.239264
0.807191
0.0710594
0.700199
0.87421
0.799868
1.02267
0.0527431
1.2863
1.09898
1.06087
1.40994
0.756213
0.276975
1.12376
0.832452
0.52611
0.945709
0.582631
0.889081
0.767645
0.906275
0.943767
0.0567108
0.0600833
0.446804
0.780565
1.41476
1.16731
0.149456
0.845147
0.0700738
1.27475
1.17211
0.830821
0.033254
0.739171
0.0904925
0.138394
0.670952
1.08769
0.877193
0.873181
0.0259453
0.0594253
1.19814
1.25082
0.638862
0.218044
0.735534
0.12278
0.664193
0.565585
0.0712852
1.01965
0.0768255
0.926956
1.10626
1.14276
0.916892
0.0794725
0.884641
0.0592825
0.739923
0.87114
0.8154
0.065617
0.29921
0.606946
0.0348122
0.0408764
0.224845
0.0653252
0.168538
0.0955078
0.477411
0.0465472
0.632231
0.033699
0.613592
0.842061
0.268598
0.130276
0.604899
0.0370398
0.715791
0.0684269
0.193604
0.671018
0.045523
0.698901
0.852538
0.9483
0.0405587
0.0391782
0.0552631
1.1284
0.562366
0.782935
0.61882
0.0476719
1.38584
0.0477529
0.653311
1.12983
0.859483
0.644165
0.996184
0.0428251
0.670192
0.0481359
0.0755072
0.699778
0.909155
0.0398452
0.758116
0.68534
0.143163
0.918452
0.758408
0.0304142
1.06311
0.736517
0.58612
0.618306
0.932752
0.0450227
0.886681
0.0652904
1.14707
0.658654
0.573122
1.07854
0.172408
0.784706
0.511932
0.737211
0.0301465
1.05869
0.0306246
0.0539687
0.0684345
0.617993
1.39077
0.0807479
0.599951
0.0282329
0.0488075
0.286293
0.756409
1.18852
0.846584
0.112285
0.726276
0.835771
0.051919
1.22231
0.372681
0.196452
0.732132
0.851071
0.054916
0.822608
0.062178
1.31289
1.05967
0.577937
0.0498078
0.0355637
0.804051
0.111522
0.862835
1.19939
0.0688472
0.812923
0.0257895
0.561671
1.0099
0.0494277
0.88852
0.115732
0.0705683
0.582444
0.0762895
0.0552953
0.795317
0.763539
0.0824334
0.0511739
0.0492914
0.060824
0.0582677
0.0530672
0.053356
0.0296535
0.0598507
0.0574257
0.0628556
0.089759
0.0693772
0.0257413
0.552998
0.0568299
0.960149
0.0638331
0.945756
0.551334
0.522916
1.11952
0.769613
0.053454
0.0603307
0.0503679
0.0362803
0.0568966
0.0300721
0.064612
0.0563217
0.0878432
0.80033
0.0550929
0.546751
0.0332724
0.0598958
1.17699
0.506049
0.0317029
0.0649308
0.0713924
0.0674897
0.0588639
0.0445176
0.0753648
0.0318833
0.571498
0.0949177
0.601009
0.543095
1.00525
1.06589
0.534825
0.891773
0.600287
0.379752
0.0633734
0.0597803
0.0511567
0.845639
0.0562451
1.17853
0.0722391
0.0706386
0.0623182
0.0799453
0.0397035
0.700984
0.0690136
0.585274
0.749725
0.046107
0.0483056
0.0678846
0.511704
0.0676967
0.0516049
0.0446924
0.0566838
0.0914539
0.0630977
0.871319
0.0499709
0.04955
0.0633474
0.0721434
1.29153
0.0359394
0.0280832
0.482484
0.0599321
0.000414079
0.000402882
0.000382105
0.000354913
0.000323667
0.000289143
0.000252435
0.000214534
0.000176612
0.00046367
0.000446902
0.000421347
0.000390125
0.00035512
0.000317603
0.000278618
0.000239422
0.000201575
0.00052305
0.000501201
0.000470645
0.000434805
0.000395758
0.000354845
0.000313195
0.000272079
0.000232966
0.000597456
0.000570349
0.000533982
0.000492785
0.000449038
0.00040409
0.000359073
0.000315131
0.000273474
0.000693228
0.000660022
0.000616595
0.000568954
0.0005195
0.000469582
0.000420231
0.000372339
0.000326647
0.000818232
0.000777437
0.000725203
0.000669603
0.000613053
0.000556908
0.000502024
0.000449024
0.000398259
0.000982523
0.000931793
0.000868295
0.000802682
0.000737213
0.000673225
0.000611373
0.000552085
0.000495584
0.00119928
0.00113418
0.00105611
0.00097786
0.000901194
0.000827339
0.000756718
0.000689637
0.000626385
0.0014831
0.00139643
0.00130014
0.00120629
0.00111577
0.00102959
0.000947917
0.00087083
0.00079845
0.00184343
0.00172951
0.00161252
0.00150019
0.00139287
0.00129148
0.001196
0.00110618
0.00102144
0.00228128
0.00214363
0.00200595
0.00187251
0.00174512
0.00162513
0.00151263
0.00140715
0.00130754
0.00279267
0.00265161
0.00249459
0.00233695
0.00218545
0.00204277
0.00190957
0.00178531
0.00166898
0.00341548
0.00327571
0.00309507
0.00290769
0.00272655
0.00255613
0.00239783
0.00225139
0.00211608
0.00420696
0.00404195
0.00382411
0.003598
0.00338001
0.00317573
0.00298716
0.00281438
0.0026568
0.00520388
0.00496867
0.00469424
0.00441838
0.00415558
0.0039109
0.00368644
0.00348221
0.0032965
0.00640895
0.00605927
0.00571117
0.00537605
0.00506138
0.00477045
0.00450521
0.00426596
0.00405165
0.007757
0.00730114
0.0068755
0.00647666
0.0061057
0.00576437
0.00545461
0.00517741
0.00493421
0.00921843
0.00868665
0.00819073
0.00772896
0.00730035
0.00690647
0.00654952
0.00623106
0.00595293
0.0108044
0.0102235
0.00966895
0.0091487
0.00866397
0.00821767
0.00781258
0.00745082
0.00713433
0.0125416
0.0119329
0.0113316
0.0107596
0.0102235
0.00972849
0.00927793
0.00887461
0.00852218
0.0144662
0.0138461
0.0132073
0.0125921
0.0120137
0.011479
0.0109912
0.0105526
0.0101652
0.0166261
0.0160014
0.0153296
0.0146813
0.0140758
0.013519
0.0130117
0.0125545
0.0121457
0.0191045
0.0184427
0.017732
0.0170638
0.0164565
0.0159079
0.0154143
0.0149732
0.0145807
0.0220199
0.0212071
0.0204389
0.0197732
0.0192047
0.0187136
0.0182883
0.0179236
0.0176097
0.0254783
0.0242855
0.0234574
0.0228381
0.0223729
0.022011
0.0217321
0.0215374
0.0213347
0.00174878
0.00170628
0.00167022
0.00164047
0.001617
0.00159968
0.00158841
0.00158294
0.00158307
0.00158846
0.00159877
0.00161358
0.00163235
0.00165457
0.00167953
0.00170655
0.00173487
0.00176367
0.00179209
0.00181925
0.00184419
0.00186589
0.00188319
0.00189444
0.00189757
0.00189068
0.00187542
0.00185231
0.00182068
0.0017781
0.00172745
0.00166978
0.00160533
0.00153544
0.00146127
0.00138393
0.00130453
0.00122413
0.00114379
0.0010645
0.000987211
0.000912773
0.00084193
0.000775322
0.000713479
0.000656799
0.000605548
0.000559894
0.000519853
0.000485374
0.000456306
0.000432435
0.000413533
0.000399333
0.000389607
0.000384133
0.000382741
0.000385296
0.000391634
0.00174489
0.001706
0.00167304
0.00164595
0.0016246
0.00160888
0.00159868
0.00159383
0.00159414
0.00159934
0.00160909
0.00162301
0.00164063
0.00166141
0.00168473
0.00170991
0.00173621
0.00176283
0.00178892
0.0018136
0.00183598
0.00185512
0.00187005
0.00187967
0.00188271
0.00187767
0.00186347
0.00183962
0.00180619
0.00176395
0.00171414
0.00165757
0.00159488
0.00152687
0.00145445
0.00137863
0.00130046
0.001221
0.00114134
0.00106249
0.000985432
0.000911063
0.000840171
0.000773432
0.000711401
0.000654495
0.000602991
0.000557038
0.000516657
0.000481764
0.000452188
0.000427775
0.000408288
0.000393462
0.000383039
0.000376782
0.000374493
0.000376033
0.000381201
0.001709
0.00167225
0.00164112
0.00161558
0.00159555
0.00158093
0.00157159
0.00156735
0.00156801
0.00157331
0.00158292
0.00159646
0.00161351
0.00163353
0.00165594
0.00168011
0.0017053
0.00173076
0.00175568
0.00177919
0.0018004
0.00181837
0.00183209
0.00184045
0.00184225
0.00183636
0.00182194
0.00179856
0.00176621
0.00172532
0.00167676
0.00162136
0.00155992
0.0014933
0.00142239
0.00134815
0.00127158
0.00119372
0.00111559
0.00103821
0.000962525
0.000889431
0.000819711
0.000754043
0.000692976
0.000636927
0.000586171
0.000540852
0.000500993
0.000466508
0.000437231
0.000412944
0.000393403
0.000378355
0.000367557
0.000360792
0.000357869
0.00035866
0.000362969
0.00164254
0.0016081
0.00157904
0.00155529
0.00153677
0.00152337
0.00151496
0.00151137
0.00151239
0.00151776
0.00152719
0.00154032
0.00155672
0.00157591
0.00159735
0.00162041
0.00164441
0.00166862
0.00169224
0.00171442
0.00173428
0.00175087
0.00176322
0.00177028
0.00177104
0.00176452
0.00175
0.00172706
0.0016957
0.00165625
0.00160938
0.00155582
0.0014964
0.00143196
0.0013634
0.00129166
0.0012177
0.00114251
0.00106709
0.000992404
0.000919371
0.000848841
0.000781572
0.000718217
0.000659301
0.000605217
0.000556227
0.000512464
0.000473941
0.000440573
0.000412201
0.00038861
0.000369558
0.000354802
0.000344098
0.000337229
0.000334011
0.000334318
0.000337964
0.00155675
0.00152504
0.00149836
0.00147666
0.00145986
0.00144785
0.00144051
0.00143769
0.00143916
0.0014447
0.00145402
0.00146677
0.00148257
0.00150094
0.00152137
0.00154326
0.00156597
0.00158877
0.0016109
0.00163154
0.00164982
0.00166482
0.00167563
0.00168129
0.00168092
0.00167372
0.00165908
0.00163669
0.00160649
0.00156873
0.00152391
0.00147267
0.00141578
0.00135407
0.00128841
0.00121972
0.00114894
0.00107702
0.00100492
0.000933581
0.000863872
0.000796603
0.000732491
0.000672147
0.000616065
0.000564607
0.000518013
0.000476398
0.000439769
0.000408035
0.000381035
0.000358558
0.000340366
0.000326213
0.000315863
0.000309106
0.000305765
0.000305711
0.000308766
0.00145237
0.00142328
0.00139891
0.00137921
0.0013641
0.00135348
0.00134724
0.00134522
0.00134722
0.001353
0.00136228
0.00137474
0.00139
0.0014076
0.00142706
0.00144779
0.00146918
0.00149052
0.00151109
0.0015301
0.00154673
0.00156012
0.00156942
0.00157378
0.00157241
0.00156466
0.00155002
0.00152823
0.00149923
0.00146323
0.00142063
0.00137199
0.00131802
0.00125952
0.00119731
0.00113227
0.0010653
0.000997306
0.000929213
0.000861909
0.000796222
0.000732909
0.000672639
0.000615979
0.000563384
0.000515183
0.000471589
0.000432698
0.000398504
0.000368912
0.000343756
0.000322827
0.000305887
0.000292695
0.000283021
0.000276664
0.000273444
0.000273237
0.000275875
0.00133226
0.00130585
0.00128381
0.0012661
0.00125269
0.00124348
0.00123836
0.00123719
0.00123978
0.00124588
0.00125524
0.00126751
0.00128234
0.00129929
0.00131787
0.00133755
0.00135771
0.0013777
0.0013968
0.00141428
0.00142936
0.00144125
0.00144918
0.00145241
0.00145023
0.00144209
0.00142758
0.00140648
0.00137876
0.00134455
0.00130424
0.00125832
0.00120748
0.00115248
0.00109407
0.0010331
0.000970393
0.000906801
0.000843237
0.000780514
0.000719396
0.000660577
0.000604669
0.0005522
0.000503584
0.000459117
0.000418986
0.000383266
0.000351934
0.000324884
0.000301947
0.000282911
0.000267543
0.000255607
0.000246875
0.000241147
0.000238252
0.000238066
0.000240431
0.00119576
0.0011717
0.00115173
0.00113584
0.00112402
0.0011162
0.00111229
0.00111213
0.00111552
0.00112223
0.00113197
0.00114438
0.00115908
0.00117563
0.00119359
0.00121249
0.00123176
0.00125074
0.00126876
0.00128504
0.00129887
0.00130949
0.0013163
0.00131871
0.00131599
0.00130773
0.00129357
0.00127339
0.00124703
0.00121464
0.0011766
0.0011334
0.00108579
0.00103451
0.000980154
0.000923559
0.000865505
0.000806737
0.000748202
0.000690566
0.00063452
0.000580685
0.000529608
0.000481773
0.00043758
0.000397268
0.000361036
0.000328913
0.000300847
0.000276707
0.000256318
0.000239477
0.000225958
0.000215538
0.000208002
0.000203154
0.000200827
0.000200895
0.000203206
0.00104138
0.00101919
0.00100095
0.00098681
0.00097679
0.000970787
0.000968571
0.00096978
0.000974475
0.000982696
0.000993675
0.00100696
0.00102204
0.0010384
0.00105591
0.0010741
0.00109282
0.00111177
0.00112965
0.00114528
0.00115811
0.00116762
0.00117354
0.00117532
0.00117243
0.00116443
0.00115108
0.00113219
0.00110739
0.00107666
0.00104071
0.00100017
0.000955783
0.000908386
0.00085848
0.000806214
0.000752643
0.000699427
0.000646656
0.000594568
0.000544035
0.000495652
0.000449844
0.00040698
0.000367382
0.000331489
0.000299421
0.000271378
0.000247125
0.000226262
0.000208584
0.000194004
0.000182406
0.000173591
0.000167343
0.00016352
0.000161974
0.00016256
0.000165133
0.0503192
0.0457085
0.0414561
0.037418
0.0335607
0.0298673
0.026357
0.0230566
0.0199862
0.0171629
0.0146424
0.0124547
0.0105898
0.00900941
0.00764397
0.00647032
0.00548991
0.00468748
0.00403479
0.00350169
0.00306256
0.0026961
0.00238468
0.00211378
0.00187055
0.0481164
0.0447654
0.0409994
0.0371483
0.0333462
0.0296564
0.0261275
0.0228029
0.0197185
0.0169085
0.0144041
0.0122153
0.0103324
0.00873175
0.0073806
0.0062495
0.0053134
0.00454682
0.00392271
0.00341392
0.00299575
0.00264738
0.00235198
0.00209604
0.00186847
0.0481715
0.0445715
0.0407456
0.0368547
0.0330036
0.029263
0.0256935
0.0223469
0.0192644
0.0164766
0.0139996
0.0118342
0.00996993
0.00838812
0.00706403
0.00596933
0.00507348
0.00434553
0.00375578
0.00327673
0.00288407
0.00255741
0.00228027
0.00203975
0.00182607
0.0487259
0.044631
0.0405254
0.0364648
0.0325069
0.0287029
0.025103
0.0217531
0.0186891
0.0159336
0.0134944
0.0113674
0.0095403
0.00799557
0.00671008
0.00565552
0.00479975
0.00410975
0.00355431
0.00310538
0.00273877
0.00243446
0.00217648
0.00195242
0.00175272
0.0494187
0.044825
0.0403707
0.0360746
0.031966
0.0280759
0.0244381
0.0210849
0.018041
0.0153197
0.0129222
0.0108405
0.00906036
0.00756275
0.00632373
0.0053141
0.00450079
0.00384986
0.00332934
0.0029109
0.00257055
0.00228877
0.00205015
0.00184298
0.00165866
0.0500736
0.0450077
0.0401879
0.0356351
0.0313624
0.0273807
0.023704
0.0203488
0.0173271
0.0146431
0.0122921
0.0102625
0.00853704
0.00709444
0.00590859
0.00494871
0.0041808
0.00357048
0.00308559
0.00269792
0.00238396
0.00212479
0.00190572
0.00171559
0.00154633
0.0507204
0.045151
0.0399396
0.0351199
0.0306832
0.0266134
0.0229012
0.0195469
0.0165505
0.0139076
0.0116084
0.00963754
0.00797441
0.00659395
0.00546735
0.00456189
0.00384258
0.0032748
0.00282663
0.00247029
0.00218288
0.00194622
0.00174631
0.00157264
0.00141814
0.0514317
0.045219
0.0395746
0.0344903
0.0299048
0.0257608
0.0220231
0.0186751
0.015709
0.0131127
0.0108715
0.00896669
0.0073743
0.00606345
0.0050023
0.00415599
0.00348844
0.00296521
0.002555
0.00223068
0.00197004
0.00175579
0.00157443
0.00141596
0.00127455
0.0521062
0.0451124
0.039023
0.0337059
0.0290065
0.0248133
0.0210664
0.0177309
0.0147999
0.0122569
0.0100793
0.00824901
0.0067383
0.00550527
0.00451603
0.00373382
0.00312093
0.00264401
0.00227321
0.00198196
0.00174843
0.001557
0.00139352
0.00124672
0.0011146
1.26631
1.23174
2.7322
4.09571
0.0016883
0.00258014
0.0417252
0.000654364
2.53101
0.000218024
2.28654
0.00483967
0.130623
0.00504216
0.0528676
0.000788193
2.2467
4.04873
0.000132531
0.0648391
0.0206708
0.000557769
2.71499
0.0337489
0.00108156
0.000968417
0.000976764
0.0303682
1.53659
2.30446
0.000220176
0.000952691
2.99936
0.107128
2.3043
0.000742974
0.137016
0.0534274
0.171465
0.00391581
3.86443
0.00110754
0.00062052
0.119593
0.0199612
0.000681147
3.42185
4.38382
1.86347
2.12354
3.1538
3.62542
0.0244873
4.24213
0.0408074
2.58108
0.00434258
0.0199969
0.00185112
3.73349
0.000987488
2.94018
0.00176687
0.000722056
0.000639223
0.0784874
0.00167628
0.691501
0.1593
2.01109
2.70439
0.000661436
0.000998571
0.0620567
0.0020139
0.0199088
0.0559929
4.1583
0.00216309
4.14786
0.0858294
0.00128665
0.000644711
2.23005
0.00124751
0.00113664
0.000730684
4.12651
3.05091
0.00642661
0.0177887
0.00298621
0.000199692
0.00510837
0.00123048
2.30841
0.00102887
2.53236
0.00210613
3.69551
0.011284
3.8333
0.0130218
0.000650166
0.00162307
0.0170552
2.93995
0.0709781
0.00147708
2.31624
0.000625169
0.00235435
3.06916
0.000620427
0.0224755
1.83438
3.07078
0.00321751
0.0456347
0.00333269
0.000174566
0.00271751
0.0366213
0.00115374
3.1369
0.000650994
3.62955
0.0484814
0.00170525
4.36949
0.000678495
0.0606045
2.03187
0.168714
0.0365204
0.000773583
0.0205857
0.00719511
0.000804549
0.0699799
0.000433935
0.163873
3.77187
0.000275814
1.64624
0.000872107
3.76472
0.0354743
0.000788772
2.20091
0.0208008
0.00301805
3.93444
0.0490711
0.00255245
2.17616
0.00104656
0.00321693
0.0546511
0.000878984
0.000571338
2.64728
0.000632609
2.69684
0.000318459
2.68393
0.00515562
0.00101339
0.000926688
0.00116013
0.00449559
0.000738932
0.65427
2.41206
0.00159692
0.0207146
0.0393824
1.77485
2.40337
0.000451898
0.0748661
0.000959556
0.0274166
0.056782
0.0559095
0.00103154
2.90157
0.000990665
2.31575
0.000768561
4.18272
3.72849
1.81155
0.166527
0.0481792
2.50463
0.00189325
0.000552852
1.73811
1.38654
0.295784
0.000996578
0.00120958
0.00079795
0.0107677
0.00047669
0.00195708
0.0129814
1.947
0.00249011
0.0016293
0.0034327
0.0862113
0.0100291
0.0344503
4.04141
0.00170843
0.000822516
0.000892366
0.00902891
0.0105149
0.00125772
0.00273215
3.06363
2.07782
3.29996
0.00777932
2.26156
0.0016139
0.00108216
2.03009
0.000728636
0.0010545
0.00117448
0.164816
0.000286048
0.0528575
0.0176986
0.0604915
0.0495729
0.000372845
0.00103504
0.000347998
0.0481309
0.000894103
0.000605292
0.000886627
0.0235278
0.000774334
0.000428419
0.00145579
0.0226306
0.000841773
1.83436
0.0016213
0.00105089
2.88299
0.0548124
0.0541891
0.000136311
0.394912
0.00175512
0.000669243
0.00227901
0.0595035
0.00125722
0.000396443
3.62111
0.0412573
0.000943606
0.024787
1.78739
0.00209372
0.000861182
0.000133782
3.48515
0.00246538
2.41529
0.00453845
3.887
0.0917156
0.0238381
0.544928
0.000677137
2.45339
0.000852658
0.0185498
3.29171
3.23548
4.2498
0.0487918
0.000648092
0.000646177
3.4038
0.379519
4.00939
3.80477
0.00229473
0.000952926
3.04618
3.7731
0.000539719
0.00983923
0.000827478
3.65555
0.0003381
0.0207886
0.000977335
0.0698852
0.00114738
0.000663549
0.000334988
2.63939
0.00171153
0.00225991
0.200344
3.8218
0.000917729
0.00102985
0.390898
0.0549942
0.000635211
0.0124135
0.00021503
0.000740779
0.00120891
2.99777
0.0687781
0.00210399
0.0208717
0.000309984
0.0487801
0.00845909
0.000234151
4.03134
0.00119881
0.000564679
0.000662635
1.7155e-05
0.465388
0.00322875
0.0054494
3.35137
0.000314569
0.0579796
0.00177913
0.00400921
0.00142836
0.00083752
3.19724
1.89358
0.00020621
0.00228114
0.0539328
3.4645
1.78691
0.550046
0.132077
0.000368157
3.4607
1.96749
2.33285
0.000530466
3.21127
0.000848875
0.000770738
0.00084631
4.03993
0.000641914
2.21619
0.000471139
0.0490705
1.52868
3.27789
0.127223
0.00160299
0.00295934
0.000268852
0.00117051
0.000281663
3.77664
0.000722744
3.11455
0.142959
0.140303
0.467884
0.000310105
0.0637161
2.11184
4.1954
0.0289438
0.000459772
0.0126841
2.80247
0.0636725
0.000163831
0.00035351
2.93612
0.00326356
1.55763
0.000626535
0.000608769
0.00131556
1.78738
0.00534745
1.44995e-06
0.0466259
0.014122
0.302557
0.000379778
1.99205
0.000660218
3.05645
0.000793781
0.000655063
0.565723
1.96489
3.19902
0.00240825
0.0029578
0.000319175
0.00114222
0.00741155
0.0153796
0.000859683
4.04462
1.38976e-05
0.0129078
0.000714027
0.000881981
0.000772952
0.00104154
0.0064735
0.00230542
0.0473998
0.000817383
0.000614182
0.000436174
0.00133137
0.085874
0.000741085
0.0496223
3.481
0.22022
0.176355
3.73657
0.0209896
2.42838
0.00171303
0.00210476
3.23665
0.000544742
0.000630591
2.815
0.000326619
1.94717
3.24037
0.00101161
0.0218812
0.0470204
0.000649137
0.0516179
1.9056
0.0824906
3.9189
0.000668358
0.00155832
3.13297
0.000682432
2.15015
0.0203525
0.00075822
2.31247
0.12535
0.00110917
0.11358
0.00531927
0.000902591
0.0359774
0.0321892
0.031475
0.132567
0.000124464
0.00500252
2.16498
0.0011978
0.00110269
0.000778699
1.69095
0.000499056
0.0475521
0.00068033
0.00265713
2.676
0.000630351
0.00222391
0.0478378
0.000798971
0.000242994
2.19267
0.000592677
0.047887
0.000706667
0.038602
0.0389295
0.0989559
0.00078913
0.000755576
0.0454106
0.000955742
0.000433857
0.0795207
0.00159818
0.0048533
0.00112378
4.00119
3.64114
2.04477
0.00177686
0.0205866
0.000196212
4.23409
0.0658088
5.00142
0.125103
0.000782239
3.99672
3.79343
0.000536271
0.000804814
0.0218053
0.000527536
3.20965
2.86111
0.00347944
0.321629
0.000603455
2.51178
1.8033
0.000698316
0.382706
2.24804
0.000535288
3.21946
0.00290576
2.85739
0.000593968
0.00865176
0.000782191
2.40006
0.131618
0.11258
0.00168992
1.87002
2.00556
3.97142
0.00246575
0.000280948
0.0859553
2.10691
0.000823041
0.142554
0.000599962
0.116928
2.19012
0.000172577
0.0204835
0.00185416
0.000916256
0.530319
2.77967
0.000853811
0.0640808
0.00179023
0.0020221
3.05339
3.49087
2.15754
0.0100311
0.555059
0.0694614
0.0274116
0.000978064
0.00020255
0.000704617
2.91179
0.000503141
0.00272857
0.524205
0.000916313
0.00414302
0.00163679
0.00070163
0.0482787
0.0003339
0.00197985
0.107515
2.08841
0.00133469
0.00086919
3.36742
0.0312398
0.000993793
0.0134125
0.0467632
0.00159209
0.000892049
0.000643363
2.93963
0.000588264
0.000582526
0.146541
0.000590373
0.000899789
0.0144219
0.0228938
0.00194644
0.00377813
3.03443
0.000757544
0.000661299
0.000628252
0.000272426
0.00451363
0.00501846
3.64745
3.95779
0.0261337
2.76127
0.00386865
0.00102421
0.000777171
0.00134957
0.000868358
0.00323135
0.0248174
0.00847156
0.00292238
0.00271979
0.0460151
0.0198303
0.00765946
0.0791066
0.000536762
0.00222608
0.000708316
0.0298541
0.301525
3.60383
0.0480061
0.0537437
0.00338573
0.000201563
0.00199517
0.000817449
0.000540207
3.52127
0.000139022
0.0245395
0.000588069
2.29912
4.0739
2.21406
0.000183188
0.000741339
0.000754525
3.79783
2.51915
0.0562206
0.0248295
0.00482136
0.000141089
0.00128908
3.72283
0.00050295
0.000688629
0.135701
0.000710501
0.000501656
0.000382773
0.0020616
0.0237108
0.0169815
0.000705196
0.000429664
0.00990167
0.000272826
1.67384
3.40997
0.00091817
0.0493749
0.00289596
2.23141
0.000715144
0.000294029
0.00043315
0.00105728
0.596934
0.000798427
0.000421056
0.00183683
0.516152
0.00150439
0.00079051
0.000596051
3.96951
0.047686
0.023089
4.3048
0.050643
1.75238
2.32026
0.000131722
0.000979035
0.000675137
5.58598e-06
0.000672656
0.0936464
0.00085554
0.000670722
0.0985992
0.000173727
0.000523755
0.0593497
0.000484804
0.00100151
0.000583404
0.026061
0.070359
3.85214
0.000143628
2.52003
0.0385334
1.7318
0.02512
3.87664
3.20456
3.32434
0.000925352
0.000777884
0.000246704
0.384975
0.000616825
0.427398
1.56875
0.000257857
0.0572265
0.237324
0.00179913
0.000597905
0.000693087
3.78066
2.82889
0.000562479
0.0420288
0.0498921
0.0364961
2.70719
4.26732e-08
0.000445751
0.0485265
0.00033287
1.43492
0.324694
2.50109
0.0485398
0.00110403
0.0487266
0.00345732
4.01349e-05
0.0514639
0.00362009
0.00859491
0.000946286
0.000627453
0.909238
0.000788833
0.00131254
0.000565333
0.00067741
0.957496
0.00410505
3.72715
0.0518559
0.000498498
1.88035
0.000743077
0.0681969
0.00166798
0.000217942
0.000467271
0.0288833
0.0314376
0.00038684
0.00054958
3.24905
2.82318
0.0448042
0.00084019
0.034993
0.351582
0.0518903
3.57423
0.130062
0.0077308
0.000350874
2.75522
0.00217013
0.000638064
0.0174368
2.49272
2.61499
0.00115718
0.000863489
2.16257
0.00077103
2.7593
2.22068
0.000503449
0.00113038
2.49874
1.57358
1.43669
0.00032118
0.00086497
0.00131772
0.0333566
0.124844
0.000491302
0.00068156
0.00250813
0.0437102
0.0173634
0.207344
1.57019
0.00014103
0.000591137
4.30233
0.000150817
0.0274969
0.001695
0.0275072
0.00130876
0.00308843
0.379517
0.000635171
0.000273109
0.000255964
0.0249319
0.0271447
4.0852
0.000731144
0.000634709
0.000613614
0.0595326
0.0692285
2.85512
0.00320534
0.22619
0.0518343
4.69883e-06
0.00164067
0.00366801
2.05871
0.00200749
0.0630138
0.000818444
1.95123e-05
0.0510439
0.00075951
5.34612
2.96731
0.0339361
3.76967
3.92051
3.73646
0.000155432
2.62332
0.0699259
0.000416142
0.0416858
0.000665837
0.00377161
0.051439
0.000778419
0.00831362
0.0266494
3.14393
0.0122334
0.00523935
2.59546
0.00596323
0.000844941
0.0458425
1.66923
0.510104
0.000225439
0.0272445
4.32301
2.45776
0.346697
0.0270034
2.01189
0.00511511
0.0010157
0.0242436
2.27481
0.00162717
1.64287
0.00349788
2.19562
0.000845929
0.0405536
1.36945
0.000349353
0.002891
0.000231668
2.90058
0.580741
2.56067
1.75337
0.000902882
0.0380452
0.0190259
0.0105396
1.51705
0.0191551
0.000515652
0.000800676
0.000740022
0.00309883
0.035909
2.29688
8.39976e-05
2.82802
0.0005315
0.0521381
0.000178923
0.000726063
0.000702835
2.90558
2.31211
0.028133
0.0261969
0.0010064
0.00180387
0.0482397
0.00061929
0.475392
0.196999
3.36257
0.00215116
0.722681
0.0484655
0.000808183
0.000915999
0.00124084
3.41541
0.00277196
0.00961217
0.0512405
0.0478317
0.00162431
0.0120733
0.000832682
0.000595525
0.00199251
0.00148131
0.0227896
0.00094806
0.0466493
2.60769
0.0665219
2.91689
0.000623218
0.052653
0.030795
0.00533968
1.62289
0.00218806
0.00517498
3.25128
0.000822485
0.232041
0.00503578
0.000964275
1.90379
0.000321533
0.972358
0.00152095
0.0400787
0.0431395
3.03395
0.00263704
0.0482621
0.000998831
0.852568
0.000782634
3.18337
0.0695412
0.249327
2.2614
0.0119356
3.28521
0.000684249
1.79089
0.00212303
0.000638236
0.00271645
0.0414673
0.0520216
0.00342993
0.000220259
0.0548764
0.000777757
0.000255666
0.00281567
0.00160354
0.000706096
4.32601
0.000890084
0.000655406
0.0498899
0.025409
3.71851
0.00243763
0.000316784
0.00128245
1.27357
0.000972252
0.00352698
3.75381
1.48776
0.11741
0.00100566
0.012083
0.02717
2.9424
0.000313595
0.000194808
0.00400063
0.000948297
0.00172158
1.62615
4.15032
4.72376
0.0274465
0.00101983
0.0486618
3.37958
0.0193419
0.0470895
0.000819385
1.70974
2.21527
3.47878
0.000753966
0.000746891
0.0139982
2.47757
0.000929844
2.75068
0.00886806
0.435128
1.87844
0.0028103
0.00495635
0.00497658
0.000203235
0.000206197
0.41424
1.60601
0.000135565
2.61567
0.001314
0.00108182
0.000906979
0.000347158
0.0266216
0.0102181
0.0672761
0.0427186
0.00118618
0.000838202
1.75296
2.14228
0.000569543
0.00270458
0.000611292
1.857
4.25727
0.0167726
3.82127
0.000985799
0.000164689
0.0518351
0.000706445
0.0104587
0.0485582
0.000620625
0.00074556
0.000446713
0.00683553
0.0576901
2.92709
0.0480005
0.000167279
0.015833
0.000467707
3.54125
3.73602
0.000378687
0.000168657
0.0569661
0.00161331
0.00206071
1.41775
1.59048
0.201825
0.000229956
0.0037493
0.0482288
1.60989
0.00535491
0.0159052
1.45297
2.71741
2.03316e-05
0.000924023
0.0045434
0.000544405
0.764366
0.0355485
0.000634446
0.0518534
0.00077528
0.000386669
0.000781757
0.0238906
0.00133397
3.25457
1.83758
3.38337
1.41096
0.474405
5.54393
0.000928329
3.42001
0.0298381
0.000673982
0.313766
0.000151457
0.0129157
0.000523124
0.000664139
0.00316883
2.50384
0.00156051
0.0235412
0.0482495
0.00535302
0.0362634
0.796268
3.45827
0.00197411
3.48987
2.53326
0.00476613
0.00139068
0.0219246
0.358427
0.0144438
0.0454767
3.0174
0.000411705
0.0029325
0.00161683
0.0455442
3.64984
0.000852478
0.00542069
0.00111261
0.000563834
0.00156284
0.033673
0.000181742
0.00636143
0.0121554
1.93585
0.00023987
0.0611358
2.30713
0.000747038
0.0222738
0.0354544
3.05916
0.0661121
1.17509
0.0519797
0.000615943
4.46466
2.42257
0.000905551
0.0302902
0.0538305
0.000354983
0.00125935
0.000440763
0.0641007
0.000954192
0.116199
0.000204139
0.0483874
2.00378
0.0499737
1.85814
0.329914
0.00116201
0.0542381
0.0456763
0.00460588
0.000736788
0.028604
2.24943
0.000443718
0.0908755
0.00337331
0.000782511
0.023616
0.00732769
0.00120397
0.000601895
2.717
0.0535717
0.000353475
0.000720694
0.00026389
0.000584137
0.000743067
1.56581
0.000638057
0.337494
2.45736
0.0393646
6.92994e-05
0.0507043
1.51335
0.0682727
1.77535
0.0093772
0.252988
3.33127
3.55344
0.000907782
2.21422
0.000320929
2.51825
3.60497
0.000147685
0.139161
0.0489382
4.16739
0.0912598
0.020111
0.000535273
0.0406698
2.24446
1.95996
3.41527
0.000845829
0.0675312
0.000177383
2.3643
0.0114272
0.00156625
0.00072709
0.0565482
0.00351254
0.00475632
0.072124
0.000545766
1.81108
0.00253546
0.000427568
0.604463
0.0397218
0.00550728
0.0311771
0.0491818
0.000900911
0.0298551
2.30744
0.000239614
0.0282912
0.00356808
1.85202
0.250748
0.000974489
3.9365
0.000206326
0.0216181
2.26394
0.000359472
0.00146759
0.0198018
0.0351867
0.0451662
0.00176392
4.13551
0.00569054
0.0299603
4.03059
0.0184406
0.000789351
0.447481
0.000710174
0.00069436
0.000225072
0.0520957
2.34771
0.000821875
2.89909
0.0502502
0.000741676
0.198096
0.000621442
0.00401959
0.188805
0.00055132
0.000459886
1.73075
0.0029377
0.000455285
0.000607085
1.93112
2.2427
0.00873142
0.000257489
0.00137303
0.185139
4.07767
0.000690358
0.00177321
0.0175991
3.0942
0.00189659
0.249196
0.199161
0.000619583
0.0266303
3.4956
0.000648927
0.00988796
0.000389589
2.59294
0.000808877
0.000817662
0.00598574
0.0407461
2.2915
0.00288972
2.88744
0.00306755
2.41604
0.000386858
0.05499
0.0254944
0.0679446
1.88513
0.00540208
0.104255
0.000938336
0.000701878
0.000859439
2.27904
2.60462
0.000227995
0.00033667
0.997134
0.000688407
0.00455179
0.00225724
3.98045
3.54423
0.0485025
3.1246
0.000751371
0.00062271
0.177136
0.051273
1.81349
0.00145142
0.00140657
0.00147541
0.00252173
0.000738411
0.0018622
0.000911442
0.023831
3.66244
2.37656
0.000163336
0.0257175
0.0325699
2.80131
0.000634583
3.54465
1.60131
3.69176
0.000519234
0.0503227
0.000740354
0.000699316
0.000398883
0.00143789
0.000140624
1.51132
3.36533
0.000493681
0.0214278
0.0719045
0.0730624
2.09203
4.42488
0.00183498
0.00183566
0.00267368
0.0165326
0.10632
0.00220866
2.02592
0.105283
0.000265818
0.00743199
0.000833003
0.0475989
0.000887747
0.00149266
0.000229275
0.000921402
0.00738234
0.0334374
0.000589921
3.32748
0.000846056
0.000617511
0.357219
0.00663312
0.000704018
2.96745
2.14954
0.000682241