/*--------------------------------*- C++ -*----------------------------------*\
  =========                 |
  \\      /  F ield         | OpenFOAM: The Open Source CFD Toolbox
   \\    /   O peration     | Website:  https://openfoam.org
    \\  /    A nd           | Version:  10
     \\/     M anipulation  |
\*---------------------------------------------------------------------------*/
FoamFile
{
    format      ascii;
    class       volScalarField;
    location    "1750";
    object      k;
}
// * * * * * * * * * * * * * * * * * * * * * * * * * * * * * * * * * * * * * //

dimensions      [0 2 -2 0 0 0 0];

internalField   nonuniform List<scalar> 
10435
(
2.17431
2.6311
2.29048
2.3573
2.52773
2.79115
2.17599
2.04874
2.14382
2.70516
2.66827
2.25045
2.74227
1.48362
1.5881
2.07462
1.38455
2.97262
2.1667
2.23819
2.05314
2.35664
2.11844
2.20113
2.4985
0.712062
0.90583
2.50009
0.85114
2.85013
2.20792
2.66083
2.06547
0.871898
2.09534
2.2757
2.0889
0.935536
0.576607
2.1808
2.98274
2.17807
1.01572
2.33577
2.09799
2.18671
2.86121
0.933372
2.14316
2.33367
2.05516
2.40519
0.559451
0.787367
0.609976
0.796803
2.12388
0.959037
1.15282
2.14219
0.596935
2.55928
0.946401
2.38719
2.10272
2.3658
1.04279
1.04159
2.04408
2.22154
0.780832
0.83245
0.764728
2.25902
1.69274
1.07111
2.24203
2.12377
2.0817
1.67005
2.32419
2.05513
0.54276
0.79559
2.30528
2.00893
2.10978
2.38618
1.77411
2.20998
2.40433
2.40992
2.13284
1.87738
2.29022
2.07436
2.37232
1.63959
1.25655
2.3886
1.69379
2.70814
1.99677
2.34795
2.72069
2.35587
2.19855
2.33322
2.2793
1.77492
2.31891
2.70503
1.96812
1.87452
2.44233
2.3487
2.34086
2.16083
2.5037
2.3097
2.29654
0.950949
2.29335
1.56893
2.77307
0.655203
2.33976
1.0721
2.41561
0.928769
1.29538
2.80254
2.06016
1.56455
0.883366
0.500585
2.18798
2.34886
2.46403
2.32581
2.28854
2.14507
0.973029
2.23462
2.35466
1.42094
1.90016
2.53061
1.3465
2.19503
0.844851
2.10911
2.18551
2.18355
2.54697
0.767368
2.74268
2.39517
2.62738
2.83336
2.14279
1.45915
2.50833
2.29892
1.80644
2.33654
2.08668
2.31088
2.23552
2.30336
2.44826
0.650329
0.832011
1.52688
2.19201
2.81473
2.44013
1.15684
2.29316
0.902973
2.66491
2.73825
2.22342
0.625636
2.12988
0.856859
0.936972
2.08687
2.53704
2.28725
2.25997
0.530882
0.894415
2.43283
2.7163
2.05485
1.229
1.85261
1.05292
2.07414
1.7897
0.91534
2.61068
0.952863
2.46576
2.50873
2.51722
2.33268
0.960426
2.34602
0.756295
2.16723
2.25641
2.26257
0.889439
1.43807
1.91124
0.604038
0.720532
1.35737
0.87437
1.22723
1.01472
1.47563
0.750226
2.06954
0.643493
1.69881
2.25789
1.16296
1.12757
2.0726
0.679332
2.13838
0.964005
1.28864
2.16456
0.756824
2.19648
2.2993
2.30107
0.693039
0.622134
0.801865
2.52393
2.10643
1.84964
2.04006
0.679209
2.74746
0.714826
1.90583
2.77304
2.32753
2.06154
2.41929
0.627059
2.09044
0.708078
0.906584
2.12753
2.37526
0.6991
2.26709
2.00712
1.16882
2.251
2.16824
0.580417
2.46453
2.17749
2.03469
2.0403
2.4657
0.766086
2.28053
0.925762
2.57812
2.07007
2.0452
2.68948
1.16883
2.24997
1.59916
2.00771
0.554727
2.52365
0.608189
0.802687
0.8886
1.62251
2.82513
0.960057
2.03373
0.586016
0.76908
1.31575
2.09675
2.6166
2.30238
1.05926
2.22068
2.32777
0.730686
2.6457
1.54023
1.27085
2.1679
2.32486
0.805678
2.25223
0.863646
2.61957
2.54118
2.12447
0.764495
0.637054
2.19438
1.07879
2.28304
2.74293
0.900114
2.10422
0.519833
2.06377
2.59357
0.816731
2.40954
1.08715
0.951809
2.14864
0.9216
0.804434
2.26363
2.16152
0.981092
0.761511
0.710074
0.830666
0.806041
0.851902
0.802842
0.583124
0.833188
0.803033
0.833148
1.00651
0.980864
0.509782
2.09416
0.810205
2.51183
0.88735
2.49889
2.08609
2.14284
2.75657
2.19927
0.798403
0.840864
0.7327
0.670463
0.790394
0.565553
0.871206
0.877814
0.991641
2.22679
0.857689
2.11891
0.639361
0.908369
2.83128
2.14522
0.555885
0.908835
0.935663
0.942116
0.834858
0.757379
1.06629
0.621292
2.06147
1.02182
2.0366
2.10828
2.59163
2.68307
2.12817
2.41287
2.10426
1.29949
0.735756
0.838341
0.7794
2.34049
0.818672
2.83515
1.03024
0.908322
0.925442
0.948598
0.659097
2.11921
0.938746
2.04433
2.20053
0.649382
0.798555
0.975706
2.1519
0.98802
0.829691
0.715998
0.793462
0.97621
0.853125
2.37975
0.778015
0.800298
0.855269
0.887967
2.97832
0.556911
0.512472
2.1246
0.834234
0.159144
0.157273
0.153111
0.147409
0.140714
0.13323
0.125256
0.11707
0.109001
0.159016
0.156398
0.151952
0.146221
0.139592
0.132355
0.124783
0.117202
0.110006
0.158613
0.155532
0.150888
0.145142
0.138651
0.131696
0.124554
0.117542
0.111018
0.158312
0.154928
0.150121
0.14439
0.138069
0.131417
0.124697
0.118188
0.112175
0.158425
0.154816
0.149867
0.14417
0.138029
0.131679
0.125353
0.119273
0.113634
0.159227
0.155424
0.150342
0.144687
0.138721
0.132659
0.126691
0.12099
0.115678
0.161015
0.157009
0.151784
0.146157
0.140347
0.134545
0.128903
0.123552
0.118579
0.164168
0.159836
0.154424
0.148798
0.143114
0.137537
0.132183
0.127152
0.122513
0.169011
0.164113
0.158478
0.152823
0.147233
0.14184
0.136723
0.131951
0.127569
0.175487
0.169948
0.164128
0.158435
0.152911
0.147652
0.142714
0.138129
0.133893
0.183218
0.177406
0.17155
0.165836
0.160344
0.155162
0.150331
0.145862
0.141714
0.191824
0.186672
0.180966
0.175237
0.169724
0.164542
0.159739
0.155315
0.151238
0.202556
0.198255
0.192668
0.186852
0.181217
0.175928
0.171051
0.166593
0.162531
0.216938
0.212702
0.206924
0.200837
0.194929
0.189393
0.184314
0.179709
0.175564
0.235527
0.230252
0.223837
0.217238
0.210879
0.204941
0.199515
0.194619
0.190212
0.2579
0.250709
0.243299
0.235979
0.229006
0.222523
0.216621
0.211326
0.20661
0.282273
0.273511
0.265051
0.256908
0.249209
0.242072
0.235589
0.229801
0.224728
0.307876
0.298234
0.288878
0.279903
0.271417
0.263544
0.25639
0.250011
0.244436
0.334785
0.324765
0.314704
0.304934
0.295634
0.286971
0.279072
0.272011
0.265823
0.363314
0.353218
0.342591
0.332063
0.321945
0.312469
0.303787
0.295995
0.28915
0.393878
0.383843
0.372678
0.361404
0.350487
0.340214
0.330755
0.322223
0.31467
0.427044
0.416961
0.405131
0.39308
0.381407
0.370409
0.360246
0.351028
0.342795
0.463855
0.45293
0.440057
0.427158
0.414828
0.403268
0.392577
0.382845
0.374127
0.505868
0.491939
0.477354
0.46358
0.450807
0.438983
0.42808
0.418133
0.409183
0.554779
0.533406
0.51658
0.502162
0.489359
0.477739
0.467075
0.457345
0.447706
0.261586
0.261467
0.261853
0.26274
0.26414
0.266049
0.268468
0.27138
0.274774
0.278617
0.282881
0.287528
0.292501
0.29775
0.303199
0.308777
0.314402
0.319984
0.325429
0.330645
0.335521
0.339949
0.343799
0.346899
0.349032
0.349994
0.34993
0.348874
0.346743
0.343272
0.338734
0.333221
0.32674
0.319418
0.311368
0.302706
0.293552
0.284026
0.274254
0.264363
0.254477
0.24472
0.235202
0.226029
0.217295
0.20908
0.201447
0.194452
0.188123
0.182481
0.177528
0.17325
0.169634
0.166647
0.164265
0.162454
0.161188
0.160439
0.160182
0.260249
0.26046
0.261126
0.262257
0.263852
0.265911
0.268432
0.271407
0.274821
0.278653
0.282874
0.287444
0.292319
0.297441
0.302747
0.308165
0.313613
0.319005
0.324248
0.329247
0.333901
0.338106
0.341752
0.344721
0.346871
0.34804
0.348104
0.346995
0.344701
0.341281
0.336843
0.331454
0.325168
0.318057
0.310207
0.301721
0.292711
0.283298
0.273607
0.263768
0.253908
0.244153
0.234619
0.225416
0.216641
0.208377
0.20069
0.193629
0.187225
0.181492
0.176428
0.172034
0.168292
0.165174
0.162647
0.160679
0.159236
0.158292
0.157812
0.255872
0.256131
0.256836
0.257996
0.259615
0.261691
0.26422
0.267192
0.270591
0.274394
0.278574
0.283092
0.287903
0.292954
0.298181
0.303516
0.308879
0.314186
0.319347
0.324267
0.328844
0.332974
0.336542
0.339425
0.341488
0.342603
0.34267
0.341628
0.339455
0.336177
0.331863
0.326584
0.32041
0.313417
0.305692
0.297333
0.288447
0.279152
0.26957
0.259827
0.250051
0.240366
0.230891
0.221736
0.212999
0.204764
0.197098
0.190051
0.183654
0.177922
0.172855
0.168442
0.164663
0.161492
0.158903
0.156866
0.155353
0.15434
0.153794
0.24826
0.248535
0.249253
0.250418
0.252034
0.254098
0.256606
0.259546
0.262903
0.266654
0.27077
0.275217
0.279949
0.284915
0.290055
0.295299
0.300573
0.305792
0.310866
0.315699
0.32019
0.324232
0.32771
0.330507
0.332503
0.333585
0.333661
0.332671
0.330594
0.327445
0.323273
0.31814
0.312117
0.305282
0.297722
0.289535
0.280825
0.271708
0.262302
0.252733
0.243125
0.233601
0.224278
0.215265
0.206661
0.198546
0.190988
0.184035
0.17772
0.172058
0.167049
0.162683
0.158941
0.155799
0.153229
0.151203
0.149692
0.148675
0.148119
0.238399
0.238695
0.239425
0.240593
0.242203
0.244252
0.246736
0.249643
0.252957
0.256657
0.260713
0.265091
0.269748
0.274633
0.279686
0.284841
0.290022
0.295145
0.300123
0.304857
0.309248
0.313187
0.316566
0.319271
0.321195
0.322239
0.322323
0.321392
0.319423
0.31642
0.312418
0.307466
0.301632
0.294992
0.287634
0.279654
0.271155
0.262251
0.25306
0.243705
0.234311
0.224996
0.215878
0.207063
0.198646
0.190709
0.183316
0.176517
0.170342
0.164805
0.159909
0.155643
0.151987
0.148917
0.146405
0.144424
0.142946
0.141949
0.141402
0.226415
0.226696
0.227406
0.228551
0.230134
0.232153
0.234601
0.237469
0.240739
0.244389
0.248391
0.252708
0.257299
0.262111
0.267086
0.272157
0.277249
0.28228
0.287159
0.291793
0.296082
0.299922
0.303207
0.305832
0.307697
0.308714
0.308811
0.30794
0.306074
0.303214
0.299384
0.294628
0.289006
0.282593
0.275473
0.26774
0.259495
0.250848
0.241918
0.232827
0.223694
0.21464
0.205776
0.197209
0.189032
0.181324
0.174149
0.167556
0.161574
0.156218
0.151489
0.147376
0.143859
0.140913
0.13851
0.136623
0.135225
0.134292
0.133794
0.212635
0.212878
0.213547
0.214651
0.216192
0.218169
0.220576
0.223403
0.226632
0.23024
0.234198
0.238469
0.243008
0.247764
0.252677
0.257682
0.262702
0.267655
0.272453
0.277002
0.281204
0.284958
0.288165
0.290728
0.292551
0.293556
0.293677
0.29287
0.29111
0.28839
0.284732
0.280173
0.274773
0.268606
0.261749
0.254294
0.246337
0.237984
0.229358
0.220574
0.211749
0.202998
0.194432
0.186155
0.178259
0.170823
0.16391
0.157566
0.151822
0.146692
0.142175
0.13826
0.134926
0.132149
0.129899
0.128147
0.126865
0.12603
0.125612
0.197076
0.197224
0.197804
0.198826
0.200296
0.202215
0.204576
0.207369
0.210574
0.214165
0.218111
0.222368
0.226889
0.23162
0.236501
0.241472
0.246459
0.251375
0.256134
0.260635
0.264781
0.268474
0.271629
0.274161
0.275967
0.276982
0.277146
0.276421
0.27477
0.272184
0.268688
0.264315
0.259138
0.25323
0.246649
0.239494
0.231857
0.223833
0.215555
0.207124
0.198653
0.19025
0.182022
0.174073
0.166499
0.159374
0.152768
0.146722
0.141263
0.136402
0.13214
0.128464
0.125357
0.122791
0.12074
0.119172
0.118059
0.117373
0.117084
0.179704
0.179671
0.180093
0.180994
0.182387
0.184266
0.186612
0.189391
0.192611
0.196276
0.200298
0.20462
0.209178
0.213907
0.218777
0.223723
0.228714
0.233701
0.23852
0.243029
0.247146
0.25079
0.253914
0.256432
0.258255
0.259316
0.259566
0.258961
0.257434
0.254957
0.251595
0.247397
0.242431
0.23679
0.230525
0.223653
0.216302
0.208692
0.200854
0.192829
0.184762
0.176766
0.168928
0.161344
0.154101
0.147312
0.141041
0.135367
0.130289
0.12576
0.121773
0.118342
0.11547
0.113134
0.111303
0.109953
0.109056
0.10858
0.108491
0.813429
0.763297
0.718459
0.675541
0.633477
0.591903
0.551057
0.5114
0.47341
0.437589
0.405007
0.376482
0.352272
0.332091
0.314916
0.300453
0.28893
0.280274
0.274071
0.269775
0.266891
0.264977
0.263623
0.262427
0.260918
0.775254
0.746696
0.710357
0.670896
0.630096
0.588836
0.547837
0.507819
0.469484
0.433586
0.400904
0.371965
0.346997
0.325956
0.308569
0.294549
0.283634
0.275505
0.269762
0.265937
0.263556
0.262185
0.261446
0.260999
0.260516
0.768269
0.738969
0.703779
0.665076
0.624418
0.582893
0.541458
0.501013
0.462396
0.426376
0.393578
0.364423
0.339146
0.317808
0.300316
0.286448
0.275866
0.268149
0.262831
0.259432
0.257477
0.256526
0.256187
0.256116
0.256022
0.76808
0.734791
0.697788
0.658095
0.61674
0.574656
0.532772
0.491999
0.453184
0.417054
0.384169
0.354911
0.32952
0.308099
0.290607
0.276845
0.266457
0.258986
0.25393
0.250788
0.249076
0.248351
0.248217
0.24833
0.24838
0.769475
0.732265
0.692615
0.651101
0.608455
0.565455
0.522931
0.481729
0.442634
0.406319
0.373302
0.343953
0.318509
0.297082
0.279637
0.265971
0.255718
0.248403
0.243503
0.240498
0.238895
0.23825
0.238173
0.238335
0.238471
0.770477
0.729774
0.687348
0.64374
0.59956
0.555465
0.512171
0.470436
0.430974
0.394405
0.36122
0.331781
0.306317
0.284929
0.267565
0.254
0.243853
0.236634
0.231806
0.228837
0.227232
0.226549
0.226409
0.226494
0.226552
0.771083
0.726954
0.681679
0.635885
0.590085
0.544805
0.500643
0.458277
0.418362
0.381471
0.348083
0.318551
0.293094
0.27178
0.254527
0.241079
0.231032
0.223879
0.219075
0.216078
0.214385
0.213559
0.213223
0.213072
0.212903
0.771443
0.72352
0.675311
0.627353
0.579959
0.533481
0.488399
0.445321
0.404878
0.367609
0.333981
0.304357
0.278946
0.25775
0.240649
0.227349
0.21741
0.210316
0.205515
0.202453
0.200618
0.199565
0.198902
0.198315
0.197652
0.771048
0.719039
0.667979
0.618016
0.569155
0.521522
0.475512
0.431637
0.390589
0.352891
0.318972
0.289261
0.26397
0.242952
0.226061
0.212957
0.203147
0.196116
0.191328
0.188212
0.186218
0.184925
0.183835
0.182482
0.180859
2.93693
2.89513
3.46145
5.25616
0.140556
0.162833
1.34542
0.10167
3.27715
0.108059
2.63411
0.175572
1.21344
0.182006
1.49577
0.173778
2.81899
5.23964
0.101268
1.08697
0.815432
0.170988
3.06121
0.398997
0.086886
0.133593
0.0863949
0.496843
3.0069
2.80963
0.105022
0.143586
4.27603
1.26718
2.7904
0.12478
1.51315
1.50156
1.67081
0.199998
4.20365
0.0450679
0.154112
1.01823
0.381956
0.206438
3.35344
4.00318
3.12963
3.78197
3.17829
3.99566
0.820469
5.36732
1.31078
3.34098
0.170081
0.795949
0.111801
3.8815
0.144951
3.63706
0.140157
0.184549
0.10411
0.879718
0.152208
1.52835
1.30865
3.50753
3.4768
0.194459
0.108274
1.11557
0.108315
0.805245
1.18872
4.03095
0.11777
5.29833
1.16702
0.169319
0.117835
2.51164
0.137272
0.148064
0.104069
4.05147
4.28774
0.245134
0.329736
0.182385
0.117955
0.180898
0.11685
2.66121
0.13514
2.77232
0.0903903
3.87338
0.313101
4.22762
0.338317
0.197517
0.105323
0.420192
3.24295
1.10838
0.0538573
2.83142
0.175612
0.092791
3.43043
0.193454
0.807686
3.12304
3.98916
0.188145
0.906404
0.0978402
0.0122553
0.101193
0.40802
0.0882406
4.3203
0.152631
4.01501
1.02239
0.114557
4.00287
0.115612
1.11754
3.48217
1.70517
0.592926
0.103809
0.375658
0.244575
0.144872
1.09604
0.164846
1.54753
3.89061
0.0175542
3.05318
0.188255
5.00842
1.01031
0.172191
2.71456
0.59991
0.194245
5.12531
1.54525
0.1105
2.48355
0.0950709
0.188978
1.27809
0.136446
0.150258
3.39847
0.1594
2.88816
0.132169
2.81964
0.186167
0.0851376
0.205117
0.0987935
0.17153
0.191112
1.48108
2.63837
0.148272
0.45897
1.08637
3.26096
3.33894
0.167309
1.35446
0.140445
0.832251
1.30494
0.785991
0.0910275
2.95676
0.0435978
3.9251
0.161731
3.98707
3.88351
3.29181
1.50418
1.50244
4.04695
0.104334
0.168323
3.09375
2.95931
1.70435
0.230376
0.162904
0.16394
0.493424
0.126565
0.158985
0.333848
3.22287
0.175552
0.105278
0.136618
1.37993
0.473038
0.691586
4.20226
0.123052
0.100432
0.231505
0.292433
0.275741
0.052009
0.110036
3.79843
3.20828
4.04385
0.250356
2.8454
0.0559107
0.112862
2.37817
0.126915
0.139601
0.111244
1.62999
0.114339
1.33653
0.366034
1.34237
1.58438
0.110167
0.144258
0.132756
0.694091
0.105556
0.107019
0.146284
0.450326
0.17233
0.129507
0.0514304
0.486658
0.129904
3.15097
0.126928
0.0865784
3.26276
1.20229
1.29502
0.10133
1.08423
0.119161
0.143798
0.105925
1.13209
0.0897087
0.125843
4.859
1.34077
0.0849375
0.875448
3.26458
0.0982134
0.0968309
0.103537
4.7576
0.1708
3.10632
0.176465
3.95876
0.960831
0.619519
1.30064
0.205766
3.35731
0.154256
0.439683
4.47298
3.32984
4.00201
1.56494
0.164699
0.0300167
3.41916
2.03699
4.2305
4.16309
0.166298
0.138967
3.6416
3.92558
0.148992
0.249834
0.167997
4.15608
0.12768
0.815575
0.13074
1.09341
0.167056
0.196259
0.149601
4.10436
0.1124
0.0955511
1.54401
3.62715
0.133314
0.0878801
2.07331
1.28457
0.144553
0.264561
0.104321
0.106409
0.0909777
3.95112
1.11583
0.161583
0.806593
0.130388
1.49996
0.242652
0.110069
4.07893
0.1532
0.122917
0.123893
0.00474827
1.19142
0.129706
0.190897
3.75041
0.145437
1.13454
0.123381
0.18566
0.1204
0.101909
3.15079
3.35787
0.118499
0.063881
1.3045
3.47368
2.88389
2.17716
1.04557
0.133714
3.30074
3.26691
2.76954
0.126829
4.00731
0.0402581
0.100138
0.195772
3.8115
0.139819
3.8692
0.174093
1.53433
3.04233
3.99565
1.20429
0.0909591
0.0988812
0.131116
0.139625
0.112706
4.18622
0.182953
4.31449
1.10831
1.08106
2.15604
0.132889
1.08523
2.54241
3.98841
1.03218
0.126729
0.342845
4.09509
1.29439
0.103441
0.128918
4.249
0.18953
3.02846
0.100764
0.156052
0.137038
3.51543
0.189894
0.00128162
1.39993
0.358108
1.44433
0.110413
3.47019
0.140564
3.63807
0.141931
0.137419
1.26358
3.1544
3.15573
0.168678
0.18143
0.134794
0.141015
0.256703
0.366246
0.201154
3.99411
0.00380382
0.28375
0.122408
0.143043
0.159746
0.0874416
0.248574
0.121317
1.52047
0.190608
0.175135
0.0227993
0.121254
0.400301
0.133261
1.58287
3.51873
1.27752
1.36907
4.44169
0.405608
3.70669
0.10753
0.115917
3.9822
0.142987
0.157119
3.52884
0.147867
3.47453
3.16177
0.148418
0.350141
1.06043
0.167078
0.762744
3.39356
1.33225
3.96942
0.0964154
0.108371
3.81218
0.131263
2.58864
0.427639
0.0963857
2.76103
0.479795
0.0894094
1.22595
0.230675
0.0917272
1.03247
0.980923
0.70564
1.6494
0.0135132
0.180557
2.46958
0.126251
0.167425
0.210911
3.30291
0.173449
1.47545
0.16499
0.096747
4.02144
0.136613
0.126434
1.46517
0.15346
0.121375
3.83562
0.152704
1.53466
0.141546
0.604101
1.06515
1.29
0.161294
0.161024
1.39602
0.145232
0.150195
1.19347
0.148342
0.221227
0.0881472
3.78867
4.22775
3.18617
0.090959
0.804232
0.120074
4.00094
1.09001
5.5721
1.3157
0.216873
3.98084
4.33334
0.128243
0.204508
0.467966
0.179591
4.4787
3.81497
0.0976667
1.50058
0.156388
3.40545
3.1396
0.169572
2.07076
2.78734
0.165808
3.4522
0.0789171
3.68979
0.141313
0.244269
0.153748
3.0739
1.56203
1.60478
0.114469
3.18802
3.17701
3.74121
0.106439
0.138795
1.05618
3.3156
0.12597
1.64395
0.157159
1.19529
2.72058
0.103942
0.789562
0.112172
0.14452
1.30098
4.15916
0.226226
1.49855
0.115452
0.142074
3.43401
3.3448
3.3591
0.270502
1.34474
1.12102
0.827679
0.226631
0.121503
0.105819
4.23215
0.159978
0.164274
2.06146
0.220307
0.205035
0.15835
0.180891
1.4834
0.14937
0.115751
1.22085
3.20596
0.129296
0.138086
3.76182
0.498122
0.0468109
0.283138
1.01385
0.129595
0.155645
0.121967
4.13614
0.143327
0.154014
1.64275
0.106417
0.201196
0.377484
0.824109
0.130172
0.182643
3.85072
0.195743
0.0940073
0.143187
0.136637
0.251616
0.184975
3.85879
3.60803
0.459371
4.1599
0.160013
0.0855421
0.0930414
0.077474
0.189062
0.0969942
0.861534
0.258653
0.109129
0.177326
1.39068
0.763177
0.223007
0.875106
0.163318
0.154081
0.10968
0.385672
1.46151
3.84596
1.48864
1.31525
0.104151
0.107251
0.0571449
0.222091
0.117906
3.36871
0.103192
0.852071
0.134194
3.42238
5.20584
2.56434
0.0119231
0.0940867
0.103066
4.33337
3.7581
0.746804
0.818125
0.180762
0.105702
0.133426
3.90041
0.0299772
0.136795
1.65161
0.121255
0.179183
0.117402
0.0959591
0.825784
0.29412
0.123399
0.126763
0.25584
0.130543
3.08891
3.62593
0.145216
1.43223
0.17534
2.63877
0.109127
0.141481
0.13061
0.127011
2.12752
0.149528
0.150718
0.111397
1.26773
0.13123
0.213751
0.189356
3.92925
1.43208
0.550728
4.01005
1.50838
3.38551
2.79191
0.102765
0.0943634
0.0945162
0.00276589
0.160826
0.960725
0.180703
0.120348
1.10475
0.114379
0.11595
0.585711
0.137465
0.131296
0.102537
0.548088
1.16612
4.28757
0.105156
3.42593
1.28044
3.21526
0.862185
4.31829
3.29746
4.57415
0.0956498
0.168539
0.0180535
1.0574
0.151792
2.06689
3.26998
0.133845
1.26776
1.31572
0.123663
0.102823
0.138643
3.48918
3.74619
0.119632
1.37123
1.51772
0.886167
3.61524
0.000160394
0.128918
0.580299
0.0242852
3.14684
1.49303
2.90657
1.51011
0.0886077
1.51575
0.0969766
0.007892
0.731461
0.192855
0.269518
0.136949
0.154096
1.91012
0.168624
0.107697
0.151904
0.158378
1.93915
0.20233
3.92368
1.49861
0.161936
3.32517
0.190025
1.1084
0.156234
0.124739
0.173336
0.939522
0.640471
0.0278723
0.182526
3.19712
3.77
1.1936
0.146798
1.0321
1.94866
1.43901
4.27722
1.62367
0.233267
0.152468
3.07815
0.0839754
0.0983084
0.343086
4.04884
3.38019
0.142113
0.125971
3.78556
0.0908537
3.61421
3.63279
0.175288
0.140038
3.18461
3.14926
3.10999
0.129779
0.132401
0.0718343
1.00776
1.51918
0.140734
0.0920961
0.134124
1.1845
0.232953
0.820901
3.30945
0.105001
0.140582
4.91585
0.107053
0.902088
0.0729586
0.91474
0.149769
0.10721
1.98823
0.189621
0.136952
0.121919
0.520824
0.904597
4.06537
0.106396
0.132012
0.149601
1.49178
1.10307
3.65476
0.0970986
1.5486
1.50704
0.00222933
0.10145
0.160242
2.39043
0.166019
1.1635
0.184299
0.00467814
1.35965
0.16468
5.75167
4.21014
0.987191
3.91387
3.91751
3.47884
0.107561
4.09546
1.49639
0.164571
1.31901
0.122771
0.161283
1.0815
0.148378
0.280287
0.878312
3.97266
0.164701
0.139449
4.10806
0.205995
0.16937
1.39327
3.23605
2.17926
0.126809
0.391713
4.01056
2.8774
1.99502
0.879357
3.72242
0.267409
0.0930444
0.884908
3.28293
0.15144
2.81233
0.215048
3.59975
0.189184
1.10037
3.03433
0.0203522
0.147145
0.128225
3.56424
2.04742
3.50938
3.09013
0.226409
0.555162
0.761875
0.301807
3.21977
0.788707
0.127034
0.160244
0.149176
0.10181
1.05939
2.69011
0.0135341
3.5451
0.184006
1.34877
0.115728
0.119091
0.0995851
3.84147
3.46518
0.472646
0.897183
0.142956
0.120446
1.54544
0.119433
2.12466
1.77883
4.21854
0.0840107
1.56479
1.55364
0.172465
0.21465
0.160796
4.25409
0.177111
0.284768
1.3495
1.42969
0.109202
0.305746
0.126391
0.185855
0.118867
0.124353
0.837113
0.111515
0.459206
3.43243
1.09808
3.89128
0.159878
0.464569
0.912043
0.14305
3.03731
0.148327
0.19644
3.62658
0.182009
0.840704
0.254522
0.0851742
3.18902
0.116753
1.91688
0.0925638
1.31919
1.40088
4.0171
0.105965
1.24525
0.144505
1.77005
0.175866
3.72527
1.38404
0.845421
2.80826
0.207862
3.22581
0.14481
3.15557
0.178023
0.0957545
0.176522
1.14048
1.50794
0.0942656
0.125619
1.09824
0.129257
0.133096
0.105138
0.0873651
0.173299
4.00007
0.201255
0.156109
1.49905
0.508919
3.46428
0.0890584
0.146024
0.13902
2.26335
0.219372
0.161137
4.37884
2.52801
1.00237
0.134646
0.312595
0.984302
3.60201
0.128204
0.119504
0.202421
0.214637
0.151537
2.79898
3.98352
5.67217
0.894081
0.139681
1.56122
4.28745
0.433554
1.07866
0.176057
3.25807
2.68164
3.32603
0.140359
0.144793
0.373702
3.49298
0.229259
3.63295
0.260311
1.16551
3.40033
0.133606
0.2152
0.205962
0.110082
0.104898
1.00961
3.21783
0.103532
4.1122
0.149563
0.142281
0.109827
0.114775
0.846965
0.18966
1.11878
1.12556
0.12898
0.198405
3.12516
2.49763
0.127242
0.169002
0.189534
3.09536
5.35696
0.410635
3.93843
0.130412
0.10984
0.940533
0.13619
0.473094
1.55105
0.132887
0.101084
0.0303417
0.213882
1.2844
3.9079
1.22857
0.112135
0.391292
0.114127
4.22479
4.23818
0.135518
0.108897
1.28037
0.157288
0.119902
2.90943
3.13388
0.635172
0.114218
0.130457
0.670289
3.33492
0.191512
0.177763
3.17501
3.5002
0.00542293
0.136485
0.174583
0.186016
1.65402
0.873033
0.14572
1.41086
0.145933
0.159304
0.120672
0.838501
0.136199
3.38422
3.34576
4.17557
3.13254
2.1576
6.10461
0.145266
4.05046
0.887923
0.111828
0.92181
0.019109
0.352251
0.141199
0.132029
0.0987914
3.79402
0.0988009
0.478105
1.54453
0.19819
0.421372
1.69635
3.30939
0.0773135
3.53814
2.79063
0.197616
0.125221
0.363704
1.02344
0.320361
1.23923
3.90597
0.163801
0.103153
0.155801
1.28487
4.2169
0.184086
0.226379
0.0900506
0.126005
0.16138
0.5512
0.109159
0.226738
0.297538
3.27495
0.123413
0.484423
2.94437
0.164179
0.404172
0.405884
4.29258
0.50771
2.19639
0.927683
0.158756
5.08972
3.35923
0.126008
0.939821
1.49842
0.130326
0.17238
0.168922
1.487
0.144946
1.20424
0.121566
1.54703
3.70618
1.03522
3.24114
0.882522
0.154986
1.11201
1.21616
0.213781
0.202654
0.244238
2.68645
0.169417
0.557335
0.138187
0.215856
0.875986
0.172572
0.108252
0.126529
3.59298
1.08457
0.11281
0.21101
0.106122
0.140189
0.154492
3.09314
0.199427
1.51883
4.03173
0.986872
0.00906093
1.24631
3.04404
1.09812
3.36153
0.261127
1.80503
3.98332
3.83476
0.0541925
3.27201
0.127338
3.24637
4.74053
0.10751
1.26924
1.44008
4.0098
1.31596
0.438535
0.147172
1.3331
3.66104
3.15217
4.00851
0.21676
1.09569
0.114807
3.40202
0.497651
0.104099
0.157031
1.06861
0.108731
0.267498
1.09428
0.134031
3.10172
0.0986063
0.147549
2.19973
1.31078
0.229801
0.858991
1.51071
0.223143
0.924275
3.56131
0.129889
0.544674
0.152972
3.55303
1.64463
0.0921135
4.30285
0.122229
0.826199
3.50067
0.154228
0.131444
0.803496
1.02084
1.34223
0.123119
3.98367
0.197426
0.912981
4.09821
0.561036
0.209677
2.1405
0.188405
0.148003
0.0166073
1.33841
3.76195
0.140623
4.18529
0.45462
0.157476
1.47007
0.172465
0.152947
1.42948
0.186851
0.131267
2.85676
0.109254
0.156159
0.19563
3.65265
3.45788
0.274236
0.11783
0.125705
1.45526
4.01235
0.133004
0.123829
0.418555
4.20194
0.131464
1.41287
1.4406
0.0977281
0.865987
4.07815
0.128665
0.303427
0.125151
3.87799
0.118892
0.147618
0.240907
0.60893
3.60823
0.0901635
4.032
0.117631
2.70833
0.14454
1.38028
0.599157
1.12365
3.23301
0.212484
0.889798
0.218897
0.194825
0.196217
3.328
3.44162
0.127297
0.133388
1.98737
0.197481
0.165894
0.102309
4.20209
3.83642
1.05807
4.09362
0.209689
0.0974808
1.48444
0.453673
3.20184
0.0866319
0.17366
0.101549
0.171548
0.137319
0.155413
0.141652
0.508321
4.39852
3.43782
0.111667
0.395737
0.975264
3.56736
0.148074
4.26261
3.31071
3.87422
0.175621
1.06663
0.119735
0.206912
0.158391
0.170727
0.1017
3.01956
4.33069
0.17764
0.444582
1.09223
0.517439
3.50554
3.99893
0.154854
0.113275
0.178381
0.397259
1.3552
0.115474
3.30568
1.0043
0.132639
0.23974
0.208921
0.698293
0.216934
0.131915
0.123817
0.119466
0.253093
0.937746
0.192893
4.12923
0.180493
0.162033
1.00451
0.22191
0.139054
3.91946
3.55498
0.161626
3.55702
0.106769
1.25396
0.181175
0.220638
0.127813
0.0996622
3.39729
0.200682
0.19998
3.70926
3.01781
0.112978
0.115896
0.130745
0.205621
1.48339
0.00849815
0.152275
4.23122
0.142754
0.106741
0.18596
3.99967
0.152208
3.51956
3.30924
0.232203
3.93333
0.197688
0.0867862
4.35376
3.07132
0.10386
0.00371482
0.842748
0.235194
0.227968
0.118553
1.49282
2.83744
0.17352
0.113927
3.47828
0.135143
3.2704
1.9593
0.157104
0.95755
4.02051
0.104502
1.33758
0.126213
0.183309
0.210634
0.138029
3.75967
3.30241
0.152468
0.111959
3.83372
0.16759
0.217352
0.312212
1.16102
1.5297
0.0956968
0.127919
0.110833
0.143567
0.0931879
0.000705344
0.202275
0.206287
3.45302
0.865923
0.133959
2.12843
0.229179
1.1437
4.01532
1.14858
3.73933
1.44783
0.00665981
0.87833
0.212169
0.142891
3.15839
0.174805
4.82026
3.40473
0.960636
0.168611
3.6136
0.0947862
3.71708
0.154899
0.17563
3.72597
0.514138
1.14845
0.165577
0.15734
0.112025
0.187395
1.49155
1.71141
0.133472
3.12997
0.620084
3.45839
0.128798
4.33697
0.160691
0.144643
0.562284
0.117021
0.827656
3.82788
0.961847
0.100948
3.50425
1.40451
3.2379
1.09429
0.780252
0.0631581
0.892715
3.79844
0.122341
0.144858
0.144231
3.99918
0.197063
0.150598
1.37105
0.928476
0.383623
4.25498
1.23033
0.349599
0.405287
1.35806
0.231588
0.934105
0.129338
0.127921
0.136236
3.63128
0.170453
1.34566
3.50685
0.0864201
1.07737
3.15798
0.129718
2.61422
0.129742
0.913541
0.211232
0.0912623
0.18447
0.114057
0.0884295
0.212829
0.20061
0.178764
0.31944
3.42136
0.94497
0.157015
0.906112
0.122048
0.146587
0.142615
0.145095
0.180604
1.55833
0.122113
2.14861
3.60799
1.54378
1.19611
2.73029
0.195287
3.36615
0.1379
1.63827
0.163027
0.149131
0.286878
2.80578
0.231796
0.135492
0.120844
0.358124
0.241983
1.52657
0.805077
1.83127
3.25783
0.142482
0.11911
4.6632
0.141551
0.166903
0.097247
0.278884
0.116306
0.108745
0.180136
0.140343
1.22785
3.65971
2.12075
0.244636
0.118125
1.0692
3.86422
3.28798
0.0974879
0.15519
1.07443
0.127578
0.093867
0.225093
3.60746
0.941559
0.122081
0.145286
0.182436
0.101378
3.50716
0.181378
0.15544
0.160714
0.170701
3.35415
0.119351
1.54902
1.19237
0.203057
0.155196
0.117913
3.66805
0.546756
0.137517
4.10847
1.01223
0.942114
0.103003
0.150503
1.34993
4.34459
4.232
0.0913713
1.0736
0.12062
0.106142
3.44452
3.29515
0.0872973
0.0025448
1.1808
1.49108
0.120106
0.089851
3.47718
0.13388
2.51767
0.299875
0.201549
4.66304
0.116991
0.130836
0.213211
3.19582
0.124349
0.0977101
0.133877
0.154877
0.38537
0.213753
0.809703
0.94151
0.892143
0.154142
0.140552
0.118874
0.208806
0.163433
0.142109
0.922846
0.176525
0.188714
3.06512
3.89339
0.134275
0.105983
0.209664
3.55977
0.150752
1.10328
0.0816725
0.110833
0.0256596
0.164835
0.121123
4.00137
0.167307
0.107425
2.52278
0.124146
1.41472
0.151449
0.129027
3.96441
3.86196
0.0919984
3.4227
0.125284
1.19413
1.84568e-05
3.67747
0.125178
2.00259
0.14411
3.6735
0.734266
1.37757
2.95965
3.86424
0.164656
4.06418
0.102557
0.116047
0.0716495
3.68326
0.395042
0.101619
0.982054
2.48227
3.264
0.219534
4.25459
0.150774
0.207881
0.125717
0.674022
0.306411
1.61125
0.143245
0.190602
0.115792
0.150182
0.211097
3.59134
0.129349
0.110559
4.00171
0.787101
0.0901647
0.281926
3.81851
0.148837
0.138844
3.91574
0.223126
3.81794
1.36051
0.136581
0.591535
1.0587
0.0266736
0.204628
0.126504
0.0940949
0.217824
0.237966
3.71207
0.0973027
1.36992
0.371242
0.164646
3.62533
1.84228
0.183921
0.14302
0.0864298
0.126811
0.0910656
1.82924
3.00003
0.129069
0.15171
0.1637
1.3138
0.218781
1.02868
0.179984
0.147568
0.163339
0.183529
1.97963
0.211888
0.92722
1.27367
0.00103054
1.44435
0.14427
1.0827
0.704075
0.143835
0.144879
0.239709
0.127376
0.194228
1.35717
3.88168
4.02641
3.35033
1.00568
0.019087
0.0905693
1.42007
0.101383
1.45846
4.0631
0.117521
2.58645
1.07904
2.45267
0.216982
0.100295
0.147174
0.12034
3.55717
0.128289
3.60657
0.917721
0.680708
0.109633
3.0835
1.30501
0.158144
0.131676
3.37169
0.192803
0.150211
0.913184
1.05868
0.129338
0.112733
2.82001
0.130587
1.24229
0.159059
0.157174
0.212105
3.29486
0.020873
0.0355277
0.127755
0.125523
0.365965
0.127247
3.84695
0.482832
0.0384997
0.16524
0.106994
1.01897
0.309211
0.0859077
1.5529
3.74196
0.18305
1.13104
0.138122
3.3968
0.917537
0.314373
0.316914
0.151677
0.117051
0.103732
0.932855
0.759961
0.108053
0.345277
1.51243
3.63889
2.12292
1.18601
0.324139
0.129366
2.92674
0.204702
0.13453
0.11255
0.218951
1.13437
4.26355
0.202085
1.06294
0.140317
0.958602
3.18078
3.74681
3.96458
3.68064
4.35682
0.269078
0.349712
0.178793
0.874928
1.53085
0.119754
0.864965
0.0980586
3.11794
0.13681
1.40471
3.97439
3.85406
0.165281
1.29901
0.547023
4.15019
3.76499
0.0865367
0.108643
0.13951
0.113108
0.132884
1.45873
0.215842
0.00690463
1.22751
0.103685