/*--------------------------------*- C++ -*----------------------------------*\
  =========                 |
  \\      /  F ield         | OpenFOAM: The Open Source CFD Toolbox
   \\    /   O peration     | Website:  https://openfoam.org
    \\  /    A nd           | Version:  10
     \\/     M anipulation  |
\*---------------------------------------------------------------------------*/
FoamFile
{
    format      ascii;
    class       volScalarField;
    location    "1750";
    object      nut;
}
// * * * * * * * * * * * * * * * * * * * * * * * * * * * * * * * * * * * * * //

dimensions      [0 2 -1 0 0 0 0];

internalField   nonuniform List<scalar> 
10435
(
0.521844
0.490565
0.580133
0.518851
0.527219
0.58947
0.577069
0.630609
0.747363
0.600978
0.506435
0.541498
0.611142
0.669636
0.623506
0.580238
0.720446
0.627557
0.814815
0.524359
0.601426
0.545202
0.569246
0.703183
0.581222
1.13357
1.12424
0.593451
1.04556
0.613673
0.548903
0.510788
0.659612
1.02642
0.630307
0.437344
0.593241
1.1271
1.08171
0.780408
0.619168
0.576127
0.696968
0.508391
0.565827
0.73963
0.604158
0.843899
0.771841
0.574872
0.619453
0.549318
1.04787
1.09197
1.09672
1.01772
0.613159
1.09671
0.847795
0.669526
1.06382
0.477005
1.07061
0.538389
0.56531
0.582457
0.907774
0.966615
0.609942
0.681352
1.0995
1.15358
0.583674
0.572566
0.584847
0.537751
0.650255
0.580026
0.690632
0.619164
0.592295
0.55482
1.01224
1.08396
0.60532
0.427343
0.459509
0.492714
0.465645
0.466599
0.500036
0.504179
0.551467
0.456125
0.475739
0.414057
0.51055
0.534609
0.789226
0.510986
0.49826
0.545613
0.455828
0.484677
0.555389
0.515312
0.552437
0.581683
0.62362
0.594537
0.566651
0.537728
0.562826
0.576323
0.508
0.539655
0.514882
0.440508
0.492133
0.523008
0.519672
0.442806
0.455553
0.357089
0.523224
1.09234
0.517359
0.373515
0.517699
1.22811
0.344814
0.520571
0.599158
0.652221
1.15669
0.875222
0.413833
0.526525
0.48175
0.533456
0.528543
0.553043
0.956569
0.53064
0.551275
0.490633
0.381889
0.555377
0.681993
0.537213
0.904028
0.571767
0.491738
0.536479
0.570892
1.00481
0.526318
0.469811
0.585637
0.512444
0.546458
0.691832
0.503895
0.571387
0.558228
0.519555
0.672604
0.540575
0.585922
0.526872
0.571601
0.671187
1.03692
0.469611
0.554013
0.504001
0.459073
0.805887
0.559989
1.04722
0.501396
0.575732
0.535523
1.05936
0.552342
0.730212
0.570925
0.584174
0.532588
0.536754
0.526435
0.97764
1.21157
0.444591
0.530887
0.594831
0.623452
0.419962
0.812658
0.582938
0.509689
1.05781
0.60159
1.06365
0.590318
0.512027
0.499032
0.534115
1.04461
0.559935
0.868356
0.571304
0.526006
0.565034
1.08507
0.622047
0.541658
0.943276
1.14308
0.737494
1.0533
0.804265
0.970287
0.410494
1.08826
0.609698
1.10589
0.423304
0.544885
0.453178
0.878352
0.639135
1.12134
0.574945
1.22229
0.771959
0.628416
1.1324
0.621271
0.558111
0.502522
1.0658
0.889132
1.04715
0.508083
0.710096
0.39327
0.605289
0.870938
0.490223
0.963039
0.500368
0.612549
0.567277
0.593787
0.528786
0.826345
0.586837
0.937424
0.979648
0.582146
0.558506
1.10394
0.610162
0.529032
0.858825
0.496521
0.557895
0.996888
0.5142
0.579391
0.635702
0.605935
0.586622
1.17318
0.527892
1.18138
0.521505
0.585536
0.656851
0.603594
0.713156
0.580617
0.449589
0.492101
0.918677
0.541414
1.08705
1.07447
1.03844
0.383382
0.516493
1.02732
0.62046
1.09473
1.09068
0.544226
0.523092
0.518451
0.563544
0.899343
0.611099
0.583492
0.925502
0.515395
0.572897
0.739899
0.577737
0.571573
1.06381
0.554975
1.07963
0.470406
0.548457
0.702849
1.05607
1.02704
0.538993
0.93919
0.543679
0.564565
1.05914
0.490204
0.943032
0.682468
0.599461
1.21459
0.588088
0.919102
1.1554
0.713368
1.00199
1.05326
0.579847
0.550719
1.05089
1.01987
0.920617
1.02099
1.00353
1.23082
1.08723
1.03202
1.0439
1.01066
0.993899
1.01578
1.24808
0.90862
0.713738
1.03958
0.591402
1.11016
0.594235
0.710384
0.790299
0.610869
0.565625
1.07326
1.05476
0.95927
1.11512
0.988197
0.957249
1.05724
1.23132
1.0075
0.55761
1.20173
0.73906
1.10573
1.23985
0.612964
0.818455
0.877229
1.14489
1.10364
1.18363
1.06566
1.15968
1.35777
1.08961
0.669242
0.990017
0.621118
0.736589
0.601332
0.607847
0.762158
0.587567
0.663868
0.400211
0.768782
1.0581
1.06871
0.583004
1.07245
0.613841
1.32234
1.05119
1.23688
1.01301
0.984718
0.576608
1.14922
0.642668
0.581294
0.823144
1.1881
1.26215
0.814453
1.2978
1.20056
1.03236
0.999622
0.937835
1.03814
0.58496
1.09019
1.16333
1.03925
0.983649
0.618131
0.776684
0.841657
0.842007
1.0451
5.5048
5.52549
5.52172
5.51021
5.50576
5.52505
5.59359
5.74959
6.05457
4.90812
4.92598
4.93193
4.93242
4.93841
4.96408
5.02969
5.16355
5.40306
4.3289
4.34377
4.3537
4.36046
4.37175
4.39898
4.45806
4.57022
4.76142
3.77542
3.78759
3.79839
3.80768
3.82077
3.84653
3.89736
3.98929
4.14111
3.25846
3.26827
3.27832
3.28789
3.30065
3.32327
3.36529
3.43868
3.55779
2.7887
2.79648
2.80507
2.81373
2.82507
2.844
2.87748
2.93407
3.02397
2.37482
2.38108
2.38795
2.39519
2.40466
2.42
2.44605
2.48851
2.55355
2.02254
2.02726
2.0322
2.03779
2.04544
2.05778
2.07808
2.10992
2.1566
1.73341
1.73584
1.73857
1.74247
1.74855
1.75863
1.77484
1.79943
1.83436
1.50351
1.50297
1.5035
1.50591
1.5108
1.51927
1.53265
1.55233
1.5796
1.32435
1.32139
1.3204
1.32184
1.32593
1.33329
1.34465
1.36078
1.38232
1.18584
1.18275
1.1815
1.18263
1.18629
1.19282
1.20262
1.21607
1.23343
1.08114
1.0799
1.07942
1.08066
1.084
1.08976
1.09819
1.10944
1.12353
1.00681
1.00738
1.00771
1.00895
1.01176
1.01654
1.02353
1.03276
1.04413
0.959398
0.960307
0.960601
0.961284
0.963114
0.96655
0.971822
0.978949
0.987793
0.934022
0.933601
0.932818
0.932235
0.932537
0.934188
0.937411
0.942177
0.948228
0.924456
0.92215
0.919597
0.917164
0.91545
0.91491
0.915771
0.917981
0.921171
0.925417
0.921521
0.916955
0.912298
0.90818
0.905094
0.903309
0.902819
0.903318
0.933631
0.928498
0.921867
0.914734
0.907889
0.901922
0.897181
0.893742
0.891402
0.947225
0.940983
0.932188
0.922333
0.912446
0.903257
0.895221
0.888507
0.882952
0.96519
0.957685
0.946445
0.933538
0.920262
0.907493
0.895804
0.885512
0.876671
0.987183
0.977858
0.963611
0.947196
0.930135
0.913403
0.897654
0.883341
0.87074
1.01361
1.00111
0.982885
0.962372
0.941115
0.920062
0.89985
0.880994
0.863977
1.04593
1.02703
1.00338
0.978174
0.952393
0.926788
0.901817
0.877906
0.855709
1.08721
1.05441
1.02386
0.993735
0.963329
0.93322
0.903473
0.87405
0.845555
3.52155
3.606
3.69475
3.78728
3.8833
3.98228
4.08382
4.18729
4.29232
4.39827
4.5047
4.61119
4.71718
4.82239
4.92619
5.02821
5.12796
5.22493
5.31858
5.40845
5.49385
5.57419
5.64881
5.71699
5.77796
5.83105
5.87634
5.9138
5.94327
5.96436
5.978
5.98478
5.98525
5.98036
5.97117
5.95895
5.94509
5.93104
5.91839
5.90877
5.90376
5.90497
5.91356
5.93045
5.95606
5.99008
6.03135
6.07803
6.12698
6.17452
6.21613
6.24697
6.26266
6.25896
6.23311
6.1833
6.10949
6.01268
5.89641
3.49343
3.57885
3.66807
3.76081
3.85672
3.95542
4.0565
4.15951
4.26399
4.36949
4.47555
4.58171
4.68753
4.79257
4.89636
4.99844
5.09832
5.1955
5.28942
5.37953
5.46524
5.54593
5.62099
5.6898
5.7517
5.80607
5.85246
5.89063
5.92059
5.94264
5.95731
5.96511
5.96667
5.9628
5.95452
5.943
5.9296
5.91579
5.90316
5.89337
5.88802
5.88866
5.89659
5.91275
5.93758
5.97085
6.01151
6.05759
6.10619
6.15354
6.19525
6.22665
6.24311
6.24052
6.21574
6.16693
6.09371
5.99703
5.87987
3.44785
3.53075
3.61755
3.70801
3.80181
3.89858
3.99793
4.09941
4.2026
4.30705
4.41231
4.51792
4.62343
4.7284
4.83234
4.93478
5.03521
5.13309
5.22787
5.31895
5.40573
5.48758
5.56383
5.63385
5.69698
5.75265
5.80045
5.84015
5.87171
5.89533
5.9114
5.92045
5.92313
5.92025
5.91278
5.90188
5.88886
5.87519
5.86246
5.85231
5.84639
5.84625
5.85325
5.86841
5.89225
5.92464
5.96464
6.0104
6.05915
6.10722
6.15031
6.18374
6.2029
6.20364
6.18276
6.13824
6.06955
5.97746
5.86481
3.37707
3.45705
3.54104
3.6288
3.72007
3.81452
3.91178
4.01144
4.11309
4.21631
4.32067
4.4257
4.53096
4.63597
4.74026
4.84331
4.94459
5.04354
5.13957
5.23205
5.32035
5.40379
5.4817
5.55342
5.61831
5.67583
5.72554
5.7672
5.80074
5.82629
5.84419
5.85491
5.85908
5.85751
5.85114
5.84112
5.82875
5.81548
5.80289
5.79265
5.78642
5.78581
5.79223
5.80678
5.83008
5.8621
5.90203
5.94815
5.99781
6.04746
6.09284
6.12931
6.15218
6.15723
6.14106
6.1015
6.03779
5.95053
5.84241
3.28572
3.36238
3.4432
3.52799
3.61651
3.70848
3.80355
3.90136
4.00153
4.10363
4.20725
4.31192
4.41719
4.52257
4.62755
4.7316
4.83415
4.93461
5.03235
5.1267
5.21699
5.30253
5.38261
5.45657
5.52375
5.58364
5.63581
5.67998
5.71606
5.74411
5.76441
5.77738
5.78363
5.78393
5.77923
5.77064
5.75947
5.74715
5.7353
5.7256
5.71974
5.71941
5.72607
5.74092
5.76468
5.79745
5.83854
5.88633
5.93827
5.99085
6.03985
6.08054
6.10816
6.11831
6.10742
6.07312
6.01448
5.93193
5.82806
3.17671
3.24967
3.32702
3.40863
3.49428
3.58374
3.67669
3.77279
3.87167
3.97292
4.07612
4.18081
4.28651
4.39271
4.49887
4.60443
4.70879
4.81131
4.91131
5.0081
5.10098
5.18921
5.27209
5.34891
5.41904
5.48195
5.53721
5.58452
5.62376
5.65496
5.67834
5.69429
5.70339
5.70638
5.7042
5.69794
5.68889
5.67852
5.66845
5.66039
5.65612
5.65735
5.66566
5.68237
5.7083
5.74368
5.78793
5.83951
5.89591
5.95363
6.00832
6.05514
6.0891
6.10558
6.10078
6.07211
6.01848
5.9402
5.83985
3.05436
3.12328
3.19692
3.27521
3.35797
3.44499
3.53599
3.63063
3.72856
3.82938
3.93264
4.03787
4.14456
4.25218
4.36015
4.46786
4.57469
4.67993
4.78289
4.88282
4.979
5.07066
5.15708
5.23755
5.31141
5.37813
5.43728
5.48856
5.53182
5.56706
5.59447
5.61441
5.62746
5.63433
5.63594
5.6334
5.62799
5.62117
5.61462
5.61009
5.60941
5.61441
5.62679
5.648
5.67902
5.72018
5.77101
5.83
5.89458
5.9611
6.02501
6.08114
6.12411
6.14892
6.15144
6.12882
6.07981
6.00475
5.90627
2.92324
2.98775
3.05747
3.13235
3.21227
3.29704
3.38637
3.47996
3.57744
3.6784
3.78236
3.88882
3.99721
4.10697
4.21748
4.32811
4.43819
4.54697
4.6537
4.75761
4.85793
4.95389
5.04476
5.12983
5.20839
5.27993
5.34402
5.40039
5.44883
5.48935
5.52217
5.5476
5.56622
5.57876
5.58609
5.58942
5.59003
5.58932
5.58908
5.59113
5.59741
5.60986
5.63037
5.66062
5.70178
5.75431
5.81774
5.89046
5.9697
6.05154
6.13097
6.20218
6.25906
6.29585
6.3078
6.29169
6.24619
6.17178
6.07155
2.79093
2.85064
2.91622
2.98772
3.06498
3.1478
3.23586
3.32879
3.42635
3.52824
3.6337
3.7422
3.8531
3.96575
4.0796
4.19389
4.30803
4.42126
4.53262
4.64137
4.74677
4.84802
4.94447
5.03536
5.11981
5.19745
5.26784
5.33078
5.38605
5.43375
5.47416
5.50754
5.53427
5.5552
5.5712
5.58395
5.5947
5.60419
5.61477
5.62841
5.64732
5.67364
5.70932
5.75672
5.81746
5.89182
5.97927
6.07708
6.18215
6.29092
6.39826
6.49694
6.5787
6.636
6.66263
6.65397
6.60838
6.52723
6.41503
1.18345
1.14718
1.12062
1.09765
1.07615
1.05572
1.0369
1.02086
1.00922
1.00412
1.00822
1.02423
1.05465
1.10169
1.16765
1.25566
1.36856
1.50823
1.67551
1.87054
2.09326
2.34382
2.62289
2.93224
3.27554
1.12418
1.12095
1.10769
1.09047
1.07154
1.05223
1.03383
1.01782
1.00603
1.00066
1.00424
1.0194
1.0488
1.09511
1.16106
1.24943
1.36266
1.50243
1.66962
1.86443
2.08681
2.33691
2.6156
2.92495
3.26909
1.10275
1.10265
1.09404
1.08017
1.06324
1.04496
1.02695
1.01093
0.998884
0.993026
0.995838
1.00999
1.0383
1.0837
1.14907
1.23711
1.35
1.48919
1.65537
1.84863
2.06877
2.31582
2.59041
2.89426
3.23058
1.08967
1.08876
1.08134
1.06892
1.0531
1.03546
1.01765
1.0015
0.989017
0.982458
0.98431
0.997294
1.02434
1.0685
1.13274
1.21968
1.33131
1.46885
1.63273
1.82281
2.03869
2.28019
2.54772
2.84268
3.16784
1.0783
1.07661
1.06945
1.05764
1.04234
1.02495
1.00708
0.99055
0.977399
0.9699
0.970569
0.982177
1.00772
1.05031
1.11291
1.19807
1.3076
1.44248
1.60285
1.78829
1.99816
2.23206
2.49024
2.77394
3.08571
1.06697
1.06496
1.05803
1.04661
1.03157
1.01417
0.99598
0.978824
0.964759
0.956081
0.955346
0.965369
0.989185
1.02991
1.09048
1.17332
1.28008
1.41146
1.5673
1.74689
1.94931
2.17394
2.42086
2.69117
2.98729
1.05502
1.05339
1.04713
1.03621
1.02134
1.00375
0.985009
0.96699
0.95178
0.941704
0.939365
0.94762
0.969522
1.00817
1.06643
1.14661
1.25015
1.37748
1.52813
1.70104
1.89497
2.10903
2.34308
2.59815
2.87665
1.0414
1.04189
1.03713
1.027
1.01227
0.994308
0.974798
0.955706
0.939167
0.927517
0.923418
0.929775
0.949644
0.986097
1.04194
1.11932
1.21947
1.34256
1.48778
1.65369
1.83867
2.04144
2.26151
2.4998
2.7586
1.02687
1.03146
1.02908
1.01985
1.0051
0.986513
0.965996
0.945691
0.927735
0.914411
0.908481
0.912892
0.930685
0.964949
1.01844
1.09314
1.19009
1.3092
1.44931
1.60858
1.785
1.97673
2.18266
2.40387
2.64121
0.613042
0.612432
0.394681
0.607087
1.05316
0.924876
3.90442
1.42169
0.381892
4.82012
0.273105
0.573243
1.01451
0.591289
3.80875
3.44827
0.318334
0.610276
6.96417
1.63999
2.89509
4.71761
0.310643
0.424543
0.628193
1.65863
0.687747
0.731581
0.529567
0.308299
4.50853
1.94768
0.548649
1.34902
0.304115
1.88606
1.50395
3.79807
1.46529
0.919331
0.411538
0.165051
3.44476
0.78025
0.657784
5.63093
0.295776
0.329003
0.473048
0.606204
0.288268
0.396335
2.47415
0.611186
3.78935
0.389213
0.599523
2.85135
0.60771
0.363184
1.91494
0.404921
1.00061
4.24518
1.52606
0.88742
1.24385
0.304015
0.967557
0.550571
0.402282
5.14532
1.05661
1.80487
0.524298
2.93126
2.27128
0.351675
0.577078
0.609111
1.4281
2.00536
1.93833
0.25459
1.35943
1.73588
1.33401
0.358002
0.542338
0.841526
0.550084
1.00253
6.27062
0.576539
0.998684
0.276113
1.59754
0.273151
0.349141
0.365384
0.781892
0.419625
0.791076
5.4004
0.615104
0.931711
0.321946
1.55775
0.176737
0.311507
4.43969
0.329142
0.34508
5.42883
2.61227
0.478529
0.466398
0.990169
1.62028
0.258513
0.0774345
0.339135
0.409138
0.607394
0.535512
3.22069
0.399727
1.94044
0.692627
0.330031
1.77296
1.85464
0.537089
1.55105
0.866377
1.25373
0.616969
0.74822
2.34779
1.54497
5.63605
1.31526
0.361179
0.100551
0.50963
3.65735
0.599669
2.58962
3.38307
0.301326
1.55716
1.12516
0.600897
4.37942
0.430534
0.255091
0.77727
0.999132
2.6901
1.90626
3.55653
0.392654
3.61479
0.278375
4.93686
0.266599
0.605015
0.643737
4.08614
0.757168
0.589028
4.4485
0.301745
0.259732
1.23901
0.915239
2.6971
0.539226
0.417484
5.57495
2.20541
1.85005
2.27372
2.69907
0.99447
0.722941
0.271169
0.172681
0.59876
3.06303
0.342051
0.364047
0.538344
1.22279
4.21676
0.58851
0.517467
4.6123
0.495603
0.568448
0.883867
4.79296
1.97455
3.03136
2.03497
3.02435
1.16237
0.772709
0.480133
1.11388
0.612235
0.48935
1.98789
2.00803
1.24952
0.393256
0.797673
1.10368
5.40531
0.852435
0.650788
0.19356
0.398847
0.423852
0.44584
0.445989
0.725133
0.322198
0.174323
1.05938
0.250735
1.98955
1.66331
0.948317
1.45082
4.11331
3.04154
0.681312
2.68098
4.55741
2.92966
1.80955
4.55803
0.900847
1.12155
1.70295
2.17218
0.775738
3.45172
3.52338
0.163525
0.941877
1.80424
0.487134
0.894325
0.641952
0.332329
2.37348
2.78536
6.77928
0.267909
0.728117
2.78077
0.44309
1.93849
0.576101
3.5952
0.586806
3.92147
0.688098
2.78278
0.536632
0.414633
0.979887
7.21167
0.584518
1.06497
0.359555
0.617521
0.362866
0.905928
1.44904
0.279393
5.62748
0.413482
2.5116
0.937953
0.547034
0.308425
0.33918
4.51743
3.76691
0.125492
0.309113
0.983979
0.401743
0.409964
1.08463
1.82393
0.391807
0.367579
3.70171
0.570931
3.06965
0.425264
4.33956
2.87968
1.57405
1.53965
2.18907
5.2243
6.01285
0.57442
0.664341
0.363599
1.07095
0.309816
1.74292
0.674918
0.989705
2.7005
2.96061
0.507457
4.55503
1.37565
0.616197
0.46869
1.62925
1.11684
2.80539
4.93602
4.15108
0.626453
4.65667
0.371437
1.76202
2.40805
2.08479
0.118283
0.274509
0.468954
0.601857
0.377726
6.05164
1.99806
0.770069
0.773788
0.913403
1.11602
0.279452
0.535902
6.12863
0.161003
2.83975
0.31346
0.418887
0.775576
0.74494
4.37083
0.283335
0.488208
0.295918
2.72913
0.450062
0.171833
1.17093
4.07581
0.323639
2.74094
0.607964
5.78967
4.31778
0.544929
0.438351
1.02597
0.46452
0.297355
5.75495
1.49897
4.05888
0.41762
4.16808
0.537905
0.773306
0.749683
0.894162
5.12519
1.66355
0.275469
0.341247
3.31282
3.14377
0.834025
0.538553
2.36821
5.87802
4.23126
0.553403
0.990616
0.529935
1.45849
3.60022
1.28473
0.622275
0.606902
0.101955
3.78294
0.817288
0.62054
2.88906
0.544062
2.69342
0.389734
2.28401
2.59451
0.254006
0.455762
0.280172
1.06331
1.0016
5.12337
1.56684
0.800191
0.784951
4.23606
0.35498
0.0937004
0.561388
1.88863
2.08794
2.97132
0.660699
0.859041
0.574564
4.38958
4.00036
4.49459
0.107257
0.993877
0.16794
2.15666
4.54419
0.320119
0.666989
0.956549
0.47519
0.705428
0.509213
0.607484
0.574552
0.440955
3.37787
3.52334
0.398134
6.02484
0.557997
0.277656
1.95976
0.504263
2.15237
3.87029
1.01438
0.543903
1.93646
0.361853
1.25177
0.678285
0.417479
2.27231
0.280489
0.808683
1.10274
0.296693
0.165283
0.648652
1.19093
0.900306
0.838972
2.66669
2.69031
1.42378
1.84696
0.132042
0.586522
0.253533
1.19765
2.28786
5.14129
0.580636
5.42549
4.12021
3.60112
0.317033
0.5439
2.66467
0.646928
4.03875
2.65277
5.45638
0.603865
3.54097
4.42642
2.55167
0.850847
2.62291
1.51348
2.9671
3.0885
3.8625
1.98622
4.67956
1.61208
1.2392
0.907575
0.622271
0.322868
0.441798
0.446824
0.419063
2.82761
6.61322
0.340258
1.62488
0.55871
1.24535
5.41148
0.356852
0.445509
2.76011
4.677
0.903876
5.5025
0.562458
0.457815
0.246732
0.630097
3.64758
0.415536
0.491954
3.70593
1.0084
0.311041
4.62238
0.333159
0.192897
0.428821
3.02584
0.620688
2.71987
0.354323
1.66842
2.0588
0.697828
0.489148
0.452944
0.317191
0.413518
6.1711
1.16801
0.469593
1.73521
1.70625
3.70508
1.09969
0.304155
5.63432
2.73911
0.610747
2.05155
0.28724
0.560094
5.39467
3.15395
0.670091
0.8984
0.347587
0.288436
0.470686
0.656502
0.293212
1.62827
2.24922
4.72622
6.55969
1.43026
0.55361
4.57796
0.890111
0.729608
4.7671
0.913228
1.37875
4.1973
4.10205
6.01386
0.60906
1.24765
0.44294
1.12728
1.97435
0.378216
0.714837
0.198445
0.537934
1.97828
0.949412
2.44413
2.08099
0.52377
3.14289
3.6648
1.65739
1.72639
4.04892
0.889237
2.6699
0.783493
0.794647
0.439794
4.55207
1.20273
2.93706
6.16776
1.26238
0.61362
0.367415
0.296026
0.726723
0.564025
0.595656
0.643001
1.00249
0.400277
3.70469
0.262029
2.69173
0.710748
0.366762
1.04052
3.78264
2.64341
0.584361
0.871266
4.4723
0.959845
1.52852
0.44841
0.637561
0.369392
4.15459
2.89688
0.288347
5.1361
0.147305
5.43057
2.31609
0.290049
6.89365
2.66274
2.75602
0.458498
0.598706
0.267302
0.0698433
1.07469
1.26708
0.444998
0.504573
0.892813
2.42613
0.60994
7.12709
1.24292
0.367781
0.160805
2.44566
1.80915
1.86243
5.76012
3.24083
0.401986
2.58838
0.458473
1.94337
3.36588
0.594937
5.62164
0.513025
0.347
2.06703
3.73904
0.955463
0.280845
1.49869
6.127
3.54452
1.37321
0.682438
2.52031
4.85548
0.608029
0.280231
1.03026
5.20179
5.414
0.350046
3.87069
1.18225
0.336193
4.04339
0.588656
0.30235
7.21567
0.818561
1.19087
0.123258
3.46068
0.887053
3.43506
1.94347
1.11404
6.7775
2.31022
0.520225
3.50802
1.54913
1.62193
1.03741
1.73945
0.4295
6.92905
0.419174
3.82936
0.53725
2.66333
0.432923
0.305374
0.566443
0.889823
3.28645
0.118902
0.261388
3.36184
0.89959
0.61345
6.25272
2.52766
0.656495
0.764993
1.59144
2.49605
0.289815
0.446484
2.28999
4.0264
4.15523
1.93654
0.434508
0.054258
3.35564
0.62455
0.159459
0.621101
0.61788
0.304001
4.22826
0.640038
4.24357
0.244814
0.139667
0.935668
0.92467
0.760637
1.78375
3.406
0.361149
3.24413
0.795313
3.67348
3.33256
0.353449
0.897519
0.371752
3.89783
4.73443
0.529214
4.37353
1.62132
1.31704
6.4255
5.78695
2.75048
1.17434
0.180741
5.45581
0.283142
0.453093
2.86181
2.30836
2.73971
0.972048
3.59158
0.460663
1.82427
0.633467
5.96282
0.309504
0.292456
1.3632
0.607548
0.591877
0.393237
1.57076
1.65398
0.596393
0.963509
0.426059
0.534857
5.4928
1.56138
0.365288
0.567243
0.605894
4.71958
1.82399
0.352438
2.74014
1.66377
3.62823
1.12001
0.645513
2.88887
0.281283
0.292505
0.627774
7.03584
3.00896
0.505518
6.83899
2.66352
0.282635
2.73774
1.5425
0.334947
0.937445
5.0948
6.18074
5.22644
0.979195
2.71311
0.364107
1.39344
2.47114
3.2826
3.36432
1.58184
0.421052
0.264725
0.954216
3.94345
0.0951919
0.564584
0.630032
0.249804
1.23568
1.93347
3.73509
0.100944
3.25953
3.2136
0.556917
0.537618
2.58454
0.365723
0.352307
0.291508
6.699
0.575437
2.882
5.85744
3.7562
2.03734
0.620718
2.04645
2.54545
0.850468
2.60527
0.451785
0.199566
0.334037
0.585196
0.640435
3.05554
3.81106
0.564622
0.837917
6.41972
0.506873
0.334863
0.303182
1.03321
2.57724
0.619853
1.25817
0.767111
2.90697
0.426403
1.2685
0.433282
1.1899
0.531166
3.80783
2.68715
0.60509
0.106709
0.674042
6.38734
0.394176
0.649642
0.43286
0.490144
5.10975
0.729091
2.74577
0.777814
0.615024
2.92273
2.81662
2.88637
2.70643
0.301042
2.81287
0.28356
0.19626
0.399961
5.73327
3.14022
6.73679
1.75803
1.26992
0.457094
0.467397
0.714658
2.76538
1.82757
0.723802
4.45599
2.07299
0.854617
1.4456
0.476315
0.295284
0.304935
4.48242
3.31235
4.52697
1.87533
0.476883
1.01846
0.759282
3.19872
3.84598
0.660751
0.696847
1.7266
5.22024
0.638217
0.939526
2.76741
1.18053
0.40683
0.406621
1.63134
0.467204
3.69131
0.36891
2.43105
0.344906
0.511604
0.904951
0.671112
0.364067
3.62493
0.274134
1.15778
0.677108
0.480771
3.81548
0.340099
0.507003
3.90792
4.0942
0.478697
0.383221
2.89167
1.88154
0.330737
3.55672
0.392347
2.47912
0.258
0.313863
0.325797
0.285074
2.75819
0.500413
1.3435
1.29294
1.03238
2.82301
3.93394
0.233165
6.44795
1.97811
1.93332
6.23587
0.353328
0.42839
3.82801
0.332882
4.09547
3.34649
4.05381
0.917383
0.290469
0.292836
6.05797
1.3563
0.362013
4.45479
0.662567
0.459714
0.386604
0.770184
1.62248
0.727834
3.2093
0.396854
4.7171
6.59786
0.921773
4.37228
1.20047
0.433592
0.344108
0.612991
2.62126
1.72182
4.508
0.489528
0.87464
2.22376
3.40458
0.55877
0.292157
0.2862
2.35165
2.52628
0.897886
0.443208
5.08725
0.431839
0.6877
0.280966
0.55397
0.571666
0.840937
0.76716
5.36636
4.8028
0.221463
0.580256
7.11608
0.581847
1.53212
1.68415
1.19692
3.41515
2.42515
0.316829
1.67445
2.66907
1.26223
4.22668
0.501436
0.262072
2.55847
0.95044
5.28892
0.464357
0.606664
0.904803
0.365326
1.55272
6.59326
1.53592
2.36294
1.92601
4.45896
2.56081
1.23346
0.185478
0.60231
2.57362
0.469562
2.83006
6.76522
0.870324
2.50638
0.453624
0.432705
4.36474
6.32802
2.59
1.38012
0.627886
0.53735
0.555751
0.179908
5.1058
0.408535
0.838419
0.621753
0.616429
0.178808
0.624419
0.405765
0.130179
1.81438
0.603762
5.72034
0.322123
1.92967
3.0122
3.45489
2.47225
5.90683
1.67644
2.64864
1.25155
0.316712
0.548259
0.463793
0.625923
0.883149
0.604979
2.04584
0.431741
2.37805
1.66992
0.243736
0.216984
0.864628
3.43007
2.36225
0.277192
0.51741
0.562987
0.8739
4.44984
0.660398
0.440662
0.325249
0.285023
0.272509
0.322836
0.276673
0.737427
1.01478
0.543009
0.263004
0.639503
3.03921
0.455059
5.86527
0.326561
1.35119
3.26232
0.438485
3.57766
0.850863
0.655951
2.53435
1.49979
0.812042
5.90071
0.72734
0.65548
0.498632
5.71461
0.345459
0.338186
3.2474
0.660056
0.418192
0.542098
0.350908
0.36948
1.49007
3.68265
0.522206
0.419225
1.57807
2.62441
3.75389
4.30626
2.12357
5.8265
3.10458
1.98161
1.12322
6.51539
4.45152
0.616943
1.93006
0.508815
0.212467
1.86045
2.0519
2.91431
0.893037
5.01663
0.18769
0.288754
5.82167
0.30763
0.509472
5.35896
2.92436
0.365776
0.875984
2.39386
0.427625
1.97618
3.24028
5.56031
3.84091
3.02801
2.89086
0.549926
5.60985
0.615172
0.59533
2.22668
0.106625
2.75708
0.551067
1.58962
0.57284
0.654446
1.15907
0.428668
0.372452
0.291165
0.435162
4.54726
0.376653
0.561042
7.04376
1.04187
3.81388
0.347236
1.70784
0.86063
3.64182
3.93276
0.53745
0.456262
0.423433
4.9994
1.59997
6.68757
0.440569
1.95053
0.622697
3.05227
1.81744
0.302919
1.35398
1.49423
2.96243
0.47809
0.34514
4.58261
0.720463
3.89293
0.862996
2.13003
4.17637
4.97426
2.57529
0.494688
6.33683
0.943767
0.590245
0.613471
0.97083
0.783632
0.423296
6.51682
2.8418
0.487169
5.95529
1.05955
2.9343
2.6655
3.58991
0.773416
0.345367
0.616448
2.50391
0.375026
1.5362
5.01274
0.921511
4.49845
2.83923
0.110285
3.09472
0.542531
2.16547
0.543791
0.370171
3.00922
0.981847
4.30768
0.52377
0.974059
5.69941
3.3721
0.42438
0.365685
4.82051
5.67369
0.621798
0.479835
0.775185
4.85286
1.03579
1.02951
0.355327
2.3062
0.778264
0.895898
0.513563
0.820132
0.720955
0.937828
1.38734
2.53448
0.428202
2.29598
0.838003
3.61829
0.521991
1.57276
2.39855
0.872617
0.819014
0.51134
0.253191
0.506724
0.405974
0.273238
4.86034
3.1181
1.2673
1.67242
0.499016
0.752202
0.683487
4.59584
4.86707
4.03181
0.437376
0.409282
6.39666
4.75633
0.35649
5.09859
0.544155
0.41734
0.399247
0.373742
2.07733
0.482685
5.26671
1.37339
1.11959
0.361276
0.508774
0.465375
1.92967
0.629043
1.0503
2.29828
1.16732
1.98134
0.975834
0.475428
0.447569
6.8708
0.548059
2.62827
0.408861
3.10966
0.46134
0.616039
0.365914
5.34603
2.03475
1.74279
5.50986
5.66054
1.8244
6.61951
0.542967
0.501567
5.75275
0.830177
1.49318
0.329813
0.52867
0.325259
1.17613
0.629101
1.0711
0.859108
1.55466
0.543352
0.485448
0.862202
5.9566
0.696017
4.71584
0.921981
4.77101
1.04922
6.01788
1.39406
0.780921
2.3669
5.67651
0.461175
3.46547
3.82653
0.254223
0.66816
2.47186
0.465921
0.529139
3.44607
0.486344
5.91263
2.85638
5.24117
5.07734
2.34219
1.39838
0.426637
0.893099
4.58107
0.514418
0.53625
2.58366
4.84063
2.5308
5.1071
4.29324
0.177469
3.40786
0.514224
2.09403
6.43156
5.12959
0.581448
2.50957
0.463746
0.550258
0.132836
0.477074
4.96637
0.485978
0.450919
0.464874
7.16553
0.0247321
2.35732
0.758912
5.03735
0.474716
3.56925
0.318135
0.764711
0.998191
0.401497
6.23563
0.529489
0.992284
4.52706
3.01111
0.357949
4.53581
1.38044
5.88518
3.75795
5.33034
2.56176
0.514085
0.421787
4.56341
5.08182
0.436035
4.33081
4.67113
0.40247
0.717718
0.979133
1.29334
1.0695
5.63273
2.83358
1.10744
0.397956
0.641906
5.55102
0.357429
2.17655
1.41997
0.886806
0.861365
2.78298
0.349586
1.86361
0.381532
0.27522
0.112674
2.31336
5.43919
4.54573
0.473536
3.57576
0.48641
0.481498
1.39604
5.43236
0.296621
0.967127
0.406083
0.817669
0.841102
0.505934
0.900859
2.87249
3.94057
1.05573
0.618767
5.36156
4.1947
0.600545
5.76097
0.627599
0.984665
0.505406
0.571459
0.456594
4.43942
1.70481
0.321527
6.57814
2.75918
0.371002
2.74754
1.05293
0.627472
3.48352
0.45832
1.55836
1.70355
0.322422
2.68114
0.383346
1.89374
0.617892
0.85302
0.495755
0.599717
0.370253
3.34116
2.71476
0.658329
0.419348
1.84492
0.641237
0.815907
3.84465
0.715857
2.67518
0.63245
5.60889
2.7108
0.366766
1.32814
0.784175
0.490051
0.558855
3.40469
0.351815
5.98138
0.268115
3.05656
2.58252
4.58798
0.557021
3.54503
4.48512
0.226618
0.881723
0.88917
0.742912
0.177948
0.551546
2.75715
2.88566
2.47598
1.23911
2.64369
1.57284
4.67197
3.63819
4.4956
0.375497
0.630222
0.540883
4.40728
2.22136
0.41127
5.00926
0.314158
3.29147
0.333008
4.33379
0.520635
0.724656
0.267486
0.769261
2.19073
1.49143
0.85434
0.607209
4.35394
2.81613
0.644204
0.588265
2.90478
2.26732
0.595463
1.34209
1.4584
0.276963
0.744191
1.67138
3.18445
5.32912
0.368929
3.55008
0.522177
0.920815
0.687873
3.42782
2.78206
0.368513
0.43973
0.983472
3.35815
0.732069
2.84132
1.18538
0.659833
0.391261
3.02417
2.14875
2.7949
4.28922
0.61794
0.5038
0.605516
4.64597
2.14431
1.05428
0.443294
5.58678
4.40706
0.242577
0.722605
0.576482
1.32348
0.403131
1.72497
1.25218
0.436499
2.78806
0.694619
1.1422
2.96201
3.64023
0.472247
0.413945
0.348959
1.91242
5.06557
7.12828
0.35445
0.42894
0.536581
0.12296
3.44262
4.31547
2.85004
0.975084
0.415641
2.53919
0.384423
0.594679
0.91409
0.588901
5.35205
4.52205
0.805274
0.62792
2.04021
1.34376
0.949038
5.94962
1.79153
0.871621
2.83994
2.33596
2.99961
5.59237
5.68506
2.09628
0.140797
4.19513
2.46984
2.74958
1.10404
0.962597
0.446697
0.571153
1.34018
0.554354
0.792916
0.328664
1.48575
2.76504
0.209295
6.74939
0.115204
4.34464
5.84537
0.358126
4.8752
0.991123
0.403562
2.33182
3.57241
2.82168
3.1614
0.578052
0.545274
1.10494
0.4316
3.44028
2.98834
0.00156731
0.622322
0.980236
0.641841
3.12576
0.430865
0.838035
2.91564
0.272448
0.315451
0.808067
0.472887
0.286904
0.525115
0.331556
0.41474
0.389211
0.70743
2.29814
0.257698
0.578427
5.33211
0.461012
0.584787
4.49516
1.80956
2.39281
0.475751
4.64841
3.85916
0.959742
4.53165
0.336834
4.96124
0.61773
2.68217
6.42643
0.334391
2.64715
0.905566
0.7986
0.376794
5.71282
4.47565
0.426979
4.91612
0.466988
3.78689
3.11316
0.986772
1.829
0.184141
4.97085
2.19975
1.15235
4.9472
0.809718
0.548386
1.2285
1.75264
0.649107
0.604449
0.408227
0.587018
0.634545
1.78157
0.585125
1.00412
1.04409
0.880138
0.582774
2.82581
3.27896
3.607
3.31809
0.782408
2.3284
1.42088
0.596428
5.86105
5.72515
0.620783
0.697674
2.28006
3.32963
0.0636252
3.96685
6.02793
2.82702
2.50908
2.66309
3.06704
0.888796
0.961012
4.67918
3.50602
0.428163
0.569091
0.429811
2.20462
0.088242
1.0446
3.4163
1.49859
4.23293
0.360783
5.54859
0.261539
2.58654
0.251735
0.822853
1.35006
3.11704
2.64832
0.624261
2.48473
0.4964
0.247184
0.189659
0.597686
0.280398
3.48058
2.81739
0.489917
0.465144
4.70882
3.15262
3.05287
2.41069
0.968955
0.334036
0.273885
2.65857
3.13066
5.90928
3.57174
5.48621
0.47541
0.0992101
0.192314
2.74247
2.39267
0.673705
0.928652
0.377626
0.857992
0.179659
4.74625
0.290383
2.34305
0.805718
0.671964
4.46407
0.394996
0.619967
2.93034
2.01348
0.408951
2.51396
0.541265
0.644901
3.13217
0.713014
0.933212
1.62175
1.50518
4.03459
0.733995
3.19926
0.523073
0.904597
2.19623
1.20415
6.33599
0.301449
0.634037
2.48433
1.3436
4.49766
1.74683
0.413697
4.8261
2.85907
6.13853
2.70758
0.369165
0.382876
0.530743
0.388773
0.575347
0.612885
0.35946
0.647375
2.71893
4.32653
1.02848
2.74863
1.045
0.286163
4.53578
3.20335
0.48321
0.372277
0.598816
3.43568
0.712921
0.560026
0.403193
0.595134
0.543231
1.34988
5.60426
1.37658
3.65925
0.699976
0.0467763
3.18431
0.992293
0.808358
0.86547
4.32084
5.93229
2.85806
0.467999
0.712129
3.57217
1.5878
1.23606
1.67943
0.420602
2.73841
0.472627
2.89255
2.89241
4.8717
0.408753
0.726909
2.77214
3.33582
0.394601
0.800253
0.636176
1.75991
0.132733
0.16613
0.708927
0.579476
3.14186
5.84894
0.41603
4.02241
2.55872
0.276165
2.2298
3.42027
3.58074
0.588933
4.51279
6.09362
0.264118
6.87434
2.25461
3.24274
0.25693
2.96631
5.10982
3.83381
1.13975
6.55936
2.61632
0.673274
3.05025
5.67456
0.452759
4.27531
0.357016
3.83146
0.482046
2.79065
0.355723
0.537699
6.90989
0.614279
3.68489
2.97501
1.81051
0.604645
0.360257
0.734348
2.48012
0.282601
0.278642
2.73554
0.398112
1.05826
0.278174
0.564395
0.507713
1.06757
5.09163
1.32586
1.09336
1.7983
1.28605
0.576111
3.14487
0.894191
0.342664
0.3378
2.6992
0.572084
0.587282
0.209691
1.82667
0.525585
0.602663
4.59278
0.697007
1.14783
4.17125
0.431181
3.66878
0.457336
0.882659
0.379066
0.476495
0.578499
0.586796
0.373247
1.3284
0.11741
4.4535
0.292345
2.67802
0.412447
1.34131
1.01181
0.635987
6.63078
2.51007