/*--------------------------------*- C++ -*----------------------------------*\
  =========                 |
  \\      /  F ield         | OpenFOAM: The Open Source CFD Toolbox
   \\    /   O peration     | Website:  https://openfoam.org
    \\  /    A nd           | Version:  10
     \\/     M anipulation  |
\*---------------------------------------------------------------------------*/
FoamFile
{
    format      ascii;
    class       volScalarField;
    location    "1750";
    object      p;
}
// * * * * * * * * * * * * * * * * * * * * * * * * * * * * * * * * * * * * * //

dimensions      [0 2 -2 0 0 0 0];

internalField   nonuniform List<scalar> 
10435
(
-0.000940939
-2.99088
-12.3869
-4.54555
-10.2637
-13.0642
-12.334
-12.5698
-12.9255
-11.9477
-5.37336
-8.5355
-11.797
2.91256
2.745
-12.223
2.98315
-11.7514
-12.9498
-0.684624
-12.2368
-3.90714
-11.9917
-10.2689
-12.6644
2.94896
2.93562
-11.9143
2.42157
-12.6873
-11.955
-6.48737
-12.7177
2.77987
-11.8824
0.183011
-11.7334
1.85284
3.36253
-11.6721
-13.5077
-11.6387
3.38419
-2.68415
-11.7304
-11.3316
-12.6684
3.12042
-13.0402
-3.73585
-12.4405
-12.076
2.93467
2.15924
3.61595
2.16593
-11.2788
2.62475
2.90311
-11.5291
3.07476
-1.87096
2.79475
-11.3766
-11.9896
-12.1879
2.87004
2.84659
-12.4627
-9.39031
2.73169
2.38515
3.79329
-12.0452
2.46349
3.36902
-8.19201
-12.2977
-13.0605
2.47857
-5.56209
0.652291
3.05558
2.49531
-6.48401
1.01651
0.366335
-3.17049
2.21004
-0.452597
-4.17158
-5.29716
0.0383702
1.64405
-1.3078
1.0571
-6.19184
2.70407
3.2012
-7.80028
2.07911
-11.8594
1.07476
-2.21394
-12.154
-3.61051
-0.613558
-4.59073
-7.47367
2.1539
-2.90365
-11.0677
1.23478
1.6803
-6.8814
-3.03584
-8.38717
0.230569
-3.71342
-7.56177
-8.65067
3.69963
-0.670751
2.70861
-8.33292
3.0283
-6.88397
3.5215
-9.5264
2.00228
3.2668
-7.1081
-12.269
2.71991
2.53429
3.55539
1.31192
-5.36436
-2.64666
-2.20284
-1.42446
-11.8632
2.98269
-10.7668
-4.7325
3.10074
2.16912
-12.1082
3.11401
-10.0382
3.02092
-11.2557
-0.227463
-10.7139
-12.3415
3.00201
-9.40205
-1.62498
-12.3221
-4.55347
-11.1639
2.89817
-5.94648
-7.34023
2.18631
-9.85895
-12.6271
-6.9558
-9.20606
-10.8625
-11.9564
3.06349
2.02087
2.80379
-9.75637
-3.23216
-0.81289
3.02389
-2.0647
2.78387
-4.16261
-12.3857
-9.64373
2.87079
-11.2137
3.52188
2.89541
-12.2535
-11.2949
-11.3345
-8.86974
3.12365
2.86832
0.348443
-10.3404
-12.3579
3.35149
1.68394
3.11904
-11.9961
2.45295
3.37056
-11.9064
2.74493
-12.0997
-7.99545
-4.87287
-6.17713
2.61863
-5.59493
3.39015
-12.4462
-9.66507
-8.22397
3.18591
3.02106
1.65801
3.17519
1.54966
3.01095
2.69625
2.80464
3.04576
2.69551
2.75207
-12.104
1.7803
2.23471
-11.7944
3.18435
3.02504
-12.33
1.70097
-10.8717
2.08024
3.0988
-10.8534
2.2167
-10.0406
-12.0711
-1.82758
3.01066
3.15108
2.14677
-7.28029
-13.0246
1.86772
-12.4884
0.594166
-1.96743
0.307771
1.64844
-12.3066
-6.46156
-12.4572
-10.8905
-0.361001
-12.3399
2.96076
2.84756
-11.8481
-12.2056
2.49852
-8.25215
1.23189
3.27518
-1.00422
-11.8397
3.35754
-8.70917
-12.0461
-12.8645
-12.3326
-11.5771
1.36766
-8.10658
2.75028
-9.60599
-12.0233
-13.1
-12.6183
3.02535
-12.0648
2.27404
1.15955
3.496
-11.3923
2.05795
2.57547
2.49658
2.63865
-5.8719
2.46986
-12.7952
2.35632
-0.53026
3.15718
0.647493
-8.64685
-12.3402
3.00863
-9.27818
-11.9368
0.338318
-7.74051
2.86352
3.33051
-10.294
-12.3722
2.62298
-1.3315
2.45681
-0.776889
-12.1833
-12.2705
-0.620644
3.23065
-11.2135
2.94239
-7.72293
-12.7413
2.04886
0.512857
3.27054
-13.2693
-12.2257
0.877233
-11.7886
3.05579
2.57704
-12.1229
2.53404
2.63319
-12.2434
-10.3795
2.69315
2.4066
1.73483
2.88285
1.9427
0.283464
2.98012
3.26566
0.344929
-0.394911
2.40688
2.76098
3.50533
3.37733
-13.1848
2.75188
-12.7356
0.284947
-11.7123
-13.725
-14.3101
-11.6773
-11.8376
2.15819
2.69958
1.78448
3.31489
2.00945
2.97125
2.30393
-0.0586734
2.61163
-9.14109
2.79893
-13.1951
3.2561
-0.380257
-11.3356
-14.6844
3.4121
-1.13933
2.1206
2.46078
2.662
2.68676
-2.16847
2.27008
-12.9595
2.86095
-12.6091
-14.0206
-11.571
-11.5028
-14.2415
-11.8128
-12.0966
3.08974
3.15922
2.47802
2.8947
-12.3145
2.52496
-12.2984
-0.661749
2.50708
-1.67911
3.08977
2.86414
-12.6161
1.90049
-12.7434
-9.8282
3.30116
2.60204
0.432302
-12.5512
0.286066
2.79783
2.5265
2.0568
3.11003
2.79027
-12.113
0.524572
2.1938
2.43599
3.20842
-12.6312
3.36363
3.619
-13.5915
2.89079
18.2371
9.92615
12.1702
10.1548
10.825
10.1317
10.188
9.98646
9.33046
15.7861
8.86822
10.6527
9.27741
9.67654
9.24804
9.2658
9.11307
8.99376
13.4841
7.77001
9.39291
8.51493
8.76548
8.51129
8.50431
8.39771
8.2695
11.7105
7.04907
8.36718
7.80847
7.98709
7.84761
7.84657
7.79025
7.68989
10.1173
6.535
7.51723
7.19298
7.33247
7.27401
7.29288
7.2882
7.21644
8.70247
6.16723
6.82981
6.68226
6.79646
6.79372
6.83075
6.857
6.83789
7.54357
5.97174
6.29669
6.27285
6.3673
6.40337
6.45782
6.51157
6.54057
6.65726
5.87451
5.88876
5.94643
6.02626
6.08814
6.15523
6.22838
6.22864
5.97505
5.67552
5.54993
5.67598
5.75316
5.83301
5.90917
5.98759
6.04381
5.40044
5.32691
5.25749
5.44714
5.53251
5.62495
5.70856
5.79344
5.8577
4.97115
5.01151
5.04271
5.26383
5.35612
5.45333
5.54057
5.62738
5.71626
4.7903
4.87343
4.9375
5.13025
5.2165
5.30714
5.38908
5.46512
5.58366
4.74013
4.86672
4.90603
5.03293
5.10384
5.18265
5.25981
5.34172
5.4259
4.66172
4.88928
4.89426
4.95016
5.00293
5.06637
5.13438
5.21105
5.26649
4.60087
4.90145
4.87653
4.86756
4.90465
4.95478
5.01703
5.08971
5.16007
4.53552
4.85545
4.82789
4.77165
4.79904
4.83885
4.895
4.95958
5.03543
4.37105
4.68163
4.71245
4.64981
4.67931
4.71492
4.76683
4.82208
4.91098
4.17455
4.42141
4.54988
4.50739
4.54746
4.58574
4.63985
4.69981
4.79254
4.03043
4.18169
4.37736
4.35658
4.40617
4.44692
4.49941
4.55768
4.62272
3.91396
3.98921
4.20754
4.20488
4.25987
4.30227
4.35176
4.40606
4.4656
3.76279
3.82743
4.03879
4.05615
4.11268
4.1569
4.2059
4.26428
4.31131
3.53541
3.70323
3.86887
3.91008
3.96215
4.00411
4.04768
4.10172
4.08038
3.19029
3.67628
3.71846
3.78369
3.82654
3.86299
3.90153
3.94462
3.90394
2.78607
3.71248
3.5172
3.59596
3.63009
3.66552
3.71705
3.76495
3.70896
2.64383
4.00964
3.6825
3.75073
3.7481
3.70971
3.73898
3.78076
3.33739
13.3654
13.6462
14.1603
14.7169
15.3186
15.9721
16.6629
17.3899
18.1448
18.9141
19.6892
20.4595
21.2074
21.9288
22.6126
23.2439
23.8197
24.3299
24.7638
25.1174
25.3904
25.6174
25.8593
26.0042
25.7621
25.3878
25.3459
25.7482
26.3986
26.9211
27.4201
27.9295
28.1739
28.2476
28.2535
28.1771
28.0186
27.8096
27.5535
27.2731
26.9758
26.6689
26.3503
26.0256
25.6946
25.3404
24.9671
24.5717
24.1366
23.6753
23.1947
22.703
22.2155
21.7367
21.261
20.8111
20.3749
19.9572
19.7253
4.4642
4.27131
4.20418
4.12619
4.03237
3.9301
3.84198
3.77808
3.74037
3.73159
3.75388
3.80781
3.89272
4.00689
4.14857
4.31624
4.50872
4.72747
4.9768
5.26434
5.60274
6.00944
6.50308
7.08195
7.7972
8.4446
8.74105
8.70185
8.26768
7.68719
7.25007
6.94323
6.70979
6.52822
6.39149
6.28129
6.18681
6.10283
6.02563
5.95392
5.88735
5.82671
5.77484
5.73539
5.71335
5.71605
5.75048
5.82513
5.95493
6.09888
6.22002
6.38215
6.6235
6.92166
7.26579
7.64093
8.00854
8.37443
8.91064
8.20721
8.44038
8.65855
8.89207
9.13672
9.39298
9.66035
9.93813
10.2253
10.5198
10.8203
11.1246
11.4308
11.7362
12.0392
12.3385
12.633
12.923
13.2097
13.4949
13.7813
14.0708
14.3622
14.6429
14.8962
15.0857
15.2184
15.3049
15.3291
15.2735
15.2048
15.1345
15.0554
14.9735
14.8929
14.8134
14.735
14.6583
14.5837
14.5116
14.4431
14.3782
14.318
14.2624
14.2121
14.1672
14.1277
14.0922
14.0609
14.0305
14.0006
13.9669
13.9116
13.8277
13.7309
13.6259
13.5115
13.4092
13.2769
5.53871
5.51406
5.55953
5.6072
5.66183
5.72712
5.80393
5.89421
5.99961
6.12168
6.26201
6.42181
6.60144
6.80135
7.02087
7.25908
7.51461
7.78532
8.06947
8.36437
8.6673
8.97404
9.27874
9.57222
9.84167
10.0669
10.2303
10.3248
10.3505
10.3196
10.2542
10.1659
10.0607
9.9433
9.81664
9.68292
9.54374
9.40124
9.25861
9.11922
8.98726
8.86674
8.76239
8.67811
8.61803
8.58484
8.58031
8.60502
8.65757
8.73559
8.83578
8.95388
9.09135
9.24476
9.40151
9.56067
9.71881
9.88581
10.1012
6.62477
6.75881
6.90624
7.06264
7.22697
7.39867
7.57666
7.76044
7.94925
8.1422
8.33892
8.53896
8.74149
8.94667
9.15381
9.36278
9.57329
9.78441
9.99608
10.2073
10.4169
10.6224
10.8205
11.007
11.1757
11.3213
11.4384
11.5256
11.5818
11.609
11.6133
11.5984
11.5687
11.5282
11.4789
11.425
11.3682
11.3096
11.2537
11.2027
11.1587
11.1238
11.0999
11.0879
11.0889
11.1021
11.1267
11.161
11.2019
11.2468
11.2923
11.3331
11.3745
11.417
11.4402
11.4502
11.4596
11.4824
11.4865
5.68517
5.71101
5.77969
5.85576
5.94085
6.03678
6.14414
6.26328
6.39475
6.53827
6.69506
6.86479
7.04764
7.24305
7.44992
7.66689
7.89234
8.12166
8.35529
8.59031
8.82457
9.05301
9.27126
9.47686
9.65981
9.81976
9.94909
10.0492
10.1183
10.157
10.1706
10.1576
10.1243
10.0758
10.0091
9.93424
9.85014
9.75249
9.65525
9.55916
9.46892
9.38837
9.32103
9.27037
9.24045
9.22926
9.23998
9.26994
9.31849
9.38409
9.46449
9.55571
9.65461
9.75747
9.86306
9.96968
10.0748
10.193
10.3245
5.87678
5.94962
6.04741
6.15488
6.27093
6.39608
6.52839
6.66935
6.81812
6.97209
7.13247
7.2979
7.4701
7.64739
7.82825
8.01295
8.20434
8.38964
8.57889
8.76582
8.95417
9.13499
9.3061
9.47499
9.61753
9.75125
9.85769
9.95016
10.0218
10.07
10.1075
10.1153
10.1088
10.0982
10.0614
10.0303
9.9944
9.93045
9.88512
9.83981
9.80143
9.77163
9.75152
9.74367
9.75719
9.77671
9.81678
9.86573
9.9261
9.99467
10.0678
10.143
10.2157
10.285
10.3536
10.4168
10.4712
10.5391
10.5973
5.62284
5.64033
5.68813
5.75318
5.82072
5.9098
5.99856
6.11942
6.24624
6.35265
6.49651
6.64057
6.80347
6.98293
7.16437
7.36715
7.5851
7.74204
7.92558
8.1143
8.32184
8.51008
8.67857
8.8775
9.00195
9.14643
9.234
9.32845
9.40164
9.44998
9.50894
9.50385
9.49881
9.5155
9.44847
9.45023
9.47514
9.33784
9.26641
9.19314
9.13212
9.07909
9.03417
9.00182
9.05071
9.04769
9.12141
9.1639
9.19693
9.25469
9.34136
9.45648
9.55594
9.65903
9.77256
9.89568
10.0129
10.1627
10.2758
5.40935
5.48718
5.54185
5.64847
5.74611
5.8721
5.96309
6.03975
6.18186
6.3985
6.45647
6.6024
6.79353
6.93371
7.13949
7.21976
7.4457
7.61461
7.80821
7.93726
8.12922
8.2754
8.41385
8.6059
8.68734
8.82871
8.88733
8.98073
9.09871
9.06131
9.22235
9.2138
9.15693
9.22485
9.14405
9.20965
9.1065
8.94148
9.04819
8.99131
8.9574
8.96326
8.9008
8.89142
8.91401
8.88297
8.91219
8.9069
9.04726
9.14859
9.21
9.27524
9.35732
9.49441
9.62108
9.70491
9.80953
9.68404
9.8759
-0.637297
-0.78726
-0.648338
-0.420205
-0.0822717
0.339255
0.737165
1.11186
1.47178
1.75867
2.01338
2.30131
2.55981
2.80906
3.19417
3.71461
4.26893
4.85598
5.52666
6.31159
7.21964
8.26902
9.51407
11.0794
12.4721
3.11694
3.17484
3.10684
2.9938
2.8964
2.92152
3.04603
3.21582
3.37881
3.44046
3.36881
3.23343
3.10459
3.0312
3.08468
3.24485
3.37327
3.44556
3.5587
3.75386
4.00636
4.29303
4.6098
4.98356
5.22037
2.27896
2.30368
2.34287
2.38367
2.45394
2.57713
2.72945
2.88264
3.01357
3.08372
3.09381
3.07491
3.05399
3.05919
3.13362
3.28042
3.46532
3.6849
3.96294
4.31321
4.73854
5.24335
5.83563
6.52531
7.36663
2.59265
2.593
2.63877
2.67775
2.73181
2.80756
2.89864
2.99123
3.07316
3.1295
3.15917
3.17429
3.18924
3.21819
3.27728
3.37051
3.49134
3.64134
3.82956
4.06069
4.33337
4.64118
4.97225
5.29821
5.63815
2.62859
2.62139
2.66551
2.70845
2.76724
2.83735
2.91641
2.99367
3.06322
3.11791
3.15745
3.18875
3.2209
3.26265
3.32459
3.41282
3.52964
3.67956
3.86926
4.10316
4.38553
4.71954
5.10978
5.55633
6.13151
2.70491
2.70383
2.7478
2.78646
2.84148
2.90068
2.96801
3.03184
3.09167
3.14299
3.18466
3.22154
3.26024
3.30504
3.36369
3.44188
3.54384
3.67443
3.83829
4.037
4.27361
4.54567
4.85135
5.17506
5.5655
2.79429
2.75618
2.80621
2.83738
2.8906
2.94121
3.00365
3.05921
3.11414
3.16413
3.20557
3.24391
3.286
3.33165
3.38848
3.46216
3.55732
3.67967
3.83369
4.01917
4.24373
4.50389
4.81035
5.15427
5.59199
2.87654
2.79198
2.85944
2.88177
2.93691
2.9795
3.04222
3.08996
3.14054
3.1897
3.22806
3.26425
3.30963
3.35512
3.40936
3.47888
3.56727
3.68017
3.82114
3.98788
4.19662
4.43429
4.73311
5.07147
5.46874
2.86598
2.81462
2.91932
2.92408
2.9804
3.00114
3.07008
3.10435
3.16658
3.21474
3.25414
3.28323
3.32487
3.36469
3.41704
3.48017
3.56042
3.6642
3.81764
3.97721
4.16344
4.39951
4.64119
4.77093
5.0102
-14.079
-13.065
-1.34001
7.80868
3.5382
3.46935
-2.09877
4.28462
-2.92764
8.51628
-11.9373
4.59915
-16.4373
2.71927
-7.26262
6.16627
-9.2482
7.65533
8.6469
-17.8492
-17.5193
6.93853
-11.6759
7.19076
4.23189
5.6727
4.19617
2.99348
-11.7042
-10.7792
7.85702
6.79975
-13.6998
-12.6682
-11.0591
3.96701
-3.32313
-6.79814
-5.43033
7.54049
-12.467
7.72928
6.43854
2.97092
4.66692
8.25988
-11.6883
-10.3453
-10.9534
-13.435
-11.683
-12.147
-16.6454
7.89428
-2.00063
-2.68297
2.68523
-17.5198
3.33488
-9.57957
4.15818
-0.49693
3.56013
6.22006
4.22314
3.06177
6.28707
6.67706
-15.0717
-12.4754
-3.22314
7.36325
3.67937
-16.1714
3.88349
-18.128
-14.4594
-11.5952
3.08942
8.32667
-12.5694
4.35922
4.69039
-9.39201
3.73344
4.19597
3.58699
-11.7732
-13.7936
5.2622
5.91131
5.56049
8.7515
4.66061
3.56523
-11.7921
5.52867
-11.3962
7.55419
-9.66859
3.23385
-12.959
3.2293
6.90049
3.41107
3.25803
-11.7326
-13.3954
5.44695
-10.4569
6.08725
4.96881
-11.0244
6.92111
-17.0814
-10.8463
-13.0239
7.80643
-15.9918
5.07669
6.18435
4.88984
7.52215
4.36455
-13.5868
6.44787
-12.3171
-17.9453
2.72527
-10.599
4.93781
-16.2933
-11.9899
-9.60466
2.90637
3.62744
4.6665
3.35334
4.58478
-17.108
6.12287
-3.97557
-10.1828
6.25427
-11.3009
5.67754
6.29126
-15.2215
4.79886
-11.2666
1.10087
2.24119
5.9485
-7.70992
4.30704
-10.3011
3.59034
7.77044
-12.3524
8.64755
6.92691
-3.33115
5.328
-11.4214
7.9895
-9.29506
2.63469
3.98379
7.09395
3.62179
2.72488
6.37056
6.35513
-9.54402
5.82019
3.06372
-12.5769
-11.9074
-10.3837
7.73661
-10.9384
7.2727
-16.2575
-10.2938
3.42626
8.66318
-9.61215
5.39269
-13.9462
5.33198
-10.2341
-10.3891
-6.1798
-2.84301
-7.48792
-13.7234
3.90749
6.86289
-10.9784
-11.5391
-15.2274
6.78747
4.53526
5.06624
1.39444
8.20246
6.58166
3.29189
-11.4464
7.80841
3.42282
4.7999
-10.9539
1.29191
0.893403
-12.1323
3.45236
8.92124
8.99519
4.46507
3.18935
7.81871
4.41796
0.198702
9.57402
-12.8468
5.99972
-8.99862
5.42557
3.64018
-10.051
4.12676
7.06403
5.01888
-4.82906
8.21925
-11.8538
3.02771
-10.4675
-6.84285
7.32901
4.02313
8.01605
3.05397
3.68638
3.99021
6.35296
3.33745
5.79247
8.23102
5.52504
3.13561
7.0626
-11.4248
6.08026
3.78862
-10.819
-14.015
-12.3454
9.91555
5.83756
2.69185
4.84111
4.18628
-15.8952
4.47152
8.73779
5.46639
-2.691
3.99625
-15.5414
-6.83786
7.29205
8.97953
9.03989
5.2215
6.53424
-4.57923
2.58051
-11.8273
3.22839
1.06375
7.40259
8.02158
-10.089
5.04599
3.16063
9.08035
-12.1179
-10.1362
-4.5015
5.5114
7.23766
-12.1288
-12.1763
-12.2729
-11.6669
5.70494
8.45849
-10.6668
-11.159
6.69042
8.58287
5.20861
-11.3897
8.38899
-17.9097
6.34492
-17.4217
4.53847
6.80677
7.97921
-13.8121
2.84411
7.22719
-2.58108
-11.6797
7.13822
4.25298
-9.44513
-12.7271
5.5117
8.61278
7.87696
3.79769
4.50419
-13.2762
-13.3383
5.88956
-16.8616
7.81931
-7.63964
3.20414
8.30192
-12.1503
4.13263
4.40825
4.95232
5.43127
6.28766
4.82211
4.49555
-10.5037
7.34814
-15.794
3.48235
3.39119
7.4672
3.78147
-10.4618
-1.00889
8.8048
6.60219
-12.4161
-12.1502
9.58979
-8.3698
2.63349
7.9395
-9.4377
-11.5942
-11.6989
8.7174
-13.0945
7.90357
3.64819
6.33038
-12.0724
4.62521
-13.6768
8.35366
-8.08013
-11.6751
-8.0241
-15.3231
4.68187
4.83092
8.35178
8.79049
7.99721
-11.5736
5.51804
-13.3981
2.83051
2.88855
-10.5482
8.15673
-17.7761
-12.2237
-10.0348
-0.0137706
8.49845
4.18797
-11.874
-10.6009
9.11838
8.14165
-13.499
7.98444
-11.3234
4.19574
6.45214
3.63504
-13.4314
4.38714
8.73388
-3.19772
4.17235
0.942501
6.97333
-10.7442
4.49561
-10.4525
4.41187
5.47167
9.52933
-10.7972
-10.2772
8.6373
5.71015
7.60239
8.55131
5.18202
3.16203
7.41063
-11.3537
5.4814
8.16743
6.38092
6.78445
4.41579
3.77293
5.01886
3.14266
-3.137
6.60426
5.70489
7.17696
7.39941
9.40878
8.58973
-6.79666
-12.3866
1.85111
-15.1539
3.71554
3.1129
-6.6647
3.3863
3.06602
-8.12482
7.30131
5.10149
-10.6944
8.40081
-12.5006
-9.2048
4.47255
5.96598
-16.1395
5.2794
2.6896
-10.8883
-11.2886
-11.3956
3.81369
3.4704
0.316902
8.59411
-11.7786
3.1471
3.75798
-11.5685
9.46892
4.39955
-13.8392
4.86555
3.67182
-14.7398
-14.8889
0.773222
-6.33574
8.29102
4.50981
-9.92958
3.66983
4.38226
7.91456
-12.878
6.94407
-8.83786
5.74388
4.71674
-11.7799
4.57361
3.38455
-8.14882
4.46122
8.75365
-13.7182
6.57637
-3.94492
4.75627
3.04516
-13.1355
-12.3269
5.63488
5.26615
-3.07802
5.90009
7.21979
-11.7429
5.95765
5.12911
8.71599
-12.0788
-11.7339
-10.5636
4.64088
0.395759
8.41657
-10.4572
-17.7786
6.41616
-12.5739
8.1731
-11.5218
-13.1003
8.14414
7.17191
3.15578
6.88621
4.10443
-4.57829
5.05721
1.40665
5.66194
-10.8092
-11.0232
5.52028
-10.2526
-10.4717
6.17845
-11.945
6.5982
1.11055
5.2293
3.17555
4.47789
-5.01813
-4.89268
-6.66123
2.75127
-11.3452
-10.6902
-11.5479
4.31456
8.31373
-15.7766
-11.9845
6.00392
-10.3874
5.55766
-14.4848
-10.6544
8.79065
0.571863
3.26557
7.03677
4.98527
-13.9075
8.55317
-7.59637
3.48579
3.47673
-10.814
-10.5743
-11.7578
3.15256
5.05335
-16.0888
-17.2347
6.54952
8.42936
4.45119
-13.4228
6.96732
3.46986
-4.94729
7.8145
3.47612
3.6604
6.22224
-9.05838
8.33095
3.24265
-13.3154
-10.9243
3.5339
7.44066
-10.3944
3.02767
8.03435
8.43062
-17.4365
6.3168
4.70641
7.11091
9.32206
7.18892
6.95152
-5.316
4.10544
7.05152
3.22605
-16.2272
9.0788
3.37875
1.83986
6.50341
3.90182
5.19899
8.05559
2.06704
4.08015
-9.81687
-9.55901
2.96683
-13.2513
3.77576
3.8982
3.70558
8.49272
5.85714
5.1006
-15.2712
5.70839
4.54692
2.3186
-10.1283
0.357562
2.82886
3.06574
6.62367
3.57299
8.6546
5.70939
1.67871
-9.99803
-8.80546
-12.3589
9.05263
8.4572
6.50493
8.43108
7.17926
-10.5917
10.6711
-17.8278
8.03497
-11.7139
8.74687
-11.6541
6.3709
3.77964
4.43357
-12.6223
-6.76253
3.01043
-17.075
4.02474
9.21139
3.83609
-11.0859
8.15807
5.33434
-9.1564
4.04445
8.34915
7.96681
7.39375
-15.7122
8.60028
4.85534
8.76078
2.77529
8.18744
-11.09
-12.0381
6.40113
-3.84255
8.59576
-11.931
4.72209
8.42249
8.0673
5.42907
-4.87621
5.59895
7.38568
3.37673
6.95763
5.97328
7.28758
8.11799
-9.55093
-9.15153
1.27053
-10.8832
-5.49066
-12.9764
-11.1597
9.61199
3.60332
3.82367
8.72734
5.35542
2.73
5.96122
4.20457
-15.4927
7.78525
6.69427
3.64444
7.62982
6.11999
4.1086
1.39897
-12.7382
-12.3996
8.71108
-11.0575
-0.952338
-12.0194
-17.3911
-12.684
-12.3268
4.54204
8.95926
5.71602
8.15999
7.5097
5.09851
-12.2599
-12.7976
7.66011
-13.0599
1.84056
9.07166
4.16458
4.6424
-9.35615
1.68057
4.27541
-1.61644
-8.79503
-15.1414
-11.817
8.73899
8.65785
3.84161
8.31137
-11.6963
0.556035
-11.8798
-8.29058
3.67931
-9.04113
5.29669
8.86171
3.29321
3.45255
3.38315
8.75728
5.84521
3.20186
5.1937
5.0196
6.63948
4.96813
4.88345
8.02158
-11.2602
-5.45394
6.94422
-0.357843
6.09209
-16.6522
3.79441
9.52174
7.50582
-14.9805
1.07797
8.41843
5.95572
-10.8841
1.6731
-13.6356
4.9042
-14.5652
-12.9961
-10.5839
3.35559
-9.27481
2.40491
7.95932
-11.9512
7.50674
4.19172
5.04648
-14.1286
-1.53763
6.75327
3.6985
-13.1739
3.75197
0.723386
-10.0501
7.84428
7.04805
-4.4577
-12.0328
-13.7007
8.31927
8.83354
8.40808
-14.7769
-4.37805
7.58034
3.96013
3.43189
-12.7148
9.26237
4.12213
-13.1565
9.12804
4.89025
4.80671
8.72552
-14.1887
5.05091
-15.4161
7.91163
4.66343
-12.8823
7.1275
8.2299
8.39961
3.10336
-15.036
-11.8518
8.71093
8.2485
4.87108
-8.22813
-16.6122
-0.262167
5.19855
-13.6368
-6.61767
5.57011
3.65135
3.32962
-10.1763
8.11468
-14.8835
6.03221
5.58453
-9.91977
5.64608
6.01247
2.66453
-15.863
-11.0482
-9.78395
-9.92818
8.49332
-13.4124
-8.39317
7.78814
-2.18216
3.89782
3.36945
-16.3952
4.85921
4.57642
-17.0157
2.00848
9.45394
9.33705
-13.9611
2.49981
5.88421
-10.1866
-11.8234
-10.9285
7.93858
5.06114
-10.4808
-11.4907
-11.8669
-14.9398
-13.4724
2.03829
8.58851
0.179648
-10.4644
6.86915
7.20539
2.1918
-9.34288
6.11605
-0.857753
-13.2137
6.45752
3.41839
8.2564
-9.89154
-3.41523
-11.3618
-10.8427
8.17463
2.99173
0.688763
4.8511
-12.2155
-17.2231
8.47362
5.01346
4.83439
9.01138
-14.158
-12.0172
5.14119
-10.8214
7.10793
-11.7185
8.2091
3.93953
4.36532
-5.23954
-11.8995
2.87261
-15.1065
5.94137
6.14504
-4.36678
6.46901
-8.23875
-9.86773
-10.5073
5.01465
7.38693
-3.74495
5.61404
6.85873
4.20438
-11.0026
6.07579
3.16543
-11.6915
-3.73935
3.4569
5.14537
6.45509
6.92831
3.43226
7.22707
-16.0035
8.30058
4.98279
-10.6316
-17.0393
-6.15782
5.41088
5.38984
-0.213541
9.25915
-10.9876
3.48728
3.33266
-10.9459
5.55774
4.61316
2.06759
3.90114
-11.3939
8.27597
7.76381
8.13723
-2.25896
-2.14116
-13.0095
4.43083
-13.4045
6.17414
6.05574
5.78745
-10.8218
-10.5986
6.99438
-9.95438
9.2481
-10.6746
5.18808
-11.2273
3.70345
3.97097
6.69868
-1.13061
-6.16573
5.14431
8.13383
-16.3746
8.74683
7.8582
4.54575
8.08751
5.18625
-10.7989
6.25537
5.37138
-9.34183
3.14874
-9.97838
9.03074
6.92466
6.75035
9.58301
7.00065
3.387
-12.9391
9.47131
2.73268
8.69671
4.77208
0.128948
-10.668
7.6872
8.28549
5.59928
6.87046
8.82215
6.89568
-10.4095
8.25248
-16.7118
5.81977
-4.65776
-11.4782
3.12982
-15.8553
5.79072
-12.3706
-11.6343
-10.1552
4.49481
4.82529
3.05634
-11.6359
7.17676
1.03244
6.39432
4.23704
-11.4529
3.3157
7.45354
3.3543
8.68201
8.09959
9.58664
-12.1144
9.7141
-14.1933
7.88103
6.93585
8.26943
8.00572
-15.3841
9.27972
-16.2823
-12.2421
3.73806
6.77068
-11.2771
-11.1576
8.75052
8.64663
7.53684
6.56924
8.19051
3.15003
-11.4749
5.25093
9.03804
-15.1525
4.40118
1.38732
-5.58685
7.99525
3.66273
8.35677
3.19783
-11.4462
2.58899
-13.765
7.62421
3.18648
6.88863
-13.1702
-13.3695
7.78406
9.01394
-13.077
7.8734
3.41595
-10.6163
-11.8388
9.42565
8.47684
9.27358
2.9883
-12.7662
4.21914
9.4684
-12.9592
-10.733
8.84083
7.42682
3.88928
9.20222
5.01751
-15.9297
4.45572
-10.9821
4.57642
8.01416
3.95573
-15.4039
6.85007
-12.1835
-10.8993
-10.2648
-12.9392
-11.9445
8.0337
6.3187
-12.7667
-14.8159
4.68569
8.31102
5.12136
3.20056
7.293
4.30963
4.9451
-8.82587
3.67922
3.10277
-5.25863
3.34425
5.03066
5.60751
-10.2143
9.00971
-12.3064
-11.6153
3.34156
7.28903
5.04121
6.85441
5.06418
-12.7278
2.06399
8.03059
4.70017
7.29736
-10.7243
-13.0898
6.22958
5.52909
3.6905
8.67682
3.71195
3.0394
8.56785
3.32656
2.28894
-11.6064
8.34113
6.04134
-6.78911
5.24653
4.16157
6.18753
3.26302
4.99054
7.47996
-15.9789
5.69615
5.61083
-10.9476
3.65932
-0.15603
-5.68459
8.24498
4.70819
7.97687
-8.39411
6.03311
-13.9623
8.49953
-5.09263
-13.5075
-17.6011
-11.6976
9.32901
4.19956
-15.8753
-12.8858
3.29246
6.97038
9.44641
-11.869
7.97094
5.96582
9.1846
7.83979
-0.127821
9.31048
3.51724
8.69839
-11.533
-16.5075
7.82265
8.66358
7.51343
7.37978
4.91666
-11.7499
8.51171
1.1937
-13.9657
-16.7788
8.35603
-13.0419
-11.4369
-17.0886
-12.1992
2.36477
-12.1359
-12.4152
-10.2734
8.81449
-10.8833
8.81207
-3.75122
8.96797
8.36101
-13.7648
-8.84516
-11.2636
-11.9382
3.15493
6.98996
-1.93121
-12.7173
9.0048
-12.961
7.06378
-17.1876
8.34566
-11.4313
1.30944
3.42715
5.12365
-17.4362
4.81437
2.03256
-16.8538
7.90533
-11.0078
5.36015
7.05453
-8.05508
-1.53859
5.37339
-15.6797
-7.13965
8.49221
-14.1057
8.69263
8.24875
3.12588
3.71669
-13.0363
-13.5162
8.99401
-13.4278
7.44606
-16.4072
8.77581
7.92699
6.87501
-17.2211
-0.502832
-10.6032
6.29828
-10.6106
4.20104
-14.1839
-12.6127
1.1639
7.39779
-12.0331
6.67754
5.81548
8.00588
-11.7952
-12.9045
4.23822
-13.6268
5.77719
5.14741
-2.45972
6.10554
4.77653
-14.121
8.00275
8.36521
9.35497
4.89933
7.0864
8.7651
-13.617
-11.878
5.12334
8.46765
5.56925
-13.1913
-11.5318
4.44291
2.62634
3.23974
-13.8575
2.57615
-0.610613
-14.539
4.08281
-14.834
-12.7366
4.29831
4.55976
8.48182
8.41949
3.84913
6.10005
3.36588
3.06473
-12.5054
6.70423
-13.2472
4.42849
-12.2275
7.53928
-9.88084
1.16791
-15.8175
-11.5102
3.41614
1.47359
6.43229
6.67152
6.29007
-11.1671
-10.7508
8.24273
8.39343
5.33229
6.99658
4.77767
5.50211
-12.8516
-10.6259
-15.9348
-13.1422
7.82546
3.88652
-12.7449
7.6462
-11.6346
8.33046
4.28449
3.41603
5.87735
4.43223
6.00067
4.24658
1.4924
-12.9701
-11.7144
8.98308
4.67033
-14.7727
-3.93193
5.01547
-11.2666
-12.7486
-10.2427
6.75475
-16.8402
4.84311
7.98742
8.11002
4.07108
9.3767
-10.8984
-12.142
7.64587
3.15983
-16.8729
5.53981
-12.7487
-9.92942
6.09292
2.8756
7.41942
3.24089
-11.8942
3.7935
-11.6008
3.30381
7.92139
3.27825
7.9452
2.92404
7.62416
6.3521
8.18564
3.75259
5.46701
-13.9885
8.25124
-9.2934
5.5696
5.93677
7.57346
3.31277
5.10105
-6.19624
-12.5063
5.56714
-12.1819
8.70233
-12.7108
7.25336
7.43848
4.33764
3.84465
-11.1639
6.47503
6.23173
-4.02936
-9.90659
6.81359
8.51369
8.46298
7.09834
-3.25555
5.14159
5.41296
-14
4.43916
8.58095
6.33158
-13.3385
5.74982
-11.9193
-12.0186
9.5202
2.52863
7.08358
8.32187
-13.3207
6.15788
8.39626
7.35954
-15.719
3.28402
7.27053
4.17403
-5.5955
-9.63443
3.37228
5.09718
-10.5539
8.32812
-1.34871
-12.0031
6.61313
-0.194254
-11.6152
8.12903
-12.3134
8.27687
5.87414
7.89916
4.44694
-8.10468
-10.3199
7.03737
8.53163
-12.2364
6.54383
7.25891
8.71524
2.67567
-2.8463
3.99502
3.6213
8.69747
5.67989
3.79032
6.00545
3.30699
7.9004
-9.86563
-15.2376
3.69601
-12.9016
3.34813
-13.9253
-11.4029
-14.9088
-10.4484
9.5431
8.0301
-15.0529
7.50699
7.54241
-10.9932
5.71254
3.69898
-11.9191
-15.7816
7.05772
-10.0599
3.65657
-11.426
3.4318
8.72642
-4.2313
3.10335
-13.7329
6.02367
8.6871
2.91422
6.01378
-7.4988
1.22431
7.30753
-12.4748
3.05086
-12.2851
3.28137
-13.2485
6.52656
8.19891
4.97952
8.76948
-16.2191
-9.85983
-14.7847
3.57926
-13.389
-10.8716
9.16479
-17.0101
0.441431
8.84756
-16.2324
-11.0563
6.52391
3.38338
3.49786
-13.1388
4.61033
9.19123
-11.3898
-14.5702
2.88776
-12.8166
-11.7438
4.81934
3.18032
-2.61305
3.31024
-15.6892
3.40529
8.2436
4.56016
-10.4903
3.72188
-0.649375
-12.187
4.15797
-0.479892
-7.58465
8.2118
-11.6575
8.15325
-16.5322
6.90863
4.58374
5.76028
8.25261
5.16843
5.63561
8.14389
3.41696
9.4245
-12.5976
-14.6486
5.07346
-17.0211
3.75578
4.69111
6.54454
7.24177
5.86026
-6.38758
9.22297
-3.49666
-12.6713
-5.31039
-14.6461
9.28692
6.89506
-12.3452
7.66253
3.43639
6.29273
4.62795
5.17472
-10.3204
7.62285
8.29729
3.94805
3.23073
3.14332
-4.61115
0.149874
-1.55645
-13.2083
5.00224
4.39956
4.72522
6.17487
3.94903
4.95126
3.23389
4.64767
7.28961
7.32479
9.21521
-1.69373
-12.6265
-11.9184
3.3228
7.80123
-0.900768
-10.2685
-11.1363
3.63368
5.09508
2.62888
8.4215
4.086
3.31512
-10.6944
-0.235198
4.27082
5.51927
6.13214
3.48554
-12.1736
4.02879
6.81845
4.62168
5.93027
-11.4303
8.65034
-7.5183
9.56749
3.38809
3.61781
8.08785
-11.2659
1.12227
6.69057
-12.8758
-14.2938
2.06487
8.92546
5.99217
-10.4771
-13.4295
-13.0262
4.96513
-16.7739
8.2508
9.7918
-10.2641
-11.0572
4.3052
5.24318
-1.24289
-3.73263
7.78231
3.80503
-11.0491
4.46313
9.52684
6.21048
7.63708
4.83482
8.81664
8.46116
8.18635
-12.754
7.02335
3.90636
3.51685
7.85429
1.67834
3.38951
-16.4022
-0.252965
0.0324019
8.09266
7.67817
6.60079
9.49646
6.25347
4.48071
-14.7942
8.07336
3.42439
9.03941
0.248904
5.6933
3.68975
8.35528
-12.3778
3.90764
-14.1894
6.69971
9.67695
7.73689
6.52174
8.35892
-11.4623
7.07062
3.51949
7.55682
7.44955
-10.702
5.00802
8.17078
-13.3345
-13.172
4.0137
-11.3515
8.43408
-12.8693
8.75002
-13.5145
8.9485
-2.68576
4.91855
-11.7803
3.08335
-9.91497
-10.0701
-10.5831
2.41073
-13.1696
4.81744
3.90394
4.99322
-11.6552
8.16164
3.54548
-16.5011
-10.8674
-12.1655
7.83231
-13.2164
3.66987
6.27079
4.1837
0.742179
8.4241
-5.25289
7.05498
5.7091
8.31118
9.27938
7.17172
-13.9212
8.25974
8.65709
-10.9662
0.436511
3.73355
4.99298
-10.6365
7.48473
7.75804
-12.2943
7.40925
-4.61136
-2.81521
7.68746
3.22555
-17.6736
5.27587
7.14072
8.71198
4.13956
7.46072
5.57643
-12.9285
3.84673
-11.2626
2.83217
3.32244
-11.1812
0.953165
2.49916
8.1175
3.95141
5.66463
3.86533
-14.0794
-11.8914
8.37851
6.62429
5.34493
-10.491
3.36219
-0.630519
3.80966
3.33203
7.75718
8.37726
-1.89348
3.33297
-14.1162
-11.7406
8.49184
-8.90228
9.24578
-14.0833
0.75076
4.29589
7.07615
3.35515
7.00511
6.17561
-10.0832
-7.5692
-13.2873
-11.1023
-16.5606
7.37725
3.90701
-3.90257
3.97569
-2.26434
-12.8273
8.16975
-10.6334
-14.8425
-9.90331
7.94894
3.78065
5.02122
7.70953
-13.1669
8.72726
-12.3858
8.05177
9.40076
3.367
-10.9042
-11.2215
5.28546
9.21911
9.25497
7.15456
6.58315
0.0474553
-15.4738
6.79202
4.65933
-11.6767
8.33035
-12.3854
8.066
5.32462
8.00847
-11.3752
7.59722
5.2634
8.36678
8.55475
3.01059
5.91732
-10.9547
3.15416
5.33133
6.54308
4.89745
-15.9355
4.62924
3.80022
-6.13645
-11.5461
3.30936
-13.5338
8.22212
-10.8128
-16.4962
7.78053
3.06131
6.32936
5.6645
3.58489
-14.821
0.569556
7.30682
4.57834
-7.15823
-8.51762
-9.15736
-14.5946
1.89744
8.4515
-11.7235
3.3125
4.47262
4.79945
7.53291
-15.8001
-12.7408
6.57836
-13.7864
7.53098
-15.1267
-3.85852
-10.7492
-13.1863
-10.6523
2.8747
3.06186
8.66428
3.33119
-16.6871
-5.01788
8.96795
0.171643
3.65572
-11.6631
8.06625
-3.86179
-7.60563
-10.6405
3.30903
-11.5038
2.73232
-13.2385
-11.5166
8.71936
3.77121
6.52378
8.76276
5.6843
-4.48551
8.56198
5.95108
-12.3457
3.61659
2.37852
3.10716
6.54553
8.42162
-13.7791
-13.3207
2.77102
-10.7971
4.94581
7.77631
6.48866
-11.7742
-13.1512
-12.1576
5.96678
7.724
7.02808
-11.0225
2.7948
0.254872
5.36795
-12.7831
5.8142
2.86887
-16.3578
7.92879
9.43662
3.37078
3.50275
5.07485
8.89466
-5.45395
5.94013
7.95009
-12.0523
6.00889
-9.94524
-10.5004
2.97636
-5.76536
8.54324
-10.5089
8.66629
-10.547
4.65875
7.62232
8.59399
8.58642
7.0119
2.02681
9.13083
-15.9031
6.22179
7.95011
6.57668
-13.115
7.64396
7.85942
5.95815
-13.5422
5.2799
-10.164
-10.6397
8.68266
8.10147
-1.79482
-13.08
-15.6908
-1.67481
9.10432
3.39007
-13.5314
-11.7966
-11.0126
-9.97575
7.91976
6.66816
5.60858
3.08502
9.29201
8.43604
7.37438
3.73453
8.15524
-15.7879
6.91929
-14.0495
7.29894
5.48378
-7.27806
5.61677
-15.8609
3.20789
3.98579
5.11211
5.0272
9.20233
3.94827
-4.63895
1.6023
5.81892
-2.53414
-12.931
-10.4101
9.25118
1.60068
-10.844
-13.2532
-12.5676
-12.9521
-10.0289
8.77128
6.96869
6.18437
4.65001
-14.4166
-12.7326
3.63348
9.02136
3.1467
8.72997
-9.8955
5.78988
-14.4869
4.75445
3.77178
5.48663
-11.2694
5.75325
-17.573
-11.3551
2.7515
2.96805
5.51814
8.48088
3.37638
4.53771
-3.75544
8.37129
8.38134
5.57698
8.33213
2.97543
-11.9398
-0.600617
-5.89779
-8.23499
-13.1511
-12.436
3.21735
7.2257
-10.7329
9.15248
5.03047
-16.7975
8.20488
8.1983
6.77416
-5.55714
-12.5168
6.4711
7.52339
7.44608
-12.8109
5.85956
-14.5131
-13.3584
-17.1334
-14.0208
-10.3099
-12.0852
-13.4913