/*--------------------------------*- C++ -*----------------------------------*\
  =========                 |
  \\      /  F ield         | OpenFOAM: The Open Source CFD Toolbox
   \\    /   O peration     | Website:  https://openfoam.org
    \\  /    A nd           | Version:  10
     \\/     M anipulation  |
\*---------------------------------------------------------------------------*/
FoamFile
{
    format      ascii;
    class       surfaceScalarField;
    location    "1750";
    object      phi;
}
// * * * * * * * * * * * * * * * * * * * * * * * * * * * * * * * * * * * * * //

dimensions      [0 3 -1 0 0 0 0];

internalField   nonuniform List<scalar> 
16133
(
3.20648
1.48255
-1.87815
-2.81092
-2.80061
2.80335
-3.10312
3.10039
-0.856664
-3.31483
2.60234
1.56917
0.799629
-1.19114
-5.10678
5.49832
-1.31604
0.529916
5.41144
-4.62531
4.32941
1.45492
-5.67501
-0.10931
-3.75695
1.16651
2.23678
0.353658
-0.0270758
-3.91661
0.981103
2.96259
-2.20163
3.42917
2.32768
-3.55522
0.517488
3.54984
0.0072604
-4.07458
3.65331
-3.41003
2.66311
-2.90639
5.12458
-2.30989
2.22873
-5.04341
-0.232813
-3.71357
2.2324
1.71397
1.20145
-0.979185
1.05075
-1.27302
1.3861
1.25151
-1.43616
-1.83962
1.38576
-4.25245
4.70632
-1.04715
0.876109
-0.808146
-4.6832
1.04991
3.39886
0.234428
-5.93073
4.80382
-1.07471
1.30819
3.61145
-1.71314
-0.824598
3.25374
-2.73795
0.308818
0.496598
-4.86844
5.17148
-4.50794
4.46359
-1.79527
7.96718
-6.50656
-0.303794
-1.15682
-4.22977
5.04845
-0.301188
-0.00297574
0.00328467
-0.0862273
0.0859183
0.0478532
-0.00495854
-0.0300881
-0.0128064
-0.187381
-2.25047
2.02529
0.412562
-0.0270413
0.0502792
-0.00944374
-0.0137941
-3.68229
2.54893
3.50053
-1.07766
-5.37056
2.9477
-2.63553
2.64151
3.64734
1.27749
-3.60086
2.29629
-0.0584349
0.148844
0.0161095
-0.106519
-3.64123
-3.57201
3.6561
3.55714
-1.76941
3.02774
2.01321
-3.27155
-2.86432
-5.35369
4.57678
-0.0657091
0.100601
-0.116803
0.0819109
0.0505291
0.106617
-0.0273355
-0.12981
-5.82358
1.01269
-1.11983
-3.80244
0.12741
-3.71903
-0.894581
-1.29218
-0.589304
0.209307
1.67217
-1.89422
4.57953
1.45862
-4.14392
4.99882
-2.11873
-5.74441
3.31935
-1.17576
0.493621
0.0333522
-0.551175
-0.519233
0.829679
0.240728
2.72771
1.55036
-0.848896
5.00178
-4.62934
0.124166
-2.00486
-2.73634
-4.99043
5.16351
-3.9423
3.76922
0.145831
0.0488599
-0.144162
-0.0226739
0.036136
0.0374272
-0.0508893
-0.0194993
0.0597158
0.0664002
-0.0122127
-0.0156001
0.000771541
5.16151
-2.6642
-7.851
-0.0908583
-0.0963801
0.147307
0.0399311
-0.528207
0.836862
-0.737384
0.42873
4.90886
0.089259
0.0196776
0.0368944
2.85403
-2.36947
-3.28517
0.108679
0.00807872
-0.015888
-0.100869
2.3334
-4.56282
4.18469
-1.95526
2.36053
-1.86964
-4.05645
2.57469
-1.83308
-0.473644
-0.318901
0.264338
-0.0417221
0.36348
-0.00620324
-0.315553
1.26047
2.97437
-5.68218
0.272114
-1.09649
0.0217672
0.00213716
-0.0465783
0.129258
-0.0391796
0.0144541
-0.104532
-1.34671
0.700225
2.34796
-1.70148
2.2037
-3.40507
-2.85508
1.32968
-1.94571
2.00215
-1.36
-1.55889
1.78908
1.12982
-6.56857
1.86905
-0.982668
-2.34023
1.4685
2.03824
-2.33759
2.20527
1.4098
1.69503
-1.46597
1.10062
5.57989
-5.2625
0.0744757
-0.391847
2.72003
-2.33473
-1.587
1.20171
0.06357
0.14385
-0.15856
0.0464745
0.0445665
-0.054905
6.22625
-0.0208026
-0.625544
-3.01197
2.58971
2.26572
-1.84345
2.90366
-2.53754
-2.7179
2.35179
4.50786
-4.04125
-2.36083
1.69798
-0.777187
1.15167
-2.07245
3.26579
-2.66817
2.30605
5.03456
1.81943
-2.34612
6.43056
-2.58713
3.08234
1.12023
2.15717
-2.32344
1.86427
3.67409
-2.46592
2.05764
-3.36228
-1.4191
0.768722
5.36129
0.300571
0.909653
-1.52956
-1.32579
0.905214
-0.660943
0.592594
-4.81292
5.20742
-0.234318
-0.160161
2.02519
-1.89272
3.91475
-3.9484
1.17149
-1.13784
2.20935
-2.35005
1.9829
0.741161
4.00329
-0.829699
1.29219
3.40091
0.989635
-0.10655
-0.154161
-1.06218
8.11557
-0.827135
1.82797
-1.31297
1.18004
-0.806921
-4.20601
0.383606
-3.81899
-1.44545
-2.04278
-1.52048
1.22852
-1.44162
1.22681
-0.183115
-3.86108
-4.38316
-0.387703
4.92333
0.671803
2.57557
-3.72765
-2.71032
4.07714
-5.17944
0.044469
4.74729
2.26602
3.12228
-0.464959
0.962763
-0.199759
-2.12301
2.88624
-2.97884
-1.53817
0.926834
3.79719
-3.18584
-3.17257
3.31637
2.36553
-2.50932
-0.0615151
0.142064
0.0087259
-0.0892745
-0.0524654
1.34896
2.13904
-2.52524
6.28628
-5.08456
-0.0754542
0.0598914
-0.0144647
0.0300275
2.69671
-2.88592
-3.00229
-2.80581
-3.35706
-1.21471
1.00026
-0.0166619
0.141035
0.00488455
-0.0641566
0.179092
0.107349
-0.222284
-1.07143
1.23207
-3.52292
0.323707
5.4752
-3.27435
-3.92808
1.00355
-1.54289
1.22626
-4.13474
5.51654
-0.128189
-0.148563
-0.196892
-0.841243
3.03166
-5.92909
3.73868
5.38864
1.52487
-1.50132
1.52849
-1.55202
3.2477
-3.39229
1.00297
-3.66
-1.35959
0.995676
-0.683246
3.9534
2.00861
-6.80325
-0.6866
0.197994
-0.0625686
-1.93061
-6.478
3.35941
-2.9315
4.61536
2.3697
4.36626
2.25218
-0.217457
0.0545125
0.36111
-0.198166
3.55697
1.91428
-2.15488
0.785298
-2.52391
3.01996
2.82031
-3.31636
7.14302
1.9244
-3.31719
-5.75023
-1.0437
0.879734
-4.39414
4.44852
5.85719
-5.85682
-1.06254
-1.29985
1.98905
4.71595
3.83636
-3.26592
2.57016
-2.90509
-5.34482
0.336575
5.05273
-4.27908
3.39873
-2.5402
3.42056
-4.77257
-5.71933
-0.282836
-3.16164
0.687178
-0.673856
-1.36003
-0.00529041
0.0202971
-0.014521
-0.000485611
-0.975703
0.971022
5.18553
-5.11986
1.94295
-2.14292
-3.48412
-3.3351
-0.924936
0.867986
-0.0646003
0.121553
-3.80755
0.605092
-0.00305474
0.0976069
-0.0442728
-4.37032
-0.301723
-3.98488
2.30621
0.118695
-0.090951
-1.11118
-1.74151
3.13938
-3.7381
3.04317
3.53976
3.98106
4.0415
-3.22911
0.174342
0.0628803
-0.173653
-0.0829514
-0.00916476
1.56513
-3.60461
1.53853
-1.80055
2.84968
-3.33072
-0.679978
1.10947
-1.25472
-2.91215
0.114052
2.68485
1.87702
0.210349
-0.0222084
-0.25385
-2.75227
2.33208
0.220092
-1.07197
1.39618
-2.90824
4.30892
-1.58379
0.0779212
0.114528
0.0301609
-0.0360098
5.54104
-0.295114
-0.0137669
-0.377719
2.94826
2.73207
5.35385
0.0476474
-0.00508463
-1.5108
1.23346
-1.60345
2.1509
0.156554
-0.161232
-0.199391
0.204068
-0.0696501
0.0666744
0.737624
0.0963063
-0.0451112
-0.05425
0.858669
-0.170604
0.179922
0.237168
-0.204558
-0.160799
1.70303
-0.167819
-2.5109
-0.0295302
-0.111763
0.19111
-0.0498177
2.9839
0.0679002
-0.0734157
0.00551546
-0.781332
-2.54583
3.67789
-5.27923
1.90266
1.36621
0.614863
-0.586541
-0.092921
-3.01836
-0.00174993
1.73299
-6.28659
-0.0841231
0.0732959
0.0397393
-0.0289122
-0.610421
-6.42181
-0.113009
-0.0213434
0.104822
-5.10654
-1.04315
-2.76843
5.43329
-3.7039
-0.0323393
-0.168496
0.0890727
0.312507
-0.376991
0.221039
-0.0201111
-0.0251623
0.0330608
-2.32079
2.56025
-1.08354
2.48048
1.48835
-1.11915
-0.00627948
0.000307763
0.00597169
-1.84755
-3.58053
0.00965011
-0.020343
0.0106929
2.13783
-3.44346
0.7798
1.40944
-0.668295
1.16021
0.00556311
0.00408701
0.518068
-0.200065
-0.25602
0.431805
0.24481
-1.84821
2.47864
-0.293126
-0.73098
4.37788
0.204708
-0.0725762
0.0422102
-0.935795
0.217869
-1.18127
1.56785
-2.83572
-0.614055
2.10752
-0.72359
3.66453
0.0616582
0.00501609
1.05322
-4.02256
1.68442
-0.926508
-2.69977
1.21299
1.11375
0.351738
-2.33041
2.49898
-0.202005
-0.0341604
0.0749337
5.44113
-0.0929151
0.0506633
0.0549569
-0.0591458
-0.0765063
0.114378
-3.08836
0.0906192
0.121515
-0.120251
0.0170917
0.0232246
-0.0403164
-1.91927
-3.69207
4.40113
-0.514211
0.161238
0.260151
-2.02683
0.00393097
-0.0102105
-1.805
-5.52474
0.27247
0.0498666
0.0645487
-0.0637522
0.819618
-0.206443
-0.042522
-3.61752
-0.174127
-4.20884
-2.25148
-0.00325123
0.154907
0.374858
-0.1043
-0.541154
-0.0351897
0.0512061
-0.00793756
0.0609492
0.191341
-0.18941
-0.368646
-2.98841
-3.04444
0.0580863
0.00357183
0.19976
-1.97667
0.0588267
1.71271
-0.0750937
0.075375
0.0596843
0.0582399
-0.0680576
0.625588
0.19428
-0.0628608
0.0130213
-0.0224395
-0.00150817
0.00737906
-0.129274
0.222719
-0.077336
0.0162298
0.00799825
0.0608517
-0.00276545
0.0106961
-0.0252171
0.218238
0.04686
0.00840406
-0.0155248
-0.205212
2.30848
-1.65831
1.5551
0.00275446
-0.0723441
-0.0301756
0.279928
-0.469564
-0.700217
1.16403
0.530779
-1.26238
-0.921884
-0.0214382
0.0337032
-0.0574824
0.0455248
-0.0792514
0.0101991
0.0120024
0.020456
-0.00218965
0.0630414
-0.158322
-0.070687
2.4523
-0.0140201
0.0538766
-1.49049
0.458894
-2.08901
-0.795718
-0.122965
0.00323087
-0.0334065
-0.066023
0.0200028
-0.0476368
0.069591
-0.0250024
0.717681
-0.980499
-1.28743
0.76903
-0.0887564
-1.47535
-0.437773
-0.0306329
-0.0221105
-1.49
-0.698397
-0.0405272
-0.0290765
0.0394119
0.158911
-0.594453
0.0503465
0.0228163
-0.0694394
1.86591
-0.0231059
0.0183497
0.0245208
0.101202
2.48301
0.217451
-0.22466
-1.04365
-0.240277
-1.00935
-0.00380002
0.112905
-0.109105
-0.00854604
0.116802
-0.112056
-0.0132391
0.126969
-0.122275
-0.0183952
0.135585
-0.130429
-0.0236805
0.144873
-0.139587
-0.0292721
0.15328
-0.147689
-0.0349775
0.161632
-0.155927
-0.040812
0.169448
-0.163614
0.17685
-0.17123
-0.046432
-0.00351089
0.116416
-0.00772819
0.12102
-0.0120019
0.131242
-0.0166934
0.140277
-0.0214518
0.149631
-0.0264638
0.158292
-0.0315579
0.166726
-0.0367274
0.174618
0.182036
-0.0419129
-0.0034354
0.119852
-0.00704188
0.124626
-0.0108375
0.135038
-0.0149663
0.144406
-0.0191903
0.153855
-0.0235898
0.162692
-0.0280557
0.171192
-0.0325781
0.17914
0.18658
-0.0371219
-0.00316661
0.123018
-0.00632377
0.127783
-0.00965461
0.138369
-0.0132321
0.147983
-0.0169131
0.157536
-0.0207266
0.166505
-0.0245988
0.175064
-0.028536
0.183077
0.190601
-0.0325571
-0.00279997
0.125818
-0.00555643
0.13054
-0.008442
0.141254
-0.0115097
0.151051
-0.0146688
0.160695
-0.0179368
0.169773
-0.0212786
0.178406
-0.0247124
0.186511
0.194154
-0.028266
-0.00236378
0.128182
-0.00474958
0.132925
-0.00722543
0.14373
-0.00983003
0.153656
-0.0125117
0.163377
-0.0152902
0.172552
-0.0181461
0.181262
-0.0211066
0.189472
0.197256
-0.0242083
-0.0017828
0.129965
-0.00388508
0.135028
-0.00601965
0.145865
-0.00823769
0.155874
-0.0105019
0.165641
-0.0128481
0.174898
-0.0152931
0.183707
-0.0178649
0.192044
0.200004
-0.0206124
-0.00107997
0.131045
-0.00303849
0.136986
-0.00490323
0.147729
-0.00678474
0.157755
-0.00869269
0.167549
-0.0106843
0.17689
-0.0127868
0.185809
-0.0150491
0.194306
0.202417
-0.0174622
-0.000586738
0.131631
-0.00241014
0.13881
-0.00399023
0.14931
-0.00555796
0.159323
-0.00715471
0.169146
-0.0088472
0.178582
-0.0106869
0.187649
-0.0127054
0.196325
0.204666
-0.0149544
-0.000584775
0.132216
-0.00213811
0.140363
-0.00334276
0.150514
-0.00457697
0.160557
-0.00589198
0.170461
-0.00736747
0.180057
-0.00903851
0.18932
-0.0109499
0.198236
0.206814
-0.0130984
-0.00088417
0.1331
-0.00201843
0.141497
-0.00282188
0.151318
-0.00375966
0.161495
-0.00485958
0.171561
-0.00619622
0.181394
-0.00779164
0.190915
-0.00969389
0.200138
0.209059
-0.0119391
-0.000958152
0.134058
-0.00165544
0.142194
-0.00220332
0.151865
-0.00295819
0.16225
-0.00395715
0.17256
-0.00522971
0.182667
-0.00681524
0.192501
-0.00871488
0.202038
0.211386
-0.0110415
-0.000497879
0.134556
-0.000893965
0.14259
-0.00136977
0.152341
-0.00209629
0.162976
-0.00310145
0.173565
-0.00442403
0.183989
-0.00609299
0.19417
-0.00814626
0.204091
0.213811
-0.0105708
0.00027563
0.134281
9.90881e-05
0.142767
-0.000394157
0.152834
-0.00117117
0.163753
-0.00225188
0.174645
-0.00367804
0.185415
-0.0054751
0.195967
-0.00768258
0.206299
0.216431
-0.0103035
0.00106261
0.133218
0.00109065
0.142739
0.000581803
0.153343
-0.0002609
0.164596
-0.00143296
0.175817
-0.00296516
0.186948
-0.00490545
0.197907
-0.00730909
0.208703
0.219309
-0.0101865
0.00144521
0.131773
0.00178739
0.142397
0.00135441
0.153776
0.000531457
0.165419
-0.000656131
0.177005
-0.00223594
0.188527
-0.00425428
0.199926
-0.00676039
0.211209
0.222331
-0.00978231
0.00121971
0.130553
0.00194635
0.14167
0.0017808
0.153942
0.00113712
0.166062
6.0135e-05
0.178082
-0.00146185
0.190049
-0.00347713
0.201941
-0.00601025
0.213742
0.225469
-0.0091485
0.000782327
0.129771
0.00175706
0.140695
0.00195369
0.153745
0.00161147
0.166404
0.000758702
0.178935
-0.0006186
0.191427
-0.00256601
0.203889
-0.00513536
0.216311
0.228719
-0.00838572
0.000515415
0.129255
0.00159534
0.139615
0.00210969
0.153231
0.0021113
0.166403
0.00157144
0.179475
0.000459518
0.192539
-0.00127726
0.205625
-0.00368883
0.218723
0.231861
-0.00683101
0.000474588
0.128781
0.00163634
0.138454
0.00242355
0.152443
0.00277991
0.166046
0.00260601
0.179649
0.00184878
0.193296
0.000449124
0.207025
-0.00164862
0.22082
0.234702
-0.00448931
0.000551116
0.128229
0.00188973
0.137115
0.0029667
0.151366
0.00369335
0.16532
0.00392839
0.179413
0.00358575
0.193639
0.00258008
0.208031
0.000797611
0.222603
0.237364
-0.00186475
0.000766399
0.127463
0.00238246
0.135499
0.00378586
0.149963
0.0049001
0.164205
0.00559233
0.178721
0.00575757
0.193473
0.00529214
0.208496
0.00402357
0.223871
0.239547
0.00184112
0.00134579
0.126117
0.00320159
0.133643
0.00490154
0.148263
0.00638625
0.162721
0.00755732
0.17755
0.00829745
0.192733
0.00851099
0.208283
0.00790192
0.22448
0.241335
0.00611335
0.00237846
0.123739
0.00434607
0.131675
0.00625814
0.146351
0.00809865
0.16088
0.00975392
0.175895
0.0110889
0.191398
0.0120953
0.207276
0.0122976
0.224278
0.242823
0.0108101
0.00348806
0.00535315
0.00754223
0.00986266
0.0121049
0.0140929
0.0161569
0.0181514
0.0206977
-0.0867139
-0.00123915
0.0879531
-0.0853318
-0.00138208
-0.0837987
-0.00153315
-0.0821021
-0.00169659
-0.080236
-0.00186607
-0.0781929
-0.00204317
-0.0759661
-0.00222679
-0.0735534
-0.00241265
-0.0709491
-0.00260435
-0.0681542
-0.00279491
-0.0651679
-0.00298622
-0.0619922
-0.00317576
-0.05863
-0.0033621
-0.0550821
-0.00354797
-0.0513536
-0.00372847
-0.047447
-0.00390656
-0.0433705
-0.00407649
-0.0391322
-0.00423823
-0.034747
-0.00438522
-0.0302349
-0.0045121
-0.0256261
-0.00460872
-0.0209661
-0.00466003
-0.0163167
-0.0046494
-0.0117536
-0.00456307
-0.00734999
-0.00440356
-0.00307406
-0.00427592
0.00120289
-0.00427692
0.00560401
-0.00440111
0.0102742
-0.00467014
0.0152433
-0.00496913
0.0203929
-0.00514962
0.0256235
-0.00523054
0.0308711
-0.00524755
0.0360808
-0.0052097
0.0412042
-0.00512342
0.0462037
-0.00499951
0.0510481
-0.00484435
0.0557111
-0.004663
0.0601755
-0.00446436
0.0644279
-0.00425238
0.0684632
-0.00403533
0.0722816
-0.00381844
0.075885
-0.00360335
0.0792805
-0.00339547
0.0824725
-0.00319199
0.085471
-0.0029985
0.0882796
-0.00280859
0.090906
-0.00262643
0.0933521
-0.00244605
0.0956189
-0.00226674
0.0977122
-0.00209337
0.0996374
-0.00192516
0.101406
-0.00176896
0.103024
-0.00161766
0.104498
-0.0014739
0.105836
-0.00133761
0.107042
-0.00120657
0.108131
-0.0010892
-0.000973977
-0.0864648
-0.00251007
0.0877357
-0.0850964
-0.00275048
-0.0836214
-0.00300818
-0.0820302
-0.00328782
-0.0803167
-0.00357953
-0.0784673
-0.00389255
-0.0764752
-0.0042189
-0.0743265
-0.00456137
-0.0720127
-0.00491814
-0.0695237
-0.00528389
-0.0668499
-0.00565997
-0.0639841
-0.00604156
-0.0609174
-0.00642882
-0.0576498
-0.00681555
-0.0541783
-0.00719994
-0.050504
-0.00758093
-0.0466306
-0.00794983
-0.042566
-0.00830279
-0.0383175
-0.00863371
-0.0338978
-0.00893183
-0.0293185
-0.00918798
-0.0245854
-0.00939314
-0.019694
-0.00954083
-0.014618
-0.00963902
-0.009314
-0.00970755
-0.00379807
-0.00979185
0.00183566
-0.00991064
0.00750103
-0.0100665
0.0130882
-0.0102573
0.0185774
-0.0104583
0.0240257
-0.0105979
0.0294466
-0.0106514
0.0348191
-0.0106201
0.0401182
-0.0105087
0.0453131
-0.0103183
0.0503751
-0.0100615
0.0552762
-0.00974545
0.0599974
-0.00938416
0.0645189
-0.00898588
0.0688286
-0.00856203
0.0729153
-0.0081221
0.0767692
-0.00767224
0.0803898
-0.00722399
0.0837742
-0.00677984
0.0869247
-0.00634247
0.0898457
-0.00591953
0.0925461
-0.00550901
0.0950305
-0.00511075
0.0973142
-0.0047298
0.0994107
-0.00436315
0.101336
-0.00401895
0.103104
-0.00369325
0.104725
-0.00338953
0.106214
-0.00310711
0.10758
-0.00283964
0.108838
-0.00259557
0.109996
-0.00236413
0.111064
-0.0021573
-0.00196644
-0.0945628
-0.00393212
0.0959848
-0.0930303
-0.00428297
-0.0913795
-0.00465894
-0.0896075
-0.00505981
-0.0876988
-0.00548827
-0.0856461
-0.00594524
-0.0834388
-0.00642621
-0.0810698
-0.00693038
-0.0785277
-0.0074602
-0.0758025
-0.00800916
-0.0728851
-0.00857731
-0.0697685
-0.00915822
-0.0664468
-0.00975047
-0.0629142
-0.0103482
-0.0591662
-0.0109479
-0.055206
-0.0115411
-0.0510299
-0.0121259
-0.0466427
-0.01269
-0.042048
-0.0132284
-0.0372498
-0.0137301
-0.0322493
-0.0141884
-0.0270486
-0.0145939
-0.0216449
-0.0149445
-0.0160401
-0.0152438
-0.0102481
-0.0154996
-0.00430881
-0.0157311
0.00173194
-0.0159514
0.00782844
-0.016163
0.0139282
-0.016357
0.0199804
-0.0165106
0.0259728
-0.0165903
0.0318972
-0.0165757
0.0377369
-0.0164598
0.0434687
-0.0162406
0.0490733
-0.0159229
0.0545272
-0.0155155
0.0598086
-0.0150268
0.0648984
-0.014474
0.069781
-0.0138684
0.0744396
-0.0132206
0.0788655
-0.012548
0.0830518
-0.0118585
0.0869936
-0.0111658
0.0906876
-0.0104738
0.0941414
-0.00979629
0.0973545
-0.00913259
0.100336
-0.008491
0.103098
-0.00787279
0.105652
-0.00728296
0.10801
-0.00672119
0.110183
-0.00619259
0.112183
-0.00569319
0.114022
-0.00522837
0.115707
-0.00479224
0.117253
-0.0043855
0.11867
-0.0040127
0.119977
-0.00367057
0.121175
-0.00335558
-0.00306695
-0.101149
-0.00539716
0.102614
-0.09957
-0.00586226
-0.0978633
-0.00636568
-0.0960207
-0.0069024
-0.0940353
-0.00747374
-0.0918973
-0.00808324
-0.0895973
-0.00872617
-0.0871208
-0.00940689
-0.0844616
-0.0101194
-0.0816088
-0.010862
-0.0785538
-0.0116323
-0.0752825
-0.0124295
-0.0717904
-0.0132425
-0.0680662
-0.0140724
-0.0641084
-0.0149057
-0.0599083
-0.0157413
-0.0554671
-0.0165671
-0.0507843
-0.0173728
-0.0458618
-0.0181509
-0.0407022
-0.0188896
-0.0353091
-0.0195815
-0.0296858
-0.0202172
-0.0238384
-0.0207919
-0.017781
-0.0213013
-0.0115324
-0.0217482
-0.00512514
-0.0221383
0.00139398
-0.0224705
0.0079746
-0.0227436
0.0145661
-0.0229485
0.0211262
-0.0230707
0.0276272
-0.0230913
0.0340482
-0.0229968
0.0403672
-0.0227788
0.0465634
-0.0224368
0.0526119
-0.0219713
0.0584924
-0.021396
0.0641847
-0.0207191
0.0696628
-0.0199521
0.0749096
-0.0191152
0.0799128
-0.0182239
0.08466
-0.0172952
0.089143
-0.0163415
0.0933567
-0.0153796
0.0973014
-0.0144185
0.100975
-0.01347
0.10439
-0.0125475
0.107549
-0.0116503
0.110469
-0.0107926
0.113155
-0.00996941
0.115628
-0.0091937
0.117898
-0.00846244
0.119981
-0.00777629
0.121886
-0.00713368
0.123633
-0.00653952
0.125236
-0.00598815
0.126707
-0.0054839
0.128056
-0.00501923
0.129292
-0.00459128
-0.00420463
-0.109807
-0.00699917
0.111409
-0.108069
-0.00760022
-0.106192
-0.00824275
-0.104166
-0.00892821
-0.101982
-0.00965785
-0.0996322
-0.0104333
-0.0971026
-0.0112559
-0.0943886
-0.0121208
-0.091478
-0.01303
-0.0883608
-0.0139793
-0.085027
-0.014966
-0.0814682
-0.0159883
-0.0776751
-0.0170357
-0.0736425
-0.0181049
-0.0693603
-0.0191879
-0.0648262
-0.0202753
-0.0600373
-0.021356
-0.0549903
-0.0224198
-0.0496892
-0.0234521
-0.0441334
-0.0244454
-0.0383315
-0.0253834
-0.0322901
-0.0262585
-0.0260218
-0.0270602
-0.0195424
-0.0277807
-0.012877
-0.0284136
-0.00605991
-0.0289554
0.000870333
-0.0294007
0.00787196
-0.0297452
0.0149017
-0.0299783
0.0219192
-0.0300881
0.0288901
-0.0300622
0.0357832
-0.0298899
0.0425691
-0.0295647
0.0492226
-0.0290904
0.0557193
-0.0284681
0.06203
-0.0277066
0.0681319
-0.026821
0.0740049
-0.0258252
0.0796293
-0.0247396
0.0849924
-0.023587
0.0900782
-0.0223809
0.0948844
-0.0211477
0.0994037
-0.0198989
0.103639
-0.0186541
0.107595
-0.017426
0.111274
-0.0162265
0.11469
-0.0150662
0.11785
-0.0139524
0.120768
-0.0128873
0.123455
-0.0118808
0.125927
-0.0109338
0.128196
-0.0100459
0.130282
-0.00921952
0.132192
-0.00844988
0.133944
-0.00774021
0.135548
-0.00708717
0.137015
-0.00648698
0.13836
-0.00593623
-0.0054316
-0.11789
-0.00868245
0.119573
-0.116065
-0.0094252
-0.114093
-0.0102147
-0.111961
-0.0110602
-0.109656
-0.0119629
-0.107173
-0.0129168
-0.104498
-0.0139305
-0.10162
-0.0149986
-0.0985279
-0.0161223
-0.0952128
-0.0172943
-0.0916628
-0.0185161
-0.0878694
-0.0197817
-0.0838207
-0.0210843
-0.0795085
-0.0224172
-0.0749272
-0.0237692
-0.0700718
-0.0251307
-0.0649385
-0.0264894
-0.0595316
-0.0278267
-0.0538499
-0.0291338
-0.0479001
-0.0303952
-0.0416868
-0.0315968
-0.0352232
-0.0327221
-0.0285231
-0.0337603
-0.0216075
-0.0346963
-0.0145045
-0.0355167
-0.00724736
-0.0362125
0.00012575
-0.0367739
0.00757619
-0.0371957
0.0150635
-0.0374656
0.0225477
-0.0375723
0.029993
-0.0375075
0.0373619
-0.0372588
0.0446225
-0.0368252
0.0517457
-0.0362136
0.0586994
-0.0354217
0.0654585
-0.0344657
0.0719963
-0.0333588
0.0782813
-0.0321101
0.0842973
-0.0307556
0.0900258
-0.0293155
0.0954585
-0.0278136
0.100584
-0.0262728
0.105402
-0.0247173
0.10991
-0.0231626
0.114116
-0.0216313
0.118023
-0.020134
0.121641
-0.018684
0.124981
-0.0172919
0.128058
-0.0159644
0.130885
-0.0147084
0.133481
-0.01353
0.13586
-0.0124239
0.138036
-0.0113957
0.140027
-0.0104415
0.14185
-0.00956324
0.143513
-0.00875012
0.145032
-0.00800545
0.146422
-0.00732626
-0.00669863
-0.126878
-0.010485
0.12868
-0.124921
-0.0113819
-0.1228
-0.0123352
-0.120506
-0.0133543
-0.118028
-0.0144407
-0.115353
-0.0155926
-0.112469
-0.0168138
-0.109365
-0.0181027
-0.106034
-0.0194532
-0.102461
-0.0208681
-0.0986377
-0.0223389
-0.0945564
-0.0238631
-0.090204
-0.0254367
-0.0855733
-0.0270479
-0.0806583
-0.0286841
-0.0754547
-0.0303344
-0.0699561
-0.0319881
-0.0641734
-0.0336094
-0.0581044
-0.0352027
-0.0517585
-0.0367411
-0.0451384
-0.0382169
-0.0382601
-0.0396004
-0.0311403
-0.0408802
-0.0237958
-0.0420407
-0.0162635
-0.043049
-0.00857486
-0.0439012
-0.000770505
-0.0445782
0.0071167
-0.0450829
0.0150486
-0.0453975
0.022984
-0.0455078
0.0308894
-0.0454129
0.0387179
-0.0450872
0.0464358
-0.0445432
0.0540145
-0.0437923
0.0614145
-0.0428217
0.068614
-0.0416652
0.0755833
-0.0403281
0.0822751
-0.038802
0.0886804
-0.037161
0.094779
-0.0354141
0.100564
-0.0335982
0.106021
-0.0317298
0.111149
-0.0298461
0.115947
-0.0279599
0.120422
-0.0261068
0.124579
-0.0242913
0.128429
-0.0225332
0.131978
-0.0208409
0.135244
-0.0192304
0.138243
-0.0177073
0.140987
-0.016274
0.143502
-0.0149393
0.145799
-0.0136929
0.147897
-0.0125396
0.149811
-0.0114769
0.151558
-0.0104971
0.153152
-0.00959921
0.154604
-0.00877837
-0.00802146
-0.135799
-0.0123981
0.137712
-0.133731
-0.0134504
-0.131493
-0.0145725
-0.129066
-0.0157813
-0.126444
-0.0170628
-0.123607
-0.0184303
-0.120552
-0.0198688
-0.117254
-0.0214004
-0.113698
-0.0230092
-0.109896
-0.0246702
-0.105824
-0.0264106
-0.101473
-0.0282139
-0.0968358
-0.0300742
-0.0918987
-0.031985
-0.0866588
-0.033924
-0.0811049
-0.0358883
-0.0752304
-0.0378625
-0.0690674
-0.0397724
-0.0626131
-0.0416571
-0.0558702
-0.043484
-0.0488363
-0.0452508
-0.0415388
-0.0468979
-0.033998
-0.048421
-0.0262024
-0.0498363
-0.0182272
-0.0510242
-0.0100905
-0.0520379
-0.00185065
-0.052818
0.00648414
-0.0534177
0.0148705
-0.0537839
0.0232616
-0.0538988
0.0316386
-0.0537899
0.0399261
-0.0533747
0.0480955
-0.0527126
0.0561443
-0.0518411
0.063987
-0.0506644
0.0716343
-0.0493125
0.0790719
-0.0477657
0.0861754
-0.0459055
0.0929745
-0.04396
0.0994516
-0.0418912
0.105593
-0.0397391
0.111394
-0.037531
0.116827
-0.0352797
0.121905
-0.033037
0.126656
-0.0308581
0.131047
-0.0286828
0.135121
-0.0266069
0.138871
-0.0245906
0.142294
-0.0226538
0.145421
-0.0208345
0.148275
-0.0191273
0.150877
-0.0175417
0.153247
-0.0160625
0.155402
-0.0146956
0.157364
-0.0134383
0.159151
-0.0122845
0.160776
-0.011224
0.16226
-0.0102624
-0.0093751
-0.145315
0.147341
-0.0144234
-0.143116
-0.0156503
-0.140739
-0.0169487
-0.138154
-0.0183663
-0.135359
-0.0198586
-0.132316
-0.0214726
-0.129025
-0.02316
-0.125517
-0.0249088
-0.121749
-0.0267765
-0.117636
-0.0287839
-0.113276
-0.0307698
-0.108622
-0.0328685
-0.103624
-0.0350717
-0.0983604
-0.0372489
-0.0927469
-0.0395375
-0.086878
-0.0417572
-0.0806924
-0.0440481
-0.0741582
-0.0463066
-0.0672592
-0.0485561
-0.0600958
-0.0506474
-0.0526305
-0.0527161
-0.0449501
-0.0545784
-0.0370169
-0.0563542
-0.0287668
-0.0580864
-0.0203431
-0.059448
-0.0117724
-0.0606085
-0.003128
-0.0614625
0.00566429
-0.0622099
0.0145452
-0.0626648
0.0233628
-0.0627164
0.0322161
-0.0626432
0.0409797
-0.0621383
0.0495639
-0.0612968
0.0580943
-0.0603715
0.0664303
-0.0590004
0.0745426
-0.0574248
0.0823249
-0.055548
0.0897582
-0.0533387
0.0970078
-0.0512096
0.103867
-0.0487506
0.110373
-0.0462445
0.116558
-0.0437163
0.12234
-0.041062
0.12775
-0.0384472
0.132787
-0.0358944
0.137431
-0.0333269
0.141698
-0.0308747
0.145588
-0.0284804
0.14922
-0.0262854
0.152536
-0.0241505
0.155537
-0.0221281
0.158249
-0.0202538
0.160693
-0.0185072
0.162931
-0.0169327
0.164958
-0.0154658
0.166785
-0.0141117
0.168439
-0.0128773
0.169876
-0.0116997
-0.0107293
-0.0518156
0.0114992
-0.0623235
0.0105079
-0.07184
0.00951638
-0.080157
0.00831705
-0.087319
0.00716187
-0.0937437
0.00642473
-0.0997579
0.00601419
-0.105483
0.00572485
-0.110938
0.00545509
-0.11577
0.00483223
-0.11935
0.00357992
-0.121348
0.00199754
-0.121895
0.000547735
-0.121454
-0.000440906
-0.12058
-0.000874719
-0.119425
-0.001155
-0.117749
-0.00167518
-0.115393
-0.00235655
-0.112472
-0.00292092
-0.109144
-0.00332784
-0.105487
-0.00365741
-0.101532
-0.00395437
-0.0972985
-0.00423379
-0.092844
-0.0044545
-0.00489096
-0.0561941
0.021115
-0.0657643
0.0200781
-0.0748454
0.0185974
-0.0834185
0.0168901
-0.0914962
0.0152396
-0.0989875
0.013916
-0.105813
0.0128394
-0.111894
0.0118066
-0.117033
0.0105932
-0.12108
0.00887942
-0.124133
0.00663285
-0.126267
0.00413219
-0.127445
0.00172531
-0.127589
-0.000296623
-0.126693
-0.00177135
-0.124948
-0.0028996
-0.122637
-0.00398661
-0.119901
-0.00509162
-0.116724
-0.00609809
-0.113075
-0.00697691
-0.108971
-0.00776205
-0.104417
-0.00850835
-0.0993987
-0.00925164
-0.0938157
-0.0100375
-0.0109709
-0.0615604
0.0317861
-0.0718315
0.0303492
-0.0816562
0.0284221
-0.0909967
0.0262306
-0.0997487
0.0239916
-0.107719
0.0218863
-0.114755
0.019875
-0.120757
0.017809
-0.125663
0.0154994
-0.129558
0.0127739
-0.132572
0.00964743
-0.134776
0.00633613
-0.136178
0.0031275
-0.136722
0.000247031
-0.136312
-0.00218146
-0.134963
-0.00424817
-0.132835
-0.00611491
-0.130069
-0.00785787
-0.126717
-0.00944968
-0.122801
-0.0108933
-0.11835
-0.0122132
-0.113399
-0.0134594
-0.107989
-0.0146609
-0.102163
-0.0158633
-0.0171495
-0.0667282
0.0436092
-0.0778889
0.0415099
-0.0884633
0.0389965
-0.0984341
0.0362014
-0.1077
0.033257
-0.116093
0.0302792
-0.123467
0.0272491
-0.129739
0.0240809
-0.134893
0.0206539
-0.139012
0.0168928
-0.142211
0.0128461
-0.144557
0.00868284
-0.146051
0.00462158
-0.146659
0.000854394
-0.146315
-0.00252501
-0.145033
-0.00553067
-0.142895
-0.00825307
-0.140004
-0.0107486
-0.136415
-0.013039
-0.132175
-0.0151326
-0.127315
-0.0170735
-0.121876
-0.0188983
-0.115895
-0.0206421
-0.109426
-0.0223317
-0.0239617
-0.0719391
0.0564025
-0.0840358
0.0536065
-0.0954253
0.050386
-0.106078
0.0468544
-0.115896
0.0430742
-0.124753
0.0391362
-0.132533
0.0350297
-0.139179
0.0307264
-0.144688
0.0261635
-0.149123
0.0213272
-0.152568
0.0162917
-0.155083
0.0111973
-0.156669
0.00620741
-0.157308
0.00149409
-0.156986
-0.00284719
-0.155702
-0.00681458
-0.153513
-0.0104428
-0.1505
-0.0137617
-0.146727
-0.0168118
-0.14225
-0.0196094
-0.137123
-0.0221999
-0.131406
-0.024616
-0.125165
-0.0268833
-0.118482
-0.0290143
-0.0310344
-0.0773216
0.0699719
-0.0903236
0.0666084
-0.102524
0.0625865
-0.113879
0.0582094
-0.12429
0.0534852
-0.13367
0.0485158
-0.141915
0.0432751
-0.148991
0.0378024
-0.154899
0.032071
-0.159674
0.0261025
-0.163387
0.0200049
-0.166076
0.0138856
-0.167754
0.00788551
-0.168423
0.0021634
-0.168072
-0.00319801
-0.166731
-0.00815586
-0.16445
-0.0127234
-0.161283
-0.0169287
-0.157304
-0.0207916
-0.152565
-0.0243479
-0.147133
-0.0276324
-0.14106
-0.0306887
-0.134401
-0.033542
-0.12721
-0.0362052
-0.0386713
-0.0827477
0.0846618
-0.0967557
0.0806164
-0.109792
0.075623
-0.121879
0.0702959
-0.132927
0.0645329
-0.142879
0.0584684
-0.151623
0.0520188
-0.159157
0.0453359
-0.165468
0.0383827
-0.170587
0.0312214
-0.174569
0.0239871
-0.17745
0.0167659
-0.179228
0.00966412
-0.179917
0.00285148
-0.179546
-0.00356886
-0.178139
-0.00956234
-0.175745
-0.0151179
-0.172425
-0.0202487
-0.168241
-0.0249755
-0.163271
-0.0293177
-0.157571
-0.0333322
-0.151211
-0.0370491
-0.144233
-0.0405203
-0.1367
-0.043738
-0.0466909
-0.0884023
0.10072
-0.103437
0.0956512
-0.117271
0.0894565
-0.130099
0.0831242
-0.14181
0.0762438
-0.152373
0.0690314
-0.161635
0.0612811
-0.169632
0.0533329
-0.176366
0.0451163
-0.181823
0.0366783
-0.18606
0.0282245
-0.189141
0.0198471
-0.191018
0.0115406
-0.191731
0.0035644
-0.191328
-0.00397194
-0.189837
-0.0110535
-0.187317
-0.0176379
-0.183825
-0.0237401
-0.179428
-0.0293728
-0.174208
-0.0345378
-0.168226
-0.039314
-0.161561
-0.0437141
-0.154219
-0.0478623
-0.146256
-0.0517013
-0.0552345
-0.0946439
0.118028
-0.110434
0.111442
-0.124928
0.10395
-0.138509
0.0967059
-0.15092
0.0886545
-0.16216
0.0802717
-0.17194
0.0710608
-0.180399
0.0617921
-0.187563
0.0522799
-0.193384
0.0424997
-0.197843
0.0326833
-0.20111
0.023114
-0.20311
0.0135404
-0.203822
0.00427664
-0.203378
-0.0044159
-0.201796
-0.0126359
-0.199127
-0.0203069
-0.195472
-0.0273945
-0.190834
-0.0340105
-0.185291
-0.0400812
-0.178995
-0.04561
-0.171982
-0.0507276
-0.164228
-0.0556164
-0.156031
-0.0598978
-0.0639248
1.03071
4.13736
-0.298463
-3.83889
3.10817
-1.21141
-1.89676
0.260111
-0.359174
0.099063
0.32244
-0.391016
0.0685767
-0.90694
-0.516921
1.42386
-0.57433
0.820523
-0.246192
3.1657
-4.32845
1.16276
-0.0430308
-0.176226
0.219257
5.43801
-3.70704
-1.73097
-0.938361
2.10267
-1.16431
-1.14406
0.341832
0.80223
1.38289
-2.30835
0.925458
-1.64896
0.573443
1.07552
0.106029
-0.105231
-0.000798291
5.64486
-5.55025
-0.0946131
0.809655
2.29852
0.123533
-0.022062
-0.101471
-0.226461
-0.226438
0.434519
0.311716
-0.746234
-0.327255
0.202131
0.125124
3.2193
2.3343
-5.5536
-1.13748
1.22023
-0.0827469
1.48203
-1.29467
-0.187361
-1.12124
0.511263
0.609982
1.37148
0.110553
-1.26994
0.835324
0.434618
-0.38239
0.039168
0.343222
5.70106
-3.03584
-2.66522
-0.0331859
-0.130322
0.163508
-0.0320992
0.656081
-0.623983
-2.3234
1.27385
1.04955
1.15132
0.879497
-2.03081
3.32728
-5.81258
2.4853
-0.283964
-0.0669274
0.350891
-0.299195
2.2986
-1.99941
-1.0305
-0.618458
-3.99856