/*--------------------------------*- C++ -*----------------------------------*\
  =========                 |
  \\      /  F ield         | OpenFOAM: The Open Source CFD Toolbox
   \\    /   O peration     | Website:  https://openfoam.org
    \\  /    A nd           | Version:  10
     \\/     M anipulation  |
\*---------------------------------------------------------------------------*/
FoamFile
{
    format      ascii;
    class       volVectorField;
    location    "1750";
    object      U;
}
// * * * * * * * * * * * * * * * * * * * * * * * * * * * * * * * * * * * * * //

dimensions      [0 1 -1 0 0 0 0];

internalField   nonuniform List<vector> 
10435
(
(3.02687 1.43946 7.95099e-22)
(3.2997 2.15102 -5.07587e-20)
(4.53218 -0.38887 -3.17472e-20)
(4.17077 0.999162 9.61463e-20)
(3.8854 0.631943 -3.68105e-20)
(3.26104 -0.17296 2.43809e-19)
(4.74389 -0.359482 -1.12171e-19)
(5.11387 -0.341808 7.67865e-20)
(4.83623 -0.345957 2.65439e-19)
(3.64336 -0.376212 -6.76045e-20)
(3.54033 1.81573 -1.02749e-19)
(4.81257 0.115593 1.9186e-19)
(3.51223 -0.406488 7.15953e-20)
(1.19725 1.04794 -2.52525e-20)
(1.41766 1.18949 -2.81629e-20)
(5.05281 -0.376673 -8.31855e-21)
(1.00318 0.897885 7.9579e-21)
(3.08056 -0.360729 2.41301e-19)
(4.56099 -0.349002 -1.07451e-19)
(3.27392 1.36138 -1.53694e-20)
(5.09805 -0.36002 5.30889e-20)
(4.11165 0.776144 -1.47151e-19)
(4.93057 -0.379555 3.51311e-19)
(4.78248 -0.401999 -1.24367e-19)
(4.05933 -0.341321 8.05161e-20)
(0.284985 0.47293 -9.11869e-22)
(0.0319771 0.211509 -2.15758e-21)
(4.0656 -0.379184 6.07941e-20)
(0.174882 0.0583774 3.93807e-22)
(3.31066 -0.374237 3.53768e-19)
(4.71838 -0.316291 1.52735e-19)
(3.62632 1.60873 -6.97187e-21)
(5.08977 -0.336965 -1.63855e-19)
(0.425614 0.0867841 4.49453e-21)
(5.10048 -0.402953 8.79999e-20)
(2.81859 2.38422 2.14538e-20)
(5.1208 -0.39391 1.27003e-19)
(0.158212 0.415812 7.39232e-21)
(0.441144 0.442 -7.17991e-22)
(4.67292 -0.386414 3.3537e-20)
(3.07639 -0.36389 -3.60359e-19)
(4.74662 -0.362163 -9.05983e-20)
(0.818962 1.03724 -3.49386e-20)
(3.79776 1.35421 -1.43344e-19)
(5.05999 -0.367306 -2.6486e-19)
(4.7473 -0.415762 1.96985e-19)
(3.1795 -0.271281 -2.70726e-19)
(0.533696 0.767445 -1.01648e-19)
(4.78056 -0.338362 8.68348e-20)
(3.98463 0.516361 -4.98102e-20)
(5.11794 -0.364735 -1.2033e-20)
(4.16979 -0.147868 1.18878e-18)
(0.489623 0.469954 -2.32731e-21)
(0.259834 -0.0584067 4.65377e-22)
(0.393104 0.449965 3.92476e-22)
(0.123274 0.0130924 -1.11259e-21)
(5.08316 -0.390147 -3.81857e-19)
(0.154535 0.345124 4.61715e-21)
(0.703191 0.467604 -5.35165e-21)
(4.99807 -0.406279 2.556e-19)
(0.441591 0.483287 1.5889e-21)
(3.14955 2.26675 4.3956e-20)
(0.155468 0.242557 -3.86118e-21)
(4.2158 0.00327679 -1.00982e-19)
(4.99472 -0.373779 -4.92394e-19)
(4.38026 -0.390191 2.32284e-19)
(0.601074 0.308876 1.08931e-20)
(0.347325 0.446558 1.66696e-20)
(5.10427 -0.342255 -9.63131e-20)
(4.72645 -0.354881 9.79742e-21)
(0.209902 -0.0900962 -1.80814e-21)
(0.213285 0.475004 7.02957e-22)
(0.995271 1.23039 1.25162e-19)
(4.58223 -0.381013 -3.04186e-19)
(1.67019 1.33005 -1.15436e-20)
(1.14137 1.42938 1.14741e-20)
(4.68386 -0.294475 5.38078e-19)
(4.84365 -0.348016 2.82332e-19)
(5.0359 -0.317314 2.289e-20)
(1.64411 1.10653 7.04083e-20)
(4.3189 0.14097 6.29869e-20)
(2.65616 1.23396 -5.72981e-23)
(0.536993 0.499881 3.19356e-21)
(0.301865 -0.0329471 -3.6701e-22)
(4.45367 -0.0183661 -1.21976e-19)
(2.68777 2.18193 5.79325e-20)
(2.92841 1.96214 1.06369e-21)
(3.78117 1.5943 2.95352e-20)
(2.13396 1.8305 -7.61932e-21)
(3.1717 1.92753 8.31475e-21)
(3.95366 1.42591 -2.49954e-20)
(4.11555 1.22969 -2.49616e-20)
(2.90749 1.18597 4.094e-21)
(2.39012 1.90993 3.26504e-20)
(3.39157 1.84962 1.351e-20)
(2.62655 2.37343 3.18341e-20)
(4.28964 0.993155 3.03437e-19)
(1.70642 1.53112 1.75644e-20)
(0.850981 0.616971 -9.62721e-21)
(4.31981 0.810537 -2.66092e-19)
(1.91089 1.68538 3.36285e-20)
(3.32854 0.518637 -1.46049e-19)
(2.66153 1.95559 -1.79395e-20)
(3.59436 1.73562 -1.38727e-20)
(3.30739 0.299328 -7.7384e-21)
(3.99251 1.19096 6.87028e-21)
(3.14875 1.09751 5.16433e-21)
(4.16272 0.317151 7.16749e-20)
(4.57586 -0.139375 -1.52788e-19)
(1.88369 1.18132 -1.90424e-20)
(3.79903 0.683935 -1.94808e-20)
(3.35957 0.740697 -7.97343e-20)
(2.39593 1.24292 -2.16871e-20)
(2.13741 1.22773 -1.60976e-20)
(4.15643 1.03648 -1.61789e-19)
(3.92643 0.956394 3.97983e-20)
(4.44937 0.583552 -1.4137e-19)
(2.91939 2.18924 -1.50953e-20)
(3.65632 1.8068 -1.61086e-19)
(4.57172 0.514252 -3.93957e-20)
(4.57544 0.390632 -4.34321e-19)
(1.25814 1.60715 1.25085e-20)
(3.12694 2.15097 3.29804e-20)
(2.07725 2.30536 -1.29703e-19)
(3.32216 1.52644 2.85084e-20)
(0.370978 0.485856 8.53687e-22)
(4.44638 0.733526 2.76298e-19)
(1.52367 1.86519 -2.64713e-20)
(4.22641 0.599271 -2.6813e-19)
(0.0844325 0.403202 -6.05651e-22)
(1.81313 2.11024 5.35915e-20)
(3.28087 1.75328 -1.708e-19)
(5.10941 -0.378515 -1.36103e-19)
(1.41691 1.00533 5.282e-20)
(0.178296 0.448552 1.25932e-22)
(0.710064 0.642641 3.3453e-22)
(2.48668 2.51468 4.56695e-20)
(4.33576 0.781285 -1.80458e-20)
(3.49446 1.95382 4.22809e-20)
(3.72136 1.11315 3.45942e-20)
(3.50368 1.25121 4.50249e-21)
(4.88827 -0.352558 -5.47258e-19)
(0.516136 0.205075 3.01647e-20)
(4.66871 -0.0457499 1.21684e-18)
(4.28164 0.580567 2.41657e-20)
(1.53041 1.62884 1.08759e-19)
(2.30367 2.45041 -1.78565e-20)
(3.8618 -0.0476785 -3.41552e-19)
(1.01196 1.07103 4.43071e-20)
(4.87134 -0.0701438 7.4946e-20)
(0.458567 0.692988 -7.81524e-23)
(5.08778 -0.350901 2.35681e-19)
(3.12844 1.68267 2.12103e-21)
(4.84845 -0.1472 5.2093e-19)
(3.86435 -0.224595 -2.9975e-19)
(0.385458 0.592318 2.82998e-21)
(3.34039 1.26274 2.3743e-19)
(3.31725 2.06988 -1.66821e-21)
(3.68757 -0.296818 -2.42446e-19)
(3.14559 2.17214 -2.26788e-20)
(4.96007 -0.264146 -9.71564e-20)
(1.21496 0.887548 -1.06743e-20)
(3.94061 1.40579 1.88859e-19)
(4.71096 0.0798724 1.37989e-19)
(1.92821 1.42227 3.39428e-20)
(4.43115 0.360956 9.76823e-19)
(5.05949 -0.359698 -2.51136e-19)
(4.61686 0.370988 -1.28663e-19)
(4.89517 -0.198809 1.90673e-19)
(4.47704 0.1079 -1.70714e-18)
(4.13672 -0.297456 2.79672e-19)
(0.859673 1.03764 -3.69823e-20)
(0.00674499 0.127411 9.46301e-22)
(1.73869 1.73387 -2.55496e-21)
(4.97029 -0.153605 -2.81471e-19)
(3.04206 2.3261 -2.70744e-20)
(2.99136 2.34553 -2.22834e-20)
(0.657268 0.771427 1.44809e-20)
(3.59662 0.839288 1.17962e-20)
(0.234545 0.110105 -5.81911e-22)
(3.43255 1.9984 6.27697e-20)
(3.31427 -0.0411434 -4.23142e-20)
(4.83993 0.0369827 -6.67047e-19)
(0.425544 0.507766 6.45553e-22)
(4.95835 -0.32225 7.69092e-20)
(0.723392 0.954404 4.89213e-20)
(1.04582 1.31993 -1.17563e-19)
(4.95076 -0.352782 -2.23616e-19)
(3.82924 0.44968 9.94837e-20)
(4.48616 -0.107609 -8.01645e-19)
(4.71145 0.251222 1.03446e-19)
(0.581226 0.53378 3.25967e-21)
(0.120506 0.434127 1.13758e-21)
(2.64545 2.53582 -1.68857e-20)
(3.35216 1.00045 1.10424e-19)
(5.05755 -0.346203 1.37019e-20)
(1.04156 1.23651 1.19531e-19)
(2.43377 2.1274 -2.5442e-20)
(0.601432 0.798488 1.04936e-19)
(5.10124 -0.388789 1.93129e-19)
(2.03165 1.63039 -3.99056e-20)
(0.237123 0.486775 7.37285e-21)
(3.81684 -0.386343 -1.73642e-20)
(0.212444 0.436667 7.50349e-21)
(4.16949 -0.384013 -6.78362e-20)
(4.00086 1.06524 -1.58896e-21)
(3.79378 1.62962 1.81808e-19)
(4.48736 0.564298 -8.99105e-20)
(0.220215 0.227948 -4.06324e-21)
(4.43808 0.38823 -6.53781e-20)
(0.544537 0.73402 -1.64059e-20)
(4.79536 -0.367817 -4.53319e-19)
(4.67132 0.162028 9.73029e-19)
(4.83398 -0.0124933 7.10919e-20)
(0.0588402 0.193973 1.37116e-21)
(1.22283 1.24021 -1.19714e-19)
(2.20848 1.45652 9.86904e-21)
(0.554991 0.617073 -2.53038e-21)
(0.270072 0.451706 7.36607e-22)
(1.0322 0.755512 1.05122e-20)
(0.279589 0.0688237 -4.10154e-22)
(0.706085 0.709744 3.05372e-20)
(0.427622 0.255681 -1.72817e-20)
(1.86775 1.97547 -1.8474e-19)
(0.314578 0.52251 4.82797e-22)
(5.12602 -0.39165 -6.26334e-20)
(0.337022 0.444083 -1.70781e-21)
(2.15908 2.02023 2.04451e-20)
(4.54984 -0.233173 8.72757e-19)
(1.39277 1.67318 -1.11851e-19)
(0.52189 0.573476 -1.02398e-19)
(5.10723 -0.377741 2.76861e-19)
(0.306842 0.449835 -2.32983e-21)
(5.06226 -0.331586 2.81744e-19)
(0.0583558 0.334223 5.19124e-21)
(0.8231 0.758422 -5.30824e-20)
(5.01085 -0.384565 -3.55918e-19)
(0.274006 0.49281 -1.11239e-21)
(4.9548 -0.342761 -2.28826e-20)
(4.47575 -0.307232 5.23818e-21)
(3.59097 1.49299 4.46604e-20)
(0.376196 0.531433 2.64026e-22)
(0.602297 0.684991 3.8053e-22)
(0.170963 -0.0132194 -1.20482e-22)
(3.96517 1.26528 -3.41649e-19)
(4.97639 -0.336731 8.84199e-20)
(2.40531 2.30988 -1.10555e-19)
(5.07508 -0.317881 7.76062e-20)
(0.0310633 0.01464 1.53397e-22)
(2.91645 2.43444 1.91813e-20)
(0.0886113 -0.0472889 -5.9942e-22)
(2.30903 1.67703 -2.99842e-20)
(3.51563 -0.383856 -1.24574e-19)
(4.57953 0.213689 -1.23031e-19)
(4.99495 -0.32558 -1.9069e-19)
(4.17379 0.263423 4.00333e-19)
(0.0455091 -0.0192232 -2.96874e-22)
(4.9131 -0.323776 2.68557e-19)
(0.485456 0.648502 1.22933e-21)
(0.343007 0.567058 -2.71828e-20)
(4.80997 -0.336211 1.33923e-20)
(4.26699 -0.261915 2.33606e-21)
(0.335787 0.499734 2.78413e-22)
(4.73824 -0.183747 -2.91131e-19)
(2.48182 1.47957 7.4616e-21)
(0.615893 0.534149 5.7691e-20)
(3.36891 1.60472 7.48095e-21)
(4.7867 -0.369095 2.83523e-19)
(0.522282 0.546069 -8.42541e-22)
(4.11122 0.85398 5.41545e-20)
(4.71191 -0.35478 -1.47778e-22)
(5.10061 -0.291622 -4.02983e-20)
(5.05073 -0.304318 -2.8484e-20)
(4.13858 -0.367423 -2.95109e-19)
(0.228377 0.458588 -6.05194e-22)
(4.6691 0.348084 -1.84051e-19)
(0.124423 0.404851 -4.58975e-21)
(3.77686 0.911648 4.09359e-20)
(5.03982 -0.371338 7.5619e-20)
(5.09264 -0.287377 1.61539e-20)
(3.74657 -0.3938 1.47237e-19)
(0.829836 1.00012 -1.61101e-19)
(4.57243 -0.360281 -7.87322e-21)
(1.93993 1.87932 -1.46014e-20)
(2.58285 1.71398 -1.27629e-20)
(0.61747 0.620679 -1.24736e-21)
(3.8467 0.247804 6.14157e-20)
(0.373012 0.429182 -7.29246e-22)
(0.348013 -0.00736564 -1.97935e-21)
(0.347856 0.0893117 1.10967e-21)
(2.13169 2.17537 1.58226e-19)
(3.22635 1.97873 1.87556e-19)
(0.285191 0.18759 2.20187e-21)
(5.08568 -0.291223 7.71457e-20)
(0.423125 0.410272 -1.09102e-22)
(0.163605 -0.0907878 -3.41965e-22)
(1.29245 1.45401 -3.25864e-21)
(2.76035 1.47793 3.4607e-21)
(3.71794 1.16762 -5.65682e-21)
(4.49546 -0.359099 1.82283e-19)
(0.455355 0.604572 1.57188e-19)
(4.90071 -0.298271 -1.00532e-19)
(4.40802 -0.357351 -2.72543e-21)
(0.0168437 0.0489984 6.29334e-23)
(3.67405 1.40509 -8.92893e-20)
(1.45008 1.39861 6.57405e-20)
(0.831702 0.901956 5.95469e-20)
(5.02979 -0.296061 -2.15725e-20)
(4.4469 -0.369782 -2.46773e-21)
(0.392965 0.0115359 7.5722e-22)
(3.37572 0.982343 1.02117e-20)
(0.252474 0.502477 3.79265e-21)
(2.78847 2.50479 -6.1516e-21)
(3.81848 0.0994898 -1.80185e-19)
(4.96096 -0.372383 -4.59596e-20)
(0.127085 -0.0699319 -2.58537e-23)
(0.450284 0.545427 -1.25741e-21)
(4.75204 -0.201815 -9.8237e-19)
(0.420015 0.419123 1.4704e-21)
(4.72371 0.223453 1.52399e-19)
(3.2592 0.117387 -6.48451e-20)
(0.129514 0.167339 2.95751e-21)
(2.86396 1.71864 -2.3121e-21)
(0.626503 0.57176 1.55339e-21)
(5.06287 -0.283516 -9.82291e-21)
(3.89918 -0.382881 -6.43181e-20)
(0.195996 0.46295 -4.14813e-23)
(4.24155 -0.361543 -3.4974e-22)
(0.503476 0.379097 -8.8849e-22)
(0.101564 0.336829 -6.29831e-21)
(4.9109 -0.396168 2.09732e-21)
(0.436932 0.143184 -2.44806e-21)
(0.432516 0.0269847 1.04323e-21)
(4.56638 -0.37373 9.85254e-21)
(4.99483 -0.22035 2.43285e-19)
(0.214213 0.337308 -1.28967e-20)
(0.122415 -0.0514599 6.35777e-23)
(0.0437032 -0.00249736 -2.43219e-23)
(0.484987 0.0688209 6.59191e-22)
(0.0319125 0.0990072 2.19041e-22)
(0.169692 0.456148 1.7203e-22)
(0.283919 0.523114 3.14399e-21)
(0.485032 0.508951 -2.71864e-22)
(0.00627291 0.131103 -2.741e-22)
(0.00943464 0.088727 -1.05995e-22)
(0.35983 0.59218 -3.64629e-21)
(0.27456 0.323539 3.71232e-21)
(0.00684918 0.291026 -1.63083e-23)
(0.666263 0.606043 -2.56209e-21)
(5.00769 -0.309509 -5.79292e-20)
(0.463396 0.0446529 2.38401e-21)
(4.0962 -0.390289 7.60349e-21)
(0.0109283 0.178354 8.22624e-24)
(4.04875 -0.37185 -1.4518e-21)
(5.01957 -0.288166 2.58628e-20)
(4.72027 -0.310499 -2.15606e-20)
(3.44045 -0.433963 -3.23427e-21)
(4.71967 -0.38777 -1.95304e-19)
(0.215415 -0.0360849 1.31329e-21)
(0.367427 0.0399983 -4.22893e-21)
(0.0813817 -0.02353 -3.45964e-22)
(0.32227 0.465279 2.56153e-21)
(0.0558752 0.0684794 -9.48621e-24)
(0.572127 0.582603 1.30064e-21)
(0.0808728 0.157434 -1.26045e-21)
(0.14437 0.442694 1.16632e-22)
(0.283475 0.45359 -3.74039e-20)
(4.91754 -0.0860578 -2.10569e-20)
(0.15284 0.451675 -2.51515e-21)
(4.92226 -0.322713 6.47092e-20)
(0.351899 0.455255 -5.92821e-22)
(0.118103 0.42301 -1.50737e-22)
(3.24996 -0.479256 -2.92758e-20)
(4.55867 -0.326667 -6.95731e-20)
(0.661003 0.673087 1.14956e-20)
(0.00632962 0.229434 -3.1503e-22)
(0.107763 0.253154 1.23052e-21)
(0.0206682 0.259233 6.98806e-23)
(0.313434 0.0217596 1.21596e-21)
(0.240282 0.473411 -3.14209e-22)
(0.000913338 0.276486 5.23458e-22)
(0.398853 0.467615 -7.32618e-22)
(5.07969 -0.308901 -1.68151e-20)
(0.341414 0.292923 -6.31583e-21)
(5.10542 -0.316234 9.10681e-21)
(4.94387 -0.289879 8.91602e-20)
(3.83477 -0.38511 -5.59859e-22)
(3.61986 -0.408692 5.95295e-20)
(4.85414 -0.299859 -3.97346e-20)
(4.24737 -0.364189 -2.02476e-20)
(5.04375 -0.390085 -5.76571e-20)
(1.66921 1.9084 5.41085e-21)
(0.691477 0.863068 -2.13138e-20)
(0.218479 0.0233562 1.6428e-21)
(0.162213 -0.0665658 -1.20955e-21)
(4.40355 -0.362803 2.92949e-20)
(0.260152 -0.00817071 -3.69377e-21)
(3.27091 -0.428616 -1.41594e-19)
(0.00793409 0.302212 9.41305e-23)
(0.1772 0.14434 -3.91535e-22)
(0.0872317 0.392404 -1.0273e-22)
(0.359061 0.167584 -1.57547e-21)
(0.478908 0.594603 2.92083e-21)
(4.89857 -0.36328 4.1085e-19)
(0.0708603 0.267223 -3.25359e-22)
(5.10822 -0.312621 3.85555e-21)
(4.97537 -0.257353 -1.13882e-19)
(0.659561 0.768996 -1.67536e-21)
(0.203456 0.46634 2.90265e-22)
(0.0454959 0.334843 1.00702e-22)
(4.56156 -0.332265 9.20187e-20)
(0.0682037 0.367209 3.8551e-22)
(0.176432 0.458818 1.51138e-22)
(0.392854 0.563328 -3.58867e-21)
(0.088554 0.0423958 2.35115e-22)
(0.385361 0.591703 1.44101e-20)
(0.101874 0.114759 1.75401e-22)
(4.33913 -0.37336 1.64044e-19)
(0.150994 -0.0936139 3.0948e-23)
(0.227375 0.47456 9.58102e-22)
(0.134536 0.0930524 -6.80279e-22)
(0.528092 0.13029 -1.47315e-20)
(3.00509 -0.380669 -1.13772e-19)
(0.780363 0.817844 1.68896e-20)
(0.734106 0.693559 -3.24312e-20)
(4.33421 -0.313474 -1.3955e-19)
(0.417004 0.0505974 -1.117e-21)
(0.415654 -0.366334 1.46131e-21)
(0.437533 -0.350216 1.36244e-23)
(0.488509 -0.352028 -1.07999e-21)
(0.524866 -0.35332 5.61955e-22)
(0.564698 -0.355567 -6.81929e-22)
(0.596868 -0.356898 -2.14165e-21)
(0.628106 -0.358024 5.31166e-22)
(0.654417 -0.359042 6.69556e-22)
(0.679403 -0.358654 7.32149e-22)
(0.4488 -0.353126 -1.08727e-21)
(0.470194 -0.343972 -1.4893e-22)
(0.518518 -0.344483 9.60108e-22)
(0.555177 -0.346676 -2.01544e-21)
(0.592831 -0.34873 1.69403e-21)
(0.624367 -0.350551 3.04759e-21)
(0.653772 -0.35185 -1.92514e-21)
(0.678873 -0.352831 2.21922e-21)
(0.700755 -0.352722 -1.03865e-21)
(0.483318 -0.336675 3.01187e-21)
(0.501811 -0.331394 9.72859e-22)
(0.548173 -0.332192 -2.26548e-21)
(0.584209 -0.335371 1.16084e-21)
(0.620116 -0.337721 -3.20155e-21)
(0.650667 -0.339989 -5.52706e-22)
(0.678485 -0.341631 -1.17109e-24)
(0.702167 -0.342847 -1.06399e-21)
(0.722463 -0.343185 -2.00416e-21)
(0.514894 -0.318589 -1.60167e-21)
(0.53131 -0.314644 1.22912e-21)
(0.576267 -0.315977 1.92121e-21)
(0.611756 -0.319986 6.70078e-23)
(0.646225 -0.322752 1.44283e-21)
(0.675814 -0.32543 4.7257e-21)
(0.702299 -0.327367 -2.92004e-21)
(0.724822 -0.328771 5.23307e-22)
(0.744137 -0.329242 1.24907e-21)
(0.543928 -0.29809 6.68765e-23)
(0.558827 -0.294423 -4.69804e-22)
(0.602488 -0.296298 1.90478e-22)
(0.63752 -0.300722 -1.14857e-21)
(0.67087 -0.303871 4.97975e-22)
(0.699658 -0.30684 -1.06005e-21)
(0.725163 -0.308991 5.69411e-22)
(0.746927 -0.31052 2.2705e-21)
(0.765828 -0.310835 5.6825e-22)
(0.57032 -0.274857 2.94807e-22)
(0.584159 -0.27098 -2.83838e-21)
(0.626587 -0.273399 1.99149e-22)
(0.661324 -0.277785 2.75591e-21)
(0.693848 -0.281157 -9.13302e-22)
(0.722057 -0.284246 -1.35135e-21)
(0.746913 -0.28651 -4.33783e-22)
(0.768256 -0.288103 -4.09957e-21)
(0.786851 -0.288652 2.38746e-21)
(0.593029 -0.24998 3.18128e-22)
(0.607124 -0.244812 2.08889e-21)
(0.648491 -0.247564 3.75665e-22)
(0.683115 -0.251349 -1.38321e-21)
(0.715056 -0.254672 3.01063e-22)
(0.742912 -0.257639 -6.88721e-22)
(0.767429 -0.259818 1.1086e-21)
(0.788626 -0.261276 -1.07918e-21)
(0.807196 -0.261736 -7.3134e-22)
(0.611066 -0.223591 -9.76436e-22)
(0.628192 -0.216059 1.90256e-21)
(0.668478 -0.218727 -4.35606e-22)
(0.702951 -0.221428 8.78552e-22)
(0.734428 -0.224425 -6.66334e-22)
(0.762123 -0.227025 1.99809e-21)
(0.786582 -0.228906 2.81199e-21)
(0.80792 -0.230111 -3.87399e-21)
(0.826869 -0.22982 1.17217e-21)
(0.625374 -0.192575 -2.46818e-22)
(0.648006 -0.183608 3.9704e-22)
(0.686727 -0.18612 2.58813e-22)
(0.720755 -0.187813 -9.54237e-22)
(0.751815 -0.190375 -2.67409e-22)
(0.779521 -0.192415 -8.59822e-22)
(0.80417 -0.193763 -4.83133e-22)
(0.825937 -0.194353 3.93406e-21)
(0.84527 -0.193917 -4.45802e-22)
(0.638023 -0.154841 4.86919e-22)
(0.665964 -0.146453 -1.49957e-21)
(0.702507 -0.149266 -8.33617e-22)
(0.736002 -0.150534 2.3607e-22)
(0.766874 -0.152677 -3.04403e-22)
(0.794864 -0.153982 1.34383e-21)
(0.819996 -0.154492 1.94167e-22)
(0.842407 -0.154105 2.65821e-21)
(0.862399 -0.152488 -1.2001e-22)
(0.650514 -0.112656 -4.82966e-22)
(0.680472 -0.106111 -1.28298e-22)
(0.714568 -0.109382 5.71142e-22)
(0.74801 -0.11046 9.37479e-22)
(0.779223 -0.111954 -2.82711e-22)
(0.807906 -0.112231 -3.16387e-22)
(0.833895 -0.111558 -8.31705e-22)
(0.857335 -0.109806 -3.04822e-21)
(0.878354 -0.106845 -4.63676e-22)
(0.661959 -0.0703588 8.78724e-22)
(0.689932 -0.0662249 1.4106e-21)
(0.722562 -0.0688097 -1.10145e-21)
(0.756661 -0.0690309 5.90704e-22)
(0.788762 -0.0691497 -1.08026e-22)
(0.81848 -0.0678893 1.84463e-21)
(0.845554 -0.0656319 1.78138e-22)
(0.870116 -0.0622319 -1.51144e-21)
(0.892389 -0.0586098 -1.09742e-21)
(0.668988 -0.0309823 2.14348e-22)
(0.694846 -0.0283779 -2.97476e-22)
(0.727447 -0.0288485 5.61298e-23)
(0.762554 -0.0271445 3.81035e-22)
(0.795784 -0.0249572 -2.57853e-22)
(0.826676 -0.0215031 -3.32622e-22)
(0.854923 -0.0170665 -6.16481e-22)
(0.880619 -0.0116513 1.14621e-21)
(0.904234 -0.00536693 -6.83275e-22)
(0.670186 0.00644797 -2.99282e-22)
(0.696684 0.00859249 -1.4192e-23)
(0.730165 0.0108918 -2.10165e-22)
(0.766309 0.0152296 5.97085e-22)
(0.80061 0.0203635 -1.09135e-22)
(0.832615 0.0264731 -6.36277e-23)
(0.861998 0.0334443 -4.2626e-22)
(0.88885 0.0411703 5.29987e-23)
(0.913353 0.0500847 3.95134e-22)
(0.665662 0.0441252 9.53428e-22)
(0.695696 0.0461479 -1.38448e-22)
(0.730906 0.0515148 1.1673e-21)
(0.768073 0.058672 -1.69115e-21)
(0.803276 0.0669543 1.90741e-22)
(0.83624 0.0759166 6.13075e-22)
(0.866657 0.0856358 4.32679e-22)
(0.89465 0.0960729 6.20897e-22)
(0.920365 0.107568 -2.18153e-21)
(0.654484 0.0848488 4.11183e-22)
(0.691357 0.0861724 -4.70966e-22)
(0.729192 0.0943633 -1.66763e-21)
(0.767418 0.103906 2.2299e-21)
(0.803425 0.115022 7.62512e-22)
(0.837247 0.126661 -4.02298e-22)
(0.868626 0.139014 -4.67966e-23)
(0.897632 0.152055 1.66343e-21)
(0.924111 0.165634 -7.20323e-22)
(0.639602 0.129109 1.89358e-21)
(0.681579 0.129983 -1.38109e-21)
(0.723502 0.140102 1.60595e-21)
(0.763255 0.151232 -1.09292e-21)
(0.800257 0.164537 -1.16417e-21)
(0.835005 0.178489 4.65952e-21)
(0.867343 0.193264 -3.07238e-21)
(0.897338 0.20884 -1.23885e-21)
(0.925279 0.224361 3.04208e-22)
(0.624053 0.173674 -2.49624e-21)
(0.666923 0.175165 1.92346e-21)
(0.712694 0.18732 -8.91186e-22)
(0.754547 0.199732 1.39478e-21)
(0.792994 0.214834 3.1803e-22)
(0.82897 0.230883 -3.76837e-21)
(0.862464 0.24805 3.45988e-22)
(0.893523 0.26625 -1.79462e-21)
(0.922467 0.284991 -2.28568e-21)
(0.607686 0.215926 -5.15649e-22)
(0.648542 0.218785 -4.40154e-22)
(0.696998 0.233675 -1.00388e-21)
(0.741047 0.247781 -4.03557e-21)
(0.781272 0.264709 9.87953e-22)
(0.818812 0.282792 1.69476e-21)
(0.853797 0.302222 1.94118e-21)
(0.886341 0.322762 2.41587e-21)
(0.916571 0.344369 -1.11131e-21)
(0.589611 0.255648 4.15107e-22)
(0.627359 0.259816 1.14685e-22)
(0.677264 0.27771 3.46999e-21)
(0.723069 0.294058 -2.96047e-22)
(0.765069 0.31305 1.70159e-21)
(0.804276 0.333287 -1.16254e-21)
(0.840854 0.354991 -8.10666e-21)
(0.874966 0.377874 -1.24251e-21)
(0.906989 0.401712 -1.72194e-22)
(0.568907 0.293449 9.80756e-22)
(0.603365 0.298224 -4.73504e-21)
(0.654055 0.318764 2.9078e-21)
(0.701035 0.337711 -3.43651e-21)
(0.744617 0.35902 2.608e-21)
(0.785447 0.381658 -6.05978e-22)
(0.823646 0.405869 2.38479e-21)
(0.859321 0.431368 2.12711e-21)
(0.892251 0.458615 -7.32942e-22)
(0.545789 0.32864 2.25151e-21)
(0.576293 0.333573 4.40614e-21)
(0.627693 0.35619 -7.90589e-21)
(0.67529 0.378065 9.44773e-22)
(0.720147 0.401877 -7.12104e-21)
(0.762442 0.427086 2.0541e-21)
(0.802318 0.453857 8.00306e-22)
(0.840095 0.481942 -1.17324e-21)
(0.87451 0.513307 -5.70332e-22)
(0.521016 0.358036 -1.58652e-21)
(0.546749 0.365148 -3.73064e-21)
(0.59897 0.389636 4.34482e-21)
(0.646518 0.414957 4.56206e-21)
(0.692162 0.441445 4.95727e-21)
(0.73551 0.469354 -3.37866e-22)
(0.77677 0.498633 -1.64531e-21)
(0.816544 0.529451 4.80089e-21)
(0.852737 0.564199 -1.2652e-20)
(0.494057 0.379814 4.84927e-22)
(0.515105 0.392262 2.02387e-21)
(0.567315 0.418438 -1.25802e-21)
(0.61382 0.447357 2.38109e-21)
(0.659543 0.476526 -4.58886e-21)
(0.703449 0.507336 -1.26084e-21)
(0.745743 0.539127 6.9071e-21)
(0.787942 0.572902 -7.17745e-21)
(0.827324 0.613912 8.02249e-21)
(0.463988 0.396778 8.79768e-22)
(0.484411 0.419816 3.16124e-22)
(0.536809 0.449364 1.31846e-21)
(0.582281 0.480567 -2.75389e-21)
(0.627612 0.511701 7.48548e-22)
(0.670809 0.544487 -3.85107e-21)
(0.712898 0.577639 2.64083e-21)
(0.758422 0.612379 -2.44011e-21)
(0.800484 0.655397 -2.63638e-22)
(0.32787 0.287291 -3.07227e-22)
(0.321002 0.285348 -3.76201e-22)
(0.313743 0.282898 -1.19579e-21)
(0.305723 0.280056 1.68987e-21)
(0.296943 0.276794 -1.27826e-21)
(0.287384 0.273062 9.72358e-22)
(0.277042 0.2688 3.78484e-22)
(0.26593 0.263947 -1.06542e-22)
(0.254082 0.258432 -7.09031e-22)
(0.241548 0.252179 -2.93477e-22)
(0.228404 0.245113 3.27513e-22)
(0.214748 0.237153 -3.59704e-22)
(0.200694 0.228221 9.99347e-22)
(0.186377 0.218244 -2.53225e-21)
(0.171932 0.207149 4.39847e-21)
(0.157509 0.194883 -4.97453e-21)
(0.143258 0.18141 4.42836e-21)
(0.129321 0.166715 -2.01033e-21)
(0.11583 0.150823 -6.604e-22)
(0.1029 0.133807 6.89316e-22)
(0.0906056 0.115801 -2.37708e-22)
(0.0789416 0.0969994 5.22499e-22)
(0.0677696 0.0776808 3.01039e-23)
(0.056898 0.0583246 -7.29469e-22)
(0.0460843 0.0393733 5.73381e-22)
(0.0373389 0.0204058 -3.02662e-22)
(0.0329658 0.000915351 4.03264e-22)
(0.0327841 -0.0194013 3.15561e-22)
(0.0372544 -0.0406628 -3.85887e-22)
(0.0437544 -0.0631874 1.02678e-23)
(0.0499599 -0.0867533 -3.40228e-22)
(0.0566796 -0.110437 3.12868e-22)
(0.0645441 -0.134032 5.94732e-22)
(0.0737233 -0.157272 -4.92661e-22)
(0.0842023 -0.179738 7.08346e-22)
(0.0959357 -0.201216 -1.16853e-21)
(0.108795 -0.2215 9.84974e-23)
(0.122621 -0.240433 2.5069e-22)
(0.137242 -0.257907 -3.86354e-22)
(0.15249 -0.273851 8.65755e-22)
(0.168207 -0.288242 -4.88889e-22)
(0.184246 -0.301091 -2.08875e-21)
(0.200462 -0.312435 4.28943e-21)
(0.21672 -0.322337 -4.55977e-21)
(0.232896 -0.330894 3.94433e-21)
(0.248858 -0.338209 -2.31967e-21)
(0.264474 -0.344391 1.18553e-21)
(0.279623 -0.34957 -4.19593e-22)
(0.294179 -0.353858 3.73439e-22)
(0.308027 -0.35737 -4.16533e-22)
(0.321088 -0.360203 -5.58441e-22)
(0.333363 -0.362432 -1.47026e-22)
(0.344848 -0.364142 3.19774e-22)
(0.355535 -0.365423 7.52192e-22)
(0.365416 -0.366348 -1.1394e-21)
(0.374499 -0.366984 1.47692e-21)
(0.382802 -0.367384 -1.00845e-21)
(0.390356 -0.367576 -3.49168e-22)
(0.39727 -0.367642 -2.48001e-22)
(0.344493 0.257173 -1.51226e-23)
(0.338248 0.25534 3.23831e-23)
(0.331525 0.253421 -1.03502e-22)
(0.324218 0.251328 2.37802e-22)
(0.316318 0.249039 3.05176e-23)
(0.307824 0.246464 -5.91442e-22)
(0.298725 0.243537 1.06769e-22)
(0.289006 0.240192 -3.21725e-23)
(0.278656 0.236351 4.34455e-22)
(0.267686 0.231924 -6.85874e-23)
(0.256124 0.226817 -1.14816e-22)
(0.244018 0.220926 -2.40861e-22)
(0.231437 0.214147 5.22892e-22)
(0.21847 0.206384 -5.1574e-22)
(0.205228 0.197547 5.3703e-22)
(0.191829 0.187565 -1.43243e-22)
(0.178404 0.176386 -3.24875e-22)
(0.165086 0.16398 3.30824e-22)
(0.152002 0.150345 1.83881e-22)
(0.139266 0.1355 2.40838e-23)
(0.126976 0.119482 6.84354e-24)
(0.11522 0.102324 -4.72365e-22)
(0.104115 0.0840127 3.74675e-22)
(0.0939605 0.0644393 -1.13684e-22)
(0.0852713 0.0432485 4.63119e-22)
(0.0788229 0.0203685 -1.97433e-22)
(0.0748438 -0.00379571 -2.63632e-23)
(0.0734822 -0.0285917 1.02909e-22)
(0.074878 -0.053309 8.16989e-24)
(0.078973 -0.0773641 -6.77716e-24)
(0.0847127 -0.100808 -8.14783e-23)
(0.0917591 -0.123826 4.40037e-23)
(0.100189 -0.146322 -4.02434e-23)
(0.109909 -0.168146 -1.17745e-22)
(0.12081 -0.189122 1.72053e-23)
(0.132799 -0.209084 4.29763e-23)
(0.145761 -0.227883 2.14948e-22)
(0.159555 -0.245396 -3.97746e-22)
(0.17403 -0.261534 2.39889e-24)
(0.189031 -0.276235 -6.99071e-23)
(0.204402 -0.289467 7.81493e-23)
(0.21999 -0.301222 3.10747e-22)
(0.235645 -0.31152 -6.21604e-22)
(0.251221 -0.320401 -3.756e-22)
(0.266571 -0.327933 7.61705e-22)
(0.281561 -0.334203 -6.69957e-22)
(0.296065 -0.339323 4.92006e-22)
(0.30997 -0.343421 -1.01171e-22)
(0.323193 -0.346645 -2.18294e-22)
(0.335646 -0.34912 1.74383e-23)
(0.34742 -0.350926 4.60485e-22)
(0.358593 -0.352124 -1.12399e-22)
(0.369112 -0.352811 1.34541e-22)
(0.378976 -0.3531 -6.24721e-22)
(0.388173 -0.353093 9.40588e-23)
(0.396707 -0.352886 2.39615e-22)
(0.40462 -0.352524 -1.62501e-22)
(0.411991 -0.352021 4.79922e-23)
(0.418887 -0.351499 -2.58156e-23)
(0.399203 0.246356 -4.19663e-22)
(0.392843 0.244606 8.1868e-23)
(0.386032 0.242662 -3.6495e-22)
(0.378751 0.240496 -8.9652e-23)
(0.370981 0.238052 1.26085e-21)
(0.3627 0.235286 -3.94595e-22)
(0.35389 0.232151 -7.64282e-22)
(0.344535 0.228595 -9.30384e-24)
(0.334629 0.224557 4.57668e-22)
(0.324175 0.219967 -1.19723e-22)
(0.313191 0.214746 1.24445e-21)
(0.30171 0.208813 -1.4615e-21)
(0.289783 0.202079 1.32045e-21)
(0.277479 0.194458 -1.74638e-22)
(0.264886 0.185869 -1.148e-21)
(0.252102 0.176238 3.39957e-22)
(0.239243 0.165501 1.35309e-21)
(0.226429 0.15361 -5.5101e-22)
(0.213785 0.140528 -1.24287e-22)
(0.201442 0.126227 2.33919e-23)
(0.189533 0.110681 -3.7063e-22)
(0.178211 0.0938605 9.68622e-23)
(0.167668 0.0757162 -9.02912e-22)
(0.158177 0.0562009 1.08162e-21)
(0.150103 0.0353052 -4.20826e-22)
(0.143963 0.0131566 3.14168e-25)
(0.140216 -0.00995531 5.76523e-23)
(0.139068 -0.0336673 -2.7291e-22)
(0.140521 -0.0575689 1.6703e-22)
(0.144267 -0.0812072 9.10095e-23)
(0.149827 -0.104319 2.12215e-22)
(0.156901 -0.126838 -2.12871e-22)
(0.165324 -0.148672 9.84457e-23)
(0.174965 -0.169705 1.4308e-22)
(0.185703 -0.189827 -4.45871e-22)
(0.197424 -0.208931 1.2649e-21)
(0.210008 -0.226913 -8.20504e-22)
(0.223323 -0.243685 -1.93406e-22)
(0.237234 -0.25918 -1.93755e-22)
(0.251595 -0.273349 -6.57568e-23)
(0.266263 -0.286169 -3.26957e-22)
(0.281093 -0.297638 -5.33391e-22)
(0.295943 -0.307778 1.32683e-21)
(0.310675 -0.316633 6.17235e-22)
(0.325165 -0.324264 -1.26683e-21)
(0.339296 -0.330754 -4.01274e-22)
(0.352974 -0.336195 1.29976e-21)
(0.366124 -0.34069 -1.50578e-21)
(0.378696 -0.344345 1.05917e-21)
(0.390669 -0.347258 -4.37375e-23)
(0.402038 -0.34953 4.1253e-22)
(0.412751 -0.351258 6.88359e-23)
(0.422794 -0.352525 -7.24975e-22)
(0.43219 -0.353393 -3.49669e-22)
(0.440959 -0.353928 1.13558e-21)
(0.449152 -0.354176 -3.58754e-23)
(0.456821 -0.354178 -3.32823e-22)
(0.463997 -0.353985 9.85292e-23)
(0.470721 -0.353634 -3.75442e-22)
(0.436806 0.240218 -1.12719e-22)
(0.430442 0.23889 5.39908e-22)
(0.423659 0.237381 -2.61425e-22)
(0.416397 0.235611 2.00809e-22)
(0.408645 0.233554 -2.24109e-22)
(0.400391 0.231168 -1.54135e-23)
(0.391621 0.228402 -1.47937e-22)
(0.38233 0.225202 -3.93264e-22)
(0.372517 0.221503 2.64423e-22)
(0.362187 0.217234 3.378e-22)
(0.35136 0.212317 2.65083e-22)
(0.340066 0.206668 -9.81009e-22)
(0.328348 0.200199 9.00613e-22)
(0.316269 0.192824 -1.8585e-22)
(0.303904 0.184453 1.25612e-22)
(0.291349 0.175008 -5.4381e-22)
(0.278714 0.164414 5.32622e-22)
(0.266123 0.152607 -2.20374e-22)
(0.253716 0.139537 -3.15133e-22)
(0.241647 0.125161 1.75668e-22)
(0.230085 0.109444 -9.39999e-23)
(0.219221 0.0923643 -5.13798e-22)
(0.209278 0.0739092 3.37003e-22)
(0.200519 0.0540924 3.41292e-22)
(0.193239 0.0329774 -2.81229e-22)
(0.187751 0.0107141 3.19178e-23)
(0.184304 -0.0124373 3.24323e-22)
(0.183046 -0.0361428 -3.83662e-22)
(0.184009 -0.0600397 1.27883e-22)
(0.187091 -0.0837808 -3.46776e-23)
(0.192074 -0.107109 1.63143e-22)
(0.198742 -0.129855 -3.86143e-22)
(0.206915 -0.151883 2.9512e-22)
(0.216421 -0.17307 -7.50795e-24)
(0.2271 -0.193305 -3.80836e-22)
(0.238799 -0.212485 1.55445e-22)
(0.251367 -0.230518 4.25045e-22)
(0.264649 -0.247325 -2.08722e-22)
(0.278494 -0.262841 -1.66871e-22)
(0.292748 -0.277026 3.08172e-22)
(0.30726 -0.289858 -1.04903e-22)
(0.321884 -0.301337 -1.20004e-22)
(0.336478 -0.311488 7.04621e-22)
(0.350912 -0.320353 -6.5716e-22)
(0.365067 -0.327994 2.78786e-22)
(0.378844 -0.33449 -5.84444e-23)
(0.392158 -0.339928 8.95547e-22)
(0.404943 -0.344405 -8.41636e-22)
(0.417156 -0.34802 3.40051e-22)
(0.428765 -0.350869 2.80073e-22)
(0.439757 -0.353044 2.80116e-22)
(0.450128 -0.354631 -4.0669e-22)
(0.459873 -0.355736 -9.33862e-23)
(0.468998 -0.35644 -1.18566e-22)
(0.477579 -0.356765 -1.921e-22)
(0.48565 -0.356766 1.40415e-22)
(0.49321 -0.356512 -2.54245e-22)
(0.50029 -0.356046 5.1885e-22)
(0.506949 -0.355432 -1.47059e-22)
(0.484098 0.236731 -7.17798e-22)
(0.477771 0.235252 7.11366e-23)
(0.470968 0.233586 7.00788e-22)
(0.463664 0.231682 -5.03019e-22)
(0.455849 0.229501 1.32729e-22)
(0.447516 0.226995 4.36135e-22)
(0.438663 0.224113 -5.61094e-22)
(0.429289 0.220797 2.09732e-22)
(0.419402 0.216986 6.68197e-22)
(0.409017 0.21261 -2.34957e-22)
(0.398159 0.207596 -6.94664e-22)
(0.386862 0.201865 -2.25468e-22)
(0.375172 0.195335 5.87254e-22)
(0.363149 0.18792 5.19703e-22)
(0.350871 0.179538 -1.23058e-22)
(0.338428 0.170107 -7.20283e-22)