/*--------------------------------*- C++ -*----------------------------------*\
  =========                 |
  \\      /  F ield         | OpenFOAM: The Open Source CFD Toolbox
   \\    /   O peration     | Website:  https://openfoam.org
    \\  /    A nd           | Version:  10
     \\/     M anipulation  |
\*---------------------------------------------------------------------------*/
FoamFile
{
    format      ascii;
    class       volScalarField;
    location    "1000";
    object      epsilon;
}
// * * * * * * * * * * * * * * * * * * * * * * * * * * * * * * * * * * * * * //

dimensions      [0 2 -3 0 0 0 0];

internalField   nonuniform List<scalar> 
23845
(
0.0424893
0.0594418
0.0573555
0.0138146
0.0409237
0.00243432
0.0765531
0.0107356
0.00176966
0.0258658
0.0239503
0.00206174
0.00339348
0.0021235
0.121949
0.0123379
0.00642025
0.00880692
0.00446352
0.00314514
0.0337985
0.0210358
0.0278706
0.00177598
0.0262068
0.00118929
0.0518731
0.00288215
0.0103315
0.00310685
0.0153665
0.0243607
0.135175
0.00938538
0.00207589
0.00256638
0.0205514
0.00208721
0.00218845
0.00196708
0.00407256
0.00612655
0.00284265
0.00593369
0.000847652
0.00407303
0.0282212
0.0142675
0.0225288
0.0108414
0.0143824
0.0466902
0.0274538
0.00253555
0.023635
0.00559857
0.0546745
0.0110531
0.0429632
0.0353234
0.0104884
0.00636049
0.0106901
0.0126025
0.00156573
0.00347396
0.0548196
0.000703732
0.000735791
0.00561537
0.0104774
0.0418962
0.00156025
0.105762
0.00132126
0.117959
0.00206787
0.00221792
0.0113105
0.00959655
0.0394837
0.0961379
0.0597015
0.0111079
0.0642843
0.00209043
0.0804817
0.0288182
0.00152434
0.00797785
0.0140504
0.00528649
0.0109679
0.00258181
0.0113646
0.0123762
0.00568151
0.0160925
0.00128779
0.0323633
0.00668445
0.0595068
0.0507383
0.0135836
0.0128136
0.0114625
0.00244896
0.00114154
0.0470499
0.00579666
0.0213787
0.00211864
0.0891599
0.0215193
0.00268599
0.0239832
0.00144154
0.0152724
0.0104752
0.0128261
0.00216345
0.0174291
0.00568982
0.0214512
0.0632819
0.00131619
0.0104225
0.0107201
0.0400411
0.0310687
0.0566206
0.0386426
0.0277079
0.00225905
0.00854267
0.0485233
0.0128681
0.00204125
0.0457366
0.00223048
0.0117688
0.00573427
0.00221458
0.00639558
0.0089241
0.00542171
0.018857
0.0853661
0.0189369
0.00935058
0.127353
0.00232565
0.0693822
0.00278367
0.0828406
0.0167913
0.0470406
0.00228179
0.0764129
0.0113283
0.0072285
0.118714
0.0117187
0.00162687
0.00211984
0.0120204
0.00229756
0.015917
0.0030167
0.00535187
0.00229316
0.0149778
0.00173332
0.0180209
0.00163273
0.0111101
0.00610039
0.0221875
0.00109525
0.00225049
0.0325221
0.0285248
0.103288
0.0188685
0.0110078
0.00446964
0.00607955
0.010999
0.0104698
0.0058879
0.0117498
0.00220805
0.00216774
0.00238973
0.0079134
0.0021093
0.0122347
0.0106887
0.0212867
0.0228531
0.013707
0.00231985
0.0167773
0.0342887
0.0109223
0.011531
0.0541197
0.0023243
0.0509691
0.00989346
0.0103577
0.0144907
0.00762065
0.00305873
0.0185179
0.0219661
0.0290561
0.00669426
0.0175714
0.0528006
0.00182121
0.113292
0.012375
0.0138117
0.00553378
0.126363
0.0135415
0.00223391
0.00242444
0.0042054
0.00242718
0.0200277
0.00215128
0.000828398
0.041893
0.0102297
0.0014964
0.0139638
0.00176046
0.0166001
0.0262765
0.0172479
0.0110785
0.0400833
0.0163854
0.0117737
0.00240503
0.000714938
0.0112652
0.115693
0.00432533
0.00222166
0.014179
0.00261204
0.101466
0.0136437
0.0153864
0.012458
0.00274325
0.00191969
0.0329036
0.00230323
0.010401
0.020735
0.0181007
0.00170525
0.0111107
0.0258087
0.0198847
0.0131848
0.00221408
0.0137016
0.0156178
0.00227353
0.0187545
0.00214315
0.0122472
0.00232528
0.0201501
0.0264336
0.0121561
0.00246283
0.0130643
0.0106771
0.00213611
0.013372
0.0186184
0.00225375
0.0112864
0.0951272
0.0111011
0.0179731
0.0119842
0.012266
0.0111845
0.00211528
0.0165946
0.00242874
0.00211991
0.0111169
0.0815771
0.117464
0.0102202
0.0131187
0.00238958
0.0138724
0.0137581
0.0151695
0.00631262
0.0113698
0.016106
0.0630723
0.0045691
0.00231696
0.0325901
0.0113242
0.0149226
0.0295709
0.0134598
0.00204172
0.0143844
0.0151958
0.0266339
0.00313707
0.109021
0.002315
0.0117343
0.0292192
0.015505
0.00934341
0.06879
0.0124766
0.0138168
0.0022795
0.0159516
0.0148605
0.0200796
0.00840645
0.00516793
0.0112527
0.0169484
0.0221499
0.021446
0.000900724
0.000881859
0.023671
0.00225457
0.0123684
0.011518
0.111174
0.0192251
0.0551458
0.0107603
0.0131077
0.0279711
0.00214602
0.00487182
0.00166143
0.0982455
0.0109405
0.0281404
0.00145698
0.0181116
0.00921779
0.0104613
0.00231533
0.0205336
0.00271314
0.010766
0.00115411
0.00580849
0.0141413
0.0252295
0.00205687
0.00236587
0.0135956
0.0304106
0.0164621
0.00532885
0.0142639
0.105628
0.00236148
0.0271077
0.000829297
0.000859742
0.00215359
0.00245055
0.0111553
0.0131265
0.0110861
0.06107
0.00510353
0.0166248
0.0151002
0.0168749
0.0118143
0.0176333
0.00107548
0.00599479
0.00232534
0.0247201
0.0175599
0.0117318
0.0198583
0.0463119
0.108545
0.00228018
0.0198206
0.0113911
0.0122704
0.12545
0.000770437
0.0853554
0.0221986
0.0505653
0.0361765
0.0212731
0.0167023
0.00229095
0.021911
0.0945522
0.00390831
0.00189606
0.0113932
0.0108605
0.0529538
0.0828698
0.0170919
0.0222027
0.0269745
0.00220204
0.00859058
0.0230817
0.00801988
0.003767
0.00138403
0.00204773
0.00431897
0.0103777
0.0208677
0.115675
0.0652121
0.0122344
0.0380983
0.0172659
0.0164683
0.00324726
0.0196617
0.00230066
0.0151885
0.0111894
0.00224599
0.0537877
0.00229082
0.000865508
0.0207477
0.035881
0.0365891
0.0116396
0.00251014
0.0537181
0.012565
0.0127213
0.0330458
0.00244163
0.00229304
0.00245083
0.0191624
0.000947984
0.111617
0.00299549
0.00234239
0.0160131
0.011047
0.0145449
0.0389375
0.00191606
0.0166014
0.00281256
0.00754913
0.0233371
0.0196359
0.0147419
0.0198941
0.0132289
0.0930139
0.00220458
0.00211328
0.0608976
0.0198431
0.00118379
0.0789364
0.0123471
0.0208671
0.0110156
0.0252609
0.00146788
0.0329919
0.0013776
0.00229136
0.0741988
0.0126833
0.0258588
0.023504
0.0113646
0.0113607
0.0186172
0.00309676
0.00284774
0.022126
0.0145073
0.034755
0.0197475
0.0151484
0.00229328
0.000984843
0.0184249
0.119929
0.0905852
0.00493499
0.026253
0.00260713
0.00922543
0.0186603
0.00108913
0.0810324
0.105798
0.0131829
0.0305697
0.011531
0.0103944
0.111512
0.0319587
0.0266848
0.00576414
0.00320271
0.0026586
0.0173948
0.0256418
0.0116721
0.0611518
0.00245237
0.0242408
0.0251853
0.00762684
0.0240383
0.0201526
0.00296076
0.00295048
0.00280574
0.00272237
0.00210598
0.0207797
0.00313596
0.0109205
0.0663711
0.00493729
0.0313358
0.00228351
0.00269077
0.0113155
0.0116146
0.0408834
0.00331612
0.00486776
0.0183326
0.0128118
0.00143652
0.0103643
0.00271852
0.00103872
0.0819621
0.00461418
0.00242037
0.0146861
0.0313919
0.0176066
0.0827589
0.0119591
0.0275297
0.00117376
0.00208857
0.00816011
0.0729668
0.0193188
0.0045281
0.00158962
0.00168274
0.0123618
0.00162312
0.0280805
0.12066
0.0509932
0.016602
0.0112816
0.00486259
0.000977948
0.0025831
0.00841706
0.00208601
0.0432213
0.00295156
0.0260726
0.106872
0.0176314
0.0325432
0.0126604
0.0268323
0.0883488
0.0157662
0.0235164
0.0501758
0.0555885
0.0312093
0.0240048
0.0511984
0.0266468
0.0480908
0.00323886
0.0028006
0.0270211
0.0105178
0.0258922
0.0150883
0.0508886
0.011435
0.00369588
0.00634693
0.00245786
0.0105988
0.00325611
0.00356247
0.0227601
0.00273844
0.0020758
0.100262
0.0513545
0.0148612
0.00121592
0.0160797
0.0399669
0.0122695
0.00290852
0.00290387
0.0385626
0.0316301
0.0372007
0.00251097
0.0308731
0.0531244
0.00262657
0.00217854
0.0250388
0.0118926
0.0112727
0.134548
0.0357272
0.024797
0.0144225
0.0220591
0.0124986
0.00615727
0.00993962
0.0516981
0.00892379
0.00123314
0.00235794
0.0375375
0.0165455
0.0299632
0.00944995
0.0126419
0.0213024
0.0136676
0.0118022
0.0227127
0.0107674
0.024839
0.0197409
0.00911942
0.0246777
0.00917456
0.00504874
0.00843082
0.00880885
0.0350072
0.00523481
0.00737779
0.0293335
0.0293942
0.00657283
0.00562882
0.0128853
0.0146539
0.0166268
0.0194715
0.021628
0.0111943
0.0235711
0.0101973
0.0230809
0.00872853
0.018076
0.00807873
0.00864492
0.00912732
0.00701383
0.00599297
0.00626543
0.00361442
0.00578359
0.017677
0.0017761
0.0053486
0.00620929
0.00572101
0.00249348
0.0180171
0.00541203
0.0154318
0.0174123
0.0104598
0.00509205
0.00563257
0.00276792
0.0165888
0.0124724
0.0262953
0.00217584
0.0147225
0.004601
0.00805073
0.00293402
0.00507011
0.0230801
0.00839551
0.0258803
0.00523247
0.00242381
0.00359682
0.0010025
0.00433665
0.0130752
0.0107255
0.00166267
0.00476653
0.0247714
0.00415488
0.00381578
0.00329931
0.0801728
0.0048793
0.000813983
0.0333293
0.0059809
0.0184929
0.0242439
0.0209875
0.0206118
0.0182018
0.0238798
0.00521151
0.0107818
0.0151417
0.0193529
0.0097232
0.0116763
0.00768555
0.0578652
0.0068839
0.00374325
0.0207652
0.0189805
0.0266892
0.0172702
0.0166257
0.00345176
0.0441826
0.0198277
0.00872751
0.0060479
0.00796677
0.0154447
0.00216003
0.0175672
0.00402521
0.00382885
0.00599061
0.00423929
0.00386701
0.00560984
0.00543376
0.0087877
0.0052447
0.00448737
0.00509046
0.0371698
0.0104276
0.00368877
0.00757952
0.00648613
0.00490747
0.0262371
0.0162341
0.0220471
0.0118454
0.00541978
0.0035301
0.00546525
0.00497293
0.0528212
0.0217935
0.0208463
0.00959694
0.00372831
0.0108008
0.0112039
0.0171865
0.00401842
0.00588113
0.00177114
0.00221246
0.00719624
0.00256421
0.00258621
0.00128531
0.00351391
0.00153049
0.00207159
0.00165812
0.00150405
0.00118562
0.00284168
0.00386106
0.00225445
0.00238649
0.00866044
0.00518293
0.00599858
0.0376357
0.0225623
0.0011202
0.00163042
0.00469916
0.0257902
0.0159545
0.0231325
0.0140813
0.00952306
0.00367286
0.00388383
0.00520321
0.00802482
0.00841518
0.00336426
0.00561046
0.00325079
0.0065701
0.00203313
0.100923
0.00214376
0.0185184
0.00623822
0.0275701
0.00344805
0.00465429
0.00649974
0.00457583
0.0132833
0.0104474
0.0049107
0.0151796
0.0028674
0.00324665
0.00189308
0.00185486
0.00152439
0.00142084
0.00480439
0.0049032
0.00368663
0.0185208
0.00373079
0.0178867
0.0193297
0.0184841
0.00515084
0.0141563
0.00473895
0.00173478
0.00679425
0.00136953
0.0111117
0.00337367
0.00147338
0.0163772
0.00313106
0.00200345
0.0149731
0.00334039
0.00918082
0.0176706
0.0113076
0.00537475
0.00976027
0.00357392
0.00783297
0.00359708
0.0186329
0.0314611
0.00220591
0.00974441
0.0135614
0.014607
0.0305512
0.0168854
0.00438448
0.00865073
0.00736417
0.00632185
0.135254
0.0174119
0.00573985
0.00500323
0.00292288
0.0224729
0.00511174
0.126965
0.00476118
0.00156621
0.00433101
0.00272006
0.00558287
0.00449105
0.00455768
0.03797
0.00375597
0.0256496
0.00832449
0.0254536
0.00456012
0.0116215
0.0112681
0.0140298
0.0146614
0.0078178
0.016044
0.00866352
0.0162153
0.0177945
0.0208799
0.00786616
0.0196809
0.0187971
0.0107743
0.0296748
0.0237249
0.016695
0.0236024
0.00359159
0.00696364
0.00840855
0.00608904
0.0027984
0.00552676
0.014063
0.00604537
0.00344154
0.0164391
0.0135825
0.0172884
0.00676008
0.032548
0.00331775
0.00506929
0.00543617
0.00491967
0.00939023
0.00201459
0.0166964
0.0312408
0.0541977
0.00307096
0.00455608
0.0201487
0.0232729
0.00322604
0.0180235
0.0122823
0.0113379
0.0157533
0.0172301
0.00607672
0.0185735
0.0237524
0.0210717
0.027805
0.0281767
0.0300134
0.00313345
0.00837226
0.00825282
0.00451942
0.012887
0.0156408
0.00481298
0.0241912
0.00321174
0.100139
0.00330892
0.00327007
0.0107885
0.00312312
0.000787038
0.00219062
0.001576
0.00484606
0.0039012
0.00433042
0.00527015
0.0259359
0.0107094
0.00355315
0.0113314
0.00786442
0.0248552
0.0220209
0.0505782
0.0197678
0.00357784
0.00604322
0.00508556
0.00313926
0.00111747
0.00274128
0.0322868
0.0260079
0.0087274
0.0129928
0.0102166
0.014617
0.0166785
0.0217778
0.00435062
0.0300214
0.0217811
0.0262603
0.0200282
0.017006
0.0173817
0.00910521
0.0152761
0.00531819
0.0135696
0.0105258
0.00589706
0.00930124
0.00821087
0.00748864
0.00475465
0.00465918
0.012209
0.0223242
0.0249071
0.00341512
0.0183572
0.00342714
0.00228014
0.00704966
0.00205386
0.0123108
0.0067218
0.00585733
0.0057319
0.00556809
0.0051141
0.0293474
0.00247645
0.0031736
0.0250718
0.00650445
0.00117116
0.0118525
0.0273619
0.0119842
0.0113311
0.050766
0.00473409
0.0154852
0.0182116
0.0202276
0.00976369
0.00334376
0.0172738
0.0146624
0.0152559
0.0131979
0.011396
0.0103785
0.0303542
0.00900044
0.0211051
0.00389765
0.00711618
0.0343648
0.00617015
0.00854929
0.0452061
0.00638961
0.00105702
0.00240857
0.00562751
0.00295449
0.00424108
0.00351693
0.00330422
0.0272777
0.00518356
0.00465245
0.029715
0.00301113
0.00326245
0.00329815
0.0459574
0.00487542
0.00418565
0.0272274
0.00222227
0.00132411
0.00369017
0.00424873
0.00401656
0.0182394
0.00232501
0.00410378
0.0129819
0.0226365
0.0262812
0.0186743
0.0145697
0.00353361
0.0077578
0.00538779
0.0061855
0.00356707
0.027263
0.00832649
0.00310047
0.00309265
0.00959882
0.00845627
0.0260187
0.0118769
0.0035896
0.00471531
0.00322869
0.0245372
0.00763681
0.00165407
0.0229293
0.00380686
0.0120383
0.00339386
0.00234533
0.00293028
0.0106566
0.004827
0.00386006
0.0209886
0.0034051
0.0259343
0.00799799
0.0026144
0.0167796
0.00447913
0.0139041
0.0147033
0.00979713
0.0188024
0.0108478
0.003285
0.012267
0.0115779
0.00269403
0.0064551
0.00423842
0.00363447
0.0086408
0.00122826
0.00170353
0.0108124
0.00147128
0.00298704
0.0138127
0.00137874
0.00248187
0.0178355
0.00230375
0.00184091
0.0155587
0.0347114
0.0300212
0.00215799
0.00327538
0.0212361
0.00228097
0.00245077
0.0367307
0.0207834
0.0367263
0.00800111
0.0322348
0.00450941
0.00677836
0.0133202
0.0181294
0.00351962
0.0158709
0.0426935
0.0343038
0.00339335
0.00450405
0.00307123
0.0021703
0.00288784
0.00539865
0.00401296
0.130665
0.00890411
0.00485559
0.0244117
0.00761688
0.0205691
0.00317529
0.0274708
0.00493959
0.00767754
0.037886
0.00418669
0.0101838
0.00279618
0.00355081
0.0531913
0.00279544
0.0469032
0.0159799
0.024041
0.0161821
0.0119533
0.0318846
0.00396955
0.00340228
0.0260921
0.00414501
0.00432644
0.00423578
0.0380313
0.00277075
0.00306816
0.0039394
0.0444025
0.00374774
0.0072379
0.00661498
0.00301771
0.0166713
0.0100069
0.0124411
0.0431954
0.00202629
0.0160844
0.00382158
0.0121053
0.00271786
0.0478141
0.00830766
0.00757705
0.00343215
0.0110672
0.0155675
0.00682793
0.019989
0.0237613
0.00297278
0.00698631
0.00272797
0.0217389
0.0200287
0.00234517
0.0104586
0.00812536
0.0116014
0.0117652
0.016462
0.00660704
0.0152665
0.0164636
0.0410861
0.0103061
0.0327217
0.00221895
0.0122985
0.00345157
0.00326195
0.0644595
0.0384947
0.0222995
0.00232556
0.0358177
0.00781189
0.00634933
0.0411344
0.00667802
0.0461749
0.0102407
0.0469923
0.0156727
0.00231821
0.105897
0.0145218
0.0137703
0.0116806
0.0402115
0.0460048
0.00292225
0.00430017
0.142458
0.033193
0.00331764
0.0461703
0.0486197
0.0045289
0.0328521
0.0044598
0.0407546
0.0077559
0.0117522
0.00160209
0.0359329
0.0369185
0.00213587
0.121863
0.0431606
0.00198752
0.0121187
0.00361942
0.0218616
0.0337838
0.0110804
0.00290521
0.031724
0.0316831
0.00774956
0.0450301
0.00720774
0.00420173
0.0119092
0.0117169
0.0396681
0.0029032
0.00242407
0.025916
0.00877794
0.00443648
0.0072452
0.00283953
0.0138612
0.0127954
0.0340891
0.0629507
0.0448884
0.00300172
0.0139886
0.0030746
0.0109519
0.0152988
0.00622788
0.0105286
0.00201697
0.0434346
0.0182785
0.0031541
0.00293776
0.0143269
0.0285878
0.0463389
0.0513793
0.0176822
0.00690818
0.0129594
0.00234607
0.00309966
0.00403867
0.000952849
0.00254003
0.00460629
0.0357971
0.125883
0.00572134
0.00377523
0.00984549
0.0397478
0.00461535
0.0153662
0.00793592
0.0112081
0.00580814
0.0117847
0.0274292
0.0284176
0.0151615
0.00280605
0.0161965
0.0812317
0.011353
0.00394691
0.0112406
0.0267627
0.0151619
0.00270147
0.00304763
0.00750923
0.0124925
0.0138977
0.0123589
0.00202082
0.0134979
0.0040557
0.00269862
0.0580283
0.0130073
0.033692
0.0145819
0.0178113
0.020943
0.00971183
0.00295979
0.0374169
0.00299732
0.00803357
0.00754557
0.0113438
0.0110794
0.0157929
0.00795608
0.0144554
0.0302537
0.0113507
0.020069
0.00265991
0.0506723
0.00279631
0.0026608
0.026825
0.0248116
0.0104838
0.0464765
0.0126868
0.00322005
0.0251162
0.00282854
0.0290971
0.0385427
0.00283621
0.0190462
0.0501787
0.0057771
0.0417386
0.0191582
0.0332588
0.00805215
0.0469889
0.0432386
0.00289675
0.00977117
0.0428866
0.00293062
0.00255128
0.0368785
0.00240886
0.0127327
0.0412219
0.0297934
0.0848901
0.00130217
0.00214835
0.00226651
0.0534783
0.00262873
0.00302932
0.00789782
0.0147263
0.0038739
0.00249177
0.00267733
0.0130303
0.0129559
0.00261533
0.0113048
0.00233123
0.00244141
0.00206271
0.0750393
0.0235765
0.0025506
0.00294247
0.0208005
0.0319202
0.00331271
0.01653
0.00250779
0.00237274
0.0325715
0.00300264
0.0278196
0.00223614
0.0175449
0.0107424
0.142517
0.0138913
0.0987729
0.0660626
0.00254572
0.0460958
0.00317026
0.00278842
0.00671401
0.0231635
0.0029236
0.0137251
0.0229057
0.00421239
0.00396969
0.0156217
0.049013
0.0125345
0.0774757
0.0274055
0.0305395
0.00266128
0.0422936
0.0281681
0.0021583
0.0190125
0.00234099
0.00249832
0.0524604
0.0103381
0.0104065
0.0612262
0.0560828
0.00323649
0.0109031
0.0044175
0.0270309
0.00258913
0.0402494
0.0416549
0.00217953
0.0336309
0.00276047
0.00243032
0.00231266
0.0111933
0.0149348
0.104802
0.0348071
0.00369148
0.0591285
0.00253633
0.00248408
0.00215191
0.0328307
0.0111993
0.00234051
0.00711586
0.0622439
0.0146717
0.0167031
0.00273588
0.0110856
0.00370757
0.00410833
0.0054175
0.00108445
0.00525374
0.00180602
0.00237953
0.114359
0.00426181
0.00738382
0.00261643
0.0113139
0.0121386
0.0346136
0.00109653
0.0117936
0.0316122
0.00966474
0.00276791
0.0329704
0.00201281
0.0273504
0.0128096
0.0115093
0.0075519
0.0038943
0.0612034
0.0492046
0.00253017
0.00388466
0.0547246
0.0419393
0.0213701
0.00541276
0.0310901
0.00441859
0.0116789
0.00762863
0.0124608
0.00244339
0.00373722
0.00708781
0.0141663
0.0110375
0.00253424
0.0118579
0.0142255
0.0132152
0.0129381
0.0198844
0.0304167
0.0265204
0.00267064
0.0385603
0.0405224
0.0347175
0.000993816
0.0156006
0.0190014
0.0122317
0.0411555
0.00192675
0.0027856
0.0321588
0.108078
0.0165578
0.0596761
0.00167329
0.00242236
0.004952
0.00376576
0.0130489
0.00363497
0.00243701
0.0242696
0.0272816
0.0673888
0.0599531
0.0993648
0.0495995
0.0529535
0.0207737
0.0139842
0.0366516
0.00658232
0.0329416
0.00155312
0.0191506
0.00212213
0.0602276
0.0109129
0.00687186
0.012329
0.00205689
0.00728076
0.00712232
0.00271753
0.0127948
0.0026414
0.0512826
0.0404831
0.00354452
0.0303189
0.0316765
0.0159466
0.0327199
0.147025
0.0108643
0.0110512
0.0639221
0.0106779
0.0239376
0.0012305
0.0605404
0.00131457
0.0142856
0.0122331
0.00430127
0.0383908
0.0298522
0.00160498
0.0115851
0.00373945
0.0726265
0.0309034
0.00707253
0.0976669
0.00654002
0.0270927
0.00316313
0.00735004
0.0586381
0.0173157
0.00833592
0.00224
0.00300072
0.0146458
0.00424349
0.0793527
0.0143377
0.00812391
0.0628514
0.00208225
0.0106519
0.0100657
0.00265543
0.0274579
0.0626453
0.0354448
0.0227385
0.0137522
0.0591871
0.00269279
0.0159474
0.00232101
0.00253803
0.0126027
0.00204414
0.0475312
0.062432
0.062689
0.0159493
0.0184122
0.0288047
0.0105172
0.00270189
0.00900327
0.00299537
0.0134574
0.00691035
0.00445513
0.00915028
0.124787
0.00236582
0.0827022
0.0447343
0.0125602
0.0115237
0.0422263
0.0335704
0.00216828
0.1406
0.00342439
0.00230731
0.00235502
0.132913
0.0036726
0.00231505
0.00301314
0.0355541
0.00441373
0.0111183
0.00729641
0.0111985
0.00847622
0.00284963
0.0260417
0.00426532
0.00435837
0.0306362
0.00193687
0.0105743
0.00369993
0.0406904
0.0134297
0.00216171
0.0215282
0.0333414
0.064105
0.00423419
0.0026196
0.0872046
0.064658
0.0811484
0.0580066
0.0701498
0.0539966
0.00220837
0.0234476
0.0571801
0.00592427
0.0120375
0.00205273
0.0105389
0.0253327
0.0106357
0.0162618
0.0754828
0.0190678
0.0016906
0.00202482
0.00217769
0.0123528
0.0111492
0.0164389
0.0267575
0.0586477
0.00797303
0.00257688
0.0566738
0.104388
0.0113295
0.00478887
0.0205248
0.00410632
0.0111602
0.0263108
0.012383
0.0106514
0.0102842
0.0140206
0.00464184
0.0976571
0.0126127
0.0593167
0.0402043
0.0106616
0.01178
0.011087
0.0322997
0.00450336
0.013957
0.022012
0.00550857
0.0116425
0.00662078
0.028298
0.012481
0.0282881
0.0552298
0.0501551
0.00599535
0.0487763
0.103268
0.00210946
0.0502408
0.0028151
0.0113222
0.0424223
0.00231088
0.00394612
0.0327138
0.00258732
0.00424768
0.00248744
0.00181227
0.0495233
0.00225747
0.0409954
0.0128781
0.0279458
0.00245099
0.00565028
0.00343719
0.0125445
0.00211252
0.0832293
0.0822542
0.026459
0.0307992
0.0143702
0.0130625
0.03222
0.00551396
0.0716714
0.0698587
0.0275812
0.00748411
0.00215035
0.00228913
0.0259757
0.0317218
0.00396039
0.00250394
0.00412181
0.0141093
0.00237646
0.00673617
0.010109
0.0141824
0.0166203
0.00689987
0.00524762
0.00287401
0.061373
0.00600088
0.0117723
0.00819413
0.0103939
0.00976797
0.00789916
0.0103417
0.0113081
0.046707
0.0269051
0.0186995
0.00993562
0.0437967
0.00228434
0.0102675
0.00934784
0.00191056
0.00417958
0.0333304
0.0705078
0.00194935
0.0422674
0.0133697
0.0865733
0.0133853
0.0564034
0.00333585
0.011211
0.0612677
0.0101624
0.0235574
0.0746365
0.0516124
0.00202264
0.0196551
0.00213714
0.0405112
0.0287517
0.0181456
0.00243846
0.00555161
0.0432033
0.00404286
0.00919723
0.00701133
0.0330012
0.00232615
0.0241273
0.00190478
0.0742535
0.00202936
0.00154152
0.00711408
0.00768532
0.0618387
0.0276706
0.0039395
0.00679759
0.00950531
0.00204895
0.0151161
0.00621115
0.0197331
0.0111613
0.0950215
0.00211895
0.00222481
0.0455506
0.0614427
0.0189136
0.144436
0.0552783
0.00392991
0.0259072
0.0786797
0.00252761
0.0639769
0.0237269
0.0363265
0.00697045
0.0710804
0.0020833
0.0487276
0.00212574
0.0462057
0.0113429
0.00222917
0.0906549
0.00276577
0.0431964
0.037499
0.00598929
0.00279518
0.0987911
0.124805
0.00776343
0.0276375
0.0607024
0.00172952
0.0148006
0.00669736
0.0118336
0.00366304
0.00199026
0.012872
0.0696386
0.00473133
0.0416318
0.0270439
0.00247532
0.00212237
0.0021688
0.00239076
0.00730871
0.0155561
0.0193468
0.00571635
0.0516376
0.0110801
0.00344719
0.00383195
0.00239915
0.0809419
0.048708
0.00223539
0.00932058
0.0256233
0.00852414
0.0634175
0.038418
0.00215756
0.00336699
0.0110016
0.00171747
0.00404922
0.033243
0.0544406
0.00216382
0.00220731
0.0133069
0.0665407
0.0842071
0.00236021
0.00142612
0.107873
0.0142887
0.0015255
0.00220393
0.0532161
0.0463808
0.102702
0.00721865
0.060874
0.0155856
0.115695
0.0631629
0.00236537
0.0374439
0.0023548
0.0168339
0.00263672
0.00295758
0.0104837
0.0153133
0.00900352
0.0253804
0.00132455
0.0072493
0.013912
0.0396431
0.00602824
0.0858413
0.0267493
0.0403866
0.00263386
0.092107
0.0230787
0.0105671
0.0116197
0.012118
0.0421766
0.00134325
0.030889
0.0500978
0.00138134
0.019069
0.01111
0.00259375
0.00261004
0.00221191
0.0112436
0.00582287
0.00290414
0.0527949
0.139851
0.00148975
0.0533687
0.0597595
0.0913886
0.0218107
0.0297128
0.0681278
0.00230012
0.0217463
0.0162845
0.00205229
0.00410905
0.00247775
0.00150154
0.00381876
0.0250625
0.010326
0.0706783
0.00187708
0.0114733
0.00236264
0.00259827
0.00208661
0.0653052
0.0294758
0.0045972
0.00246017
0.0281187
0.0103594
0.0384139
0.0366595
0.0416004
0.0296102
0.00227354
0.00226994
0.0118875
0.00223867
0.0110932
0.00260534
0.020399
0.0475152
0.0149353
0.0677403
0.00285695
0.00206733
0.0214707
0.0285589
0.017139
0.0143498
0.011505
0.0120908
0.127157
0.0900564
0.0320136
0.0728336
0.0136122
0.00183954
0.0107459
0.00770277
0.0381949
0.00223524
0.00213927
0.00742819
0.0363578
0.0144318
0.0191141
0.0106508
0.0119495
0.00231259
0.067006
0.0255296
0.026687
0.00226231
0.13829
0.0672942
0.0331388
0.0012565
0.0710604
0.0167589
0.0142078
0.00202549
0.0161843
0.00658064
0.00259479
0.0135205
0.0152664
0.0235887
0.0197888
0.116037
0.0560554
0.00247341
0.0493281
0.00220093
0.0108571
0.00622922
0.0408296
0.0025409
0.00219258
0.0740762
0.0102812
0.00227276
0.0714335
0.0260267
0.0242757
0.00227263
0.00225181
0.0111199
0.0331922
0.00194769
0.00231332
0.00221853
0.0545373
0.00245251
0.00257784
0.00747572
0.00473049
0.0569946
0.00356088
0.0288069
0.00201568
0.0112333
0.065421
0.0176372
0.0236519
0.01187
0.00228916
0.00166196
0.00168488
0.00256077
0.0321775
0.00449322
0.00302095
0.0530892
0.0110341
0.0114417
0.0468547
0.0139058
0.0027439
0.00247913
0.00313395
0.0122119
0.0158604
0.00147022
0.041266
0.00986313
0.0847857
0.0741771
0.0132832
0.00464865
0.0720543
0.00254455
0.00204855
0.0130577
0.104501
0.00404278
0.00218583
0.0129666
0.0158198
0.00221551
0.00225667
0.0195803
0.0117822
0.00200865
0.00220524
0.0106622
0.00691525
0.0410955
0.00200349
0.121506
0.0649179
0.00197714
0.0733274
0.0109166
0.0396368
0.0407037
0.0644406
0.0609531
0.0768125
0.0160653
0.00935775
0.00736633
0.00210372
0.00266414
0.0108692
0.00895233
0.0367075
0.0698103
0.00227112
0.00169699
0.00224026
0.00208346
0.0021597
0.00222018
0.0118054
0.00510221
0.0017603
0.0108045
0.00197968
0.0023518
0.00336673
0.00226705
0.0315112
0.0314082
0.0171488
0.0167486
0.0108393
0.0330014
0.00656274
0.0104294
0.00177936
0.0128527
0.00216424
0.0140429
0.0711356
0.0144335
0.00443558
0.00194821
0.00658032
0.0386967
0.0384132
0.011025
0.00255559
0.00801785
0.00224144
0.0585413
0.0108502
0.0167
0.003216
0.0034937
0.0121161
0.00809713
0.0345752
0.0190207
0.00489596
0.00198742
0.00239303
0.0039543
0.0493367
0.0218711
0.0832421
0.0229559
0.0106547
0.0457543
0.0242348
0.0260638
0.0176271
0.0478484
0.0110429
0.00294834
0.0664029
0.0634552
0.01124
0.0108553
0.0172015
0.00236281
0.0115044
0.00741906
0.0142287
0.0872995
0.0174882
0.00510529
0.00781738
0.0475515
0.0764959
0.00195115
0.0126764
0.0128542
0.00486323
0.0022634
0.00229205
0.00108046
0.00454257
0.00279273
0.00222196
0.130482
0.0114799
0.0518987
0.0560525
0.012939
0.00217715
0.0215861
0.0224606
0.0165033
0.00988353
0.0125886
0.00224987
0.0993012
0.0377978
0.0678557
0.000976314
0.00195107
0.00208664
0.0148289
0.0166904
0.0119435
0.00189157
0.0107833
0.0429091
0.00224219
0.00130128
0.00501743
0.0768292
0.00169554
0.00628759
0.0107809
0.0128876
0.00336983
0.0865126
0.0365136
0.0983665
0.0131956
0.0206822
0.0260334
0.00240508
0.0260824
0.133051
0.0124462
0.00702226
0.0127138
0.0549281
0.0193603
0.0145089
0.0109549
0.0285055
0.00227306
0.0338927
0.00111235
0.00237892
0.00228373
0.0373591
0.0117934
0.0399211
0.0899971
0.011865
0.0222331
0.00169422
0.0191484
0.00223948
0.00928833
0.0273303
0.0246923
0.00187978
0.00236351
0.0488056
0.00111293
0.0566102
0.00154559
0.0552897
0.00259526
0.0275358
0.00186717
0.0506583
0.0123689
0.0343989
0.0561489
0.0232325
0.0255597
0.00108907
0.0484713
0.0302193
0.0233776
0.0195126
0.0118489
0.0249913
0.0295006
0.00227115
0.0304114
0.0481223
0.00625624
0.051963
0.092327
0.00198684
0.0112998
0.00306761
0.0665507
0.00247461
0.00240401
0.00228285
0.0366619
0.127737
0.0261359
0.0124232
0.0191947
0.0020266
0.00940433
0.00306225
0.00592362
0.00238244
0.0109691
0.0101063
0.00965753
0.00216608
0.0756684
0.0717767
0.00175497
0.00554457
0.0324584
0.0371096
0.0277186
0.00210628
0.00222014
0.0102252
0.0349388
0.00259551
0.00200786
0.0838663
0.0253009
0.00176791
0.00596864
0.0216348
0.0209797
0.0361689
0.0344429
0.027032
0.0105092
0.0105481
0.0475521
0.0549134
0.00293601
0.0117943
0.0107795
0.00225095
0.00286243
0.0104984
0.00258654
0.0264623
0.0511212
0.00330695
0.0331036
0.09685
0.0030968
0.0148925
0.00383873
0.0328779
0.0199292
0.00948094
0.0112863
0.0895951
0.0103718
0.00589091
0.0110516
0.00624298
0.0830032
0.0397457
0.0427602
0.00919457
0.00620396
0.0035466
0.0106267
0.00148459
0.00123312
0.0095987
0.0200317
0.00391344
0.00876666
0.00936796
0.00237439
0.0427192
0.0106812
0.0113014
0.00201757
0.12961
0.00389178
0.00214763
0.00437668
0.0281952
0.00309628
0.00316257
0.0127018
0.00263441
0.00361652
0.00992223
0.0512331
0.00375828
0.0479129
0.0104147
0.00597553
0.0376311
0.0166343
0.00360539
0.11254
0.0121111
0.0670379
0.00416025
0.0260602
0.0035112
0.0274142
0.134036
0.0032513
0.0173114
0.00977436
0.0111258
0.00221008
0.00224308
0.00448609
0.00216382
0.00286616
0.00352247
0.0169625
0.010594
0.00256425
0.00214563
0.00323273
0.0179585
0.0321824
0.0339276
0.0147466
0.00916941
0.135155
0.00258283
0.00237294
0.00404587
0.00244589
0.00245512
0.0203555
0.00364913
0.00510062
0.0286113
0.0106356
0.010258
0.0382175
0.0433495
0.00255015
0.0617438
0.0121962
0.0226561
0.025659
0.0170975
0.0162482
0.0386553
0.00287211
0.0143458
0.00199152
0.0117999
0.00146087
0.0384959
0.00665776
0.00343702
0.0128163
0.029742
0.0264143
0.00234228
0.0216224
0.029687
0.0174899
0.00114688
0.00538393
0.00640068
0.0193903
0.00716199
0.124173
0.0228948
0.0064517
0.0106788
0.00136685
0.00210874
0.00812705
0.00208526
0.0404048
0.0145264
0.0021435
0.00476204
0.0324631
0.00681586
0.0490691
0.0215643
0.0238103
0.00595438
0.00163472
0.0232632
0.0737089
0.00248397
0.00150016
0.0106508
0.00163344
0.00270616
0.0242148
0.00698708
0.0423974
0.0263967
0.0555787
0.00707372
0.0233501
0.0017061
0.00192464
0.00263817
0.0322951
0.000977525
0.000836682
0.0012228
0.0123366
0.0104663
0.0013695
0.028874
0.0645726
0.037991
0.00221516
0.0225011
0.0969937
0.0312628
0.00268085
0.0138745
0.00299687
0.0567573
0.00153091
0.0112247
0.0275217
0.0309415
0.0021666
0.00325783
0.0129289
0.0356648
0.0464462
0.00429726
0.046355
0.00122855
0.00249131
0.0280467
0.0132165
0.00258164
0.0436453
0.0128689
0.00236402
0.0106499
0.0267594
0.0110582
0.00164379
0.00228935
0.0267201
0.00981057
0.00220439
0.0259524
0.0620501
0.0365454
0.0126327
0.00151053
0.002419
0.0140844
0.0505162
0.0143641
0.054444
0.0807703
0.0692019
0.00215889
0.00219269
0.00460783
0.00211416
0.00220077
0.0290776
0.0386501
0.00230664
0.00238858
0.00227809
0.00122402
0.0216233
0.0157882
0.0128359
0.00108335
0.000961988
0.00107808
0.0139691
0.0288632
0.0107401
0.00235869
0.0413985
0.00408547
0.00422015
0.0402441
0.00408436
0.0173162
0.0286806
0.00197204
0.0125807
0.00204308
0.0123041
0.011178
0.00907076
0.0660321
0.00229184
0.0246863
0.030753
0.0134238
0.00403182
0.0762058
0.0882111
0.00237854
0.00179138
0.0109175
0.012599
0.00609039
0.035105
0.0731516
0.0136478
0.0188626
0.0847903
0.0271915
0.0104974
0.0456313
0.0397838
0.0730649
0.0434338
0.0115742
0.0528622
0.00093789
0.0029307
0.0017957
0.0133977
0.00171807
0.0656161
0.0228927
0.00221654
0.00191668
0.000748535
0.000831007
0.00186113
0.0140482
0.0220954
0.0111785
0.0258443
0.0261933
0.0149288
0.00169114
0.00209107
0.0128074
0.00435791
0.00236537
0.00224998
0.00288595
0.0163316
0.00219897
0.0104516
0.00212499
0.00403456
0.0229083
0.0012744
0.0114335
0.0135741