/*--------------------------------*- C++ -*----------------------------------*\
  =========                 |
  \\      /  F ield         | OpenFOAM: The Open Source CFD Toolbox
   \\    /   O peration     | Website:  https://openfoam.org
    \\  /    A nd           | Version:  10
     \\/     M anipulation  |
\*---------------------------------------------------------------------------*/
FoamFile
{
    format      ascii;
    class       volScalarField;
    location    "1000";
    object      k;
}
// * * * * * * * * * * * * * * * * * * * * * * * * * * * * * * * * * * * * * //

dimensions      [0 2 -2 0 0 0 0];

internalField   nonuniform List<scalar> 
23845
(
0.080167
0.0956842
0.0701934
0.0464913
0.0908679
0.024439
0.082443
0.0343992
0.0195639
0.0636532
0.0767472
0.0229104
0.0267578
0.0220462
0.0909753
0.0465377
0.0387883
0.0477954
0.0296844
0.0279914
0.0669951
0.0731919
0.0632007
0.0194771
0.0693541
0.0153758
0.0752084
0.0265495
0.019973
0.0276177
0.0502826
0.0185193
0.0864605
0.0487116
0.0230031
0.0256091
0.0158314
0.0230543
0.0234425
0.0208444
0.0280033
0.0389893
0.0241437
0.0389551
0.0129272
0.0300383
0.0778759
0.0507976
0.0235689
0.0153099
0.0300755
0.0721012
0.0196806
0.0244803
0.0179445
0.0352388
0.0938539
0.0367014
0.0767531
0.0738025
0.0270448
0.0401002
0.0443076
0.0245478
0.0180293
0.0274515
0.0767044
0.0118528
0.0120386
0.0331782
0.0310368
0.061637
0.0176536
0.0882789
0.0163234
0.0911933
0.0229164
0.0236251
0.0405618
0.0469392
0.0694057
0.0892198
0.0969229
0.0373769
0.0679021
0.0230835
0.0874405
0.019382
0.0178179
0.0415016
0.026952
0.0317295
0.021374
0.0255861
0.0365309
0.0274109
0.035931
0.0536785
0.0161405
0.083489
0.0385126
0.0782556
0.0977606
0.0111786
0.0204995
0.0390187
0.0243964
0.0150791
0.0754052
0.0382091
0.0726818
0.0232007
0.0798489
0.0603235
0.026179
0.059112
0.0170642
0.0504117
0.02065
0.0318981
0.0233722
0.0221372
0.0334919
0.0448517
0.0795437
0.0162035
0.0282905
0.015213
0.0548227
0.0785903
0.0548447
0.0915244
0.0827414
0.0231362
0.0435541
0.0913415
0.0101988
0.0227922
0.0746125
0.0236353
0.0172841
0.037857
0.0236582
0.0406101
0.040835
0.0371539
0.0541528
0.081546
0.0346406
0.0438941
0.0879686
0.0219169
0.0892604
0.0247755
0.0762618
0.0611509
0.0974094
0.0240839
0.0610417
0.0254217
0.0375105
0.0906812
0.0361446
0.0184916
0.020346
0.0515978
0.0236448
0.0228443
0.0272635
0.0369992
0.0235143
0.0473975
0.0191688
0.0436384
0.0184936
0.0387787
0.0338425
0.070055
0.0147891
0.0238975
0.0846131
0.0799988
0.0891861
0.0691107
0.044613
0.0306211
0.0388908
0.0362654
0.0183592
0.0379956
0.0223218
0.0224981
0.0222135
0.0239399
0.0387486
0.0216984
0.0163141
0.0186604
0.0133168
0.0737551
0.0570266
0.0228651
0.0345014
0.0893354
0.0363117
0.0361203
0.0666783
0.0239483
0.0811399
0.0503898
0.0500911
0.0213303
0.0372466
0.0272508
0.0260607
0.017207
0.0843993
0.0410432
0.0103664
0.0565917
0.0190543
0.0903212
0.0158863
0.0534868
0.0377461
0.0890866
0.0105779
0.0226396
0.0244314
0.0284807
0.0247088
0.0253705
0.0233742
0.012808
0.093175
0.0239166
0.0175442
0.0478891
0.0191688
0.0477828
0.0215195
0.0525959
0.0383182
0.0929813
0.0236665
0.0463655
0.0240833
0.0119337
0.0376367
0.0908122
0.0313882
0.023789
0.0299022
0.0229432
0.0882411
0.0269198
0.0349368
0.0315213
0.0263886
0.0203617
0.0174894
0.0242274
0.0294405
0.0709427
0.0656416
0.0191166
0.0398444
0.0450045
0.0587726
0.0460392
0.0236362
0.0448508
0.0297397
0.0229121
0.0693679
0.0219885
0.0306765
0.0231829
0.0207206
0.0624994
0.0397528
0.0245818
0.0325774
0.045845
0.0233387
0.0293698
0.0466355
0.0223176
0.0360431
0.0837552
0.0389439
0.027256
0.0254091
0.0305533
0.0375639
0.023211
0.0306166
0.0240057
0.0232475
0.0222087
0.0611105
0.0873064
0.0236058
0.0464425
0.0237504
0.0481915
0.0243889
0.0298445
0.0373095
0.0152779
0.0293726
0.0898777
0.0307872
0.0236612
0.062874
0.0165744
0.0293271
0.0849118
0.0259239
0.0201741
0.0209309
0.0221598
0.0369974
0.0276168
0.0888804
0.023955
0.0426335
0.0751887
0.0353441
0.0494321
0.0789927
0.0511879
0.0288131
0.0241267
0.0341491
0.0486923
0.0531922
0.0469103
0.036087
0.0407671
0.0489421
0.0354494
0.0734186
0.0133512
0.0131686
0.0194127
0.0239944
0.0289962
0.0416614
0.0825935
0.0536195
0.0537898
0.014795
0.0310567
0.0199178
0.0221269
0.0354766
0.0184401
0.0860378
0.0376284
0.0482804
0.0173493
0.0534605
0.0428865
0.0193987
0.023644
0.0400607
0.0261455
0.0213355
0.0151625
0.0384176
0.0253137
0.0292601
0.0228862
0.024492
0.0282984
0.0590685
0.0501446
0.0366588
0.0438457
0.0899507
0.0245247
0.0620674
0.0127921
0.0130537
0.023349
0.0247325
0.0399743
0.0572082
0.037719
0.078706
0.0361496
0.0256964
0.0217853
0.0285226
0.0236233
0.0661481
0.0145488
0.0342579
0.0243716
0.0573391
0.055713
0.0343969
0.0510429
0.0833719
0.0902369
0.0237702
0.027201
0.0197621
0.0327961
0.0910069
0.0123664
0.0850904
0.0385708
0.0982032
0.0643287
0.0615103
0.0658694
0.0239329
0.057302
0.0618972
0.0313566
0.0203965
0.04154
0.0314246
0.086245
0.0565826
0.0528535
0.0483693
0.0503167
0.0223156
0.0468953
0.0348258
0.0461285
0.0295783
0.016629
0.0228426
0.0301239
0.022915
0.0499043
0.0907729
0.0479767
0.0194947
0.0522722
0.054065
0.0291857
0.0282426
0.0615932
0.0240188
0.0459327
0.0405219
0.0216457
0.0422879
0.0241799
0.0131239
0.0348606
0.0763283
0.0914615
0.032621
0.0241216
0.0794114
0.0449554
0.0102225
0.076715
0.0247279
0.023937
0.0243531
0.0258859
0.0137003
0.0811899
0.0270527
0.0239558
0.0530909
0.0304264
0.0264095
0.0916466
0.0198847
0.02472
0.0259445
0.0394496
0.0693791
0.0613095
0.0500424
0.0715887
0.058102
0.0874783
0.0236308
0.0231782
0.076165
0.0389192
0.0154073
0.062661
0.0282862
0.0644705
0.0356703
0.0734104
0.0171427
0.0597346
0.0167826
0.0241553
0.0872812
0.0187519
0.0399871
0.0707226
0.0387677
0.0399065
0.0680741
0.0249498
0.026655
0.0389511
0.0496511
0.042519
0.0158088
0.0512317
0.0231357
0.0139507
0.0584873
0.081201
0.0745678
0.0349563
0.0152324
0.0244957
0.048848
0.029615
0.0146155
0.0841382
0.0891572
0.0267292
0.0639123
0.0227278
0.0245861
0.0697169
0.0870446
0.0639753
0.0346992
0.0253634
0.0251251
0.0336549
0.0764451
0.0413665
0.0684223
0.0236746
0.0604489
0.0609218
0.0380893
0.0593609
0.072218
0.0248202
0.0267398
0.0245144
0.0244743
0.0231715
0.0440798
0.0263041
0.0360992
0.0906495
0.0354561
0.0419935
0.0241524
0.0258801
0.037509
0.0423004
0.0824717
0.0287146
0.0351876
0.0236049
0.0219237
0.0169677
0.0221467
0.0234027
0.0142805
0.0848714
0.0310873
0.0243094
0.0500853
0.0841527
0.0394671
0.0669816
0.0324351
0.0786747
0.0151447
0.0230344
0.0393137
0.0773888
0.0311844
0.0343131
0.0178056
0.018344
0.0331678
0.0180833
0.0659777
0.0868393
0.0856937
0.0654315
0.0290357
0.0355132
0.0138396
0.0244069
0.0467525
0.023004
0.0670664
0.0264635
0.0788912
0.0898384
0.0477528
0.0810081
0.0323944
0.0787832
0.0859115
0.0591482
0.0699776
0.0985393
0.09284
0.084544
0.0330044
0.0912013
0.0814924
0.0988405
0.0281649
0.0255734
0.0797424
0.0272503
0.0761734
0.0590161
0.0968024
0.055106
0.0267299
0.0407911
0.0219138
0.0428671
0.0261705
0.0278558
0.0664933
0.0259843
0.022993
0.0829603
0.0948593
0.0501031
0.0154112
0.0642513
0.0859775
0.0556263
0.0269922
0.0241753
0.0771831
0.0846054
0.0711563
0.0224766
0.0794281
0.0611977
0.0259395
0.0235773
0.0794413
0.0407526
0.0258628
0.0804912
0.0416604
0.0680034
0.0356572
0.0736961
0.0553061
0.0356304
0.049283
0.0992567
0.0456538
0.0155087
0.0214729
0.0916537
0.0545193
0.0820063
0.0408948
0.057946
0.0705399
0.0603248
0.056069
0.0768603
0.053569
0.0794857
0.0673572
0.0462721
0.0757762
0.0494197
0.0351885
0.0473005
0.0455345
0.0879389
0.0341305
0.0442444
0.0841679
0.078033
0.0416268
0.0368803
0.0586648
0.0625805
0.0665077
0.0718171
0.0753765
0.0546788
0.0780296
0.0521773
0.072445
0.0482129
0.0639734
0.0463646
0.0467788
0.0472734
0.0431584
0.0396726
0.0406589
0.0268087
0.0368698
0.0562666
0.0192388
0.0355241
0.0381899
0.0388158
0.0247065
0.0666513
0.0377046
0.0639097
0.0678372
0.0526577
0.0365162
0.036478
0.0265595
0.0559203
0.0494559
0.0810158
0.0213925
0.0622896
0.0346807
0.045739
0.0272089
0.0346126
0.0770279
0.0461075
0.0794418
0.0369492
0.0233204
0.0292783
0.0140536
0.0335932
0.055741
0.0322806
0.0182919
0.0352589
0.0794351
0.032881
0.0304022
0.0286307
0.0821746
0.0344861
0.0126638
0.0862383
0.0374655
0.0397336
0.0729723
0.0682528
0.0737069
0.0695082
0.0784234
0.03593
0.0536908
0.0624967
0.0705428
0.0509921
0.0489336
0.0451897
0.0991188
0.0426629
0.0311783
0.0740971
0.0709226
0.0816965
0.0506207
0.0609446
0.0291181
0.0971891
0.0663344
0.0463741
0.0399383
0.0460234
0.0289404
0.022062
0.0645418
0.0323052
0.0284552
0.0394173
0.0331336
0.031665
0.0383696
0.0355097
0.0464009
0.0360563
0.0341997
0.0346636
0.0836887
0.0522238
0.0299795
0.0444203
0.041084
0.033444
0.0814224
0.0618987
0.0723362
0.0527221
0.0364889
0.0292179
0.0360055
0.0348351
0.0984079
0.0668314
0.0739052
0.0458338
0.0310587
0.053464
0.0233067
0.0640359
0.027878
0.033247
0.0186522
0.0208171
0.0363245
0.0223832
0.0224579
0.0159447
0.0260816
0.0173466
0.0201142
0.0180615
0.0171776
0.0153118
0.0235085
0.0273012
0.0209931
0.0215995
0.0393918
0.0366571
0.0395564
0.0609048
0.0766872
0.0148152
0.0186027
0.0343948
0.0729417
0.0651976
0.0740783
0.0613573
0.0483784
0.0265708
0.0273963
0.0314662
0.0382385
0.047335
0.0286572
0.037334
0.0263388
0.0356313
0.022755
0.0886374
0.0233702
0.0595087
0.0390881
0.0829691
0.0298973
0.0321226
0.0347055
0.0295338
0.0470743
0.0426792
0.0305408
0.0496837
0.0236542
0.0250848
0.0192284
0.0189935
0.0172293
0.0166461
0.031614
0.0358324
0.0309458
0.0608482
0.0303082
0.0611356
0.060643
0.0698378
0.0312288
0.0482917
0.0300382
0.0183653
0.035396
0.0163555
0.0437313
0.0255573
0.0169489
0.0511914
0.0246257
0.0197707
0.0629401
0.0281103
0.0483031
0.0570591
0.05461
0.0362041
0.0509399
0.0288139
0.0455029
0.0305525
0.0668767
0.0353892
0.0237319
0.0509169
0.0598801
0.0622418
0.0846722
0.0667654
0.0334432
0.0403643
0.0440097
0.0405219
0.0902818
0.0222501
0.038808
0.0361623
0.0260845
0.0642706
0.0351223
0.091686
0.0350339
0.0175559
0.0294965
0.0230193
0.0370863
0.0341962
0.0315974
0.0923202
0.0311076
0.06043
0.0402386
0.0803364
0.0342248
0.0478359
0.0545056
0.0604491
0.0620234
0.0415082
0.056121
0.0477798
0.0654538
0.0686514
0.0739225
0.0453784
0.0690221
0.0698987
0.0487241
0.0839991
0.0756499
0.0660664
0.0668356
0.0304766
0.0427965
0.0444356
0.0398999
0.0267499
0.0379877
0.0541882
0.0396301
0.0298455
0.0648317
0.0543852
0.0651246
0.0406687
0.0687805
0.0292974
0.0336162
0.0375396
0.0357681
0.0467428
0.0201695
0.0663403
0.0858703
0.0966201
0.0261787
0.0343408
0.072449
0.0775345
0.0288409
0.0562974
0.0562347
0.0538989
0.0629304
0.0554056
0.035516
0.069139
0.0778752
0.0721256
0.0761862
0.0822957
0.0827018
0.0257573
0.0452184
0.0453605
0.0341926
0.0530128
0.0568459
0.0328672
0.0215419
0.0270302
0.0729609
0.0268063
0.0280876
0.015354
0.028364
0.0124888
0.0235763
0.0175125
0.0349469
0.0318453
0.0326115
0.0353311
0.0808906
0.0262905
0.0303576
0.054268
0.040318
0.0732053
0.0671834
0.0948439
0.0716282
0.0303991
0.0384459
0.0363368
0.0273226
0.0148622
0.025592
0.0845768
0.0801706
0.0395882
0.0468485
0.0423535
0.0492033
0.0519409
0.0755851
0.0336548
0.0854431
0.0682003
0.0750676
0.0727929
0.0599683
0.0679098
0.0473921
0.0638592
0.0373173
0.0602132
0.0530104
0.0394184
0.049721
0.0467263
0.0444777
0.0352507
0.0339811
0.0565125
0.0584902
0.0797671
0.029691
0.053848
0.0296844
0.0217806
0.0424591
0.0228556
0.056974
0.0419155
0.037944
0.0385305
0.03438
0.0341682
0.0827624
0.0223572
0.0285388
0.0628996
0.0400064
0.0152449
0.0562804
0.0827284
0.0511603
0.0235768
0.0692233
0.0330449
0.05705
0.0613061
0.0726645
0.0496295
0.0293765
0.0674857
0.0567784
0.0635901
0.0593112
0.0549947
0.0523969
0.0298972
0.048861
0.0630847
0.0317318
0.0433531
0.0827303
0.0356558
0.0446627
0.0469462
0.0408931
0.0144398
0.0220463
0.0383571
0.0273391
0.033219
0.0300833
0.0276176
0.0824804
0.0367767
0.034794
0.0649735
0.0278469
0.0290066
0.028964
0.085367
0.0328162
0.0320649
0.0818454
0.0210457
0.0163993
0.030933
0.0304571
0.0284288
0.0434168
0.021532
0.0325025
0.051831
0.0757166
0.0806216
0.0694874
0.0617811
0.0290871
0.0448639
0.0372642
0.0397282
0.0299548
0.0824193
0.0458584
0.0272124
0.0282261
0.0502889
0.0454892
0.0603426
0.0374929
0.0298427
0.033766
0.027725
0.0736231
0.0422039
0.0179373
0.0751557
0.0314445
0.0436565
0.0293702
0.0240897
0.027484
0.0491133
0.0345652
0.0277139
0.0706298
0.0291769
0.0734953
0.0440376
0.023638
0.0645643
0.0331828
0.055933
0.0584731
0.0467447
0.0646775
0.051792
0.0290394
0.0548698
0.0555316
0.0229375
0.0412837
0.0291245
0.0265693
0.0394401
0.0155827
0.0183047
0.0433848
0.0170193
0.0240799
0.0480448
0.016507
0.0220097
0.0533368
0.0212283
0.0190163
0.0504746
0.0901659
0.078618
0.0217074
0.0273191
0.0595951
0.0238301
0.0250666
0.090454
0.0631844
0.0897218
0.0432762
0.0739484
0.0330716
0.0416932
0.0482238
0.0690048
0.0293881
0.0648259
0.093721
0.030325
0.0287681
0.0341162
0.0280831
0.0234884
0.0272425
0.0374992
0.032311
0.0906973
0.0485651
0.0355288
0.0790257
0.0410508
0.0733134
0.0286074
0.0617545
0.0332396
0.0411373
0.0858242
0.0297077
0.0513295
0.0267886
0.0282148
0.0542968
0.0268155
0.0905891
0.0626062
0.0778822
0.0428728
0.0426199
0.0874226
0.0305286
0.0274267
0.0731428
0.0312335
0.0319312
0.031564
0.0741861
0.0262577
0.0264794
0.0288378
0.0964245
0.0274322
0.0398168
0.0416178
0.0277002
0.0265142
0.0473056
0.0527916
0.0906067
0.022721
0.0128093
0.0294895
0.0248882
0.0264028
0.0971672
0.0441139
0.0424235
0.0294259
0.0508103
0.0614269
0.0398765
0.0689773
0.070047
0.0243734
0.040242
0.0264254
0.0667496
0.0639679
0.0238419
0.0497867
0.044529
0.052018
0.049213
0.0633833
0.0418206
0.058015
0.0620113
0.0831973
0.0507821
0.0816016
0.0227459
0.0573471
0.0296992
0.026789
0.0685097
0.0864744
0.0653567
0.0235642
0.0877584
0.0436082
0.038199
0.0890093
0.039285
0.0805322
0.0260147
0.0986977
0.0614964
0.0237964
0.0783959
0.0584802
0.056541
0.0517071
0.0909569
0.0879933
0.0272391
0.0322524
0.0910564
0.0653066
0.0279259
0.0974068
0.096829
0.0320052
0.0431825
0.0335229
0.0784817
0.0441657
0.0447967
0.0182129
0.0851404
0.0685185
0.0233029
0.0894922
0.0833243
0.021024
0.0329245
0.0284666
0.0615523
0.0727745
0.0391542
0.0264513
0.0834235
0.0648677
0.0445414
0.0918194
0.0417631
0.0330275
0.0543684
0.0512453
0.0861551
0.0272762
0.0227738
0.0776265
0.0436319
0.0331114
0.0432989
0.0251279
0.0597554
0.0555984
0.0765918
0.0827159
0.0958638
0.0277215
0.0585591
0.0275948
0.0510345
0.0615282
0.0396321
0.0289532
0.0203667
0.090255
0.0143001
0.0270473
0.0262314
0.056013
0.0811814
0.0939509
0.0930621
0.0675156
0.042667
0.0586539
0.0232443
0.0278523
0.0307918
0.0136896
0.025501
0.0340612
0.0776294
0.0802999
0.0353939
0.0284664
0.0472582
0.0701916
0.033618
0.059412
0.0445155
0.053238
0.0385963
0.0534897
0.0809751
0.0803687
0.0616941
0.0267261
0.0639657
0.0865583
0.0304985
0.0319517
0.0520659
0.077601
0.0612123
0.0241119
0.0279929
0.0427006
0.0523565
0.0586745
0.0180129
0.0207282
0.0324513
0.0320376
0.0263113
0.082215
0.0554443
0.0887375
0.0599359
0.0629991
0.0680999
0.0446156
0.0261203
0.0841523
0.0275808
0.0449894
0.0441671
0.051833
0.0392215
0.0628238
0.0416676
0.061344
0.0757194
0.0319903
0.0704764
0.0240418
0.0884305
0.0267879
0.0259406
0.0814762
0.069996
0.0256724
0.0443819
0.0576739
0.028633
0.074806
0.0256396
0.0718364
0.0909123
0.02692
0.0673392
0.097586
0.0357474
0.0794736
0.068878
0.087879
0.0421281
0.0832907
0.0962976
0.0257367
0.0470168
0.0581934
0.0258103
0.0238203
0.0790064
0.0247759
0.0512388
0.09548
0.0737844
0.0688186
0.016125
0.0221949
0.0232115
0.0510706
0.0240573
0.0242395
0.0409844
0.0427026
0.0307586
0.0223218
0.0244797
0.0400092
0.0473957
0.0258968
0.0501426
0.0244048
0.0248562
0.0205644
0.0868104
0.0763915
0.0255679
0.0274285
0.0568511
0.0865965
0.0257887
0.0583268
0.0253467
0.024538
0.0514655
0.0258822
0.0820728
0.0238868
0.059978
0.0351981
0.0899741
0.02039
0.0878983
0.0920258
0.0239602
0.0967039
0.0283136
0.0254935
0.0414062
0.0680161
0.027384
0.0324697
0.0316275
0.0327321
0.031891
0.0516425
0.00333937
0.0459916
0.0842406
0.0812311
0.066772
0.0261074
0.0955223
0.00229133
0.02338
0.0550315
0.0240892
0.024991
0.0954957
0.0192381
0.030332
0.0968088
0.0973946
0.0253731
0.0148744
0.0321814
0.0641508
0.0255847
0.0713658
0.0948703
0.0213108
0.0838117
0.0261991
0.0228204
0.0238508
0.0183679
0.0499025
0.0869786
0.054139
0.0306376
0.0974617
0.0250111
0.0243679
0.0234089
0.0836836
0.0350598
0.0239719
0.0396812
0.0949156
0.0305726
0.0657931
0.0255105
0.0387763
0.0296482
0.0325925
0.0347042
0.0146269
0.0343403
0.0197385
0.0246596
0.0889374
0.0327142
0.0429975
0.0258677
0.0448833
0.0426374
0.0891252
0.014805
0.0408208
0.0743378
0.0413724
0.0255139
0.0376923
0.0197683
0.00223639
0.0417955
0.0381973
0.0431443
0.0316513
0.0861143
0.0802539
0.0237895
0.0311139
0.0936904
0.0897202
0.0647217
0.0319576
0.00247417
0.0333933
0.0304662
0.0437309
0.0259507
0.0249886
0.0304965
0.0428191
0.0598289
0.0222247
0.0250181
0.0426641
0.0208997
0.0585384
0.050079
0.0552576
0.00271156
0.0766236
0.0255084
0.0931454
0.0933106
0.0668643
0.0139662
0.047885
0.0542151
0.0437537
0.00382041
0.0202443
0.026091
0.0801852
0.087793
0.0652345
0.0913699
0.0188333
0.0224934
0.0317966
0.0311487
0.0312704
0.0289602
0.0245937
0.0675092
0.0741028
0.0881722
0.0939256
0.0767589
0.0658276
0.0965125
0.022405
0.0480782
0.0920131
0.0358825
0.00297857
0.0176114
0.0523782
0.023182
0.052498
0.0246873
0.0423935
0.0565067
0.0200839
0.0422808
0.0427799
0.0258379
0.0581251
0.0255517
0.0832572
0.0920738
0.0273611
0.085478
0.0873116
0.0509595
0.00236672
0.089357
0.0366762
0.0262734
0.0944619
0.0190099
0.0773443
0.0156535
0.050397
0.016023
0.0315504
0.0456898
0.0287588
0.0034759
0.0856422
0.0183559
0.041076
0.0309185
0.0879794
0.0669041
0.0361641
0.0860923
0.040713
0.0614558
0.0247636
0.043505
0.0905744
0.0124466
0.0414554
0.0212199
0.0244063
0.0600305
0.032718
0.0671317
0.0608638
0.040826
0.0913442
0.0230097
0.0330191
0.0428977
0.0255371
0.0735489
0.0629545
0.00321872
0.0478922
0.0398596
0.0869233
0.0253999
0.0527861
0.0241523
0.025162
0.0449887
0.0213725
0.0605342
0.0938236
0.0895722
0.0449785
0.0674949
0.0647075
0.051721
0.0237731
0.0477313
0.0250312
0.0452404
0.0420755
0.0315692
0.0428585
0.0913808
0.0244559
0.0833546
0.00431148
0.0572126
0.0159305
0.00400811
0.0676141
0.0235154
0.0838055
0.0262104
0.0238195
0.0244991
0.0882233
0.0304697
0.0229103
0.0269229
0.0746499
0.032152
0.0382779
0.0419712
0.0539502
0.0399161
0.0263211
0.069447
0.0309851
0.0293619
0.0805389
0.0204491
0.0525295
0.0279769
0.0036111
0.0495427
0.0218851
0.0284996
0.0787337
0.0929976
0.0322633
0.0252295
0.0840954
0.0908919
0.0869527
0.0866455
0.0831746
0.0784588
0.0220334
0.0555196
0.0774207
0.0351593
0.0404461
0.0212631
0.0273224
0.035041
0.0246916
0.0542481
0.083127
0.0152811
0.0189754
0.0227131
0.0235538
0.0341774
0.0400085
0.0260313
0.00235846
0.0777935
0.040575
0.0252018
0.0896932
0.0724372
0.0410771
0.0302913
0.0558285
0.0321832
0.0326187
0.0305805
0.0401154
0.032274
0.0276689
0.0453543
0.0328947
0.0885776
0.042649
0.0484907
0.0763225
0.0304412
0.0478467
0.0373328
0.0392372
0.029898
0.0322204
0.0601527
0.0340384
0.0341241
0.0357025
0.00245395
0.0343679
0.0745512
0.091317
0.00517418
0.0334839
0.0888366
0.0801934
0.0204691
0.0843054
0.0238115
0.0529526
0.0953148
0.0237366
0.0316242
0.08851
0.0248315
0.030779
0.0248177
0.0190447
0.0741189
0.0239023
0.0832704
0.0106901
0.0530332
0.024634
0.0327465
0.0261264
0.0345134
0.0214925
0.0720669
0.0867551
0.0794876
0.0650758
0.0436698
0.0326629
0.0882406
0.0340843
0.0884018
0.00832274
0.0444328
0.0433517
0.0234168
0.0233368
0.0781601
0.0684181
0.0299285
0.0247579
0.0305037
0.0400073
0.0235544
0.0353841
0.0454231
0.0602256
0.0401003
0.0367028
0.0320807
0.024018
0.0804538
0.0363241
0.0361375
0.0465193
0.0450694
0.0504821
0.0378189
0.0297019
0.0293554
0.00478856
0.00228934
0.0618387
0.0428667
0.0702033
0.0238148
0.0261968
0.0449816
0.0193611
0.0296506
0.084424
0.081099
0.0206863
0.0914275
0.0105014
0.0753254
0.0202895
0.0817093
0.0253614
0.0337733
0.0528176
0.0507159
0.0650504
0.00681154
0.097074
0.0227032
0.0512427
0.0221182
0.0804293
0.0627056
0.0532028
0.0239324
0.0332462
0.0721265
0.0316251
0.0404836
0.0418594
0.074295
0.0242512
0.0550191
0.0194999
0.0818833
0.0213211
0.0178578
0.0382606
0.0386524
0.084356
0.0605788
0.0307863
0.0390794
0.0482504
0.0228285
0.0536779
0.0387943
0.0241095
0.0152297
0.0882237
0.0231773
0.022407
0.00437891
0.00509628
0.0257163
0.0873959
0.0772358
0.0287161
0.0660768
0.0872522
0.0253993
0.0799693
0.0780563
0.0845145
0.0417452
0.0848991
0.0229859
0.00465791
0.0231679
0.0510252
0.0371523
0.0224642
0.0867123
0.0234171
0.0445839
0.0797457
0.0343225
0.0242092
0.0887233
0.0792913
0.0399308
0.0026417
0.0946431
0.0190263
0.0306471
0.0407613
0.0336474
0.0288966
0.0203682
0.0568391
0.00519568
0.0337038
0.0623983
0.0801396
0.0243767
0.0231585
0.0233439
0.0243788
0.0412254
0.0403554
0.055102
0.0327704
0.0931405
0.046533
0.0293286
0.0312728
0.0242836
0.0858071
0.0976182
0.023711
0.0428751
0.079549
0.0474315
0.0607032
0.0930313
0.0208325
0.0276364
0.036989
0.0184841
0.0298309
0.0557466
0.0838843
0.0233312
0.0234867
0.0194952
0.00523603
0.0623351
0.0235907
0.0169109
0.0710601
0.057924
0.0177792
0.0234826
0.076695
0.0903306
0.0815385
0.0425386
0.0793196
0.051497
0.087888
0.00552278
0.0220753
0.0928027
0.0230454
0.0130154
0.0257572
0.0254585
0.0431784
0.0503961
0.0435726
0.0777979
0.0162418
0.0400754
0.0592768
0.0640845
0.0354613
0.0873924
0.00241215
0.0719181
0.0241645
0.0051006
0.0581774
0.0265175
0.0283029
0.0510692
0.0955356
0.0165033
0.074299
0.0740266
0.0168948
0.0462742
0.0525026
0.0233577
0.0241238
0.0236858
0.0335687
0.0371405
0.0269632
0.00504258
0.090891
0.0174848
0.0779372
0.00557285
0.0881703
0.0563484
0.0027541
0.0628677
0.0240114
0.0639235
0.0516302
0.0228344
0.0283284
0.0251144
0.0173861
0.0283322
0.0711793
0.0277406
0.00623672
0.0196997
0.0344045
0.024224
0.0251638
0.0229926
0.0799333
0.00267343
0.0297048
0.0250944
0.0538475
0.0305349
0.0354899
0.0693229
0.0919961
0.0648799
0.0236004
0.0234443
0.050152
0.0235904
0.0358492
0.0253256
0.0557954
0.0745336
0.0118741
0.00581821
0.0265806
0.0209136
0.0615596
0.0583632
0.0456384
0.0518858
0.0445267
0.0290715
0.0863351
0.0879618
0.0443208
0.00625883
0.031121
0.0197912
0.051683
0.0401468
0.044571
0.0228611
0.0204715
0.0412302
0.0679548
0.0493616
0.055537
0.0337167
0.0345716
0.023311
0.0855728
0.0663825
0.00252361
0.0236331
0.0868729
0.0879699
0.0337544
0.0156696
0.0908065
0.0529457
0.0169062
0.0227086
0.051432
0.0358667
0.0254124
0.0581802
0.0104247
0.0723135
0.0171694
0.0899592
0.0459532
0.0249882
0.0545731
0.0236502
0.0344835
0.0343866
0.0712155
0.0252593
0.0236223
0.00533817
0.027641
0.0235723
0.00433883
0.0608331
0.0759849
0.0234852
0.0232103
0.0351549
0.00274365
0.0205876
0.0233817
0.02138
0.0953438
0.0233647
0.0250812
0.0370622
0.0299916
0.00537656
0.0267275
0.00251436
0.021255
0.0156613
0.0573559
0.0526954
0.0624276
0.0167626
0.0240094
0.0182262
0.0185225
0.0242828
0.00330057
0.0309343
0.0274013
0.0777426
0.0309261
0.0355273
0.0936104
0.0174036
0.0239193
0.0240929
0.0281735
0.0372885
0.0429276
0.0174669
0.0594182
0.0481677
0.0849926
0.0822184
0.0100163
0.0323008
0.0820947
0.0247038
0.0228488
0.0102863
0.0694092
0.030276
0.0217509
0.0422771
0.0499195
0.0228646
0.0232472
0.0568195
0.0377138
0.0226289
0.0237152
0.0216939
0.040818
0.0710874
0.0226046
0.0741432
0.00464904
0.0198542
0.00577414
0.0346136
0.093767
0.071621
0.0797781
0.0908032
0.0849683
0.0541638
0.0468061
0.0405277
0.0230802
0.0257597
0.0360169
0.0430354
0.0484633
0.00503744
0.0238205
0.0190039
0.0224353
0.0218209
0.0224025
0.0228962
0.0553167
0.03264
0.0191092
0.0509444
0.0200222
0.0228831
0.027085
0.0216695
0.0859819
0.08672
0.0211917
0.0399316
0.0323357
0.0580408
0.0365587
0.0184591
0.0196479
0.00997348
0.0224365
0.0518419
0.0879414
0.0473764
0.0297283
0.0206292
0.0395797
0.0332586
0.0937649
0.0380259
0.024355
0.0431941
0.0235808
0.0849669
0.0330582
0.053912
0.0249251
0.0282294
0.0553511
0.0416558
0.0695922
0.0573685
0.0309932
0.0211243
0.0234894
0.0290407
0.0786852
0.0165572
0.0594219
0.0610002
0.0222247
0.0754789
0.0450599
0.0620516
0.0526552
0.0702868
0.0158655
0.026549
0.0668232
0.0865744
0.0274273
0.0149184
0.0545405
0.0225709
0.0377818
0.0396268
0.0110462
0.0877249
0.01342
0.0327558
0.0385285
0.0764457
0.0715202
0.0206491
0.0322494
0.044786
0.033791
0.0236116
0.0237125
0.0146606
0.0298986
0.0265058
0.0237848
0.0904676
0.0540327
0.0751478
0.0780089
0.0189805
0.0223451
0.0570648
0.0593243
0.0189447
0.04411
0.0436687
0.023953
0.0700103
0.068741
0.083162
0.0138474
0.0204883
0.0218529
0.011736
0.0464547
0.0458257
0.020089
0.0315391
0.071893
0.0228579
0.0162564
0.0309491
0.0766859
0.0183801
0.037318
0.0317628
0.0444474
0.0293012
0.0826463
0.0813893
0.0809792
0.0503766
0.0237275
0.0539927
0.023668
0.0700162
0.0919291
0.0442247
0.0413832
0.0100365
0.0775867
0.0150775
0.0450569
0.037161
0.0678578
0.0230794
0.0486239
0.0148214
0.0242402
0.0223133
0.0924938
0.0539639
0.0390174
0.0872624
0.0354832
0.0575631
0.0188124
0.0567571
0.0239127
0.0413284
0.00234751
0.0603549
0.0203624
0.023808
0.076698
0.0148216
0.0672946
0.0176136
0.061447
0.0255169
0.0498517
0.0203312
0.0689669
0.0480103
0.0892646
0.0753948
0.0263058
0.0166037
0.0147411
0.0414595
0.065608
0.0532447
0.0602171
0.0457879
0.0614136
0.072392
0.0231821
0.0777524
0.0738102
0.0341288
0.0755668
0.0698939
0.0211484
0.0343683
0.0250523
0.0804937
0.0250642
0.0242461
0.0237403
0.0905941
0.0908625
0.0426906
0.0490253
0.0546446
0.0213158
0.0460519
0.0243545
0.0351094
0.0244422
0.0528567
0.0513829
0.0457816
0.0208543
0.0827777
0.00460189
0.0195331
0.0330791
0.0703168
0.0473598
0.0707576
0.0210993
0.0235656
0.0246326
0.0886083
0.0257273
0.0226282
0.0595191
0.0796435
0.0190719
0.0363029
0.0599938
0.00716413
0.0661931
0.0900449
0.00223897
0.0205256
0.0517578
0.0756968
0.0597887
0.0268953
0.0358751
0.046908
0.0236665
0.0240001
0.0208162
0.0233168
0.0634304
0.0758578
0.0288394
0.0875991
0.0706318
0.0247742
0.0215131
0.0301087
0.0724978
0.0585579
0.0496529
0.0393193
0.0850407
0.0505356
0.0345037
0.0388691
0.0367772
0.0838759
0.0388364
0.0522575
0.0423373
0.0356178
0.0297252
0.031737
0.0174753
0.0158098
0.0454586
0.0583943
0.0311593
0.0481557
0.0436738
0.0240425
0.075532
0.0341787
0.0451645
0.021281
0.09042
0.029351
0.0204944
0.0290303
0.019489
0.0281007
0.0261588
0.023786
0.0232379
0.030082
0.0493437
0.0751925
0.0306843
0.084463
0.0285581
0.0368984
0.0568008
0.0563099
0.0304476
0.0869891
0.034541
0.0534082
0.028826
0.0632688
0.0259878
0.00241105
0.0919388
0.0287546
0.0527717
0.0497082
0.0346655
0.0235258
0.023684
0.0322169
0.0211043
0.0246591
0.0299198
0.0254569
0.0476069
0.0241865
0.0232721
0.0266611
0.0138222
0.068203
0.00444013
0.0552818
0.048773
0.0898956
0.0254724
0.0241389
0.0291935
0.0249896
0.0249701
0.0605474
0.0272988
0.03321
0.0650411
0.0332037
0.02337
0.00214636
0.0751591
0.0249484
0.00434687
0.0176028
0.0609806
0.0177787
0.01889
0.0272735
0.0712954
0.0246463
0.023627
0.0197661
0.0354479
0.0173563
0.0875346
0.0394596
0.0267606
0.0336329
0.071542
0.0195936
0.0238647
0.0752117
0.0850383
0.0558826
0.0150549
0.0342683
0.0345719
0.048619
0.0369747
0.0822572
0.0765157
0.04004
0.0339216
0.0167827
0.0203909
0.038297
0.020383
0.0838574
0.0111295
0.0222162
0.0335952
0.0693995
0.0361296
0.0762432
0.0515373
0.0590284
0.0346691
0.0186189
0.0604283
0.0811606
0.0239395
0.0177373
0.028795
0.0186666
0.0247835
0.062372
0.0402546
0.0438203
0.0775442
0.0782908
0.0397579
0.0774383
0.0184657
0.0205343
0.0251424
0.0667348
0.0139278
0.0128519
0.0157131
0.0424596
0.0318044
0.0167576
0.0705715
0.0795612
0.0700647
0.0219906
0.0501484
0.0871539
0.0361208
0.0261087
0.0292373
0.0245492
0.0772837
0.017928
0.0397181
0.0294788
0.0450541
0.0233536
0.0288473
0.0399309
0.00625355
0.00551302
0.0298139
0.0439302
0.0157673
0.0243932
0.0461774
0.0434908
0.0232677
0.0739145
0.0495426
0.0240997
0.0258487
0.027549
0.0385014
0.0184353
0.0234597
0.0713261
0.0451977
0.0226667
0.0733979
0.0736026
0.0578592
0.0374528
0.0177353
0.0220893
0.0357319
0.0746425
0.0423615
0.0984321
0.0846885
0.0820716
0.0233486
0.0235147
0.0300734
0.021276
0.0218201
0.0182152
0.069811
0.0241687
0.0247117
0.0240676
0.0157439
0.0634016
0.0123498
0.0356892
0.0147343
0.013771
0.0146716
0.010225
0.0628511
0.0350584
0.0243521
0.0748864
0.0319572
0.029039
0.0735156
0.0313104
0.0236554
0.0731395
0.0206128
0.0344151
0.0214959
0.0274347
0.0304587
0.0410145
0.0802715
0.0237102
0.0668587
0.0376116
0.0463877
0.028808
0.0822896
0.0850505
0.024311
0.0198037
0.029564
0.010385
0.036105
0.0675967
0.0844268
0.0483366
0.0148243
0.0848308
0.0176695
0.0293682
0.0547428
0.0518888
0.0864612
0.0752469
0.0333897
0.0801309
0.0136467
0.0253275
0.0197252
0.0419865
0.0192491
0.0801213
0.0172558
0.0227744
0.0206387
0.012151
0.0128719
0.0202221
0.037948
0.0573983
0.039936
0.0643812
0.0543092
0.0398322
0.0190642
0.0209532
0.0368262
0.0294788
0.0239205
0.0236515
0.0244914
0.0126524
0.0235148
0.0185309
0.0231763
0.0313837
0.0234207
0.0160529
0.0411703
0.0362939
0.0767642
0.086661
0.0384885
0.0239833
0.0353811
0.0352554
0.068469
0.0286352
0.0283372
0.0317086
0.0263439
0.0798381
0.0292798
0.0236464
0.0235289
0.0204644
0.0297624
0.0356258
0.0740008
0.0773428
0.0138054
0.0301706
0.0737125
0.0360245
0.0710885
0.0795173
0.0383697
0.0732247
0.0724937
0.0670621
0.0418256
0.0188705
0.0121805
0.0126545
0.0407893
0.0680015
0.0236494
0.0531053
0.0724158
0.0664709
0.0123164
0.0243645
0.032944
0.0167136
0.023693
0.0706231
0.025724
0.0274024
0.0706273
0.0128234
0.0808531
0.0739887
0.0292559
0.016434
0.0296096
0.0566106
0.0721034
0.011746
0.0115367
0.0140063
0.0884056
0.121903
0.136195
0.14096
0.140079
0.135308
0.128035
0.119273
0.10976
0.100066
0.0905588
0.0814962
0.0730404
0.065277
0.0582343
0.0519017
0.0462434
0.0412093
0.0367421
0.0327874
0.0877014
0.120946
0.13526
0.140112
0.139367
0.134743
0.127614
0.118986
0.10959
0.0999811
0.0905411
0.0815273
0.0731041
0.0653603
0.0583277
0.0519989
0.0463404
0.041304
0.036834
0.0328761
0.0869656
0.119974
0.134291
0.13924
0.138629
0.134156
0.127178
0.118686
0.10941
0.0998933
0.0905243
0.0815618
0.0731732
0.0654504
0.0584289
0.0521042
0.0464458
0.0414071
0.0369333
0.0329706
0.0862013
0.118977
0.133293
0.138341
0.137867
0.133549
0.126725