/*--------------------------------*- C++ -*----------------------------------*\
  =========                 |
  \\      /  F ield         | OpenFOAM: The Open Source CFD Toolbox
   \\    /   O peration     | Website:  https://openfoam.org
    \\  /    A nd           | Version:  10
     \\/     M anipulation  |
\*---------------------------------------------------------------------------*/
FoamFile
{
    format      ascii;
    class       volScalarField;
    location    "1000";
    object      nut;
}
// * * * * * * * * * * * * * * * * * * * * * * * * * * * * * * * * * * * * * //

dimensions      [0 2 -1 0 0 0 0];

internalField   nonuniform List<scalar> 
23845
(
0.013613
0.0138622
0.00773144
0.0140815
0.0181589
0.0220817
0.00799075
0.00991998
0.0194655
0.014098
0.0221338
0.0229124
0.0189888
0.0205996
0.00610819
0.0157983
0.0210907
0.0233448
0.0177673
0.0224208
0.0119518
0.0229198
0.0128985
0.0192244
0.0165186
0.0178907
0.0098137
0.022011
0.00347509
0.0220953
0.0148082
0.00126707
0.00497715
0.0227539
0.0229409
0.0229991
0.0010976
0.0229182
0.0226003
0.0198793
0.0173298
0.0223315
0.0184556
0.0230169
0.0177434
0.0199377
0.0193408
0.0162773
0.00221913
0.00194583
0.00566026
0.0100208
0.00126974
0.0212718
0.00122617
0.0199621
0.0144998
0.0109679
0.0123407
0.0138778
0.00627627
0.0227533
0.016528
0.00430337
0.0186845
0.0195231
0.00965933
0.0179669
0.0177271
0.0176429
0.00827447
0.00816114
0.017977
0.00663174
0.01815
0.00634507
0.0228567
0.0226487
0.0130917
0.0206633
0.0109803
0.00745196
0.0141615
0.0113192
0.00645512
0.0229408
0.0085501
0.0011732
0.0187444
0.0194306
0.00465302
0.0171396
0.00374879
0.0228207
0.0105684
0.00546389
0.0204511
0.0161146
0.0182067
0.0193842
0.0199702
0.00926204
0.0169525
0.000827949
0.00295162
0.0119539
0.0218732
0.0179268
0.0108764
0.0226672
0.0222389
0.0228659
0.00643593
0.015219
0.022964
0.0131125
0.0181798
0.0149761
0.00366369
0.00713966
0.0227247
0.00253055
0.0177428
0.00844011
0.00899859
0.0179532
0.00691117
0.00194302
0.0067555
0.0178919
0.0047812
0.0195097
0.0222374
0.0213256
0.0199851
0.0154749
0.000727493
0.0229045
0.0109547
0.0225406
0.00228456
0.0224935
0.0227466
0.0232076
0.0168168
0.0229148
0.0139962
0.00701071
0.00570303
0.0185446
0.00546876
0.0185891
0.010335
0.0198458
0.00631849
0.0200431
0.0181539
0.0228782
0.00438863
0.0051344
0.0175186
0.00623413
0.0100334
0.0189164
0.0175751
0.0199336
0.0219002
0.00295076
0.0221755
0.0230209
0.0217006
0.0134991
0.0190789
0.00951051
0.0188526
0.0121818
0.016897
0.0199073
0.0179726
0.0228386
0.0198124
0.0201924
0.00693085
0.0227823
0.0162729
0.0188804
0.0223905
0.0107616
0.0028974
0.0220673
0.00381655
0.0206313
0.0204865
0.0215844
0.0170762
0.020089
0.00195782
0.00293198
0.000749776
0.021423
0.0213528
0.0202829
0.0063855
0.0209478
0.0108647
0.010183
0.00739361
0.0222075
0.0116253
0.0230983
0.0218023
0.00282584
0.0163841
0.0218505
0.00330083
0.00121311
0.022064
0.0226477
0.000550419
0.00545895
0.017942
0.00648073
0.00183545
0.0186418
0.0231721
0.00565259
0.000743664
0.0206497
0.0221579
0.0173595
0.0226384
0.00289246
0.022857
0.0178224
0.0186509
0.00503245
0.0185125
0.0147813
0.0187848
0.0123787
0.00158613
0.0144348
0.0119281
0.019412
0.00307648
0.0164332
0.0217047
0.0179276
0.0113169
0.00641538
0.0205
0.0229254
0.00567546
0.0181373
0.00690661
0.00478027
0.00713957
0.00717796
0.0228459
0.0194375
0.000836659
0.022936
0.00749994
0.021845
0.0214242
0.0192875
0.0128598
0.00706297
0.0156341
0.0144686
0.0227094
0.0132134
0.00509676
0.0207813
0.0230915
0.020304
0.00691541
0.020802
0.00191766
0.0132996
0.0117
0.0220819
0.00731121
0.0177163
0.0229494
0.0058056
0.0105132
0.0198898
0.0103593
0.00663683
0.0122958
0.00372001
0.00484853
0.00684949
0.0113545
0.0229226
0.00508382
0.0213546
0.0229445
0.00399305
0.00412008
0.00584022
0.00490708
0.0147973
0.0212454
0.0150672
0.00389106
0.00528445
0.019846
0.00184763
0.00482104
0.0115268
0.0186704
0.0217469
0.0109169
0.00218328
0.00518726
0.0219439
0.00449371
0.0179405
0.00274111
0.00290838
0.00462539
0.0218809
0.00652148
0.0223091
0.0139408
0.0174132
0.00725108
0.0235373
0.00816377
0.0189009
0.00540772
0.0229827
0.00657956
0.0143592
0.0126819
0.0235595
0.0226792
0.0132924
0.0127198
0.0051061
0.0226208
0.0178111
0.017698
0.00143284
0.0229825
0.00611801
0.0135624
0.00552243
0.0134592
0.00472204
0.00183082
0.00662256
0.00127648
0.0205328
0.0232507
0.0184199
0.00678122
0.0116476
0.0074551
0.0185932
0.0142021
0.0179579
0.00323744
0.0217307
0.00703418
0.0226759
0.00380533
0.0179282
0.0228686
0.00407814
0.0030541
0.0229182
0.0228192
0.00530112
0.0103259
0.0137469
0.0226968
0.01213
0.00689406
0.0229228
0.0127902
0.0177589
0.0178377
0.0227832
0.0224655
0.0128921
0.0224394
0.0115501
0.00912915
0.0230452
0.00357461
0.0028287
0.00433891
0.00425125
0.0223328
0.017713
0.0176194
0.0229893
0.01197
0.0159087
0.00907647
0.0118079
0.013508
0.00675153
0.0223017
0.00335966
0.00308563
0.00788915
0.00594182
0.0178646
0.00763435
0.00603162
0.0171649
0.010295
0.0160069
0.0233794
0.0225018
0.0134871
0.00364681
0.0226419
0.0197469
0.0136311
0.00818336
0.0126419
0.00347706
0.0147096
0.00948365
0.00844722
0.0203533
0.0230398
0.00472909
0.0238789
0.0209023
0.0179816
0.0229331
0.0189097
0.00455385
0.010741
0.00641083
0.00317669
0.00279571
0.00645473
0.0152366
0.00465517
0.0221073
0.0173655
0.0225679
0.0125018
0.0132073
0.0187749
0.00299221
0.0229699
0.0179101
0.0052716
0.0146133
0.0205763
0.00822809
0.0208621
0.0105655
0.0144758
0.00073931
0.0160283
0.0225391
0.0224889
0.0217789
0.00314716
0.0178198
0.00531515
0.0219886
0.0220498
0.0158419
0.00754226
0.0043157
0.0194137
0.0185726
0.00331279
0.0215393
0.0185537
0.0185632
0.0172284
0.0152884
0.023185
0.0229669
0.0074045
0.0227968
0.0228795
0.00857339
0.00687005
0.0180476
0.00447672
0.00583214
0.0179268
0.0103956
0.0192004
0.0180181
0.00973389
0.0184009
0.0229178
0.00924032
0.00249519
0.00556512
0.0191522
0.0119022
0.0126161
0.0224023
0.0180912
0.0224543
0.00617136
0.0152938
0.00468158
0.00113901
0.0155938
0.0210063
0.0177855
0.0167093
0.00494813
0.00552444
0.0222847
0.000795428
0.0207138
0.0232782
0.00423009
0.0176518
0.00786268
0.00676203
0.00487755
0.012026
0.0040317
0.00523384
0.00392279
0.0213372
0.0138039
0.0187995
0.0180775
0.0213701
0.00586032
0.0205113
0.0131944
0.00689016
0.0205694
0.0135667
0.013263
0.01712
0.0131929
0.0232917
0.0187262
0.0218106
0.0192769
0.0198023
0.0229455
0.00841553
0.0198573
0.0107398
0.0111428
0.0229158
0.00506485
0.0229911
0.0224026
0.0111902
0.0138652
0.0149729
0.0223779
0.0228925
0.00273542
0.00337646
0.0180375
0.00425915
0.0181319
0.0176699
0.00790955
0.0188501
0.021974
0.015373
0.0203031
0.00796232
0.00487909
0.00791728
0.0202354
0.0175867
0.0228638
0.0170465
0.00738708
0.00453041
0.0234017
0.01795
0.0179977
0.00800933
0.0181321
0.0139518
0.00562486
0.0129607
0.023209
0.00672565
0.023343
0.0176268
0.0207553
0.0233717
0.0228314
0.00936601
0.0213543
0.021484
0.0067968
0.01164
0.0181485
0.00745994
0.0208186
0.00751874
0.0199709
0.0187409
0.0174167
0.0139549
0.0206121
0.00408404
0.0146214
0.0224302
0.0182831
0.0220428
0.0210168
0.0211796
0.00635416
0.0201688
0.020775
0.0165727
0.0239004
0.0173988
0.0235944
0.0175842
0.015604
0.0189308
0.0196031
0.0174833
0.0221901
0.0229217
0.00617796
0.0157697
0.0152026
0.0175796
0.0231063
0.016646
0.0226975
0.0225448
0.0181138
0.0139034
0.0203675
0.0122495
0.0181076
0.0183912
0.00634482
0.0230556
0.0229649
0.0226841
0.0125682
0.0053403
0.00433373
0.0043721
0.0167843
0.0079341
0.0221587
0.0220255
0.0185565
0.0219921
0.0171509
0.0210207
0.0175541
0.0175991
0.0201408
0.0161683
0.0201999
0.0159276
0.0239044
0.0210225
0.0239631
0.0239732
0.0234087
0.0239861
0.0228922
0.0206844
0.0211307
0.0209413
0.0239584
0.0220729
0.0238838
0.0211838
0.0198814
0.0200275
0.0238799
0.0217356
0.018644
0.0237266
0.0217478
0.0240382
0.0240529
0.023943
0.0238395
0.0236428
0.0240373
0.0232478
0.0240282
0.0204648
0.0239678
0.020377
0.0239482
0.0227814
0.022036
0.0239011
0.0236364
0.0237467
0.0178959
0.0211537
0.0161189
0.0187556
0.0212348
0.0211396
0.0237021
0.0220322
0.0221909
0.0236413
0.0238211
0.0237861
0.0238585
0.0235679
0.0212617
0.0229365
0.0169655
0.0176493
0.0224649
0.0189295
0.0237187
0.0235269
0.0233873
0.0227093
0.0212663
0.0231366
0.0227897
0.0219468
0.0234825
0.0201938
0.0214495
0.017731
0.0234202
0.0213867
0.00874392
0.0181115
0.0234735
0.0229254
0.0234193
0.0218006
0.0223607
0.00758037
0.0219368
0.0177319
0.0200824
0.0211222
0.00768338
0.0197677
0.0199766
0.0237215
0.0238892
0.0231795
0.0222943
0.0240631
0.0232157
0.0231421
0.024068
0.0184566
0.0239137
0.0152805
0.0237962
0.0233721
0.0237963
0.0238508
0.0225068
0.0133537
0.0201064
0.0221068
0.019241
0.0199732
0.022177
0.0237365
0.0239286
0.00488058
0.0202803
0.0213413
0.0233345
0.0190326
0.0233424
0.023307
0.023336
0.0236193
0.0208851
0.0220506
0.0223092
0.0234581
0.0212438
0.0169584
0.0235394
0.0219286
0.0234296
0.0234209
0.0205126
0.0227412
0.0212411
0.0213601
0.0211193
0.0221097
0.0217648
0.0213487
0.0219616
0.0165004
0.018445
0.0235811
0.0197007
0.0232861
0.0238182
0.00436349
0.0214734
0.0174064
0.0169155
0.0176786
0.0176281
0.016502
0.0175847
0.0175516
0.0178019
0.017423
0.0176946
0.0175769
0.0177066
0.0176566
0.0177971
0.0175032
0.017374
0.0175936
0.0175942
0.0161256
0.0233336
0.0234762
0.00887045
0.0234588
0.0176345
0.0191028
0.0226572
0.0185669
0.0239786
0.0213502
0.0240619
0.0221192
0.0173
0.0173926
0.0171261
0.0163986
0.0239631
0.0219694
0.022359
0.0192064
0.0173913
0.0229209
0.00700627
0.0229293
0.0172108
0.022043
0.0224718
0.0233309
0.0199531
0.0166779
0.0171558
0.0150143
0.0156916
0.0170947
0.0146356
0.0175619
0.0174432
0.0175776
0.017504
0.0175261
0.0175519
0.0187225
0.0235676
0.0233784
0.017992
0.0221596
0.0188062
0.0171229
0.0237479
0.0170402
0.0148265
0.017136
0.0174983
0.0165962
0.0175792
0.0154899
0.0174249
0.0175472
0.0144011
0.0174313
0.0175593
0.0238115
0.02129
0.0228724
0.0165822
0.0237364
0.0219482
0.0239274
0.0209075
0.02379
0.0233553
0.0216029
0.00358271
0.0229785
0.0239448
0.023796
0.0238696
0.0211201
0.0237593
0.0229583
0.0169505
0.0236709
0.0233765
0.00542365
0.00255893
0.0236148
0.0235237
0.0209506
0.0165428
0.021719
0.00595889
0.023201
0.0177108
0.0180798
0.0175327
0.0221724
0.0234341
0.0197152
0.020202
0.0231875
0.0128135
0.0175053
0.0228202
0.0231179
0.0177209
0.0237288
0.0234407
0.0236145
0.0198347
0.0176677
0.0237157
0.0237786
0.0238373
0.0235542
0.0235601
0.0217858
0.0233932
0.0198309
0.0213995
0.0217097
0.0235297
0.0170334
0.023275
0.0236713
0.0211341
0.0235308
0.0230133
0.0234994
0.0187921
0.0233814
0.0232941
0.0230111
0.0195986
0.022079
0.0220197
0.0130813
0.0232839
0.0200628
0.0233308
0.0234044
0.0209409
0.0181738
0.0237233
0.0212425
0.0155023
0.0200847
0.0232955
0.0234456
0.0232479
0.0232054
0.0158264
0.0231723
0.0230605
0.0226252
0.0160348
0.0186819
0.023163
0.0229792
0.0222189
0.0187877
0.0216325
0.0205096
0.0190554
0.0219801
0.0224386
0.0232823
0.0196269
0.0185944
0.0202001
0.00172644
0.0204739
0.00478433
0.0195447
0.0217127
0.00196665
0.023184
0.0178357
0.0228362
0.0175139
0.0226815
0.0233956
0.0221032
0.0213174
0.0227059
0.00580867
0.0233435
0.0233908
0.0186026
0.0194048
0.0184472
0.0160066
0.0233589
0.0232458
0.0220128
0.0233667
0.0214022
0.0177897
0.0215029
0.0199398
0.0222417
0.0161618
0.015203
0.0158021
0.0149064
0.014558
0.0236103
0.0234307
0.021886
0.0192193
0.0193129
0.0238111
0.0190319
0.0238789
0.0222006
0.0240257
0.0235667
0.0240468
0.0240276
0.023714
0.0239211
0.0239318
0.0237752
0.0235212
0.0223054
0.0235424
0.0137922
0.0229915
0.0232319
0.0142159
0.0231403
0.018725
0.0230152
0.0228907
0.0237306
0.0235238
0.0221222
0.0233106
0.019105
0.0205456
0.0210058
0.0181656
0.0230974
0.0142021
0.0221457
0.0178596
0.0240519
0.0225115
0.0196562
0.00441511
0.0084952
0.0207594
0.0189163
0.0185738
0.0234933
0.0227043
0.0232278
0.0237289
0.0197881
0.0238553
0.0239889
0.0238854
0.0238078
0.00265024
0.0238728
0.0169708
0.0232504
0.0237703
0.0179249
0.0185442
0.0209991
0.00438779
0.0235543
0.0177535
0.0181616
0.0235298
0.0227682
0.0234174
0.0231596
0.0207753
0.0224459
0.0234833
0.0234191
0.0127861
0.0231775
0.023211
0.0228922
0.0142714
0.0198795
0.0221075
0.0221424
0.0179381
0.0182797
0.0233367
0.0196499
0.0181094
0.0093014
0.0179468
0.0231682
0.0186244
0.0227937
0.0222587
0.0232707
0.0235778
0.0215489
0.0233506
0.0231962
0.022965
0.0226394
0.0224247
0.022731
0.0214956
0.0231854
0.023712
0.0220232
0.0125952
0.0106522
0.0223292
0.0217616
0.0214269
0.0198813
0.0209911
0.0175067
0.0221705
0.0233757
0.0142487
0.0228751
0.022269
0.0232003
0.0203714
0.0222762
0.0179079
0.0213911
0.0225004
0.0187451
0.0218227
0.019235
0.0223587
0.0221246
0.0202505
0.0209286
0.0200729
0.0200233
0.0222549
0.0231038
0.0220887
0.0239714
0.0175766
0.0237628
0.0180117
0.0174808
0.0162018
0.0177925
0.0177018
0.0156674
0.0177186
0.0174706
0.0150404
0.0177868
0.0175668
0.0143552
0.0176051
0.0176792
0.0147372
0.0210792
0.0185293
0.0196522
0.0205076
0.0150518
0.0224065
0.0230744
0.0200479
0.017288
0.019727
0.0210665
0.0152678
0.021829
0.0230806
0.0157128
0.0236384
0.0220847
0.0238307
0.0185163
0.0024127
0.02195
0.0232574
0.023111
0.0228786
0.0231294
0.0234424
0.0234141
0.00566596
0.0238396
0.023397
0.023024
0.0199117
0.0235177
0.0231962
0.0124942
0.0201308
0.0198377
0.0174978
0.0189718
0.0232845
0.0230981
0.0201776
0.00498829
0.0231507
0.0157468
0.022075
0.0227074
0.0102228
0.0136766
0.0215729
0.0211308
0.0198984
0.0184534
0.0211816
0.0212101
0.0211686
0.0130241
0.0223954
0.0205674
0.0189992
0.0188456
0.0180715
0.0197135
0.0235653
0.022884
0.00379515
0.0201265
0.020161
0.0171051
0.0229296
0.0009181
0.0204802
0.00460524
0.0230842
0.0177716
0.0210821
0.0213774
0.0227057
0.0209947
0.0218142
0.0209598
0.0214223
0.0185846
0.017985
0.0208619
0.023038
0.018446
0.0183871
0.0218148
0.0213303
0.0219627
0.0209914
0.0185269
0.021964
0.0238241
0.0198419
0.0210213
0.0151623
0.02252
0.0183148
0.0209846
0.0240665
0.0229993
0.0198006
0.0065533
0.017483
0.0172396
0.0214892
0.0193518
0.021909
0.0206833
0.0173344
0.0207993
0.0126408
0.00594774
0.0186565
0.0217168
0.0219842
0.00522333
0.0211953
0.0208942
0.0206005
0.0185167
0.0151474
0.0228513
0.0217712
0.00523811
0.011564
0.0211558
0.0184952
0.0173557
0.0203559
0.00510853
0.0226783
0.013602
0.022635
0.0153679
0.0186344
0.018156
0.011445
0.0228817
0.00591482
0.0144777
0.0200153
0.00805057
0.02015
0.0155973
0.0141089
0.0124522
0.021675
0.0197438
0.0119529
0.0230405
0.0168503
0.0217785
0.023365
0.0223384
0.0201716
0.0168408
0.023064
0.019256
0.0209264
0.019519
0.0222413
0.0232888
0.0200127
0.0231843
0.0217427
0.0154879
0.00978182
0.0184254
0.0230413
0.0220627
0.0222899
0.0214033
0.0222708
0.0226984
0.00716583
0.0185091
0.0168791
0.00100688
0.0208744
0.0210799
0.0197091
0.0207479
0.0171435
0.0151705
0.0232014
0.0237172
0.0238919
0.020727
0.0225242
0.0211288
0.017701
0.0230418
0.0226678
0.0151512
0.00461004
0.0197061
0.0193181
0.0204154
0.0111558
0.0220385
0.020674
0.0224734
0.0227589
0.0230833
0.0218506
0.0215146
0.0204564
0.0225938
0.0229097
0.022736
0.00830108
0.00737374
0.0232795
0.021705
0.020251
0.0222416
0.0193689
0.0231407
0.0218532
0.0197485
0.0222946
0.00236282
0.0191354
0.00702166
0.022777
0.0230879
0.0104835
0.0212701
0.0210344
0.0221719
0.0200546
0.0199295
0.0184466
0.0207462
0.0170336
0.0228415
0.0226753
0.0232675
0.0213156
0.0124961
0.0224921
0.0196399
0.0234292
0.017056
0.00811439
0.0222743
0.0195572
0.0138892
0.0230959
0.022761
0.0222723
0.017772
0.0056579
0.00381435
0.0235965
0.0229147
0.0200522
0.0209172
0.0159618
0.0192995
0.022996
0.0214275
0.0170804
0.0199078
0.0136192
0.0222868
0.0208981
0.0198369
0.0132874
0.019302
0.0205797
0.0203611
0.0071067
0.0204582
0.0200161
0.0152333
0.0229346
0.0185575
0.0199039
0.0164457
0.00502107
0.0179711
0.0206369
0.021394
0.00438942
0.0198148
0.017456
0.0191413
0.0111445
0.0219799
0.0179967
0.0201443
0.0110563
0.0156045
0.0230785
0.0200168
0.0229937
0.0227757
0.0184517
0.00903852
0.0222768
0.023067
0.023011
0.0139845
0.0211435
0.0180683
0.0185228
0.0230566
0.0228387
0.00731876
0.0200791
0.0217917
0.0229645
0.0184533
0.0103796
0.00511225
0.0026936
0.00703988
0.0115374
0.0202961
0.0182587
0.0227581
0.020977
0.0229822
0.0179747
0.0230844
0.00691326
0.00393035
0.0228908
0.0230579
0.0153649
2.04768e-05
0.0151877
0.00824366
0.0216696
0.0131392
0.0230505
0.0194168
1.67749e-05
0.0227941
0.0143359
0.0223093
0.022499
0.0156451
0.003222
0.00795681
0.0137764
0.0152224
0.0179026
0.0018263
0.0210997
0.0137021
0.0227535
0.0113884
0.0194463
0.0187534
0.0187981
0.0223786
0.0192851
0.0221379
0.00271271
0.0150069
0.00649679
0.00757869
0.0228851
0.0144582
0.0221974
0.0215136
0.0229183
0.0191975
0.00987803
0.0220972
0.0199152
0.0130263
0.00573358
0.0233241
0.0214083
0.0122072
0.0213378
0.0232709
0.0200082
0.0177556
0.0202014
0.0194155
0.0229998
0.00622503
0.0226006
0.0225345
0.0230169
0.0160251
0.0134789
0.0206536
0.0179903
0.0127162
0.0157328
0.0159395
0.0211663
0.00387815
0.0174734
1.64579e-05
0.0122735
0.0114093
0.0221836
0.0231524
0.0109048
0.0117806
0.0201309
0.0224284
0.0144361
0.0172743
0.0176415
0.0169814
1.77206e-05
0.0227131
0.00715285
0.0225617
0.00486402
0.0230003
0.0223972
0.0232812
0.0227409
0.0040276
0.0222282
0.0138153
0.00276346
0.0233373
0.0174455
0.0138202
2.17555e-05
0.0199246
0.0219277
0.02025
0.0193379
0.01159
0.0176641
0.0132282
0.0139219
0.014086
3.19179e-05
0.0191436
0.021994
0.0179941
0.00641835
0.023131
0.0125907
0.0190776
0.0187982
0.0183748
0.0231884
0.00674427
0.0207656
0.0223374
0.0169007
0.0181151
0.0103829
0.0132434
0.00533664
0.00786288
0.0158312
0.00217479
0.0148766
0.0207897
0.0176047
2.4239e-05
0.0179733
0.0128932
0.0227916
0.00411845
0.00502629
0.0235378
0.0233085
0.0176494
0.022098
0.023126
0.0221097
0.0237649
0.0222458
0.0121651
0.018847
0.0190087
0.0216889
0.0216596
0.0146563
1.54073e-05
0.00488776
0.0111432
0.00562171
0.0125634
0.00304591
0.0224915
0.0179218
0.00377578
0.0175771
0.00627127
0.0153583
0.0173057
2.83237e-05
0.0221127
0.018894
0.0131075
0.0230077
0.00959201
0.0130359
0.0166427
0.00683005
0.0228102
0.0125463
0.0174483
0.0231756
0.0125914
0.000805204
0.0185545
0.0180919
0.0178658
0.0221448
0.0227035
0.00511136
0.023253
0.0184651
0.0119478
0.0228839
0.00921182
0.0164538
0.022103
0.0177308
0.00569386
2.6306e-05
0.00907844
0.0103977
0.0114892
0.0215627
0.015725
0.0226195
0.0224509
0.0144539
0.0201115
0.00693849
0.0126899
0.0115185
0.0114159
0.0222678
0.0130824
0.0228916
0.0188254
0.0227744
0.0188258
0.0136878
0.0230569
0.0201331
0.0180668
0.0060226
0.0227525
0.00756109
3.73985e-05
0.0234546
0.00198204
3.42405e-05
0.0122563
0.0229527
0.00449577
0.0180553
0.0221311
0.0229377
0.00527038
0.0227513
0.0204054
0.0216504
0.0141062
0.0210791
0.0118605
0.0217288
0.023392
0.0169175
0.0218807
0.0166679
0.020258
0.0178027
0.0190555
0.0194309
0.0234853
0.0190392
2.88422e-05
0.0164489
0.0199407
0.00339556
0.0167333
0.0121421
0.0221254
0.0218688
0.00729874
0.0114993
0.0083855
0.0116482
0.00887558
0.0102603
0.0197849
0.0118314
0.00943435
0.0187797
0.012231
0.0198228
0.00637505
0.00436228
0.00515913
0.0162871
0.00823908
0.00110218
0.0191682
0.0229304
0.0229281
0.00851052
0.0129212
0.00370989
1.87091e-05
0.00928706
0.0185839
0.0221827
0.0127755
0.00452393
0.0134039
0.0172443
0.0136671
0.0227012
0.0085803
0.00319888
0.0116961
0.0088012
0.0066997
0.0132043
0.0209799
0.0072308
0.0129794
0.00356766
0.0130399
0.00782249
0.0174904
0.0113138
0.00428982
0.0178644
0.00669441
0.0147943
0.0189296
0.0090016
0.0173273
1.91522e-05
0.00851722
0.0176827
0.0135885
4.80409e-05
0.0168306
0.0145619
0.00560474
0.017876
0.012732
0.0181269
0.0222887
0.0192738
0.0219434
0.0228093
0.0215525
0.0214486
0.0200724
0.0222851
0.0180123
0.00998367
0.0227771
0.0152226
0.000798643
0.00905777
0.022283
0.0170806
0.017873
0.00854603
0.0196796
0.00561614
0.0082352
0.0214915
0.0123749
0.0119439
0.00735067
0.0217498
0.0189622
0.00981338
8.9239e-05
0.00644224
0.0226004
0.0229502
0.0214119
0.0211663
0.0132809
0.0203552
0.0220315
0.020317
0.0102098
0.0210114
0.0167281
0.0183692
0.0230174
0.0087076
0.0175711
0.017651
0.0180646
0.009492
0.0197887
0.00998387
0.0237687
0.0175884
0.0234808
0.016296
0.00767748
0.00685852
4.41845e-05
1.7532e-05
0.0184049
0.0166451
0.0101278
0.0223447
0.00601551
0.0194805
0.017658
0.0189312
0.0192457
0.0083953
0.0197568
0.0177988
0.000742364
0.0058985
0.00276794
0.0106532
0.0173533
0.00915685
0.00409796
0.0227789
0.0161665
5.59476e-05
0.0164321
0.022935
0.0120235
0.020602
0.0143713
0.0123081
0.0140391
0.0211396
0.0179187
0.0108371
0.0222648
0.0160378
0.0224921
0.0150533
0.0227548
0.0112917
0.0179664
0.00812673
0.0201605
0.0186188
0.0185194
0.0174958
0.0103565
0.0119362
0.0216529
0.0202201
0.0220434
0.0228912
0.0171552
0.0218076
0.00265109
0.00187029
0.0073721
0.0228165
0.0203103
3.78862e-05
3.80434e-05
0.00314691
0.00475936
0.00971236
0.0188847
0.0151677
0.00870827
0.0229708
0.00899633
0.0231109
0.0176962
0.0225007
0.00912638
0.0228253
4.00728e-05
0.0227251
0.00507126
0.0109519
0.0203742
0.00746471
0.0178441
0.00414144
0.0152629
0.0177022
0.0188709
0.00717134
0.0045338
0.0184844
2.27253e-05
0.0132805
0.0188376
0.00571141
0.0223272
0.00861046
0.020516
0.0187603
0.0225887
3.4888e-05
0.0216081
0.00841711
0.0213731
0.0216053
0.0227428
0.0226137
0.0223733
0.0209282
0.00942208
0.0141243
0.0169078
0.01512
0.0175881
0.0224575
0.0229697
0.0221214
0.00818682
0.0176077
0.0226355
0.0177505
0.0222268
0.0237534
0.00522946
0.0202753
0.0181035
0.0204156
0.0111927
0.0179039
0.0197789
0.00841355
0.0116327
0.022641
0.0224917
0.00257051
3.70816e-05
0.00415297
0.0212213
0.0180476
0.00421289
0.0211332
0.0186489
0.0225184
0.00994795
0.0158334
0.00582627
0.0225608
0.0093019
0.0153138
0.00600878
4.34607e-05
0.018542
0.0207006
0.0202981
0.000905683
0.0226452
0.0197229
0.0160053
0.0149269
0.0189783
0.0214624
0.0179242
0.0199389
0.0227312
0.00932354
0.0187741
0.00800743
1.95767e-05
0.0115261
0.0199529
2.5421e-05
0.013199
0.00598897
0.00620453
0.0193699
0.019476
0.0182484
0.0160844
0.00984463
0.0185973
0.0101063
0.02233
0.018931
0.0200671
0.0228271
0.00901998
0.0213207
0.0225303
4.33467e-05
0.00531642
0.0184693
0.0102434
4.67724e-05
0.00765587
0.0131019
2.29752e-05
0.00522123
0.0225593
0.0169113
0.0147324
0.0228656
0.0175771
0.0229103
0.0181181
0.0189182
0.0181939
0.0067072
4.953e-05
0.0186071
0.00928503
0.0223529
0.0219336
0.0228022
0.00880543
2.1823e-05
0.0172743
0.0230373
0.00928065
0.00810029
0.00295096
0.011798
0.0183098
0.0127944
0.0220485
0.0217923
0.0190427
0.022373
0.0104267
0.0221563
0.013735
0.0105224
0.000849635
4.49753e-05
0.022257
0.019041
0.015885
0.0107344
0.0109375
0.0168847
0.0155095
0.00629103
0.00527566
0.00773244
0.00552235
4.84057e-05
0.00640355
0.0191636
0.0223714
0.018832
0.00468103
0.0210432
0.0176311
0.0205964
0.011431
0.0151949
0.0145229
0.00960618
0.00900185
0.0211478
0.00983559
0.0155348
2.14777e-05
0.0222193
0.00491157
0.0103498
0.00309433
0.0175871
0.0104436
0.0150542
0.00181055
0.0229136
0.0147101
0.0175937
0.0223992
0.022532
0.000640662
0.0199516
0.0013407
0.00627677
0.00339044
0.0227204
0.00543383
0.0228721
0.00985712
0.0170839
0.0111794
0.0225993
0.0229051
3.46217e-05
0.00668818
0.0220036
2.37184e-05
0.0127969
0.0214055
0.0218424
0.0215314
0.0100026
2.04109e-05
0.0195854
0.0212695
0.0185436
0.0150015
0.0200334
0.0219625
0.0165369
0.0171134
4.56475e-05
0.0180552
1.97516e-05
0.0201718
0.00196514
0.00452566
0.0141696
0.0148296
0.00213047
0.0226637
0.0179892
0.0183262
0.0207238
3.04696e-05
0.0191675
0.0223687
0.010246
0.00780113
0.00992838
0.0168321
0.00196031
0.018766
0.0210726
0.0227945
0.0102473
0.0104569
0.0186762
0.00769997
0.0211709
0.007668
0.00820182
0.000679762
0.0201996
0.00841808
0.0215853
0.0229363
0.000729284
0.00414911
0.020406
0.0194796
0.0124059
0.014177
0.0212371
0.0215533
0.0148395
0.0108646
0.0229438
0.022953
0.00397255
0.0216839
0.0110671
0.0229535
0.00407181
2.99643e-05
0.0179436
4.09214e-05
0.00987756
0.0199638
0.011342
0.00888893
0.0121744
0.0084591
0.0164351
0.0210706
0.0200676
0.0227896
0.0224166
0.0107413
0.018619
0.00575856
3.27147e-05
0.0224855
0.0191534
0.0202212
0.0205685
0.0209142
0.0212511
0.0233277
0.0187925
0.0186699
0.0216188
0.0182252
0.0200389
0.0196106
0.0186414
0.0211151
0.0215496
0.00235689
0.00856838
0.00868171
0.00918707
0.0183289
0.00294038
0.0195259
0.000696535
0.0209338
0.0172246
0.00978458
0.0139957
0.0179322
0.0196595
0.021426
0.00257263
0.0205988
0.0118038
0.0208894
0.0209427
0.0223272
0.0110989
0.0090649
0.0156638
0.017386
0.0205286
0.022758
0.0192869
0.0126066
0.0155727
0.0176578
0.0202077
0.0207509
0.019195
0.0112943
0.0011281
0.00381762
0.0145885
0.00417228
0.0112063
0.00754019
0.0132957
0.0141561
0.00929229
0.00205149
0.021516
0.00605216
0.0106305
0.0060234
0.00184521
0.0155637
0.019405
0.0111672
0.019049
0.000771797
0.00793371
0.000926832
0.0189147
0.0170901
0.0110607
0.00601812
0.0196678
0.00738398
0.0140437
0.021131
0.0221683
0.0220788
0.0179036
0.0177111
0.0226409
0.0229143
0.00564516
0.0228885
0.00979306
0.00977093
0.00250586
0.0206405
0.013577
0.0141022
0.00195725
0.0177176
0.0136334
0.0229511
0.00444234
0.0112514
0.00917288
0.0176762
0.0193635
0.0205974
0.000835936
0.0116369
0.0158245
0.0192016
0.0083021
0.0108409
0.020972
0.0182776
0.0171813
0.00688885
0.017932
0.0199341
0.00842218
0.0137963
0.02293
0.00710576
0.0163276
0.00599988
0.017309
0.00244991
0.0100782
0.0209622
0.0169158
0.00571652
0.0141428
0.021949
0.000713061
0.0098633
0.0010568
0.012593
0.0113451
0.0145383
0.0210903
0.00627821
0.0177737
0.0222299
0.0196211
0.0206097
0.0222234
0.00343207
0.00761498
0.00955037
0.0134131
0.0188001
0.0151409
0.0229802
0.0165501
1.81474e-05
0.0132772
0.0198515
0.021584
0.0108478
0.017765
0.00719961
0.0180652
0.0061461
0.0225796
0.00812279
0.0199244
0.00845032
0.0167718
0.0208476
0.00911139
0.0026807
0.000970729
0.0179574
0.00319158
0.0128195
0.0109143
0.016725
0.0159245
0.0135826
0.0159879
0.0212963
0.0178909
0.0101889
0.016756
0.00989033
0.00476203
0.0202597
0.00940783
0.0184135
0.0087622
0.0228478
0.0220085
0.0222196
0.0201478
0.00581695
0.00627582
0.0174121
0.0140009
0.0201781
0.020296
0.0174325
0.0187285
0.0225683
0.022923
0.023512
0.0195325
0.0180701
0.00814996
2.65541e-05
0.0195666
0.0177616
0.0137099
0.00543971
0.0162561
0.0190224
0.0225121
0.00534063
0.0202248
0.0229513
0.0229514
0.0038016
0.0225636
0.018517
0.0198723
0.0149728
0.000220177
0.0109027
0.0211866
1.66901e-05
0.00360798
0.022857
0.010845
0.00585872
0.0221738
0.00982098
0.0183712
0.0223947
0.0181106
0.00371468
0.0189174
0.0136839
0.0101307
0.0226353
0.0208625
0.004636
0.0178372
0.00279693
0.0212539
0.0143876
0.0154855
0.0234035
0.0123283
0.0072646
0.0221608
0.0181883
0.0123035
0.0194988
0.0076282
0.00341532
0.00574778
0.0175452
0.0184038
0.0224223
0.00853053
0.0185135
0.0182426
0.0193759
0.0153203
0.0223285
0.023807
0.0183248
0.0219103
0.0120194
0.00984313
0.0162445
0.0202022
0.0056772
0.0199224
0.0176016
0.0173301
0.00121241
0.0229529
0.0194732
0.00400884
0.0184482
0.0225198
0.0220849
0.00993209
0.0225468
0.0134006
0.00704782
0.020506
0.00771622
0.0171557
0.0231418
0.00605153
0.00886605
0.00382946
0.0179759
0.0138243
0.0173112
1.90844e-05
0.0056757
0.0228876
0.0144781
0.0227515
0.00972092
0.0225385
0.0225065
0.0208229
0.0185253
0.019094
0.0228725
0.00343845
0.0192542
0.0205318
0.0227174
0.0197893
0.000957467
0.0130086
5.22974e-05
0.0186515
0.0233486
0.00538129
0.0226094
0.0220999
0.0189585
0.0229786
0.0228566
0.0162089
0.0183798
0.0194607
0.013307
0.00932944
0.00479182
1.08488e-05
0.0117279
0.0219665
2.75425e-05
0.00228655
0.0147721
0.00110867
0.00187833
0.00412022
0.0118347
0.0190346
0.00350215
0.0176562
0.00958403
0.0185587
0.0179138
0.0210485
0.0187522
0.0079434
0.015488
0.00130807
0.0218834
0.0235456
0.0219233
0.0160697
0.0177861
0.0196303
0.016806
0.0109716
0.0171798
0.00490416
0.0230148
0.0223643
0.0096978
0.0185458
0.0177457
0.016242
0.0179316
0.0156636
0.00076742
0.0207233
0.0213307
0.0133526
0.0172364
0.0106619
0.0110854
0.0131704
0.0181673
0.0190857
0.0141271
0.00804292
0.0207647
0.0188747
0.00700642
0.0191986
0.0204274
0.0144591
0.0208727
0.00407618
0.0205018
0.00992557
0.0201114
0.0231135
0.0179874
0.0197176
0.0215652
0.0124111
0.01786
0.017767
0.0181722
0.0131523
0.00869808
0.0184546
0.0155237
0.0088226
0.0116295
0.0196477
0.0100589
0.00704811
0.00375602
0.0228845
0.00554498
0.0180988
0.00947103
0.0188953
0.0126487
0.00284177
0.00590431
0.0226553
0.0229893
0.0110995
9.86861e-05
5.8894e-05
0.018616
0.0037469
0.0182122
0.0214958
0.00684258
0.0128802
0.0188736
0.0112659
0.0171656
0.0221113
0.00564646
0.00255257
0.0120646
0.0186079
0.0216359
0.0171357
0.0187405
0.0209764
0.0186823
0.00785753
0.00824431
0.00999348
0.0187409
0.018154
0.00815861
0.00992621
0.0112437
0.0160164
0.00799172
0.00876013
0.0227265
0.0226957
0.0176649
0.0192702
0.0194707
0.00102696
0.0113485
0.0227914
0.0230096
0.0228843
0.0182256
0.0167309
0.000869421
0.0089308
0.0180358
0.0177421
0.0179698
0.000673593
0.0123175
0.0102995
0.0226279
0.0121917
0.0224976
0.0179837
0.0120865
0.0216021
0.00290838
0.0167864
0.019391
0.008473
0.0203549
0.00550547
0.00746971
0.0166906
0.00878234
0.0220764
0.0162968
0.00413998
0.0144269
0.0185254
0.00799731
0.00738029
0.0223633
0.0197038
0.00720525
0.000770408
0.0192633
0.0117145
0.00876959
0.0154075
0.00104855
0.00763842
0.00103337
0.00739461
0.00591063
0.00609093
0.00920823
0.0117325
0.0086692
0.0109319
0.0178708
0.0196996
0.0195008
0.0118422
0.0194099
0.00880498
0.00117062
0.0210601
0.0200013
0.0177523
0.0179442
0.0197751
0.00922568
0.0134196
0.0128407
0.0144343
0.0101344
0.00956499
0.019342
0.0188961
0.00953002
0.0179467
0.0217713
0.0223759
0.018706
0.000882185
0.0226311
0.00295702
0.0227495
0.0219713
0.00215501
0.0181988
0.0133424
0.00873374
0.0103236
0.00686849
0.0213641
0.0227401
0.0183776
0.0176812
0.0157051
0.00697091
0.00617338
0.0188414
0.00360306
0.00877918
0.00673856
0.0226137
0.0215173
0.0198303
0.0178209
0.0102912
0.016005
0.00946499
0.0176574
0.00726448
0.0125409
0.0176238
0.0114506
0.00968823
0.0179408
0.01123
0.0114166
0.0129726
0.0167429
0.00124147
0.0176994
0.0180315
0.0168655
0.0118294
0.0219327
0.0064843
0.0129779
0.00564178
0.0178638
0.0225186
0.00923184
0.0181464
0.0222438
0.0131587
0.00478467
0.0201049
0.0131913
0.0177887
0.00862788
0.0123113
0.022727