/*--------------------------------*- C++ -*----------------------------------*\
  =========                 |
  \\      /  F ield         | OpenFOAM: The Open Source CFD Toolbox
   \\    /   O peration     | Website:  https://openfoam.org
    \\  /    A nd           | Version:  10
     \\/     M anipulation  |
\*---------------------------------------------------------------------------*/
FoamFile
{
    format      ascii;
    class       volScalarField;
    location    "1000";
    object      p;
}
// * * * * * * * * * * * * * * * * * * * * * * * * * * * * * * * * * * * * * //

dimensions      [0 2 -2 0 0 0 0];

internalField   nonuniform List<scalar> 
23845
(
-0.128134
-0.170353
-0.254564
-0.251507
-0.147932
2.96931e-07
-0.238998
-0.256845
-0.000839488
-0.086741
-0.0167077
0.00022522
0.00056357
-0.000329829
-0.246351
-0.0423436
0.000975695
0.000322366
-0.00120901
0.00056757
-0.146958
-0.0153795
-0.191971
-0.000398372
-0.049191
-0.000103834
-0.216004
0.00312196
-0.264472
0.000409269
-0.24734
-0.243628
-0.256907
1.86294e-05
0.000344716
0.000730985
-0.253761
8.26558e-05
0.00106418
0.000187045
-0.00519226
0.00132237
0.000191915
1.8864e-05
0.000100929
0.00106929
-0.165522
-0.0326544
-0.236609
-0.267188
-0.244514
-0.247099
-0.236666
0.000944687
-0.24618
0.000493748
-0.195007
-0.254008
-0.150323
-0.231398
-0.262879
0.00242112
-0.0277106
-0.265086
-0.000219346
-0.00133506
-0.227758
-0.000731571
-0.00175607
-0.00360969
-0.259334
-0.259043
-0.000428089
-0.24585
-0.00126784
-0.247497
0.000273277
-0.000394304
-0.253607
-0.000827053
-0.198871
-0.239464
-0.181383
-0.257615
-0.250648
0.000428489
-0.23407
-0.234168
-0.000674359
-0.00135056
-0.24893
-0.0124097
-0.266624
0.00187767
-0.251051
-0.253267
-0.00169684
-0.0378641
-0.000335938
-0.148719
0.000150205
-0.242249
-0.110889
-0.2747
-0.269224
-0.256606
-0.000338487
-0.00106517
-0.229247
0.00145762
-0.0130736
-0.00035997
-0.254922
-0.0626043
0.000581669
-0.128199
-0.000434445
-0.0667987
-0.263332
-0.262884
0.000288852
-0.247645
-0.00416646
-0.261353
-0.233456
0.00132608
-0.261995
-0.268447
-0.257281
-0.186995
-0.258978
-0.0597418
-0.0387592
-0.00039666
0.00115305
-0.118417
-0.272704
0.00026057
-0.224274
4.21335e-05
-0.263273
0.000794417
0.000516556
0.000400517
-0.0170171
0.00106189
-0.0994987
-0.245918
-0.262451
-0.00498522
-0.241985
0.000818046
-0.223935
-0.000877211
-0.254673
-0.00869578
-0.119759
0.000381916
-0.259719
-0.258042
-0.00807934
-0.25007
-0.249818
-0.000312777
-0.00176502
-0.00337801
-0.000566655
-0.250593
-0.00097054
0.000763757
-0.000897015
-0.252719
9.67592e-05
-0.261077
-0.000461251
-0.2526
-0.0178509
-0.0175222
0.000642331
0.000576392
-0.142476
-0.145509
-0.243716
-0.0100354
-0.0254138
-0.000311701
0.00211431
-0.257037
-0.265676
0.000763703
-0.267168
-0.00182361
-0.000308382
-3.57862e-05
-0.0147006
-0.000598961
-0.272163
-0.267349
-0.281976
-0.0160243
-0.00205035
-0.00113025
-0.262559
-0.0517254
-0.257245
-0.250908
-0.2563
4.66092e-05
-0.172823
0.000600551
-0.00228632
-0.255161
-0.0281801
-0.00188624
-0.240029
-0.25053
-0.0471651
0.00141473
-0.265004
-0.258371
0.000493488
-0.247706
-0.272482
-0.00979521
0.00160036
-0.247996
-0.267895
0.00126082
-0.000263658
-0.00612058
0.000850393
-0.237501
0.000561203
2.10462e-05
-0.1337
-0.26263
-0.000296376
-0.24836
0.00244967
-0.256234
-0.235872
-0.0801445
-0.255536
-0.12478
-0.248478
-0.0331369
-5.67173e-05
0.00210969
-0.25139
-0.241558
0.00152091
0.000674165
-0.245568
-3.41881e-05
-0.237056
-0.251253
-0.262465
-0.251321
0.000293499
-0.000443156
-0.232543
-5.9895e-05
-0.261278
-0.0106035
-0.00747503
0.00137863
-0.251859
-0.262705
-0.233941
-0.250389
0.000354129
-0.254576
-0.241998
0.000889567
-0.0114093
-0.000399865
-0.250798
0.00213424
-0.278046
-0.193185
-0.257272
0.00047025
-0.246754
-0.0106743
0.000473947
-0.26342
-0.258728
1.15365e-05
-0.252211
-0.251503
-0.252309
-0.240276
-0.264659
-0.251503
-0.252216
0.000346292
-0.263642
-0.000390443
0.000269858
-0.26053
-0.262564
-0.244702
-0.263315
-0.249338
-0.000310767
-0.248264
-0.266996
-0.242991
-0.000862746
-0.271265
-0.241257
-0.220172
-0.000160238
0.00357403
-0.254258
-0.264678
-0.263411
-0.0358976
-0.252395
0.000123574
-0.270177
-0.253009
-0.262246
0.00102944
-0.250494
0.000280533
-0.252285
-0.196399
-0.26324
0.00122896
-0.248644
-0.0123213
-0.247151
3.61771e-05
-0.259958
-0.2492
-0.250806
-9.79842e-05
0.000987516
-0.252435
-0.253962
-0.262338
-0.015608
0.000775188
0.000487194
-0.282153
0.00031568
-0.251823
-0.252831
-0.246284
-0.247483
-0.263156
-0.268816
-0.249108
-0.236629
0.00229824
0.000846901
-0.00118869
-0.250726
-0.253611
-0.259575
0.00255147
-0.0932365
-0.00864323
-0.264761
-2.82448e-05
-0.260407
-0.000902437
-0.262086
0.000371298
0.00130756
-0.250661
-0.27161
0.000110405
-0.000506222
-0.249496
-0.252624
-0.249871
0.00119359
-0.256902
-0.247938
0.000692183
-0.179821
-0.000453641
7.9754e-05
0.000597985
0.000755387
-0.251842
-0.00158771
-0.252135
-0.230722
0.00186518
-0.267494
-0.270734
-0.240696
-0.25827
-0.00666119
0.00013728
-0.00422715
0.000273879
-0.253038
-0.237598
-0.250347
-0.255344
-0.223225
-0.246238
-0.000185756
-0.268842
-0.267863
-0.262579
-0.250878
0.00109124
-0.234421
-0.262783
-0.121502
-0.253708
-0.231409
-0.00851273
0.000683078
-0.122023
-0.26413
0.00065953
0.000330147
-0.252951
-0.261806
-0.158135
-0.272595
-0.245272
-0.260604
-0.260339
-0.000504607
0.000172978
-0.262275
0.00046338
0.000492284
0.000342562
0.000866919
-0.000101526
-0.264423
-0.260501
-0.249159
-0.268409
-0.269698
-0.262627
-0.241895
-0.263945
0.00102339
-0.219802
0.00125922
-0.255066
-0.254541
0.00162225
-0.275639
0.000795157
-0.00070344
-0.260849
-0.220793
-0.0577523
-0.250623
-0.00257409
-0.193993
-0.252504
-0.270577
-0.209255
0.00147776
-0.000136946
0.000280724
-0.238587
-3.04376e-05
-0.255387
0.0017346
-0.000451319
-0.240593
-0.26239
-0.265915
-0.123654
-0.000896056
-0.246366
-0.000550049
-0.00436572
-0.195374
-0.222367
-0.246012
-0.0163062
-0.00152797
-0.244255
-8.86524e-05
0.000349686
-0.249003
-0.261763
-0.000357917
-0.262428
-0.251779
-0.211429
-0.258838
-0.176919
-0.000776067
-0.255232
-0.000162753
0.000477547
-0.23348
-0.260615
-0.261409
-0.186683
-0.256685
-0.25526
-0.00878111
-0.000627266
1.59899e-05
-0.261613
-0.246152
-0.262417
-0.254638
-0.243674
0.0013103
0.000360521
-0.230227
-0.255256
-0.254523
0.00675828
-0.247225
-0.000121728
0.00045914
-0.264835
-0.000901102
-0.248175
-0.253314
-0.264693
-0.177378
-0.259508
-0.261091
-0.269413
-0.0937115
-0.189804
0.000121464
-0.000643871
-0.00104513
-0.263553
-0.148562
-0.254094
-0.259017
0.00325402
-0.178696
-0.179265
-0.0118378
-0.177675
-0.0183505
0.00369273
-0.000204215
0.00101226
-0.00156116
0.000362066
-0.260797
-0.00108117
-0.255201
-0.206441
0.00149734
-0.26122
-3.73252e-05
0.00222757
-0.251167
-0.252878
-0.205686
-0.000360876
0.00289905
-0.271603
-0.268751
-0.000954366
-0.264693
-2.34481e-05
-0.00044347
-0.244168
-0.000750449
0.000906777
-0.0511281
-0.125251
-0.26277
-0.249645
-0.251248
-0.147779
-3.45494e-05
0.000306726
-0.0123774
-0.249602
-0.263938
0.00200449
0.000877816
0.000871799
-0.249584
-0.00144404
-0.199773
-0.250551
-0.153381
-0.00770456
-0.25554
-0.000747923
-0.000737377
0.00340005
0.000585294
0.000346666
-0.252872
-0.000260085
-0.121592
-0.247405
-0.257509
-0.0467859
-0.249098
-0.135031
-0.241198
-0.00768891
-0.193496
-0.123748
-0.202293
-0.123129
-0.263676
-0.122512
-0.0670902
-0.103463
0.000394912
-0.000789933
-0.12592
-0.259452
-0.158729
-0.00310247
-0.150098
-0.00120874
-0.0041056
0.0008177
-0.00136583
-0.0545906
0.000616335
0.000824653
-0.212134
-0.000315478
0.000347799
-0.254805
-0.113906
-0.0598678
-0.000445554
-0.00807408
-0.184285
-0.00251999
0.00164022
-0.00055912
-0.116015
-0.0373654
-0.144872
6.68657e-06
-0.0421269
-0.255313
0.000456593
0.000571
-0.0733534
-0.256099
-0.264103
-0.266907
-0.262022
-0.0436976
-0.262207
-0.0150902
-0.00391471
-0.00121066
-0.000511845
-0.146667
-0.000553257
-0.00137923
-0.00115125
-0.115473
-0.237494
-0.0287186
-0.0443362
-0.00306888
-0.011555
-0.00738064
-0.00370321
-0.0447677
-0.00138773
-0.0619775
-0.0129001
-0.00030608
-0.0191243
0.000877482
0.00304963
0.000346493
0.000289366
-0.0436902
0.000413841
0.00149004
-0.037159
-0.0378753
0.00185955
0.000496694
-0.00505509
-0.0092228
-0.0143946
-0.0223646
-0.0381313
-0.00187728
-0.0547973
-0.00127743
-0.0187185
0.000350308
-0.00966864
0.000472682
0.000598592
-3.6251e-05
-4.76381e-05
0.00114303
0.000670262
-0.00121956
7.17496e-05
-0.235278
0.00184932
0.000636376
0.00027731
0.000872023
0.000235683
-0.00713103
0.00162734
-0.00930907
-0.0155857
-0.000710612
0.00201882
-0.000306535
0.000525452
-0.0264915
-0.0113126
-0.081246
0.00211244
-0.00719926
0.000843134
0.000713541
0.000863996
0.000244191
-0.0316392
0.00196708
-0.107381
0.00163495
-0.00020094
-0.000650623
-0.000887196
0.00125361
8.69648e-05
-0.260949
0.00118802
-0.00112523
-0.0675603
0.000934914
0.000899228
0.00103168
-0.235823
-0.00354666
-0.000207514
-0.0408828
0.00147716
-0.261168
-0.0213666
-0.0145791
-0.0285949
-0.0184512
-0.0522834
-0.00431146
-0.00198487
-0.00522562
-0.0142324
-2.80968e-05
-0.00789884
0.00124232
-0.161475
-0.000430962
0.000670253
-0.0384574
-0.0234904
-0.0306398
-0.252525
-0.00859586
-0.00315054
-0.104336
-0.0133629
0.00158064
0.000763024
-5.24733e-05
-0.245418
0.0023958
-0.0071075
0.00194649
-3.42403e-05
0.00138807
0.0026343
0.00101265
0.00109884
-0.000282924
0.000232085
0.00104187
0.00158057
0.00117661
-0.183801
0.0011772
0.00138386
0.00196249
0.00282566
0.000565082
-0.0600468
-0.00286376
-0.0146067
-0.00138581
0.00339498
0.0016946
0.00050633
0.0043155
-0.128144
-0.027725
-0.0258288
0.000780193
0.000509431
-0.00334427
-0.265184
-0.00856048
-0.0055165
-0.0154776
-0.00048972
-0.00112233
-0.0260148
-0.00177728
-0.001967
-0.000309951
-0.00383855
-0.00116489
-0.000306985
-0.00082594
-0.00110447
-0.000214165
-0.00151889
-0.00476897
-0.000921939
-0.00157667
-0.0410504
0.00132754
-0.00149691
-0.256394
-0.0440579
0.000420379
-3.20129e-05
0.000720104
-0.0244322
-0.0128865
-0.0159915
-0.00779019
0.000361712
-0.00876035
-0.0053546
-0.00886454
-0.0310953
-1.71952e-05
0.00193951
-0.000391439
-0.00107714
-0.00666803
0.000347295
-0.247019
0.000524049
-0.0272467
0.00337387
-0.0642943
0.000835692
-0.00106918
-0.0216303
-0.00815453
-0.0877387
-0.0585746
-0.01037
-0.105908
-0.00164071
-0.00331717
0.000150829
-1.53694e-05
-0.00041074
-0.000118049
-0.000599324
0.000968498
-0.000782175
-0.0247241
0.000863719
-0.0239601
-0.0310507
-0.0182233
-0.0116729
-0.0967337
-0.00933922
-0.000414063
-0.0243493
-0.000169204
-0.0651393
-0.00370981
-0.000439076
-0.115239
-0.00381465
-0.000442742
-0.00819856
0.000997443
0.000697767
-0.232587
-0.00103429
0.000879274
-0.00178683
0.000750468
0.00115969
0.000554895
-0.00826216
-0.268733
0.000549423
-0.000101831
-0.00397244
-0.00678844
-0.110418
-0.013321
0.00163064
-0.0138734
0.000179702
0.00328093
-0.257227
-0.272554
0.00114605
-0.00010642
0.00321054
-0.222961
0.000324762
-0.250769
0.00195549
-9.74063e-05
-0.0030893
-0.00206055
0.000889874
0.000795289
0.00120931
-0.100455
0.000506745
-0.139585
-0.0107589
-0.0413967
-0.000220256
-0.0102518
-0.00128376
-0.00617849
-0.00202312
-0.000622637
-0.0199103
0.000415763
-0.0115411
-0.017138
-0.0257133
0.00331507
-0.0101951
-0.0140063
8.77847e-05
-0.031026
-0.0174992
-0.00772265
-0.0392345
0.000414405
0.00136742
0.00082046
0.00138473
0.00147629
0.000384696
-0.00971174
0.000350316
0.00101078
-0.00624647
-0.00545638
-0.00598058
-8.42224e-05
-0.211197
0.00136505
0.000110015
0.0014852
0.00099196
-0.00106506
-0.0020941
-0.0122576
-0.0974268
-0.134619
0.000270539
-0.00170814
-0.0206304
-0.0401535
0.00175915
-0.0456093
-0.00130014
-0.00323604
-0.00957437
-0.0407076
-0.0011983
-0.0125379
-0.0270092
-0.0134099
-0.0317492
-0.0235542
-0.0292799
0.00155223
0.00153117
0.00211005
0.00115396
-0.00744438
-0.0133094
0.000215716
-0.281179
0.000690775
-0.256236
0.000246771
0.000532258
-0.269496
0.00103114
-0.00131552
0.000104544
-0.000238932
-0.00194512
0.000849218
0.00154807
0.00123087
-0.0448667
-0.263772
0.000826323
-0.00121645
-0.00480299
-0.179491
-0.204062
-0.127479
-0.0168779
0.00068629
-0.00157724
0.00254738
0.000481315
-0.000437714
0.00279526
-0.134935
-0.0937872
-0.0379997
-0.0850345
-0.0565688
-0.103658
-0.124373
-0.0387609
0.00146227
-0.0722118
-0.0211547
-0.029307
-0.0276317
-0.00979697
-0.0163073
0.000629734
-0.0118255
0.00205603
-0.00720649
-0.00120711
0.000182193
0.00113521
0.0001657
0.00124442
0.000469876
5.80517e-05
-0.00268735
-0.165598
-0.0611305
0.000820955
-0.0907027
0.00073082
-0.00221582
0.00375069
0.000346277
0.000541945
0.00292639
-8.13025e-05
0.00180345
-0.00315394
-0.000514569
-0.118668
-0.00153301
0.00124754
-0.0821159
-0.000603324
-0.000731234
-0.00373947
-0.0492447
-0.00143965
-0.259049
-0.254628
0.00051663
-0.00888137
-0.0120234
-0.0219483
0.000253602
0.00153636
-0.0130183
-0.00523291
-0.00904085
-0.00542414
-0.00220454
0.000807855
-0.275538
0.000629245
-0.0347097
0.00104261
0.000974994
-0.0536413
-0.000365028
-3.95766e-06
-0.263558
0.00140757
-2.57807e-06
-0.000104086
0.00152181
0.00208192
0.000952644
0.00126177
0.00122584
-0.0711171
0.00204847
0.00184704
-0.191705
0.000566577
0.00177454
0.0016954
-0.216062
0.000279529
0.000350503
-0.0851732
0.000310392
-0.00156488
0.00122576
-0.000348013
-0.000237914
-0.261112
-0.00107808
0.00188939
-0.00918384
-0.0210928
-0.092369
-0.0144077
-0.00568116
-0.000542273
0.00127813
0.00109788
-0.00167402
0.00139696
-0.0598736
0.00118749
0.00090003
-0.000418476
-0.000367097
0.000797353
-0.246872
-0.259597
0.00129926
-0.000400047
0.000217838
-0.170472
0.000565579
-0.00070644
-0.0168642
0.000666943
-0.251239
0.000687137
0.00213941
0.000584412
-0.00153899
-0.0002477
-0.00279282
-0.0119986
7.86933e-05
-0.0273391
-0.00201855
0.000990969
-0.00371917
0.00238864
-0.0020529
-0.0108472
-0.00470963
-0.011662
0.000709972
0.00140639
-0.000306064
-0.0025217
-0.00234619
0.00175063
-0.00414301
-0.00332881
-0.0400397
-0.000464639
-0.000680398
-0.0630341
0.00012162
-0.00255942
-0.0946703
2.95718e-05
-0.00198253
-0.135129
-0.00129099
-0.00050723
-0.112056
-0.0574508
-0.176377
-0.000992392
0.00398669
-0.0644302
-0.000351634
0.000560736
-0.112296
-0.0299536
-0.0516023
0.000716008
-0.0775831
0.000588895
-0.00222991
-0.0487208
-0.0165549
-0.000331534
-0.0141844
-0.0747944
-0.279366
-0.000140891
0.000346238
0.000310812
0.000728755
0.00162403
0.00189909
0.00173074
-0.247491
0.00044214
-0.00140466
-0.0523807
-9.08637e-05
-0.0258446
3.4669e-07
-0.15875
-0.000261403
-0.00125107
-0.180809
-0.000742335
0.00260665
0.000239159
-0.00196015
-0.262738
0.000940092
-0.104206
-0.00329726
-0.0259109
-0.259857
-0.252895
-0.0563822
0.00142405
0.000523039
-0.186463
0.00186663
0.00330225
0.000215448
-0.128456
0.000962464
0.00064431
-0.000387339
-0.110544
-0.00146278
0.00103631
-0.000788334
-0.00175578
-0.26715
-0.00364515
-0.00475077
-0.0966603
0.000204154
-0.26171
0.000230631
-0.256849
0.00119716
-0.112697
-0.000913229
0.00153472
0.000698359
-0.000233666
-0.00408548
-0.00436153
-0.0101893
-0.0255189
0.000397006
0.000970299
0.00100176
-0.0246488
-0.0223118
-0.000238757
0.000513621
0.000692849
-0.000890616
-0.00517004
-0.00531261
0.00283944
-0.00829465
-0.00667259
-0.0896287
-0.00113664
-0.172356
-0.00155426
-0.00393601
0.0015456
0.00215279
-0.254923
-0.06622
-0.0341892
-0.000238441
-0.0482426
7.33595e-05
0.00107285
-0.0708213
0.00066306
-0.227031
-0.262236
-0.0981473
-0.00485031
-0.000110589
-0.263823
-0.00305141
-0.00804293
-0.00182159
-0.0581966
-0.198998
-0.0017102
0.000964137
-0.250925
-0.250869
4.71985e-05
-0.0853923
-0.101891
0.00072784
-0.260657
0.000927431
-0.115689
0.00047819
-0.0711306
-0.000335852
-0.0572639
-0.204079
0.000868849
-0.255446
-0.104616
0.000465887
-0.262603
0.00120698
-0.052706
-0.0971432
-0.254962
-0.000270968
-0.0305932
-0.178495
0.00237282
-0.0896666
0.000822047
0.00213603
0.00316425
-0.00527804
-0.0766023
-0.000339112
0.000475538
-0.138988
-0.00355126
0.00108521
0.00179604
9.42499e-05
0.000855906
0.00158249
-0.0774959
-0.217433
-0.0809563
0.000959049
-0.00476462
0.000597124
-0.000445286
-0.00408729
0.000185262
-0.258537
-0.000848806
-0.086653
-0.258229
-0.000347521
0.000512826
-0.0102239
-0.0297664
-0.0945332
-0.18106
-0.0102684
0.00133394
-0.00432508
-0.001451
0.00105312
0.000847136
-1.50131e-05
0.000253042
0.000759733
-0.0924374
-0.261253
0.000242175
-7.32696e-05
0.00202651
-0.2138
0.000743478
-0.00529577
-0.00147603
0.00117278
0.00188773
-0.00318411
-0.0250079
-0.0257513
-0.00196664
0.000242685
-0.00528164
-0.24342
-0.254255
-0.000259312
0.00743405
-0.0242445
-0.000585455
0.000222618
0.000119416
0.000317912
-0.0048578
-0.0031691
-0.261665
-0.00048597
-0.24553
0.000657223
0.00139691
-0.193554
-0.00414121
-0.0879969
-0.0029026
-0.0100553
-0.015645
-0.00658959
-0.00286724
-0.0714486
0.00251699
0.000987688
0.0013699
-0.0018404
-0.253047
-0.00464179
-0.00101057
-0.00460858
-0.0564779
-0.253448
-0.0110788
0.00178932
-0.215604
0.000854858
-0.000161449
-0.0295895
-0.203398
-0.260227
-0.263553
-0.00240367
0.000379469
-0.0226838
-0.000310113
-0.214924
-0.0644796
0.0015464
-0.00865729
-0.145175
0.000174289
-0.216344
-0.00919811
-0.040084
-0.00308547
-0.131892
-0.0811583
0.000904797
0.00104379
-0.261097
0.00279497
-0.000421003
-0.09489
0.00156093
-0.00870663
-0.09416
-0.0447725
-0.256474
0.000176895
-1.57477e-05
0.00188418
-0.259815
0.000958314
-0.00181355
-0.00210422
-0.258449
0.000945948
-0.00112045
-0.0012511
-0.259905
-0.0478874
0.000409084
-0.0051024
0.000253458
0.000875172
0.00255298
-0.236364
-0.0191899
8.63252e-05
0.00121608
-0.155846
-0.0417834
-0.000872157
-0.0149331
0.000317794
0.000903314
-0.258328
0.00238438
-0.0292677
0.000426582
-0.0168286
-0.256752
-0.260471
-0.257141
-0.233895
-0.20911
0.000217912
-0.0891198
0.00140648
-0.000213326
0.00132074
-0.206081
0.0010818
-0.24503
-0.265625
0.00110714
0.000633544
-0.243996
-0.26341
-0.0784068
-0.234757
-0.10191
-0.205115
0.000379213
-0.0977956
-0.268135
0.00134065
-0.245741
0.000671758
0.00047288
-0.174919
-0.265424
-0.260523
-0.189235
-0.155922
-0.000449398
-0.270005
0.00057848
-0.108865
0.000632459
-0.216474
-0.0727901
-0.00188833
-0.165203
0.000488769
-0.000630737
-0.00037029
-0.268481
-0.245984
-0.256576
-0.258887
0.000454774
-0.151356
0.000898845
0.00301528
-0.000344923
-0.044129
-0.260198
0.000906014
-0.00199718
-0.186668
-0.243922
-0.00972435
0.000477963
-0.252873
0.0012822
0.00100905
0.000253719
-0.000239828
0.00104613
-2.67029e-05
0.00146088
-0.244259
0.000971288
0.00216178
0.000103936
-0.0357069
-0.25361
-0.096337
0.000144795
-0.255583
-0.0676289
-0.0506542
0.000265761
-0.264725
-0.00521689
-0.269476
-0.25698
-0.257854
0.00305346
0.000968266
-0.193004
-0.161822
-0.000440413
0.000496836
-0.151189
-0.172982
-0.214383
-0.0128617
-0.266281
0.00362971
-0.254229
-0.00193801
-0.255167
0.000899046
0.00131422
-0.00300105
0.00130922
-0.261217
-0.00147436
-0.25256
-0.256255
-0.00680504
-0.0168071
-0.10483
-0.266404
-0.159133
0.000469221
-0.0714793
-0.0674906
-0.192062
-0.000555689
-0.252841
-0.135906
-0.25205
-0.258457
5.85616e-05
0.000543159
-0.0494915
-0.251964
-0.00639872
-0.173877
0.00185911
0.00180268
0.00111381
-0.000896873
-0.262945
0.000428329
0.000438616
-0.214412
-0.0322408
-0.206733
-0.180035
-0.264471
-0.253249
-0.173628
-0.24081
-0.248159
-0.0777845
-0.0106752
-0.264689
-0.000394496
-0.250891
0.000934656
-0.261967
-0.26452
0.00130259
-0.000758602
-0.000913305
0.0022062
0.000382273
-0.000166306
-0.00350635
-0.00021932
-0.165105
-0.136654
0.000600956
-0.0739329
-0.0479757
-0.246312
-0.263848
-0.253081
-0.255682
-0.257019
-0.193744
-0.267454
-0.0222854
0.000109141
-0.264599
-5.56134e-05
-0.244657
-0.0771192
-0.00543505
-0.260772
-0.057627
-0.000815541
-0.254153
0.00054646
-0.222998
-0.120423
-0.0260945
-0.24262
0.00300742
-0.149938
-0.00249894
0.000964297
-0.209191
-0.27884
-0.00174791
-0.00301088
-0.00268008
-0.00721587
0.00135535
-0.250083
-0.00378081
-0.00180624
-0.191387
0.00023256
-0.259817
-0.0245874
0.00217693
-0.0406375
-0.256094
-0.262849
-0.259331
-0.260542
-0.236098
0.000485371
-0.241146
2.68968e-05
0.000282957
-0.25088
0.000304487
-0.256408
-0.205524
-0.217344
-0.257855
-0.00712478
-0.24272
0.00136485
0.00126746
0.000207452
-0.00429026
-0.253361
0.00124415
0.000914344
-0.0043623
-0.248278
0.00017107
-0.240973
-0.255959
-0.00159461
-0.265166
-0.258231
-0.20369
0.000555466
-0.256965
-0.00134623
-0.000110074
0.00158676
-0.259718
0.00134306
0.00185131
0.000880446
-0.102286
-0.000171849
-0.252276
0.0010076
-0.000759363
-0.0165366
0.000294108
-0.214489
-0.000513898
-0.0007168
-0.161109
0.000741313
8.61818e-06
0.00047334
-0.260552
-0.0284131
0.00106776
-0.268489
-0.197948
-0.202046
0.000989876
-0.000723935
-0.249361
-0.199013
-0.241904
-0.179731
-0.246925
-0.243489
0.00324417
-0.251342
-0.224289
-0.000586046
-0.257077
0.000123967
-0.262515
-0.261996
-0.260264
-0.0359737
-0.225195
-0.27977
-0.00083274
0.000388466
0.000500938
-0.247932
-0.25159
-0.245052
-0.270751
-0.221248
-0.00704592
0.00107617
-0.216705
-0.261796
-0.252411
-0.00889747
-0.145212
0.000471443
-0.254409
-0.266814
-0.257865
-0.260271
-0.260118
-0.253681
0.000321325
-0.245646
-0.254715
-0.273905
-0.23402
-0.257354
-0.0149688
-0.253227
-0.261642
-0.00099943
-0.244627
-0.238644
0.00251532
-0.251864
-0.00842709
-0.274864
-0.248017
-0.194573
-0.204453
-0.251334
-0.0156523
-0.201758
-0.253283
0.000663893
-0.222696
-0.00035724
-0.000299045
-0.0761817
0.0022461
-0.000535545
-0.067761
0.000605317
0.000801657
0.000237336
-0.000565593
-0.211193
0.00137836
-0.0936634
-0.273189
-0.259648
6.85297e-05
-0.0172624
-0.000727391
-0.247679
-0.000396859
-0.254593
-0.233354
-0.023574
-0.243198
-0.25744
-0.247337
-0.0655346
-0.0020041
-0.232729
-0.233327
-0.260106
0.000516994
0.00034928
-2.3587e-05
-0.0153198
-0.211526
-0.000442238
-0.000133357
-0.000182015
-0.26088
0.000337259
-0.023115
-0.00730867
-0.00288168
-0.261286
-0.00743558
-0.00213205
0.000358864
-0.218421
-0.000278077
-0.249691
0.000492393
-0.0118442
0.00107847
-0.0338693
-0.260908
-0.262955
-0.253599
-0.272068
-0.0195901
-0.0233819
-0.243673
-0.00016868
-0.261576
-0.00546769
-0.000549997
-0.000131852
-0.148416
-0.238662
0.000466884
-0.161372
-0.274145
-0.254606
-0.257926
-0.226102
-0.00235287
-0.260531
-0.263773
0.000658463
-0.0529796
-0.234182
-0.160398
0.000123246
-0.254385
-7.1803e-05
-0.226366
-0.158881
-0.246064
0.000310144
-0.00395912
-0.244994
-0.00109621
-0.0451001
0.00364892
-0.22033
0.000555102
-0.25437
-0.000301809
-0.244174
0.0023365
0.0015523
0.00051896
-0.00941101
-0.233603
-0.249995
-0.00179384
0.000158582
-0.000255916
-0.000151787
-0.024432
-0.000836183
-0.24054
-0.266512
-0.243412
0.0003794
-0.00110994
-0.255825
-0.248647
-0.240532
-0.264911
-0.235226
0.00038171
-0.229811
-0.234592
-7.39126e-05
-0.238865
-0.0351839
-0.0615479
0.00128831
-0.22583
-0.000452476
-0.253322
0.000569789
-0.260443
-0.25113
-0.00151517
-0.243068
0.000876038
-0.261819
-0.215309
-0.00430424
-0.000310495
-0.24448
-0.260207
-0.00257713
-0.274636
-0.19824
-0.0015993
-0.263356
0.00069905
-0.262146
0.00143861
-0.00218521
-0.00444394
-0.232595
0.000158766
-0.255711
-0.0311427
0.000667932
-0.000767439
0.000943134
0.000424418
-0.000505424
-0.261482
-0.143641
-0.0139538
-0.130163
-0.0133581
0.000466409
0.000518852
0.00233578
-0.232957
-0.132456
0.000503984
-0.00877359
-0.022101
0.000447276
-0.258066
-0.0677003
0.00090638
-0.00316816
-0.253942
0.000233705
0.000311047
-0.257948
-0.228259
-0.00103888
0.000960424
-0.258951
-0.240243
-0.264373
-0.00014828
-0.00183885
-0.261964
-0.00128432
-0.000263696
-0.00125628
-0.204813
-0.190447
-0.253757
0.000917496
-0.235628
-0.244121
-0.252282
-0.242736
0.00106257
-0.080094
0.00309397
-0.261207
0.000744357
-0.000982915
-0.032034
-0.0669111
-0.00400037
-0.0208776
0.000529564
0.000338576
-0.00196886
-0.255443
-0.00413351
-0.241023
-0.271997
-0.179056
-0.000441122
-0.231785
-0.139506
-0.259747
-0.253936
-0.00834867
-0.0807745
0.00246447
-0.0700413
-0.219543
0.00115921
-0.258776
0.000531709
-0.00205927
0.00426883
0.000290813
-0.253478
-0.00050671
0.000802884
-0.250659
-0.25195
-0.0018326
-0.252878
-0.245288
-0.247238
-0.24969
-0.276163
-0.260083
0.000580285
-0.222139
-0.073834
0.00066612
-0.00661987
0.00131011
0.00104096
-1.71646e-05
-0.195926
-0.261005
-0.236093
0.00139622
-0.261246
0.00140349
0.00213186
0.000594454
-0.234277
-0.276681
-0.00795935
0.000465759
-0.258197
-0.25968
-0.271523
-0.241247
-0.148019
-0.206015
-0.00168105
0.00200204
0.00228782
-0.00138675
-0.253258
-0.000823274
-0.109354
-0.20197
-0.276472
-0.238024
0.000313267
0.000838228
-0.231373
-0.254115
-0.257659
-0.0258481
-0.0697476
-0.263259
-0.255974
-0.239599
-0.262415
-0.234529
-0.263151
-2.09076e-05
-0.00424396
-0.0040267
-0.261398
0.000103207
-0.00111776
7.97158e-06
-0.190823
-0.0603194
-0.245778
-0.258477
-0.250981
-0.000653413
-0.209355
-0.228118
-0.27329
-0.00131616
-0.256623
-0.210786
-0.269454
-0.000254889
-0.212771
-0.244699
-0.27418
0.000691903
-0.0723246
-0.00546381
9.69584e-05
0.00124266
-0.266052
-0.0206205
-0.252769
-0.247686
-0.2697
0.00043255
-0.254664
0.000235188
-0.255154
-0.0115028
-0.183011
-0.000292083
0.000207995
-0.235542
-0.261894
0.00221682
-0.232495
-0.136131
-0.0185439
-0.00198401
0.00175215
-0.253768
-0.278056
-0.000485209
0.000513542
-0.000641747
-0.147427
0.000404429
-8.16775e-05
-0.0293193
-0.00943632
-0.247933
-0.0016485
-0.267942
9.58e-05
-0.270709
-0.255004
-0.125207
-0.236606
-0.26381
0.000199663
1.79924e-06
0.00153706
0.000691981
-0.278795
0.00104913
0.0018899
-0.23281
-0.262267
-0.251808
-0.165255
-0.273701
-0.00224019
0.00135312
0.00135809
-0.26041
-0.260142
-0.000360699
-0.25485
0.000122901
-0.246284
-0.244365
-0.268794
0.000820492
-0.235256
-0.00173241
0.000266252
-0.269275
-0.26291
-0.00109246
5.23679e-05
-0.257561
-0.248979
0.00137806
-0.00159743
-0.24096
-0.259148
0.000612507
0.000586168
-0.262251
0.000869991
-0.220569
0.000499951
-0.260315
-0.242823
0.000362689
-0.233379
-0.255904
-0.0741619
-0.239677
-0.238644
-0.183648
-0.23438
-0.0348703
-0.00136725
-0.0036367
4.15943e-05
0.000210091
-0.254721
-0.00398204
-0.258892
-0.240225
-0.000109331
0.000934441
0.000133171
0.00069411
0.0010055
-0.00173094
-0.00254518
-0.00134498
0.00119764
-0.00307074
0.00235152
-0.00284328
0.00375989
-0.000775813
-0.038998
-0.0783904
-0.249367
-0.262361
-0.256166
-0.256449
-0.00202066
-0.266858
-2.14798e-05
-0.270042
-0.00207056
-0.0213439
-0.227083
-0.251567
-0.0013756
0.000747562
0.0022525
-0.276917
-0.0746083
-0.255029
0.000534569
0.000139869
0.00231804
-0.190427
-0.255239
-0.0492844
-0.00266653
0.000855671
-0.00161988
-0.0021067
-0.13026
-0.0515192
-0.00268435
0.000566891
0.000562406
-0.00109624
-0.179629
-0.25128
-0.265623
-0.0727919
-0.265284
-0.179955
-0.261567
-0.0957594
-0.246448
-0.249508
-0.265976
-0.00135362
-0.256575
-0.207446
-0.25697
-0.267773
-0.240463
-0.00194343
-0.258096
-0.00172804
-0.266534
-0.240924
-0.260129
-0.00200834
-0.0154003
-0.231312
-0.255427
5.62133e-05
-0.263166
-0.25189
0.00132842
0.00218354
0.00101682
-0.000728278
-0.00364853
0.000410386
0.00066775
-0.251016
0.000373389
-0.223563
-0.23441
-0.259923
0.000147613
-0.2469
-0.242005
-0.275528
-0.00962609
-0.252022
0.000340243
-0.256512
-0.184404
-0.241914
-0.000714143
-0.00192289
-0.0022801
-0.264922
-0.255837
-0.0400062
0.00126564
-0.261395
-0.176928
0.000124911
-0.00152383
-0.00979097
-0.254412
-0.000686535
-0.000456187
-0.256145
-0.252815
0.00154814
-0.253236
-0.197422
-0.254193
-0.0186988
-0.2736
-0.255669
-0.00155782
-0.0492149
-0.260186
-0.250901
-0.00252176
-0.271352
-0.235261
-0.256041
-0.257078
-0.2566
-0.230829
-0.000239781
-0.259287
-0.000281519
-0.00071569
0.00189867
-0.0591839
-3.1836e-05
-0.270211
-0.240255
-0.260897
-0.155894
-0.000309278
-0.241068
0.000407117
-0.0236891
-0.273399
-0.243727
0.000235087
-0.000163415
-0.234025
-0.00130523
-0.250971
0.000822524
-0.256861
0.000881245
-0.259019
-0.00239457
-0.254342
-0.020371
-0.0478421
-0.247936
-0.273428
-0.244847
-1.9003e-05
-0.271003
-0.136549
-0.255747
-0.227525
-0.037193
-0.0968782
-0.0623964
0.000435972
-0.184795
-0.214385
-0.0182447
-0.227592
-0.251029
-0.00245961
-0.253372
-0.00184238
-0.22772
0.00067671
0.000300431
8.5066e-05
-0.0502523
-0.260281
-0.260796
-0.0165669
-0.103238
-0.000964982
-0.000149832
-0.00244341
-0.00059687
0.000178737
0.000435818
0.000944683
-0.000962931
0.00170086
-0.239016
-0.237597
-0.00310143
-0.0044184
-0.235177
-0.260247
-0.0556546
0.00206088
-0.00185532
-0.26274
-0.0408792
0.00100909
0.000344696
-0.264679
-0.031743
-0.00143024
-0.00123041
-0.0679478
-0.263524
-0.243193
-0.0547258
-0.270765
-0.263593
0.000776028
-0.229435
-0.258898
0.000507744
-0.249855
-0.00755879
0.000461105
-0.000615106
-0.265986
-0.0018155
-0.242056
-0.209126
4.76696e-05
-0.0332723
-0.270804
-0.000338529
-0.254381
0.000572497
-0.225764
-0.239388
0.000694125
-0.255358
-0.244339
0.000386799
-0.000524388
-0.252948
0.000431889
-0.2434
-0.267325
-0.260158
-0.0102899
-0.00539666
-0.00199903
-0.257602
-0.000310398
0.00254587
-0.00143191
-0.0578465
0.00079222
0.000193484
-0.00617322
8.62508e-05
-0.235664
-0.258888
-0.0299066
-0.00014126
-0.23948
0.00208084
-0.000968217
-0.0068562
-0.235279
0.00104081
0.000146511
-0.255561
0.00245399
0.00149903
-0.000546527
-0.216718
0.000625631
-0.13889
-0.260369
0.00135791
-0.260411
-0.0276317
0.00056291
-0.258137
-0.24764
-0.266459
0.00100963
-0.100943
-0.00331398
-0.269404
-0.249158
-0.000576777
-0.0812784
-4.25156e-05
-0.260246
0.000557324
1.03416e-05
-0.000751358
0.00182324
-0.00154305
-8.50928e-05
-0.244202
-0.00530547
0.000548449
-0.000608835
-0.000210795
-0.259115
-0.241218
-0.281194
-0.0115294
0.000355974
-0.254176
0.00285063
-0.000262369
-0.00017981
0.000301786
0.000924454
-0.0461946
-4.74197e-05
-0.000120832
-0.112445
-0.259615
-0.263684
-0.281142
-0.229658
-0.00153836
-0.245694
-0.262308
-0.0710532
-0.242409
-0.27558
-0.243597
-0.159984
-0.00313739
-0.252588
-0.000771618
-0.249602
-0.000584631
-0.160808
0.00189869
-0.00101546
-0.249443
-0.223274
-0.23841
-0.000462827
-0.0349719
-0.0389314
-0.0453858
-9.6481e-06
0.00054189
-0.0202619
-0.258826
-0.0109453
-0.256301
-0.0250962
-0.00173325
-0.256126
-0.00133724
-0.00212328
-0.03655
-0.000694868
-0.199709
-0.275955
0.000423125
0.00169271
-0.234085
-0.00981946
-0.234911