/*--------------------------------*- C++ -*----------------------------------*\
  =========                 |
  \\      /  F ield         | OpenFOAM: The Open Source CFD Toolbox
   \\    /   O peration     | Website:  https://openfoam.org
    \\  /    A nd           | Version:  10
     \\/     M anipulation  |
\*---------------------------------------------------------------------------*/
FoamFile
{
    format      ascii;
    class       surfaceScalarField;
    location    "1000";
    object      phi;
}
// * * * * * * * * * * * * * * * * * * * * * * * * * * * * * * * * * * * * * //

dimensions      [0 3 -1 0 0 0 0];

internalField   nonuniform List<scalar> 
38623
(
0.216907
-0.213838
0.0787381
-0.0818069
-0.059456
0.0767773
0.122731
-0.140052
-0.00693985
0.0134607
0.0331449
-0.0396658
0.0043152
-0.0023725
-0.0224586
0.0205159
0.0152193
0.0264029
-0.0332647
-0.00835748
-0.126323
-0.254256
0.238354
0.142225
0.0846913
-0.0709302
0.0821054
-0.0958665
-0.00863285
0.00853191
-0.00640908
0.00651002
0.0198804
0.0203386
-0.244142
-0.0359574
0.0793218
-0.320234
0.27687
0.110055
0.124448
-0.11124
-0.123264
-0.219813
0.194482
-0.00537709
0.0307082
0.461548
-0.0463723
-0.468307
0.0531316
-0.229804
0.20887
-0.0104424
0.0313772
0.0376572
0.0464627
-0.0520969
-0.0320231
0.0440534
-0.293385
-0.0477655
0.297097
-0.014969
0.386348
-0.000218814
-0.371161
-0.00876825
0.264693
-0.00921847
-0.246706
0.00615084
-0.0272132
0.411773
-0.390711
0.402257
-0.282536
0.239281
-0.359001
0.182709
0.138311
-0.0435793
-0.277441
0.108509
0.0805827
-0.0790363
0.317171
-0.271653
-0.00174976
-0.0437677
-0.221734
0.291864
-0.265834
0.195704
0.0429525
0.251574
-0.0438377
-0.250688
-0.0378009
0.5774
-0.550366
0.0107667
0.0306515
-0.178135
-0.0555162
0.203
0.223135
-0.178667
-0.491355
0.446886
-0.00919122
-0.000762008
0.0013949
0.00855833
-0.273473
0.292658
0.383072
-0.0149486
-0.0205942
0.0195404
0.0160025
0.00564343
-0.00154011
0.000773327
-0.00487664
0.0286285
-0.0320234
-0.0331494
0.0365443
0.292742
-0.0245849
-0.276925
-0.0102686
-0.011138
-0.236842
0.258248
-0.340839
-0.172913
0.145676
0.368076
-0.000608581
0.000143996
-0.0071912
0.00765579
0.0053521
-0.235433
-0.147596
0.166611
0.00339935
-0.0224142
-0.0566776
0.071938
0.319052
-0.334312
0.0663701
0.413137
-0.429868
-0.0496393
0.271383
0.184371
-0.25385
-0.201904
0.331399
-0.185378
0.332885
-0.478906
-0.415526
0.203386
0.336481
-0.124341
0.600277
0.241917
-0.515213
-0.326981
-0.0301477
0.0737784
-0.429674
0.386044
-0.0137481
0.0267553
-0.00123751
-0.0117697
-0.261017
0.193411
0.155332
-0.0877262
-0.000917545
0.00188229
0.000998006
-0.00196275
0.00752953
-0.000497914
-0.00767786
0.000646251
-0.00496638
-0.00134908
0.00145944
0.00485603
-0.010888
0.0288129
-0.0230816
0.0051567
-0.00187506
0.000703779
-0.00170748
0.00287877
-0.381826
-0.109247
0.294873
0.1962
-0.00101202
0.000439317
0.00621613
-0.0208718
-0.396247
0.40215
0.0395983
-0.0228801
-0.0545564
0.0378381
-0.00437241
-0.00808348
0.00852412
0.00393177
-0.141055
0.185012
0.138752
0.0019374
-0.00724466
0.00575016
-0.000442901
-0.00917948
0.00361056
-0.0031941
0.00876302
-0.341238
-0.109393
0.0351055
-0.337419
0.326223
0.0839787
-0.0727826
-0.00572212
-0.00746924
0.00879352
0.00439784
-0.247529
-0.323038
0.348832
-0.50159
0.352663
-0.229983
0.37891
-0.1683
0.144034
-0.0249315
0.0491977
-0.537214
0.423374
0.175459
-0.0616192
0.121918
0.540104
-0.061745
-0.390303
-0.0650816
0.0644934
0.390891
0.00888438
-0.00309144
-0.00896973
0.00317678
0.0144391
-0.00767644
-0.0137025
-0.050197
-0.019028
-0.516275
0.5855
0.060578
-0.061164
0.0382433
0.401947
-0.3806
-0.268876
0.041075
-0.0609161
0.0587083
-0.0388672
0.0218923
-0.181371
0.175453
-0.0159745
0.113728
0.189611
-0.194242
-0.109097
-0.0117576
0.00535002
-0.00522166
0.0116293
0.0374507
-0.0294918
0.341728
-0.349686
-0.109758
0.225002
-0.207334
0.0920899
0.0447148
-0.0560152
-0.0882002
0.0995006
0.0706639
-0.0905216
-0.0106033
0.0084689
-0.000413842
0.00254825
-0.0178255
0.0423479
-0.0249405
0.000418068
-0.235684
0.246454
-0.0219075
-0.0579646
0.091765
-0.0988115
0.0650111
-0.0014158
0.000364057
0.000306793
0.000744949
-0.289942
-0.102613
0.136633
0.255922
0.361984
-0.364771
0.040238
-0.00687015
-0.000323339
0.00656109
0.000632397
-0.423806
0.071999
0.40266
-0.0508535
0.00395127
-0.00744002
-0.00223337
-0.332967
-0.187328
0.201376
0.318919
-0.00685482
-0.00325126
0.00526186
0.00484422
-0.00740094
0.000111952
-5.83237e-05
0.00734731
0.494681
-0.112925
-0.392285
0.0105298
0.0754839
-0.103635
-0.232866
-0.280204
-0.0295293
0.0674858
0.242247
0.0073478
-0.00133332
0.00920482
0.347983
0.0639356
-0.0958309
-0.316088
-0.0384008
-0.103018
-0.0268813
-0.0579769
0.0222873
-0.124373
0.160063
-0.00672584
8.38221e-06
0.00672049
-3.03202e-06
0.00127916
0.00749926
-0.00829339
-0.000485038
4.81581e-05
0.00198149
-0.012633
0.271525
-0.107581
-0.290267
0.226126
0.417738
-0.144639
0.149604
-0.0433654
0.353867
-0.315838
-0.126998
0.0889696
-0.113526
0.154113
0.0903663
-0.130954
-0.274056
0.0795794
0.199829
0.0567058
-0.0402496
-0.0342817
-0.00521602
0.287602
-0.000762186
-0.281624
-0.13942
-0.330826
0.129407
-0.307043
-0.0536628
0.0584346
0.302271
-0.183735
0.370726
-0.554045
0.367054
0.053989
-0.283087
-0.0559827
0.285081
-0.000147294
0.000307666
-0.00935159
0.00532039
-0.00773414
-0.00421866
0.00663241
-0.119866
0.0233442
0.210249
-0.000180822
0.0057748
0.000229387
-0.00582337
-0.0420523
-0.382414
0.0402672
0.384199
-0.00547019
0.00389045
0.00686861
-0.00528887
-0.0925671
0.085076
-0.0955272
-0.0794831
-0.673008
0.552725
0.199767
-0.00893241
0.00242942
-0.00267649
0.00794071
-0.000138009
-0.000273173
-0.00118229
-0.0100508
-0.00463251
0.0158656
0.017094
-0.0106434
-0.0157941
0.00934352
0.00810431
0.00900235
-0.00678763
-0.010319
0.0288179
0.162913
-0.148173
-0.0435581
0.132233
-0.00056986
-0.0186543
-0.113008
-0.211933
0.201586
0.0567276
-0.0463802
0.4207
0.0875247
-0.196926
-0.311299
-0.0982157
0.215376
-0.175138
8.52754e-05
0.0063676
-0.00643672
-1.61575e-05
0.0421336
0.17424
0.0513889
-0.120333
-0.169329
0.238273
-0.109074
0.151088
0.0086265
-0.0086595
-0.000114295
0.166428
-0.182749
-0.256033
0.272354
-0.141729
-0.239939
0.218982
0.162686
0.0815575
0.30117
-0.112955
-0.269772
0.363235
0.0135924
-0.038339
-0.338488
0.473413
-0.193669
0.0741222
0.288147
-0.0541624
-0.283213
0.0492289
-0.0674327
0.0390032
-0.0192224
0.0476519
-0.00353511
0.00270409
0.0067299
-0.00589888
0.0238611
-0.371434
0.388495
-0.0409218
0.0465934
-0.00318169
-0.0391056
-0.00430603
0.270039
-0.119881
-0.462454
0.312296
0.069528
-0.0886318
-0.0568151
0.075919
-0.0504397
0.432891
0.146822
-0.529273
0.0347427
-0.0327408
0.0215825
-0.0235843
-0.0641919
0.0489715
0.29234
-0.27712
0.0153961
0.0803263
-0.073435
-0.274284
0.156853
0.234394
-0.116963
-0.00991943
0.0107769
-0.00622541
0.0053679
0.00229198
0.010283
-0.00844523
-0.00412972
0.0554286
0.380253
-0.382048
-0.0536333
0.0806617
0.0292751
-0.0447031
-0.0652337
0.00251839
-0.00938192
-0.0013423
0.00820582
-0.162998
0.16492
0.462275
-3.7567e-05
-0.411515
-0.0507223
0.000240389
0.366326
-0.342705
-0.189118
0.188357
-0.067169
0.0679297
-0.00622724
-0.00168521
0.00704658
0.000865862
-0.229557
0.40354
0.205996
-0.379979
0.280177
0.128428
-0.242178
-0.177394
0.031273
0.184062
-0.0379413
0.0193369
0.00488586
-0.0199076
-0.234602
-0.314019
0.225584
0.0020781
-0.00712822
-0.000420077
0.285884
-0.547371
0.337323
-0.0758363
-0.0134276
0.000231448
0.0104039
0.00279228
0.334922
0.0523404
-0.335381
-0.0518813
0.052025
0.244294
-0.0546237
-0.241695
-0.265058
-0.0291433
0.276244
0.0179572
-0.201838
0.170296
-0.127996
0.159539
0.00913866
0.00593149
-0.0121546
-0.00291553
0.0213417
-0.00475233
-0.0074507
0.075484
0.0354644
-0.0698734
-0.0968612
-0.131681
0.077115
0.151427
-0.042347
0.0910107
-0.399412
0.350748
0.420691
-0.408474
-0.0330891
-0.194528
0.0820755
-0.00462091
0.00506847
0.00802134
-0.00741474
-0.000783181
0.00562836
0.00256956
0.286479
-0.197845
-0.00268873
0.00453013
0.00690721
-0.00874862
-0.392238
0.0721874
0.0414047
0.278646
-0.301641
0.361342
-0.116379
-0.295156
0.142589
-0.180923
0.33349
-0.052102
-0.324153
0.0597945
0.316461
0.152918
-0.203761
-0.294745
0.345588
0.000368166
4.10864e-06
-0.00749047
0.00711819
-0.000533171
0.00712293
-0.00927848
0.00210295
-0.00624818
-0.000528289
0.00467351
0.161972
-0.131863
-0.143634
0.319666
-0.0245351
-0.29489
-0.261782
-0.326073
0.279178
0.308676
-0.00447113
0.00675461
-0.00581859
0.0134239
-0.123703
-0.0332014
0.14348
0.00953
-0.00708787
-0.011075
0.00276698
-0.00955678
0.00930819
-0.0299561
0.0161926
0.0228236
-0.00906009
-0.0647279
-0.196802
0.0803236
0.181207
0.193895
-0.00361302
-0.0600022
-0.13028
-0.0945025
0.233184
0.0656485
-0.20433
0.307496
-0.0378682
-0.299119
-0.00803399
-0.000740981
0.00816639
0.356014
-0.34517
-0.0531908
-0.443635
0.247241
-0.0331626
-0.00317104
-0.00119054
0.00248653
-0.00449557
0.00113165
0.00925887
-0.00589495
0.111843
-0.00955945
-0.0888595
0.0392492
-0.29893
-0.000186793
0.00725045
-0.00123132
-0.00583234
-0.0119244
-0.00958039
0.00754726
0.0139576
0.0810151
-0.0529573
-0.513954
0.485896
-0.0395489
0.0392107
-0.00698168
0.000330194
6.80335e-05
0.00658345
0.314624
-0.0756101
-0.303205
-0.0989206
0.308403
0.0182594
0.0299542
-0.0138219
-0.0343917
-0.000156061
0.00702722
-0.00736907
-0.310459
0.0711389
-0.243789
0.0635333
-0.0044736
0.18473
0.402811
0.0484694
-0.4017
-0.049581
-0.200093
0.238905
-0.281193
0.242381
-0.00241619
8.28492e-05
-0.00142075
-0.0622435
-0.210392
-0.579785
0.602124
-0.0601399
0.0499059
-0.0398622
0.0163592
0.0108509
0.000374598
-0.00676372
-0.00446173
-0.248288
-0.366914
0.0281708
-0.00852887
0.00257029
-0.0222122
0.0615267
-0.470253
0.524863
-0.116137
-0.0117072
-0.00673141
0.0113374
0.00710115
-0.00141322
0.00236681
0.000928703
-0.308125
0.044273
-0.0522415
0.316093
0.00127673
-0.0122241
0.0109955
0.0123445
-0.000291019
0.0378524
-0.00110777
-0.00613149
-0.121765
-0.320725
0.105071
-0.0870172
0.254289
0.104253
0.0376652
-0.492652
-0.0602262
-0.0112183
0.00253835
-0.000701995
0.0784779
0.0229648
-0.0207811
0.121372
0.45984
-0.429498
-0.151714
0.0763056
-0.225001
0.309737
-0.161042
-0.00499854
-0.00127507
0.00172791
0.00454571
-0.487625
0.48761
-0.0466784
0.0466934
0.100587
-0.0134043
-0.0579078
0.00469533
-0.00766133
0.00185823
0.00668821
-0.00583896
0.00440821
-0.000671819
-0.00677632
0.00303993
-0.0902771
-0.337781
0.091197
0.336861
-0.30395
-0.213831
0.000663771
0.000698298
-0.0533219
0.0826979
-0.308207
0.278831
0.000607047
-0.00858982
-0.000949642
-0.113629
0.170881
0.0326453
0.261537
-0.245211
0.0563965
-0.36267
0.378212
-0.00998428
-0.00904738
0.00560404
0.00871762
0.00550829
-0.00926398
-0.00496194
-0.0338657
0.00667926
0.00898656
0.0181999
0.00887929
0.016919
0.178666
-0.25356
-0.119348
0.00538548
0.0188363
-0.00488484
0.00039953
0.000682232
0.00272417
-0.00380594
0.0938715
-0.221114
0.292531
-0.165289
0.109503
-0.150817
-0.247002
0.0392329
0.00046417
0.0072553
-0.00737555
-0.000343927
0.0575587
-0.0840287
-0.283989
0.00664601
0.000839894
-0.000714256
-0.00677165
0.274527
-0.317347
0.086608
-0.0437876
0.00767615
-0.0150455
0.00935086
0.0835959
-0.0498598
-0.277525
7.1429e-05
-0.000435303
-0.00460251
-0.0713254
-0.331426
0.0850319
0.31772
0.236364
0.0385928
-0.235686
-0.0392703
0.00721768
0.00534814
-0.00295239
-0.00961342
0.00597917
-0.00365419
-0.00559934
0.00327436
0.0905992
-0.363646
0.551362
-0.278315
0.00824632
-0.00874703
0.0032677
-0.0485816
0.047355
0.0359693
0.00320715
-0.014194
-0.00265218
-0.001976
0.00321496
0.00433279
-0.00836707
-0.00343496
0.0032684
-0.00459396
0.00573376
-0.0107986
0.00378016
-0.0119417
-0.224913
0.00569272
-0.00517157
0.00461251
-0.00513366
-0.357707
0.307685
0.0124196
-0.00857161
-0.239532
0.00899034
0.000456156
-0.00897747
-0.000469024
0.00467192
-0.00765155
-0.00913334
0.012113
-0.0301711
-0.0319876
0.0174932
0.0446654
0.00947169
0.00168683
-0.0271869
0.020071
-0.0141493
0.0212653
-0.122577
-0.393693
-0.0207562
-0.0149595
0.00718283
-0.00154187
0.00315256
-0.0041206
0.376333
0.0524836
-0.0808332
-7.18217e-06
-0.00688922
0.00173384
-0.0034678
0.0549763
0.0475584
-0.0330067
-0.396514
0.0634671
-0.0607539
0.393801
0.136496
-0.201321
-0.112568
-0.0108822
-0.00140278
0.00772806
0.00455689
0.00834159
-0.000477095
0.00609021
0.00546026
0.100449
-0.0423462
-0.0796756
0.0215732
-0.00334187
0.00635199
-0.0373925
0.00701703
0.509966
-0.479591
0.00233067
-0.00863074
0.00663027
-0.00179079
0.000803387
-0.00188197
-0.00503499
0.00109603
0.00582093
-0.366818
-0.285313
0.208495
0.0636471
-0.0337508
-0.228503
0.0207258
0.213567
-0.00579065
0.0126395
0.0125456
-0.0141472
-0.011038
0.0012429
-0.00600879
0.0218599
0.00434808
0.00696996
-0.00486648
-0.00645156
0.208375
-0.0963401
-0.206538
-0.080171
-0.0213189
0.0581909
0.043299
0.00704642
-0.215577
-0.173875
0.382406
-0.0076943
0.00128832
-0.284365
-0.0159248
0.246968
0.00737274
0.00426747
-0.00729213
0.00347748
-0.0233658
-0.0103531
-0.00224251
0.000422722
0.0121728
-0.162831
-0.258041
0.0657417
0.35513
-0.272915
0.315418
0.153597
-0.1961
-0.0091331
0.00883293
-0.00968412
0.00541642
0.0147289
-0.0152595
0.00651483
-0.102793
0.080348
0.588089
-0.608278
-0.0592939
0.489654
-0.656391
0.225804
-0.0590667
-0.001549
-0.00724705
0.00142591
0.00737014
-0.104646
-0.17516
0.205041
0.0747655
-0.000468979
-0.00825119
-0.0322151
0.0203034
0.0114072
-0.00539038
-0.0163699
-0.00469925
0.00540614
0.0111645
-0.0118714
0.00713821
-0.000202597
-0.00746878
-0.000222598
-0.00601227
0.000383518
-0.000846825
0.00283012
0.0498132
0.247186
0.0643424
-0.186245
0.303592
0.226563
-0.34391
0.368402
-0.604821
0.355412
-0.118993
-0.0626576
0.0519307
-0.0134474
0.0103518
0.0114258
0.141919
-0.389443
0.234234
0.0132901
-0.0484375
0.0284592
0.334718
-0.0145716
-0.3131
0.00288896
-0.00135309
-0.00895062
-0.210067
0.065824
-0.0598895
0.204133
-0.00355254
0.00343347
0.00708902
-0.269785
0.21346
-0.276642
1.3344e-05
0.0431599
0.472958
0.0612828
0.156301
-0.227964
0.00649222
-0.00519939
-0.00209387
0.00339166
0.00390161
-0.0478787
-0.143552
0.162311
0.0291192
-0.391679
0.00137054
-0.00576347
-0.00178392
-0.00357991
-0.00551835
0.00505646
-0.0214865
0.2977
-0.203767
-0.0154309
0.00442104
0.00352382
0.00748602
0.0634395
-0.0603259
0.0605335
-0.0228458
-0.300201
0.01484
0.212498
-0.404272
0.269508
-0.0777338
0.479699
0.0697582
-0.0598035
0.0679219
-0.0596186
0.13838
-0.205146
0.251822
0.192228
0.00628404
0.00789891
0.259424
0.0520226
-0.052178
-0.259268
-0.00365193
-0.0112864
0.0147162
0.173445
-0.136772
-0.0386779
0.239176
0.00206957
0.00639242
0.0067054
0.00116202
-0.00288109
0.00957954
-0.0064504
0.000255443
-0.00338459
0.0141637
0.221373
-0.202892
-0.558191
-0.446589
0.122657
0.0134597
-0.32067
-0.00674128
0.00309599
0.0238223
0.0214342
-0.0318333
-0.0134232
0.00739443
0.00367378
-0.00282189
0.00842285
-0.00697577
0.00396933
0.006181
0.0260578
-0.0386643
0.0064255
-0.0442941
0.0709032
0.0488749
-0.166509
-0.0793496
0.134428
0.111431
0.00468364
-0.00755236
-0.00014511
-0.00969015
-0.00296835
0.00389132
-0.00865711
-0.0467365
0.705621
-0.0603365
0.109858
-0.0154534
-0.0589402
-0.004355
0.00570765
0.00602009
0.0718051
0.0780943
-0.0573141
-0.0925854
-0.0142617
-0.00777704
0.0111508
0.00426343
-0.0322281
-0.00590105
0.138954
0.0571272
-0.118967
-0.218978
-0.0372869
0.0677068
0.188558
-0.0573806
0.25511
0.0484391
-0.246168
-0.0033578
0.00558658
0.00691069
-0.00913948
0.309384
-0.201804
0.19669
-0.30427
-0.21798
-0.0714625
0.129958
0.159484
0.0118574
-0.00899593
0.00906528
-0.00934445
0.000886217
-0.23645
0.172172
-0.00539009
0.0112212
0.0030905
-0.00892158
-0.0183173
-0.0054655
0.00883418
0.00176147
0.0062958
-0.000539161
0.00916924
-0.177428
-0.201346
0.379908
-0.33252
-0.0278681
-0.0195202
-0.00515418
-0.00236466
0.00575469
0.00176414
-0.133921
0.175849
-0.204759
-0.332901
0.353388
-0.179352
0.158865
-0.527038
-0.0616799
0.501081
0.0876367
-0.112918
0.16658
-0.10154
-0.0340955
0.0257723
0.429014
0.00225236
0.00861424
-0.00442653
0.00247214
-0.0016998
0.0512068
-0.0367925
-0.00226352
0.000935107
-0.00202939
-0.00334109
-0.00529683
0.0085076
-0.0130501
0.0153298
-0.00982477
0.00533387
-0.461512
-0.196678
0.291373
0.0119054
-0.0382296
-0.00451648
0.0308407
-0.317899
-0.0428077
0.00468354
0.00724775
-0.00443774
0.0271128
0.484245
-0.561798
-0.00109748
-0.0025332
-0.00175941
0.188036
-0.0733231
-0.219359
-0.154212
0.322619
-0.00526061
0.00835621
0.00208174
0.00603666
0.00787929
-0.102764
0.00407085
-0.00933663
-0.265631
-0.377976
0.0750839
0.145034
-0.0767003
-0.143418
0.0197254
0.00922479
4.53251e-06
-0.000125778
-0.00692937
0.00705062
-0.00985064
0.0160097
-0.0068811
0.00072207
-0.318778
-0.00902003
0.0592383
0.26856
-0.0553484
0.195259
-0.249008
0.267409
-0.306391
0.00161648
-0.61953
0.069893
-0.0586413
-0.0106386
-0.0353984
-0.208795
-0.175585
0.0578616
0.326519
-0.0669504
0.19654
-0.194317
0.0202658
-0.0214392
0.0226076
0.00852635
-0.00651184
0.0047237
0.00631827
0.0105164
0.0375604
-0.0326807
0.533429
-0.562909
-0.273342
0.302822
-0.00630105
0.139484
-0.427844
0.511495
-0.0139402
-0.330747
0.343746
0.000941793
-0.024337
0.0257052
-0.0205616
0.0191934
0.050356
0.000666204
-0.0391167
-0.0160456
0.00588466
-0.0105953
-0.138652
0.0315969
0.151438
-0.0443825
0.214077
-0.05881
0.0439088
-0.199176
-0.0733841
0.0493555
0.0630318
-0.198308
-0.117496
0.0100163
-0.261686
0.0552625
0.196407
0.0416731
0.0198264
-0.0264139
-0.0350855
0.000685765
-0.00164303
0.00764547
-0.0464763
0.365222
0.0184283
0.00329449
-0.0116137
-0.0101091
-0.00653324
0.0050496
-0.00461457
-0.0427364
0.00912134
0.00967584
0.0053956
-0.00554143
0.0214402
-0.0260492
-0.0153775
0.0199864
-0.113469
-0.538349
0.12478
0.0116381
-0.0103948
0.00452522
-0.00576852
0.41196
-0.160768
0.127052
0.221752
0.0823161
0.0601305
-0.07702
-0.0654267
-0.000307506
-0.00854418
-0.000462149
0.00931384
4.2734e-05
-0.00104588
0.00773305
0.0204487
-0.0233455
0.00908707
-0.00909546
0.00794408
-0.00793569
-0.0131945
-0.00204676
0.00301717
0.0787182
0.163421
-0.0907116
-0.44041
-0.0436398
0.0311775
0.452873
-0.485465
0.0370127
0.00748311
-0.0209574
-0.0173431
0.023341
-0.00296357
0.00401902
-0.000210005
-0.000112628
-0.00744216
0.0077648
-0.0167372
0.318742
-0.747504
0.186071
-0.0580964
0.0355225
0.0190969
0.0322864
0.00658931
-0.0102472
0.0245298
-0.0211743
0.0169479
-0.153196
-0.30879
0.0447626
0.417223
0.000114656
-0.00505599
0.000445761
0.291038
0.207738
-0.359291
-0.0992548
0.0743979
0.00484115
0.00364529
-0.633037
-0.0566897
-0.0577777
0.117662
-0.0241352
-0.0927707
-0.000756187
0.0371543
0.0863978
-0.00495005
-0.00673337
-0.0216893
0.324986
-0.0907993
0.00664449
0.00245229
0.000482763
0.00382415
-0.0101317
0.0185445
0.00974158
-0.0170649
0.00801285
-0.05595
0.0164081
0.0315291
0.262701
0.0211918
-0.243644
-0.0402487
-0.392084
0.379242
0.0258406
-0.0129981
-0.041336
-0.43317
-0.0775379
-0.367622
0.179529
-0.00662338
0.0133014
-0.0165192
0.00984117
-0.0133888
-0.00502735
-0.00683061
-0.364915
0.264208
0.0565507
-0.0462316
-0.0415366
-0.0455652
-0.355544
-0.0602695
0.344488
0.296813
-0.0489943
0.0448059
-0.131346
-0.052112
0.57993
-0.0785417
-0.169989
-0.336491
0.248676
-0.331355
0.283035
0.288982
-0.240662
-0.0333648
0.131805
0.334451
-0.00365191
-0.00407899
0.00114667
0.00658424
-0.362657
-0.170889
0.502506
0.0310405
-0.00571248
-0.000853827
0.0114317
-0.00486543
0.0723299
-0.124163
-0.0489362
0.100769
-0.272831
0.179814
0.396609
0.00772347
-0.00225452
-0.264408
-0.0259786
-0.362317
0.10191
0.286386
0.00841746
0.00128445
-0.0192922
-0.00382078
0.0141171
0.0119399
-0.0126192
-0.00917142
-0.384049
-0.157228
0.0797641
0.234399
-0.0721765
0.00105321
-0.000213137
0.00586533
0.00579987
-0.00223374
-0.541588
0.0042086
0.00724282
-0.00856246
0.041238
-0.482494
-0.0463694
-0.596929
0.540625
-0.0571646
0.177093
0.0254856
-0.0398571
-0.394102
0.150019
0.0223632
-0.341433
-0.0467301
0.3658
0.0086893
0.00775864
-0.00494394
0.00627247
-0.00488107
-0.0168637
0.00397335
0.0182965
-0.00722259
-0.000375554
-0.0128039
0.0135283
-0.00226979
-0.546662
0.604695
-0.0557633
0.0130811
-0.363569
0.0669401
-0.0589153
0.0298436
0.0340009
0.00430122
-0.15499
0.285126
0.0964261
0.0397238
0.476873
-0.477215
-0.0393824
0.548252
-0.523409
-0.000712415
-0.00522843
-0.231011
0.22609
-0.230756
0.25559
0.0129984
-0.0378321
-0.00419403
0.0275023
0.0232851
-0.0282097
0.259194
-0.0047145
-0.22627
0.0648561
0.152817
-0.00828208
-0.000215255
0.00843901
0.0436212
-0.259103
-0.564375
-0.0333348
-0.0586819
-0.0970631
0.0231858
0.281692
-0.0152101
-0.0017892
-0.0567883
0.169091
-0.172187
0.0598845
-0.02441
0.0217864
-0.292803
0.203553
0.0102032
-0.00727279
0.00151608
-0.00444645
-0.0488507
0.0570963
0.00867985
0.21661
0.0358654
-0.209523
-0.00438044
-0.00892574
0.00632505
0.045495
0.0763507
0.0704787
0.298054
-0.0761928
0.0277898
0.00724313
-0.0145842
0.0102486
-0.0624176
0.123974
0.0315076
-0.025104
0.0451783
-0.0515819
0.0111719
-0.00610018
-0.00456578
0.00481359
0.00405342
0.10935
-0.0286482
0.0912598
-0.171961
-0.0154662
0.0354308
0.00719785
-0.0271624
0.0880519
-0.372292
0.396244
-0.306489
0.244245
-0.423414
-0.00474108
0.0149465
-0.0104942
0.00673335
0.00605281
0.020895
-0.221222
-0.0663738
0.187548
0.100048
0.0843707
-0.0903654
-0.02727
0.169637
-0.0749028
0.070046
-0.16478
0.386173
-0.397682
0.0608899
-0.0493811
0.250798
-0.13594
0.183944
-0.298802
0.416228
-0.422547
0.0563359
-0.0500176
0.453316
-0.375223
-0.0557292
0.45239
-0.0209898
-0.338603
-0.0466898
0.506665
-0.0354121
0.000538591
0.0302589
-0.167058
-0.375813
0.341701
0.20117
-0.0250302
-0.0414615
-0.100726
0.152761
-0.025967
-0.320682
-0.517182
0.0259289
-0.055409
0.176924
-0.0307889
-0.131971
-0.0229555
0.0144763
-0.0021642
0.0720538
0.245403
-0.0580333
-0.369746
0.0272997
-0.0420883
0.475136
-0.460348
0.208993
-0.0903021
0.0139777
-0.0311915
-0.185015
0.202229
-0.0412085
0.278252
-0.265253
-0.0467389
0.487977
-0.0386847
0.226062
0.0292322
0.0195544
-0.0156793
-0.327123
0.315378
-0.127674
-0.243781
0.0779033
0.242183
-0.0155909
0.0277159
-0.0275911
-0.000954522
-0.0137252
-0.0090671
0.0278074
0.0164858
-0.0257487
0.00262417
-0.00343173
-0.00215602
0.257506
-0.0446165
0.00551389
-0.00746153
0.0308083
-0.0410535
0.183009
-0.172763
-0.372256
0.191043
0.253266
0.379648
-0.0173251
0.000321701
-0.362645
0.320928
0.0349721
-0.0484042
-0.0480769
0.355532
-0.0444091
0.038986
-0.350109
-0.110519
0.771452
-0.0562378
0.406849
0.059513
-0.0501335
-0.00164813
0.0136445
0.025856
-0.014987
-0.0320389
0.0255867
0.0139401
-0.00237927
-0.212576
0.201015
0.337551
0.170826
-0.0550615
0.214349
-0.180337
0.0218719
-0.0558842
0.246138
-0.197795
0.161741
-0.196763
0.0852171
-0.0501954
0.167057
0.116885
-0.0695938
0.0693908
-0.00246798
0.0138803
-0.0808031
0.173969
-0.0759913
0.0716591
0.0379331
-0.0162246
0.0137222
0.239961
0.107596
-0.101419
0.359754
-0.0163841
0.0070718
-0.350442
0.153732
-0.141475
0.121979
-0.134236
0.223433
-0.236733
-0.066163
0.0794632
0.302913
-0.518813
-0.0928902
0.171846
-0.0689423
0.0956384
-0.198542
0.359357
0.0227235
-0.0223258
0.172468
-0.170247
0.0336442
0.0201417
0.41521
-0.410711
-0.0246408
0.279319
-0.315505
0.0149491
0.0212371
-0.0417705
0.191456
-0.135707
-0.0403759
0.235247
0.226189
-0.206066
0.143772
-0.163895
0.270471
-0.185603
0.20161
0.0524022
-0.0594431
0.168782
0.00714074
0.145072
-0.136354
-0.0158583
-0.0232788
0.122804
-0.108958
0.00943214
0.0924491
-0.0486948
-0.0696098
0.0258555
0.0580573
0.0155428
-0.00420935
0.164122
-0.0719672
0.0349749
-0.0284759
0.0314342
0.0771932
0.216392
-0.119616
0.169798
-0.14793
0.202806
-0.0550122
0.0756393
0.238471
0.100862
-0.099372
0.0900864
-0.0521616
0.0137864
-0.0237666
0.318673
-0.308693
0.332402
-0.0240548
0.0177402
-0.326088
0.237329
0.0293943
0.0125953
0.244433
-0.123615
0.12998
0.29675
-0.206501
-0.0632858
0.064749
-0.409098
0.407635
0.386769
-0.375891
-0.00839358
-0.0024846
0.0272148
0.0230567
0.289375
-0.496167
0.233728
0.248254
-0.211511
0.386977
0.016582
-0.0172107
0.234569
0.145382
-0.135517
-0.325201
-0.123651
0.158584
-0.0925863
0.0837116
0.172295
-0.188697
-0.27605
0.201552
0.263195
0.162463
-0.149411
-0.00591109
0.129215
-0.120896
0.210078
-0.196806
0.0639214
-0.00444265
0.314631
-0.345728
0.0355392
0.416214
-0.0327342
0.00328919
-0.120085
-0.318122
0.100426
0.227114
-0.442539
0.306436
-0.043654
0.34746
0.0432888
-0.347095
0.0305299
-0.0285645
-0.0175564
0.125175
0.325705
-0.145042
0.0552831
0.154615
-0.0622974
0.313628
-0.312267
0.0609366
-0.00589493
0.301373
-0.321754
-0.168077
0.0610824
-0.427952
-0.060898
0.427768
0.053697
-0.076109
-0.0814889
0.103901
-0.0812029
0.192778
0.268333
-0.00794128
0.00722657
-0.00373172
0.301152
-0.404515
-0.252971
0.484003
-0.252952
-0.406816
0.175765
0.274598
0.417453
-0.333518
-0.0557719
-0.0281629
-0.000567225
0.00144561
-0.00944815
-0.00134192
0.258486
-0.359461
0.029336
-0.0178447
0.191549
-0.117823
0.343726
0.36179
0.19032
-0.357394
-0.194717
-0.263705
0.267271
-0.375857
-0.00802006
-0.0586903
0.461564
-0.113889
0.0474611
-0.0604139
0.0166855
0.0312278
-0.00539311
-0.180661
0.173631
-0.134445
0.0956774
-0.123675
-0.073462
0.0753034
0.0518556
-0.116121
0.0568236
0.116681
-0.0573833
-0.0484657
0.0746218
0.00881884
-0.304133
0.155186
-0.0670553
-0.0336423
0.2018
0.00876627
0.0237716
0.158474
0.148018
0.099439
-0.0310655
-0.0905223
0.082121
-0.3286
0.337002
-0.193538
0.0538812
-0.0455256
0.0778914
-0.157025
0.170703
0.223652
-0.268861
0.16028
0.171029
-0.0624485
-0.0515652
0.0361605
-0.0846613
0.0609894
-0.0174309
0.0189652
-0.0071353
0.10261
-0.0989456
0.234806
-0.373646
0.377914
0.0989163
-0.103184
0.0377855
0.0486183
0.0384244
0.262365
-0.255489
-0.0452999
-0.0715629
0.324758
-0.334398
0.249392
-0.0762575
-0.140046
0.0365948
-0.00513203
0.000919315
0.00293764
-0.425854
0.0135628
-0.196041
0.0987052
0.199947
-0.317119
0.298924
0.163322
-0.145127
0.021311
-0.462211
0.473617
-0.0327173
-0.135527
0.327304
0.210845
-0.336415
-0.111543
0.141606
-0.174572
0.220444
0.2853
-0.141644
-0.329259
0.332297
-0.0236617
-0.259062
0.28393
-0.0607635
0.0408735
-0.317952
-0.25939
0.34444
0.232902
0.00532945
0.00745884
-0.020916
0.00812774
-0.0727837
0.0233358
-0.229027
0.278475
0.447868
0.270235
-0.435903
-0.2822
-0.21458
0.201445
0.205913
0.249171
-0.152713
0.0874859
-0.284564
0.20034
-0.0351322
-0.0167657
0.00343215
-0.299248
-0.0934819
0.171509
-0.212704
0.0293856
0.221833
-0.0385136
-0.233438
0.185394
0.239088
-0.470056
-0.0301764
0.148957
-0.0385995
0.00334627
-0.00859142
0.421459
-0.434143
0.0153852
0.272975
0.145783
-0.0471146
0.0242645
-0.101523
0.227253
-0.1808
-0.0547945
0.051854
-0.0817208
0.0113396
0.36952
-0.0587572
-0.322102
0.241042
0.177658
-0.25842
-0.136407
-0.090018
0.218415
0.00801039
-0.00737413
-0.00632454
0.0327671
0.41014
-0.0493811
0.334238
-0.0514174
0.50378
-0.498606
-0.0519131
-0.449492
0.456387
-0.0505342
0.34623
0.0625206
-0.0527367
-0.435836
-0.0499967
-0.433125
0.427054
0.0559945
-0.0499231
0.490421
-0.538856
0.103343
-0.0549081
0.37832
0.0571157
-0.0492627
-0.516105
0.538772
0.0306256
-0.0532924
0.499089
0.0140372
-0.0508514
0.514824
0.0534497
-0.515707
-0.0525672
-0.573087
0.68405
-0.0570929
-0.0538704
-0.48232
0.0501143
0.48778
-0.0555745
0.442739
0.0595121
-0.45286
-0.0493914
-0.0496263
0.0609941
0.396152
-0.0502968
-0.432927
0.440446
0.0426562
-0.050176
0.0900653
0.302195
-0.054709
-0.0657926
0.180527
-0.267142
0.259501
-0.16693
0.012584
-0.00853969
0.00374496
0.0684088
-0.056488
0.151367
-0.224918
0.215471
0.312259
-0.206934
0.311898
-0.0393824
0.32386
-0.270538
-0.0113438
0.00133481
0.132813
-0.201733
-0.0364664
0.0264733
0.155065
-0.0266514
0.331195
-0.338143
0.358942
0.0291241
-0.0499228
0.442139
0.0172819
-0.0492807
0.360029
0.0244554
-0.0502469
-0.435501
0.367308
-0.0535717
0.179307
-0.0454437
-0.222368
0.336577
-0.392588
0.402679
-0.161352
-0.00941782
-0.0130795
-0.363634
0.386131
0.0500604
-0.0552328
0.167484
0.0547793
0.0255771
-0.211897
-0.256658
0.0920568
-0.109803
0.274404
0.256761
-0.420061
0.0159056
-0.0375764
-0.0134613
0.237479
-0.257804
-0.252379
0.272704
-0.242154
-0.157215
0.114805
-0.344081
0.357004
0.0394607
-0.0523834
-0.381507
0.421907
-0.0498178
-0.31795
0.325581
-0.0560683
-0.345528
-0.0556621
-0.355962
0.3605
0.0457406
-0.0502789
0.3164
-0.318803
0.0577864
-0.0553838
-0.57722
0.466209
0.160365
-0.0493547
-0.384432
0.401992
0.0317783
-0.0493391
-0.535085
-0.0638425
0.649994
-0.0510664
0.476482
0.169079
-0.593459
-0.0521015
0.475536
-0.453514
0.0312366
-0.0532586
0.504779
-0.491627
0.040708
-0.0538599
0.0601202
-0.391885
-0.0104214
0.00816504
0.316888
0.203803
0.236263
-0.269037
0.214904
0.160028
-0.147679
0.339559
-0.230721
0.366854
-0.246999
-0.0241772
-0.28851
0.0591509
0.105701
-0.108029
-0.360715
0.0552494
-0.0504964
-0.055712
0.029044
-0.0500513
0.0789029
0.449894
-0.0523152
0.054722
-0.0525736
0.506707
0.052218
-0.0541462
-0.332733
0.0431057
-0.0559003
0.0432132
-0.049325
-0.0534835
-0.324514
0.0603636
-0.0546525
-0.455669
-0.0720884
-0.0494624
0.0149001
-0.0508959
-0.124381
-0.380458
0.257006
-0.29343
-0.0447753
0.0544481
-0.162405
-0.0284498
-0.270197
0.287673
-0.161152
0.0214973
0.1738
-0.390296
0.274009
-0.235338
0.228145
0.2167
-0.187765
0.00262432
0.000311536
0.00174778
-0.107092
0.102076
-0.238764
-0.161577
-0.00782688
0.0168751
0.141642
0.299969
0.223134
-0.0439877
-0.342211
0.0530558
-0.278603
-0.0415954
0.058609
-0.0478138
0.0397075
-0.0505027
-0.000377766
0.00491416
-0.266195
0.224938
-0.458403
0.132438
-0.0298742
-0.00168767
0.194227
0.0543462
-0.0474323
0.436898
0.0515431
-0.0528243
0.525292
-0.0324395
-0.0653475
-0.427505
0.0591324
-0.0495187
0.235393
-0.349509
0.0834259
-0.335237
0.00965757
0.0265272
0.0371144
0.2605
-0.274516
0.191673
-0.048965
-0.299286
-0.106062
0.383215
-0.367676
-0.0793433
0.0851256
-0.00203728
-0.30895
0.0829736
0.0612404
-0.186387
-0.00414699
0.227819
-0.107148
-0.00284582
0.380834
-0.370916
0.184944
-0.10388
0.133839
-0.0110914
0.00332286
0.0405902
-0.0490843
0.0756929
0.0255744
0.104925
-0.0499167
-0.422294
-0.0926876
0.281543
0.00976347
0.144809
-0.156952
0.0419117
-0.0513756
-0.0439461
0.261076
0.302325
-0.202533
-0.28
0.180209
0.166082
-0.06084
0.348634
-0.146772
-0.242441
0.0710909
-0.292325
0.278411
0.191431
0.153174