/*--------------------------------*- C++ -*----------------------------------*\
  =========                 |
  \\      /  F ield         | OpenFOAM: The Open Source CFD Toolbox
   \\    /   O peration     | Website:  https://openfoam.org
    \\  /    A nd           | Version:  10
     \\/     M anipulation  |
\*---------------------------------------------------------------------------*/
FoamFile
{
    format      ascii;
    class       volVectorField;
    location    "1000";
    object      U;
}
// * * * * * * * * * * * * * * * * * * * * * * * * * * * * * * * * * * * * * //

dimensions      [0 1 -1 0 0 0 0];

internalField   nonuniform List<vector> 
23845
(
(0.711481 -0.106759 1.18586e-20)
(0.474464 0.0965786 -5.21816e-21)
(0.239133 -0.0115072 2.75005e-20)
(-0.136424 0.0167736 7.29972e-22)
(0.0751845 0.0583225 5.40674e-21)
(0.810306 -0.0071645 -1.89721e-24)
(0.916058 -0.0285297 -1.28724e-20)
(-0.0755942 0.0664476 -2.67496e-22)
(0.935031 -0.00778619 6.23035e-24)
(0.852425 0.0963765 -5.84564e-21)
(0.447795 -0.0478703 -5.49018e-21)
(0.750519 -0.000809301 3.87037e-24)
(0.927507 0.0154302 1.76697e-23)
(0.890372 -0.00841152 1.54849e-24)
(0.713503 0.0336472 -2.16544e-20)
(0.933803 0.0732531 -1.04155e-21)
(0.808438 0.0205331 1.56209e-23)
(0.59917 -0.0161888 -9.20136e-24)
(0.948514 -0.0257269 -1.83518e-22)
(0.77533 0.0083952 2.81413e-22)
(0.888649 0.0977344 1.91717e-20)
(0.400504 -0.0361982 -9.79418e-21)
(1.05629 -0.0515527 -3.20318e-21)
(0.941505 -0.0082248 6.91597e-24)
(0.75965 0.0870282 -1.02164e-21)
(0.99298 0.00728117 -1.11246e-23)
(0.93712 0.0519643 1.07056e-20)
(0.805047 -0.00869537 4.34357e-22)
(-0.0526831 -0.117526 7.82922e-21)
(0.8011 0.00955561 -1.69849e-22)
(-0.148768 -0.00883541 3.23119e-20)
(-0.0310771 0.08594 4.18337e-22)
(0.414882 -0.0196224 1.01218e-20)
(0.648586 -0.0216871 -4.0951e-24)
(0.74736 0.000581108 -1.54442e-23)
(0.740542 0.00423921 2.23711e-22)
(-0.0436846 0.116774 -7.18343e-21)
(0.749359 -0.000792051 -3.91459e-24)
(0.777917 -0.00416567 -1.81754e-23)
(0.919295 0.00912893 8.47883e-24)
(0.976916 -0.0320551 1.38703e-22)
(0.735188 -0.0159487 3.67464e-22)
(0.948914 -0.0137562 -1.82279e-22)
(0.682196 0.0133712 -1.95897e-22)
(1.01129 -0.00731316 -4.65886e-23)
(0.885076 0.016142 6.25111e-23)
(-0.0706165 -0.0249866 -1.85728e-21)
(0.891726 -0.0703659 -4.66883e-21)
(-0.0235478 0.00964522 1.56895e-21)
(-0.0595642 -0.11556 3.44439e-21)
(-0.0491255 -0.0441074 7.18566e-22)
(0.154731 -0.0149578 -4.02258e-21)
(-0.0220263 -0.0406936 -3.66006e-21)
(0.857632 -0.00902398 -1.58306e-22)
(-0.03427 0.0957982 7.62765e-21)
(0.865721 0.0206051 2.04121e-23)
(0.210016 0.0702385 2.7188e-20)
(-0.0907368 -0.0367193 1.88025e-20)
(0.782053 0.104059 -3.72352e-20)
(0.0097163 0.0258277 -1.7373e-20)
(-0.0429019 0.102913 2.55738e-21)
(0.695894 0.0151495 6.75944e-23)
(0.922242 0.0624507 -1.15534e-21)
(-0.0377634 -0.096659 3.36309e-21)
(0.960918 -0.00833173 8.74757e-25)
(0.909602 0.014918 -9.68208e-23)
(0.97816 0.0343831 1.10212e-20)
(1.01978 0.0068103 9.33419e-23)
(1.01807 -0.00727974 -1.78817e-22)
(0.937733 -0.0328344 5.76516e-23)
(-0.0606055 0.0873936 2.72922e-22)
(0.146203 0.00590045 1.67779e-20)
(0.983688 0.00953059 8.74051e-24)
(0.794883 0.0313925 1.2475e-20)
(0.981171 -0.00807072 -2.8241e-22)
(0.656536 0.032474 -7.77825e-23)
(0.755892 -0.00193592 -5.34793e-24)
(0.77499 -0.00454916 2.36626e-23)
(-0.118695 -0.0226136 3.82936e-21)
(0.787738 0.0304219 7.89997e-25)
(0.967634 0.0693674 -2.5874e-21)
(0.680404 -0.0382927 -3.806e-20)
(0.324396 0.0850269 -4.59212e-21)
(-0.0851236 -0.0533269 -7.94238e-22)
(0.242413 -0.0028795 -7.89663e-21)
(0.748712 0.0018061 -3.66754e-23)
(0.60817 0.057936 1.451e-20)
(-0.0176628 -0.0134223 1.70644e-20)
(0.96116 -0.0078071 9.48158e-23)
(0.854591 0.0295801 -1.22781e-22)
(-0.0477941 -0.0816196 -1.27081e-20)
(0.972118 0.0413629 -6.52533e-22)
(-0.0482542 -0.106232 1.13499e-20)
(0.749674 -0.00494533 -1.75932e-22)
(-0.0877701 -0.0249125 2.81734e-21)
(-0.0535504 -0.0918789 -3.56214e-20)
(0.844251 -0.0197392 2.06991e-23)
(0.873131 -0.0729301 -3.6277e-22)
(0.979899 -0.00802802 2.11799e-23)
(-0.0111819 0.0379458 -8.22176e-21)
(0.849356 -0.0235019 6.00046e-23)
(0.974533 0.0308992 3.77735e-21)
(0.405393 -0.098067 1.50286e-20)
(-0.0689578 -0.0877411 -1.59341e-20)
(-0.054167 -0.0939628 -2.96465e-20)
(-0.0934734 -0.0452704 5.23937e-21)
(0.8302 -0.00810998 9.31416e-24)
(0.993089 -0.00799249 1.64659e-22)
(1.0348 0.0258681 -1.70212e-21)
(0.710426 0.0139623 1.976e-22)
(0.496151 -0.0437236 -1.61618e-21)
(0.754367 -0.0021361 -7.88712e-24)
(0.357048 0.0116829 1.60969e-20)
(0.846211 -0.0887149 -2.21809e-21)
(0.744323 0.00478688 -1.11583e-22)
(0.954235 -0.0887935 -2.7397e-21)
(0.978144 -0.0077172 -1.2507e-22)
(0.939756 0.0831726 -5.92911e-21)
(-0.0525095 -0.119005 5.75141e-21)
(-0.0224266 0.0841087 -1.59194e-20)
(0.767332 -0.00350071 -2.46431e-23)
(-0.0394483 -0.0935436 -1.97535e-21)
(0.938133 0.0324405 6.53791e-23)
(0.0225548 0.0438424 3.5028e-20)
(0.958685 0.0295289 -3.65276e-21)
(0.987722 0.00767594 -1.78378e-23)
(-0.0458668 0.099466 2.15315e-21)
(-0.0606392 -0.110964 -1.30118e-20)
(0.124892 0.0227729 1.05733e-21)
(-0.0584938 -0.0339586 1.26801e-20)
(0.12874 0.0275654 1.85922e-20)
(0.469823 0.0847542 5.97139e-22)
(0.31652 -0.0511511 2.71351e-22)
(0.858365 -0.00806553 1.60373e-24)
(0.824805 -0.0289715 2.94269e-23)
(0.572746 -0.106987 4.34663e-21)
(-0.0658851 0.0939716 3.33301e-20)
(0.751861 -0.000956298 1.05033e-23)
(1.02626 -0.0301272 6.4651e-23)
(0.78278 -0.00493125 1.73518e-23)
(-0.0550998 -0.123788 -1.57367e-20)
(0.726219 -0.0138957 -1.23234e-22)
(0.767111 0.00532191 5.17439e-23)
(0.65858 0.0127551 3.51543e-22)
(0.928318 -0.0541787 -2.3916e-21)
(0.698762 0.0121026 -2.19831e-22)
(0.953532 -0.0876842 -3.17647e-22)
(0.387565 0.0216315 4.29789e-20)
(0.00880103 0.0734307 -1.30086e-20)
(0.867552 0.0394962 2.2364e-22)
(0.436868 0.0173056 -1.68844e-20)
(0.951451 0.010838 -3.10099e-23)
(0.443376 -0.0644443 1.55089e-20)
(0.904722 -0.0111227 9.28469e-23)
(0.319815 -0.00525815 -5.84887e-21)
(0.728213 0.0505915 -8.6638e-22)
(0.232355 -0.0832264 -5.19931e-21)
(0.75062 -0.00304978 -7.8021e-23)
(0.154629 0.0206732 1.30025e-21)
(-0.0537756 -0.107248 3.75123e-21)
(0.926759 0.0408927 2.94246e-22)
(0.658685 -0.0309477 -1.81893e-21)
(-0.0830079 0.0124646 -1.03231e-21)
(0.953222 -0.00801351 1.71121e-23)
(0.993754 -0.0157001 -2.04659e-23)
(0.788745 0.0391367 1.83405e-22)
(0.828683 -0.00734725 -2.70928e-23)
(-0.0447908 0.101154 -5.66877e-21)
(0.796797 -0.00829037 -3.23904e-23)
(0.696405 -0.011285 2.77783e-22)
(0.841737 0.00822877 2.43176e-23)
(-0.117912 0.0215452 5.22142e-21)
(0.94746 -0.00869544 1.4652e-23)
(-0.0118644 0.0454801 -7.3872e-21)
(0.958456 0.00859789 2.83903e-22)
(-0.106857 -0.00157892 -4.48791e-21)
(0.97544 0.0494518 6.37934e-22)
(0.671777 0.0610149 1.54583e-21)
(0.993562 -0.00725467 -1.07131e-23)
(0.75522 -0.00337435 2.74333e-23)
(0.00658176 -0.0415149 6.94224e-21)
(-0.0417811 -0.0248348 8.33705e-22)
(0.760897 0.0348191 1.10158e-20)
(0.4822 -0.0359242 -6.65142e-22)
(0.925089 -0.0629323 -3.07779e-21)
(0.916689 0.0201211 1.06152e-23)
(0.724437 0.0155262 -7.02583e-23)
(-0.0774915 -0.0605155 2.75543e-21)
(-0.0552925 0.117336 1.84766e-21)
(0.762665 -0.0164833 -5.01835e-23)
(-0.0467397 0.102165 2.95015e-20)
(0.888491 -0.00827774 2.59869e-23)
(0.894409 0.00870811 8.50129e-24)
(0.846529 0.00843283 -1.67557e-23)
(0.936263 0.0503012 -8.61378e-22)
(0.909313 -0.00831831 -6.99875e-23)
(-0.0648694 -0.0927013 -2.74263e-21)
(-0.0557021 0.108413 1.9477e-21)
(-0.0789174 -0.0703845 -1.00736e-20)
(0.562937 -0.0519585 2.61934e-22)
(0.70047 0.0379818 -7.94736e-23)
(0.897749 -0.009185 -3.21713e-22)
(0.00233789 0.0746058 -6.8635e-21)
(0.349202 0.0681549 1.21235e-21)
(-0.0819972 0.0589382 1.16462e-20)
(-0.0838693 0.0261046 7.35355e-22)
(0.216611 0.00180945 -3.83876e-20)
(0.805034 -0.00606412 -1.59354e-23)
(0.737457 -0.0902865 -1.14622e-20)
(0.610206 0.0199894 -1.81849e-22)
(0.719242 0.0285979 -5.91108e-23)
(-0.0483547 0.114454 1.06459e-20)
(0.976119 -0.0579005 9.69452e-23)
(0.828776 -0.0106315 4.45701e-23)
(-0.0342366 -0.0361329 2.51706e-21)
(-0.039578 -0.106901 -6.01032e-21)
(0.247247 0.0479814 -3.76638e-21)
(0.701495 0.0163456 -5.75482e-23)
(-0.0525297 0.11829 1.56657e-20)
(0.148747 0.0272344 -1.8767e-22)
(0.978926 -0.0104099 -3.00508e-23)
(0.729502 0.0329019 -6.51604e-21)
(-0.0668465 0.0907741 -2.08369e-20)
(0.815184 0.0514326 -1.03455e-21)
(0.671114 0.0105725 -1.14285e-22)
(0.457064 -0.0209316 2.14861e-20)
(-0.0594227 -0.112402 -7.50303e-21)
(0.886142 -0.00813441 5.92129e-23)
(0.809748 0.00813047 3.85761e-24)
(0.97656 0.0322968 5.58339e-22)
(0.770075 -0.00535872 1.22698e-22)
(-0.0282353 -0.006386 -9.51654e-21)
(0.753759 -0.00221642 6.30851e-24)
(1.01469 0.00669761 -2.51354e-23)
(0.116559 0.0633139 8.45013e-21)
(-0.0497785 -0.112583 -1.06548e-20)
(0.967405 -0.00868165 6.56703e-23)
(-0.153531 0.00799225 8.82973e-21)
(0.955525 0.00839748 9.65759e-23)
(-0.0796869 -0.0263811 2.2053e-20)
(-0.0222172 0.0248365 8.75136e-21)
(0.940919 -0.0868059 6.64623e-21)
(-0.09695 -0.0431099 -1.28682e-20)
(0.122824 0.0659967 -1.401e-20)
(-0.0424711 0.0921229 3.16184e-21)
(0.912962 0.0651345 -2.4477e-22)
(0.838653 -0.00809451 1.2298e-24)
(1.01827 -0.00667951 2.8743e-22)
(-0.0962889 0.0113739 2.12461e-21)
(0.608477 -0.0301221 5.23219e-21)
(0.852897 -0.0149967 -4.37961e-23)
(0.74776 0.00279068 -1.05265e-23)
(-0.0511374 0.0538839 -4.41434e-21)
(0.96555 0.0146595 -3.33826e-26)
(0.787969 -0.0295463 -8.02052e-21)
(-0.0507892 0.0872494 2.18632e-21)
(-0.00493552 0.0734225 4.22989e-20)
(-0.0615088 0.0614204 7.54684e-22)
(0.743367 -0.00467771 2.00034e-23)
(0.932798 -0.00874983 -1.17799e-22)
(-0.0134823 0.000553577 -2.11694e-20)
(0.743769 -0.00212 -2.1777e-23)
(-0.0501178 0.0952221 -3.48478e-21)
(0.54413 -0.045544 1.94852e-21)
(0.63665 0.0461975 -2.67492e-23)
(0.944478 0.00803465 -2.55489e-23)
(-0.116112 -0.00449114 -3.11552e-21)
(0.0557197 0.0449325 -1.41877e-21)
(-0.140305 -0.00147635 5.53768e-21)
(-0.147709 0.00969762 -1.55804e-20)
(0.767518 -0.00386526 1.01054e-23)
(-0.114197 0.0270797 -3.11955e-21)
(-0.043783 -0.014532 -5.11959e-22)
(0.881862 0.00888293 -7.22671e-23)
(0.437047 -0.0319478 -1.12281e-21)
(0.901849 0.00891892 1.05418e-23)
(-0.0589481 -0.0690981 6.94505e-21)
(0.877123 -0.00808731 -3.108e-23)
(-0.0654242 -0.0720358 3.71632e-21)
(1.05841 0.0550616 1.83178e-20)
(-0.0837166 -0.0474243 1.89308e-20)
(0.814287 0.0082222 -1.85237e-23)
(-0.0603629 -0.0340643 1.01395e-20)
(0.876831 -0.0490095 6.15624e-23)
(0.744748 0.000160193 -1.57351e-23)
(-0.0206462 -0.088107 -1.29532e-20)
(-0.0265973 0.0354893 -3.96114e-21)
(0.912051 -0.00812929 -3.96129e-23)
(-0.0850385 0.0381385 -3.89958e-22)
(0.426744 -0.0193223 1.00486e-20)
(-0.108484 0.0101421 2.57329e-21)
(-0.0363684 0.0295792 -1.06227e-20)
(-0.0352395 -0.0981558 2.60873e-20)
(-0.0603471 0.0724901 -5.2396e-21)
(-0.0962965 0.0235313 3.37731e-22)
(0.74823 -0.00101965 -5.94698e-24)
(-0.0115013 0.082958 1.67622e-20)
(0.853352 -0.00848985 -9.07349e-23)
(0.747251 0.00159528 -5.38663e-24)
(-0.0527672 -0.11773 -6.93397e-21)
(0.144093 0.0169889 3.13676e-20)
(0.456422 -0.0178979 1.49771e-20)
(-0.0474737 -0.111376 1.91653e-20)
(-0.155896 -0.00101079 8.13086e-20)
(0.860748 0.00848465 2.55879e-23)
(-0.160679 0.00186272 -4.73195e-20)
(-0.0396231 -0.0926748 -1.30596e-20)
(-0.0460128 -0.0290269 -3.16706e-21)
(0.858765 -0.0227134 1.88066e-24)
(-0.0647067 0.0977658 4.49813e-21)
(-0.0415116 0.000188306 -1.28462e-20)
(0.325212 -0.0604032 3.17728e-20)
(0.91883 -0.0208275 1.22936e-23)
(0.837631 0.00837752 9.293e-23)
(0.0525484 0.0014515 3.09733e-20)
(-0.0564187 -0.1221 1.45655e-20)
(-0.0172921 -0.0856568 1.80546e-21)
(0.321348 0.0501024 -1.42927e-20)
(-0.0513295 0.0956368 5.64481e-21)
(0.975085 -0.011444 1.49915e-23)
(-0.0556577 0.0876578 8.8182e-21)
(-0.0466982 0.108573 -8.10723e-21)
(0.0218932 0.0638956 -2.30395e-20)
(0.813843 -0.00913974 -1.65258e-22)
(0.532508 -0.0280415 -1.24943e-20)
(0.800495 0.00728434 -1.81698e-23)
(-0.136383 -0.00760651 -1.94751e-20)
(-0.0782324 -0.0262114 1.16325e-20)
(-0.00222823 -0.0705883 -6.13379e-22)
(0.570002 0.0159973 4.49394e-22)
(0.3398 -0.0295819 5.23213e-20)
(0.819031 -0.0467091 -1.80753e-22)
(-0.0497961 -0.0670356 9.68481e-21)
(0.738738 -0.000301881 1.84257e-23)
(-0.000679448 -0.075038 -4.67847e-21)
(-0.139811 0.0132355 -2.27367e-21)
(-0.0717411 -0.0149668 -1.20935e-20)
(0.588153 0.0137394 -2.28154e-22)
(0.722363 0.011124 2.38445e-22)
(-0.123052 -0.00959942 1.07859e-20)
(-0.0895726 0.0233818 -1.32905e-21)
(0.0150718 0.0698815 -1.32811e-20)
(0.449594 -0.0403206 6.72922e-21)
(1.01261 0.00738142 -4.35607e-23)
(1.01327 -0.00724252 1.98079e-23)
(-0.0698548 0.0671983 -4.8507e-21)
(0.740665 0.00191487 -3.93843e-23)
(-0.0556179 -0.0812187 6.07679e-21)
(-0.128026 -0.0148212 9.21004e-21)
(0.365969 -0.0158386 -4.18555e-21)
(-0.0964915 -0.0114286 1.64379e-20)
(0.121877 -0.0298843 -6.9837e-21)
(-0.0618646 0.109539 2.06621e-20)
(-0.056118 -0.053465 -1.08142e-20)
(-0.0210429 0.0418718 2.1616e-20)
(0.892622 0.00866681 5.39642e-23)
(0.685483 -0.00959476 -2.17414e-23)
(0.969953 0.00909766 -3.05123e-23)
(0.476493 0.0261566 -7.52888e-21)
(-0.0965948 -0.0393093 3.61431e-21)
(0.0663816 0.0357985 -1.22597e-20)
(0.966132 0.00762872 -4.42428e-23)
(0.947343 -0.0887441 -7.09623e-21)
(0.886594 -0.0438228 -8.8832e-22)
(-0.0538744 0.119001 1.07069e-20)
(0.838802 -0.00765459 1.75306e-24)
(0.0252128 -0.0569945 -3.1299e-21)
(0.760251 -0.00651839 7.16744e-23)
(-0.0526631 -0.119295 6.74218e-21)
(0.992812 0.00818341 3.34667e-23)
(0.701622 -0.0127027 -4.90103e-23)
(-0.0469896 -0.0932245 1.91638e-20)
(-0.0306175 0.0667878 -1.38286e-20)
(0.751488 0.00209282 8.38357e-24)
(0.754709 -0.00408109 4.45607e-23)
(-0.0517725 0.0773776 -3.47631e-21)
(0.0492497 -0.00794743 -2.20358e-20)
(-0.11777 0.0162881 -3.68408e-21)
(0.718362 -0.0127739 -1.23073e-22)
(-0.085773 0.0362381 6.90627e-21)
(0.651861 -0.0362087 -1.22458e-20)
(0.743047 -0.00254459 -1.14518e-23)
(1.02617 -0.0642148 1.50882e-20)
(1.01568 -0.00721466 3.73456e-23)
(1.01423 0.00706268 -1.23739e-24)
(0.761234 -0.00315732 -1.2523e-23)
(0.786146 -0.00597857 -2.33295e-22)
(-0.11624 -0.0174037 -6.38371e-21)
(0.614145 0.0311725 -1.94257e-23)
(-0.0978976 -0.0255299 -1.3511e-20)
(0.941513 -0.0397795 -2.72521e-21)
(0.689131 0.0109579 7.56079e-23)
(-0.0361319 -0.0839842 3.08624e-20)
(-0.0528808 -0.0852061 7.57684e-21)
(-0.0386395 0.0149291 9.52123e-21)
(-0.0533494 0.1132 6.66606e-21)
(0.551142 0.039552 -8.98015e-22)
(1.00004 -0.00761489 -8.68946e-24)
(0.933187 -0.0336462 -2.70839e-22)
(0.736987 -0.000611986 6.5234e-23)
(-0.0253839 -0.00903611 -1.8042e-20)
(-0.159905 0.000628828 4.84048e-20)
(-0.074437 0.0446825 2.65957e-22)
(-0.0532118 0.0216207 -7.73295e-21)
(0.123086 0.0480073 1.95248e-20)
(0.69218 0.0365961 1.16319e-20)
(0.800267 -0.0058787 1.57576e-24)
(-0.0351155 0.0770315 1.96635e-20)
(-0.0539446 -0.101381 9.81773e-22)
(-0.0297499 0.0812061 -1.62258e-20)
(0.54868 -0.0232785 -1.04976e-20)
(1.01603 0.00641497 2.30338e-23)
(0.852705 0.0311392 9.82806e-21)
(0.027938 -0.0641713 1.14701e-20)
(0.33139 0.0936456 -1.54936e-20)
(0.0793769 -0.00303783 -1.64172e-20)
(-0.135977 -0.00491032 1.74826e-20)
(0.438419 -0.0266373 -4.48251e-22)
(0.785091 0.00647415 5.77966e-23)
(0.960576 0.0918204 1.38357e-21)
(0.141076 -0.00816953 6.9293e-21)
(0.745717 0.0102367 8.76642e-23)
(0.923341 -0.00805544 5.95074e-24)
(-0.130103 -0.001895 6.22617e-21)
(-0.0462288 0.0870397 6.58362e-21)
(0.650746 0.100682 5.97133e-20)
(0.109438 0.01324 -6.41366e-21)
(-0.138103 -0.00699792 1.45907e-20)
(0.0107629 0.0329086 1.1605e-20)
(0.052571 0.0309928 -2.59023e-20)
(0.898259 -0.00819739 4.89277e-24)
(0.638763 0.0184342 4.2377e-23)
(0.0122481 -0.0701088 -2.51949e-20)
(0.560441 0.00727829 3.39484e-22)
(0.854241 0.0126051 5.83847e-23)
(0.987535 -0.00904202 6.42966e-23)
(0.749383 0.00135005 3.2036e-23)
(0.917766 0.0194213 -7.41588e-24)
(-0.0463592 -0.110176 4.31398e-21)
(-0.0218706 0.0266608 4.20869e-21)
(0.572445 0.0304085 -4.94613e-22)
(0.051261 -0.0225299 -1.56096e-20)
(-0.0564516 0.0966412 -2.1239e-20)
(0.114744 0.0299714 -5.01249e-21)
(-0.149424 -0.00281205 -8.27324e-21)
(-0.017431 -0.0839744 -6.69596e-21)
(0.787971 -0.00911623 3.46083e-22)
(-0.162797 0.00382731 -2.32571e-20)
(0.779282 0.00643358 -3.60524e-23)
(-0.0915374 0.0306655 -6.04721e-21)
(-0.122013 0.00248232 3.04417e-21)
(0.944529 -0.0108028 -5.5789e-23)
(0.0219215 0.0354902 -1.60869e-20)
(0.742765 0.00309265 -2.24774e-22)
(1.00991 0.00684311 -1.16286e-22)
(0.0131594 -0.069364 -1.63505e-21)
(0.00325999 0.0301065 4.9362e-21)
(0.34326 0.0691581 2.30514e-21)
(-0.0681811 0.0635092 1.29944e-20)
(0.873094 -0.00916789 1.92333e-22)
(0.774382 -0.0896523 -6.70126e-21)
(-0.148403 0.00440988 -5.2608e-20)
(-0.0626594 -0.102298 2.27004e-20)
(-0.0387362 -0.02851 -7.2459e-21)
(0.778779 0.00649676 5.91774e-23)
(0.786894 -0.00561091 -1.53407e-23)
(0.835881 0.00868887 3.20399e-23)
(-0.0313707 -0.0212031 3.50616e-21)
(1.01127 0.00764235 -1.54196e-23)
(0.338807 -0.0109132 -4.05462e-21)
(0.809232 0.00855995 -4.54713e-23)
(0.81826 -0.00683398 -1.31663e-23)
(-0.168314 -0.00106673 -3.85352e-21)
(-0.0393804 0.0907593 7.90006e-21)
(-0.0319322 0.0908384 -2.22731e-20)
(0.102053 -0.0611865 7.37562e-21)
(0.958059 -0.00993776 -5.17665e-23)
(-0.0411544 0.0810324 -6.17544e-21)
(0.842232 -0.00920834 -2.80139e-22)
(0.887684 0.0336615 9.6629e-23)
(-0.135441 0.00965579 2.23615e-21)
(-0.162431 -4.32273e-05 -2.10655e-20)
(-0.162966 0.00277981 -8.42715e-21)
(0.382921 0.0306703 -3.09176e-21)
(0.561777 0.02758 -6.71926e-24)
(0.530983 0.0336945 -1.07777e-20)
(0.761171 -0.00341269 2.12399e-23)
(0.75493 0.00348446 -2.50386e-23)
(0.276495 0.0238276 -3.69447e-21)
(0.0217889 0.0614938 -9.63892e-21)
(0.989886 0.00806125 -1.81368e-23)
(0.163143 -0.0132405 2.27697e-20)
(-0.0557087 0.0877532 6.94653e-21)
(-0.156453 0.00349414 -1.66958e-20)
(-0.0721119 0.0656596 -7.48597e-21)
(-0.107356 0.0161195 6.77411e-20)
(0.984282 -0.00966779 -2.65779e-22)
(0.0717484 0.00639326 -7.40829e-21)
(0.973549 -0.00777831 5.06048e-24)
(0.748362 0.00346015 1.12679e-22)
(0.460568 -0.054383 1.86585e-20)
(-0.0526069 0.124488 -1.37199e-20)
(0.041063 0.0597494 2.10398e-21)
(-0.129683 0.0023613 -1.53136e-20)
(-0.0948048 0.0461667 1.20178e-20)
(-0.108008 -0.0341487 1.31039e-20)
(0.519894 -0.0382477 1.687e-21)
(0.960625 0.0175847 3.32265e-23)
(0.771043 -0.00768512 -7.14687e-23)
(0.0307385 0.0621529 -2.37072e-20)
(-0.163821 -0.00254309 1.11399e-20)
(0.0550147 -0.0532421 -1.81674e-20)
(-0.0450779 -0.117472 3.09321e-20)
(-0.167972 0.000254397 1.04267e-20)
(0.871297 0.00895559 -4.81407e-23)
(1.00985 0.00776153 1.25686e-24)
(-0.165954 -0.00116005 4.78735e-21)
(0.316592 -0.00700121 -9.74406e-21)
(0.284616 -0.00108578 5.2643e-21)
(0.747407 0.0118456 1.77142e-22)
(-0.0333781 -0.100526 2.58239e-20)
(0.877601 -0.00971384 6.02775e-24)
(0.599807 0.0176179 -3.82031e-23)
(-0.0175836 -0.0800269 1.16948e-20)
(1.00764 0.00741702 -2.48e-23)
(0.850152 -0.0369672 5.72497e-21)
(0.745175 -0.0332687 -5.93247e-21)
(-0.0303088 0.0948227 -2.47163e-20)
(0.980667 -0.0724131 1.19031e-22)
(-0.0528058 0.116956 -3.58023e-21)
(-0.0513677 -0.111308 1.02062e-21)
(0.210635 -0.00497581 -5.38099e-21)
(0.114978 -0.0486211 2.42255e-20)
(1.07423 0.0438985 -1.49443e-20)
(0.900245 0.0256072 2.77799e-24)
(0.959703 0.0182917 1.42442e-23)
(0.85085 -0.0094946 1.31875e-22)
(0.00269161 -0.0755349 1.81813e-20)
(-0.0749886 0.00198108 -8.56291e-20)
(-0.119297 -0.0265338 -1.58816e-20)
(0.249946 0.00307835 6.38749e-21)
(0.882444 -0.00901241 -9.4538e-23)
(1.05482 0.0616479 1.57998e-20)
(1.0515 -0.0586286 -2.61936e-21)
(0.933913 -0.0457718 7.19011e-23)
(1.04501 -0.0672745 -7.14676e-21)
(0.353779 0.0282106 1.03458e-21)
(0.936188 -0.0139112 4.49301e-22)
(0.824313 -0.0096236 7.78297e-23)
(0.926434 0.0125384 7.22258e-23)
(0.909358 -0.0113261 5.32601e-23)
(0.74604 0.000289473 3.25375e-23)
(0.019799 -0.045043 -2.80441e-21)
(0.900015 -0.0129694 -1.77475e-22)
(-0.0861011 0.0519539 -4.25553e-21)
(0.507962 0.0795093 -1.63891e-20)
(0.713593 -0.010729 -6.18888e-22)
(0.0528788 0.0549008 -1.24116e-20)
(0.738864 0.00150976 -1.23048e-23)
(0.782957 0.00760242 -2.85496e-22)
(-0.0947432 -0.00114107 1.79369e-21)
(-0.134657 0.00559916 -2.17098e-21)
(0.0388308 -0.0385387 -9.83638e-21)
(0.770866 -0.00827098 2.34807e-23)
(0.707788 0.0128595 7.20622e-25)
(-0.0515303 -0.0769065 -5.38888e-23)
(-0.0484058 0.0967139 5.35775e-22)
(0.984154 0.00745872 6.46089e-23)
(-0.0487364 0.11311 -2.22876e-20)
(0.963889 0.015338 -1.42985e-23)
(1.00966 -0.00782811 3.85696e-23)
(0.814661 -0.0417228 2.53591e-21)
(0.915858 0.0210316 -6.63391e-24)
(0.827326 0.00832755 1.63991e-22)
(0.917686 -0.0779216 6.9489e-21)
(0.0152182 -0.0377567 -1.76382e-21)
(0.00567519 -0.0578927 -4.56626e-20)
(0.2097 -0.013326 8.47012e-21)
(-0.0651192 -0.0570698 8.41588e-21)
(-0.0549653 0.0197532 1.43006e-20)
(1.00708 -0.00840682 3.28424e-23)
(0.754774 -0.00205999 -9.50804e-25)
(0.929546 -0.0480207 5.46965e-22)
(0.327971 0.0207004 8.59354e-21)
(-0.0093645 0.0776792 1.10651e-20)
(0.669245 -0.00584101 3.36243e-22)
(0.98557 0.00930675 8.20572e-25)
(0.979037 -0.00943425 1.05285e-23)
(-0.0655761 -0.0422797 -1.17172e-20)
(0.976248 -0.00934564 3.20142e-22)
(1.08206 -0.0375441 -6.72705e-21)
(0.424824 0.0217672 1.20575e-21)
(0.653993 -0.100128 -4.00106e-21)
(0.468613 -0.0291749 -8.44914e-22)
(-0.0586941 -0.0897837 -3.96871e-21)
(0.669867 -0.00718285 2.89084e-22)
(1.0105 -0.00716024 -5.98306e-23)
(0.872139 -0.00855984 2.9947e-22)
(0.603497 -0.0149575 3.60468e-23)
(0.75979 0.00388489 2.00108e-23)
(0.144579 -0.00998162 8.58859e-21)
(0.851334 -0.0118258 -1.81993e-22)
(-0.0236643 0.00625673 -3.60448e-21)
(0.599039 0.0351009 -9.27525e-21)
(-0.0597653 0.0299625 -1.08146e-21)
(0.633683 0.0858245 -4.29457e-22)
(-0.0626793 0.0494257 -1.09078e-21)
(-0.0417683 0.0156888 -2.21694e-20)
(0.847553 -0.0322446 -1.93682e-21)
(0.743273 0.0494966 1.12406e-21)
(-0.132571 -0.00606034 7.55132e-20)
(0.382157 0.0903964 -1.0355e-20)
(0.209227 -0.0663906 -1.86819e-20)
(0.0254421 0.0369573 -5.16297e-21)
(-0.00449036 0.0709915 3.06379e-20)
(0.59432 0.104433 2.45164e-20)
(0.118167 0.0228389 -2.50917e-20)
(0.258178 0.0780649 1.87042e-20)
(0.808946 0.0109296 -1.91018e-22)
(0.863198 -0.0106791 -3.06518e-23)
(-0.0210593 -0.0171115 2.22839e-20)
(-0.0549597 -0.10177 -2.95017e-21)
(-0.0826923 -0.0140484 4.04261e-20)
(0.713219 0.0426382 1.20392e-23)
(0.210218 0.0780574 -3.17341e-20)
(0.480837 0.0121827 9.23654e-23)
(0.979964 -0.0283332 -3.64671e-23)
(0.612347 0.00712684 7.83543e-22)
(0.989541 -0.0187144 1.0478e-23)
(0.977905 -0.0717539 2.68983e-21)
(0.929325 0.0145918 3.39204e-23)
(0.899231 -0.0127212 -1.08336e-22)
(-0.140794 0.0131261 2.54194e-20)
(0.807483 -0.00906816 2.2503e-23)
(0.750352 0.00210946 5.66064e-23)
(0.402055 -0.014788 3.07053e-20)
(0.484436 0.103236 6.96037e-21)
(0.9295 -0.0808107 2.38732e-21)
(1.00658 -0.00902192 2.33393e-23)
(0.488578 0.0284404 -4.28608e-22)
(0.0357566 -0.0505004 -5.58738e-21)
(0.603249 0.0272145 -3.35966e-22)
(0.766706 -0.00640225 -1.19401e-22)
(0.962264 0.0164689 -6.66102e-24)
(0.739863 -0.1066 -1.44952e-20)
(0.517079 0.0730268 2.02372e-21)
(0.837764 -0.0985382 -4.46353e-21)
(0.967152 0.0139884 -6.87618e-24)
(0.641967 0.0827451 -3.51594e-23)
(0.177127 0.0150724 -1.88812e-21)
(0.730579 0.00317409 7.08055e-23)
(0.743626 0.00129087 -4.21262e-23)
(0.0805114 0.00661786 -8.53532e-21)
(-0.10383 -0.0369692 9.19674e-21)
(-0.0363615 -0.100434 -3.27361e-20)
(0.321768 -0.0187611 9.56349e-21)
(0.0459049 -0.0546566 -9.91258e-23)
(0.763932 0.0839236 9.84051e-22)
(-0.0141716 0.0707156 2.07966e-20)
(0.479322 0.0452768 -4.37284e-22)
(0.674552 0.0324303 -6.8851e-23)
(0.904531 0.0287786 1.23971e-22)
(0.71037 0.0266608 -9.91248e-24)
(0.265498 0.0915427 1.26308e-20)
(0.776789 -0.0270585 7.18893e-25)
(1.00413 -0.00779677 -8.92454e-23)
(0.990736 -0.0177405 -2.51051e-23)
(0.115476 0.061463 1.7638e-20)
(-0.17106 0.000893639 3.10917e-20)
(0.544632 -0.0730467 -1.14103e-21)
(0.979181 -0.0698554 -6.20142e-22)
(0.451146 0.0137027 -3.64775e-22)
(0.624533 -0.0530287 4.09752e-22)
(0.412422 0.0105785 -2.73015e-22)
(0.456081 0.00875466 4.72015e-22)
(0.188112 0.0131924 1.19714e-20)
(0.483974 0.00768704 -2.39322e-22)
(0.125159 0.0139898 1.69311e-20)
(0.668753 -0.0528717 1.21942e-21)
(0.773154 0.0280962 -5.66839e-23)
(0.577625 -0.0575063 -4.6035e-21)
(0.51955 0.00348153 -1.05009e-22)
(0.771936 0.014346 3.64327e-22)
(0.543796 0.00562079 1.19165e-22)
(0.772785 0.0271635 4.93945e-24)
(0.50126 0.0791645 -4.72313e-21)
(0.868189 0.0191682 1.89669e-23)
(0.567237 0.00248136 -6.31543e-22)
(0.387091 0.0572511 -7.02346e-21)
(0.647648 0.0802554 1.41557e-21)
(0.595397 0.00544059 -6.15552e-22)
(0.789548 -0.0167801 7.38108e-23)
(0.422343 0.00460496 6.27414e-22)
(0.377007 0.000211381 3.16305e-22)
(0.3329 -0.00239916 5.41739e-22)
(0.269197 0.00649378 -5.72107e-21)
(0.212835 0.00981555 -6.94631e-21)
(0.464056 0.00237977 -3.16378e-22)
(0.142985 0.00163685 -1.42833e-20)
(0.490853 0.00211343 2.34865e-23)
(0.636079 -0.0577806 8.05123e-22)
(0.529132 0.000261157 -8.54493e-24)
(0.700943 -0.0523399 -1.62726e-22)
(0.547985 0.00226011 8.4468e-23)
(0.658639 -0.0199261 -3.61746e-23)
(0.715419 -0.0247215 -5.72876e-25)
(0.576704 0.00126268 -7.05232e-23)
(0.610969 0.00425871 -6.46058e-22)
(0.598491 0.00103407 2.94261e-22)
(0.955416 -0.0208334 -1.16186e-22)
(0.814582 0.0186808 -7.79278e-24)
(-0.163188 -0.00011641 -2.70573e-20)
(0.953639 -0.009003 -6.04739e-23)
(0.817897 -0.0174002 -1.88196e-22)
(0.809361 0.0202208 8.56328e-23)
(0.614072 0.00104301 5.99773e-22)
(0.819612 -0.00785253 2.54703e-22)
(0.555376 -0.0398845 1.97157e-21)
(0.625451 0.00257732 2.63419e-23)
(0.390299 0.0154841 1.35443e-21)
(0.341765 0.0138195 4.18448e-22)
(0.508775 0.0120514 2.70667e-22)
(0.633893 -0.000850194 -2.94714e-22)
(0.812249 0.0180613 -1.09247e-24)
(0.735124 -0.00425348 -5.8463e-23)
(0.837463 -0.0688968 -1.4941e-21)
(0.858563 -0.0546462 -9.01324e-22)
(0.080108 -0.0200028 3.11116e-20)
(0.943787 -0.0117114 -1.84734e-22)
(0.430107 -0.0181814 -3.15601e-22)
(0.650274 0.000588397 -2.70113e-22)
(0.608286 -0.014034 -5.18358e-23)
(0.752844 -0.00624673 -1.8986e-22)
(0.81905 0.0177354 2.073e-23)
(0.268088 0.0319044 -1.05251e-22)
(0.654192 0.0193608 -4.93527e-22)
(0.00376247 0.00384735 -4.77568e-21)
(0.642517 0.00590461 1.15659e-22)
(0.898255 -0.00881542 -7.18903e-23)
(0.832357 0.0119915 7.44213e-23)
(1.00135 -0.00729577 -1.33221e-22)
(0.662116 0.00177048 -6.80866e-23)
(0.698209 0.0358536 1.01373e-22)
(-0.0542084 0.0831579 -1.53753e-20)
(0.975945 -0.00889798 1.89517e-22)
(0.659219 0.00599284 -5.99857e-24)
(0.107897 -0.00503177 8.90642e-21)
(0.664863 0.0011217 3.61882e-22)
(0.81476 0.0120286 -1.75525e-23)
(0.782327 0.00993328 1.37021e-22)
(0.388033 -0.0252132 -4.05355e-20)
(0.787337 0.0125814 9.64381e-23)
(1.01552 -0.00709171 -3.6114e-23)
(0.51348 0.0758014 2.46401e-21)
(0.812546 0.0190014 -3.67627e-23)
(0.0133544 0.0579871 4.77348e-21)
(0.654024 -0.0646365 -3.8853e-21)
(0.694264 -0.0562533 -3.94683e-21)
(0.242292 0.0109945 -3.71218e-21)
(0.294829 0.003936 -6.60735e-21)
(0.166283 -0.0180063 3.53239e-20)
(0.760756 0.0147655 -2.1097e-22)
(0.476017 -0.00169639 7.22008e-22)
(0.490427 0.0267898 -2.66353e-22)
(0.405522 0.0313586 2.09159e-21)
(0.502547 -0.000357494 2.14665e-22)
(0.844286 0.0465327 -3.8997e-22)
(0.557867 0.000832479 2.06045e-22)
(0.346121 0.0895491 -3.55884e-20)
(0.58453 0.00443835 2.4061e-23)
(0.680173 0.000911731 1.58536e-22)
(0.222692 -0.00179462 -5.20386e-21)
(0.278909 -0.00676366 3.21666e-21)
(0.308543 0.0455034 8.71251e-21)
(-0.104125 -0.0163615 -1.69577e-20)
(0.729396 -0.0503396 1.96516e-21)
(0.805925 0.0120538 4.83178e-23)
(0.223591 0.0782225 1.78397e-20)
(0.695993 0.0568267 -6.53857e-22)
(0.715224 0.0238783 -2.91311e-22)
(0.605956 -0.00141085 5.92924e-23)
(0.552791 -0.00253308 -1.21619e-23)
(-0.0450188 0.0456385 3.32816e-21)
(0.901549 0.00919518 3.2027e-23)
(0.656238 -0.046304 -1.36566e-21)
(0.675882 0.00412344 8.50979e-23)
(0.920451 0.0172597 -7.01429e-24)
(0.650844 0.0113118 -3.27138e-22)
(0.679239 0.00622451 -2.2635e-22)
(0.677388 0.00246992 -3.09571e-22)
(0.621767 -0.00205649 -6.16209e-22)
(0.83024 -0.0184972 -2.53626e-23)
(0.719944 -0.0234948 4.08901e-23)
(0.747983 -0.0141485 1.35602e-22)
(0.656323 0.00191505 2.17956e-22)
(0.822294 -0.0166819 -1.16968e-22)
(0.00517987 0.0460991 1.73164e-20)
(0.545116 0.0167576 7.47857e-23)
(0.80369 -0.0107031 -3.14657e-22)
(0.617294 0.01417 1.79282e-22)
(0.636779 0.0108235 4.04373e-22)
(0.852372 -0.0172104 1.20912e-22)
(0.167618 -0.0281372 -1.53022e-20)
(0.675982 0.0445817 2.37607e-22)
(0.586516 0.0535155 -4.93194e-22)
(0.743119 0.0356329 1.3586e-22)
(0.759357 0.0154069 2.77192e-22)
(0.819779 0.0126422 -3.34513e-22)
(0.810261 0.0177395 1.54334e-23)
(0.774456 -0.0154808 -5.03162e-23)
(0.377839 -0.0939148 -5.59188e-21)
(0.737576 -0.0680062 8.33934e-21)
(0.279976 -0.023063 -1.95447e-21)
(0.821195 -0.0330568 1.54134e-22)
(0.685505 0.00370182 1.91661e-22)
(0.510463 -0.0121175 1.64597e-22)
(-0.0435366 0.105045 8.7834e-21)
(0.647477 0.0451688 -4.21176e-22)
(0.977818 0.0306813 -2.55234e-22)
(0.973933 0.0469585 3.65017e-22)
(0.997246 0.0127464 4.06314e-24)
(0.992041 0.0163512 -3.0931e-23)
(0.976543 -0.0552535 -2.36462e-21)
(0.988354 -0.019651 7.95448e-23)
(0.988626 0.0192367 1.66145e-25)
(1.00517 0.0100029 1.87899e-23)
(0.981691 -0.0268336 8.33104e-23)
(1.00112 0.0114845 -3.66893e-23)
(0.993232 -0.0149545 -5.90761e-23)
(0.998877 0.0121158 2.64907e-23)
(0.999888 0.00954953 1.49754e-22)
(1.00751 0.00926368 -2.20506e-24)
(0.985227 0.0205285 -3.09588e-23)
(0.978722 -0.0302503 9.31726e-23)
(0.992377 -0.0167975 -4.37077e-23)
(0.990434 0.0178729 -3.92324e-23)
(0.981808 -0.0666689 1.71475e-21)
(0.665366 0.00937067 1.41073e-22)
(0.63091 -0.00772494 1.33057e-22)
(0.113077 0.00639806 -2.54727e-20)
(0.184776 -0.013551 -1.06801e-20)
(1.00646 -0.00796463 1.47033e-22)
(0.950955 0.00827106 5.02065e-23)
(0.72843 0.0125221 -8.92009e-22)
(0.681984 -0.0733097 1.11998e-21)
(0.348878 -0.000589455 1.80611e-22)
(0.571265 0.0551957 -3.33008e-22)
(0.392431 -0.00131423 -3.79191e-22)
(0.704162 0.025105 -1.64861e-23)
(0.980367 0.0268275 -4.69665e-22)
(0.977666 0.0292753 -4.48053e-23)