/*--------------------------------*- C++ -*----------------------------------*\
  =========                 |
  \\      /  F ield         | OpenFOAM: The Open Source CFD Toolbox
   \\    /   O peration     | Website:  https://openfoam.org
    \\  /    A nd           | Version:  10
     \\/     M anipulation  |
\*---------------------------------------------------------------------------*/
FoamFile
{
    format      ascii;
    class       volScalarField;
    location    "950";
    object      epsilon;
}
// * * * * * * * * * * * * * * * * * * * * * * * * * * * * * * * * * * * * * //

dimensions      [0 2 -3 0 0 0 0];

internalField   nonuniform List<scalar> 
10435
(
0.0351225
0.10511
0.175156
0.0896709
0.453478
0.578674
0.122805
0.0390219
0.0197308
0.414311
0.196317
0.109843
0.346296
0.0236384
0.0236315
0.0893074
0.0238234
0.458303
0.0147079
0.0395734
0.0594054
0.0594362
0.12821
0.0306358
0.333127
0.00911286
0.0156338
0.239712
0.0143477
0.461068
0.214174
0.257931
0.0306092
0.0148494
0.0501694
0.0415535
0.072866
0.0163415
0.00589769
0.0200468
0.534725
0.134404
0.0179166
0.0685433
0.109813
0.0260102
0.549802
0.0171417
0.015128
0.03908
0.0473331
0.375093
0.00575843
0.0110903
0.00661687
0.0128539
0.0586695
0.0176384
0.0228425
0.0393043
0.00658016
0.0761044
0.017648
0.372007
0.121621
0.222317
0.020865
0.0208934
0.0498171
0.0324526
0.0107635
0.0126398
0.0117283
0.193469
0.0240247
0.0169062
0.0355074
0.0968404
0.0238826
0.0223227
0.0393391
0.0258321
0.0056423
0.0114735
0.0390683
0.0339413
0.040071
0.0914228
0.0260902
0.0489639
0.112283
0.136199
0.0278235
0.0289215
0.0603557
0.0322809
0.144065
0.0237314
0.0233456
0.211113
0.0246034
0.664992
0.0334839
0.0743162
0.664888
0.0798466
0.0300611
0.0393814
0.0391585
0.0225352
0.0374532
0.633801
0.0242372
0.0231608
0.210806
0.0552864
0.206477
0.042114
0.117409
0.1388
0.189588
0.0133226
0.0537228
0.0188749
0.429312
0.00790115
0.142017
0.0144114
0.313808
0.0150318
0.016331
0.335331
0.0634937
0.0224075
0.0142794
0.00555337
0.0286922
0.0943545
0.0904845
0.0498519
0.044508
0.162144
0.0188005
0.220648
0.0614186
0.0210585
0.0226787
0.466853
0.0229259
0.147727
0.0147361
0.0956398
0.0423931
0.16674
0.431094
0.0119583
0.51695
0.0695849
0.435237
0.172624
0.138754
0.0227019
0.192683
0.0643661
0.0248783
0.270007
0.030083
0.0936657
0.0623301
0.284188
0.340472
0.00966683
0.014194
0.0220582
0.101379
0.11756
0.055476
0.0223401
0.0351053
0.0161286
0.144719
0.599763
0.136083
0.00739238
0.145117
0.0147715
0.0146619
0.081716
0.499412
0.288124
0.153025
0.00562557
0.014047
0.0384302
0.586587
0.0634682
0.0204146
0.0284176
0.0200002
0.0838268
0.0257692
0.0162118
0.287702
0.0175191
0.240263
0.291415
0.151748
0.0944418
0.0183053
0.0614332
0.0123727
0.142333
0.199653
0.0737232
0.0155932
0.0228584
0.0261927
0.00778406
0.00923872
0.0230933
0.0148683
0.0237216
0.0202495
0.0209261
0.010722
0.0583269
0.00742418
0.0249751
0.267554
0.0173489
0.0227609
0.041521
0.00827421
0.085679
0.0163247
0.0238929
0.0509521
0.0104816
0.0493321
0.267832
0.0585977
0.0092407
0.00863828
0.0124437
0.244676
0.0223816
0.0262189
0.0512972
0.0111107
0.0791976
0.0106819
0.0280861
0.373998
0.0615576
0.0669017
0.375933
0.00982154
0.0807388
0.0106907
0.0163499
0.0970377
0.328723
0.00904725
0.0459857
0.0283207
0.0235987
0.0498839
0.175283
0.00673669
0.307392
0.117708
0.0364663
0.0530817
0.296267
0.0102883
0.135711
0.0154722
0.43455
0.0802485
0.0301437
0.364055
0.0210368
0.142084
0.023298
0.0314601
0.00665692
0.498678
0.00664381
0.0118269
0.0154335
0.0223165
0.247152
0.0183183
0.0434586
0.00601508
0.0105155
0.0204979
0.0313233
0.389258
0.248906
0.020988
0.0512828
0.168204
0.0122438
0.326852
0.0231227
0.0231075
0.0770226
0.236123
0.0120339
0.0325743
0.0143384
0.0541133
0.503877
0.0269061
0.0109343
0.00800477
0.207225
0.0220667
0.0971904
0.656325
0.0161992
0.0362135
0.00560864
0.0247491
0.297122
0.0114183
0.197508
0.022277
0.0167298
0.0287765
0.0168818
0.0120864
0.15228
0.116647
0.0188193
0.0114286
0.0113619
0.0133676
0.0137331
0.0123816
0.0123524
0.00650348
0.0141007
0.0135428
0.0139864
0.0198942
0.0165569
0.00559199
0.0201134
0.0124367
0.289744
0.0151166
0.231947
0.0207026
0.0130146
0.339435
0.176701
0.0118167
0.013436
0.0114644
0.00809702
0.0133152
0.00665573
0.0152927
0.013247
0.0191515
0.0882013
0.0129335
0.017853
0.0073188
0.0141857
0.373091
0.0106989
0.00695839
0.01546
0.01692
0.0160957
0.0131503
0.0101957
0.0179876
0.00698678
0.0273479
0.0204945
0.0417271
0.0177231
0.270421
0.310057
0.0154465
0.203414
0.037034
0.0184978
0.0118852
0.0135522
0.0112236
0.17663
0.0125214
0.381649
0.0173023
0.0164567
0.0148538
0.0178661
0.00896758
0.105059
0.0164347
0.0336526
0.0711809
0.00968118
0.0111617
0.0162823
0.0116907
0.0161859
0.0120237
0.0102025
0.0131388
0.0186343
0.0148121
0.199598
0.0108289
0.0115047
0.0147445
0.0157777
0.448536
0.00741156
0.00599451
0.00853938
0.0132559
3.25152e-05
3.07695e-05
2.85719e-05
2.62126e-05
2.38889e-05
2.15634e-05
1.92074e-05
1.67842e-05
1.42589e-05
3.42462e-05
3.21315e-05
2.95673e-05
2.69266e-05
2.43522e-05
2.18437e-05
1.93768e-05
1.69483e-05
1.45896e-05
3.66021e-05
3.4061e-05
3.10929e-05
2.81164e-05
2.52577e-05
2.25224e-05
1.98968e-05
1.7388e-05
1.50387e-05
3.99123e-05
3.68581e-05
3.33959e-05
3.00021e-05
2.67848e-05
2.37492e-05
2.08848e-05
1.81952e-05
1.57096e-05
4.46024e-05
4.09138e-05
3.68144e-05
3.2873e-05
2.91769e-05
2.57283e-05
2.25122e-05
1.95202e-05
1.67514e-05
5.12836e-05
4.67799e-05
4.18278e-05
3.71414e-05
3.27864e-05
2.87603e-05
2.50395e-05
2.16042e-05
1.84361e-05
6.08968e-05
5.5266e-05
4.91329e-05
4.34108e-05
3.81362e-05
3.32979e-05
2.88618e-05
2.48026e-05
2.11044e-05
7.49543e-05
6.75566e-05
5.97507e-05
5.25781e-05
4.60154e-05
4.00306e-05
3.45761e-05
2.9626e-05
2.51793e-05
9.55781e-05
8.53137e-05
7.51713e-05
6.59857e-05
5.76251e-05
5.00188e-05
4.31035e-05
3.68465e-05
3.12496e-05
0.000125156
0.00011077
9.75555e-05
8.56404e-05
7.47925e-05
6.49002e-05
5.58889e-05
4.77112e-05
4.03405e-05
0.000166033
0.000146906
0.000130006
0.000114504
0.000100261
8.71734e-05
7.51821e-05
6.42357e-05
5.42924e-05
0.000220686
0.000197915
0.000176947
0.000156842
0.000138032
0.00012054
0.000104378
8.95146e-05
7.59303e-05
0.000292718
0.000270184
0.000244621
0.000218566
0.000193662
0.000170205
0.000148324
0.00012803
0.000109379
0.000398579
0.000373932
0.000341452
0.00030731
0.000274299
0.000242932
0.000213415
0.000185798
0.000160231
0.000555387
0.000520789
0.000476917
0.000431665
0.000388096
0.000346588
0.000307255
0.000270089
0.000235115
0.000776165
0.000719828
0.000659118
0.000599551
0.000542966
0.000489135
0.000437885
0.000389122
0.000342861
0.00106008
0.000973506
0.000892517
0.000816614
0.000745312
0.000677534
0.000612696
0.000550614
0.000491575
0.00138833
0.00127749
0.00117781
0.00108595
0.000999734
0.000917486
0.000838186
0.000761415
0.000687393
0.00175381
0.00162863
0.00151503
0.00140977
0.00131016
0.00121437
0.00112101
0.0010293
0.000939132
0.00215989
0.00202924
0.00190673
0.00179159
0.0016815
0.00157461
0.00146912
0.0013639
0.00125887
0.00261697
0.00248655
0.00235872
0.00223725
0.00212059
0.00200652
0.00189244
0.00177635
0.00165747
0.00313963
0.00301028
0.00287864
0.0027542
0.00263601
0.00252044
0.00240352
0.00228186
0.00215375
0.00374821
0.00361066
0.00347409
0.00335037
0.00323731
0.00312816
0.00301685
0.00289824
0.00277002
0.00446643
0.00429492
0.00414996
0.00403239
0.00393373
0.00384169
0.00374746
0.00364349
0.00352684
0.00531051
0.00505957
0.00490755
0.00480613
0.00473535
0.00467384
0.00461087
0.00453757
0.00442985
0.000660743
0.000647526
0.00063804
0.000632272
0.000630213
0.000631776
0.000636847
0.000645223
0.00065669
0.000670941
0.000687658
0.000706473
0.000726944
0.00074861
0.000770911
0.000793271
0.00081507
0.000835657
0.000854385
0.000870611
0.000883649
0.000892723
0.000896673
0.000893868
0.000884012
0.000868614
0.000848118
0.000822014
0.000790122
0.000754332
0.000715406
0.000673664
0.00062961
0.000584087
0.000537855
0.000491622
0.00044604
0.000401704
0.000359134
0.000318769
0.000280949
0.000245915
0.000213798
0.000184624
0.000158379
0.00013506
0.000114644
9.70676e-05
8.22055e-05
6.98818e-05
5.98592e-05
5.18612e-05
4.56044e-05
4.08176e-05
3.72646e-05
3.47484e-05
3.31152e-05
3.2252e-05
3.20682e-05
0.000685181
0.000673946
0.000666194
0.000661949
0.000661177
0.000663791
0.000669631
0.000678458
0.000689933
0.000703608
0.000719098
0.000736097
0.000754252
0.00077316
0.000792366
0.000811376
0.000829661
0.000846674
0.000861857
0.000874654
0.000884501
0.000890812
0.000892916
0.000889981
0.000881218
0.000866254
0.000845155
0.000818402
0.000786892
0.000751596
0.00071315
0.000672047
0.000628814
0.000584071
0.000538474
0.000492683
0.000447333
0.000403014
0.000360252
0.000319496
0.000281114
0.000245388
0.000212517
0.000182625
0.000155793
0.000132071
0.000111453
9.38695e-05
7.9164e-05
6.70746e-05
5.73e-05
4.95328e-05
4.34753e-05
3.88543e-05
3.54259e-05
3.29914e-05
3.13967e-05
3.05314e-05
3.03006e-05
0.000695964
0.000686182
0.000679327
0.000675395
0.000674359
0.000676153
0.000680676
0.000687784
0.000697284
0.000708925
0.000722408
0.000737401
0.000753535
0.00077041
0.000787593
0.000804615
0.000820983
0.000836182
0.000849678
0.000860925
0.00086935
0.000874337
0.000875221
0.000871315
0.00086207
0.000847213
0.000826765
0.000801041
0.000770648
0.000736342
0.000698813
0.000658656
0.00061645
0.000572797
0.000528313
0.000483609
0.000439273
0.000395853
0.000353844
0.000313676
0.000275716
0.000240267
0.000207572
0.00017782
0.000151151
0.000127644
0.000107301
9.003e-05
7.56443e-05
6.38754e-05
5.44114e-05
4.69214e-05
4.10948e-05
3.66501e-05
3.3347e-05
3.09909e-05
2.94308e-05
2.85589e-05
2.82868e-05
0.000682556
0.000673461
0.000667096
0.000663427
0.000662387
0.000663885
0.000667801
0.000673985
0.000682257
0.000692403
0.000704177
0.000717301
0.000731465
0.000746325
0.000761498
0.000776565
0.000791075
0.000804543
0.000816457
0.000826277
0.000833439
0.000837354
0.000837428
0.000833092
0.000823883
0.000809538
0.000790043
0.000765651
0.000736839
0.00070422
0.000668427
0.000630076
0.000589766
0.000548085
0.000505617
0.000462926
0.000420549
0.00037899
0.000338707
0.000300109
0.000263559
0.000229369
0.000197805
0.000169088
0.000143377
0.000120759
0.000101235
8.47065e-05
7.09798e-05
5.9788e-05
5.08214e-05
4.37469e-05
3.82497e-05
3.40545e-05
3.09311e-05
2.86951e-05
2.7204e-05
2.63542e-05
2.60617e-05
0.000654912
0.000646576
0.000640748
0.000637387
0.000636422
0.000637751
0.000641251
0.000646773
0.000654144
0.000663167
0.000673621
0.000685257
0.000697799
0.000710939
0.000724334
0.000737607
0.000750345
0.0007621
0.000772395
0.000780724
0.000786559
0.000789364
0.000788617
0.00078384
0.000774661
0.000760869
0.000742444
0.000719572
0.000692614
0.000662061
0.000628467
0.000592407
0.000554464
0.000515209
0.000475196
0.000434961
0.000395001
0.000355788
0.000317758
0.000281302
0.000246776
0.000214488
0.000184708
0.000157652
0.000133474
0.000112251
9.39695e-05
7.85242e-05
6.57212e-05
5.52991e-05
4.69561e-05
4.03798e-05
3.52744e-05
3.13789e-05
2.8475e-05
2.63884e-05
2.49854e-05
2.41698e-05
2.3863e-05
0.000612912
0.000605005
0.000599454
0.000596215
0.000595212
0.000596341
0.00059947
0.000604449
0.000611101
0.000619234
0.000628632
0.000639061
0.000650264
0.000661956
0.000673821
0.000685515
0.00069666
0.000706847
0.000715643
0.000722594
0.000727227
0.00072907
0.000727671
0.000722628
0.000713629
0.000700505
0.000683242
0.000661991
0.000637043
0.000608798
0.000577736
0.000544377
0.00050927
0.000472954
0.000435946
0.000398748
0.000361822
0.000325602
0.000290504
0.000256897
0.000225113
0.000195439
0.000168122
0.000143356
0.000121274
0.000101931
8.53002e-05
7.12706e-05
5.96536e-05
5.02025e-05
4.26377e-05
3.66739e-05
3.20424e-05
2.85063e-05
2.58677e-05
2.39656e-05
2.2678e-05
2.1918e-05
2.16152e-05
0.00055907
0.000551563
0.00054623
0.000543036
0.000541919
0.000542778
0.000545489
0.000549904
0.000555853
0.000563144
0.000571572
0.00058091
0.000590914
0.000601316
0.000611823
0.000622121
0.000631863
0.000640669
0.000648153
0.000653907
0.000657513
0.000658559
0.00065667
0.000651515
0.000642821
0.000630466
0.000614451
0.000594913
0.000572082
0.000546294
0.000517975
0.000487585
0.000455651
0.00042268
0.000389136
0.000355488
0.00032215
0.000289516
0.000257987
0.000227884
0.000199493
0.000173061
0.000148791
0.000126844
0.000107318
9.02435e-05
7.55818e-05
6.32204e-05
5.29843e-05
4.46514e-05
3.79743e-05
3.27029e-05
2.86026e-05
2.54664e-05
2.31207e-05
2.14257e-05
2.02741e-05
1.95872e-05
1.93021e-05
0.000491426
0.000484043
0.000478678
0.000475323
0.000473932
0.000474421
0.000476671
0.000480545
0.000485866
0.000492432
0.000500065
0.000508516
0.000517548
0.000526899
0.000536307
0.000545519
0.000554223
0.000562033
0.000568615
0.000573548
0.000576464
0.000576998
0.000574894
0.000569921
0.000561777
0.000550426
0.000535868
0.000518257
0.00049772
0.000474552
0.000449165
0.000421982
0.000393559
0.000364373
0.000334765
0.000305194
0.00027603
0.000247603
0.00022031
0.000194373
0.000170018
0.000147427
0.00012675
0.000108104
9.1557e-05
7.71045e-05
6.47101e-05
5.42582e-05
4.55917e-05
3.85198e-05
3.28367e-05
2.83373e-05
2.48284e-05
2.21397e-05
2.01268e-05
1.86723e-05
1.76848e-05
1.70973e-05
1.6854e-05
0.000406636
0.0003991
0.000393485
0.000389861
0.000388233
0.000388495
0.00039048
0.000393927
0.00039886
0.000405298
0.000412671
0.000420749
0.000429216
0.000437739
0.000446314
0.000454664
0.000462801
0.000470612
0.000477203
0.000481891
0.000484461
0.000484736
0.000482727
0.000478205
0.00047102
0.000461068
0.000448414
0.000433132
0.000415167
0.000394689
0.000372334
0.000348587
0.000324011
0.00029906
0.000274
0.000248855
0.000224149
0.00020073
0.000178452
0.000157277
0.000137507
0.000119273
0.000102641
8.76477e-05
7.4319e-05
6.27179e-05
5.27833e-05
4.44596e-05
3.7561e-05
3.18692e-05
2.72338e-05
2.35319e-05
2.06374e-05
1.84202e-05
1.67623e-05
1.5576e-05
1.47881e-05
1.43407e-05
1.41833e-05
0.0106691
0.00952656
0.00849973
0.00755654
0.00668001
0.00586699
0.00511777
0.00443394
0.00381471
0.00325715
0.00277528
0.002381
0.00207
0.00182672
0.00162386
0.00144727
0.00129673
0.00117254
0.00107429
0.000997568
0.000934247
0.000877772
0.000822985
0.000765379
0.000700293
0.010203
0.009319
0.0083902
0.00747717
0.00660508
0.00578679
0.00503104
0.0043421
0.00372205
0.00317421
0.00270363
0.0023113
0.00199189
0.00173527
0.00152872
0.00136173
0.00122726
0.00112003
0.00103558
0.000969215
0.000915536
0.000869027
0.000824705
0.000777892
0.000723704
0.010263
0.00930868
0.00834646
0.00740791
0.00651296
0.00567602
0.00490705
0.00421157
0.00359287
0.00305319
0.00259246
0.00220723
0.00189125
0.00163639
0.00143369
0.0012746
0.00115136
0.0010569
0.000984961
0.000929978
0.000886624
0.000849647
0.000814055
0.000775272
0.000729182
0.0104279
0.00935017
0.0083116
0.00732265
0.00639428
0.00553616
0.00475569
0.00405723
0.00344272
0.00291185
0.0024615
0.00208609
0.00177861
0.00153142
0.00133669
0.00118659
0.00107329
0.000989221
0.000927474
0.000881949
0.000847103
0.000817658
0.000788584
0.000755316
0.000713622
0.0106133
0.00941592
0.00828811
0.00723593
0.0062658
0.0053828
0.00459027
0.00388951
0.00327964
0.00275758
0.00231798
0.0019538
0.00165728
0.00142059
0.00123599
0.00109571
0.00099195
0.00091706
0.000863948
0.000826253
0.00079823
0.00077456
0.00075027
0.000721093
0.00068356
0.0107742
0.00946878
0.00825092
0.00713266
0.00611925
0.00521149
0.00440802
0.00370628
0.00310214
0.00258988
0.00216227
0.00181102
0.00152752
0.00130338
0.00113047
0.00100081
0.000906538
0.000840081
0.0007944
0.000763128
0.000740533
0.000721412
0.000700791
0.000674847
0.000640175
0.0109227
0.00950277
0.00818889
0.0070029
0.00594746
0.00501729
0.00420522
0.0035045
0.00290788
0.00240716
0.00199341
0.00165717
0.00138883
0.00117908
0.00101921
0.000900908
0.000816234
0.000757775
0.000718701
0.00069281
0.000674496
0.000658709
0.000640896
0.000617312
0.000585001
0.0110803
0.00950708
0.00808546
0.00683286
0.00574055
0.0047933
0.00397685
0.00328015
0.00269364
0.00220691
0.00180946
0.00149075
0.00124017
0.00104686
0.000901457
0.000795307
0.000720423
0.000669674
0.000636603
0.000615294
0.00060032
0.000586933
0.00057077
0.000548247
0.00051689
0.0112103
0.00944902
0.00791642
0.00660685
0.00548917
0.00453381
0.00371956
0.00303008
0.00245623
0.00198667
0.00160808
0.00130991
0.00108071
0.000906178
0.000776776
0.000683709
0.000618772
0.000575444
0.000547951
0.00053074
0.000518298
0.000506539
0.000490622
0.000466268
0.000432554
0.428814
0.405872
5.98397
0.193109
0.000233257
0.000335965
0.0303601
3.08253e-05
5.40516
2.09597e-05
3.3269
0.000121815
0.00194178
0.00064092
0.0224837
0.000260549
4.17383
0.127354
1.30957e-05
0.127626
0.00234998
0.00011923
3.54956
0.00113825
2.22483e-05
5.02649e-05
2.19284e-05
0.00563164
0.661815
3.37736
1.30667e-05
8.16266e-05
2.52014
0.00357214
3.26184
0.000145896
0.0121181
0.0228903
0.0126892
0.000163835
3.85686
4.05222e-05
8.65494e-05
0.0159358
0.00299107
0.000187599
5.36273
6.1259
1.20791
1.28366
4.9153
3.07491
0.00162082
0.0984107
0.0277225
5.08594
0.000521375
0.00159586
8.60409e-05
2.90156
0.00026578
6.02897
0.000229231
0.000187212
3.22758e-05
0.015368
6.45226e-05
0.00447016
0.00211716
1.20794
4.54531
0.000168836
9.73157e-05
0.110582
2.30853e-05
0.00207815
0.0728822
5.3214
2.07498e-05
0.0650965
0.00318088
0.000411559
3.98451e-05
3.37998
0.000228701
0.000290134
7.58493e-05
5.08736
2.57748
0.000664829
0.0014028
0.000174129
4.38969e-05
0.000134264
0.000130388
3.34303
5.32844e-05
3.83124
0.000105955
2.78872
0.0017769
3.78088
0.00215029
0.000169365
6.94795e-05
0.00279525
3.74055
0.00311994
0.000150602
3.38125
0.000132209
0.000145198
3.58263
0.000158551
0.00156596
1.15868
2.54167
0.000134681
0.00161337
0.000105831
1.63099e-06
0.000129707
0.00110067
2.36844e-05
2.69552
8.33921e-05
3.1111
0.0574643
4.62155e-05
6.09551
3.6822e-05
0.102859
1.26723
0.00911778
0.00745112
7.72621e-05
0.00277007
0.000990053
0.000228039
0.151352
0.000107191
0.0119219
3.10179
3.92331e-07
0.82642
0.000322916
0.28688
0.0165092
0.000262064
3.36936
0.00388461
0.000275025
0.286225
0.0346838
2.77817e-05
3.27504
5.24714e-05
0.000130673
0.0638469
4.88205e-05
8.91747e-05
4.80122
0.000121577
4.10223
7.32384e-05
4.24202
0.000663024
2.22608e-05
0.000348523
6.35491e-05
0.000541309
0.000197356
0.00471301
3.7199
6.33446e-05
0.00364753
0.00711063
0.928815
1.7245
0.000111447
0.00824242
8.10877e-05
0.00159755
0.0101396
0.0120197
5.01629e-05
4.67335
0.000148269
1.567
0.000244886
4.89099
2.94737
0.612383
0.0114123
0.0280458
1.83931
2.24975e-05
0.000114733
0.979692
0.504296
0.00329152
0.000365386
0.000373586
0.000267862
0.00295016
4.08971e-05
7.93201e-05
0.0021758
1.31873
0.000102826
6.44079e-05
0.000160987
0.00746263
0.00267638
0.0046687
4.58816
0.000153345
3.23853e-05
0.000285778
0.00129377
0.0017701
4.95121e-05
3.2344e-05
5.17393
0.00343625
2.78677
0.000555652
4.09981
0.000138058
0.000115089
3.01348
0.000149395
8.376e-05
3.64974e-05
0.0126342
2.78684e-05
0.0512979
0.00326911
0.0105797
0.0378534
1.54633e-05
0.000265949
7.20451e-05
0.00994453
8.65743e-05
6.60267e-05
7.30476e-05
0.00471805
0.000248704
5.59561e-05
0.000120125
0.00402309
3.25764e-05
1.14708
8.13143e-05
2.61277e-05
3.49055
0.0666027
0.0601991
1.29398e-05
0.00438367
6.18969e-05
0.000157143
2.48272e-05
0.0954425
2.62176e-05
4.57827e-05
0.468526
0.031288
2.22821e-05
0.00367045
0.716731
0.000110403
3.29966e-05
1.43332e-05
0.478123
0.000108748
6.17989
0.000552517
3.70585
0.0181315
0.00407036
0.00355471
0.000184888
1.73408
0.00027446
0.00310239
0.0113212
4.63471
5.21858
0.0416963
0.000134093
1.43215e-05
4.97817
0.0083335
4.43613
4.04154
0.000111496
5.13795e-05
2.07096
3.23782
8.96376e-05
0.000291111
0.000291038
3.62739
5.81218e-05
0.00250719
3.30514e-05
0.151091
0.000387795
0.00017138
7.40869e-05
2.00652
3.59741e-05
0.000118342
0.0114016
5.89465
3.66292e-05
2.27545e-05
0.013732
0.0629541
6.79586e-05
0.000337051
1.31312e-05
8.41192e-05
2.67606e-05
2.45994
0.00338358
9.82679e-05
0.00172626
6.93958e-05
0.0268638
0.00133919
2.35385e-05
4.48808
0.000319906
6.72556e-05
4.37309e-05
3.02632e-05
0.00425076
0.000175872
0.000102
2.19884
6.47098e-05
0.0875724
0.000154824
0.000475434
8.86259e-05
7.27964e-05
5.19542
0.0773978
4.56691e-05
9.92459e-05
0.0572736
5.01028
0.00263365
0.0214531
0.0142633
7.2807e-05
5.76501
1.32734
3.21273
4.49258e-05
2.68143
3.39063e-05
6.5096e-05
0.000286456
5.95219
0.00013513
1.43815
0.000112832
0.0343346
0.639484
3.38423
0.0019603
3.43651e-05
6.35856e-05
7.07258e-05
5.38827e-05
2.49302e-05
3.9353
0.000188957
2.67073
0.0177638
0.015521
0.0146876
7.54053e-05
0.122386
3.0245
4.93113
0.01962
4.2491e-05
0.00217741
2.51551
0.00828806
1.66749e-05
6.01248e-05
2.4653
0.000130725
0.687091
3.27824e-05
8.73165e-05
0.000225485
0.884524
8.73748e-05
4.53495e-08
0.026395
0.00249659
0.010788
1.57923e-05
1.64932
0.000147492
2.03025
0.000215129
5.81321e-05
0.000588335
1.34687
5.1882
9.46466e-05
0.00016735
7.8985e-05
5.46478e-05
0.000791854
0.00271231
0.000290194
4.43947
1.52702e-05
0.000408181
2.46882e-05
8.04164e-05
0.000246421
2.91714e-05
0.000705902
1.93586e-05
0.0406175
0.000266664
0.000129299
1.01022e-05
8.41803e-05
0.000440224
4.58505e-05
0.0376303
4.88592
0.0125061
0.00229784
3.04957
0.00394356
2.04324
6.19111e-05
2.07949e-05
3.41142
8.21351e-05
0.00012101
1.92115
6.89292e-05
1.11016
5.36402
0.000284931
0.00149752
0.0479914
0.000134948
0.0110236
1.52163
0.00667225
3.86802
4.60428e-05
9.40271e-05
5.70937
4.42032e-05
3.07197
0.00406951
5.25456e-05
3.19541
0.00045905
2.42624e-05
0.00269683
0.000522702
4.32228e-05
0.0162418
0.0107426
0.00493422
0.0129098
5.47291e-06
0.000107685
3.25927
0.000172494
0.000382891
0.000222892
1.27538
0.000121996
0.0264421
0.000164767
5.14765e-05
2.43181
0.000124771
0.000172596
0.0249205
0.000250383
5.13648e-05
1.38269
8.93355e-05
0.0405519
0.000176195
0.0078773
0.00626547
0.00441599
0.000259149
0.000234325
0.0279557
7.28978e-05
9.81385e-05
0.00401101
6.22538e-05
0.000436074
5.29953e-05
5.89346
3.51186
1.43697
3.64446e-05
0.0108327
3.57672e-05
5.17033
0.132197
1.05105
0.00343266
0.000227947
4.20321
3.71612
4.11477e-05
0.000238392
0.00394365
0.000129589
0.730695
3.25609
0.000124574
0.0140978
8.82521e-05
1.83893
1.08716
0.000178124
0.0129913
3.64257
0.000111795
4.04418
0.000132725
4.26064
9.22853e-05
0.0013901
0.000242552
6.13033
0.0128055
0.0134417
4.35203e-05
1.19481
1.40206
5.99287
2.82359e-05
6.12805e-05
0.00171564
1.53959
2.8427e-05
0.0093153
8.9778e-05
0.0021922
3.45251
1.69319e-05
0.0095721
6.4616e-05
8.01017e-05
0.00548923
2.19446
0.000264574
0.0165995
0.00012199
0.000234672
3.52272
5.68814
1.59943
0.00164689
0.00597197
0.14615
0.00152901
0.000355425
3.91773e-05
3.0566e-05
2.45062
0.00010582
0.000341289
0.0180717
0.000310714
0.000581785
0.000341965
0.000172897
0.0328416
7.58262e-05
8.95284e-05
0.00288437
1.48718
0.000184632
7.73397e-05
2.24213
0.00546575
3.98317e-05
0.000400059
0.0513222
8.96873e-05
0.000291875
2.48379e-05
0.00818277
8.14206e-05
9.07221e-05
0.0128473
5.97577e-05
0.000329475
0.00228622
0.00185696
5.63159e-05
0.000448739
4.03823
0.000208997
3.59037e-05
6.73422e-05
5.09336e-05
0.000597258
5.51192e-05
2.64961
6.5825
0.00493592
2.30334
2.89448e-05
2.37805e-05
4.3984e-05
6.01648e-05
0.000318559
0.000104494
0.00259767
0.000658087
3.90328e-05
0.000227089
0.027434
0.00854335
0.00112041
0.0150879
0.000107704
0.000293599
3.77324e-05
0.00183896
0.0142199
2.55833
0.0322569
0.0560032
8.26669e-05
2.08181e-05
8.10869e-05
0.000245719
2.16408e-05
5.72866
1.24168e-05
0.00486778
6.57107e-05
1.76586
0.0356011
3.2548
7.48049e-07
4.50793e-05
2.85371e-05
3.79094
2.27496
0.0115241
0.00155574
4.79423e-05
1.76781e-05
0.000206708
3.02511
2.00009e-05
5.53367e-05
0.0104153
0.000127352
0.000121744
2.71719e-05
0.000106242
0.0017947
0.000432374
4.16629e-05
4.5368e-05
0.00150617
7.06021e-05
0.857905
4.15673
7.74409e-05
0.0253873
0.000107938
3.17538
3.19517e-05
6.27587e-05
5.90532e-05
4.50312e-05
0.0206078
0.000239593
9.89473e-05
8.94438e-05
0.00382623
7.94379e-05
0.000229329
0.000149669
3.93722
0.0223853
0.00334849
5.69099
0.0278314
1.31398
3.24796
1.393e-05
5.08199e-05
4.05494e-05
1.89199e-07
0.000160958
0.0178055
0.000314713
0.000114734
0.00181097
2.395e-05
1.92901e-05
0.0072135
7.46962e-05
3.40876e-05
3.95375e-05
0.00330243
0.00418494
3.97628
1.9583e-05
1.88061
0.0313969
0.879867
0.00522222
3.91073
4.63158
0.709778
3.23721e-05
0.000253824
1.02335e-05
0.0030408
0.000109473
0.00787089
0.654271
4.97743e-05
0.0750143
0.0123587
5.01223e-05
3.65914e-05
0.000163582
6.35495
3.34599
6.10559e-05
0.0361311
0.0350467
0.00182855
2.12808
3.42341e-09
5.32218e-05
0.00771375
1.35664e-05
0.559396
0.0109521
3.32423
0.0333251
2.99037e-05
0.0336337
0.000127431
1.80043e-06
0.0107455
0.000506571
0.00124653
4.96018e-05
8.30502e-05
0.0121364
0.000263119
3.83928e-05
9.08822e-05
0.000168295
0.00712679
0.000159821
3.10861
0.0259749
0.000108553
0.0551825
0.000200647
0.142627
0.000327392
3.50556e-05
0.000112456
0.00634566
0.004161
1.56263e-05
0.000135432
5.23755
2.98802
0.0314772
0.000245927
0.0136724
0.00619443
0.0414993
3.486
0.00991006
0.00103135
7.50705e-05
3.63259
0.000107765
3.15868e-05
0.00203481
1.85263
5.61339
8.58071e-05
0.000167352
1.32501
3.80868e-05
4.12817
1.98374
0.000123424
8.61212e-05
6.83395
0.666295
0.769089
6.64987e-05
4.54009e-05
5.77845e-05
0.0113545
0.0125581
8.06954e-05
3.17625e-05
0.000212003
0.0286586
0.000246109
0.00774457
0.738912
1.86575e-05
8.60716e-05
2.14372
2.2767e-05
0.00339623
0.000166365
0.0058583
6.16589e-05
4.84944e-05
0.00648488
0.000157329
5.2522e-05
5.1388e-05
0.00448013
0.00373137
4.76357
3.76383e-05
4.46205e-05
0.00010913
0.0180398
0.147717
4.83377
0.000110068
0.00300891
0.024958
8.55917e-07
2.75082e-05
0.000384733
3.07647
8.59125e-05
0.114487
0.000277535
7.52988e-06
0.0148426
0.000238419
1.21621
1.0286
0.0143705
3.20192
3.73169
6.20831
2.41421e-05
2.15144
0.0144712
9.50771e-05
0.0266246
0.00011944
0.000400083
0.0637241
0.00022776
0.00111573
0.00655627
3.58528
4.14707e-05
2.82148e-05
1.99819
0.000781989
0.000303058
0.0258567
0.760112
0.0181467
4.23085e-05
0.00272585
5.75545
3.28949
0.00806969
0.00266231
1.21569
0.000737666
5.07597e-05
0.0120871
1.64363
6.23297e-05
0.00649574
0.000368758
1.90128
0.000297099
0.0129781
0.702798
3.78041e-07
0.000279332
4.58692e-05
1.93453
0.0182596
1.9861
1.01088
0.000293508
0.00641548
0.00953583
0.00145882
0.607798
0.00154782
4.45397e-05
0.000264828
0.000209649
7.43391e-05
0.013837
3.25512
0.000156808
1.97457
0.000131411
0.0479719
2.58137e-05
0.000123581
2.82727e-05
3.3606
1.77017
0.00511557
0.00440457
6.5843e-05
9.02503e-05
0.0390647
2.2128e-05
0.0177345
0.00962986
3.08552
0.000154352
0.00391118
0.0418874
0.000278797
0.000319841
0.00036354
3.1078
0.000131633
0.00144855
0.0448587
0.0271507
9.67561e-05
0.0014692
2.81797e-05
0.000146282
0.000137531
9.40286e-05
0.00226906
5.69956e-05
0.00351638
1.83052
0.135287
3.2425
0.000113527
0.00282656
0.00944428
2.98106e-05
0.789797
0.000263189
0.000644117
3.59623
0.000284482
0.00670421
0.000713037
2.37866e-05
1.25874
3.00976e-05
0.00408701
7.31081e-05
0.032342
0.0374845
2.50917
3.2924e-05
0.039675
7.11808e-05
0.00548058
0.000253352
2.27194
0.0100418
0.00294953
3.61289
0.000195156
5.28753
0.000168346
1.0497
0.000458096
3.32299e-05
0.000121551
0.0141938
0.0253891
0.000144995
4.43886e-05
0.0772557
4.25877e-05
4.61561e-05
3.97994e-05
7.41033e-05
0.000182317
5.947
0.0003198
0.000147872
0.0353177
0.00477338
6.18861
6.62903e-05
6.82421e-05
8.90986e-05
0.00151885
0.000364696
0.000371187
3.64917
0.00191457
0.0149517
4.83576e-05
0.00163363
0.017575
2.04916
6.2829e-05
3.839e-05
0.000282568
0.000351005
7.03154e-05
0.00687939
4.80099
0.0986404
0.00708037
5.97773e-05
0.0404512
3.03585
0.00343756
0.04661
0.000286916
0.81254
3.1548
5.72847
0.000195737
0.000203823
0.00218833
1.93199
0.000310552
3.74959
0.000583124
0.00733592
1.53708
1.80516e-05
0.000212649
0.000616676
2.65764e-05
1.29892e-05
0.000428134
0.684412
1.63726e-05
2.01407
6.07314e-05
8.47527e-05
5.36099e-05
2.44181e-05
0.00191726
0.00015626
0.137375
0.00751356
0.000186128
0.000274187
0.990983
3.15884
4.23751e-05
9.91789e-05
0.000153083
0.00836153
0.0516925
0.00276749
3.42162
4.68448e-05
2.81579e-05
0.00175414
0.000165314
0.00261469
0.0364305
6.34564e-05
6.70281e-05
1.81462e-05
0.00101329
0.0091838
2.59605
0.0396167
2.9876e-05
0.0026293
1.79362e-05
3.19994
3.56278
7.66358e-05
2.69007e-05
0.0725705
7.26166e-05
0.000142869
0.780772
0.692952
0.000592578
3.34736e-05
5.7617e-05
0.00961055
0.704352
6.25064e-05
4.4747e-05
0.659752
1.94493
8.49848e-07
7.77632e-05
3.7979e-05
0.000135767
0.00675768
0.0016937
0.000133001
0.043106
0.000219717
8.76021e-05
0.000137471
0.00206712
9.14694e-05
4.48313
1.4493
3.16722
0.60381
0.0138132
0.354309
7.59023e-05
2.90483
0.00242907
3.46364e-05
0.00212256
0.000176108
0.00200657
8.01923e-05
0.000137681
8.35561e-05
2.38697
2.70238e-05
0.00445068
0.0380157
0.000676465
0.00293545
0.00574168
5.70291
6.1573e-05
4.84126
3.78342
0.000581698
9.00524e-05
0.00224818
0.00347446
0.00164472
0.0313746
3.26169
9.63004e-05
4.78492e-05
6.83363e-05
0.0145985
3.37338
0.000309773
0.000462918
3.45584e-05
4.35629e-05
0.000364006
0.00676646
2.66508e-05
0.00084684
0.00152902
1.25882
5.64472e-05
0.00245147
5.70165
0.000227755
0.00350083
0.00181276
0.999299
0.00370169
0.00484486
0.001582
0.000107303
1.7298
1.77256
0.000170089
0.0106794
0.0239113
6.42819e-05
0.000424763
0.00010372
0.0158096
6.86571e-05
0.00232195
4.28467e-05
0.0369198
1.14164
0.0625167
1.12272
0.000911197
0.000328751
0.0726214
0.033021
0.000635741
0.000200329
0.000222189
3.13778
0.000103573
0.00276125
7.03666e-05
0.000227272
0.0122093
0.000125841
9.6356e-05
4.15586e-05
2.113
0.0729081
2.07433e-05
0.000201539
1.42704e-05
7.70148e-05
0.000219713
1.08314
0.000167568
0.0121209
1.85049
0.0282556
2.77838e-06
0.0477606
0.618752
0.143669
0.866272
0.00122583
0.00645838
2.75618
2.49565
4.02847e-05
1.62902
5.93006e-05
5.38676
0.0143586
2.04568e-05
0.00230836
0.0213277
5.06364
0.00547252
0.0036615
8.76748e-05
0.0325233
1.53245
0.0044235
2.85262
0.000260489
0.140284
3.37895e-05
1.81896
0.00290457
7.12599e-05
0.000210056
0.0889924
7.77471e-05
0.000649974
0.15712
6.52253e-05
1.12025
8.33379e-05
9.51985e-05
0.0251533
0.0330799
0.000506456
0.00175769
0.0276215
0.000294722
0.00350082
0.00655338
4.46077e-05
0.00538717
2.61825e-05
0.938681
0.00357453
3.30877e-05
4.08881