/*--------------------------------*- C++ -*----------------------------------*\
  =========                 |
  \\      /  F ield         | OpenFOAM: The Open Source CFD Toolbox
   \\    /   O peration     | Website:  https://openfoam.org
    \\  /    A nd           | Version:  10
     \\/     M anipulation  |
\*---------------------------------------------------------------------------*/
FoamFile
{
    format      ascii;
    class       volScalarField;
    location    "950";
    object      k;
}
// * * * * * * * * * * * * * * * * * * * * * * * * * * * * * * * * * * * * * //

dimensions      [0 2 -2 0 0 0 0];

internalField   nonuniform List<scalar> 
10435
(
1.06996
1.24445
1.35918
1.43152
1.91682
1.85621
1.24887
1.01659
0.898707
1.72368
1.48401
1.53536
1.56384
0.808117
0.828658
1.21146
0.791335
1.67509
0.855291
1.124
1.10045
1.33607
1.31998
1.14461
1.66409
0.465531
0.610086
1.44336
0.55427
1.71187
1.57795
1.60168
0.975201
0.558106
1.1147
0.956265
1.21856
0.637277
0.361438
0.951166
1.75697
1.28868
0.643014
1.30383
1.34027
1.05928
1.80576
0.62176
0.845156
1.25329
1.05896
1.80956
0.351622
0.484285
0.386515
0.513931
1.20953
0.653923
0.730351
1.09708
0.380162
1.1365
0.641457
1.84623
1.33622
1.45409
0.679429
0.700476
1.0587
1.20899
0.478414
0.56033
0.497692
1.43196
0.855848
0.640152
1.26102
1.1881
0.93136
0.836322
1.30842
0.972684
0.342326
0.491231
1.31736
0.946423
1.0443
1.35756
0.88132
1.11562
1.44513
1.53258
1.01706
0.924138
1.1924
0.884774
1.58327
0.835717
0.758527
1.71065
0.856994
1.95711
0.979644
1.27321
1.95515
1.37184
1.06306
1.28651
1.31447
0.863269
1.20934
1.93162
0.931449
0.89491
1.68037
1.28851
1.71675
1.01571
1.37934
1.60695
1.6965
0.55541
1.09411
0.692293
1.68871
0.424273
1.6037
0.592074
1.83324
0.629533
0.642393
1.56923
1.12656
0.813374
0.599007
0.321472
0.803169
1.47274
1.27803
1.23423
1.1789
1.46442
0.637104
1.69102
1.37183
0.757912
0.743118
1.8796
0.772018
1.57978
0.572837
1.34081
1.10508
1.58856
1.81013
0.519285
1.79341
1.1822
1.77335
1.30245
1.48889
0.793858
1.59406
1.41247
0.88855
1.79838
0.975851
1.5022
1.36392
1.79058
1.7063
0.437513
0.554402
0.787585
1.46631
1.17522
1.03972
0.73234
1.1608
0.595214
1.36105
1.901
1.57475
0.404114
1.47071
0.566495
0.577122
1.15321
1.93529
1.75494
1.63122
0.336614
0.604403
0.8742
1.87666
1.10263
0.716776
0.887377
0.682476
1.22281
0.891816
0.623603
1.50509
0.649846
1.45741
1.76147
1.48613
1.49418
0.647671
1.39299
0.513327
1.32485
1.70026
1.43036
0.598468
0.787652
0.926046
0.398876
0.470497
0.776657
0.565928
0.762092
0.673559
0.755812
0.500943
1.12457
0.412298
0.842725
1.68411
0.662121
0.734162
1.04226
0.439672
1.34935
0.654566
0.774811
1.22643
0.502279
1.26443
1.63215
1.23653
0.45781
0.417045
0.5093
1.68676
0.919242
0.824498
1.05921
0.443722
1.05971
0.450879
0.935455
1.61006
1.40402
1.10765
1.87686
0.402948
1.1456
0.478348
0.616248
1.18684
1.72157
0.458716
1.32522
0.96903
0.748359
1.16996
1.46062
0.374677
1.80738
1.23322
1.00122
1.06449
1.59691
0.504332
1.60271
0.62934
1.87132
1.16547
0.970128
1.62859
0.716032
1.28175
0.816869
0.985373
0.361762
1.93062
0.385579
0.497046
0.575076
0.774745
1.43722
0.641251
1.02956
0.367187
0.471178
0.734106
1.01759
1.80113
1.57505
0.701586
1.30315
1.32805
0.482404
1.70919
0.809399
0.761478
1.35979
1.52346
0.499129
1.11157
0.586955
0.959098
1.91801
0.964237
0.475228
0.417014
1.62964
0.717336
1.51217
1.93938
0.603889
1.04267
0.331288
0.937522
1.53469
0.541839
1.37573
0.715239
0.647828
1.00148
0.60044
0.497566
1.3056
1.47594
0.667829
0.479997
0.459537
0.521033
0.535065
0.56916
0.541685
0.372806
0.553746
0.532001
0.566409
0.681069
0.663395
0.326403
0.901756
0.502699
1.54979
0.593332
1.42649
0.907231
0.818187
1.54068
1.43094
0.498856
0.531342
0.469202
0.433668
0.520811
0.366727
0.583422
0.589907
0.67345
1.45316
0.576487
0.877972
0.409284
0.613332
1.56447
0.7812
0.366216
0.611243
0.634971
0.636442
0.527553
0.499572
0.71931
0.396728
0.954806
0.685555
1.0243
0.878666
1.47607
1.5182
0.85192
1.38872
1.03468
0.697414
0.496028
0.53709
0.484232
1.34567
0.51483
1.57918
0.697567
0.605835
0.627068
0.626151
0.43824
1.22362
0.636315
0.988868
1.36939
0.439916
0.530131
0.66258
0.797615
0.670336
0.554208
0.47857
0.517946
0.658076
0.566566
1.38995
0.478915
0.534151
0.563716
0.570183
1.6166
0.372964
0.333072
0.740828
0.524395
0.0949008
0.0923587
0.0887225
0.0845386
0.0801746
0.0756061
0.0708391
0.0658845
0.0607593
0.0952386
0.0923568
0.088501
0.0842363
0.0798207
0.075296
0.0706772
0.0660263
0.0614553
0.0952856
0.0920943
0.0880516
0.0837099
0.079277
0.0748044
0.0703278
0.0659246
0.0617278
0.095204
0.0917308
0.0875135
0.083105
0.0786648
0.0742429
0.0698841
0.0656634
0.0616932
0.0951201
0.091404
0.0870188
0.0825433
0.0780901
0.0737054
0.0694325
0.0653344
0.0614866
0.095162
0.091245
0.0866931
0.0821381
0.0776539
0.0732833
0.0690638
0.065047
0.0612904
0.0955023
0.0913924
0.0866571
0.0819972
0.0774556
0.0730714
0.0688768
0.0649183
0.061252
0.0964264
0.0919922
0.0870279
0.082227
0.0775971
0.0731692
0.0689707
0.0650483
0.0614626
0.0981807
0.0931666
0.0879206
0.0829411
0.0781918
0.0736879
0.0694523
0.0655292
0.0619797
0.100713
0.0949807
0.0894515
0.0842712
0.0793756
0.0747623
0.0704517
0.0664826
0.0629032
0.103684
0.0974558
0.091748
0.0863793
0.0813207
0.0765665
0.0721421
0.0680839
0.0644316
0.106712
0.100663
0.0949829
0.0894763
0.084251
0.079329
0.0747543
0.0705693
0.0668208
0.10966
0.104894
0.0994473
0.0938565
0.088459
0.0833409
0.0785763
0.0742208
0.0703386
0.114802
0.110933
0.105626
0.0999136
0.0943038
0.0889435
0.0839355
0.0793523
0.075274
0.123501
0.119551
0.114038
0.108062
0.102153
0.0964806
0.0911583
0.0862665
0.0818751
0.136217
0.131129
0.125009
0.118592
0.112281
0.106217
0.100511
0.0952493
0.0905035
0.15213
0.145447
0.138527
0.13157
0.124786
0.118273
0.112128
0.106447
0.101327
0.169447
0.161846
0.154301
0.146852
0.139602
0.13263
0.126025
0.11988
0.114302
0.187695
0.179891
0.172034
0.16424
0.156606
0.149229
0.142192
0.135584
0.129504
0.207092
0.199542
0.191616
0.183628
0.17573
0.168046
0.160662
0.153663
0.147158
0.228145
0.221019
0.213117
0.205031
0.196991
0.189133
0.181528
0.174239
0.167361
0.251458
0.24462
0.236671
0.228517
0.220458
0.212592
0.20495
0.197553
0.19047
0.277812
0.270615
0.262366
0.254138
0.246198
0.238534
0.231103
0.223865
0.216884
0.308096
0.299084
0.290117
0.281833
0.274206
0.267017
0.260108
0.253349
0.246791
0.343084
0.329566
0.319616
0.311469
0.304461
0.298087
0.292064
0.286187
0.279728
0.159629
0.159607
0.160334
0.161815
0.164059
0.167055
0.170784
0.175211
0.180295
0.185977
0.192195
0.198876
0.205932
0.213273
0.220789
0.228365
0.23588
0.243204
0.250207
0.256758
0.262713
0.267917
0.272144
0.275091
0.276664
0.277065
0.276322
0.2743
0.270917
0.266466
0.261042
0.254668
0.247404
0.239391
0.230766
0.221669
0.212245
0.20264
0.192996
0.183451
0.174125
0.165125
0.156527
0.148374
0.140699
0.133547
0.126966
0.121005
0.115699
0.111075
0.107136
0.103857
0.101196
0.0990969
0.0975037
0.0963601
0.0956194
0.0952391
0.0951853
0.16149
0.161791
0.162801
0.164535
0.166994
0.17017
0.174037
0.178555
0.183663
0.189285
0.195345
0.201779
0.208514
0.215464
0.222536
0.22963
0.236635
0.243439
0.249924
0.255973
0.261463
0.266266
0.270238
0.273208
0.275005
0.275521
0.274718
0.272628
0.26936
0.265043
0.259754
0.253546
0.246488
0.238675
0.230219
0.221246
0.211889
0.202284
0.192567
0.182867
0.173305
0.16399
0.155016
0.146463
0.138408
0.130928
0.1241
0.117989
0.112634
0.108026
0.104128
0.100898
0.0982839
0.0962282
0.0946631
0.0935272
0.0927686
0.0923466
0.092216
0.16081
0.161255
0.16234
0.164074
0.166457
0.169483
0.173132
0.177375
0.182173
0.187474
0.193218
0.199337
0.205753
0.212385
0.219141
0.225926
0.232635
0.239161
0.245391
0.251208
0.256488
0.2611
0.264898
0.267734
0.269475
0.270033
0.269363
0.267472
0.264419
0.260293
0.255179
0.24915
0.242285
0.234674
0.22642
0.217637
0.208446
0.19897
0.189334
0.17966
0.170066
0.160666
0.151567
0.142876
0.134696
0.127127
0.120254
0.114137
0.108804
0.104243
0.100417
0.0972637
0.0947185
0.0927114
0.0911751
0.0900495
0.0892835
0.0888383
0.0886769
0.156183
0.156636
0.157702
0.159385
0.161682
0.164582
0.168063
0.172096
0.176642
0.181656
0.187085
0.192867
0.198934
0.205213
0.211621
0.218067
0.224457
0.230686
0.236644
0.242216
0.247278
0.251703
0.255356
0.258108
0.25984
0.260465
0.259934
0.258244
0.255432
0.251565
0.246716
0.240964
0.234391
0.227087
0.219149
0.21068
0.201791
0.192594
0.183206
0.173741
0.164318
0.155054
0.146068
0.137479
0.129401
0.121942
0.115189
0.109198
0.103994
0.0995644
0.0958686
0.0928372
0.0903919
0.0884594
0.0869745
0.0858813
0.0851332
0.0846928
0.0845253
0.14902
0.149467
0.150496
0.152112
0.15431
0.157078
0.160394
0.164228
0.168545
0.1733
0.178443
0.18392
0.189666
0.195613
0.201684
0.207796
0.213859
0.219774
0.225436
0.230733
0.235549
0.239762
0.24325
0.245896
0.247597
0.248274
0.24788
0.246401
0.243856
0.240292
0.235769
0.230359
0.224145
0.217211
0.209651
0.201563
0.193049
0.184216
0.175175
0.166039
0.156928
0.14796
0.139261
0.130952
0.123153
0.115966
0.109475
0.103731
0.0987534
0.0945244
0.0909992
0.0881119
0.0857884
0.0839555
0.0825472
0.0815076
0.0807913
0.0803638
0.0801929
0.139391
0.139767
0.140704
0.142205
0.144266
0.146874
0.150007
0.153635
0.157723
0.162227
0.1671
0.172287
0.17773
0.183363
0.189113
0.194902
0.200644
0.206247
0.21161
0.216632
0.2212
0.225203
0.228529
0.231073
0.232741
0.233463
0.233191
0.23191
0.229627
0.226375
0.222204
0.217179
0.211377
0.20488
0.197776
0.190158
0.182121
0.173767
0.165205
0.156546
0.147905
0.139401
0.131156
0.12329
0.115916
0.109133
0.103016
0.0976115
0.0929334
0.0889629
0.0856553
0.0829487
0.080774
0.0790629
0.0777539
0.0767898
0.0761271
0.0757347
0.0755844
0.127645
0.127921
0.128733
0.130086
0.131979
0.134398
0.137323
0.140726
0.144573
0.14882
0.153422
0.158326
0.163474
0.168805
0.174249
0.179732
0.185172
0.190481
0.195565
0.200325
0.204659
0.208463
0.211636
0.214085
0.215721
0.216482
0.216324
0.215231
0.213202
0.210261
0.206453
0.201833
0.19648
0.190474
0.183894
0.176832
0.169374
0.161616
0.153668
0.145633
0.137618
0.129734
0.122093
0.114808
0.107983
0.101706
0.096046
0.0910438
0.086711
0.0830306
0.0799628
0.0774519
0.075436
0.0738531
0.0726463
0.071766
0.0711724
0.0708337
0.0707227
0.113498
0.113597
0.114214
0.115359
0.117032
0.119225
0.121918
0.125083
0.128687
0.132686
0.137037
0.141682
0.146566
0.151625
0.156797
0.162016
0.167208
0.172279
0.177143
0.181695
0.185838
0.189473
0.192521
0.194904
0.196528
0.197344
0.197312
0.196417
0.194643
0.192008
0.188561
0.184355
0.179482
0.174023
0.168036
0.161615
0.154845
0.147805
0.140615
0.133354
0.126116
0.118997
0.112094
0.105508
0.0993361
0.0936487
0.0885149
0.0839659
0.0800126
0.0766431
0.0738268
0.07152
0.0696705
0.0682265
0.0671386
0.0663623
0.0658607
0.0656056
0.0655681
0.096374
0.096179
0.0965026
0.0973713
0.0987935
0.100757
0.103231
0.106165
0.109562
0.113417
0.117616
0.122097
0.126787
0.131613
0.136556
0.141549
0.146577
0.151589
0.156392
0.16083
0.164832
0.168328
0.171289
0.173635
0.175298
0.17622
0.176371
0.175725
0.174227
0.171874
0.168767
0.164983
0.16062
0.15577
0.150481
0.144748
0.138696
0.132563
0.126325
0.119984
0.113666
0.107454
0.101412
0.0956168
0.0901431
0.0850926
0.0805183
0.0764817
0.0729667
0.0699196
0.0673256
0.0651815
0.0634678
0.0621466
0.0611704
0.060508
0.0601267
0.0599972
0.0600886
0.492177
0.455696
0.423476
0.393501
0.364905
0.337506
0.311364
0.286657
0.263533
0.242091
0.223115
0.207415
0.195152
0.185892
0.178437
0.172126
0.167048
0.163348
0.161162
0.160332
0.160341
0.160729
0.161079
0.160963
0.159842
0.468686
0.444986
0.417729
0.389545
0.361462
0.334027
0.307662
0.282687
0.259383
0.238115
0.219355
0.203441
0.190434
0.180128
0.17212
0.166055
0.161711
0.15892
0.157532
0.157338
0.158031
0.159243
0.160591
0.161661
0.161933
0.465255
0.440432
0.413179
0.38489
0.35647
0.32859
0.301781
0.27646
0.253003
0.231779
0.213097
0.197125
0.183887
0.17328
0.165115
0.159177
0.155228
0.153014
0.152271
0.152719
0.154055
0.155924
0.157938
0.159686
0.160719
0.465907
0.437846
0.408802
0.379359
0.350111
0.321607
0.294344
0.268747
0.245192
0.223996
0.205379
0.18944
0.176187
0.165556
0.15743
0.151643
0.147964
0.146114
0.145777
0.146636
0.148357
0.150575
0.152887
0.154871
0.156053
0.467315
0.436062
0.404689
0.373566
0.343128
0.313806
0.286009
0.260108
0.236427
0.215221
0.196649
0.180777
0.167598
0.157055
0.149046
0.143411
0.139923
0.138293
0.138182
0.139245
0.141119
0.143422
0.145747
0.147697
0.148885
0.46811
0.433977
0.400188
0.367215
0.335449
0.305226
0.276852
0.250623
0.226794
0.205558
0.187034
0.17126
0.158211
0.147818
0.139966
0.134482
0.131128
0.129606
0.129569
0.130653
0.132481
0.134667
0.136796
0.138512
0.139445
0.468476
0.431391
0.395053
0.360139
0.327002
0.295855
0.266887
0.240311
0.216317
0.195045
0.17658
0.160936
0.148066
0.137868
0.130198
0.124859
0.121592
0.120094
0.120012
0.120971
0.122583
0.124456
0.126204
0.127476
0.127971
0.468749
0.428071
0.388959
0.35209
0.317631
0.285607
0.256066
0.229136
0.204973
0.183669
0.165278
0.149802
0.13717
0.127212
0.11975
0.114552
0.111338
0.109792
0.109571
0.110288
0.11154
0.112935
0.114075
0.114622
0.114328
0.468285
0.423437
0.381483
0.342804
0.307198
0.27442
0.244379
0.217084
0.192733
0.17141
0.153097
0.137831
0.125534
0.115872
0.108648
0.1036
0.100399
0.0987434
0.0983079
0.0987034
0.0994765
0.10026
0.100557
0.0998728
0.098084
1.59738
1.58242
5.19946
0.589999
0.0540144
0.0640033
1.13151
0.0268826
4.93068
0.0571675
2.85904
0.0499269
0.500779
0.0696764
1.28132
0.085684
3.72819
0.494224
0.0550153
0.723709
0.374722
0.0834522
3.12411
0.154546
0.0226431
0.0347529
0.0227087
0.270442
1.61835
3.15159
0.0565302
0.0454298
3.12664
0.615656
3.03413
0.0471293
1.0795
1.28885
1.14043
0.0756304
3.59714
0.00776761
0.0606381
0.601219
0.225586
0.12563
3.76828
4.08475
2.0122
2.25672
3.56955
3.06445
0.418601
0.445966
1.08186
4.78523
0.0625352
0.387894
0.0273216
2.61658
0.0638822
5.23066
0.0527527
0.0912923
0.027691
0.552115
0.0612561
0.290655
0.517259
2.16775
4.52227
0.105516
0.0354795
0.789474
0.0237298
0.368839
0.922735
3.93001
0.0188441
0.390921
0.581652
0.08641
0.0322827
2.81334
0.0558751
0.0664751
0.0339579
3.85602
3.16559
0.112086
0.161104
0.0744705
0.0680896
0.0525943
0.0395587
2.88052
0.035123
3.07359
0.0199116
2.56448
0.137914
3.5989
0.153791
0.111395
0.0262033
0.203543
3.24321
0.570858
0.0282228
3.16912
0.0826227
0.0444428
3.26352
0.108572
0.407883
1.98306
3.08808
0.0719394
0.450893
0.0296237
0.000445373
0.0424891
0.152254
0.0226429
3.21253
0.0578556
3.11555
0.630036
0.0220456
4.08183
0.0306163
0.796325
2.2081
0.980154
0.335577
0.0337787
0.217923
0.0984487
0.0616626
0.714761
0.0928531
1.08044
2.72863
0.000342528
1.73781
0.101898
0.726774
0.609358
0.0843407
3.10375
0.383089
0.0528144
0.720581
1.49537
0.0252062
2.75958
0.0265621
0.0708949
1.10691
0.0498483
0.06236
4.64929
0.0666291
3.20931
0.0696917
3.21251
0.0760947
0.0228055
0.118408
0.0276249
0.0610638
0.0978245
0.30142
2.9747
0.0624716
0.228266
0.676419
1.89611
2.24055
0.0936013
0.861095
0.0437565
0.427008
0.895377
0.481218
0.0217457
3.39426
0.0285639
2.50367
0.0743892
3.56225
2.65748
1.31336
1.04924
1.37385
2.71646
0.0234775
0.0807511
1.8573
1.56266
0.599604
0.142507
0.0803682
0.0770828
0.227541
0.058558
0.063354
0.151801
2.14989
0.067315
0.0258009
0.0545543
0.83949
0.209197
0.484288
3.85785
0.039122
0.0253272
0.144127
0.148245
0.119705
0.00947415
0.0259604
4.76314
0.147085
3.17929
0.108502
3.73021
0.0250022
0.038023
2.62564
0.0483015
0.0423211
0.0249538
1.12771
0.058957
1.18034
0.181387
0.92891
1.56682
0.055435
0.0633465
0.0660474
0.411161
0.0343946
0.0342223
0.0458798
0.285968
0.0838693
0.0528698
0.0213605
0.245663
0.0565079
2.0022
0.0318116
0.0231039
3.19352
0.945118
1.12973
0.0552347
0.298184
0.0242768
0.057543
0.0243506
0.823498
0.0226464
0.0581005
0.964061
1.12345
0.0228254
0.439398
1.43837
0.0229648
0.0240707
0.0558785
0.986576
0.0673784
5.18996
0.069166
3.1143
0.617407
0.410068
0.259653
0.12418
2.22379
0.0697645
0.215209
0.234257
3.55365
3.70631
1.49921
0.0715837
0.00337157
3.68957
0.81128
3.82289
3.63521
0.0681264
0.0515228
2.34415
2.88362
0.0635776
0.0821626
0.081608
3.45428
0.0620938
0.368116
0.0572064
0.711122
0.084525
0.107957
0.0870443
2.84019
0.0207689
0.0220297
1.05102
4.01993
0.0573192
0.0227151
1.08075
1.09768
0.0489757
0.0857654
0.0557566
0.0354261
0.0226345
3.03716
0.587074
0.0669957
0.395854
0.0688293
1.3546
0.0991152
0.058049
3.64426
0.0709509
0.0400371
0.0346536
0.00860317
0.290851
0.0565252
0.0464593
2.30246
0.0838367
0.829284
0.0385561
0.0695847
0.0318175
0.0323101
3.62426
0.708084
0.0683273
0.0122262
1.12913
3.72018
0.133126
1.18882
0.591411
0.0643894
3.83949
2.18187
2.93891
0.0443034
3.12681
0.00749565
0.0314497
0.10643
4.09063
0.0540734
2.3911
0.102114
1.47618
1.63165
3.62236
0.500704
0.0229569
0.0274699
0.0757705
0.0466966
0.0578212
3.59976
0.0899146
3.18902
0.651313
0.616897
0.990001
0.0718701
0.724731
2.74299
3.5745
0.710411
0.0582352
0.190284
3.15391
0.836777
0.0560178
0.0611516
3.07546
0.0700638
1.64466
0.027376
0.0615827
0.0549969
1.90171
0.0432662
0.000237592
1.19232
0.203797
0.749716
0.0549427
2.50125
0.0551384
2.29224
0.0594169
0.0429795
0.0732528
2.07522
3.62712
0.0580287
0.0736052
0.072781
0.0487606
0.120329
0.173217
0.111366
3.45309
0.00501207
0.0979198
0.0569349
0.0463804
0.0727112
0.0233808
0.114709
0.0190109
1.41227
0.100762
0.0827489
0.00294768
0.0322081
0.0803032
0.0497385
1.5665
3.70028
0.664808
0.530408
3.3493
0.207583
2.79932
0.0254822
0.0185477
3.69449
0.0580575
0.0649619
2.27852
0.085557
2.08295
3.67026
0.0669232
0.168013
0.702628
0.0735522
0.460428
2.36748
0.792733
3.20006
0.0288078
0.0295868
5.06161
0.0483667
2.78882
0.264478
0.0291208
2.94105
0.0798229
0.0226839
0.553509
0.102681
0.0259585
0.642181
0.56367
0.489046
1.1465
0.00274746
0.0473032
2.75021
0.0471008
0.0848012
0.120006
2.20682
0.0952629
1.328
0.073742
0.0260567
3.12876
0.051661
0.0359434
1.29715
0.0679076
0.0680454
2.34408
0.0623988
1.44041
0.0570778
0.346
0.648444
0.670777
0.0744497
0.0734377
1.19535
0.0440916
0.0754037
0.634498
0.0618362
0.0963961
0.0206945
4.07222
3.43335
2.12039
0.0233572
0.479536
0.0676268
3.69366
0.726156
1.60653
0.608653
0.12896
3.33956
3.64703
0.0582198
0.112092
0.235636
0.0998889
1.29854
3.75608
0.032194
0.749645
0.0617274
2.33239
1.95682
0.0780851
1.04758
3.35254
0.0800272
3.40832
0.0159034
4.23732
0.0520879
0.10097
0.0677759
5.11007
1.11696
1.15068
0.0218728
2.05706
2.11848
4.08755
0.0250193
0.080561
0.474588
2.32139
0.0578955
0.987274
0.0629753
0.515616
3.1956
0.0560422
0.473203
0.02524
0.0462347
0.3358
2.96311
0.138246
1.17534
0.032125
0.0514662
3.25437
3.84424
2.37952
0.115102
0.351645
0.747858
0.42402
0.138424
0.0690638
0.0270204
3.05996
0.077514
0.0634985
1.19862
0.130205
0.0878554
0.0715568
0.0874002
1.38839
0.0871392
0.0272119
0.566146
2.14989
0.0482424
0.043807
2.3383
0.270025
0.00881628
0.0957567
0.615619
0.0340812
0.0717618
0.0551967
0.210835
0.0559648
0.0638569
1.14285
0.0333286
0.113773
0.176335
0.414461
0.0353219
0.0689977
4.07252
0.102651
0.0268522
0.0482974
0.0776536
0.0874651
0.0352434
2.49306
4.17317
0.244648
2.98086
0.0263744
0.0229521
0.027191
0.0162653
0.102366
0.0283919
0.439775
0.115266
0.0268474
0.0471359
1.21731
0.454453
0.0934934
0.545681
0.0770116
0.0599948
0.0290877
0.186567
0.73568
2.45307
1.39462
1.14864
0.0181227
0.057348
0.0101422
0.134466
0.0547506
3.86715
0.0563183
0.383681
0.047671
2.48392
0.32722
2.80192
6.3526e-05
0.0277818
0.0257746
3.62417
3.01296
0.45283
0.417914
0.0330709
0.0573736
0.0521455
2.75374
0.00584069
0.0414206
1.04206
0.0444454
0.1057
0.0574619
0.0219947
0.418795
0.0957828
0.0334059
0.0565698
0.114564
0.0746461
1.78034
3.50424
0.0458521
1.22416
0.0589357
2.83273
0.0277792
0.0818981
0.0534525
0.0307667
1.21285
0.0647748
0.0774903
0.0276418
0.271429
0.033734
0.123228
0.105241
3.12145
1.22727
0.366032
3.93741
1.34634
2.24727
3.01187
0.0554883
0.0267561
0.0276138
0.000486765
0.0702997
0.611429
0.0945722
0.0431976
0.484397
0.0625599
0.0562696
0.375677
0.0565347
0.0578197
0.0292828
0.369025
0.638917
3.67553
0.0576581
2.39106
1.01031
1.84684
0.398134
3.70092
3.53984
1.26645
0.0234848
0.0807443
0.00366497
0.242878
0.0602597
0.745706
1.73646
0.07629
1.07372
0.679289
0.0325971
0.0286893
0.0548465
4.06614
3.64759
0.0378919
1.15569
1.44213
0.455647
2.6797
3.63245e-05
0.0508662
0.383888
0.00476245
1.69858
0.775498
3.01636
1.43269
0.0233242
1.44269
0.0265445
0.00169078
0.437825
0.0815187
0.112355
0.0483416
0.0587126
0.517398
0.0811873
0.0239044
0.0639615
0.0686515
0.371029
0.0733517
2.84801
1.31253
0.0801865
0.661763
0.0968821
0.750244
0.0690786
0.0694089
0.101249
0.510315
0.443494
0.00544702
0.101098
3.65952
3.39514
0.909936
0.0637353
0.638398
0.725266
1.31549
3.66387
1.01453
0.114618
0.0885169
3.15176
0.0179771
0.0267044
0.187261
2.71909
5.02839
0.0422736
0.0486851
2.29708
0.026064
4.17716
2.80521
0.0971996
0.0418498
5.49767
1.6936
1.88337
0.0664585
0.0445304
0.0147165
0.601781
1.09607
0.0595208
0.0257789
0.0392443
0.891304
0.0634924
0.410395
1.81718
0.057332
0.0509306
2.62834
0.0591847
0.478067
0.0449983
0.47734
0.060456
0.0278311
0.720445
0.101116
0.0780934
0.067218
0.268447
0.478364
3.73105
0.0276381
0.0569819
0.0588403
1.20102
0.732996
4.59132
0.0258715
0.576565
1.32196
0.000854541
0.0232527
0.0509161
2.64838
0.0637857
0.885105
0.0958632
0.00286888
1.03603
0.0767469
1.76934
1.64803
0.573323
2.84185
3.02462
4.03171
0.059718
2.89678
1.12441
0.0964038
1.09063
0.0445259
0.0511829
0.740126
0.0635249
0.138698
0.415038
3.76344
0.0218766
0.0171843
2.8158
0.0944025
0.083338
1.21174
1.77079
1.0324
0.0718779
0.220273
3.95292
3.00677
0.832948
0.459503
2.1851
0.102566
0.0222418
0.571482
2.21374
0.0610045
0.300032
0.0633224
2.71921
0.101251
0.817046
1.85871
0.000294782
0.0464658
0.0732775
2.25548
1.14237
2.55835
1.87081
0.136317
0.306665
0.438459
0.156557
1.71327
0.378123
0.0457411
0.0737262
0.063258
0.0176788
0.676419
2.88036
0.0406077
2.33639
0.108924
1.19569
0.0635173
0.0432828
0.0256959
3.83814
2.51777
0.253296
0.462234
0.0408113
0.0298825
1.46083
0.057093
1.16753
1.00572
3.35289
0.0439982
0.266857
1.47582
0.0853132
0.125291
0.0781154
3.32424
0.0700607
0.120933
1.19087
1.23397
0.029478
0.158486
0.0563519
0.100139
0.0325612
0.0336371
0.415596
0.0286441
0.256245
2.26487
0.739809
3.76375
0.0662917
0.232233
0.633748
0.0168651
1.70443
0.0550803
0.0706558
3.32252
0.0942145
0.378892
0.101971
0.023027
2.09341
0.0592126
0.261302
0.0202331
1.08403
1.20332
3.09858
0.0256886
1.00418
0.0426816
0.321048
0.0871973
2.51167
0.935427
0.242766
3.35897
0.0569014
3.68823
0.0586568
1.94428
0.0859028
0.0267028
0.0693211
0.85763
1.32371
0.0335822
0.0719257
0.768855
0.0427229
0.0752147
0.0264938
0.0184113
0.0813207
4.04357
0.113258
0.066068
1.41429
0.264308
4.01988
0.016556
0.0846665
0.0401069
0.106229
0.132222
0.0526732
3.60054
0.115763
0.584292
0.0443943
0.165685
0.660058
2.37092
0.0658185
0.0680811
0.0841772
0.127109
0.0503087
0.312818
3.53702
0.4405
0.439032
0.0381267
1.49235
3.29905
0.213619
0.733293
0.0889674
1.81057
2.90716
3.84466
0.0574993
0.0602899
0.17435
2.56382
0.139565
3.94034
0.111659
0.400409
2.40974
0.0199619
0.0814183
0.0793379
0.05994
0.0570547
0.0634309
1.72493
0.0561893
2.83136
0.0608073
0.0432604
0.0281132
0.0568118
0.436546
0.0499562
0.774785
0.714713
0.0494082
0.108002
1.88727
2.73679
0.0448463
0.0553521
0.103697
0.329176
0.361676
0.196701
2.9702
0.0328611
0.0615977
0.464347
0.0536626
0.220809
1.47025
0.0453352
0.032088
0.00591447
0.0822213
0.857637
3.07769
0.976018
0.0629995
0.185183
0.05662
3.43988
3.549
0.0651381
0.0607256
1.09181
0.0614972
0.0326462
1.83147
1.70004
0.090385
0.0622109
0.0298082
0.395722
1.77822
0.0372696
0.0224855
1.79562
2.35785
0.00109248
0.0421274
0.0297588
0.109903
0.370181
0.446463
0.0578052
1.28176
0.0617462
0.0930375
0.0447456
0.42465
0.0388773
3.5285
2.30998
3.39339
1.76425
0.912028
0.79608
0.045307
3.19064
0.468174
0.0293391
0.199411
0.0450456
0.1611
0.0577718
0.0499661
0.0287823
3.14093
0.0231903
0.246148
1.45728
0.0712359
0.232009
0.333166
3.82899
0.0153482
3.69579
3.07146
0.0739407
0.0340569
0.198986
0.262132
0.168558
0.985171
3.55905
0.0957186
0.0271174
0.0624877
0.961514
3.47935
0.0974279
0.0985529
0.0237198
0.042203
0.0755212
0.308426
0.0603521
0.088371
0.160987
2.14254
0.0706173
0.218767
4.75228
0.0758973
0.245105
0.187262
1.6065
0.266895
0.279069
0.452728
0.0648999
2.26383
2.29393
0.0487002
0.653878
1.28844
0.0623126
0.0896328
0.0989798
1.15093
0.0430497
0.525381
0.0699334
1.46171
2.1247
0.654345
2.0344
0.114105
0.0728353
0.792441
0.949353
0.0913345
0.111216
0.0561187
2.85885
0.0995039
0.234073
0.0351441
0.127146
0.557071
0.0453534
0.0334317
0.0427106
2.63348
0.745243
0.0553531
0.12639
0.054748
0.0534494
0.0675449
2.00545
0.11699
0.766357
2.70763
0.573528
0.00178049
1.01259
1.62494
0.7308
1.87117
0.136648
0.800845
3.07967
2.44564
0.012344
2.24994
0.063971
4.90617
0.249346
0.0587726
0.526155
1.22002
3.72002
0.732868
0.218441
0.0622767
1.10744
2.44662
0.199136
3.11097
0.125465
0.730037
0.0650528
2.45501
0.242844
0.0263984
0.069241
0.711111
0.0318169
0.0906219
0.677655
0.0493133
1.94015
0.021775
0.0732755
1.22361
1.0587
0.101431
0.442957
1.37087
0.13262
0.501358
0.234573
0.0736016
0.288141
0.0251414
1.94767
0.610036
0.0221683
3.74902
0.0678485
0.399298
0.218939
0.0900427
0.0365367
0.372665
0.73699
1.13391
0.0317832
3.52674
0.0377371
0.49056
3.66699
0.348367
0.118019
0.938874
0.0948818
0.0499826
0.00300559
1.1775
2.54273
0.0590177
3.06777
0.218742
0.0700216
0.997844
0.0790234
0.0535192
0.551926
0.109354
0.0518616
0.154803
0.0418798
0.0791991
0.116777
2.12781
2.47389
0.133904
0.0634621
0.0294954
0.580183
3.56193
0.0512725
0.0258522
0.202055
3.21107
0.0289444
0.881937
0.543539
0.0272204
0.449139
3.24539
0.0475262
0.157145
0.0589837
0.255084
0.0436445
0.0475314
0.104148
0.350854
2.51899
0.0196253
3.03085
0.0274077
2.96826
0.0748641
1.03432
0.404034
0.771058
2.07717
0.0819639
0.525921
0.129952
0.102792
0.107551
2.34881
2.317
0.0734725
0.0683966
0.353899
0.107447
0.0542307
0.0220298
3.8316
2.47426
0.698678
3.18237
0.120069
0.0285346
0.629346
0.163197
1.97517
0.0184691
0.0899776
0.0258507
0.0692117
0.055158
0.0636024
0.0608141
0.336519
3.53449
2.50573
0.0620878
0.230883
0.555351
4.40603
0.0594402
3.36387
1.76326
2.5819
0.095434
0.713867
0.03113
0.121403
0.0896465
0.0866367
0.0556459
1.88558
3.28082
0.103638
0.22585
0.679871
0.252249
2.29444
4.15308
0.0628857
0.0213537
0.0687668
0.189655
0.719897
0.0239508
2.25014
0.634682
0.077615
0.0946624
0.116983
0.412322
0.126116
0.0345779
0.0720414
0.0438896
0.116572
0.511289
0.113875
3.47355
0.0940081
0.0678985
0.230762
0.0843731
0.0424592
3.81125
2.35851
0.0713305
2.56604
0.0584229
1.02222
0.0973034
0.129841
0.0463473
0.0305631
2.40145
0.0797243
0.107306
2.20013
1.75423
0.0549158
0.0623691
0.0577221
0.114739
1.3441
0.0356329
0.0596597
3.24407
0.061323
0.0590095
0.0989215
2.82619
0.0676064
2.58542
1.90411
0.027828
2.84279
0.106247
0.0187028
3.64763
0.340886
0.0562456
0.00071426
0.434011
0.0937136
0.138104
0.0255595
1.2576
3.51399
0.0631881
0.0256365
2.25476
0.0775004
0.768172
0.755658
0.0760115
0.65196
3.5581
0.0550544
0.660665
0.0732799
0.0943388
0.121793
0.0537934
3.05698
2.20901
0.0749448
0.0605837
2.91356
0.0760095
0.127346
0.0996435
0.636931
1.02886
0.0273378
0.0466967
0.0611651
0.0473224
0.0271186
0.00121768
0.0731594
0.121735
3.30271
0.448832
0.0539474
0.805225
0.0970524
0.823307
3.70592
0.856817
2.35228
0.0768898
0.000926811
0.460015
0.124925
0.0707806
2.06554
0.0856777
3.23843
2.40235
0.461376
0.0926793
4.17723
0.0279424
2.652
0.0557903
0.0563382
2.45499
0.270171
0.825696
0.0714482
0.0511512
0.0200757
0.10312
1.35962
0.827745
0.0771757
1.71108
0.342254
2.36259
0.0195811
3.59186
0.0758107
0.059331
0.291773
0.067003
0.410482
2.39885
0.538161
0.0314656
1.91577
1.27607
0.174128
0.718007
0.541993
0.0141559
0.442259
2.51483
0.0561586
0.0432626
0.0513796
3.02777
0.054339
0.0174309
1.22275
0.503356
0.193827
3.67015
0.701505
0.195924
0.19853
1.14577
0.0905719
0.497945
0.0367411
0.072972
0.0509031
3.31729
0.0798606
0.876989
2.49439
0.022633
0.761757
4.02189
0.0758956
2.87091
0.0479641
0.464109
0.120532
0.0226357
0.0982839
0.0600636
0.0358092
0.08989
0.0715353
0.0648519
0.0714754
2.04739
0.519326
0.0702332
0.446231
0.0448091
0.0611546
0.0416619
0.0731883
0.0922755
1.49572
0.0166306
1.17891
2.35946
1.45383
0.938006
0.141503
0.104578
3.53363
0.0546911
0.528057
0.0747497
0.0419315
0.142959
3.17678
0.0856317
0.056653
0.0449953
0.164619
0.101108
1.42165
0.481451
1.02126
2.10127
0.0553839
0.0368018
0.732538
0.0592971
0.0793721
0.0281115
0.117547
0.0299947
0.0546225
0.0978827
0.0169424
0.968704
2.52619
0.842983
0.0975535
0.0584704
0.784883
2.5352
2.29347
0.0293094
0.064872
0.598962
0.0452306
0.0256327
0.0861681
2.26328
0.630511
0.0429751
0.0478401
0.0887846
0.0252724
2.43343
0.0319444
0.0769501
0.0783549
0.0684101
2.3974
0.0672783
1.50042
0.0610565
0.0760709
0.0231286
0.0314945
2.5558
0.316787
0.0388297
3.28898
0.605944
0.514951
0.0261869
0.0529587
1.13543
3.53126
3.66206
0.0466448
0.724568
0.065755
0.0574813
3.27689
2.25759
0.0226963
0.0201455
0.909037
1.35392
0.0572077
0.0254773
2.43032
0.050163
0.113369
0.134823
0.0752749
0.867706
0.0648577
0.0648639
0.0746918
1.74924
0.055701
0.0292542
0.0481085
0.0902385
0.146878
0.0897787
0.393449
0.667025
0.566632
0.0869048
0.080689
0.0554503
0.0252841
0.0724644
0.0582129
0.494356
0.0659425
0.0810073
0.183817
0.618756
0.0339325
0.0233289
0.0720912
3.65103
0.0670354
0.753522
0.0172102
0.0621568
0.00415123
0.0753354
0.0695398
3.43565
0.0841637
0.034434
0.282952
0.0567498
1.28971
0.0648133
0.048809
2.84967
2.64884
0.0252146
2.45556
0.0589411
0.901863
1.73625e-05
2.09204
0.0346515
1.1078
0.0532508
2.73307
0.441368
0.999917
3.38398
4.2511
0.0544643
3.17043
0.0295506
0.0243788
0.057415
2.67306
0.134609
0.027765
0.565794
2.73972
1.7639
0.130388
3.45842
0.0236574
0.117173
0.0481889
0.381501
0.102171
1.6037
0.0630293
0.0777413
0.0612019
0.0169928
0.119305
2.13992
0.0442679
0.0621976
4.02215
0.482993
0.0256597
0.140349
2.46323
0.085248
0.0679902
2.98955
0.132746
3.58314
1.14455
0.0522316
0.319526
0.693185
0.0344652
0.112776
0.041774
0.0251195
0.126615
0.105697
2.45031
0.0296363
0.779739
0.185653
0.0527621
2.55167
0.876368
0.0764935
0.0577997
0.0227762
0.0302041
0.0259284
0.630754