/*--------------------------------*- C++ -*----------------------------------*\
  =========                 |
  \\      /  F ield         | OpenFOAM: The Open Source CFD Toolbox
   \\    /   O peration     | Website:  https://openfoam.org
    \\  /    A nd           | Version:  10
     \\/     M anipulation  |
\*---------------------------------------------------------------------------*/
FoamFile
{
    format      ascii;
    class       volScalarField;
    location    "950";
    object      nut;
}
// * * * * * * * * * * * * * * * * * * * * * * * * * * * * * * * * * * * * * //

dimensions      [0 2 -1 0 0 0 0];

internalField   nonuniform List<scalar> 
10435
(
2.93353
1.32603
0.94923
2.05676
0.7292
0.535876
1.14305
2.38358
3.68413
0.645403
1.00962
1.93147
0.635597
2.48641
2.61518
1.47901
2.3657
0.551016
4.4763
2.87326
1.83468
2.70303
1.22308
3.84885
0.748151
2.14035
2.14268
0.782178
1.9271
0.57203
1.04632
0.895138
2.79627
1.88785
2.22904
1.98057
1.83406
2.2367
1.99356
4.06172
0.519567
1.11204
2.07696
2.23212
1.47222
3.88257
0.533774
2.02971
4.24946
3.61733
2.13224
0.785689
1.93237
1.90327
2.03199
1.84934
2.2442
2.1819
2.10166
2.756
1.97671
1.52747
2.09838
0.824641
1.32125
0.855956
1.99119
2.11359
2.02494
4.05356
1.91381
2.23557
1.90076
0.953884
2.74396
2.18153
4.03057
1.31187
3.26886
2.81996
3.91662
3.2963
1.86925
1.89286
3.99786
2.37511
2.4494
1.81428
2.67936
2.28771
1.67395
1.55209
3.34599
2.65764
2.12015
2.18254
1.56602
2.64873
2.21809
1.24752
2.68659
0.51839
2.57954
1.96317
0.517434
2.12127
3.38339
3.78251
3.97117
2.97628
3.51439
0.529826
3.22165
3.11206
1.2055
2.70273
1.28465
2.20471
1.45844
1.67438
1.36627
2.08391
2.00543
2.28528
0.597835
2.05042
1.62984
2.18922
0.963866
2.37284
2.27422
0.66091
1.79896
2.65723
2.26149
1.67483
2.02345
2.06888
1.62462
2.75015
2.81032
1.19035
1.9431
1.16639
2.75767
2.45501
2.19149
0.681072
2.33975
1.52046
2.00411
1.69175
2.59261
1.3621
0.684054
2.02948
0.559951
1.80764
0.650284
0.884435
1.43789
2.49843
1.18688
2.78962
2.85618
1.07803
2.84897
2.16829
2.6861
1.01537
0.769613
1.78214
1.94889
2.53085
1.90873
1.05735
1.75375
2.16064
3.45448
1.97694
1.15204
0.542285
1.64007
1.98823
1.34146
1.95528
2.0445
1.46472
0.674954
0.962028
1.56497
1.81276
2.34052
1.78974
0.540355
1.72403
2.265
2.49386
2.09596
1.60538
2.77775
2.15888
0.708638
2.16947
0.795643
0.958259
1.30989
2.12757
2.06241
2.84273
1.91676
1.10986
1.30316
2.49765
2.06723
2.44267
2.94664
1.83956
2.15648
2.3508
1.93866
2.20351
2.01642
2.45686
2.10641
1.95141
2.0607
2.55922
0.954056
2.27428
2.13126
2.35465
2.10268
1.91256
2.36213
2.26134
2.65683
2.16622
2.91676
0.895158
2.34839
2.04131
1.8121
1.87603
1.04655
3.39791
2.3335
1.96839
1.59486
1.27616
1.71282
2.80412
0.623815
2.88208
1.65048
0.843326
1.48786
1.46294
1.92631
2.09044
1.30642
0.811451
2.09321
3.43714
2.9841
2.13587
2.46958
1.09541
1.87547
0.956424
1.16283
2.47407
1.92125
0.77468
2.22501
1.70347
2.30389
0.725271
1.52337
2.80999
0.655694
2.19345
1.04066
2.57768
2.77769
1.76936
0.672688
2.01397
1.88004
1.92853
2.42066
0.752185
2.02029
2.19518
2.01733
1.90012
2.3662
2.97523
0.750059
0.897005
2.11073
2.98031
0.943695
1.7106
0.804397
2.54993
2.25842
2.16056
0.884646
1.86322
3.41382
2.16247
1.52991
0.65708
3.11
1.85889
1.95522
1.15341
2.0987
2.11749
0.515763
2.02611
2.7019
1.76115
3.19629
0.713431
2.31409
0.862428
2.06675
2.25773
3.13681
1.92204
1.84351
1.00744
1.68077
2.13289
1.81438
1.67275
1.82776
1.87624
2.35469
2.13789
1.92337
1.95715
1.88087
2.06441
2.09845
2.39227
1.71469
3.6386
1.82875
0.746062
2.09596
0.789572
3.5781
4.62932
0.629372
1.04291
1.89538
1.89113
1.72826
2.09041
1.83339
1.81858
2.0032
2.36424
2.13133
2.15474
2.31263
3.8859
2.05992
2.38661
0.590423
5.13367
1.73464
2.175
2.14461
2.2649
1.90475
2.20304
2.58882
2.02746
3.00019
2.06391
2.26297
3.92057
0.725133
0.669055
4.22872
0.853281
2.60169
2.36649
1.86315
1.9157
1.88025
0.922683
1.9051
0.588089
2.5311
2.00728
2.38251
1.97502
1.92749
1.28263
2.2173
2.61517
2.371
1.79909
2.2661
2.42662
4.89766
2.49857
2.29906
2.02035
1.83762
2.09161
1.95041
0.871138
1.90622
2.23201
1.93969
1.8545
0.524385
1.68915
1.66558
5.78429
1.86703
24.9284
24.9504
24.7954
24.5382
24.2169
23.8583
23.5136
23.276
23.3014
23.8372
23.8918
23.8411
23.717
23.547
23.3593
23.2017
23.1499
23.2979
22.325
22.4105
22.4417
22.4304
22.3946
22.3605
22.3724
22.4951
22.8031
20.4383
20.5466
20.6395
20.7179
20.7929
20.8883
21.046
21.3271
21.8048
18.257
18.3782
18.5119
18.6538
18.8103
19.0033
19.273
19.6807
20.312
15.8924
16.0178
16.1713
16.3483
16.553
16.8058
17.1442
17.6262
18.3383
13.4796
13.6021
13.7555
13.9393
14.1583
14.4318
14.7933
15.2925
15.9996
11.1645
11.274
11.4082
11.5735
11.7769
12.0367
12.3822
12.8541
13.5027
9.07688
9.15682
9.2549
9.38279
9.54891
9.77016
10.0717
10.4886
11.0636
7.29396
7.3298
7.38187
7.46315
7.58157
7.75108
7.99282
8.33755
8.8277
5.82732
5.81859
5.82737
5.86463
5.93624
6.05251
6.23025
6.49463
6.88179
4.64406
4.60788
4.58869
4.59406
4.6282
4.69868
4.81845
5.00703
5.29237
3.69736
3.66508
3.63861
3.62734
3.63648
3.6727
3.74641
3.87242
4.07096
2.97598
2.96191
2.94072
2.92358
2.91794
2.9308
2.97105
3.05014
3.18263
2.47166
2.46993
2.45415
2.43466
2.41996
2.41718
2.43409
2.47982
2.56606
2.15154
2.14986
2.13385
2.1112
2.0897
2.07589
2.0764
2.09836
2.15009
1.96487
1.95574
1.93505
1.90784
1.88033
1.85814
1.84682
1.85208
1.87978
1.86131
1.8454
1.81929
1.78728
1.75444
1.72556
1.70536
1.69868
1.71058
1.80787
1.78829
1.75812
1.72208
1.68476
1.65043
1.62324
1.60738
1.60723
1.78706
1.76595
1.73308
1.69388
1.65287
1.61409
1.58129
1.55811
1.54822
1.79006
1.76809
1.73302
1.69109
1.64694
1.60448
1.56714
1.53818
1.52092
1.81257
1.78903
1.75123
1.70642
1.65938
1.61384
1.57286
1.53928
1.516
1.8532
1.82541
1.78327
1.73496
1.6851
1.63702
1.5933
1.55625
1.52832
1.91274
1.87445
1.82534
1.77282
1.72025
1.67032
1.62485
1.58549
1.55423
1.99484
1.93203
1.87342
1.81667
1.76179
1.71102
1.665
1.62449
1.58973
3.47082
3.54071
3.62616
3.72716
3.84377
3.97554
4.12196
4.28207
4.45503
4.63956
4.83451
5.03861
5.25035
5.4684
5.69105
5.91672
6.14372
6.37026
6.59459
6.81499
7.02955
7.23645
7.43373
7.61944
7.79274
7.95388
8.10247
8.23789
8.36031
8.47154
8.57257
8.66457
8.74954
8.83042
8.91085
8.9954
9.0896
9.19999
9.33435
9.50178
9.71266
9.97897
10.3137
10.7317
11.2494
11.8846
12.6551
13.5761
14.6554
15.8896
17.2578
18.7184
20.2099
21.6528
22.9608
24.0493
24.8489
25.3114
25.4277
3.42552
3.49565
3.58062
3.68073
3.79602
3.92625
4.0709
4.22924
4.40029
4.58293
4.77594
4.97807
5.18794
5.40409
5.62495
5.84893
6.07435
6.2995
6.52266
6.74209
6.95606
7.16286
7.36081
7.54829
7.72395
7.8869
8.03676
8.17368
8.2984
8.41185
8.51499
8.60905
8.69584
8.7779
8.85853
8.94185
9.03293
9.13788
9.26399
9.41988
9.61571
9.86334
10.1766
10.5716
11.0666
11.6816
12.4364
13.3475
14.4231
15.658
17.0303
18.4975
19.997
21.4491
22.7658
23.8626
24.6695
25.1384
25.2582
3.34411
3.41061
3.49152
3.58725
3.69792
3.8234
3.96329
4.11695
4.28352
4.46196
4.65112
4.84968
5.05629
5.26946
5.48767
5.70933
5.93278
6.15635
6.37833
6.59698
6.81058
7.0174
7.21575
7.40411
7.58118
7.74608
7.89834
8.03793
8.16527
8.28108
8.38631
8.48217
8.57035
8.65309
8.73335
8.81483
8.90212
9.00082
9.11774
9.26114
9.44098
9.66931
9.96057
10.3319
10.803
11.3951
12.1293
13.0229
14.0849
15.311
16.6789
18.1457
19.6483
21.1073
22.4356
23.5489
24.3771
24.8715
25.0195
3.21642
3.2788
3.35527
3.44623
3.55186
3.6721
3.80663
3.95487
4.11608
4.28928
4.4734
4.66718
4.86931
5.07837
5.29285
5.5112
5.7318
5.95298
6.17306
6.39029
6.60297
6.80939
7.0079
7.19701
7.37546
7.54228
7.69691
7.83919
7.96932
8.08786
8.19564
8.29381
8.3839
8.46799
8.54869
8.62938
8.71424
8.80849
8.91858
9.0525
9.22013
9.43359
9.70768
10.06
10.5109
11.0823
11.7959
12.6695
13.7129
14.9223
16.2761
17.7313
19.2253
20.6803
22.0105
23.133
23.9777
24.4955
24.6725
3.05174
3.10965
3.18129
3.26712
3.36735
3.48196
3.61069
3.75307
3.90841
4.07582
4.2543
4.44268
4.6397
4.844
5.05413
5.26857
5.48575
5.70402
5.92172
6.13712
6.34856
6.55431
6.75279
6.94256
7.12233
7.29115
7.44837
7.59368
7.72714
7.84913
7.96035
8.06184
8.15504
8.24182
8.32462
8.40652
8.49144
8.58433
8.6914
8.82047
8.98131
9.18608
9.44963
9.7897
10.2266
10.7824
11.4785
12.3327
13.3549
14.5416
15.8718
17.3041
18.7776
20.2164
21.5369
22.6582
23.5117
24.0487
24.2543
2.85308
2.90598
2.97233
3.05259
3.14702
3.25565
3.37829
3.5145
3.66368
3.82503
3.99759
4.1803
4.37195
4.57126
4.77684
4.98721
5.20085
5.41615
5.63145
5.8451
6.0554
6.26068
6.45937
6.65008
6.83152
7.00272
7.16297
7.31188
7.44939
7.57576
7.69162
7.79793
7.89603
7.98771
8.07524
8.16153
8.25029
8.34625
8.45544
8.58548
8.74593
8.94875
9.20858
9.54286
9.97149
10.5159
11.1969
12.0319
13.0302
14.1885
15.4866
16.8851
18.3257
19.7355
21.0343
22.1442
22.9993
23.5522
23.7874
2.62293
2.67012
2.73051
2.80463
2.89278
2.99506
3.11132
3.24121
3.38419
3.53953
3.70634
3.88361
4.07021
4.26491
4.46638
4.67322
4.88394
5.09695
5.31062
5.52328
5.73326
5.9389
6.13869
6.33126
6.51534
6.68994
6.85433
7.00807
7.15103
7.28342
7.40585
7.51929
7.6251
7.72503
7.82123
7.91657
8.01455
8.1197
8.23785
8.37626
8.54412
8.75291
9.01672
9.3523
9.77868
10.3162
10.9846
11.8001
12.7715
13.8958
15.154
16.509
17.9058
19.2758
20.5432
21.6344
22.4866
23.0542
23.3215
2.35918
2.39934
2.45266
2.51975
2.601
2.69658
2.80645
2.93027
3.06759
3.21772
3.3798
3.55279
3.73557
3.92696
4.12574
4.3306
4.54015
4.75277
4.96675
5.18033
5.39184
5.59967
5.80247
5.99889
6.18766
6.36785
6.53867
6.69968
6.85067
6.99194
7.12426
7.24869
7.36674
7.48018
7.59111
7.70249
7.8177
7.94082
8.07741
8.23411
8.41955
8.64442
8.92188
9.26774
9.69984
10.2368
10.8969
11.6945
12.6379
13.7248
14.9386
16.2457
17.5951
18.9224
20.1563
21.2269
22.0747
22.6567
22.9575
2.05568
2.08603
2.13006
2.18875
2.2626
2.35183
2.4562
2.57509
2.70857
2.85643
3.01697
3.18883
3.37069
3.56143
3.7603
3.96612
4.17808
4.39458
4.61283
4.83092
5.04737
5.2608
5.47014
5.67418
5.8716
6.06164
6.24337
6.41633
6.58038
6.73607
6.88472
7.0276
7.1661
7.30217
7.43793
7.5774
7.72389
7.879
8.04823
8.23797
8.4563
8.71251
9.01777
9.38794
9.84028
10.3904
11.0544
11.8411
12.7572
13.806
14.9794
16.2492
17.5668
18.8705
20.0906
21.155
22.0022
22.5909
22.9113
2.04341
1.96181
1.89887
1.84422
1.79401
1.74739
1.7049
1.66793
1.63851
1.61943
1.61434
1.62616
1.65583
1.70251
1.76468
1.8424
1.93675
2.04807
2.17595
2.3192
2.47669
2.64881
2.83746
3.04663
3.28357
1.93767
1.91234
1.8718
1.8265
1.78028
1.73527
1.6933
1.65636
1.62683
1.6076
1.60173
1.61162
1.63858
1.68281
1.74412
1.82246
1.91772
2.02941
2.15675
2.29875
2.45502
2.6262
2.81441
3.02367
3.261
1.89824
1.87548
1.84084
1.79978
1.75594
1.71201
1.67034
1.63329
1.60343
1.58357
1.57647
1.58446
1.60914
1.65139
1.71145
1.78907
1.88353
1.99375
2.11864
2.25714
2.4091
2.57531
2.75781
2.96021
3.18818
1.87346
1.84529
1.8096
1.76878
1.72529
1.68146
1.63961
1.60214
1.57164
1.5508
1.54225
1.54829
1.57076
1.61078
1.66873
1.74415
1.83586
1.94237
2.06215
2.19421
2.33842
2.4956
2.66768
2.85794
3.07128
1.85187
1.81751
1.7784
1.73573
1.69114
1.64648
1.60385
1.56551
1.53395
1.51176
1.50147
1.5054
1.5254
1.5627
1.61758
1.68932
1.77636
1.87691
1.98911
2.11198
2.24535
2.39011
2.54815
2.72268
2.91854
1.83044
1.79012
1.7469
1.7015
1.655
1.60888
1.56493
1.52527
1.49225
1.46836
1.45604
1.45757
1.47478
1.50878
1.55965
1.62638
1.70704
1.79959
1.90197
2.01319
2.13306
2.26246
2.40327
2.55866
2.7337
1.80837
1.76252
1.71525
1.66688
1.61812
1.57011
1.52444
1.48308
1.44826
1.42236
1.40776
1.40664
1.42071
1.45085
1.49687
1.5574
1.63019
1.71294
1.8036
1.90105
2.00504
2.11633
2.23665
2.36916
2.51949
1.78472
1.73471
1.68401
1.63286
1.58174
1.5316
1.48391
1.44058
1.40377
1.37571
1.3587
1.3548
1.36546
1.39126
1.43168
1.48496
1.5486
1.62002
1.69733
1.77917
1.86519
1.95574
2.05193
2.15677
2.27586
1.76054
1.70778
1.65449
1.60081
1.54729
1.4949
1.44504
1.39973
1.36109
1.33103
1.3118
1.30524
1.31236
1.33348
1.3677
1.41282
1.46611
1.52495
1.58737
1.65206
1.71832
1.78602
1.8549
1.92531
2.0017
0.535538
0.555262
0.406601
0.162234
1.12571
1.09737
3.79537
2.10998
0.404807
14.0332
0.221128
1.84166
11.6234
0.681726
6.57188
2.53602
0.299712
0.172614
20.8008
0.369344
5.37771
5.25696
0.247469
1.88852
2.07403
2.16252
2.11651
1.16884
0.356163
0.264682
22.011
2.27558
0.349119
9.54971
0.254008
1.37019
8.65471
6.53124
9.22466
3.14216
0.301942
0.134006
3.82357
2.04143
1.53123
7.57177
0.23831
0.245134
0.301684
0.357065
0.233302
0.274863
9.72988
0.181888
3.79972
0.405206
0.675058
8.48547
0.780819
0.212363
1.38191
0.408425
1.09259
4.00661
2.13817
1.78519
5.23394
1.70088
11.3738
0.350119
0.404942
5.93486
1.16417
0.507264
2.1953
5.89168
1.05142
0.261218
1.54021
0.211282
9.57243
1.63282
2.35401
0.210753
1.2286
1.37076
1.36828
0.263044
0.349912
1.70072
1.66519
2.86642
9.50541
1.85422
1.08016
0.22338
2.08366
0.221919
0.336771
0.212245
0.963385
0.308311
0.98994
6.59405
0.889402
1.33394
0.25308
9.40052
0.476007
0.267326
4.6471
1.22429
0.267555
6.69133
9.56165
0.305457
0.337676
3.45837
11.3411
0.746292
0.0109456
1.25266
1.89551
1.94825
0.344584
3.61251
0.280801
0.621692
0.946455
0.246004
2.29108
0.554856
0.346279
9.48291
1.3602
1.32911
1.54297
0.881058
1.50064
0.303792
7.23897
8.81249
0.216033
0.0269142
0.328888
2.89391
0.165707
2.02424
2.44292
0.257317
3.40012
0.912797
0.163268
5.80248
2.05826
0.209272
1.21017
3.46169
1.72713
4.5808
3.92476
0.405196
3.28638
0.225967
5.9685
0.218957
0.785998
2.10272
3.62056
1.08077
0.619962
4.36403
1.73496
0.214091
5.54495
1.28566
5.79117
0.348371
0.261992
7.07517
8.09637
2.12507
10.2721
7.11595
1.73394
0.848411
0.221872
0.495251
0.360019
2.03376
0.233504
0.215649
0.253507
8.68204
6.05697
0.361073
2.20502
5.11508
0.316897
0.435799
9.83049
5.00224
1.55604
1.99639
1.57949
7.5461
4.55415
0.953174
0.315443
3.96611
0.930192
1.66383
8.49928
1.47165
4.52119
0.29194
0.898286
1.78267
6.54187
1.52878
0.728569
0.163159
1.87531
0.394646
0.566627
0.326439
1.90685
0.305454
0.407511
1.13058
0.205894
1.40549
1.92451
1.53552
9.05922
11.2254
2.44431
0.905782
7.34032
5.83681
17.8858
1.35797
5.44941
1.52997
1.2298
1.5964
2.59346
1.55997
2.54546
4.49583
0.341847
1.35009
8.82183
0.314529
1.12008
1.83871
0.262959
1.20704
1.90811
21.2197
1.82547
0.856952
1.89642
2.14948
0.639478
1.76054
6.63592
0.178533
3.63052
2.10438
4.73413
0.259793
0.429921
1.58035
19.606
0.183216
3.75718
0.392274
0.77926
0.235546
1.89214
3.7181
1.70697
7.50644
0.256662
1.596
1.34359
0.436251
0.245227
0.236905
4.85141
3.43925
0.0714363
0.246107
7.10815
0.296498
0.294275
3.74641
4.65
0.238805
0.231135
4.05845
2.08705
2.05948
0.29605
5.97036
4.86434
8.91133
0.301225
1.6581
6.12044
9.20412
0.36182
1.07914
0.369082
8.71967
0.24673
8.07263
2.04083
7.65532
1.72254
3.17658
1.96414
21.3074
1.34275
1.72301
0.337485
9.16753
4.11079
8.16972
6.14406
6.14745
0.660208
12.8841
0.266318
1.41624
2.14506
2.47144
0.220113
1.79109
1.63504
1.90453
0.216986
9.77553
0.706777
0.86415
0.9166
1.02805
1.29066
0.227541
0.583019
9.20044
0.135555
2.00344
0.248604
0.605636
5.92902
2.207
5.12505
0.230139
0.322791
0.241958
3.93206
0.328156
0.149135
1.36748
3.55886
0.253015
1.94742
0.357795
8.31734
5.71202
0.374683
0.348952
11.5102
1.38023
1.06806
7.30576
3.64221
12.0695
0.296354
3.8507
0.342711
2.14924
2.20673
6.00568
6.16506
0.386248
0.223892
0.233199
2.31507
7.18319
1.4966
0.355889
7.60342
16.9368
5.59763
0.345299
3.37966
0.354309
2.05751
3.90898
1.20726
0.367978
1.92821
0.11203
4.84738
1.49723
4.68916
17.2035
0.341391
1.85516
0.232923
1.47694
2.85989
0.820855
0.287771
0.228217
3.20202
2.91363
6.03579
3.91569
1.64565
0.995597
3.84642
0.241728
0.148058
2.11412
11.8171
2.4075
1.93093
1.68658
1.67762
1.68025
4.41944
3.42664
4.76621
0.077408
1.10908
1.31836
4.85607
5.869
0.252212
3.18063
11.019
0.331063
0.983417
0.345166
0.943946
1.48891
0.360093
3.69344
3.13861
0.243214
9.55764
0.351734
0.226019
1.41467
1.69651
0.925828
3.60801
1.73078
0.331516
8.47666
0.238271
1.62218
0.837888
0.403861
4.76302
0.227859
1.54696
1.45249
0.243624
1.24922
1.90873
10.2244
1.81538
1.4031
2.28519
2.66184
4.36238
9.16376
0.124133
1.87011
0.20886
1.15751
1.69033
5.81507
0.343667
6.69493
6.00263
2.97031
1.18706
0.362291
1.92511
0.673676
6.07667
1.65758
8.11285
0.357653
3.92257
4.6047
1.66411
1.36778
6.03995
9.17002
1.92495
2.0714
4.60001
2.40016
5.21421
9.03335
5.52794
1.91779
0.7273
0.253242
0.302093
0.281595
1.34726
1.91051
11.5079
0.237485
0.358989
0.221002
9.71294
6.56623
0.238804
0.32213
7.41377
4.74352
1.26715
6.92963
0.20769
0.389957
0.7488
3.58757
3.88574
0.266243
0.316992
3.08075
7.60264
0.277705
5.15578
0.258519
0.171503
0.379271
2.64596
0.660059
1.70447
0.383364
8.76832
8.86537
0.989371
0.318739
0.288087
0.250919
1.99521
9.53168
11.8154
0.315016
10.6121
9.41718
3.9757
10.9148
0.266202
16.6943
2.10538
0.88732
2.4018
1.84881
0.36009
6.50126
7.48994
0.761388
1.01584
0.270582
0.233826
0.318607
0.724008
1.86352
0.344416
10.5829
4.85193
10.9574
2.14974
0.343875
5.11019
1.06328
7.15495
4.91063
1.19404
1.34761
3.97631
5.28256
9.01261
0.744387
10.0011
0.27971
1.13447
2.2332
0.219473
1.2006
0.175624
2.0628
0.664601
1.16558
1.58793
11.0396
0.488908
3.46209
4.04524
9.14972
1.67294
3.53587
1.22405
8.32544
1.99389
0.954811
0.369638
4.53764
1.80744
3.11747
10.6552
1.15279
2.02813
0.211119
0.238113
1.09134
0.347191
2.1629
1.99374
1.51285
0.395751
2.96047
0.694287
6.70069
1.81704
1.66195
0.880542
4.86135
2.17567
0.702147
1.7762
4.95592
1.10335
2.01812
1.7035
3.42551
0.211692
5.42668
2.1203
0.357568
14.218
0.114172
6.62262
12.4666
0.234948
22.9896
2.72178
3.11254
0.314458
0.270682
0.217084
0.000485529
1.54094
2.09515
0.311827
0.359133
1.60142
10.1036
2.05312
16.7583
1.18391
0.225604
0.153504
2.79037
9.38331
1.39601
8.25933
10.9366
0.409812
8.79537
1.90967
2.41068
6.34837
0.784275
7.10295
0.332512
0.265876
2.44337
5.31258
2.89618
0.227435
2.17364
9.61871
4.35446
1.89187
6.42425
1.57609
5.46176
0.768819
1.73294
1.28929
5.95942
6.66016
0.222723
6.05567
3.60106
0.245175
5.86159
0.34591
0.251365
19.8927
1.26781
1.69243
0.11271
2.76335
1.88965
2.55773
1.46376
11.6609
14.7072
14.7726
1.76086
3.85101
8.82667
1.95191
3.71124
8.77894
0.305778
15.2786
0.273607
2.92595
0.348888
2.73178
0.315213
0.243489
0.203376
1.53337
2.31171
0.11813
1.74595
2.98532
6.3585
0.414777
10.5238
1.38318
3.36032
1.90796
2.02444
1.65502
0.23415
0.357873
2.11645
3.32692
5.34074
10.2186
0.303688
0.0346884
4.37534
1.71944
0.150466
0.464188
4.94205
0.24633
5.54337
1.63731
5.5695
0.497641
0.142903
1.60552
1.18064
0.911433
4.24021
3.73563
1.98519
2.25458
1.33952
4.05136
2.52042
1.73846
3.02991
0.234834
5.96905
5.33094
0.714245
4.21014
0.355176
1.31178
12.3684
8.20432
3.69353
4.25422
0.170886
6.79218
0.230125
0.347195
2.36738
1.48661
2.68276
7.64251
3.753
0.346574
9.34756
1.14641
9.39346
0.246112
0.269901
2.0319
1.551
0.359171
0.405391
1.87438
1.27469
0.358404
1.60527
0.380406
0.357016
6.88924
1.83028
0.39804
0.387433
0.415086
5.97766
3.9309
0.337316
2.87045
8.60987
3.95122
1.88303
0.653813
2.49482
1.47421
1.95727
0.402203
15.8557
2.71232
0.290026
13.847
6.05653
1.0954
3.50047
5.33489
1.43751
7.20348
5.84886
10.4503
7.91319
1.44767
5.51939
0.263009
1.82655
6.54909
2.85529
7.19633
0.327352
0.392493
0.547298
9.9433
6.30187
0.076785
1.76899
0.606447
0.205188
4.26219
0.615848
2.98008
0.0983739
6.50837
2.22343
0.231663
0.237644
2.05859
0.227004
0.220638
0.235639
13.2947
0.35103
7.86296
8.79741
4.02083
1.49389
0.589309
0.773661
1.59461
1.55177
2.36462
0.355541
1.03863
0.941949
0.357114
1.02567
2.06254
5.11078
0.371276
5.28621
10.9902
1.602
0.244343
0.247351
7.73787
7.13776
0.35348
1.28348
0.877127
2.43179
0.268344
5.37367
1.24724
0.978622
0.350011
3.10559
4.6294
0.442421
0.0206874
0.695648
10.5357
0.236672
6.43231
0.296593
0.311604
5.69802
1.3193
1.81444
1.51212
0.434645
8.31357
4.22774
1.84724
1.71783
0.378383
2.97599
0.229387
0.946437
0.248806
8.12565
2.68221
14.0662
1.36433
2.10186
0.394518
0.3223
1.12877
4.36579
2.27663
0.890484
4.91652
13.2576
6.91766
9.45315
0.327909
1.12876
1.63867
4.67977
2.34956
4.41718
1.51065
0.320018
3.35605
0.908656
2.84528
5.04743
0.808276
1.53867
10.142
6.16964
0.693815
1.08298
6.85075
1.2956
1.68058
0.252207
0.364103
0.39319
3.48386
1.71724
3.82742
0.858716
0.331043
1.03745
0.697547
0.276268
2.80817
1.92719
1.31244
2.00624
0.313338
10.4843
1.50356
0.503969
3.27006
3.47657
0.344379
1.8039
2.28744
2.30336
1.6926
2.70101
0.249902
7.84244
1.79831
0.28106
1.49316
0.23154
1.8394
0.324111
1.44978
1.9312
3.55808
4.66384
6.21129
0.700017
10.4891
0.688654
3.85727
11.0311
1.58728
0.411692
3.2645
0.247443
3.60998
2.65668
5.09711
1.31716
0.235004
0.372135
9.45396
1.62484
0.668668
4.3144
0.672711
0.319731
0.629955
2.055
3.66803
1.51235
2.23106
0.246888
6.20552
10.8662
2.25688
4.14269
3.23951
1.28019
0.234524
0.177043
2.45007
2.18859
4.95509
0.322657
1.19473
1.03829
2.48285
0.363102
0.241107
0.232231
1.52017
1.60501
1.25019
0.306206
5.645
0.372671
1.92429
1.96697
0.340005
1.98669
2.80558
0.918643
12.1669
22.5551
0.845794
0.391263
17.3553
0.358228
5.47949
1.98733
1.32683
11.8962
8.94584
1.43739
0.393276
6.1187
1.1804
3.8288
0.323477
0.213401
4.27154
2.7803
6.32196
1.16631
0.227748
1.25826
0.232049
2.07466
12.1275
11.0627
1.56774
1.67824
5.34023
2.915
1.38252
0.173496
0.600452
7.20821
0.328382
2.16411
11.9562
1.17382
16.0862
0.332803
0.318175
4.98288
12.3374
1.47836
4.68724
0.671381
0.38665
0.375371
1.24077
10.4057
1.38791
1.46647
0.404039
1.99999
1.01691
0.439834
0.257258
0.126394
2.05398
2.0986
8.0069
1.82504
10.592
2.26111
3.43019
1.56171
8.89292
1.31079
7.85127
1.48717
0.249943
0.33136
0.327215
0.46394
5.41955
0.160981
2.43399
0.315411
8.12113
2.23668
1.68609
1.03697
1.16407
3.74577
1.632
0.892306
0.371973
1.79105
1.22521
5.02767
0.675141
1.65035
1.7399
0.231374
0.344325
0.253921
0.224413
0.845886
1.1592
1.5851
1.77989
1.55471
2.78412
0.349517
8.56263
1.38313
5.14256
5.69961
0.322979
2.75782
1.88833
1.46524
3.6797
1.41017
1.26527
12.3003
0.829967
1.52549
0.3282
7.951
1.75703
0.356489
2.27629
1.54446
1.74101
0.232439
1.7319
1.44671
11.6603
3.5328
0.266646
0.267178
1.25496
3.60321
6.24837
5.43633
1.70227
8.50106
7.54079
2.42939
10.6988
10.2729
5.2084
0.355885
0.616397
0.331775
1.28599
1.45231
0.778238
2.45645
1.18095
5.55691
1.27566
0.234424
8.60353
1.78584
1.57972
6.40177
2.28756
1.47109
1.04395
3.95051
0.295395
0.685587
13.2938
7.13357
18.9035
3.33852
1.86883
0.334181
7.35101
4.36082
0.356561
1.04772
0.102691
1.93215
0.384061
0.334563
0.36376
1.37094
8.93749
0.309701
0.215696
0.340418
0.279679
6.21083
0.402162
0.389703
15.1969
10.7936
6.28104
0.245964
8.83296
1.17287
3.98124
3.39381
0.351551
0.806818
0.305346
5.43876
0.341919
11.2718
0.298213
1.82733
0.880139
2.05416
0.511404
1.17186
1.13714
0.263045
3.35548
0.302413
0.512053
5.0761
5.35712
3.04947
1.82828
10.0467
6.12336
5.37088
6.46202
0.755673
10.9297
1.38705
2.17275
0.363711
9.36989
1.33672
0.309373
12.5566
6.3927
0.733576
8.78791
1.25858
6.37604
4.10093
4.47563
0.939331
0.235393
1.98272
7.02356
0.270649
3.15334
5.49964
6.1529
4.5199
3.21515
0.0940894
2.58091
0.355423
1.42964
0.359425
1.7258
1.99246
8.46502
4.45844
1.73589
10.4068
7.80419
4.04755
0.729372
1.32836
5.44049
7.77206
0.352109
0.328445
1.57711
9.16925
1.40949
9.98713
0.246735
1.56052
0.853111
1.23576
0.355295
0.817062
7.40333
10.7801
1.95527
7.72521
0.313341
1.62687
1.51151
7.04128
0.670738
1.28463
2.84144
1.18215
1.36217
0.344397
0.240749
0.354262
1.82392
0.221493
5.44908
6.91767
3.84595
0.381345
0.326647
0.886154
4.12788
4.5644
5.27221
3.48584
0.288838
0.258603
10.0358
5.62686
1.68556
5.79809
1.78355
0.55925
0.294554
0.219299
0.813629
0.34736
6.15579
1.76174
9.64194
1.87003
0.330781
0.456302
1.65517
0.943437
3.41817
1.50775
4.68784
1.37796
3.44459
0.325102
0.3068
12.7849
1.5809
2.30747
0.404418
2.39835
0.309074
0.404357
0.213981
6.49536
0.756667
2.29415
6.93046
7.2102
1.59245
22.3941
0.340679
0.32371
8.03209
1.13258
0.264719
1.74529
0.344448
0.244691
4.76497
0.919062
3.83845
1.14977
9.10615
2.16058
0.323606
1.9412
7.7347
0.762237
4.80802
1.54914
4.91516
1.30155
8.31906
1.22382
1.6951
7.47663
7.72489
0.339467
2.5905
3.73071
1.74425
0.699672
2.8413
0.393945
0.346615
2.6926
0.334688
13.7293
2.16491
6.23623
5.62128
1.70717
1.59335
0.281802
2.68461
4.56284
0.294414
0.330866
15.5718
9.90234
6.97391
5.75988
4.11811
0.845339
3.1623
0.354843
1.41037
13.5387
5.95509
0.354434
1.57998
0.322288
0.353071
0.959336
0.316181
5.47759
0.485069
0.324193
1.19363
17.8137
0.0761858
9.45313
0.906624
5.52331
2.16966
6.42679
0.291439
0.884821
1.55266
0.245675
10.1984
0.680468
7.64734
5.0392
2.76144
0.24922
19.0581
9.38715
7.87298
3.01703
6.33352
1.74157
0.366018
0.263527
5.07013
11.4516
0.312196
4.65542
4.70914
1.82432
2.47353
8.58487
1.83459
1.10714
11.5882
3.10786
1.65957
0.0801453
0.641148
7.09313
0.284781
9.63207
1.23114
5.61194
1.14664
2.28822
0.24761
0.551852
0.225387
0.77065
0.0837703
8.65462
6.66923
5.03091
0.305384
2.73572
0.322928
0.326609
11.5774
6.68532
0.238567
1.38984
0.273689
0.946978
2.51514
0.313436
1.29693
2.60781
3.84473
2.91957
1.05254
6.52081
6.01245
3.90009
7.22412
0.473166
1.51813
0.337577
1.89546
0.329493
4.92375
5.69599
1.77205
10.5507
7.39323
0.211218
3.3967
1.27332
0.367107
3.55347
0.673458
0.313762
4.38602
0.388848
2.87482
0.236347
11.6175
0.589858
0.97187
0.350248
1.908
0.654156
3.20803
5.20701
0.992029
0.308291
8.51301
1.52936
1.07577
4.20178
0.803711
2.75202
0.640756
7.28866
2.02577
0.279498
1.39863
7.63658
0.334414
2.14223
2.43469
0.344373
7.86503
0.218004
3.81604
2.20681
4.53451
1.56243
2.72222
10.981
0.739957
2.07967
2.96453
0.845135
1.32579
0.349594
4.24413
1.84647
1.73481
1.17231
1.68481
1.90587
5.19207
2.82538
5.74714
0.823363
5.7784
0.350513
5.44287
0.968369
0.707995
5.60095
0.248522
3.62161
2.07973
4.76383
1.73386
1.56781
0.218777
2.60283
6.09459
1.24696
1.13593
0.652462
5.09036
1.97403
6.69718
0.353119
2.16214
2.20199
0.172275
6.56536
1.43348
0.82614
0.874566
2.25223
17.7128
6.45289
0.672281
3.68035
0.348464
6.03076
0.747949
10.386
4.21196
0.214803
0.287371
1.31102
2.73588
2.33074
3.86544
1.99039
0.68563
0.232867
2.57215
1.62401
3.13424
4.15615
1.00218
0.339039
2.04769
5.19358
1.57275
3.50333
0.297297
8.60635
5.81898
0.721222
0.813805
2.11132
1.45686
0.265319
2.70173
1.51309
0.320927
3.35739
3.00095
1.94169
3.35246
4.81038
0.336758
0.304321
1.28257
0.610807
8.23087
17.2251
0.280204
0.274021
2.03254
0.52432
3.53522
4.05951
10.3818
1.72901
0.272471
1.81306
0.61584
1.782
3.13098
0.176664
9.26964
5.62047
2.69574
0.446081
10.1847
1.66061
1.04273
9.10189
1.23625
1.1449
7.59328
4.22692
2.15095
6.93418
6.98832
12.8454
0.961353
4.5481
1.58738
4.58535
3.74143
1.21375
0.779706
0.210378
1.75823
1.92493
2.62739
0.256953
1.33289
2.39276
0.190651
12.1509
0.102624
4.75
8.43352
0.244164
5.54324
1.13473
1.33135
9.74064
3.80489
1.81687
4.09021
0.355693
0.358147
1.97356
0.289877
7.28997
2.83163
0.0241734
0.355
2.26801
6.44689
2.86205
0.302481
1.56833
7.20487
0.222547
0.246962
0.890408
0.342685
1.05634
2.23647
1.37812
0.284079
1.8825
0.977007
1.19588
0.21065
0.380471
6.30962
0.336343
2.14957
4.34539
1.32849
2.14466
1.95289
5.54052
4.18868
2.58343
10.1672
0.83899
5.36715
0.350405
3.26302
11.6625
0.24818
2.37034
1.57402
1.54602
0.223476
7.18815
4.99059
0.306125
5.23704
0.382375
4.40459
3.45203
1.49559
0.518378
0.678475
5.43028
3.85229
2.0511
5.31164
1.80471
0.3545
1.52557
8.83076
0.988155
0.560273
0.271246
3.68506
0.876932
5.49842
2.08358
1.33558
1.75213
8.79242
0.448083
3.54373
3.66728
3.03595
5.88541
0.960942
4.82785
1.50172
0.548483
8.41792
7.95799
5.99666
0.75926
7.98158
3.84785
0.0268299
5.96957
10.1296
2.84289
2.06614
1.74316
3.39867
1.21202
1.12987
4.84213
5.92522
0.370284
0.353985
0.281681
1.01031
0.0272542
1.86253
5.78388
1.61666
3.7878
0.265804
9.07843
0.213805
1.84656
0.207306
2.79223
1.5019
2.47479
10.6105
0.363954
4.48115
0.339885
1.71945
1.30002
1.26899
0.228107
4.54747
1.78424
1.52303
0.594584
4.93101
3.53535
2.13899
1.41509
1.1579
1.38244
0.222557
6.42939
3.12606
8.75706
3.31177
6.83369
0.317481
0.0824459
0.735489
3.58593
3.68783
0.911361
1.1855
0.229343
1.20859
0.615229
5.34575
1.09147
1.28784
1.50315
1.86304
5.72332
0.255761
0.592782
3.03842
6.02993
0.252431
1.88222
2.05983
0.810111
3.52849
0.940866
1.14152
10.7376
4.59759
21.7882
1.49889
7.32892
0.349173
6.94217
0.939935
1.81318
11.2518
0.242259
0.628562
1.72223
2.04214
4.38507
0.447582
0.302544
5.10239
3.4257
9.21833
2.93137
0.40003
0.229551
0.358379
0.23629
0.188962
0.714289
1.79394
0.642946
3.20338
5.42786
2.25978
2.72804
1.34299
0.23161
5.13308
5.99644
0.389751
0.219918
0.550905
4.18604
1.35305
0.346199
0.271706
0.721517
2.07305
1.64251
10.5817
1.82937
5.78593
2.3461
0.0918782
3.5443
1.18333
0.980513
1.67961
4.00933
9.19476
2.66918
0.332031
1.4437
4.86085
2.19083
4.40044
2.04335
0.292538
1.86726
0.32866
3.23455
3.21264
5.22179
0.264008
1.39808
2.49452
3.16308
0.292263
1.02398
1.1596
11.3423
0.116599
1.26493
0.777555
0.184906
2.71146
8.8793
0.398989
3.46994
2.96645
0.223702
2.68537
6.2908
5.20881
1.34512
5.53969
11.7641
0.216101
12.8521
8.20384
2.42353
0.226304
6.68261
8.87043
4.16475
1.47575
12.0043
2.35874
0.815167
3.50702
7.13338
0.332711
4.72784
1.86762
3.17134
0.342438
2.98971
0.219041
0.422401
17.8509
0.165957
3.40358
2.90531
0.503096
5.43971
0.533556
0.817823
1.33131
0.228703
0.226769
7.6456
1.89484
1.27664
1.82927
1.54646
0.490563
1.17973
5.67919
1.19774
3.60374
0.494452
5.30982
0.353793
16.7027
1.23894
0.354158
0.423509
3.02037
1.79767
2.19717
1.03342
2.35079
1.5023
2.13189
4.90586
3.9633
1.50744
3.74605
0.317031
4.04875
1.41545
3.47608
0.229293
0.344922
0.359154
0.357662
0.212712
2.03626
0.0908651
4.49037
1.9266
2.0782
0.299489
1.1986
2.07692
0.731213
11.5937
7.98589
4.61501
3.61112
2.48809
2.14286
0.409055
0.243079
1.09931
0.473891
0.215726
1.58367
1.46532
1.94049
10.2325
0.5977
1.70216
5.43503
7.76804
2.41276
1.69091
1.90187
0.789606
0.313001
5.12522
0.387917
0.333017
0.358936
0.358367
1.31512
13.0252
0.222889
0.692502
2.13251
1.24892
7.6955
1.92541
3.58552
0.382503
0.282254
1.27442
17.6743
3.95088
0.282336
1.85732
0.352297
0.358058
0.283574
0.353771
0.21368
3.49146
0.338366
7.74384
9.46838
0.609731
0.284602
0.25358
1.01967
4.83415
0.340793
17.65
0.337465
2.51695
0.232791
1.60777
2.02746
0.336229
7.04476
0.370567
0.992807
0.280599
3.20376
4.51193
1.19544
0.913947
0.88029
3.28909
2.08506
0.644298
1.87093
2.82531
1.14738
14.5004
2.364
0.384891
1.94714