/*--------------------------------*- C++ -*----------------------------------*\
  =========                 |
  \\      /  F ield         | OpenFOAM: The Open Source CFD Toolbox
   \\    /   O peration     | Website:  https://openfoam.org
    \\  /    A nd           | Version:  10
     \\/     M anipulation  |
\*---------------------------------------------------------------------------*/
FoamFile
{
    format      ascii;
    class       volScalarField;
    location    "950";
    object      p;
}
// * * * * * * * * * * * * * * * * * * * * * * * * * * * * * * * * * * * * * //

dimensions      [0 2 -2 0 0 0 0];

internalField   nonuniform List<scalar> 
10435
(
0.00296106
0.250391
-9.67288
-2.20011
-4.72817
-8.65145
-9.84665
-9.59708
-9.89925
-9.47594
-0.639154
-5.86058
-9.87332
0.28363
0.428729
-9.25492
0.0729533
-9.85878
-10.5269
-0.298467
-9.9728
-2.52021
-9.42208
-8.50923
-9.04773
-0.974409
-1.59525
-10.0567
-1.52834
-9.25589
-8.19388
-1.1693
-9.97793
-0.665697
-9.0702
1.05992
-8.92199
-2.74357
-0.264232
-9.34739
-9.40803
-10.1591
0.422224
-1.06468
-8.675
-9.3423
-9.18894
-0.373294
-9.78653
-3.2808
-9.62689
-8.04809
-0.844046
-1.61943
0.166938
-1.60277
-8.79678
-1.46984
-0.491375
-8.88744
-0.655518
0.585918
-1.14226
-7.16673
-9.01643
-9.64532
-0.59362
-0.905933
-9.97281
-8.06862
-0.892903
-1.67854
0.948387
-9.45923
0.417785
0.878765
-6.77674
-10.0881
-10.0335
0.248387
-4.80862
-0.209266
-0.584201
-1.11459
-5.63506
0.933047
0.570706
-0.774379
1.01624
0.328592
-1.29469
-1.81417
-0.512512
0.809879
0.0578516
1.18942
-2.84276
0.864643
0.218224
-3.42714
0.181264
-5.60384
0.746117
-0.330721
-6.58954
-1.60522
-0.874813
-3.98853
-6.53494
0.323814
-2.54687
-4.60278
0.0500862
0.099473
-2.06329
-1.84391
-4.1653
0.780136
-0.499723
-4.33441
-4.81903
1.06817
0.569946
1.34874
-1.61865
-0.746508
-3.60445
1.16646
-4.23137
-2.12216
1.38004
-0.875526
-9.33258
0.233378
-1.30611
0.719476
1.43897
-2.93996
-0.0680376
-1.2642
-0.754961
-8.58904
-0.291856
-6.59226
-3.2496
0.811704
1.5131
-7.78673
0.316445
-7.26516
-0.43646
-8.52796
0.107135
-7.42035
-8.5505
-0.568954
-2.53967
0.29917
-8.99968
0.191
-7.92137
0.174647
-1.5698
-5.65767
0.633446
-5.61455
-9.81283
-4.551
-7.2931
-6.79761
-9.07342
0.273464
-2.63224
0.938613
-7.14527
0.60829
0.853765
-0.273087
-1.89942
-0.852621
-0.162344
-8.3235
-6.32535
-0.89587
-8.77742
0.441238
0.367313
-10.0113
-5.41505
-7.55766
-5.71486
-0.36448
-0.751743
1.33248
-3.54346
-9.9942
0.603626
0.995095
-0.197679
-9.14284
1.09984
-0.0250054
-9.98638
-1.09962
-9.82299
-2.78531
-1.01516
-3.7574
-1.36735
-4.10941
0.11786
-9.28163
-6.06809
-6.15328
-0.903495
0.466493
0.390327
-0.0832746
-3.37169
0.0720675
-0.927306
-0.542357
-0.379777
1.1711
-1.03673
-9.36093
-2.8438
0.994006
-8.22516
0.863501
-0.445486
-9.52982
-2.96849
-8.16912
-1.93809
-0.0423993
-8.61827
-2.00041
-8.0538
-8.75233
-0.597678
-0.683424
-0.0541126
-1.55559
-2.38063
-9.98433
1.27644
-10.1487
-5.12994
0.916469
-5.10999
0.564439
-9.80632
-4.93059
-10.4222
-5.37731
-6.88684
-10.5013
-0.547584
-0.908907
-10.7613
-8.54379
-1.5563
-7.15456
0.448865
0.0782188
-0.182323
-9.15883
-0.129781
-3.55627
-10.4473
-11.2111
-11.1708
-9.62533
-3.98953
-5.13302
-0.767821
-3.57304
-9.89617
-10.9454
-9.52924
0.00291874
-10.3084
0.520926
0.531174
0.145048
-6.66775
-2.50072
-0.938757
-1.20813
1.38224
-0.283136
-1.51218
-10.941
-2.11857
-6.03777
0.645818
0.260599
-2.58905
-8.8776
-0.526752
-7.3882
-10.3461
-6.60552
-1.84286
0.568587
0.507849
-7.79734
-9.13463
-0.845663
-1.38807
-1.54096
1.14312
-6.8189
-9.511
-6.87231
-0.160308
-7.90018
-0.658753
-5.238
-7.4638
-2.46192
0.361596
-0.0527356
-10.4023
-9.76052
-5.13653
-10.3633
-0.365233
-1.57524
-9.67663
-1.18941
-0.799887
-9.93064
-7.60282
-1.28515
-1.0791
-2.50228
-0.361832
-2.3954
-6.17322
-0.675053
-0.363013
-5.19241
-7.60708
-1.5375
-1.09605
0.294543
0.169327
-10.0277
-0.58357
-9.29802
-4.86922
-10.3207
-11.056
-10.6365
-10.2294
-9.41452
-1.57546
-0.761459
-2.59111
-0.437237
-1.70948
-0.532595
-2.51197
-6.65045
-1.40801
-6.55651
-0.924114
-10.0322
-0.486178
-7.22081
-10.1006
-10.9137
0.166564
-6.87499
-2.59742
-2.17896
-0.851868
-1.19357
-8.83291
-2.00763
-10.5876
-0.813526
-10.2424
-10.4934
-10.2986
-10.1962
-10.7947
-10.1943
-9.30243
1.20059
-0.112247
-1.27467
-0.316577
-9.96322
-1.09457
-9.97149
-7.59281
-1.49026
-9.78641
-0.298311
-0.80905
-9.37824
-3.09499
-10.3312
-7.54263
0.148217
-1.12159
-5.29213
-9.48425
-5.72576
-0.885443
-1.40261
-1.54313
-0.43216
-1.14368
-9.8642
-4.09808
-2.00176
-1.59476
0.105019
-9.75282
0.423266
0.623897
-9.45047
-0.411161
60.8439
17.3268
29.7614
20.9109
22.6459
19.0006
17.978
16.0569
12.1377
51.3936
15.5314
24.2817
17.8742
18.9159
16.4586
15.6241
14.0825
12.5422
40.7908
12.3989
19.4204
15.0763
15.7028
14.0473
13.3218
12.0994
10.7468
31.4243
8.91237
14.7248
12.0646
12.5772
11.5878
11.0925
10.2485
9.19896
22.8421
5.84169
10.5576
9.21237
9.69735
9.20562
8.9537
8.49295
7.72184
14.9985
3.73044
7.12408
6.74813
7.18968
7.0389
6.965
6.74326
6.35525
8.35052
3.05603
4.57815
4.80846
5.1492
5.20883
5.25538
5.20951
5.08308
3.30981
3.28188
2.83235
3.38051
3.5946
3.76759
3.88386
3.95945
3.6981
-0.154811
3.08656
1.57181
2.34195
2.47999
2.71145
2.86288
2.97591
3.00548
-2.27802
2.18011
0.671061
1.61644
1.74312
2.00344
2.17609
2.32247
2.39446
-3.46061
1.19515
0.175016
1.18201
1.31854
1.57659
1.75037
1.90198
2.05841
-3.62526
0.864458
0.131061
1.01103
1.13073
1.35232
1.50277
1.62507
1.89771
-2.78858
1.1145
0.441666
1.02467
1.09323
1.25812
1.37833
1.49994
1.62769
-1.93615
1.42741
0.783658
1.0893
1.11073
1.22266
1.31803
1.43529
1.50448
-1.40966
1.58892
1.02245
1.13024
1.12375
1.19612
1.27263
1.3724
1.4612
-0.95088
1.5996
1.14097
1.12183
1.10744
1.1569
1.22311
1.30867
1.41647
-0.710507
1.37802
1.11206
1.05184
1.05295
1.09679
1.16071
1.23491
1.38619
-0.715279
0.951813
0.947486
0.928476
0.964886
1.01827
1.08802
1.16511
1.29854
-0.718679
0.545356
0.75139
0.786515
0.857758
0.924771
0.999977
1.08061
1.17738
-0.653214
0.283119
0.57277
0.64819
0.744128
0.825601
0.908746
0.997629
1.10345
-0.669572
0.12157
0.406446
0.517862
0.62748
0.720506
0.808822
0.905685
0.977745
-0.836056
0.0549592
0.247309
0.394815
0.507753
0.609573
0.703451
0.813362
0.795565
-1.21261
0.127917
0.112167
0.294212
0.402419
0.507013
0.603914
0.715182
0.672124
-1.69072
0.252292
-0.108708
0.0991396
0.210468
0.330018
0.461307
0.608517
0.548208
-1.7826
0.718816
0.173488
0.356322
0.420769
0.438269
0.526282
0.666177
-0.0577001
11.372
11.1803
11.2847
11.6754
12.1601
12.7742
13.5211
14.4028
15.414
16.5372
17.7541
19.0418
20.3663
21.7008
23.0109
24.2532
25.4024
26.4267
27.3014
28.0216
28.6498
29.3185
29.7616
29.54
29.1622
29.3585
30.1332
31.0914
31.8962
32.7632
33.7427
34.4216
34.6928
34.752
34.6949
34.5378
34.3037
34.0709
33.8821
33.8277
33.9868
34.5002
35.389
36.5324
37.9132
39.5988
41.6357
43.8546
46.0804
48.4235
50.9774
53.657
56.3553
58.8641
60.9945
62.77
64.1424
64.8963
65.3971
1.14692
0.54802
0.075076
-0.382789
-0.813458
-1.20503
-1.55098
-1.83795
-2.08142
-2.33294
-2.58828
-2.78449
-2.89433
-2.91889
-2.85489
-2.70027
-2.45421
-2.11365
-1.67178
-1.11764
-0.431791
0.408777
1.39559
2.49617
3.39826
3.79272
3.66137
3.00568
2.20256
1.58514
1.14946
0.84149
0.605786
0.425951
0.297009
0.21556
0.188117
0.22785
0.347818
0.558409
0.861903
1.25733
1.75012
2.20969
2.46292
2.47513
2.29208
2.08538
2.01153
1.933
1.775
1.6467
1.77266
2.44628
3.60645
5.09263
7.13063
9.46573
11.9925
4.99604
5.0492
5.07673
5.16398
5.29157
5.45746
5.66038
5.8986
6.16879
6.4696
6.8065
7.18133
7.59158
8.0327
8.50134
8.99286
9.50263
10.0266
10.5621
11.106
11.6559
12.2039
12.7242
13.175
13.5188
13.7723
13.9402
13.995
13.9537
13.8997
13.8519
13.8027
13.7469
13.6952
13.6577
13.6445
13.6673
13.7392
13.8737
14.0824
14.3771
14.7647
15.2544
15.8421
16.5324
17.3338
18.2692
19.4417
20.9294
22.5681
24.1194
25.5704
27.0601
28.5731
29.9954
31.2617
32.3245
33.2567
33.6642
1.83019
1.59742
1.43339
1.30595
1.20719
1.14014
1.1051
1.10274
1.13277
1.19426
1.28819
1.41746
1.5843
1.79122
2.03941
2.32947
2.66077
3.03087
3.43656
3.87191
4.32912
4.79608
5.25502
5.68144
6.04387
6.31783
6.49116
6.56484
6.55869
6.50138
6.40963
6.2924
6.15565
6.00484
5.84417
5.67864
5.51287
5.35227
5.20381
5.0744
4.97302
4.90929
4.89709
4.9503
5.09002
5.34064
5.7303
6.28326
7.0109
8.02904
9.35037
10.7688
12.1803
13.5581
14.8755
16.1816
17.5051
18.8162
20.1369
3.13881
3.12926
3.12265
3.15826
3.22282
3.31459
3.43225
3.57445
3.73957
3.92567
4.13164
4.3562
4.59781
4.85584
5.12883
5.41567
5.71504
6.02441
6.34205
6.66445
6.98715
7.30364
7.60549
7.88357
8.12705
8.3299
8.48709
8.5985
8.66769
8.70257
8.71064
8.69616
8.66564
8.62544
8.5798
8.53692
8.50237
8.4811
8.48473
8.52179
8.60358
8.74281
8.95558
9.25882
9.67346
10.2175
10.91
11.7593
12.7581
13.9507
15.3563
16.852
18.3341
19.7119
20.9439
22.0521
23.0172
23.8757
24.4418
2.04803
1.9324
1.85597
1.81372
1.79736
1.80792
1.84586
1.91086
2.00289
2.12097
2.26586
2.43675
2.63346
2.85512
3.10031
3.36722
3.65365
3.9537
4.26708
4.58883
4.91416
5.23421
5.5406
5.82704
6.07854
6.29379
6.46329
6.58999
6.67308
6.7151
6.72274
6.69304
6.63495
6.55528
6.44993
6.33388
6.20624
6.06147
5.92355
5.79755
5.69663
5.6355
5.63181
5.70629
5.88432
6.18108
6.62266
7.21913
7.97953
8.90173
9.97609
11.1603
12.406
13.7265
15.0807
16.2807
17.243
18.1001
18.9462
2.36503
2.3267
2.30698
2.32033
2.35722
2.41734
2.49884
2.60232
2.72617
2.86715
3.02602
3.2007
3.39213
3.59786
3.81569
4.04522
4.28905
4.53182
4.7847
5.03931
5.29842
5.54959
5.78866
6.02235
6.21923
6.40086
6.54328
6.66339
6.75283
6.80884
6.84816
6.84426
6.81919
6.78805
6.71949
6.6618
6.60107
6.50258
6.4415
6.39465
6.37863
6.40552
6.48848
6.64638
6.91225
7.27328
7.77437
8.40311
9.17282
10.0744
11.0884
12.1803
13.2984
14.4336
15.5344
16.5206
17.3538
18.0613
18.6264
2.12028
2.03392
1.97641
1.95481
1.94971
1.97659
2.01659
2.09818
2.19767
2.28826
2.42669
2.57614
2.75369
2.95664
3.16895
3.41092
3.6731
3.87172
4.11051
4.36213
4.63928
4.89454
5.12649
5.39156
5.56012
5.75004
5.86498
5.98443
6.07268
6.12622
6.18784
6.15376
6.11271
6.10026
5.9643
5.92799
5.92393
5.6726
5.52582
5.38436
5.27151
5.19044
5.15042
5.17468
5.39898
5.59327
6.02064
6.4727
7.01189
7.71273
8.58073
9.592
10.604
11.6369
12.6852
13.6864
14.5687
15.4686
16.1886
2.12214
2.12475
2.10816
2.14406
2.18185
2.25404
2.31567
2.37245
2.48467
2.67591
2.72872
2.87934
3.08033
3.22879
3.45993
3.54935
3.80838
4.01927
4.24567
4.41315
4.65028
4.8325
5.0182
5.25998
5.36435
5.54326
5.61095
5.71808
5.85485
5.77352
5.96226
5.90428
5.78264
5.81815
5.64226
5.66883
5.45865
5.15387
5.24637
5.113
5.02539
5.01911
4.9352
4.96295
5.13186
5.24257
5.54268
5.85569
6.5368
7.21352
7.9152
8.70245
9.53774
10.5815
11.5255
12.3124
13.0866
12.895
13.6909
-6.058
-5.9223
-5.46272
-4.83273
-4.13029
-3.53527
-3.06674
-2.56658
-2.01937
-1.56621
-1.21277
-0.842911
-0.503962
-0.201874
0.240165
0.839069
1.49322
2.18009
2.93879
3.80397
4.77081
5.83234
7.05869
8.7168
10.3923
-0.215181
-0.144782
-0.329129
-0.475879
-0.387753
-0.143504
0.124415
0.415032
0.68092
0.755106
0.62106
0.410443
0.201083
0.0715442
0.147351
0.434373
0.762883
0.968484
1.00912
1.06489
1.27226
1.56772
1.90837
2.37379
2.50609
-1.35539
-1.29893
-1.19112
-1.04696
-0.812068
-0.536962
-0.269896
-0.0224393
0.180716
0.276833
0.26842
0.213798
0.152646
0.128143
0.203876
0.38885
0.636137
0.906537
1.18569
1.51151
1.91171
2.38181
2.9244
3.55699
4.37901
-0.870104
-0.833107
-0.715531
-0.597586
-0.441417
-0.266072
-0.0904564
0.0713109
0.204736
0.289057
0.326092
0.338662
0.348397
0.377
0.447707
0.564549
0.712325
0.875294
1.04621
1.23401
1.44455
1.6665
1.88057
2.04783
2.23622
-0.781305
-0.743597
-0.621414
-0.502203
-0.358756
-0.209301
-0.0615505
0.0719115
0.183862
0.265975
0.319558
0.357244
0.392899
0.438977
0.509266
0.608821
0.734838
0.883006
1.05146
1.24287
1.46322
1.70772
1.98856
2.30642
2.7791
-0.64832
-0.591689
-0.469177
-0.36269
-0.237184
-0.114244
0.00932921
0.11961
0.215193
0.292786
0.351258
0.399392
0.447288
0.500125
0.567386
0.652757
0.756404
0.877105
1.01318
1.16263
1.32693
1.50047
1.68549
1.85738
2.11245
-0.482825
-0.486193
-0.35412
-0.263858
-0.149513
-0.0462461
0.0638079
0.158945
0.244357
0.319302
0.377197
0.4276
0.481119
0.535868
0.60166
0.681324
0.776114
0.887126
1.01366
1.1519
1.30626
1.47881
1.67655
1.88213
2.20381
-0.321777
-0.400045
-0.248215
-0.177957
-0.0678275
0.0202305
0.126218
0.208608
0.282925
0.355346
0.407434
0.454234
0.51414
0.570313
0.634948
0.711568
0.800593
0.90383
1.02035
1.145
1.29087
1.44559
1.63238
1.83637
2.11088
-0.32008
-0.342855
-0.130954
-0.0910197
0.00686616
0.0559544
0.154458
0.218731
0.312471
0.383094
0.438847
0.474046
0.523166
0.570933
0.63965
0.71179
0.796459
0.89655
1.03466
1.16124
1.29326
1.44938
1.60734
1.69362
1.86555
-9.72275
-9.99132
3.62761
4.93746
0.898272
0.78914
-4.30382
1.32264
3.13172
6.48245
-10.9926
1.18209
-11.4258
-0.198436
-11.3034
2.41725
-2.5025
4.89369
5.2878
-29.0512
-27.7797
2.92676
-8.90035
2.90287
1.23559
1.97952
1.2022
0.137838
-9.52565
-5.97662
7.89578
2.4377
-11.8001
-15.7134
-6.83617
1.18767
-4.06966
-10.6011
-6.558
3.54643
-12.1854
2.90343
2.36668
0.0892564
1.43372
4.18146
-10.935
-9.34013
-9.15184
-11.3785
-10.8983
-11.3393
-21.7772
4.89149
-4.01886
3.1709
-0.222167
-24.8291
0.290308
-8.36168
1.3758
4.07995
0.90804
2.55654
1.28008
-0.0106873
2.28455
2.8545
-7.59081
-10.6013
2.7471
3.49496
0.957114
-28.2183
0.705919
-29.0608
-27.0276
-10.9883
-0.144359
4.87601
-15.0572
1.5002
1.58373
-8.36484
1.07038
1.44132
0.965856
-11.1595
-12.1915
1.8792
2.36161
1.49632
3.97337
1.24993
0.861915
-10.7857
1.88906
-10.5592
2.84387
-8.45
0.475954
-12.6026
0.43007
2.89966
0.393386
0.492238
-8.8251
-18.4743
1.81707
-5.20315
2.44454
1.4971
-6.63151
2.72763
-22.9998
-9.07545
-12.1855
3.99919
-16.0967
1.71821
2.14458
1.40483
3.05775
1.35065
-11.5432
2.38959
-11.5495
-29.4653
-0.459749
-9.61027
1.67969
-28.2887
-10.3584
-11.577
-0.0603699
0.969477
1.56378
0.56317
1.55916
-28.6091
1.21265
-5.32191
-8.91027
2.19404
-9.39973
2.05928
4.77306
-27.7108
1.39951
-6.86783
-1.59746
-0.812855
4.75502
-14.9254
1.14749
-9.37886
0.737451
3.60777
-24.4728
3.76016
2.52657
2.88858
1.84575
-10.5663
2.70388
-8.22067
-0.279565
1.00871
3.41415
0.699611
-0.184234
2.69496
2.77603
-8.54114
1.74672
0.178334
-22.6415
-9.92156
-8.69788
3.42408
-16.9615
2.75919
-19.6113
-17.2739
0.560924
3.30568
-8.63597
1.76269
-11.9971
1.81616
-9.1076
-9.03141
0.77233
-4.36871
-13.1579
-12.0063
0.740403
2.83148
-9.18094
-9.43833
-6.6952
3.19394
1.66336
1.64291
-1.47991
3.87622
3.05366
0.49203
-9.70278
3.60417
0.368611
1.30072
-16.7177
-1.61107
-1.53988
-11.6929
0.727369
3.45086
5.68731
1.25445
0.34982
2.94409
1.23564
4.05471
4.3006
-12.1313
2.32603
-2.25782
1.80047
0.927236
-9.08521
1.28921
2.62578
1.75159
-6.37064
4.77118
-23.6966
0.163629
-17.7708
-13.3042
6.61697
1.31282
2.9302
0.109131
0.929846
1.15882
2.34156
0.613486
2.21561
2.99957
1.84445
0.204971
3.38674
-9.57004
2.20315
0.776947
-6.61333
-26.6327
-24.3431
9.57848
2.31457
-0.459084
1.6551
1.03296
-28.0539
1.43597
4.05284
4.69368
-5.25515
1.03063
-26.2438
0.50385
2.72351
3.45225
5.97134
4.64138
2.61254
2.63341
-0.296492
-10.65
0.131572
-1.45536
3.09986
3.71413
-8.42305
1.84072
0.360846
4.52216
-11.0969
-9.04901
-8.23626
2.06237
2.67332
-11.3094
-10.7439
-11.7738
-9.16738
1.91245
3.63009
-9.02097
-9.96261
2.35032
3.57797
1.73334
-7.29909
3.39614
-28.7997
2.71333
-28.753
1.68049
2.95025
2.82039
-12.4088
-0.316331
2.70152
-3.46083
-10.9033
3.36928
1.26436
-9.67864
-25.0242
1.85905
3.55949
7.73865
1.15928
1.45672
-12.2612
-19.6944
2.32081
-24.2814
2.51638
-13.182
0.329931
5.71909
-11.5322
1.39713
1.42301
1.62572
1.65302
2.64968
1.29386
1.1046
-8.95915
1.53896
-28.0283
0.741066
0.659269
2.81138
1.00512
-9.57467
2.27786
4.16007
2.37685
-24.6302
-11.3092
4.26117
-7.9657
-0.268802
2.84366
-8.39043
-9.86915
-8.76187
3.43621
-12.2406
2.97953
0.89896
2.76731
-11.3766
1.50399
-11.5842
3.82372
-15.7215
-9.60609
-1.13142
-9.8136
1.60513
1.58252
3.15637
3.70924
5.19403
-8.87342
1.92506
-11.0306
-0.152861
0.160969
-9.22112
2.93396
-29.0465
-11.1448
-8.90729
-2.65481
4.05078
1.05356
-5.96506
-17.1108
7.57013
2.95587
-10.7457
3.59958
-9.34548
1.2574
2.54898
1.01599
-10.5152
1.0224
3.33769
-5.03821
1.07446
-0.719351
3.94002
-2.52637
1.38109
-8.82035
1.41259
1.94585
3.90472
-8.96179
-9.31528
3.76172
2.06416
2.47578
3.52628
1.87726
0.359228
3.71798
-10.3671
1.68717
3.41395
2.89822
2.47143
1.21604
0.757324
1.23366
-0.114572
-5.8561
2.94347
1.84521
2.64986
2.75949
3.65345
3.64082
-13.3649
-11.4225
-0.431132
-11.0814
4.84611
0.228299
0.584239
0.286473
-0.183697
-1.03585
2.62405
1.7291
-8.94224
3.55184
-10.6046
-8.09924
1.64339
2.37265
-28.3626
1.81105
-0.559683
-2.59516
-16.434
-10.3622
1.07414
0.590757
4.37345
3.54171
-10.4453
0.16755
1.004
-8.43445
3.72713
1.38523
-16.8478
1.36457
0.815479
-27.4467
-27.0617
-1.68944
-7.70968
3.14953
1.10575
-8.9727
0.993802
1.40666
4.26529
-7.05099
2.62634
-16.3428
2.22232
1.50898
-5.59974
1.41916
0.53459
-14.5905
1.36747
4.07654
-11.6365
2.38621
-7.1062
1.60196
0.118816
-23.5459
-16.1234
2.02674
1.82635
-4.84723
2.05368
2.71581
-14.349
2.09773
1.46798
3.3324
-11.4227
-7.53209
-8.77814
1.55792
-2.34502
3.56841
-9.37105
-29.0151
4.96027
-14.6934
4.54174
-10.4538
-12.5297
3.53162
3.70341
0.31953
2.41444
4.45968
1.84342
1.65627
-0.636814
1.91514
-9.12169
-9.30135
2.10273
-10.5457
-4.87153
2.08932
-9.4605
2.38359
4.33283
1.82332
0.315943
1.40072
2.34485
-5.91622
-7.9
-0.432658
-9.56848
-8.91447
-10.7831
1.16561
3.19326
-9.17204
-10.257
1.72073
-12.8868
1.74146
-15.1877
-6.17912
6.95681
-2.12973
0.163236
2.62293
2.05623
-12.5484
5.12255
-11.2485
0.603216
0.797177
-5.99725
-9.67353
-10.1115
0.308304
2.28848
-28.116
-21.9965
2.96374
3.28932
1.45488
-10.3104
2.73874
0.797898
-5.68196
4.29615
0.762638
0.995247
2.6903
-17.9382
3.4517
0.16565
-16.44
-9.07722
0.914778
2.77433
-8.93665
0.181697
3.03811
3.59058
-29.1464
2.29456
1.68332
3.88765
4.48198
2.60115
2.65801
-6.34419
1.22615
3.32087
0.396474
-23.5283
3.61929
0.684333
4.54899
2.95823
1.07578
1.65723
2.86918
-0.943222
0.769801
-8.49991
-8.52021
0.119532
-9.58701
0.518768
0.900603
0.9233
3.23875
2.19707
1.74436
-24.0173
2.1265
1.34353
-0.750215
-20.0986
-2.29522
-0.0675412
-0.00819819
2.57109
0.906552
3.31491
2.3275
-0.275894
-8.62645
-17.3524
-24.4331
3.45813
5.52805
2.32532
4.81291
4.11799
-9.67347
14.4994
-29.3279
2.99619
-10.1245
4.8101
-10.8322
2.25339
0.989619
1.42363
-10.5818
0.457347
0.00350876
-22.3764
0.729013
6.39012
1.18937
-9.78679
3.08809
1.8155
-12.0334
1.23065
3.92752
4.82975
2.77123
-21.3476
3.5145
1.61738
4.04955
-0.08885
3.06028
-9.33388
-9.53622
2.23588
-5.72747
3.69528
-10.603
1.56341
3.48954
2.9349
1.91842
-5.25978
2.30718
2.82
0.324565
2.88665
2.12869
3.64446
4.34551
-8.39957
-16.9753
-1.37512
-9.88526
-8.43732
-7.62439
-7.10769
7.8811
0.770474
1.05449
3.33529
1.94849
-0.665948
2.26142
1.29317
-9.85908
2.33432
4.33788
0.772832
2.77112
1.79356
1.18102
-1.19555
-18.2003
-10.5068
4.60743
-9.37799
-4.08516
-9.96662
-29.1258
-12.2599
-11.3738
4.54057
3.42924
2.11349
3.08755
3.23564
1.70143
-9.94091
-10.008
1.83444
-25.371
-0.155368
3.57454
1.24809
1.4975
-8.31174
4.37614
1.2857
-4.19176
-17.0728
-18.5067
-10.4032
3.34094
3.40804
0.980816
3.1576
-9.68629
-1.26732
-8.80755
-16.1066
0.68591
-18.0671
1.83149
3.39144
0.364316
0.722899
0.594008
3.77219
2.13724
1.93877
1.66567
1.75975
2.41408
1.65284
2.38734
3.64398
-10.0701
-7.822
2.73284
2.23886
2.51918
-28.4356
1.13049
5.97085
2.55839
-26.7697
-1.43276
3.20385
1.34765
-10.0354
4.22962
-26.4564
1.84806
-27.1734
-11.6538
-20.9521
4.81049
-12.2238
-0.40707
2.71787
-9.39112
2.81382
1.25756
1.80491
-12.1005
3.57974
2.46774
1.02459
-11.3016
0.952028
4.18384
-2.22863
3.70046
2.6108
2.51962
-9.73698
-9.08196
3.14718
3.71899
3.19883
-27.3975
-6.13724
2.79831
1.11984
0.581648
-25.0153
3.62094
1.52325
-10.0221
5.64736
1.58627
4.8214
4.35137
-22.8761
1.54216
-26.9757
3.53473
1.44358
-10.9417
3.24046
2.90796
3.46581
0.191965
-25.4269
-11.2326
3.31818
3.68089
1.46197
-12.2709
-28.4069
3.7496
1.78017
-11.9126
-10.0939
1.74697
0.479986
0.494175
-9.26067
3.74978
-27.3425
2.36863
1.76161
-17.9854
2.03501
4.9317
4.18506
-28.5559
-9.78135
-8.58792
-8.935
4.11539
-9.73632
-12.6313
2.67434
-4.20823
1.15054
0.511363
-28.4728
1.70484
1.10158
-28.6873
4.42846
3.63051
3.54926
-11.8281
-0.391627
2.26214
-20.1832
-9.87504
-9.50307
2.3336
1.90151
-9.46546
-8.10859
-11.092
-22.8136
-10.9939
-0.913933
3.26319
-2.37564
-8.7139
3.03263
3.41937
-0.863826
-1.57279
2.49774
-2.43527
-9.06358
2.296
0.615792
2.9113
-8.39037
-4.50354
-9.85446
-9.07836
4.66251
0.141469
-2.06507
1.65158
-9.9571
-23.1331
3.27705
1.62843
1.6349
3.44017
-26.8302
-10.6538
1.47628
-9.09326
2.09737
-23.4333
3.47197
1.18545
1.36376
1.41416
-10.3436
-0.0213188
-25.6692
2.07387
2.22663
-7.72645
3.41595
-7.83315
-11.5755
-4.65148
1.50697
3.09573
-6.82744
2.01654
3.28724
1.41136
-5.64498
2.16871
0.37796
-23.4966
-5.50389
0.567624
1.87732
2.80606
2.9633
0.5288
2.70591
-24.7513
3.15563
1.77021
-8.88433
-28.6631
0.873938
1.91913
2.29108
-2.32367
3.53572
-9.19182
0.804999
0.515994
-6.23072
1.92717
1.91344
-0.91065
0.931741
-9.59576
5.06441
3.32737
3.09206
-4.99571
-4.89019
-12.22
1.26724
-25.967
2.17427
2.75912
2.18406
-9.45097
-16.8589
2.79327
-4.16907
3.62841
-9.75814
1.80129
-9.43963
0.967154
1.1229
3.01665
-2.52866
-9.53118
1.71282
2.67158
-28.4374
3.572
2.26998
1.35032
3.06654
1.76753
-9.82025
2.61258
1.89766
-18.5198
0.271922
-9.01572
3.45727
0.75585
2.50377
4.11628
3.39357
0.56097
-11.1995
4.11161
-0.220056
3.54832
1.55236
-2.50584
-9.09109
2.34777
2.96776
2.05079
3.27244
3.8204
3.33695
-9.30695
4.93658
-28.7567
2.03005
-8.33764
-6.35479
0.275743
-28.2732
2.1113
-10.1203
-8.99266
-9.18746
1.49001
1.68437
0.269553
-10.1074
3.45237
4.20186
2.85816
1.86842
-3.80413
0.0522198
3.38269
0.61958
5.55374
8.23899
3.90874
-9.89656
7.85338
-12.2748
3.72008
2.58027
3.12777
5.2045
-20.4343
3.62424
-28.2367
-21.9135
1.10258
3.2348
-9.47456
-10.2917
3.50484
3.61072
3.59217
3.38946
4.81421
0.301701
-10.2414
1.8348
5.05439
-15.8629
1.41356
-1.46038
-9.50485
2.94514
1.02746
3.17761
0.303465
-19.535
4.48874
-26.4668
1.42436
0.347771
5.13417
-12.7294
-12.8968
2.70343
5.53557
-25.2406
3.40847
0.501365
-3.09368
-9.7934
3.69425
4.50884
3.60989
0.0160601
-10.057
0.917871
3.65424
-9.74478
-9.10214
3.38234
2.76714
0.618093
5.31474
2.43865
-19.675
1.26754
-21.8687
1.45522
2.97337
1.22381
-21.8305
2.5335
-10.8726
-3.36074
-4.16766
-9.69114
-9.94202
5.06276
2.17822
-12.0907
-21.7059
1.55647
3.26689
1.48366
0.394948
2.57743
1.31672
1.6437
-1.12964
0.534024
0.225684
-9.33188
0.534967
1.81617
2.52435
-9.29167
3.44631
-11.2714
-10.7328
0.569745
2.73215
1.90062
2.70659
1.77373
-25.1503
4.3267
3.17286
1.46915
2.98436
-20.0684
-12.6853
2.54407
2.07516
0.647443
3.38462
1.04245
0.136813
4.80978
0.542917
-0.46483
-9.84413
3.23303
2.38044
0.825352
1.79434
1.44587
2.66323
4.30527
1.90417
3.28109
-12.1881
2.10399
4.98969
-9.18781
0.968898
-2.28051
-8.42766
3.06634
1.78609
3.21381
-12.4365
2.17743
-14.6495
3.44665
-8.84621
-11.0715
-29.2066
-9.83834
3.68818
1.41166
-28.1517
-25.1424
0.575076
3.15821
3.68738
-9.75745
3.14943
2.41719
3.57994
4.04736
-2.76133
3.62893
0.798372
3.4624
-10.1314
-28.5301
5.54915
4.97841
5.80692
2.66717
1.60514
-4.23472
4.71213
-0.138454
-11.4156
-28.9422
3.17732
-25.5203
-9.5144
-28.6466
-10.1863
-0.443587
-12.5578
-11.5885
-8.88907
3.37114
-9.15194
3.81751
2.71738
4.56261
3.1574
-11.9096
-15.7752
-10.3238
-16.6906
0.309074
2.45944
-4.45507
-11.1143
4.13887
-12.0342
3.34735
-28.7034
3.36975
-9.81748
-1.54711
0.41268
1.74148
-28.9947
1.48547
-0.954741
-28.5103
2.90142
-9.1558
1.89024
2.3815
-7.5234
-4.36337
2.00075
-20.2312
-12.114
4.97749
-22.3566
4.17181
2.81951
0.188574
0.476453
-10.6487
-12.2742
3.45111
-12.7485
1.3999
-25.8914
4.16124
2.80082
2.55765
-26.6046
-2.40045
-21.0844
2.29092
-9.51322
0.905745
-22.0845
-12.0267
-1.37791
3.70934
-10.7976
2.99881
2.00993
3.02401
-23.6387
-11.4075
1.35335
-12.5947
2.14061
1.71957
-4.74091
2.38436
1.29795
-12.5145
3.58739
3.15877
4.18052
1.44549
2.723
4.91761
-10.6333
-10.3233
1.77347
4.19559
1.98415
-12.5031
-10.6143
1.41609
-0.52944
0.401348
-13.0355
-0.562677
-2.22365
-9.57658
1.17366
-21.7196
-12.1261
1.30041
1.53769
3.99106
4.20381
1.15422
2.19145
0.580858
0.168972
-10.9515
2.44901
-12.3918
1.21527
-11.4495
2.8297
-16.9806
-1.36168
-27.9727
-9.73758
0.659836
-0.782071
2.80669
2.84873
2.62014
-9.48731
-9.03386
3.02273
3.21278
2.62255
3.19956
1.32131
1.9375
-11.866
-9.17122
-28.1843
-12.4447
4.04073
1.10657
-14.3774
3.34036
-9.81023
3.17102
1.44243
0.427118
2.18396
1.42401
2.55673
1.44399
-1.1203
-11.1129
-10.1145
4.12705
1.59378
-27.0871
2.43829
1.62089
-6.56687
-9.93174
-8.89425
2.41171
-28.8432
1.60175
4.12024
3.68929
1.26228
9.76524
-3.256
-7.86683
2.91296
0.318488
-28.522
2.26328
-10.9512
-8.89314
2.46376
-0.291687
3.38908
0.426129
-16.3753
0.59028
-9.91219
0.430697
2.70008
0.460902
4.40153
-0.165195
4.0972
2.34486
2.85057
1.11283
2.06425
-21.3867
3.97737
-2.90035
1.93849
2.41683
2.88176
0.479761
1.63127
0.718675
-10.8282
2.01535
-10.6745
5.93341
-25.175
3.19325
3.89669
1.33728
1.10041
-9.49725
2.75387
2.57925
1.9678
-2.23912
4.04554
4.78949
4.40643
3.33825
-6.20401
1.44731
1.95581
-13.1426
1.53557
5.02276
2.23265
-9.2138
2.36992
-10.4206
-10.1097
3.70502
4.3528
3.37135
3.16139
-12.5904
3.25772
3.89029
2.73612
-21.0857
0.545666
3.73571
0.991969
-7.54571
-3.12307
0.619264
1.79633
-8.80754
3.11599
2.03269
-11.1058
2.21963
-2.59798
-10.7535
7.36875
-15.7772
3.04377
2.28518
4.20798
1.39153
-0.566926
-8.6067
2.5409
5.16032
-11.1335
2.59876
3.75144
3.59739
0.0422433
-5.24577
1.1393
0.987897
5.38115
2.02168
0.97137
2.03116
0.460512
4.03438
-3.9318
-19.4414
1.04502
-10.7373
0.625546
-26.7038
-10.4925
-27.3463
-8.9923
3.9638
3.03339
-21.7877
3.577
2.69128
-9.24875
2.17007
4.69572
-10.2883
-13.0867
2.6641
-9.13905
0.894543
-10.0433
0.718292
3.6529
1.86953
0.183932
-26.4546
2.52909
3.60167
-0.264428
1.7323
-13.3219
-0.0537163
1.67904
-9.75774
0.0851006
-10.6049
0.0249726
-12.7387
2.33935
4.01294
1.96
4.01723
-25.031
-8.50404
-26.6616
0.904917
-10.4625
-21.8183
4.19705
-28.6124
-1.89108
3.38827
-27.955
-9.61761
2.99695
0.486509
0.8065
-12.2345
1.20622
3.49679
-22.9292
-24.757
0.0316738
-12.4616
-17.0933
1.629
0.341892
-4.54842
0.547617
-27.7913
0.528819
3.06172
1.45007
-5.37278
1.03466
-2.49558
-10.6232
1.1341
-3.10303
-0.118496
2.96559
-10.8467
2.92275
-28.6609
3.28713
1.48006
2.09045
4.86904
1.68861
2.19099
3.55688
0.671376
3.69122
-10.5747
-25.8089
1.67107
-28.9188
1.12681
1.48582
2.38039
2.52732
2.27352
-11.3928
3.52186
-4.01278
-11.0099
-8.84887
-27.1877
4.10248
3.03776
-11.14
2.77432
2.01057
2.19208
1.23137
1.92844
-9.37717
3.29364
3.83732
1.22122
0.42482
0.247133
-7.63584
-2.64115
-2.8014
-7.78861
1.74446
1.38582
4.4331
2.20416
1.22623
1.65009
0.425006
1.45738
5.70358
3.22969
3.51065
-3.67285
-11.1373
-10.2842
0.507321
3.85232
-2.62046
-8.90965
-9.4315
0.889685
1.73137
-0.0576416
3.20497
1.20284
0.489211
-8.93797
-2.68878
1.35444
1.94371
2.52453
0.404431
-10.5819
0.749709
2.49843
1.68802
2.17102
-9.76865
4.20489
-14.5116
3.90481
0.623301
0.374679
3.05351
-9.78049
-1.6294
2.4623
-12.3162
-26.4714
-0.306219
3.44873
2.05173
-20.7525
-12.8323
-12.6187
1.46447
-28.6591
3.41957
7.70924
-4.71266
-9.24827
1.29167
1.53096
-3.27056
-7.01073
4.34702
0.965041
-9.4216
1.39722
4.10181
2.55719
3.3539
4.53331
4.58678
3.32542
3.5907
-9.85778
3.20999
1.10518
0.8576
2.61141
-1.25448
0.641209
-23.8357
-2.32795
-2.64911
3.66893
2.61565
3.16377
3.66529
2.28323
1.40598
-25.7577
3.72752
0.717422
4.11045
3.08681
1.99519
0.507535
3.58985
-11.1083
1.25378
-26.9257
2.43721
6.21224
2.91867
2.54812
3.33191
-10.5079
2.96783
0.85637
3.41212
3.83596
-21.5036
1.66158
3.03124
-8.64223
-11.7501
1.13674
-9.72841
3.74182
-25.2033
3.3457
-10.9399
3.53179
-3.79529
1.63826
-10.4462
0.163008
-17.0409
-9.08899
-9.63611
-0.594733
-12.4287
1.52509
0.712864
1.442
-10.2434
3.33646
0.662587
-28.7187
-10.002
-9.91304
4.15186
-12.7927
0.418511
2.64194
1.30096
-1.92838
3.55174
-10.1534
2.36102
2.18859
4.45694
3.53019
3.57062
-10.2878
3.07065
4.3186
-10.0164
-2.13734
0.883687
1.70597
-9.22192
2.60675
2.77383
-11.3083
3.87814
1.6846
-4.80229
2.76211
0.364431
-29.1494
1.64827
3.45519
3.46633
1.21194
3.87638
2.2709
-11.328
1.03429
-16.0054
-0.0282004
0.424525
-9.68843
-0.228076
-0.384231
3.61041
0.92948
2.00721
1.03926
-9.52561
-9.4772
3.16573
2.44336
1.93006
-19.9146
0.579219
-2.50849
1.07024
0.405068
2.82062
4.04011
-3.09722
0.535409
-21.0713
-23.542
3.23438
-16.4012
5.10747
-26.7567
-1.95725
1.25425
2.54184
0.617208
2.60852
2.38533
-19.0843
-0.386185
-8.43505
-9.41745
-28.7218
2.74521
1.04403
-5.55871
1.15049
-4.89553
-12.2006
3.00049
-9.71956
-27.5711
-8.95185
3.52103
1.05182
1.70512
4.5236
-10.615
3.56171
-10.8965
3.18737
3.7279
0.203924
-10.0243
-22.406
1.86915
3.58892
4.24698
3.3973
2.34922
-2.65973
-28.0307
2.51404
1.38131
-10.8926
3.61633
-24.7252
3.1255
1.97039
4.25578
-9.72436
2.85215
1.65917
3.11682
3.28064
0.157644
2.12656
-9.55134
0.27905
1.71551
2.46014
1.53628
-28.3455
1.06913
0.82831
-10.6072
-9.99937
0.443537
-26.1391
3.7858
-8.97325
-28.6641
3.33744
0.19039
2.17987
2.01828
0.855219
-16.1216
-1.79039
6.81724
1.3025
-9.78135
-0.801797
-8.64168
-27.1792
-0.965417
3.63943
-9.26327
0.471056
1.37897
1.60114
3.94878
-27.9733
-11.7588
2.88603
-26.1079
2.00717
-27.4401
2.82011
-9.25806
-12.1159
-9.09967
4.07155
0.173529
3.46091
0.507494
-28.5297
-8.00403
3.55673
-2.26715
0.926342
-10.8836
3.04127
-5.05747
-0.462878
-9.24388
0.421875
-23.0259
-0.138233
-9.30484
-10.1605
3.32677
0.573204
2.40583
5.01446
2.04272
-6.44996
3.61691
1.99292
-24.5133
0.890516
-0.602374
0.138433
2.97243
3.64684
-26.5343
-12.5495
-0.0713862
-21.4165
1.6641
3.53862
2.39397
-10.4233
-25.6641
-10.6802
2.06429
2.82683
3.26479
-9.34687
-0.056425
-2.20878
1.93984
-11.9232
2.07513
-0.337405
-16.0881
2.99568
3.65478
0.578636
4.22262
1.84828
4.54951
1.45654
2.37763
2.8925
-11.1952
2.10622
-18.151
-20.5226
-0.258062
-10.0434
4.381
-9.58759
3.6942
-16.6886
1.55164
2.86094
4.14989
4.3474
2.23689
-0.889234
5.00254
-28.2248
2.25408
2.82793
1.3313
-12.5994
2.80882
3.16293
2.33649
-12.9168
1.92042
-8.92237
-3.58869
5.62517
4.96173
-4.08954
-25.6505