/*--------------------------------*- C++ -*----------------------------------*\
  =========                 |
  \\      /  F ield         | OpenFOAM: The Open Source CFD Toolbox
   \\    /   O peration     | Website:  https://openfoam.org
    \\  /    A nd           | Version:  10
     \\/     M anipulation  |
\*---------------------------------------------------------------------------*/
FoamFile
{
    format      ascii;
    class       surfaceScalarField;
    location    "950";
    object      phi;
}
// * * * * * * * * * * * * * * * * * * * * * * * * * * * * * * * * * * * * * //

dimensions      [0 3 -1 0 0 0 0];

internalField   nonuniform List<scalar> 
16133
(
1.81095
0.208508
-0.410229
-1.60932
-1.4063
0.924134
-1.1502
1.63234
-0.561892
-2.46287
1.86464
1.16014
-0.228992
-0.00201155
-2.78535
3.01633
-0.89825
-0.0432117
4.51569
-3.57427
5.13632
1.56572
-6.47949
-0.222577
-2.49939
0.771239
1.50096
0.227195
-0.0405647
-2.15753
0.56525
1.63285
-1.23831
1.83696
1.27788
-1.87651
0.526446
3.6769
-0.123966
-4.07938
2.18814
-1.89738
0.969938
-1.26075
3.04127
-1.0443
0.910144
-2.90714
-0.152841
-3.8324
2.24765
1.73759
0.908525
-0.794937
0.587328
-0.70092
0.995764
0.637125
-0.724373
-1.11275
0.791797
-2.46774
2.78869
-0.621693
0.516947
-0.6902
-5.39831
1.25039
4.06484
0.0830904
-3.22514
2.65324
-0.666412
0.0653138
2.02704
-0.281414
-0.472588
1.84496
-1.55749
0.185115
-0.407579
-2.71054
2.8891
-2.77986
2.85703
-1.18991
4.19413
-3.3817
-0.0362339
-0.776182
-3.59601
4.33437
-0.211901
-0.002495
0.0034136
-0.0684925
0.0675734
0.0233729
-0.00633346
-0.0155636
-0.00147649
-0.209162
-1.86321
1.71051
0.361867
-0.0323053
0.0569445
-0.0408419
0.0162029
-4.4038
2.68238
2.29636
-0.693255
-3.72447
2.12138
-1.25872
1.09347
2.35336
0.672466
-1.95963
1.2466
-0.0270875
0.172462
-0.0214224
-0.123953
-1.97916
-1.92876
2.00399
1.90393
-0.830528
1.03702
0.959927
-1.16643
-1.62058
-2.94153
2.58295
-0.0339037
0.0792309
-0.0921694
0.0468423
0.0420651
0.0857704
-0.0225551
-0.105281
-3.11776
0.571778
-0.679156
-4.59203
0.0642612
-2.47836
-0.58291
-0.878541
-0.286191
0.067345
1.09738
-0.368905
2.46704
0.10976
-2.20791
2.98566
-1.29044
-3.31579
1.81254
-0.736167
0.612423
-0.0681413
-0.424204
-0.30431
0.599559
0.128952
1.47467
0.871085
-0.508787
2.8417
-2.67562
-0.573678
-1.11628
-1.51384
-4.36063
4.56063
-3.08648
2.8865
0.117334
0.041322
-0.116591
-0.0230626
0.0359574
0.0574778
-0.0703725
-0.0159402
0.0479386
0.0537721
-0.0347241
-0.0229148
0.0253339
2.72374
-1.4406
-4.22466
-0.0455233
-0.072662
0.109303
0.00888184
-0.55533
0.82
-0.511712
0.247035
2.60752
0.0717159
0.0170046
0.0286135
0.931138
-1.15463
-1.18283
0.0691381
-0.0243231
0.0202085
-0.0650237
2.03208
-3.54851
3.12056
-1.60412
1.3866
-1.18079
-2.96243
2.03261
-1.53305
-0.479648
-0.189313
0.11363
0.0319535
0.26429
-0.0587038
-0.237541
0.734373
1.67584
-2.86265
0.304973
-0.82402
0.0336569
0.00834596
-0.0650655
0.0963977
-0.023492
0.00852205
-0.0814276
-0.903966
0.396191
1.4519
-0.94412
1.51965
-2.50872
-1.97334
0.588249
-0.90611
1.31362
-0.706027
-0.956817
0.97962
0.683216
-3.18641
1.16645
-0.842697
-1.47038
0.926549
1.31507
-1.27858
1.1638
0.787258
1.24808
-1.14059
0.48076
3.09889
-2.95614
0.607022
-0.749804
1.68983
-1.50724
-0.333871
0.151276
0.0539758
0.115041
-0.127695
0.0436997
0.0678426
-0.075585
3.43187
0.47586
-0.808855
-1.06945
0.88297
1.08184
-0.895361
1.44158
-1.25931
-0.88173
0.699459
2.37969
-2.08821
-0.660412
0.885889
-0.472277
0.423463
-0.837073
1.63212
-0.819941
0.629399
2.73188
0.323689
-0.675895
3.50688
-0.777045
1.86982
0.0285218
1.09138
-0.850151
0.644665
1.86012
-0.70439
0.476387
-1.22603
-0.673959
0.995667
2.95789
-0.446722
0.651091
-0.696795
-0.860407
0.822349
-0.362892
0.36054
-2.78055
3.06838
-0.617164
0.329289
1.00193
-0.823116
4.15785
-3.94182
0.877615
-1.09364
0.715042
-0.643494
0.415406
0.608517
4.43458
-0.885258
0.00537138
2.0354
-0.100264
0.561625
-0.676076
-0.163757
4.44096
-0.845352
1.29004
-0.47532
0.433343
0.245552
-2.45731
-0.463872
-3.5519
-1.28817
-1.3728
-0.394046
0.259591
-0.440982
0.358224
0.206242
-1.99116
-2.45962
-0.630524
2.88972
0.809152
1.23713
-1.91584
-0.925397
2.18081
-2.92188
-0.417888
2.70922
1.70585
1.70187
-0.518027
0.551598
-0.208888
-1.04874
1.40846
-0.991279
-0.720074
0.447136
1.52204
-1.2491
-2.26263
2.5921
1.24783
-1.57732
-0.0474565
0.112537
0.00641836
-0.0714991
-0.581173
0.673123
1.01011
-1.13164
4.11104
-3.34512
-0.0539399
0.046679
-0.0115071
0.0187683
1.14867
-1.19563
-1.94789
-1.57347
-1.88197
-1.00326
0.499785
-0.0161633
0.0974402
0.0151211
-0.0584995
0.138399
0.0933663
-0.173266
-0.506509
0.590061
-1.30959
-0.460186
3.02976
-1.63521
-2.20773
-0.142136
-0.166286
-0.0144086
-2.57339
3.57932
-0.0416276
-0.155541
-0.28248
-0.664133
1.86868
-3.87819
2.67366
2.99053
0.862611
-0.902411
0.742061
-0.702267
1.22503
-1.2844
1.04811
-3.37667
-0.79735
0.741353
-0.565705
2.43637
0.991538
-4.09206
-0.484511
0.126024
-0.0657185
-1.10324
-3.65315
1.76381
-1.54464
2.9881
1.31695
4.21015
1.9162
-0.151459
0.0327022
0.274002
-0.155246
3.03576
1.07162
-1.5153
0.743201
-1.39019
1.19044
1.67246
-1.47275
4.36989
1.04751
-2.00433
-3.41307
-0.90294
0.48701
-2.47485
2.79126
3.27145
-3.24814
-0.187103
-0.384235
1.22254
2.85951
2.95736
-1.74487
1.35708
-1.57183
-2.97447
-0.299369
2.85592
-2.41457
1.69361
-1.16586
1.8868
-3.35551
-4.07122
-0.230387
-2.62241
0.437804
-0.499089
-0.842679
0.00617895
0.00277694
-0.00557584
-0.00338042
-0.370193
0.536008
2.99743
-2.91933
0.913423
-1.11638
-1.42403
-1.18599
-0.654264
0.616875
-0.142785
0.180167
-2.24844
-0.351017
-0.0548614
0.117282
-0.00547656
-4.98746
-0.443904
-2.11443
1.06362
0.0960136
-0.0717545
-0.78666
-1.04395
1.90345
-2.32987
2.27548
3.11781
2.70774
2.61042
-1.95286
0.138333
0.0546103
-0.138968
-0.0619411
-0.00816207
0.752852
-1.32924
0.911043
-1.42721
1.64976
-1.95934
-0.549495
0.73176
-0.654119
-1.0914
0.0126396
1.50181
1.04116
0.143872
0.0104028
-0.188179
-2.50211
2.1401
0.177579
-0.952631
1.12203
-1.85034
2.73698
-0.680442
-0.525895
0.0626336
0.0661221
-0.0596178
3.07165
-0.236497
0.0190791
-0.267093
1.89832
1.16002
3.02157
0.0163776
0.0131741
-0.802289
0.84272
-0.513614
1.29517
0.128328
-0.122459
-0.158001
0.152132
-0.0556542
0.0531591
0.436357
0.0760013
-0.0767669
-0.0540958
0.673922
-0.273878
0.216824
0.272501
-0.123437
-0.190692
0.752869
0.0437246
-1.16679
-0.0262324
-0.0862684
0.147118
-0.034617
1.62382
0.0543262
-0.0589033
0.00457714
-0.46576
-1.02543
2.85354
-3.69151
0.97294
0.720383
0.446225
-0.431321
-0.157692
-1.63489
-0.00132805
0.874068
-3.47971
-0.0519497
0.0542232
0.0208722
-0.0231456
-0.379172
-3.38683
-0.0880018
-0.0178492
0.0796182
-2.6184
-0.463458
-2.14734
4.03835
-1.95879
-0.0279489
-0.130205
0.0718851
0.228001
-0.284918
0.185244
-0.0241587
-0.0468556
0.0362905
-1.05024
1.35638
-0.540328
1.4522
0.850681
-0.653113
0.00948255
-0.0204472
0.0109646
-0.917407
-1.38183
0.0237485
-0.0370689
0.0133209
1.17221
-3.38552
0.803511
0.867653
-0.403551
1.16161
0.0193954
0.00435318
0.329367
-0.159956
-0.191554
0.327979
0.151608
-0.546687
1.44781
-0.339365
-0.541567
2.94011
0.159994
-0.0602912
0.0386301
-0.278867
0.134167
-0.682049
0.905122
-1.59031
-0.366289
1.8246
-0.553028
3.06281
0.0487523
0.00440625
0.238321
-2.94212
1.01447
-0.539238
-1.48397
1.12146
0.728053
0.238469
-1.65196
1.34056
-0.157475
-0.0313635
0.0663793
4.88794
-0.0748437
0.0439241
0.0806404
-0.0808648
-0.105977
0.15489
-1.53618
0.125848
0.0540673
-0.097399
0.0277396
0.0318207
-0.0595603
-0.495382
-2.55095
3.28489
-0.386729
0.241647
0.180201
-1.52048
0.00706696
0.00241542
-0.901307
-3.04187
0.223144
0.0424425
0.0878508
-0.0863693
-0.227461
-0.156328
-0.0167296
-1.35056
-0.0928589
-2.25332
-1.19502
-0.00932931
0.125802
0.256178
-0.149581
-0.64574
-0.0273174
0.0226761
-0.019682
0.0543232
0.150734
-0.150447
-0.238166
-1.61515
-2.65123
0.0453453
0.00340687
0.13378
-1.56342
0.0284033
0.925976
-0.0182656
0.0351874
0.0597334
0.0741223
-0.0914132
0.439873
0.139751
-0.0102398
0.030308
-0.0411457
-0.0117464
0.0106947
-0.135044
0.215147
-0.101525
-0.00338115
0.013225
0.0468506
-0.00150544
0.000964996
-0.00654125
0.14717
0.0270841
0.00368424
-0.00989629
-0.161652
1.25561
-0.91745
0.825642
0.0209164
-0.0962271
-0.0128749
0.199798
-0.27704
-0.429032
0.670429
0.499384
-1.19674
-1.02983
-0.0233485
0.0339708
-0.0470397
0.0289139
-0.0634021
-0.0105272
0.0181107
0.00228522
-0.000803201
0.0476538
-0.070203
-0.0542223
1.31002
-0.0108864
0.0394919
-1.64861
0.407436
-1.15502
-0.485685
-0.0801403
0.00452068
-0.0173957
-0.042968
0.0160411
-0.0431662
0.0541303
-0.0137114
0.418709
-0.567587
-0.7255
0.659938
-0.0556678
-1.14589
-0.329777
-0.0586472
-0.0308374
-1.13628
-0.940853
-0.0236076
-0.0424182
0.0279848
0.117978
-0.411627
0.0389557
0.0185814
-0.046753
0.989434
-0.0167721
0.0255014
0.000713975
-0.0321445
3.09004
0.0339289
-0.198752
-0.711964
-0.185526
-0.683657
-0.00455472
0.123241
-0.118685
-0.00887069
0.128949
-0.124633
-0.0131406
0.14073
-0.13646
-0.0177268
0.150583
-0.145996
-0.022512
0.16045
-0.155664
-0.0276688
0.169342
-0.164185
-0.0331088
0.178052
-0.172611
-0.0389174
0.186378
-0.180569
0.194516
-0.188623
-0.0448109
-0.00377203
0.127013
-0.00773264
0.13291
-0.0115635
0.144561
-0.0156582
0.154677
-0.0198654
0.164657
-0.0243971
0.173873
-0.0291848
0.182839
-0.0342788
0.191472
0.199923
-0.0396854
-0.0033493
0.130363
-0.00673539
0.136296
-0.010069
0.147894
-0.0135989
0.158207
-0.0172499
0.168308
-0.021155
0.177779
-0.0252878
0.186972
-0.029682
0.195866
0.204596
-0.0343548
-0.00297766
0.133341
-0.00580464
0.139124
-0.00859813
0.150688
-0.0115418
0.161151
-0.0146191
0.171385
-0.0179142
0.181074
-0.021417
0.190475
-0.0251643
0.199614
0.208632
-0.0292003
-0.00258926
0.13593
-0.00485185
0.141386
-0.00708237
0.152918
-0.00944077
0.163509
-0.0119337
0.173878
-0.0146248
0.183765
-0.0175239
0.193374
-0.0206636
0.202754
0.212038
-0.0240697
-0.00208222
0.138012
-0.00379476
0.143099
-0.00547383
0.154597
-0.00725542
0.165291
-0.00916514
0.175788
-0.0112552
0.185855
-0.0135313
0.19565
-0.0160225
0.205245
0.214775
-0.0187599
-0.00130423
0.139317
-0.00254396
0.144339
-0.00372097
0.155774
-0.00496786
0.166538
-0.00630499
0.177125
-0.00778483
0.187335
-0.00943148
0.197297
-0.0112605
0.207074
0.216816
-0.0133017
-0.000263586
0.13958
-0.00114046
0.145216
-0.0018651
0.156499
-0.00259239
0.167265
-0.00336681
0.1779
-0.00424797
0.188216
-0.00525686
0.198306
-0.00641771
0.208235
0.218095
-0.00769648
0.000700539
0.13888
0.000215032
0.145701
-2.1748e-05
0.156736
-0.000218576
0.167462
-0.000423101
0.178104
-0.000694148
0.188487
-0.0010712
0.198683
-0.0015613
0.208725
0.218719
-0.00218553
0.00129341
0.137586
0.00133005
0.145664
0.00168626
0.156379
0.00207775
0.16707
0.00246879
0.177713
0.00278924
0.188166
0.00301925
0.198453
0.00313574
0.208608
0.218703
0.00315141
0.00154203
0.136044
0.00222608
0.14498
0.00325669
0.155348
0.00426181
0.166065
0.00524104
0.176733
0.00613227
0.187275
0.00693056
0.197654
0.00760891
0.20793
0.21816
0.00815233
0.00169835
0.134346
0.00312076
0.143557
0.00478177
0.153687
0.00635169
0.164495
0.00784982
0.175235
0.00926705
0.185857
0.0105812
0.19634
0.011801
0.20671
0.217129
0.0128325
0.00221909
0.132126
0.00428885
0.141487
0.00636644
0.151609
0.00834124
0.16252
0.0102477
0.173329
0.0120737
0.184031
0.0138169
0.194597
0.0154619
0.205065
0.215565
0.017026
0.00304787
0.129079
0.0055699
0.138965
0.00790211
0.149277
0.0101447
0.160277
0.0123282
0.171145
0.0144369
0.181922
0.0164697
0.192564
0.0184068
0.203127
0.21371
0.0202614
0.0037729
0.125306
0.00666367
0.136074
0.00918869
0.146752
0.0116018
0.157864
0.0139558
0.168791
0.0162517
0.179626
0.0184717
0.190344
0.020589
0.20101
0.211676
0.0226224
0.00413193
0.121175
0.00732492
0.132881
0.0100059
0.144071
0.0125538
0.155316
0.0150322
0.166312
0.0174456
0.177213
0.0197759
0.188014
0.0220007
0.198785
0.209544
0.0241325
0.00383912
0.117336
0.00732166
0.129399
0.0101962
0.141196
0.0129084
0.152603
0.0155159
0.163705
0.0180328
0.174696
0.0204337
0.185613
0.0227164
0.196503
0.207428
0.0248327
0.00306741
0.114269
0.00667971
0.125786
0.00980127
0.138074
0.0127189
0.149686
0.0154787
0.160945
0.0181013
0.172073
0.0205772
0.183137
0.0228969
0.194183
0.205285
0.0250404
0.00239472
0.111874
0.00587769
0.122303
0.00912949
0.134823
0.0122116
0.146603
0.0151176
0.158039
0.017859
0.169332
0.0204285
0.180567
0.0228296
0.191782
0.203038
0.0250758
0.00201995
0.109854
0.00525525
0.119068
0.00849073
0.131587
0.0116502
0.143444
0.0146574
0.155032
0.0175016
0.166488
0.0201674
0.177901
0.022642
0.189307
0.200767
0.0249136
0.00185353
0.108
0.00488971
0.116032
0.00804862
0.128428
0.0112205
0.140272
0.0142949
0.151957
0.0172364
0.163546
0.0200199
0.175118
0.0226051
0.186722
0.19844
0.0249319
0.00189236
0.106108
0.00480974
0.113114
0.00788711
0.125351
0.0110348
0.137124
0.0141575
0.148834
0.0172028
0.160501
0.0201341
0.172187
0.0228793
0.183977
0.195906
0.0254125
0.00223803
0.10387
0.00504121
0.110311
0.00802754
0.122365
0.0111336
0.134018
0.0143052
0.145663
0.0174789
0.157327
0.0206261
0.169039
0.0235991
0.181004
0.193292
0.0262136
0.00288808
0.100982
0.00553892
0.107661
0.00841984
0.119484
0.0115072
0.130931
0.0147492
0.142421
0.0180649
0.154012
0.0214905
0.165614
0.0247497
0.177744
0.190984
0.0270568
0.00358256
0.00596284
0.00885564
0.0120916
0.0155447
0.0191091
0.0230714
0.02755
0.033008
-0.0978748
-0.00122226
0.0990971
-0.096471
-0.00140382
-0.0948601
-0.00161087
-0.0930145
-0.00184561
-0.0909131
-0.00210142
-0.0885357
-0.00237743
-0.0858666
-0.00266908
-0.0828994
-0.0029673
-0.0796288
-0.0032705
-0.0760624
-0.00356645
-0.0722069
-0.00385547
-0.0680748
-0.0041321
-0.0636842
-0.00439045
-0.0590545
-0.00462975
-0.0542127
-0.00484169
-0.049185
-0.0050277
-0.0440042
-0.00518062
-0.0387038
-0.00530033
-0.0333238
-0.00537991
-0.0279102
-0.00541357
-0.0225212
-0.00538886
-0.0172337
-0.00528748
-0.0121301
-0.00510348
-0.00724717
-0.00488285
-0.00250037
-0.00474669
0.00226119
-0.00476149
0.00718856
-0.00492725
0.012419
-0.00523041
0.0179466
-0.00552739
0.0236431
-0.00569639
0.0294017
-0.00575847
0.0351524
-0.0057506
0.0408459
-0.00569338
0.0464339
-0.00558783
0.0518695
-0.00543546
0.0571105
-0.00524094
0.062116
-0.00500539
0.0668468
-0.00473069
0.0712722
-0.0044253
0.0753669
-0.00409464
0.0791201
-0.003753
0.082534
-0.00341392
0.0856232
-0.00308902
0.0884388
-0.00281565
0.0910571
-0.00261809
0.0935542
-0.00249703
0.0959796
-0.00242517
0.0983597
-0.00238015
0.100694
-0.00233448
0.102974
-0.00227947
0.105188
-0.00221341
0.107316
-0.00212804
0.109346
-0.00203045
0.111259
-0.00191219
0.113037
-0.00177848
0.114672
-0.00163499
0.116157
-0.0014843
0.117495
-0.00133798
-0.00119064
-0.0948043
-0.00274879
0.0963308
-0.0931448
-0.00306331
-0.0913445
-0.00341111
-0.0893927
-0.00379738
-0.0872843
-0.00420987
-0.0850066
-0.00465518
-0.082555
-0.00512068
-0.0799173
-0.00560504
-0.0770866
-0.00610123
-0.0740519
-0.00660114
-0.070802
-0.00710544
-0.0673286
-0.00760556
-0.063623
-0.00809605
-0.0596877
-0.00856511
-0.0555227
-0.0090067
-0.051134
-0.00941648
-0.0465317
-0.00978292
-0.0417303
-0.0101018
-0.0367431
-0.0103671
-0.0315859
-0.0105707
-0.0262666
-0.0107081
-0.0207724
-0.0107816
-0.0150675
-0.0108084
-0.00912124
-0.010829
-0.0029829
-0.010885
0.00324798
-0.0109923
0.00947283
-0.0111521
0.0155981
-0.0113556
0.0216279
-0.0115571
0.0276169
-0.0116853
0.0335742
-0.0117157
0.0394757
-0.0116521
0.0452829
-0.0115005
0.050963
-0.0112679
0.0564817
-0.010954
0.0618109
-0.0105702
0.066927
-0.0101214
0.0718186
-0.00962229
0.0764765
-0.00908315
0.0809027
-0.00852081
0.0851029
-0.00795318
0.0890851
-0.00739609
0.09287
-0.00687395
0.0964551
-0.00640079
0.0998212
-0.00598423
0.10295
-0.00562571
0.105833
-0.00530795
0.108459
-0.00500629
0.110832
-0.00470797
0.112958
-0.00440546
0.114856
-0.00411134
0.116553
-0.0038251
0.118072
-0.00354955
0.119439
-0.00327953
0.120671
-0.00301019
0.121792
-0.00275582
0.122815
-0.00250745
0.123756
-0.00227943
-0.00206724
-0.10228
-0.00445504
0.103986
-0.100438
-0.0049051
-0.0984551
-0.00539439
-0.0963302
-0.00592227
-0.0940496
-0.00649049
-0.0916067
-0.00709814
-0.0889893
-0.00773803
-0.0861877
-0.0084067
-0.0831851
-0.00910381
-0.0799665
-0.00981971
-0.0765214
-0.0105506
-0.0728428
-0.0112842
-0.0689255
-0.0120133
-0.0647643
-0.0127264
-0.0603561
-0.0134149
-0.0557064
-0.0140662
-0.0508136
-0.0146757
-0.0456855
-0.01523
-0.0403273
-0.0157253
-0.0347437
-0.0161544
-0.0289349
-0.0165169
-0.0229025
-0.0168141
-0.0166527
-0.0170583
-0.0102128
-0.017269
-0.00363186
-0.017466
0.00303986
-0.017664
0.00975006
-0.0178623
0.0164424
-0.018048
0.0230746
-0.0181895
0.0296399
-0.0182507
0.0361327
-0.0182086
0.0425344
-0.0180538
0.0488201
-0.0177862
0.0549592
-0.0174071
0.0609295
-0.0169244
0.0667077
-0.0163483
0.072275
-0.0156888
0.0776195
-0.0149669
0.0827347
-0.0141983
0.0876132
-0.0133995
0.0922564
-0.0125963
0.096664
-0.0118038
0.100833
-0.0110425
0.104751
-0.0103191
0.108413
-0.00964687
0.111804
-0.00901673
0.114923
-0.00842638
0.117781
-0.00786422
0.120398
-0.00732534
0.122789
-0.00679621
0.12496
-0.00628212
0.126925
-0.00578991
0.128703
-0.00532763
0.130311
-0.00488762
0.131772
-0.00447139
0.133102
-0.00408548
0.134322
-0.0037276
0.135438
-0.0033952
-0.00308912
-0.108702
-0.00619427
0.110441
-0.106824
-0.00678227
-0.104795
-0.00742373
-0.102605
-0.00811259
-0.100246
-0.00884935
-0.097708
-0.00963611
-0.0949805
-0.0104655
-0.0920478
-0.0113395
-0.0889034
-0.0122482
-0.0855371
-0.013186
-0.081942
-0.0141457
-0.0781046
-0.0151216
-0.0740208
-0.0160971
-0.0696791
-0.0170681
-0.065078
-0.018016
-0.0602083
-0.0189359
-0.0550709
-0.0198132
-0.049665
-0.0206359
-0.0439924
-0.021398
-0.0380563
-0.0220905
-0.0318615
-0.0227117
-0.0254159
-0.0232598
-0.0187347
-0.0237394
-0.011848
-0.0241558
-0.00479663
-0.0245174
0.00236842
-0.0248291
0.00959062
-0.0250846
0.0168171
-0.0252745
0.0240074
-0.0253797
0.0311352
-0.0253785
0.03818
-0.0252534
0.0451214
-0.0249953
0.0519353
-0.0246001
0.0585997
-0.0240714
0.0650882
-0.023413
0.0713827
-0.0226429
0.0774667
-0.0217728
0.0833177
-0.0208179
0.0889234
-0.0198041
0.0942765
-0.0187525
0.0993654
-0.0176852
0.10418
-0.0166185
0.108709
-0.0155717
0.112943
-0.0145531
0.116868
-0.0135714
0.120486
-0.0126346
0.123793
-0.0117342
0.126808
-0.0108788
0.12954
-0.010057
0.132019
-0.00927539
0.134262
-0.00852559
0.136288
-0.00781524
0.138109
-0.00714943
0.139758
-0.00653576
0.141252
-0.00596606
0.142611
-0.00544443
0.143846
-0.00496262
0.144969
-0.00451794
-0.00411647
-0.118111
-0.00807684
0.119993
-0.116063
-0.00882995
-0.113847
-0.00963987
-0.111452
-0.0105075
-0.108868
-0.011433
-0.106088
-0.0124162
-0.103098
-0.0134557
-0.0998939
-0.0145437
-0.0964641
-0.0156781
-0.0927992
-0.0168509
-0.0888908
-0.0180541
-0.0847309
-0.0192815
-0.0803112
-0.0205169
-0.0756272
-0.0217522
-0.0706687
-0.0229745
-0.065434
-0.0241707
-0.0599203
-0.0253269
-0.0541243
-0.0264319
-0.0480511
-0.0274712
-0.0417015
-0.0284401
-0.035087
-0.0293262
-0.0282196
-0.0301272
-0.0211197
-0.0308394
-0.0138145
-0.031461
-0.00634204
-0.0319898
0.00125274
-0.0324239
0.00892388
-0.0327557
0.016626
-0.0329767
0.0243182
-0.0330719
0.0319655
-0.0330258
0.0395378
-0.0328258
0.0470057
-0.0324632
0.05434
-0.0319344
0.0615161
-0.0312476
0.0685106
-0.0304074
0.075294
-0.0294263
0.0818454
-0.0283243
0.0881467
-0.0271191
0.0941783
-0.0258358
0.0999277
-0.0245019
0.105376
-0.0231331
0.110516
-0.0217592
0.115336
-0.0203919
0.119833
-0.0190496
0.124004
-0.0177427
0.127849
-0.0164789
0.131379
-0.0152651
0.134605
-0.0141045
0.137544
-0.0129959
0.140216
-0.0119476
0.142651
-0.0109598
0.144869
-0.0100335
0.146893
-0.00917342
0.14873
-0.00837304
0.150399
-0.00763526
0.151912
-0.00695697
0.153284
-0.00633511
0.154533
-0.00576661
-0.00524775
-0.126982
-0.0100391
0.128944
-0.124849
-0.0109624
-0.12254
-0.0119493
-0.120039
-0.0130084
-0.117333
-0.0141394
-0.114416
-0.0153333
-0.111274
-0.0165969
-0.107898
-0.0179203
-0.104275
-0.0193013
-0.100398
-0.0207274
-0.0962568
-0.0221954
-0.0918436
-0.0236947
-0.0871477
-0.0252128
-0.0821618
-0.026738
-0.076882
-0.0282543
-0.0713036
-0.0297491
-0.065424
-0.0312066
-0.0592487
-0.0326071
-0.0527774
-0.0339426
-0.0460184
-0.0351991
-0.0389794
-0.0363652
-0.0316783
-0.0374282
-0.0241356
-0.0383821
-0.0163809
-0.0392158
-0.00845125
-0.0399195
-0.000388777
-0.0404864
0.00776255
-0.0409071
0.0159606
-0.0411748
0.0241644
-0.0412757
0.0323356
-0.041197
0.0404401
-0.0409302
0.0484411
-0.0404643
0.0563076
-0.0398009
0.0640112
-0.0389512
0.0715195
-0.0379158
0.0788089
-0.0367157
0.0858526
-0.035368
0.092618
-0.0338845
0.0990881
-0.0323059
0.105241
-0.0306552
0.111066
-0.0289578
0.116545
-0.027238
0.121674
-0.0255207
0.126444
-0.0238204
0.130861
-0.0221592
0.134927
-0.0205453
0.138654
-0.0189913
0.142056
-0.0175065
0.145156
-0.0160967
0.147977
-0.0147681
0.150544
-0.0135267
0.152876
-0.0123661
0.154995
-0.0112919
0.156919
-0.0102974
0.158667
-0.00938334
0.160251
-0.00854039
0.161688
-0.00777239
0.162998
-0.00707609
-0.00643483
-0.137319
-0.012127
0.139407
-0.135046
-0.0132355
-0.132577
-0.0144183
-0.129901
-0.0156844
-0.127007
-0.0170333
-0.12388
-0.0184603
-0.12051
-0.0199665
-0.116885
-0.0215457
-0.112999
-0.0231868
-0.108838
-0.0248886
-0.104396
-0.0266372
-0.0996658
-0.0284253
-0.0946353
-0.0302433
-0.0892992
-0.0320741
-0.0836528
-0.0339008
-0.0776942
-0.0357076
-0.0714183
-0.0374825
-0.0648384
-0.039187
-0.0579532
-0.0408279
-0.0507738
-0.0423785
-0.0433058
-0.0438333
-0.0355691
-0.0451649
-0.0275859
-0.0463654
-0.0193802
-0.0474214
-0.0109964
-0.0483033
-0.00247253
-0.0490103
0.00614534
-0.049525
0.0148211
-0.0498506
0.0235149
-0.0499695
0.0321852
-0.0498674
0.0407985
-0.0495435
0.0493069
-0.0489727
0.0576765
-0.0481705
0.0658782
-0.0471529
0.0738726
-0.0459103
0.0816387
-0.0444818
0.0891461
-0.0428753
0.0963451
-0.0410836
0.103226
-0.0391869
0.109765
-0.0371945
0.115953
-0.0351452
0.12177
-0.0330552
0.127213
-0.0309639
0.132276
-0.0288832
0.136967
-0.0268505
0.141291
-0.0248695
0.145261
-0.022961
0.148889
-0.0211343
0.152199
-0.0194071
0.155216
-0.0177846
0.157957
-0.0162677
0.160455
-0.0148641
0.162723
-0.0135604
0.164786
-0.0123601
0.166661
-0.0112587
0.168369
-0.0102478
0.169922
-0.00932565
0.171332
-0.00848625
-0.00771389
-0.147841
-0.0143246
0.150038
-0.145458
-0.0156178
-0.142875
-0.0170017
-0.140067
-0.0184929
-0.137026
-0.0200737
-0.133732
-0.0217549
-0.130182
-0.0235162
-0.126351
-0.0253767
-0.122224
-0.027314
-0.117817
-0.0292959
-0.113104
-0.0313492
-0.108079
-0.0334507
-0.102735
-0.0355878
-0.0970594
-0.0377493
-0.0910533
-0.0399068
-0.0847074
-0.0420536
-0.0780193
-0.0441706
-0.0710267
-0.0461796
-0.0637252
-0.0481294
-0.0561192
-0.0499845
-0.0482077
-0.0517448
-0.0400229
-0.0533496
-0.0315895
-0.0547988
-0.0229021
-0.0561088
-0.0140456
-0.0571599
-0.00504258
-0.0580133
0.00404323
-0.0586108
0.013201
-0.0590083
0.0223845
-0.0591529
0.0315481
-0.059031
0.040673
-0.0586685
0.0496783
-0.057978
0.0585343
-0.0570266
0.0672396
-0.0558582
0.0757047
-0.0543753
0.0839454
-0.0527226
0.0919474
-0.0508773
0.0995778
-0.048714
0.106871
-0.0464796
0.113807
-0.0441315
0.12037
-0.0417082
0.126554
-0.0392388
0.132325
-0.0367353
0.137697
-0.0342548
0.142701
-0.0318542
0.147298
-0.0294674
0.151538
-0.0272005
0.155413
-0.0250096
0.158929
-0.0229231
0.162126
-0.0209817
0.165034
-0.0191759
0.167681
-0.0175103
0.170086
-0.0159662
0.172273
-0.0145469
0.174262
-0.0132473
0.176072
-0.0120575
0.177712
-0.0109663
0.179208
-0.00998166
-0.00907579
-0.159646
0.161935
-0.016614
-0.157131
-0.0181323
-0.154395
-0.0197383
-0.151403
-0.0214844
-0.148158
-0.0233186
-0.144625
-0.0252885
-0.140795
-0.027346
-0.136703
-0.0294691
-0.132316
-0.0317004
-0.127542
-0.0340701
-0.122496
-0.0363947
-0.11712
-0.038827
-0.111364
-0.0413438
-0.10532
-0.0437938
-0.0988902
-0.0463363
-0.0921924
-0.0487514
-0.0851486
-0.0512144
-0.0777285
-0.0535998
-0.0699302
-0.0559277
-0.0618626
-0.0580521
-0.0534857
-0.0601216
-0.0448936
-0.0619417
-0.0360403
-0.0636522
-0.0268678
-0.0652812
-0.0175335
-0.0664941
-0.00806589
-0.0674809
0.00145017
-0.0681268
0.0110923
-0.0686504
0.0207926
-0.0688533
0.0303964
-0.0686348
0.0400201
-0.0682922
0.0495173
-0.0674752
0.0588067
-0.066316
0.0680099
-0.0650615
0.0769758
-0.0633411
0.0856867
-0.0614335
0.0940294
-0.0592201
0.101988
-0.0566721
0.10974
-0.054232
0.117067
-0.0514586
0.12401
-0.0486515
0.130605
-0.0458334
0.136762
-0.0428923
0.142512
-0.0400051
0.147862
-0.0372041
0.15279
-0.0343949
0.157317
-0.0317282
0.161441
-0.0291338
0.165285
-0.0267667
0.16878
-0.024477
0.171941
-0.0223368
0.174803
-0.0203719
0.177386
-0.0185498
0.179764
-0.0169244
0.181924
-0.0154072
0.183877
-0.0140112
0.185645
-0.0127343
0.187182
-0.0115185
-0.010516
-0.0692515
0.00969114
-0.0777827
0.00853118
-0.0851557
0.00737311
-0.0914344
0.00627865
-0.0971412
0.00570697
-0.102652
0.00551036
-0.107998
0.00534688
-0.113203
0.00520516
-0.118275
0.00507167
-0.122819
0.00454383
-0.126213
0.00339408
-0.128143
0.00193036
-0.128667
0.000523979
-0.128183
-0.000483638
-0.127292
-0.000891279
-0.126319
-0.000972289
-0.1252
-0.00111915
-0.123633
-0.00156688
-0.121341
-0.00229194
-0.118397
-0.00294377
-0.115055
-0.00334221
-0.111437
-0.00361729
-0.107588
-0.00384961
-0.103574
-0.00401367
-0.00447697
-0.0733116
0.0179372
-0.0813598
0.0165793
-0.0889664
0.0149796
-0.0962047
0.0135169
-0.103006
0.0125083
-0.109318
0.0118222
-0.115185
0.0112143
-0.120552
0.0105715
-0.1252
0.00972013
-0.12898
0.00832398
-0.13193
0.00634409
-0.134071
0.00407054
-0.135376
0.00182931
-0.135785
-7.4756e-05
-0.135251
-0.00142543
-0.133871
-0.00235177
-0.131819
-0.00317159
-0.129263
-0.00412247
-0.126336
-0.00521938
-0.122986
-0.00629386
-0.119088
-0.00723998
-0.114578
-0.00812701
-0.109386
-0.00904178
-0.103319
-0.0100805
-0.0114654
-0.0797471
0.0273117
-0.0886341
0.0254663
-0.0970818
0.0234271
-0.105079
0.0215141
-0.112471
0.0199005
-0.119171
0.0185217
-0.125153
0.0171967
-0.130355
0.0157733
-0.134702
0.0140666
-0.138262
0.0118843
-0.141147
0.00922872
-0.14339
0.00631358
-0.144979
0.00341806
-0.145833
0.000779691
-0.145814
-0.00144444
-0.144853
-0.00331285
-0.143018
-0.00500632
-0.140446
-0.00669442
-0.137255
-0.00841044
-0.133454
-0.0100957
-0.12899
-0.0117036
-0.123829
-0.0132878
-0.117953
-0.0149182
-0.111334
-0.0166998
-0.0188126
-0.0859897
0.0377164
-0.0957103
0.0351868
-0.104872
0.0325892
-0.11346
0.0301016
-0.121363
0.0278033
-0.128488
0.025647
-0.134786
0.0234944
-0.140221
0.0212081
-0.144788
0.0186341
-0.148564
0.0156601
-0.151643
0.012308
-0.154061
0.00873147
-0.155782
0.0051388
-0.15673
0.00172719
-0.15678
-0.00139387
-0.15587
-0.00422336
-0.154013
-0.00686372
-0.151293
-0.00941346
-0.147784
-0.0119197
-0.143517
-0.0143628
-0.138463
-0.0167576
-0.132607
-0.0191442
-0.12594
-0.0215853
-0.118489
-0.0241506
-0.0268608
-0.0921776
0.0490292
-0.102771
0.0457803
-0.112673
0.0424913
-0.121877
0.0393048
-0.130305
0.0362312
-0.137895
0.033237
-0.144603
0.030203
-0.150415
0.0270194
-0.155346
0.0235654
-0.159455
0.019769
-0.162809
0.015662
-0.165432
0.0113542
-0.167282
0.00698875
-0.168288
0.00273351
-0.168372
-0.0013097
-0.167465
-0.00512999
-0.165566
-0.00876353
-0.162726
-0.0122529
-0.159002
-0.0156444
-0.154427
-0.018937
-0.149024
-0.0221607
-0.142816
-0.0253523
-0.135854
-0.0285478
-0.128223
-0.0317818
-0.0350903
-0.0984086
0.0610684
-0.109835
0.0572071
-0.120475
0.0531308
-0.130322
0.0491519
-0.139321
0.0452297
-0.147436
0.0413525
-0.154626
0.0373927
-0.16089
0.0332837
-0.166252
0.0289271
-0.170744
0.0242612
-0.174418
0.0193356
-0.177273
0.0142092
-0.179274
0.00898968
-0.180361
0.00382107
-0.180455
-0.00121533
-0.179522
-0.00606336
-0.177558
-0.0107278
-0.174579
-0.0152319
-0.170638
-0.0195857
-0.165765
-0.0238093
-0.160005
-0.0279207
-0.153393
-0.0319646
-0.145967
-0.0359739
-0.137783
-0.0399659
-0.0439294
-0.104528
0.0741833
-0.116899
0.0695785
-0.12832
0.0645516
-0.138858
0.0596893
-0.148479
0.0548506
-0.157174
0.0500481
-0.164887
0.0451058
-0.171644
0.0400401
-0.177458
0.0347412
-0.182354
0.0291577
-0.18637
0.0233509
-0.189498
0.0173377
-0.191684
0.0111752
-0.19287
0.00500747
-0.193016
-0.00106946
-0.192081
-0.00699875
-0.190058
-0.0127508
-0.18697
-0.0183195
-0.182852
-0.0237038
-0.177759
-0.0289024
-0.171731
-0.0339481
-0.164834
-0.0388615
-0.157104
-0.0437039
-0.148602
-0.048468
-0.0531251
-0.110688
0.088644
-0.124065
0.0829553
-0.136262
0.0767492
-0.147524
0.0709511
-0.157806
0.0651325
-0.167126
0.0593683
-0.175391
0.053371
-0.182652
0.0473008
-0.188949
0.0410376
-0.194257
0.0344662
-0.198619
0.0277128
-0.202052
0.0207702
-0.204444
0.0135679
-0.205766
0.00632953
-0.205981
-0.000854393
-0.205056
-0.00792441
-0.202994
-0.0148129
-0.19981
-0.0215034
-0.19554
-0.0279739
-0.190242
-0.0342001
-0.183967
-0.0402231
-0.176787
-0.0460416
-0.168713
-0.0517781
-0.159782
-0.0573985
-0.062869
-0.117284
0.104403
-0.131453
0.0971243
-0.144317
0.0896138
-0.156318
0.0829513
-0.167298
0.0761131
-0.177313
0.0693828
-0.186144
0.0622027
-0.193922
0.0550782
-0.20071
0.0478262
-0.206464
0.0402201
-0.211154
0.0324022
-0.214879
0.0244957
-0.217529
0.0162176
-0.218992
0.00779259
-0.219288
-0.000558177
-0.218395
-0.00881742
-0.216299
-0.0169093
-0.213053
-0.0247492
-0.208636
-0.0323908
-0.203094
-0.0397422
-0.196573
-0.0467437
-0.189112
-0.0535032
-0.180715
-0.0601751
-0.171661
-0.0664524
-0.0725946
1.33904
1.33112
0.287441
-1.61858
-0.0490353
0.445293
-0.39625
0.28285
-0.379344
0.0964937
0.348565
-0.413256
0.0646911
-0.333591
-0.517435
0.851025
-0.432629
0.746558
-0.31393
1.83142
-1.82633
-0.00508876
-0.0391857
-0.20561
0.244796
4.91683
-3.33012
-1.58671
-0.849774
1.79115
-0.941379
-0.850057
0.28428
0.565778
1.12345
-1.84127
0.717819
-1.08258
0.155243
0.927337
0.118183
-0.120407
0.00222452
4.08267
-3.87562
-0.207033
-0.441581
0.392544
0.137349
-0.0272223
-0.110126
0.00303795
-0.0414326
0.334738
0.169987
-0.504725
-0.34732
0.224132
0.123188
2.85553
1.74994
-4.60547
-0.48828
0.817038
-0.328759
1.24023
-0.970577
-0.269653
-0.926968
0.308682
0.618287
1.06754
0.17269
-1.15388
0.724602
0.429278
-1.08666
0.20525
0.881408
4.44652
-2.52202
-1.9245
-0.0290763
-0.148512
0.177588
0.215901
0.476822
-0.692724
-0.00788988
-0.783171
0.791046
0.773364
0.748515
-1.52188
2.5442
-4.69232
2.14813
-0.29533
-0.0757958
0.371126
0.196361
1.35937
-1.55573
-0.901705