/*--------------------------------*- C++ -*----------------------------------*\
  =========                 |
  \\      /  F ield         | OpenFOAM: The Open Source CFD Toolbox
   \\    /   O peration     | Website:  https://openfoam.org
    \\  /    A nd           | Version:  10
     \\/     M anipulation  |
\*---------------------------------------------------------------------------*/
FoamFile
{
    format      ascii;
    class       volVectorField;
    location    "950";
    object      U;
}
// * * * * * * * * * * * * * * * * * * * * * * * * * * * * * * * * * * * * * //

dimensions      [0 1 -1 0 0 0 0];

internalField   nonuniform List<vector> 
10435
(
(1.58731 0.312864 3.61659e-23)
(1.55952 0.731652 2.25103e-21)
(3.26576 -0.228215 -1.72853e-20)
(2.14685 0.0523668 1.86437e-20)
(3.05457 0.295443 -1.80458e-20)
(3.79589 -0.15238 1.66394e-19)
(3.1639 -0.217398 -5.56278e-20)
(2.82035 -0.221782 2.00966e-20)
(2.60145 -0.22777 5.68799e-20)
(3.65375 -0.279623 -4.84848e-20)
(1.91854 0.677161 -7.86731e-21)
(2.66767 -0.208318 6.13993e-20)
(3.61268 -0.276127 5.63163e-20)
(0.883717 0.587861 -7.46707e-22)
(0.970483 0.614749 -1.32346e-21)
(2.97822 -0.225571 -3.90486e-21)
(0.800195 0.537082 3.10309e-22)
(3.7218 -0.332325 2.05888e-19)
(2.51504 -0.228176 -2.08653e-20)
(1.69432 0.22957 -1.88641e-21)
(2.9058 -0.221797 1.80335e-20)
(2.12637 -0.0827965 -2.75704e-20)
(3.07995 -0.2297 1.73122e-19)
(2.53272 -0.29891 -2.85587e-20)
(3.51342 -0.269284 5.3722e-20)
(0.227524 0.372606 1.88973e-22)
(0.0482893 0.0919392 7.48487e-22)
(3.43654 -0.246606 4.15836e-20)
(0.227081 -0.0471643 -1.6848e-22)
(3.71202 -0.309273 2.52936e-19)
(3.19793 -0.212907 7.48158e-20)
(2.13682 0.645948 -2.92605e-21)
(2.75834 -0.224528 -3.84167e-20)
(0.46923 -0.0242259 -8.12835e-22)
(2.75344 -0.229413 2.96214e-20)
(1.19128 0.819484 -2.54331e-21)
(2.83596 -0.230033 4.97708e-20)
(0.155976 0.27881 -3.36928e-21)
(0.359589 0.354041 3.79438e-24)
(2.53219 -0.237305 6.90796e-21)
(3.77623 -0.324321 -2.71578e-19)
(3.17306 -0.228319 -4.81673e-20)
(0.592772 0.632826 5.68659e-22)
(1.88254 0.199349 -2.09682e-20)
(2.96025 -0.22711 -1.17868e-19)
(2.53697 -0.265165 4.7587e-20)
(3.80985 -0.252579 -1.99258e-19)
(0.437154 0.507863 3.71168e-21)
(2.58517 -0.237156 1.53535e-20)
(2.09972 -0.201663 -9.83047e-21)
(2.83202 -0.223566 -3.58478e-21)
(3.4671 -0.147803 6.91792e-19)
(0.400983 0.372411 3.0969e-22)
(0.312334 -0.140155 -1.12075e-22)
(0.318666 0.360254 -1.08241e-22)
(0.176622 -0.0805148 4.25311e-22)
(2.73618 -0.244066 -1.36543e-19)
(0.162611 0.210025 -1.21268e-21)
(0.679447 0.296204 5.43189e-22)
(2.65658 -0.238608 7.54802e-20)
(0.359306 0.382044 -1.12318e-22)
(1.41532 0.762046 -6.57584e-21)
(0.178655 0.111862 1.53836e-21)
(3.34433 -0.0656693 -5.38744e-20)
(3.03252 -0.232416 -2.32593e-19)
(3.34596 -0.247261 1.47853e-19)
(0.614458 0.173818 -7.23836e-22)
(0.344095 0.275758 -4.45632e-21)
(2.88969 -0.219414 -3.0454e-20)
(2.49272 -0.334046 2.04097e-21)
(0.265108 -0.164623 3.15686e-22)
(0.178195 0.349938 -1.32532e-22)
(0.671325 0.713339 9.14219e-21)
(3.2665 -0.238634 -1.80952e-19)
(1.05886 0.622004 -6.89068e-22)
(0.719418 0.755868 1.20141e-21)
(2.44987 -0.358507 1.11087e-19)
(3.10694 -0.211309 1.24166e-19)
(2.71086 -0.227807 5.00573e-21)
(1.14704 0.52189 2.35445e-21)
(2.251 -0.317096 1.1022e-20)
(1.54305 0.284984 4.06353e-22)
(0.441159 0.391263 -1.67452e-22)
(0.35339 -0.121505 6.57965e-23)
(2.31704 -0.349316 -2.27529e-20)
(1.17813 0.750058 1.36914e-20)
(1.3507 0.601317 1.70335e-21)
(1.84116 0.355683 3.8408e-21)
(1.07437 0.720222 -8.43508e-23)
(1.45759 0.545114 -1.62566e-21)
(1.99019 0.295026 -2.52268e-21)
(2.16915 0.226904 -4.49106e-21)
(1.64068 0.198274 1.06027e-21)
(1.15756 0.695877 4.16668e-21)
(1.57484 0.48324 1.27729e-21)
(1.10292 0.842063 4.95079e-21)
(2.3243 0.133237 5.53095e-20)
(0.986339 0.700333 9.71951e-22)
(0.773042 0.395066 -4.20026e-22)
(2.57044 0.140805 -6.7899e-20)
(1.02845 0.712654 2.92169e-21)
(3.40508 0.385906 -6.77679e-20)
(1.24903 0.653189 -2.82892e-21)
(1.70344 0.418529 6.62748e-23)
(3.57586 0.255632 -4.13675e-21)
(2.01187 0.127099 -2.74041e-22)
(1.73808 0.107938 4.16757e-22)
(2.1807 -0.270997 1.25473e-20)
(2.38259 -0.361588 -3.26312e-20)
(1.24358 0.488776 -5.75229e-22)
(2.01489 -0.133418 -3.93013e-21)
(3.19182 0.533828 -2.61173e-20)
(1.44399 0.362815 -7.64172e-22)
(1.34446 0.434804 -4.71819e-22)
(2.41173 0.245231 -3.57449e-20)
(2.02008 -0.00870978 7.63001e-21)
(2.68998 0.0457382 -4.39142e-20)
(1.27356 0.712981 7.04977e-22)
(1.78924 0.524655 -1.27141e-20)
(2.56638 -0.0655289 -1.05322e-20)
(2.76789 -0.0348271 -1.37369e-19)
(0.731094 0.802005 1.74262e-21)
(1.37856 0.670849 -9.55823e-21)
(0.895653 0.907791 -1.73762e-20)
(2.39828 0.827291 1.71259e-21)
(0.299223 0.382145 -2.42358e-22)
(2.45932 0.0167938 6.51305e-20)
(0.782612 0.851653 -2.16536e-21)
(2.88238 0.156046 -9.55744e-20)
(0.0752425 0.283404 3.86579e-22)
(0.836513 0.886276 5.87564e-21)
(2.12898 0.861084 -1.99656e-20)
(2.88934 -0.223575 -4.77128e-20)
(1.05377 0.530558 1.32416e-21)
(0.157561 0.316086 -8.40168e-24)
(0.579611 0.471367 4.54943e-23)
(1.0276 0.920101 1.69365e-20)
(2.27271 -0.0343571 -1.98385e-21)
(1.63672 0.573247 3.6157e-21)
(1.91132 0.0665487 5.87196e-21)
(1.80256 0.146707 2.51449e-22)
(3.10382 -0.218317 -2.70026e-19)
(0.54484 0.0830176 -8.19742e-22)
(3.07477 -0.142775 4.84884e-19)
(2.22696 -0.157903 4.35245e-21)
(0.852434 0.776541 7.69571e-21)
(0.958253 0.921065 -5.84097e-21)
(3.56617 -0.0786107 -2.04393e-19)
(0.749077 0.616809 1.90474e-21)
(2.90078 -0.199621 2.76609e-20)
(0.380904 0.478223 1.15442e-21)
(2.88006 -0.234297 9.54337e-20)
(1.52719 0.423185 1.14597e-22)
(2.99788 -0.190726 2.17792e-19)
(3.60848 -0.192833 -1.79054e-19)
(0.318589 0.430946 -6.74514e-22)
(2.67246 0.750518 6.59787e-20)
(1.49944 0.622853 4.0769e-21)
(3.67314 -0.241327 -1.6489e-19)
(1.65884 0.878786 -2.62826e-21)
(2.98819 -0.226489 -4.13766e-20)
(0.965067 0.512642 -3.79464e-22)
(2.16508 0.416609 3.7624e-20)
(2.47694 -0.280879 3.35362e-20)
(1.15895 0.59621 2.34793e-21)
(2.95589 0.0281786 3.84388e-19)
(2.71724 -0.227286 -6.46813e-20)
(2.47568 -0.171816 -3.00137e-20)
(2.59265 -0.300758 5.34483e-20)
(3.13427 -0.0689763 -7.85879e-19)
(3.50164 -0.247729 1.75951e-19)
(0.637162 0.650438 -3.4337e-21)
(0.0336828 0.019485 -6.42655e-22)
(0.916859 0.781681 1.02749e-21)
(2.77849 -0.252008 -9.45269e-20)
(1.47584 0.884973 4.41699e-21)
(1.29333 0.792133 1.39576e-20)
(0.552743 0.485086 1.08789e-22)
(1.92675 -0.0601002 2.1037e-21)
(0.279788 -0.0057456 1.32218e-22)
(1.72655 0.702699 1.85845e-21)
(3.76093 -0.0438636 -2.72506e-20)
(2.81221 -0.200952 -2.3305e-19)
(0.34474 0.396981 -9.32757e-23)
(3.03526 -0.21995 3.60438e-20)
(0.54219 0.607102 1.39739e-21)
(0.677233 0.73779 -6.61908e-21)
(3.04486 -0.207945 -9.6601e-20)
(3.25847 0.208023 4.14452e-20)
(3.26289 -0.141824 -4.12343e-19)
(2.75094 -0.121842 3.1454e-20)
(0.477527 0.411846 -1.29523e-22)
(0.100766 0.315567 -4.03411e-22)
(1.10852 0.91216 -1.5145e-20)
(2.94549 0.651221 4.63949e-20)
(2.96082 -0.210245 5.03146e-21)
(0.710274 0.689201 4.38094e-21)
(1.09227 0.778344 -5.17084e-21)
(0.491894 0.510465 -1.74837e-21)
(2.91515 -0.225412 7.89654e-20)
(1.11388 0.65779 -2.33991e-21)
(0.219583 0.332848 -6.83017e-22)
(3.52549 -0.25969 -1.30528e-20)
(0.208779 0.287204 -1.06627e-21)
(3.41096 -0.253865 -4.64955e-20)
(2.52113 0.349314 -4.60492e-22)
(1.95981 0.476572 2.24808e-20)
(2.3842 -0.114114 -1.8474e-20)
(0.251008 0.0962 1.03192e-21)
(2.3164 -0.220509 -1.50578e-20)
(0.438328 0.511452 2.33829e-22)
(3.15649 -0.232659 -2.34336e-19)
(2.90853 -0.109098 3.9522e-19)
(2.57347 -0.272633 2.6283e-20)
(0.0802533 0.073363 -2.12202e-22)
(0.826235 0.666237 -5.56796e-21)
(1.2747 0.533471 7.25837e-22)
(0.449672 0.460945 1.61372e-22)
(0.215723 0.360821 -5.30346e-22)
(0.876553 0.466127 1.62188e-22)
(0.3282 -0.0400508 3.6035e-23)
(0.618292 0.4485 -7.9799e-22)
(0.454951 0.120205 1.18083e-21)
(0.907572 0.834866 -1.75033e-20)
(0.257445 0.393088 -3.46891e-22)
(2.82812 -0.22444 -2.21552e-20)
(0.270428 0.35532 1.02839e-21)
(1.01823 0.790014 7.93047e-22)
(3.28536 -0.204842 4.90544e-19)
(0.780566 0.807812 -8.02361e-21)
(0.484082 0.36249 5.66607e-21)
(2.76802 -0.223063 8.20994e-20)
(0.244915 0.359797 1.6968e-21)
(2.81448 -0.245679 1.03992e-19)
(0.0642919 0.207342 -1.90176e-21)
(0.708971 0.474849 1.69939e-21)
(2.66548 -0.269682 -1.03651e-19)
(0.222213 0.376472 3.87605e-22)
(2.61649 -0.294923 -6.25707e-21)
(3.34321 -0.238748 2.88571e-21)
(1.75948 0.273121 5.69832e-21)
(0.305222 0.406985 -5.68735e-23)
(0.484431 0.497362 -1.11901e-23)
(0.226679 -0.103063 7.02837e-24)
(2.33691 0.3982 -7.67208e-20)
(2.66714 -0.229915 1.93474e-20)
(1.02526 0.855988 -2.05538e-20)
(2.93931 -0.211862 2.5365e-20)
(0.0905799 -0.0720091 -5.66285e-22)
(1.32466 0.89132 -3.87481e-21)
(0.153765 -0.129534 -6.97881e-22)
(1.21737 0.61331 -2.97007e-21)
(3.62734 -0.295952 -1.01576e-19)
(2.39586 -0.263207 -2.77376e-20)
(3.00246 -0.201886 -7.83313e-20)
(3.18498 0.0561447 1.83998e-19)
(0.100003 -0.104198 2.1673e-21)
(3.05606 -0.207156 1.1924e-19)
(0.393912 0.471119 -2.75084e-23)
(0.303665 0.388558 1.53473e-21)
(3.11548 -0.208399 6.43474e-21)
(3.44181 -0.221458 1.04076e-21)
(0.270703 0.388398 -9.51121e-23)
(2.46771 -0.341121 -7.33989e-20)
(1.37669 0.466015 2.94742e-22)
(0.581976 0.3367 -1.71462e-21)
(1.64012 0.348774 7.53708e-22)
(3.17506 -0.234253 1.4856e-19)
(0.425745 0.420533 4.85012e-23)
(2.69169 0.268748 1.52247e-20)
(3.16881 -0.20871 5.10147e-23)
(2.85313 -0.216175 -1.21328e-20)
(2.95292 -0.208252 -9.93288e-21)
(3.46901 -0.271398 -2.01981e-19)
(0.184696 0.36315 9.61196e-22)
(2.64309 -0.116465 -5.29629e-20)
(0.119924 0.274909 1.74652e-21)
(2.8376 0.437558 1.26276e-20)
(2.98833 -0.215728 3.0186e-20)
(2.79862 -0.223844 4.44535e-21)
(3.58384 -0.286427 1.09012e-19)
(0.625181 0.601565 -2.96607e-21)
(3.22938 -0.216103 -4.45721e-21)
(0.973433 0.786739 -1.64735e-21)
(1.31401 0.557978 -1.35638e-21)
(0.502919 0.46243 5.90768e-24)
(3.40835 0.083762 3.02433e-20)
(0.301048 0.344018 -1.351e-23)
(0.397498 -0.102045 3.55557e-22)
(0.393893 -0.0227605 -2.01424e-22)
(0.953464 0.855233 1.91029e-20)
(1.87567 0.879539 9.13079e-21)
(0.322859 0.0606009 -6.2581e-22)
(2.8987 -0.212228 2.51519e-20)
(0.343786 0.329314 -6.54384e-23)
(0.227694 -0.167261 -1.89368e-21)
(0.791161 0.74479 2.72625e-22)
(1.48221 0.392455 3.55385e-22)
(2.59893 0.537293 -2.34449e-21)
(3.32998 -0.239912 1.04803e-19)
(0.41264 0.390101 -1.15462e-20)
(2.57896 -0.314662 -2.39143e-20)
(3.29453 -0.225331 -1.57164e-21)
(0.0602009 -0.0402726 -7.07275e-22)
(2.36222 0.61403 -1.80295e-20)
(0.901263 0.69514 3.08955e-21)
(0.668216 0.550253 2.43016e-21)
(2.73977 -0.264393 -6.55285e-21)
(3.33811 -0.245918 -1.21734e-21)
(0.440607 -0.0874675 -1.69241e-22)
(1.83261 0.0216466 1.50875e-21)
(0.221374 0.354892 3.83495e-22)
(1.20416 0.901689 7.68967e-21)
(3.50553 0.0170189 -9.72398e-20)
(2.64958 -0.22561 -1.13542e-20)
(0.192075 -0.151094 -4.48092e-22)
(0.365314 0.419169 2.92928e-23)
(3.13113 -0.196992 -4.79432e-19)
(0.422045 0.250975 -1.27833e-22)
(2.56352 -0.202788 3.94977e-20)
(3.70335 0.0935912 -3.97702e-20)
(0.16127 0.0435418 -1.56689e-21)
(1.41908 0.493607 -3.52844e-22)
(0.514076 0.434256 2.58377e-22)
(2.74015 -0.226009 -2.20668e-21)
(3.51414 -0.274676 -4.47403e-20)
(0.159631 0.361309 4.57396e-22)
(3.35818 -0.232433 -2.24001e-22)
(0.510901 0.222376 -5.67049e-22)
(0.109756 0.209677 2.49836e-21)
(2.62423 -0.227381 3.84613e-22)
(0.475941 0.025579 4.37538e-22)
(0.478399 -0.0748378 -1.50027e-22)
(3.24108 -0.222496 5.17469e-21)
(2.87232 -0.235931 9.57745e-20)
(0.226413 0.194596 3.31802e-21)
(0.181417 -0.135173 -7.70202e-22)
(0.104132 -0.0934663 -4.27658e-22)
(0.526791 -0.0380321 -5.73757e-23)
(0.0633353 -0.00845995 -1.32466e-22)
(0.136597 0.351096 -1.15398e-21)
(0.237097 0.38375 -5.35717e-22)
(0.395804 0.397901 7.89522e-23)
(0.0275135 0.0261763 7.93127e-22)
(0.0417056 -0.00835312 -1.04199e-21)
(0.305247 0.419419 4.06745e-22)
(0.29254 0.177538 -7.88903e-22)
(0.0165483 0.165999 2.32845e-22)
(0.545637 0.453095 -4.7401e-23)
(2.68622 -0.230716 -1.10579e-20)
(0.50735 -0.0596489 -2.4135e-22)
(3.46335 -0.268277 6.01364e-21)
(0.0235291 0.0602182 -2.43915e-22)
(3.43105 -0.238731 -8.96798e-22)
(2.70095 -0.230321 5.0651e-21)
(2.57282 -0.23687 -3.56884e-21)
(3.60281 -0.257535 -3.17122e-21)
(3.20173 -0.231495 -1.08689e-19)
(0.27014 -0.121489 -3.08783e-22)
(0.415149 -0.0643176 7.77013e-22)
(0.137698 -0.112307 5.36939e-23)
(0.258224 0.369756 -4.73128e-22)
(0.0997115 -0.0333984 -8.35501e-24)
(0.466241 0.441826 -5.33322e-23)
(0.112098 0.0375858 8.12004e-22)
(0.115832 0.335897 -6.56589e-22)
(0.276719 0.290559 7.38695e-21)
(2.6851 -0.258895 -7.43651e-21)
(0.123783 0.337912 6.79706e-22)
(2.64071 -0.232496 1.20439e-20)
(0.283699 0.363577 -1.24494e-22)
(0.0971066 0.313565 9.33628e-22)
(3.63001 -0.263557 -2.6949e-20)
(2.52826 -0.243004 -1.00811e-20)
(0.534772 0.491182 5.13781e-22)
(0.021119 0.104042 -7.83014e-22)
(0.122851 0.126304 -8.98273e-22)
(0.0350938 0.136921 9.13036e-23)
(0.363372 -0.0785894 -3.05901e-22)
(0.192144 0.368776 -7.21707e-24)
(0.014324 0.145152 1.01871e-21)
(0.323387 0.371588 2.20069e-22)
(2.75601 -0.224741 -3.78325e-21)
(0.365503 0.149938 9.22419e-22)
(2.87812 -0.214676 2.6627e-21)
(2.65739 -0.232112 1.65288e-20)
(3.50538 -0.245538 -6.46713e-22)
(3.56982 -0.254701 4.92295e-20)
(2.61782 -0.232801 -7.13622e-21)
(3.36403 -0.239409 -1.29331e-20)
(2.70228 -0.222958 -1.55624e-20)
(0.84045 0.841029 5.24226e-22)
(0.53238 0.578285 -2.52677e-22)
(0.272446 -0.0760854 -5.35866e-22)
(0.220263 -0.145769 2.23434e-22)
(3.30308 -0.231911 1.67831e-20)
(0.313237 -0.101585 8.52782e-22)
(3.64616 -0.280449 -1.16465e-19)
(0.0185331 0.170375 -1.24079e-22)
(0.216825 0.0231506 1.08874e-22)
(0.0730426 0.279757 -1.89159e-22)
(0.399179 0.0446075 9.3114e-23)
(0.388476 0.446954 -3.59453e-22)
(3.08256 -0.218655 1.76418e-19)
(0.0824512 0.143649 4.00376e-22)
(2.81696 -0.219653 1.0096e-21)
(2.67442 -0.286204 -3.07955e-20)
(0.522885 0.537298 1.44773e-24)
(0.163323 0.36026 -6.33575e-23)
(0.055166 0.208374 3.49649e-22)
(2.51647 -0.242705 1.39677e-20)
(0.067401 0.24913 -9.34115e-22)
(0.141554 0.35027 5.34247e-23)
(0.32064 0.421699 8.07378e-22)
(0.139698 -0.0553325 -1.0733e-22)
(0.345858 0.393054 -2.54864e-21)
(0.144248 -0.000138661 -4.3374e-23)
(3.3373 -0.240484 1.01135e-19)
(0.212254 -0.169471 -4.88172e-23)
(0.186318 0.358887 -3.76806e-22)
(0.183439 -0.0181266 2.29041e-22)
(0.56317 0.0183864 2.92732e-22)
(3.66941 -0.310839 -8.75313e-20)
(0.612926 0.557175 1.26299e-21)
(0.593212 0.498248 -2.52483e-21)
(2.47619 -0.241842 -1.64896e-20)
(0.46277 -0.0552411 1.29121e-22)
(0.458539 -0.393842 1.04389e-21)
(0.483365 -0.389188 -7.8322e-23)
(0.53792 -0.397067 -5.53868e-22)
(0.575166 -0.40454 2.92949e-22)
(0.613619 -0.409873 -3.14551e-22)
(0.644718 -0.413274 -9.33491e-22)
(0.674765 -0.415321 1.9877e-22)
(0.701174 -0.416622 2.66077e-22)
(0.727766 -0.41607 2.7299e-22)
(0.491158 -0.384714 -6.96214e-22)
(0.515714 -0.380931 -6.0022e-23)
(0.56722 -0.387277 4.55214e-22)
(0.604689 -0.394903 -7.97196e-22)
(0.641334 -0.400391 7.14659e-22)
(0.672052 -0.404616 1.16782e-21)
(0.700932 -0.407425 -7.33239e-22)
(0.726915 -0.409414 7.49695e-22)
(0.75129 -0.410042 -3.72463e-22)
(0.524868 -0.36903 1.87907e-21)
(0.547327 -0.366529 4.36266e-22)
(0.59601 -0.37277 -9.0635e-22)
(0.63289 -0.380672 4.46187e-22)
(0.668181 -0.386578 -1.08475e-21)
(0.698434 -0.391499 -1.46949e-22)
(0.726494 -0.395102 -3.52768e-23)
(0.751872 -0.397895 -3.73562e-22)
(0.775428 -0.399803 -5.59543e-22)
(0.557167 -0.348735 -8.30004e-22)
(0.577161 -0.347344 1.94345e-22)
(0.623388 -0.354053 6.52554e-22)
(0.65953 -0.36244 3.97852e-23)
(0.693703 -0.368906 4.69074e-22)
(0.723498 -0.374457 1.2751e-21)
(0.750949 -0.378727 -7.63295e-22)
(0.775928 -0.382157 1.17804e-22)
(0.799287 -0.384792 2.6237e-22)
(0.587258 -0.324879 1.54844e-22)
(0.604355 -0.324177 -1.31083e-22)
(0.648404 -0.331677 2.3274e-23)
(0.683901 -0.340604 -2.18865e-22)
(0.717266 -0.347746 1.21081e-22)
(0.746757 -0.353907 -2.88093e-22)
(0.773881 -0.358789 1.01399e-22)
(0.798742 -0.362772 4.51926e-22)
(0.822257 -0.365741 9.16177e-23)
(0.614174 -0.298449 1.18209e-22)
(0.628228 -0.297897 -3.23934e-22)
(0.670403 -0.306426 7.01645e-23)
(0.705515 -0.315736 4.94822e-22)
(0.738384 -0.323553 -1.61819e-22)
(0.767749 -0.330283 -2.2809e-22)
(0.794754 -0.335771 -8.87846e-23)
(0.819663 -0.340328 -7.15617e-22)
(0.843206 -0.344075 3.43453e-22)
(0.636178 -0.271213 6.88203e-23)
(0.648425 -0.269552 2.37574e-22)
(0.689085 -0.279127 6.75331e-23)
(0.724114 -0.288398 -2.30026e-22)
(0.75674 -0.296744 4.88224e-23)
(0.786128 -0.303937 -3.07102e-23)
(0.81316 -0.309968 1.83978e-22)
(0.838175 -0.315061 -1.71692e-22)
(0.861837 -0.319478 -1.27093e-22)
(0.651716 -0.243273 -1.05939e-22)
(0.665373 -0.23962 1.84683e-22)
(0.704688 -0.250102 -2.32997e-23)
(0.739701 -0.258896 4.66961e-23)
(0.772175 -0.267591 -7.68767e-23)
(0.801666 -0.27512 2.63667e-22)
(0.828823 -0.281605 3.31704e-22)
(0.854008 -0.287219 -3.81884e-22)
(0.87793 -0.291747 1.16179e-22)
(0.661293 -0.211464 3.87086e-23)
(0.679698 -0.207127 2.41317e-23)
(0.717492 -0.218728 -3.94683e-24)
(0.752269 -0.227118 -7.12201e-23)
(0.784551 -0.236143 -2.90995e-23)
(0.814176 -0.243938 -5.47903e-23)
(0.841533 -0.250783 -3.07735e-23)
(0.866987 -0.256708 3.80096e-22)
(0.890997 -0.2619 -3.20772e-23)
(0.666657 -0.173938 -4.39246e-23)
(0.690984 -0.170991 -1.39229e-22)
(0.727042 -0.184291 -4.08002e-23)
(0.761461 -0.192883 4.70602e-23)
(0.793616 -0.202391 -3.08646e-23)
(0.823475 -0.21043 9.99731e-23)
(0.851161 -0.217499 2.21907e-23)
(0.876985 -0.22354 2.0031e-22)
(0.901348 -0.228635 -2.55822e-23)
(0.668563 -0.13207 9.47568e-23)
(0.697891 -0.131637 3.89204e-23)
(0.732308 -0.147113 -2.18755e-24)
(0.76668 -0.156456 5.66052e-23)
(0.799037 -0.166506 -2.28981e-23)
(0.829373 -0.174707 -9.809e-24)
(0.857618 -0.181833 -5.94947e-23)
(0.884074 -0.187763 -2.2466e-22)
(0.909054 -0.192706 -4.83072e-23)
(0.667815 -0.0886914 -1.6987e-22)
(0.69948 -0.0914435 6.09682e-23)
(0.732588 -0.108802 -1.25252e-23)
(0.767574 -0.118689 3.26045e-23)
(0.800628 -0.128891 -6.47351e-24)
(0.831737 -0.136945 1.24504e-22)
(0.860752 -0.143844 1.73426e-23)
(0.887973 -0.149413 -1.09014e-22)
(0.913781 -0.154616 -8.46526e-23)
(0.663268 -0.0476847 -3.00167e-23)
(0.694576 -0.0536883 -9.95142e-24)
(0.728316 -0.0709845 5.73852e-24)
(0.764484 -0.0804456 2.43963e-23)
(0.798571 -0.0899162 -1.57288e-23)
(0.83063 -0.0972247 -2.33768e-23)
(0.860519 -0.103375 -4.64364e-23)
(0.888538 -0.108321 9.15936e-23)
(0.915381 -0.112506 -5.05625e-23)
(0.651363 -0.0102641 3.11918e-23)
(0.685284 -0.0177523 -6.19949e-24)
(0.720767 -0.0335508 -1.55198e-23)
(0.75815 -0.0416677 4.68718e-23)
(0.793276 -0.0495338 -8.74199e-24)
(0.826273 -0.0554455 -5.07973e-24)
(0.857034 -0.0602579 -3.76963e-23)
(0.885876 -0.0639883 3.89168e-24)
(0.913296 -0.0664435 3.77652e-23)
(0.63395 0.026246 -6.93982e-23)
(0.672313 0.0182252 2.69948e-23)
(0.710342 0.00463186 9.7086e-23)
(0.748919 -0.00168165 -1.51738e-22)
(0.78496 -0.00739693 1.6998e-23)
(0.818779 -0.0114438 5.90154e-23)
(0.850348 -0.0144798 4.3159e-23)
(0.880025 -0.0164926 6.52765e-23)
(0.908222 -0.0173506 -2.49825e-22)
(0.611163 0.0634237 -9.18224e-23)
(0.655672 0.0553469 -1.13248e-22)
(0.696861 0.0446529 -1.6316e-22)
(0.736652 0.0402242 2.29407e-22)
(0.773495 0.0368212 7.85362e-23)
(0.808005 0.0348374 -4.18879e-23)
(0.840264 0.0338152 -7.85901e-24)
(0.870603 0.0337932 2.01113e-22)
(0.899208 0.0345361 -8.21522e-23)
(0.584304 0.10296 -7.80597e-23)
(0.634615 0.0948591 -1.15804e-22)
(0.679601 0.0872039 1.88243e-22)
(0.720747 0.0843531 -1.19165e-22)
(0.758419 0.0830529 -1.36596e-22)
(0.793599 0.0830815 5.33362e-22)
(0.826509 0.08412 -3.72071e-22)
(0.857462 0.0862488 -1.69897e-22)
(0.886923 0.0885642 3.35896e-23)
(0.55764 0.14306 1.59087e-22)
(0.608723 0.135939 1.57401e-22)
(0.657587 0.131295 -8.65043e-23)
(0.700431 0.129881 1.33963e-22)
(0.73918 0.130459 3.62989e-23)
(0.775169 0.132419 -4.41338e-22)
(0.808791 0.135516 3.74843e-23)
(0.840345 0.139725 -2.36072e-22)
(0.870336 0.14442 -3.31923e-22)
(0.533049 0.18011 5.70617e-23)
(0.580224 0.175006 -2.68415e-23)
(0.631223 0.174213 -5.65829e-23)
(0.675693 0.174817 -4.03777e-22)
(0.715668 0.177465 1.1313e-22)
(0.752595 0.181453 1.81944e-22)
(0.787006 0.186632 2.34402e-22)
(0.819259 0.192827 3.13578e-22)
(0.849844 0.199764 -1.68409e-22)
(0.509061 0.213184 -2.85793e-23)
(0.550681 0.210298 2.00015e-23)
(0.602034 0.213869 2.60437e-22)
(0.647409 0.217347 -1.77522e-23)
(0.688375 0.222509 1.56666e-22)
(0.726148 0.228816 -1.05812e-22)
(0.761285 0.236242 -9.31077e-22)
(0.794127 0.244594 -1.58369e-22)
(0.825099 0.253595 5.76338e-24)
(0.484804 0.243203 -8.01534e-23)
(0.52067 0.241991 -7.23412e-23)
(0.571265 0.249553 8.2058e-23)
(0.616614 0.256435 -2.38315e-22)
(0.658082 0.264451 1.91272e-22)
(0.696416 0.273334 -2.51592e-23)
(0.732129 0.283143 2.40589e-22)
(0.765575 0.293655 2.53416e-22)
(0.796951 0.305274 -7.52104e-23)
(0.460035 0.269895 -3.27725e-22)
(0.4901 0.270187 1.60086e-22)
(0.539609 0.281012 -2.62301e-22)
(0.584106 0.291571 1.03669e-22)
(0.625492 0.302589 -5.1296e-22)
(0.663959 0.314196 1.74346e-22)
(0.699962 0.32645 7.77275e-23)
(0.734004 0.339082 -1.0903e-22)
(0.765299 0.353952 -1.02909e-22)
(0.434706 0.291381 -8.87307e-23)
(0.459233 0.294904 -1.7657e-22)
(0.507747 0.308431 7.60495e-23)
(0.550703 0.322824 1.74241e-22)
(0.591412 0.336783 3.25852e-22)
(0.629505 0.351069 -3.89326e-23)
(0.665391 0.365616 -1.15587e-22)
(0.69978 0.380373 4.73677e-22)
(0.731192 0.397728 -1.37892e-21)
(0.408159 0.307155 -1.79252e-22)
(0.42798 0.31596 2.08758e-22)
(0.475006 0.331656 6.49133e-24)
(0.515768 0.349614 -1.48407e-24)
(0.555253 0.366235 -1.39445e-22)
(0.592591 0.383161 -1.07382e-22)
(0.628073 0.399905 5.45298e-22)
(0.663061 0.416834 -6.06624e-22)
(0.695157 0.43894 1.17658e-21)
(0.379901 0.319455 -4.46954e-22)
(0.398627 0.337157 9.73619e-24)
(0.444368 0.355962 1.33377e-22)
(0.483199 0.375915 -1.22319e-23)
(0.521163 0.394172 -1.37275e-23)
(0.556828 0.412585 -1.5544e-22)
(0.590933 0.43018 2.22231e-22)
(0.627123 0.446991 -1.2288e-22)
(0.661014 0.470879 4.57119e-23)
(0.363972 0.32979 -2.74792e-22)
(0.357322 0.327572 -3.27037e-22)
(0.350445 0.324274 -9.69671e-22)
(0.342836 0.320333 1.36533e-21)
(0.334346 0.315564 -1.03077e-21)
(0.324889 0.309939 7.76236e-22)
(0.314387 0.303412 3.10939e-22)
(0.30278 0.295941 -7.05354e-23)
(0.290039 0.287491 -5.71513e-22)
(0.276183 0.278041 -2.61171e-22)
(0.261282 0.267546 2.77926e-22)
(0.245451 0.255946 -3.26883e-22)
(0.228849 0.243194 8.75138e-22)
(0.21167 0.229255 -2.21544e-21)
(0.194133 0.214097 3.87285e-21)
(0.176482 0.197723 -4.39701e-21)
(0.158966 0.180158 3.94687e-21)
(0.141813 0.161462 -1.76578e-21)
(0.125222 0.141751 -5.74972e-22)
(0.109336 0.121213 6.11575e-22)
(0.0941738 0.100098 -2.11794e-22)
(0.0795494 0.0787299 4.54638e-22)
(0.0652638 0.0577563 3.50096e-23)
(0.051911 0.0373091 -6.30392e-22)
(0.0418472 0.0165373 4.9688e-22)
(0.0367152 -0.00503894 -2.72036e-22)
(0.0363859 -0.0277189 3.42958e-22)
(0.0404532 -0.0517224 2.74575e-22)
(0.0460362 -0.077133 -3.27493e-22)
(0.0514601 -0.103444 8.80564e-24)
(0.0575977 -0.129906 -2.95842e-22)
(0.0650891 -0.156132 2.65378e-22)
(0.0741889 -0.181877 5.00508e-22)
(0.0848394 -0.206823 -3.99236e-22)
(0.0968813 -0.230646 5.63738e-22)
(0.110108 -0.253133 -9.39378e-22)
(0.124251 -0.274079 6.93427e-23)
(0.139021 -0.293322 2.02762e-22)
(0.154133 -0.310748 -2.99783e-22)
(0.169325 -0.32628 6.67474e-22)
(0.184397 -0.339889 -3.80144e-22)
(0.199227 -0.351628 -1.63058e-21)
(0.213686 -0.361539 3.30296e-21)
(0.228289 -0.369486 -3.54338e-21)
(0.243777 -0.375435 3.07209e-21)
(0.260219 -0.379671 -1.80376e-21)
(0.277361 -0.382596 9.31224e-22)
(0.294901 -0.384555 -3.14639e-22)
(0.312503 -0.385817 3.04516e-22)
(0.329776 -0.38662 -3.12307e-22)
(0.346382 -0.387182 -4.57875e-22)
(0.362074 -0.387661 -1.46608e-22)
(0.37669 -0.388159 2.27554e-22)
(0.390131 -0.388733 5.95146e-22)
(0.402317 -0.389405 -8.84972e-22)
(0.413229 -0.390176 1.14765e-21)
(0.422909 -0.391027 -7.70956e-22)
(0.431403 -0.391911 -2.74834e-22)
(0.438948 -0.392761 -1.98255e-22)
(0.37584 0.284373 -1.90229e-23)
(0.36958 0.280693 -1.46407e-23)
(0.362999 0.276667 -1.78882e-24)
(0.355944 0.272218 -3.04832e-23)
(0.348346 0.267382 -6.14867e-23)
(0.340108 0.262194 1.59889e-22)
(0.331124 0.25668 -3.05856e-23)
(0.321293 0.250844 7.34809e-23)
(0.310523 0.244691 -1.96481e-22)
(0.298815 0.238126 -3.08054e-23)
(0.286249 0.230949 1.19506e-22)
(0.2729 0.223023 6.42354e-23)
(0.258819 0.21425 -2.83157e-22)
(0.24408 0.204512 3.82157e-22)
(0.228806 0.193704 -3.95123e-22)
(0.213146 0.18173 1.92565e-22)
(0.197274 0.168519 2.57273e-22)
(0.181376 0.154026 -9.98757e-23)
(0.165633 0.138236 1.89956e-23)
(0.150217 0.121153 3.80284e-23)
(0.135289 0.102778 7.44451e-24)
(0.121062 0.083045 -5.76104e-23)
(0.108001 0.0617246 8.0976e-23)
(0.0968735 0.0383845 -6.80538e-23)
(0.0884246 0.0131513 2.16396e-22)
(0.0828184 -0.0134395 -8.19331e-23)
(0.0802432 -0.0406605 -4.24676e-24)
(0.0808332 -0.0677632 3.20167e-23)
(0.0841409 -0.0942585 2.01437e-23)
(0.089147 -0.120218 -1.01074e-24)
(0.0955501 -0.145792 -3.13298e-23)
(0.103471 -0.170875 -4.86941e-24)
(0.112959 -0.195239 -7.10772e-24)
(0.123868 -0.218664 2.46605e-23)
(0.136015 -0.240956 -1.08117e-22)
(0.14921 -0.261959 4.66466e-23)
(0.163248 -0.281563 -4.06409e-23)
(0.177928 -0.299704 7.8908e-24)
(0.193075 -0.316361 1.13054e-24)
(0.208564 -0.331544 -2.76985e-23)
(0.224329 -0.345279 -3.13053e-23)
(0.240376 -0.357588 3.18152e-23)
(0.256799 -0.368484 -1.52095e-22)
(0.273739 -0.377898 -1.2641e-22)
(0.291195 -0.385691 1.97334e-22)
(0.308974 -0.391762 -1.62138e-22)
(0.326743 -0.39616 7.17054e-23)
(0.343936 -0.399196 1.91077e-23)
(0.360077 -0.401177 -5.02199e-23)
(0.375107 -0.402176 2.99503e-23)
(0.38912 -0.402276 4.71453e-23)
(0.402103 -0.401647 -1.47851e-23)
(0.414083 -0.400512 1.79544e-23)
(0.42497 -0.399117 -6.11617e-23)
(0.434744 -0.397646 1.17667e-23)
(0.443542 -0.396179 3.04258e-23)
(0.451514 -0.394779 -4.80435e-23)
(0.45868 -0.393474 7.59082e-24)
(0.465293 -0.392287 -1.70407e-23)
(0.435313 0.263559 -2.60226e-22)
(0.429157 0.259868 5.51692e-23)
(0.422599 0.255842 -2.17812e-22)
(0.415618 0.25152 -4.82617e-23)
(0.408145 0.246899 7.48088e-22)
(0.400119 0.241982 -2.31817e-22)
(0.391481 0.236761 -4.55443e-22)
(0.382179 0.2312 1.20451e-26)
(0.372175 0.225236 2.72894e-22)
(0.361454 0.218764 -6.76559e-23)
(0.350009 0.211696 7.39552e-22)
(0.337831 0.203972 -8.89885e-22)
(0.324929 0.19551 8.07308e-22)
(0.311348 0.186218 -1.1232e-22)
(0.297165 0.175997 -7.35071e-22)
(0.28249 0.164744 2.30669e-22)
(0.267466 0.152359 8.87891e-22)
(0.252259 0.138752 -3.42628e-22)
(0.23706 0.123839 -8.88381e-23)
(0.222083 0.107537 2.06755e-23)
(0.207575 0.0897637 -2.35492e-22)
(0.193838 0.070421 5.25508e-23)
(0.181276 0.0494241 -6.19629e-22)
(0.170407 0.0267755 7.46446e-22)
(0.161832 0.00266135 -2.85144e-22)
(0.156014 -0.0225834 9.10029e-24)
(0.153143 -0.0485481 4.11888e-23)
(0.153154 -0.0747491 -1.7731e-22)
(0.155658 -0.100716 1.13956e-22)
(0.160162 -0.126204 5.89753e-23)
(0.166353 -0.151142 1.32096e-22)
(0.174066 -0.175437 -1.39187e-22)
(0.183187 -0.198945 5.94014e-23)
(0.193581 -0.221512 7.81872e-23)
(0.205099 -0.243008 -2.81613e-22)
(0.217584 -0.263326 7.72588e-22)
(0.230881 -0.282383 -5.03363e-22)
(0.244846 -0.300124 -1.0634e-22)
(0.259365 -0.316519 -1.29371e-22)
(0.274356 -0.331549 -4.24756e-23)
(0.289773 -0.345196 -1.97178e-22)
(0.305592 -0.357435 -3.48225e-22)
(0.321797 -0.368225 8.17923e-22)
(0.338346 -0.377504 3.8681e-22)
(0.355123 -0.385216 -7.89157e-22)
(0.371902 -0.391364 -2.61873e-22)
(0.388399 -0.396036 8.21099e-22)
(0.404325 -0.399428 -9.59136e-22)
(0.419452 -0.401801 6.68081e-22)
(0.433546 -0.40346 -2.19483e-23)
(0.446646 -0.40447 2.81294e-22)
(0.458897 -0.404819 5.91029e-23)
(0.470204 -0.404691 -4.35401e-22)
(0.480507 -0.404269 -2.23065e-22)
(0.489906 -0.403653 6.88094e-22)
(0.498504 -0.402902 -6.19821e-24)
(0.506393 -0.402061 -1.89427e-22)
(0.513657 -0.40117 6.25848e-23)
(0.520385 -0.40024 -2.22141e-22)
(0.476454 0.251773 -2.48089e-23)
(0.470288 0.248721 1.70365e-22)
(0.46373 0.245389 -7.70482e-23)
(0.456708 0.241732 5.30713e-23)
(0.449179 0.23774 -5.42479e-23)
(0.441104 0.233399 7.15353e-24)
(0.43244 0.228685 -3.30999e-23)
(0.423149 0.223564 -7.32062e-23)
(0.413199 0.217991 4.61562e-23)
(0.40257 0.211911 7.09896e-23)
(0.391255 0.205261 4.08419e-23)
(0.37926 0.197968 -2.24372e-22)
(0.366608 0.189943 1.98891e-22)
(0.353346 0.181085 -6.40048e-23)
(0.339544 0.171283 2.0972e-23)
(0.325304 0.160421 -1.37357e-22)
(0.310757 0.148383 1.42909e-22)
(0.296069 0.135055 -6.93986e-23)
(0.281438 0.120334 -1.29742e-22)
(0.267097 0.104126 5.33381e-23)
(0.253314 0.08635 -2.51193e-23)
(0.240403 0.0669525 -2.49328e-22)
(0.228727 0.0459209 1.44718e-22)
(0.218677 0.0233189 1.75278e-22)
(0.210635 -0.000672091 -1.36138e-22)
(0.204891 -0.0257529 1.64292e-23)
(0.201611 -0.051549 1.54392e-22)
(0.200825 -0.0776561 -1.7812e-22)
(0.202402 -0.103704 5.81585e-23)
(0.206108 -0.129422 -1.5729e-23)
(0.211719 -0.15463 7.3413e-23)
(0.219049 -0.179179 -1.69415e-22)
(0.22793 -0.202929 1.25389e-22)
(0.238194 -0.225749 -5.31783e-24)
(0.249675 -0.247523 -1.5022e-22)
(0.262213 -0.268154 4.7658e-23)
(0.275652 -0.287559 1.64054e-22)
(0.289851 -0.305674 -5.57921e-23)
(0.304687 -0.322445 -7.01864e-23)
(0.320055 -0.337829 1.21476e-22)
(0.335859 -0.351782 -2.14699e-23)
(0.352004 -0.364263 -4.03674e-23)
(0.36838 -0.375231 2.50992e-22)
(0.384852 -0.384658 -2.31855e-22)
(0.401251 -0.392541 1.01158e-22)
(0.417379 -0.398919 -3.33027e-24)
(0.433034 -0.403888 3.05668e-22)
(0.448039 -0.407587 -2.71627e-22)
(0.462263 -0.410176 1.28647e-22)
(0.475533 -0.411949 1.13562e-22)
(0.487713 -0.413132 1.40894e-22)
(0.498924 -0.41377 -1.47057e-22)
(0.509309 -0.413887 -3.04086e-23)
(0.518948 -0.413568 -5.19797e-23)
(0.527898 -0.412905 -8.57159e-23)
(0.536213 -0.411984 5.88662e-23)
(0.543898 -0.410889 -1.1766e-22)
(0.550991 -0.409684 2.39651e-22)
(0.557578 -0.408423 -6.54226e-23)
(0.530731 0.245271 -3.61407e-22)
(0.52475 0.242032 4.11291e-23)
(0.51827 0.238527 3.43003e-22)
(0.511264 0.234749 -2.44173e-22)
(0.503685 0.230668 6.22805e-23)
(0.495504 0.226265 2.17018e-22)
(0.486693 0.221511 -2.64743e-22)
(0.47723 0.216373 1.02284e-22)
(0.467101 0.210803 3.29061e-22)