/*--------------------------------*- C++ -*----------------------------------*\
  =========                 |
  \\      /  F ield         | OpenFOAM: The Open Source CFD Toolbox
   \\    /   O peration     | Website:  https://openfoam.org
    \\  /    A nd           | Version:  10
     \\/     M anipulation  |
\*---------------------------------------------------------------------------*/
FoamFile
{
    format      ascii;
    class       volScalarField;
    location    "1700";
    object      epsilon;
}
// * * * * * * * * * * * * * * * * * * * * * * * * * * * * * * * * * * * * * //

dimensions      [0 2 -3 0 0 0 0];

internalField   nonuniform List<scalar> 
10435
(
0.755181
1.22974
0.774896
0.94314
1.07261
1.14498
0.706164
0.583747
0.539599
1.04489
1.24305
0.833673
1.05439
0.247719
0.306336
0.64792
0.200754
1.21168
0.500068
0.807144
0.612781
0.89023
0.685301
0.594915
0.922326
0.036513
0.0593365
0.899124
0.0565649
1.13901
0.774595
1.23188
0.568362
0.0600579
0.612964
0.985674
0.646867
0.0624634
0.0252755
0.527398
1.24036
0.709621
0.112232
0.932916
0.682972
0.558191
1.17065
0.0800825
0.522119
0.814279
0.598085
0.917704
0.0245446
0.0468521
0.0278486
0.0511635
0.648651
0.0673706
0.121095
0.601585
0.0274627
1.18152
0.067416
0.926556
0.683486
0.822605
0.0941397
0.0882179
0.598833
0.624431
0.0458421
0.0486779
0.075008
0.766458
0.375163
0.159175
0.667343
0.670348
0.551862
0.342623
0.787498
0.614784
0.0238837
0.0480831
0.757035
0.77375
0.80792
1.0077
0.533647
0.885167
1.01577
1.01738
0.676686
0.621608
0.943302
0.847614
0.976796
0.385638
0.15239
0.992898
0.448087
1.18268
0.717403
0.982935
1.16759
0.944977
0.727599
0.806315
0.718503
0.4078
0.81325
1.20212
0.546541
0.476244
1.04321
0.890467
0.946696
0.883129
1.1155
0.90806
0.902889
0.147187
0.976222
0.527779
1.31139
0.0321306
0.940458
0.221651
1.00046
0.0569564
0.360494
1.34686
0.620474
0.283246
0.0545198
0.0231991
0.942044
0.92722
1.09192
0.874643
0.84672
0.727526
0.0787697
0.831485
0.882376
0.310863
0.748689
1.0046
0.20017
0.797438
0.0622047
0.688081
0.81844
0.786818
0.982552
0.0470554
1.27251
1.04616
1.01591
1.38706
0.743507
0.231699
1.10501
0.815917
0.454468
0.93231
0.569527
0.878008
0.749934
0.8898
0.903541
0.0484436
0.0544494
0.379913
0.771241
1.3801
1.09895
0.126938
0.797703
0.0631361
1.24731
1.13177
0.822164
0.0302051
0.724427
0.0771163
0.114535
0.645017
1.0671
0.854472
0.86437
0.0236079
0.0535528
1.11091
1.23322
0.617211
0.181895
0.656683
0.10471
0.647019
0.493321
0.0632884
0.968399
0.0681813
0.880064
1.09336
1.11793
0.904097
0.0709557
0.865164
0.0520352
0.710554
0.860306
0.802895
0.0592532
0.250411
0.533414
0.0313217
0.0370778
0.18866
0.0591001
0.142906
0.0841735
0.406675
0.0419306
0.617038
0.0306804
0.535323
0.818517
0.22067
0.111855
0.591045
0.03366
0.703429
0.0616131
0.16338
0.652984
0.0411379
0.680292
0.820703
0.908066
0.0366412
0.0349489
0.0504583
1.1141
0.54962
0.693788
0.598987
0.0434734
1.33356
0.0437762
0.580472
1.07675
0.841107
0.620262
0.974864
0.0391827
0.642995
0.0428354
0.0664414
0.669549
0.875799
0.0360951
0.733311
0.613549
0.122631
0.870496
0.733102
0.027589
1.05047
0.702873
0.570416
0.597817
0.887339
0.0407779
0.877553
0.0586526
1.133
0.636971
0.55902
1.02652
0.145162
0.746344
0.441503
0.667843
0.0271703
1.03246
0.0279279
0.0492614
0.0616743
0.532356
1.37491
0.0720606
0.58217
0.025797
0.0448859
0.238838
0.689454
1.1761
0.811291
0.0968864
0.706607
0.793125
0.0472372
1.21025
0.314164
0.165236
0.719753
0.81314
0.0500202
0.769134
0.0554961
1.24192
1.03098
0.563676
0.0457349
0.0321797
0.787401
0.0970027
0.852936
1.1633
0.0620214
0.749725
0.0234005
0.548618
0.959375
0.0447226
0.842305
0.100598
0.0633156
0.566532
0.0681988
0.0502852
0.756994
0.753448
0.0731781
0.0468529
0.0450003
0.0549637
0.0528591
0.0479665
0.0478622
0.0269785
0.0542709
0.0521651
0.0556971
0.0793131
0.0626104
0.0232745
0.540287
0.0515615
0.912735
0.0577965
0.896456
0.538714
0.50851
1.06601
0.739348
0.0489133
0.054724
0.0460281
0.0329748
0.0516881
0.0272017
0.0583996
0.0508534
0.0772686
0.790134
0.0497091
0.534107
0.0302961
0.0540345
1.12327
0.489372
0.0284101
0.0587176
0.0641154
0.0609219
0.0535319
0.0403105
0.0681094
0.0290386
0.557964
0.0836604
0.584093
0.53034
0.953705
1.01302
0.521701
0.845954
0.586686
0.315418
0.0548554
0.054372
0.0469097
0.803062
0.0513144
1.12511
0.0652302
0.063583
0.0562013
0.0713519
0.035692
0.673488
0.0621332
0.570343
0.736148
0.0406278
0.0436957
0.0612352
0.494649
0.0610519
0.0466294
0.0401631
0.0515679
0.0796834
0.057112
0.827552
0.045903
0.0447418
0.0573696
0.0645601
1.23774
0.0316336
0.0251023
0.462695
0.0543058
0.000369872
0.00035947
0.000340504
0.000315855
0.000287712
0.000256638
0.000223632
0.000189589
0.000155588
0.000413426
0.000397884
0.000374507
0.00034615
0.000314529
0.000280721
0.000245655
0.00021047
0.000176591
0.000465738
0.000445484
0.000417467
0.000384839
0.000349473
0.000312528
0.000275011
0.000238073
0.000203052
0.000531612
0.00050646
0.000473037
0.000435424
0.000395669
0.000354953
0.000314284
0.000274702
0.000237317
0.000616925
0.000586068
0.000546046
0.000502394
0.000457262
0.000411839
0.000367048
0.000323709
0.000282519
0.000729052
0.000691056
0.000642754
0.000591585
0.000539704
0.000488311
0.00043818
0.000389897
0.000343825
0.00087754
0.000830115
0.000771159
0.000710463
0.000650025
0.000591032
0.000534083
0.000479595
0.00042783
0.00107505
0.00101383
0.000941016
0.000868231
0.000796976
0.000728337
0.000662708
0.000600409
0.000541769
0.00133556
0.00125363
0.00116343
0.00107565
0.000990934
0.000910161
0.000833513
0.000761115
0.000693165
0.00166831
0.00156025
0.00145023
0.00134461
0.00124351
0.0011477
0.00105722
0.000971915
0.000891389
0.00207451
0.00194355
0.00181367
0.00168766
0.00156696
0.00145277
0.00134523
0.001244
0.00114823
0.00255037
0.00241542
0.00226707
0.00211781
0.0019737
0.00183718
0.00170892
0.00158859
0.00147542
0.00312843
0.00299597
0.00282568
0.00264825
0.00247562
0.00231198
0.00215876
0.00201585
0.00188278
0.00386256
0.00370914
0.0035048
0.00329105
0.00308329
0.00288684
0.00270369
0.00253407
0.00237767
0.00478702
0.00457175
0.00431567
0.00405556
0.00380535
0.00356999
0.00335155
0.00315021
0.00296467
0.00590456
0.00558662
0.00526304
0.00494781
0.00464864
0.00436889
0.00411047
0.00387377
0.00365796
0.00715688
0.00674134
0.00634646
0.00597204
0.00561983
0.00529179
0.00498977
0.00471466
0.00446763
0.00851155
0.0080266
0.00756738
0.0071347
0.00672834
0.00635006
0.00600186
0.00568507
0.00540116
0.00997657
0.00944729
0.00893481
0.00844827
0.00798939
0.00756114
0.00716595
0.00680554
0.00648136
0.0115748
0.0110211
0.0104664
0.00993232
0.00942546
0.00895072
0.00851102
0.00810852
0.00774593
0.0133381
0.0127751
0.0121864
0.0116124
0.0110657
0.0105526
0.0100757
0.00963654
0.00923637
0.01531
0.0147427
0.0141233
0.0135181
0.012945
0.012409
0.0119103
0.0114488
0.0110227
0.017565
0.0169621
0.0163056
0.0156802
0.0151024
0.0145698
0.014078
0.0136238
0.0132035
0.0202079
0.0194647
0.018753
0.018126
0.0175785
0.0170917
0.0166536
0.0162572
0.0158944
0.0233296
0.0222404
0.0214701
0.020879
0.0204171
0.0200374
0.0197194
0.01946
0.0191756
0.00166157
0.00162181
0.00158831
0.00156095
0.00153971
0.00152444
0.00151504
0.00151127
0.00151294
0.00151969
0.00153119
0.00154703
0.00156667
0.00158958
0.00161509
0.00164251
0.00167108
0.00169999
0.0017284
0.00175543
0.00178013
0.00180151
0.00181837
0.00182906
0.00183169
0.00182432
0.00180882
0.00178554
0.00175369
0.00171132
0.00166121
0.00160425
0.00154071
0.00147189
0.00139893
0.00132292
0.00124495
0.00116607
0.00108732
0.00100966
0.000934014
0.000861221
0.000791999
0.000726965
0.000666631
0.000611378
0.000561453
0.000517009
0.000478047
0.000444498
0.000416195
0.000392912
0.000374404
0.000360396
0.000350646
0.000344925
0.000343055
0.000344898
0.00035029
0.00165943
0.00162315
0.00159265
0.00156785
0.00154865
0.00153491
0.00152652
0.00152332
0.00152511
0.00153161
0.00154251
0.0015574
0.00157583
0.00159727
0.00162109
0.00164662
0.00167313
0.00169983
0.00172588
0.00175043
0.00177258
0.00179142
0.00180598
0.00181518
0.00181776
0.00181226
0.00179767
0.0017736
0.00174018
0.00169822
0.00164891
0.00159301
0.00153117
0.00146415
0.00139287
0.0013183
0.00124149
0.0011635
0.00108536
0.00100808
0.000932617
0.000859841
0.00079052
0.000725312
0.000664753
0.000609245
0.00055905
0.000514304
0.000475014
0.000441081
0.000412322
0.000388548
0.000369513
0.000354939
0.00034456
0.000338127
0.000335439
0.000336352
0.00034067
0.00162659
0.00159235
0.00156358
0.00154022
0.00152222
0.00150947
0.00150183
0.00149914
0.00150118
0.0015077
0.00151836
0.00153281
0.00155059
0.0015712
0.00159405
0.00161851
0.00164387
0.00166937
0.00169422
0.00171756
0.00173852
0.00175618
0.00176952
0.00177745
0.00177882
0.00177253
0.00175779
0.00173424
0.00170191
0.00166128
0.00161317
0.00155843
0.00149783
0.00143219
0.0013624
0.00128941
0.0012142
0.00113778
0.00106116
0.000985322
0.00091121
0.000839682
0.000771504
0.000707336
0.000647711
0.00059303
0.000543557
0.000499421
0.000460631
0.000427089
0.000398613
0.00037497
0.000355898
0.000341132
0.000330422
0.000323535
0.000320276
0.000320508
0.00032404
0.00156418
0.00153211
0.00150526
0.00148357
0.00146695
0.0014553
0.00144848
0.00144631
0.0014486
0.00145509
0.00146547
0.0014794
0.00149645
0.00151615
0.00153795
0.00156123
0.00158534
0.00160953
0.00163303
0.00165501
0.00167458
0.00169084
0.0017028
0.00170945
0.00170981
0.00170293
0.00168815
0.00166509
0.00163378
0.00159459
0.00154817
0.00149527
0.00143668
0.00137324
0.00130581
0.00123533
0.00116273
0.00108899
0.00101507
0.000941925
0.000870445
0.00080146
0.00073571
0.000673828
0.000616326
0.000563584
0.000515853
0.000473251
0.000435781
0.000403344
0.000375766
0.000352817
0.000334243
0.000319789
0.000309194
0.000302234
0.000298719
0.000298513
0.000301432
0.0014831
0.00145361
0.00142899
0.0014092
0.00139415
0.00138375
0.00137787
0.00137634
0.00137896
0.0013855
0.00139566
0.00140911
0.00142545
0.00144423
0.00146492
0.00148696
0.00150969
0.00153241
0.00155436
0.00157474
0.00159269
0.00160733
0.00161773
0.001623
0.00162225
0.00161474
0.0015999
0.00157743
0.00154732
0.00150984
0.00146549
0.00141492
0.00135887
0.00129816
0.00123364
0.00116622
0.00109682
0.00102635
0.000955765
0.000885964
0.000817805
0.000752072
0.000689466
0.000630581
0.000575895
0.000525762
0.000480406
0.000439935
0.000404341
0.000373522
0.000347306
0.000325466
0.000307754
0.000293909
0.000283688
0.00027687
0.00027327
0.000272754
0.000275146
0.00138393
0.00135689
0.00133442
0.00131647
0.00130297
0.00129381
0.00128888
0.00128802
0.00129103
0.00129767
0.00130767
0.00132071
0.00133639
0.00135429
0.00137391
0.00139469
0.00141601
0.00143719
0.0014575
0.00147619
0.00149245
0.00150544
0.00151432
0.00151829
0.00151657
0.00150855
0.00149374
0.00147192
0.00144306
0.00140737
0.00136527
0.00131732
0.00126422
0.00120674
0.00114569
0.00108195
0.00101637
0.000949844
0.000883274
0.00081752
0.000753388
0.000691615
0.00063285
0.000577646
0.000526442
0.000479555
0.000437188
0.000399428
0.000366255
0.000337565
0.000313181
0.000292881
0.000276417
0.000263538
0.000254004
0.000247604
0.000244155
0.000243526
0.000245549
0.00126937
0.00124483
0.00122452
0.00120841
0.00119645
0.00118854
0.00118457
0.00118441
0.00118786
0.00119468
0.00120461
0.00121732
0.00123245
0.00124956
0.00126818
0.00128779
0.00130778
0.00132751
0.00134628
0.00136337
0.00137802
0.00138947
0.00139697
0.00139981
0.0013973
0.00138891
0.00137428
0.0013532
0.00132566
0.00129181
0.00125204
0.00120684
0.0011569
0.00110296
0.00104575
0.000986106
0.000924821
0.000862727
0.000800709
0.000739559
0.000680016
0.000622753
0.000568364
0.00051736
0.000470141
0.00042699
0.000388084
0.000353487
0.000323168
0.000297009
0.000274832
0.000256417
0.000241518
0.000229892
0.000221305
0.000215548
0.000212448
0.000211873
0.000213668
0.0011386
0.00111625
0.00109784
0.00108338
0.00107283
0.00106615
0.00106322
0.0010639
0.00106799
0.00107524
0.00108539
0.00109807
0.00111292
0.00112949
0.00114736
0.00116606
0.00118505
0.00120366
0.00122125
0.00123707
0.00125042
0.00126057
0.00126693
0.00126895
0.00126591
0.00125744
0.0012432
0.00122308
0.00119696
0.00116498
0.00112754
0.00108512
0.00103847
0.0009883
0.000935191
0.000879966
0.000823378
0.000766149
0.000709199
0.000653172
0.000598733
0.000546485
0.000496955
0.000450609
0.000407831
0.000368849
0.000333849
0.000302851
0.000275793
0.000252539
0.000232903
0.000216674
0.000203618
0.000193504
0.000186112
0.000181242
0.000178721
0.000178422
0.000180195
0.000990009
0.000969369
0.000952533
0.000939638
0.000930711
0.000925646
0.000924216
0.000926069
0.000931259
0.000939824
0.000951011
0.000964376
0.000979427
0.000995661
0.00101294
0.00103081
0.00104913
0.0010676
0.00108496
0.00110006
0.00111236
0.00112137
0.00112683
0.00112822
0.00112505
0.00111686
0.00110347
0.00108471
0.00106021
0.00102996
0.000994683
0.000955001
0.000911647
0.00086543
0.000816837
0.00076601
0.000713976
0.000662348
0.000611205
0.000560772
0.000511892
0.000465136
0.000420912
0.000379573
0.000341429
0.000306894
0.000276078
0.00024916
0.000225903
0.000205918
0.000188995
0.000175032
0.000163902
0.000155396
0.000149298
0.000145456
0.00014372
0.000143945
0.000145991
0.0463313
0.0421452
0.0382766
0.0345925
0.0310628
0.0276728
0.0244426
0.0213986
0.0185613
0.0159474
0.0136107
0.0115814
0.00985232
0.00838819
0.00712375
0.00603623
0.00512773
0.00438472
0.00378106
0.00328836
0.0028825
0.00254348
0.00225483
0.00200293
0.00177573
0.0442707
0.0412552
0.0378419
0.0343349
0.0308585
0.027473
0.0242255
0.0211588
0.018308
0.0157067
0.0133856
0.0113559
0.00960974
0.00812594
0.00687413
0.00582674
0.00496047
0.00425166
0.00367516
0.00320556
0.00281968
0.00249802
0.00222477
0.00198728
0.00177513
0.0442628
0.0410385
0.0375833
0.0340479
0.0305311
0.0271013
0.0238177
0.0207312
0.0178824
0.0153018
0.0130064
0.0109984
0.00926941
0.00780278
0.00657591
0.00556253
0.00473416
0.00406186
0.00351784
0.00307637
0.00271467
0.00241361
0.00215773
0.00193494
0.00173608
0.0446974
0.0410423
0.0373465
0.0336658
0.0300578
0.0265738
0.0232646
0.0201762
0.017345
0.0147946
0.0125342
0.0105617
0.00886701
0.00743459
0.00624347
0.00526746
0.00447658
0.00383989
0.00332812
0.002915
0.00257783
0.00229785
0.00206004
0.0018528
0.00166716
0.0452518
0.0411642
0.0371663
0.0332814
0.0295426
0.0259843
0.0226428
0.0195528
0.0167407
0.0142219
0.0120001
0.0100693
0.0084179
0.00702906
0.00588103
0.0049468
0.00419552
0.00359535
0.00311629
0.00273174
0.00241921
0.00216036
0.00194075
0.00174941
0.00157827
0.0457678
0.0412737
0.0369593
0.0328514
0.0289699
0.025332
0.0219574
0.0188668
0.0160755
0.013591
0.0114119
0.00952905
0.00792816
0.00659025
0.00549158
0.00460364
0.00389468
0.00333241
0.00288663
0.00253084
0.00224297
0.00200529
0.00180399
0.00162863
0.00147164
0.0462743
0.0413467
0.0366931
0.0323531
0.0283287
0.0246142
0.0212091
0.0181199
0.0153519
0.012905
0.0107733
0.00894448
0.00740113
0.00612086
0.0050773
0.00424008
0.00357644
0.00305388
0.00264238
0.00231583
0.00205274
0.00183607
0.00165271
0.00149267
0.00134949
0.0468338
0.0413514
0.0363225
0.0317524
0.0275982
0.023819
0.0203915
0.0173082
0.0145674
0.0121628
0.0100839
0.00831592
0.00683807
0.00562252
0.00464
0.00385803
0.00324277
0.00276183
0.00238576
0.00208909
0.00185095
0.00165514
0.00148903
0.00134307
0.00121211
0.0473547
0.0412002
0.0357859
0.0310136
0.0267602
0.0229376
0.0195017
0.0164288
0.0137191
0.0113624
0.00934142
0.00764194
0.00623998
0.00509706
0.00418183
0.00345992
0.00289587
0.00245827
0.00211905
0.00185325
0.00164035
0.00146575
0.00131615
0.00118094
0.0010584
1.21347
1.17859
2.84489
4.13081
0.00154483
0.00236636
0.0406323
0.000554461
2.5801
0.000188609
2.32731
0.00423864
0.102837
0.00483108
0.0488812
0.000749297
2.28208
4.04296
0.000116985
0.0663086
0.0185096
0.000515724
2.75812
0.024141
0.000876986
0.000805579
0.000797799
0.0278277
1.4894
2.33847
0.000189785
0.000805823
2.96362
0.0865259
2.33796
0.000685743
0.117041
0.0493756
0.146751
0.00309828
3.87437
0.000951007
0.00055232
0.10257
0.0166887
0.00064432
3.49974
4.46181
1.82841
2.08104
3.22386
3.61198
0.019686
4.19812
0.0395139
2.62113
0.00414583
0.0168749
0.0016082
3.72358
0.000923099
3.0815
0.00161476
0.000679524
0.000543841
0.069386
0.00140198
0.523341
0.128888
1.976
2.72197
0.000621742
0.000894372
0.0632065
0.00161912
0.0177034
0.0564472
4.21611
0.00165914
4.05841
0.0682813
0.00121036
0.000552924
2.27169
0.00114916
0.00105973
0.000652893
4.17728
3.01607
0.00558431
0.0136089
0.00262045
0.000180753
0.00448188
0.00111125
2.34933
0.000853333
2.58264
0.0017011
3.68219
0.0104937
3.83988
0.012109
0.000612467
0.00140084
0.0157939
2.98552
0.0562833
0.00121943
2.34867
0.000580287
0.00208833
3.10824
0.0005837
0.0182927
1.7986
3.03913
0.00256546
0.0340445
0.00260074
0.000172115
0.00235743
0.0260556
0.000928418
3.1054
0.000575256
3.6168
0.0486879
0.00140846
4.44768
0.000576025
0.0616243
1.9981
0.143964
0.0333351
0.00069029
0.01684
0.00668213
0.000755829
0.0718116
0.000404568
0.13981
3.76728
0.000235104
1.60334
0.000832398
3.83741
0.0341574
0.000749793
2.23421
0.0191328
0.00288039
4.00569
0.0486393
0.00202888
2.21611
0.000905254
0.00254995
0.0548908
0.000727116
0.000508674
2.67165
0.00058508
2.75197
0.000287298
2.7418
0.00495752
0.000832197
0.000885963
0.00101282
0.00428489
0.000696458
0.492195
2.46008
0.00139262
0.0191617
0.0347137
1.73632
2.3666
0.000421456
0.0634264
0.00080964
0.0215432
0.0494947
0.0505278
0.000830358
2.96776
0.000832394
2.27215
0.0007286
4.22541
3.71933
1.80932
0.141594
0.0461761
2.46087
0.00152285
0.000509476
1.6988
1.33514
0.262353
0.000952795
0.00113633
0.000757423
0.0103195
0.000403057
0.00163882
0.0120827
1.91426
0.00198853
0.00139656
0.00317057
0.0723686
0.00961975
0.030645
4.08054
0.0015458
0.000669875
0.000849268
0.0080604
0.00988843
0.00106147
0.00216422
3.21893
1.74777
3.27323
0.00623244
2.29607
0.00134582
0.000974759
2.0652
0.000674179
0.000884105
0.000941796
0.141013
0.000245691
0.0528544
0.0165147
0.0526189
0.0491459
0.000317521
0.000965446
0.00031197
0.0435185
0.000798583
0.000542172
0.000754893
0.020793
0.000735443
0.000374723
0.0012346
0.0209118
0.000700004
1.79885
0.00131952
0.000868668
2.9221
0.0551352
0.0543648
0.000120031
0.281906
0.00150232
0.000626533
0.00181452
0.0603899
0.00100264
0.000341861
3.72994
0.0403751
0.000777253
0.0222756
1.78228
0.00168476
0.000694224
0.000119032
3.58793
0.00205076
2.46814
0.00435468
3.89737
0.0806437
0.0217275
0.393192
0.000640314
2.41575
0.000805293
0.0171716
2.98496
3.29869
4.30126
0.0482364
0.000602071
0.000522386
3.4728
0.34843
4.04275
3.835
0.00201372
0.000785071
3.00374
3.77025
0.000482116
0.00752547
0.000786525
3.67194
0.000299047
0.0187936
0.000834665
0.0717239
0.0010823
0.000624346
0.000311427
2.59682
0.0013782
0.00181496
0.170274
3.9076
0.000759699
0.000835308
0.353248
0.0552201
0.000562049
0.00938821
0.000185116
0.000665147
0.000963139
2.96521
0.054935
0.00185112
0.017647
0.000278918
0.0464027
0.00797037
0.000202425
4.06346
0.0011196
0.000509081
0.000569223
1.40706e-05
0.336673
0.00301588
0.00465456
3.31638
0.000291808
0.0587264
0.00160989
0.00369392
0.00117247
0.000742813
3.27339
1.85186
0.000186331
0.00179747
0.0540473
3.53365
1.47953
0.510148
0.112255
0.00032938
3.54785
1.93517
2.36913
0.000454452
3.18204
0.000719485
0.000681366
0.000806178
4.12309
0.000597875
2.17193
0.000441782
0.0486489
1.48176
3.27518
0.0999479
0.00126205
0.00231473
0.000245665
0.000959021
0.000241318
3.80241
0.000680608
3.08284
0.121662
0.119111
0.435977
0.000280992
0.0650962
2.14607
4.23915
0.0285708
0.000390558
0.0113309
2.77022
0.0543662
0.000143242
0.000312783
2.90035
0.00258369
1.51143
0.000535659
0.000546453
0.00120938
1.74113
0.00452324
1.08707e-06
0.0441602
0.0125583
0.256189
0.00032263
1.96396
0.000616389
3.01367
0.000744141
0.000572615
0.403364
1.93103
3.27511
0.00192645
0.00257467
0.000289918
0.000936118
0.00633839
0.0143
0.000818978
4.07506
1.01732e-05
0.00975886
0.000610734
0.000750014
0.000732396
0.000866589
0.00569545
0.00176582
0.0468027
0.000777487
0.000569674
0.000230968
0.00109613
0.0482422
0.000617757
0.049196
3.5469
0.184064
0.145087
3.95076
0.0194825
2.40965
0.00145554
0.00161047
3.23149
0.000481436
0.000583411
2.77285
0.000303367
1.91067
3.31997
0.000947347
0.0163605
0.0469443
0.000603049
0.046853
1.87918
0.0688523
3.93375
0.000582664
0.00138073
3.29599
0.000571673
2.18494
0.0181358
0.000662422
2.34804
0.0693955
0.000891757
0.0902923
0.00473993
0.000774808
0.034516
0.0304078
0.0282493
0.113438
0.000102719
0.00432772
2.20457
0.00109367
0.00104161
0.000737059
1.65321
0.000465856
0.0455007
0.000638423
0.00207926
2.64276
0.000585138
0.00201741
0.0454457
0.000754939
0.000217636
2.14975
0.000528134
0.0472302
0.000662029
0.0351545
0.033991
0.0807393
0.000748319
0.000715787
0.043365
0.000807957
0.000395795
0.0643098
0.00138623
0.00430355
0.000897321
4.08376
3.65044
2.01118
0.00139787
0.0201136
0.000179032
4.28432
0.0673503
5.1999
0.101685
0.000741484
4.02079
3.79688
0.00045031
0.000762604
0.0201593
0.000494037
3.31334
2.8474
0.00272733
0.271051
0.000544126
2.47404
1.76665
0.000657053
0.346287
2.28247
0.000492369
3.26933
0.00234558
2.97869
0.000543148
0.00816603
0.000739267
2.45279
0.112789
0.0966564
0.00139173
1.83569
1.97208
4.05738
0.00195668
0.000259847
0.0648014
2.07561
0.000707406
0.121096
0.000541166
0.0919495
2.22457
0.000150458
0.019838
0.00157062
0.000777645
0.398333
2.73859
0.000811476
0.0569985
0.00160429
0.00184622
3.09059
3.57588
2.12648
0.00941983
0.421147
0.0711224
0.0213715
0.000934721
0.000185071
0.000590633
2.87619
0.000460674
0.00250211
0.471977
0.000873408
0.0038165
0.00151615
0.000658373
0.0476392
0.000310388
0.00171654
0.0856196
2.0549
0.00121839
0.000737325
3.33317
0.0285785
0.000835046
0.0101257
0.0468373
0.00130192
0.000842359
0.000538802
2.62136
0.000516762
0.000521263
0.125317
0.000526633
0.000859445
0.0133649
0.0191197
0.00155009
0.00347655
3.1823
0.000715251
0.000568155
0.000556555
0.000251363
0.0043422
0.00412481
3.62997
4.05957
0.0240866
2.72363
0.00308785
0.000843565
0.000671326
0.0010893
0.000828744
0.00251852
0.0213551
0.00680319
0.00230689
0.00258423
0.0446722
0.0191124
0.00733249
0.0698199
0.000491667
0.00203962
0.000592244
0.0218511
0.253258
3.58324
0.0472659
0.0538352
0.00253122
0.000175161
0.00159477
0.000775986
0.000453661
3.60698
0.000122771
0.0229853
0.000509428
2.26727
3.89741
2.25359
0.000137951
0.000642434
0.000625865
3.80863
2.49786
0.0504933
0.019759
0.00393576
0.000126195
0.00118218
3.7143
0.000425597
0.000596788
0.115448
0.000652949
0.00047115
0.000323414
0.0016587
0.0195342
0.0126314
0.000599975
0.000368761
0.00944125
0.000248557
1.63228
3.45968
0.000779361
0.0462972
0.00230616
2.26867
0.000599274
0.000272308
0.000379808
0.00086715
0.544416
0.000752657
0.000385437
0.00160246
0.371142
0.00122915
0.00074886
0.000559862
3.98749
0.0449123
0.0209687
4.36975
0.0477782
1.71264
2.35478
0.000117017
0.000846908
0.00058385
4.24677e-06
0.000630964
0.0821148
0.000815697
0.000615346
0.0753412
0.000157133
0.00044666
0.0478652
0.000428496
0.000859755
0.000507849
0.0234379
0.0571296
3.87127
0.000128103
2.48277
0.038283
1.69211
0.023522
3.88758
3.26782
3.43955
0.000738158
0.000738748
0.000206722
0.264024
0.000568064
0.400927
1.5196
0.000237673
0.0576418
0.198607
0.00142872
0.000516665
0.000647595
3.87904
2.92905
0.000504119
0.0417164
0.0495249
0.0282176
2.67103
6.76731e-08
0.000388165
0.0407576
0.000280956
1.38244
0.276152
2.53969
0.0479628
0.000917788
0.0482078
0.00269558
3.25126e-05
0.0464693
0.00333193
0.00798892
0.000781024
0.000559527
0.771711
0.000749493
0.00104377
0.000505287
0.000636833
0.784063
0.0032298
3.71967
0.04848
0.000458203
1.82396
0.000700782
0.0698558
0.00154204
0.000199219
0.000437976
0.0265412
0.0280521
0.000326022
0.000515051
3.32578
2.91259
0.0439826
0.000789875
0.0332424
0.321017
0.0516898
3.77433
0.110439
0.00743435
0.000326538
2.79992
0.00176584
0.000544003
0.0140212
2.44901
2.69978
0.000965452
0.000796083
2.12173
0.000660527
2.85308
2.1927
0.000470639
0.000944001
2.57506
1.52822
1.38924
0.000287467
0.00071745
0.00107097
0.0314467
0.106933
0.000436348
0.000580419
0.00228987
0.0427284
0.01189
0.151676
1.51981
0.000125901
0.000537982
4.53497
0.000134944
0.0239078
0.001529
0.0253637
0.00106203
0.00243201
0.35044
0.000595612
0.000252142
0.000228297
0.0230197
0.0239093
4.12573
0.000608561
0.000529892
0.000565531
0.053554
0.0709787
2.97686
0.00249442
0.193817
0.048396
8.81694e-07
0.00133079
0.00339732
2.09504
0.00160968
0.0640829
0.000779285
1.3074e-05
0.0461328
0.000720205
5.55509
3.05416
0.0325555
3.76636
3.93313
3.83152
0.00013893
2.58379
0.0613273
0.000389088
0.0400956
0.000612651
0.00349792
0.0517275
0.000733364
0.00738969
0.025147
3.30302
0.00742144
0.00361435
2.55248
0.00575676
0.000803395
0.0442204
1.62645
0.479863
0.000206821
0.0210463
4.38982
2.49539
0.313998
0.0228993
1.96613
0.00492572
0.000822639
0.023438
2.23988
0.00135309
1.41869
0.00335317
2.16957
0.000806511
0.0372043
1.32162
0.000187224
0.00265537
0.000212816
2.85771
0.522662
2.52492
1.71452
0.000859457
0.0344794
0.0185662
0.00911346
1.46655
0.0163033
0.000441805
0.000759001
0.000697371
0.00231136
0.0340016
2.33564
8.30566e-05
2.78619
0.000499853
0.0520574
0.000162171
0.000665332
0.000588543
2.88998
2.28062
0.0258453
0.0237028
0.000844211
0.0014664
0.0473945
0.000529888
0.433934
0.169396
3.34972
0.00189438
0.542868
0.0479319
0.000768843
0.000873951
0.00116313
3.40446
0.00231536
0.00894265
0.0510647
0.0452653
0.00143926
0.0100319
0.000708036
0.000557828
0.00179116
0.00121626
0.0196565
0.000786839
0.0344936
2.56795
0.0680953
2.89833
0.000574086
0.0376491
0.0285246
0.00370868
1.57889
0.00200087
0.00481366
3.28665
0.000783415
0.167366
0.00485888
0.00079622
1.87015
0.000274964
0.766388
0.00123178
0.0395744
0.0428008
3.00138
0.00208477
0.0478213
0.000840513
0.674295
0.00074373
3.14479
0.0597806
0.167697
2.2943
0.008514
3.36278
0.000641734
1.75392
0.00197095
0.000546615
0.00223504
0.0381595
0.0485833
0.00269643
0.00020196
0.0554374
0.000648582
0.00023534
0.00221882
0.00129717
0.000664773
4.39843
0.000849698
0.000612946
0.0495434
0.0234342
3.8133
0.00183283
0.000294024
0.00106294
1.01223
0.00092996
0.00325785
3.7569
1.20159
0.100652
0.000828958
0.0102357
0.0267606
2.90029
0.000279917
0.000177639
0.00346513
0.000906537
0.00139251
1.40685
4.19067
4.64705
0.0258682
0.000851051
0.0479799
3.36419
0.0179105
0.0469543
0.000780131
1.66834
2.24936
3.56492
0.000706159
0.00070188
0.0129687
2.44333
0.000886081
2.83293
0.00697557
0.328932
1.84801
0.00216108
0.00389609
0.00459748
0.000178129
0.000178349
0.280248
1.56084
0.000120693
2.57273
0.00106639
0.000906584
0.000753081
0.000294086
0.0216501
0.00723203
0.0688284
0.0374558
0.00108626
0.000797535
1.71445
2.18008
0.00048375
0.00215938
0.000573762
1.64597
4.12384
0.0155372
3.82372
0.000815781
0.000147661
0.0389006
0.000659116
0.00999412
0.0474095
0.000534781
0.000661115
0.000376925
0.00645311
0.0499109
3.03697
0.0475587
0.000151093
0.0146793
0.000399467
3.52592
3.73406
0.00033965
0.00015022
0.0573354
0.00130137
0.0018538
1.39735
1.54586
0.118848
0.000201818
0.0027646
0.0434973
1.56065
0.00441531
0.00927236
1.40125
2.6769
1.63885e-05
0.000779842
0.0036632
0.000512211
0.610037
0.0272439
0.00059132
0.051691
0.000729153
0.000360854
0.000717405
0.0200911
0.00110316
3.31424
1.80946
3.37474
1.35818
0.446701
5.59135
0.000787164
3.39712
0.0245874
0.000570941
0.206291
0.000151991
0.0119745
0.000462525
0.000616553
0.00247679
2.47696
0.00126839
0.0217405
0.0472827
0.00498694
0.0270986
0.624187
3.544
0.00150223
3.55483
2.58251
0.00440788
0.0011447
0.0171183
0.248839
0.0117007
0.0445907
3.15502
0.000384789
0.00230352
0.00130927
0.041727
3.64126
0.00081301
0.00464194
0.00093215
0.000481138
0.00145282
0.0307924
0.000160676
0.00590823
0.0114791
1.90296
0.000216718
0.0427804
2.35319
0.000707803
0.0187403
0.0254989
3.16011
0.047431
0.960188
0.0384807
0.000565579
4.69523
2.38602
0.000833796
0.0283071
0.0497972
0.000315423
0.00118742
0.000412665
0.0568605
0.000805707
0.0916672
0.000186482
0.047292
1.9597
0.0502757
1.82326
0.21166
0.00108783
0.054702
0.044915
0.00424451
0.000695281
0.0171942
2.28516
0.000415534
0.0625794
0.00258474
0.000741539
0.0229264
0.00535373
0.00107401
0.000509918
2.68002
0.0540515
0.000298637
0.000682177
0.000225234
0.000510968
0.000702114
1.53814
0.000602093
0.286592
2.41381
0.0387926
5.59625e-05
0.0505552
1.46599
0.0699798
1.73449
0.0089569
0.221638
3.30414
3.52955
0.000727653
2.18047
0.000284969
2.55947
3.2968
0.000132549
0.111597
0.0456827
4.21486
0.07528
0.0186182
0.000477109
0.0400735
2.21111
1.6903
3.39121
0.000803149
0.069192
0.000160801
2.33061
0.010895
0.00135854
0.000687092
0.0573479
0.00278727
0.0045671
0.074076
0.000474958
1.77439
0.001987
0.000388776
0.565187
0.0394559
0.00478036
0.0244148
0.046784
0.000857666
0.0256497
2.04643
0.000220255
0.0260413
0.00283507
1.80778
0.218637
0.000766995
3.95482
0.000188295
0.0188997
1.99332
0.000334808
0.00120763
0.0174515
0.0325913
0.0436762
0.00143923
4.17462
0.00466542
0.0253724
4.06213
0.0170589
0.00074727
0.416183
0.000667208
0.000607533
0.000188236
0.0520141
2.31297
0.000769289
2.86062
0.0356681
0.000701487
0.167575
0.000575222
0.00363816
0.157561
0.000518659
0.000402373
1.45187
0.00253794
0.000417756
0.00057265
1.88494
2.21176
0.00744747
0.000226015
0.00111162
0.154976
4.11328
0.000642169
0.00154733
0.0163022
3.06106
0.00170118
0.209969
0.16687
0.000532421
0.0222888
3.47683
0.000600191
0.00878914
0.000335436
2.34325
0.000740091
0.000702021
0.00552447
0.0369882
2.25984
0.00236386
2.85218
0.00243744
2.4617
0.000352843
0.049081
0.0230698
0.0694857
1.85117
0.00499926
0.0881435
0.000895857
0.000660056
0.000819415
2.24546
2.56528
0.000209333
0.00030328
0.816858
0.000647952
0.0040716
0.00178777
4.01797
3.51994
0.0485831
3.09325
0.000710652
0.000541697
0.148642
0.0358374
1.7773
0.0011745
0.00132192
0.00127385
0.00218613
0.000689887
0.00161345
0.000851803
0.0215188
3.65724
2.34351
0.000147594
0.0204139
0.0310093
2.80903
0.000591254
3.54301
1.55264
3.67866
0.000484738
0.0505529
0.000623394
0.000661052
0.000370934
0.00134819
0.000123588
1.48712
3.34668
0.000463264
0.0198268
0.0738527
0.0513364
2.05948
4.50865
0.001577
0.00149627
0.0021411
0.0153299
0.0876106
0.00177244
1.99429
0.0915966
0.000244041
0.00693207
0.000790696
0.0430881
0.000845047
0.00122176
0.000208464