/*--------------------------------*- C++ -*----------------------------------*\
  =========                 |
  \\      /  F ield         | OpenFOAM: The Open Source CFD Toolbox
   \\    /   O peration     | Website:  https://openfoam.org
    \\  /    A nd           | Version:  10
     \\/     M anipulation  |
\*---------------------------------------------------------------------------*/
FoamFile
{
    format      ascii;
    class       volScalarField;
    location    "1700";
    object      k;
}
// * * * * * * * * * * * * * * * * * * * * * * * * * * * * * * * * * * * * * //

dimensions      [0 2 -2 0 0 0 0];

internalField   nonuniform List<scalar> 
10435
(
2.08963
2.54275
2.20372
2.31598
2.4689
2.68614
2.10457
2.03419
2.14159
2.59147
2.60834
2.22954
2.62963
1.39657
1.49312
2.03829
1.30735
2.85669
2.15609
2.16224
2.02668
2.31753
2.06635
2.19079
2.39541
0.695965
0.883522
2.39507
0.831589
2.73538
2.14559
2.60572
2.05864
0.850572
2.08672
2.13902
2.07329
0.909735
0.564887
2.17253
2.86875
2.10794
0.968106
2.27648
2.06699
2.17836
2.74912
0.897513
2.13968
2.28791
2.03842
2.32505
0.548144
0.771084
0.59722
0.779421
2.11688
0.932161
1.10423
2.13938
0.584485
2.45335
0.920893
2.3136
2.06102
2.27088
1.00672
1.00494
2.01948
2.20799
0.764967
0.811662
0.730032
2.1768
1.59382
1.0141
2.22619
2.06032
2.07964
1.56809
2.28862
1.95709
0.531802
0.778789
2.27482
1.89299
2.01173
2.31795
1.68157
2.11638
2.34581
2.35817
2.04225
1.78033
2.20388
1.93288
2.32874
1.54675
1.19463
2.34512
1.60282
2.63508
1.89754
2.27046
2.63926
2.30489
2.11672
2.29443
2.25763
1.66934
2.26423
2.63915
1.86479
1.76819
2.39493
2.29965
2.30029
2.04464
2.42925
2.27749
2.26003
0.890146
2.1833
1.42208
2.72456
0.6409
2.30306
0.993048
2.36539
0.905286
1.18792
2.75394
2.03644
1.46907
0.860409
0.489538
2.02255
2.31256
2.37722
2.26809
2.22165
2.09406
0.943823
2.19
2.32211
1.33888
1.73381
2.44442
1.27166
2.16641
0.81727
2.09016
2.10137
2.14715
2.44771
0.746927
2.69061
2.29586
2.51987
2.76905
2.11286
1.37317
2.45213
2.28079
1.7051
2.28956
2.08316
2.2861
2.22266
2.25018
2.35041
0.626712
0.812389
1.44086
2.17262
2.73149
2.31694
1.10308
2.2298
0.880616
2.59271
2.64079
2.19784
0.612166
2.09406
0.822699
0.888265
2.03584
2.47232
2.2246
2.23004
0.520073
0.871995
2.28196
2.65833
2.0191
1.16245
1.74306
1.00707
2.04896
1.69557
0.888491
2.5006
0.924598
2.36323
2.45973
2.45568
2.30339
0.933878
2.31757
0.733017
2.10079
2.2192
2.24697
0.867557
1.35538
1.80955
0.590185
0.704132
1.28276
0.853754
1.16822
0.982737
1.38066
0.73204
2.05425
0.629606
1.60448
2.19385
1.09711
1.08029
2.06399
0.664303
2.12134
0.939319
1.22286
2.15947
0.738947
2.18756
2.21852
2.23322
0.677023
0.6066
0.784699
2.47297
2.10702
1.71812
2.01091
0.664582
2.64228
0.700297
1.81001
2.65923
2.30444
2.01815
2.35521
0.614086
2.03564
0.689241
0.877728
2.06243
2.28831
0.683248
2.24887
1.90935
1.11838
2.17478
2.1082
0.568074
2.41632
2.10464
2.01817
2.009
2.36188
0.748236
2.25182
0.901603
2.52556
2.03129
2.03564
2.57621
1.11042
2.16685
1.51062
1.91394
0.542426
2.45046
0.595347
0.785365
0.866815
1.50457
2.76896
0.933573
2.01042
0.573983
0.753724
1.24277
2.00442
2.56656
2.21902
1.01737
2.20909
2.23575
0.71436
2.59584
1.45072
1.20465
2.15454
2.2359
0.787952
2.17967
0.839937
2.49072
2.46158
2.12326
0.749116
0.622893
2.14897
1.03923
2.26051
2.6527
0.877551
2.01269
0.509074
2.05925
2.48393
0.797405
2.31024
1.04718
0.926507
2.1469
0.897053
0.786485
2.17957
2.13917
0.951995
0.745696
0.694951
0.81106
0.787362
0.83142
0.782234
0.570953
0.813614
0.78466
0.80891
0.975249
0.956332
0.498948
2.09308
0.791769
2.40588
0.86608
2.39349
2.08418
2.1352
2.64434
2.12964
0.781629
0.82161
0.717238
0.65575
0.772473
0.553339
0.850123
0.856337
0.959318
2.20897
0.836617
2.11892
0.62566
0.885803
2.71956
2.12983
0.542909
0.886661
0.91114
0.918652
0.816212
0.739789
1.04004
0.608137
2.05574
0.989383
2.01616
2.10654
2.48196
2.57109
2.12499
2.3139
2.10173
1.21126
0.71056
0.819642
0.763378
2.24796
0.800954
2.72345
1.00462
0.885463
0.902251
0.922658
0.643447
2.06127
0.914712
2.03224
2.18813
0.631015
0.779668
0.951192
2.13935
0.963184
0.809729
0.698504
0.775817
0.941492
0.832916
2.28397
0.762282
0.781031
0.835212
0.864847
2.86916
0.541559
0.500329
2.09735
0.814966
0.154336
0.152428
0.148288
0.142663
0.136112
0.128804
0.121033
0.113071
0.105241
0.154153
0.151506
0.147082
0.141426
0.134926
0.127853
0.120469
0.113095
0.106115
0.153684
0.150576
0.145951
0.140274
0.133899
0.127094
0.120122
0.113296
0.106964
0.153299
0.14989
0.145098
0.139429
0.133209
0.126687
0.120116
0.113769
0.107924
0.15331
0.149676
0.144737
0.139093
0.133037
0.126794
0.120592
0.114648
0.109152
0.153994
0.150164
0.145088
0.139472
0.13357
0.12759
0.121718
0.116122
0.110925
0.155652
0.151615
0.146387
0.140784
0.135016
0.129267
0.123689
0.118408
0.113515
0.15868
0.1543
0.148875
0.143254
0.137587
0.132033
0.126706
0.121706
0.117108
0.163404
0.158438
0.152777
0.147107
0.141508
0.136104
0.130977
0.126197
0.121814
0.169773
0.164149
0.158289
0.152561
0.146998
0.141695
0.136708
0.132076
0.127802
0.177418
0.171507
0.165597
0.159827
0.15427
0.149012
0.144098
0.139544
0.135319
0.18596
0.180688
0.174918
0.16912
0.163522
0.158237
0.15332
0.148778
0.144587
0.196552
0.192178
0.18654
0.180652
0.174921
0.169511
0.164496
0.15989
0.155681
0.210746
0.206522
0.200723
0.194576
0.188571
0.182906
0.177672
0.172896
0.168574
0.229114
0.223961
0.21757
0.210933
0.204487
0.19842
0.19283
0.187745
0.183137
0.251259
0.244308
0.236971
0.229642
0.222597
0.215993
0.209924
0.204427
0.199486
0.275483
0.267004
0.258659
0.250538
0.242789
0.235541
0.228893
0.222895
0.217574
0.300927
0.291593
0.282392
0.273474
0.264965
0.257
0.24969
0.243097
0.237259
0.327629
0.317932
0.308065
0.298392
0.289103
0.280375
0.272336
0.265069
0.258612
0.35587
0.346109
0.335711
0.325322
0.315257
0.30575
0.296955
0.288972
0.281863
0.386046
0.376352
0.365447
0.354353
0.343532
0.333267
0.323728
0.315026
0.307223
0.418708
0.40896
0.397414
0.385582
0.374049
0.363099
0.352888
0.343523
0.335056
0.454866
0.444266
0.431703
0.419057
0.406903
0.395424
0.384713
0.374847
0.3659
0.496002
0.482435
0.468196
0.454703
0.442127
0.430403
0.419486
0.409398
0.400198
0.543707
0.522879
0.506453
0.49233
0.479721
0.468191
0.457496
0.447588
0.437652
0.256395
0.256295
0.256711
0.257637
0.259086
0.261055
0.263544
0.266534
0.270015
0.273952
0.278315
0.283065
0.288144
0.2935
0.299056
0.304737
0.310461
0.316134
0.321663
0.326952
0.331889
0.336363
0.340242
0.343343
0.345464
0.346393
0.346296
0.345193
0.342985
0.339449
0.334854
0.329277
0.32273
0.315337
0.307211
0.298472
0.289239
0.279634
0.269785
0.259819
0.249862
0.240041
0.230465
0.221241
0.212465
0.204218
0.196562
0.189554
0.183221
0.177582
0.172639
0.168376
0.164776
0.161806
0.159439
0.15764
0.156382
0.155633
0.155369
0.255167
0.255396
0.256091
0.257261
0.258906
0.261024
0.263612
0.266662
0.270159
0.27408
0.278393
0.283061
0.288034
0.293255
0.298659
0.304171
0.30971
0.315185
0.320505
0.32557
0.330279
0.334528
0.338204
0.341186
0.343329
0.344471
0.344492
0.34333
0.340979
0.337503
0.333008
0.327558
0.321206
0.314023
0.306097
0.297532
0.288441
0.278946
0.269174
0.259255
0.249319
0.239491
0.22989
0.220628
0.211802
0.203497
0.19578
0.1887
0.182288
0.176558
0.171505
0.167127
0.163404
0.160306
0.157798
0.155844
0.154411
0.153471
0.152988
0.250896
0.251174
0.251908
0.253105
0.254769
0.2569
0.259492
0.262534
0.26601
0.269896
0.274162
0.27877
0.283672
0.288814
0.294132
0.299554
0.305001
0.310386
0.315617
0.320598
0.325228
0.329397
0.332991
0.335884
0.337941
0.339033
0.339065
0.337977
0.335752
0.332421
0.328052
0.322715
0.316478
0.309418
0.301622
0.293189
0.284227
0.274855
0.265194
0.255375
0.245523
0.235766
0.226224
0.217007
0.208216
0.199936
0.192235
0.185163
0.178753
0.173018
0.167957
0.163555
0.159792
0.156639
0.154068
0.152046
0.150543
0.149535
0.148988
0.243377
0.243672
0.244416
0.245617
0.247276
0.249391
0.251957
0.254962
0.258388
0.262214
0.26641
0.270938
0.275753
0.280802
0.286024
0.291348
0.296697
0.301985
0.307123
0.312011
0.316548
0.320624
0.324124
0.32693
0.328921
0.329984
0.33003
0.329002
0.326879
0.323683
0.31946
0.314274
0.308195
0.301301
0.29368
0.285429
0.276653
0.267467
0.257992
0.248353
0.238676
0.229085
0.219699
0.210628
0.201971
0.193813
0.186221
0.179245
0.172917
0.167251
0.162247
0.157892
0.154165
0.151041
0.148488
0.146475
0.144973
0.143959
0.143399
0.233603
0.233919
0.234674
0.235875
0.237525
0.239621
0.242158
0.245123
0.248501
0.252268
0.256396
0.260847
0.265577
0.270536
0.275661
0.280885
0.286132
0.291316
0.296347
0.301129
0.305557
0.309525
0.312921
0.315633
0.317552
0.318581
0.31864
0.317677
0.31567
0.312627
0.308581
0.303585
0.297704
0.291016
0.283607
0.275573
0.26702
0.258059
0.248811
0.239398
0.229945
0.220573
0.2114
0.202535
0.194073
0.186099
0.178678
0.17186
0.165675
0.160138
0.155248
0.150995
0.147355
0.144303
0.141808
0.13984
0.138371
0.137377
0.136826
0.221691
0.221989
0.222722
0.223898
0.225516
0.227577
0.230073
0.232993
0.23632
0.24003
0.244093
0.248475
0.253129
0.258004
0.263041
0.268171
0.273318
0.278398
0.283322
0.287994
0.292312
0.296174
0.299471
0.3021
0.30396
0.304964
0.305041
0.304144
0.302249
0.299357
0.295493
0.290702
0.285044
0.278595
0.271437
0.263665
0.25538
0.246691
0.237718
0.228583
0.219407
0.210309
0.201404
0.192799
0.184588
0.176854
0.16966
0.163055
0.15707
0.151719
0.147001
0.142904
0.139406
0.13648
0.134095
0.132222
0.130832
0.129901
0.129398
0.207956
0.208215
0.208906
0.210036
0.211609
0.213622
0.216071
0.218943
0.222221
0.225881
0.229891
0.234215
0.238808
0.243616
0.24858
0.253632
0.258696
0.263688
0.268519
0.273096
0.277319
0.281088
0.284303
0.286867
0.288685
0.289678
0.289783
0.288958
0.287175
0.284433
0.280751
0.276168
0.270746
0.264557
0.257676
0.250199
0.242218
0.233842
0.225191
0.216381
0.20753
0.198754
0.190164
0.181865
0.173951
0.166502
0.159582
0.153239
0.147502
0.142384
0.137885
0.133992
0.130681
0.127926
0.125695
0.123957
0.122684
0.121851
0.121426
0.1924
0.192562
0.19316
0.194205
0.195702
0.197651
0.200048
0.202878
0.206124
0.209757
0.213746
0.218047
0.222611
0.227383
0.232303
0.23731
0.242331
0.247275
0.252058
0.256577
0.260738
0.264439
0.267597
0.270128
0.271928
0.272935
0.273087
0.272349
0.270685
0.268086
0.264577
0.260195
0.255009
0.249095
0.242509
0.235349
0.227709
0.219681
0.2114
0.202965
0.19449
0.186083
0.177852
0.169901
0.162328
0.155208
0.148611
0.142579
0.137139
0.132302
0.128066
0.12442
0.12134
0.1188
0.116771
0.115218
0.114113
0.113428
0.11313
0.174969
0.174945
0.17538
0.176299
0.177712
0.179615
0.18199
0.184799
0.188052
0.191751
0.195808
0.200164
0.204756
0.209516
0.214415
0.219387
0.224402
0.22941
0.234246
0.238768
0.242892
0.24654
0.249664
0.252179
0.253999
0.255054
0.255297
0.254687
0.253156
0.250677
0.247315
0.243121
0.238163
0.232534
0.226284
0.219429
0.212096
0.204507
0.19669
0.188686
0.180641
0.172665
0.164848
0.157286
0.150066
0.143303
0.137061
0.131419
0.126374
0.121881
0.117931
0.114538
0.111701
0.109396
0.107589
0.106255
0.105367
0.104889
0.104788
0.797237
0.748148
0.704196
0.662079
0.620759
0.579884
0.539701
0.500676
0.463284
0.428022
0.395949
0.367894
0.344129
0.324377
0.307615
0.293519
0.282314
0.27394
0.267991
0.263918
0.261226
0.259475
0.258254
0.257162
0.255732
0.759652
0.73176
0.696174
0.657464
0.617387
0.576815
0.536472
0.497079
0.459339
0.423999
0.391836
0.363383
0.33887
0.318259
0.301274
0.28762
0.277033
0.269196
0.263712
0.260114
0.257931
0.256731
0.256134
0.2558
0.2554
0.752603
0.724054
0.689635
0.651689
0.611756
0.570921
0.530142
0.490321
0.452295
0.41683
0.384552
0.355885
0.331064
0.310155
0.293063
0.279562
0.269312
0.261892
0.256838
0.253672
0.251921
0.251146
0.250956
0.251006
0.251004
0.752179
0.719796
0.683649
0.644762
0.604159
0.562779
0.521555
0.481405
0.443174
0.407593
0.375222
0.346448
0.321511
0.300515
0.283421
0.270025
0.259971
0.252799
0.248011
0.245105
0.2436
0.243055
0.243073
0.243311
0.243455
0.753297
0.717156
0.678468
0.637825
0.59597
0.553694
0.511838
0.471255
0.432739
0.396964
0.364455
0.335582
0.310587
0.289582
0.272531
0.25923
0.24931
0.242296
0.237665
0.234897
0.233503
0.233038
0.233115
0.233403
0.233634
0.754028
0.71455
0.673196
0.63053
0.587184
0.543834
0.501215
0.460098
0.421206
0.385167
0.35248
0.323509
0.298488
0.277517
0.260544
0.247342
0.237528
0.230608
0.226049
0.223316
0.221918
0.221414
0.221426
0.221636
0.221788
0.754374
0.711626
0.667536
0.622754
0.577829
0.533313
0.48983
0.448076
0.40872
0.372348
0.339445
0.310373
0.285352
0.264452
0.247588
0.234502
0.224785
0.217931
0.213392
0.210628
0.209139
0.208489
0.208304
0.208268
0.208187
0.754473
0.708106
0.661193
0.614314
0.56783
0.522131
0.477727
0.435249
0.395351
0.358584
0.325429
0.296256
0.271275
0.250491
0.233779
0.22084
0.211231
0.204432
0.199892
0.197058
0.195419
0.194534
0.194012
0.193528
0.192945
0.753823
0.703564
0.653908
0.605082
0.557157
0.510309
0.464969
0.421679
0.381152
0.343938
0.310476
0.281205
0.256344
0.235739
0.219239
0.206498
0.197017
0.190279
0.185746
0.18285
0.181042
0.179903
0.178934
0.177669
0.176104
2.8276
2.78497
3.53109
5.24055
0.134593
0.156395
1.34058
0.0946066
3.29824
0.10392
2.64188
0.17009
1.1081
0.181147
1.47305
0.168929
2.82665
5.18354
0.0978216
1.07333
0.787945
0.1654
3.06622
0.360875
0.0803902
0.124321
0.0799528
0.489855
2.9204
2.81315
0.100999
0.134909
4.21238
1.17672
2.79392
0.11944
1.47212
1.47893
1.61743
0.186168
4.17974
0.0420185
0.147106
0.976767
0.367437
0.20208
3.37035
4.00776
3.06958
3.70303
3.19388
3.95554
0.780279
5.27722
1.30469
3.35318
0.168802
0.763509
0.104828
3.83734
0.13985
3.72492
0.134093
0.179165
0.0970173
0.854231
0.143761
1.26758
1.20041
3.44302
3.46949
0.189382
0.102233
1.10335
0.100343
0.777405
1.17917
4.02899
0.105895
5.16495
1.08359
0.164321
0.110268
2.52208
0.131776
0.142886
0.0982202
4.04589
4.22641
0.235664
0.307188
0.174496
0.114261
0.175408
0.110802
2.66884
0.125689
2.78333
0.082839
3.8273
0.305785
4.20224
0.330937
0.192717
0.0983883
0.410346
3.24756
1.03297
0.0494884
2.83442
0.169816
0.0921268
3.42968
0.188677
0.770213
3.0614
3.94132
0.17553
0.841197
0.0884766
0.012812
0.0996066
0.368423
0.0814225
4.26141
0.145348
3.97584
1.00677
0.108106
4.0071
0.107852
1.10549
3.42082
1.62339
0.581469
0.0979062
0.359142
0.237592
0.139812
1.08185
0.160394
1.50504
3.84986
0.0172033
2.977
0.183588
5.03205
0.990959
0.167345
2.71973
0.602198
0.193557
5.14743
1.54623
0.103627
2.493
0.0884719
0.17599
1.27115
0.128576
0.143656
3.39645
0.153406
2.90026
0.127529
2.83426
0.186412
0.0790282
0.200521
0.092157
0.169698
0.1858
1.22848
2.65042
0.141284
0.449182
1.0508
3.18962
3.28401
0.162774
1.29456
0.131866
0.78755
1.26092
0.767617
0.0843084
2.97342
0.0404996
3.84796
0.156812
3.97276
3.84015
3.25778
1.46433
1.49166
3.97227
0.0967921
0.162625
3.02502
2.85905
1.61184
0.225802
0.157882
0.159072
0.48936
0.120511
0.150195
0.326844
3.16606
0.163892
0.0982301
0.1364
1.31217
0.468747
0.693466
4.19425
0.11664
0.0937841
0.226946
0.284108
0.271576
0.0480311
0.103458
3.89771
2.80125
3.99958
0.235275
2.85108
0.0514799
0.106877
2.38634
0.1216
0.130788
0.102031
1.58065
0.109645
1.33103
0.362034
1.2965
1.5862
0.105345
0.13911
0.127781
0.678857
0.0995604
0.101163
0.137572
0.438657
0.167439
0.123615
0.0478698
0.47627
0.122915
3.089
0.11753
0.0802529
3.26377
1.19312
1.28847
0.0978592
0.897572
0.11386
0.138521
0.0991562
1.12063
0.0824813
0.120236
4.91955
1.33704
0.0787648
0.847187
3.2273
0.0904202
0.0901922
0.100065
4.81603
0.161149
3.13073
0.176452
3.9277
0.930604
0.622428
1.06025
0.201369
3.30173
0.149306
0.42965
4.12619
3.34126
3.99241
1.56593
0.15884
0.0243792
3.43205
1.97347
4.21959
4.15046
0.158835
0.130863
3.58159
3.88717
0.142644
0.23121
0.16318
4.13509
0.12262
0.788889
0.124186
1.07918
0.162134
0.191266
0.145658
4.03421
0.104816
0.087733
1.5017
3.64373
0.125969
0.0811598
2.0169
1.27766
0.137162
0.244534
0.100308
0.100634
0.0834992
3.90249
1.04318
0.154361
0.773734
0.125775
1.48664
0.238521
0.105796
4.06341
0.148045
0.11671
0.116117
0.00408028
0.983696
0.130257
0.182102
3.69284
0.14153
1.12321
0.116909
0.178804
0.11207
0.0958392
3.16941
3.2643
0.114745
0.0541944
1.29816
3.48612
2.48808
2.14401
0.998677
0.128552
3.32217
3.21032
2.77407
0.120216
3.96142
0.0372371
0.094083
0.190968
3.82406
0.134397
3.78819
0.169906
1.53501
2.95409
3.95735
1.09972
0.0832789
0.0909493
0.127078
0.131097
0.108052
4.17069
0.1776
4.25427
1.05827
1.03147
2.11621
0.128387
1.07163
2.54802
3.97459
1.02847
0.120747
0.334067
4.02416
1.2415
0.0997683
0.123728
4.18254
0.176427
2.94379
0.0939704
0.149193
0.131453
3.42325
0.179982
0.00115573
1.38806
0.348808
1.36157
0.105512
3.39893
0.13523
3.57754
0.136834
0.129752
0.980762
3.09777
3.17426
0.157475
0.173236
0.130265
0.132471
0.246123
0.359113
0.196347
3.97469
0.00292629
0.261338
0.116539
0.13466
0.15482
0.0810088
0.239786
0.108812
1.52044
0.185733
0.169359
0.014707
0.112952
0.315795
0.125847
1.58448
3.52951
1.20307
1.26085
4.58004
0.400727
3.6527
0.100217
0.1043
3.94174
0.136498
0.151165
3.46968
0.143943
3.40659
3.18165
0.143347
0.323425
1.04599
0.161206
0.745544
3.32452
1.26404
3.94123
0.0902316
0.101626
3.91357
0.124056
2.59429
0.41722
0.090176
2.76534
0.358698
0.0823347
1.12889
0.222722
0.0852589
1.01304
0.95868
0.706986
1.59197
0.0123182
0.173606
2.47914
0.12055
0.162532
0.205976
3.21557
0.168703
1.46358
0.159569
0.0892472
3.94783
0.13112
0.11987
1.45076
0.148494
0.117254
3.75727
0.145948
1.53448
0.136358
0.592411
1.02782
1.20642
0.156397
0.156075
1.38629
0.136254
0.144949
1.11742
0.141187
0.213135
0.0813025
3.80151
4.2007
3.131
0.0834171
0.798555
0.116437
3.99106
1.07639
5.69426
1.2194
0.212191
3.95751
4.30607
0.121875
0.199451
0.458292
0.174911
4.55516
3.77016
0.0884508
1.40787
0.149626
3.35023
3.07546
0.16424
2.01243
2.79341
0.160152
3.45707
0.071141
3.77265
0.135146
0.240503
0.148778
3.09739
1.51686
1.55189
0.10791
3.1278
3.12138
3.75615
0.0999204
0.134963
0.964195
3.26281
0.119933
1.56603
0.150446
1.09452
2.72657
0.100193
0.783943
0.104447
0.135921
1.08796
4.0928
0.221606
1.46105
0.108768
0.135792
3.4321
3.36492
3.3071
0.265921
1.12903
1.1071
0.782329
0.222024
0.117859
0.0982517
4.16465
0.154377
0.157742
2.01134
0.215553
0.197987
0.152814
0.175386
1.48117
0.145422
0.108582
1.12659
3.15142
0.123494
0.12992
3.70478
0.491653
0.0431252
0.260911
0.997863
0.120303
0.150707
0.115767
3.76807
0.136526
0.147371
1.58916
0.100463
0.196545
0.368384
0.788716
0.12144
0.175783
3.95089
0.190515
0.0876512
0.13586
0.132787
0.25203
0.172099
3.8103
3.63144
0.453318
4.08755
0.146171
0.0793584
0.0867196
0.0710748
0.184386
0.0874832
0.828147
0.243524
0.102648
0.17655
1.38129
0.757795
0.222624
0.849453
0.157511
0.147818
0.102908
0.353435
1.37117
3.79579
1.48602
1.30917
0.091905
0.103255
0.0474117
0.217468
0.11212
3.38884
0.09967
0.828025
0.127328
3.3714
4.99339
2.57231
0.0119696
0.0878139
0.0954094
4.30873
3.70027
0.729154
0.776745
0.167443
0.102218
0.12779
3.85833
0.0276384
0.128845
1.57857
0.11583
0.174978
0.112061
0.088218
0.788499
0.270795
0.115333
0.120911
0.25592
0.126423
3.0146
3.6291
0.136523
1.41716
0.163508
2.64496
0.101342
0.13762
0.12471
0.11756
2.07798
0.144521
0.145639
0.104518
1.03681
0.121673
0.208877
0.184554
3.90121
1.41438
0.555995
4.00844
1.49345
3.29624
2.79568
0.0993105
0.0878404
0.0882435
0.00240571
0.155423
0.929645
0.175996
0.114863
1.00784
0.110737
0.110598
0.556889
0.131339
0.124826
0.0960914
0.553163
1.09616
4.26937
0.101685
3.37134
1.2797
3.14188
0.838153
4.29523
3.30917
4.65542
0.0888728
0.163662
0.0165754
0.858968
0.145719
2.01936
3.17197
0.130046
1.2598
1.23782
0.115247
0.0961855
0.133398
3.51267
3.81889
0.113343
1.3711
1.51732
0.832073
3.56333
0.000193478
0.12287
0.557881
0.0223391
3.04039
1.40902
2.91089
1.50919
0.0820866
1.51534
0.0869581
0.00713532
0.714774
0.186017
0.262403
0.128906
0.146999
1.69087
0.163772
0.0985062
0.145385
0.153096
1.6737
0.187976
3.88297
1.48094
0.156484
3.21175
0.184732
1.09503
0.150623
0.120979
0.169122
0.913439
0.643679
0.0256681
0.17778
3.21543
3.83761
1.18138
0.141764
1.01123
1.8775
1.43562
4.4061
1.5498
0.236751
0.148504
3.08377
0.0768686
0.0915768
0.325853
3.97275
3.43066
0.132883
0.12064
3.71088
0.0845091
3.67937
3.56194
0.170613
0.131016
3.22708
3.06206
3.0052
0.124998
0.124657
0.0659097
0.985488
1.47745
0.134634
0.0856861
0.127647
1.17132
0.212625
0.727445
3.20441
0.101537
0.134253
5.06422
0.103558
0.868704
0.0726595
0.889171
0.140671
0.100606
1.92517
0.184472
0.133114
0.117652
0.509615
0.873071
4.05386
0.0997053
0.125121
0.143593
1.45888
1.08928
3.73504
0.0871989
1.44563
1.48801
0.000842038
0.0937358
0.154162
2.3991
0.155232
1.15249
0.179498
0.00302129
1.3281
0.159751
5.87765
4.28062
0.966985
3.87488
3.88648
3.50139
0.104039
4.01947
1.45226
0.1605
1.31144
0.117316
0.155315
1.06814
0.143349
0.271799
0.855012
4.08108
0.141962
0.121933
4.03283
0.208692
0.164571
1.38215
3.15481
2.15158
0.123088
0.368073
4.00971
2.88156
1.92254
0.843034
3.63362
0.268682
0.0863283
0.879351
3.22886
0.142866
2.49706
0.214683
3.53207
0.184444
1.08924
2.92754
0.0150372
0.140714
0.124501
3.50418
1.98366
3.45693
3.02272
0.221673
0.546325
0.755959
0.291307
3.11857
0.757547
0.120504
0.155346
0.144121
0.089792
1.03837
2.69658
0.0134766
3.48636
0.179764
1.34361
0.112079
0.113632
0.0923704
3.79388
3.41441
0.466598
0.869423
0.133656
0.111545
1.54419
0.113845
2.08142
1.69759
4.17012
0.0830099
1.28662
1.55456
0.167661
0.20993
0.155718
4.20846
0.167339
0.277732
1.3443
1.41719
0.102441
0.292254
0.120062
0.180829
0.112215
0.115762
0.805045
0.104187
0.424296
3.3754
1.08469
3.83849
0.153726
0.420723
0.906033
0.124779
2.95906
0.142002
0.190257
3.62165
0.177235
0.730397
0.256786
0.0790123
3.13058
0.111788
1.60719
0.0853642
1.31734
1.40092
3.96805
0.0995852
1.23605
0.13533
1.49744
0.170988
3.66817
1.33125
0.702483
2.81284
0.191658
3.24417
0.139595
3.0901
0.172341
0.0892516
0.16611
1.12849
1.48927
0.0852044
0.12193
1.0856
0.121792
0.129274
0.0986952
0.0803061
0.167973
4.00326
0.19657
0.150624
1.49826
0.498635
3.48689
0.0788635
0.142118
0.12971
1.89506
0.214803
0.154814
4.34901
2.14199
0.961553
0.126566
0.300541
0.980044
3.54278
0.123452
0.115888
0.193509
0.210031
0.14185
2.48804
3.96835
5.55983
0.870796
0.130278
1.56132
4.23788
0.424566
1.06477
0.171282
3.18001
2.68605
3.34684
0.135221
0.139699
0.364489
3.44152
0.224566
3.69089
0.243271
0.991551
3.32503
0.119641
0.199994
0.198938
0.106104
0.10097
0.758542
3.13024
0.100085
4.03863
0.140487
0.133262
0.102643
0.109682
0.806187
0.174922
1.10592
1.08772
0.123366
0.193533
3.0571
2.50549
0.120465
0.157721
0.184589
2.79757
5.1867
0.401213
3.90303
0.121096
0.106282
0.870773
0.130949
0.470203
1.54776
0.125843
0.0950984
0.0279623
0.209873
1.23773
3.993
1.21884
0.108598
0.382481
0.109001
4.18738
4.2084
0.13032
0.105273
1.2726
0.147388
0.113288
2.84813
3.04924
0.467189
0.110036
0.120066
0.655995
3.23624
0.178503
0.150729
3.06497
3.44284
0.00486764
0.128192
0.160501
0.181737
1.41212
0.818908
0.140224
1.40697
0.140874
0.155271
0.115253
0.803154
0.12701
3.39375
3.27414
4.13137
3.02102
2.12471
6.10513
0.136489
4.00823
0.846248
0.104201
0.737379
0.019266
0.343569
0.134849
0.12666
0.0900273
3.72627
0.0914013
0.468816
1.54242
0.192175
0.390818
1.43151
3.33019
0.0688008
3.54839
2.80103
0.190825
0.116654
0.342445
0.841388
0.304483
1.22805
4.00371
0.159702
0.0963847
0.146134
1.25779
4.18342
0.179381
0.216381
0.0834438
0.11924
0.155984
0.541478
0.105395
0.219991
0.302
3.21655
0.119418
0.432823
2.96104
0.159214
0.389423
0.368783
4.37303
0.460483
1.88048
0.856532
0.152497
5.23688
3.30467
0.120646
0.933293
1.47719
0.125171
0.167445
0.16479
1.44809
0.135861
1.10445
0.117928
1.54406
3.62136
1.02012
3.17844
0.662345
0.149892
1.09985
1.20486
0.206544
0.197562
0.211235
2.69138
0.165302
0.489772
0.128331
0.211115
0.870438
0.159934
0.101898
0.119617
3.5402
1.07141
0.107748
0.206487
0.10176
0.133388
0.149485
3.02097
0.194927
1.42919
3.95256
0.969215
0.0082543
1.23793
2.95413
1.08442
3.28377
0.265746
1.71486
3.93815
3.78304
0.0494776
3.21861
0.122464
3.25861
4.40216
0.104013
1.16457
1.4196
4.00041
1.23966
0.429768
0.140826
1.33088
3.60273
2.79641
3.96494
0.211875
1.08204
0.111241
3.35012
0.494976
0.0972663
0.151998
1.05479
0.101957
0.267077
1.07898
0.127406
3.03873
0.089428
0.142271
2.17122
1.31027
0.220492
0.810681
1.49762
0.218367
0.888138
3.22412
0.126125
0.533545
0.139366
3.46652
1.54705
0.0852065
4.28356
0.118509
0.796078
3.15343
0.150222
0.122399
0.774935
1.01236
1.3306
0.114247
3.96806
0.183399
0.874778
4.08348
0.563803
0.204682
2.09627
0.182976
0.140197
0.0153354
1.33298
3.70284
0.135517
4.12397
0.410552
0.152481
1.43007
0.166542
0.151006
1.32279
0.182497
0.125173
2.48546
0.10733
0.150925
0.191295
3.56038
3.40649
0.263211
0.113427
0.115951
1.35042
3.99659
0.127707
0.119427
0.409252
4.14893
0.128084
1.35981
1.33329
0.0911991
0.828334
4.03824
0.123228
0.294739
0.119612
3.55971
0.113421
0.139162
0.233203
0.597237
3.55448
0.0831223
3.97865
0.11082
2.71774
0.139601
1.34415
0.603362
1.11036
3.17262
0.205515
0.856358
0.21422
0.189558
0.191464
3.27537
3.3851
0.123594
0.128579
1.71385
0.192386
0.162659
0.0934026
4.19416
3.78473
1.04371
4.04522
0.204821
0.0912317
1.38276
0.406417
3.13688
0.0796934
0.168619
0.0947106
0.16348
0.132134
0.147912
0.136541
0.513974
4.36188
3.38654
0.108137
0.375255
0.953946
3.54843
0.142531
4.22595
3.21367
3.82845
0.170769
1.05271
0.111517
0.202289
0.15401
0.165614
0.0981952
2.95335
4.27943
0.173367
0.436346
1.07705
0.463013
3.44703
4.00701
0.147118
0.105111
0.166631
0.38864
1.27166
0.106527
3.2508
0.968779
0.128712
0.233553
0.20395
0.68294
0.21211
0.122437
0.119981
0.113918
0.241517
0.89545
0.188523
4.08356
0.175772
0.15583
0.813729
0.216064
0.131008
3.86615
3.49737
0.156315
3.50582
0.103044
1.24547
0.176178
0.215815
0.122285
0.0936169
3.34386
0.188644
0.194856
3.6864
2.96066
0.107782
0.111538
0.124008
0.20061
1.48296
0.00830615
0.145978
4.17837
0.137665
0.103163
0.180835
3.92038
0.147236
3.46904
3.23674
0.179254
4.01468
0.192508
0.0798583
4.32585
2.77979
0.100404
0.00314032
0.800207
0.228079
0.223261
0.110794
1.46859
2.84207
0.166807
0.104636
3.41998
0.131341
3.17744
1.88694
0.151512
0.951717
4.00442
0.100428
1.24705
0.122292
0.17846
0.205828
0.132711
3.69491
3.24792
0.147039
0.107819
3.78444
0.161574
0.212591
0.286431
1.10107
1.48742
0.0893244
0.122021
0.106947
0.135961
0.0868938
0.000544148
0.196652
0.201723
3.44691
0.818847
0.128524
2.09312
0.221642
1.12917
4.00512
1.13714
3.68123
1.14503
0.00637692
0.834902
0.207485
0.137694
3.09982
0.169878
4.96972
3.35255
0.884001
0.163905
3.63696
0.0884455
3.66214
0.148365
0.163766
3.69563
0.504005
1.13293
0.159497
0.147083
0.103022
0.182532
1.4811
1.60956
0.129418
3.02018
0.607094
3.40381
0.115329
4.30543
0.154897
0.136116
0.50608
0.113424
0.794814
3.77582
0.936873
0.0947798
3.40751
1.40079
2.86448
1.08027
0.778914
0.057378
0.86855
3.74371
0.116363
0.13866
0.137849
3.94731
0.189803
0.13102
1.36638
0.897379
0.38108
4.23333
1.16218
0.334284
0.397497
1.35034
0.225012
0.910649
0.122841
0.12382
0.130641
3.62481
0.164786
1.30153
3.45502
0.0802954
1.07401
3.15579
0.125826
2.6231
0.123359
0.891053
0.206389
0.0836013
0.179786
0.109569
0.0805857
0.203131
0.186416
0.172065
0.265401
3.3535
0.917103
0.152063
0.88444
0.116376
0.141494
0.133243
0.139966
0.175786
1.55588
0.106758
2.08924
3.54839
1.53865
1.18674
2.35616
0.190106
3.37614
0.131511
1.43906
0.157042
0.144418
0.274126
2.81958
0.214688
0.128095
0.115371
0.349599
0.238873
1.52178
0.799364
1.75878
3.16643
0.136962
0.112623
4.67774
0.134404
0.161439
0.0881969
0.272095
0.108231
0.104018
0.175245
0.122198
1.22052
3.60442
2.07601
0.23868
0.112858
1.05965
3.8163
3.23505
0.0911852
0.149586
1.02388
0.121044
0.0872779
0.219482
3.5469
0.935982
0.116497
0.137504
0.176911
0.09444
3.45362
0.167269
0.150028
0.155754
0.16232
3.30213
0.115328
1.54997
0.913718
0.196359
0.140091
0.110297
3.61151
0.547574
0.128132
4.06838
0.988269
0.901058
0.0962628
0.142828
1.33662
4.30771
4.21036
0.0917087
1.06002
0.116277
0.102639
3.43965
3.24152
0.0809689
0.00245044
1.17357
1.49149
0.114359
0.0835078
3.42197
0.128407
2.12511
0.278579
0.187407
4.70087
0.112879
0.125865
0.19783
3.08793
0.1179
0.0915569
0.127742
0.150887
0.381744
0.206471
0.77803
0.934794
0.886806
0.149732
0.13637
0.113125
0.167276
0.157266
0.136972
0.894007
0.164676
0.182043
2.70296
3.84421
0.124516
0.0977807
0.194655
3.56833
0.145369
1.08638
0.0746981
0.107302
0.0245762
0.158838
0.117218
3.98103
0.161946
0.101271
2.20113
0.117793
1.4113
0.1464
0.122773
3.88482
3.80166
0.0854782
3.36997
0.119616
1.18017
7.90594e-05
3.58857
0.117031
1.93443
0.137733
3.62159
0.716701
1.33647
2.97586
3.88121
0.165024
4.0168
0.0947544
0.107497
0.0737069
3.62913
0.357918
0.0948811
0.963902
2.49083
3.17967
0.214802
4.21648
0.136569
0.203026
0.120407
0.669437
0.281676
1.61375
0.13732
0.181881
0.11127
0.130834
0.206118
3.49756
0.122581
0.106953
4.00355
0.781904
0.0837889
0.271851
3.76512
0.144591
0.133679
3.86828
0.218365
3.77117
1.35115
0.130034
0.579154
1.0445
0.0258683
0.199546
0.11942
0.0873444
0.212961
0.226862
3.65156
0.0911837
1.29391
0.36933
0.159023
3.5694
1.73702
0.185127
0.134669
0.0803005
0.117074
0.0847234
1.74986
2.8995
0.122463
0.144611
0.158168
1.28665
0.21156
1.0191
0.174414
0.141731
0.159218
0.179228
1.90432
0.20546
0.882609
1.26002
0.000953627
1.42937
0.140353
1.06312
0.698902
0.138654
0.137892
0.232068
0.118567
0.188923
1.33318
3.84489
3.94929
3.29716
0.988846
0.0162548
0.0841828
1.40002
0.0953807
1.45897
4.05752
0.113503
2.59634
1.06297
2.46222
0.201226
0.0943131
0.141512
0.114456
3.46499
0.121409
3.55468
0.738077
0.505103
0.100942
3.09986
1.28951
0.153224
0.121961
2.98307
0.18746
0.143016
0.908114
1.04303
0.120338
0.106266
2.83185
0.123939
1.22993
0.155014
0.151016
0.207478
3.24092
0.0205954
0.0343454
0.121115
0.11865
0.362376
0.117681
3.79569
0.473741
0.0363186
0.159748
0.100437
1.00202
0.299627
0.079633
1.54899
3.68582
0.177487
1.11283
0.130381
3.34034
0.895834
0.288136
0.314018
0.144328
0.107758
0.0974359
0.866769
0.759705
0.103838
0.333583
1.47753
3.57558
2.07688
1.17637
0.328466
0.125592
2.93218
0.199294
0.129145
0.104036
0.214343
1.1221
4.25047
0.196941
1.04015
0.136465
0.935025
3.20311
3.68917
3.90662
3.62098
4.39228
0.266786
0.31832
0.172741
0.850069
1.52374
0.111972
0.859481
0.0918323
3.13274
0.131749
1.38267
3.91496
3.80433
0.15982
1.28539
0.538514
4.07804