/*--------------------------------*- C++ -*----------------------------------*\
  =========                 |
  \\      /  F ield         | OpenFOAM: The Open Source CFD Toolbox
   \\    /   O peration     | Website:  https://openfoam.org
    \\  /    A nd           | Version:  10
     \\/     M anipulation  |
\*---------------------------------------------------------------------------*/
FoamFile
{
    format      ascii;
    class       volScalarField;
    location    "1700";
    object      nut;
}
// * * * * * * * * * * * * * * * * * * * * * * * * * * * * * * * * * * * * * //

dimensions      [0 2 -1 0 0 0 0];

internalField   nonuniform List<scalar> 
10435
(
0.520393
0.473194
0.564043
0.511842
0.511454
0.567154
0.564498
0.637972
0.76497
0.578449
0.492585
0.536633
0.59024
0.708615
0.654986
0.577101
0.766233
0.606155
0.836661
0.521313
0.603262
0.542991
0.560752
0.72609
0.559908
1.1939
1.18401
0.574196
1.10031
0.591223
0.534888
0.496056
0.671084
1.08416
0.639348
0.417772
0.598066
1.19247
1.13623
0.805444
0.597148
0.563548
0.751574
0.499952
0.563008
0.765103
0.58104
0.905287
0.789169
0.57856
0.625266
0.530155
1.10173
1.14213
1.15268
1.06863
0.621761
1.16079
0.906221
0.684733
1.11956
0.458479
1.13214
0.519931
0.559339
0.564206
0.96892
1.03032
0.612937
0.702669
1.14885
1.21804
0.639469
0.556404
0.609401
0.581471
0.668369
0.569917
0.705325
0.645907
0.598605
0.560714
1.06571
1.13525
0.615206
0.416812
0.450831
0.479866
0.476892
0.455414
0.487564
0.491939
0.55472
0.45891
0.463412
0.396694
0.499666
0.558345
0.842849
0.498505
0.515997
0.528402
0.451714
0.472003
0.536932
0.505968
0.554212
0.587609
0.638439
0.615012
0.56736
0.521462
0.572639
0.590839
0.494831
0.534499
0.503035
0.426043
0.476121
0.514093
0.50914
0.484502
0.439462
0.344857
0.509453
1.15055
0.507591
0.400418
0.503326
1.295
0.352303
0.506792
0.60154
0.68575
1.22207
0.929703
0.390815
0.519093
0.465791
0.529336
0.524631
0.542467
1.01781
0.51913
0.54999
0.518987
0.361362
0.535302
0.727086
0.529699
0.966386
0.571428
0.485582
0.527344
0.548789
1.06706
0.512017
0.453457
0.562527
0.497517
0.540381
0.732435
0.48974
0.573807
0.575755
0.506041
0.685759
0.535715
0.592877
0.512136
0.550277
0.729696
1.09088
0.491818
0.550834
0.486553
0.439637
0.862714
0.560961
1.10545
0.485038
0.554565
0.528784
1.11661
0.544787
0.78991
0.619996
0.578306
0.515522
0.521251
0.517807
1.03113
1.27787
0.42187
0.515726
0.594459
0.668605
0.416402
0.871713
0.583974
0.524498
1.1226
0.581136
1.12845
0.571135
0.498028
0.485481
0.528158
1.10621
0.558742
0.929336
0.559
0.515207
0.565952
1.14321
0.660257
0.552485
1.00086
1.20347
0.784967
1.10999
0.85949
1.03262
0.421858
1.15022
0.615513
1.16284
0.432806
0.529209
0.490904
0.939005
0.648689
1.17994
0.57576
1.28883
0.823752
0.642737
1.19461
0.633094
0.539736
0.494298
1.12585
0.947575
1.09829
0.49403
0.726972
0.382932
0.607592
0.914357
0.471182
1.00825
0.507954
0.591072
0.568228
0.590981
0.512103
0.866178
0.580012
0.998119
1.04357
0.571765
0.538104
1.16399
0.620701
0.534769
0.917951
0.488999
0.545635
1.05273
0.500228
0.567183
0.642635
0.607624
0.565805
1.23565
0.520038
1.24734
0.506674
0.582996
0.667142
0.581885
0.764468
0.566187
0.465179
0.493657
0.974603
0.523436
1.14221
1.12688
1.09646
0.382708
0.501883
1.08853
0.62484
1.1494
1.13909
0.581994
0.524462
0.504083
0.546247
0.961468
0.621572
0.567214
0.972283
0.501099
0.602911
0.790424
0.580456
0.553326
1.11711
0.555933
1.14413
0.449572
0.528959
0.71981
1.10432
1.08514
0.527844
1.00203
0.539186
0.54441
1.11749
0.48629
0.996735
0.69565
0.578806
1.2796
0.570281
0.98106
1.2202
0.732223
1.06195
1.10709
0.564794
0.546615
1.11463
1.06814
0.965908
1.07714
1.05553
1.29702
1.1506
1.08749
1.09777
1.06225
1.05733
1.07927
1.31466
0.962658
0.729776
1.09424
0.570748
1.16804
0.575144
0.725694
0.806902
0.590363
0.552085
1.12413
1.11019
1.00588
1.17364
1.03901
1.01304
1.11377
1.29781
1.07193
0.555803
1.26724
0.756564
1.16287
1.30691
0.592592
0.834247
0.933734
1.20501
1.16533
1.24673
1.12004
1.22191
1.42935
1.14623
0.681665
1.05306
0.626337
0.753055
0.581326
0.587298
0.778998
0.569619
0.677625
0.418628
0.82837
1.11203
1.11805
0.56633
1.12517
0.593314
1.39249
1.10979
1.30362
1.07379
1.04399
0.567783
1.21196
0.651716
0.58536
0.88206
1.25206
1.32978
0.832739
1.36761
1.2655
1.09333
1.05046
1.00117
1.09324
0.56732
1.13929
1.22706
1.09434
1.0427
0.598578
0.834424
0.897513
0.855637
1.10072
5.79598
5.81715
5.81206
5.79933
5.79532
5.81806
5.89544
6.06922
6.40672
5.17307
5.19214
5.19878
5.20042
5.20924
5.24069
5.31703
5.4694
5.73889
4.56411
4.58058
4.59234
4.60172
4.61729
4.65157
4.72215
4.85247
5.07121
3.97859
3.99246
4.00563
4.01824
4.03626
4.06947
4.13165
4.2406
4.41727
3.42888
3.44032
3.45283
3.46584
3.48353
3.5133
3.56579
3.65442
3.79541
2.92746
2.93671
2.94754
2.95936
2.97513
3.00042
3.04299
3.11256
3.2208
2.48477
2.49225
2.50095
2.51079
2.52395
2.54454
2.57807
2.63105
2.71069
2.10794
2.11355
2.11977
2.12727
2.13773
2.15415
2.1803
2.22034
2.27824
1.79931
1.80216
1.80558
1.81067
1.81869
1.83174
1.85233
1.88316
1.92664
1.55491
1.55428
1.55492
1.55788
1.56393
1.57444
1.591
1.61534
1.64912
1.36559
1.36211
1.36078
1.36225
1.36693
1.37559
1.38919
1.40877
1.43527
1.22033
1.21649
1.21464
1.21548
1.2193
1.22661
1.23799
1.25402
1.27522
1.1114
1.10946
1.10831
1.10909
1.11235
1.11855
1.12811
1.14137
1.15854
1.03487
1.03491
1.0346
1.03534
1.03796
1.04298
1.05081
1.06168
1.07565
0.986922
0.98743
0.987172
0.987375
0.988959
0.992538
0.998497
1.00703
1.01817
0.962272
0.961541
0.960276
0.959249
0.959306
0.961058
0.964884
0.970925
0.979103
0.954354
0.951766
0.948781
0.945947
0.944009
0.943564
0.94499
0.948404
0.953625
0.957539
0.953377
0.948422
0.94341
0.939101
0.936121
0.934885
0.935551
0.937998
0.968336
0.962947
0.955966
0.948524
0.941529
0.935691
0.931494
0.929173
0.928699
0.984717
0.978233
0.969121
0.959002
0.949008
0.939978
0.932488
0.926856
0.923094
1.0056
0.997852
0.986315
0.973181
0.959839
0.947258
0.936115
0.926858
0.919704
1.0306
1.021
1.00645
0.989829
0.972737
0.956218
0.94101
0.927671
0.916621
1.06014
1.04725
1.02867
1.00795
0.986686
0.965864
0.946178
0.928222
0.912598
1.09569
1.07615
1.05202
1.02659
1.00082
0.975453
0.950977
0.927871
0.906879
1.14042
1.10638
1.07519
1.04483
1.01444
0.98457
0.955264
0.926524
0.89898
3.56077
3.64522
3.73417
3.82708
3.92368
4.02344
4.12596
4.23063
4.33706
4.44462
4.55288
4.66141
4.76964
4.87727
4.98368
5.08845
5.19108
5.29101
5.38768
5.48058
5.56899
5.65227
5.72973
5.80057
5.86405
5.91941
5.9668
6.00615
6.03726
6.05981
6.07475
6.08267
6.08414
6.08017
6.07187
6.06061
6.04789
6.03527
6.02451
6.01742
6.01577
6.0214
6.03571
6.05984
6.09442
6.1393
6.19339
6.25476
6.32006
6.38518
6.44499
6.4939
6.52665
6.53813
6.52477
6.48414
6.41579
6.32055
6.20217
3.53127
3.61668
3.70606
3.79914
3.89559
3.99503
4.09705
4.20122
4.30707
4.41416
4.52202
4.63021
4.73825
4.84571
4.95209
5.05691
5.15966
5.25979
5.35673
5.44987
5.5386
5.62226
5.70019
5.77172
5.83617
5.89289
5.94141
5.98149
6.01317
6.03676
6.05279
6.06178
6.06439
6.06149
6.05413
6.04359
6.03131
6.0189
6.00809
6.00071
5.99859
6.00346
6.01688
6.04003
6.07356
6.11742
6.17061
6.23113
6.29585
6.3606
6.4204
6.46982
6.50338
6.51609
6.50401
6.46464
6.39717
6.30236
6.18337
3.48297
3.56576
3.65263
3.74334
3.83759
3.93503
4.03524
4.13782
4.24233
4.34832
4.45535
4.56295
4.67067
4.77804
4.88456
4.98974
5.09303
5.19388
5.29169
5.38583
5.47566
5.56049
5.63965
5.71244
5.77817
5.83626
5.88628
5.92799
5.96135
5.98658
6.00408
6.0144
6.0182
6.01634
6.00984
5.99994
5.98804
5.97574
5.96475
5.95689
5.954
5.95787
5.97008
5.99189
6.02406
6.06662
6.11874
6.17854
6.24304
6.30823
6.36922
6.42062
6.45696
6.47324
6.46544
6.43087
6.36854
6.27898
6.16519
3.40813
3.48789
3.57183
3.65975
3.75137
3.84639
3.94443
4.0451
4.14801
4.25272
4.3588
4.46579
4.57322
4.68062
4.78747
4.89326
4.99741
5.09934
5.19842
5.29399
5.38535
5.47182
5.55268
5.62723
5.6948
5.75482
5.80684
5.85061
5.88606
5.91333
5.93276
5.94484
5.95023
5.94976
5.94444
5.93548
5.92425
5.91234
5.90144
5.89339
5.89005
5.89324
5.90461
5.9255
5.95677
5.99859
6.05026
6.11007
6.17518
6.24172
6.3049
6.35935
6.3996
6.42053
6.41792
6.38889
6.33221
6.24821
6.13969
3.31153
3.38785
3.4685
3.55332
3.64208
3.73451
3.83028
3.92903
4.03037
4.13391
4.2392
4.34579
4.45322
4.56097
4.66852
4.77531
4.88075
4.9842
5.08501
5.18248
5.27589
5.36451
5.4476
5.52446
5.59441
5.6569
5.71149
5.7579
5.79601
5.82592
5.84788
5.86235
5.86995
5.87148
5.86794
5.8605
5.85055
5.83963
5.82948
5.82193
5.81889
5.82222
5.83366
5.85465
5.88615
5.92846
5.98104
6.04229
6.10952
6.17892
6.24576
6.30463
6.34995
6.37644
6.37971
6.35664
6.30578
6.22728
6.12378
3.19612
3.26858
3.34562
3.42712
3.5129
3.60271
3.69626
3.79321
3.8932
3.99584
4.10068
4.20727
4.31511
4.42369
4.53244
4.64076
4.74804
4.85359
4.95671
5.05668
5.15274
5.24413
5.3301
5.40993
5.48293
5.54857
5.60639
5.65609
5.69754
5.73076
5.75598
5.7736
5.78423
5.78863
5.78777
5.78283
5.77515
5.76629
5.75801
5.75218
5.75074
5.75563
5.76869
5.79147
5.82506
5.86991
5.92559
5.99064
6.06241
6.13713
6.20997
6.2754
6.32763
6.36114
6.37126
6.35465
6.30965
6.23627
6.13707
3.06616
3.1344
3.20758
3.2856
3.36835
3.45561
3.5471
3.64252
3.74152
3.84369
3.94858
4.05572
4.16459
4.27462
4.38523
4.49578
4.60559
4.71396
4.82013
4.92334
5.02281
5.11774
5.20739
5.29099
5.36788
5.4375
5.4994
5.55326
5.59893
5.63641
5.66589
5.68775
5.70257
5.7111
5.7143
5.71332
5.70952
5.70445
5.69992
5.69781
5.70016
5.709
5.72627
5.7537
5.79254
5.84338
5.9059
5.9787
6.05911
6.14323
6.22601
6.3016
6.3638
6.40668
6.42518
6.41567
6.37631
6.30704
6.21053
2.92606
2.98967
3.05871
3.13316
3.21291
3.29779
3.38754
3.48186
3.58039
3.68273
3.78838
3.89682
4.00749
4.11978
4.23306
4.34666
4.45988
4.57195
4.68207
4.78942
4.89321
4.99262
5.08691
5.17532
5.25712
5.33179
5.39888
5.45809
5.50922
5.55227
5.58747
5.61514
5.63588
5.65044
5.65974
5.66504
5.66767
5.66912
5.67133
5.67622
5.68594
5.70267
5.72852
5.76548
5.81503
5.87787
5.95378
6.04122
6.13737
6.23806
6.33779
6.43004
6.50779
6.56429
6.59378
6.59218
6.55749
6.48985
6.39232
2.78308
2.84156
2.90618
2.97701
3.05394
3.13678
3.22525
3.31893
3.41763
3.52106
3.62841
3.73912
3.85252
3.96793
4.08479
4.2023
4.31986
4.43668
4.55172
4.6642
4.77335
4.87833
4.97848
5.07301
5.16101
5.24212
5.31586
5.38201
5.44037
5.49101
5.53424
5.57034
5.59971
5.62321
5.64176
5.6571
5.67056
5.68293
5.69668
5.71394
5.73714
5.76861
5.8106
5.86581
5.93621
6.02237
6.12402
6.23849
6.36259
6.49261
6.62295
6.74562
6.85125
6.93113
6.97787
6.98575
6.95235
6.87863
6.76926
1.23465
1.19528
1.166
1.14046
1.11647
1.09363
1.07251
1.05431
1.04071
1.03391
1.03667
1.05178
1.0818
1.12895
1.1955
1.28454
1.39889
1.54032
1.70949
1.90634
2.13063
2.38234
2.66208
2.9716
3.31463
1.17315
1.16816
1.15267
1.13305
1.11169
1.08996
1.06921
1.051
1.03721
1.03012
1.03232
1.04652
1.07547
1.12184
1.18836
1.27778
1.39246
1.53399
1.70304
1.89962
2.12349
2.37468
2.65394
2.96336
3.30713
1.15169
1.14972
1.1389
1.12262
1.10321
1.08244
1.06201
1.04371
1.02958
1.02192
1.02328
1.03641
1.06418
1.10956
1.17546
1.26452
1.37883
1.51971
1.68766
1.88256
2.10403
2.35195
2.62687
2.93051
3.26615
1.1392
1.13614
1.12632
1.11135
1.09292
1.07266
1.05232
1.03377
1.0191
1.01063
1.01093
1.02279
1.0492
1.09325
1.15792
1.2458
1.35877
1.49787
1.66335
1.85485
2.07179
2.31382
2.58131
2.87566
3.19967
1.1286
1.12448
1.11469
1.10013
1.08204
1.06187
1.0413
1.02223
1.00675
0.997212
0.996201
1.00656
1.03135
1.07371
1.13664
1.22261
1.33333
1.46958
1.6313
1.81785
2.0284
2.26241
2.52007
2.80262
3.11266
1.11804
1.11336
1.10358
1.08918
1.07114
1.05076
1.0297
1.00982
0.993269
0.982399
0.979838
0.988473
1.0114
1.05177
1.11252
1.19602
1.30376
1.43626
1.59314
1.77345
1.97608
2.20027
2.44606
2.71456
3.00827
1.10682
1.10232
1.09297
1.07885
1.06075
1.03997
1.01815
0.99722
0.979339
0.9669
0.962575
0.969292
0.990162
1.02831
1.0866
1.16724
1.27153
1.39968
1.55098
1.72412
1.9177
2.13068
2.36287
2.61531
2.89054
1.09388
1.09131
1.08324
1.06966
1.05147
1.03009
1.00728
0.985071
0.965661
0.951461
0.945207
0.949872
0.968565
1.00437
1.06007
1.13771
1.23834
1.3619
1.50732
1.67292
1.85688
2.05778
2.27509
2.50975
2.76419
1.07999
1.08131
1.07539
1.06247
1.04402
1.02179
0.997743
0.97409
0.953049
0.93698
0.928721
0.93129
0.947777
0.981262
1.03445
1.1092
1.20635
1.32554
1.46535
1.62368
1.79831
1.98728
2.1894
2.40569
2.63714
0.592992
0.592269
0.394453
0.598356
1.05538
0.930267
3.98068
1.45283
0.379464
5.15324
0.269907
0.614292
1.07462
0.61131
3.99515
3.42764
0.315106
0.59813
7.36178
1.56365
3.01881
4.77417
0.306787
0.485512
0.663218
1.72674
0.721136
0.776067
0.515364
0.304578
4.83743
2.03275
0.53886
1.44027
0.300492
1.87234
1.66643
3.98683
1.6044
1.00678
0.405826
0.167086
3.52626
0.837154
0.728088
5.70411
0.292116
0.323993
0.463797
0.593031
0.284775
0.38986
2.78346
0.597032
3.87712
0.386071
0.618567
3.10907
0.614977
0.355911
1.90686
0.405241
1.00219
4.2515
1.55765
0.946502
1.32672
0.276317
1.00622
0.539928
0.398005
5.1917
1.05173
1.73343
0.559681
3.07242
2.21693
0.346515
0.608289
0.591586
1.54764
2.00778
1.97915
0.252005
1.35999
1.73392
1.32985
0.352678
0.533019
0.895071
0.624063
1.04577
6.50056
0.617846
0.994319
0.272862
1.66616
0.269966
0.363063
0.358031
0.801949
0.413892
0.814001
5.45756
0.621929
0.959519
0.317934
1.70622
0.180756
0.307855
4.47256
0.365776
0.340593
5.48896
2.91869
0.468974
0.460021
1.08089
1.87064
0.270896
0.0858336
0.378773
0.46885
0.642669
0.526297
3.30519
0.393347
1.87361
0.746791
0.324915
1.81742
1.78485
0.52709
1.64752
0.912838
1.24977
0.68934
0.760308
2.32761
1.46683
5.72308
1.45813
0.354083
0.113294
0.497482
3.64417
0.593875
2.58743
3.36143
0.297968
1.70586
1.1706
0.595314
4.42391
0.476355
0.252403
0.778185
1.09316
2.64933
2.04626
3.65134
0.38861
3.62005
0.275089
5.09477
0.263686
0.630852
0.67543
4.08459
0.754685
0.604862
4.46105
0.275955
0.256993
1.29003
0.947664
2.86275
0.527342
0.410135
5.65796
2.37801
1.93292
2.59113
2.89107
1.04955
0.770405
0.268117
0.177344
0.586498
3.03746
0.336169
0.356839
0.527922
1.36294
4.33673
0.577072
0.553687
4.67192
0.484794
0.551011
0.891246
4.81611
1.97426
3.00671
2.08854
3.24288
1.23887
0.795719
0.471282
1.2157
0.621829
0.528121
2.14128
2.05568
1.41232
0.388001
0.792104
1.1817
5.45812
0.901264
0.671272
0.195605
0.445111
0.424765
0.404073
0.439841
0.799348
0.318622
0.177227
1.05466
0.248168
1.97396
1.74129
0.99484
1.59461
4.40381
3.01675
0.71428
2.87503
4.60758
3.14554
1.80398
4.71047
0.953071
1.11711
1.69884
2.25641
0.832867
3.43089
3.67007
0.167047
0.976241
1.94244
0.477403
0.942169
0.667284
0.328084
2.32369
2.74837
7.18046
0.257203
0.776649
2.75632
0.487665
1.87155
0.61067
3.80597
0.583971
3.98489
0.718363
2.89982
0.525951
0.436753
1.05458
7.57088
0.581803
1.13968
0.357409
0.643485
0.356243
0.966501
1.60476
0.257307
5.69948
0.406137
2.49141
0.967525
0.513338
0.304594
0.333517
4.5752
3.77149
0.102398
0.30526
1.00597
0.396375
0.404269
1.12755
1.96321
0.384354
0.360694
3.7984
0.639324
3.04695
0.4191
4.52506
2.98034
1.66292
1.46138
2.18595
5.2734
6.1313
0.564051
0.717444
0.381682
1.19196
0.305791
1.87987
0.709705
1.03641
2.66058
3.01258
0.573244
4.89178
1.37031
0.651506
0.462242
1.78285
1.15846
3.0532
5.1045
4.28659
0.642419
4.97642
0.365702
1.76183
2.40807
2.13184
0.10649
0.258676
0.506324
0.641201
0.370082
6.17795
1.93344
0.764088
0.778951
0.964095
1.11288
0.276185
0.517864
6.35956
0.147058
2.80626
0.30953
0.376572
0.810963
0.799625
4.51549
0.279976
0.479312
0.29234
2.86207
0.443853
0.173449
1.16919
4.0713
0.319205
2.71902
0.594649
5.88099
4.35904
0.530044
0.430344
1.08902
0.494579
0.321618
5.9162
1.61288
4.35428
0.411718
4.17089
0.528373
0.828477
0.803908
0.924475
5.27947
1.58774
0.272274
0.335389
3.33201
3.35975
0.886428
0.526113
2.55156
6.25397
4.40489
0.54284
1.08425
0.51602
1.48367
3.66594
1.28593
0.605741
0.644538
0.110585
3.92668
0.871935
0.651268
3.10555
0.529411
2.67016
0.382223
2.26452
2.64612
0.214621
0.447251
0.276886
1.15853
1.04906
5.26771
1.68716
0.86014
0.811652
4.23663
0.348912
0.0757564
0.629867
2.00139
2.17595
2.94545
0.681543
0.90858
0.603464
4.44541
3.99326
4.53142
0.0842826
1.04753
0.186048
2.30735
4.59288
0.316099
0.707705
0.986146
0.477861
0.741813
0.498328
0.621013
0.607934
0.432728
3.48304
3.52508
0.390747
6.14687
0.546632
0.274419
1.95213
0.575431
2.09757
3.8784
1.06771
0.529338
2.08857
0.355386
1.2576
0.673201
0.41822
2.42288
0.277231
0.863845
1.10481
0.293111
0.166866
0.684166
1.27026
0.941885
0.844361
2.67591
2.72023
1.59242
2.01073
0.13295
0.626778
0.250911
1.19588
2.28254
5.18053
0.562901
5.49843
4.23698
3.58948
0.344765
0.530762
2.64435
0.641018
4.16811
2.62875
5.68547
0.591017
3.62991
4.48691
2.52769
0.898478
2.79712
1.62238
2.94181
3.06286
3.98849
2.06801
4.77752
1.74744
1.29419
0.950007
0.662983
0.318489
0.43505
0.43869
0.448009
2.8534
6.8155
0.334609
1.54826
0.561207
1.31608
5.46507
0.35057
0.439519
2.96867
4.69478
0.937673
5.57335
0.563616
0.449276
0.258172
0.658138
3.70301
0.408304
0.481852
3.69486
1.05256
0.307685
4.68834
0.329004
0.194193
0.430041
3.02641
0.63749
2.69475
0.352025
1.83599
2.24251
0.753031
0.479648
0.444644
0.312955
0.45923
6.30891
1.29118
0.461614
1.83
1.8227
3.76419
1.17257
0.300767
6.00487
2.78813
0.625118
2.13812
0.267437
0.550498
5.44667
3.3706
0.663687
0.898888
0.343021
0.284976
0.462887
0.675625
0.272407
1.55099
2.57742
4.74638
6.75509
1.47097
0.542728
4.65599
0.895014
0.77142
4.78777
0.924381
1.38621
4.20494
4.14465
6.13192
0.618167
1.33413
0.434973
1.12655
2.06031
0.370603
0.761239
0.200445
0.605065
1.91334
1.00048
2.42667
2.23863
0.487475
3.24624
3.74983
1.81371
1.72484
4.04529
0.913859
2.92822
0.856259
0.799921
0.44146
4.56713
1.217
2.98479
6.31327
1.31655
0.646239
0.359964
0.292362
0.767847
0.552104
0.622742
0.671908
1.00819
0.417374
3.69212
0.273494
2.89039
0.784534
0.411069
1.08554
3.84391
2.70415
0.608323
0.930126
4.54143
0.964158
1.60931
0.514504
0.668135
0.361885
4.20479
2.86529
0.300325
5.47809
0.126858
5.48505
2.49388
0.286549
7.28244
2.6846
2.86423
0.451191
0.575781
0.264249
0.0934716
1.08029
1.30901
0.438704
0.493335
0.947648
2.74811
0.641136
7.4517
1.24323
0.360715
0.161537
2.50355
1.94259
1.8493
5.84854
3.49458
0.422267
2.8645
0.522483
1.99533
3.56801
0.624341
5.78725
0.501079
0.342613
2.15236
3.90414
1.04335
0.277529
1.5424
6.25962
3.68539
1.4344
0.713831
2.49749
4.95272
0.613533
0.260676
1.08399
5.24354
5.47531
0.343512
4.00873
1.32682
0.330931
4.2014
0.57097
0.298722
7.58548
0.819965
1.20035
0.12265
3.44565
0.94723
3.41758
1.92965
1.21337
7.02358
2.46468
0.583123
3.62315
1.6311
1.63635
1.17498
1.8929
0.423756
7.26434
0.412014
3.84992
0.525042
2.68792
0.427106
0.301595
0.567099
0.96301
3.2632
0.119614
0.251508
3.36418
0.915382
0.595898
6.40405
2.47805
0.694319
0.836674
1.61158
2.47307
0.286281
0.448115
2.29351
4.05576
4.18383
2.20824
0.427833
0.0497839
3.50038
0.687253
0.159858
0.601802
0.647034
0.300271
4.27389
0.660761
4.28693
0.252471
0.140935
0.989495
0.934658
0.7757
1.9148
3.47575
0.333432
3.22073
0.836692
3.76481
3.31242
0.32155
0.984631
0.36481
4.07151
4.8098
0.50899
4.38274
1.54488
1.32412
6.61193
5.87748
2.82931
1.32928
0.181879
5.52279
0.279787
0.455077
2.85589
2.2899
2.76853
0.988267
3.58854
0.462927
1.95737
0.678554
6.07835
0.305675
0.301155
1.38743
0.681556
0.58001
0.392348
1.64607
1.64539
0.584126
0.973103
0.427046
0.520758
5.56647
1.63652
0.363978
0.552181
0.585078
4.89168
1.94933
0.365061
2.77952
1.8372
3.73866
1.13847
0.640405
2.88987
0.342208
0.313997
0.608065
7.36998
3.01524
0.508971
7.15253
2.84084
0.310757
2.80544
1.67693
0.374564
0.951851
5.14211
6.32473
5.4568
1.01538
2.86929
0.358492
1.4702
2.65899
3.28134
3.57678
1.5045
0.42177
0.274344
0.970433
4.11762
0.0723749
0.594216
0.629597
0.247257
1.3473
1.86543
3.72104
0.0628374
3.44108
3.18915
0.559704
0.539964
2.58498
0.358787
0.345634
0.287974
7.01191
0.562758
3.09514
5.95864
3.86047
2.02183
0.62067
1.98508
2.52181
0.899731
2.61638
0.453817
0.244399
0.370215
0.573455
0.680886
3.03402
3.88802
0.550743
0.868239
6.59297
0.579342
0.329627
0.299474
1.05942
2.79325
0.60438
1.31901
0.815341
2.96925
0.418905
1.3576
0.395561
1.23704
0.51752
3.79632
2.8701
0.583634
0.108697
0.671107
6.55512
0.386721
0.677571
0.425967
0.479618
5.14571
0.779085
2.77023
0.838034
0.59684
3.16799
2.95812
2.86153
2.6806
0.313942
2.85394
0.280196
0.196802
0.392623
5.81842
3.12108
6.97134
1.74665
1.30476
0.448244
0.460067
0.758136
2.87016
1.90445
0.763638
4.52812
2.20134
0.898544
1.5311
0.467232
0.327367
0.274442
4.53767
3.29054
4.53841
1.87626
0.46821
1.08847
0.776299
3.18504
3.99332
0.656225
0.766267
1.83231
5.27569
0.632713
0.991625
2.9674
1.24161
0.469724
0.399306
1.55502
0.457525
3.70476
0.423136
2.59007
0.377837
0.499112
0.907018
0.676781
0.35917
3.60869
0.286875
1.22137
0.705666
0.471645
4.09034
0.30334
0.532427
3.94662
4.12683
0.472144
0.428127
2.87535
1.96104
0.299291
3.53801
0.385078
2.66808
0.264843
0.310371
0.388294
0.281676
2.73293
0.489981
1.35627
1.31158
1.11109
3.00353
4.1087
0.242313
6.62524
1.91329
2.05834
6.391
0.395106
0.447448
3.81985
0.327924
4.09271
3.33126
4.07786
0.954903
0.286958
0.305403
6.18237
1.42455
0.319306
4.46538
0.662113
0.453101
0.343654
0.826734
1.73918
0.794205
3.23026
0.389483
4.90013
6.80428
0.972579
4.37949
1.30048
0.396013
0.338204
0.598672
2.63821
1.79485
4.57264
0.480462
0.905784
2.17308
3.38453
0.545524
0.288677
0.282789
2.3304
2.50244
0.921961
0.436276
5.12222
0.432783
0.763562
0.269009
0.538429
0.596114
0.923943
0.774746
5.68819
5.14466
0.184782
0.564989
7.46955
0.570578
1.66571
1.76297
1.2591
3.68162
2.70181
0.380776
1.59927
2.8429
1.26097
4.22673
0.490611
0.259151
2.69987
1.03679
5.3447
0.42794
0.587115
0.932436
0.358558
1.6178
6.88484
1.75427
2.34147
1.99099
4.54761
2.66515
1.23115
0.186696
0.61431
2.76247
0.472499
2.81127
7.0249
0.896924
2.67685
0.447564
0.42687
4.50019
6.63964
2.54218
1.50234
0.623085
0.522465
0.541323
0.165286
5.39954
0.469301
0.890392
0.603972
0.649487
0.22052
0.603365
0.398515
0.130119
1.89652
0.632906
5.80333
0.294191
2.21536
2.99271
3.44663
2.44955
6.01297
1.66642
2.8896
1.31607
0.312765
0.533198
0.455187
0.60477
0.909548
0.599951
2.12997
0.425635
2.62135
1.71158
0.237216
0.219789
0.887181
3.53839
2.34181
0.294511
0.504511
0.592781
0.909867
4.52843
0.666501
0.507276
0.295471
0.281635
0.283591
0.318776
0.273423
0.743506
1.06991
0.616544
0.256045
0.713112
3.04391
0.457262
5.96539
0.362967
1.46797
3.41227
0.432567
3.56203
0.907784
0.672271
2.65959
1.50727
0.856961
6.22203
0.737219
0.715071
0.48932
5.92223
0.394111
0.335331
3.22323
0.728298
0.480022
0.544635
0.402353
0.331453
1.71588
3.70059
0.525693
0.411931
1.57113
2.76938
3.94377
4.47051
2.1251
5.92248
3.31913
2.06185
1.19762
6.71177
4.53716
0.602277
1.86289
0.49868
0.18654
1.85882
1.99023
2.90885
0.904569
5.05232
0.233558
0.285284
5.91821
0.344984
0.573445
5.40937
2.97429
0.430001
0.870098
2.52539
0.420881
1.91137
3.49877
5.62513
4.13771
3.13389
2.86437
0.533999
5.6797
0.641444
0.582501
2.17938
0.109574
2.72817
0.535761
1.51241
0.559521
0.709608
1.19414
0.422443
0.364926
0.302786
0.427592
4.73653
0.373386
0.529031
7.34579
1.09375
3.9703
0.341718
1.83724
0.89284
3.74104
3.97798
0.528319
0.416371
0.417217
5.03042
1.52292
6.92604
0.433405
2.02388
0.626752
3.02625
1.74604
0.335661
1.40564
1.41447
3.07587
0.468359
0.362237
4.68572
0.750683
3.9161
0.915309
2.42265
4.3147
5.00378
2.76771
0.45716
6.50005
0.983836
0.616582
0.598253
0.985206
0.851912
0.417566
6.71288
3.01786
0.448985
6.06612
1.11651
3.09699
2.83018
3.64834
0.816212
0.339455
0.648849
2.71442
0.369446
1.67705
5.04572
0.950283
4.51615
2.91174
0.112442
3.07445
0.533509
2.14853
0.535072
0.425304
2.98302
1.09837
4.33966
0.564088
0.999486
5.77925
3.50455
0.382936
0.40851
4.9073
5.75123
0.605256
0.472191
0.837222
5.12316
1.08851
1.05905
0.349489
2.28571
0.829595
0.924652
0.506108
0.867918
0.792582
0.958761
1.40594
2.77056
0.422127
2.27706
0.889555
3.83868
0.486692
1.56438
2.48276
0.885972
0.867907
0.503173
0.263061
0.4995
0.453463
0.270038
4.97091
3.31304
1.42022
1.59689
0.489366
0.760366
0.748795
4.61023
4.89946
4.02637
0.429991
0.402023
6.56751
4.90614
0.323626
5.141
0.584836
0.439186
0.394027
0.366249
2.01797
0.476113
5.31295
1.38286
1.1577
0.41481
0.498284
0.486669
1.93575
0.633755
1.10026
2.27769
1.22038
1.96985
1.10486
0.468205
0.440442
7.13047
0.620825
2.64118
0.403422
3.09234
0.453647
0.598652
0.358591
5.41443
1.97293
1.79541
5.57126
5.75499
1.83099
7.02176
0.527868
0.492492
5.83913
0.864273
1.41366
0.375839
0.51925
0.320507
1.23522
0.66455
1.16713
0.886745
1.66121
0.576219
0.476908
0.922172
6.10961
0.70819
4.73455
0.974206
4.79166
1.10428
6.21494
1.38857
0.84473
2.58555
5.7537
0.452386
3.44779
3.84725
0.245784
0.678169
2.53407
0.456213
0.519968
3.42875
0.478848
6.25581
2.83464
5.30108
5.11186
2.32435
1.40059
0.419465
0.968139
4.59572
0.507981
0.522232
2.77349
5.12525
2.72588
5.14622
4.34483
0.176894
3.41969
0.506654
2.07983
6.76303
5.18125
0.567795
2.48824
0.456646
0.538074
0.153907
0.480151
5.00204
0.509583
0.444866
0.428781
7.51481
0.0304106
2.64886
0.769843
5.06992
0.518184
3.77236
0.314589
0.767915
1.04685
0.394136
6.38303
0.511441
1.01106
4.6108
3.09011
0.352128
4.87546
1.46606
6.07093
3.74414
5.37994
2.53901
0.501617
0.414347
4.65658
5.39216
0.429668
4.38025
4.68795
0.463809
0.76735
1.0897
1.3076
1.06819
5.94479
2.8909
1.11682
0.0028149
0.649167
5.61546
0.35262
2.45844
1.41856
0.906593
0.873427
2.78046
0.34403
1.79401
0.373962
0.234664
0.113747
2.57165
5.49514
4.65919
0.46449
3.55729
0.489158
0.473585
1.59132
5.51007
0.292952
0.969191
0.39918
0.819088
0.920988
0.498704
0.939474
2.88408
3.9598
1.14703
0.657023
5.42164
4.30836
0.618447
5.91134
0.607295
1.02989
0.496847
0.597112
0.450548
4.51447
1.85092
0.365912
6.80333
2.97988
0.363433
2.81316
1.05014
0.60979
3.48028
0.418092
1.48046
1.88027
0.337255
2.71725
0.375955
2.01277
0.614967
0.853064
0.488793
0.641361
0.396155
3.33492
2.85997
0.697988
0.413785
1.99911
0.713738
0.846079
3.95139
0.726492
2.70897
0.627145
5.7893
2.6927
0.361755
1.33908
0.874964
0.482272
0.595055
3.42588
0.347762
6.14674
0.265056
3.18552
2.58975
4.6013
0.590554
3.52959
4.78185
0.236894
0.937883
0.975358
0.74643
0.211707
0.540212
2.86149
2.85957
2.46111
1.2359
2.61841
1.64734
4.78085
3.62171
4.57874
0.406383
0.64939
0.531347
4.50729
2.16391
0.369365
5.04857
0.310249
3.4035
0.309977
4.4004
0.564409
0.79244
0.264496
0.849287
2.36294
1.48476
0.877741
0.625224
4.4495
2.84846
0.677977
0.569711
2.88523
2.27731
0.589337
1.41182
1.46796
0.291996
0.760788
1.72099
3.42971
5.39305
0.394774
3.65098
0.513737
0.943414
0.701041
3.68751
2.948
0.361109
0.432182
0.982701
3.34611
0.785103
2.97255
1.20838
0.670653
0.383756
3.08861
2.13385
2.86023
4.30089
0.6275
0.495537
0.635104
4.73365
2.1385
1.10957
0.435954
5.82812
4.45531
0.203813
0.729276
0.600115
1.38946
0.396074
1.84878
1.31644
0.430417
2.85136
0.750839
1.22247
3.03988
3.71641
0.465826
0.408305
0.385487
1.8448
5.30998
7.44937
0.349719
0.421485
0.573389
0.122989
3.54278
4.36038
3.07975
0.98895
0.408539
2.51898
0.341089
0.669764
1.00229
0.585041
5.6193
4.68584
0.885947
0.607745
2.19888
1.34953
0.948292
6.06123
1.83442
0.882545
3.06298
2.5106
3.03204
5.69105
5.81163
2.23842
0.169326
4.25426
2.44674
2.86757
1.20569
0.972926
0.406262
0.558402
1.40392
0.585444
0.872467
0.324534
1.48959
2.77253
0.213558
7.02323
0.118613
4.40539
6.06575
0.352048
4.9424
0.986098
0.365026
2.52326
3.57513
2.79524
3.29843
0.564044
0.536384
1.12751
0.424504
3.66404
3.00307
0.0506747
0.606659
1.0606
0.669597
3.13541
0.42427
0.892977
3.11431
0.269349
0.311035
0.849529
0.466469
0.312052
0.561075
0.353666
0.407956
0.447809
0.704758
2.25783
0.254889
0.563837
5.38044
0.454837
0.60944
4.50485
1.79746
2.46612
0.539639
4.69812
3.96551
1.0109
4.81831
0.370015
4.99128
0.600434
2.79631
6.71734
0.329384
2.72156
0.915138
0.856267
0.369291
5.82201
4.59955
0.420657
4.94304
0.458082
3.9095
3.2248
1.02951
1.75785
0.190799
5.00335
2.32719
1.17976
4.97562
0.872192
0.538887
1.23107
1.88209
0.688892
0.605701
0.401246
0.600086
0.667173
1.93048
0.618008
1.0561
1.0576
0.886845
0.565094
2.94774
3.36918
3.59813
3.47414
0.791705
2.5203
1.43416
0.595164
5.96045
5.80822
0.642932
0.705598
2.50992
3.37651
0.0526978
4.09206
6.15766
2.85898
2.5703
2.63806
3.16787
0.902524
1.01396
4.70177
3.65644
0.420398
0.555613
0.422515
2.15505
0.0823869
1.06259
3.61206
1.49967
4.27072
0.355491
5.8061
0.258626
2.57099
0.24914
0.905526
1.34972
3.10298
2.8643
0.607738
2.6311
0.488754
0.242512
0.176011
0.621671
0.27709
3.557
2.79255
0.552609
0.424796
4.73427
3.2456
3.07961
2.37711
1.02197
0.374835
0.270681
2.8503
3.15011
6.01485
3.58201
5.54529
0.467145
0.105159
0.20151
2.86569
2.51718
0.707517
0.97772
0.370241
0.895036
0.186326
4.81548
0.320728
2.30569
0.862428
0.696815
4.55608
0.387831
0.62422
2.96555
2.17786
0.401616
2.50629
0.609773
0.673691
3.22029
0.752083
0.928626
1.84964
1.68066
4.32215
0.798345
3.41942
0.510353
0.947027
2.13826
1.29195
6.50181
0.297747
0.642023
2.46303
1.39507
4.50921
1.6734
0.408264
4.85206
2.92233
6.27244
2.75074
0.366864
0.375361
0.522626
0.381301
0.572618
0.636574
0.418281
0.650203
2.76694
4.4383
1.11023
2.84118
1.04433
0.282701
4.66747
3.41028
0.472472
0.364853
0.600564
3.49309
0.764568
0.547992
0.396287
0.635596
0.575846
1.41734
5.89753
1.44054
3.844
0.774042
0.0700701
3.22712
0.988066
0.853758
0.922667
4.32412
6.04332
2.87562
0.461552
0.765591
3.65912
1.6432
1.34739
1.75616
0.413949
2.70639
0.465482
2.9602
2.9997
4.90064
0.401594
0.779238
2.84771
3.35335
0.389347
0.843342
0.686972
2.04248
0.135169
0.20008
0.713278
0.576724
3.13987
5.95062
0.409324
4.01592
2.66476
0.272913
2.31224
3.5904
3.68812
0.631158
4.59498
6.40084
0.261196
7.14519
2.42988
3.22182
0.262744
3.16974
5.37083
3.94319
1.21152
6.75499
2.6314
0.710705
3.168
5.77786
0.446675
4.39621
0.411136
3.82225
0.47543
2.83841
0.3489
0.522342
7.28537
0.601775
3.75601
2.9967
1.73883
0.620231
0.380431
0.735787
2.43104
0.279214
0.27537
2.9357
0.456547
1.11487
0.263188
0.596743
0.467747
1.12543
5.12786
1.32186
1.19366
1.72638
1.38449
0.564646
3.39042
0.94115
0.339402
0.353504
2.74433
0.599301
0.618725
0.212618
1.88572
0.588608
0.632342
4.63747
0.769439
1.20542
4.21386
0.425159
3.67369
0.51816
1.00231
0.371629
0.470118
0.565549
0.574896
0.36564
1.41048
0.0931684
4.47301
0.273389
2.67099
0.406373
1.33834
1.09183
0.658598
6.90171
2.70185
4.38035
2.85281