/*--------------------------------*- C++ -*----------------------------------*\
  =========                 |
  \\      /  F ield         | OpenFOAM: The Open Source CFD Toolbox
   \\    /   O peration     | Website:  https://openfoam.org
    \\  /    A nd           | Version:  10
     \\/     M anipulation  |
\*---------------------------------------------------------------------------*/
FoamFile
{
    format      ascii;
    class       volScalarField;
    location    "1700";
    object      p;
}
// * * * * * * * * * * * * * * * * * * * * * * * * * * * * * * * * * * * * * //

dimensions      [0 2 -2 0 0 0 0];

internalField   nonuniform List<scalar> 
10435
(
-0.00157001
-2.83276
-12.5041
-4.4104
-10.2077
-13.1333
-12.4668
-12.6753
-12.9917
-12.0531
-5.19454
-8.48301
-11.9161
2.68896
2.53973
-12.3114
2.7477
-11.8679
-13.0245
-0.652988
-12.4284
-3.81446
-12.0973
-10.2995
-12.7313
2.67305
2.64138
-12.0475
2.11884
-12.7732
-11.9725
-6.31698
-12.8576
2.50128
-11.9577
0.239375
-11.8042
1.54709
3.09074
-11.6895
-13.578
-11.8414
3.14183
-2.5662
-11.7705
-11.4008
-12.7608
2.86197
-13.0957
-3.68513
-12.5661
-12.1129
2.66225
1.85792
3.35448
1.85685
-11.3149
2.33284
2.63964
-11.5588
2.8036
-1.73729
2.50478
-11.3943
-12.0649
-12.3155
2.59487
2.5751
-12.6181
-9.44065
2.45613
2.10076
3.5359
-12.1572
2.27947
3.13842
-8.20662
-12.4639
-13.1952
2.28944
-5.53579
0.592095
2.78772
2.20753
-6.47432
1.00377
0.380837
-3.02171
2.08362
-0.390598
-4.01273
-5.12582
0.012538
1.55836
-1.21027
1.06343
-6.05746
2.51936
2.95144
-7.66581
1.92716
-11.8485
1.03858
-2.08688
-12.1777
-3.4781
-0.60958
-4.55099
-7.51017
1.99194
-2.85102
-11.0287
1.13741
1.55076
-6.71132
-2.94517
-8.27408
0.270644
-3.54565
-7.45531
-8.55632
3.44519
-0.584549
2.60203
-8.18706
2.75206
-6.75564
3.29512
-9.42027
1.70919
3.09348
-6.9388
-12.3735
2.50966
2.24985
3.32704
1.33532
-5.24478
-2.4977
-2.12417
-1.36522
-11.8926
2.72116
-10.7183
-4.65088
2.90052
2.13349
-12.1471
2.88005
-10.0345
2.76204
-11.2916
-0.195959
-10.7008
-12.4084
2.73915
-9.28968
-1.5036
-12.4039
-4.36928
-11.1612
2.6702
-5.77908
-7.30897
2.03816
-9.80426
-12.7351
-6.86956
-9.20183
-10.8523
-12.0503
2.82874
1.70567
2.6228
-9.75935
-3.05728
-0.712598
2.77826
-2.02108
2.50213
-3.98938
-12.4642
-9.58205
2.60398
-11.2885
3.27164
2.68238
-12.4251
-11.2447
-11.3471
-8.79945
2.86304
2.59214
0.421036
-10.2634
-12.5199
3.11089
1.61817
2.87198
-12.0895
2.29298
3.1022
-12.0297
2.4713
-12.2269
-7.86435
-4.69677
-6.06992
2.32554
-5.52942
3.12786
-12.5464
-9.62157
-8.18241
2.89317
2.79791
1.54267
2.92866
1.24585
2.76842
2.40635
2.55971
2.77873
2.52821
2.47745
-12.2118
1.47802
2.11367
-11.8417
2.96474
2.76765
-12.4334
1.40146
-10.895
1.77157
2.84802
-10.9315
1.92282
-10.0775
-12.1393
-1.73071
2.74403
2.90867
1.84375
-7.12055
-13.1363
1.81866
-12.653
0.19845
-1.81548
-0.0709447
1.54807
-12.4196
-6.41121
-12.6473
-10.826
-0.768332
-12.549
2.69999
2.57697
-12.0877
-12.2692
2.22006
-8.24169
1.15103
3.01944
-0.937406
-11.9464
3.08705
-8.59076
-12.2341
-13.1491
-12.6247
-11.7069
1.05364
-8.03324
2.47567
-9.50519
-12.1994
-13.3577
-12.7158
2.79107
-12.2308
2.11236
1.10164
3.22488
-11.4128
1.75356
2.2906
2.20462
2.53155
-5.688
2.17279
-13.0328
2.049
-0.958408
2.93223
0.606843
-8.51542
-12.3963
2.75027
-9.29733
-12.1008
-0.0737773
-7.58336
2.65815
3.08979
-10.3009
-12.4362
2.3403
-1.30244
2.18063
-0.660792
-12.1735
-12.3043
-1.07393
2.97997
-11.2454
2.67457
-7.65446
-12.785
1.72709
0.499809
3.0176
-13.4451
-12.3378
0.54705
-11.9476
2.78931
2.28167
-12.1969
2.24103
2.35336
-12.377
-10.3759
2.40742
2.13478
1.3887
2.61829
1.61993
-0.0619067
2.70713
2.99224
-0.029011
-0.800154
2.14529
2.48036
3.25513
3.1237
-13.3178
2.47844
-12.8138
-0.0969795
-11.8634
-13.9564
-14.4377
-11.8143
-11.95
1.85648
2.41876
1.45681
3.04602
1.69314
2.71792
1.97934
-0.412813
2.33001
-9.10427
2.52354
-13.3022
2.98442
-0.748325
-11.4585
-14.8196
3.1447
-1.57131
1.80277
2.16311
2.37732
2.40669
-2.65211
1.97643
-13.1615
2.58619
-12.7861
-14.1808
-11.7193
-11.6455
-14.3996
-11.965
-12.1615
2.90766
2.91036
2.18345
2.63748
-12.4449
2.23611
-12.4056
-1.06748
2.20759
-2.08613
2.81994
2.59432
-12.7128
1.56908
-12.927
-9.86343
3.05133
2.32943
0.068665
-12.5302
-0.0781319
2.52379
2.25289
1.73793
2.84752
2.48738
-12.2469
0.160736
1.9056
2.12806
2.94394
-12.7149
3.12202
3.367
-13.5931
2.61936
18.4738
9.77773
12.1584
10.0547
10.7491
10.0182
10.0743
9.85628
9.16223
15.9065
8.66454
10.5549
9.12689
9.54604
9.09397
9.10944
8.94303
8.81153
13.4864
7.51718
9.23286
8.32561
8.58654
8.31898
8.3088
8.19111
8.05003
11.6127
6.75987
8.15329
7.5786
7.7662
7.61961
7.61594
7.55174
7.44182
9.92588
6.22532
7.26179
6.93174
7.07759
7.0155
7.03237
7.02245
6.94344
8.42814
5.8534
6.54522
6.39887
6.51638
6.51176
6.54698
6.56939
6.54584
7.20628
5.67257
5.99563
5.97626
6.07063
6.10534
6.15778
6.20828
6.23376
6.27987
5.59281
5.57987
5.64329
5.72025
5.78074
5.84548
5.91573
5.91198
5.57675
5.39941
5.23692
5.37024
5.44311
5.52145
5.59489
5.67029
5.72336
4.99801
5.05031
4.94384
5.14163
5.22222
5.31297
5.39348
5.47499
5.53546
4.57062
4.73077
4.73056
4.96044
5.04806
5.14343
5.22732
5.31055
5.39567
4.39124
4.59037
4.62812
4.83016
4.9121
5.00081
5.07934
5.15175
5.26733
4.35169
4.58688
4.60237
4.73725
4.80384
4.8804
4.95374
5.03129
5.11098
4.28661
4.61495
4.59709
4.65927
4.70771
4.76878
4.83317
4.90603
4.95795
4.2324
4.63265
4.58547
4.58129
4.61398
4.66151
4.71996
4.78844
4.85426
4.17543
4.59306
4.54283
4.48978
4.51275
4.5499
4.60242
4.66305
4.73499
4.02143
4.42477
4.43303
4.37189
4.39704
4.43004
4.47866
4.53038
4.61674
3.83063
4.16491
4.27339
4.23224
4.26846
4.30431
4.35525
4.41147
4.50053
3.69079
3.92163
4.10205
4.0833
4.12993
4.16878
4.21861
4.27373
4.33589
3.58129
3.72567
3.93291
3.93306
3.98611
4.02735
4.07502
4.12728
4.18532
3.43627
3.56141
3.76461
3.78555
3.84102
3.88467
3.93215
3.98867
4.03299
3.2145
3.43821
3.59565
3.64091
3.69274
3.73492
3.77773
3.83122
3.80682
2.87281
3.41569
3.44683
3.51606
3.55923
3.59659
3.63479
3.67844
3.63456
2.46968
3.45218
3.24554
3.32938
3.36516
3.4028
3.45477
3.50508
3.44466
2.33238
3.74925
3.41227
3.48479
3.4839
3.44759
3.47524
3.51844
3.05451
13.2814
13.5548
14.0643
14.62
15.2224
15.8783
16.5732
17.306
18.0681
18.8459
19.6306
20.411
21.1695
21.9012
22.5951
23.2354
23.819
24.3355
24.774
25.1307
25.4072
25.647
25.8895
26.0091
25.7541
25.3937
25.3908
25.8298
26.4831
27.0125
27.5286
28.0387
28.277
28.3434
28.3396
28.2531
28.085
27.8684
27.6073
27.3257
27.0319
26.7339
26.43
26.1259
25.8211
25.4975
25.158
24.798
24.3977
23.9685
23.5137
23.0402
22.5663
22.0967
21.6223
21.1667
20.7205
20.2888
20.0442
4.20023
3.99448
3.91471
3.82636
3.72428
3.61203
3.51279
3.43904
3.39247
3.37592
3.39165
3.44032
3.52137
3.63313
3.77396
3.94238
4.13737
4.36054
4.6165
4.91314
5.26347
5.68577
6.19584
6.79576
7.5272
8.16462
8.43302
8.3569
7.89488
7.3105
6.87867
6.57564
6.34503
6.1656
6.03
5.92042
5.82643
5.74318
5.66708
5.59686
5.53204
5.47318
5.42286
5.38455
5.36309
5.36589
5.40021
5.47467
5.60326
5.75623
5.89712
6.07112
6.32155
6.6331
7.00012
7.40042
7.78582
8.17236
8.73247
8.01192
8.24072
8.45299
8.68199
8.92271
9.17554
9.44019
9.71598
10.0018
10.2958
10.5965
10.9017
11.2096
11.5172
11.8232
12.1261
12.4248
12.7194
13.0115
13.3024
13.595
13.8909
14.1878
14.472
14.7272
14.9146
15.0448
15.1267
15.1427
15.0838
15.0142
14.9434
14.8637
14.7813
14.7
14.6202
14.5419
14.466
14.3932
14.3243
14.2605
14.2017
14.1495
14.1037
14.0649
14.0333
14.0088
13.9898
13.9762
13.9643
13.9538
13.9402
13.8979
13.8259
13.7418
13.6477
13.5422
13.4451
13.3159
5.29152
5.25851
5.29591
5.33652
5.38471
5.44409
5.51558
5.60118
5.70256
5.82132
5.95912
6.11719
6.29596
6.49588
6.71633
6.95636
7.21459
7.48882
7.77723
8.07699
8.38517
8.69726
9.00694
9.30447
9.57636
9.80159
9.96304
10.0542
10.0763
10.0425
9.97497
9.88465
9.77739
9.65788
9.52887
9.39262
9.2508
9.10565
8.96051
8.8189
8.68525
8.56378
8.45956
8.37675
8.31989
8.29194
8.29499
8.32974
8.39486
8.48782
8.60496
8.74098
8.89721
9.07505
9.25245
9.4247
9.59791
9.77951
10.0061
6.39793
6.52687
6.6685
6.82011
6.98019
7.14814
7.3229
7.50396
7.69059
7.88186
8.07742
8.27682
8.47924
8.68481
8.89283
9.10315
9.31543
9.52871
9.74286
9.9568
10.1691
10.3774
10.5779
10.7664
10.9364
11.0824
11.1993
11.2856
11.3405
11.3663
11.3693
11.3531
11.322
11.2801
11.2294
11.1742
11.1163
11.0568
11.0007
10.95
10.9072
10.8747
10.8545
10.8479
10.856
10.8782
10.9139
10.961
11.0164
11.0769
11.1385
11.1946
11.2573
11.3167
11.3518
11.3745
11.3916
11.4203
11.4288
5.44141
5.46074
5.52295
5.59344
5.67349
5.76491
5.86832
5.98409
6.1128
6.25415
6.4094
6.57822
6.76078
6.95651
7.16427
7.38266
7.61003
7.84165
8.07791
8.3158
8.55304
8.78438
9.00531
9.21319
9.39782
9.55882
9.68851
9.78846
9.85681
9.89447
9.9068
9.89207
9.85694
9.80628
9.73724
9.6599
9.57325
9.47294
9.37331
9.27521
9.1836
9.10257
9.03592
8.98744
8.96149
8.95617
8.97491
9.01496
9.07562
9.15504
9.2506
9.3576
9.47238
9.59193
9.71266
9.83171
9.94747
10.0755
10.2161
5.63953
5.70699
5.79917
5.90193
6.01376
6.13518
6.26426
6.40248
6.54902
6.70122
6.86034
7.02499
7.1969
7.37433
7.55574
7.74134
7.934
8.12073
8.31172
8.50054
8.6909
8.87365
9.04657
9.21708
9.36074
9.49529
9.60205
9.69451
9.76577
9.81321
9.84974
9.8561
9.84802
9.83573
9.7968
9.76378
9.72605
9.6599
9.61313
9.5668
9.52818
9.49909
9.48091
9.47647
9.49531
9.52179
9.57101
9.63093
9.7041
9.78694
9.8754
9.96632
10.0547
10.1391
10.2188
10.2911
10.3551
10.4311
10.496
5.38318
5.39477
5.43644
5.49632
5.55921
5.64422
5.72939
5.84739
5.97197
6.07637
6.21901
6.36242
6.52528
6.70515
6.88735
7.09131
7.31085
7.46882
7.65401
7.84471
8.05451
8.24471
8.41501
8.61586
8.74108
8.88648
8.97409
9.06854
9.1413
9.18874
9.24679
9.23974
9.23261
9.24752
9.17725
9.17723
9.20062
9.05888
8.98465
8.90885
8.84608
8.79205
8.74723
8.71641
8.76991
8.77151
8.85342
8.90462
8.9477
9.01754
9.11816
9.24854
9.36261
9.47995
9.60724
9.74294
9.87096
10.0311
10.1523
5.17513
5.2487
5.29853
5.40081
5.4944
5.61693
5.70529
5.7798
5.91928
6.13402
6.19053
6.33561
6.52688
6.66666
6.8734
6.95284
7.17966
7.34898
7.54378
7.67375
7.86713
8.01391
8.15381
8.34691
8.42825
8.56998
8.6282
8.72131
8.83925
8.79957
8.96082
8.95004
8.88957
8.95603
8.87097
8.93578
8.82764
8.65673
8.76364
8.7038
8.66838
8.67348
8.61018
8.60214
8.62825
8.60037
8.63598
8.63781
8.79005
8.90326
8.97732
9.05565
9.15129
9.30364
9.44423
9.53935
9.65012
9.5184
9.7259
-1.06496
-1.20675
-1.05024
-0.801938
-0.438513
0.00906079
0.425768
0.815053
1.19016
1.49108
1.75721
2.05439
2.3199
2.57327
2.96275
3.49224
4.05739
4.65458
5.336
6.13289
7.05422
8.11873
9.38239
10.9702
12.3814
2.85622
2.9158
2.84613
2.72924
2.63086
2.66291
2.79632
2.97304
3.14165
3.20519
3.1298
2.98957
2.85791
2.7831
2.83826
3.00441
3.13981
3.21386
3.32581
3.5224
3.7782
4.06803
4.3859
4.75587
4.9827
1.98441
2.01151
2.05516
2.10083
2.178
2.31049
2.47163
2.63192
2.7684
2.8418
2.85247
2.83299
2.81145
2.81633
2.8917
3.04153
3.23058
3.4538
3.73537
4.0899
4.51998
5.02964
5.62651
6.31976
7.1664
2.31111
2.31338
2.36346
2.4067
2.46589
2.54764
2.64458
2.74218
2.82807
2.88703
2.91797
2.93367
2.94904
2.97855
3.03867
3.13366
3.25664
3.40865
3.59872
3.83163
4.1057
4.41401
4.7441
5.06675
5.40302
2.34837
2.34341
2.39207
2.43959
2.50356
2.57911
2.66336
2.7451
2.81828
2.87562
2.91688
2.94929
2.98227
3.02478
3.08767
3.17719
3.29558
3.44718
3.63857
3.87408
4.15772
4.49242
4.88368
5.32948
5.90548
2.42773
2.42955
2.47815
2.52119
2.58105
2.645
2.71689
2.78468
2.84776
2.90161
2.94508
2.98325
3.02293
3.06855
3.12805
3.20722
3.31031
3.44209
3.60709
3.80676
4.04384
4.31634
4.6203
4.93941
5.32903
2.52098
2.48426
2.5393
2.57457
2.63247
2.68742
2.75412
2.81334
2.87134
2.92381
2.96705
3.00671
3.04983
3.09628
3.1539
3.22841
3.32448
3.44779
3.60271
3.78887
4.01346
4.2742
4.57777
4.9194
5.35861
2.6077
2.52213
2.59512
2.6211
2.68088
2.72748
2.79436
2.84554
2.89898
2.95057
2.99063
3.02807
3.07453
3.12082
3.17579
3.24606
3.33524
3.44894
3.59061
3.75779
3.9663
4.20344
4.5026
4.8399
5.23454
2.59631
2.54486
2.65733
2.66523
2.72609
2.75016
2.82325
2.86079
2.9262
2.97675
3.01792
3.0481
3.09046
3.13088
3.18405
3.2478
3.32873
3.4333
3.58778
3.74805
3.93454
4.1704
4.41331
4.54207
4.77866
-14.0999
-13.1305
-1.16028
7.62511
3.31278
3.2412
-2.25125
4.04565
-2.77211
8.207
-12.0855
4.31628
-16.2842
2.49784
-7.33908
5.89228
-9.28673
7.48127
8.36237
-17.5909
-17.4785
6.62583
-11.8235
6.75396
3.98967
5.36877
3.95257
2.75095
-11.7919
-10.8819
7.58707
6.43387
-13.8968
-12.5259
-11.1774
3.73852
-3.48209
-6.90604
-5.58447
7.12109
-12.6465
7.32356
6.10427
2.71783
4.35948
7.96851
-11.8169
-10.4227
-11.0235
-13.5841
-11.8112
-12.2832
-16.5857
7.69399
-2.14153
-2.51733
2.46546
-17.4638
3.0999
-9.63739
3.93512
-0.301555
3.33374
5.94649
3.98338
2.80006
5.92203
6.39447
-14.8924
-12.5947
-3.07635
7.07146
3.45261
-16.0202
3.62578
-18.0835
-14.3917
-11.74
2.8523
8.09662
-12.4357
4.13208
4.44026
-9.43822
3.50714
3.96874
3.37044
-11.9192
-13.9906
4.93329
5.53902
5.21268
8.39923
4.37616
3.33975
-11.9415
5.22732
-11.5236
7.15417
-9.73061
3.00059
-13.1375
2.99375
6.60007
3.17591
3.01949
-11.8788
-13.2805
5.13571
-10.5484
5.8021
4.6756
-11.1407
6.61002
-17.0318
-10.921
-13.1783
7.39523
-15.8461
4.79383
5.82852
4.59606
7.07676
4.12068
-13.7772
6.11253
-12.4593
-17.7801
2.4926
-10.6812
4.67439
-16.147
-12.1103
-9.62839
2.64999
3.40719
4.35829
3.12258
4.34862
-16.8576
5.77302
-4.15869
-10.2505
5.88253
-11.3864
5.40415
6.18675
-15.2478
4.5319
-11.3821
0.892876
2.01496
5.85126
-7.77859
4.04205
-10.3766
3.3604
7.3438
-12.3747
8.21471
6.56485
-3.18666
5.05972
-11.5501
7.57904
-9.33801
2.41447
3.74217
6.82672
3.38749
2.50223
6.09164
6.07644
-9.59289
5.47969
2.81787
-12.656
-12.0096
-10.4429
7.4082
-10.9379
6.90073
-16.1867
-10.355
3.17384
8.21113
-9.66265
5.08142
-14.1095
5.06907
-10.2996
-10.4545
-6.02941
-3.01418
-7.59107
-13.9101
3.64898
6.54284
-11.0593
-11.6508
-15.1239
6.51352
4.309
4.80772
1.18694
7.80055
6.2167
3.05725
-11.5335
7.38334
3.18503
4.50903
-10.9371
1.07946
0.691327
-12.3176
3.22896
8.46304
8.73132
4.18337
2.9574
7.40871
4.15215
0.373651
9.18382
-13.0016
5.61771
-9.03005
5.11502
3.41376
-10.1213
3.8975
6.6882
4.74773
-4.97631
7.86105
-11.8397
2.79025
-10.5399
-6.94228
7.01173
3.80031
7.60916
2.80372
3.45861
3.76051
6.02278
3.08884
5.52687
7.79967
5.20981
2.88904
6.6934
-11.5034
5.75729
3.54626
-10.9378
-13.9571
-12.3241
9.72739
5.55149
2.46159
4.59848
3.92408
-15.7723
4.22573
8.3328
5.40279
-2.85516
3.75558
-15.5705
-6.69701
6.89643
8.51879
8.77268
5.1757
6.1546
-4.44927
2.36349
-11.9285
2.96183
0.86481
7.07373
7.72398
-10.1468
4.80277
2.91898
8.75383
-12.2798
-10.2043
-4.62685
5.24503
6.88146
-12.288
-12.1559
-12.4577
-11.8359
5.37266
8.02399
-10.7302
-11.2555
6.32684
8.11626
4.94798
-11.5259
7.98485
-17.8537
6.00206
-17.1626
4.31536
6.52196
7.64826
-13.9993
2.61635
6.83841
-2.74597
-11.8078
6.76225
4.0111
-9.49404
-12.697
5.21502
8.13935
7.60042
3.57795
4.25683
-13.4195
-13.2021
5.5589
-16.8199
7.40254
-7.72661
2.97313
7.97509
-12.2979
3.9077
4.17237
4.68355
5.11031
5.99634
4.52947
4.21395
-10.5624
7.00345
-15.6838
3.25791
3.16309
7.07132
3.55146
-10.5406
-0.887413
8.45873
6.25374
-12.3978
-12.3107
9.19537
-8.44062
2.38554
7.53334
-9.48558
-11.6859
-11.8414
8.28307
-13.2426
7.48898
3.42296
6.06383
-12.2093
4.38283
-13.8404
8.0442
-8.15965
-11.7759
-8.04524
-15.1441
4.43113
4.56481
7.95532
8.34278
7.66257
-11.7377
5.24181
-13.5878
2.58331
2.64643
-10.5655
7.75156
-17.53
-12.3789
-10.095
-0.190764
8.0996
3.91157
-11.9842
-10.6481
8.83912
7.72213
-13.6812
7.54807
-11.421
3.95637
6.14041
3.41134
-13.5537
4.1084
8.27835
-3.32834
3.89443
0.804533
6.6402
-10.7253
4.25184
-10.5107
4.17201
5.18888
9.13854
-10.8551
-10.3569
8.18956
5.36946
7.20374
8.1037
4.85711
2.92507
7.14275
-11.4616
5.16211
7.70766
6.04116
6.41691
4.16294
3.52948
4.67652
2.90287
-3.25696
6.33155
5.39931
6.83943
7.00116
8.96048
8.15298
-6.91463
-12.5515
1.66413
-14.9957
3.83672
2.87493
-6.57119
3.14597
2.82916
-8.13439
6.91528
4.83794
-10.7455
8.07957
-12.6184
-9.24654
4.24756
5.58315
-16.0605
5.01036
2.41091
-10.8633
-11.2606
-11.5033
3.58843
3.24236
0.510636
8.15947
-11.9301
2.8995
3.5312
-11.7087
9.03938
4.15484
-13.6492
4.5592
3.44
-14.791
-14.9366
0.573524
-6.45003
7.85678
4.22718
-9.99281
3.44276
4.15035
7.63779
-12.9655
6.61848
-8.93303
5.47721
4.45563
-11.8807
4.3274
3.15946
-8.24804
4.2122
8.38022
-13.8711
6.23099
-4.06957
4.51342
2.79487
-13.206
-12.2205
5.37188
5.00853
-3.1983
5.57257
6.85149
-11.6813
5.61751
4.80421
8.26178
-12.2196
-11.8678
-10.6232
4.38918
0.195972
8.10637
-10.5311
-17.5269
6.36132
-12.4173
7.89586
-11.626
-13.2943
7.72893
6.91024
2.91324
6.56229
4.11505
-4.46782
4.77288
1.25904
5.35517
-10.8748
-11.1075
5.25799
-10.3338
-10.5551
5.8514
-12.1008
6.24082
1.28962
4.96483
2.94511
4.23435
-4.89913
-5.05736
-6.79356
2.51936
-11.4312
-10.7564
-11.6761
4.05209
7.98156
-15.605
-12.0719
5.66816
-10.4148
5.24139
-14.2832
-10.7628
8.50517
0.374532
3.02771
6.67156
4.75536
-14.0927
8.28589
-7.68871
3.25693
3.25057
-10.9205
-10.6597
-11.8542
2.9203
4.81853
-15.8634
-17.1697
6.27655
8.09845
4.20913
-13.6003
6.62432
3.2426
-5.01812
7.54391
3.24424
3.43496
5.9552
-9.12974
7.99569
3.00729
-13.1247
-10.9789
3.3112
7.04903
-10.4631
2.79044
7.61539
7.96593
-17.2888
5.97856
4.47199
6.75576
8.97411
6.80588
6.60025
-5.45378
3.87259
6.77598
2.98682
-16.212
8.61416
3.15153
2.01755
6.23452
3.67159
4.91016
7.73348
1.84689
3.81009
-9.87206
-9.60801
2.72521
-13.4206
3.51598
3.65528
3.4779
8.05011
5.58192
4.81786
-15.2907
5.33186
4.28039
2.09229
-10.218
0.158876
2.60376
2.80593
6.29725
3.34472
8.20658
5.34014
1.51498
-10.055
-8.8803
-12.3448
8.58111
8.12924
6.1548
8.16016
6.82841
-10.6801
10.5418
-17.7481
7.62073
-11.8118
8.47487
-11.7861
5.99197
3.54977
4.1879
-12.8031
-6.67722
2.75035
-17.0216
3.75608
8.96796
3.60925
-11.173
7.73258
5.04967
-9.2085
3.81535
8.03561
7.60805
7.00297
-15.6815
8.12481
4.59312
8.3477
2.54892
7.80087
-11.184
-12.1947
6.04534
-3.97002
8.1437
-12.0861
4.46527
8.08677
7.64455
5.13975
-4.94008
5.3584
7.02224
3.13983
6.63317
5.64907
7.01857
7.83732
-9.60564
-9.26206
1.06655
-10.9737
-5.60425
-13.0885
-11.2811
9.3837
3.37373
3.59607
8.27346
5.09617
2.4541
5.6891
3.97073
-15.3158
7.47022
6.36683
3.37056
7.23191
5.76842
3.87226
1.19438
-12.6552
-12.5827
8.41123
-11.1279
-1.11397
-12.1181
-17.3419
-12.8806
-12.4881
4.52658
8.49507
5.44914
7.73485
7.15566
4.83762
-12.1867
-12.9035
7.3173
-13.0067
1.66287
8.60576
3.93042
4.39901
-9.40137
1.84302
4.03757
-1.7722
-9.02301
-15.0358
-11.9224
8.28249
8.22807
3.5769
7.87703
-11.8208
0.440144
-12.0221
-8.35827
3.43977
-9.13686
4.99891
8.39962
3.04214
3.22113
3.15116
8.31543
5.54001
3.1014
4.92491
4.74915
6.2866
4.71304
4.72228
7.58265
-11.3595
-5.54418
6.60636
-0.259591
5.81938
-16.4397
3.56732
9.24874
7.17429
-15.0392
0.878221
7.97964
5.61721
-10.9785
1.82098
-13.6968
4.67278
-14.6227
-12.9381
-10.5084
3.50162
-9.31771
2.18978
7.62429
-12.1021
7.10579
3.95343
4.71279
-14.3068
-1.36213
6.39258
3.4729
-13.3221
3.52189
0.892582
-10.0445
7.52915
6.67434
-4.31596
-12.1379
-13.7879
7.91605
8.39027
7.96753
-14.8459
-4.54065
7.1905
3.72715
3.2052
-12.762
8.78213
3.86693
-13.2725
8.85977
4.63006
4.86498
8.41486
-14.2216
4.75253
-15.4573
7.49311
4.39672
-12.8124
6.83053
7.89647
8.01433
2.85469
-15.0883
-11.9964
8.25912
7.83319
4.6013
-8.29622
-16.387
-0.0900876
4.90758
-13.4674
-6.69959
5.251
3.40094
3.10405
-10.2422
7.68645
-14.7499
5.758
5.26182
-10.0197
5.37723
5.97863
2.73207
-15.8941
-11.1365
-9.8406
-9.99164
8.17843
-13.5849
-8.47018
7.45646
-2.32985
3.67551
3.142
-16.2903
4.61635
4.27111
-16.9683
2.15841
8.99729
8.87116
-14.149
2.28417
5.62439
-10.2805
-11.9336
-11.0011
7.60164
4.73358
-10.5646
-11.6268
-11.8621
-14.9531
-13.6285
1.82414
8.13753
-0.0115594
-10.5225
6.48904
6.98096
1.96647
-9.3164
5.84521
-1.02132
-13.3062
6.06911
3.19197
7.91681
-9.95425
-3.47027
-11.4586
-10.9189
7.907
2.7521
0.493982
4.54443
-12.3341
-17.1661
8.04066
4.75701
4.58922
8.54081
-14.2297
-12.1732
4.83092
-10.879
6.77397
-11.7174
7.90916
3.71418
4.12129
-5.14163
-12.0004
2.62826
-15.1481
5.61959
5.81671
-4.48889
6.13913
-8.33304
-9.91951
-10.5989
4.71807
7.09534
-3.86765
5.34929
6.58955
3.97923
-11.1086
5.704
2.93225
-11.7052
-3.85142
3.22894
4.81452
6.111
6.62733
3.20391
6.8416
-15.9962
7.86678
4.65158
-10.6852
-16.8152
-6.08613
5.13734
5.04064
-0.395087
8.78946
-11.0751
3.26014
3.10403
-11.0552
5.2826
4.35785
1.85096
3.65992
-11.4749
7.9199
7.47893
7.7102
-2.42821
-2.2977
-13.1693
4.16827
-13.4489
5.84185
5.80895
5.51714
-10.9126
-10.6083
6.60386
-10.0279
8.76907
-10.7697
4.93357
-11.3164
3.47372
3.74075
6.31415
-1.27354
-6.27839
4.85445
7.79399
-16.2582
8.30193
7.52498
4.28228
7.66189
4.91995
-10.8902
5.98444
5.10487
-9.43324
2.90338
-10.0386
8.56063
6.5574
6.39172
9.18288
6.72946
3.15954
-13.1283
9.09655
2.48553
8.24757
4.45997
-0.0530039
-10.7349
7.26528
7.94744
5.25729
6.60339
8.37306
6.6845
-10.4852
8.02051
-16.7009
5.50606
-4.78994
-11.5993
2.88786
-15.8022
5.51575
-12.474
-11.7805
-10.2275
4.25823
4.58538
2.81546
-11.7359
6.89551
1.20346
6.00351
4.04003
-11.4792
3.07129
7.03017
3.12483
8.35388
7.83794
9.18229
-12.2219
9.50528
-14.3757
7.47258
6.57002
7.83419
7.65814
-15.3476
8.80502
-16.0888
-12.3205
3.51261
6.50943
-11.3628
-11.2728
8.31167
8.19071
7.23967
6.37903
7.96082
2.90861
-11.5704
4.96759
8.72502
-15.0001
4.16588
1.17725
-5.69766
7.57651
3.44379
7.92143
2.96834
-11.4595
2.72218
-13.8075
7.25581
2.94671
6.56856
-13.3485
-13.5458
7.37894
8.70311
-13.0287
7.44111
3.18736
-10.5585
-11.9445
9.01608
8.12081
8.80635
2.73392
-12.8829
3.94521
9.01731
-13.0709
-10.8004
8.38007
7.03513
3.62559
8.91638
4.80632
-15.8486
4.20163
-10.9546
4.33247
7.68764
3.73067
-15.3871
6.48402
-12.3484
-10.9053
-10.3379
-13.0354
-11.9674
7.86406
5.96799
-12.9205
-14.7965
4.43248
7.92571
4.81189
2.96288
6.90028
4.07175
4.67169
-8.79834
3.4288
2.85779
-5.3979
3.11602
4.69776
5.38136
-10.2843
8.53985
-12.473
-11.7528
3.11218
6.90145
4.70993
6.51366
4.7283
-12.7904
2.21009
7.70202
4.43531
6.88411
-10.8174
-13.2698
5.96005
5.18485
3.44709
8.23552
3.48589
2.79142
8.23495
3.09599
2.07463
-11.7032
7.95557
5.65886
-6.7341
4.98369
3.88931
5.79902
3.30283
4.66249
7.2181
-15.8281
5.42076
5.63947
-11.0054
3.43166
-0.335452
-5.80061
7.82702
4.48237
7.64678
-8.45464
5.71242
-13.7303
8.15809
-5.20407
-13.6483
-17.4409
-11.7902
8.94053
3.97415
-15.7806
-12.9369
3.06217
6.68946
8.98133
-12.0219
7.64839
5.58893
8.71194
7.55749
-0.327975
8.83558
3.29396
8.258
-11.6393
-16.3888
7.48444
8.38382
7.20234
6.98681
4.66207
-11.7491
8.2252
1.06303
-14.1488
-16.7107
7.91922
-13.0424
-11.5457
-16.8523
-12.3136
2.15071
-12.1112
-12.5597
-10.34
8.35466
-10.9501
8.41118
-3.60464
8.66228
8.04537
-13.5654
-8.92874
-11.3714
-11.8682
2.91302
6.61266
-2.08852
-12.8471
8.68044
-13.0981
6.78664
-16.9501
8.01887
-11.5181
1.09977
3.19253
4.8661
-17.2551
4.53895
1.81524
-16.6112
7.4944
-11.0734
5.06464
6.67589
-8.10965
-1.70811
5.04604
-15.6161
-7.24566
8.22911
-14.1377
8.39709
7.91578
2.87763
3.45979
-13.1643
-13.3621
8.53137
-13.6153
7.10455
-16.4089
8.47372
7.58948
6.50899
-17.1843
-0.674924
-10.6907
5.95954
-10.6919
3.92855
-14.2077
-12.7646
0.964393
7.12122
-12.078
6.40012
5.50381
7.58697
-11.792
-13.0469
4.00194
-13.8177
5.41116
4.88822
-2.6387
5.81841
4.48791
-13.9458
7.69095
7.9425
8.99423
4.60967
6.73846
8.47701
-13.7631
-11.9857
4.79301
8.09729
5.27022
-13.0057
-11.6473
4.20592
2.39477
2.9996
-14.0416
2.34568
-0.742871
-14.3803
3.8459
-14.8326
-12.8944
4.06149
4.27822
8.09052
8.14734
3.62462
5.77543
3.13188
2.81442
-12.6273
6.34107
-13.4129
4.15886
-12.3714
7.16612
-9.94225
0.964551
-15.6183
-11.6018
3.18606
1.28216
6.16038
6.38543
6.01512
-11.244
-10.8108
7.89853
7.97662
5.14054
6.70963
4.49115
5.19893
-13.0377
-10.6965
-15.8444
-13.311
7.54562
3.6597
-12.5895
7.19856
-11.7262
7.89465
4.05618
3.18211
5.53485
4.19689
5.6688
4.02026
1.28934
-13.1572
-11.8054
8.66601
4.36058
-14.8046
-3.80392
4.75458
-11.3904
-12.8585
-10.3064
6.42646
-16.7368
4.5767
7.70094
7.77521
3.84324
9.17378
-10.8552
-12.289
7.3196
2.91853
-16.6417
5.19856
-12.861
-9.98749
5.74717
2.64296
7.0032
3.00238
-11.8022
3.53592
-11.6999
3.05576
7.546
3.0472
7.6846
2.65916
7.35751
6.01747
7.80576
3.52962
5.12142
-13.9897
7.94615
-9.35253
5.29806
5.66675
7.2195
3.08275
4.81418
-6.13844
-12.6282
5.29875
-12.2965
8.4031
-12.7216
6.94247
7.16906
4.10011
3.62003
-11.24
6.08471
5.95559
-3.89482
-9.83334
6.48166
8.16303
8.06904
6.81388
-3.40706
4.83063
5.14489
-14.1846
4.21314
8.27552
6.02073
-13.5017
5.50821
-12.0261
-12.1264
9.08576
2.64443
6.80232
7.88274
-13.516
5.98589
8.10381
6.96867
-15.6796
3.05398
7.00357
3.90805
-5.68467
-9.68252
3.14392
4.82206
-10.6019
7.99069
-1.21564
-11.9283
6.256
-0.377784
-11.7369
7.84163
-12.1844
7.89004
5.60317
7.61796
4.20622
-8.05357
-10.3754
6.67287
8.19474
-12.3634
6.2318
6.99778
8.23632
2.45028
-3.02894
3.76165
3.39702
8.3757
5.39234
3.56049
5.66469
3.07804
7.60855
-9.93568
-15.1729
3.46915
-12.8996
3.11663
-13.9741
-11.5163
-14.767
-10.5171
9.15138
7.60985
-15.0308
7.21597
7.1528
-11.0719
5.44586
3.80938
-12.0191
-15.6259
6.72486
-10.1194
3.42957
-11.5264
3.20422
8.26617
-4.0969
2.85529
-13.8012
5.75524
8.2299
2.68206
5.70582
-7.58885
1.10835
6.89716
-12.5854
2.79663
-12.3911
3.03828
-13.4441
6.18745
7.78389
4.66783
8.43634
-16.2181
-9.9154
-14.8437
3.35872
-13.519
-10.878
8.82632
-16.763
0.246518
8.3872
-16.2337
-11.1394
6.18142
3.15552
3.2714
-13.2974
4.3282
8.72202
-11.4093
-14.6262
2.65243
-13.0048
-11.706
4.50317
2.94074
-2.74459
3.0808
-15.7208
3.17865
7.85111
4.3177
-10.5887
3.49409
-0.794775
-12.2957
3.91281
-0.664385
-7.54984
7.82971
-11.7883
7.71858
-16.5223
6.63661
4.33111
5.48897
7.90647
4.8742
5.29451
7.69725
3.18892
8.96337
-12.7113
-14.7106
4.81709
-16.9638
3.53212
4.44368
6.19542
6.8573
5.59097
-6.49506
8.75395
-3.52199
-12.7954
-5.42692
-14.5708
8.93503
6.60757
-12.5098
7.25777
3.30864
5.96043
4.34382
4.84685
-10.3999
7.18302
7.88247
3.72009
2.99355
2.91219
-4.72117
-0.0623343
-1.62052
-13.3077
4.75378
4.16043
4.69026
5.82587
3.72161
4.6779
3.00002
4.38761
6.97046
7.01126
8.74396
-1.84206
-12.7526
-11.912
3.09186
7.42687
-1.05834
-10.3347
-11.2086
3.40855
4.83625
2.40706
7.98879
3.85046
3.08532
-10.7379
-0.419763
4.03924
5.22501
5.86118
3.24432
-12.2881
3.75975
6.46406
4.39648
5.57789
-11.5113
8.2982
-7.603
9.16514
3.15928
3.3633
7.66257
-11.354
0.913976
6.33486
-13.0394
-14.3618
1.85621
8.46549
5.66704
-10.5684
-13.624
-13.2066
4.67048
-16.6322
7.86297
9.55749
-10.3465
-11.1144
4.05966
4.92912
-1.40202
-3.90059
7.4133
3.57344
-11.1249
4.2224
9.14136
5.81565
7.20424
4.8109
8.45886
8.05106
7.73713
-12.8627
6.65691
3.67648
3.29189
7.51377
1.46618
3.15738
-16.3726
-0.435038
-0.166137
7.75148
7.30152
6.25868
9.05827
5.93346
4.23999
-14.8486
7.64273
3.19394
8.71286
0.3471
5.38589
3.43673
7.90107
-12.5456
3.68317
-14.2441
6.33612
9.39038
7.33578
6.20411
7.98718
-11.5756
6.74936
3.29926
7.30279
7.07646
-10.7273
4.75367
7.74555
-13.4821
-13.3219
3.77984
-11.4328
8.01911
-12.9391
8.29394
-13.6588
8.48365
-2.74354
4.65947
-11.8912
2.82952
-9.99913
-10.141
-10.6679
2.19136
-13.3301
4.54722
3.64382
4.69226
-11.7538
7.69405
3.31474
-16.4483
-10.9655
-12.2755
7.55391
-13.4038
3.41301
5.99429
3.9467
0.543093
7.95258
-5.36179
6.66875
5.37143
7.94957
8.81311
6.89996
-14.0616
7.83067
8.33114
-11.064
0.244892
3.50159
4.6851
-10.7116
7.11716
7.35433
-12.4271
7.14636
-4.49983
-2.95516
7.27885
2.98029
-17.4904
4.96504
6.86309
8.26779
3.90219
7.18664
5.23742
-13.0622
3.61583
-11.218
2.59838
3.09443
-11.2688
0.851028
2.28124
7.69454
3.70491
5.35965
3.63302
-13.9771
-12.0015
7.9491
6.27623
5.08386
-10.6015
3.13111
-0.810344
3.58111
3.10347
7.41969
8.06531
-1.948
3.10351
-14.1056
-11.8281
8.04935
-8.98637
8.96192
-14.1525
0.551571
4.05473
6.69919
3.12308
6.6308
5.88847
-10.195
-7.5487
-13.429
-11.1742
-16.4907
6.98794
3.67391
-4.03318
3.7446
-2.41141
-12.9795
7.77968
-10.728
-14.8676
-9.96311
7.50712
3.55622
4.76594
7.34525
-13.3005
8.28892
-12.5042
7.66677
8.99003
3.12384
-11.0072
-11.3226
5.03351
8.75059
8.90586
6.87341
6.23081
-0.151515
-15.4599
6.42929
4.38702
-11.8037
7.91212
-12.4579
7.73304
5.06268
7.72495
-11.4701
7.19692
4.95414
7.93264
8.11235
2.7739
5.59949
-11.0376
2.91028
5.02139
6.21355
4.61868
-15.9037
4.30631
3.55954
-6.22879
-11.6308
3.08151
-13.6141
7.80376
-10.8543
-16.4703
7.33103
2.82695
5.98371
5.35927
3.36045
-14.6797
0.367578
7.0267
4.27081
-7.23429
-8.46134
-9.2433
-14.5197
1.68859
8.14318
-11.8743
3.08364
4.23078
4.53873
7.2649
-15.6285
-12.9271
6.30058
-13.8683
7.17198
-15.1777
-3.72021
-10.8215
-13.3499
-10.7184
2.91549
2.83027
8.18221
3.10422
-16.6876
-5.11188
8.5066
-0.0156061
3.43061
-11.7944
7.66398
-3.97905
-7.58011
-10.715
3.08142
-11.6013
2.48947
-13.3969
-11.6153
8.26354
3.51542
6.17667
8.4255
5.38318
-4.6087
8.10138
5.61432
-12.4361
3.39141
2.16053
2.8504
6.27796
8.10623
-13.8501
-13.5166
2.53634
-10.9045
4.6783
7.3551
6.14598
-11.8805
-13.1501
-12.2671
5.64827
7.31823
6.74622
-11.0925
2.5519
0.0691127
5.10079
-12.966
5.50045
2.63677
-16.2488
7.51357
8.97698
3.14193
3.52043
4.82758
8.59773
-5.36215
5.67059
7.5287
-12.1999
5.6851
-10.0242
-10.5971
2.74246
-5.86585
8.21117
-10.5962
8.34752
-10.5658
4.41659
7.22094
8.18515
8.22641
6.61311
1.8146
8.84553
-15.9192
5.88754
7.52228
6.19387
-13.2863
7.25051
7.40163
5.68503
-13.7366
5.00914
-10.2281
-10.588
8.40078
7.89025
-1.95206
-13.1534
-15.5353
-1.69706
8.63298
3.1622
-13.4821
-11.9373
-11.1136
-10.0088
7.45803
6.31371
5.33518
2.84816
8.95018
7.99561
7.09997
3.50968
7.716
-15.6281
6.53477
-14.235
6.9676
5.18734
-7.22624
5.30653
-15.8902
2.96753
3.71916
4.80215
4.7555
8.73572
3.68277
-4.76817
1.41104
5.51011
-2.68546
-13.0952
-10.4125
8.78302
1.39631
-10.9261
-13.4324
-12.6846
-13.093
-10.0871
8.31387
6.61482
5.90605
4.44295
-14.4555
-12.8891
3.41087
8.55757
2.91363
8.41112
-9.94308
5.50197
-14.5648
4.49537
3.51407
5.18227
-11.359
5.44483
-17.3787
-11.4785
2.51668
2.71411
5.19447
8.13394
3.14857
4.26475
-3.86645
7.99101
7.92287
5.20546
7.85713
2.74343
-12.0462
-0.784016
-5.74088
-8.16554
-13.2881
-12.5504
2.97364
6.87104
-10.814
8.81587
4.76598
-16.744
7.82065
7.73154
6.40413
-5.4614
-12.6647
6.12727
7.20041
7.03681
-12.9926
5.54214
-14.695
-13.5249
-16.8738
-14.165