/*--------------------------------*- C++ -*----------------------------------*\
  =========                 |
  \\      /  F ield         | OpenFOAM: The Open Source CFD Toolbox
   \\    /   O peration     | Website:  https://openfoam.org
    \\  /    A nd           | Version:  10
     \\/     M anipulation  |
\*---------------------------------------------------------------------------*/
FoamFile
{
    format      ascii;
    class       surfaceScalarField;
    location    "1700";
    object      phi;
}
// * * * * * * * * * * * * * * * * * * * * * * * * * * * * * * * * * * * * * //

dimensions      [0 3 -1 0 0 0 0];

internalField   nonuniform List<scalar> 
16133
(
3.08283
1.40601
-1.79927
-2.68952
-2.77942
2.77389
-3.08403
3.08956
-0.870884
-3.36375
2.63789
1.59674
0.76509
-1.16578
-5.02269
5.42342
-1.34005
0.525913
5.5196
-4.70545
4.48273
1.49123
-5.86575
-0.108198
-3.79253
1.17353
2.25922
0.359782
-0.039222
-3.86863
0.980388
2.92747
-2.15783
3.32698
2.28468
-3.45383
0.523337
3.66004
0.00900101
-4.19238
3.66989
-3.41156
2.65543
-2.91375
5.11104
-2.28926
2.18981
-5.01156
-0.238807
-3.82547
2.29776
1.76652
1.14352
-0.937468
0.985805
-1.19185
1.3148
1.1715
-1.34278
-1.82854
1.36778
-4.24243
4.7032
-0.983812
0.824227
-0.77789
-4.85045
1.08216
3.52382
0.244471
-5.73564
4.6431
-1.06529
1.24191
3.48819
-1.64726
-0.824638
3.22978
-2.72113
0.315996
0.453162
-4.75932
5.07126
-4.52669
4.49878
-1.80063
7.74275
-6.33112
-0.273178
-1.13845
-4.32183
5.16
-0.314833
-0.00288022
0.00318645
-0.0837777
0.0834713
0.0462233
-0.00498647
-0.0290723
-0.0121645
-0.191495
-2.29911
2.07027
0.420335
-0.0271559
0.050295
-0.0108652
-0.0122738
-3.81086
2.62045
3.51724
-1.0932
-5.42105
2.99701
-2.65337
2.64473
3.67853
1.24783
-3.54726
2.2602
-0.0567946
0.149411
0.0144564
-0.107073
-3.58423
-3.52246
3.61904
3.48765
-1.72672
2.95182
1.97842
-3.20352
-2.83287
-5.3004
4.54904
-0.063116
0.0974522
-0.113354
0.0790179
0.0491959
0.103622
-0.0266026
-0.126216
-5.64176
1.00508
-1.09896
-3.93934
0.137481
-3.75551
-0.907905
-1.22187
-0.55039
0.194736
1.57752
-1.85223
4.48681
1.40837
-4.04294
5.00314
-2.10943
-5.72659
3.25525
-1.15426
0.504081
0.0393095
-0.527699
-0.490419
0.789854
0.228263
2.64756
1.52681
-0.847392
4.8854
-4.51023
0.077992
-1.98034
-2.71293
-5.09694
5.28751
-4.01367
3.8231
0.141625
0.0476179
-0.140047
-0.0227492
0.0361905
0.0382364
-0.0516777
-0.0189659
0.0580413
0.0645466
-0.0131899
-0.0158643
0.00189836
5.05972
-2.62598
-7.73415
-0.0871541
-0.0935465
0.142732
0.0379683
-0.523381
0.821153
-0.705778
0.408006
4.79251
0.0866511
0.0191944
0.0357792
2.81227
-2.34109
-3.2506
0.105214
0.00650735
-0.0139904
-0.0977309
2.38669
-4.639
4.24286
-1.99055
2.34395
-1.8675
-4.12355
2.62587
-1.86607
-0.469913
-0.305489
0.252022
-0.0369064
0.349855
-0.00878642
-0.304161
1.2599
2.95027
-5.532
0.284928
-1.08405
0.0222414
0.0023493
-0.0473399
0.125307
-0.0378777
0.0140203
-0.10145
-1.27319
0.656141
2.20411
-1.58707
2.22044
-3.45293
-2.89106
1.24308
-1.82127
1.893
-1.26634
-1.46149
1.67092
1.05691
-6.4036
1.85051
-0.978911
-2.35518
1.47539
2.05332
-2.29909
2.15232
1.39459
1.61477
-1.40124
1.02955
5.46555
-5.14945
0.106787
-0.422866
2.60088
-2.22623
-1.5005
1.12584
0.0619489
0.139524
-0.153855
0.0464119
0.0454964
-0.0557178
6.10133
0.0113858
-0.647157
-2.91444
2.48918
2.19045
-1.76518
2.80664
-2.43408
-2.63235
2.2598
4.4492
-3.9719
-2.32952
1.60472
-0.731314
1.08562
-1.959
3.17766
-2.60051
2.2295
4.98857
1.78345
-2.3228
6.39161
-2.56881
2.95795
1.04894
2.05281
-2.2147
1.76662
3.59421
-2.41528
1.99873
-3.26961
-1.37155
0.775959
5.33324
0.282444
0.857883
-1.43107
-1.24807
0.880071
-0.620578
0.561662
-4.82107
5.21793
-0.244695
-0.15214
1.9041
-1.77753
4.03656
-4.06191
1.19364
-1.16828
2.10792
-2.31081
1.93313
0.75578
4.13402
-0.853231
1.24758
3.2766
0.923268
-0.0709319
-0.193106
-1.01842
7.9568
-0.837035
1.73949
-1.22811
1.10339
-0.757923
-4.08406
0.331774
-3.91865
-1.48331
-1.94442
-1.43175
1.14994
-1.35201
1.14709
-0.17778
-3.86732
-4.26966
-0.399019
4.93153
0.685437
2.50992
-3.69078
-2.69219
4.05345
-5.15703
0.0277944
4.73024
2.28617
3.1182
-0.472829
0.898571
-0.192228
-1.97269
2.8307
-2.92128
-1.45511
0.893441
3.60984
-3.04815
-3.22128
3.38042
2.39069
-2.54982
-0.0596364
0.137886
0.00846652
-0.0867158
-0.0684736
1.26077
1.99157
-2.35378
6.34303
-5.13167
-0.0732576
0.0582069
-0.0140688
0.0291194
2.52794
-2.72227
-3.03547
-2.83917
-3.33369
-1.16711
0.937375
-0.0162084
0.136612
0.00490333
-0.0629524
0.172459
0.104732
-0.214238
-1.04785
1.21563
-3.43738
0.294938
5.41094
-3.2277
-3.81082
0.949537
-1.48713
1.16451
-4.15214
5.55995
-0.121666
-0.148003
-0.200244
-0.855145
3.04122
-5.97196
3.78588
5.29527
1.42791
-1.40505
1.42731
-1.45017
3.1286
-3.28299
1.0393
-3.74954
-1.27473
0.944288
-0.653374
3.9635
1.98835
-6.80698
-0.656143
0.189247
-0.0608037
-1.91543
-6.43714
3.24547
-2.81523
4.64577
2.35894
4.48601
2.29273
-0.208855
0.0524648
0.347875
-0.191486
3.63831
1.9404
-2.19828
0.797716
-2.53095
3.01419
2.83934
-3.32257
7.16077
1.90624
-3.31606
-5.75096
-1.00834
0.827028
-4.38607
4.462
5.78615
-5.77423
-1.03033
-1.21736
1.88227
4.73859
3.89063
-3.19969
2.50712
-2.85469
-5.29008
0.308374
5.00952
-4.22273
3.33427
-2.49318
3.38165
-4.81939
-5.79155
-0.295445
-3.22867
0.648648
-0.643858
-1.27798
-0.00474558
0.0193212
-0.0139786
-0.000597051
-0.91457
0.911417
5.16976
-5.09051
1.9091
-2.14099
-3.47399
-3.28396
-0.879132
0.825921
-0.0674043
0.120617
-3.68308
0.548557
-0.00553665
0.0978034
-0.0419717
-4.51746
-0.308992
-3.97318
2.27725
0.115173
-0.088158
-1.05615
-1.74677
3.14349
-3.7519
3.09327
3.61998
4.01507
4.05399
-3.22505
0.168813
0.0613822
-0.168246
-0.0805581
-0.00890785
1.55149
-3.53939
1.56271
-1.84304
2.83624
-3.32311
-0.646308
1.04249
-1.18869
-2.79118
0.105458
2.65056
1.77237
0.202695
-0.0206106
-0.2452
-2.8222
2.39189
0.212993
-1.09434
1.42111
-2.92681
4.34339
-1.59434
0.0523998
0.110446
0.0315236
-0.0367557
5.45447
-0.284224
-0.0113224
-0.360596
2.96372
2.66953
5.30644
0.0457293
-0.0042516
-1.4111
1.16353
-1.51074
2.04101
0.151494
-0.155194
-0.192751
0.196451
-0.0677029
0.0648226
0.695962
0.0949915
-0.0464239
-0.0541045
0.822532
-0.174096
0.177485
0.236271
-0.196939
-0.160998
1.60011
-0.162063
-2.3526
-0.0286766
-0.108245
0.185025
-0.0481029
2.9359
0.0659963
-0.0713628
0.00536646
-0.733999
-2.41367
3.74683
-5.34479
1.77366
1.27483
0.588798
-0.561484
-0.094717
-2.97672
-0.00170664
1.7003
-6.2312
-0.0814645
0.0711924
0.0384296
-0.0281577
-0.575937
-6.30703
-0.109655
-0.0207358
0.101715
-5.0075
-1.0146
-2.81089
5.51246
-3.59693
-0.0314166
-0.163117
0.0862879
0.299825
-0.362139
0.213808
-0.0203017
-0.0260565
0.0331683
-2.33213
2.49271
-1.03411
2.47472
1.47921
-1.11769
-0.00553198
-0.000571761
0.00610366
-1.83881
-3.55278
0.0101398
-0.0209933
0.0108535
2.02825
-3.54255
0.799235
1.41542
-0.670925
1.19235
0.00605453
0.00408529
0.522277
-0.193254
-0.246386
0.415023
0.247756
-1.75145
2.36073
-0.291076
-0.728711
4.42116
0.198047
-0.0705608
0.0413259
-0.940419
0.220993
-1.17675
1.56179
-2.81133
-0.614782
2.1616
-0.745456
3.74386
0.0599462
0.00487636
1.03237
-4.08316
1.69609
-0.923605
-2.66594
1.23951
1.05183
0.357397
-2.36146
2.38472
-0.194866
-0.0335032
0.0731746
5.5681
-0.0903287
0.0504212
0.0559674
-0.0599769
-0.0776382
0.115835
-3.10987
0.0914302
0.116819
-0.116931
0.017532
0.0236032
-0.0411353
-1.82929
-3.7371
4.46892
-0.492932
0.177288
0.264989
-2.05996
0.00401808
-0.00955009
-1.77775
-5.46804
0.270529
0.0495778
0.0654354
-0.0645922
0.75803
-0.199612
-0.0406854
-3.57128
-0.171982
-4.11213
-2.19639
-0.00346126
0.150103
0.360294
-0.105157
-0.555421
-0.0344258
0.0492982
-0.00836498
0.0596569
0.184929
-0.183203
-0.374775
-2.93756
-3.1173
0.0564672
0.003479
0.203779
-2.01444
0.0566638
1.68546
-0.0716561
0.0730636
0.0596565
0.0588215
-0.0689002
0.636214
0.187928
-0.0591861
0.0137195
-0.0231676
-0.00194045
0.00742322
-0.129367
0.221984
-0.0781608
0.0152087
0.00813054
0.0591514
-0.00268426
0.0101471
-0.0241257
0.210665
0.0453644
0.00811396
-0.0150487
-0.198161
2.26734
-1.6324
1.51737
0.00347131
-0.0731821
-0.0291122
0.286022
-0.468377
-0.700091
1.14968
0.545684
-1.29776
-0.952182
-0.021565
0.0337449
-0.0569833
0.0447805
-0.0770178
0.00918708
0.0121253
0.019434
-0.00213327
0.0612847
-0.150354
-0.0686711
2.38713
-0.0136101
0.0523768
-1.53927
0.47148
-2.02236
-0.791343
-0.116505
0.00322272
-0.0323349
-0.0640141
0.0195148
-0.0474399
0.0676118
-0.0242209
0.717231
-0.978755
-1.26886
0.788375
-0.0911047
-1.503
-0.41882
-0.0318014
-0.0224912
-1.51485
-0.724931
-0.0392697
-0.0294292
0.038308
0.153301
-0.565607
0.0489202
0.0221706
-0.0674274
1.77335
-0.0224352
0.0185087
0.0231943
0.094803
2.57396
0.224926
-0.219404
-0.99006
-0.231177
-1.02064
-0.00379341
0.113459
-0.109666
-0.00850537
0.117449
-0.112737
-0.0131703
0.127724
-0.123059
-0.0182922
0.136454
-0.131332
-0.0235425
0.145816
-0.140565
-0.0290972
0.154287
-0.148732
-0.0347686
0.162697
-0.157026
-0.040571
0.170573
-0.16477
0.178036
-0.172446
-0.0461616
-0.00349938
0.116959
-0.00768417
0.121634
-0.0119179
0.131957
-0.0165588
0.141095
-0.0212642
0.150521
-0.026225
0.159248
-0.0312702
0.167742
-0.0363931
0.175695
0.18318
-0.0415365
-0.00341852
0.120377
-0.00698442
0.1252
-0.0107254
0.135698
-0.0147868
0.145156
-0.0189426
0.154677
-0.0232744
0.163579
-0.027674
0.172142
-0.0321323
0.180154
0.187664
-0.036616
-0.00314103
0.123518
-0.00624245
0.128301
-0.0095013
0.138957
-0.0129947
0.148649
-0.0165889
0.158271
-0.0203149
0.167305
-0.0240998
0.175927
-0.0279508
0.184005
0.1916
-0.0318874
-0.00275906
0.126277
-0.00543936
0.130982
-0.0082328
0.141751
-0.0111965
0.151613
-0.0142473
0.161322
-0.0174042
0.170462
-0.0206331
0.179156
-0.0239528
0.187325
0.195038
-0.027391
-0.00229625
0.128573
-0.00458214
0.133267
-0.00694353
0.144112
-0.0094217
0.154091
-0.01197
0.16387
-0.0146096
0.173102
-0.0173219
0.181868
-0.0201348
0.190137
0.197989
-0.0230856
-0.00167139
0.130245
-0.00365115
0.135247
-0.00564813
0.146109
-0.00771518
0.156158
-0.00981784
0.165973
-0.0119929
0.175277
-0.0142578
0.184133
-0.0166411
0.192521
0.200539
-0.0191913
-0.000919497
0.131164
-0.00272886
0.137056
-0.00443042
0.147811
-0.00613363
0.157861
-0.00784857
0.167688
-0.00963301
0.177061
-0.0115148
0.186015
-0.0135428
0.194549
0.202705
-0.0157088
-0.00038616
0.13155
-0.00202582
0.138696
-0.00341312
0.149198
-0.00477198
0.15922
-0.0061412
0.169057
-0.00758742
0.178507
-0.00916245
0.18759
-0.0108981
0.196284
0.204653
-0.0128454
-0.000346072
0.131896
-0.00168418
0.140034
-0.00266662
0.15018
-0.00365961
0.160213
-0.00471053
0.170108
-0.00589857
0.179695
-0.00725858
0.18895
-0.00883516
0.197861
0.206443
-0.0106256
-0.000616296
0.132513
-0.00151162
0.14093
-0.00206284
0.150731
-0.00272531
0.160876
-0.00352374
0.170906
-0.00453175
0.180703
-0.00577078
0.190189
-0.00728821
0.199378
0.208273
-0.00911831
-0.000689202
0.133202
-0.00112237
0.141363
-0.00138411
0.150993
-0.00182897
0.161321
-0.00249002
0.171567
-0.00339511
0.181608
-0.00458256
0.191376
-0.00605374
0.20085
0.21014
-0.00792036
-0.000240562
0.133442
-0.000346927
0.141469
-0.00050902
0.151155
-0.000895575
0.161707
-0.00153055
0.172202
-0.00244992
0.182528
-0.00368006
0.192606
-0.00525648
0.202426
0.212049
-0.00716564
0.000526881
0.132915
0.00065311
0.141343
0.000491804
0.151317
7.65846e-05
0.162122
-0.000609178
0.172888
-0.00160408
0.183523
-0.00293093
0.193933
-0.00462694
0.204122
0.214115
-0.00669322
0.00130951
0.131606
0.00164445
0.141008
0.00147722
0.151484
0.0010095
0.16259
0.000249564
0.173648
-0.000829405
0.184602
-0.00227115
0.195375
-0.00412649
0.205977
0.216391
-0.00640189
0.0017021
0.129904
0.00233988
0.14037
0.00224599
0.151578
0.0018004
0.163035
0.0010324
0.174416
-8.14012e-05
0.185716
-0.00158284
0.196876
-0.00351641
0.207911
0.218779
-0.00590451
0.0014924
0.128411
0.00249734
0.139365
0.00265523
0.15142
0.00238047
0.16331
0.00172108
0.175075
0.000669219
0.186767
-0.000819015
0.198365
-0.00276376
0.209856
0.22126
-0.00524562
0.00104934
0.127362
0.00228776
0.138127
0.00278996
0.150917
0.00280221
0.163298
0.00235817
0.175519
0.00144927
0.187676
3.62986e-05
0.199778
-0.0019251
0.211817
0.223822
-0.00448662
0.00075869
0.126603
0.00208416
0.136801
0.00288404
0.150118
0.00322051
0.162961
0.0030727
0.175667
0.00241699
0.188332
0.00120807
0.200987
-0.000595106
0.21362
0.226263
-0.00303656
0.000684827
0.125918
0.00206797
0.135418
0.00311552
0.14907
0.00378075
0.162296
0.00397404
0.175474
0.00365019
0.188656
0.00275713
0.20188
0.00124594
0.215131
0.228432
-0.000922976
0.000726762
0.125192
0.00225545
0.133889
0.00356083
0.147765
0.00456347
0.161294
0.00513376
0.174904
0.00519531
0.188594
0.0046718
0.202403
0.00346047
0.216343
0.230428
0.00146493
0.00091443
0.124277
0.00267912
0.132125
0.00427043
0.146173
0.00561997
0.159944
0.00660674
0.173917
0.0071357
0.188065
0.00711219
0.202427
0.00637874
0.217076
0.231969
0.00483774
0.00146272
0.122815
0.00342087
0.130166
0.00526444
0.14433
0.00694006
0.158268
0.00835984
0.172497
0.009416
0.187009
0.0100193
0.201823
0.00989469
0.217201
0.233153
0.00871084
0.0024265
0.120388
0.00446351
0.128129
0.00648324
0.14231
0.00847205
0.156279
0.0103292
0.17064
0.0119301
0.185408
0.0132665
0.200487
0.0138924
0.216575
0.234106
0.0129388
0.0034567
0.00537047
0.00763349
0.0100576
0.0124515
0.0146564
0.0169823
0.0193189
0.0222477
-0.0868379
-0.0012464
0.0880843
-0.0854472
-0.00139069
-0.0839038
-0.00154341
-0.0821951
-0.0017087
-0.080315
-0.00188012
-0.0782558
-0.00205921
-0.0760108
-0.00224494
-0.0735779
-0.00243296
-0.070951
-0.00262683
-0.0681315
-0.0028195
-0.0651187
-0.0030128
-0.0619146
-0.00320413
-0.0585226
-0.003392
-0.0549435
-0.00357906
-0.0511832
-0.00376033
-0.0472444
-0.00393869
-0.0431361
-0.00410829
-0.0388671
-0.00426898
-0.0344531
-0.00441405
-0.0299151
-0.00453798
-0.0252847
-0.00463036
-0.0206089
-0.0046758
-0.0159506
-0.00465824
-0.0113848
-0.00456576
-0.00697884
-0.00440594
-0.00269028
-0.00428855
0.00161412
-0.00430438
0.00605864
-0.00444451
0.0107806
-0.0047219
0.0157952
-0.00501466
0.020981
-0.00518577
0.0262411
-0.00526003
0.0315129
-0.00527184
0.0367425
-0.00522957
0.0418819
-0.00513933
0.0468934
-0.00501153
0.0517458
-0.00485232
0.0564125
-0.0046667
0.0608761
-0.00446366
0.0651234
-0.00424728
0.0691496
-0.00402613
0.0729553
-0.00380569
0.0765431
-0.00358783
0.0799214
-0.00337823
0.0830955
-0.00317415
0.0860768
-0.00298124
0.0888698
-0.00279296
0.0914831
-0.00261334
0.0939193
-0.00243612
0.0961797
-0.00226041
0.0982696
-0.00208992
0.100193
-0.00192352
0.101962
-0.00176875
0.10358
-0.0016185
0.105056
-0.0014752
0.106395
-0.00133881
0.107602
-0.00120748
0.108692
-0.00108975
-0.000973986
-0.086539
-0.00252621
0.0878188
-0.0851607
-0.00276905
-0.0836746
-0.00302944
-0.0820713
-0.00331202
-0.0803446
-0.00360679
-0.0784809
-0.00392296
-0.0764732
-0.00425265
-0.0743076
-0.00459856
-0.0719756
-0.00495882
-0.0694671
-0.00532801
-0.0667725
-0.00570738
-0.0638846
-0.00609203
-0.0607945
-0.006482
-0.0575026
-0.00687096
-0.054006
-0.007257
-0.0503057
-0.00763896
-0.0464059
-0.008008
-0.0423147
-0.00836021
-0.0380394
-0.00868937
-0.0335926
-0.00898474
-0.0289857
-0.00923724
-0.0242233
-0.00943824
-0.019299
-0.00958245
-0.0141855
-0.00967933
-0.00884195
-0.00974943
-0.00329111
-0.00983938
0.00236963
-0.00996511
0.00805328
-0.0101281
0.0136561
-0.0103247
0.0191659
-0.0105245
0.0246386
-0.0106585
0.0300841
-0.0107055
0.0354797
-0.0106674
0.0407995
-0.0105493
0.0460124
-0.0103523
0.0510897
-0.0100888
0.0560036
-0.0097662
0.0607353
-0.00939834
0.0652653
-0.00899363
0.0695816
-0.00856364
0.0736736
-0.00811813
0.0775314
-0.00766343
0.0811549
-0.00721135
0.0845412
-0.00676448
0.0876926
-0.00632554
0.0906135
-0.00590217
0.0933127
-0.0054922
0.0957947
-0.00509525
0.0980747
-0.00471617
0.100166
-0.00435163
0.102085
-0.00400875
0.103845
-0.00368383
0.105457
-0.00338099
0.106938
-0.00309876
0.108294
-0.00283144
0.109543
-0.00258779
0.110692
-0.00235652
0.111752
-0.00214987
-0.00195904
-0.094639
-0.00395792
0.0960707
-0.093096
-0.00431209
-0.0914337
-0.00469166
-0.0896493
-0.00509641
-0.0877271
-0.005529
-0.0856597
-0.00599035
-0.0834365
-0.00647591
-0.0810502
-0.00698482
-0.0784896
-0.00751945
-0.0757444
-0.00807318
-0.0728058
-0.00864597
-0.0696666
-0.00923125
-0.0663211
-0.00982749
-0.0627634
-0.0104287
-0.0589893
-0.0110312
-0.0550017
-0.0116265
-0.0507972
-0.0122125
-0.0463806
-0.0127768
-0.0417555
-0.0133145
-0.0369256
-0.0138147
-0.0318919
-0.0142709
-0.0266562
-0.014674
-0.0212161
-0.0150226
-0.0155743
-0.0153211
-0.00974602
-0.0155777
-0.00377331
-0.0158121
0.00229765
-0.0160361
0.00842063
-0.0162511
0.0145427
-0.0164468
0.0206168
-0.0165986
0.0266321
-0.0166737
0.0325795
-0.0166529
0.0384417
-0.0165297
0.0441949
-0.0163025
0.0498191
-0.0159765
0.0552909
-0.0155606
0.060588
-0.0150634
0.0656918
-0.0145021
0.0705865
-0.0138884
0.0752557
-0.0132328
0.0796908
-0.0125532
0.0838848
-0.0118575
0.0878332
-0.0111597
0.0915324
-0.0104637
0.0949901
-0.00978325
0.0982056
-0.00911762
0.101188
-0.00847495
0.103949
-0.00785627
0.1065
-0.00726641
0.108853
-0.00670483
0.111021
-0.00617652
0.113014
-0.00567767
0.114846
-0.00521281
0.116524
-0.00477628
0.118062
-0.00436995
0.119472
-0.00399798
0.120772
-0.00365637
0.121964
-0.00334183
-0.00305359
-0.101233
-0.00543266
0.102707
-0.0996427
-0.00590202
-0.0979243
-0.00641007
-0.0960689
-0.00695177
-0.0940695
-0.00752842
-0.0919164
-0.00814353
-0.0896
-0.0087923
-0.0871057
-0.00947904
-0.0844275
-0.0101977
-0.0815543
-0.0109464
-0.0784776
-0.0117227
-0.0751832
-0.0125257
-0.0716666
-0.0133441
-0.0679165
-0.0141788
-0.0639313
-0.0150164
-0.0597024
-0.0158553
-0.0552311
-0.0166838
-0.0505169
-0.0174911
-0.0455614
-0.01827
-0.0403675
-0.0190086
-0.0349385
-0.0196999
-0.029278
-0.0203345
-0.0233924
-0.0209082
-0.0172965
-0.021417
-0.0110102
-0.021864
-0.00456744
-0.0222548
0.00198428
-0.0225878
0.00859436
-0.0228612
0.0152127
-0.0230652
0.0217985
-0.0231844
0.0283248
-0.0232
0.0347709
-0.0230989
0.0411142
-0.0228731
0.0473342
-0.0225224
0.0534051
-0.0220475
0.0593069
-0.0214624
0.0650191
-0.0207756
0.0705157
-0.0199987
0.0757794
-0.0191521
0.0807981
-0.0182515
0.0855592
-0.0173143
0.0900546
-0.0163529
0.0942791
-0.0153842
0.0982327
-0.0144173
0.101913
-0.013464
0.105333
-0.0125376
0.108496
-0.0116373
0.111417
-0.0107774
0.114103
-0.00995249
0.116574
-0.00917563
0.118841
-0.00844364
0.12092
-0.0077571
0.122821
-0.0071135
0.124564
-0.00651888
0.126161
-0.00596783
0.127627
-0.00546378
0.12897
-0.00499933
0.1302
-0.00457163
-0.00418528
-0.109927
-0.00704532
0.11154
-0.108177
-0.00765174
-0.106287
-0.00830005
-0.104247
-0.0089917
-0.102048
-0.00972789
-0.099681
-0.0105103
-0.0971333
-0.01134
-0.0943999
-0.0122124
-0.0914685
-0.0131291
-0.0883288
-0.014086
-0.0849712
-0.0150803
-0.0813871
-0.0161098
-0.077567
-0.0171641
-0.0735061
-0.0182398
-0.0691939
-0.0193285
-0.0646284
-0.0204208
-0.0598066
-0.0215056
-0.0547252
-0.0225725
-0.0493884
-0.0236069
-0.0437956
-0.0246014
-0.0379555
-0.0255399
-0.0318752
-0.0264149
-0.0255673
-0.027216
-0.0190485
-0.0279359
-0.0123445
-0.0285681
-0.00549022
-0.0291091
0.00147533
-0.0295533
0.00851015
-0.029896
0.0155712
-0.0301262
0.0226185
-0.0302317
0.0296182
-0.0301998
0.0365394
-0.03002
0.0433524
-0.0296861
0.0500321
-0.0292021
0.056554
-0.0285694
0.0628886
-0.0277969
0.069013
-0.0269
0.0749071
-0.0258928
0.0805509
-0.0247959
0.0859319
-0.0236326
0.0910338
-0.0224162
0.0958543
-0.0211734
0.100386
-0.019916
0.104632
-0.0186634
0.108597
-0.0174285
0.112282
-0.0162232
0.115703
-0.0150579
0.118866
-0.0139401
0.121785
-0.0128716
0.124472
-0.0118624
0.126941
-0.0109133
0.129208
-0.0100237
0.13129
-0.00919604
0.133197
-0.00842534
0.134944
-0.00771533
0.136543
-0.0070621
0.138005
-0.0064617
0.139344
-0.00591091
-0.00540639
-0.118053
-0.00873976
0.119747
-0.116216
-0.00948901
-0.11423
-0.0102855
-0.112083
-0.0111385
-0.109762
-0.0120491
-0.107261
-0.0130114
-0.104567
-0.0140339
-0.101669
-0.0151109
-0.0985539
-0.0162439
-0.0952148
-0.0174252
-0.091639
-0.0186561
-0.087818
-0.0199308
-0.08374
-0.0212421
-0.0793967
-0.0225831
-0.0747827
-0.0239425
-0.0698929
-0.0253106
-0.0647237
-0.0266749
-0.0592795
-0.0280167
-0.0535591
-0.0293272
-0.0475696
-0.030591
-0.0413156
-0.0317939
-0.0348106
-0.0329198
-0.0280689
-0.0339578
-0.0211118
-0.0348929
-0.013968
-0.0357119
-0.00667127
-0.0364058
0.000740002
-0.0369646
0.00822699
-0.037383
0.0157493
-0.0376485
0.0232671
-0.0377495
0.0307448
-0.0376775
0.0381451
-0.0374203
0.045436
-0.036977
0.0525886
-0.0363547
0.0595703
-0.0355511
0.0663562
-0.0345828
0.0729195
-0.0334632
0.0792283
-0.0322016
0.0852666
-0.0308342
0.0910154
-0.0293814
0.0964666
-0.0278673
0.101608
-0.0263149
0.106441
-0.0247486
0.110961
-0.0231839
0.115176
-0.0216437
0.119091
-0.0201383
0.122715
-0.0186813
0.126058
-0.0172832
0.129137
-0.0159505
0.131965
-0.0146903
0.13456
-0.0135085
0.136936
-0.0123996
0.139109
-0.0113692
0.141097
-0.0104132
0.142915
-0.00953391
0.144573
-0.00872014
0.146087
-0.00797486
0.147471
-0.00729531
-0.00666746
-0.127105
-0.0105543
0.12892
-0.125135
-0.0114591
-0.123
-0.0124208
-0.12069
-0.0134489
-0.118194
-0.0145448
-0.115499
-0.0157067
-0.112594
-0.0169384
-0.109467
-0.0182382
-0.106111
-0.0195997
-0.10251
-0.0210258
-0.0986586
-0.0225078
-0.0945464
-0.024043
-0.0901613
-0.0256272
-0.0854961
-0.0272484
-0.0805447
-0.0288939
-0.075303
-0.0305523
-0.0697649
-0.0322131
-0.0639414
-0.0338401
-0.0578306
-0.035438
-0.0514419
-0.0369797
-0.0447782
-0.0384577
-0.0378559
-0.0398421
-0.030692
-0.0411217
-0.0233037
-0.0422812
-0.0157282
-0.0432873
-0.00799739
-0.0441366
-0.000152125
-0.0448099
0.00777467
-0.0453098
0.0157448
-0.0456187
0.0237172
-0.0457219
0.0316583
-0.0456186
0.0395213
-0.0452834
0.0472727
-0.0447284
0.0548835
-0.0439655
0.0623144
-0.042982
0.0695435
-0.0418119
0.0765407
-0.0404605
0.0832588
-0.0389197
0.0896887
-0.037264
0.0958097
-0.0355025
0.101615
-0.0336723
0.10709
-0.03179
0.112235
-0.0298932
0.117045
-0.0279947
0.121532
-0.0261302
0.125698
-0.0243044
0.129554
-0.022537
0.133107
-0.0208366
0.136375
-0.019219
0.139375
-0.0176901
0.142119
-0.0162519
0.144632
-0.0149133
0.146927
-0.0136638
0.149022
-0.012508
0.150931
-0.0114434
0.152673
-0.0104623
0.154262
-0.0095634
0.155708
-0.00874192
-0.00798462
-0.136102
-0.0124799
0.138028
-0.13402
-0.0135414
-0.131767
-0.0146735
-0.129323
-0.0158931
-0.126682
-0.017186
-0.123823
-0.0185656
-0.120745
-0.0200167
-0.117421
-0.0215614
-0.113838
-0.0231836
-0.110005
-0.0248579
-0.105901
-0.0266118
-0.101516
-0.0284284
-0.0968418
-0.0303015
-0.0918659
-0.0322243
-0.0865853
-0.0341745
-0.080989
-0.0361486
-0.0750708
-0.0381313
-0.068863
-0.0400478
-0.0623631
-0.041938
-0.0555739
-0.0437689
-0.0484931
-0.0455384
-0.0411485
-0.0471867
-0.0335607
-0.0487096
-0.0257184
-0.0501235
-0.0176974
-0.0513084
-0.00951594
-0.0523181
-0.0012325
-0.0530933
0.00714469
-0.053687
0.0155722
-0.0540462
0.0240031
-0.0541528
0.0324189
-0.0540344
0.0407439
-0.0536084
0.0489496
-0.0529341
0.0570335
-0.0520494
0.0649099
-0.0508583
0.0725895
-0.0494915
0.080058
-0.047929
0.0871904
-0.046052
0.0940165
-0.0440901
0.100519
-0.0420047
0.106682
-0.0398361
0.112504
-0.0376118
0.117956
-0.0353449
0.123049
-0.0330874
0.127813
-0.0308947
0.132215
-0.0287064
0.136297
-0.0266187
0.140052
-0.0245918
0.143479
-0.0226458
0.146608
-0.0208188
0.149461
-0.0191053
0.152062
-0.0175145
0.15443
-0.0160311
0.156582
-0.0146609
0.15854
-0.0134011
0.160323
-0.0122453
0.161943
-0.0111831
0.163422
-0.0102208
-0.00933308
-0.145718
0.147755
-0.0145166
-0.143504
-0.0157553
-0.141111
-0.0170662
-0.138507
-0.0184972
-0.13569
-0.0200034
-0.132623
-0.0216322
-0.129305
-0.0233352
-0.125766
-0.0251002
-0.121966
-0.0269835
-0.117817
-0.0290067
-0.113421
-0.0310084
-0.108726
-0.0331227
-0.103687
-0.0353412
-0.0983789
-0.0375321
-0.0927192
-0.0398341
-0.0868033
-0.0420645
-0.0805695
-0.0443651
-0.073986
-0.0466313
-0.0670367
-0.0488872
-0.059823
-0.0509826
-0.0523073
-0.0530541
-0.044577
-0.054917
-0.0365939
-0.0566926
-0.0282944
-0.058423
-0.0198222
-0.0597806
-0.0112044
-0.0609359
-0.00251396
-0.0617838
0.00632317
-0.0625242
0.0152477
-0.0629707
0.0241073
-0.0630124
0.0330018
-0.0629289
0.0418056
-0.0624122
0.0504285
-0.0615569
0.0589968
-0.0606178
0.067369
-0.0592305
0.0755163
-0.0576388
0.0833315
-0.0557441
0.0907956
-0.0535162
0.0980751
-0.0513696
0.104962
-0.0488916
0.111493
-0.0463672
0.117702
-0.0438205
0.123505
-0.0411478
0.128933
-0.0385157
0.133985
-0.0359465
0.138642
-0.033363
0.142919
-0.0308965
0.146817
-0.0284894
0.150454
-0.0262829
0.153773
-0.0241377
0.156775
-0.0221073
0.159487
-0.0202264
0.16193
-0.0184744
0.164165
-0.0168959
0.16619
-0.0154257
0.168014
-0.014069
0.169663
-0.0128326
0.171096
-0.0116541
-0.0106825
-0.0526042
0.0114688
-0.0630738
0.0104696
-0.0725462
0.00947234
-0.0808098
0.00826358
-0.0879161
0.00710625
-0.0942969
0.00638086
-0.100276
0.00597917
-0.105965
0.00568848
-0.11138
0.00541537
-0.116173
0.00479252
-0.11971
0.00353725
-0.121663
0.00195338
-0.122171
0.000508037
-0.121694
-0.000477439
-0.120789
-0.000905124
-0.119617
-0.00117133
-0.117941
-0.00167659
-0.115585
-0.00235592
-0.112659
-0.0029257
-0.109325
-0.00333392
-0.105663
-0.00366205
-0.101705
-0.00395793
-0.0974659
-0.00423935
-0.0929987
-0.00446722
-0.00491438
-0.0569339
0.0210628
-0.0664738
0.0200094
-0.0755185
0.018517
-0.0840547
0.0167998
-0.0920963
0.0151478
-0.099547
0.0138315
-0.106328
0.0127599
-0.112366
0.0117269
-0.117465
0.0105137
-0.121475
0.00880277
-0.124496
0.00655793
-0.126602
0.00406029
-0.127754
0.00165989
-0.127877
-0.000354317
-0.126963
-0.00181954
-0.125201
-0.00293361
-0.122871
-0.0040065
-0.120121
-0.00510547
-0.116935
-0.0061122
-0.113277
-0.00699222
-0.10916
-0.00777897
-0.104589
-0.00852898
-0.099548
-0.00928001
-0.093936
-0.0100791
-0.0110316
-0.0623117
0.0316969
-0.0725509
0.0302486
-0.0823433
0.0283093
-0.0916507
0.0261073
-0.100366
0.0238635
-0.108295
0.0217596
-0.115285
0.0197507
-0.121245
0.0176865
-0.126112
0.0153804
-0.129969
0.0126607
-0.132952
0.00954061
-0.135129
0.00623728
-0.136508
0.00303905
-0.137033
0.000170469
-0.136608
-0.00224478
-0.135245
-0.00429679
-0.133101
-0.0061505
-0.13032
-0.00788638
-0.126955
-0.00947675
-0.123025
-0.0109223
-0.118557
-0.0122469
-0.113585
-0.0135017
-0.108148
-0.0147167
-0.102289
-0.0159383
-0.0172495
-0.0674915
0.0434705
-0.0786137
0.0413708
-0.0891539
0.0388494
-0.0990911
0.0360444
-0.108321
0.0330932
-0.116674
0.0301129
-0.124007
0.0270832
-0.130238
0.023918
-0.135355
0.0204971
-0.139439
0.0167453
-0.142609
0.0127098
-0.144931
0.00855958
-0.146405
0.00451309
-0.146996
0.000761573
-0.146639
-0.00260197
-0.145343
-0.0055924
-0.143191
-0.00830252
-0.140286
-0.0107911
-0.136683
-0.0130804
-0.132427
-0.0151779
-0.127547
-0.0171275
-0.122082
-0.0189663
-0.116069
-0.0207295
-0.109563
-0.0224445
-0.024105
-0.0727111
0.0562046
-0.0847631
0.0534227
-0.0961152
0.0502015
-0.106733
0.0466626
-0.116515
0.042875
-0.125335
0.0389326
-0.133078
0.0348256
-0.139686
0.0305261
-0.14516
0.0259718
-0.149563
0.0211483
-0.152982
0.0161287
-0.155475
0.0110523
-0.157044
0.00608184
-0.15767
0.00138792
-0.157337
-0.00293504
-0.156043
-0.00688649
-0.153843
-0.0105029
-0.150818
-0.0138159
-0.147032
-0.0168664
-0.142539
-0.0196706
-0.137393
-0.022274
-0.131649
-0.0247099
-0.125376
-0.0270029
-0.118656
-0.0291644
-0.0312215
-0.0780954
0.0697076
-0.0910473
0.0663746
-0.103207
0.0623615
-0.114526
0.0579815
-0.124903
0.0532513
-0.134248
0.0482772
-0.142458
0.0430361
-0.1495
0.0375682
-0.155377
0.031848
-0.160124
0.025896
-0.163815
0.019819
-0.166485
0.0137229
-0.16815
0.00774706
-0.168811
0.00204822
-0.168453
-0.00329254
-0.167106
-0.00823362
-0.164819
-0.0127898
-0.161644
-0.0169906
-0.157655
-0.0208562
-0.152903
-0.0244225
-0.147452
-0.0277244
-0.141356
-0.0308063
-0.134664
-0.0336949
-0.127432
-0.0363961
-0.0389066
-0.0835157
0.0843228
-0.0974691
0.0803279
-0.110463
0.0753554
-0.122513
0.0700314
-0.133527
0.0642655
-0.143447
0.0581974
-0.15216
0.0517485
-0.159663
0.0450716
-0.165947
0.0381323
-0.171043
0.0309916
-0.175007
0.0237829
-0.177874
0.0165904
-0.179646
0.00951816
-0.18033
0.00273291
-0.179958
-0.00366434
-0.178552
-0.0096402
-0.176157
-0.015185
-0.172834
-0.0203131
-0.168645
-0.0250457
-0.163665
-0.0294022
-0.15795
-0.0334394
-0.151569
-0.0371871
-0.144562
-0.0407018
-0.136989
-0.0439696
-0.0469754
-0.0891568
0.100298
-0.104134
0.0953051
-0.117923
0.0891447
-0.130715
0.0828229
-0.142393
0.0759441
-0.152927
0.0687305
-0.162161
0.0609829
-0.170132
0.0530421
-0.176842
0.0448429
-0.182281
0.03643
-0.186505
0.0280073
-0.189579
0.0196644
-0.191454
0.0113933
-0.192171
0.00344927
-0.191773
-0.00406158
-0.190289
-0.0111245
-0.187775
-0.0176988
-0.184288
-0.0238006
-0.17989
-0.0294429
-0.174665
-0.0346278
-0.168671
-0.0394331
-0.161987
-0.043871
-0.154621
-0.0480683
-0.146621
-0.0519689
-0.0555689
-0.095385
0.117522
-0.111115
0.111035
-0.12556
0.10359
-0.139104
0.0963661
-0.151483
0.0883233
-0.162695
0.0799432
-0.172451
0.0707385
-0.180888
0.0614785
-0.188032
0.0519876
-0.19384
0.0422378
-0.198292
0.0324593
-0.201557
0.0229294
-0.203562
0.0133986
-0.204286
0.00417261
-0.203855
-0.00449254
-0.202287
-0.0126923
-0.199632
-0.0203536
-0.195989
-0.0274434
-0.191359
-0.0340735
-0.185817
-0.0401698
-0.179515
-0.0457351
-0.172488
-0.0508976
-0.164714
-0.0558426
-0.156487
-0.0601962
-0.0643008
1.06959
4.02408
-0.262132
-3.76194
2.90031
-1.07392
-1.8264
0.260255
-0.359293
0.0990379
0.322687
-0.391288
0.0686017
-0.869774
-0.513512
1.38329
-0.55981
0.81185
-0.25204
3.13451
-4.24113
1.10663
-0.0417556
-0.178549
0.220304
5.4195
-3.69378
-1.72573
-0.931896
2.07643
-1.14453
-1.0865
0.328211
0.758288
1.36106
-2.26442
0.903354
-1.59709
0.547024
1.05007
0.106359
-0.105802
-0.000556398
5.60249
-5.50469
-0.0978051
0.699831
2.20049
0.124545
-0.0225319
-0.102013
-0.213602
-0.216314
0.425673
0.3008
-0.726473
-0.328118
0.204715
0.123404
3.20473
2.31762
-5.52235
-1.05656
1.17116
-0.114608
1.45829
-1.26187
-0.196421
-1.09862
0.488683
0.60994
1.34146
0.116834
-1.25836
0.82906
0.429295
-0.417552
0.0452229
0.372329
5.66552
-3.02093
-2.6446
-0.0322921
-0.131697
0.163989
-0.00363746
0.633928
-0.63029
-2.22891
1.20351
1.02539
1.09901
0.837903
-1.93691
3.30576
-5.78008
2.47432
-0.283411
-0.06753
0.350941
-0.25288
2.19212
-1.93924
-1.00803