/*--------------------------------*- C++ -*----------------------------------*\
  =========                 |
  \\      /  F ield         | OpenFOAM: The Open Source CFD Toolbox
   \\    /   O peration     | Website:  https://openfoam.org
    \\  /    A nd           | Version:  10
     \\/     M anipulation  |
\*---------------------------------------------------------------------------*/
FoamFile
{
    format      ascii;
    class       volVectorField;
    location    "1700";
    object      U;
}
// * * * * * * * * * * * * * * * * * * * * * * * * * * * * * * * * * * * * * //

dimensions      [0 1 -1 0 0 0 0];

internalField   nonuniform List<vector> 
10435
(
(2.90077 1.3726 7.61294e-22)
(3.27942 2.13356 -4.92433e-20)
(4.59709 -0.39863 -3.24013e-20)
(4.10584 0.972757 9.46182e-20)
(3.95551 0.638466 -3.71924e-20)
(3.37276 -0.181962 2.48406e-19)
(4.78964 -0.367581 -1.15039e-19)
(5.05429 -0.355332 7.70525e-20)
(4.70631 -0.355831 2.64292e-19)
(3.74905 -0.390582 -6.93105e-20)
(3.54734 1.8152 -1.00873e-19)
(4.78079 0.0999355 1.92426e-19)
(3.61798 -0.416724 7.35063e-20)
(1.1384 0.982447 -2.24309e-20)
(1.34194 1.11329 -2.53176e-20)
(5.04613 -0.391586 -8.54662e-21)
(0.960076 0.844514 7.01668e-21)
(3.19454 -0.3758 2.47058e-19)
(4.41012 -0.35615 -1.0711e-19)
(3.1522 1.3023 -1.49196e-20)
(5.06627 -0.37213 5.37799e-20)
(4.02009 0.740763 -1.45401e-19)
(4.95346 -0.393285 3.57118e-19)
(4.65715 -0.405348 -1.23611e-19)
(4.15091 -0.355792 8.25644e-20)
(0.27682 0.459491 -7.84073e-22)
(0.0322036 0.203797 -1.82319e-21)
(4.15564 -0.388451 6.28169e-20)
(0.176417 0.0530581 3.22759e-22)
(3.42142 -0.388991 3.59505e-19)
(4.76293 -0.330298 1.54587e-19)
(3.64835 1.61449 -6.96953e-21)
(5.00918 -0.350571 -1.63983e-19)
(0.426415 0.0814955 3.80593e-21)
(5.02688 -0.411348 8.83215e-20)
(2.75877 2.33049 2.04065e-20)
(5.06943 -0.405224 1.27813e-19)
(0.154252 0.40186 6.06515e-21)
(0.429021 0.429415 -6.31492e-22)
(4.52876 -0.387667 3.33293e-20)
(3.18974 -0.379386 -3.69013e-19)
(4.79252 -0.374019 -9.28279e-20)
(0.774738 0.976395 -3.04112e-20)
(3.711 1.31655 -1.39994e-19)
(5.0475 -0.381323 -2.66955e-19)
(4.6118 -0.414807 1.96128e-19)
(3.29295 -0.284066 -2.77123e-19)
(0.510829 0.729477 -8.78236e-20)
(4.64624 -0.355948 8.62238e-20)
(3.87699 0.474887 -4.95628e-20)
(5.0619 -0.377664 -1.20333e-20)
(4.25397 -0.157399 1.2024e-18)
(0.476069 0.455874 -2.01572e-21)
(0.262261 -0.0614147 3.96511e-22)
(0.382209 0.437281 3.34266e-22)
(0.125232 0.00872149 -9.12383e-22)
(5.01412 -0.396754 -3.82616e-19)
(0.151554 0.332875 3.89142e-21)
(0.69035 0.445983 -4.53768e-21)
(4.89739 -0.40929 2.54731e-19)
(0.429126 0.468878 1.3848e-21)
(3.11671 2.23889 4.19991e-20)
(0.154124 0.232915 -3.1941e-21)
(4.29036 -0.0033512 -1.02245e-19)
(5.00426 -0.386858 -4.98822e-19)
(4.45634 -0.402175 2.37888e-19)
(0.595852 0.296225 9.31107e-21)
(0.338864 0.42716 1.3942e-20)
(5.06696 -0.352858 -9.73327e-20)
(4.60592 -0.35941 9.74673e-21)
(0.212421 -0.0928514 -1.55709e-21)
(0.206999 0.460529 5.9735e-22)
(0.939221 1.1514 1.09461e-19)
(4.64453 -0.3936 -3.10764e-19)
(1.57637 1.24501 -1.0549e-20)
(1.07019 1.33268 1.02531e-20)
(4.57154 -0.303941 5.33635e-19)
(4.87636 -0.354871 2.88982e-19)
(4.93922 -0.333619 2.29166e-20)
(1.56255 1.03671 6.35039e-20)
(4.21733 0.10947 6.25752e-20)
(2.53144 1.16336 1.10105e-23)
(0.52195 0.483922 2.7862e-21)
(0.304125 -0.0362285 -3.1252e-22)
(4.35319 -0.0444087 -1.21108e-19)
(2.5884 2.10502 5.84355e-20)
(2.82067 1.89279 1.44766e-21)
(3.7233 1.56639 2.89859e-20)
(2.0119 1.72857 -7.02105e-21)
(3.07687 1.87134 7.51174e-21)
(3.90855 1.40494 -2.42973e-20)
(4.08563 1.21416 -2.4542e-20)
(2.78042 1.12029 4.06181e-21)
(2.26684 1.81464 3.14306e-20)
(3.30933 1.80457 1.32047e-20)
(2.55064 2.30314 3.18871e-20)
(4.26581 0.980173 3.00811e-19)
(1.60262 1.43264 1.60075e-20)
(0.828296 0.585227 -8.38862e-21)
(4.32891 0.805156 -2.65181e-19)
(1.79564 1.58128 3.10765e-20)
(3.42745 0.528633 -1.47606e-19)
(2.54337 1.87215 -1.75147e-20)
(3.52401 1.69982 -1.31815e-20)
(3.41228 0.30534 -7.9441e-21)
(3.91694 1.15968 6.13235e-21)
(3.02217 1.03717 4.84166e-21)
(4.05908 0.280444 7.09476e-20)
(4.47233 -0.157773 -1.52063e-19)
(1.78728 1.10723 -1.7318e-20)
(3.68561 0.638309 -1.92686e-20)
(3.45052 0.756126 -7.96764e-20)
(2.27735 1.16877 -2.00551e-20)
(2.02849 1.15206 -1.47735e-20)
(4.16249 1.03196 -1.60233e-19)
(3.82662 0.916555 3.95187e-20)
(4.46029 0.576909 -1.41559e-19)
(2.83529 2.1283 -1.42712e-20)
(3.62664 1.78905 -1.57333e-19)
(4.55281 0.500915 -3.93266e-20)
(4.58485 0.382565 -4.35639e-19)
(1.17489 1.49397 1.11472e-20)
(3.05784 2.10382 2.98547e-20)
(1.97993 2.19557 -1.29163e-19)
(3.37802 1.54548 2.77858e-20)
(0.360279 0.47158 7.23551e-22)
(4.42433 0.720504 2.74787e-19)
(1.41912 1.73604 -2.41837e-20)
(4.26991 0.598909 -2.69371e-19)
(0.0822295 0.391485 -4.83871e-22)
(1.70126 1.98355 5.15216e-20)
(3.32181 1.76823 -1.68684e-19)
(5.07131 -0.39224 -1.37451e-19)
(1.35149 0.943254 4.70862e-20)
(0.173175 0.434454 1.09432e-22)
(0.687858 0.615541 2.97577e-22)
(2.43147 2.44845 4.8774e-20)
(4.27785 0.757223 -1.7761e-20)
(3.45163 1.92788 4.15344e-20)
(3.61306 1.0677 3.40079e-20)
(3.38803 1.19928 4.32403e-21)
(4.91351 -0.366036 -5.53391e-19)
(0.51378 0.196391 2.59776e-20)
(4.70307 -0.055723 1.22363e-18)
(4.19665 0.548568 2.37344e-20)
(1.43083 1.52004 9.90682e-20)
(2.22949 2.36474 -1.9159e-20)
(3.95674 -0.0543164 -3.46669e-19)
(0.960422 1.00416 3.91477e-20)
(4.87331 -0.0819619 7.52765e-20)
(0.441043 0.662165 4.48127e-23)
(5.0583 -0.36282 2.37332e-19)
(3.01301 1.6191 2.02005e-21)
(4.86353 -0.158019 5.24095e-19)
(3.96345 -0.23584 -3.04661e-19)
(0.3724 0.570416 2.40085e-21)
(3.40991 1.28298 2.36885e-19)
(3.26173 2.03428 -7.85359e-22)
(3.79209 -0.309567 -2.48152e-19)
(3.15611 2.1708 -2.23866e-20)
(4.96532 -0.276347 -9.74703e-20)
(1.16517 0.835033 -9.44974e-21)
(3.93981 1.40069 1.87613e-19)
(4.63948 0.0600249 1.37475e-19)
(1.82054 1.33382 3.12477e-20)
(4.47023 0.357424 9.78299e-19)
(4.96586 -0.372191 -2.5113e-19)
(4.56815 0.351003 -1.28432e-19)
(4.82415 -0.213684 1.90564e-19)
(4.52686 0.100181 -1.71368e-18)
(4.2256 -0.311953 2.86666e-19)
(0.820404 0.976567 -3.21321e-20)
(0.00770654 0.121357 7.60997e-22)
(1.62846 1.62201 -2.2793e-21)
(4.9407 -0.169113 -2.82965e-19)
(3.03894 2.31437 -2.60799e-20)
(2.94553 2.30569 -1.95565e-20)
(0.629916 0.729702 1.25735e-20)
(3.47765 0.789081 1.17638e-20)
(0.235173 0.103614 -4.92125e-22)
(3.42545 1.98999 6.14643e-20)
(3.42501 -0.0464927 -4.29781e-20)
(4.83362 0.0223415 -6.68575e-19)
(0.413119 0.492146 5.57083e-22)
(4.97043 -0.332266 7.78248e-20)
(0.687728 0.901152 4.25917e-20)
(0.983137 1.23422 -1.02997e-19)
(4.96561 -0.359904 -2.27948e-19)
(3.91028 0.453959 9.95207e-20)
(4.54636 -0.117362 -8.08928e-19)
(4.70674 0.239958 1.03057e-19)
(0.564493 0.515508 2.84326e-21)
(0.117092 0.421503 9.50842e-22)
(2.60505 2.4855 -1.94567e-20)
(3.4336 1.01915 1.11169e-19)
(5.04399 -0.353301 1.39205e-20)
(0.981223 1.1563 1.05671e-19)
(2.32106 2.03399 -2.53414e-20)
(0.574663 0.756277 9.09538e-20)
(5.07214 -0.402223 1.94837e-19)
(1.91398 1.53288 -3.68998e-20)
(0.230161 0.469014 6.33333e-21)
(3.91546 -0.39641 -1.79216e-20)
(0.207041 0.420594 6.42972e-21)
(4.25559 -0.395122 -6.98484e-20)
(4.03129 1.06731 -1.66998e-21)
(3.77809 1.61903 1.7816e-19)
(4.43423 0.542539 -8.92476e-20)
(0.218797 0.218205 -3.41796e-21)
(4.35779 0.359742 -6.53819e-20)
(0.523336 0.700847 -1.41692e-20)
(4.8368 -0.381364 -4.61292e-19)
(4.69048 0.151783 9.76926e-19)
(4.77308 -0.0292801 7.15355e-20)
(0.0590974 0.186449 1.18668e-21)
(1.1532 1.15942 -1.06888e-19)
(2.09019 1.37027 9.22433e-21)
(0.537075 0.593584 -2.19125e-21)
(0.262446 0.439192 5.93113e-22)
(0.996879 0.713461 9.19799e-21)
(0.280904 0.0635146 -3.51858e-22)
(0.681019 0.671734 2.6384e-20)
(0.424361 0.244364 -1.4834e-20)
(1.75292 1.85621 -1.72942e-19)
(0.304942 0.505892 3.8602e-22)
(5.07002 -0.404063 -6.2975e-20)
(0.327594 0.431628 -1.39452e-21)
(2.03936 1.91336 1.89281e-20)
(4.60941 -0.247234 8.82925e-19)
(1.29894 1.55798 -1.00929e-19)
(0.505787 0.545501 -8.81021e-20)
(5.03252 -0.389883 2.77904e-19)
(0.298169 0.437267 -1.87635e-21)
(5.02132 -0.338577 2.8356e-19)
(0.0572091 0.32383 4.29671e-21)
(0.793675 0.716621 -4.6106e-20)
(4.92407 -0.390595 -3.56257e-19)
(0.265984 0.47809 -9.31341e-22)
(4.86633 -0.352018 -2.29602e-20)
(4.54351 -0.323003 5.26781e-21)
(3.49401 1.4479 4.34968e-20)
(0.36479 0.514581 2.25876e-22)
(0.581182 0.656188 3.37423e-22)
(0.173339 -0.0169915 -1.06635e-22)
(3.98126 1.26561 -3.38213e-19)
(4.86566 -0.351119 8.83399e-20)
(2.31106 2.21985 -1.11127e-19)
(5.05454 -0.327237 7.86223e-20)
(0.033179 0.0108096 6.75837e-23)
(2.90082 2.41096 1.83986e-20)
(0.0913613 -0.0499502 -5.97371e-22)
(2.18437 1.5843 -2.82671e-20)
(3.62164 -0.396648 -1.27881e-19)
(4.50349 0.188615 -1.2317e-19)
(4.99716 -0.331124 -1.94566e-19)
(4.24026 0.26132 4.03913e-19)
(0.0472662 -0.0222268 -9.92208e-24)
(4.93201 -0.330014 2.74727e-19)
(0.468511 0.622776 1.0661e-21)
(0.331418 0.544215 -2.34264e-20)
(4.84497 -0.341737 1.37607e-20)
(4.34804 -0.276057 2.25805e-21)
(0.3259 0.48486 2.33561e-22)
(4.64354 -0.199163 -2.9046e-19)
(2.35663 1.39805 6.96892e-21)
(0.600221 0.508112 4.98053e-20)
(3.26239 1.55102 7.24499e-21)
(4.82746 -0.383808 2.88542e-19)
(0.50671 0.527631 -7.29977e-22)
(4.14763 0.855564 5.41725e-20)
(4.75914 -0.359756 -1.33027e-22)
(5.05415 -0.305922 -4.09125e-20)
(5.03607 -0.313374 -2.89756e-20)
(4.22787 -0.381903 -3.02017e-19)
(0.222053 0.445871 -4.40707e-22)
(4.65205 0.335086 -1.84575e-19)
(0.121294 0.392278 -3.80902e-21)
(3.83882 0.922196 4.10118e-20)
(5.0362 -0.382421 7.66484e-20)
(5.02683 -0.304359 1.63899e-20)
(3.84745 -0.407826 1.50856e-19)
(0.787375 0.94081 -1.40886e-19)
(4.63258 -0.366062 -8.09511e-21)
(1.82237 1.76619 -1.37401e-20)
(2.45633 1.62904 -1.2239e-20)
(0.598133 0.596202 -1.0852e-21)
(3.93513 0.247224 6.20154e-20)
(0.362657 0.417169 -6.42391e-22)
(0.350046 -0.010912 -1.68483e-21)
(0.348719 0.0836271 9.38928e-22)
(2.02027 2.06567 1.5355e-19)
(3.2515 1.98688 1.84334e-19)
(0.28431 0.178865 1.84069e-21)
(5.05332 -0.303064 7.83124e-20)
(0.411479 0.398792 -1.01203e-22)
(0.166425 -0.0938298 -5.4939e-22)
(1.21006 1.35603 -2.97409e-21)
(2.63256 1.40311 3.30778e-21)
(3.76867 1.17951 -5.81624e-21)
(4.56257 -0.373091 1.86248e-19)
(0.439554 0.575963 1.35087e-19)
(4.81543 -0.310901 -1.00039e-19)
(4.47943 -0.364105 -2.79756e-21)
(0.0184827 0.0445646 -1.65145e-23)
(3.71124 1.41536 -8.87156e-20)
(1.36312 1.30691 5.93262e-20)
(0.794629 0.849509 5.22502e-20)
(4.97645 -0.308674 -2.14175e-20)
(4.51821 -0.383362 -2.52045e-21)
(0.394749 0.00780288 6.41577e-22)
(3.25215 0.927265 9.97728e-21)
(0.244594 0.485229 3.33558e-21)
(2.76038 2.46857 -4.9333e-21)
(3.9109 0.0968027 -1.82667e-19)
(4.84671 -0.380011 -4.55541e-20)
(0.13002 -0.0728571 -7.74262e-23)
(0.436642 0.527464 -1.0976e-21)
(4.78841 -0.21495 -9.93112e-19)
(0.41155 0.400278 1.25468e-21)
(4.68156 0.206084 1.52352e-19)
(3.36847 0.116834 -6.60707e-20)
(0.129329 0.159731 2.40802e-21)
(2.741 1.64416 -2.25692e-21)
(0.60791 0.550632 1.38186e-21)
(4.97628 -0.301948 -9.85943e-21)
(3.99603 -0.394924 -6.60321e-20)
(0.190654 0.450025 5.861e-24)
(4.32245 -0.368649 -3.60285e-22)
(0.496055 0.362246 -8.35332e-22)
(0.0996489 0.325784 -5.185e-21)
(4.79187 -0.399461 2.01446e-21)
(0.436692 0.136461 -2.06672e-21)
(0.434107 0.0231603 8.91423e-22)
(4.62793 -0.381533 1.0113e-20)
(4.98263 -0.234489 2.44875e-19)
(0.210398 0.324197 -1.08613e-20)
(0.124947 -0.0546349 -3.44829e-23)
(0.0453735 -0.0063593 -6.88083e-23)
(0.48596 0.0644634 5.65592e-22)
(0.0328738 0.0933181 1.77686e-22)
(0.165014 0.443375 4.10374e-23)
(0.274989 0.505816 2.68507e-21)
(0.471138 0.49289 -2.31444e-22)
(0.00737634 0.125048 -1.48201e-22)
(0.0106378 0.083491 -1.98632e-22)
(0.347415 0.56934 -3.13445e-21)
(0.270439 0.310068 3.13212e-21)
(0.00676089 0.281783 1.19942e-23)
(0.645998 0.582162 -2.24145e-21)
(4.90268 -0.328421 -5.78328e-20)
(0.464732 0.0406626 2.04563e-21)
(4.18642 -0.403337 7.81217e-21)
(0.0117928 0.171359 -2.58406e-23)
(4.13867 -0.379519 -1.49226e-21)
(4.91978 -0.308771 2.58764e-20)
(4.58389 -0.332994 -2.1599e-20)
(3.54662 -0.442032 -3.38907e-21)
(4.76777 -0.400967 -1.99544e-19)
(0.217874 -0.0393831 1.11086e-21)
(0.368939 0.0355775 -3.58936e-21)
(0.083533 -0.027246 -2.9508e-22)
(0.313126 0.452101 2.20619e-21)
(0.0569752 0.0633395 -9.06917e-24)
(0.554592 0.561352 1.13207e-21)
(0.0813162 0.150417 -1.01373e-21)
(0.140304 0.430346 3.60472e-23)
(0.275929 0.435338 -3.17115e-20)
(4.8743 -0.101612 -2.10542e-20)
(0.148432 0.438701 -2.12615e-21)
(4.80241 -0.341035 6.46182e-20)
(0.342073 0.442433 -5.35795e-22)
(0.114817 0.411242 -3.84452e-23)
(3.35666 -0.487764 -3.02168e-20)
(4.41225 -0.350405 -6.93973e-20)
(0.639159 0.64458 1.00193e-20)
(0.00697741 0.221509 -3.81268e-22)
(0.106593 0.243818 9.73702e-22)
(0.0206855 0.250523 7.17862e-23)
(0.315264 0.0175688 1.02394e-21)
(0.233453 0.459906 -2.75645e-22)
(0.00151186 0.267631 5.96287e-22)
(0.387669 0.454156 -6.20244e-22)
(4.99825 -0.32485 -1.68421e-20)
(0.337595 0.280153 -5.3783e-21)
(5.06632 -0.327536 9.20524e-21)
(4.82981 -0.311752 8.91761e-20)
(3.93232 -0.393237 -5.90407e-22)
(3.72309 -0.417017 6.13237e-20)
(4.72805 -0.321158 -3.97766e-20)
(4.32853 -0.37319 -2.09387e-20)
(4.94874 -0.398555 -5.75959e-20)
(1.55913 1.78466 5.03113e-21)
(0.661152 0.818847 -1.84515e-20)
(0.220475 0.0188861 1.36557e-21)
(0.164789 -0.0694938 -1.03409e-21)
(4.47577 -0.3714 3.0212e-20)
(0.262347 -0.0119309 -3.1252e-21)
(3.37936 -0.438663 -1.45807e-19)
(0.00797126 0.292787 6.98173e-23)
(0.1773 0.136987 -3.28275e-22)
(0.084892 0.381448 -1.0953e-22)
(0.358609 0.159725 -1.35591e-21)
(0.463514 0.573297 2.51019e-21)
(4.92494 -0.374464 4.17366e-19)
(0.0700951 0.258042 -2.34848e-22)
(5.04846 -0.326247 3.89726e-21)
(4.91502 -0.271804 -1.14064e-19)
(0.634341 0.732896 -1.45497e-21)
(0.197731 0.453111 2.47045e-22)
(0.0448309 0.324689 1.23973e-22)
(4.41231 -0.35074 9.12121e-20)
(0.066781 0.356647 2.31062e-22)
(0.171433 0.445798 1.37193e-22)
(0.380361 0.544048 -3.04809e-21)
(0.090056 0.0376258 1.89215e-22)
(0.37189 0.56568 1.22144e-20)
(0.102633 0.108445 1.47203e-22)
(4.41596 -0.383489 1.6886e-19)
(0.153641 -0.0965162 2.05219e-23)
(0.220841 0.46059 7.97847e-22)
(0.135602 0.0870275 -5.64173e-22)
(0.527872 0.124657 -1.27264e-20)
(3.11527 -0.394013 -1.16202e-19)
(0.750757 0.77588 1.47192e-20)
(0.709867 0.662416 -2.83465e-20)
(4.17468 -0.334991 -1.37943e-19)
(0.418372 0.0461912 -9.56451e-22)
(0.417739 -0.368182 1.41046e-21)
(0.439728 -0.352596 8.37246e-24)
(0.490914 -0.354836 -1.02158e-21)
(0.527498 -0.356594 5.30806e-22)
(0.567417 -0.359153 -6.3994e-22)
(0.599618 -0.360736 -2.00958e-21)
(0.630883 -0.362067 4.95671e-22)
(0.657245 -0.363262 6.26348e-22)
(0.682277 -0.363047 6.81242e-22)
(0.45088 -0.354905 -1.03151e-21)
(0.47243 -0.346117 -1.34057e-22)
(0.52093 -0.347114 9.02269e-22)
(0.557762 -0.349785 -1.87822e-21)
(0.595421 -0.352215 1.5885e-21)
(0.626972 -0.354338 2.84444e-21)
(0.656393 -0.355892 -1.7974e-21)
(0.681531 -0.357093 2.05113e-21)
(0.70347 -0.357192 -9.63129e-22)
(0.48541 -0.338325 2.87211e-21)
(0.50399 -0.333338 9.10713e-22)
(0.55046 -0.334652 -2.11181e-21)
(0.58659 -0.338341 1.08385e-21)
(0.622493 -0.341133 -2.96472e-21)
(0.653048 -0.34376 -5.06319e-22)
(0.68087 -0.345713 -6.32935e-24)
(0.70458 -0.347202 -9.87711e-22)
(0.724935 -0.3478 -1.83255e-21)
(0.51698 -0.320087 -1.51099e-21)
(0.533344 -0.316431 1.109e-21)
(0.578317 -0.318323 1.78039e-21)
(0.61384 -0.322881 6.57282e-23)
(0.648284 -0.326148 1.33674e-21)
(0.677859 -0.32925 4.33729e-21)
(0.704335 -0.331563 -2.67335e-21)
(0.726877 -0.333301 4.74023e-22)
(0.746244 -0.334094 1.13398e-21)
(0.545926 -0.299444 7.84792e-23)
(0.560593 -0.296088 -4.30324e-22)
(0.604173 -0.298594 1.71212e-22)
(0.639181 -0.30362 -1.04474e-21)
(0.672486 -0.307341 4.56337e-22)
(0.701243 -0.310809 -9.75342e-22)
(0.726725 -0.313411 5.1526e-22)
(0.748493 -0.315345 2.0575e-21)
(0.767428 -0.316059 5.09419e-22)
(0.572091 -0.276125 2.76138e-22)
(0.585515 -0.272584 -2.56848e-21)
(0.627772 -0.275741 1.85559e-22)
(0.662438 -0.280791 2.51136e-21)
(0.694895 -0.284813 -8.3121e-22)
(0.723052 -0.288484 -1.22693e-21)
(0.747866 -0.291284 -3.9526e-22)
(0.769192 -0.293368 -3.70973e-21)
(0.787801 -0.294397 2.14168e-21)
(0.594345 -0.251287 2.89414e-22)
(0.60793 -0.246448 1.89586e-21)
(0.64905 -0.250069 3.43559e-22)
(0.683563 -0.25458 -1.26233e-21)
(0.715411 -0.258639 2.74364e-22)
(0.743188 -0.262278 -6.16874e-22)
(0.767636 -0.265091 1.00746e-21)
(0.788787 -0.267141 -9.77174e-22)
(0.807343 -0.268187 -6.6054e-22)
(0.611684 -0.224929 -8.87065e-22)
(0.628335 -0.217798 1.73419e-21)
(0.668309 -0.221495 -3.94198e-22)
(0.702634 -0.224995 7.94465e-22)
(0.733982 -0.228821 -6.05975e-22)
(0.761563 -0.232191 1.8181e-21)
(0.785917 -0.234811 2.54917e-21)
(0.807172 -0.236716 -3.49386e-21)
(0.826069 -0.237136 1.05399e-21)
(0.625129 -0.193841 -2.17912e-22)
(0.647367 -0.185465 3.61496e-22)
(0.685742 -0.189205 2.32779e-22)
(0.719584 -0.191791 -8.68651e-22)
(0.750473 -0.195291 -2.44228e-22)
(0.778022 -0.19821 -7.79644e-22)
(0.802524 -0.200414 -4.37115e-22)
(0.824163 -0.201826 3.56467e-21)
(0.843401 -0.202203 -4.01678e-22)
(0.636761 -0.156087 4.35464e-22)
(0.664411 -0.148459 -1.37629e-21)
(0.700622 -0.152692 -7.60152e-22)
(0.733898 -0.154965 2.18483e-22)
(0.764551 -0.158169 -2.78697e-22)
(0.792336 -0.160474 1.22525e-21)
(0.817273 -0.161966 1.7744e-22)
(0.83951 -0.162534 2.41423e-21)
(0.859367 -0.161869 -1.10591e-22)
(0.648014 -0.113925 -4.27917e-22)
(0.677889 -0.108249 -1.12322e-22)
(0.71171 -0.113123 5.18932e-22)
(0.744896 -0.115343 8.58081e-22)
(0.77584 -0.118039 -2.59204e-22)
(0.804267 -0.119447 -2.88322e-22)
(0.83001 -0.119888 -7.59876e-22)
(0.853224 -0.119222 -2.77935e-21)
(0.874058 -0.11734 -4.22895e-22)
(0.658164 -0.0715944 7.8308e-22)
(0.686287 -0.0684127 1.29153e-21)
(0.718635 -0.0728268 -1.0051e-21)
(0.752444 -0.0743485 5.41497e-22)
(0.784237 -0.0758232 -9.9076e-23)
(0.813656 -0.0758318 1.69063e-21)
(0.840441 -0.0748192 1.6342e-22)
(0.864738 -0.0726303 -1.38179e-21)
(0.88678 -0.0701789 -1.00112e-21)
(0.664027 -0.0322174 1.92046e-22)
(0.689979 -0.0306984 -2.72017e-22)
(0.722327 -0.0331704 5.16969e-23)
(0.757133 -0.0329141 3.49641e-22)
(0.790031 -0.0322263 -2.36512e-22)
(0.82059 -0.0301757 -3.05385e-22)
(0.848509 -0.0271199 -5.65192e-22)
(0.8739 -0.0230559 1.04968e-21)
(0.897249 -0.0181275 -6.23512e-22)
(0.664024 0.00498065 -2.68345e-22)
(0.690513 0.00598147 -1.35499e-23)
(0.723772 0.00617812 -1.92559e-22)
(0.759609 0.00895829 5.47804e-22)
(0.793562 0.0124769 -1.00117e-22)
(0.825204 0.0170679 -5.83617e-23)
(0.854221 0.0225418 -3.90966e-22)
(0.880723 0.0288027 4.84643e-23)
(0.904916 0.036254 3.61259e-22)
(0.658352 0.0422023 8.57865e-22)
(0.688202 0.0430928 -1.22757e-22)
(0.723206 0.0462951 1.06855e-21)
(0.760054 0.0518248 -1.54974e-21)
(0.794893 0.0584049 1.74763e-22)
(0.82746 0.0657483 5.61902e-22)
(0.857469 0.0738551 3.96199e-22)
(0.885062 0.0826916 5.67947e-22)
(0.910402 0.092562 -1.99232e-21)
(0.646146 0.0821593 3.60491e-22)
(0.682593 0.0824579 -4.37612e-22)
(0.720205 0.0884929 -1.52389e-21)
(0.758085 0.0963888 2.03967e-21)
(0.793694 0.10575 6.97103e-22)
(0.827072 0.115693 -3.67883e-22)
(0.857984 0.126334 -4.33527e-23)
(0.886519 0.137658 1.51858e-21)
(0.912559 0.149493 -6.56362e-22)
(0.630179 0.125463 1.69221e-21)
(0.671725 0.125399 -1.2569e-21)
(0.713333 0.13345 1.4663e-21)
(0.752668 0.14295 -9.96857e-22)
(0.789211 0.154476 -1.06212e-21)
(0.823446 0.166667 4.2471e-21)
(0.855244 0.179641 -2.8001e-21)
(0.884689 0.193385 -1.12785e-21)
(0.912083 0.207042 2.76321e-22)
(0.613539 0.169066 -2.22319e-21)
(0.656078 0.169682 1.74631e-21)
(0.701471 0.179829 -8.08587e-22)
(0.742801 0.190624 1.26582e-21)
(0.780693 0.203923 2.88757e-22)
(0.816059 0.218144 -3.42208e-21)
(0.848916 0.233401 3.13834e-22)
(0.879326 0.249617 -1.62653e-21)
(0.907627 0.266284 -2.06802e-21)
(0.596252 0.210358 -4.53299e-22)
(0.636834 0.212393 -3.98747e-22)
(0.68484 0.225325 -9.05548e-22)
(0.728248 0.237808 -3.6513e-21)
(0.767796 0.252902 8.95231e-22)
(0.804599 0.269087 1.53073e-21)
(0.838813 0.286504 1.75385e-21)
(0.870564 0.304926 2.18073e-21)
(0.900016 0.324277 -1.00048e-21)
(0.577443 0.249078 3.67432e-22)
(0.614935 0.252473 1.05261e-22)
(0.664305 0.268471 3.12215e-21)
(0.709345 0.283181 -2.66036e-22)
(0.750532 0.300305 1.53134e-21)
(0.788858 0.318575 -1.04492e-21)
(0.824518 0.338169 -7.29109e-21)
(0.857673 0.358814 -1.11719e-21)
(0.888692 0.380282 -1.52355e-22)
(0.556261 0.285815 8.62607e-22)
(0.590416 0.289883 -4.22572e-21)
(0.640461 0.308601 2.59537e-21)
(0.686545 0.325897 -3.07695e-21)
(0.729163 0.345297 2.33313e-21)
(0.768955 0.365883 -5.37856e-22)
(0.806081 0.387862 2.13539e-21)
(0.84066 0.410965 1.9037e-21)
(0.872521 0.435635 -6.50825e-22)
(0.532959 0.319858 1.96078e-21)
(0.563071 0.324202 3.93558e-21)
(0.613673 0.345089 -7.03909e-21)
(0.660226 0.365302 8.48599e-22)
(0.703952 0.387159 -6.35154e-21)
(0.745036 0.410221 1.83306e-21)
(0.783656 0.434638 7.12804e-22)
(0.82013 0.460162 -1.04116e-21)
(0.853266 0.488711 -5.07058e-22)
(0.508175 0.348125 -1.41346e-21)
(0.533516 0.354806 -3.32661e-21)
(0.584742 0.377646 3.85256e-21)
(0.631087 0.40126 4.04964e-21)
(0.675422 0.425724 4.40561e-21)
(0.717386 0.451371 -3.0227e-22)
(0.75721 0.478166 -1.45554e-21)
(0.795476 0.506248 4.25017e-21)
(0.830183 0.537972 -1.11767e-20)
(0.481251 0.369156 4.0954e-22)
(0.502034 0.381143 1.81278e-21)
(0.553079 0.405706 -1.11038e-21)
(0.59827 0.432821 2.09778e-21)
(0.642533 0.459869 -4.05111e-21)
(0.684904 0.488273 -1.11761e-21)
(0.725612 0.517443 6.10106e-21)
(0.766096 0.548281 -6.32737e-21)
(0.803688 0.585932 7.10059e-21)
(0.451473 0.385679 7.2846e-22)
(0.471561 0.407881 2.79225e-22)
(0.52259 0.435732 1.1733e-21)
(0.566645 0.465021 -2.42285e-21)
(0.610363 0.493916 6.55484e-22)
(0.651911 0.524128 -3.38753e-21)
(0.692302 0.554516 2.32594e-21)
(0.735831 0.586091 -2.1291e-21)
(0.776034 0.625707 -2.18392e-22)
(0.328437 0.287626 -3.01893e-22)
(0.321552 0.285648 -3.69893e-22)
(0.314278 0.283149 -1.1751e-21)
(0.306241 0.280253 1.66137e-21)
(0.297438 0.276928 -1.25746e-21)
(0.287852 0.273127 9.56531e-22)
(0.277477 0.268789 3.72804e-22)
(0.266328 0.263852 -1.04338e-22)
(0.254435 0.258245 -6.98394e-22)
(0.241852 0.251893 -2.9028e-22)
(0.228654 0.24472 3.23492e-22)
(0.214938 0.236646 -3.55949e-22)
(0.200823 0.227593 9.87261e-22)
(0.186443 0.21749 -2.50034e-21)
(0.171935 0.206264 4.34398e-21)
(0.15745 0.193863 -4.91312e-21)
(0.143139 0.180254 4.37488e-21)
(0.129145 0.165426 -1.9849e-21)
(0.115599 0.149407 -6.5129e-22)
(0.102617 0.132276 6.80782e-22)
(0.0902677 0.114172 -2.34816e-22)
(0.0785342 0.0952907 5.15484e-22)
(0.0672799 0.0759443 3.02405e-23)
(0.056319 0.0565805 -7.19608e-22)
(0.0455325 0.0376068 5.65932e-22)
(0.037027 0.0185721 -2.9918e-22)
(0.032996 -0.00107432 3.9756e-22)
(0.0331778 -0.0215736 3.11773e-22)
(0.0378325 -0.0430726 -3.80817e-22)
(0.0442869 -0.0658399 1.01413e-23)
(0.050445 -0.0895814 -3.36393e-22)
(0.0571938 -0.113412 3.09e-22)
(0.0651273 -0.137127 5.87137e-22)
(0.0743949 -0.160456 -4.85455e-22)
(0.0849715 -0.18299 6.9723e-22)
(0.096802 -0.204514 -1.1514e-21)
(0.109752 -0.224824 9.63883e-23)
(0.123656 -0.243763 2.47251e-22)
(0.138344 -0.261224 -3.80166e-22)
(0.153643 -0.277136 8.51591e-22)
(0.169399 -0.291477 -4.81582e-22)
(0.185466 -0.304259 -2.05429e-21)
(0.201704 -0.315521 4.2149e-21)
(0.217984 -0.325329 -4.48014e-21)
(0.234184 -0.333781 3.87367e-21)
(0.250179 -0.340983 -2.27692e-21)
(0.265838 -0.347049 1.1626e-21)
(0.281045 -0.35211 -4.10398e-22)
(0.295673 -0.356285 3.65763e-22)
(0.309607 -0.359688 -4.06781e-22)
(0.322762 -0.362423 -5.46397e-22)
(0.335122 -0.364571 -1.43908e-22)
(0.346683 -0.366213 3.1135e-22)
(0.357436 -0.367437 7.32141e-22)
(0.367374 -0.368317 -1.10664e-21)
(0.3765 -0.36892 1.43231e-21)
(0.384835 -0.369295 -9.7674e-22)
(0.392411 -0.369468 -3.37463e-22)
(0.399338 -0.36952 -2.38992e-22)
(0.345044 0.25717 -1.4767e-23)
(0.338795 0.255282 2.9067e-23)
(0.332068 0.253305 -9.4957e-23)
(0.324755 0.25115 2.18304e-22)
(0.316844 0.248799 2.51015e-23)
(0.308333 0.246163 -5.39465e-22)
(0.299213 0.24317 9.71672e-23)
(0.28947 0.239756 -2.55032e-23)
(0.279093 0.235843 3.92547e-22)
(0.268093 0.231342 -6.5613e-23)
(0.256496 0.226157 -9.96492e-23)
(0.24435 0.220184 -2.2141e-22)
(0.231727 0.21332 4.72112e-22)
(0.218714 0.205469 -4.59478e-22)
(0.205422 0.196542 4.78673e-22)
(0.191972 0.186466 -1.22329e-22)
(0.178494 0.17519 -2.88016e-22)
(0.165122 0.162686 3.02804e-22)
(0.151983 0.148951 1.72656e-22)
(0.139191 0.134005 2.47576e-23)
(0.126844 0.117882 6.77661e-24)
(0.115034 0.100609 -4.42874e-22)
(0.103898 0.0821649 3.5349e-22)
(0.0937564 0.0624159 -1.10164e-22)
(0.0851274 0.0410239 4.44939e-22)
(0.0788052 0.0179462 -1.89058e-22)
(0.0749736 -0.00637928 -2.47927e-23)
(0.0737838 -0.0312812 9.77408e-23)
(0.075365 -0.0560602 8.96274e-24)
(0.0795549 -0.0801802 -6.34806e-24)
(0.0853421 -0.103715 -7.77029e-23)
(0.0924419 -0.126835 4.0387e-23)
(0.100935 -0.149427 -3.77755e-23)
(0.11073 -0.171335 -1.0719e-22)
(0.12171 -0.192382 7.94894e-24)
(0.133782 -0.212401 4.3224e-23)
(0.146822 -0.231244 1.95417e-22)
(0.16069 -0.24879 -3.66591e-22)
(0.175233 -0.264952 2.50364e-24)
(0.190296 -0.27967 -6.62202e-23)
(0.205725 -0.292912 6.88009e-23)
(0.221371 -0.304671 2.84562e-22)
(0.237087 -0.314965 -5.77141e-22)
(0.252727 -0.323834 -3.49342e-22)
(0.26815 -0.331343 7.0216e-22)
(0.28322 -0.337579 -6.15872e-22)
(0.297814 -0.342649 4.47485e-22)
(0.311815 -0.346683 -8.84398e-23)
(0.325138 -0.349825 -2.01507e-22)
(0.337697 -0.352208 1.77852e-23)
(0.349546 -0.353924 4.21243e-22)
(0.360761 -0.355043 -1.02634e-22)
(0.37132 -0.355651 1.24238e-22)
(0.381217 -0.355858 -5.73189e-22)
(0.390429 -0.355781 8.60251e-23)
(0.39896 -0.355515 2.20377e-22)
(0.40687 -0.3551 -1.51329e-22)
(0.414237 -0.354549 4.42243e-23)
(0.42112 -0.353987 -2.46568e-23)
(0.399997 0.246118 -4.05569e-22)
(0.393638 0.244312 7.9219e-23)
(0.386827 0.242309 -3.52842e-22)
(0.379544 0.240083 -8.66029e-23)
(0.37177 0.237578 1.21959e-21)
(0.363484 0.234746 -3.81717e-22)
(0.354665 0.231544 -7.4018e-22)
(0.345299 0.227919 -8.62962e-24)
(0.335378 0.223809 4.43631e-22)
(0.324904 0.219146 -1.15786e-22)
(0.313896 0.21385 1.20658e-21)
(0.302386 0.20784 -1.4188e-21)
(0.290425 0.201027 1.28209e-21)
(0.278082 0.193325 -1.70285e-22)
(0.265444 0.184653 -1.11657e-21)
(0.252612 0.174936 3.31742e-22)
(0.239701 0.16411 1.31683e-21)
(0.226831 0.152126 -5.35496e-22)
(0.214131 0.138945 -1.21649e-22)
(0.20173 0.124538 2.29096e-23)
(0.189769 0.108877 -3.60136e-22)
(0.178403 0.091927 9.34593e-23)
(0.167836 0.0736375 -8.80025e-22)
(0.158351 0.0539634 1.05481e-21)
(0.150325 0.0329013 -4.10115e-22)
(0.144282 0.0105915 8.93764e-25)
(0.140666 -0.0126645 5.63308e-23)
(0.139662 -0.0364972 -2.65431e-22)
(0.141244 -0.0604887 1.62884e-22)
(0.145085 -0.0841989 8.85122e-23)
(0.150717 -0.107386 2.06001e-22)
(0.157853 -0.129983 -2.07182e-22)
(0.166337 -0.151896 9.54547e-23)
(0.176041 -0.173005 1.38144e-22)
(0.186844 -0.193195 -4.33309e-22)
(0.198632 -0.21236 1.22732e-21)
(0.211281 -0.230395 -7.96511e-22)
(0.22466 -0.247212 -1.86762e-22)
(0.238633 -0.262745 -1.88649e-22)
(0.253055 -0.276945 -6.37075e-23)
(0.267785 -0.289789 -3.16162e-22)
(0.282678 -0.301276 -5.17257e-22)
(0.297595 -0.311425 1.28471e-21)
(0.3124 -0.32028 5.96628e-22)
(0.326965 -0.327902 -1.22516e-21)
(0.341176 -0.33437 -3.87692e-22)
(0.354933 -0.339779 1.256e-21)
(0.36816 -0.344231 -1.45357e-21)
(0.380803 -0.347834 1.02181e-21)
(0.392835 -0.35069 -4.22013e-23)
(0.40425 -0.3529 3.97942e-22)
(0.415008 -0.354564 6.63201e-23)
(0.425091 -0.355764 -6.95442e-22)
(0.434494 -0.356588 -3.35365e-22)
(0.443274 -0.357071 1.08701e-21)
(0.451499 -0.357253 -3.3999e-23)
(0.459186 -0.3572 -3.1774e-22)
(0.466377 -0.356957 9.40784e-23)
(0.473112 -0.356562 -3.5829e-22)
(0.437757 0.239861 -1.06069e-22)
(0.431396 0.238479 5.10661e-22)
(0.424616 0.236913 -2.47141e-22)
(0.417354 0.235084 1.89793e-22)
(0.409602 0.232966 -2.11583e-22)
(0.401344 0.230516 -1.39134e-23)
(0.392568 0.227685 -1.39728e-22)
(0.383267 0.224418 -3.70585e-22)
(0.373441 0.220649 2.48918e-22)
(0.363094 0.21631 3.1888e-22)
(0.352246 0.211321 2.49237e-22)
(0.340925 0.205598 -9.27319e-22)
(0.329177 0.199054 8.50881e-22)
(0.317063 0.191599 -1.77175e-22)
(0.304658 0.183148 1.18193e-22)
(0.29206 0.173617 -5.14683e-22)
(0.279378 0.162932 5.04625e-22)
(0.266739 0.15103 -2.09427e-22)
(0.254284 0.137856 -3.01478e-22)
(0.24217 0.123367 1.66751e-22)
(0.230569 0.107529 -8.89854e-23)
(0.219678 0.0903152 -4.93856e-22)
(0.209725 0.0717156 3.22686e-22)
(0.200978 0.0517458 3.28683e-22)
(0.193738 0.0304748 -2.70333e-22)
(0.188316 0.00806092 3.07487e-23)
(0.184957 -0.0152271 3.11504e-22)
(0.183798 -0.039051 -3.68195e-22)
(0.184863 -0.0630474 1.22645e-22)
(0.188037 -0.0868751 -3.32495e-23)
(0.193101 -0.110285 1.56372e-22)
(0.199845 -0.133111 -3.69821e-22)
(0.20809 -0.155217 2.82371e-22)
(0.217667 -0.17648 -7.34615e-24)
(0.228416 -0.196787 -3.63473e-22)
(0.240186 -0.216036 1.47382e-22)
(0.252825 -0.234132 4.05288e-22)
(0.266177 -0.250996 -1.97225e-22)
(0.280091 -0.266565 -1.59447e-22)
(0.294415 -0.280797 2.938e-22)
(0.308998 -0.293669 -9.84713e-23)
(0.323693 -0.305181 -1.13606e-22)
(0.33836 -0.315357 6.68466e-22)
(0.352869 -0.324237 -6.22764e-22)
(0.3671 -0.331884 2.64284e-22)
(0.380952 -0.338373 -5.39032e-23)
(0.39434 -0.343795 8.4469e-22)
(0.407196 -0.348246 -7.92013e-22)
(0.419474 -0.351825 3.20897e-22)
(0.431145 -0.354632 2.63797e-22)
(0.442193 -0.356759 2.64925e-22)
(0.452616 -0.358295 -3.81661e-22)
(0.46238 -0.359367 -8.7194e-23)
(0.471531 -0.36003 -1.11744e-22)
(0.480149 -0.360301 -1.80884e-22)
(0.488245 -0.360258 1.31904e-22)
(0.495821 -0.35996 -2.39536e-22)
(0.502912 -0.359456 4.88755e-22)
(0.509575 -0.358806 -1.38489e-22)
(0.485339 0.236313 -6.87635e-22)
(0.47902 0.234775 6.83605e-23)
(0.472222 0.233048 6.71762e-22)
(0.464921 0.231082 -4.82284e-22)
(0.457107 0.228836 1.27229e-22)
(0.448772 0.226265 4.19006e-22)
(0.439913 0.223315 -5.38296e-22)
(0.43053 0.219931 2.01431e-22)
(0.420629 0.21605 6.42146e-22)
(0.410227 0.211603 -2.25229e-22)
(0.399347 0.206516 -6.67178e-22)
(0.388023 0.20071 -2.17068e-22)
(0.376301 0.194103 5.64891e-22)
(0.364243 0.186609 5.00728e-22)
(0.351924 0.178144 -1.1817e-22)
(0.339437 0.168626 -6.93248e-22)
(0.32689 0.157978 -1.9984e-22)