/*--------------------------------*- C++ -*----------------------------------*\
  =========                 |
  \\      /  F ield         | OpenFOAM: The Open Source CFD Toolbox
   \\    /   O peration     | Website:  https://openfoam.org
    \\  /    A nd           | Version:  10
     \\/     M anipulation  |
\*---------------------------------------------------------------------------*/
FoamFile
{
    format      ascii;
    class       volScalarField;
    location    "600";
    object      epsilon;
}
// * * * * * * * * * * * * * * * * * * * * * * * * * * * * * * * * * * * * * //

dimensions      [0 2 -3 0 0 0 0];

internalField   nonuniform List<scalar> 
23845
(
0.0409243
0.0597607
0.0610327
0.0147077
0.0420885
0.00241756
0.0743088
0.0113863
0.00198756
0.0257298
0.0233115
0.00205862
0.00378326
0.00222889
0.12084
0.0128516
0.00646236
0.00856369
0.00493664
0.00313799
0.0333098
0.0206617
0.0275781
0.00201151
0.0259543
0.00157965
0.0512047
0.00285438
0.0110135
0.00313273
0.0163176
0.0256764
0.138042
0.00905055
0.00207628
0.00255976
0.0215979
0.00208369
0.00216587
0.00222115
0.00466958
0.0059318
0.00322969
0.00583395
0.00120402
0.00431478
0.0296186
0.0142614
0.0238302
0.0115303
0.0152443
0.0497196
0.0290462
0.00257353
0.0248801
0.00582365
0.0563214
0.0117244
0.0421435
0.037304
0.0112281
0.00625125
0.0112542
0.0136251
0.00185469
0.00379497
0.0543655
0.00107228
0.00108448
0.00606078
0.0111259
0.0451551
0.00197873
0.104379
0.00165486
0.118074
0.00205986
0.00219485
0.0120002
0.00958904
0.0390948
0.0954367
0.0606103
0.0118318
0.0678955
0.00209285
0.080771
0.0304862
0.00181272
0.00824037
0.0148983
0.00597653
0.0117862
0.0025466
0.0120461
0.0131328
0.00566829
0.0159358
0.00161606
0.0334687
0.00670075
0.0589463
0.0502401
0.0145752
0.0138729
0.0122072
0.00245259
0.00149299
0.0470734
0.00570358
0.0207453
0.00210951
0.0926566
0.0209825
0.00267725
0.023538
0.00178251
0.015657
0.011149
0.0139079
0.00214499
0.0184666
0.0063041
0.0233775
0.06276
0.0017075
0.0111328
0.011427
0.0436556
0.0327006
0.061846
0.0381585
0.0274434
0.00229928
0.00846261
0.0471521
0.0137031
0.00203797
0.0450416
0.00220603
0.0124847
0.0055546
0.00221813
0.00628525
0.00930722
0.00533762
0.0186966
0.0882345
0.0208846
0.00970603
0.130044
0.00271457
0.0698917
0.00295602
0.0872958
0.0165801
0.0474061
0.0022667
0.0824728
0.012031
0.00783636
0.117838
0.0124055
0.00189448
0.00263445
0.0120417
0.00230034
0.0167844
0.00297555
0.00519606
0.00236531
0.0159987
0.0019908
0.0195303
0.00198142
0.0117673
0.00679267
0.0217903
0.00144795
0.00223406
0.0337287
0.0297603
0.102155
0.0183748
0.0112792
0.00488372
0.00599285
0.0117273
0.0111407
0.00572321
0.0127469
0.00230824
0.00235141
0.0024683
0.00856488
0.00225839
0.0132126
0.0114728
0.0229585
0.0219925
0.0134529
0.00244676
0.0184069
0.0339487
0.0116058
0.0122048
0.0573047
0.0023031
0.0492626
0.0096775
0.0101817
0.0152726
0.00815182
0.00303751
0.0196145
0.0232377
0.0290117
0.00658178
0.018417
0.0575518
0.0022134
0.112324
0.0134392
0.0139413
0.0054501
0.128478
0.0143312
0.00233687
0.00245751
0.00487661
0.00239476
0.0212012
0.00214028
0.00121155
0.0428377
0.0109066
0.00180682
0.0148386
0.00212275
0.0177621
0.0277362
0.0171593
0.0117771
0.0407966
0.0172892
0.012296
0.00241658
0.00106693
0.011927
0.115052
0.00434332
0.00222247
0.0149957
0.00310543
0.0987496
0.014412
0.0167928
0.0131764
0.00270697
0.00213427
0.0347722
0.00229124
0.0110892
0.0199954
0.0177019
0.00202741
0.011771
0.0283085
0.0211832
0.014004
0.00219357
0.014618
0.016544
0.00243031
0.0183594
0.0023485
0.0129931
0.00240415
0.0219472
0.026647
0.012977
0.00250304
0.0138486
0.010787
0.00213443
0.0144574
0.0201148
0.00242574
0.0119476
0.0982259
0.0117554
0.0190058
0.0129298
0.0129706
0.0118415
0.00211103
0.0182812
0.0024591
0.00212156
0.0118094
0.0878941
0.119814
0.0109167
0.0139105
0.00249531
0.0147209
0.0149225
0.0160739
0.00636369
0.012234
0.0170537
0.0645973
0.0048726
0.00238511
0.0347424
0.0120219
0.0161844
0.0292833
0.0142123
0.00244118
0.0157908
0.0160194
0.029555
0.00311583
0.109974
0.00233588
0.0124386
0.0308705
0.0167648
0.00918193
0.0718384
0.0122359
0.0146496
0.00227341
0.0172824
0.0158348
0.0214676
0.00826586
0.00509001
0.0119263
0.0181758
0.0245304
0.0209158
0.0012943
0.00124952
0.0259206
0.00225355
0.0131231
0.0122143
0.115306
0.0205001
0.059146
0.0114565
0.0138979
0.0295424
0.00232998
0.00475988
0.00205361
0.100206
0.0116138
0.0307726
0.00181368
0.0179816
0.00940874
0.0111142
0.00232746
0.0222516
0.00266835
0.0114454
0.00154297
0.00562432
0.0149948
0.0279653
0.00206002
0.00234398
0.0143676
0.0325385
0.0176012
0.00516147
0.0152778
0.105384
0.00234583
0.0268047
0.00119246
0.0012493
0.00213826
0.00242016
0.0118277
0.0128146
0.0117536
0.0593659
0.00502742
0.0181049
0.0164231
0.0178574
0.0124801
0.0172308
0.00143241
0.00642488
0.0023178
0.0264212
0.0186118
0.0124136
0.0213779
0.0484417
0.108343
0.00225737
0.0219473
0.0122704
0.0132453
0.126242
0.00114263
0.0842131
0.0240971
0.0508677
0.038832
0.0226479
0.0164096
0.00230045
0.0220142
0.0999937
0.00387539
0.00208442
0.0120723
0.0116218
0.0523245
0.0893347
0.0181647
0.0240984
0.0293651
0.00232993
0.00841486
0.0251357
0.00792271
0.00390572
0.00175617
0.00205002
0.00472911
0.011109
0.0225433
0.116597
0.0699197
0.0133038
0.0416597
0.0183217
0.017905
0.00319996
0.0207906
0.00230692
0.0162704
0.0118538
0.00254276
0.0588156
0.00229028
0.00125518
0.0225749
0.0378143
0.0362792
0.0123147
0.00257838
0.0518771
0.0133262
0.0135066
0.0349787
0.00244546
0.00226572
0.00251558
0.0202928
0.00134833
0.116268
0.00303814
0.00233514
0.0169747
0.0118597
0.015969
0.0399287
0.00224942
0.0175288
0.00282024
0.00797389
0.0245478
0.0208067
0.0156563
0.0196519
0.0129328
0.0943457
0.00218767
0.00211632
0.0637133
0.0217864
0.00157338
0.0838358
0.0130497
0.0220351
0.0117288
0.0264478
0.00183974
0.0356145
0.0016989
0.00229097
0.0749029
0.0133718
0.0286017
0.0247178
0.0120842
0.0120727
0.0180169
0.00362223
0.00279499
0.0243933
0.0153853
0.0376966
0.0208881
0.0160711
0.00242522
0.00138903
0.0195438
0.125002
0.0957855
0.00488572
0.0277739
0.00269238
0.0090395
0.0203308
0.00149399
0.078688
0.103706
0.014398
0.0299094
0.0121853
0.0110673
0.118093
0.0325202
0.0269843
0.00619346
0.00373516
0.00267534
0.0188672
0.0267406
0.0123975
0.0645596
0.00256113
0.0244767
0.0250009
0.00806971
0.0238113
0.0199659
0.00331209
0.00294112
0.00314741
0.00288121
0.00210535
0.0224456
0.00330767
0.0115743
0.0667626
0.00479208
0.034697
0.00228159
0.00269775
0.0119835
0.0123086
0.0430567
0.00325258
0.0047943
0.020003
0.0139748
0.00182251
0.011085
0.00321803
0.00142773
0.0797296
0.00503507
0.00247647
0.0147355
0.0325124
0.019029
0.0873809
0.0126859
0.0286015
0.00157909
0.00208046
0.0085717
0.0760325
0.0213829
0.00445428
0.00202671
0.00205523
0.0131073
0.00198611
0.0280621
0.123644
0.0494781
0.0162341
0.0119824
0.00476536
0.00134846
0.00266185
0.00819128
0.00208956
0.0463122
0.00295729
0.0269574
0.107567
0.0189729
0.0319981
0.0133924
0.0278518
0.0857226
0.0156056
0.024796
0.0501612
0.0574067
0.0320222
0.0266604
0.0506675
0.0270245
0.0484236
0.00327165
0.00283953
0.0280295
0.0111909
0.0270814
0.01486
0.0519527
0.0113138
0.00429181
0.0062647
0.00299921
0.0109414
0.00365033
0.00376203
0.0239993
0.00272027
0.00207866
0.103903
0.0512186
0.0148973
0.00162819
0.0157759
0.0418291
0.0119815
0.00285454
0.00341534
0.0370621
0.0310559
0.0358703
0.00300338
0.0303512
0.0575498
0.00261909
0.00217862
0.02559
0.0126604
0.0121264
0.139868
0.0387637
0.0245968
0.015662
0.021614
0.0122321
0.0066157
0.00976115
0.0522346
0.00867699
0.0016239
0.00289476
0.0381317
0.0175443
0.0289323
0.00989018
0.0125244
0.0204628
0.013592
0.0117096
0.0229258
0.0106631
0.0252183
0.0189494
0.00906551
0.0237753
0.00907822
0.00503984
0.00833367
0.00875269
0.0344514
0.00545793
0.0072937
0.0289171
0.0288879
0.0064955
0.00549509
0.0128121
0.0146019
0.0166096
0.0195222
0.0217832
0.0111046
0.0239203
0.0101016
0.0221606
0.008636
0.0173672
0.00798955
0.00834185
0.0087941
0.00693648
0.00592287
0.00619338
0.00407446
0.00583837
0.0187809
0.00206047
0.005261
0.00624927
0.00565838
0.00248688
0.0173662
0.00535387
0.0153313
0.0173397
0.0103318
0.00503205
0.00567716
0.0027361
0.0163146
0.0124464
0.0268822
0.00247328
0.0145378
0.00455333
0.00784012
0.00288007
0.00512762
0.0230179
0.00821878
0.0266614
0.00517098
0.00255714
0.00367013
0.00135887
0.00429504
0.0128321
0.0114436
0.00203615
0.00471545
0.025241
0.0041187
0.00385858
0.00329987
0.0829319
0.00488022
0.00117277
0.0327593
0.00603159
0.0202144
0.0232887
0.0201389
0.020686
0.0182254
0.0241962
0.00516226
0.0106842
0.0148678
0.0190826
0.00962004
0.0119417
0.00759708
0.0583716
0.00680628
0.00371216
0.0209213
0.0190436
0.0264404
0.0184268
0.0160127
0.00346612
0.0445232
0.0195068
0.00857169
0.00597296
0.00786746
0.0163356
0.00237108
0.0168624
0.00398934
0.00421645
0.00589776
0.00419794
0.00383427
0.00553017
0.00538817
0.00846899
0.00509925
0.00444261
0.00501678
0.0387345
0.0102492
0.00363577
0.00744668
0.00638473
0.00492011
0.0265529
0.0158946
0.021561
0.011667
0.00539115
0.00357333
0.00550288
0.00484883
0.0525813
0.0210158
0.0208568
0.009504
0.0036993
0.0106213
0.012106
0.0168089
0.00468531
0.00656962
0.00227992
0.00276494
0.00774589
0.0031123
0.00316736
0.00174037
0.00410683
0.00200982
0.00257774
0.00215206
0.00196511
0.00162583
0.00343456
0.00445908
0.00278377
0.00295367
0.00914875
0.00511372
0.00587825
0.0406039
0.0228193
0.00151414
0.00195933
0.00464549
0.0247822
0.0159229
0.0226311
0.0140201
0.00934515
0.00430059
0.0045404
0.00590592
0.00867665
0.00831966
0.00340255
0.00554408
0.00354287
0.00702429
0.00203628
0.101564
0.00213888
0.0186012
0.00619809
0.027926
0.00342341
0.00475075
0.00707576
0.00518025
0.0135298
0.0108317
0.00552184
0.0153322
0.00342225
0.00382886
0.00238346
0.00232288
0.00197066
0.00185476
0.00509624
0.00484694
0.00364932
0.0179878
0.00374388
0.0173077
0.0188324
0.0184735
0.00575798
0.0143554
0.00534793
0.00219861
0.0073607
0.00179883
0.0114654
0.00396189
0.00191328
0.0164679
0.00366979
0.00250112
0.0148316
0.00341639
0.00898293
0.0187085
0.0111081
0.00524911
0.00962912
0.00369071
0.0077051
0.00357065
0.017898
0.0348475
0.00220436
0.00963609
0.0134221
0.0145126
0.0312431
0.0167875
0.00433458
0.009037
0.00726234
0.00617685
0.133939
0.0192201
0.00567273
0.00494795
0.00297064
0.0238976
0.00500127
0.127239
0.0047025
0.00205147
0.00486978
0.00330649
0.00542529
0.0044329
0.00469713
0.0384319
0.00372419
0.0251412
0.00890289
0.0255443
0.0045039
0.0116551
0.0111071
0.0137953
0.0144806
0.00801565
0.0157021
0.0085366
0.0161063
0.0177651
0.0208697
0.00774233
0.0189355
0.0185941
0.0108423
0.0289591
0.022971
0.016458
0.0234343
0.0035412
0.00687166
0.00838107
0.00600727
0.00277271
0.00545781
0.0137587
0.00590268
0.00340475
0.0159907
0.013569
0.0166252
0.00669118
0.0323931
0.00329165
0.00529135
0.00531729
0.00486313
0.00935024
0.00245667
0.0165924
0.0318114
0.0542824
0.00332141
0.00450344
0.0200423
0.0232881
0.00319678
0.0182472
0.0120259
0.0110847
0.015398
0.0174719
0.00651783
0.018296
0.0235781
0.0206316
0.0273289
0.0277361
0.0294417
0.00352655
0.00824507
0.00809915
0.00442949
0.0129078
0.0156874
0.00502021
0.0262569
0.00341
0.104736
0.00362217
0.00324619
0.0115302
0.00309919
0.00116704
0.00219296
0.00202742
0.00470198
0.00385864
0.00422841
0.00531701
0.0259256
0.0114874
0.00351587
0.0111175
0.00800646
0.0261158
0.0232258
0.0502218
0.0196119
0.00355252
0.00599775
0.00499037
0.00313353
0.00147106
0.00274987
0.033254
0.0266505
0.00934438
0.0134768
0.0107948
0.0150519
0.0170535
0.0219657
0.00429754
0.0302153
0.0209155
0.0252449
0.0201311
0.0164661
0.0173776
0.00893416
0.0152336
0.00524782
0.0134937
0.0104051
0.00581557
0.00918123
0.00810741
0.0073722
0.00470192
0.00463359
0.0120064
0.0225886
0.0253104
0.0033936
0.0186007
0.00340251
0.00257798
0.00691399
0.00205759
0.0121525
0.00662401
0.00580899
0.00560119
0.00594531
0.00511713
0.0303176
0.00293633
0.00313639
0.0243083
0.00641941
0.00153805
0.0117559
0.027476
0.0117108
0.0120333
0.0541856
0.00471273
0.0150531
0.0176716
0.0201651
0.00954758
0.00330679
0.0171958
0.0145721
0.0151433
0.0130916
0.0112353
0.0102074
0.0330082
0.00886737
0.0205058
0.00386355
0.0070112
0.0338051
0.00642806
0.00832545
0.0497626
0.00626445
0.00146666
0.00288634
0.00553141
0.00290873
0.0041877
0.00346095
0.00343092
0.0277374
0.00510115
0.00458508
0.0298688
0.00299158
0.00324136
0.00324013
0.048004
0.00496468
0.0040901
0.0277369
0.00263466
0.00164991
0.00364062
0.00440532
0.00457145
0.0196637
0.00273736
0.00406349
0.0127503
0.022307
0.0269713
0.0183871
0.0143243
0.00350897
0.00755153
0.00525161
0.00600028
0.00348799
0.0274572
0.0080353
0.00317782
0.00307738
0.00946165
0.00815326
0.0277423
0.0127033
0.00351574
0.00472542
0.00330704
0.0256705
0.00746065
0.0021118
0.0224918
0.00375994
0.0127591
0.00333111
0.00232042
0.00291737
0.0106575
0.00469409
0.00430894
0.0205222
0.00333381
0.0255121
0.00790145
0.00294564
0.0163894
0.00437176
0.013434
0.0144635
0.00985714
0.0185138
0.0104248
0.00324115
0.0117855
0.011452
0.00324672
0.00636418
0.00466431
0.00428912
0.00927083
0.00167611
0.00220404
0.0113723
0.00193869
0.00358506
0.0142685
0.00184025
0.00305544
0.0181775
0.00286282
0.00235641
0.0159614
0.0346791
0.0312863
0.00234496
0.00335779
0.0213136
0.00225572
0.00244732
0.0375776
0.0207255
0.0362011
0.00779347
0.0309699
0.00452409
0.00665249
0.0134652
0.0180437
0.00346536
0.0157669
0.0417567
0.0377283
0.00335101
0.00438744
0.00305573
0.00215986
0.00286681
0.00530257
0.00397365
0.129791
0.00879454
0.00477745
0.0246428
0.007796
0.0205002
0.00315783
0.0273877
0.00515486
0.0076453
0.0393088
0.00444971
0.00997828
0.00277662
0.00365646
0.0570679
0.00278415
0.0463267
0.0156092
0.0237496
0.0174038
0.0126879
0.0318459
0.00395831
0.0036637
0.0273584
0.00411568
0.00427779
0.00432372
0.0374689
0.002734
0.00324312
0.00433308
0.0446912
0.00430545
0.00725126
0.00648436
0.00297129
0.0183883
0.00980454
0.0120612
0.0427028
0.00202654
0.0168858
0.00399981
0.0127857
0.00270187
0.0474263
0.00808398
0.00751911
0.00336063
0.0109472
0.015206
0.0068667
0.0195425
0.023437
0.00341744
0.00703571
0.00271855
0.021515
0.0198912
0.0023516
0.0100944
0.00784147
0.0112004
0.0116774
0.0158147
0.00653181
0.0147579
0.0158108
0.0396099
0.0100795
0.0343133
0.00235832
0.0122177
0.00338813
0.00341925
0.0689833
0.03793
0.0221859
0.0023529
0.0346157
0.00754605
0.00627558
0.040603
0.00657461
0.0484185
0.0109362
0.0469262
0.0150357
0.00231723
0.110103
0.0139617
0.0132385
0.0112953
0.0390483
0.0480582
0.00290977
0.00432363
0.143134
0.0353134
0.00333505
0.0458473
0.0484287
0.00459362
0.0356323
0.00440761
0.0400637
0.00748583
0.0120759
0.00196813
0.034566
0.0368086
0.00213828
0.119261
0.0424015
0.00222832
0.013031
0.00374659
0.0212698
0.0323744
0.011759
0.00297116
0.0306056
0.0315217
0.0075915
0.0445651
0.00698032
0.00412825
0.0116351
0.0116985
0.0382969
0.0028739
0.00275169
0.0269788
0.00873967
0.00441691
0.00711755
0.0030978
0.0136012
0.0122931
0.0335828
0.0624685
0.0441238
0.00296771
0.0134312
0.0030262
0.0105565
0.0147128
0.00601967
0.0112016
0.00240023
0.0420668
0.0192021
0.00320047
0.00305928
0.0138769
0.0276224
0.0453628
0.0531005
0.0174119
0.00679512
0.0128107
0.00242852
0.00304166
0.00413316
0.00132824
0.00253362
0.00447851
0.0344147
0.13111
0.00581572
0.00399994
0.00963495
0.0396089
0.0045084
0.014771
0.00779437
0.010952
0.00564031
0.0115528
0.0269368
0.0278554
0.0148013
0.00279469
0.0156828
0.082551
0.0120552
0.00387389
0.0110482
0.0262289
0.0147998
0.00291645
0.00301878
0.00726096
0.012506
0.0135665
0.0131041
0.00226418
0.0143037
0.00401528
0.00268947
0.0570614
0.0125015
0.0340802
0.0140135
0.017557
0.0205859
0.0100668
0.00301876
0.0359433
0.00298368
0.00775304
0.00733408
0.0109347
0.0117428
0.0152342
0.0081758
0.0141453
0.029095
0.0120501
0.0196409
0.00297038
0.0529241
0.00278542
0.00265435
0.0265088
0.0260979
0.0111572
0.0512069
0.0124372
0.00316658
0.024625
0.00296957
0.0308953
0.0375666
0.00282463
0.0186205
0.0509489
0.00600556
0.0441344
0.0187413
0.0328634
0.00801015
0.0454418
0.0430952
0.00307756
0.0098048
0.0458482
0.00302027
0.00278681
0.036302
0.00239187
0.0129283
0.0414322
0.0286386
0.0906964
0.00166507
0.00225206
0.00236684
0.0575284
0.00290729
0.00359628
0.00820601
0.0157897
0.00379545
0.00289594
0.00289963
0.0139522
0.0134437
0.00260696
0.011027
0.002329
0.00241448
0.00245046
0.0762238
0.0231674
0.00254158
0.0029287
0.0210903
0.0314721
0.0038529
0.0165446
0.002498
0.0023716
0.0350909
0.00313405
0.0271744
0.00223627
0.0175166
0.0114261
0.143554
0.0146392
0.0964532
0.0661842
0.00274927
0.045559
0.00310855
0.00292042
0.00650761
0.0245039
0.00291106
0.0145388
0.0249829
0.00416295
0.00392886
0.0165685
0.0512369
0.0128176
0.076258
0.0282685
0.0307855
0.00264403
0.0424159
0.0295152
0.00216151
0.0202264
0.00236103
0.00250377
0.0538708
0.0110352
0.0110723
0.0618075
0.0560348
0.00370616
0.0116547
0.00450373
0.026827
0.0025823
0.0395776
0.0411497
0.00252581
0.0350972
0.00277056
0.00265635
0.00234687
0.0120735
0.0158837
0.101937
0.0378829
0.00365717
0.0586868
0.00251192
0.00250616
0.00215417
0.0316325
0.0119557
0.00238056
0.00730065
0.0627371
0.0155221
0.0164431
0.0028273
0.0117406
0.00367913
0.00402904
0.00564
0.00150765
0.005301
0.00202335
0.00237037
0.113004
0.00422621
0.00725576
0.00259772
0.0115632
0.0128962
0.0352815
0.0014489
0.0125391
0.0311797
0.0102632
0.00287754
0.0365553
0.00247621
0.0287285
0.01367
0.012261
0.00745395
0.00381527
0.0608454
0.048396
0.00275567
0.00379266
0.0546649
0.0436848
0.0226272
0.00601547
0.0325554
0.004297
0.0123521
0.00749447
0.0131619
0.00243111
0.00365564
0.00696312
0.0138325
0.0116755
0.00255718
0.0125769
0.0150755
0.0129667
0.0129049
0.0200824
0.0320653
0.0276453
0.00266684
0.0384617
0.0401045
0.034498
0.00137918
0.0166395
0.0189738
0.0129751
0.043469
0.00216736
0.00283507
0.0308368
0.110043
0.0162659
0.0595457
0.00201134
0.00272678
0.00531451
0.00369556
0.0140853
0.00367964
0.00245344
0.0257715
0.0262127
0.0675414
0.0595534
0.103643
0.0526417
0.0540248
0.0219393
0.0148333
0.0367633
0.00695902
0.0347287
0.00197747
0.020552
0.00210846
0.0658456
0.0117545
0.00673033
0.0119973
0.00259456
0.00718833
0.00690979
0.00275131
0.0125986
0.0026134
0.049707
0.0416234
0.00393233
0.0306187
0.0314291
0.0169991
0.0341488
0.148958
0.0115537
0.0116944
0.0637835
0.0114489
0.0235958
0.00162314
0.0661343
0.00173853
0.0151199
0.0127425
0.00489772
0.0405223
0.0299618
0.001867
0.0122957
0.00365686
0.0725078
0.0305228
0.00774957
0.0963631
0.00633099
0.0265432
0.00373657
0.00713396
0.0605289
0.0187055
0.00872763
0.00269461
0.0034462
0.0142953
0.00413165
0.0838991
0.0139657
0.00835146
0.0631375
0.00208577
0.0113386
0.0104049
0.00269865
0.0263627
0.0666016
0.0373834
0.0245093
0.0147847
0.0613148
0.00277359
0.0169345
0.00232551
0.00250167
0.0133627
0.00219848
0.051445
0.0636115
0.0643021
0.0171524
0.0180014
0.030622
0.0102744
0.00300802
0.00868488
0.00331049
0.0143159
0.00670074
0.00467407
0.00932467
0.125712
0.00236556
0.081733
0.0472644
0.0122621
0.0121673
0.0441788
0.0331778
0.00216497
0.144493
0.00397243
0.00229154
0.00235354
0.135241
0.00358867
0.00251414
0.00308262
0.0349438
0.00437637
0.0117814
0.0072368
0.0109072
0.00909453
0.0029061
0.0274597
0.00432311
0.00482543
0.0318473
0.0022285
0.0103178
0.00408527
0.0425642
0.0138858
0.00241828
0.0234838
0.0349457
0.0649772
0.00422286
0.00261618
0.084659
0.0641383
0.0818036
0.0574346
0.0724189
0.0568889
0.00246949
0.0252402
0.0555362
0.00635423
0.0128263
0.00223818
0.0112905
0.0276041
0.0112721
0.016572
0.0732568
0.0208179
0.00193606
0.0020269
0.00217113
0.0130938
0.01181
0.0173717
0.0283137
0.0568577
0.00816028
0.00259853
0.0587153
0.109446
0.0120045
0.00547447
0.0204305
0.00399962
0.0118129
0.0287256
0.0132257
0.0113807
0.0109654
0.0149422
0.00474616
0.0980549
0.0134334
0.063713
0.0425611
0.0113379
0.0121825
0.0117419
0.0358245
0.00510991
0.0147782
0.0235162
0.00594759
0.0123481
0.00710347
0.0301914
0.013225
0.0296704
0.0571714
0.0529557
0.00658271
0.0507108
0.10709
0.00252502
0.052737
0.00331947
0.0108776
0.042119
0.00236395
0.00384745
0.032988
0.00267093
0.00448323
0.00250685
0.00225859
0.0479212
0.00225848
0.0403563
0.0137589
0.0300481
0.00242356
0.00633906
0.00389872
0.0132865
0.00229325
0.0874573
0.0820059
0.0259466
0.0329909
0.0153759
0.0138208
0.0323475
0.00574458
0.0733681
0.0735072
0.0303562
0.00722526
0.00215137
0.00232429
0.025121
0.0320086
0.00415127
0.00255142
0.004314
0.0151539
0.00251026
0.00741849
0.0104612
0.0137512
0.0179369
0.0075085
0.00571209
0.00330183
0.0595211
0.00607808
0.012467
0.00804989
0.0108509
0.00952232
0.00842299
0.0110424
0.0121838
0.0493433
0.0284493
0.0186216
0.0105275
0.046366
0.00230318
0.0109204
0.00954383
0.00243276
0.00458484
0.0346885
0.0699251
0.00221771
0.0437744
0.0143313
0.0914539
0.0141881
0.0586392
0.00395227
0.0120028
0.0657174
0.00980043
0.0228092
0.0787743
0.0524715
0.00202766
0.021051
0.00231483
0.0427448
0.0281571
0.019409
0.00249252
0.00613856
0.0456857
0.00395015
0.00980845
0.00689691
0.0350648
0.00230132
0.0258455
0.00229841
0.0722686
0.0021827
0.00190854
0.00734903
0.00828466
0.0640201
0.029739
0.00390117
0.00695526
0.00915373
0.00205406
0.0153867
0.00604723
0.0208559
0.0118045
0.0929357
0.00212247
0.00243821
0.0476797
0.064847
0.0199971
0.146819
0.0539887
0.00421049
0.0276162
0.0784742
0.00250712
0.0625513
0.0237912
0.0357593
0.00673317
0.069567
0.00208851
0.0510576
0.00210873
0.0507527
0.0120176
0.00242357
0.0892928
0.00327033
0.0476789
0.0393756
0.0065968
0.00320919
0.0982049
0.129441
0.0081906
0.0294311
0.0620687
0.0019942
0.0162153
0.006472
0.012719
0.00384655
0.00226064
0.012395
0.0738132
0.00464141
0.0443699
0.0262057
0.00255299
0.00212845
0.00214797
0.00240632
0.00715683
0.0167504
0.0196433
0.00631095
0.0504206
0.0115166
0.00343455
0.00379468
0.00243742
0.0797871
0.0492617
0.00224122
0.00953487
0.0250871
0.00836971
0.067534
0.0381733
0.00261538
0.0034478
0.0116571
0.00211338
0.00419074
0.0360737
0.0569118
0.00217208
0.00218537
0.0140245
0.0704042
0.0893501
0.0024061
0.00181813
0.114316
0.0140388
0.00187219
0.00221665
0.0514424
0.0481007
0.106871
0.00697182
0.0606142
0.0165711
0.117968
0.0663593
0.00278356
0.0376599
0.00256297
0.0178032
0.00260152
0.00312611
0.0108417
0.015345
0.00908711
0.024861
0.00169503
0.00745915
0.0134352
0.0422217
0.00623073
0.0855166
0.0283593
0.0389674
0.00278748
0.0973444
0.023148
0.0112035
0.0122869
0.0118535
0.0420376
0.0016836
0.0297092
0.0484162
0.0017493
0.0205225
0.0108776
0.00294613
0.00276596
0.00219629
0.0119341
0.00572172
0.00289781
0.0553644
0.141033
0.00185053
0.055798
0.0627249
0.0916606
0.0234034
0.0317713
0.0735515
0.00227252
0.0229762
0.0166221
0.00204466
0.00475425
0.00245503
0.00190721
0.0041004
0.0264798
0.0109776
0.074715
0.00215994
0.0122862
0.00238083
0.00265414
0.00207413
0.0643719
0.0316059
0.0052766
0.00245642
0.0304867
0.0110441
0.0424238
0.0388548
0.0428911
0.0293072
0.00232042
0.00228189
0.0117139
0.00225894
0.011748
0.00258498
0.0201432
0.0466047
0.0161003
0.0716519
0.00287288
0.00241592
0.0227393
0.0308133
0.0184044
0.0142382
0.0120377
0.0130307
0.130461
0.0902541
0.0346735
0.0769735
0.0148329
0.00208997
0.0105166
0.00807127
0.0422155
0.00230081
0.00268351
0.00750317
0.0355132
0.0148541
0.020424
0.0113152
0.012669
0.00236629
0.0651225
0.0270097
0.0283435
0.00229412
0.141403
0.0667526
0.0360592
0.00167503
0.0719256
0.0178553
0.0155433
0.00202234
0.0161586
0.0070228
0.00259944
0.0130235
0.016023
0.0231443
0.0209311
0.113504
0.0613758
0.00247128
0.0529699
0.00218868
0.011534
0.00691356
0.0393808
0.00250533
0.00219401
0.0781628
0.0109824
0.00227261
0.0755022
0.025992
0.0237596
0.00233779
0.00228165
0.0117996
0.0355665
0.00223163
0.00241992
0.00259971
0.0538238
0.00260668
0.00256939
0.00814326
0.00529553
0.0598007
0.00411535
0.030374
0.0022397
0.0120609
0.0711056
0.0176706
0.0251041
0.01252
0.00226425
0.00209842
0.00199901
0.00271352
0.0346089
0.00473247
0.00301889
0.0530681
0.011833
0.012132
0.0482843
0.0150904
0.0030504
0.00259596
0.00311314
0.0130818
0.017103
0.00182394
0.0446187
0.00955101
0.0868645
0.0732111
0.013986
0.0048583
0.0710597
0.00255634
0.00204919
0.0138352
0.109838
0.0040767
0.00248236
0.013847
0.01683
0.00226878
0.00234333
0.0207979
0.0125821
0.00200906
0.00219967
0.0112959
0.00670748
0.040172
0.00200622
0.126736
0.0686834
0.00237254
0.0774905
0.0115643
0.0391312
0.0433513
0.0628139
0.059997
0.074935
0.0163406
0.00908575
0.00731374
0.00209034
0.002627
0.0115431
0.00930997
0.0396336
0.0734981
0.00228198
0.00202458
0.00237195
0.00219754
0.00224112
0.00233621
0.011486
0.00537209
0.00212513
0.010626
0.00244709
0.00258112
0.00359626
0.00262967
0.0307631
0.0318871
0.0181687
0.0181858
0.0114825
0.0353454
0.00682906
0.0111424
0.00207983
0.0135744
0.00231328
0.0143638
0.0718762
0.0153511
0.0050311
0.00222429
0.00640705
0.041856
0.0383523
0.011691
0.00268931
0.00801916
0.0022213
0.0568173
0.0115298
0.0165615
0.00382674
0.00366708
0.0116824
0.00812963
0.0333143
0.0191949
0.00537859
0.0021377
0.00247931
0.00419322
0.0485569
0.0229981
0.0897073
0.0223306
0.0114286
0.0441834
0.0262006
0.0259595
0.0187619
0.0505088
0.0117325
0.00302561
0.0712534
0.0620548
0.0119392
0.0115124
0.0183034
0.00257492
0.0122783
0.00752178
0.0150508
0.0878392
0.0183687
0.00551365
0.00845196
0.047688
0.0803586
0.00214342
0.0136603
0.0136502
0.00494011
0.00225021
0.00233154
0.00146758
0.00502729
0.00278441
0.00221214
0.131678
0.0110809
0.0513215
0.0558285
0.0137148
0.00227765
0.0230018
0.0240471
0.0179685
0.0100548
0.0133793
0.00224188
0.105418
0.0367444
0.0702799
0.00133042
0.00225393
0.00227019
0.0156845
0.0178938
0.0121667
0.00223257
0.0115413
0.0421205
0.0023806
0.00167593
0.00570385
0.0809407
0.00208428
0.00650032
0.0114601
0.0137062
0.00334656
0.0891371
0.0384433
0.101792
0.0135488
0.0228873
0.0281881
0.00254097
0.0251112
0.134099
0.0132105
0.00694753
0.0134761
0.0538599
0.0203393
0.0155013
0.011626
0.0302319
0.00233203
0.0365794
0.00153833
0.00235556
0.00249861
0.0369555
0.0113291
0.0433013
0.0888315
0.012718
0.0220699
0.00205565
0.0204253
0.00223542
0.00968309
0.0290027
0.0264649
0.00206559
0.00238339
0.0482203
0.0014711
0.0605563
0.00195168
0.0588626
0.0025957
0.0296948
0.00212868
0.0535784
0.012463
0.0337277
0.0593305
0.0253499
0.027048
0.00147609
0.0523449
0.029932
0.0252372
0.020638
0.0123801
0.0243038
0.0291372
0.0023828
0.0317884
0.0473614
0.00683814
0.051545
0.098207
0.00220858
0.0119601
0.00345714
0.0654842
0.00244976
0.00239992
0.00230886
0.0358173
0.127422
0.0283281
0.0128096
0.0194068
0.00217642
0.00922012
0.00366871
0.00617521
0.0023863
0.0105907
0.0098637
0.00957573
0.00263871
0.0732788
0.0756668
0.0020468
0.00613899
0.0345658
0.0408975
0.0274183
0.00246471
0.00219653
0.010887
0.0338882
0.00257077
0.00201179
0.0890901
0.02499
0.00205379
0.00619973
0.0211035
0.02195
0.0387901
0.0341278
0.0284889
0.0111484
0.0101785
0.046897
0.0595915
0.00296249
0.012496
0.0110983
0.00226598
0.00328659
0.0112435
0.00287297
0.0283044
0.0500517
0.00328752
0.0323593
0.102753
0.00356702
0.0157799
0.00391076
0.0349774
0.0211328
0.00922716
0.0119821
0.0883742
0.00997407
0.00624331
0.0117194
0.00655375
0.0819286
0.0439422
0.0468266
0.00973251
0.00647366
0.00353879
0.0112684
0.00184221
0.00161684
0.00979664
0.0201658
0.00390304
0.00861967
0.00947742
0.00237668
0.0450068
0.0113868
0.0118758
0.00216318
0.128805
0.00415568
0.00267517
0.00505369
0.0298282
0.00307947
0.00340875
0.0134743
0.00297814
0.00359987
0.00954933
0.0497879
0.00373784
0.0471135
0.0110566
0.00594745
0.0403093
0.0168237
0.00357722
0.114939
0.0128161
0.0717317
0.00463573
0.0252435
0.00413272
0.0289286
0.134095
0.00322959
0.0176023
0.00942466
0.0118965
0.00221861
0.00225344
0.00460156
0.00250917
0.00324284
0.00349885
0.017973
0.0104626
0.00273904
0.00212738
0.00351446
0.0189946
0.0343541
0.036473
0.0148324
0.00891538
0.136578
0.00254809
0.00241359
0.00444697
0.00244275
0.00245346
0.0198745
0.00403463
0.0052479
0.0276323
0.0113502
0.0109465
0.0409738
0.0430069
0.00260448
0.0653153
0.0128584
0.0226682
0.0271559
0.0188171
0.0171792
0.0373098
0.00322037
0.0152092
0.00252172
0.0125069
0.00175781
0.0398265
0.00669505
0.00374763
0.0135646
0.0314075
0.0279503
0.00240158
0.0217168
0.0294309
0.0172412
0.00158195
0.00551559
0.00708733
0.0208226
0.00762898
0.128304
0.0227033
0.0062513
0.0113607
0.00173309
0.00258981
0.0086443
0.00249129
0.042236
0.0156842
0.00231228
0.00469709
0.0343933
0.00729512
0.0490766
0.0231337
0.0239141
0.00648717
0.00188919
0.024736
0.0763063
0.00263005
0.00184618
0.0112851
0.00195312
0.00280828
0.0241537
0.00685996
0.0459061
0.0254429
0.0546346
0.00704822
0.0232535
0.00215154
0.00211127
0.00271986
0.0319534
0.00136765
0.00119332
0.00155885
0.0131245
0.0111483
0.00168282
0.0278032
0.0628438
0.0373762
0.0024988
0.0241982
0.0957197
0.0340395
0.00264477
0.0146688
0.00351515
0.0593205
0.0018756
0.0119025
0.0305175
0.0341101
0.00217192
0.00323653
0.0138487
0.0381686
0.0493375
0.00462086
0.0501158
0.0016093
0.00258598
0.0303348
0.0140889
0.00289119
0.0437023
0.0128535
0.00235038
0.0114336
0.0296028
0.0117172
0.00194386
0.00230622
0.0283165
0.00983008
0.00227424
0.0273528
0.0651423
0.0391302
0.013549
0.00179328
0.00287815
0.0151874
0.0489614
0.0154244
0.0544322
0.0795446
0.0681175
0.00216316
0.00219718
0.00510653
0.00243975
0.00240988
0.0307019
0.0380476
0.00230773
0.00238542
0.00227857
0.00160335
0.0210179
0.0166966
0.0137983
0.00147239
0.00131662
0.00142925
0.0146797
0.0287994
0.0114385
0.00233057
0.0438938
0.00406235
0.00479523
0.0399444
0.00412424
0.018348
0.0301595
0.00228176
0.0133188
0.00225237
0.01337
0.0118293
0.00946144
0.0637452
0.00228169
0.0260834
0.0334624
0.0142476
0.00437617
0.0753268
0.0855651
0.00234801
0.00208111
0.0115591
0.0134135
0.00625368
0.0344501
0.0720843
0.0141049
0.0199527
0.0823692
0.0286735
0.0112324
0.0489733
0.0435858
0.0731337
0.0436419
0.012416
0.0520168
0.0013279
0.00323271
0.00201076
0.0143401
0.00202595
0.0650831
0.0240839
0.00234936
0.00216981
0.00109924
0.00121951
0.00213355
0.015118
0.0217485
0.0118445
0.0275884
0.0281166
0.0161218
0.00200243
0.00235723
0.0137721
0.0049406
0.00243517
0.00222678
0.00319614
0.0177454
0.00220537
0.0111724
0.00212881
0.00404303
0.0252981
0.0016551
0.0121207
0.0146627
0.0494689
0.0957699
0.00610881
0.00225387
0.00661595
0.006932