/*--------------------------------*- C++ -*----------------------------------*\
  =========                 |
  \\      /  F ield         | OpenFOAM: The Open Source CFD Toolbox
   \\    /   O peration     | Website:  https://openfoam.org
    \\  /    A nd           | Version:  10
     \\/     M anipulation  |
\*---------------------------------------------------------------------------*/
FoamFile
{
    format      ascii;
    class       volScalarField;
    location    "600";
    object      k;
}
// * * * * * * * * * * * * * * * * * * * * * * * * * * * * * * * * * * * * * //

dimensions      [0 2 -2 0 0 0 0];

internalField   nonuniform List<scalar> 
23845
(
0.0798675
0.0968737
0.0728896
0.0482283
0.0928947
0.0255722
0.082908
0.0356105
0.0222647
0.0653162
0.0766495
0.0238974
0.0298409
0.0240592
0.0917074
0.0494695
0.0404368
0.04808
0.0331278
0.0291108
0.068179
0.0733381
0.0648921
0.0222473
0.0707862
0.0187877
0.0762295
0.0276656
0.020786
0.0289258
0.0521686
0.0192248
0.0881298
0.0489605
0.0239935
0.0265397
0.0163986
0.0240345
0.0244316
0.0235584
0.0317892
0.0396183
0.0273998
0.0396755
0.0163132
0.0325076
0.0803081
0.0529645
0.0245058
0.0159442
0.0312436
0.0747577
0.0205054
0.0260447
0.0186137
0.0376135
0.095985
0.0380685
0.0773737
0.0764055
0.0280884
0.0408732
0.0474351
0.0256919
0.0210965
0.0302605
0.077937
0.0151383
0.0153829
0.0364853
0.0321352
0.0643186
0.0210492
0.0889084
0.0196283
0.0922248
0.023902
0.0245935
0.0420518
0.0485633
0.070654
0.0896717
0.0986506
0.0388146
0.0704868
0.024082
0.0884783
0.0201885
0.0208992
0.0439769
0.028011
0.0354308
0.0223211
0.026468
0.0378867
0.028481
0.0375799
0.0555488
0.0194576
0.0855844
0.0403684
0.0794164
0.0980358
0.0117538
0.021503
0.0405108
0.0256356
0.0184864
0.0769296
0.0390666
0.0725437
0.0241701
0.0822348
0.0615469
0.0271092
0.0605577
0.0203532
0.0529886
0.0214769
0.0332781
0.0243407
0.0230297
0.0370369
0.0469301
0.0806989
0.0195842
0.0293515
0.0158647
0.0575886
0.0811303
0.0578948
0.0920203
0.0830893
0.0247142
0.0451865
0.0909293
0.0106812
0.0237865
0.0758044
0.0246247
0.0179707
0.0384935
0.0247143
0.0412504
0.0438758
0.0379419
0.0560358
0.0836954
0.0364701
0.0466332
0.0897516
0.0251209
0.0902279
0.0271103
0.0790612
0.0623942
0.098556
0.0250174
0.0641128
0.0264164
0.0409385
0.0912755
0.0374568
0.0214511
0.0240667
0.0533775
0.0249135
0.0236546
0.0282774
0.0375471
0.0251633
0.0492144
0.0220459
0.0455243
0.021689
0.0401787
0.0374626
0.0709386
0.0182325
0.0248361
0.0867874
0.0822965
0.0898377
0.069099
0.0473718
0.0337023
0.039854
0.037674
0.0190692
0.0387627
0.0233676
0.0244626
0.0245547
0.0256255
0.0422232
0.0239567
0.0171256
0.0194727
0.0140419
0.0735209
0.0579258
0.0249866
0.0362062
0.0898371
0.0376064
0.0374174
0.0692025
0.0250436
0.0807112
0.0508454
0.0510212
0.022069
0.040645
0.0284249
0.0270969
0.0179235
0.0850909
0.0418489
0.0107286
0.0596147
0.0224468
0.0910792
0.0167312
0.0556251
0.0384504
0.0907368
0.0110189
0.0246103
0.0257647
0.0322368
0.0256361
0.0263745
0.0243352
0.0161312
0.0949167
0.0248757
0.0207119
0.0496695
0.0223871
0.0497025
0.0223855
0.0546053
0.0397615
0.094546
0.0245165
0.0493657
0.0254218
0.0152615
0.0389904
0.0916427
0.0331
0.0247735
0.0309939
0.02645
0.0883191
0.0278736
0.0365547
0.0326478
0.0272476
0.0229959
0.0182426
0.0251583
0.0305203
0.0707804
0.0662309
0.022204
0.0412822
0.0472855
0.0610423
0.0477307
0.0245906
0.0465381
0.0308895
0.0250904
0.0694836
0.0244364
0.0318611
0.025016
0.0218602
0.0644565
0.0413064
0.0259556
0.0338235
0.0482058
0.0243136
0.0307018
0.0485961
0.0246812
0.0373255
0.0859348
0.040337
0.0282966
0.0265522
0.0316352
0.0389042
0.0241846
0.0322236
0.0255099
0.0242385
0.0230838
0.0640863
0.0890715
0.0245702
0.0481369
0.0256286
0.0499688
0.0255662
0.0310031
0.0392806
0.016011
0.0305021
0.0914994
0.0336704
0.0252689
0.0653485
0.0172384
0.0307129
0.0853359
0.0268343
0.0235624
0.0221042
0.022936
0.0391986
0.028776
0.0901901
0.025206
0.0441768
0.0777755
0.0369349
0.0498741
0.0812368
0.0526241
0.029937
0.025068
0.0357272
0.0505399
0.0553301
0.0473927
0.0370055
0.0422436
0.0508825
0.0374539
0.0733771
0.0166986
0.0165433
0.0205589
0.0249559
0.030123
0.0431798
0.0849517
0.0557232
0.0562901
0.015414
0.0322551
0.0207206
0.0244753
0.0360414
0.0217576
0.0877108
0.0390315
0.0506618
0.0206642
0.0553929
0.045415
0.020122
0.0249977
0.0419327
0.0270334
0.0221808
0.0185924
0.0389487
0.0263128
0.0310706
0.023903
0.0254113
0.0293093
0.0614723
0.0520992
0.0372693
0.0455418
0.0904962
0.0254434
0.0637097
0.016159
0.0164044
0.0243113
0.0256941
0.041434
0.0576846
0.0391095
0.0792822
0.0369209
0.0270122
0.022916
0.0296145
0.0244355
0.0664541
0.0179535
0.0375103
0.0253031
0.0596474
0.057774
0.035625
0.0531386
0.0858961
0.0911705
0.0248372
0.0288227
0.0206745
0.0341454
0.0920488
0.0156574
0.0858322
0.0404424
0.0993786
0.0669134
0.0638708
0.0660736
0.0250784
0.0592752
0.0642062
0.0323289
0.0229079
0.0430341
0.032614
0.0867919
0.0592517
0.0548618
0.0505223
0.0526648
0.0244351
0.0474409
0.0365953
0.0466315
0.0315351
0.0200164
0.0238508
0.0332023
0.0238742
0.0520226
0.0919927
0.0501274
0.020478
0.0549989
0.0560912
0.030617
0.0292626
0.0638161
0.0251298
0.047721
0.0419751
0.0246078
0.0446045
0.0251455
0.0165563
0.0365862
0.0789319
0.0920183
0.0337746
0.0258889
0.0791832
0.0465864
0.0106824
0.0794153
0.0258359
0.0249265
0.0259126
0.0269126
0.0170692
0.0836926
0.0284371
0.0251301
0.0550533
0.0316171
0.0277808
0.0934408
0.0230476
0.0256201
0.0272967
0.0424201
0.0717153
0.0635668
0.0519112
0.0719163
0.0584406
0.0888201
0.0245818
0.0241967
0.0785323
0.0408627
0.0188665
0.0652316
0.0292782
0.0667593
0.036961
0.0757117
0.0205189
0.062293
0.0200364
0.0251328
0.0886253
0.0193899
0.0422331
0.073082
0.0401653
0.0413986
0.0679698
0.0284952
0.0275938
0.0410162
0.0514838
0.04467
0.0164674
0.0531339
0.0251921
0.0173215
0.060661
0.0837877
0.0774884
0.0360421
0.0158882
0.0263327
0.0493064
0.0311201
0.0179694
0.0843353
0.0894349
0.0280177
0.0651171
0.0235099
0.0255622
0.0723393
0.0884752
0.0660194
0.0377592
0.0289165
0.0265735
0.0352457
0.0786608
0.0429026
0.0709618
0.0256728
0.0624789
0.0627705
0.0413054
0.0611787
0.072607
0.0279456
0.0279544
0.0274597
0.0267624
0.0241536
0.046054
0.0286236
0.0373749
0.0918109
0.036047
0.04446
0.0251058
0.0270404
0.0388719
0.0438162
0.0851409
0.0296218
0.0360317
0.0248801
0.0230291
0.0202973
0.0230177
0.0269151
0.0177164
0.0850429
0.0341805
0.0257611
0.0523574
0.0862329
0.0412366
0.0695669
0.0336766
0.0808256
0.0186075
0.0240117
0.0424398
0.0797079
0.0329472
0.0349585
0.0212776
0.0216783
0.0344325
0.021405
0.0678418
0.0887618
0.0853422
0.0655245
0.0301628
0.0361159
0.0172172
0.0262243
0.0470654
0.0240504
0.0697271
0.0278876
0.0808255
0.0909424
0.0496951
0.0817688
0.0335627
0.0808903
0.0860067
0.0605092
0.0723853
0.0995416
0.0948666
0.0863147
0.0349861
0.0916841
0.0827449
0.100059
0.0294857
0.0271874
0.0818138
0.0283196
0.0784762
0.0601165
0.0985443
0.0555401
0.0305389
0.0413824
0.02568
0.0457805
0.0292786
0.0303325
0.0688191
0.0270124
0.0239998
0.0853176
0.0956235
0.0523488
0.0189027
0.0645307
0.0884384
0.0560723
0.0278984
0.0277017
0.076991
0.084979
0.0713828
0.025994
0.0802211
0.0642191
0.0268507
0.0245521
0.0809223
0.0423013
0.0269864
0.0827082
0.0437883
0.0695165
0.0372162
0.0739575
0.055994
0.0387645
0.0501341
0.100667
0.0466236
0.0189255
0.0252379
0.0931199
0.0565403
0.0817059
0.0440227
0.0583813
0.0704259
0.0608277
0.0565419
0.0777916
0.0540195
0.0807113
0.0673895
0.04767
0.0755458
0.0499021
0.0363547
0.0477964
0.0469098
0.0883658
0.0364998
0.044774
0.0844819
0.078842
0.0422001
0.0378475
0.0591569
0.0630948
0.0670751
0.0724997
0.0762142
0.0551467
0.079183
0.0526378
0.0722994
0.0487001
0.0642147
0.0468687
0.0470788
0.0477529
0.0437036
0.0402841
0.0412424
0.0302647
0.0385311
0.0583881
0.0222382
0.0367609
0.0398257
0.039434
0.025859
0.0665403
0.0383543
0.0643781
0.0683375
0.0530904
0.037167
0.0380831
0.0274194
0.0575093
0.0515089
0.0825217
0.0243499
0.0626137
0.0353841
0.0460796
0.0280539
0.0362503
0.0775981
0.0467413
0.0812394
0.0376215
0.0254642
0.0308775
0.017489
0.0343377
0.0566755
0.0334689
0.0216483
0.0359753
0.0807867
0.0336382
0.0318038
0.0297737
0.0842628
0.0357584
0.016015
0.0866445
0.039124
0.0416094
0.0729218
0.0683764
0.0744174
0.0701435
0.0795106
0.0369975
0.0541398
0.0627965
0.0708378
0.0514513
0.0514164
0.0456995
0.100582
0.0432212
0.0319578
0.0749234
0.0716189
0.0820977
0.0526117
0.0614239
0.0303951
0.0984191
0.0673618
0.047234
0.0405194
0.0465063
0.0300159
0.0245282
0.064564
0.0330856
0.0314925
0.0400545
0.0339117
0.0324483
0.038968
0.0369388
0.0469025
0.0367801
0.0349251
0.0359118
0.08611
0.0526319
0.0310306
0.0449341
0.0416862
0.0351369
0.0825213
0.0626822
0.0727559
0.0538967
0.0376107
0.0306701
0.0375732
0.0357038
0.0988411
0.06736
0.0745332
0.0475126
0.0318648
0.0537928
0.0243331
0.0646516
0.0316412
0.0368789
0.0222368
0.0244768
0.0397822
0.026159
0.0261606
0.0194279
0.0298962
0.0208696
0.0238167
0.0216146
0.0206559
0.0187539
0.0272182
0.0311033
0.024743
0.0252821
0.0426333
0.0373569
0.0400733
0.0635298
0.0776728
0.0182645
0.0217543
0.035316
0.0730549
0.0657406
0.0744644
0.06186
0.0492007
0.0302759
0.0311399
0.0351947
0.0416245
0.0478168
0.0300005
0.0383411
0.0291873
0.038926
0.0237775
0.0897017
0.0243378
0.0615645
0.0402008
0.0841297
0.0307036
0.0341779
0.0382637
0.0332822
0.0497218
0.0456545
0.034286
0.0521362
0.027429
0.0288961
0.0228945
0.0225989
0.020792
0.0201832
0.0344515
0.0364995
0.0316998
0.0618454
0.0315153
0.0619243
0.0618091
0.0704259
0.0349452
0.0508413
0.0337915
0.0219648
0.0389138
0.0198857
0.0466364
0.0293732
0.0204966
0.0535243
0.0283267
0.0234449
0.0633317
0.0298565
0.0488567
0.0591478
0.054913
0.0370632
0.0513428
0.0307378
0.0459447
0.0313475
0.0667793
0.0375547
0.0246958
0.0513805
0.0602952
0.0627204
0.0863131
0.0672306
0.034283
0.0434193
0.0445399
0.0409981
0.0907247
0.0235849
0.0394367
0.0368492
0.027757
0.0667061
0.0361116
0.0927499
0.0357781
0.0210932
0.0329651
0.0267232
0.0378136
0.0348814
0.0338418
0.0936614
0.031932
0.0617923
0.0435433
0.0811125
0.0350175
0.0500164
0.0549013
0.0607689
0.0624008
0.0437834
0.0575517
0.0482506
0.065902
0.0692109
0.0745385
0.045888
0.0688676
0.0702313
0.0506286
0.0838888
0.075459
0.0663484
0.068406
0.0312076
0.0433482
0.0458928
0.0405153
0.0276096
0.0386453
0.0555181
0.0401229
0.0306094
0.0648396
0.0561322
0.0650233
0.0417584
0.0704078
0.0301035
0.0359812
0.0380916
0.0364686
0.0482278
0.0235938
0.0667858
0.0873644
0.0975762
0.0287096
0.0350986
0.072937
0.0782024
0.0296479
0.0586031
0.0565868
0.0543045
0.0632389
0.0577734
0.0386006
0.0694219
0.0783048
0.072389
0.0770466
0.0826038
0.0830732
0.0288734
0.0462178
0.0461401
0.0348009
0.0548307
0.058795
0.0351711
0.0226904
0.0292761
0.0753705
0.0295968
0.0293024
0.0160371
0.0291909
0.0158797
0.0245995
0.0210832
0.0356004
0.0325799
0.0334987
0.0369232
0.0815578
0.027397
0.0311175
0.0546428
0.0427043
0.0755877
0.0695233
0.0954574
0.0720297
0.0312232
0.0395932
0.0369355
0.0287182
0.0182362
0.0269718
0.0865041
0.081783
0.0428665
0.0496095
0.0454305
0.0518107
0.0543757
0.076466
0.0343556
0.0864722
0.0684192
0.0749555
0.0735447
0.0607951
0.0684998
0.0482035
0.0643838
0.0379352
0.0606932
0.0534236
0.0399886
0.0501488
0.0471974
0.0449473
0.0359357
0.0350756
0.0568679
0.060607
0.080999
0.0305287
0.0561069
0.0305414
0.0247413
0.0430994
0.0238879
0.05737
0.0424848
0.0390383
0.0390505
0.0372766
0.0358156
0.0847176
0.0257681
0.0293414
0.063818
0.0410427
0.0186656
0.0567265
0.0835454
0.0524138
0.0245021
0.0718879
0.0345912
0.0581058
0.0622224
0.0731922
0.0502081
0.0301549
0.0679742
0.0583228
0.0640245
0.0597428
0.0553461
0.0527448
0.0314758
0.0492701
0.0640815
0.0325341
0.0438518
0.0834571
0.0383741
0.0456872
0.049718
0.0413875
0.0178
0.0255236
0.0389095
0.0281813
0.0339147
0.0308146
0.0296549
0.0838007
0.0373853
0.0354555
0.0668015
0.028692
0.029845
0.029754
0.0878955
0.0348697
0.0329572
0.0832735
0.0244499
0.0196898
0.0316549
0.0327651
0.0319715
0.0453016
0.0249309
0.0333121
0.0533393
0.0759248
0.0822728
0.069697
0.0620221
0.0303468
0.0452235
0.0378068
0.0402129
0.03075
0.0834163
0.0461883
0.0288703
0.0290932
0.0507379
0.0460282
0.0627154
0.0389878
0.0307516
0.0351485
0.0293933
0.0758854
0.0433337
0.0215198
0.0754142
0.0321686
0.0452301
0.0301529
0.0251505
0.0283503
0.050821
0.0353308
0.031119
0.0710825
0.0300403
0.0744739
0.0451519
0.0265798
0.0648873
0.0340455
0.0566648
0.0594907
0.0486594
0.0657629
0.0520265
0.029822
0.0550526
0.0559338
0.0267167
0.0418221
0.0324336
0.0303454
0.0427251
0.0190449
0.0218747
0.0463933
0.0205099
0.0277879
0.0507235
0.0200064
0.0257009
0.0556867
0.0248963
0.0226137
0.0529945
0.0909582
0.0809126
0.0241702
0.0292072
0.0616137
0.0248497
0.0259897
0.0921324
0.0649637
0.0901773
0.0443118
0.074009
0.0344226
0.0423395
0.0506859
0.0694885
0.0303879
0.0652689
0.0934999
0.0320921
0.0298557
0.0346751
0.0289668
0.0244467
0.0280943
0.0380778
0.033056
0.0914724
0.0490432
0.0361644
0.0800202
0.0432736
0.0738597
0.0294632
0.0634152
0.0355758
0.0428898
0.0881334
0.0324467
0.0517498
0.0276502
0.0302499
0.0568119
0.0276977
0.0911799
0.0630262
0.0782457
0.0446778
0.0441909
0.088168
0.0319766
0.0299978
0.0754912
0.0326093
0.0332583
0.0333105
0.0751576
0.0272122
0.0286873
0.0318882
0.0974744
0.0310039
0.0417176
0.0420992
0.0285263
0.0279858
0.0486232
0.0537038
0.0912475
0.0237254
0.0132468
0.0316675
0.0257473
0.0272788
0.0975397
0.0451108
0.0437948
0.0302301
0.0521033
0.0619914
0.0415542
0.0694633
0.0712337
0.0278213
0.0419934
0.0273318
0.0681449
0.065539
0.0251395
0.050422
0.045125
0.0526791
0.0510768
0.0633378
0.0423812
0.0587469
0.0622037
0.0828634
0.0513951
0.0840537
0.0248288
0.0578203
0.0304417
0.029085
0.0714993
0.0871354
0.0670183
0.0250368
0.0873643
0.0442563
0.0396469
0.0896457
0.0406311
0.0831022
0.0270655
0.0996178
0.0615292
0.0250156
0.0807169
0.0587973
0.0569844
0.0525289
0.0905692
0.0905046
0.0281817
0.0336494
0.0920433
0.0678215
0.0294329
0.0981224
0.0976239
0.0338709
0.0453409
0.0344577
0.0793138
0.04456
0.0476172
0.0214658
0.0846476
0.0700125
0.0243123
0.0897874
0.0840096
0.023679
0.0343163
0.0306119
0.0626618
0.0728177
0.0406016
0.028028
0.0830326
0.0664005
0.0451169
0.0924617
0.0425302
0.0336728
0.0549514
0.0528994
0.0857633
0.0281129
0.0257221
0.0797959
0.0454522
0.034255
0.043858
0.0277074
0.0600735
0.0558644
0.0776088
0.0834792
0.0959184
0.0285443
0.0586079
0.0285832
0.051584
0.0614888
0.0401624
0.0300835
0.0236018
0.089813
0.0147956
0.028695
0.0281453
0.0568957
0.0809202
0.0938012
0.0950494
0.0678058
0.0431578
0.0590219
0.0250946
0.0287277
0.0325585
0.0170788
0.0264174
0.0347309
0.0774827
0.0826942
0.0375073
0.0310286
0.0484908
0.0716622
0.0345135
0.0597932
0.0453004
0.0537038
0.0390933
0.0542838
0.0812524
0.080795
0.0620318
0.0276588
0.0639272
0.0880805
0.0316769
0.0326164
0.0529981
0.0781397
0.0616541
0.0266702
0.0288161
0.0434005
0.0541474
0.0591593
0.0187266
0.0234894
0.0336893
0.0329566
0.02721
0.0826883
0.0558531
0.0900147
0.0599699
0.0641512
0.0690602
0.0473488
0.0278569
0.0837021
0.0285026
0.0453519
0.0445346
0.0523731
0.0406506
0.0627784
0.0440264
0.0615003
0.0757066
0.0332187
0.0707513
0.0268752
0.0909355
0.0276819
0.0269458
0.0817407
0.072358
0.0266848
0.0470398
0.0579038
0.0294256
0.0754742
0.0276593
0.0744777
0.0906535
0.0278234
0.0678699
0.0989542
0.0381351
0.0821532
0.0691739
0.0883178
0.0438667
0.0829509
0.0971248
0.027979
0.048766
0.0606722
0.0277631
0.0263409
0.0799034
0.0256869
0.0535426
0.0965687
0.0738848
0.0718925
0.0195013
0.0241879
0.0250631
0.0534987
0.026765
0.0280252
0.043621
0.0444472
0.0317657
0.0256721
0.0269328
0.0416176
0.0502483
0.0268002
0.051302
0.0253524
0.0257674
0.0238167
0.0881423
0.0766585
0.0264732
0.028331
0.0590378
0.0869611
0.0293525
0.060207
0.0262513
0.0255309
0.0538043
0.0280276
0.0819932
0.0248577
0.0617707
0.0365452
0.0907584
0.0210897
0.0880702
0.0928422
0.0263471
0.0970048
0.0291242
0.0274814
0.0418459
0.0704462
0.0282735
0.0337001
0.0332848
0.033602
0.0327296
0.0535601
0.00349054
0.0487211
0.0849318
0.0830937
0.0686326
0.0269882
0.0963708
0.00240062
0.0244226
0.0571464
0.0253352
0.02612
0.0974946
0.0200378
0.0314224
0.0982245
0.0980033
0.0288919
0.0155332
0.0339482
0.0657192
0.0265824
0.0726511
0.0951341
0.0243812
0.0861752
0.0273807
0.0254471
0.0252117
0.0192241
0.0517837
0.0871907
0.056741
0.0315309
0.0979634
0.0260754
0.025793
0.0244099
0.0832698
0.0363554
0.0253519
0.0419222
0.0963453
0.0317093
0.0660839
0.027255
0.0401556
0.0310329
0.0332358
0.0370701
0.0180317
0.0362142
0.0224169
0.0255805
0.0895592
0.0336892
0.0437898
0.026751
0.0475935
0.0441828
0.0906486
0.0182508
0.0422991
0.0754787
0.0445217
0.0273944
0.040001
0.0233441
0.00234871
0.0434221
0.0395905
0.0441082
0.0323204
0.0868718
0.0808151
0.0262522
0.0319171
0.094667
0.0920201
0.0670751
0.0356441
0.0025905
0.0340618
0.0315356
0.0444958
0.0268524
0.0258953
0.0313441
0.0433972
0.0601702
0.0229956
0.0262957
0.0441962
0.0217319
0.0588585
0.0521325
0.0573835
0.0028581
0.0788451
0.0266841
0.0939324
0.0938612
0.0683163
0.0173902
0.0497535
0.0563498
0.045355
0.0040345
0.0230044
0.0274937
0.0798937
0.0894913
0.0655158
0.0921413
0.0219795
0.0254675
0.0348712
0.0318358
0.0326549
0.0306192
0.0258126
0.0700177
0.0741663
0.0891751
0.0944193
0.0791749
0.0683619
0.0981088
0.0232553
0.049851
0.0930214
0.0389601
0.0031397
0.0210369
0.0544823
0.0241532
0.0554665
0.0257231
0.0428534
0.0566456
0.0237198
0.0432807
0.043175
0.0271776
0.0584248
0.0265872
0.0828554
0.0939988
0.0304217
0.0866568
0.0877097
0.0529148
0.00246991
0.0906458
0.03807
0.0271831
0.0953292
0.0198493
0.0776382
0.019067
0.0532075
0.0195411
0.0327302
0.0485304
0.032534
0.0036683
0.0864635
0.0213063
0.0425484
0.031605
0.088481
0.0681976
0.0396677
0.0868138
0.0411898
0.0627695
0.0285599
0.0438824
0.0926951
0.0131431
0.0443106
0.0246448
0.0278704
0.0605323
0.0334086
0.0697545
0.0609451
0.0434385
0.0923981
0.0240353
0.0342089
0.0458024
0.0268888
0.0736593
0.0655752
0.00339424
0.0499889
0.0414394
0.0892146
0.0270607
0.0547636
0.0252462
0.0261214
0.0466269
0.0236663
0.0634076
0.0953635
0.0913777
0.0467845
0.0677997
0.067175
0.0521904
0.0267268
0.0480063
0.0279903
0.0469536
0.0424941
0.0339274
0.0453668
0.0926903
0.0254817
0.084281
0.00455453
0.0573841
0.0165011
0.004193
0.0690551
0.0244805
0.0856512
0.0297855
0.024962
0.0254665
0.0898423
0.0312107
0.0252916
0.0285027
0.0756364
0.0335343
0.0396752
0.0432032
0.0541415
0.0432804
0.0277816
0.0718697
0.032854
0.0327872
0.0827586
0.0233518
0.052763
0.0310158
0.003777
0.0523608
0.0245542
0.0300089
0.081235
0.0944559
0.0334755
0.0264438
0.0844337
0.0911655
0.0880803
0.0872577
0.0852788
0.0809702
0.0247147
0.0578048
0.0780023
0.0382189
0.0419329
0.0237182
0.0284552
0.0368575
0.0255567
0.0567381
0.0832838
0.0162207
0.0218175
0.023727
0.0245123
0.0354698
0.0414376
0.0269898
0.00249509
0.0781354
0.0430649
0.0264991
0.0917707
0.0748689
0.042545
0.0340278
0.0578551
0.0328856
0.0337635
0.0322418
0.0416159
0.0335632
0.0287687
0.0471035
0.0347368
0.0896321
0.0442211
0.0507441
0.0789483
0.0316226
0.0506463
0.0386579
0.0416298
0.0335371
0.0334323
0.0625341
0.0371349
0.0354169
0.039046
0.00261712
0.0356595
0.0769564
0.0936113
0.00546208
0.0371018
0.0912621
0.0824771
0.0239052
0.0868148
0.0273275
0.053138
0.0959474
0.0252275
0.0323129
0.089574
0.0265414
0.0332039
0.0260647
0.0225076
0.0745518
0.02493
0.0840074
0.0112099
0.0553228
0.0256748
0.0364213
0.0295985
0.0357988
0.0239324
0.0746299
0.0875854
0.0797624
0.0676512
0.0454158
0.0338558
0.0890873
0.0366978
0.0900333
0.00875567
0.0467965
0.0437784
0.0244007
0.024867
0.0779469
0.0703196
0.0321764
0.02616
0.0327521
0.0416668
0.0255837
0.038925
0.0481424
0.0602616
0.0418585
0.0401541
0.0354607
0.0274253
0.0804114
0.0383756
0.0374643
0.0469293
0.0480243
0.0507294
0.0411851
0.0308883
0.0305509
0.00505792
0.00242014
0.0635298
0.0460841
0.0727501
0.0250543
0.0271416
0.0472643
0.0229665
0.0327231
0.0867084
0.0822648
0.0234589
0.0935834
0.0110481
0.0782302
0.0210939
0.0839919
0.029077
0.0351419
0.0552545
0.0509058
0.065832
0.00718766
0.0986086
0.0237442
0.0533335
0.0244338
0.0831023
0.0639761
0.0553005
0.0255803
0.0367559
0.0747056
0.0324632
0.0436944
0.0427041
0.077047
0.0251775
0.0572783
0.0228891
0.0825184
0.0236139
0.0211477
0.0409082
0.0420343
0.0862965
0.0630479
0.0319465
0.0411982
0.0486924
0.0238812
0.0561368
0.0396425
0.0250265
0.0157973
0.088463
0.0242207
0.0248511
0.00458307
0.00537761
0.0266966
0.0887962
0.078094
0.0315259
0.0686199
0.0877567
0.0262864
0.0808573
0.0787807
0.0852089
0.0422504
0.0848825
0.0240574
0.00488002
0.0241608
0.0539367
0.0385169
0.024842
0.0873571
0.027076
0.0472711
0.0823357
0.0378374
0.0274326
0.0895956
0.0814512
0.0428997
0.00281227
0.0965157
0.021942
0.0321488
0.0413602
0.0349725
0.0311001
0.0232373
0.0568931
0.00550584
0.0347863
0.0648892
0.0799358
0.0260419
0.0242578
0.0243503
0.0255859
0.0424266
0.0420777
0.0573494
0.0364193
0.0928724
0.0494272
0.0304192
0.0321393
0.0256368
0.0865481
0.0988416
0.0248082
0.0455003
0.0795622
0.0478204
0.063298
0.0936709
0.0242856
0.0295371
0.0382995
0.0219174
0.0320499
0.058308
0.0862245
0.0244688
0.0245249
0.0201601
0.00553883
0.0648354
0.025196
0.0202535
0.073823
0.0588875
0.0210132
0.0246734
0.0767111
0.0927264
0.0840475
0.0430065
0.0806594
0.053442
0.0897412
0.0058013
0.0253799
0.0938232
0.0254636
0.0135509
0.026672
0.027793
0.0461641
0.0526267
0.0457429
0.0780963
0.0196295
0.0423783
0.0593116
0.0665933
0.0380039
0.0880009
0.00255671
0.0721176
0.0264006
0.00538943
0.060082
0.0274473
0.0292878
0.0523592
0.0961347
0.0198258
0.0743675
0.0745118
0.0202916
0.0482463
0.0531449
0.0263793
0.0263551
0.0246346
0.0348469
0.0383063
0.0280506
0.00528726
0.0920731
0.0207661
0.0802884
0.00584848
0.0890837
0.0586258
0.00294378
0.0659822
0.024972
0.0662179
0.0540979
0.0238307
0.0320742
0.0260111
0.0207817
0.0311507
0.0736595
0.0287346
0.00659145
0.0226465
0.0357117
0.0254443
0.0266165
0.0239839
0.0808101
0.00286528
0.0334439
0.0260205
0.0562495
0.0317379
0.0376398
0.0718661
0.0940409
0.0665217
0.025065
0.0248025
0.0517276
0.0248549
0.0371183
0.026402
0.0575166
0.0752984
0.012525
0.00615282
0.0278143
0.0239337
0.0638235
0.0608379
0.0475357
0.0538004
0.0474452
0.0303439
0.0881408
0.0888847
0.0464997
0.00661312
0.0325478
0.0226083
0.0523293
0.0429668
0.0472392
0.0246054
0.0241154
0.043062
0.0689496
0.0520349
0.0577246
0.0349137
0.0358769
0.02497
0.085277
0.0687925
0.00267952
0.0249889
0.0885918
0.0882986
0.0355448
0.0191754
0.0922859
0.0549798
0.0178927
0.0237128
0.0535532
0.039115
0.026584
0.0582137
0.0107967
0.0730956
0.0178825
0.0902204
0.0485387
0.0260076
0.0571057
0.0246007
0.0357963
0.0380236
0.0715463
0.0261837
0.0246183
0.00563152
0.0287557
0.0248183
0.00458494
0.0625477
0.0763208
0.0250782
0.0247117
0.0364798
0.0029387
0.0234197
0.0252715
0.0245683
0.0953756
0.0256496
0.0262492
0.0405164
0.0336369
0.00564043
0.0303072
0.00265073
0.0238305
0.0163927
0.0604419
0.0549295
0.0647742
0.0173443
0.0249531
0.0216767
0.0216437
0.0264349
0.00354804
0.0335773
0.0285627
0.0792092
0.0322049
0.0368593
0.0957813
0.0183196
0.026874
0.0260411
0.0291247
0.0387121
0.0446875
0.02077
0.0621264
0.0489634
0.0867678
0.0831455
0.0104047
0.0346138
0.0829542
0.0260613
0.0238461
0.0107273
0.0718043
0.0320557
0.024578
0.0438677
0.0518269
0.024534
0.0250193
0.0589707
0.0391152
0.0236425
0.0246694
0.0224588
0.0416501
0.0721187
0.0236277
0.0763589
0.00491765
0.0232377
0.00610062
0.0358312
0.0940062
0.0742473
0.0805471
0.0906962
0.085084
0.0566153
0.0477147
0.0421799
0.024059
0.0267216
0.0373747
0.0457839
0.0507876
0.00530258
0.0249825
0.0221061
0.0245923
0.0238926
0.0242631
0.0248601
0.0554733
0.035396
0.0223227
0.0519331
0.023539
0.0253958
0.0296619
0.0247808
0.0858711
0.0880455
0.0220462
0.0416881
0.0334672
0.0604543
0.0393127
0.0192136
0.0226206
0.0103897
0.0245916
0.0544177
0.0891143
0.049172
0.0333373
0.0234315
0.0405675
0.0349096
0.0943604
0.0393754
0.0263954
0.0447645
0.0246743
0.0845618
0.0343265
0.0557979
0.0286414
0.0304049
0.0554289
0.0436791
0.0699062
0.0595786
0.0344367
0.0234201
0.025359
0.0316805
0.079352
0.0171593
0.0622772
0.0621202
0.0231811
0.0755061
0.0471311
0.0637121
0.054683
0.0727522
0.0165101
0.0282099
0.0698858
0.0863462
0.028496
0.0155037
0.05662
0.0251162
0.0392582
0.0418817
0.0115003
0.0888258
0.0138798
0.0357772
0.0419418
0.0780301
0.0740926
0.0231644
0.0336468
0.0464486
0.0355144
0.0247746
0.0251239
0.0181164
0.0333697
0.0275402
0.0247315
0.0916961
0.0541348
0.0762923
0.079352
0.0197319
0.0243167
0.0592942
0.0617021
0.0199798
0.0466169
0.0453029
0.0248967
0.0728863
0.0695001
0.085206
0.0172974
0.0234024
0.0242143
0.0122154
0.0483577
0.0484565
0.0231713
0.0328187
0.0727977
0.0249405
0.0196516
0.0346648
0.07941
0.0217737
0.0396433
0.0329888
0.0460806
0.0301926
0.0846431
0.0840206
0.0832702
0.053038
0.0251923
0.0563556
0.0256894
0.0703811
0.0931508
0.0458287
0.0424886
0.0104815
0.0786084
0.0156099
0.0468338
0.0384805
0.0703783
0.024779
0.0509148
0.01823
0.0253155
0.0248646
0.0927696
0.0541347
0.0410291
0.0881105
0.036933
0.0594818
0.0220247
0.0589681
0.0248649
0.0443829
0.0024904
0.0627764
0.022874
0.02522
0.0779685
0.0181993
0.0701271
0.0209759
0.0640392
0.0265837
0.0520877
0.0231318
0.0714748
0.0504057
0.0892411
0.0779122
0.0277384
0.0173089
0.0182154
0.0434921
0.0670012
0.0554991
0.0624027
0.048776
0.0625219
0.0736445
0.0250837
0.080134
0.0747823
0.0377134
0.0768012
0.0728897
0.0237268
0.035584
0.0282956
0.0812762
0.0259706
0.0254246
0.0250547
0.0904334
0.09149
0.0447435
0.0517704
0.0568271
0.0235923
0.0473608
0.0280769
0.0378016
0.0255414
0.0529847
0.0516333
0.0475276
0.0243492
0.0830346
0.00485038
0.0225089
0.0366088
0.0729547
0.0500557
0.0721095
0.0241816
0.0245795
0.0255348
0.0883175
0.0266037
0.0236589
0.0619191
0.0798977
0.0220711
0.0386958
0.0612322
0.00742224
0.068809
0.0903852
0.00235915
0.0212667
0.0519195
0.0769246
0.0628444
0.0281804
0.0372061
0.0495348
0.0248833
0.0273963
0.0216683
0.0261991
0.0659366
0.0766233
0.029833
0.0875411
0.0735307
0.0283027
0.0223724
0.0318374
0.0751884
0.0607399
0.0499043
0.0407251
0.0858141
0.0508512
0.03756
0.0402969
0.0394296
0.0847191
0.0412157
0.0550952
0.0455139
0.038369
0.0308319
0.0328503
0.0207551
0.019266
0.0477458
0.0605177
0.0322814
0.0485489
0.0459909
0.0252832
0.0781193
0.035513
0.048262
0.0235414
0.0909879
0.0319071
0.0242553
0.0327857
0.0203034
0.0290099
0.0288025
0.0247226
0.0263615
0.0311268
0.0497326
0.0759296
0.031682
0.0851244
0.0295685
0.0385091
0.0592257
0.0585878
0.0312907
0.0887785
0.0357892
0.0557906
0.0322783
0.0641348
0.0296962
0.0025438
0.0928078
0.0296661
0.0551343
0.0499285
0.0360518
0.0246759
0.0248446
0.034126
0.0242835
0.0277536
0.0308331
0.0264702
0.0492372
0.0264351
0.0242493
0.0293277
0.0143935
0.0708134
0.00477053
0.0573178
0.0490361
0.0908829
0.026389
0.0255135
0.0322617
0.0259553
0.0259629
0.0617902
0.0305013
0.0355152
0.0657095
0.0345135
0.0242549
0.00230014
0.0765711
0.0263812
0.00459737
0.0182047
0.0628821
0.0185304
0.0200406
0.0282859
0.0715292
0.0276157
0.0245632
0.0233876
0.0367745
0.0204982
0.0897351
0.0411151
0.0296995
0.034867
0.0740723
0.0204147
0.0253789
0.0759554
0.0854236
0.057572
0.0184878
0.0365042
0.038153
0.0506511
0.0402627
0.0843737
0.0768953
0.0406419
0.035228
0.0201851
0.0240407
0.0416362
0.0237881
0.0863908
0.0117757
0.0244803
0.0348325
0.0719399
0.0394696
0.0777556
0.0536744
0.0609335
0.0380098
0.0215333
0.0627382
0.0832667
0.026041
0.021024
0.0297994
0.0218005
0.0267524
0.0641519
0.0415275
0.0460362
0.0773008
0.0793843
0.0414772
0.0779424
0.0219425
0.023029
0.0268162
0.0680577
0.0174382
0.0163104
0.0190886
0.0440629
0.0330459
0.0200052
0.0709221
0.0801437
0.0710578
0.0247536
0.0522864
0.0877944
0.0380261
0.0269698
0.0302941
0.0280844
0.0796591
0.0211923
0.0411319
0.0313136
0.0475455
0.0244579
0.0297365
0.0414604
0.00668885
0.00585394
0.0327798
0.0461246
0.0192387
0.0261246
0.0483499
0.0451676
0.0262317
0.0754781
0.0516504
0.0252389
0.0268846
0.0292414
0.0398673
0.0215169
0.024865
0.0738982
0.0472482
0.024449
0.0758631
0.0760459
0.0602933
0.0389875
0.0208139
0.0256611
0.0372834
0.0752365
0.0440282
0.0990388
0.085368
0.0826959
0.024422
0.0245931
0.0335892
0.0242219
0.0244062
0.0189491
0.0708493
0.0251953
0.0256502
0.0250641
0.0192218
0.0643966
0.0128545
0.0371892
0.0182535
0.0172396
0.0181275
0.0106023
0.064497
0.0364136
0.0252877
0.0774738
0.0329798
0.0326061
0.0749569
0.0328132
0.0246041
0.0755946
0.0235566
0.035684
0.0239938
0.028675
0.0315221
0.0440644
0.0804397
0.0248891
0.0692517
0.0395701
0.0481033
0.0318536
0.0832736
0.0852233
0.0253248
0.0227457
0.0305937
0.0108708
0.038483
0.0688208
0.0851327
0.0511026
0.0154398
0.0850344
0.0183665
0.0305628
0.0572412
0.0546714
0.0873522
0.0769058
0.0347681
0.0807263
0.0171187
0.0280985
0.0223958
0.0435927
0.0222882
0.0812916
0.0178921
0.0248281
0.0233772
0.0155555
0.0163554
0.0230578
0.039557
0.058984
0.0413569
0.0668927
0.0565933
0.0414826
0.0221352
0.0237967
0.0382832
0.0330776
0.0255042
0.0247061
0.0274425
0.0134208
0.0246261
0.0193204
0.0242462
0.0326807
0.0248551
0.0194714
0.0426396
0.0377966
0.0767264
0.0867537
0.0395854
0.0249185
0.0385963
0.0387378
0.0710702
0.029815
0.0295477
0.0347928
0.0273892
0.0803602
0.0305321
0.0247601
0.0252756
0.0229551
0.0334399
0.0370303
0.0765329
0.0782416
0.0172386
0.031441
0.0752415
0.0394866
0.0726593
0.0802144
0.0413112
0.0744236
0.0740656
0.067602
0.0450973
0.0196645
0.015555
0.0161163
0.0441266
0.0692812
0.0251586
0.055526
0.0742127
0.0695777
0.0157242
0.0253265
0.0342207
0.0199675
0.0248013
0.0724594
0.0267319
0.0298452
0.0722744
0.0162717
0.0816927
0.07571
0.0302161
0.0170966
0.0305929
0.0590931
0.0737209
0.0150465
0.0148489
0.0175103
0.0885801
0.122175
0.136549
0.141382
0.140565
0.135851
0.128626
0.119903
0.110429
0.100758
0.0912577
0.0821939
0.0737298
0.0659508
0.0588859
0.0525257
0.0468357
0.0417672
0.0372641
0.0332722
0.0878905
0.121237
0.135637
0.140558
0.13988
0.135316
0.12824
0.119657
0.110297
0.100715
0.0912853
0.082273
0.0738435
0.0660856
0.0590319
0.052676
0.0469856
0.0419137
0.0374052
0.0334056
0.0871696
0.120285
0.13469
0.13971
0.139169
0.13476
0.127837
0.119395
0.110158
0.10067
0.0913141
0.0823559
0.0739632
0.0662281
0.0591867
0.0528355
0.0471449
0.0420695
0.0375549
0.0335474
0.0864205
0.119307
0.133713