/*--------------------------------*- C++ -*----------------------------------*\
  =========                 |
  \\      /  F ield         | OpenFOAM: The Open Source CFD Toolbox
   \\    /   O peration     | Website:  https://openfoam.org
    \\  /    A nd           | Version:  10
     \\/     M anipulation  |
\*---------------------------------------------------------------------------*/
FoamFile
{
    format      ascii;
    class       volScalarField;
    location    "600";
    object      nut;
}
// * * * * * * * * * * * * * * * * * * * * * * * * * * * * * * * * * * * * * //

dimensions      [0 2 -1 0 0 0 0];

internalField   nonuniform List<scalar> 
23845
(
0.0140282
0.0141332
0.0078345
0.0142332
0.0184528
0.0243445
0.00832521
0.0100234
0.0224469
0.0149227
0.0226825
0.024967
0.0211837
0.0233732
0.00626385
0.017138
0.0227722
0.0242947
0.0200076
0.0243052
0.0125595
0.023428
0.0137424
0.022145
0.0173752
0.0201109
0.0102136
0.024133
0.00353068
0.0240375
0.0150108
0.00129549
0.00506381
0.0238374
0.0249542
0.0247649
0.00112058
0.0249504
0.0248036
0.0224882
0.019477
0.0238148
0.0209208
0.0242843
0.0198923
0.0220421
0.0195973
0.0177031
0.00226804
0.00198431
0.00576309
0.0101164
0.00130284
0.0237221
0.0012533
0.0218643
0.0147223
0.0111246
0.0127849
0.0140843
0.00632399
0.0240521
0.0179939
0.00436008
0.021597
0.0217163
0.0100556
0.0192348
0.0196381
0.0197674
0.00835355
0.00824535
0.0201524
0.0068158
0.0209531
0.00648311
0.0249616
0.0248014
0.0132625
0.0221352
0.0114921
0.00758295
0.0144509
0.01146
0.00658593
0.0249396
0.00872288
0.00120323
0.0216855
0.0211225
0.00473982
0.0189041
0.00380452
0.0247585
0.0107243
0.00555899
0.0224235
0.0174268
0.0210845
0.0196966
0.0218877
0.00962957
0.0172171
0.000853075
0.00299966
0.0120995
0.0241159
0.0206012
0.011315
0.0240827
0.0228309
0.0249239
0.00656868
0.0162479
0.0247051
0.0140221
0.0209158
0.0161398
0.00372348
0.00716637
0.0248589
0.00258484
0.0195834
0.00847906
0.00933889
0.0202159
0.00696465
0.00198233
0.00683716
0.0181156
0.00487764
0.0199719
0.022641
0.023908
0.0217148
0.0157815
0.000749313
0.0249865
0.011482
0.0247384
0.00232806
0.0240085
0.0247828
0.0243655
0.0186154
0.0242735
0.0151151
0.00714508
0.00573179
0.0201647
0.0055749
0.0209224
0.0104833
0.0223772
0.00644431
0.0211322
0.0184406
0.0248503
0.00448561
0.00522022
0.0192483
0.00636303
0.0101786
0.0218599
0.0197873
0.0212947
0.0242839
0.00300032
0.0241855
0.0244186
0.0240929
0.0136252
0.021972
0.00955038
0.0213672
0.0123469
0.018595
0.0207848
0.0206625
0.0248494
0.0200982
0.0204818
0.00711051
0.0233865
0.0179062
0.020932
0.0238535
0.0108925
0.0029376
0.0236283
0.00385537
0.0233328
0.0230772
0.0239436
0.0187337
0.0228717
0.00199778
0.00297458
0.000772952
0.0221203
0.0224477
0.022965
0.00640953
0.0213959
0.0109671
0.0103243
0.00752135
0.0245088
0.0119012
0.0240427
0.0230103
0.00287008
0.018239
0.02394
0.00336903
0.00124422
0.0224614
0.0239479
0.00056248
0.00555764
0.0204876
0.00664671
0.00187466
0.0199748
0.0244141
0.0057674
0.000762498
0.0233262
0.0243106
0.0191791
0.0246994
0.00295292
0.0249025
0.01933
0.0189279
0.00510627
0.0213682
0.0149634
0.021249
0.0125171
0.00162603
0.0156391
0.0120818
0.0197199
0.00312885
0.0178372
0.0240687
0.0196472
0.0114717
0.00656968
0.0227027
0.0248531
0.00576539
0.0202755
0.00710913
0.00485182
0.00716152
0.00728035
0.024684
0.0222993
0.00086136
0.0248619
0.00755994
0.0225496
0.022302
0.0218858
0.0130303
0.00710854
0.0158312
0.0146415
0.02481
0.0133344
0.0051907
0.0233129
0.0236672
0.0228838
0.00703158
0.023427
0.00195962
0.0140322
0.0118333
0.0242235
0.00743487
0.0193883
0.0249263
0.00586785
0.0105665
0.0226012
0.0104948
0.00676635
0.012457
0.00379162
0.00490742
0.00694424
0.0115034
0.0249359
0.00511193
0.0238168
0.0249228
0.00406099
0.00420545
0.00595952
0.00497698
0.0149919
0.0236902
0.0152654
0.00394216
0.00538185
0.0218217
0.00188587
0.00491001
0.0116645
0.0209401
0.0240939
0.0110625
0.00222466
0.0052455
0.0223813
0.00455995
0.0204682
0.00278476
0.00295549
0.00467899
0.0239183
0.00665687
0.0244795
0.0141208
0.0176353
0.00732349
0.0243814
0.00826783
0.0203693
0.00550598
0.0248774
0.00664714
0.0145177
0.0128346
0.0244556
0.0242135
0.0134666
0.0128199
0.00514673
0.0231681
0.0193895
0.0197125
0.00146757
0.0248726
0.00622303
0.0137384
0.00563296
0.013632
0.00482149
0.00186646
0.00673739
0.00130798
0.0231392
0.0245613
0.0207465
0.00690965
0.0118058
0.00750654
0.0211895
0.0153575
0.0197292
0.00327874
0.0241635
0.00711192
0.0246491
0.00386868
0.020163
0.024275
0.0041556
0.00310687
0.0249618
0.0247939
0.00538105
0.0104521
0.0138791
0.0242199
0.0122181
0.00699403
0.0248369
0.0136284
0.0197072
0.0193864
0.024877
0.0245508
0.0130633
0.02337
0.0117121
0.00952921
0.024403
0.00362715
0.00287782
0.00442012
0.00430593
0.0230665
0.0202522
0.0197096
0.0248608
0.0121192
0.0161406
0.00920139
0.0118877
0.0137079
0.00690477
0.024595
0.00340668
0.0031351
0.00792215
0.00604052
0.0193097
0.00787343
0.00610872
0.0174738
0.0103772
0.0162114
0.0239441
0.0246054
0.0143644
0.00371043
0.0242722
0.0226584
0.0138064
0.00823718
0.0129568
0.00353691
0.0149126
0.00953277
0.00850066
0.0230636
0.0240714
0.00479515
0.0247017
0.0229156
0.0205327
0.0249742
0.0209797
0.00461766
0.0108046
0.00653225
0.0032344
0.00283687
0.00653484
0.015455
0.00471189
0.0240837
0.0176294
0.0246371
0.0125969
0.0133773
0.021433
0.00304444
0.0248471
0.0196546
0.00533646
0.0148283
0.0210055
0.00833682
0.0233949
0.0108776
0.0146573
0.000760386
0.0162273
0.0245657
0.0246808
0.0240229
0.00321227
0.0194479
0.00542197
0.0239555
0.0243399
0.0160697
0.00758602
0.00434963
0.0196803
0.0212533
0.00337017
0.0237781
0.0203103
0.0188562
0.0174783
0.0154908
0.023686
0.0237672
0.00752563
0.0248593
0.0248985
0.00871182
0.00689782
0.0203607
0.00456803
0.00591195
0.0182033
0.0104828
0.0195065
0.0205966
0.00980605
0.0212674
0.0248145
0.00943756
0.00253047
0.00561251
0.0194471
0.0120151
0.0127764
0.0230778
0.0201748
0.0245181
0.006207
0.0155052
0.004764
0.0011684
0.0158103
0.0235516
0.0194402
0.0169454
0.00505461
0.00564178
0.0239296
0.000818003
0.0231792
0.024205
0.00428717
0.0194519
0.0081349
0.0069415
0.00490688
0.0127592
0.00408232
0.00531369
0.0039881
0.0216637
0.014537
0.0207183
0.0201477
0.0237553
0.00592579
0.0208252
0.0133621
0.00701989
0.023161
0.0143534
0.014184
0.0190282
0.0141468
0.0237634
0.0212211
0.0239127
0.0215617
0.0223726
0.0249391
0.00850443
0.022293
0.010862
0.0113631
0.0244038
0.0051273
0.024863
0.0243931
0.0113483
0.0140379
0.0151523
0.0242793
0.0243718
0.00278516
0.00341547
0.0203446
0.0043016
0.0202602
0.0197856
0.00816393
0.020883
0.0241178
0.016743
0.0205844
0.00804253
0.00498461
0.00804599
0.0205566
0.0197338
0.0249419
0.0189113
0.00752049
0.00456892
0.0246928
0.0201046
0.0205795
0.00814076
0.020762
0.014761
0.00573486
0.0132482
0.0238024
0.00683348
0.0246346
0.0197847
0.0232523
0.0243385
0.0249134
0.00944824
0.0236685
0.0218103
0.00691987
0.0117149
0.0188059
0.00757004
0.0211437
0.00776625
0.0211156
0.0190179
0.017778
0.0141094
0.0209392
0.00413206
0.0149314
0.0228017
0.0186081
0.0239165
0.0234279
0.0214922
0.00644989
0.0204667
0.0218883
0.0168228
0.0245385
0.0195573
0.0246022
0.0197891
0.0172398
0.0211354
0.0220108
0.0177608
0.0241412
0.0249388
0.00630508
0.0160673
0.0165557
0.0197508
0.0237564
0.0168285
0.0236171
0.0245394
0.0202219
0.0143944
0.0209277
0.0127848
0.0202478
0.0190829
0.00644952
0.0247743
0.0249022
0.0230308
0.0127205
0.00540505
0.00440169
0.00445178
0.0176824
0.007959
0.0227758
0.0230688
0.0204426
0.0231743
0.0174606
0.0225468
0.0198508
0.0198032
0.0204664
0.0163992
0.0207667
0.0176357
0.0244926
0.0218143
0.0244997
0.0245721
0.0237565
0.0246296
0.0232486
0.0215691
0.0225601
0.0216042
0.0246877
0.0236019
0.0246715
0.0226271
0.0203988
0.0219683
0.0247369
0.0222134
0.0193661
0.024675
0.0234608
0.0245828
0.0245369
0.0243785
0.0242318
0.023999
0.0246477
0.0235907
0.0246859
0.021229
0.0247166
0.0213689
0.0247449
0.0239128
0.0233373
0.024782
0.0246591
0.0247174
0.0202323
0.0228861
0.0163371
0.021601
0.0231178
0.0228423
0.0247339
0.0241998
0.0229459
0.0247288
0.0243299
0.0242393
0.0245527
0.0247066
0.022992
0.0247301
0.0182449
0.0191851
0.0227989
0.0215756
0.0242707
0.0247474
0.0243746
0.0245938
0.0230648
0.0235439
0.0239242
0.0222789
0.0246344
0.0228218
0.02338
0.0202579
0.0247069
0.0225287
0.00880976
0.0207147
0.0247018
0.023271
0.0247257
0.0235924
0.0241774
0.00770535
0.0235809
0.0196826
0.0206248
0.02284
0.00770841
0.02055
0.0208939
0.0240944
0.0242963
0.0235151
0.0238642
0.0246907
0.0238708
0.0236666
0.0247662
0.0199241
0.0247411
0.0155985
0.0247017
0.0247611
0.0241484
0.0242409
0.0229423
0.0135194
0.0212058
0.0239887
0.0195801
0.0209355
0.0234253
0.0247388
0.0247419
0.00496374
0.0228364
0.0222487
0.0246956
0.0211694
0.0244827
0.0246549
0.024714
0.0247127
0.0227912
0.0233777
0.0238761
0.0247104
0.0231362
0.0172287
0.0243248
0.0238356
0.0244023
0.0244954
0.0225837
0.0230814
0.0222475
0.0220958
0.0224083
0.0236148
0.0236919
0.0230892
0.023661
0.0167219
0.0194313
0.0239715
0.0213773
0.0247027
0.0245196
0.00440185
0.0223801
0.0192313
0.018632
0.0195194
0.0195014
0.0183886
0.019788
0.0194465
0.0195187
0.0195869
0.0195036
0.0198047
0.019538
0.0195408
0.0194694
0.0194128
0.0195259
0.0197931
0.0194764
0.0178805
0.0245611
0.0245869
0.00894602
0.0237946
0.0198287
0.0217384
0.0241631
0.0193821
0.024428
0.0220513
0.0245647
0.023313
0.0191827
0.0192213
0.018876
0.0179716
0.0247342
0.0238064
0.023864
0.0216408
0.0194142
0.0249884
0.00713026
0.024924
0.0183385
0.0234668
0.0228103
0.0247835
0.0221294
0.0186228
0.0192449
0.0164454
0.0173186
0.0191599
0.0159558
0.0197856
0.0196269
0.0197923
0.0197875
0.0197435
0.0197667
0.0209609
0.0247371
0.0247824
0.0191372
0.0238761
0.01994
0.0182575
0.0241634
0.0190874
0.0162054
0.0192163
0.0197492
0.0185153
0.0197849
0.0170727
0.0195994
0.0197617
0.015657
0.0196786
0.019779
0.0243386
0.023483
0.0239151
0.0168298
0.0244316
0.0235528
0.0246386
0.0230398
0.0246567
0.0247686
0.0224244
0.00364251
0.0249003
0.0246569
0.0243774
0.0243958
0.0214606
0.0242321
0.0244035
0.0187751
0.0245846
0.0244908
0.00553077
0.00260468
0.0246746
0.0246987
0.0233419
0.0167579
0.0234669
0.00608483
0.024499
0.0195192
0.0200836
0.019438
0.0237201
0.0247026
0.021944
0.0205434
0.0246412
0.0136686
0.019167
0.0231806
0.0245033
0.0193174
0.0244234
0.024092
0.0242011
0.021524
0.0189845
0.024545
0.0242686
0.0242674
0.02396
0.0244777
0.0225422
0.0238742
0.0212772
0.0218709
0.0223093
0.0240727
0.0179712
0.0247521
0.0246107
0.0226169
0.0245926
0.0247433
0.0246274
0.0201621
0.0245458
0.0247666
0.0236622
0.0208987
0.0228882
0.0234546
0.0137731
0.0247778
0.0220205
0.024559
0.024613
0.022388
0.0203934
0.0241937
0.0215938
0.015786
0.0223344
0.0246194
0.0238885
0.0236346
0.0247468
0.016939
0.0239638
0.0239437
0.0233748
0.0171933
0.0205744
0.0237072
0.0234051
0.0228589
0.0195491
0.022141
0.021096
0.021276
0.0233166
0.023657
0.0246077
0.0209622
0.0198322
0.0221765
0.00176476
0.0226211
0.00488147
0.0217652
0.0238054
0.0020075
0.0247451
0.0194466
0.0248349
0.0197321
0.0242589
0.0247575
0.0238847
0.0230767
0.0230911
0.00588067
0.0247867
0.0241713
0.0204996
0.0196898
0.0187298
0.0163294
0.0238092
0.024698
0.0235232
0.0246036
0.0236877
0.020346
0.0238094
0.0202522
0.0225872
0.0176981
0.0164356
0.0172076
0.0160506
0.0156041
0.0239571
0.0247182
0.0222725
0.0201433
0.0200298
0.0241812
0.0202018
0.0243015
0.023407
0.0244902
0.0246802
0.0245692
0.0246866
0.0247471
0.0246526
0.0247284
0.0246634
0.0247184
0.0238966
0.0242418
0.0146352
0.0233294
0.0247172
0.0152316
0.0246729
0.0213701
0.02418
0.0249598
0.024375
0.0245239
0.0236115
0.0245028
0.0210349
0.0225611
0.0213057
0.0203519
0.0247044
0.015079
0.0236167
0.0203871
0.0246353
0.022863
0.0211129
0.00449017
0.00858362
0.0228507
0.0201863
0.0197179
0.0239096
0.0237627
0.0247486
0.0241829
0.0210086
0.0243622
0.024537
0.0245377
0.0245295
0.00270131
0.0246385
0.0180232
0.0246567
0.0246845
0.0185433
0.0206177
0.0225644
0.0044706
0.0246092
0.0194425
0.0203132
0.024633
0.0245731
0.0247197
0.0246922
0.0230689
0.0227862
0.024659
0.0246754
0.0134461
0.0247664
0.0247319
0.0245907
0.0144843
0.0220418
0.0239006
0.0225008
0.0204207
0.0211479
0.0247713
0.0219325
0.020124
0.00939299
0.0204356
0.0245781
0.0200824
0.0232578
0.0225867
0.023777
0.0241691
0.0236204
0.0243745
0.0244958
0.024255
0.0243982
0.0228081
0.0238948
0.0236057
0.0247539
0.0244873
0.0233861
0.0127599
0.0107692
0.0242082
0.0235297
0.0235125
0.0201895
0.0226526
0.0197364
0.0227575
0.02477
0.0144304
0.0245646
0.0245339
0.0247951
0.021811
0.023933
0.0202266
0.0221588
0.0243619
0.0195661
0.0232214
0.0215857
0.0231206
0.023862
0.0215112
0.0220225
0.0216185
0.0210236
0.0233682
0.0246955
0.0231446
0.0245873
0.0197863
0.024735
0.0202976
0.0193223
0.0177211
0.0194758
0.0195393
0.0170335
0.0195282
0.0193846
0.0162286
0.019575
0.0194565
0.0153536
0.0194857
0.0195314
0.0158356
0.0214713
0.0188331
0.0224216
0.0228649
0.0160303
0.0246377
0.0248401
0.02033
0.0183265
0.0202169
0.0226751
0.0159174
0.0235721
0.0242521
0.0171714
0.0240848
0.0239825
0.024317
0.0188425
0.00245682
0.0239398
0.0246642
0.0247131
0.0249034
0.0247787
0.0246093
0.0247487
0.00580203
0.0246143
0.0246382
0.0233857
0.0216181
0.0239497
0.0247408
0.0132152
0.0220971
0.0216549
0.0177842
0.0212938
0.0241548
0.0247812
0.0225231
0.00509014
0.0247992
0.0161514
0.0229035
0.023201
0.0103224
0.0138522
0.0219691
0.0232487
0.0221056
0.0187476
0.0232532
0.0232715
0.0230965
0.013568
0.0243764
0.0228381
0.0211205
0.0191338
0.0200935
0.0216007
0.0245993
0.0246483
0.00383333
0.0217022
0.021521
0.017548
0.0249986
0.000935289
0.0225648
0.00466642
0.0247873
0.0180545
0.0226557
0.0229573
0.0244738
0.0223187
0.0227452
0.0226321
0.0222215
0.0194854
0.0203843
0.0225578
0.0247311
0.0194253
0.0194349
0.0241875
0.0226674
0.0233711
0.022299
0.0201069
0.02283
0.0247489
0.0210469
0.0220253
0.0156014
0.0235857
0.0185308
0.0235261
0.024627
0.0246162
0.0222663
0.00666962
0.0180156
0.0182202
0.0239771
0.0198443
0.02336
0.0225427
0.0178133
0.022599
0.0128368
0.00602852
0.0190327
0.0226612
0.024305
0.00532564
0.0222854
0.0220758
0.0219857
0.0189061
0.0153397
0.024565
0.0235694
0.00532703
0.011723
0.0233778
0.0189001
0.0177114
0.0224771
0.00519252
0.0242445
0.0141315
0.0238722
0.0168987
0.0210708
0.0186562
0.0119852
0.0248789
0.00608381
0.0149803
0.022646
0.00813332
0.0225106
0.0166144
0.0147406
0.0126171
0.0237958
0.020274
0.0125885
0.0241319
0.0172652
0.0233218
0.0247192
0.0233576
0.0215286
0.0172855
0.0247504
0.0216399
0.0212413
0.0212744
0.0239096
0.0243226
0.0223039
0.0238798
0.0228482
0.0161417
0.0100401
0.0187661
0.0247092
0.0230165
0.0242978
0.0226857
0.0231281
0.0241162
0.00727141
0.0208872
0.0172576
0.00102602
0.0231549
0.0233042
0.0209947
0.0213351
0.0174566
0.0153124
0.0237646
0.0246698
0.0244734
0.0233379
0.0244193
0.0230828
0.0197644
0.0247902
0.0242405
0.0157003
0.00469415
0.0217706
0.0216628
0.021964
0.0116689
0.0237792
0.0217839
0.0236955
0.0237005
0.0243862
0.0229561
0.0220581
0.0210912
0.0233977
0.0246364
0.0234526
0.00845825
0.00749123
0.0247153
0.0228808
0.0209511
0.0231159
0.0219503
0.0247561
0.0233474
0.0210999
0.0232177
0.00240852
0.0219319
0.00714133
0.024345
0.0247761
0.0107842
0.0224582
0.0213977
0.0230974
0.0210961
0.0208511
0.0200434
0.0231355
0.0175427
0.0245053
0.023876
0.0243384
0.0225762
0.012665
0.0232832
0.0213373
0.024065
0.0177293
0.00824166
0.0229377
0.0218844
0.0140623
0.0247596
0.0246189
0.0226845
0.0180555
0.00574399
0.00388906
0.0242624
0.0246095
0.0208192
0.0231862
0.0161585
0.0196884
0.0246661
0.0222642
0.0172972
0.0217941
0.013763
0.0229789
0.0213613
0.0216208
0.0136279
0.0197003
0.0228929
0.0218292
0.00722603
0.0229685
0.0224077
0.0158286
0.0248273
0.0199572
0.0202571
0.0171554
0.00512885
0.020556
0.0233807
0.0238859
0.00447761
0.0221762
0.0196556
0.020869
0.0112605
0.0239275
0.0204822
0.0225144
0.0111725
0.0169031
0.0247962
0.021481
0.0248377
0.0247492
0.0208332
0.00917321
0.0228289
0.0248172
0.0246656
0.0148737
0.0216255
0.0201254
0.0197188
0.0248286
0.0247362
0.00742477
0.0225583
0.0222658
0.0248679
0.0196046
0.0105198
0.00516416
0.00273442
0.00723743
0.0117214
0.0227243
0.0185889
0.024558
0.0232743
0.0242174
0.0182273
0.0247145
0.00703031
0.00399109
0.0244102
0.024539
0.0155827
2.14015e-05
0.0166675
0.0085133
0.0219824
0.0137707
0.0247927
0.0197063
1.75729e-05
0.0248353
0.0145312
0.0244674
0.0245242
0.01588
0.00327463
0.00802567
0.0140488
0.0154264
0.0202708
0.00186323
0.0230306
0.0144896
0.0246277
0.0120026
0.0197947
0.0211813
0.019043
0.0243535
0.0219398
0.0243758
0.00275488
0.0151941
0.00671196
0.00764881
0.0244664
0.0147174
0.0243613
0.0238911
0.0248941
0.019728
0.00994957
0.0242988
0.0216655
0.0133162
0.00582995
0.0239029
0.0236463
0.0123607
0.0235582
0.0246748
0.0219286
0.0194096
0.022266
0.0223524
0.0248452
0.00638805
0.0241699
0.0237851
0.0247931
0.0176302
0.0136235
0.0209613
0.0206904
0.0128422
0.0164444
0.0173821
0.0234718
0.00393943
0.0198065
1.72818e-05
0.0124135
0.0115053
0.0234907
0.0246417
0.0111628
0.0121456
0.0225085
0.0241738
0.0147547
0.0174452
0.0178952
0.0190085
1.85518e-05
0.0243004
0.00724608
0.0237761
0.0049305
0.0248245
0.0241874
0.0243423
0.0235561
0.00407623
0.0243362
0.0139777
0.00281947
0.0240453
0.0189542
0.0147571
2.29278e-05
0.0202381
0.0240298
0.0206464
0.0197707
0.0121758
0.0197346
0.013389
0.0150617
0.0142686
3.3701e-05
0.0219752
0.0239964
0.0186294
0.00654998
0.0237496
0.0128322
0.0216169
0.0214075
0.0205927
0.0246828
0.00681358
0.022931
0.0244417
0.0171205
0.0188862
0.0105964
0.0134728
0.00544349
0.0079899
0.0160349
0.00221853
0.0150783
0.0211833
0.0196306
2.55464e-05
0.0201417
0.0129986
0.0249016
0.00420511
0.00506623
0.0245571
0.0240709
0.0195165
0.0234533
0.0242797
0.0241614
0.0243846
0.0243435
0.0124299
0.0191051
0.0211816
0.022073
0.0220295
0.0148242
1.60779e-05
0.00496449
0.0112898
0.0056867
0.0128229
0.0030972
0.0229911
0.020158
0.00385266
0.0197678
0.00637663
0.0166347
0.0194502
2.98867e-05
0.0224564
0.0218834
0.0132512
0.0245836
0.00971757
0.0137137
0.0182742
0.00703898
0.0241185
0.0133594
0.0196464
0.0242936
0.012776
0.000831131
0.020247
0.0202861
0.0202856
0.0230686
0.0243128
0.0052195
0.0239363
0.0203344
0.0121697
0.0249274
0.00928885
0.018146
0.0241122
0.0185229
0.00581083
2.77363e-05
0.00917612
0.0104534
0.0116829
0.0237617
0.0159387
0.0246669
0.0245473
0.0146427
0.0229287
0.00703366
0.0128668
0.0116869
0.0114848
0.0229823
0.0132625
0.0238598
0.0213724
0.0238822
0.0212993
0.01386
0.0242536
0.0221639
0.0198649
0.00615085
0.0247039
0.00782176
3.94999e-05
0.0241691
0.00201407
3.58161e-05
0.0129356
0.0249134
0.00456944
0.0201
0.0244722
0.0248005
0.0053715
0.0244296
0.0228985
0.0237189
0.0147345
0.0231264
0.0120249
0.0232128
0.0241874
0.0185373
0.0239026
0.0169292
0.022471
0.0200501
0.0193551
0.0220227
0.0242837
0.0211928
3.01643e-05
0.0177699
0.0224382
0.00345124
0.0169955
0.0123578
0.0238831
0.024056
0.00757882
0.0116624
0.00853547
0.011931
0.00903801
0.0103721
0.022261
0.0119145
0.00986009
0.0206888
0.0123382
0.0226209
0.00645435
0.00442916
0.00521491
0.0174831
0.00852148
0.00113748
0.0221275
0.0249974
0.0249073
0.00864758
0.0130852
0.00377398
1.97887e-05
0.00966381
0.0204543
0.0243207
0.0129092
0.00460939
0.0135705
0.0190357
0.0147451
0.0243353
0.00868527
0.00325696
0.0117853
0.00890844
0.00679298
0.013364
0.0228813
0.00737395
0.0131013
0.00363736
0.01318
0.0079379
0.0189497
0.0114546
0.00435383
0.0198097
0.00680697
0.0149661
0.0208673
0.00914248
0.0193164
2.04178e-05
0.00865361
0.0179643
0.013795
5.07044e-05
0.0188204
0.0147817
0.00571689
0.0203685
0.0128622
0.0202476
0.0233626
0.0196712
0.02423
0.0244243
0.0218902
0.0237371
0.0221324
0.0243905
0.0201867
0.0104383
0.0247667
0.0157386
0.000821983
0.00916716
0.0244796
0.0188334
0.0202237
0.00868103
0.0224783
0.00573155
0.00841901
0.0220678
0.0124853
0.0120731
0.00746404
0.0220817
0.0210991
0.00994355
9.38625e-05
0.00649264
0.0238731
0.0249076
0.0239442
0.0217672
0.0139036
0.0224459
0.0241399
0.022379
0.010311
0.0234667
0.0183817
0.0199397
0.0237676
0.0087915
0.0193264
0.0198126
0.0205017
0.00977704
0.0218065
0.0101325
0.024623
0.0191294
0.0243231
0.0181241
0.00777615
0.00689459
4.66615e-05
1.8529e-05
0.0195066
0.0181559
0.0102733
0.024529
0.00607122
0.0210662
0.0195134
0.0210197
0.0195065
0.00871039
0.0223333
0.0180061
0.000766533
0.00602266
0.00282249
0.0108275
0.0192528
0.00925999
0.00418117
0.0237975
0.0171004
5.90246e-05
0.0166782
0.0250242
0.0121611
0.0232116
0.0145407
0.0130825
0.0141807
0.0236274
0.0198075
0.0109943
0.0240111
0.0175183
0.0237973
0.0152364
0.0247909
0.0114245
0.0205151
0.00847996
0.0229924
0.0210897
0.0204943
0.0191944
0.0104692
0.0120298
0.0235447
0.0219627
0.0233114
0.0249887
0.0184328
0.0233889
0.0027028
0.00190265
0.00757851
0.0248758
0.0227961
3.9648e-05
4.01357e-05
0.00320767
0.00483336
0.0101666
0.0212444
0.0153454
0.00883235
0.0248044
0.00940685
0.0234782
0.0182736
0.0238607
0.00932129
0.0249403
4.19784e-05
0.0249141
0.00515884
0.0111103
0.0229171
0.0076917
0.0201754
0.00421801
0.015495
0.0195322
0.0211048
0.00735669
0.0046128
0.0202225
2.41852e-05
0.0135072
0.0217283
0.00573652
0.0237886
0.0086545
0.0226304
0.0214972
0.0235026
3.6962e-05
0.0234643
0.00854081
0.0219447
0.0239077
0.0248818
0.0248442
0.0244845
0.0226359
0.00951308
0.0150691
0.0189152
0.015396
0.0190921
0.0242477
0.0244985
0.0242683
0.00844939
0.0178489
0.0247142
0.0195414
0.0227094
0.0245899
0.00533949
0.0206868
0.0202957
0.0227738
0.011325
0.020457
0.02206
0.00848219
0.0117572
0.024808
0.0247704
0.00260818
3.92175e-05
0.00423421
0.023746
0.0203056
0.00429062
0.022231
0.0212264
0.0247174
0.0102953
0.0160878
0.00594887
0.0238762
0.00966001
0.0155116
0.00614415
4.56449e-05
0.0208267
0.021037
0.0227688
0.000928277
0.0246109
0.0222387
0.0176911
0.0162438
0.0207236
0.0220792
0.0204589
0.021669
0.0235655
0.00945294
0.0208622
0.00815016
2.07448e-05
0.0120122
0.022504
2.68545e-05
0.0140352
0.00605188
0.00628308
0.0208152
0.0197863
0.0210118
0.016754
0.0103205
0.0211841
0.010208
0.0233687
0.0212577
0.0226009
0.0248683
0.0091576
0.0230811
0.0244375
4.54437e-05
0.00540989
0.0209728
0.0103975
4.90782e-05
0.00779213
0.0132172
2.45481e-05
0.00532727
0.0246968
0.0171757
0.0158459
0.0249974
0.0194748
0.024803
0.02038
0.0212986
0.018441
0.00676927
5.23355e-05
0.02137
0.00934212
0.0244733
0.0240226
0.0249602
0.00913014
2.3378e-05
0.0190776
0.0248067
0.00934047
0.00820859
0.00300558
0.0119632
0.018557
0.0135892
0.0243676
0.0242626
0.0205583
0.024613
0.0105549
0.0242693
0.0147809
0.0109492
0.00087693
4.75513e-05
0.0242361
0.0213393
0.0161223
0.0108107
0.01105
0.0182961
0.01683
0.00635939
0.00535941
0.00787825
0.00561237
5.11345e-05
0.00642776
0.0220109
0.0234345
0.0205857
0.00475746
0.0236822
0.0195042
0.0222426
0.0120481
0.0164054
0.0146833
0.0096955
0.0091439
0.0237144
0.0100502
0.015769
2.27983e-05
0.0244974
0.00499542
0.0105119
0.0031534
0.0197564
0.0106569
0.0152364
0.00185376
0.0250239
0.0159739
0.0196073
0.0244683
0.0234189
0.000654756
0.0207769
0.00137501
0.00645419
0.00345479
0.0246333
0.0055408
0.0248859
0.00999853
0.0188212
0.0116986
0.0246286
0.0248611
3.65169e-05
0.00677631
0.0243927
2.50582e-05
0.0135465
0.0220642
0.0242119
0.0240878
0.0101503
2.1853e-05
0.0221198
0.0237522
0.0208963
0.0152105
0.0227152
0.0241349
0.0181429
0.0192293
4.78807e-05
0.0200875
2.08196e-05
0.0228203
0.00200522
0.00462397
0.0153675
0.0150419
0.00216247
0.0247495
0.0201528
0.0210906
0.0231775
3.27365e-05
0.021441
0.0243218
0.0106405
0.00788848
0.0100787
0.0171001
0.00200159
0.0213084
0.0235107
0.0245226
0.0103102
0.0105085
0.0212866
0.00778533
0.0225911
0.0078004
0.00849853
0.000696639
0.0221951
0.00871557
0.023912
0.0249745
0.000748576
0.00422464
0.0226853
0.0219013
0.0125076
0.0143638
0.0238774
0.0240413
0.0150486
0.0109441
0.02504
0.0249002
0.00401881
0.0232763
0.0116524
0.025044
0.00414059
3.16887e-05
0.0204841
4.32257e-05
0.00999185
0.0203251
0.0114446
0.0092958
0.0123393
0.00869468
0.017654
0.0225521
0.0218934
0.0249219
0.0244628
0.0108911
0.0202638
0.00585724
3.44303e-05
0.0246152
0.0217236
0.0229476
0.0233794
0.0236412
0.0238088
0.0241124
0.0209898
0.0211032
0.0228435
0.0203783
0.0224884
0.0220186
0.021017
0.0215728
0.0218797
0.00240761
0.00860071
0.00877902
0.00930601
0.020368
0.00298181
0.0221423
0.000715695
0.0235282
0.0185548
0.00994379
0.0141755
0.0198811
0.0222153
0.0231175
0.00262044
0.0208944
0.0119355
0.0233161
0.0224895
0.0246676
0.0113269
0.00919772
0.0169191
0.0192931
0.0226887
0.0236693
0.0211212
0.0132021
0.0166432
0.0198435
0.0230925
0.0233442
0.0215416
0.011671
0.00115226
0.0038911
0.0155528
0.00423174
0.0116131
0.00763038
0.0140731
0.014344
0.00943122
0.00209099
0.0236719
0.006169
0.0108132
0.00612117
0.00187907
0.0157634
0.022049
0.0112971
0.0209879
0.000790868
0.0080841
0.000943905
0.0208938
0.0187318
0.011491
0.00614838
0.0225309
0.00745881
0.0142249
0.0229782
0.024549
0.0243654
0.0201272
0.0199349
0.0245157
0.0248846
0.00574688
0.0238024
0.0102072
0.0101509
0.00255499
0.023365
0.0137564
0.0142489
0.00199946
0.0194515
0.0138058
0.0248836
0.00453543
0.011831
0.00929719
0.0202404
0.0218687
0.0232447
0.000856224
0.0117618
0.0173689
0.021644
0.00839903
0.0113236
0.0235162
0.0207388
0.0189606
0.00701174
0.0204716
0.0217594
0.00854648
0.0139432
0.0245158
0.0072338
0.016527
0.00613064
0.0186859
0.00249564
0.0101403
0.023375
0.0177536
0.00582356
0.0143087
0.023386
0.000733705
0.0103256
0.00107821
0.0127348
0.0114629
0.0147453
0.023696
0.00637812
0.0194431
0.0244863
0.0222694
0.0209592
0.0232808
0.00349886
0.00786558
0.00965278
0.0144282
0.0212379
0.0153218
0.0248917
0.0183088
1.92461e-05
0.0134019
0.0227972
0.0240181
0.0113462
0.0202632
0.00730894
0.0202897
0.0062704
0.024503
0.00822303
0.0226232
0.00858142
0.0183476
0.0212513
0.00920822
0.00273168
0.000996892
0.0202305
0.00325229
0.0134981
0.0109843
0.0169817
0.0172953
0.0144754
0.0167524
0.023765
0.0181806
0.0106271
0.0187195
0.0102989
0.00486892
0.0229407
0.00952831
0.0208432
0.0090789
0.0247789
0.0242412
0.0244694
0.0205498
0.00591216
0.00636042
0.0188309
0.0149761
0.0230165
0.021895
0.0193387
0.0208263
0.0246041
0.0238573
0.0243256
0.0212307
0.0202218
0.00846802
2.79826e-05
0.022278
0.0196479
0.0138581
0.00551383
0.0170682
0.0213523
0.0247542
0.00539011
0.0207151
0.0247779
0.0250408
0.00387314
0.0229903
0.0213468
0.0217369
0.01599
0.000225881
0.0109853
0.0215441
1.75825e-05
0.00365117
0.0238352
0.0113561
0.00596473
0.0241257
0.0099701
0.0198979
0.0245925
0.0205532
0.00375831
0.0215023
0.0138243
0.0105571
0.0243651
0.0213141
0.0047357
0.0202112
0.00285471
0.0233268
0.0145464
0.0157121
0.0242913
0.0124576
0.00749952
0.0233331
0.0203366
0.0124704
0.02135
0.00788441
0.00347925
0.00583415
0.019156
0.020467
0.0241763
0.00861907
0.0210453
0.0206614
0.0209429
0.0163452
0.0240294
0.0246099
0.0200861
0.0242067
0.0122034
0.00996816
0.0176519
0.0230576
0.00578465
0.0220482
0.0197926
0.0191426
0.0012438
0.0245958
0.0219033
0.00408247
0.0210009
0.0242228
0.0233105
0.0104218
0.0241683
0.0138422
0.0071167
0.0224408
0.00783174
0.0183627
0.0246335
0.00617151
0.00899479
0.0039053
0.0202276
0.0146649
0.0192047
2.01317e-05
0.00578096
0.0245254
0.0155424
0.0238054
0.00983276
0.0247006
0.0246525
0.0227776
0.0211513
0.0213774
0.0244541
0.00350862
0.020854
0.0229618
0.0248769
0.0220262
0.000981623
0.013137
5.6157e-05
0.0199347
0.0242736
0.00544284
0.0245966
0.0242727
0.0210646
0.0248208
0.0247269
0.0172896
0.0207527
0.0216315
0.0140631
0.00944528
0.00483691
1.1621e-05
0.0122697
0.0240497
2.91237e-05
0.00231964
0.0156993
0.00113801
0.00192092
0.00419158
0.012342
0.0213133
0.00357032
0.0195218
0.00973166
0.021513
0.0181968
0.0227243
0.0211829
0.00806615
0.0157225
0.00134197
0.0241373
0.0239091
0.0223149
0.0173021
0.0194455
0.0217438
0.0184849
0.0110888
0.0191241
0.00499363
0.0234397
0.0237805
0.00983137
0.0211583
0.0200848
0.018049
0.0204427
0.0159036
0.000795703
0.0233257
0.0232479
0.0135428
0.0192192
0.0110874
0.0112081
0.0139734
0.0200437
0.0220895
0.0143211
0.00817758
0.0232057
0.0215477
0.00708196
0.0219001
0.0229366
0.0153348
0.0226252
0.004155
0.021137
0.0103811
0.0219675
0.0235126
0.0201402
0.0226073
0.0237953
0.0130461
0.0200111
0.0200638
0.0210372
0.0133139
0.00881597
0.0214038
0.0162821
0.00919853
0.0121583
0.0220693
0.010168
0.00724728
0.00382317
0.024752
0.00563074
0.0201943
0.0096274
0.0215505
0.0127927
0.00289175
0.00596456
0.0247876
0.024589
0.0111712
0.000105497
6.25119e-05
0.0209282
0.00382061
0.0206994
0.0237528
0.00693572
0.0130323
0.0214199
0.0117322
0.0186796
0.0243918
0.00568938
0.0025996
0.0122083
0.0214356
0.0241278
0.0173568
0.0204388
0.0236553
0.0189366
0.0079897
0.0083612
0.0100968
0.0217421
0.0205911
0.00823737
0.0104051
0.0113108
0.016218
0.0082456
0.00903549
0.0248152
0.0247744
0.0198846
0.0216428
0.0222457
0.00105258
0.0118737
0.0247568
0.0248233
0.0248132
0.0207397
0.0177574
0.00089069
0.00902091
0.0203663
0.020316
0.0206923
0.000689168
0.0129998
0.0104328
0.0246943
0.0123069
0.0240969
0.019954
0.0126593
0.0234961
0.0029694
0.017053
0.0218877
0.00860445
0.0230039
0.005535
0.00755988
0.0184697
0.00913557
0.0244346
0.0165478
0.00421133
0.0146167
0.0208672
0.0082853
0.00763945
0.024583
0.0223742
0.00728755
0.000792915
0.021313
0.0123735
0.00904888
0.0166632
0.00107529
0.00790072
0.0010588
0.0074844
0.00602144
0.00617188
0.00939015
0.0121971
0.00876239
0.0112753
0.0198618
0.0219808
0.02245
0.0119266
0.022068
0.0091383
0.00119629
0.0236145
0.0226675
0.0198116
0.0197415
0.0224273
0.00931523
0.0143973
0.0129964
0.0145973
0.010252
0.00960644
0.0220218
0.021621
0.00957767
0.0199311
0.0240401
0.0246702
0.0212062
0.000913507
0.0247487
0.00300695
0.0248539
0.0237749
0.00219778
0.0206163
0.0135003
0.00876867
0.0107103
0.00707277
0.0230863
0.0247947
0.0202648
0.0194829
0.0159
0.00705496
0.00620515
0.0208527
0.00367597
0.00915774
0.0068134
0.0247186
0.0239689
0.0227518
0.0197451
0.0104116
0.0162469
0.00982414
0.0201894
0.0073443
0.0131292
0.0194037
0.0119644
0.0100338
0.0198864
0.0117839
0.0119043
0.013653
0.018293
0.0012739
0.0196938
0.0196995
0.0184475
0.0124936
0.024252
0.00659641
0.0135114
0.00575781
0.0198786
0.0246307
0.00935832
0.0209138
0.0245889
0.0137333
0.00486954
0.0222845
0.0138632
0.0200252
0.00893653
0.0128085
0.0244014
0.000812075
0.0243437
0.00683058