/*--------------------------------*- C++ -*----------------------------------*\
  =========                 |
  \\      /  F ield         | OpenFOAM: The Open Source CFD Toolbox
   \\    /   O peration     | Website:  https://openfoam.org
    \\  /    A nd           | Version:  10
     \\/     M anipulation  |
\*---------------------------------------------------------------------------*/
FoamFile
{
    format      ascii;
    class       volScalarField;
    location    "600";
    object      p;
}
// * * * * * * * * * * * * * * * * * * * * * * * * * * * * * * * * * * * * * //

dimensions      [0 2 -2 0 0 0 0];

internalField   nonuniform List<scalar> 
23845
(
-0.124214
-0.166667
-0.25649
-0.25358
-0.143739
0.000429745
-0.241213
-0.259794
-0.00097145
-0.083766
-0.0175852
0.000445269
-0.00193339
-0.000180337
-0.248667
-0.0415881
-0.00198926
-0.00275736
-0.00404983
-0.000469591
-0.143679
-0.0164016
-0.190913
-2.85113e-05
-0.0477854
-0.000287247
-0.21619
0.0023711
-0.267492
-0.000426128
-0.248724
-0.246294
-0.259783
-0.0030365
0.000642724
0.000330377
-0.256859
0.000375613
0.00108834
0.00058174
-0.00780246
-0.00154906
-0.00209123
-0.00280325
0.000376404
-0.00139681
-0.161744
-0.0329261
-0.238815
-0.270294
-0.246921
-0.248011
-0.238757
0.00106999
-0.248971
-0.00240499
-0.192112
-0.25665
-0.146776
-0.230918
-0.26603
-0.000574673
-0.0280575
-0.26803
0.000165658
-0.00355137
-0.229083
-0.000765119
-0.00185152
-0.00637034
-0.262413
-0.261225
-0.00176408
-0.248165
-0.00111928
-0.249696
0.000369811
-7.24793e-05
-0.256066
-0.00373525
-0.197653
-0.240778
-0.177996
-0.260272
-0.252706
0.00078207
-0.234466
-0.2362
-0.000422688
-0.00419942
-0.25148
-0.0142641
-0.269686
0.00145874
-0.253637
-0.255969
-0.00437461
-0.037671
-0.000225858
-0.144594
-0.00282398
-0.243526
-0.106829
-0.278107
-0.272389
-0.259187
9.51147e-05
-0.000807448
-0.230763
-0.0013559
-0.0145292
-2.92797e-05
-0.257159
-0.0609197
5.91551e-06
-0.125223
-0.000682837
-0.0647952
-0.266335
-0.265914
0.00049757
-0.250141
-0.00664333
-0.264003
-0.235213
0.000961392
-0.265113
-0.271578
-0.259585
-0.184041
-0.26175
-0.0575923
-0.0380612
-0.000197928
-0.0019197
-0.114435
-0.276314
0.000365003
-0.225663
0.000344355
-0.266293
-0.00198474
0.000950339
-0.00255064
-0.0184185
-0.00165905
-0.0967461
-0.24773
-0.265377
-0.00741419
-0.244177
-0.000918731
-0.223033
-0.00217584
-0.256873
-0.0105967
-0.115662
0.000685704
-0.262684
-0.26089
-0.0101693
-0.252452
-0.252428
7.06537e-05
-0.00438632
-0.00593721
-0.000363799
-0.253529
-0.00162541
-0.0019677
-0.000747342
-0.254819
0.000478367
-0.263776
-0.000410392
-0.255175
-0.0190335
-0.0184959
0.00106152
0.000928579
-0.138582
-0.141378
-0.24582
-0.0118334
-0.0259553
-0.00313561
-0.000766697
-0.259753
-0.268975
-0.0020419
-0.270469
-0.00137758
0.000111121
0.000445108
-0.0161611
-0.00027054
-0.275443
-0.270669
-0.285763
-0.0172919
-0.00472091
-0.00101056
-0.265495
-0.0500674
-0.26014
-0.25358
-0.258377
0.000405893
-0.170022
-0.00243881
-0.00514296
-0.258262
-0.0287619
-0.00263609
-0.242278
-0.253135
-0.0454821
-0.00157992
-0.268396
-0.261002
-0.00121381
-0.249984
-0.276089
-0.0115799
-0.0012532
-0.250269
-0.271059
0.00157543
0.000190224
-0.00849141
0.00107196
-0.239703
0.000827945
-0.000239721
-0.129464
-0.265609
-9.07994e-05
-0.250145
0.00204084
-0.258336
-0.238084
-0.077984
-0.258138
-0.120777
-0.25132
-0.0332111
0.000411921
0.00266055
-0.254007
-0.24358
-0.000868187
0.00096329
-0.248196
-0.00257305
-0.239572
-0.254142
-0.265403
-0.254125
-0.000292866
-0.000164369
-0.234539
0.00019368
-0.264386
-0.0122966
-0.0094879
0.0018003
-0.254366
-0.265514
-0.234133
-0.252464
0.00069588
-0.256927
-0.244353
0.00120748
-0.0130115
-4.80763e-05
-0.253409
0.00237669
-0.281604
-0.191847
-0.25983
0.000836
-0.249239
-0.0125554
0.000804971
-0.266323
-0.261227
-0.000211277
-0.254944
-0.253476
-0.254903
-0.242667
-0.267617
-0.254354
-0.254887
0.000637299
-0.26667
-1.8629e-05
0.000631047
-0.263465
-0.265711
-0.246941
-0.266291
-0.251245
0.000118809
-0.249904
-0.270034
-0.24536
-0.00376587
-0.274779
-0.243613
-0.218858
-0.0030438
0.00393642
-0.255713
-0.267733
-0.26629
-0.034802
-0.255348
-0.00189157
-0.273639
-0.25604
-0.265191
-4.7229e-06
-0.252486
0.000704274
-0.254593
-0.193864
-0.266128
-0.00183707
-0.249873
-0.0143803
-0.249639
0.00027565
-0.262639
-0.250976
-0.252255
-0.0031362
-0.00163352
-0.254881
-0.25606
-0.265262
-0.0168398
0.000230309
0.00025351
-0.286316
0.00059303
-0.254471
-0.255209
-0.248435
-0.248843
-0.266101
-0.272246
-0.251674
-0.238908
0.00268416
-0.00178469
-0.00191195
-0.252811
-0.256207
-0.262058
0.00320915
-0.0906173
-0.010884
-0.268047
0.000261798
-0.263084
-0.00110203
-0.265068
0.000432358
-0.00156836
-0.253273
-0.275161
0.000330852
-0.000181719
-0.252318
-0.254182
-0.251631
-0.00150994
-0.25951
-0.24996
0.000754105
-0.177515
-0.000785101
-0.00037504
0.000863006
0.00104639
-0.254315
-0.00435612
-0.254715
-0.232055
-0.00083755
-0.27054
-0.273957
-0.243064
-0.261424
-0.00874162
0.000171513
-0.00688792
0.000386523
-0.254543
-0.237965
-0.253072
-0.257426
-0.221956
-0.248224
0.000167407
-0.272211
-0.270963
-0.265613
-0.253117
0.00131051
-0.23653
-0.265656
-0.117468
-0.255318
-0.231275
-0.0103929
0.00114602
-0.118843
-0.266942
-0.00128208
0.000611654
-0.255356
-0.26489
-0.154476
-0.276265
-0.24638
-0.263108
-0.262811
-0.000206804
-0.00286069
-0.265086
-0.00259653
-0.00158468
-0.000387737
0.00099971
-0.00290058
-0.26742
-0.262973
-0.251298
-0.271417
-0.273124
-0.265391
-0.242732
-0.266827
-0.00014124
-0.218638
0.00169547
-0.257376
-0.257044
0.000286452
-0.279446
0.000992525
-0.000731485
-0.263584
-0.219527
-0.0556481
-0.253427
-0.00232659
-0.19148
-0.254536
-0.273792
-0.207335
0.00167357
0.000183418
0.000673183
-0.2408
-0.000937931
-0.258036
0.000849293
-8.24573e-05
-0.241319
-0.265478
-0.269106
-0.119464
-0.00186916
-0.249111
-0.000872002
-0.00697451
-0.192762
-0.221573
-0.247347
-0.017296
-0.00426184
-0.245842
0.000238684
0.000685611
-0.250256
-0.264591
-0.00037691
-0.265311
-0.254702
-0.209773
-0.261787
-0.173553
-0.00163495
-0.257052
0.000286746
0.000735495
-0.23343
-0.263856
-0.26425
-0.183744
-0.25946
-0.257775
-0.0107429
-0.00334974
-0.000478513
-0.264444
-0.247533
-0.265275
-0.2574
-0.244746
0.00170572
-0.000422512
-0.230112
-0.257955
-0.257106
0.00391881
-0.249694
-0.000388849
-0.00259148
-0.267753
-0.00206568
-0.249498
-0.255195
-0.26782
-0.174746
-0.26266
-0.264022
-0.272939
-0.0904111
-0.189565
-0.00276939
-0.00339853
-0.0011094
-0.266453
-0.144633
-0.256487
-0.261358
0.00295622
-0.177068
-0.177885
-0.0136773
-0.175447
-0.0190956
0.00137209
-0.000775792
-0.00076225
-0.00277201
0.000682908
-0.263386
-0.00278078
-0.258056
-0.204572
-0.00112674
-0.264076
0.000241816
0.00189577
-0.253759
-0.255228
-0.20347
-0.00159138
0.000239455
-0.274849
-0.272139
-0.00174602
-0.267936
-0.002601
-0.00145376
-0.245283
-0.00357497
0.0012445
-0.0500959
-0.1209
-0.265576
-0.251902
-0.253871
-0.14381
-0.00144879
0.000509465
-0.0141536
-0.251314
-0.266988
-0.000671242
-0.00064665
-0.000487678
-0.252156
-0.00232096
-0.200322
-0.252812
-0.149756
-0.00974526
-0.258312
-0.0033408
-0.00141278
0.00296227
-0.00250165
0.000452694
-0.254403
-0.00102815
-0.117513
-0.249357
-0.259873
-0.0454149
-0.251817
-0.13097
-0.243304
-0.00972121
-0.190847
-0.11993
-0.199817
-0.119125
-0.266714
-0.118535
-0.0641697
-0.0991302
-0.000655716
-0.0012482
-0.121737
-0.262318
-0.154992
-0.0054865
-0.145875
-0.00393738
-0.0067446
-0.00221642
-0.00410437
-0.0535891
-0.0018161
-0.00143319
-0.210452
-0.000444077
0.000693053
-0.257038
-0.109775
-0.0584352
-0.00201864
-0.0101705
-0.18115
-0.00531172
0.000912119
-0.00321014
-0.112247
-0.0366773
-0.141552
-0.00246647
-0.0410901
-0.25752
-0.000166663
0.000867331
-0.070178
-0.258593
-0.267063
-0.27029
-0.264872
-0.0426367
-0.26514
-0.0162357
-0.00662245
-0.00401158
-0.00347674
-0.142673
-0.00353152
-0.00282585
-0.00391084
-0.111611
-0.237988
-0.0285101
-0.0437033
-0.0055256
-0.0131347
-0.00947867
-0.00626376
-0.0433909
-0.00416742
-0.0595633
-0.0146257
-0.00325874
-0.0200488
-0.00213732
0.000449679
-0.00270228
-0.00268881
-0.0423765
-0.00238166
-0.00163148
-0.0365707
-0.0371587
-0.0012359
-0.0022416
-0.00735976
-0.0110139
-0.0155282
-0.0224463
-0.0372491
-0.00457724
-0.052712
-0.00410649
-0.0198155
-0.00269172
-0.0115894
-0.00258732
-0.00247146
-0.00305733
-0.00307406
-0.0018753
-0.00236993
-0.00403512
-0.00267452
-0.235632
0.00167578
-0.00208647
-0.00259381
-0.00210106
0.000527401
-0.00925487
-0.00134636
-0.0110333
-0.0166507
-0.0035768
-0.000901258
-0.00299245
-0.000255187
-0.0269613
-0.0130843
-0.078072
0.000772827
-0.00926507
-0.00184202
-0.00237668
1.44278e-05
-0.00228744
-0.0312373
-0.00113259
-0.103572
-0.00126011
-0.000532142
-0.00222713
-0.000587981
-0.00134054
-0.00269836
-0.264019
-6.99773e-05
-0.00370473
-0.0649306
-0.00154775
-0.000958647
-0.000255747
-0.236904
-0.00581878
-0.000370602
-0.0398807
-0.00138622
-0.263919
-0.0221565
-0.0159863
-0.0281448
-0.0189816
-0.0505129
-0.00658251
-0.00473327
-0.00749833
-0.0154445
-0.00296195
-0.00990527
-0.00189816
-0.157526
-0.00346175
-0.00148764
-0.0379448
-0.0238277
-0.0299266
-0.254262
-0.0106337
-0.00433378
-0.100279
-0.0147464
-0.00146234
-0.00226463
-0.00312874
-0.248022
0.00277067
-0.00927791
-0.000473349
-0.0026691
-0.00157984
9.04079e-05
-0.00124199
-0.00187545
-0.00294477
-0.00279366
-0.00159608
-0.00109811
-0.00147473
-0.180569
-0.00180392
-0.00032821
-0.00112364
-0.000285356
-0.00209621
-0.0580482
-0.00520117
-0.0158701
-0.0041485
0.000626087
0.000116656
-0.0021713
0.00158724
-0.123989
-0.0282116
-0.0258147
-0.0022011
-0.0015921
-0.00616887
-0.268376
-0.0106571
-0.00793858
-0.016846
-0.00295046
-0.00382586
-0.0267831
-0.00452675
-0.00469754
-0.00218781
-0.00650657
-0.00338729
-0.00284565
-0.00318522
-0.00325651
-0.00196764
-0.00425885
-0.0073417
-0.00360722
-0.00433802
-0.0407379
-0.00144451
-0.00434542
-0.258344
-0.0425793
-0.000580131
0.000293617
-0.00170006
-0.0246158
-0.0142606
-0.0170609
-0.00973146
-0.00265898
-0.0117218
-0.0077943
-0.0101697
-0.0310972
-0.00307026
0.000617777
-0.00301757
-0.00330172
-0.00901826
0.000423666
-0.248726
0.000825964
-0.0273104
0.000427407
-0.0619099
-0.00111795
-0.00367413
-0.0227588
-0.0104407
-0.0854819
-0.0573752
-0.0124378
-0.103275
-0.00430796
-0.0060377
-0.00212245
-0.002369
-0.00258918
-0.00207414
-0.00349521
-0.0018155
-0.00277563
-0.0254275
-0.000852771
-0.0250773
-0.0312246
-0.0189144
-0.0135802
-0.0942958
-0.0115113
-0.00271997
-0.0252344
-0.00200454
-0.0636541
-0.00641234
-0.00251187
-0.112566
-0.00662291
-0.00297457
-0.010107
-0.000413888
-0.00236741
-0.232659
-0.00384749
-0.00181056
-0.00473794
-0.00109203
-0.00196018
-0.00150701
-0.0103032
-0.27215
0.000813361
-0.00303869
-0.00630468
-0.00874294
-0.106524
-0.0146276
-0.000782536
-0.0155287
-0.00286623
0.000149354
-0.260076
-0.276163
-0.00182772
-0.00283055
0.00219579
-0.222221
-0.00217501
-0.253096
-0.000741578
-0.00231861
-0.00593658
-0.00478572
-0.00184454
-0.00184462
-0.00147087
-0.0966081
-0.00154535
-0.136588
-0.0125927
-0.0400851
-0.00260917
-0.0121238
-0.00408056
-0.00852157
-0.00427302
-0.00353038
-0.0210243
-0.00262907
-0.0130498
-0.0179601
-0.0256313
0.000116907
-0.0120538
-0.0151645
-0.00264937
-0.0306994
-0.0185826
-0.00945369
-0.0384917
-0.00152973
-0.00170585
-0.00215952
-0.00163186
0.000442037
-0.00249551
-0.0116469
-0.00258008
-0.00090773
-0.00844197
-0.00770323
-0.00824234
-0.00298131
-0.211936
-0.000488711
-0.00262698
-0.0014102
-0.00174744
-0.00396842
-0.00403393
-0.0136739
-0.0936553
-0.130395
-0.00153305
-0.00414435
-0.0211058
-0.0393051
5.50483e-06
-0.0445415
-0.00410463
-0.0060328
-0.0117969
-0.0399558
-0.00404576
-0.0139282
-0.0268832
-0.0147515
-0.0313923
-0.0234078
-0.0289935
-0.000805115
-0.00149257
-0.000966603
-0.00139566
-0.0097098
-0.0147657
-0.00243678
-0.284841
-0.000924323
-0.258882
-0.0017752
-0.000668324
-0.272656
-0.000558225
-0.00150083
0.000537819
-0.00250145
-0.00426406
-0.00143395
-0.000670453
-0.00141817
-0.0436409
-0.266757
-0.00120486
-0.00406536
-0.00759328
-0.17632
-0.202031
-0.123558
-0.0176909
-0.00132456
-0.00425247
-0.000310908
-0.000638138
-0.000570383
0.00237383
-0.130804
-0.0901905
-0.0378689
-0.0826885
-0.0552373
-0.10097
-0.121531
-0.0377938
-0.00114612
-0.0696346
-0.0220658
-0.0293797
-0.0274115
-0.0115698
-0.0172313
-0.00239441
-0.01343
-0.000923758
-0.00926211
-0.00402055
-0.00277418
-0.00188783
-0.00289722
-0.00187493
-0.00223368
-0.00224578
-0.00537849
-0.163616
-0.0588382
-0.00105338
-0.0879241
-0.00105166
-0.00370458
0.000587499
0.00043171
-0.00214218
-0.000205696
-0.00278441
-0.00116814
-0.00588347
-0.0031792
-0.114801
-0.00392978
-0.000331426
-0.0796852
-0.0034188
-0.00087331
-0.00626964
-0.0475579
-0.00405688
-0.261946
-0.256317
-0.00198995
-0.0107889
-0.0134566
-0.0223832
-0.00278295
-0.000300295
-0.0141969
-0.00741949
-0.0107936
-0.00765659
-0.00492846
-0.00213014
-0.278961
-0.00242425
-0.034582
-0.0011736
-0.00213313
-0.051878
-0.00324458
-0.00298662
-0.266723
-0.00164876
-0.00120388
-0.0025253
-0.00145327
0.000993358
-0.00154828
-0.000642909
-0.00029826
-0.0683317
-0.000851295
-0.000890705
-0.190719
-0.000845918
-1.96678e-05
9.0843e-05
-0.214297
-0.00239863
-0.0016377
-0.081941
-0.00195429
-0.00148429
-0.000898404
-0.00290273
-0.00297112
-0.263717
-0.003373
-0.000478421
-0.0111899
-0.021662
-0.0889592
-0.0157789
-0.00791519
-0.00205028
-0.00183111
-0.00171279
-0.00441991
-0.000299364
-0.0576415
-0.00190004
1.02877e-05
-0.00178927
-0.00335081
-0.00224821
-0.24784
-0.262321
-0.000321208
-0.00271351
-0.000929552
-0.167071
-0.0024402
-0.00299234
-0.0177913
-0.00150899
-0.253458
-0.000891837
0.00234992
-0.000697112
-0.00432641
-0.00258392
-0.0055686
-0.0134773
-0.00133337
-0.0272848
-0.0048752
-0.000780357
-0.00601554
-1.4053e-05
-0.00474762
-0.0130711
-0.00743478
-0.0132312
-0.00234959
-0.000283418
-0.00324567
-0.00515772
-0.00511614
-0.00134945
-0.0068349
-0.00564069
-0.0395564
-0.00235114
-0.00310641
-0.0613791
-0.00199003
-0.00536986
-0.0921285
-0.00178423
-0.00474649
-0.132293
-0.00402017
-0.00303113
-0.10932
-0.0547808
-0.172928
-0.00111589
0.0021634
-0.062349
3.8694e-05
0.000252376
-0.108293
-0.0298197
-0.0498671
-0.00230086
-0.0749901
-0.00166392
-0.00508558
-0.0478506
-0.0175653
-0.00176972
-0.0157949
-0.07202
-0.28338
-0.00145896
-0.0020606
-0.000996585
0.00100928
0.000312658
-0.00106009
-0.000700468
-0.250024
-0.00260078
-0.00398024
-0.0505573
-0.003034
-0.0259641
-0.0015635
-0.156023
-0.00293946
-0.00414577
-0.177504
-0.00341194
-0.000476636
-0.000695202
-0.00380868
-0.265629
-0.000176548
-0.100239
-0.00567738
-0.0260246
-0.262408
-0.255198
-0.0542144
-0.00064354
-0.001457
-0.183445
-0.000350767
0.000899135
-0.00192484
-0.124936
0.00062152
-0.000703157
-0.00305624
-0.106602
-0.00423869
-0.00196418
-0.00376594
-0.00264792
-0.2704
-0.00639392
-0.00729121
-0.0934831
0.00033201
-0.265047
-0.00177021
-0.259935
0.000241184
-0.108854
-0.00384762
-0.00142863
-0.000854604
-0.00316811
-0.00651874
-0.00712277
-0.0118624
-0.0257001
-0.00214224
-0.00196058
0.00014929
-0.0250316
-0.0229362
0.000142013
-0.00251485
-0.00234231
-0.00378228
-0.00745368
-0.00769242
-0.000336164
-0.0104258
-0.00894876
-0.0863603
-0.00408415
-0.168901
-0.00120943
-0.0063834
-0.000246272
0.000256287
-0.257049
-0.0637195
-0.033775
0.000169162
-0.0467791
-0.00291042
-0.00187602
-0.0679429
-0.00229894
-0.226191
-0.265241
-0.0943569
-0.00730642
0.000172915
-0.266764
-0.00566723
-0.0104378
-0.00466323
-0.0560651
-0.196423
-0.00244671
-0.00121969
-0.253503
-0.25196
-0.00129715
-0.0819161
-0.0980806
-0.00182928
-0.263398
-0.00136305
-0.112108
-0.0025425
-0.0694823
-0.000542767
-0.055772
-0.20373
0.00125645
-0.258039
-0.100864
0.000846201
-0.265508
-0.000963316
-0.0513949
-0.0940105
-0.257519
-0.000918653
-0.0301739
-0.176518
-0.000715089
-0.0861933
-0.00216338
-0.000354624
0.000142987
-0.00783892
-0.0739334
-0.00136095
-0.000932152
-0.134961
-0.00636552
-0.00115773
-0.00129039
-0.00136593
-0.00186713
-0.0014567
-0.0746463
-0.216196
-0.0777132
-0.000305762
-0.00736959
-0.000298572
-0.00339081
-0.00660857
-0.00264623
-0.261401
-0.00229668
-0.0836223
-0.261473
-0.00152098
-0.000333982
-0.012389
-0.0297273
-0.0912625
-0.177699
-0.0118747
-0.00177191
-0.00672564
-0.00102303
-4.11578e-05
-0.00126717
-0.000730131
-0.000183587
-0.00161101
-0.0894407
-0.264317
-0.00268493
-0.0025282
-0.00104579
-0.213704
-0.00159901
-0.00770747
-0.00438153
-0.00185271
-0.00106328
-0.00597169
-0.0250779
-0.0257721
-0.00449983
-0.00048245
-0.0076086
-0.244318
-0.256979
-0.00236088
0.00421921
-0.0245204
-0.0032306
-0.00147973
-0.00122226
-0.00265548
-0.00728149
-0.00583424
-0.264642
-0.00102293
-0.247988
-0.00142441
0.000439587
-0.191824
-0.00680929
-0.0844659
-0.00555778
-0.0117999
-0.0168234
-0.00888713
-0.00360299
-0.0690317
0.00141381
-0.00207721
-0.00172586
-0.00467966
-0.255585
-0.00708039
-0.00386348
-0.00699139
-0.0548284
-0.256136
-0.012626
0.000134229
-0.213957
-0.000132941
-0.00043874
-0.0291681
-0.201305
-0.263152
-0.266643
-0.00504739
-0.00101176
-0.0231905
-0.00109908
-0.213541
-0.0624192
0.000530306
-0.0105104
-0.140933
-0.00273624
-0.214915
-0.0109467
-0.038875
-0.00592838
-0.128232
-0.0777945
-0.00010261
-0.00189433
-0.263606
0.00159712
-0.00125196
-0.0916904
0.00139234
-0.0106047
-0.0904871
-0.0433758
-0.259139
-0.00018034
0.000233809
0.0020018
-0.262539
-0.000388552
-0.00456057
-0.00492979
-0.260962
-0.000913701
-0.00351589
-0.00214362
-0.26256
-0.0468245
-0.000277345
-0.00772329
0.000384422
0.000931867
0.00116119
-0.236568
-0.0198768
-0.000391
9.92426e-05
-0.153516
-0.0408525
-0.00364371
-0.016209
-7.91098e-05
0.00111113
-0.26074
0.000757678
-0.0292378
0.000687674
-0.0179155
-0.259462
-0.263457
-0.26031
-0.235961
-0.207239
-0.000364363
-0.0854779
0.000101198
-0.000918935
-0.00169646
-0.204168
-0.000148986
-0.247492
-0.268584
-0.00113458
-0.0014981
-0.245086
-0.266808
-0.0764509
-0.236015
-0.098017
-0.205141
-0.000350642
-0.0941652
-0.271624
0.00161074
-0.246827
0.001091
0.000680341
-0.171311
-0.268445
-0.263629
-0.186073
-0.151816
-0.00324976
-0.273458
-0.00171533
-0.105483
0.000413445
-0.217181
-0.0698555
-0.00311632
-0.16165
0.000156944
-0.00168866
5.79541e-06
-0.271838
-0.247462
-0.25909
-0.261249
-0.0013923
-0.147384
0.00112208
0.00315032
0.000113475
-0.0432208
-0.263193
0.00129225
-0.0048964
-0.183572
-0.246445
-0.0115377
8.13359e-05
-0.255509
-0.000601243
-0.00133449
-0.00258956
-0.00162967
-0.00172583
0.000321031
0.00128013
-0.246749
-0.00120813
-0.000914802
-0.000423167
-0.0357968
-0.256039
-0.0924901
0.000221377
-0.258227
-0.0651583
-0.0496451
-0.000291204
-0.267815
-0.0080883
-0.273001
-0.259488
-0.260698
-4.92951e-05
-0.00111856
-0.190714
-0.158555
-0.00116296
-0.00136559
-0.147314
-0.169497
-0.212996
-0.0146875
-0.269729
0.00109202
-0.257175
-0.00485053
-0.258216
0.000659708
-0.000456988
-0.00583742
-0.00142681
-0.264412
-0.00113925
-0.254953
-0.259068
-0.00931578
-0.0181901
-0.10189
-0.269553
-0.155358
0.000509443
-0.0687128
-0.0649849
-0.1904
-0.00147759
-0.254791
-0.133242
-0.254234
-0.261356
1.49618e-05
0.000198535
-0.0481288
-0.254125
-0.00850212
-0.170485
0.00219799
0.000125466
-0.00169832
-0.00278418
-0.265869
-0.00141466
0.000785591
-0.213047
-0.0319779
-0.205174
-0.176731
-0.267321
-0.255027
-0.170207
-0.243323
-0.249856
-0.0745508
-0.0130343
-0.267791
-0.00185339
-0.252616
0.00108216
-0.265026
-0.267709
-0.00179102
-0.00360035
-0.00356034
-0.000822466
-0.00263317
-0.000295874
-0.00603103
-0.00015044
-0.161886
-0.132472
-0.00195576
-0.0708553
-0.0464197
-0.247746
-0.267266
-0.255677
-0.258356
-0.26014
-0.190878
-0.270534
-0.0227034
-0.000205927
-0.267764
-0.00179714
-0.247164
-0.0749687
-0.00794235
-0.263749
-0.0556607
-0.000629234
-0.256705
-0.00136971
-0.222449
-0.116985
-0.0266453
-0.245078
-5.83446e-05
-0.147274
-0.00524293
-0.00209753
-0.20724
-0.282444
-0.00435046
-0.00522193
-0.00534315
-0.00971513
-0.000882197
-0.252283
-0.00628669
-0.00435206
-0.18869
0.000476525
-0.262859
-0.0253311
0.00205873
-0.0400043
-0.258562
-0.265895
-0.261727
-0.263393
-0.23565
0.000260689
-0.242039
0.000483361
0.000493934
-0.252926
0.000750739
-0.258605
-0.20325
-0.215891
-0.260384
-0.0090858
-0.243227
-0.00168436
-0.000672531
-0.00285177
-0.00661215
-0.255449
-0.00179564
-0.00164934
-0.00687386
-0.250536
0.000472752
-0.24336
-0.258769
-0.00433999
-0.268513
-0.261507
-0.203128
0.000869465
-0.259637
-0.00412045
0.00020852
0.00164355
-0.262466
-0.000511487
0.00192129
9.16708e-05
-0.098911
-0.0023781
-0.254847
-0.00200612
-0.00367518
-0.0177912
-0.000209269
-0.212875
-0.00289401
-0.00359166
-0.157281
0.000829417
-0.00298333
-0.00213243
-0.263889
-0.0284292
0.000828777
-0.271577
-0.195349
-0.19972
-0.00114887
-0.000492291
-0.251848
-0.19649
-0.242826
-0.176851
-0.247768
-0.243984
0.00313317
-0.252985
-0.225347
-0.00346607
-0.259778
0.000449996
-0.265441
-0.264779
-0.26347
-0.0355486
-0.22624
-0.283774
-0.000671901
0.000480617
0.000833324
-0.250451
-0.254109
-0.247707
-0.274003
-0.221263
-0.00967682
0.00125251
-0.215114
-0.26465
-0.254881
-0.0109883
-0.142807
-0.00156689
-0.257325
-0.269794
-0.260622
-0.263132
-0.263033
-0.255811
-0.00214504
-0.247438
-0.257204
-0.277375
-0.233802
-0.26017
-0.0163159
-0.25595
-0.264584
-0.00370989
-0.247105
-0.238972
-0.000409237
-0.254494
-0.0106513
-0.278603
-0.250552
-0.191996
-0.202082
-0.253956
-0.017222
-0.199233
-0.255626
-0.00158557
-0.221514
-0.00297599
-0.00328318
-0.0733169
0.00253631
-0.00242272
-0.0648401
0.000638775
-0.00171384
0.000517353
-0.00241346
-0.209973
0.0016734
-0.0901746
-0.276519
-0.261931
0.00045257
-0.0190902
-0.0035374
-0.250221
-0.000230699
-0.257047
-0.234027
-0.0239136
-0.243951
-0.259795
-0.249958
-0.0632423
-0.00480578
-0.232564
-0.235416
-0.262779
-0.0024857
0.000684133
0.000272055
-0.0160335
-0.212068
-0.00256989
0.000219025
-0.00254938
-0.26357
0.00065911
-0.0238932
-0.0095013
-0.00549443
-0.263967
-0.00962924
-0.00490834
-0.00225739
-0.217626
-0.00319755
-0.252275
-0.00260047
-0.0135292
-0.00199277
-0.0340961
-0.263819
-0.266052
-0.256315
-0.275676
-0.020457
-0.0240243
-0.244455
0.000164597
-0.264716
-0.00811819
-0.00310784
-0.00289468
-0.144322
-0.240937
0.000778992
-0.157562
-0.277843
-0.256945
-0.2608
-0.225515
-0.0050448
-0.263373
-0.266671
-0.00242466
-0.0516571
-0.236339
-0.156471
6.32552e-05
-0.256247
0.000230188
-0.225506
-0.156665
-0.247398
0.000519278
-0.00655664
-0.245547
-0.00291181
-0.0443727
0.000544781
-0.219092
0.000878532
-0.256137
-0.00211369
-0.246515
0.00267827
0.00158746
-0.00242838
-0.0113758
-0.233397
-0.25132
-0.00355601
-0.00269568
-0.00327725
-0.000194369
-0.0249288
-0.00353357
-0.243007
-0.269897
-0.245196
0.000638162
-0.000982615
-0.259025
-0.251165
-0.242965
-0.268135
-0.236663
-0.00227293
-0.229454
-0.234821
-0.000337908
-0.241155
-0.0343314
-0.059396
-0.00172114
-0.225604
-0.00048336
-0.256434
0.000498571
-0.263281
-0.253717
-0.00125445
-0.244896
-0.00181509
-0.264781
-0.213583
-0.00675379
-0.00246496
-0.246261
-0.262993
-0.00516045
-0.278054
-0.195547
-0.00150612
-0.266378
-0.00221887
-0.265187
-0.000665174
-0.00295604
-0.00720886
-0.234613
-0.00218617
-0.257584
-0.03137
0.000986811
-0.000788956
0.000820145
0.000833284
-0.00343806
-0.264196
-0.141062
-0.0156901
-0.126236
-0.0148838
-0.000951949
-0.00147689
0.00268973
-0.23392
-0.128206
0.0009735
-0.0109029
-0.0223979
-0.0026358
-0.260679
-0.0652342
-0.00112384
-0.00461727
-0.256728
-0.00138961
-0.00211781
-0.260139
-0.227533
-0.00105327
0.00083857
-0.262163
-0.242416
-0.26732
0.000314973
-0.00269236
-0.265064
-0.00388885
-2.05615e-06
-0.00127063
-0.203271
-0.187385
-0.256228
-0.00208822
-0.237775
-0.245411
-0.254584
-0.245387
-0.000851155
-0.0768209
0.00279784
-0.264184
0.000542732
-0.00258442
-0.0321569
-0.0651917
-0.00661212
-0.0214821
-2.38382e-05
-0.00262944
-0.00469213
-0.257126
-0.00700557
-0.242074
-0.27529
-0.175916
-0.00125033
-0.233734
-0.136232
-0.262898
-0.256947
-0.0106761
-0.0773792
0.00271727
-0.0678514
-0.218924
0.00145961
-0.261152
-0.00245923
-0.00396345
0.0032996
0.00060192
-0.256154
-0.00321206
7.10925e-05
-0.253667
-0.254483
-0.00199956
-0.253709
-0.248064
-0.24863
-0.251135
-0.279659
-0.262931
0.000924635
-0.221113
-0.0715529
0.000591331
-0.00926123
0.00108076
0.000153041
-0.00265279
-0.19344
-0.264119
-0.238124
0.000835775
-0.264267
0.00177732
0.00218077
0.000519576
-0.235195
-0.280524
-0.0101475
0.000298284
-0.260436
-0.262545
-0.275038
-0.241647
-0.143874
-0.205262
-0.00172812
0.00189158
-0.0004637
-0.00139945
-0.256062
-0.000615136
-0.106393
-0.199865
-0.279968
-0.240116
-0.000169979
-0.000101102
-0.231215
-0.255811
-0.260016
-0.0264337
-0.0678539
-0.266181
-0.25871
-0.240864
-0.265229
-0.236515
-0.266178
0.000233425
-0.00706084
-0.00673254
-0.264311
0.000370295
-0.00379191
-0.00284892
-0.189628
-0.0586127
-0.247032
-0.261479
-0.253589
-0.000185055
-0.208237
-0.227665
-0.27664
-0.00136087
-0.259272
-0.209325
-0.272585
-0.00197532
-0.211466
-0.245944
-0.277893
0.000611466
-0.0704341
-0.00787092
0.000173056
-0.00169658
-0.269468
-0.0213531
-0.255444
-0.250272
-0.273167
0.000559368
-0.257029
0.000617121
-0.257853
-0.0131152
-0.180581
-0.00020285
0.000568862
-0.237795
-0.264853
0.00206217
-0.234446
-0.132884
-0.0193822
-0.00201954
0.00166914
-0.256433
-0.281637
-0.000365816
0.00104514
-0.00248017
-0.143688
-8.49619e-05
0.000148504
-0.0296117
-0.0118166
-0.250829
-0.00442265
-0.271129
0.000427881
-0.273923
-0.257552
-0.122527
-0.236683
-0.267141
0.000564871
-0.00170752
0.00105672
0.000355181
-0.282758
-0.0017252
0.000940785
-0.234813
-0.265192
-0.254421
-0.161265
-0.277044
-0.00432168
0.00162026
0.000134875
-0.263344
-0.26286
-0.000119698
-0.256883
-0.00288349
-0.247727
-0.246114
-0.272286
-0.00180439
-0.237006
-0.00132267
0.000514111
-0.272463
-0.265781
-0.00327148
-0.000510538
-0.260107
-0.250603
0.00131927
-0.00166027
-0.241631
-0.26204
0.000540096
0.000861958
-0.265481
-0.00209203
-0.220372
0.000436486
-0.263017
-0.245102
-0.00155641
-0.23534
-0.258791
-0.0718119
-0.24001
-0.240633
-0.180538
-0.234707
-0.0347009
-0.00430577
-0.00638992
0.000147356
8.21566e-05
-0.25739
-0.00650356
-0.261479
-0.242749
0.00031829
0.00123862
0.000402249
0.000646702
0.000954324
-0.00180456
-0.00537188
-0.00421657
0.000717699
-0.00591685
0.000317049
-0.00317536
0.00135181
-0.00248743
-0.038352
-0.075102
-0.251939
-0.265238
-0.259139
-0.258383
-0.00486449
-0.270185
0.000438216
-0.273565
-0.00216661
-0.0221081
-0.22637
-0.253442
-0.00417007
0.00099391
-0.00073573
-0.280354
-0.07174
-0.257796
0.000296209
-0.00278531
0.00209759
-0.187619
-0.257969
-0.0481837
-0.00542314
-0.00104232
-0.00449057
-0.0050263
-0.126995
-0.0501139
-0.0054173
0.00052108
0.000720711
-0.00367767
-0.176686
-0.254287
-0.268891
-0.0706571
-0.268291
-0.177209
-0.264223
-0.0926556
-0.247778
-0.250757
-0.269059
-0.00207336
-0.25899
-0.205528
-0.259794
-0.271193
-0.24131
-0.00268744
-0.260783
-0.00474765
-0.26967
-0.241941
-0.263421
-0.00478373
-0.0170951
-0.2331
-0.257805
0.000529074
-0.266096
-0.25395
-0.00121541
0.00201216
0.00103654
-0.000654422
-0.00640237
-0.000104431
0.000969272
-0.253565
-0.00262295
-0.224101
-0.236252
-0.262855
0.000513213
-0.247965
-0.242686
-0.278962
-0.0116066
-0.254266
0.000611096
-0.25932
-0.182644
-0.242494
-0.000784554
-0.00205819
-0.00240502
-0.268013
-0.257968
-0.0396641
0.000976025
-0.264298
-0.174706
0.000599071
-0.00155701
-0.011769
-0.256378
-0.0022035
-0.00332084
-0.258915
-0.255084
-7.95248e-05
-0.255162
-0.194859
-0.256537
-0.0196811
-0.277245
-0.25763
-0.00126755
-0.0480568
-0.262706
-0.253104
-0.00536028
-0.274916
-0.237082
-0.259219
-0.259339
-0.25942
-0.230346
0.00013018
-0.261889
-0.00178428
-0.000151423
0.00114773
-0.0569055
-0.0029885
-0.273469
-0.241777
-0.26374
-0.15379
-0.000629083
-0.241909
0.00065194
-0.0245527
-0.277059
-0.244696
0.000161385
0.000281515
-0.235969
-0.00158648
-0.252761
-0.000323855
-0.259321
0.000832478
-0.26141
-0.00261372
-0.256038
-0.0213139
-0.046383
-0.249001
-0.276765
-0.247225
0.000142778
-0.274206
-0.132987
-0.257782
-0.227234
-0.0367179
-0.0939973
-0.0602687
0.000810205
-0.181703
-0.213592
-0.0196194
-0.22852
-0.253408
-0.00262078
-0.256197
-0.0044183
-0.22844
0.000520446
0.000735563
0.000221405
-0.0484822
-0.262707
-0.263505
-0.0177327
-0.100279
-0.000721762
-0.00319094
-0.00520431
-0.00358119
0.000546822
-0.00259116
-0.00209454
-0.00379049
-0.000377237
-0.240837
-0.239978
-0.00338314
-0.00693023
-0.235152
-0.263014
-0.0538849
0.00102223
-0.00160068
-0.265955
-0.0396743
0.00054784
0.000278404
-0.267616
-0.0316583
-0.00183067
-0.00408422
-0.0659727
-0.266906
-0.243891
-0.052798
-0.274328
-0.266865
-0.00229065
-0.231234
-0.261488
-0.000159737
-0.252432
-0.00966415
0.000548461
-0.00320767
-0.26929
-0.00356753
-0.242756
-0.207573
-0.001197
-0.0322343
-0.274452
-0.00309529
-0.257104
-0.0013789
-0.225044
-0.23974
-0.00238948
-0.258067
-0.246584
-0.00267269
-0.00340155
-0.255484
-0.0024326
-0.245421
-0.270604
-0.262878
-0.0120106
-0.00812472
-0.0033974
-0.260618
-0.00017912
0.00324026
-0.00409555
-0.0560988
-0.00109211
-0.00287437
-0.00863569
0.000472079
-0.235614
-0.261701
-0.029776
3.29618e-06
-0.242201
-0.000361719
-0.00363522
-0.00912885
-0.237329
-0.000241336
-0.00220326
-0.25834
0.000209171
-0.00011508
-0.00355599
-0.217684
-0.00114115
-0.135208
-0.263492
-0.00158669
-0.262821
-0.0278636
-0.00136465
-0.260676
-0.250252
-0.269481
-0.00187269
-0.0977298
-0.00600012
-0.272624
-0.251547
-0.0018273
-0.0787518
-0.00309566
-0.26303
0.000619327
0.0002975
-0.00315775
0.000191066
-0.00362813
-0.00166835
-0.246589
-0.00782059
0.0001015
-0.000445307
-0.00228566
-0.26203
-0.24169
-0.285309
-0.0131611
-0.00272224
-0.25701
0.00253371
0.000183359
-0.00289604
0.000132726
0.000949682
-0.0452162
-0.00293445
-0.00300205
-0.10906
-0.262447
-0.266906
-0.284842
-0.231476
-0.00119711
-0.248087
-0.26559
-0.0686657
-0.244695
-0.279339
-0.246174
-0.156723
-0.00536491
-0.25527
-0.00337317
-0.252165
-0.000416476
-0.156857
-0.0010981
-0.00346334
-0.252094
-0.222212
-0.240564
1.32466e-05
-0.0345212
-0.037775
-0.044695
-0.00162151
-0.00237397
-0.0212059
-0.261095
-0.0128812
-0.258903
-0.0252498
-0.00444494
-0.258872
-0.00156878
-0.00450242
-0.0365592
-0.00286009
-0.197132
-0.279757
0.000543774