/*--------------------------------*- C++ -*----------------------------------*\
  =========                 |
  \\      /  F ield         | OpenFOAM: The Open Source CFD Toolbox
   \\    /   O peration     | Website:  https://openfoam.org
    \\  /    A nd           | Version:  10
     \\/     M anipulation  |
\*---------------------------------------------------------------------------*/
FoamFile
{
    format      ascii;
    class       surfaceScalarField;
    location    "600";
    object      phi;
}
// * * * * * * * * * * * * * * * * * * * * * * * * * * * * * * * * * * * * * //

dimensions      [0 3 -1 0 0 0 0];

internalField   nonuniform List<scalar> 
38623
(
0.219436
-0.21713
0.0806721
-0.0829785
-0.0610189
0.0777787
0.126643
-0.143402
-0.00682162
0.0133765
0.0360534
-0.0426087
0.0041731
-0.0023206
-0.02239
0.0205374
0.0161343
0.030564
-0.0353202
-0.0113772
-0.123088
-0.249355
0.233389
0.139054
0.086243
-0.0719139
0.08223
-0.0965591
-0.00865187
0.00865205
-0.00655207
0.00655183
0.0186237
0.0205236
-0.236946
-0.0357879
0.0792248
-0.319595
0.276158
0.113875
0.128624
-0.116462
-0.126038
-0.216688
0.191637
-0.00535932
0.0304104
0.453986
-0.0443038
-0.460794
0.051111
-0.223271
0.202881
-0.0095123
0.0299029
0.0380177
0.0476759
-0.0532047
-0.0324889
0.0431187
-0.291112
-0.0467332
0.294727
-0.013853
0.382854
-0.00116376
-0.367837
-0.0085316
0.267986
-0.00950086
-0.249953
0.00547514
-0.0260741
0.404234
-0.383635
0.397625
-0.277702
0.235769
-0.355692
0.18371
0.137825
-0.0439956
-0.277539
0.113088
0.0839831
-0.0831963
0.315901
-0.270515
-0.000216725
-0.0451689
-0.214422
0.283973
-0.25882
0.18927
0.0424322
0.251647
-0.0431527
-0.250927
-0.0335314
0.564791
-0.53917
0.00791126
0.0293988
-0.17899
-0.0551147
0.204706
0.21957
-0.176654
-0.481957
0.439042
-0.00925972
-0.000795193
0.0014487
0.0086062
-0.268012
0.288662
0.376974
-0.0151008
-0.020469
0.0198131
0.0157567
0.00582296
-0.00156513
0.000791834
-0.00504965
0.0305491
-0.0336373
-0.0348876
0.0379758
0.294453
-0.0242159
-0.278769
-0.010283
-0.0106907
-0.233679
0.254653
-0.337217
-0.172007
0.145122
0.364103
-0.000603481
0.00014026
-0.00737781
0.00784101
0.00519942
-0.23217
-0.144782
0.163505
0.00343006
-0.0221526
-0.056663
0.0717395
0.310604
-0.32568
0.0645981
0.406228
-0.422702
-0.0481245
0.269944
0.183548
-0.253362
-0.200131
0.324108
-0.182103
0.326433
-0.468438
-0.415734
0.204184
0.337207
-0.125657
0.588907
0.234674
-0.503403
-0.320177
-0.0285048
0.0717425
-0.423201
0.379963
-0.00987569
0.0243476
-0.00364806
-0.0108231
-0.258701
0.191413
0.153777
-0.0864887
-0.00100533
0.00200569
0.000996416
-0.0019968
0.00758545
-0.000519563
-0.00774509
0.000679202
-0.00505852
-0.00130188
0.00139931
0.00496105
-0.0118522
0.0311697
-0.0257398
0.00642222
-0.00192327
0.000725669
-0.00169066
0.00288837
-0.371999
-0.107634
0.28756
0.192073
-0.00102283
0.000445443
0.00640036
-0.0195791
-0.391477
0.397203
0.0413385
-0.0244375
-0.0574809
0.0405804
-0.00456712
-0.00811592
0.00860218
0.00408084
-0.14179
0.186785
0.138715
0.00400934
-0.0082953
0.00587433
-0.00158832
-0.00919568
0.00375107
-0.00331509
0.00875966
-0.341175
-0.110594
0.0360346
-0.334784
0.323521
0.0825695
-0.0713072
-0.00578407
-0.00737348
0.00867587
0.00448169
-0.239529
-0.314663
0.33977
-0.492436
0.346024
-0.22716
0.373573
-0.168833
0.144333
-0.0257372
0.0502379
-0.530892
0.416056
0.170707
-0.0558704
0.117655
0.528593
-0.0573408
-0.383905
-0.0633099
0.0628444
0.38437
0.0089885
-0.00303347
-0.00910368
0.00314859
0.0163266
-0.0080675
-0.015081
-0.0514746
-0.0161634
-0.50655
0.574188
0.0617932
-0.0621787
0.0384031
0.392344
-0.371562
-0.26031
0.041563
-0.0623876
0.0604204
-0.0395957
0.021614
-0.178605
0.172712
-0.015721
0.111682
0.186264
-0.191023
-0.106923
-0.0118625
0.00553414
-0.00542492
0.0117532
0.0380138
-0.0303252
0.339761
-0.34745
-0.1106
0.224494
-0.207137
0.0932429
0.0445955
-0.0572911
-0.0907633
0.103459
0.0742319
-0.093912
-0.0106611
0.00847863
-0.000301636
0.00248408
-0.0192975
0.0446309
-0.0262789
0.000945481
-0.232536
0.243105
-0.0212595
-0.0590403
0.0947797
-0.101354
0.0656143
-0.00144364
0.000422909
0.000315225
0.00070558
-0.282006
-0.0986968
0.13186
0.248843
0.358478
-0.361118
0.0406533
-0.00695598
-0.000364101
0.00664863
0.000671438
-0.419939
0.070343
0.398899
-0.0493031
0.00391391
-0.00742351
-0.00227447
-0.328864
-0.185486
0.199005
0.315344
-0.00703876
-0.0032366
0.005292
0.00498335
-0.00749271
0.000136945
-8.44519e-05
0.0074402
0.487028
-0.110341
-0.386493
0.00980511
0.074773
-0.10231
-0.231164
-0.2726
-0.0277347
0.0646813
0.235653
0.00756613
0.00258808
0.00598081
0.342922
0.0626816
-0.0938446
-0.31176
-0.0392132
-0.103208
-0.026412
-0.0597965
0.0228976
-0.130416
0.167316
-0.00676117
5.25763e-06
0.00674653
9.33379e-06
0.00135236
0.00742669
-0.00826049
-0.000518532
0.000185655
0.00184705
-0.0126938
0.265355
-0.104382
-0.284061
0.218578
0.40844
-0.144786
0.149475
-0.0439018
0.353416
-0.314966
-0.127924
0.089474
-0.115452
0.158222
0.092637
-0.135408
-0.270028
0.0783788
0.196849
0.0584695
-0.0421161
-0.0356509
-0.00513458
0.286639
-0.000966046
-0.280538
-0.138895
-0.327228
0.128907
-0.305667
-0.0542464
0.0592974
0.300616
-0.180412
0.363577
-0.539955
0.356791
0.0533413
-0.28116
-0.0552465
0.283065
-0.000171948
0.000349333
-0.0094371
0.00552003
-0.00755814
-0.00438699
0.00642505
-0.117945
0.022932
0.206695
-0.000202685
0.00586213
0.00024543
-0.00590487
-0.0406032
-0.378157
0.0389668
0.379794
-0.00479122
0.00300946
0.00773743
-0.00595587
-0.0928379
0.0859785
-0.0963491
-0.0745997
-0.659629
0.541916
0.192313
-0.00896986
0.00256823
-0.00279409
0.00798368
-0.000106118
-0.000292114
-0.000485929
-0.0110858
-0.00553905
0.0171106
0.0140925
-0.012345
-0.0115569
0.00980974
0.00825485
0.0102087
-0.00695035
-0.0115134
0.0286408
0.166644
-0.151824
-0.0434615
0.140042
-0.0015055
-0.0186705
-0.119866
-0.206373
0.196185
0.0547684
-0.0445808
0.415672
0.0862515
-0.193747
-0.308177
-0.0999915
0.220049
-0.179854
9.12218e-05
0.00641942
-0.0064965
-1.41841e-05
0.0416317
0.17162
0.0525223
-0.120225
-0.170107
0.237809
-0.106728
0.148209
0.00872219
-0.0087643
-0.000129839
0.165802
-0.1813
-0.255676
0.271173
-0.138643
-0.236852
0.215228
0.160267
0.0825308
0.30255
-0.114308
-0.270772
0.358087
0.0128976
-0.0372577
-0.333726
0.473352
-0.194934
0.0749969
0.285886
-0.0542221
-0.281166
0.0495021
-0.0703142
0.0398547
-0.0195018
0.0499613
-0.00312808
0.00225521
0.00693947
-0.00606664
0.0227689
-0.368156
0.384981
-0.0395946
0.0483626
-0.00295711
-0.040657
-0.00474852
0.263857
-0.116029
-0.454513
0.306686
0.0740696
-0.0930341
-0.0591982
0.0781625
-0.0479781
0.422979
0.142638
-0.517639
0.0361571
-0.035016
0.0235771
-0.0247185
-0.0630852
0.0481592
0.292179
-0.277254
0.0156961
0.0869165
-0.0797143
-0.270664
0.154778
0.231349
-0.115463
-0.0105911
0.0120462
-0.00697638
0.0055214
0.00231441
0.0103981
-0.00853764
-0.00417491
0.0540325
0.376435
-0.378333
-0.0521342
0.0834796
0.0294479
-0.0457254
-0.0672022
0.00264915
-0.00957658
-0.00144834
0.00837574
-0.157321
0.159288
0.453403
-0.000757264
-0.403764
-0.0488819
-0.000736309
0.364477
-0.340971
-0.184628
0.183728
-0.0650936
0.0659936
-0.00639952
-0.00170069
0.00722858
0.000871613
-0.224981
0.397016
0.202574
-0.374609
0.279988
0.128446
-0.242632
-0.173451
0.031532
0.179656
-0.0377369
0.019158
0.00461405
-0.0195991
-0.227033
-0.305849
0.218219
0.00273324
-0.00665619
-0.000868352
0.278888
-0.534408
0.331464
-0.0759432
-0.0137148
0.000323713
0.0106272
0.00276381
0.33174
0.0509399
-0.332277
-0.0504035
0.0515069
0.245301
-0.0537874
-0.243021
-0.257633
-0.0297302
0.26907
0.0182926
-0.198914
0.16791
-0.126264
0.157269
0.00717866
0.0118247
-0.0123461
-0.00665633
0.0177288
-0.00110599
-0.0094431
0.0770916
0.0355971
-0.0711257
-0.0986533
-0.136264
0.0792109
0.155705
-0.0413821
0.089538
-0.394316
0.34616
0.414862
-0.402925
-0.031516
-0.193059
0.0822769
-0.0046728
0.00515381
0.0079976
-0.00747512
-0.000817422
0.0056722
0.00262031
0.284106
-0.195462
-0.00276336
0.00461237
0.00684314
-0.00869217
-0.38151
0.0711283
0.0395325
0.270849
-0.293674
0.351984
-0.114973
-0.287728
0.140391
-0.177965
0.325303
-0.0507357
-0.321077
0.0584255
0.313387
0.147709
-0.197189
-0.286989
0.33647
0.000402428
-7.22795e-06
-0.00748923
0.00709401
-0.000563668
0.0071313
-0.009331
0.00211349
-0.00625723
-0.000542636
0.00468634
0.164895
-0.133073
-0.147275
0.32002
-0.0256395
-0.295117
-0.256192
-0.316409
0.272558
0.300043
-0.00408796
0.00696324
-0.00600336
0.0124417
-0.128696
-0.0330221
0.149276
0.0095985
-0.00705907
-0.0111913
0.00287319
-0.00973883
0.00951477
-0.0318433
0.0165409
0.0244287
-0.00912612
-0.0629768
-0.192731
0.0783809
0.177327
0.197491
-0.00445356
-0.0605736
-0.132463
-0.0963929
0.235479
0.0668434
-0.20593
0.307337
-0.0387861
-0.298876
-0.00822529
-0.000724192
0.00834599
0.350757
-0.340149
-0.0519896
-0.435884
0.242652
-0.031749
-0.0032461
-0.00115029
0.00247309
-0.00457016
0.00115542
0.00940648
-0.00599171
0.119068
-0.0119901
-0.0946369
0.0399802
-0.298625
-0.000191706
0.00736961
-0.00123164
-0.00594633
-0.0133165
-0.00999184
0.00864671
0.0146616
0.0781094
-0.0506207
-0.502763
0.475274
-0.0401103
0.0395159
-0.00698946
0.000356588
6.47057e-05
0.00656816
0.312803
-0.0742186
-0.301669
-0.100081
0.309364
0.0194364
0.0309441
-0.0142766
-0.0361038
-0.000164837
0.00710705
-0.0074618
-0.302263
0.068462
-0.238679
0.062876
-0.00519356
0.180997
0.39858
0.0469381
-0.397573
-0.0479457
-0.197479
0.235167
-0.27634
0.238652
-0.0024666
1.76205e-05
-0.00133799
-0.0612973
-0.207392
-0.570149
0.591462
-0.0548454
0.0555425
-0.0416107
0.0166332
0.0109167
0.000349901
-0.0068132
-0.00445342
-0.242111
-0.356484
0.0282751
-0.00854383
0.0024798
-0.0222111
0.0632152
-0.45986
0.512073
-0.115428
-0.0113286
-0.00682831
0.0109396
0.00721722
-0.00143363
0.00248681
0.000952543
-0.305619
0.0443256
-0.0520214
0.313315
0.00142465
-0.0123199
0.0110809
0.0120927
0.00119475
0.042256
-0.00111036
-0.00631199
-0.119801
-0.318624
0.103641
-0.0842121
0.248211
0.101356
0.0352618
-0.482807
-0.0558575
-0.0114335
0.0026503
-0.000793345
0.0816937
0.0227933
-0.0210076
0.11968
0.451838
-0.421617
-0.149901
0.0749533
-0.222408
0.305808
-0.158352
-0.00510399
-0.00134851
0.00175883
0.00469366
-0.480159
0.479988
-0.044535
0.0447056
0.102777
-0.0141853
-0.0591442
0.00481572
-0.00786152
0.00193543
0.00689826
-0.00546617
0.00452887
-0.000641838
-0.00697063
0.00308359
-0.0890369
-0.334782
0.0903685
0.33345
-0.296165
-0.206873
0.000711481
0.000707996
-0.0525874
0.0816888
-0.304665
0.275563
0.00072941
-0.00865814
-0.00104116
-0.114738
0.174307
0.0320107
0.263315
-0.247167
0.0572467
-0.353543
0.368036
-0.0102099
-0.00913559
0.0056307
0.010059
0.00531232
-0.00938252
-0.00598885
-0.0327538
0.00682607
0.0082519
0.0176759
0.00892931
0.0170251
0.175748
-0.249601
-0.11717
0.00519482
0.0187758
-0.00481292
0.000333438
0.0007716
0.0027889
-0.00389396
0.0925091
-0.217206
0.284749
-0.160052
0.113465
-0.157092
-0.240863
0.0396982
0.000522189
0.00734377
-0.00746487
-0.000401101
0.0551731
-0.0811784
-0.276257
0.00652685
0.000887156
-0.000726241
-0.00668779
0.272951
-0.315612
0.0874395
-0.044778
0.00749915
-0.0150382
0.00938607
0.0828557
-0.0498147
-0.27172
3.10371e-06
-0.000369699
-0.00469195
-0.0698381
-0.327614
0.0836817
0.31377
0.233308
0.0379353
-0.232746
-0.0384977
0.00701886
0.00552483
-0.00306044
-0.00948327
0.00519811
-0.00267427
-0.00525816
0.00273405
0.0871577
-0.354807
0.537492
-0.269842
0.00839954
-0.00889181
0.00336545
-0.0512343
0.0488991
0.0384922
0.00331641
-0.0144263
-0.00278281
-0.00200076
0.00334991
0.00442612
-0.00829327
-0.00350632
0.00330659
-0.00467477
0.00589703
-0.0109814
0.00389287
-0.0116247
-0.221884
0.00585004
-0.00529446
0.00431499
-0.0048706
-0.349269
0.30006
0.0119951
-0.00809768
-0.236434
0.00908355
0.000477462
-0.00907596
-0.000485066
0.00552686
-0.00827628
-0.0102353
0.0129848
-0.0314687
-0.0338561
0.0186733
0.0466514
0.00949643
0.00176962
-0.0273254
0.0202826
-0.0143519
0.0213945
-0.120995
-0.38394
-0.0208025
-0.0150667
0.00705394
-0.00162589
0.00324785
-0.00421455
0.370565
0.0513112
-0.0789543
2.0412e-05
-0.00691863
0.00184611
-0.00354113
0.0572987
0.0515721
-0.0348007
-0.389265
0.0617796
-0.0589684
0.386454
0.132585
-0.196799
-0.109237
-0.0123895
-0.000921437
0.00907592
0.00423506
0.00842446
-0.000497466
0.00586881
0.00557618
0.105031
-0.0461836
-0.0820436
0.0231956
-0.00339724
0.00651227
-0.0355122
0.00595888
0.499023
-0.469469
0.00241601
-0.00858563
0.00652624
-0.00180219
0.00080548
-0.0013934
-0.00519453
0.000594592
0.00599321
-0.361363
-0.279281
0.204761
0.0652445
-0.0347852
-0.223998
0.0210556
0.209233
-0.00629038
0.0127428
0.0127885
-0.0142589
-0.0112724
0.00218837
-0.0076218
0.019526
0.00392135
0.00719844
-0.00496455
-0.00615532
0.211443
-0.098655
-0.209181
-0.0850063
-0.0220316
0.0601939
0.046844
0.00749394
-0.213477
-0.173078
0.379061
-0.00779481
0.00136099
-0.28136
-0.0154825
0.244255
0.00729363
0.00395009
-0.00732238
0.00327044
-0.0231807
-0.0098349
-0.00251788
0.000776863
0.0115758
-0.166053
-0.26098
0.0672399
0.359793
-0.273569
0.314308
0.153667
-0.194408
-0.00935382
0.00891336
-0.00976948
0.00493544
0.0142866
-0.0146083
0.0067118
-0.105259
0.0829387
0.578689
-0.598658
-0.05463
0.480925
-0.644203
0.218642
-0.0553637
-0.00140058
-0.00717694
0.00140468
0.00717267
-0.1032
-0.173238
0.202801
0.0736368
-0.000513041
-0.00847351
-0.0340014
0.0219692
0.0113547
-0.00502221
-0.0161674
-0.00456734
0.00534106
0.0120906
-0.0128646
0.00718599
-0.000216363
-0.0075333
-0.000293191
-0.00610232
0.000388986
-0.000854804
0.00295263
0.0498309
0.240787
0.0613668
-0.185787
0.30361
0.22707
-0.344893
0.362411
-0.591519
0.347579
-0.118471
-0.064817
0.0529722
-0.0135921
0.0104496
0.0125825
0.137081
-0.380301
0.228553
0.0146672
-0.0483788
0.0286464
0.330169
-0.0138486
-0.308826
0.00296382
-0.00139975
-0.00903923
-0.204966
0.0638225
-0.0578817
0.199025
-0.0030375
0.00283369
0.00740225
-0.266159
0.210859
-0.273564
-3.65233e-06
0.0457945
0.462581
0.0564145
0.156226
-0.228354
0.00658288
-0.00491304
-0.00214878
0.00350441
0.00355743
-0.0473491
-0.141511
0.159899
0.0289612
-0.386454
0.00137792
-0.00593285
-0.00124556
-0.00478585
-0.0063583
0.00464477
-0.0209735
0.296596
-0.202395
-0.0150647
0.00425885
0.00348362
0.00732202
0.0661426
-0.0624591
0.0615609
-0.0224875
-0.2969
0.0147226
0.212049
-0.402812
0.267121
-0.0763572
0.470704
0.066164
-0.0559428
0.0631588
-0.0546184
0.136182
-0.20101
0.247399
0.188779
0.00644178
0.00800572
0.261804
0.0533496
-0.0537631
-0.261391
-0.00363207
-0.0115226
0.0158072
0.174322
-0.137606
-0.0394565
0.23924
0.00220212
0.0062042
0.00659033
0.0012388
-0.0029335
0.0097532
-0.00657707
0.000225686
-0.00340184
0.0135742
0.224809
-0.206373
-0.545225
-0.43947
0.120162
0.0136368
-0.317484
-0.00572385
0.00228451
0.0235341
0.021461
-0.0313553
-0.0136398
0.00753348
0.00380195
-0.00293592
0.00773367
-0.0060516
0.0032531
0.00701557
0.028501
-0.0418404
0.00632422
-0.045041
0.0728043
0.0493282
-0.163195
-0.0773829
0.131501
0.109077
0.00474253
-0.00723958
-0.000179425
-0.00970695
-0.00314236
0.00410396
-0.00851977
-0.0486373
0.691921
-0.054664
0.111341
-0.0160392
-0.0597053
-0.00467552
0.00534374
0.00662544
0.0743341
0.0812366
-0.0587152
-0.0968545
-0.0165626
-0.00872246
0.0134326
0.00448969
-0.0308424
-0.00640143
0.143815
0.0591139
-0.123718
-0.215257
-0.0359013
0.0660008
0.185158
-0.0574637
0.25364
0.0486341
-0.24481
-0.00332303
0.00570885
0.00765371
-0.0100395
0.306972
-0.201487
0.195898
-0.301383
-0.210904
-0.070133
0.126417
0.15462
0.0120852
-0.00906627
0.00904013
-0.0093601
0.00104932
-0.239398
0.175387
-0.00599217
0.0120914
0.00399666
-0.0100959
-0.0180858
-0.00563125
0.0086163
0.000805639
0.00712548
-0.00152373
0.0100667
-0.173109
-0.195059
0.382518
-0.334774
-0.0290651
-0.018679
-0.00523598
-0.00194964
0.00576953
0.0014161
-0.136717
0.178647
-0.207984
-0.327011
0.347425
-0.177659
0.157244
-0.51535
-0.0585105
0.489888
0.0839715
-0.111152
0.164145
-0.100341
-0.0324932
0.0244114
0.422944
0.00233113
0.00861401
-0.00401894
0.00236081
-0.00101642
0.053048
-0.0376686
-0.00237217
0.00174399
-0.00269486
-0.00326998
-0.00529524
0.00874995
-0.0145235
0.0154868
-0.0100385
0.00511453
-0.455781
-0.192839
0.287258
0.0115674
-0.0370949
-0.00459427
0.030122
-0.312641
-0.0412585
0.00441661
0.0074161
-0.00446645
0.0277179
0.472493
-0.548189
-0.00150203
-0.00189181
-0.0025984
0.186089
-0.0727887
-0.2165
-0.153814
0.314842
-0.0047994
0.00842596
0.00389548
0.00712986
0.00697462
-0.10703
0.00419233
-0.00950894
-0.259843
-0.368348
0.0750438
0.148269
-0.0776553
-0.145657
0.0198928
0.00931909
1.70599e-05
-0.000128965
-0.00699778
0.00710966
-0.0119579
0.0136609
-0.00391841
0.00221547
-0.313242
-0.00988784
0.0590839
0.264046
-0.0538363
0.191542
-0.244629
0.261219
-0.299358
0.00165625
-0.609933
0.0653858
-0.0541103
-0.0106893
-0.0375887
-0.204834
-0.173869
0.0576662
0.321037
-0.0649752
0.192043
-0.190044
0.0202863
-0.0212954
0.0224701
0.00846599
-0.0063547
0.00483949
0.00612755
0.01031
0.0438847
-0.0384981
0.52183
-0.548803
-0.267606
0.294579
-0.00649921
0.137121
-0.418115
0.500563
-0.0145434
-0.327279
0.340045
0.00177764
-0.0227134
0.0244902
-0.0195091
0.0177327
0.0492162
0.000168321
-0.0378175
-0.0160456
0.00584471
-0.0106016
-0.144746
0.0322452
0.157346
-0.0448457
0.217292
-0.0607194
0.0452893
-0.201863
-0.0757204
0.0501253
0.0654497
-0.195365
-0.115533
0.00955847
-0.257987
0.0549539
0.193474
0.0431347
0.0214937
-0.0274648
-0.0371635
4.5866e-05
-0.000963003
0.00781543
-0.0478685
0.356636
0.0192989
0.00401332
-0.0125658
-0.0107465
-0.00664658
0.00518476
-0.00478767
-0.0409169
0.00860956
0.00970099
0.00535059
-0.00545313
0.0199462
-0.0231549
-0.014783
0.0179919
-0.109215
-0.526461
0.120327
0.0125261
-0.0123294
0.00619432
-0.00639146
0.401027
-0.158174
0.125095
0.219168
0.084837
0.0642283
-0.0808968
-0.0681686
-0.000273032
-0.00870224
-0.000495237
0.0094705
0.000698861
-0.00175985
0.00800042
0.0188438
-0.0216108
0.00911758
-0.00908816
0.00796775
-0.00799722
-0.0132918
-0.00222777
0.00319957
0.0803643
0.167185
-0.0918444
-0.434242
-0.0417703
0.029585
0.446427
-0.479164
0.0363515
0.00770798
-0.020947
-0.0174879
0.0233681
-0.00349691
0.0046991
-0.000216171
-0.000113186
-0.00756361
0.00789293
-0.0167064
0.310167
-0.7355
0.179334
-0.0537685
0.0348865
0.0188194
0.0337884
0.00741774
-0.0106569
0.0256639
-0.0222056
0.0185108
-0.153493
-0.306115
0.0451293
0.414479
0.000110776
-0.00514005
0.000459142
0.283995
0.203167
-0.35004
-0.101315
0.0758146
0.0046119
0.00375049
-0.622783
-0.0590148
-0.0537026
0.119604
-0.0239767
-0.0939808
-0.00164647
0.037329
0.0882418
-0.00505079
-0.00659839
-0.0226264
0.324137
-0.0894613
0.0067564
0.00254207
0.000454714
0.00387531
-0.010211
0.0196737
0.0109365
-0.0185188
0.00803825
-0.0642557
0.0196135
0.0366036
0.262463
0.0219771
-0.243079
-0.0413611
-0.387313
0.374492
0.0246933
-0.0118729
-0.0395031
-0.427232
-0.0750044
-0.359615
0.174777
-0.00560286
0.0106944
-0.0131745
0.00808369
-0.0134777
-0.005239
-0.00671422
-0.356195
0.262632
0.0574102
-0.0470913
-0.0400694
-0.0468417
-0.350272
-0.0588102
0.339244
0.294565
-0.0500701
0.0463252
-0.138002
-0.0530687
0.567203
-0.0760097
-0.167086
-0.329156
0.244215
-0.323964
0.278438
0.283175
-0.23765
-0.031724
0.127784
0.326919
-0.00313505
-0.00425635
0.000489582
0.00690179
-0.35478
-0.167897
0.491314
0.0313632
-0.00580948
-0.000897082
0.0115849
-0.00487838
0.0732183
-0.127493
-0.0499448
0.10422
-0.271211
0.179549
0.395272
0.00797406
-0.00302221
-0.261509
-0.0264278
-0.356749
0.10158
0.281597
0.00860554
0.00122835
-0.0195784
-0.00382098
0.014333
0.0150557
-0.0146537
-0.0123595
-0.379934
-0.154428
0.0785807
0.233901
-0.0730866
0.00112813
-0.000251012
0.00571318
0.00584788
-0.00227472
-0.531028
0.00430614
0.00726059
-0.00860294
0.039367
-0.475178
-0.0443481
-0.585804
0.5307
-0.0541113
0.180007
0.0241547
-0.0382182
-0.388862
0.146131
0.0221654
-0.338065
-0.0465801
0.36248
0.00994195
0.0121931
-0.00444573
0.00649288
-0.00508473
-0.0179798
0.0039069
0.0194139
-0.00730792
-0.000450144
-0.00914529
0.011109
-0.00374193
-0.536019
0.592783
-0.0530224
0.0128844
-0.35833
0.0655523
-0.0574941
0.0305418
0.0359603
0.00395992
-0.155642
0.285865
0.0968472
0.0370192
0.468262
-0.468886
-0.0363948
0.535495
-0.511519
-0.000798936
-0.00530029
-0.224016
0.219384
-0.229902
0.255379
0.0140091
-0.039486
-0.00414284
0.0281178
0.0243876
-0.0293652
0.264384
-0.00409263
-0.230925
0.0667599
0.15742
-0.0083715
-0.000243728
0.00853076
0.04385
-0.260297
-0.553758
-0.0352554
-0.0551902
-0.0940417
0.0218417
0.285041
-0.0155537
-0.00150142
-0.0562158
0.166373
-0.169425
0.0592678
-0.027141
0.0231043
-0.286264
0.19976
0.00542567
-0.00658662
-0.00135843
0.00252095
-0.0499833
0.0579706
0.00813126
0.21844
0.0354957
-0.211504
-0.00454115
-0.00830819
0.00458942
0.0467168
0.0768551
0.0696197
0.297546
-0.0749861
0.026278
0.00631344
-0.0137477
0.0102676
-0.0637397
0.127807
0.0350345
-0.0277318
0.0484736
-0.0557759
0.0164199
-0.010913
-0.00473585
0.00439926
0.00429642
0.111394
-0.0292093
0.0921061
-0.174291
-0.0192237
0.0402556
0.00896415
-0.0299961
0.0926994
-0.367883
0.39059
-0.300409
0.239339
-0.413238
-0.00110685
0.00969104
-0.0105773
0.00678844
0.00610325
0.0185476
-0.221853
-0.0655024
0.187604
0.0997512
0.089124
-0.0945022
-0.0299415
0.17415
-0.0775548
0.0724076
-0.169004
0.379643
-0.391008
0.0591805
-0.0478154
0.253392
-0.137947
0.186208
-0.301653
0.408745
-0.415001
0.0545359
-0.0482802
0.447277
-0.370276
-0.0548358
0.444681
-0.0191994
-0.331419
-0.0451857
0.496284
-0.0339551
-9.68113e-05
0.0292647
-0.16279
-0.369817
0.335292
0.197315
-0.026031
-0.0437702
-0.103252
0.155931
-0.0256683
-0.317531
-0.507244
0.0240354
-0.0528095
0.181206
-0.0321895
-0.135442
-0.0256244
0.0193074
-0.00602785
0.0735028
0.24805
-0.0597487
-0.365628
0.0257372
-0.0401929
0.468096
-0.45364
0.210593
-0.091148
0.0132077
-0.0306359
-0.188478
0.205906
-0.0421851
0.279576
-0.266755
-0.044534
0.480218
-0.0380748
0.22779
0.0287246
0.0206986
-0.0174878
-0.32428
0.312607
-0.127222
-0.240924
0.0766782
0.239199
-0.0193722
0.0330773
-0.0329287
-0.0011372
-0.0137844
-0.00902258
0.0291672
0.0178992
-0.0273926
0.00237455
-0.00342996
-0.00244152
0.257425
-0.0438523
0.00575939
-0.00712161
0.0307364
-0.0407807
0.187314
-0.17727
-0.37279
0.192115
0.254177
0.375188
-0.0180064
0.00122038
-0.358402
0.320946
0.0357732
-0.0493826
-0.0493411
0.352651
-0.0434034
0.0383157
-0.347564
-0.110038
0.756254
-0.0534332
0.399461
0.0576492
-0.0483645
-0.000719658
0.0138153
0.0291609
-0.014923
-0.0317886
0.0254161
0.0149192
-0.00327248
-0.217044
0.205397
0.332907
0.168452
-0.0540816
0.220959
-0.186084
0.0234282
-0.0583039
0.248695
-0.198538
0.167826
-0.204322
0.0890417
-0.0525456
0.17217
0.120995
-0.0722067
0.0759101
-0.00316813
0.0162042
-0.0889464
0.178589
-0.0785146
0.0740751
0.0430469
-0.0194156
0.0166239
0.241263
0.108071
-0.10064
0.357917
-0.0172169
0.0078956
-0.348596
0.156276
-0.142691
0.123909
-0.137495
0.228438
-0.242178
-0.0679652
0.0817038
0.300409
-0.515476
-0.0910477
0.175101
-0.07062
0.0978569
-0.202338
0.357409
0.0218024
-0.0212943
0.175865
-0.17391
0.0335404
0.0189748
0.409863
-0.405556
-0.023282
0.283908
-0.321227
0.0158893
0.0214298
-0.0451325
0.19842
-0.14008
-0.0397032
0.236857
0.228968
-0.208426
0.145901
-0.166443
0.267503
-0.182814
0.199417
0.0548142
-0.0619105
0.174921
0.00799889
0.151552
-0.142865
-0.0166856
-0.0240994
0.12942
-0.115237
0.00991614
0.0986096
-0.0516294
-0.0750165
0.0280366
0.0629833
0.017787
-0.00486011
0.169013
-0.0743977
0.0394756
-0.0326014
0.0361726
0.0796694
0.222019
-0.1231
0.17147
-0.148267
0.207145
-0.0563403
0.0776338
0.238978
0.100838
-0.0985522
0.0917051
-0.0533208
0.0136029
-0.0233889
0.320088
-0.310302
0.331731
-0.0234528
0.0173499
-0.325628
0.241125
0.0301812
0.0126008
0.247011
-0.125371
0.131753
0.300407
-0.209385
-0.0613672
0.0629079
-0.401504
0.399963
0.382911
-0.372234
-0.00735781
-0.00331986
0.0267896
0.0212117
0.281182
-0.482806
0.230592
0.244876
-0.207966
0.383393
0.0155197
-0.0160591
0.236927
0.147253
-0.137169
-0.318901
-0.1201
0.154939
-0.0932942
0.0850329
0.175446
-0.190779
-0.278433
0.203805
0.265407
0.169136
-0.155899
-0.00523882
0.135639
-0.127494
0.214885
-0.201213
0.0659958
-0.00401368
0.317182
-0.348876
0.0357075
0.412061
-0.0333729
0.00422301
-0.118782
-0.315691
0.0996913
0.225847
-0.440337
0.304028
-0.0425747
0.343757
0.042352
-0.343534
0.0366505
-0.0368875
-0.0191354
0.123345
0.317423
-0.150798
0.0574191
0.160138
-0.0623086
0.315533
-0.314372
0.0611476
-0.00608052
0.304724
-0.318717
-0.165692
0.0595584
-0.423442
-0.0590849
0.422968
0.0565855
-0.0794423
-0.0873325
0.110189
-0.080529
0.193456
0.26959
-0.00816132
0.0137216
-0.00303909
0.303202
-0.407297
-0.245682
0.476306
-0.250819
-0.399739
0.174253
0.268462
0.419225
-0.335244
-0.0554671
-0.0285146
0.000579447
0.00135259
-0.00950469
-0.00120804
0.259738
-0.361503
0.0341426
-0.0204809
0.192744
-0.118453
0.344934
0.356508
0.188668
-0.351744
-0.193432
-0.258836
0.263526
-0.372573
-0.00946278
-0.062167
0.457212
-0.111674
0.0442778
-0.056381
0.016112
0.0301343
-0.00458615
-0.1811
0.175056
-0.136648
0.0962413
-0.123309
-0.0800229
0.0809641
0.0556444
-0.124058
0.0602348
0.123775
-0.0599512
-0.0541722
0.0831797
0.0104684
-0.30225
0.159576
-0.0690777
-0.0353489
0.206671
0.00988275
0.0239592
0.164123
0.15157
0.102361
-0.031912
-0.0889026
0.0808315
-0.32643
0.334501
-0.19729
0.05471
-0.0476624
0.0798029
-0.159025
0.173415
0.226735
-0.26929
0.160789
0.171164
-0.0626632
-0.0563287
0.0392892
-0.0905724
0.0651237
-0.0195433
0.0189504
-0.00681888
0.102306
-0.0979928
0.234664
-0.367967
0.372676
0.0983421
-0.103051
0.0400806
0.0518994
0.0377007
0.262947
-0.256287
-0.044362
-0.0704733
0.32439
-0.334446
0.252212
-0.0771759
-0.142803
0.0372178
-0.00530597
0.000919198
0.00303825
-0.415694
0.014779
-0.198077
0.0990968
0.201286
-0.317631
0.29948
0.164059
-0.145907
0.0199631
-0.455277
0.466355
-0.0310419
-0.137194
0.329149
0.211497
-0.336384
-0.112043
0.142233
-0.176295
0.222443
0.281147
-0.138848
-0.325112
0.331423
-0.0230813
-0.256445
0.28183
-0.0605763
0.0408658
-0.312713
-0.256627
0.339693
0.229646
0.00859308
0.00555789
-0.0231617
0.00901122
-0.0750684
0.0246302
-0.233023
0.28346
0.441102
0.266376
-0.428401
-0.279077
-0.217773
0.203292
0.207938
0.250929
-0.153124
0.0884031
-0.279351
0.19723
-0.0395039
-0.0192809
0.00461253
-0.300974
-0.0925976
0.171718
-0.215415
0.0288581
0.224381
-0.0378247
-0.231536
0.185151
0.238501
-0.467663
-0.0289951
0.147857
-0.0395188
0.00235286
-0.00750859
0.417216
-0.429487
0.0147586
0.270321
0.144407
-0.0488692
0.0253266
-0.106873
0.227193
-0.182447
-0.0590204
0.0555794
-0.0871313
0.01173
0.365746
-0.0588305
-0.318646
0.241018
0.178116
-0.258345
-0.139855
-0.092359
0.223836
0.00837679
-0.00733051
-0.00641248
0.031961
0.405701
-0.0477243
0.330912
-0.0499074
0.496791
-0.491761
-0.0495642
-0.443938
0.450644
-0.0484765
0.341047
0.0612289
-0.0515191
-0.428085
-0.0482824
-0.428066
0.421999
0.0540919
-0.0480245
0.483587
-0.531331
0.0996245
-0.0518795
0.371853
0.0554792
-0.0476896
-0.508828
0.530951
0.0284938
-0.0506172
0.489418
0.0129565
-0.048971
0.507657
0.0509819
-0.508549
-0.0500906
-0.564619
0.673941
-0.0582928
-0.0510291
-0.475483
0.0470917
0.480673
-0.0522811
0.437586
0.0575914
-0.447616
-0.0475614
-0.0480902
0.0591189
0.38886
-0.0485188
-0.427738
0.435074
0.0408542
-0.0481904
0.0886123
0.29795
-0.0536553
-0.0665798
0.181009
-0.269399
0.261674
-0.16857
0.0131192
-0.00912218
0.00470806
0.0753035
-0.0535664
0.148743
-0.220636
0.208974
0.310939
-0.207365
0.310905
-0.0387859
0.326236
-0.272531
-0.0114298
0.00132465
0.139524
-0.204689
-0.0380943
0.028111
0.161535
-0.0275933
0.331322
-0.335117
0.355311
0.0280169
-0.0482108
0.437182
0.0161167
-0.0475973
0.356051
0.0236154
-0.0487543
-0.431694
0.364165
-0.0522714
0.182951
-0.0464265
-0.218123
0.331964
-0.390313
0.394481
-0.158697
-0.00867767
-0.0133943
-0.357764
0.379836
0.049564
-0.054629
0.164964
0.0577506
0.0251706
-0.209119
-0.255955
0.0911693
-0.108519
0.273305
0.255255
-0.41818
0.0177396
-0.0431554
-0.014088
0.237211
-0.257979
-0.252054
0.272822
-0.237665
-0.154807
0.113121
-0.338886
0.351559
0.0383972
-0.0510698
-0.375162
0.414827
-0.0483427
-0.3144
0.321808
-0.0557875
-0.341071
-0.0548726
-0.350194
0.35457
0.0444608
-0.0488368
0.313044
-0.31558
0.0579725
-0.0554362
-0.566809
0.457915
0.156578
-0.0476845
-0.377763
0.394924
0.0305773
-0.047739
-0.524576
-0.0632637
0.636923
-0.0490843
0.467939
0.16461
-0.582472
-0.050076
0.466784
-0.445307
0.0295847
-0.0510613
0.495306
-0.482495
0.0387391
-0.0515501
0.0585346
-0.384892
-0.0101861
0.00815378
0.319214
0.20417
0.236355
-0.26936
0.213987
0.159361
-0.146156
0.335008
-0.229319
0.365845
-0.246386
-0.0232176
-0.28771
0.0627568
0.112116
-0.114638
-0.354937
0.0538337
-0.0490904
-0.0555784
0.0280041
-0.0485962
0.0762674
0.441885
-0.0502133
0.0534822
-0.051321
0.497139
0.0499413
-0.0517747
-0.328564
0.0427246
-0.0552318
0.0418279
-0.0477377
-0.0512241
-0.321426
0.0607345
-0.0548884
-0.44749
-0.0714705
-0.047848
0.013801
-0.0489593
-0.129778
-0.373341
0.253559
-0.295127
-0.0443245
0.0558833
-0.166813
-0.0289255
-0.268195
0.294511
-0.165019
0.0220784
0.172128
-0.3832
0.278518
-0.239362
0.228115
0.217073
-0.190534
0.00276465
0.000746175
0.00123172
-0.105488
0.100629
-0.236065
-0.166619
-0.00707512
0.0220742
0.148168
0.299333
0.223103
-0.0428181
-0.346617
0.0535274
-0.281221
-0.0417049
0.060004
-0.049298
0.0414109
-0.0521168
-0.000411623
0.0047891
-0.268374
0.226436
-0.448121
0.130109
-0.0282946
-0.00237961
0.192037
0.056078
-0.0485124
0.438401
0.0490997
-0.0502709
0.518441
-0.0308997
-0.0655521
-0.42199
0.0571789
-0.0476594
0.236541
-0.351318
0.0816255
-0.329272
0.00998123
0.0282805
0.0409612
0.25999
-0.273717
0.191842
-0.0497475
-0.298104
-0.104156
0.379643
-0.364389
-0.0863365
0.0922828
-0.00123828
-0.309847
0.081696
0.0632476
-0.190385
-0.00336039
0.23346
-0.109767
-0.00193567
0.377241
-0.36741
0.183546
-0.102566
0.133007
-0.0106889
0.00295864
0.0426062
-0.0511828
0.0805175
0.0267113
0.109906
-0.0526347
-0.420212
-0.0910744
0.27975
0.00943386
0.150245
-0.162952
0.0435944
-0.0538484
-0.0431159
0.260837
0.301998
-0.202359
-0.279435
0.179796
0.168281
-0.0595213
0.346457
-0.145484
-0.240894
0.0706872
-0.290701
0.27639
0.192809
0.154001
-0.0851365