/*--------------------------------*- C++ -*----------------------------------*\
  =========                 |
  \\      /  F ield         | OpenFOAM: The Open Source CFD Toolbox
   \\    /   O peration     | Website:  https://openfoam.org
    \\  /    A nd           | Version:  10
     \\/     M anipulation  |
\*---------------------------------------------------------------------------*/
FoamFile
{
    format      ascii;
    class       volVectorField;
    location    "600";
    object      U;
}
// * * * * * * * * * * * * * * * * * * * * * * * * * * * * * * * * * * * * * //

dimensions      [0 1 -1 0 0 0 0];

internalField   nonuniform List<vector> 
23845
(
(0.721207 -0.109584 1.12548e-20)
(0.486568 0.100593 -4.98093e-21)
(0.257213 -0.0175466 2.70077e-20)
(-0.136328 0.0161637 7.28891e-22)
(0.0878881 0.0608655 5.14654e-21)
(0.793291 -0.00567074 -5.08488e-23)
(0.924628 -0.0347138 -1.26837e-20)
(-0.0759716 0.0676438 -2.67789e-22)
(0.907018 -0.004308 7.31083e-24)
(0.850459 0.0960019 -5.52069e-21)
(0.4634 -0.0475769 -5.5743e-21)
(0.739689 -0.0011816 8.45405e-24)
(0.912515 0.012777 -9.09985e-23)
(0.865031 -0.0055567 1.34319e-24)
(0.726758 0.0374216 -2.13977e-20)
(0.926152 0.070916 -9.93046e-22)
(0.800931 0.0184067 1.12386e-22)
(0.606904 -0.0158077 6.99388e-23)
(0.93155 -0.0238887 -3.86558e-22)
(0.765975 0.00624794 -2.11436e-22)
(0.888994 0.099955 1.83904e-20)
(0.41775 -0.036213 -1.01319e-20)
(1.05116 -0.0568812 -3.10643e-21)
(0.914241 -0.00478084 1.23113e-23)
(0.759694 0.0851775 -9.71688e-22)
(0.973146 0.0013821 -4.11211e-24)
(0.941157 0.0564201 1.05204e-20)
(0.79089 -0.00734873 2.13952e-22)
(-0.052608 -0.118647 7.8065e-21)
(0.789237 0.00703316 8.69811e-23)
(-0.149126 -0.00741713 3.21221e-20)
(-0.0318607 0.0888013 4.14873e-22)
(0.435828 -0.0250479 9.92811e-21)
(0.652777 -0.0209045 -2.48998e-22)
(0.737116 -0.000142421 -2.70581e-23)
(0.733371 0.00273742 9.89054e-23)
(-0.0445697 0.119766 -7.14377e-21)
(0.738814 -0.00118051 -1.03176e-23)
(0.763612 -0.00354814 -2.15983e-23)
(0.895261 0.00407444 1.00733e-23)
(0.960622 -0.0299642 1.86101e-22)
(0.731722 -0.0150501 -3.7897e-22)
(0.928733 -0.0119667 -6.29596e-22)
(0.683683 0.0118444 4.29699e-22)
(0.989125 -0.00297827 -1.90334e-22)
(0.87146 0.0136078 -9.78342e-23)
(-0.0572057 -0.0275102 -1.83635e-21)
(0.882806 -0.0687424 -4.55542e-21)
(-0.0242055 0.0109744 1.55571e-21)
(-0.0597567 -0.116794 3.42925e-21)
(-0.050307 -0.0440132 7.1304e-22)
(0.17074 -0.0210393 -3.92215e-21)
(-0.0225979 -0.0406706 -3.6224e-21)
(0.836942 -0.00695818 -1.59886e-22)
(-0.0351019 0.0987747 7.56602e-21)
(0.854824 0.0183203 -1.18101e-22)
(0.222364 0.075161 2.60298e-20)
(-0.0925539 -0.0362734 1.87291e-20)
(0.786519 0.106277 -3.5699e-20)
(0.0169186 0.0304372 -1.69308e-20)
(-0.0416843 0.103912 2.56958e-21)
(0.696281 0.0135364 -6.55619e-23)
(0.914099 0.0597379 -1.14388e-21)
(-0.0362244 -0.0966679 3.36602e-21)
(0.93373 -0.00462157 -6.56714e-23)
(0.894403 0.0122154 -8.43285e-22)
(0.981482 0.038849 1.08398e-20)
(1.00411 -0.000226219 9.40255e-23)
(0.997296 -0.002599 -1.46127e-22)
(0.922151 -0.03077 9.80117e-23)
(-0.060385 0.0888126 2.73726e-22)
(0.160853 0.000734826 1.65766e-20)
(0.965748 0.00532854 5.54902e-23)
(0.805902 0.0352776 1.23285e-20)
(0.955026 -0.00417319 -2.21546e-22)
(0.670967 0.0364273 -7.4751e-23)
(0.744254 -0.00200935 -7.19686e-24)
(0.761363 -0.00391561 -7.2405e-24)
(-0.120666 -0.0218266 3.81453e-21)
(0.782699 0.0281983 1.55199e-22)
(0.968555 0.0732683 -2.59538e-21)
(0.699775 -0.0446604 -3.73783e-20)
(0.337442 0.0897337 -4.4688e-21)
(-0.0861122 -0.0527296 -7.92209e-22)
(0.255332 0.00112367 -7.71967e-21)
(0.738327 0.000735335 -6.49335e-23)
(0.622673 0.063045 1.42057e-20)
(-0.0181799 -0.0126751 1.68667e-20)
(0.93349 -0.00393742 6.66421e-23)
(0.845885 0.0273111 -3.52983e-22)
(-0.0487723 -0.0823843 -1.26125e-20)
(0.962253 0.0385004 -6.8713e-22)
(-0.0474585 -0.106755 1.13379e-20)
(0.741136 -0.00457146 -1.47045e-22)
(-0.0896474 -0.0243638 2.80561e-21)
(-0.05448 -0.0927856 -3.54129e-20)
(0.831663 -0.018317 2.56233e-22)
(0.865934 -0.0714537 -3.48873e-22)
(0.952942 -0.0038471 1.40683e-23)
(0.00151982 0.0393537 -7.88208e-21)
(0.837257 -0.0220348 3.94798e-22)
(0.978264 0.0353779 3.72556e-21)
(0.423802 -0.101232 1.41306e-20)
(-0.069173 -0.0882514 -1.58622e-20)
(-0.0532319 -0.0939248 -2.96078e-20)
(-0.0945411 -0.0444369 5.23475e-21)
(0.811231 -0.00623728 4.02863e-23)
(0.967846 -0.00389259 1.59823e-22)
(1.03594 0.0302801 -1.6771e-21)
(0.709618 0.0123265 -1.16979e-22)
(0.509688 -0.0432257 -1.78043e-21)
(0.743201 -0.00220353 -1.97905e-23)
(0.372006 0.0159261 1.57732e-20)
(0.843035 -0.0880384 -2.11061e-21)
(0.737069 0.00319471 -1.72835e-23)
(0.949315 -0.0914421 -2.60731e-21)
(0.953178 -0.00447293 -1.72917e-22)
(0.932936 0.081662 -5.59069e-21)
(-0.0525833 -0.120264 5.73243e-21)
(-0.0193291 0.0838768 -1.60475e-20)
(0.75449 -0.00313905 -4.64442e-23)
(-0.0402391 -0.0947499 -1.95721e-21)
(0.927336 0.0298513 1.00252e-22)
(0.0300172 0.0411677 3.52315e-20)
(0.963179 0.0339206 -3.60313e-21)
(0.96803 0.00229768 9.1145e-24)
(-0.04476 0.100565 2.1618e-21)
(-0.0607273 -0.11195 -1.29638e-20)
(0.138058 0.0182554 1.04673e-21)
(-0.0456251 -0.0376952 1.24312e-20)
(0.141538 0.023419 1.82525e-20)
(0.480336 0.0838724 5.63484e-22)
(0.335852 -0.0516268 2.56248e-22)
(0.835569 -0.0056392 1.15417e-25)
(0.815483 -0.0274724 2.27501e-22)
(0.587297 -0.109521 4.10927e-21)
(-0.0664403 0.0948272 3.31921e-20)
(0.740725 -0.00129046 1.45807e-23)
(1.02707 -0.0364795 6.37976e-23)
(0.768026 -0.00412441 1.6605e-23)
(-0.0555368 -0.125389 -1.56606e-20)
(0.723478 -0.0131269 3.25415e-22)
(0.75471 0.00325106 5.18079e-23)
(0.661901 0.0113533 1.9287e-22)
(0.915514 -0.052111 -2.48712e-21)
(0.698845 0.0106022 3.03474e-22)
(0.945949 -0.088747 -3.00438e-22)
(0.402836 0.0261479 4.22263e-20)
(0.014087 0.0719666 -1.31219e-20)
(0.859318 0.0369496 3.13094e-22)
(0.452406 0.0211512 -1.66443e-20)
(0.933792 0.0074533 1.38134e-22)
(0.464585 -0.0714511 1.50054e-20)
(0.883843 -0.00915332 -3.66393e-23)
(0.339748 -0.0110502 -5.70069e-21)
(0.727578 0.0481149 -1.04679e-21)
(0.252211 -0.0867339 -4.8708e-21)
(0.740827 -0.0029277 -1.31153e-22)
(0.169016 0.0164824 1.26607e-21)
(-0.0543982 -0.108415 3.73471e-21)
(0.916984 0.0381773 3.73028e-22)
(0.678476 -0.0366071 -1.78847e-21)
(-0.0847332 0.0135138 -1.02765e-21)
(0.925664 -0.00432922 3.55186e-24)
(0.9754 -0.0137037 -1.32533e-23)
(0.784327 0.0367655 2.85262e-22)
(0.808575 -0.00540955 -1.7533e-23)
(-0.0456237 0.103951 -5.6431e-21)
(0.784108 -0.00714621 -1.80043e-22)
(0.69636 -0.0107707 -5.87335e-22)
(0.821265 0.00425531 1.8748e-23)
(-0.116594 0.0203481 5.23219e-21)
(0.920536 -0.00526108 -5.90408e-23)
(-0.00622933 0.0433657 -7.43637e-21)
(0.935613 0.00326788 2.83444e-22)
(-0.108898 -0.000802941 -4.47202e-21)
(0.96606 0.0465822 6.5321e-22)
(0.674303 0.0586637 1.58855e-21)
(0.967969 -0.00286059 -2.64126e-23)
(0.744598 -0.0031549 4.75371e-23)
(0.0236952 -0.0445625 6.60158e-21)
(-0.0263703 -0.0272032 8.10293e-22)
(0.772977 0.0388034 1.0884e-20)
(0.496272 -0.035581 -8.01675e-22)
(0.913467 -0.0611746 -3.01139e-21)
(0.903714 0.0176717 4.66657e-23)
(0.722566 0.0137649 -3.27772e-22)
(-0.0782328 -0.060038 2.75261e-21)
(-0.0552115 0.118616 1.84822e-21)
(0.756707 -0.0154371 2.20426e-22)
(-0.0455845 0.102392 2.96152e-20)
(0.863979 -0.00563126 1.24884e-23)
(0.871283 0.00410757 2.03261e-23)
(0.826739 0.00464041 8.07764e-24)
(0.927023 0.0474851 -9.19348e-22)
(0.883828 -0.00547644 -7.79287e-23)
(-0.0645751 -0.0927724 -2.72946e-21)
(-0.0553106 0.109069 1.94738e-21)
(-0.0787515 -0.070498 -1.00457e-20)
(0.57337 -0.0511145 2.20611e-22)
(0.701015 0.0357494 -1.7015e-22)
(0.874245 -0.00663136 -3.09847e-22)
(0.00719881 0.0734231 -6.93228e-21)
(0.363094 0.0670889 1.14557e-21)
(-0.0821151 0.0596971 1.16729e-20)
(-0.0854807 0.0272962 7.32601e-22)
(0.228839 0.00612316 -3.7767e-20)
(0.787849 -0.00474298 -1.25298e-23)
(0.749555 -0.095675 -1.1018e-20)
(0.616388 0.0184329 -1.09818e-23)
(0.718435 0.0265185 -1.567e-22)
(-0.0490675 0.117216 1.06142e-20)
(0.962111 -0.0560567 1.01789e-22)
(0.813107 -0.00908699 1.1791e-22)
(-0.0351005 -0.0359041 2.49509e-21)
(-0.0402797 -0.108618 -5.95652e-21)
(0.263845 0.0471011 -3.56285e-21)
(0.70149 0.0146495 -8.42521e-23)
(-0.0532612 0.120407 1.56358e-20)
(0.162648 0.0229722 -1.81217e-22)
(0.957124 -0.00815473 1.05654e-22)
(0.742373 0.0367918 -6.43663e-21)
(-0.0666626 0.0907984 -2.07905e-20)
(0.810183 0.048784 -1.16821e-21)
(0.673482 0.0092203 -4.00407e-23)
(0.478266 -0.0265244 2.10883e-20)
(-0.0600175 -0.113889 -7.4664e-21)
(0.861998 -0.00556696 9.62237e-23)
(0.79329 0.00496685 1.61113e-23)
(0.966189 0.0294926 7.27093e-22)
(0.758219 -0.00463159 1.06773e-22)
(-0.0289928 -0.00543707 -9.42363e-21)
(0.742812 -0.00226451 1.66472e-23)
(0.998667 0.000190508 -8.85345e-24)
(0.130189 0.0653494 7.97263e-21)
(-0.0496767 -0.113585 -1.06389e-20)
(0.940859 -0.00508032 4.62971e-23)
(-0.153889 0.00771602 8.79635e-21)
(0.934474 0.00376295 1.0279e-22)
(-0.0785897 -0.0240721 2.20252e-20)
(-0.0228578 0.0265079 8.64374e-21)
(0.93273 -0.0869477 6.28328e-21)
(-0.0984434 -0.0424654 -1.28314e-20)
(0.137035 0.0674604 -1.31377e-20)
(-0.0433264 0.0948481 3.14446e-21)
(0.905329 0.0624892 -2.44722e-22)
(0.818579 -0.00607433 -6.23416e-23)
(0.997971 -0.00213423 3.9688e-22)
(-0.0981492 0.0123074 2.11671e-21)
(0.629333 -0.0359579 5.14363e-21)
(0.838002 -0.0136296 1.59091e-22)
(0.738177 0.00137918 -1.78235e-23)
(-0.05222 0.0558624 -4.39094e-21)
(0.950731 0.0118331 -2.0855e-23)
(0.803262 -0.0355423 -7.89865e-21)
(-0.0516466 0.0897079 2.17733e-21)
(-0.000434248 0.0724216 4.27048e-20)
(-0.0625927 0.0633345 7.52353e-22)
(0.736148 -0.00434313 -1.08714e-22)
(0.906477 -0.00554404 -5.43737e-23)
(-0.0139328 0.00162415 -2.08935e-20)
(0.735069 -0.00223001 -4.13064e-23)
(-0.0492052 0.0963841 -3.49684e-21)
(0.555313 -0.0448051 2.18086e-21)
(0.640705 0.043967 -2.72549e-23)
(0.92016 0.00261761 -4.09508e-23)
(-0.118198 -0.00375947 -3.10475e-21)
(0.0646757 0.0419344 -1.41472e-21)
(-0.136298 -0.00365364 5.50133e-21)
(-0.148442 0.00958101 -1.55376e-20)
(0.754933 -0.00343672 -1.69859e-23)
(-0.113483 0.0263224 -3.12417e-21)
(-0.0448916 -0.0137935 -5.07926e-22)
(0.859808 0.00451841 -9.05646e-23)
(0.453007 -0.0318693 -1.20693e-21)
(0.878709 0.00423552 1.29262e-23)
(-0.060153 -0.0694598 6.90317e-21)
(0.853885 -0.00570669 -5.07162e-23)
(-0.0640468 -0.0713067 3.70484e-21)
(1.05501 0.0587095 1.78195e-20)
(-0.084126 -0.046338 1.89363e-20)
(0.797728 0.00504082 -3.46528e-23)
(-0.0617916 -0.0337335 1.0082e-20)
(0.866435 -0.0470583 6.9844e-23)
(0.735134 -0.000533602 -2.43661e-23)
(-0.0183647 -0.0877322 -1.29758e-20)
(-0.0210361 0.0331048 -4.00569e-21)
(0.88829 -0.00557424 -2.57235e-24)
(-0.0864638 0.0393895 -3.88921e-22)
(0.448329 -0.0255313 9.81461e-21)
(-0.110412 0.0109525 2.56486e-21)
(-0.0372941 0.0312623 -1.05269e-20)
(-0.0337295 -0.0982391 2.61106e-20)
(-0.0613007 0.0745511 -5.22551e-21)
(-0.0979903 0.0245401 3.36862e-22)
(0.73797 -0.00138732 -8.2732e-24)
(-0.00770781 0.081984 1.68904e-20)
(0.832308 -0.00633837 -7.52908e-23)
(0.737235 0.000569116 -6.83858e-24)
(-0.05319 -0.119104 -6.90616e-21)
(0.158232 0.0128143 3.06496e-20)
(0.477823 -0.0236065 1.46486e-20)
(-0.047107 -0.112221 1.91317e-20)
(-0.157179 -0.000544026 8.09312e-20)
(0.840264 0.0045282 3.49785e-24)
(-0.161417 0.00201542 -4.7076e-20)
(-0.0379834 -0.0924988 -1.30675e-20)
(-0.047158 -0.0286078 -3.1449e-21)
(0.845802 -0.0212229 3.70346e-24)
(-0.0647204 0.0981194 4.48676e-21)
(-0.0425711 0.00124477 -1.27371e-20)
(0.34584 -0.0674738 3.06662e-20)
(0.901757 -0.0191653 5.28404e-23)
(0.817636 0.00451508 9.99946e-23)
(0.0597273 0.0059053 3.05896e-20)
(-0.0567834 -0.12359 1.45007e-20)
(-0.0146518 -0.0851331 1.80777e-21)
(0.336441 0.0490892 -1.35114e-20)
(-0.0521157 0.0981772 5.6275e-21)
(0.953835 -0.00934502 1.09316e-22)
(-0.0544046 0.0872263 8.82037e-21)
(-0.0474747 0.111367 -8.07743e-21)
(0.028374 0.0616882 -2.31506e-20)
(0.799841 -0.0078668 1.68127e-23)
(0.554123 -0.0340967 -1.22471e-20)
(0.784174 0.00426704 -3.12885e-23)
(-0.138333 -0.0068897 -1.94033e-20)
(-0.0669185 -0.0298082 1.13994e-20)
(0.00108192 -0.0694752 -6.18101e-22)
(0.578848 0.0146372 -3.82524e-22)
(0.360556 -0.0361802 5.10086e-20)
(0.812134 -0.044806 -1.53883e-23)
(-0.0508925 -0.0674444 9.61154e-21)
(0.730689 -0.000835544 3.52204e-23)
(0.0027425 -0.0740884 -4.69838e-21)
(-0.139136 0.0123201 -2.2711e-21)
(-0.069486 -0.0120162 -1.20491e-20)
(0.596073 0.0124599 1.54971e-22)
(0.720418 0.00962845 3.57616e-22)
(-0.125137 -0.00886888 1.07494e-20)
(-0.0865035 0.0214468 -1.33452e-21)
(0.0208802 0.0680608 -1.33795e-20)
(0.465068 -0.0400919 6.99836e-21)
(0.996843 0.00159562 -4.10664e-23)
(0.992591 -0.00334765 1.28815e-22)
(-0.0682708 0.0663593 -4.87358e-21)
(0.732199 0.000818533 -6.27341e-23)
(-0.0566791 -0.0818701 6.0418e-21)
(-0.130028 -0.014027 9.17576e-21)
(0.386426 -0.0213762 -4.08363e-21)
(-0.0949025 -0.00868132 1.63783e-20)
(0.13135 -0.0270626 -6.88017e-21)
(-0.0620595 0.11054 2.06069e-20)
(-0.0573978 -0.0535369 -1.07485e-20)
(-0.0216566 0.0439127 2.1358e-20)
(0.869227 0.00400318 6.93137e-23)
(0.686378 -0.00920448 -2.44918e-23)
(0.950048 0.00459501 -4.01363e-23)
(0.492187 0.0305662 -7.39337e-21)
(-0.0983499 -0.0387851 3.60267e-21)
(0.0763593 0.032274 -1.22565e-20)
(0.942238 0.00169135 -5.95019e-23)
(0.939422 -0.0892386 -6.7035e-21)
(0.874874 -0.0418487 -1.08762e-21)
(-0.0537926 0.120465 1.07111e-20)
(0.817913 -0.005587 2.76368e-24)
(0.0300782 -0.055164 -3.13395e-21)
(0.750761 -0.00582575 8.34717e-23)
(-0.0529143 -0.12064 6.72039e-21)
(0.972502 0.00216709 2.77881e-23)
(0.701173 -0.0121157 7.18036e-23)
(-0.0478749 -0.0942832 1.90256e-20)
(-0.0266305 0.065123 -1.38629e-20)
(0.740436 0.000912378 1.30929e-23)
(0.744697 -0.00372334 1.19289e-22)
(-0.0527101 0.079696 -3.46387e-21)
(0.05613 -0.00386837 -2.17522e-20)
(-0.115619 0.0146515 -3.68539e-21)
(0.716223 -0.0120682 2.55198e-22)
(-0.0838181 0.0351843 6.93866e-21)
(0.671935 -0.0423654 -1.20457e-20)
(0.734659 -0.00257245 -4.56933e-24)
(1.02113 -0.0691763 1.46582e-20)
(0.995249 -0.00308476 3.43442e-24)
(0.998445 0.000929305 1.66294e-23)
(0.749219 -0.00293947 -1.24668e-23)
(0.772278 -0.00497041 -3.24708e-22)
(-0.11831 -0.0166719 -6.36099e-21)
(0.619687 0.0292424 -1.85579e-22)
(-0.0998687 -0.0249457 -1.34637e-20)
(0.947865 -0.0458855 -2.67665e-21)
(0.690017 0.00951279 -1.39741e-23)
(-0.0339865 -0.0833785 3.0861e-20)
(-0.0515637 -0.0847571 7.57071e-21)
(-0.0396328 0.0163035 9.44088e-21)
(-0.0537474 0.115593 6.66449e-21)
(0.559583 0.0375735 -1.13351e-21)
(0.975939 -0.00358029 -1.25819e-23)
(0.917962 -0.0317665 -3.82003e-22)
(0.729393 -0.0010988 5.83774e-23)
(-0.0211576 -0.00542768 -1.80151e-20)
(-0.15862 0.00183624 4.79126e-20)
(-0.0757583 0.0461883 2.65147e-22)
(-0.0480248 0.0188052 -7.8008e-21)
(0.133407 0.0533691 1.89237e-20)
(0.705951 0.040679 1.14803e-20)
(0.783299 -0.0046405 1.23966e-23)
(-0.0320754 0.0758158 1.9739e-20)
(-0.0532388 -0.101705 9.80477e-22)
(-0.0269638 0.0811039 -1.63492e-20)
(0.570036 -0.0290344 -1.03223e-20)
(0.999939 -0.000438914 -3.62093e-25)
(0.861676 0.0353882 9.68772e-21)
(0.032963 -0.0626449 1.14425e-20)
(0.34417 0.0958161 -1.45189e-20)
(0.0921394 -0.00840784 -1.61103e-20)
(-0.130881 -0.00731665 1.73175e-20)
(0.454273 -0.0266358 -5.23733e-22)
(0.770575 0.00384277 8.35974e-23)
(0.955774 0.092528 1.30258e-21)
(0.151967 -0.00495713 6.83523e-21)
(0.740815 0.00841067 -1.51452e-22)
(0.896098 -0.0048032 -2.82194e-23)
(-0.132106 -0.00123526 6.20523e-21)
(-0.0447107 0.0876993 6.61566e-21)
(0.659659 0.103959 5.73135e-20)
(0.122305 0.00901739 -6.2665e-21)
(-0.137596 -0.00515832 1.44827e-20)
(0.0183133 0.029833 1.16602e-20)
(0.0622424 0.0274051 -2.58333e-20)
(0.873693 -0.00545394 -8.01073e-24)
(0.643284 0.0169038 4.14136e-24)
(0.0167767 -0.0688669 -2.5249e-20)
(0.570311 0.00634722 -4.09695e-22)
(0.840882 0.0101326 -5.45052e-22)
(0.9642 -0.0058788 2.02454e-22)
(0.738635 0.000412202 3.67024e-23)
(0.904548 0.0169723 -3.21332e-22)
(-0.0457703 -0.110896 4.30833e-21)
(-0.0155535 0.0236688 4.24664e-21)
(0.587837 0.0344869 -4.83816e-22)
(0.0591162 -0.0196962 -1.53728e-20)
(-0.0556124 0.0967008 -2.1282e-20)
(0.127083 0.025865 -4.95865e-21)
(-0.148706 -0.00118542 -8.20687e-21)
(-0.0146103 -0.0833661 -6.71111e-21)
(0.776795 -0.00802617 -3.50896e-23)
(-0.158914 0.0041297 -2.29462e-20)
(0.765657 0.00396438 -5.53166e-23)
(-0.0893722 0.0293105 -6.08229e-21)
(-0.124011 0.00316927 3.03632e-21)
(0.921783 -0.00862816 -1.24004e-22)
(0.0303756 0.0323142 -1.59025e-20)
(0.734216 0.00172906 -2.47689e-22)
(0.992085 9.22717e-05 -1.02401e-22)
(0.0175764 -0.0680539 -1.63954e-21)
(0.0108761 0.0345938 4.7961e-21)
(0.356998 0.0683892 2.17027e-21)
(-0.0692024 0.0652823 1.29683e-20)
(0.851515 -0.00701782 1.47296e-22)
(0.786293 -0.0950178 -6.47343e-21)
(-0.149729 0.004701 -5.23952e-20)
(-0.0631533 -0.103324 2.25868e-20)
(-0.0267644 -0.0332014 -7.12847e-21)
(0.766088 0.00408096 6.88393e-23)
(0.771987 -0.00463186 -3.31644e-23)
(0.817406 0.00509919 4.85072e-23)
(-0.0321867 -0.0206097 3.47613e-21)
(0.995557 0.00198897 -4.16243e-23)
(0.35873 -0.0162784 -3.97504e-21)
(0.796219 0.00595924 1.60051e-23)
(0.799641 -0.00517381 2.35865e-24)
(-0.167841 -0.000399402 -3.82206e-21)
(-0.0375385 0.0913052 7.94365e-21)
(-0.0295356 0.090327 -2.2409e-20)
(0.121319 -0.0644568 6.91949e-21)
(0.934562 -0.00747248 3.31322e-24)
(-0.0420356 0.0836208 -6.13906e-21)
(0.82438 -0.00744974 -1.42109e-22)
(0.878007 0.0311812 1.66137e-22)
(-0.127856 0.0102063 2.3199e-21)
(-0.158096 -0.00113777 -2.08426e-20)
(-0.163011 0.002625 -8.36291e-21)
(0.398079 0.0292569 -3.1874e-21)
(0.570264 0.0258414 -1.39516e-22)
(0.546579 0.038345 -1.0611e-20)
(0.749466 -0.00313922 7.80955e-23)
(0.743729 0.00193526 -3.66995e-23)
(0.289937 0.0289921 -3.62843e-21)
(0.0282415 0.0595908 -9.74368e-21)
(0.968779 0.00195404 -1.84375e-23)
(0.174216 -0.0100555 2.23326e-20)
(-0.0564799 0.0900427 6.9309e-21)
(-0.150808 0.00363269 -1.64036e-20)
(-0.0715875 0.0662519 -7.51553e-21)
(-0.0975608 0.0168163 6.61944e-20)
(0.96101 -0.0066414 -5.76385e-22)
(0.083622 0.00161369 -7.30273e-21)
(0.946664 -0.00383187 2.29147e-23)
(0.739062 0.00190735 1.46625e-22)
(0.4823 -0.0614425 1.80964e-20)
(-0.0530454 0.126913 -1.37053e-20)
(0.0486791 0.0573751 2.09166e-21)
(-0.120442 0.00200104 -1.49738e-20)
(-0.0950109 0.0465365 1.20415e-20)
(-0.109639 -0.0333331 1.30651e-20)
(0.532193 -0.0376756 1.95129e-21)
(0.946812 0.0149193 1.53724e-22)
(0.760691 -0.00672969 -5.72752e-23)
(0.0376766 0.0600829 -2.379e-20)
(-0.164409 -0.00200169 1.10879e-20)
(0.0617283 -0.051284 -1.7979e-20)
(-0.0458684 -0.119392 3.06761e-20)
(-0.167921 0.000472588 1.03608e-20)
(0.849552 0.0047065 -6.93805e-23)
(0.994137 0.00241733 -1.72163e-23)
(-0.162923 -0.00186879 4.72489e-21)
(0.336015 -0.0122242 -9.54623e-21)
(0.30334 -0.00643967 5.14874e-21)
(0.743142 0.0101658 4.49221e-23)
(-0.0340515 -0.102182 2.55786e-20)
(0.856554 -0.00754614 -4.84085e-23)
(0.606781 0.0161515 2.2574e-22)
(-0.0145455 -0.0792366 1.17022e-20)
(0.991969 0.00235397 -7.33063e-23)
(0.862474 -0.0432829 5.60995e-21)
(0.762223 -0.039155 -5.84926e-21)
(-0.0280074 0.0946204 -2.48867e-20)
(0.978015 -0.0773386 1.14706e-22)
(-0.0530718 0.119264 -3.57933e-21)
(-0.051493 -0.112366 1.0184e-21)
(0.227351 -0.00985622 -5.26073e-21)
(0.135142 -0.0507685 2.25514e-20)
(1.07128 0.0477264 -1.4535e-20)
(0.888931 0.0231691 5.79371e-23)
(0.946097 0.0156426 1.11624e-23)
(0.83151 -0.00760298 1.26732e-22)
(0.00636277 -0.0745631 1.82199e-20)
(-0.0616429 0.00124828 -8.34074e-20)
(-0.121034 -0.0256102 -1.58267e-20)
(0.262964 0.00733861 6.28327e-21)
(0.860396 -0.00674842 -8.69759e-23)
(1.05064 0.0648907 1.52703e-20)
(1.04543 -0.0634883 -2.5117e-21)
(0.920124 -0.043778 8.179e-23)
(1.0382 -0.0715331 -6.8535e-21)
(0.369868 0.0268734 1.05251e-21)
(0.916103 -0.0122159 -3.01826e-22)
(0.808581 -0.00808927 3.8139e-22)
(0.909484 0.00947004 5.26981e-22)
(0.887888 -0.00928436 1.27511e-22)
(0.736106 -0.000413763 5.77149e-23)
(0.0245847 -0.0427091 -2.81331e-21)
(0.88032 -0.0111877 -5.31539e-22)
(-0.0869973 0.0530539 -4.25419e-21)
(0.521389 0.0846321 -1.58347e-20)
(0.711801 -0.0101632 -2.31027e-22)
(0.0613138 0.0521503 -1.22895e-20)
(0.73082 0.000514414 -1.2192e-23)
(0.771049 0.00513639 -2.4049e-22)
(-0.0966868 -0.000317177 1.78655e-21)
(-0.136444 0.00611128 -2.1728e-21)
(0.0535801 -0.0442308 -9.42829e-21)
(0.76171 -0.00741558 1.06001e-22)
(0.707049 0.0111776 2.17116e-22)
(-0.0497656 -0.0761162 -4.91307e-23)
(-0.0470902 0.0966647 5.36636e-22)
(0.964655 0.00241803 2.23441e-23)
(-0.0481216 0.114218 -2.23467e-20)
(0.949259 0.0125527 -3.10637e-23)
(0.989278 -0.00463076 4.3153e-23)
(0.828546 -0.0479412 2.4915e-21)
(0.903095 0.0185654 1.16564e-23)
(0.809193 0.00485611 2.24264e-22)
(0.908641 -0.0769514 6.59249e-21)
(0.0330317 -0.0404175 -1.6313e-21)
(0.00952599 -0.0561979 -4.58116e-20)
(0.2219 -0.0100431 8.33619e-21)
(-0.0665047 -0.0571444 8.36913e-21)
(-0.0418098 0.0197905 1.38684e-20)
(0.98709 -0.00562519 9.45109e-23)
(0.74339 -0.00213339 7.2607e-25)
(0.916222 -0.0460379 6.11707e-22)
(0.342392 0.0253766 8.44449e-21)
(-0.00518675 0.0763206 1.11355e-20)
(0.671625 -0.00579439 -2.07163e-22)
(0.968412 0.0052436 -2.30736e-23)
(0.956613 -0.00697225 -1.34988e-23)
(-0.0670692 -0.0420875 -1.16526e-20)
(0.952893 -0.00660682 4.93848e-22)
(1.07723 -0.0431759 -6.53301e-21)
(0.440285 0.0256949 1.18893e-21)
(0.667749 -0.104645 -3.85584e-21)
(0.48325 -0.0289791 -1.0508e-21)
(-0.0595931 -0.0905114 -3.95231e-21)
(0.672228 -0.00703673 9.33604e-22)
(0.989663 -0.00347309 -2.40863e-22)
(0.851262 -0.00644545 2.48428e-22)
(0.610951 -0.0146194 -1.26792e-22)
(0.747611 0.00214561 2.35832e-23)
(0.15995 -0.0158413 8.41507e-21)
(0.833265 -0.00995875 -3.33981e-22)
(-0.00794144 0.00593993 -3.46517e-21)
(0.614243 0.0393663 -9.14377e-21)
(-0.0556242 0.027791 -1.09064e-21)
(0.63881 0.0842216 -4.14972e-22)
(-0.0639067 0.0511814 -1.08627e-21)
(-0.0273365 0.0155041 -2.15211e-20)
(0.860057 -0.0383142 -1.90717e-21)
(0.741768 0.046969 1.41143e-21)
(-0.123607 -0.00725942 7.41085e-20)
(0.394367 0.0919678 -9.79078e-21)
(0.228253 -0.0731283 -1.77747e-20)
(0.0403251 0.037523 -4.85937e-21)
(0.000445119 0.0692852 3.07413e-20)
(0.603379 0.106294 2.33435e-20)
(0.136266 0.0220765 -2.32812e-20)
(0.271723 0.0797545 1.76383e-20)
(0.79685 0.00827597 3.57313e-22)
(0.843756 -0.00869349 -6.32897e-23)
(-0.00439368 -0.0185861 2.14598e-20)
(-0.0553683 -0.102636 -2.94193e-21)
(-0.0694312 -0.0157847 3.95722e-20)
(0.713149 0.0403281 -3.90512e-23)
(0.22331 0.0813672 -2.99908e-20)
(0.49412 0.0110685 3.28169e-22)
(0.963396 -0.0263112 -7.975e-23)
(0.619164 0.00617361 -8.18244e-22)
(0.971678 -0.0167401 -3.02301e-24)
(0.965138 -0.0705742 2.55815e-21)
(0.914077 0.0118883 -2.57956e-23)
(0.880825 -0.0112041 -2.28246e-23)
(-0.13532 0.0146705 2.49454e-20)
(0.792609 -0.00752965 8.44399e-24)
(0.739597 0.000939938 9.93073e-23)
(0.423215 -0.0206523 3.00185e-20)
(0.495349 0.105235 6.58908e-21)
(0.920262 -0.0799845 2.25906e-21)
(0.986801 -0.00639305 1.406e-22)
(0.500274 0.0268337 -5.83143e-22)
(0.0515511 -0.0556738 -5.33966e-21)
(0.609528 0.0254543 -5.99001e-22)
(0.757014 -0.00565681 1.096e-23)
(0.948035 0.0137479 -1.78755e-23)
(0.747371 -0.108726 -1.37278e-20)
(0.526183 0.0713692 1.94813e-21)
(0.842115 -0.101921 -4.26803e-21)
(0.95214 0.0111188 1.06667e-22)
(0.646603 0.0809554 -4.41184e-23)
(0.192568 0.0101204 -1.84464e-21)
(0.724855 0.00197801 -1.46716e-23)
(0.734396 0.000272212 -5.98842e-23)
(0.0992365 0.00560926 -7.89731e-21)
(-0.105018 -0.0359511 9.17357e-21)
(-0.0350737 -0.100665 -3.27529e-20)
(0.341286 -0.0239825 9.37912e-21)
(0.0523503 -0.052773 -9.79354e-23)
(0.763506 0.0818892 9.34437e-22)
(-0.0100574 0.0698266 2.0985e-20)
(0.490417 0.0434781 -4.38291e-22)
(0.676582 0.0304097 -9.90413e-23)
(0.893557 0.026374 3.93983e-22)
(0.710087 0.0246686 -2.03162e-22)
(0.278669 0.0941058 1.20024e-20)
(0.770982 -0.0256824 -6.67659e-23)
(0.983606 -0.00503564 -3.91551e-22)
(0.972739 -0.015758 -1.08513e-22)
(0.130422 0.062421 1.66122e-20)
(-0.169933 0.000745105 3.08089e-20)
(0.556765 -0.0724007 -1.10107e-21)
(0.965886 -0.0683843 -5.95737e-22)
(0.465506 0.0124638 -6.95954e-22)
(0.631476 -0.0519309 3.83871e-22)
(0.428201 0.00950557 -2.67886e-22)
(0.470478 0.00769488 8.65189e-22)
(0.207249 0.0122788 1.12327e-20)
(0.49741 0.00672816 -4.18103e-22)
(0.144041 0.0131411 1.5698e-20)
(0.672931 -0.051517 1.36202e-21)
(0.768838 0.0259292 -5.45252e-22)
(0.587524 -0.0566247 -4.7181e-21)
(0.531636 0.00270851 3.47769e-22)
(0.765919 0.0123919 7.17915e-24)
(0.554651 0.00477206 -7.07948e-22)
(0.768409 0.0249989 1.50897e-22)
(0.510904 0.0778369 -4.48422e-21)
(0.856788 0.0168955 -1.85395e-22)
(0.576935 0.00180253 8.19019e-22)
(0.400568 0.0557992 -6.72204e-21)
(0.651892 0.0782742 1.34777e-21)
(0.603386 0.00458881 6.03736e-23)
(0.781113 -0.0156113 -2.41395e-22)
(0.438175 0.00379271 8.69293e-22)
(0.394351 -0.000656786 3.58621e-22)
(0.351315 -0.00321421 5.74105e-22)
(0.288261 0.00546348 -5.60115e-21)
(0.232159 0.00882985 -6.59401e-21)
(0.478474 0.0016412 -8.23758e-22)
(0.162612 0.000637826 -1.33205e-20)
(0.504238 0.00136614 -4.09227e-22)
(0.642734 -0.0566175 8.79225e-22)
(0.540878 -0.000342444 -6.40263e-23)
(0.702864 -0.0507489 -1.70726e-22)
(0.558729 0.00158216 -3.2588e-22)
(0.662038 -0.0191801 8.45199e-23)
(0.714415 -0.0235925 4.45305e-22)
(0.585881 0.000669897 -1.15327e-21)
(0.618005 0.00346346 1.30513e-21)
(0.606376 0.000459006 -4.51621e-22)
(0.937364 -0.0190077 -3.17454e-22)
(0.806257 0.0165305 7.08234e-23)
(-0.160789 -0.00108577 -2.68415e-20)
(0.928126 -0.00594733 -4.3507e-23)
(0.806843 -0.0160874 8.13481e-22)
(0.80164 0.0180854 -2.70759e-22)
(0.620964 0.000452085 -1.10944e-21)
(0.802055 -0.00621748 2.98237e-22)
(0.565798 -0.0390944 2.55206e-21)
(0.631506 0.0018703 -3.09578e-22)
(0.406411 0.0141272 1.56092e-21)
(0.359091 0.0127108 4.38906e-22)
(0.520871 0.0109181 1.17751e-21)
(0.639331 -0.00129571 1.22713e-22)
(0.803952 0.0159172 -1.81439e-22)
(0.729031 -0.00404979 6.86006e-23)
(0.831914 -0.0672224 -1.48457e-21)
(0.849924 -0.0526853 -9.84415e-22)
(0.0998155 -0.0215082 2.88003e-20)
(0.920768 -0.009375 -6.91376e-23)
(0.446223 -0.0183955 -3.91627e-22)
(0.654368 3.73211e-05 3.15172e-22)
(0.615432 -0.0137217 1.49969e-22)
(0.744901 -0.00563231 1.61999e-24)
(0.809791 0.0154142 2.91985e-22)
(0.285844 0.0307921 -9.84283e-23)
(0.657675 0.01773 2.10945e-22)
(0.020639 0.00315098 -4.51177e-21)
(0.647238 0.0049366 -7.74318e-23)
(0.875571 -0.00644835 -5.29132e-23)
(0.819736 0.00944125 -2.67129e-22)
(0.977091 -0.00282843 -7.64985e-23)
(0.665162 0.00112467 3.05088e-22)
(0.69879 0.0337086 3.85312e-22)
(-0.0531227 0.0839568 -1.54593e-20)
(0.952986 -0.00640696 2.72246e-23)
(0.662598 0.00498112 4.66553e-23)
(0.127431 -0.00599941 8.29536e-21)
(0.66765 0.000553059 -4.23798e-22)
(0.803835 0.00965928 -1.97349e-23)
(0.772752 0.00761031 2.36895e-23)
(0.409543 -0.0316377 -3.94946e-20)
(0.780142 0.0106548 2.146e-22)
(0.994846 -0.00278166 -6.07137e-23)
(0.522705 0.0743161 2.34263e-21)
(0.804476 0.0168669 4.04484e-23)
(0.0195634 0.0560882 4.82557e-21)
(0.659963 -0.0633852 -3.89143e-21)
(0.697167 -0.0549553 -4.15227e-21)
(0.261503 0.00994614 -3.58361e-21)
(0.313627 0.00292758 -6.61982e-21)
(0.186761 -0.0190166 3.3001e-20)
(0.755779 0.0128882 -3.89493e-22)
(0.490138 -0.00229122 1.86424e-21)
(0.502204 0.0252292 -3.91506e-22)
(0.419967 0.0299052 2.21977e-21)
(0.515554 -0.000987582 1.26382e-21)
(0.837666 0.0439011 -4.85179e-22)
(0.568126 0.000244835 2.18264e-22)
(0.359057 0.0932681 -3.38722e-20)
(0.593158 0.00366401 8.68331e-22)
(0.68139 0.000330325 -3.03176e-23)
(0.24263 -0.00276534 -4.96415e-21)
(0.298461 -0.00760714 3.12436e-21)
(0.324498 0.0443073 8.29342e-21)
(-0.103353 -0.0139344 -1.68814e-20)
(0.729261 -0.0487219 2.37739e-21)
(0.794813 0.00945177 1.23888e-22)
(0.237766 0.0793854 1.667e-20)
(0.697203 0.054384 -7.06706e-22)
(0.714525 0.0219364 3.34762e-22)
(0.613423 -0.00182845 1.273e-22)
(0.563396 -0.00295317 1.88565e-22)
(-0.0460646 0.0475547 3.30756e-21)
(0.878707 0.00457105 2.7522e-23)
(0.660764 -0.0450018 -1.72098e-21)
(0.67766 0.00325911 -5.59732e-24)
(0.906306 0.0147244 -6.75263e-23)
(0.654806 0.00997825 4.82916e-22)
(0.680799 0.00515229 1.59675e-22)
(0.678956 0.0017593 4.65969e-22)
(0.628098 -0.00242457 1.36793e-21)
(0.818371 -0.0170822 -8.61479e-23)
(0.718511 -0.0224128 -3.08521e-22)
(0.743012 -0.0132366 -2.8723e-22)
(0.659892 0.00124743 -2.32302e-22)
(0.810576 -0.0153367 1.86647e-22)
(0.0153351 0.0495118 1.66485e-20)
(0.555139 0.0154612 9.57707e-23)
(0.791877 -0.00952935 2.17092e-22)
(0.623459 0.0128225 1.8227e-22)
(0.641737 0.00962563 -1.11739e-22)
(0.838287 -0.0157637 2.97703e-22)
(0.188235 -0.0292971 -1.43383e-20)
(0.677963 0.0422407 2.50032e-22)
(0.592908 0.0513646 -5.48067e-22)
(0.741009 0.0333219 6.11697e-23)
(0.754552 0.0135018 -1.52664e-22)
(0.807773 0.00996457 -1.33561e-22)
(0.801933 0.0155769 6.70411e-23)
(0.766753 -0.0143058 3.69141e-23)
(0.396978 -0.0978927 -5.27359e-21)
(0.738601 -0.0665028 8.27368e-21)
(0.29986 -0.0236475 -1.92458e-21)
(0.812699 -0.031561 6.58784e-22)
(0.68623 0.00280288 -5.19802e-22)
(0.52323 -0.012231 4.04309e-22)
(-0.0423307 0.105494 8.822e-21)
(0.650995 0.042903 -5.99701e-22)
(0.967308 0.027884 -3.5229e-22)
(0.964504 0.0440436 3.80299e-22)
(0.983971 0.00959224 -2.56466e-23)
(0.979513 0.0134429 -9.88519e-23)
(0.962332 -0.0533731 -2.34478e-21)
(0.970578 -0.0176586 2.10304e-22)
(0.976625 0.0164634 -2.65589e-24)
(0.990887 0.00608247 1.26565e-22)
(0.96503 -0.0248203 1.48776e-22)
(0.987319 0.00799079 -1.23635e-22)
(0.974706 -0.0129316 -1.99518e-22)
(0.985302 0.0088409 1.03025e-22)
(0.985534 0.00591711 4.27264e-22)
(0.993176 0.00505587 2.63502e-24)
(0.973491 0.0177722 -5.85431e-23)
(0.962308 -0.0281998 1.47871e-22)
(0.974332 -0.0148196 -1.59331e-22)
(0.97818 0.0150209 -1.40442e-22)
(0.968165 -0.0649988 1.6407e-21)
(0.668231 0.00809886 -2.28738e-22)
(0.636502 -0.00767249 4.23512e-22)
(0.126569 0.0013796 -2.51234e-20)
(0.204985 -0.0145589 -1.00107e-20)
(0.985793 -0.00499371 4.13334e-22)
(0.926231 0.0026046 1.04544e-22)
(0.725723 0.0107958 -1.17343e-22)
(0.686903 -0.0721289 1.11118e-21)
(0.366901 -0.00143566 1.89644e-22)
(0.578317 0.0531014 -3.49579e-22)
(0.409395 -0.00214895 -4.56681e-22)
(0.704259 0.0231802 2.18923e-22)
(0.969694 0.0239325 -5.94306e-22)