/*--------------------------------*- C++ -*----------------------------------*\
  =========                 |
  \\      /  F ield         | OpenFOAM: The Open Source CFD Toolbox
   \\    /   O peration     | Website:  https://openfoam.org
    \\  /    A nd           | Version:  10
     \\/     M anipulation  |
\*---------------------------------------------------------------------------*/
FoamFile
{
    format      ascii;
    class       volScalarField;
    location    "100";
    object      epsilon;
}
// * * * * * * * * * * * * * * * * * * * * * * * * * * * * * * * * * * * * * //

dimensions      [0 2 -3 0 0 0 0];

internalField   nonuniform List<scalar> 
23845
(
0.00627539
0.00971269
0.0192104
0.0300251
0.0100226
0.00176317
0.0152223
0.0311588
0.00113295
0.00474638
0.00272256
0.00214042
0.00144099
0.00139816
0.0192389
0.00277608
0.0016914
0.00126057
0.0011987
0.00157645
0.00779315
0.00270561
0.00812952
0.00110155
0.00356775
0.000706655
0.0131002
0.00151133
0.030715
0.0015107
0.0273024
0.0369449
0.0186251
0.00135232
0.00210674
0.00174125
0.0366767
0.00211354
0.00208231
0.000969113
0.00125818
0.00160483
0.00113075
0.00177339
0.000812126
0.00147784
0.0120362
0.00208032
0.032427
0.0309014
0.0305501
0.0186748
0.0386521
0.00143558
0.0376496
0.0016399
0.0121469
0.0338215
0.00778145
0.0175863
0.0295158
0.00176813
0.00247661
0.0317748
0.00101149
0.00141774
0.0144401
0.000504532
0.000761645
0.00133974
0.0305116
0.0212036
0.0010014
0.018734
0.000931405
0.0188915
0.00215198
0.00204984
0.0343452
0.00191533
0.0109474
0.0149402
0.0108764
0.0331229
0.0214705
0.00208134
0.0159339
0.0385481
0.00100225
0.00192896
0.0330453
0.00238333
0.0318446
0.00174724
0.0334906
0.0337662
0.00136043
0.0022791
0.000898164
0.0105092
0.00136835
0.015085
0.00672369
0.0285528
0.0383956
0.0326396
0.00164472
0.000875414
0.0143052
0.0017296
0.00224286
0.00210559
0.0201912
0.00326016
0.0017009
0.00560942
0.000985456
0.00349841
0.0311054
0.0278857
0.00209546
0.0363179
0.0020451
0.0244502
0.0159184
0.000792649
0.02955
0.0306625
0.0219151
0.0133992
0.0211554
0.00467696
0.00391788
0.00160515
0.00141137
0.0061402
0.0298449
0.00216033
0.0118808
0.00204339
0.0326106
0.00162481
0.00193089
0.00179189
0.00160971
0.00173515
0.00425071
0.0194312
0.0253064
0.00212168
0.0202973
0.00122757
0.0129053
0.00119706
0.0189401
0.00197962
0.00757878
0.00194576
0.0208431
0.0331259
0.00227906
0.0173444
0.0312363
0.00104565
0.00102248
0.00194458
0.00180192
0.0320022
0.00149872
0.00169105
0.00148793
0.0284817
0.00107529
0.0256335
0.000840637
0.0339597
0.00259082
0.00257814
0.000848495
0.00198725
0.009742
0.0104306
0.0180961
0.00205479
0.00181498
0.00158665
0.00172756
0.0328969
0.0308709
0.00154604
0.0352882
0.00137437
0.0011012
0.00137725
0.00242859
0.00124674
0.0357312
0.0344946
0.0373789
0.0022045
0.00172849
0.001256
0.0258661
0.00466862
0.0311552
0.0313859
0.021504
0.00190698
0.00848085
0.00155871
0.00184034
0.0315916
0.00175446
0.0014007
0.031224
0.0436086
0.00487163
0.00177316
0.0333059
0.0211114
0.00106848
0.0187921
0.0409398
0.00209898
0.00177894
0.0187301
0.032769
0.0013686
0.00159075
0.00202811
0.00183815
0.0309237
0.00207694
0.000600131
0.00900591
0.0309145
0.000992611
0.0297394
0.000952801
0.0271919
0.0360608
0.00359525
0.0336254
0.00836338
0.0316773
0.00252162
0.00163084
0.000788733
0.0326547
0.017133
0.00130979
0.00194205
0.0294518
0.00139973
0.0164365
0.0307525
0.0264245
0.0302116
0.00168589
0.00113844
0.0423096
0.00191301
0.0298274
0.00201645
0.00194715
0.000848674
0.0346573
0.0235815
0.0225405
0.0310445
0.00204671
0.0298278
0.0293728
0.00117125
0.00227811
0.00106694
0.0326892
0.00138899
0.0488381
0.00963019
0.0309621
0.00154932
0.0311897
0.00150844
0.00204956
0.0283576
0.0256655
0.00119589
0.0319003
0.0176372
0.0337022
0.0297545
0.0301434
0.0305249
0.0326709
0.00208733
0.0279442
0.00151297
0.00205045
0.0324216
0.0215088
0.0184985
0.0303099
0.0307808
0.0012867
0.0294974
0.0343943
0.0299319
0.0013486
0.0369519
0.0289425
0.0131943
0.0012111
0.00148875
0.0215721
0.0318301
0.0286499
0.00430307
0.030995
0.00108242
0.0467055
0.0318045
0.0250352
0.00142654
0.0171923
0.00173315
0.0338521
0.0146965
0.0267879
0.00137428
0.0170321
0.00142674
0.031775
0.00192164
0.0267765
0.0285888
0.0247685
0.00152253
0.00169396
0.0348055
0.0268035
0.0250567
0.00247444
0.000681958
0.000881416
0.0524014
0.00192873
0.0331738
0.0342495
0.0190788
0.0249042
0.0231282
0.0321199
0.0313163
0.0376698
0.0011138
0.00171485
0.000962263
0.0189251
0.0339709
0.0230592
0.000731172
0.00392217
0.00148434
0.0301292
0.00172056
0.0257684
0.00168104
0.0317628
0.000673442
0.00167553
0.0343166
0.0466579
0.00212003
0.00187822
0.0301327
0.0225607
0.026932
0.00164091
0.0290768
0.0160227
0.00187024
0.00755223
0.000853102
0.000638641
0.0020938
0.00180444
0.0348549
0.00149663
0.0340666
0.0128001
0.001741
0.0378564
0.0431438
0.0290022
0.0304974
0.0019613
0.000867855
0.00137462
0.00188471
0.0231055
0.0236877
0.0307242
0.0252363
0.015193
0.0181572
0.00196817
0.0418869
0.0347078
0.0281689
0.0181122
0.000555405
0.0172223
0.0257608
0.00766177
0.020597
0.0209354
0.00207294
0.00182027
0.00586354
0.0286118
0.00161627
0.00120157
0.0344782
0.0293362
0.00870167
0.0278221
0.0257505
0.0244073
0.0233576
0.00128954
0.00174554
0.0269699
0.00135057
0.00144296
0.000997988
0.00213255
0.00156568
0.030215
0.0250287
0.019077
0.0422938
0.0407282
0.0221843
0.0249538
0.0296977
0.00147623
0.019482
0.00182413
0.0281866
0.0346347
0.0011102
0.044061
0.00189167
0.000569417
0.0264763
0.0164394
0.0049829
0.0308695
0.00135111
0.00939544
0.0318587
0.0295314
0.0154087
0.00171581
0.00197531
0.00142691
0.0309079
0.000727002
0.0192534
0.00148323
0.00182392
0.02558
0.0290466
0.0337355
0.00837131
0.00107772
0.0308455
0.00140307
0.00202
0.0153661
0.0199047
0.0283422
0.0029335
0.00142708
0.017927
0.00203997
0.00205493
0.0195402
0.0247946
0.000665615
0.0225274
0.030912
0.0177789
0.0304652
0.0133865
0.00101727
0.0217998
0.000952943
0.00188259
0.0139694
0.0302703
0.0234904
0.0144136
0.031797
0.0334294
0.00186107
0.00148877
0.00161463
0.0241615
0.0281748
0.0249153
0.0427216
0.0272113
0.00123272
0.000772843
0.0218219
0.0191913
0.0195846
0.00163841
0.0472252
0.00129706
0.00154441
0.0314036
0.00082439
0.014235
0.016326
0.031106
0.00752381
0.0303504
0.0316373
0.0209896
0.00681389
0.0102704
0.00176782
0.00150919
0.00142216
0.0266174
0.0110634
0.0333373
0.0212749
0.00129803
0.00892882
0.00749853
0.00155751
0.00686988
0.00312077
0.0011557
0.00142953
0.001315
0.00118822
0.00207747
0.0257267
0.00120498
0.0321174
0.0127084
0.00165101
0.0229998
0.00190921
0.00160052
0.0329118
0.0338143
0.0144417
0.00150601
0.00169904
0.0480247
0.0393161
0.000846242
0.0305621
0.0014202
0.00095905
0.013856
0.00161017
0.00148771
0.00261054
0.009037
0.0263255
0.0217854
0.0325335
0.010777
0.000992562
0.00213384
0.00156999
0.0198712
0.0288509
0.0017502
0.0010554
0.00104669
0.0319631
0.0010392
0.00903098
0.0203489
0.00770091
0.00189498
0.0334479
0.00175389
0.000909191
0.00131469
0.00131723
0.00208211
0.0198555
0.00134467
0.0091131
0.0183725
0.0264709
0.0038551
0.0296933
0.0100159
0.0153624
0.00193579
0.0151766
0.00701594
0.0122867
0.00889518
0.0297822
0.00715598
0.00609943
0.00746944
0.00148789
0.00132456
0.0091826
0.032365
0.0116345
0.00180728
0.00950656
0.00137396
0.00118674
0.00174256
0.00103949
0.00222239
0.00142262
0.00122131
0.0174277
0.00155691
0.00210023
0.0184145
0.00724761
0.00279225
0.00100415
0.00197216
0.0124232
0.00144431
0.00159879
0.00145457
0.00566914
0.00372888
0.00684993
0.00137993
0.00366078
0.0209881
0.00173577
0.00199399
0.00644601
0.0321812
0.0295058
0.0188817
0.0258632
0.00338338
0.0268808
0.00275116
0.00165828
0.00185701
0.00183717
0.00848305
0.00144266
0.000991346
0.0010354
0.00789698
0.0246408
0.00305491
0.0020579
0.00168325
0.00194672
0.00202858
0.00153794
0.00471744
0.00126359
0.00575931
0.00173957
0.00188873
0.00240123
0.00107089
0.00161494
0.00120684
0.00187878
0.00413794
0.00159941
0.00139643
0.00391152
0.00348532
0.00166199
0.00148437
0.00184923
0.00232899
0.00281221
0.00358141
0.00433332
0.00139398
0.00531738
0.00115752
0.00214494
0.00107602
0.00157844
0.0012257
0.00144548
0.0014565
0.00146931
0.00175
0.00166186
0.00113159
0.00163251
0.0236514
0.00106007
0.00141201
0.0016743
0.00176508
0.00165877
0.00168422
0.00180115
0.00238144
0.00288963
0.00118919
0.00181757
0.0016202
0.00168018
0.00202543
0.0015576
0.00658042
0.0011074
0.00193899
0.00180976
0.00137661
0.0016126
0.0015789
0.00400024
0.0017928
0.00825445
0.00181048
0.0012334
0.00145096
0.000829663
0.00178418
0.00171364
0.0297785
0.00104353
0.00179456
0.0059706
0.00177289
0.00149148
0.00155064
0.0169739
0.00159518
0.000829472
0.00392354
0.00165208
0.0251923
0.00231312
0.00190385
0.0039335
0.00325315
0.00506423
0.00164676
0.00127075
0.00183803
0.00275788
0.00107711
0.00212307
0.00129352
0.00940286
0.00155517
0.00172864
0.00414808
0.00343907
0.00403292
0.0264431
0.00147741
0.0014993
0.00725215
0.00228991
0.00184988
0.00169767
0.00121259
0.0292343
0.00106885
0.00150127
0.00174597
0.00149656
0.00179293
0.00174672
0.00174175
0.00178064
0.00139482
0.0014823
0.00157046
0.00179659
0.0013938
0.0128281
0.00124417
0.00140488
0.0017261
0.00178945
0.00132655
0.00532216
0.00178938
0.00252934
0.00185361
0.00164986
0.00147373
0.00160892
0.00149676
0.00741075
0.0022155
0.00357103
0.00140306
0.00171662
0.00111629
0.0322846
0.00183298
0.00195903
0.00255125
0.00130572
0.00142904
0.00171894
0.00104682
0.0015135
0.00107573
0.00115587
0.00119975
0.00102699
0.0012579
0.00115548
0.00100146
0.00157296
0.00122206
0.00103023
0.00146842
0.001935
0.00178347
0.00174395
0.0213997
0.00469857
0.000976377
0.000801619
0.00166292
0.00263225
0.0026475
0.00268998
0.00216227
0.00183828
0.00176766
0.00190129
0.00250992
0.00261175
0.00110771
0.00147194
0.00167478
0.00118807
0.00146711
0.00214076
0.0163142
0.00206163
0.00273252
0.00169777
0.00560146
0.00169801
0.00127655
0.00166201
0.00137341
0.00334441
0.00235613
0.00146158
0.00404381
0.00106402
0.00110672
0.00103644
0.00105053
0.00103911
0.00103436
0.00122771
0.00182185
0.0017167
0.00195433
0.00152965
0.00173656
0.00228134
0.00311028
0.00150987
0.00366922
0.0014179
0.00104895
0.00169017
0.00102905
0.00254565
0.00112815
0.00103777
0.00445628
0.00107408
0.00103324
0.00211106
0.00141007
0.00171587
0.0225209
0.00117739
0.00148958
0.00103205
0.00141723
0.001271
0.00171296
0.00163954
0.0341981
0.00197484
0.00111603
0.00184349
0.00220065
0.00817505
0.00271707
0.00169627
0.00158446
0.00158911
0.00170081
0.0180526
0.0501113
0.00178997
0.00181673
0.00129792
0.0192632
0.0014711
0.0194105
0.00177073
0.00122968
0.0016775
0.00154502
0.00156508
0.00178839
0.00126268
0.00733633
0.00169504
0.00609852
0.00231604
0.00447416
0.00172925
0.00152191
0.00128008
0.00168678
0.00198793
0.00188067
0.00177703
0.00136208
0.00254947
0.00306492
0.00373512
0.00156553
0.00181218
0.00268754
0.00198003
0.00339384
0.00245327
0.00224843
0.00321923
0.00166821
0.00167619
0.00186264
0.00178597
0.00167928
0.00180101
0.00147096
0.00174173
0.00168366
0.00172178
0.00195438
0.00152807
0.00173938
0.0098946
0.00168854
0.00158198
0.00176355
0.00180339
0.00190077
0.00121158
0.00254906
0.00748933
0.00795625
0.00133517
0.00176454
0.00333592
0.00429594
0.00167656
0.00312109
0.00135244
0.00141757
0.00170431
0.00296547
0.00182866
0.00258674
0.00374287
0.00258181
0.00330558
0.00367204
0.00352067
0.00140517
0.00184703
0.00182291
0.00171418
0.00195884
0.00217027
0.00155263
0.0509453
0.00135752
0.0211864
0.0013976
0.0013807
0.0314418
0.00168382
0.000505733
0.00196311
0.00104322
0.0016115
0.00174182
0.00145537
0.00159485
0.00458588
0.0294916
0.00169908
0.00128403
0.00140705
0.0134506
0.0163971
0.00673549
0.00292561
0.00170215
0.00167949
0.0017841
0.00134509
0.000891716
0.00142739
0.00965306
0.00740408
0.00263655
0.00386706
0.00292239
0.00464194
0.00563823
0.00434744
0.00177496
0.00590567
0.00206162
0.00257545
0.00377286
0.00162132
0.00296708
0.00184664
0.0024891
0.00180314
0.00198875
0.00116692
0.00173497
0.0010197
0.00115568
0.00134224
0.0018188
0.00160991
0.00137786
0.00824121
0.00558303
0.00169162
0.00446522
0.00167638
0.00111009
0.00180196
0.00211705
0.00148589
0.00174568
0.00167325
0.00175839
0.00170902
0.00134422
0.0085139
0.00134576
0.00165162
0.00416945
0.00173248
0.000929734
0.00153394
0.00476599
0.00138605
0.0328832
0.0193665
0.00135022
0.00152322
0.00184013
0.0032435
0.00171219
0.00166712
0.00272429
0.00193788
0.00226695
0.00181658
0.00126646
0.00106629
0.0563007
0.00103662
0.00252591
0.00171931
0.00141909
0.00407965
0.00130995
0.00145478
0.0228013
0.00166398
0.000854585
0.00135961
0.00177947
0.00162371
0.0017547
0.00164558
0.00138364
0.00601104
0.00179609
0.00179097
0.010378
0.00169375
0.00168856
0.00159584
0.0144008
0.00129211
0.0014568
0.00686536
0.00109204
0.000920528
0.00168953
0.00124204
0.00164527
0.0264513
0.00109918
0.00171299
0.0014512
0.00300811
0.00719149
0.00249033
0.00176692
0.00135119
0.00144047
0.00173283
0.00171116
0.00155054
0.00553556
0.00148814
0.00141427
0.0016917
0.0012055
0.00150246
0.0219167
0.0306714
0.00148639
0.00156339
0.00140249
0.0126223
0.00145652
0.00104661
0.00292626
0.00172084
0.0329828
0.00158825
0.00189902
0.0017018
0.00194347
0.00153471
0.00114939
0.00237107
0.0015208
0.00311588
0.00183483
0.00126053
0.0018189
0.00146265
0.00136649
0.00178567
0.00196433
0.00216444
0.0012949
0.00164205
0.0012295
0.00139072
0.00105505
0.00160063
0.00117815
0.00183818
0.00268504
0.00103848
0.00128256
0.00308881
0.0011728
0.00160363
0.00423009
0.00112013
0.00149053
0.00621184
0.00144976
0.0013291
0.0051087
0.00555491
0.0126428
0.00116415
0.00125347
0.00373884
0.00198236
0.00179555
0.00781119
0.00290037
0.00438937
0.00146221
0.00422262
0.00155286
0.00179975
0.00228469
0.00285366
0.00144321
0.00242096
0.0050054
0.0586698
0.00141208
0.00166708
0.001684
0.00205536
0.00169393
0.00178795
0.00175671
0.0194256
0.00119385
0.00179559
0.00514063
0.00185779
0.00353248
0.00169034
0.00803633
0.00156732
0.00139704
0.0119758
0.00120417
0.00140998
0.00169647
0.00123587
0.0231821
0.0017081
0.00617983
0.00169105
0.00352153
0.027329
0.0332091
0.00525381
0.00133337
0.00139765
0.0142807
0.00134258
0.00135758
0.00149893
0.0069019
0.00160857
0.00133384
0.00151344
0.00708003
0.00161029
0.00138764
0.00161312
0.00162104
0.0376206
0.00139585
0.00135695
0.00543594
0.0021611
0.0332342
0.00144647
0.0306329
0.00171493
0.00643766
0.0014629
0.00179701
0.00154293
0.00190974
0.0016951
0.00172584
0.00221721
0.00292505
0.00109634
0.00174792
0.00170879
0.00274555
0.0025862
0.00172709
0.00138004
0.00151762
0.00133997
0.00144871
0.00140354
0.00155924
0.00142
0.00140579
0.00533839
0.00171581
0.0122125
0.00123549
0.00168724
0.00161886
0.00120658
0.0198422
0.00464433
0.003063
0.00162029
0.00379433
0.00152717
0.00140216
0.00504483
0.00142409
0.0162934
0.0309301
0.00657997
0.00132448
0.00181724
0.0209967
0.00130528
0.00131943
0.001353
0.00448741
0.0129435
0.00164102
0.00153496
0.0196002
0.02078
0.00131783
0.00588076
0.00642987
0.00129442
0.0243495
0.00164501
0.00650276
0.00156308
0.00277515
0.000853583
0.00381349
0.0113731
0.0020304
0.0176679
0.00617569
0.000992347
0.0285566
0.00124533
0.00310628
0.00502972
0.0341419
0.00141142
0.00323872
0.00944207
0.00179998
0.00582284
0.00152646
0.00172066
0.00162654
0.00194634
0.00460252
0.00167115
0.00119959
0.0102292
0.00141361
0.00158994
0.00175952
0.00128855
0.00157526
0.00124527
0.00465565
0.0128186
0.00548874
0.00165967
0.00124193
0.0015264
0.00135264
0.00131103
0.00166546
0.0325558
0.00111526
0.00507839
0.0347037
0.00129024
0.00134835
0.00140293
0.00293814
0.00564283
0.0112817
0.00241705
0.00149297
0.00165373
0.00135917
0.00155494
0.00148067
0.000922614
0.00176608
0.0015779
0.00469648
0.0190445
0.00131451
0.00120463
0.00139978
0.0120219
0.00145715
0.00136176
0.00182544
0.00151112
0.00172294
0.00177814
0.00344639
0.003311
0.00160762
0.0016674
0.00156146
0.0174068
0.0334824
0.0016779
0.00180474
0.00310722
0.00159885
0.00116064
0.00166242
0.00153019
0.00195112
0.00154601
0.0334855
0.00111325
0.0303916
0.00163979
0.00172574
0.0115728
0.00129405
0.00684995
0.00125045
0.00206017
0.00242784
0.00213537
0.00127877
0.00416769
0.00164043
0.00152877
0.0015054
0.00133815
0.034774
0.00141949
0.00190386
0.00160592
0.00343233
0.0334496
0.00241592
0.00126199
0.0137575
0.00170659
0.00167934
0.00364934
0.0159846
0.0320677
0.0265428
0.0013608
0.00159353
0.00291613
0.00131248
0.0169304
0.00432497
0.00168461
0.00207375
0.00876533
0.00166255
0.0158599
0.00225183
0.0043559
0.00140564
0.00697908
0.0060092
0.00130775
0.00193635
0.0228958
0.00125506
0.00120023
0.00507638
0.00183673
0.00210467
0.00671646
0.00355648
0.019915
0.00096805
0.00139732
0.00138125
0.0238164
0.00123217
0.00107385
0.00196102
0.0282707
0.00143262
0.00110689
0.00123577
0.0295356
0.00290712
0.00174554
0.00138097
0.0018712
0.00182391
0.00113859
0.0162903
0.003114
0.00176575
0.00168036
0.00756623
0.0041173
0.00153096
0.00224426
0.00177969
0.00181034
0.0240639
0.00121953
0.00324135
0.00193647
0.00233611
0.0341259
0.0182334
0.0312764
0.0157344
0.0116665
0.00120123
0.0059935
0.00158911
0.00130756
0.00166833
0.0165592
0.00169877
0.0296229
0.0327699
0.00166839
0.00168468
0.026533
0.0764518
0.0030492
0.0155208
0.00787257
0.0110846
0.00172732
0.00655087
0.0522998
0.00200253
0.0245046
0.00171207
0.00166774
0.010877
0.0307438
0.0301954
0.0106254
0.00842494
0.00110926
0.0342907
0.00150875
0.00512666
0.00170411
0.0106714
0.00538541
0.00112319
0.0112369
0.00157685
0.00114291
0.0016692
0.0376675
0.0284234
0.0171288
0.0221749
0.00164832
0.00869447
0.00169051
0.00152798
0.00200864
0.00338787
0.0297663
0.00161138
0.00180031
0.0110515
0.028851
0.00223741
0.00134204
0.0334771
0.00133352
0.0016919
0.00162087
0.000892669
0.00132994
0.00113564
0.00184604
0.0191458
0.00161748
0.00180917
0.00174008
0.00190395
0.0323405
0.00715198
0.000838282
0.0322093
0.00430796
0.00280857
0.00132076
0.0292549
0.00105367
0.0484891
0.0304846
0.0308588
0.00181292
0.00165477
0.0114749
0.0090947
0.0011937
0.00153027
0.00840932
0.011267
0.0180725
0.00155006
0.0577255
0.00158457
0.0308323
0.0018226
0.0306229
0.0018092
0.00149596
0.00180582
0.00150439
0.0298229
0.00157948
0.0332134
0.0359067
0.00147954
0.00161689
0.00530808
0.065579
0.0116842
0.00153041
0.00569526
0.00500147
0.010167
0.000942305
0.0278801
0.00536436
0.0327472
0.082981
0.00110217
0.00146332
0.0034058
0.01944
0.00210941
0.0100261
0.000846905
0.0011259
0.00122915
0.00165168
0.0279631
0.00128297
0.00165987
0.0176729
0.00285662
0.0127978
0.00934686
0.0211119
0.0216751
0.0101466
0.0330429
0.029136
0.00618817
0.00140977
0.0702556
0.00102598
0.025141
0.00212153
0.0225789
0.0305255
0.00155941
0.00116426
0.00139061
0.00177718
0.00160923
0.00149787
0.001501
0.00164844
0.00817538
0.00897624
0.00146149
0.00629918
0.00443414
0.0272369
0.0636869
0.0197967
0.0338513
0.0306101
0.0105371
0.031897
0.00331262
0.000742614
0.0255
0.00102144
0.0287616
0.00355789
0.0013053
0.0793225
0.0050361
0.00103167
0.0330901
0.00161443
0.0123936
0.00610527
0.00263458
0.0186957
0.00167386
0.00658154
0.00109127
0.00156353
0.0138121
0.0329343
0.00208604
0.00129421
0.0010878
0.00159804
0.00157502
0.0219338
0.001456
0.00143005
0.0112992
0.00209095
0.0302575
0.00173251
0.0014924
0.00299247
0.0222383
0.0746782
0.0250784
0.0279753
0.015502
0.00136117
0.0262274
0.00180946
0.00173913
0.0318371
0.00126032
0.0210007
0.0119047
0.0141306
0.0273732
0.00210294
0.0203991
0.00158324
0.00113883
0.00140019
0.00115652
0.0306399
0.00164461
0.00151917
0.00147075
0.0196497
0.00180316
0.0180944
0.0859056
0.00124453
0.0298809
0.0671752
0.00942409
0.00202241
0.0204205
0.00155381
0.00190136
0.00184187
0.020091
0.00157988
0.0011324
0.00143491
0.00552725
0.001349
0.0341463
0.00177382
0.00106772
0.00243663
0.00143498
0.0171062
0.0012848
0.00118578
0.0115704
0.000956346
0.00104464
0.00148113
0.063372
0.00260366
0.0010527
0.0409467
0.0143622
0.0124513
0.00156351
0.00153638
0.0163723
0.0104296
0.0148776
0.0103801
0.0179608
0.0168534
0.00107121
0.0233697
0.0121253
0.00179969
0.031298
0.00119721
0.0297494
0.0280908
0.0301336
0.00283422
0.0130803
0.0420076
0.00108003
0.00215496
0.00203296
0.0320895
0.0342832
0.0301224
0.0490244
0.0112681
0.00141625
0.00157703
0.0134551
0.0214383
0.034324
0.00224733
0.00585632
0.00157114
0.0310598
0.0435147
0.0302786
0.0312273
0.0318137
0.0297099
0.00153788
0.017562
0.0311287
0.0348406
0.0168837
0.0330873
0.00226724
0.0327962
0.0251178
0.00178724
0.0290047
0.0221141
0.00173813
0.0328379
0.00149418
0.0384192
0.0313805
0.0146568
0.0133348
0.089471
0.00161071
0.0133599
0.0207276
0.00108603
0.0150067
0.00143826
0.00125325
0.00543614
0.00157886
0.00158651
0.0057771
0.00132816
0.0014997
0.00161544
0.00116304
0.0100058
0.00189748
0.00558045
0.0280615
0.0239574
0.00178124
0.00243964
0.00112036
0.0305606
0.00117583
0.021388
0.0157202
0.00323797
0.0202082
0.0287447
0.0293919
0.00534845
0.00127601
0.0162286
0.0813519
0.023294
0.00158736
0.00201933
0.00161502
0.00266912
0.0116498
0.0014574
0.00150338
0.0014689
0.0284241
0.00122953
0.00263379
0.00214436
0.00132603
0.0268431
0.0022426
0.00130553
0.00109934
0.0108812
0.00133245
0.0317235
0.00120821
0.00227877
0.00107586
0.00180381
0.0311968
0.028972
0.0871917
0.0423204
0.00244929
0.00245744
0.0201177
0.0017773
0.0297215
0.00199276
0.00135201
0.00154692
0.0104115
0.017366
0.000955434
0.010373
0.0311506
0.0193952
0.0347814
0.0168211
0.00168947
0.0304825
0.0255421
0.00123759
0.0030482
0.0859602
0.00938973
0.00212706
0.0254834
0.00113425
0.0154532
0.00708518
0.0252497
0.00142804
0.00195335
0.0194051
0.00148614
0.00272966
0.00177995
0.0167734
0.00192481
0.0239459
0.00107626
0.0156343
0.00128024
0.000822904
0.00138521
0.00230652
0.0148515
0.0216419
0.00137116
0.00175693
0.00142491
0.00209741
0.00247148
0.00151433
0.0315779
0.030031
0.0150248
0.00204881
0.00108982
0.0709545
0.0944724
0.0305437
0.0183831
0.0128652
0.00118835
0.0193783
0.013168
0.00177393
0.0148529
0.00414467
0.00433823
0.00160471
0.0118527
0.00205795
0.0739394
0.00211436
0.0215594
0.0333163
0.00109274
0.017143
0.00107697
0.0241499
0.0151971
0.00210432
0.00136342
0.0172758
0.0207602
0.00205664
0.0355979
0.0121977
0.00105289
0.0275968
0.00160229
0.0285486
0.00142647
0.00108866
0.00114646
0.0788373
0.00142718
0.0221458
0.00287897
0.00137418
0.00200893
0.00208273
0.00169488
0.00144943
0.0274843
0.00685029
0.00158342
0.00679564
0.00225981
0.00156122
0.00166118
0.00158501
0.0156009
0.00815656
0.00190203
0.00149582
0.00308661
0.00114665
0.0224016
0.00528656
0.00127254
0.00124949
0.0327096
0.00105901
0.00124749
0.0224597
0.0150658
0.00195063
0.00204214
0.0308672
0.0929589
0.0237913
0.00150518
0.00087716
0.0201726
0.00174781
0.000754172
0.00188142
0.00993155
0.0122758
0.0189751
0.00160228
0.0165459
0.0273668
0.0199546
0.0816071
0.00127194
0.00614065
0.00113343
0.0392627
0.00169797
0.00119069
0.00195371
0.00300645
0.00141651
0.0030439
0.000980113
0.00182831
0.00123131
0.0216002
0.0012984
0.014015
0.0443418
0.00781521
0.001194
0.105309
0.00641691
0.0303523
0.0308335
0.00140035
0.00595043
0.000956951
0.00377146
0.0103593
0.000699158
0.0261473
0.00165987
0.00127223
0.00121258
0.00202748
0.0334795
0.00145071
0.00160005
0.0760203
0.0198016
0.000768002
0.018173
0.0803259
0.0153921
0.0234212
0.033991
0.0203374
0.00196841
0.0189867
0.00377599
0.00215288
0.00182937
0.00179831
0.000940404
0.00118618
0.0152912
0.0300947
0.0871552
0.00107077
0.0290898
0.00170581
0.0014578
0.0021375
0.0147056
0.0362745
0.00217416
0.00178885
0.0230538
0.0318725
0.0485734
0.0194856
0.00962329
0.00865996
0.00162897
0.00176841
0.0014152
0.00180333
0.0321278
0.00164179
0.0046637
0.0108058
0.0302806
0.0889197
0.00154174
0.00107656
0.020725
0.0223112
0.0270455
0.00182827
0.00329898
0.0285069
0.0188269
0.0166831
0.0243213
0.0874749
0.0276487
0.00109955
0.00171499
0.00199081
0.0227677
0.00150596
0.0014104
0.00179817
0.00874632
0.00326795
0.0243386
0.0307036
0.0326868
0.0015041
0.0109663
0.0190426
0.0392917
0.00172049
0.0200986
0.0112836
0.0459513
0.00101253
0.0141775
0.0261441
0.0446045
0.00216165
0.00327987
0.00144553
0.00162102
0.00117755
0.0313174
0.00274111
0.0412619
0.0172657
0.0328751
0.00172648
0.0232064
0.00202862
0.0340489
0.00244494
0.00836628
0.0017494
0.00196745
0.0880778
0.0309851
0.00185436
0.0820962
0.00704007
0.00286211
0.0015308
0.00167595
0.0335962
0.0353411
0.000956755
0.00131208
0.0011956
0.00748286
0.00121978
0.00159856
0.00262243
0.0013499
0.078754
0.00157925
0.0605992
0.00102944
0.0329857
0.0209729
0.00489701
0.0208322
0.0298166
0.00197248
0.00109245
0.0010428
0.00123226
0.0331109
0.00122856
0.00156651
0.0156672
0.0296049
0.0332441
0.0107624
0.0394224
0.00113952
0.00125897
0.00162569
0.0289743
0.02686
0.000729502
0.0213492
0.00140576
0.0183763
0.0166808
0.0295047
0.0015378
0.015976
0.00152124
0.00213778
0.0310285
0.0227325
0.00128451
0.00107978
0.0304305
0.0273202
0.00158025
0.00142855
0.0234549
0.0299061
0.00216447
0.00199422
0.0296446
0.00151375
0.0102651
0.00216006
0.0226068
0.0960672
0.00107985
0.0862989
0.0314064
0.00512313
0.0182584
0.0143204
0.00938498
0.0125646
0.00273657
0.00142783
0.00139659
0.00213643
0.00165818
0.0339911
0.00210692
0.0239712
0.0850983
0.00183422
0.000845273
0.00126475
0.00138895
0.00148407
0.00132625
0.0011088
0.00124823
0.000964126
0.00184112
0.00124095
0.00112125
0.00120916
0.0011834
0.00362161
0.00632848
0.0381076
0.0257723
0.0310287
0.0228925
0.00135324
0.0316244
0.000881333
0.0293191
0.00122754
0.0023919
0.0145673
0.02902
0.00175785
0.000952852
0.00148259
0.0589104
0.00558449
0.0328038
0.0012423
0.00183871
0.00199305
0.00942973
0.033891
0.00262378
0.00165863
0.00139678
0.00112079
0.00140436
0.00628481
0.00330016
0.00126821
0.00129808
0.00134614
0.00120436
0.00973796
0.0373001
0.0236702
0.00376887
0.0307363
0.00850498
0.0250951
0.00552199
0.0257465
0.0202518
0.0312787
0.00140509
0.0201289
0.0102444
0.033259
0.0304825
0.0250709
0.00114354
0.0319138
0.00138275
0.0344525
0.0169915
0.033493
0.00166925
0.00243555
0.0149643
0.021267
0.00117771
0.0280267
0.0315823
0.00155974
0.00193298
0.00166636
0.000608186
0.00121239
0.00163444
0.00199631
0.0184292
0.00111736
0.013482
0.0156131
0.034199
0.00138886
0.023281
0.0224635
0.0440814
0.00150381
0.0319558
0.00195747
0.0199239
0.00853654
0.0157931
0.000790608
0.000964267
0.00113311
0.0360332
0.0272573
0.00208602
0.000984346
0.0303616
0.0100533
0.00123349
0.000658667
0.0023223
0.0184728
0.00105424
0.00171729
0.0335545
0.0312315
0.00165979
0.0170592
0.0138316
0.0204357
0.00233486
0.0529378
0.0234353
0.00122094
0.00303887
0.0197872
0.0321785
0.00175612
0.0293275
0.0134387
0.0357837
0.0289496
0.0319785
0.0190114
0.00150579
0.0241007
0.000929632
0.00184388
0.0011605
0.00488139
0.00123219
0.0394079
0.016413
0.0299824
0.00636694
0.000902639
0.0238182
0.0019527
0.00167926
0.0399473
0.021906
0.00121448
0.00162384
0.0131659
0.00090302
0.019718
0.000975685
0.0224167
0.00166834
0.0244154
0.000958484
0.0209522
0.00172289
0.00412666
0.0178052
0.0526202
0.0440792
0.000589268
0.0428421
0.00656636
0.0240289
0.0207764
0.00268199
0.00472208
0.00401883
0.0013268
0.0135587
0.0118764
0.00163623
0.0138487
0.0199015
0.00104347
0.0312247
0.00113199
0.0145559
0.00179762
0.00174475
0.00174182
0.00421095
0.0179356
0.0249042
0.002293
0.00485768
0.00128949
0.00141193
0.00162936
0.00129813
0.00176029
0.00113448
0.00104672
0.00140491
0.00130603
0.0144817
0.0876453
0.000880912
0.00199312
0.0184757
0.022167
0.00377642
0.00110224
0.00204512
0.0295905
0.00372936
0.00174908
0.00214759
0.0274127
0.00346604
0.00105277
0.00168544
0.00346456
0.0369966
0.0199286
0.00464404
0.0455146
0.0297159
0.00117716
0.0125569
0.0210559
0.00151088
0.0323834
0.00214117
0.00183281
0.00111035
0.0318305
0.0011391
0.0208757
0.0116143
0.00160448
0.00385882
0.0198935
0.00109759
0.0362901
0.00146529
0.0176138
0.0224274
0.00113379
0.0326567
0.0180998
0.00134505
0.00131216
0.0345262
0.00174774
0.0174305
0.0344266
0.0217944
0.00230413
0.00130918
0.00155243
0.0307802
0.000754096
0.000658244
0.00200677
0.00350382
0.00155994
0.00108357
0.00145595
0.00173235
0.0179034
0.0328447
0.00261329
0.00130119
0.0179964
0.00145836
0.00102293
0.0021043
0.0384533
0.00166299
0.00118675
0.0345987
0.00113109
0.00157633
0.00138904
0.0114737
0.00159954
0.00752778
0.0303754
0.00137515
0.023056
0.00258339
0.00168079
0.018213
0.0303201
0.0286093
0.00117656
0.00450638
0.00172526
0.0543137
0.0195638
0.00164479
0.00409778
0.00129799
0.0311885
0.00191296
0.00186846
0.0015129
0.0011057
0.00135208
0.00164174
0.0322699
0.00141283
0.00121738
0.00211136
0.00137406
0.0405113
0.0192188
0.0293567
0.00211603
0.00119898
0.0183728
0.00173602
0.00158326
0.00152951
0.00177817
0.00176416
0.00271169
0.00115023
0.00126912
0.00520769
0.0320311
0.0298574
0.0385188
0.0123411
0.00146586
0.097716
0.0298152
0.00401965
0.0417634
0.049312
0.0298129
0.00734739
0.00133096
0.0355121
0.00137199
0.0328403
0.000966061
0.0110232
0.00171199
0.0011658
0.0295672
0.0174101
0.0387396
0.00149934
0.00395724
0.00417344
0.0024613
0.000965808
0.00129379
0.00262132
0.0260638
0.00154209
0.0205536
0.00335606
0.00158714
0.0339621
0.000685385
0.00106076
0.001857
0.00108597
0.0138383
0.032783
0.00117555
0.00138974
0.0189055
0.00151932
0.0148164
0.0250345
0.00723119
0.00192576
0.00105764
0.0217205
0.0189109
0.0012112
0.000746265
0.0304474
0.000809151
0.00125122
0.00434959
0.0014392
0.0272284
0.00257957
0.0140173
0.0013885
0.00366149
0.00112589
0.00118906
0.00135816
0.00707663
0.00053463
0.00073665
0.000872275
0.0318926
0.0326228
0.000931063
0.00385153
0.0137415
0.00851154
0.00108965
0.0250044
0.0181114
0.0333169
0.00170246
0.0296811
0.00147288
0.0187631
0.000760807
0.0333607
0.0496396
0.022785
0.00198014
0.00166344
0.0291207
0.0271185
0.0381665
0.00119542
0.0316572
0.000638001
0.00133668
0.0247107
0.0305247
0.00113482
0.0135774
0.00167115
0.00182358
0.0297374
0.0549499
0.0332386
0.00102927
0.00170653
0.0161313
0.0014363
0.00150118
0.0141668
0.0203593
0.0229298
0.0293618
0.000991463
0.00110057
0.027445
0.0109749
0.0282339
0.00797933
0.0161229
0.014484
0.00199937
0.00195876
0.00123278
0.00107647
0.00115419
0.0393342
0.00924057
0.00184462
0.00183031
0.0018809
0.000627378
0.00267311
0.0376622
0.0284815
0.000576599
0.000776593
0.000820723
0.0302301
0.00872256
0.0336214
0.00190213
0.0172548
0.00158937
0.00169966
0.0115259
0.00150639