/*--------------------------------*- C++ -*----------------------------------*\
  =========                 |
  \\      /  F ield         | OpenFOAM: The Open Source CFD Toolbox
   \\    /   O peration     | Website:  https://openfoam.org
    \\  /    A nd           | Version:  10
     \\/     M anipulation  |
\*---------------------------------------------------------------------------*/
FoamFile
{
    format      ascii;
    class       volScalarField;
    location    "100";
    object      k;
}
// * * * * * * * * * * * * * * * * * * * * * * * * * * * * * * * * * * * * * //

dimensions      [0 2 -2 0 0 0 0];

internalField   nonuniform List<scalar> 
23845
(
0.0293291
0.038903
0.0449745
0.0660019
0.0394759
0.0407752
0.0381852
0.0541815
0.0296473
0.0253665
0.0188671
0.0473386
0.0288933
0.0347115
0.0407067
0.0212171
0.0288124
0.0189204
0.0232354
0.0347535
0.0335869
0.018847
0.0313638
0.0287244
0.0221942
0.0210592
0.0416108
0.035647
0.0311498
0.0337814
0.0652248
0.0235357
0.0330149
0.0202252
0.0468317
0.0389025
0.0225334
0.0468688
0.0461822
0.0274587
0.0221249
0.0282206
0.0270967
0.0289266
0.021941
0.0292452
0.0429685
0.0166562
0.0277822
0.0240047
0.0416426
0.0502901
0.0237984
0.0348686
0.0234283
0.0289116
0.044221
0.0597646
0.0338715
0.0537272
0.0361533
0.0286469
0.0225011
0.0282898
0.0267717
0.0290139
0.0410179
0.0169874
0.0207259
0.0221891
0.0488013
0.0490067
0.0250136
0.0414726
0.0249075
0.0410824
0.0474526
0.0456621
0.0664619
0.0266797
0.0393576
0.0375518
0.041558
0.0640301
0.0448242
0.0464845
0.0469748
0.0226763
0.0267071
0.0278184
0.0406441
0.0292744
0.0280962
0.0395682
0.0574141
0.0447674
0.0267542
0.0170546
0.0244332
0.0402808
0.024626
0.0412024
0.030986
0.014264
0.0259669
0.0651597
0.0387507
0.0236141
0.0406048
0.0293835
0.0171129
0.0466733
0.0426034
0.0200975
0.0379317
0.0267269
0.0259126
0.0217383
0.0337886
0.0382157
0.0464445
0.032705
0.0287684
0.0488505
0.0415125
0.0224059
0.0404926
0.0226849
0.0428229
0.0454706
0.0303778
0.0256223
0.0229206
0.0383587
0.0222574
0.0292376
0.0142638
0.0476501
0.0359561
0.0455498
0.0293579
0.0290352
0.0442868
0.0279396
0.0176166
0.0297549
0.0228199
0.0453792
0.0307726
0.0261228
0.0380527
0.0275306
0.0414225
0.0296371
0.0379377
0.0191707
0.0332008
0.0435743
0.0285121
0.0440975
0.0275312
0.0373911
0.053275
0.0275849
0.0252276
0.0234033
0.0416414
0.0320367
0.0351062
0.0296617
0.0381227
0.0644492
0.0281075
0.0531566
0.0239426
0.0616186
0.0282113
0.019582
0.0231534
0.0444323
0.0381911
0.0397652
0.0416437
0.0164163
0.0165337
0.0289458
0.0291454
0.0628248
0.0249481
0.0284
0.026
0.0340567
0.0300782
0.034973
0.0260729
0.0315464
0.0220242
0.0243386
0.0145762
0.0169374
0.0204893
0.0315162
0.0340453
0.0255253
0.0573313
0.0537757
0.0504056
0.0433215
0.0343432
0.0213381
0.0251466
0.0314326
0.0177796
0.0334451
0.0330429
0.026053
0.0260917
0.0283815
0.0170979
0.0339294
0.0271051
0.041165
0.0219641
0.0214385
0.0293055
0.0358487
0.0180145
0.0339085
0.038482
0.0293998
0.0417509
0.0306554
0.0461496
0.0188072
0.0371927
0.0397289
0.02629
0.0664326
0.0251898
0.064792
0.0250171
0.0208541
0.0645151
0.0355732
0.0323458
0.0217562
0.0385897
0.0213014
0.0578657
0.0372809
0.0291688
0.0437438
0.0402454
0.028539
0.0379817
0.0385683
0.0386083
0.04525
0.0381196
0.0293628
0.0199793
0.0428378
0.0443457
0.0162711
0.0177261
0.024928
0.0643713
0.0421974
0.0593008
0.066964
0.0456089
0.0646693
0.0385295
0.0310371
0.0172755
0.0291044
0.0481234
0.0342423
0.0242414
0.0362952
0.0646199
0.0374861
0.046904
0.0174222
0.0456725
0.0349451
0.0572392
0.0302501
0.0548891
0.0379921
0.0615919
0.033567
0.0305553
0.0446332
0.0580674
0.0463661
0.0282477
0.0364443
0.0458467
0.0384652
0.0270286
0.0362232
0.036785
0.0671838
0.0330064
0.0664455
0.0273022
0.0397285
0.0249345
0.0211863
0.0371793
0.0431013
0.0251955
0.037951
0.0587308
0.027562
0.0314343
0.0243864
0.0377392
0.0271644
0.026212
0.0317835
0.0276703
0.0336728
0.0373162
0.0416444
0.0676255
0.0477846
0.0455803
0.0190876
0.0432177
0.0173055
0.0421878
0.0429171
0.0406931
0.0653083
0.0630701
0.0216584
0.0302944
0.0662618
0.0624958
0.0288765
0.0179895
0.0202115
0.0233128
0.0206529
0.0431883
0.0462713
0.0672856
0.0352353
0.0632699
0.0326885
0.0209898
0.0454818
0.0233222
0.0307844
0.0305426
0.0249296
0.0428373
0.0626223
0.0449135
0.0226336
0.0218424
0.0190707
0.0264943
0.0402742
0.0463238
0.0383853
0.0361801
0.0205879
0.0287921
0.0393513
0.026936
0.0472811
0.0423173
0.0396041
0.0591794
0.063506
0.0298563
0.0625995
0.0374925
0.0419765
0.0307792
0.0227035
0.0194883
0.0464371
0.0413079
0.0655239
0.0180688
0.0609054
0.0365837
0.0302119
0.0274456
0.0268704
0.0354689
0.0361044
0.0169978
0.023318
0.0218524
0.0421123
0.0610204
0.0612595
0.050511
0.060248
0.0498168
0.0417095
0.0443271
0.0267121
0.0258594
0.0429998
0.0366965
0.0180289
0.0418507
0.0393083
0.0340673
0.0533507
0.0572243
0.0165108
0.0427667
0.0281265
0.0283318
0.0327362
0.0309152
0.0667085
0.0460521
0.0363523
0.0258504
0.0639152
0.0539085
0.0501676
0.0323199
0.024749
0.0304207
0.0195715
0.0301475
0.0259288
0.0473853
0.0289858
0.0329764
0.0581659
0.0411503
0.0291041
0.0245617
0.0405852
0.062884
0.0293972
0.0341824
0.0555725
0.0425297
0.0628546
0.0653083
0.0281441
0.026368
0.0424538
0.0184668
0.0327762
0.0519063
0.026488
0.0486394
0.0332645
0.0354569
0.0673963
0.0158119
0.0489684
0.0398614
0.0444055
0.0354242
0.0319884
0.0209537
0.0342336
0.0337686
0.0419547
0.0631491
0.0419197
0.0268508
0.0351027
0.0276781
0.0326458
0.033865
0.0278346
0.0492542
0.0559136
0.0655609
0.01992
0.0160674
0.0448782
0.0454733
0.0462635
0.0528601
0.0385082
0.0205783
0.0315719
0.0420946
0.0530335
0.0557951
0.0457873
0.026346
0.0536696
0.0254935
0.0424706
0.0414646
0.0280615
0.0315159
0.0474527
0.0613065
0.0659371
0.0156813
0.028875
0.0371948
0.0343759
0.0656156
0.0314551
0.026046
0.0646501
0.0324987
0.0216544
0.0584502
0.0325724
0.0349406
0.0305539
0.0225742
0.032032
0.0215118
0.0283279
0.0224164
0.0372847
0.0376513
0.027618
0.0310888
0.0348457
0.0425379
0.0265611
0.0312757
0.0370271
0.028684
0.0288827
0.0344674
0.0355053
0.0411657
0.0670534
0.0470479
0.0322605
0.0350386
0.030271
0.01919
0.0291299
0.0205299
0.0275053
0.0341331
0.0285008
0.0296024
0.0462455
0.055129
0.029229
0.0568868
0.0445776
0.0306546
0.0298749
0.0426754
0.0368247
0.0578672
0.0668395
0.0472026
0.0343467
0.0307079
0.0280182
0.0261594
0.0232007
0.0281071
0.0286691
0.0249687
0.0371225
0.0289177
0.0367999
0.0179584
0.0366626
0.051249
0.0347728
0.0506047
0.0406722
0.0257295
0.0471648
0.0185763
0.0485319
0.0272032
0.0310918
0.0254837
0.0268919
0.0497466
0.0268435
0.0326097
0.0388108
0.0328952
0.0158031
0.0493117
0.0303282
0.0239116
0.0324739
0.0198993
0.0469142
0.0504881
0.0326442
0.0369308
0.041996
0.0606179
0.0230937
0.0453587
0.0389696
0.0378084
0.0196994
0.048644
0.0323393
0.0429347
0.0365785
0.0265517
0.0326133
0.0295227
0.0335525
0.0330258
0.0324247
0.0370789
0.0480222
0.0422294
0.0195768
0.0385516
0.0141365
0.0224718
0.0261352
0.0245228
0.0170811
0.0288172
0.0284137
0.052703
0.0366655
0.0468981
0.0369212
0.0329528
0.0184543
0.0259357
0.0166402
0.0436356
0.018099
0.036755
0.0288105
0.0276361
0.0226838
0.0303688
0.028409
0.0225191
0.0402439
0.0385142
0.0446137
0.0303773
0.0661917
0.0338449
0.029163
0.0299252
0.0217162
0.0433483
0.0194707
0.0208912
0.0284938
0.0254875
0.0361285
0.0227263
0.0257293
0.0247271
0.0343576
0.0619245
0.0199059
0.0169154
0.0151921
0.0160435
0.0164887
0.0145326
0.0255316
0.0137097
0.028544
0.0154451
0.0271851
0.0176016
0.0145686
0.0301584
0.017418
0.0275176
0.0239557
0.0290574
0.0207471
0.0231862
0.0220075
0.0247226
0.0284977
0.0157302
0.017594
0.0193394
0.0219727
0.0243814
0.0138926
0.0273026
0.0134041
0.0166994
0.0153219
0.0151361
0.017988
0.0220152
0.0224069
0.0219393
0.0265406
0.0250185
0.0246559
0.0291542
0.0606706
0.0275678
0.0284316
0.0289506
0.0270428
0.0389217
0.0150567
0.0281369
0.017879
0.0196699
0.0142578
0.0291376
0.0292851
0.0377885
0.0164077
0.0163141
0.0306838
0.0281967
0.0159907
0.0306274
0.0209067
0.0367236
0.029699
0.0233516
0.0257889
0.0349277
0.0291393
0.0308993
0.0311192
0.0225104
0.0314011
0.020975
0.0492403
0.0269634
0.0303951
0.0290566
0.0318468
0.0313276
0.0339126
0.0411516
0.0302912
0.0221906
0.0232943
0.0290518
0.0431686
0.0172452
0.0159777
0.0230998
0.0208783
0.0264796
0.030146
0.0134428
0.0161237
0.0193346
0.0134416
0.0233418
0.0192456
0.0383397
0.0231234
0.0333212
0.0237475
0.0214621
0.0235575
0.0646759
0.0151983
0.0325964
0.0329293
0.0190394
0.027022
0.025774
0.0180564
0.0375221
0.0288761
0.0148154
0.0323276
0.0290215
0.0282324
0.0317634
0.0328751
0.0275423
0.0278531
0.0230965
0.0298973
0.0309907
0.0287779
0.0452857
0.0162123
0.0321199
0.0249932
0.0271411
0.028114
0.0272
0.0183408
0.0190452
0.0236387
0.0298264
0.031823
0.0294316
0.0300873
0.0327067
0.0168703
0.0218662
0.0204482
0.0333675
0.0131828
0.0268133
0.0176938
0.0293101
0.0286464
0.0276985
0.0286593
0.0181721
0.0243411
0.0288418
0.0253611
0.022615
0.0266122
0.0254646
0.0272417
0.026242
0.0245183
0.0289229
0.0223046
0.0248979
0.0287502
0.0170241
0.0297325
0.0269776
0.0511641
0.0254011
0.0254214
0.0244503
0.0309972
0.0183181
0.0187618
0.0195099
0.0169462
0.0258765
0.0290888
0.0292543
0.0291636
0.0243464
0.0162477
0.0324066
0.0296705
0.0279302
0.020817
0.0476058
0.0378714
0.0458509
0.0205773
0.0289919
0.0279921
0.0343419
0.0276007
0.0190306
0.0216082
0.0198334
0.0173335
0.0212528
0.0218508
0.0238515
0.0229204
0.025872
0.0263094
0.0264548
0.0264245
0.0249626
0.0297541
0.0336062
0.0162134
0.0321808
0.0157015
0.0170461
0.0203364
0.0210021
0.0207654
0.0214507
0.0264192
0.0186118
0.0263565
0.0177149
0.0227633
0.0264596
0.0230528
0.0236003
0.0256841
0.0166869
0.0311767
0.0240388
0.0595801
0.0132218
0.0291192
0.0134532
0.0303425
0.019199
0.0338199
0.0150417
0.0263837
0.0441306
0.0142746
0.0158681
0.0172021
0.0348597
0.0190813
0.0316265
0.0180073
0.0232191
0.0263334
0.0366406
0.0261705
0.0276698
0.0297005
0.0317647
0.0549407
0.0295491
0.0401909
0.0306731
0.026945
0.0288901
0.0288895
0.0291637
0.0310572
0.0273031
0.0329863
0.0333116
0.027995
0.0262612
0.0246764
0.0312187
0.0167587
0.0144534
0.0155275
0.0164964
0.0280507
0.0159922
0.0193297
0.0184916
0.0202561
0.0224838
0.0225275
0.0155513
0.0188088
0.0251334
0.0211513
0.0178604
0.0172044
0.0213246
0.0340717
0.0246506
0.0278585
0.0273075
0.0374848
0.0285911
0.015966
0.0274096
0.0345069
0.0151287
0.0216199
0.0146165
0.0286593
0.0338463
0.0348202
0.0291227
0.028983
0.0300462
0.0269126
0.027129
0.018349
0.0331973
0.0348077
0.0291903
0.0310994
0.0212141
0.02426
0.0352452
0.0211236
0.0159031
0.0183494
0.0162251
0.0209292
0.0285478
0.0187476
0.0225586
0.0189214
0.0215021
0.022438
0.0220465
0.0287773
0.0275867
0.0267633
0.0312939
0.0223628
0.0203249
0.0292453
0.0236301
0.0297776
0.0339719
0.0290122
0.0326294
0.0221308
0.0356665
0.017209
0.0445861
0.0264591
0.0308792
0.0327677
0.0311462
0.029575
0.0251814
0.038222
0.0340892
0.0158549
0.0216187
0.0456001
0.0507558
0.0315392
0.0196596
0.0338915
0.0291787
0.0296495
0.032285
0.02384
0.0344718
0.0383694
0.0328852
0.023659
0.0224165
0.0216046
0.0243691
0.0271261
0.0243459
0.0314062
0.0290013
0.0164233
0.0181588
0.0225353
0.0154665
0.0198675
0.0264034
0.0181908
0.0284858
0.0162397
0.0132127
0.0265453
0.0139568
0.0171414
0.020339
0.0302185
0.0308145
0.0147878
0.033624
0.0279689
0.0344324
0.0242083
0.0343855
0.0280247
0.0273813
0.0473372
0.0146522
0.0259658
0.0293629
0.0282344
0.0287733
0.0278644
0.0354595
0.0282187
0.0355565
0.0229516
0.0288984
0.0246177
0.014356
0.0255702
0.0178757
0.0408823
0.0475305
0.0288858
0.0155659
0.015911
0.0207579
0.0236433
0.0348485
0.018982
0.0205917
0.0172998
0.0155167
0.0133694
0.0132403
0.0299138
0.0149179
0.0178171
0.032822
0.0215547
0.0237777
0.0231795
0.0233158
0.0277124
0.0255088
0.0227891
0.0282781
0.0279504
0.0366748
0.0316969
0.0343486
0.0304447
0.0291362
0.0291898
0.0306569
0.0375852
0.0361759
0.035003
0.0350852
0.0484462
0.0272074
0.0315103
0.0315257
0.0270597
0.0248231
0.033708
0.0276722
0.02888
0.0585144
0.027035
0.0322253
0.0165972
0.0199041
0.0322825
0.0180904
0.0152863
0.0316272
0.0219711
0.0293437
0.0277143
0.0340008
0.0279511
0.0229029
0.0319368
0.035814
0.0163983
0.0237564
0.0597991
0.0622655
0.0334077
0.030248
0.0313773
0.0442225
0.024638
0.0264629
0.0200194
0.0332037
0.0675276
0.034701
0.0431632
0.0365859
0.025375
0.0306411
0.0244495
0.0185947
0.0342961
0.0210109
0.0280567
0.028161
0.0166352
0.0308557
0.016425
0.0199441
0.0264946
0.0189103
0.0186975
0.0351095
0.0166414
0.0137713
0.0241364
0.0242406
0.0242271
0.0291856
0.023242
0.0249325
0.0274802
0.0214265
0.0263537
0.0289727
0.0232923
0.0258724
0.0287957
0.0286983
0.028721
0.0279255
0.025653
0.0281291
0.04457
0.02968
0.0301977
0.0224905
0.0445485
0.0400862
0.033765
0.0207154
0.0247367
0.0242104
0.023387
0.0305296
0.0277817
0.0171356
0.019432
0.0330664
0.017874
0.0261551
0.0277101
0.032867
0.031478
0.0359689
0.045735
0.0368573
0.0287031
0.0323055
0.0396691
0.0168097
0.030172
0.026801
0.0282324
0.0218563
0.0353645
0.033725
0.0291869
0.023327
0.04352
0.0264025
0.0190517
0.0374201
0.0292406
0.035096
0.037273
0.0299558
0.0171553
0.0218753
0.0612355
0.0677464
0.0272199
0.030337
0.029245
0.0474861
0.0301507
0.0300531
0.0301501
0.0315506
0.0373372
0.030023
0.0290294
0.0319606
0.0289002
0.0237699
0.0246426
0.0362309
0.0266178
0.0204498
0.01767
0.027848
0.0477405
0.0186109
0.0296991
0.0380135
0.0379597
0.0302235
0.0237776
0.0283267
0.0343685
0.025091
0.0182205
0.0285672
0.018194
0.0205911
0.0258527
0.0284841
0.0377637
0.020274
0.0200575
0.0403487
0.0202907
0.0243857
0.0186684
0.0172773
0.0144824
0.0234292
0.0155359
0.0149114
0.0268955
0.0233455
0.0432357
0.0334736
0.0150301
0.0345637
0.0290803
0.0404134
0.0255086
0.0209921
0.0385268
0.0223633
0.0249549
0.0261043
0.0267195
0.0257927
0.0515749
0.0438727
0.0311797
0.0146851
0.0418731
0.0361543
0.0154656
0.0164628
0.0185957
0.0245913
0.044478
0.0363084
0.0307572
0.0377599
0.0580945
0.0313817
0.0292432
0.0307452
0.0282513
0.0338808
0.0314316
0.0306371
0.0245803
0.0182656
0.0238151
0.0223748
0.0392014
0.0457277
0.0378744
0.0298441
0.0283165
0.0508644
0.0291469
0.0196526
0.0257457
0.0647382
0.0327933
0.0205105
0.0367267
0.0263554
0.0289891
0.0259492
0.0319777
0.0209526
0.0240088
0.0247982
0.0368441
0.0277782
0.0393385
0.0216146
0.0311399
0.0259366
0.0290263
0.0153618
0.0164857
0.0253943
0.0434043
0.027602
0.0363601
0.0153153
0.0353247
0.0194886
0.0141502
0.028006
0.0508152
0.0265525
0.0262822
0.0210616
0.0311497
0.0310369
0.0161475
0.0195375
0.0279686
0.041262
0.0181478
0.0227235
0.0148242
0.0335762
0.0355249
0.0302869
0.0241681
0.0392961
0.0311905
0.0249003
0.0306113
0.0255187
0.0276717
0.0207664
0.0396874
0.030487
0.0154033
0.0273096
0.0198912
0.0285349
0.0230138
0.0217393
0.0214278
0.016183
0.0370805
0.014563
0.0486942
0.0509926
0.0328605
0.0237726
0.0208612
0.0170719
0.0288335
0.0360168
0.0254724
0.0228948
0.0179788
0.0309737
0.0285584
0.0452192
0.0324169
0.0380171
0.0417643
0.0168167
0.0316249
0.0144473
0.0189432
0.0192779
0.0256128
0.0312551
0.0234378
0.0360733
0.0237813
0.0230624
0.0189358
0.0638724
0.0141851
0.027902
0.0146389
0.0209448
0.0528106
0.0183716
0.0284172
0.0456583
0.0373488
0.0378448
0.0220431
0.0504425
0.0449733
0.0264014
0.0137043
0.03529
0.0203669
0.0306819
0.0514387
0.0241166
0.0370742
0.0178933
0.0360045
0.0288513
0.0491694
0.0178382
0.0245817
0.0228615
0.0311689
0.0295669
0.0299531
0.0265173
0.0500334
0.0307739
0.0286928
0.0266531
0.0412741
0.0223448
0.0314382
0.021331
0.032341
0.0254429
0.0346324
0.0362878
0.0305717
0.0285364
0.0233116
0.0278277
0.0633971
0.0320195
0.0270013
0.0290114
0.0631875
0.0211216
0.0386719
0.0187883
0.0417963
0.0412894
0.0267105
0.048742
0.0206027
0.0392869
0.0365431
0.0320887
0.0238464
0.0288889
0.0200795
0.039773
0.0411041
0.0512603
0.0298393
0.0206452
0.0434563
0.0199728
0.0612061
0.0347327
0.0304459
0.037586
0.0404147
0.029223
0.0290391
0.0355339
0.0308674
0.0264545
0.0509113
0.0367005
0.0441167
0.0279777
0.0320478
0.0326869
0.0643013
0.00509231
0.0190009
0.0431092
0.0339638
0.0380346
0.0384432
0.030586
0.00416499
0.0455599
0.0627284
0.0410176
0.0387886
0.0415712
0.0286939
0.0470577
0.0396612
0.0350602
0.0250766
0.0209842
0.0299435
0.0264084
0.0385143
0.0347616
0.0273481
0.026926
0.0413117
0.0361261
0.0288884
0.0408948
0.0242746
0.0655102
0.0385603
0.0465688
0.0335469
0.0355568
0.0393457
0.0366643
0.0452001
0.0209645
0.0536908
0.0397064
0.0284752
0.041799
0.0398797
0.0174976
0.0320193
0.0613076
0.0309948
0.0323311
0.0289978
0.0232594
0.0270197
0.0295232
0.0412825
0.0410092
0.0317604
0.027879
0.0389089
0.0166131
0.0657637
0.0321665
0.0229923
0.0639703
0.0243492
0.0220247
0.0313728
0.0261956
0.0262454
0.00387134
0.065608
0.0596465
0.0281972
0.0331994
0.0419615
0.0370527
0.0288258
0.0329715
0.0358545
0.0413729
0.053275
0.0206834
0.00448658
0.0316494
0.0457996
0.0275275
0.0386735
0.0405472
0.0330438
0.0269059
0.0162842
0.0331802
0.0373744
0.06656
0.0350134
0.0152099
0.0161608
0.0265672
0.00570399
0.0425053
0.0363666
0.0285791
0.0266209
0.0380484
0.0245756
0.0657151
0.0255769
0.067947
0.00751199
0.0284817
0.0341861
0.0209423
0.0414737
0.0170834
0.0394198
0.024379
0.0281175
0.0239421
0.0336005
0.0423341
0.0301375
0.0392858
0.0526096
0.0190402
0.0441876
0.0367193
0.0373176
0.0530172
0.0389374
0.0278634
0.0664295
0.0299337
0.0215438
0.00619378
0.0252102
0.0612203
0.0469143
0.0270705
0.0287712
0.023782
0.0134464
0.028467
0.0281669
0.0249429
0.0350576
0.0141926
0.038366
0.033844
0.036504
0.028967
0.0301031
0.024554
0.0642961
0.00440192
0.0352226
0.0628906
0.0409861
0.0389625
0.0257619
0.0212232
0.0216238
0.0261606
0.0262359
0.0414561
0.0217998
0.0219166
0.00699897
0.0263694
0.0274687
0.0648548
0.033726
0.0393089
0.0291808
0.0263331
0.0418091
0.0270873
0.0291537
0.0231226
0.0240727
0.0471692
0.0141927
0.0272502
0.0277491
0.0255515
0.0178648
0.0320684
0.0364882
0.0141093
0.0205907
0.0420168
0.0469117
0.0515281
0.016718
0.0351978
0.019465
0.0400439
0.00660391
0.0578767
0.0560451
0.0498095
0.0326168
0.0635503
0.0419515
0.0400215
0.0677092
0.0319051
0.0435072
0.0416488
0.0473457
0.0602541
0.0173922
0.0578661
0.0213051
0.0280215
0.0211372
0.0277129
0.0674865
0.0257308
0.0293164
0.0193617
0.0401307
0.0412432
0.0421709
0.00808241
0.013442
0.0232328
0.00622046
0.0333238
0.0450856
0.0322408
0.028896
0.0432426
0.0413574
0.0373431
0.0338431
0.0292481
0.0326747
0.0278484
0.0297061
0.0612615
0.0284231
0.0136478
0.0254037
0.0334365
0.0524752
0.0287244
0.0234707
0.0424677
0.0260512
0.0139669
0.0290174
0.00549843
0.0211315
0.0276429
0.0278945
0.0480337
0.0444805
0.0313623
0.0365716
0.038873
0.0381295
0.0403205
0.0399139
0.051129
0.0477407
0.0275754
0.0584404
0.0360609
0.0286449
0.0627619
0.0305025
0.0429976
0.0292381
0.0376934
0.0208599
0.0367532
0.017298
0.0284282
0.0477267
0.0452651
0.0507556
0.0640492
0.0338904
0.00422228
0.0358491
0.0212316
0.0370821
0.0444861
0.0320958
0.0657357
0.0294841
0.026825
0.0325036
0.0499396
0.0284996
0.0610827
0.0561715
0.0488675
0.0667436
0.0297753
0.0430437
0.0645746
0.0285415
0.0504922
0.053079
0.0225854
0.0583804
0.0269515
0.0288052
0.0429
0.0587135
0.028713
0.053529
0.0205629
0.0032092
0.0499375
0.048289
0.0464888
0.009024
0.0198598
0.046547
0.0387351
0.0270777
0.0471585
0.0287612
0.0177639
0.0279222
0.0395448
0.0330695
0.0285108
0.032573
0.0292994
0.0382538
0.0265964
0.0351051
0.04329
0.0281761
0.0146478
0.0578262
0.0410069
0.0289856
0.0248744
0.0491222
0.0300046
0.0390235
0.0453971
0.0211074
0.0551086
0.0648893
0.0448768
0.0272845
0.0244856
0.0499026
0.00957396
0.0382526
0.0252812
0.0451867
0.038488
0.018586
0.0385081
0.0295555
0.0363871
0.0294456
0.0610115
0.0316591
0.0270535
0.0250357
0.0137935
0.0553787
0.0279139
0.0224636
0.0261175
0.0363671
0.0252375
0.0536983
0.0181609
0.024231
0.0155589
0.0175005
0.0517931
0.0373042
0.00872823
0.00348859
0.0199506
0.0232767
0.0562435
0.0425434
0.0386043
0.0266348
0.0281426
0.0290252
0.0396352
0.0421848
0.0268723
0.0395418
0.0143781
0.0364443
0.0346955
0.0516879
0.0290131
0.0573089
0.0291205
0.0181226
0.0195199
0.00774643
0.0373624
0.0474906
0.063353
0.0315455
0.0488151
0.0302695
0.06206
0.0348111
0.0287549
0.055879
0.0321484
0.0225855
0.0281979
0.0511361
0.0432837
0.0615229
0.0271763
0.0388364
0.0323798
0.0234279
0.0220918
0.0270026
0.0445359
0.0565918
0.0310101
0.0285973
0.0216261
0.0471427
0.0207752
0.0275782
0.0298051
0.0219981
0.037462
0.046376
0.0287033
0.00666017
0.00769524
0.0316415
0.0322024
0.0367255
0.0266349
0.0550387
0.0386313
0.0398722
0.0386111
0.0236745
0.0245729
0.0265102
0.0372835
0.0466559
0.00690722
0.0467503
0.0313218
0.0578749
0.0289908
0.0418827
0.0253174
0.0266804
0.0497653
0.0286907
0.0285419
0.0422082
0.0323073
0.0276803
0.00332588
0.0442501
0.027544
0.0301526
0.0270813
0.0472442
0.0297532
0.0279022
0.0144956
0.00581182
0.0299906
0.0553558
0.0193492
0.0341911
0.0460222
0.0462065
0.0401477
0.0250554
0.0585993
0.030356
0.0202986
0.0309728
0.0232762
0.0336759
0.0331113
0.0386407
0.0440996
0.034592
0.0440851
0.0186869
0.0201489
0.0171361
0.0369443
0.0273985
0.0276084
0.0299619
0.0583659
0.0269896
0.0282113
0.0506618
0.0463166
0.0452313
0.0455347
0.0293232
0.0072013
0.0297223
0.0363866
0.0235827
0.0278462
0.0200856
0.0227937
0.0442571
0.0354192
0.0444241
0.0360989
0.0259177
0.0419778
0.0646145
0.0402005
0.00702165
0.0277954
0.0295008
0.0288944
0.0227269
0.03889
0.0291785
0.016702
0.0190741
0.0202602
0.0205319
0.0255938
0.0283721
0.0138078
0.0568159
0.0238605
0.0378139
0.00390268
0.0324695
0.029844
0.00576415
0.0296513
0.0412011
0.0432322
0.017763
0.028954
0.0254664
0.0219851
0.0349843
0.022618
0.0610045
0.0219995
0.0280368
0.0303089
0.045225
0.0550487
0.0277246
0.0359401
0.00711021
0.0378041
0.0225885
0.0535166
0.0073584
0.0386406
0.0595746
0.00307711
0.0329487
0.0442645
0.055061
0.0223786
0.0474761
0.0289801
0.0405068
0.0244422
0.0268785
0.0487961
0.0424759
0.00759464
0.0275741
0.0508258
0.0406226
0.034936
0.0471702
0.0423341
0.00317985
0.0294887
0.0399852
0.0533335
0.0537869
0.0273374
0.0563734
0.0379443
0.0321308
0.0405047
0.0411301
0.0176025
0.043131
0.0555964
0.0383623
0.0240461
0.0398841
0.0141499
0.0075293
0.0352746
0.0266322
0.0577604
0.055998
0.0630795
0.0161674
0.0214569
0.0389483
0.0343168
0.0445937
0.0369029
0.00742603
0.0335574
0.0284953
0.023019
0.0278477
0.0287128
0.0365898
0.0285861
0.0284015
0.033235
0.0213329
0.0612948
0.0531189
0.0528038
0.0364216
0.037264
0.0556469
0.00362319
0.041911
0.0352179
0.0386706
0.0286217
0.0260882
0.046954
0.0633337
0.0224676
0.0476804
0.0198978
0.0210004
0.0375355
0.0141941
0.0167386
0.0199434
0.0279988
0.0379579
0.0259725
0.0395091
0.0384316
0.0452096
0.0586746
0.028047
0.0332698
0.0400542
0.0443435
0.0062634
0.0474856
0.0425206
0.00492934
0.0314367
0.0200033
0.038911
0.0396009
0.057433
0.00285859
0.0262881
0.034298
0.0272038
0.0327067
0.0305849
0.0377283
0.0254244
0.0217445
0.00728973
0.028906
0.0051741
0.0294637
0.0218372
0.0293295
0.0243079
0.0582185
0.0245182
0.0442863
0.0258734
0.0270397
0.0302887
0.00330824
0.0261825
0.035037
0.0415547
0.0506331
0.0559719
0.0412434
0.022663
0.0279113
0.0315795
0.0353904
0.0551031
0.0567024
0.0229218
0.047333
0.0212
0.0474033
0.0417866
0.0152168
0.029307
0.0416953
0.036422
0.0473766
0.0167457
0.0297514
0.029304
0.0271134
0.0634444
0.0653878
0.0379797
0.0371894
0.0614097
0.0576356
0.0477956
0.0444694
0.0314844
0.0263836
0.0344301
0.0478038
0.029544
0.00676177
0.0271773
0.00671554
0.0538144
0.0265791
0.051338
0.0378548
0.0364541
0.0369596
0.0208597
0.0220281
0.0240562
0.0471425
0.0384073
0.0606455
0.0266645
0.0400621
0.00605308
0.0432209
0.0245514
0.0317746
0.0345996
0.0363022
0.0354207
0.0135134
0.0247264
0.0251706
0.0247289
0.0273338
0.0282493
0.0284686
0.02721
0.0219081
0.0300037
0.0322827
0.047598
0.050451
0.0576462
0.022528
0.0241201
0.0260002
0.0147982
0.0336475
0.0210678
0.0468682
0.0666044
0.0288321
0.0265122
0.0267021
0.0301243
0.0279823
0.0605326
0.0307133
0.0281692
0.0447412
0.03604
0.0566699
0.0180031
0.0290032
0.0297982
0.014792
0.0221847
0.0289637
0.021444
0.022682
0.0329102
0.0332607
0.0272101
0.038313
0.0228205
0.0262044
0.0216926
0.0300673
0.0340332
0.0510773
0.0275294
0.0640541
0.0552416
0.0256952
0.0324074
0.0375299
0.0370895
0.0471383
0.0211721
0.0622539
0.0289662
0.0637565
0.0226951
0.0193288
0.0464764
0.0199416
0.0288506
0.0267577
0.0411552
0.0414633
0.0302361
0.0465566
0.067855
0.0297719
0.0437793
0.0410449
0.0195357
0.0230159
0.036812
0.0445329
0.0359486
0.0152638
0.0413322
0.0414393
0.032711
0.0344059
0.0614706
0.0590348
0.02357
0.0181147
0.0677331
0.0437167
0.029115
0.0332163
0.0439341
0.0217616
0.0259829
0.0318859
0.0206214
0.0641803
0.0167689
0.0258979
0.0535734
0.0385284
0.0331281
0.0211295
0.0294473
0.0402865
0.0269412
0.028716
0.0549049
0.0660798
0.0347021
0.0393091
0.0462327
0.0405139
0.0214855
0.0264701
0.0557837
0.0312107
0.0195567
0.0391407
0.0669269
0.0285104
0.0144445
0.0373044
0.0218765
0.0658672
0.0590126
0.0558325
0.0365157
0.0441803
0.023716
0.0422095
0.0294157
0.0259061
0.0170772
0.0285315
0.0431096
0.0587372
0.0280303
0.0245509
0.060798
0.0435973
0.0170742
0.00330864
0.0579206
0.0312958
0.0385305
0.0374561
0.0240088
0.0435409
0.0247698
0.0434653
0.0381176
0.0545125
0.0284862
0.0543481
0.0162701
0.0235514
0.0469606
0.0290852
0.0233062
0.0194823
0.0286076
0.0303652
0.0579389
0.057504
0.0214271
0.0245314
0.0234858
0.0350951
0.0463414
0.0407324
0.0194353
0.0410515
0.031208
0.0301604
0.0520059
0.0267547
0.0429344
0.0406609
0.0405347
0.0421637
0.0238186
0.036909
0.0420815
0.0219938
0.0252938
0.0326097
0.0214576
0.0289903
0.0234962
0.0408776
0.0159812
0.014597
0.020158
0.0278505
0.0375761
0.00554035
0.0268578
0.0287849
0.0533329
0.0325916
0.0227792
0.0267837
0.0455593
0.034401
0.0222263
0.0393046
0.0477063
0.0287459
0.0214469
0.0272895
0.0287761
0.0207366
0.0107714
0.0532759
0.0251995
0.00366555
0.0286759
0.0169757
0.0366504
0.0368449
0.0344838
0.0540812
0.0242764
0.0435057
0.0264145
0.0263729
0.0282405
0.0567921
0.0411814
0.0346489
0.0227046
0.0298873
0.0252546
0.0357591
0.0306767
0.052245
0.0599586
0.0167207
0.0624967
0.0418765
0.0197463
0.0227513
0.0637452
0.0285629
0.0418485
0.0261141
0.0355479
0.0253141
0.0229201
0.0330954
0.0499446
0.022544
0.0208788
0.0262888
0.021896
0.0321428
0.0160212
0.0195125
0.0403871
0.0540414
0.0601317
0.0216682
0.0329215
0.0367579
0.0292169
0.0250395
0.0294788
0.0230626
0.0358263
0.0284388
0.0404063
0.0276891
0.0331627
0.0207433
0.0356095
0.033011
0.0334437
0.0445423
0.0263911
0.0528584
0.0206064
0.0338128
0.0365721
0.0495546
0.028659
0.0237648
0.0239301
0.029022
0.004679
0.0395628
0.0351844
0.0232136
0.0192232
0.0595864
0.0446632
0.0439082
0.0297338
0.0278697
0.0286051
0.0339713
0.0348599
0.019183
0.0297615
0.0466843
0.0290948
0.0238948
0.0540942
0.00376993
0.0207463
0.0178681
0.0353041
0.0396894
0.0388456
0.029034
0.0398983
0.03986
0.0183639
0.0257835
0.026016
0.0259874
0.0583066
0.0308365
0.00212658
0.0367115
0.0353605
0.00674916
0.0262171
0.0232718
0.0239619
0.0235398
0.0351922
0.0314855
0.0284691
0.0377744
0.0283167
0.0541497
0.0259971
0.0415876
0.028676
0.0271926
0.0466121
0.0532333
0.0243154
0.0378337
0.0230927
0.0237434
0.0175757
0.0241281
0.0257783
0.0276806
0.0628745
0.0197568
0.0350737
0.0211065
0.0275
0.0593727
0.0223748
0.0261954
0.0172674
0.0271559
0.047358
0.0145417
0.0325863
0.0294483
0.0557347
0.0202133
0.040972
0.0622348
0.0317661
0.0286222
0.0281004
0.0595224
0.0501641
0.0304314
0.0238362
0.0449318
0.0252472
0.0310629
0.0242241
0.0254442
0.0287941
0.0182158
0.0381247
0.0243234
0.0221346
0.0262046
0.0305414
0.0328101
0.0318079
0.0184681
0.0205415
0.0239631
0.0671085
0.0560815
0.0253291
0.0222008
0.0372562
0.0353259
0.027517
0.0606472
0.0416792
0.028097
0.0385707
0.0400524
0.0288614
0.0535807
0.0239658
0.0632854
0.0269355
0.0348958
0.0455966
0.0351941
0.058843
0.00470025
0.0045318
0.0254302
0.0282493
0.0209819
0.0332279
0.0475803
0.0666228
0.0280795
0.0401092
0.016224
0.0419185
0.0320092
0.0271008
0.0611076
0.0269707
0.0400665
0.0501856
0.019426
0.0365487
0.046849
0.0515536
0.0550253
0.06009
0.0266753
0.0267147
0.051083
0.0353694
0.0596269
0.0340968
0.0421161
0.0437156
0.0457515
0.0450511
0.0228391
0.0268247
0.0293231
0.0215314
0.0368779
0.0421944
0.0409024
0.0426493
0.0208581
0.0182881
0.0216892
0.0553879
0.0195684
0.0215799
0.0227074
0.0159543
0.0352599
0.0615545
0.0429927
0.0504291
0.032011
0.0289074
0.0357656
0.0308372
0.0335911
0.050477
0.026299
0.0482352
0.0307129
0.029462
0.0469237
0.0173498
0.0362874
0.0430085
0.0542982
0.0285048
0.067262
0.0256374
0.0419335
0.0383043
0.0426123
0.0274256
0.0461863
0.0151881
0.0242765
0.0333165
0.0447873
0.0211296
0.0249687
0.0374839
0.0214705
0.0498537
0.0419073
0.038031
0.0457637
0.0406438
0.0545171
0.0398505
0.0184955
0.0288353
0.0298695
0.0617534
0.0259746
0.0418074
0.0231224
0.0344307
0.028906
0.0196863
0.0173829
0.0275357
0.0574151
0.0253702
0.0637436
0.0563132
0.0600696
0.0523208
0.0258362
0.0282792
0.0517458
0.0288875
0.0365134
0.0449077
0.0277386
0.0153108
0.0449625
0.0268121
0.0463341
0.0314378
0.0257687
0.0209803
0.0654404
0.0477111
0.0351628
0.0383496
0.0270656
0.0443195
0.0285285
0.0284932
0.0535098
0.0470029
0.0328615
0.0288889
0.0345803
0.0370212
0.0433283
0.0443527
0.0361571
0.0313758
0.0288469
0.0613427
0.0512172
0.042521
0.0218941
0.047043
0.0360313
0.0282263
0.0397604
0.0427904
0.0207066
0.0352958
0.0398566
0.0274545
0.0239917
0.0243904
0.0199272
0.0173582
0.0246938
0.0334654
0.039739
0.0463222
0.0394777
0.0354285
0.0206506
0.0427869
0.0579534
0.025503
0.044104
0.0389923
0.0428632
0.0293389
0.0346105
0.0207308
0.0419807
0.0400981
0.0344743
0.0197569
0.0339844
0.047812
0.0352856
0.0159674
0.0189041
0.0186649
0.0226361
0.0425336
0.0481651
0.0485253
0.0458838
0.0418066
0.037195
0.0326567
0.028568
0.0251398
0.0224532
0.0204992
0.0192317
0.0186224
0.0185154
0.0188422
0.0195429
0.0205977
0.0220161
0.0238572
0.022137
0.0416016
0.0475031
0.0479721
0.0454344
0.0414312
0.0368734
0.0323698
0.0283028
0.0248887
0.0222102
0.0202637
0.0189933
0.0183755
0.0182662
0.0185986
0.0193218
0.0204243
0.0219298
0.0239164
0.0216178
0.0407287
0.0468397
0.0474517
0.0450329
0.0411186
0.0366239
0.0321606
0.0281187
0.0247214
0.0220408
0.0201124
0.0188409
0.0182074
0.0181019
0.0184305
0.0191634
0.0202951
0.0218551
0.02392
0.0210869
0.0398947
0.046178