/*--------------------------------*- C++ -*----------------------------------*\
  =========                 |
  \\      /  F ield         | OpenFOAM: The Open Source CFD Toolbox
   \\    /   O peration     | Website:  https://openfoam.org
    \\  /    A nd           | Version:  10
     \\/     M anipulation  |
\*---------------------------------------------------------------------------*/
FoamFile
{
    format      ascii;
    class       volScalarField;
    location    "100";
    object      nut;
}
// * * * * * * * * * * * * * * * * * * * * * * * * * * * * * * * * * * * * * //

dimensions      [0 2 -1 0 0 0 0];

internalField   nonuniform List<scalar> 
23845
(
0.0123367
0.0140239
0.0094763
0.0130578
0.0139935
0.0848676
0.00862093
0.00847937
0.0698236
0.0122012
0.0117672
0.0942268
0.0521406
0.077559
0.00775164
0.0145943
0.0441726
0.0255584
0.0405355
0.0689543
0.0130278
0.0118158
0.0108902
0.0674121
0.0124259
0.0564831
0.0118953
0.0756708
0.00284317
0.0679858
0.0140238
0.0013494
0.00526702
0.0272239
0.0936938
0.0782235
0.00124597
0.0935404
0.0921822
0.0700209
0.0350156
0.0446629
0.0584402
0.0424652
0.0533498
0.0520862
0.0138055
0.0120023
0.00214225
0.00167825
0.00510863
0.0121885
0.00131876
0.0762229
0.00131209
0.0458744
0.0144889
0.00950467
0.0132694
0.0147726
0.00398551
0.0417718
0.018399
0.00226684
0.063772
0.0534392
0.0104862
0.0514765
0.0507594
0.033075
0.00702491
0.010194
0.0562325
0.00826293
0.0599464
0.00804059
0.0941724
0.0915448
0.011575
0.0334474
0.0127347
0.00849468
0.0142911
0.0111399
0.0084222
0.0934364
0.0124638
0.00120056
0.0640501
0.0361062
0.00449912
0.0323619
0.00223101
0.0806459
0.00885843
0.00534176
0.0473531
0.0114859
0.0598203
0.0138953
0.039887
0.0101284
0.0128519
0.000641322
0.00158053
0.0117073
0.0821694
0.0573288
0.010373
0.0449266
0.0117514
0.0931118
0.00809039
0.0111504
0.0761325
0.011461
0.0613237
0.0121569
0.0033033
0.00471352
0.0926469
0.00265063
0.0364218
0.00878413
0.00974317
0.0570015
0.00499385
0.00151046
0.00753098
0.0138875
0.00392584
0.0126332
0.0120682
0.0825004
0.03159
0.0125298
0.000613538
0.0945911
0.00979355
0.0913825
0.00237867
0.0466968
0.0914186
0.0392077
0.0173515
0.0459223
0.0110257
0.00953796
0.00336777
0.028947
0.0064206
0.0555681
0.011966
0.0660387
0.00683913
0.0167085
0.01309
0.0878242
0.00351025
0.00528327
0.0299322
0.00725471
0.00817768
0.0654939
0.0560195
0.0253495
0.0866082
0.00288641
0.07401
0.0468248
0.0879079
0.0131254
0.0661245
0.00992088
0.061373
0.0100624
0.0276473
0.013386
0.0568622
0.0894105
0.0134747
0.0136439
0.00862497
0.0118039
0.0135554
0.0475261
0.0442537
0.0107981
0.00181455
0.0469525
0.00172408
0.0759529
0.07394
0.0799274
0.0251922
0.07184
0.00122178
0.00154555
0.000511573
0.0117119
0.0218589
0.0711736
0.00403299
0.0125602
0.00949501
0.00829239
0.0106336
0.088573
0.0125165
0.0262898
0.0309245
0.0028147
0.0162159
0.0718727
0.00314711
0.00140083
0.0125768
0.0408852
0.000789959
0.00490768
0.0618836
0.00811566
0.00106053
0.0197072
0.0434489
0.00617519
0.000891305
0.0756111
0.0837826
0.0383564
0.085348
0.00273505
0.0922899
0.0530451
0.0138239
0.00459508
0.062668
0.0133559
0.0599364
0.0138946
0.001562
0.0108867
0.0111403
0.0136178
0.00297255
0.0168939
0.0821814
0.0517759
0.00922868
0.007301
0.0584625
0.0886779
0.00494952
0.0523691
0.0078992
0.00435333
0.00507689
0.00609965
0.0775729
0.0681597
0.000849111
0.0863337
0.00593376
0.0118165
0.0145235
0.0658985
0.0107605
0.00679582
0.0140411
0.013
0.0914714
0.0126188
0.00454865
0.074021
0.0117904
0.0714529
0.00637602
0.0759746
0.00108292
0.0123114
0.0121379
0.0816286
0.00634821
0.0181101
0.091599
0.00387566
0.011489
0.0688661
0.00850003
0.00736547
0.0101305
0.00340813
0.00278756
0.00587359
0.00928852
0.0926943
0.00256991
0.0790078
0.0922592
0.00410718
0.00305684
0.00638379
0.00401791
0.0131975
0.0762011
0.0134707
0.00195052
0.00474583
0.0414919
0.00109324
0.00429842
0.0126718
0.0471749
0.0870694
0.0143907
0.00214796
0.00310402
0.0124382
0.00413558
0.0613544
0.00132396
0.00285864
0.00275245
0.0715344
0.00728957
0.0900573
0.0121584
0.0139831
0.00698005
0.02386
0.00986951
0.0188915
0.00504117
0.0862642
0.00556584
0.0134271
0.0144541
0.0277287
0.0487599
0.0113533
0.0131145
0.00299507
0.0117707
0.0539115
0.0554946
0.000732588
0.0870368
0.00580858
0.0118969
0.00585661
0.0144665
0.00415806
0.00123448
0.00594494
0.00129954
0.0765768
0.0489586
0.0581272
0.00872665
0.0103895
0.00787321
0.0630568
0.0109475
0.0220517
0.00209681
0.0848449
0.00749486
0.0788848
0.00370905
0.0566457
0.0445282
0.00406122
0.00139953
0.0949022
0.0858091
0.00468473
0.0139711
0.0134773
0.0488911
0.0121293
0.00789578
0.0847925
0.0112897
0.0543783
0.0535221
0.0926911
0.0851072
0.0110861
0.0196329
0.00979998
0.00941029
0.0471844
0.00179081
0.00150617
0.00390396
0.0038468
0.0132582
0.0563866
0.0312652
0.0846867
0.0145037
0.0142583
0.00747365
0.012945
0.0147011
0.0086231
0.0898503
0.00153314
0.00173401
0.00590753
0.00669146
0.052671
0.00915287
0.00539823
0.0136329
0.0124371
0.0140774
0.0118356
0.0904308
0.0121427
0.00252491
0.059674
0.0715872
0.0116161
0.00650635
0.013668
0.00216165
0.0142779
0.0107161
0.00969752
0.0729034
0.0315812
0.00308816
0.0255255
0.0566879
0.0606292
0.0947609
0.048296
0.00323912
0.0121658
0.00798873
0.00180249
0.0013331
0.00668241
0.0142622
0.00261897
0.0712351
0.0142669
0.0892424
0.0126146
0.0110833
0.0642117
0.00142018
0.085749
0.0539006
0.00365177
0.0147502
0.0126724
0.00689746
0.0737075
0.0120428
0.0128318
0.000761954
0.0140058
0.0833448
0.0898422
0.0791493
0.00297961
0.0543534
0.00547823
0.0691926
0.0868556
0.0140306
0.00544484
0.0019234
0.0132474
0.0639751
0.0031096
0.0735638
0.0345194
0.014209
0.0141358
0.0136489
0.0121741
0.0162811
0.0101113
0.0912286
0.0937391
0.0128697
0.00538258
0.0572583
0.00398228
0.00515901
0.0142377
0.00919666
0.014095
0.0614096
0.0118918
0.0613809
0.0862308
0.0110769
0.00234124
0.00380551
0.0140602
0.0106382
0.011705
0.0118918
0.0504034
0.0771141
0.00440178
0.0137529
0.00357405
0.00142915
0.0138239
0.0771097
0.0546063
0.0140904
0.00497549
0.00561034
0.0512809
0.000971168
0.0711949
0.0269671
0.00229981
0.054858
0.00878916
0.00781485
0.00220689
0.0115615
0.00360061
0.0051475
0.00302503
0.01292
0.0120142
0.0418875
0.0497479
0.0751816
0.0042625
0.0137856
0.0121382
0.00936391
0.0721602
0.0123749
0.0109981
0.0212794
0.0111166
0.012155
0.0589156
0.0733498
0.0555945
0.0663743
0.0926501
0.0106321
0.0638106
0.0090683
0.0140729
0.0512252
0.00349246
0.0858506
0.0762534
0.00915707
0.0118907
0.0138853
0.0704992
0.0499506
0.00147116
0.00156649
0.0572466
0.00232643
0.052086
0.058505
0.00895115
0.0467408
0.0819249
0.0111185
0.0133864
0.00897919
0.00499523
0.00708426
0.0138146
0.0600271
0.0938245
0.0197817
0.0106677
0.00230847
0.0497104
0.0553798
0.0621828
0.00696819
0.0624049
0.0105975
0.00666204
0.0126463
0.011861
0.00654294
0.0471991
0.0565986
0.0721915
0.0270555
0.0951367
0.0115542
0.0713243
0.0134695
0.00863954
0.0124932
0.0124507
0.00623598
0.013646
0.00837454
0.0180422
0.0140323
0.0134158
0.0135029
0.0135375
0.00213044
0.0133771
0.0128607
0.0135646
0.065975
0.0714369
0.013475
0.00641283
0.0137951
0.0190854
0.0140703
0.0130905
0.0382968
0.0352781
0.0520671
0.0118156
0.0525362
0.0594936
0.0143441
0.0777132
0.0942512
0.00666247
0.0134845
0.010977
0.0602894
0.0126362
0.013794
0.0204123
0.0760475
0.051358
0.0121249
0.0124192
0.0121175
0.0526374
0.0124673
0.00694495
0.0769114
0.0898372
0.012884
0.0122531
0.003494
0.00405382
0.00311628
0.0125446
0.00629136
0.0124019
0.0236872
0.0393485
0.0318235
0.0138481
0.0322209
0.0600996
0.0531476
0.0134532
0.014006
0.0116736
0.0125136
0.0123403
0.0118997
0.0120621
0.0123592
0.0124364
0.0133873
0.0127322
0.0123419
0.0352155
0.0116121
0.0178374
0.0506875
0.0226251
0.0362735
0.0124817
0.0475115
0.027742
0.0123697
0.0125066
0.0330981
0.0492402
0.0120427
0.011962
0.0119696
0.0121326
0.0123464
0.012461
0.0126169
0.0139698
0.0117012
0.0196357
0.0130629
0.0237588
0.0301769
0.0310238
0.0294832
0.0362263
0.0338977
0.0483499
0.0468584
0.0140069
0.0645226
0.0515236
0.0450531
0.037289
0.082194
0.0121144
0.0395591
0.0120806
0.0120505
0.015385
0.0420395
0.0476396
0.0764905
0.0119624
0.0153785
0.0128768
0.0646151
0.0118686
0.046649
0.0285761
0.0752672
0.0502773
0.0122685
0.0333869
0.0133013
0.0422094
0.0696685
0.0600683
0.0549677
0.0497388
0.023106
0.00732793
0.0627029
0.0463331
0.0127267
0.0514864
0.0592215
0.0667505
0.00897912
0.0517686
0.0534294
0.012447
0.0459788
0.00665748
0.0115713
0.0120681
0.0122089
0.0120595
0.012461
0.0496674
0.0127986
0.0127298
0.0121994
0.0150967
0.0230966
0.0257713
0.0140695
0.0309433
0.0578069
0.0122357
0.0120544
0.0123845
0.0142369
0.0140711
0.0637814
0.0134568
0.0142472
0.0355249
0.035217
0.0241987
0.00433436
0.0702109
0.0131587
0.0538707
0.050651
0.0400106
0.0519844
0.0558458
0.0383413
0.0500577
0.0323892
0.0512247
0.0481124
0.053476
0.0143881
0.0190131
0.0660921
0.0325701
0.0370491
0.0536247
0.012511
0.0169191
0.0129064
0.0271313
0.0485284
0.0618453
0.0484546
0.0544324
0.0129914
0.0115615
0.0120503
0.0268211
0.0583733
0.0140114
0.00200422
0.0153719
0.0394673
0.0289488
0.0528815
0.0517286
0.0172898
0.050939
0.0494656
0.0538116
0.0398224
0.0531264
0.0568262
0.0530965
0.0536382
0.0540245
0.0478637
0.0366386
0.0541548
0.0506612
0.0134801
0.0446107
0.0375591
0.0110095
0.012359
0.0595694
0.0671184
0.0520015
0.011473
0.0119662
0.0127351
0.0119529
0.0327824
0.0430817
0.0405112
0.0304977
0.0204259
0.0214487
0.0642124
0.0473078
0.0590948
0.0265838
0.0952783
0.00791224
0.0917758
0.0139462
0.0445572
0.0125896
0.0625103
0.0537087
0.0196116
0.0305969
0.0105857
0.0114767
0.0278132
0.0106264
0.0481198
0.0427217
0.0581244
0.0593002
0.0606163
0.0607556
0.0456798
0.0437344
0.0592088
0.0121058
0.0609315
0.0127772
0.0114632
0.0119671
0.0262924
0.0105767
0.0292066
0.0598863
0.0184454
0.0607547
0.0110948
0.0413378
0.0607166
0.0107329
0.04667
0.0574606
0.0118711
0.0620387
0.0303099
0.014186
0.0133629
0.0512316
0.0157832
0.0584662
0.0261009
0.060095
0.0124197
0.00183194
0.0887543
0.0164321
0.0122928
0.0121019
0.0133782
0.0120603
0.05307
0.0184186
0.0305339
0.0366943
0.00669313
0.00123007
0.0384955
0.0436999
0.0699654
0.0141027
0.0534184
0.00748965
0.0478195
0.0531383
0.0447795
0.0486171
0.0489093
0.0485405
0.0531342
0.0133484
0.0589188
0.0115659
0.0267995
0.0122488
0.0507241
0.0166087
0.0146873
0.0128643
0.0123202
0.0376546
0.0129528
0.0246881
0.0120709
0.0120485
0.0121809
0.0291746
0.0120108
0.011847
0.0287125
0.0118638
0.0117025
0.0118479
0.0127131
0.0626293
0.0326267
0.0374998
0.0375777
0.0753059
0.0408496
0.0155968
0.0388212
0.0636502
0.0119637
0.0215249
0.0125831
0.0424993
0.01042
0.0646241
0.0482508
0.0428689
0.0450539
0.0342945
0.0546712
0.0118875
0.0132436
0.0137052
0.0574359
0.0493304
0.0121416
0.0123301
0.0666841
0.0128668
0.0168302
0.0213768
0.0139017
0.0132939
0.0401103
0.0122287
0.0122366
0.0124803
0.012588
0.0123397
0.0124251
0.0530411
0.0370823
0.0353634
0.0514166
0.0229771
0.0171312
0.0495778
0.000986437
0.0587861
0.00490258
0.0542028
0.0694001
0.00140194
0.0679934
0.0527024
0.0911375
0.0603973
0.0532529
0.0554795
0.0599903
0.0493596
0.0124445
0.00445831
0.0615549
0.0176196
0.0298945
0.0139134
0.0141399
0.0132915
0.0118898
0.0607333
0.0456244
0.0443464
0.0697416
0.0573627
0.0749253
0.0137261
0.0131454
0.0191072
0.011695
0.0143746
0.0115139
0.0117456
0.0122705
0.0500133
0.0128177
0.0117748
0.0115229
0.0121143
0.0132787
0.0119729
0.0339767
0.0119648
0.0405014
0.0119348
0.0134644
0.0365534
0.0171927
0.0228822
0.027738
0.0451859
0.0530823
0.0142839
0.0123467
0.0126103
0.0630774
0.0118121
0.0634777
0.0636746
0.0374462
0.0952613
0.0130036
0.0347601
0.0463745
0.0408024
0.0435991
0.0519842
0.0132916
0.0532536
0.0688924
0.0113707
0.0433833
0.0586652
0.012092
0.0123469
0.0207488
0.00457445
0.0104987
0.0556169
0.0143163
0.012382
0.0119562
0.0293838
0.0655607
0.0119034
0.0196924
0.0118819
0.0119285
0.0127021
0.0147967
0.00143045
0.0193214
0.0113109
0.0563922
0.0294656
0.0124726
0.0369143
0.0336313
0.00303131
0.0351945
0.0546944
0.0529335
0.039512
0.0745538
0.0515315
0.0645268
0.0602897
0.0127104
0.042695
0.0472293
0.0122507
0.0695395
0.0653036
0.0694228
0.0146681
0.0515604
0.0613405
0.0130289
0.0603463
0.0602443
0.0605262
0.0554872
0.0456249
0.0116499
0.0598447
0.054561
0.0170839
0.0118532
0.0130424
0.0118272
0.0119023
0.0666267
0.0301607
0.0447215
0.0403979
0.0671023
0.0127022
0.0317232
0.064907
0.0682375
0.0200757
0.0338067
0.0146845
0.0113764
0.0675779
0.0526709
0.0631792
0.0139441
0.0375091
0.0602187
0.0123263
0.0576601
0.0124428
0.0682348
0.0882958
0.0707884
0.029818
0.0550584
0.0468075
0.0131242
0.0696081
0.0127512
0.0386118
0.0566219
0.0136927
0.0585832
0.0177683
0.020048
0.0321618
0.0148694
0.0242981
0.0675625
0.0202718
0.0122731
0.0496951
0.0330397
0.0448378
0.0417052
0.0181067
0.0538738
0.052991
0.0133769
0.0532968
0.0471104
0.011543
0.0537834
0.0500678
0.0119326
0.0512087
0.0528063
0.0115934
0.0128197
0.0141411
0.0681022
0.065475
0.0121759
0.0901003
0.0805445
0.0131359
0.013316
0.0125465
0.0360777
0.0116576
0.0540199
0.0385965
0.0115668
0.011909
0.0681844
0.0118768
0.0123003
0.00117789
0.0688499
0.0534933
0.069144
0.0915907
0.0721762
0.0414711
0.0534681
0.00729079
0.0213015
0.0456292
0.0125756
0.0386136
0.0121707
0.0665894
0.0127377
0.0489173
0.0350552
0.0142337
0.052101
0.0231684
0.0742861
0.0622645
0.00478194
0.0732014
0.0130686
0.0156633
0.0122298
0.0123488
0.0124382
0.0126923
0.0621207
0.0550742
0.0142111
0.0609389
0.0598761
0.0545806
0.0129804
0.0779983
0.0608199
0.0501135
0.0129849
0.0466811
0.0366455
0.0338805
0.0728799
0.00169496
0.026964
0.0207086
0.0128398
0.0949166
0.000937975
0.0548809
0.00424551
0.0756205
0.0127704
0.0347828
0.040187
0.0688998
0.0296691
0.0176266
0.0425575
0.0134367
0.0130457
0.0548664
0.0417761
0.075111
0.0134739
0.0140002
0.0848375
0.0268499
0.0352655
0.0234078
0.0185443
0.0134493
0.0316844
0.0152977
0.014235
0.0121953
0.0285878
0.0137759
0.0816224
0.0120502
0.0664163
0.0630786
0.00740806
0.0126093
0.0129482
0.0824474
0.0118626
0.0366999
0.0437391
0.0127366
0.0420435
0.0146929
0.00560082
0.0132972
0.0146538
0.0868365
0.00560288
0.0164919
0.0184868
0.023002
0.0121286
0.0137556
0.0723008
0.0554678
0.00654702
0.0146173
0.0672566
0.0130876
0.0132311
0.0554941
0.00424288
0.0540513
0.0129909
0.0347884
0.0108199
0.0598002
0.0118151
0.0121609
0.092687
0.00730715
0.01298
0.0727208
0.00815389
0.0613967
0.0111903
0.0118606
0.0110478
0.0685736
0.0116902
0.0128569
0.0347307
0.012989
0.0397013
0.0534862
0.0242916
0.0266542
0.0120251
0.0731077
0.0578919
0.0136156
0.0297443
0.0548902
0.0344091
0.0588469
0.0134827
0.0196423
0.0124662
0.0132272
0.0124926
0.0716919
0.016998
0.0735751
0.0252709
0.0137453
0.0423849
0.00713841
0.0568952
0.0122417
0.0011504
0.0676831
0.0642979
0.0167271
0.0116925
0.0124763
0.0135821
0.0122632
0.0311273
0.0119598
0.0746502
0.0730458
0.055756
0.056978
0.0786922
0.0554892
0.0118817
0.00442829
0.0445855
0.0572085
0.0277272
0.0117916
0.0574071
0.0156808
0.036771
0.023565
0.0425329
0.0268073
0.0123415
0.0124807
0.0146614
0.074215
0.012224
0.0122597
0.00698941
0.0579196
0.0281827
0.0126052
0.0164058
0.0644677
0.0702284
0.0381625
0.0241787
0.018817
0.00257854
0.0659355
0.0060553
0.0576763
0.0753746
0.0135648
0.0196685
0.0131406
0.0150228
0.0156764
0.0137766
0.0276491
0.0687528
0.0118626
0.0713932
0.0332944
0.0317978
0.0241161
0.0105588
0.0127578
0.0368026
0.0120099
0.0115029
0.00750402
0.0125735
0.0575899
0.0136378
0.073564
0.0767564
0.0119833
0.0143263
0.00567654
0.00236347
0.0124212
0.0703374
0.0128022
0.0645527
0.0140655
0.0121029
0.0734318
0.0138953
0.0133103
0.0450606
0.0137193
0.0127178
0.012485
0.033464
0.0125282
0.013093
0.0617448
0.0326827
0.00984025
0.0679116
0.061734
0.0125946
0.083474
0.0213506
0.013244
0.0115145
0.00472682
0.0601838
0.0772522
0.085801
0.00353188
0.0594802
0.0455453
0.0355399
0.0127952
0.064408
0.0592797
0.0612973
0.0121663
0.0138112
0.0771091
0.0230055
0.0840229
0.0841232
0.0563951
0.0131256
0.012268
0.0786701
0.0715239
0.0122481
0.0124302
0.0490613
0.0161687
0.0799971
0.0839948
0.00982741
0.0657096
0.0118347
0.0877679
0.0153684
0.0098798
0.00595461
0.00266737
0.0080806
0.0126003
0.0639829
0.0126628
0.0715113
0.0655811
0.0377538
0.0140874
0.0713597
0.00591319
0.00214977
0.0554038
0.0570784
0.0140248
3.0527e-05
0.0106562
0.0107763
0.0131874
0.0117458
0.0770033
0.0128525
2.98519e-05
0.0932888
0.0144519
0.088443
0.0811934
0.0142995
0.00241027
0.00660027
0.0133239
0.0131312
0.0510207
0.00115571
0.0534849
0.0122431
0.0783411
0.0101911
0.0124991
0.0580939
0.0136692
0.0744894
0.065717
0.0901717
0.00140792
0.0135889
0.00781259
0.00880179
0.0614478
0.0130871
0.0824175
0.0791791
0.0915414
0.0116757
0.008716
0.0880574
0.0405349
0.0142283
0.00496118
0.0123156
0.0687545
0.0101047
0.0648366
0.0556045
0.0466898
0.0545444
0.049405
0.0690764
0.0830869
0.00790555
0.0561276
0.0386649
0.0783015
0.0130463
0.0120356
0.0130204
0.0567566
0.0114345
0.0123862
0.0155445
0.0670695
0.00211105
0.0588361
2.78176e-05
0.012708
0.0103761
0.0394708
0.0599469
0.01381
0.013586
0.0626482
0.063937
0.0137584
0.0136731
0.0141342
0.0248392
3.13838e-05
0.0568934
0.00612294
0.0374183
0.00439565
0.0817857
0.0656905
0.0360798
0.0158641
0.00332239
0.0795932
0.0120048
0.00307281
0.0140723
0.0145374
0.0119673
4.46514e-05
0.0139165
0.0777749
0.012907
0.0127524
0.0128151
0.0576843
0.0139405
0.0109754
0.0126885
6.12032e-05
0.0662407
0.0718794
0.0115897
0.00796325
0.0124517
0.013949
0.0631594
0.0631971
0.0419724
0.0615189
0.00576817
0.0637146
0.0836834
0.014095
0.0114218
0.0137312
0.0129827
0.00593666
0.0116712
0.0134479
0.00211462
0.0136312
0.0130317
0.0296305
4.91443e-05
0.0557513
0.0134168
0.0933694
0.00292101
0.0024406
0.0326423
0.0139768
0.052447
0.0401779
0.0347952
0.0738465
0.0120777
0.0803645
0.0126095
0.0133607
0.0516717
0.0129474
0.0122371
0.0136601
2.73827e-05
0.00564018
0.0105157
0.00493915
0.0129663
0.00187262
0.0122375
0.0566688
0.00241546
0.0606485
0.00537782
0.0120214
0.0331189
5.55795e-05
0.0124265
0.0658229
0.0114401
0.0634096
0.0112209
0.0125525
0.0236884
0.00841477
0.0394507
0.0116226
0.0440946
0.033357
0.0144977
0.000550461
0.0320377
0.053547
0.0540165
0.0179741
0.0587637
0.00546304
0.0123053
0.0266829
0.0140618
0.0947244
0.00789764
0.0145189
0.074712
0.0113952
0.00648954
5.25595e-05
0.0120213
0.0101052
0.0144039
0.0703416
0.0138587
0.0875361
0.0828889
0.01296
0.0726914
0.00811205
0.0131138
0.0142772
0.0119369
0.0129456
0.0147733
0.0258025
0.0620534
0.0287177
0.0597655
0.0133779
0.0362314
0.0509164
0.0229398
0.00737634
0.0849011
0.00884555
6.84389e-05
0.0130668
0.00162574
5.18416e-05
0.0106051
0.0904586
0.00458129
0.0483635
0.0885116
0.0835775
0.00624688
0.0652468
0.0679886
0.066964
0.012628
0.0588738
0.00989178
0.0409897
0.0157003
0.0238368
0.070119
0.0144876
0.0577976
0.0418112
0.0140286
0.0638678
0.0168064
0.0511641
4.29361e-05
0.0154354
0.0653287
0.00171025
0.0144582
0.0143011
0.0566182
0.0783489
0.00830673
0.0125457
0.00983472
0.013813
0.0130994
0.0121712
0.0638865
0.0131527
0.00965217
0.0410336
0.0113271
0.0699428
0.0055931
0.00273891
0.00424347
0.0138176
0.00929428
0.000641072
0.0673448
0.0951318
0.0907066
0.00722515
0.0107693
0.00343168
3.27284e-05
0.0102647
0.0286465
0.0784752
0.0132374
0.00432463
0.0113305
0.0348138
0.0110585
0.0605189
0.00722659
0.00167991
0.0110903
0.00909367
0.00675568
0.0134946
0.0518837
0.00949486
0.0120561
0.00210432
0.0135901
0.00766348
0.0202489
0.00935307
0.00260271
0.0417832
0.0057107
0.0140297
0.0426889
0.00785318
0.0254688
2.41262e-05
0.00715214
0.0143185
0.0145865
8.19141e-05
0.0220382
0.0145956
0.0065148
0.0607606
0.0133376
0.0517631
0.0226612
0.0129077
0.0891414
0.0620376
0.0126635
0.0718969
0.0515176
0.0815267
0.0547384
0.0110849
0.0888875
0.0128037
0.000688144
0.0125618
0.084964
0.0309942
0.0497038
0.00710619
0.0689085
0.00640804
0.0117989
0.0123834
0.0135255
0.0131835
0.00616678
0.012527
0.0422876
0.0138104
0.000101405
0.00565354
0.036238
0.091003
0.0825496
0.0116479
0.0114559
0.0539433
0.0792629
0.053124
0.0117863
0.0733669
0.0250097
0.0263066
0.0129134
0.0102824
0.0312703
0.0347869
0.0558437
0.0109391
0.0430215
0.00818054
0.0245683
0.0231891
0.0202509
0.0152809
0.00773884
0.00432295
7.86357e-05
2.58817e-05
0.0146256
0.0198428
0.0141517
0.0916529
0.00451276
0.0320397
0.0527219
0.0490147
0.0135798
0.00922264
0.0680222
0.013566
0.000597279
0.00616322
0.00311488
0.0142944
0.0448415
0.00969696
0.00298801
0.023884
0.0112501
6.28274e-05
0.0133801
0.0954282
0.0141749
0.0789602
0.0138782
0.0116386
0.0137281
0.0763723
0.0380967
0.0144819
0.0625892
0.0168187
0.0402039
0.0140306
0.0875997
0.0142261
0.06176
0.00868248
0.0737057
0.0600287
0.0317095
0.0284509
0.0120197
0.0133185
0.0631191
0.0418927
0.0295402
0.0953648
0.0157173
0.0452016
0.00253187
0.00145025
0.00840652
0.0944777
0.0680384
5.62644e-05
5.64133e-05
0.00295009
0.00507691
0.00943541
0.0537281
0.014069
0.0102
0.0806578
0.00903352
0.0121707
0.0125268
0.0394161
0.010555
0.0951964
5.80729e-05
0.0930318
0.00409543
0.00904827
0.069222
0.00920924
0.0535644
0.00265284
0.0146667
0.0352056
0.0537745
0.00928107
0.00452494
0.0335293
2.7966e-05
0.0144476
0.0648506
0.00296506
0.0411946
0.00703646
0.0558529
0.0643614
0.016495
3.85598e-05
0.0567194
0.0124531
0.011704
0.0765641
0.0948883
0.0922602
0.0855903
0.0389807
0.0112446
0.0121066
0.0234195
0.012705
0.0215772
0.0653755
0.0593991
0.0847815
0.0112192
0.0132034
0.0919622
0.0210106
0.0118376
0.0230481
0.00548352
0.0127798
0.0539082
0.0646619
0.00937317
0.0619062
0.0574185
0.0102849
0.0128152
0.0943946
0.0913779
0.00250709
5.0208e-05
0.00334187
0.0791657
0.0570627
0.0034595
0.0207739
0.0620014
0.0936963
0.0113685
0.0144687
0.00618082
0.0377308
0.00958497
0.0137303
0.00728889
5.43741e-05
0.0546667
0.0127554
0.0662945
0.00118398
0.0801652
0.0643531
0.0128504
0.0108912
0.0260801
0.0124644
0.0601501
0.0396256
0.0139354
0.0134501
0.0394634
0.00918235
3.0914e-05
0.012141
0.0671358
2.83953e-05
0.0123312
0.00503349
0.0054555
0.0202786
0.0126797
0.060994
0.0115343
0.010633
0.0658528
0.0128097
0.0262419
0.0556077
0.0681827
0.090791
0.00814624
0.0476862
0.0726557
5.98519e-05
0.0064956
0.0597935
0.0141839
6.06671e-05
0.00873037
0.0136381
2.50705e-05
0.00480422
0.0895854
0.0143708
0.0119365
0.0942266
0.041318
0.0821171
0.0571751
0.0548152
0.0140143
0.00539558
5.95612e-05
0.0639073
0.00799228
0.0870655
0.0753516
0.0936853
0.0109683
2.50873e-05
0.0359966
0.080439
0.0111045
0.00816918
0.00138471
0.0146783
0.0134652
0.0107293
0.0906445
0.086095
0.0197048
0.0928421
0.00865875
0.0806744
0.0111584
0.013249
0.000595092
5.73791e-05
0.0726366
0.0592954
0.014488
0.0126493
0.0132411
0.0128671
0.0125602
0.00478929
0.00562962
0.0107279
0.00503938
5.67378e-05
0.00366559
0.0664619
0.027807
0.0350585
0.00325892
0.0800108
0.0521449
0.0403731
0.011366
0.0125334
0.013893
0.00827086
0.00767716
0.079375
0.0113963
0.0146352
3.00693e-05
0.0918854
0.00555397
0.0119277
0.00160448
0.0604952
0.0139955
0.0138082
0.00101854
0.0946532
0.0108641
0.0274582
0.0782238
0.0153984
0.000805185
0.0130592
0.0017099
0.00751038
0.00184672
0.0813717
0.00572811
0.0906783
0.00909996
0.0289566
0.0119072
0.082537
0.0899495
4.00863e-05
0.00654959
0.0877503
2.66377e-05
0.012634
0.0125823
0.0890163
0.0842152
0.0088364
2.08097e-05
0.0650072
0.08069
0.0557077
0.0128662
0.0690197
0.0801396
0.022184
0.0315239
6.07285e-05
0.0476175
3.97599e-05
0.0758952
0.00130111
0.00369142
0.0108594
0.014643
0.00181452
0.0894889
0.0551504
0.0631022
0.0670045
2.97486e-05
0.0502193
0.0705284
0.0099195
0.00779378
0.00848142
0.0142248
0.00117256
0.0615295
0.0712914
0.0693388
0.00943153
0.0107731
0.0648205
0.00944468
0.0287743
0.0110053
0.00942107
0.000706312
0.0502672
0.00979375
0.0784823
0.0944946
0.000813368
0.00350437
0.0601671
0.0612742
0.0119047
0.0140848
0.0821523
0.0871337
0.0144705
0.00999688
0.0949878
0.0892465
0.00300946
0.0413862
0.0103934
0.0952141
0.00347489
4.28339e-05
0.0615591
4.70327e-05
0.00829892
0.0124105
0.0129914
0.00900596
0.0127439
0.00978475
0.0143104
0.0305858
0.0372929
0.0936225
0.0800642
0.00973809
0.0303711
0.00602587
3.87502e-05
0.0916601
0.0641796
0.0718453
0.0775706
0.0799201
0.0851399
0.0148225
0.0440832
0.059142
0.0298932
0.054186
0.0640555
0.0603242
0.0563077
0.0119276
0.0128024
0.00246133
0.00791165
0.00738276
0.0130645
0.033753
0.00165569
0.069033
0.000672217
0.0830067
0.0167008
0.0135712
0.0137579
0.0425612
0.066391
0.0432825
0.00138638
0.0126191
0.010053
0.0683392
0.0388398
0.090394
0.0123969
0.00852832
0.0111175
0.0456441
0.057213
0.0175701
0.0315407
0.0120132
0.0125406
0.0365102
0.0750934
0.0739631
0.055328
0.0135665
0.00125656
0.00261089
0.0112371
0.00264716
0.0122567
0.00935642
0.0123521
0.0143423
0.0135616
0.00189976
0.0672708
0.00629762
0.0120853
0.00601287
0.00132348
0.0139125
0.0660349
0.0114634
0.0335246
0.000975962
0.0114413
0.00106859
0.0448778
0.0264572
0.0101867
0.00727552
0.0698644
0.00696038
0.0131209
0.0511449
0.0892382
0.09099
0.0564761
0.0393237
0.0746196
0.089408
0.00631106
0.0187662
0.0114042
0.0098987
0.0028159
0.0767097
0.0146075
0.0139631
0.00113424
0.0196387
0.012921
0.0878705
0.00382913
0.0116322
0.0109996
0.0539093
0.0630114
0.0807553
0.00106213
0.0136008
0.0121321
0.0613229
0.00850778
0.0132891
0.0800755
0.0610037
0.0336059
0.00790732
0.0619637
0.0432161
0.00808562
0.0125831
0.065298
0.00815211
0.0139081
0.0072287
0.017794
0.00119121
0.0119506
0.071805
0.0113271
0.00696813
0.0125279
0.0416576
0.000640287
0.0093198
0.00120369
0.0134877
0.00980107
0.0147572
0.0796961
0.00728904
0.0544522
0.0869619
0.0671055
0.0123738
0.0213008
0.00185912
0.0101907
0.0103562
0.0111063
0.0600986
0.0139673
0.0876042
0.0156245
2.46635e-05
0.0137831
0.072581
0.0822829
0.00959042
0.0574495
0.00865317
0.0565949
0.00758499
0.0783803
0.0109539
0.0761951
0.0126876
0.0138282
0.012097
0.0111471
0.00144689
0.00110905
0.0579708
0.00171923
0.0126377
0.0125733
0.0143241
0.0154069
0.0114698
0.0123524
0.0835469
0.0142549
0.0125729
0.0207768
0.010952
0.00440443
0.078458
0.0077956
0.0569115
0.0113976
0.082775
0.0847545
0.091858
0.0121254
0.00683585
0.00639958
0.0189862
0.0118534
0.0742196
0.0293489
0.0464228
0.0382752
0.0854337
0.0202611
0.0183206
0.0260308
0.0534509
0.00877499
3.15202e-05
0.0736973
0.0374143
0.0138558
0.00431269
0.0123662
0.0585744
0.0913434
0.00359941
0.0119218
0.0794913
0.0953769
0.00271296
0.0119437
0.0636645
0.0442173
0.0111705
0.000282244
0.0128182
0.0123064
2.65687e-05
0.00249051
0.0220324
0.00962761
0.00580263
0.070834
0.00812852
0.0247719
0.0929431
0.0565545
0.00196659
0.0630124
0.0139052
0.0131417
0.0673421
0.0120231
0.00404115
0.0522977
0.00317122
0.0578011
0.013947
0.0144267
0.0221932
0.0107642
0.00871986
0.0260901
0.0355033
0.0105922
0.0420116
0.0090426
0.00178279
0.00521825
0.0250298
0.0361138
0.0634986
0.00729373
0.0606565
0.0596028
0.0309947
0.0123148
0.0596077
0.0213195
0.0235355
0.0847407
0.0146811
0.00990795
0.0161697
0.0749654
0.00675708
0.05268
0.0551633
0.0371669
0.00124487
0.0694639
0.0613345
0.00424698
0.0610049
0.0627907
0.0278795
0.00994655
0.0613146
0.0133722
0.0058785
0.0455836
0.0109066
0.014793
0.0612195
0.00660939
0.00728919
0.00258379
0.0432013
0.0114367
0.0439384
3.62777e-05
0.00720052
0.067738
0.0118353
0.0256225
0.0102457
0.0938503
0.0928645
0.0525936
0.0632218
0.0544661
0.0632649
0.0033892
0.0234416
0.0654825
0.0929011
0.0554458
0.00126845
0.0137031
4.35715e-05
0.0183064
0.0239655
0.00610544
0.0816655
0.0857776
0.0496025
0.0805705
0.081055
0.0111926
0.0520163
0.0479976
0.0116714
0.00955224
0.00286629
1.05665e-05
0.00982866
0.0767693
4.19543e-05
0.00207479
0.0121259
0.00123734
0.00101134
0.00373881
0.0121431
0.0548057
0.00361627
0.0525989
0.00803577
0.0629635
0.0141208
0.0432294
0.0570848
0.00661346
0.014649
0.00137357
0.0859212
0.0121283
0.0121573
0.0112955
0.0542498
0.0462263
0.0263071
0.0136506
0.0227805
0.00538664
0.0119466
0.0428838
0.0093416
0.0657393
0.0582207
0.0144505
0.0611161
0.0145863
0.000580531
0.0812967
0.0561602
0.0147879
0.0242029
0.010197
0.0139242
0.0125592
0.0382865
0.0671941
0.0146803
0.0119761
0.0688131
0.0685211
0.0059676
0.0708989
0.0694054
0.012142
0.0404854
0.00274049
0.0115768
0.00933236
0.0383483
0.0120428
0.0548913
0.070602
0.0713358
0.0128673
0.0574161
0.0515519
0.0592481
0.0127089
0.0086768
0.0620161
0.0115172
0.00909092
0.0131954
0.0625399
0.0132387
0.00863231
0.00213255
0.0786463
0.0048643
0.0508992
0.0137706
0.067944
0.0108047
0.00131542
0.00480994
0.0944954
0.0670157
0.0107011
7.33191e-05
4.84286e-05
0.048688
0.00226875
0.062103
0.0743394
0.0082454
0.0130869
0.0625309
0.0106639
0.0141757
0.0867218
0.00310092
0.00120293
0.0101109
0.0636062
0.0846628
0.0140518
0.0236464
0.0800851
0.0139435
0.0117489
0.0118841
0.0110679
0.0645929
0.0583614
0.00855719
0.0102588
0.0113333
0.0131131
0.00990139
0.0118748
0.0942239
0.093255
0.0380816
0.0601604
0.0670479
0.00106076
0.0132458
0.0868651
0.0822654
0.0870365
0.062411
0.0112606
0.00112415
0.00969415
0.0597693
0.0539695
0.056543
0.000757807
0.0128281
0.0101425
0.0874563
0.0132646
0.0580252
0.0442485
0.00998843
0.056814
0.00295776
0.0144616
0.0628015
0.00700441
0.0787587
0.00263209
0.00640624
0.016497
0.00977644
0.088248
0.0145475
0.00258201
0.0134493
0.0502685
0.00911217
0.00830305
0.0873187
0.0741981
0.00624382
0.000728186
0.0402717
0.0110925
0.012452
0.013083
0.00134265
0.00852081
0.00107558
0.00733924
0.00679948
0.00590881
0.0129883
0.010426
0.0090821
0.0136495
0.0549901
0.0565184
0.0700035
0.0116236
0.0708961
0.00949905
0.0012757
0.0836454
0.0762445
0.049536
0.0551011
0.0730375
0.0105579
0.0113159
0.0107883
0.0140023
0.0136108
0.00917191
0.0714107
0.0650187
0.00857655
0.0434329
0.0830222
0.0905506
0.0603694
0.000591971
0.0937298
0.00207298
0.0948928
0.0580806
0.00108393
0.0586857
0.0113987
0.00748217
0.0117228
0.00797618
0.04503
0.0894022
0.0387383
0.0338702
0.0140819
0.00662872
0.00334317
0.0458877
0.00343888
0.00916286
0.00585395
0.0927815
0.0842965
0.0725866
0.0411497
0.0106537
0.0146074
0.0123495
0.0538205
0.00685347
0.0100548
0.0325585
0.0114122
0.0128579
0.0268791
0.0099801
0.0110063
0.0118593
0.0211806
0.00134768
0.049396
0.0542949
0.0224897
0.0108225
0.0897031
0.00818738
0.0108654
0.00558196
0.0507878
0.0873789
0.00905873
0.0606806
0.0895527
0.0111309
0.004843
0.0560985
0.0103147
0.0514329
0.0104559
0.0106375
0.0661909
0.000843583