/*--------------------------------*- C++ -*----------------------------------*\
  =========                 |
  \\      /  F ield         | OpenFOAM: The Open Source CFD Toolbox
   \\    /   O peration     | Website:  https://openfoam.org
    \\  /    A nd           | Version:  10
     \\/     M anipulation  |
\*---------------------------------------------------------------------------*/
FoamFile
{
    format      ascii;
    class       volScalarField;
    location    "100";
    object      p;
}
// * * * * * * * * * * * * * * * * * * * * * * * * * * * * * * * * * * * * * //

dimensions      [0 2 -2 0 0 0 0];

internalField   nonuniform List<scalar> 
23845
(
-0.0805807
-0.0804351
-0.079928
-0.0566701
-0.0777988
-0.025154
-0.106029
-0.0848614
0.0105617
-0.0878567
-0.0714476
-0.00738766
0.00423191
0.00289649
-0.116829
-0.082894
-0.0116943
-0.0385411
-0.0377554
0.00579351
-0.0850282
-0.069834
-0.0878216
-0.00980081
-0.0830013
-0.00509736
-0.0872874
-0.00226171
-0.143451
-0.000287609
-0.0546542
-0.100966
-0.135647
-0.0379848
-0.01684
-0.0097204
-0.11426
-0.0144393
0.00915495
-0.0133794
-0.0535267
-0.00222852
0.0033151
-0.00554554
-0.00736343
0.0061799
-0.072156
-0.0773578
-0.0929561
-0.15915
-0.0932596
-0.0695187
-0.0954138
-0.0154415
-0.104033
-0.0130167
-0.0755387
-0.0767864
-0.0845489
-0.0687546
-0.115048
-0.00572445
-0.0753563
-0.149574
-0.00882812
0.0072443
-0.0948117
-0.00246291
-0.00295894
-0.0519924
-0.0960217
-0.0779566
0.0104315
-0.112128
-0.00494777
-0.104984
0.00691908
-0.0098825
-0.0653998
-0.0442667
-0.0857622
-0.0909608
-0.0781975
-0.0731532
-0.0845882
-0.0213251
-0.081787
-0.0935167
-0.00475173
-0.0444802
-0.100376
-0.0626729
-0.157883
-0.00998338
-0.0793928
-0.103699
-0.00767785
-0.0779352
-0.000842979
-0.076609
-0.0249748
-0.101862
-0.0794394
-0.192971
-0.178711
-0.0707555
-0.0225748
-0.00457619
-0.101704
0.000327027
-0.0677332
-0.0153624
-0.0921099
-0.0799595
-0.00539748
-0.082817
-0.00522141
-0.0876382
-0.137377
-0.100591
-0.00545926
-0.104925
-0.0539653
-0.0788367
-0.0965413
-0.00182621
-0.107857
-0.166868
-0.0798917
-0.070824
-0.123804
-0.0823193
-0.0753472
0.00394647
-0.0412669
-0.0798554
-0.181537
0.00548273
-0.0976439
-0.0151144
-0.139491
0.0019911
-0.025819
-0.0100423
-0.06967
0.00241932
-0.0827367
-0.0848266
-0.112098
-0.058352
-0.117867
0.0121533
-0.0737112
0.00952624
-0.0899774
-0.0639764
-0.0785766
-0.0311719
-0.143416
-0.111893
-0.0614926
-0.110267
-0.0800376
-0.00770508
-0.00907627
-0.0577
0.00587551
-0.105602
0.00272228
0.00483379
0.00593455
-0.0583499
-0.0116797
-0.0743755
-0.0118427
-0.0699974
-0.0694236
-0.070119
-0.000835702
-0.0316755
-0.0765794
-0.0750741
-0.102819
-0.0655216
-0.0749657
-0.0146705
-0.00109341
-0.0825623
-0.146893
-0.000313627
-0.158257
-0.014187
-0.0154487
-0.0223236
-0.0685643
-0.0112115
-0.187827
-0.160878
-0.210637
-0.0691438
-0.0573893
-0.00894864
-0.102842
-0.0798916
-0.0789203
-0.079783
-0.0809023
-0.0140679
-0.0802052
-0.0436053
-0.0443592
-0.112071
-0.0750607
0.00519643
-0.0943259
-0.111805
-0.0795992
-0.00899437
-0.137663
-0.10085
0.0131067
-0.108257
-0.186842
-0.0646465
-0.000520488
-0.117097
-0.157904
-0.0176707
-0.0254165
-0.0549338
-0.0238434
-0.0929623
-0.0184447
-0.00189487
-0.0796048
-0.129633
-0.0116115
-0.0561106
-0.000589396
-0.0644994
-0.0933311
-0.0823651
-0.0727133
-0.0804656
-0.102141
-0.076662
-0.0221402
-0.000690104
-0.0751575
-0.102556
0.0111652
-0.029558
-0.0930045
0.00152938
-0.108419
-0.0983202
-0.0950896
-0.0890595
-0.00521208
-0.0110284
-0.0929322
-0.0278587
-0.102564
-0.0667202
-0.0633081
-0.0119763
-0.0677181
-0.0871499
-0.0574597
-0.0577054
-0.0225159
-0.0603793
-0.0913218
-0.0143648
-0.0662303
-0.0162755
-0.095166
-0.0179946
-0.204403
-0.0900661
-0.0713159
-0.0262553
-0.08972
-0.065295
-0.0239324
-0.123055
-0.0680994
-0.00655943
-0.0800579
-0.0896042
-0.0704956
-0.0928636
-0.141083
-0.0932474
-0.0751432
-0.0180334
-0.129462
-0.0183565
-0.0239824
-0.125097
-0.154966
-0.102778
-0.132069
-0.0557429
-0.0218637
-0.0531817
-0.163133
-0.0920395
-0.0226958
-0.180811
-0.0912943
-0.0716954
-0.0179095
-0.0258191
-0.0717313
-0.145594
-0.131755
-0.0788848
-0.10294
0.0125899
-0.181932
-0.109031
-0.13408
0.00211833
-0.0951549
-0.0179004
-0.058855
-0.0688652
-0.100001
-0.0451576
-0.0764574
-0.0633189
-0.0971556
-0.0292388
-0.0993559
-0.0557064
-0.0593009
-0.0386128
0.00813641
-0.0639869
-0.0601006
-0.122623
-0.0689059
0.00147772
0.00118891
-0.210605
-0.0324224
-0.0991414
-0.061969
-0.105082
-0.0620726
-0.132326
-0.16572
-0.092434
-0.094354
-0.0165842
0.00552834
-0.000323734
-0.0882783
-0.0760585
-0.077573
-0.0111073
-0.0824595
-0.0618441
-0.140347
-0.00665481
-0.0936718
-0.0163007
-0.132018
-0.00620254
0.000382177
-0.104407
-0.188519
-0.00587606
-0.0290185
-0.0973172
-0.069928
-0.0572167
0.00593523
-0.0680504
-0.0971115
-0.0234213
-0.0827038
0.00035246
-0.000303049
-0.0143739
-0.0266602
-0.0687221
-0.0556489
-0.0758638
-0.0957701
0.00598011
-0.171243
-0.185891
-0.0918286
-0.114288
-0.0627149
-0.00532699
-0.0532502
-0.0257816
-0.0674926
-0.0558772
-0.0854014
-0.0627003
-0.0719905
-0.0989055
-0.0137109
-0.17653
-0.169529
-0.0947679
-0.112892
-0.00158966
-0.10122
-0.110561
-0.0827975
-0.0700064
-0.060369
-0.0648183
-0.0278358
-0.0885208
-0.176042
0.0140695
-0.00452226
-0.0595903
-0.0964842
-0.0824466
-0.188672
-0.0559524
-0.0722828
-0.0760206
-0.0119478
-0.0343968
-0.133613
-0.0388725
0.0137332
0.00389492
-0.000496322
-0.0117502
-0.139569
-0.0705413
-0.100599
-0.188323
-0.177457
-0.0889504
-0.056198
-0.141123
0.00362958
-0.0599061
-0.0334578
-0.0604174
-0.0597284
0.0115919
-0.203275
-0.0264396
-0.0065863
-0.120671
-0.0680664
-0.0812346
-0.0908367
-0.0180307
-0.0788592
-0.0503167
-0.172489
-0.067362
-0.0244828
-0.0121732
-0.0231142
-0.0933989
0.00211967
-0.119414
0.00316751
-0.0120416
-0.0543292
-0.101297
-0.151288
-0.0778782
0.00583221
-0.099875
-0.00655321
-0.0526033
-0.0672671
-0.0610423
-0.0530625
-0.0690464
-0.0570453
-0.0856554
-0.0158383
-0.0195013
-0.0776196
-0.0919435
-0.00945851
-0.142853
-0.100127
-0.06424
-0.0811154
-0.071353
0.00624244
-0.0687745
-0.0070557
-0.0267932
-0.0752438
-0.125895
-0.107716
-0.069231
-0.0712553
-0.067519
-0.0644958
-0.0102891
-0.00601456
-0.099176
-0.0537134
-0.131419
-0.11917
-0.0533938
-0.0172304
0.00540454
-0.0590584
-0.137582
-0.108051
0.0139775
-0.107764
-0.00725767
-0.0410388
-0.152396
0.00609071
-0.0987775
-0.104637
-0.137321
-0.0839855
-0.116164
-0.119638
-0.171416
-0.0786399
-0.0912992
-0.0342091
-0.0130266
-0.00916112
-0.115645
-0.0749619
-0.0639084
-0.0865546
-0.0116358
-0.0899087
-0.0868596
-0.0653332
-0.0857992
-0.0703568
0.011021
-0.00416367
0.013956
0.00867738
-0.0203651
-0.0818549
0.0117164
-0.0803963
-0.0776515
0.00614727
-0.117492
-0.0328363
-0.0119619
-0.075447
-0.0571653
-0.0685838
0.00999511
0.0122129
-0.191062
-0.170553
0.000161578
-0.137267
-0.000491335
0.00878996
-0.0931251
-0.0178809
-0.0186012
-0.079816
-0.077612
-0.0900056
-0.122001
-0.0905639
-0.0757793
0.0139137
-0.0061053
-0.0665412
-0.081027
-0.142187
0.0112867
0.013124
0.0127471
-0.088906
0.00869749
-0.0935559
-0.110994
-0.0795184
-0.0636552
-0.102638
0.00773841
0.00379286
-0.0090913
-0.035543
0.00566333
-0.0709261
-0.00117048
-0.0782476
-0.0937414
-0.0646358
-0.0817834
-0.0891381
-0.0771932
-0.105794
-0.0630348
-0.0679905
-0.0826391
-0.072305
-0.0790322
-0.153163
-0.0840796
-0.0806595
-0.0823874
0.0064144
-0.00333488
-0.0773523
-0.10718
-0.0742547
-0.0604198
-0.0790251
-0.0575265
-0.0488011
-0.0174186
-0.0199839
-0.0801226
0.0063151
0.0106555
-0.0652486
-0.0093881
-0.0218826
-0.0962062
-0.0832834
-0.0806494
0.0135758
-0.0620384
-0.0720119
-0.0545456
-0.00568196
-0.00517372
-0.0809397
-0.0779426
-0.081271
0.00378925
-0.0806089
-0.0861147
-0.00393284
-0.0278476
-0.0804355
-0.0678642
-0.133546
-0.156672
-0.142853
-0.0818083
-0.0892268
-0.0684097
-0.0549181
-0.0419838
-0.0411532
-0.0803915
-0.037023
0.0106815
-0.0169876
-0.0805937
-0.0553052
-0.0753414
-0.0792889
-0.0599212
-0.0680357
-0.0621872
-0.0585179
-0.0776852
-0.0562941
-0.0796508
-0.0667538
-0.0385838
-0.0712419
-0.0503893
0.00420225
-0.0443755
-0.0355539
-0.0806779
-0.00774302
-0.0339505
-0.0763592
-0.0792593
-0.021345
0.00130899
-0.0611537
-0.0649578
-0.0685121
-0.0738052
-0.0765581
-0.0576761
-0.0789406
-0.0550169
-0.0703882
-0.0478141
-0.0654411
-0.0413817
-0.0318998
-0.0344801
-0.0313102
-0.0126952
-0.019602
-0.0224903
-0.00409523
-0.0560044
-0.00573194
0.00321097
-0.00939804
-0.00945127
-0.0205192
-0.0634688
-0.0040463
-0.065019
-0.0686034
-0.0544509
-0.000348541
-0.00197638
-0.000950173
-0.0744813
-0.0682218
-0.0795996
0.0101702
-0.0629611
0.00539337
-0.0324445
-0.000414491
0.00379373
-0.0747826
-0.0308268
-0.0792833
-0.00129958
-0.00279106
0.010896
-0.00563896
0.00943646
-0.0551362
-0.0926413
0.011222
0.00322943
-0.0794789
0.00830345
0.0140592
0.0113458
-0.0767393
0.00578872
-0.00175622
-0.0793928
-0.00633603
-0.0841547
-0.0723126
-0.0697059
-0.075181
-0.0714174
-0.0778024
0.00118516
-0.0566843
-0.0611857
-0.0677947
-0.0533753
-0.0628731
-0.0375202
-0.0797658
-0.0300015
0.0118972
-0.0743101
-0.0718203
-0.0775022
-0.0631295
-0.0642859
0.00804892
-0.0820345
-0.0674656
-0.031381
-0.0149644
-0.0403511
-0.0918608
-0.0218106
-0.0634025
0.0101579
-0.00193204
-0.00674777
0.0112308
0.00942109
-0.00749177
-0.00196357
-0.0314941
0.00802539
0.00729438
0.00544977
-0.0730605
-0.0514575
0.0109268
-0.0272513
-0.011919
0.00371565
-0.0779778
-0.061059
-0.067867
-0.0521952
0.00233993
0.0123984
0.000361667
0.0107392
-0.0788593
-0.0733657
-0.0734141
-0.0501077
0.0126946
-0.0547332
-0.143347
-0.0622943
-0.0539418
-0.0689426
0.00324078
-0.0114014
-0.0738612
-0.0234334
-0.0227717
0.0136871
-0.0470495
0.0103833
-0.00412215
0.0065636
0.0112823
0.0136339
-0.0288115
-0.0514295
-0.0142571
-0.0171492
-0.0784821
0.00391567
-0.0137297
-0.0730332
-0.077515
0.0100901
-0.00344228
0.00732582
-0.0757821
-0.0672382
-0.0692043
-0.0638066
-0.0378786
-0.0510226
-0.0517774
-0.0604488
-0.0781159
-0.04531
0.00675251
0.000242363
0.00424652
-0.0592267
0.00820023
-0.0903414
-0.0220191
-0.0767173
-0.00573379
-0.0786761
0.0138221
-0.000517688
-0.0712074
-0.0586665
-0.0831224
-0.0811702
-0.0624914
-0.0835827
-0.0283927
-0.0416765
0.00228797
0.00447356
0.0115904
0.0129345
-0.021062
0.00107247
0.00715982
-0.0722578
0.0131755
-0.0690179
-0.0759749
-0.070559
-0.0640117
-0.0834836
-0.0607536
0.00607595
-0.0724021
0.0136099
-0.0818181
-0.0442458
0.0119233
-0.0838223
-0.0336461
-0.00196872
-0.0640935
0.012433
-0.0376917
-0.0580283
-0.0558022
0.00561061
-0.0520842
0.0135303
-0.0360325
0.0127704
-0.0644833
-0.170475
-0.0290357
-0.0523996
-0.0613096
-0.0637302
-0.0799174
-0.0674099
0.00999456
-0.0681649
-0.0314921
-0.0124402
-0.127829
-0.189862
-0.00743048
-0.000631683
0.00501123
-0.0622975
0.00529166
-0.111218
0.00376249
0.0091221
-0.0332286
-0.0259657
0.00396147
0.00512479
-0.00117018
-0.0817933
0.013415
-0.0828008
-0.0637428
-0.0772065
0.00426135
-0.0665285
-0.0559016
-0.0600314
-0.0630167
-0.0393112
-0.0714096
-0.0424948
-0.0661806
-0.0698764
-0.0738149
-0.0325182
-0.0655737
-0.0690299
-0.0548776
-0.0749799
-0.0702128
-0.0662898
-0.0804622
0.0132252
-0.0258793
-0.0325563
-0.0103541
0.00615639
-0.00601006
-0.0649256
-0.00519521
0.013175
-0.0625968
-0.0612537
-0.0624315
-0.0108326
-0.0955251
0.0124923
-0.00525916
0.00138904
0.000291079
-0.041639
0.0132005
-0.0671217
-0.0809214
-0.0815797
0.0129451
0.00728294
-0.0716418
-0.0759606
0.0119574
-0.0831073
-0.0557158
-0.0525872
-0.0605981
-0.0816469
-0.039844
-0.0665461
-0.0743691
-0.0671355
-0.0780175
-0.0760549
-0.0769134
0.00973552
-0.0284224
-0.0282264
0.0103843
-0.060687
-0.0673123
-0.000802233
-0.208415
0.0129457
-0.126035
0.00981908
0.00714629
-0.173713
0.0120926
-0.00724113
-0.0264947
0.00967556
0.00963077
0.00867647
0.0128289
0.00223277
-0.0776434
-0.128517
0.0144058
-0.0542263
-0.0522089
-0.0716952
-0.0676594
-0.0838431
-0.0700906
0.0139346
-0.00469018
0.00228038
0.00879404
-0.00479115
-0.010603
-0.0780247
-0.079956
-0.0802534
-0.0906512
-0.0871334
-0.0905285
-0.0899299
-0.076319
0.00912095
-0.0800016
-0.071315
-0.0733321
-0.0741913
-0.0677858
-0.0694475
-0.0347298
-0.065897
-0.00513296
-0.062559
-0.0557787
-0.0116323
-0.0502759
-0.0428152
-0.0329411
0.00231663
0.0107528
-0.0571495
-0.0889438
-0.0789483
0.0139304
-0.0892035
0.014665
0.00892715
-0.0163607
0.00656804
-0.0587483
-0.0176526
-0.00117328
-0.00572362
-0.0278898
0.000505984
-0.0780615
0.00587922
0.0122281
-0.0817542
-0.00885811
-0.00231107
-0.0589043
-0.0777393
-0.0576951
-0.120222
-0.074901
0.00688425
-0.0661872
-0.0702888
-0.0715596
-0.0407672
0.0121359
-0.0684228
-0.0619944
-0.0649742
-0.0614545
-0.0568533
-0.0535831
-0.20173
-0.0477406
-0.0774945
0.0115043
-0.0296342
-0.0827836
-0.0378535
-0.0338433
-0.142341
-0.0164573
0.00946429
0.00564712
-0.00592412
3.25245e-05
0.00975038
0.0126146
0.0116162
-0.079219
0.000717062
0.00567645
-0.0854589
0.0111272
0.0105824
0.0124905
-0.0719005
-0.00407719
0.0127402
-0.080461
0.00898478
-0.00423006
0.0161723
0.00356569
-0.0277035
-0.0792974
0.00781014
0.0112948
-0.0638936
-0.0711058
-0.0792734
-0.0677687
-0.0618864
0.014183
-0.0290561
0.00342985
-0.0104712
0.0105175
-0.0797982
-0.0285153
0.00330831
0.00971379
-0.0498721
-0.0280853
-0.0642957
-0.0799418
0.0123674
0.00759288
0.00749893
-0.0736564
-0.024518
0.00788453
-0.069729
0.00985076
-0.0577821
0.00936319
-0.0174712
0.00587564
-0.0506284
0.00617718
-0.0260146
-0.0666301
0.0128261
-0.076797
-0.0269306
0.0167375
-0.061575
0.0127065
-0.0584517
-0.0605188
-0.0506582
-0.0663109
-0.0456519
0.0113211
-0.0526169
-0.057879
-0.026869
-0.0190834
-0.0292493
-0.0470866
-0.0822478
0.0131992
0.0048839
-0.0883682
0.0124849
-0.0325945
-0.0908637
0.0144159
-0.0202508
-0.0893366
-0.0142164
0.000964379
-0.0903086
-0.0820814
-0.0732523
-0.00820977
0.0128517
-0.0862338
-0.0121025
-0.0104258
-0.0783402
-0.0779569
-0.0815438
-0.0276526
-0.0802613
0.0102034
-0.0156478
-0.0784953
-0.0687816
0.0131715
-0.0653962
-0.0795286
-0.209064
0.010572
0.0123527
0.00835899
-0.0221615
0.0122317
-0.00431665
0.00883025
-0.12822
-0.046993
-0.000692642
-0.078646
-0.0365958
-0.0724661
0.0113391
-0.0865194
-0.00307695
-0.0369761
-0.0748454
-0.00617323
-0.0472533
-0.00437651
0.0111681
-0.119973
0.00667776
-0.0847722
-0.0603697
-0.0733503
-0.0762408
-0.0614807
-0.0805646
0.0138088
0.0110592
-0.0695773
0.0136606
0.0134387
0.010202
-0.0859624
-0.0156552
0.0111451
-0.00425144
-0.0786748
-0.0256154
-0.0329889
-0.0211763
0.00196107
-0.163648
-0.0516755
-0.0573763
-0.0842089
0.0040602
-0.132449
0.0107076
-0.106453
0.000280721
-0.0786236
-0.0318818
-0.0234532
0.0143194
-0.0484706
-0.0593214
-0.0209326
-0.0654166
-0.0755055
-0.00380703
-0.0214801
0.00117625
-0.0740046
-0.072501
-0.0128268
-0.0449249
-0.0248767
-0.0515852
-0.0623779
-0.0613282
-0.0228947
-0.0632233
-0.0623217
-0.0806388
-0.0437186
-0.073136
-0.00660803
-0.0600345
0.0113066
0.0115442
-0.0851193
-0.0842933
-0.0791412
-0.0131733
-0.0781952
-0.0220124
-0.0127145
-0.0849616
-0.0159416
-0.0707727
-0.125944
-0.0830906
-0.0602118
-0.00671001
-0.128309
-0.0588915
-0.0580223
-0.0532059
-0.0797788
-0.0710254
6.24502e-05
0.0119477
-0.134744
-0.0696305
0.0106098
-0.0845237
-0.0840715
0.00567057
-0.116589
0.0110583
-0.0857438
-0.0222263
-0.0824483
-0.00531918
-0.0792601
-0.0876529
-0.0316151
-0.122987
-0.0855669
-0.013133
-0.0998057
0.0124789
-0.0795505
-0.0820948
-0.0678862
-0.00113419
-0.0770042
-0.086497
-0.0234329
-0.0849473
-0.0156975
0.00909742
-0.0501932
-0.0569361
-0.0798743
0.00338343
0.0150151
-0.0763939
-0.0480906
0.0115369
-0.024268
0.0105181
-0.0584045
-0.0535775
-0.0861069
-0.0799218
-0.0799319
0.00489987
-0.0569404
0.00364467
-0.0477287
-0.0593594
-0.00338191
-0.105976
0.0104792
-0.0800738
-0.122426
0.00766746
0.00273366
-0.0625736
-0.0734962
-0.0803641
-0.0735422
-0.065295
-0.0266866
-0.0603449
-0.0206488
0.00875417
0.0128678
0.00600446
-0.00758793
0.00842553
-0.0805538
-0.147022
-0.0167582
0.00536411
-0.0463994
-0.0899856
0.0101349
-0.0609138
-0.0267592
-0.0504935
-0.00145734
-0.0522796
-0.0744724
-0.0756134
-0.0595623
-0.0013769
-0.0615313
-0.0810737
-0.0976672
0.00907661
-0.0471263
-0.0742381
-0.0587915
0.0151625
0.0094785
-0.0188757
-0.0592072
-0.0572134
-0.133458
0.000306498
-0.0889011
0.0130361
0.00349954
-0.0816415
-0.0559137
-0.081532
-0.0580999
-0.0651237
-0.0687012
-0.0598563
0.000733013
-0.0798727
-0.00100517
-0.0253266
-0.0259995
-0.0505927
-0.06855
-0.0604542
-0.0419179
-0.0608326
-0.0779396
-0.0928529
-0.0659142
0.0149297
-0.0698732
0.000118013
-0.0123129
-0.0746921
-0.0692432
-0.118296
-0.160032
-0.0581825
0.0111101
-0.0728464
0.00198137
-0.06588
-0.0776635
0.00384183
-0.0643015
-0.0771014
-0.0160485
-0.0655193
-0.06473
-0.0794772
-0.040415
-0.0799451
-0.0832426
0.00527718
-0.0459082
-0.0865766
0.00557615
0.00267689
-0.0861596
-0.0180994
-0.0636092
-0.0820993
-0.079621
-0.120491
-9.17016e-05
-0.00636604
0.00285736
-0.139197
0.0119749
-0.0346059
-0.0474613
-0.0733892
0.0124597
0.00797369
0.00605689
-0.075935
-0.0843763
-0.00366222
-0.0555628
-0.0301129
-0.0228318
0.0122863
-0.0786834
-0.0710261
-0.00773158
0.0022426
-0.0891126
-0.0780111
-0.0159641
-0.0685399
-0.00719605
-0.0306219
-0.0855966
0.0108348
-0.0735802
-0.0283053
-0.0698308
-0.0799297
-0.135297
-0.116499
-0.095439
-0.0741741
-0.00256075
-0.0797678
0.00676143
-0.000711901
-0.0126351
-0.0668882
0.00548819
-0.0883795
-0.16123
0.0116583
0.0122815
-0.054308
-0.138854
-0.0827129
-0.0911277
-0.0790175
-0.0924124
-0.00318747
-0.0790036
-0.150612
-0.0160822
-0.0602699
-0.0236232
-0.0252079
-0.0773582
-0.149695
-0.0989615
-0.0750703
-0.0768282
-0.0160064
-0.173424
0.00911578
-0.0871561
-0.0145236
-0.0923608
-0.0795837
0.00802626
-0.074297
-0.01011
0.00240582
-0.0134084
-0.16909
-0.0556094
-0.118023
-0.0772581
0.0138352
-0.0772716
-0.0274982
-0.025584
-0.0284302
-0.0770482
-0.0837447
-0.0184499
-0.0324608
-0.0787721
-0.0913022
-0.0638572
-0.00720646
-0.0705066
0.0143334
0.0101317
-0.0104011
0.0111131
-0.00503121
-0.00907449
-0.0176845
-0.122613
0.0122706
-0.0177355
-0.00746322
-0.0761944
-0.0598887
-0.0791313
0.000564178
-0.0651942
-0.0855831
-0.0859794
-0.00368627
-0.155797
-0.000961352
-0.157962
-0.0709934
-0.0743835
-0.0175641
0.00885931
-0.0796788
-0.0833002
-0.000263144
0.0124581
-0.0819151
-0.073977
-0.0642045
-0.0656354
-0.143994
0.0123001
-0.0941489
-0.0238507
-0.105874
-0.0211782
0.0113144
-0.0224058
-0.0577767
-0.123346
-0.0241741
-0.0597485
-0.118449
-0.0579357
-0.0695809
-0.0888485
-0.148231
-0.0746265
-0.018048
-0.0818475
-0.0828517
-0.0865762
0.00728001
-0.0620532
-0.0842959
-0.0574287
-0.12747
-0.00995941
-0.00890096
-0.0778208
-0.0958072
-0.0623316
-0.0812286
-0.0117923
0.0124846
-0.0314705
0.0106587
-0.114059
0.0164195
-0.0263052
-0.0644367
-0.0771453
-0.0785795
-0.0776179
-0.117546
-0.0767468
-0.0758353
-0.0978805
-0.0566715
-0.0818637
-0.0568195
-0.142519
0.0120866
-0.0597811
-0.00488672
-0.15139
-0.132845
-0.0233435
-0.0558168
-0.00620362
-0.0176307
-0.0193927
-0.0130964
-0.0592526
-0.0165893
-0.0800447
-0.0770806
0.00231818
-0.0811303
-0.0775158
-0.0553506
-0.130499
-0.144071
-0.0792152
-0.109172
-0.0756179
-0.165099
-0.0722549
-0.00346045
-0.165422
0.0141252
-0.08924
-0.0900703
-0.0545198
-0.132271
-0.0779618
-0.000509682
-0.0630465
0.0128599
-0.0766747
-0.0871092
-0.074434
-0.117723
-0.00768366
-0.0830424
-0.0378534
-0.0225897
-0.0728592
-0.203574
-0.0551162
0.00675903
-0.0114222
-0.0585118
0.0109454
-0.110362
-0.0597527
-0.0534664
-0.0792518
-0.00806429
-0.0895629
-0.0735271
-0.0200931
-0.0776922
-0.0984021
-0.137233
-0.0766095
-0.0746462
-0.0756331
-0.0106284
-0.054695
-0.0280438
-0.026062
-0.0553612
-0.0125317
-0.0800701
-0.0732233
-0.0752401
-0.0669719
-0.0635442
-0.0651975
-0.0453131
0.0135654
-0.0350333
0.00761305
-0.0588709
-0.0159131
0.00314531
-0.0597472
-0.109146
-0.0270923
-0.113902
-0.123055
-0.0570801
-0.143768
-0.122892
-0.0836259
-0.0277833
-0.154836
-0.0192181
-0.00904567
-0.0241143
-0.121989
0.0120651
-0.0159188
-0.00138544
-0.0872746
0.00782588
-0.0725934
-0.016589
-0.0533663
-0.0693775
-0.00472931
-0.0656693
0.00796023
-0.0351953
-0.0753914
-0.0110131
-0.0516844
0.00028639
-0.126898
-0.0783792
-0.00532726
-0.178789
-0.070261
-0.0765664
0.0129873
-0.0186336
-0.114907
-0.076572
-0.0793998
-0.0816382
-0.0788804
-0.0708999
-0.0131515
-0.0623042
-0.0917413
-0.0370924
-0.0675552
-0.0128151
-0.118687
-0.143027
-0.11943
-0.080228
-0.0861176
-0.205977
-0.000862101
0.00728994
-0.0285064
-0.0863116
-0.0678428
-0.0967734
-0.168829
-0.0816114
-0.0536132
-0.026946
-0.0706097
-0.145449
-0.0626338
-0.0593767
-0.0846975
0.0110824
-0.0896737
-0.179937
-0.0704394
-0.0964598
-0.111345
-0.0607553
0.0065756
-0.0892873
-0.0612398
-0.189385
-0.0674638
-0.100284
-0.068356
-0.0753634
-0.143869
-0.0418663
-0.0886709
-0.056457
-0.0292717
-0.0858902
-0.0610728
-0.188827
-0.0849629
-0.0706376
-0.0728151
-0.11494
-0.0681359
-0.0732778
-0.102709
0.0104588
-0.0678165
-0.00287953
-0.0485551
-0.0831583
-0.0111035
0.0120209
-0.0794424
-0.0159472
0.00452061
-0.0246248
0.0130132
-0.0826835
-0.0256436
-0.0858214
-0.186847
-0.0778863
-0.0248558
-0.0669568
-0.0191235
-0.0845136
-0.0110195
-0.104497
-0.0846572
-0.0731093
-0.0641733
-0.066153
-0.0877853
-0.0783857
-0.0267642
-0.0759852
-0.0932852
-0.0903496
-0.0189655
-0.0257266
-0.00668862
-0.0719371
-0.0965583
0.00917674
-0.024225
0.00691989
-0.0788218
-0.0185989
-0.0734353
-0.0610866
-0.0586427
-0.0819674
-0.0602115
-0.0489328
-0.00248893
-0.082117
-0.0197736
-0.0801451
-0.0390807
-0.0656049
-0.0471425
-0.0764671
-0.105873
-0.107606
-0.118885
-0.173702
-0.0711551
-0.0737692
-0.0698598
-0.0094304
-0.113523
-0.0527614
-0.00130704
-0.00911644
-0.0756091
-0.110855
-0.0137742
-0.075013
-0.18854
-0.0971024
-0.121304
-0.0703966
-0.0406868
-0.092892
-0.15597
-0.0435818
-0.0783735
-0.0942394
-0.0762133
0.0185087
-0.0653252
-0.00841744
-0.0699466
-0.0837139
-0.0568275
-0.0134856
-0.0499252
-0.0698314
0.0117527
-0.0841565
-0.00968927
-0.0643789
-0.0299546
-0.0696265
0.013019
-0.112465
-0.0120792
-0.00788904
-0.0483208
-0.0626884
-0.0717601
-0.0646616
0.0107868
-0.0249833
-0.0374041
0.0186926
-0.073797
-0.00817826
-0.0957391
-0.151103
-0.0965356
-0.00850131
-0.0123883
-0.118937
-0.111615
-0.0938736
-0.145414
-0.102193
-0.00349006
-0.0613874
-0.0792482
-0.0163545
-0.109105
-0.0761074
-0.083517
-0.0120571
-0.0801021
0.0194399
-0.11509
0.0169635
-0.113639
-0.0769614
-0.0155878
-0.0982804
-0.00907462
-0.146229
-0.0695977
-0.0554839
0.0135998
-0.0933089
-0.149428
-0.0537842
-0.190045
-0.0761015
-0.00669614
-0.118177
-0.00862792
-0.0904463
0.0150937
0.00358864
-0.0550883
-0.0929643
0.00927544
-0.0755425
-0.0719596
-0.0206258
0.0199237
0.018138
-0.0264792
-0.0220733
-0.0815338
-0.0892137
-0.0664892
-0.0798037
-0.0671387
0.012288
0.0137253
-0.0297639
-0.0875776
-0.0779643
-0.0280021
-0.0629865
-0.0729759
-0.0420481
-0.10336
-0.0815745
0.0124064
0.00759026
-0.0774698
0.0130131
0.00766991
-0.0749747
-0.0687496
0.0201147
0.0184668
-0.120875
-0.101639
-0.158005
-0.019409
0.00446635
-0.157072
-0.058366
-0.0104158
0.020247
-0.07992
-0.0741961
-0.104818
-0.0156311
-0.109048
-0.0564097
-0.1034
-0.10213
0.00872071
-0.0795761
-0.00408894
-0.13335
-0.0186179
0.0155241
-0.0771593
-0.0812465
-0.0555564
-0.0718308
0.00225042
-0.0340384
-0.0574662
-0.0751351
-0.0358052
-0.0838083
-0.176277
-0.0826473
0.00561732
-0.0929717
-0.088033
-0.111361
-0.103287
-0.0607309
-0.0797101
-0.00686838
-0.0781874
-0.085298
0.0020309
-0.0739416
-0.048014
0.0143196
0.00608544
-0.0195443
-0.0874978
-0.0026839
-0.00152646
-0.111504
-0.128388
-0.0052978
-0.0774099
-0.104959
-0.0858746
-0.0612992
-0.195922
-0.110478
-0.0227896
-0.0624421
-0.0882674
0.0171527
-0.0521132
-0.0232373
0.00653543
-0.00121105
-0.0684273
-0.106855
-0.0972273
-0.000475116
-0.0867371
-0.0274583
-0.0227902
0.0174151
-0.0925418
-0.195999
-0.0580637
-0.024275
-0.0713211
-0.0997991
-0.18817
-0.0676285
-0.0761395
-0.0902374
0.0202886
0.011614
-0.0594082
0.0194002
-0.0820567
-0.0172682
-0.0827442
-0.084808
-0.198411
-0.0991915
-0.00563412
0.00430017
-0.0624163
-0.0660728
-0.0720896
-0.0730539
-0.0894938
-0.118532
-0.125399
-0.0865343
-0.10711
-0.0955955
-0.108531
-0.0117219
-0.0471588
-0.0506133
-0.128971
-0.00668877
-0.00871335
-0.0274826
-0.083246
-0.0867189
-0.0600432
-0.0869383
-0.0843355
-0.016698
-0.0784024
-0.066532
-0.183456
0.0202481
-0.137792
-0.0752448
-0.190836
0.013354
-0.0748628
-0.0564467
-0.192429
0.0169259
-0.0818516
-0.0574244
-0.0201645
-0.0557736
-0.14458
-0.071456
-0.113642
-0.118658
-0.184667
-0.0225064
-0.100673
-0.0310858
-0.0839445
-0.0668918
-0.0817984
-0.0173149
-0.0268816
-0.0956065
-0.116158
0.0124696
-0.0934836
-0.085253
-0.0705008
0.01857
0.0111503
-0.0822611
-0.201176
-0.0130743
-0.0214787
0.0128746
-0.0792546
-0.00366339
-0.0212011
-0.0767351
-0.0588864
-0.108142
-0.0224823
-0.154697
-0.00864443
-0.180963
-0.133594
-0.0840714
-0.0619605
-0.138075
-0.0223185
0.0131703
-0.00176794
-0.00916324
-0.202679
-0.00714426
0.00431759
-0.107627
-0.104819
-0.0817708
-0.0758502
-0.193712
0.00974745
-0.0230739
0.00671655
-0.0788959
-0.0711763
-0.00662138
-0.0749681
-0.0420827
-0.0826321
-0.105116
-0.158882
0.00125776
-0.0993779
-0.0213323
-0.0103969
-0.165111
-0.161663
0.013051
-0.000577351
-0.0622211
-0.0599999
0.0108098
0.0171725
-0.0596897
-0.0765036
0.0163677
-0.0299748
-0.125817
-0.0125767
-0.0902163
0.0169797
-0.165797
-0.10442
0.0130353
-0.0943382
-0.0823954
-0.0784184
-0.0659411
-0.105001
-0.0781329
-0.0830375
-0.0790066
-0.0400332
-0.0343037
0.00789429
-0.0117765
-0.0800686
-0.0570637
-0.0958591
-0.0997085
-0.0169625
-0.0117008
-0.0151165
0.0102077
0.0106571
0.0160161
-0.0548688
-0.0241223
0.00220015
-0.047588
0.0150139
-0.00766222
0.0121592
0.0120764
-0.0759524
-0.0794382
-0.110497
-0.0809189
-0.0904628
-0.074976
-0.047009
-0.155992
-0.012055
-0.166541
0.0145941
-0.0724363
-0.0779727
-0.0586021
-0.0401682
-0.0145838
-0.00875165
-0.202176
-0.0794589
-0.0728374
-0.010977
-0.0299931
0.0158656
-0.0782625
-0.0907208
-0.0783205
-0.0378785
0.0146483
-0.0532629
-0.0460291
-0.0814482
-0.0843254
-0.0468117
0.0096588
-0.0145624
0.000788958
-0.0835591
-0.110598
-0.170793
-0.0811749
-0.147293
-0.079481
-0.0869864
-0.0873304
-0.0603825
-0.0742868
-0.152157
0.0011573
-0.0898026
-0.0787539
-0.107771
-0.158848
-0.0559366
0.00843995
-0.0776262
-0.0423104
-0.151078
-0.0835988
-0.126948
-0.0246569
-0.0677557
-0.10536
-0.0947533
-0.0152399
-0.105625
-0.0559092
0.00528674
0.0138501
0.00976752
-0.00353748
-0.0421918
-0.00642491
-0.0314015
-0.122558
-0.0511902
-0.0911093
-0.103856
-0.127383
-0.0119803
-0.062207
-0.0568946
-0.199345
-0.0641002
-0.06399
-0.0295238
-0.142485
-0.0814287
-0.0738055
0.000843844
-0.00825586
0.0136183
-0.144766
-0.0647227
-0.0780449
-0.00502464
-0.101011
-0.0830303
-0.0145254
-0.00495355
-0.0609874
-0.0849742
0.0123941
-0.022766
-0.0954842
-0.058214
0.0106667
-0.0841502
-0.0698438
-0.0994061
-0.0711425
-0.194132
-0.0651483
-0.015667
-0.0777512
-0.122499
-0.0582504
-0.0149368
-0.174254
-0.103755
-0.11819
-0.0630582
-0.0744843
-0.062499
-0.0124277
-0.0918016
0.0124122
-0.0310005
0.00601844
-0.078803
-0.0506404
-0.183339
-0.0893134
-0.0900049
-0.0854095
-0.00205674
-0.0589018
-0.0290444
-0.0722468
-0.181333
-0.0615143
0.00976521
-0.018265
-0.10595
-0.00264593
-0.0773192
0.00877053
-0.0912701
-0.0261581
-0.0803487
0.0120218
-0.0775477
-0.071799
-0.077134
-0.0717961
-0.198131
-0.104847
-1.2874e-05
-0.192285
-0.0869327
-0.0650699
-0.0620958
-0.0813545
-0.082146
-0.0848483
-0.00751024
-0.0717624
-0.0887754
-0.0696359
-0.094033
-0.127983
0.0125213
-0.084253
-0.000294773
-0.0891018
-0.0131424
-0.0247775
0.00192905
-0.0779114
-0.120504
-0.0971256
-0.0697063
-0.0889352
-0.00605615
-0.0451319
-0.0353307
-0.0365941
-0.0273955
-0.0490998
-0.0496262
-0.0518314
0.0100603
-0.102951
-0.0974462
0.010824
-0.0521264
-0.0646157
-0.104355
-0.0840535
0.00806153
0.00980113
-0.12235
-0.0782111
-0.0117894
0.0181705
-0.1745
-0.0732169
-0.00469528
-0.0201344
-0.0805369
-0.134906
-0.0632917
-0.0779906
-0.165803
-0.133646
-0.046447
-0.104009
-0.0946684
-0.00117789
-0.0808899
-0.0621006
0.00478224
-0.000825044
-0.14787
0.0121663
-0.0634919
-0.0827249
0.00770057
-0.0774544
-0.142554
-0.0132237
-0.112001
0.0140448
-0.0638814
-0.0607243
-0.0443548
-0.0687979
-0.108756
-0.0428473
-0.0435108
-0.0709071
-0.0301853
-0.102467
-0.175993
-0.095107
-0.0640134
-0.0446577
0.0113155
-0.0923931
-0.0097862
-0.00771842
-0.0536971
-0.0854041
0.0140822
-0.0450388
-0.0589541
-0.0180373
-0.0700543
-0.08845
-0.0796632
0.00255886
-0.119416
0.00913124
-0.0106549
-0.0563904
-0.0942506
0.00736366
0.0145212
-0.11427
0.011428
0.00633807
-0.040314
-0.0888256
0.0121702
-0.0840133
-0.10407
-0.00941781
-0.0824103
-0.0752086
0.0141164
-0.104535
-0.0856211
-0.169444
-0.0301369
-0.081144
-0.0434611
-0.161615
-0.12385
0.00766636
-0.0888289
-0.0409038
-0.0848723
0.0062818
-0.00698559
0.007771
0.0121866
0.0106453
0.00751724
-0.097968
-0.056397
-0.00573382
0.00752131
0.0130733
-0.128003
-0.065093
-0.207984
-0.0660219
-0.041469
-0.127998
-0.0176374
-0.0201481
-0.00650537
-0.0105505
-0.0262825
-0.0777142
-0.00757842
-0.0111215
-0.0816984
-0.0917914
-0.128792
-0.207307
-0.105043
-0.0209219
-0.107733
-0.130137
-0.0868931
-0.101987
-0.196996
-0.0953287
-0.0817417
0.0107631
-0.10878
-0.00372548
-0.0828293
-0.000570038
-0.0763066
-0.0135667
0.00372023
-0.0842454
-0.066093
-0.0971094
-0.0181695
-0.0742491
-0.0771902
-0.0781527
0.0131714
-0.0136364
-0.071143
-0.0723584
-0.0640729
-0.132198
-0.0728282
-0.00782016
-0.0898435
0.00652457
-0.00297769
-0.0775148
0.011329
-0.071914
-0.19505
0.00106237
0.00926673
-0.067058
-0.0626715
-0.102882
-0.068669
-0.0868702
-0.0495671
0.00856313
-0.061386
-0.0802474
-0.0146513
0.00865973
-0.101689
0.00853562
0.00147655
-0.0874346
-0.0190535
-0.15345
-0.0730602
-0.10722
-0.0264903
-0.075072
0.0133348
-0.00561825
-0.0142288
-0.0852724
0.00337517
0.00548105
0.00452103
-0.0630116
-0.0963741
0.00480351
-0.0802356
-0.099995
-0.0849069
-0.0035406
-0.0733878
-0.105522
-0.167151
-0.00350286
-0.0940722
-0.00771075
-0.0749412
-0.00281339
-0.0668098
-0.19026
-0.0966815
0.00737801
0.00926036
-0.0724575
-0.21202
-0.215843
-0.0148911
-0.169451
-0.00318058
-0.0150773
-0.0883471
-0.0681201
0.0133764
-0.0994592