/*--------------------------------*- C++ -*----------------------------------*\
  =========                 |
  \\      /  F ield         | OpenFOAM: The Open Source CFD Toolbox
   \\    /   O peration     | Website:  https://openfoam.org
    \\  /    A nd           | Version:  10
     \\/     M anipulation  |
\*---------------------------------------------------------------------------*/
FoamFile
{
    format      ascii;
    class       surfaceScalarField;
    location    "100";
    object      phi;
}
// * * * * * * * * * * * * * * * * * * * * * * * * * * * * * * * * * * * * * //

dimensions      [0 3 -1 0 0 0 0];

internalField   nonuniform List<scalar> 
38623
(
0.108795
-0.113834
0.0321598
-0.0271183
-0.0633659
0.0593454
0.0883522
-0.0843351
0.00714541
-0.00699692
0.0654152
-0.065592
-0.013368
0.00754054
0.0346151
-0.0287851
0.00827442
0.120955
-0.0327157
-0.0965153
-0.161859
-0.280731
0.264015
0.178572
0.0668778
-0.0544704
0.0394783
-0.0518859
0.0108175
-0.0134838
0.00985155
-0.00718071
0.0461472
-0.0104849
-0.240901
0.0122674
-3.11401e-06
-0.115344
0.103087
0.0685903
0.0831772
-0.0929864
-0.0587762
-0.290421
0.259482
-0.00553704
0.0364755
0.301604
-0.0878189
-0.299522
0.0857468
-0.244011
0.222717
-0.0360948
0.0573896
0.0158654
0.0520996
-0.0531157
-0.0148442
-0.0233423
-0.0803903
0.0243906
0.0793524
-0.0506383
0.217346
0.0388727
-0.205574
-0.00541444
0.103323
-0.00459997
-0.0932963
0.0225095
-0.0362645
0.193667
-0.179906
0.357881
-0.297348
0.2681
-0.328645
0.0635358
0.0560278
-0.00769122
-0.111887
0.0807448
0.0573
-0.0694507
0.126806
-0.111901
0.0049447
-0.0198539
-0.249624
0.257674
-0.230809
0.222756
-0.0152622
0.0977098
0.018399
-0.100847
-0.149021
0.556789
-0.505125
0.0973456
0.00162837
-0.087586
-0.0168303
0.102791
0.178575
-0.157706
-0.490096
0.46922
0.00835083
0.00113694
-0.00147142
-0.0080115
-0.289273
0.250424
0.396723
0.0216752
0.0338374
-0.0239921
-0.0315244
0.000101399
-0.000117582
0.000219727
-0.000208165
0.0637365
-0.041813
-0.0568157
0.0348908
0.117769
-0.0153847
-0.107787
-0.00855712
-0.024693
-0.309302
0.342551
-0.381079
-0.173301
0.125728
0.428646
0.000139346
3.40287e-05
0.000337089
-0.000518117
0.00880186
-0.30778
-0.191247
0.215224
-0.000672602
-0.0233051
-0.00677202
0.0139075
0.327087
-0.334228
0.0368507
0.173535
-0.175875
-0.0345092
0.151658
0.118343
-0.141643
-0.128345
0.218281
-0.0832098
0.176782
-0.311847
-0.262882
0.0895786
0.22012
-0.0468154
0.486196
0.27651
-0.499769
-0.262943
-0.0695812
0.0888527
-0.278931
0.259669
0.101403
-0.0853082
-0.0528886
0.0367916
-0.0795236
0.0364146
0.0554956
-0.0123823
-3.73735e-05
3.38209e-05
0.000473709
-0.000465014
-0.00277634
0.00111044
0.00306117
-0.00137602
0.00124837
0.000885464
-0.0016499
-0.000476775
-0.024411
0.0521945
-0.0557948
0.0280012
-0.00024391
0.000186074
-0.000353616
0.000406108
-0.401139
-0.0769786
0.316332
0.161771
-4.74012e-05
0.000133056
1.47237e-05
-0.0577515
-0.21607
0.223188
0.0637501
-0.0581539
-0.0596366
0.054029
-0.00025199
0.0090255
-0.00844444
-0.000321013
-0.0790445
0.078374
0.0641953
0.084539
-0.0114649
-0.019978
-0.0530976
0.01791
-0.00305684
0.00311774
-0.0179533
-0.206494
-0.0343492
-0.022039
-0.0991427
0.0953993
-0.0104085
0.0141644
0.00924166
0.0201683
-0.023401
-0.00598396
-0.275492
-0.271466
0.29733
-0.369398
0.280096
-0.123174
0.21248
-0.0861565
0.0703181
-0.0242862
0.0401286
-0.417317
0.407137
0.213527
-0.203352
0.164984
0.495
-0.173785
-0.154909
-0.0399915
0.0351134
0.159787
-0.013706
0.00583399
0.0125211
-0.00465056
0.0492846
-0.00728909
-0.0348585
0.042214
-0.1076
-0.434557
0.499954
0.0562964
-0.0544111
0.0139863
0.331427
-0.295471
-0.311453
0.0182077
-0.0597593
0.0624692
-0.0209157
0.0279296
-0.240474
0.234415
-0.0218709
0.150808
0.234852
-0.241411
-0.144249
0.0134185
-0.00201522
0.00158211
-0.0129798
-0.0032205
0.00389254
0.155374
-0.156035
-0.0478444
0.0910929
-0.0862769
0.0430257
0.00785535
-0.0303429
-0.0712911
0.0937769
0.0723759
-0.0719951
0.017458
-0.0152723
0.00436413
-0.0065445
-0.0533959
0.0688228
-0.0405529
0.0251123
-0.305551
0.320896
-0.040039
-0.0319458
0.0739463
-0.0710592
0.029048
-0.000360908
7.38471e-06
0.000102478
0.000248693
-0.260329
-0.136195
0.162896
0.233626
0.166474
-0.165738
-0.00394869
0.00270493
-0.000231148
-0.00252733
5.61794e-05
-0.162541
0.0182306
0.158934
-0.0146146
-0.00503401
0.0116561
0.00263285
-0.366596
-0.206197
0.210622
0.362172
0.00269974
0.00323064
-0.00460502
-0.00131917
0.004612
4.87574e-05
-0.000132037
-0.00452699
0.273288
-0.0921608
-0.213346
0.0322215
0.00864328
-0.0142232
-0.0739365
-0.258439
-0.0650541
0.0982785
0.225215
-0.00204225
0.112883
-0.102566
0.164735
0.0473294
-0.0657364
-0.146318
-0.0334584
-0.0509207
-0.00177315
-0.0212445
-0.00110766
-0.119065
0.141406
-0.00200956
-0.000211721
0.00166824
0.000557263
0.000859681
-0.0127193
0.0116832
0.000181462
0.00454833
-0.00777552
0.0206907
0.291652
-0.144081
-0.309434
0.267714
0.340221
-0.0745423
0.0712168
-0.0301277
0.236397
-0.20789
-0.0497452
0.0212448
-0.0425074
0.0862574
0.040438
-0.0841808
-0.35556
0.101828
0.262533
0.0455649
-0.0615677
-0.03739
0.013714
0.0961578
-0.0142512
-0.0956318
-0.128348
-0.360351
0.10762
-0.11478
-0.0106636
0.0157812
0.109655
-0.0971005
0.236341
-0.488822
0.349577
-0.0135465
-0.0885995
0.0162046
0.0859546
0.000353042
5.30992e-05
0.00794133
-0.00236962
0.0274757
0.00252328
-0.0276081
-0.153237
0.0322686
0.271777
-1.24276e-05
-0.000912822
2.4224e-05
0.000901464
-0.035252
-0.166209
0.0294383
0.172025
0.0390118
-0.0442605
0.0271295
-0.0219011
-0.0450759
0.0567917
-0.0626354
-0.184335
-0.591795
0.488364
0.287758
0.0165188
-0.00077761
0.00217349
-0.00309023
-0.000728056
0.00106351
0.0294792
-0.030132
-0.0299442
0.0305861
-0.0918741
-0.0239465
0.11872
-0.0029004
-0.0071155
0.0488842
0.00503819
-0.0467985
-0.0129118
0.120591
-0.115243
0.00756243
0.139273
-0.0144581
-0.00104529
-0.123773
-0.235722
0.225069
0.0832715
-0.0726172
0.174416
0.0449141
-0.0956076
-0.123713
-0.0380587
0.132348
-0.115533
-0.000174855
0.00231339
-0.002318
0.000160137
0.0530756
0.234336
0.0410302
-0.0583442
-0.0972098
0.114538
-0.145837
0.189442
-0.00397703
0.00390206
0.000426179
0.112667
-0.122061
-0.151895
0.161297
-0.202256
-0.28293
0.291044
0.194138
0.0185317
0.185166
-0.0417484
-0.161947
0.101004
-0.0150344
0.00544655
-0.091416
0.331203
-0.0981344
0.00332853
0.0937446
-0.00501252
-0.0957934
0.00706029
-0.0846766
0.02058
-0.000793976
0.0648745
0.0329561
-0.0345273
-0.00303198
0.00460683
0.00506607
-0.141552
0.152563
-0.0160694
0.0621909
0.0210047
-0.0597852
-0.0234012
0.247949
-0.155733
-0.322877
0.230648
0.075809
-0.0784742
-0.0523905
0.05505
-0.098804
0.336659
0.160114
-0.397969
0.026861
-0.0577328
0.052576
-0.0217098
0.00302471
-0.00789558
0.104856
-0.0999832
-0.00657461
0.123846
-0.118393
-0.33232
0.186437
0.289955
-0.144074
-0.0171513
0.0511763
-0.0318316
-0.00218759
-0.00189904
-0.00785025
0.007185
0.00256599
0.0127284
0.145921
-0.142417
-0.0162255
0.0785583
0.00520256
-0.0214466
-0.0623194
-0.00236612
0.00376631
0.000512594
-0.00190669
-0.195824
0.193167
0.278607
0.0373856
-0.24049
-0.0755079
-0.00782543
0.141423
-0.128537
-0.221359
0.221253
-0.094033
0.0941399
0.00153385
0.00055005
-0.0019979
-7.94492e-05
-0.235749
0.362203
0.225977
-0.352442
0.177774
0.087356
-0.152465
-0.194494
0.00128612
0.214167
-0.0209619
-0.0348663
-0.0178261
0.0393336
-0.259229
-0.267198
0.254957
0.024659
0.0331112
-0.0187636
0.272512
-0.515284
0.247005
-0.00423957
0.00816747
-0.000245587
-0.00508518
-0.00282828
0.111697
-0.00731883
-0.10817
0.00379846
-0.00963042
0.0981541
0.0135798
-0.102096
-0.270289
0.0254143
0.256097
-0.0112234
-0.250071
0.214454
-0.158362
0.193976
-0.0553727
0.13059
0.00937384
-0.0846015
-0.104794
0.085935
-0.0365223
0.0640772
0.0114826
-0.0573512
-0.0347753
-0.0814915
0.034389
0.0818824
0.00826771
0.000530536
-0.101445
0.092651
0.233522
-0.2226
-0.0686706
-0.143921
0.0256147
0.00760276
-0.00682728
-0.0160446
0.00620253
0.00139849
-0.0048081
-0.00278959
0.161279
-0.131677
0.00238826
-0.00585981
-0.0151426
0.0186405
-0.401054
0.0319897
0.0760084
0.293052
-0.319003
0.379203
-0.0669741
-0.339618
0.110843
-0.162359
0.391131
0.00218182
-0.102301
-0.00338303
0.103506
0.197733
-0.232824
-0.274775
0.309861
0.000705635
2.38746e-05
0.00366146
-0.00439349
0.000950403
-0.00797467
0.00941935
8.97896e-05
-0.000967402
-0.000710454
0.00155945
0.0816247
-0.0412692
-0.0828564
0.123018
-0.0196975
-0.11115
-0.205634
-0.346789
0.226238
0.32618
0.0324396
-0.00339378
0.00391817
-0.0337081
-0.127781
0.0116292
0.149863
-0.0178568
0.0105542
0.0181273
-0.00342388
0.00473861
-0.00367576
-0.0576506
0.00581418
0.0491213
0.00269399
-0.0909961
-0.233932
0.109394
0.215535
0.103579
-0.00102208
-0.036566
-0.0659951
-0.0320437
0.102955
0.0186631
-0.0895471
0.139059
-0.00322649
-0.13192
0.00266092
0.000409689
-0.00292341
0.0940161
-0.0890112
0.00327429
-0.387357
0.209382
-0.0577881
-2.91023e-05
0.000124645
-0.000335031
-7.95662e-05
5.53769e-05
-0.000793791
0.000815922
0.153977
-0.0592782
-0.128403
-0.0116032
-0.176359
0.00057101
0.000445922
-0.000678713
-0.00033071
-0.049115
-0.00406688
0.0406998
0.0124852
0.110941
-0.0973692
-0.356583
0.343012
-0.0190769
0.0156177
0.00359007
0.00106483
-0.000177537
-0.00446672
0.106447
-0.00293156
-0.10049
-0.037439
0.207813
0.0352986
0.0204321
-0.0064146
-0.0493182
0.00055312
0.000993447
-0.000421103
-0.311426
0.108101
-0.286611
0.0486617
0.0246546
0.213291
0.184714
0.0340446
-0.178809
-0.0399443
-0.225387
0.266433
-0.335177
0.294128
-0.000355041
-4.2648e-05
-0.00360964
-0.0817705
-0.270181
-0.537784
0.578733
-0.189967
0.149312
-0.0196911
-0.00867042
-0.0140424
-0.00104636
0.00779986
0.00728344
-0.200494
-0.354207
-0.0370906
0.0138825
-0.00836052
0.0315695
-0.0485763
-0.421193
0.507358
-0.037594
0.0333357
0.0189968
-0.0392033
-0.0131225
-0.000435283
0.000100336
0.000367934
-0.0977441
0.00192091
-0.00169152
0.0975159
0.00310649
0.0168351
-0.0153903
-0.0207478
0.0585759
0.111479
7.68138e-05
0.00141233
0.00895024
-0.104711
-0.00335362
-0.121963
0.275877
0.137737
0.0967171
-0.428816
-0.167673
0.00604666
-0.00272421
0.000449836
0.0823615
-0.00603935
0.00223988
0.0460667
0.330904
-0.294995
-0.0819738
0.109249
-0.273741
0.384384
-0.219896
0.00102045
0.000989908
1.52418e-05
-0.00202168
-0.309921
0.317659
-0.0925029
0.0847673
0.0769549
-0.0244223
-0.0473303
-0.00221423
0.00361213
-0.00131592
-0.00339517
0.0334557
-0.00302045
-0.00073531
0.00432793
-0.000567033
-0.102251
-0.352644
0.0994092
0.355482
-0.259835
-0.240187
0.000146518
0.000331162
-0.0686597
0.0972764
-0.368004
0.339386
0.00207143
0.0146351
-0.000186199
-0.0323242
0.0838096
-0.0112381
0.104018
-0.10068
-0.0217597
-0.349682
0.385347
0.00665788
0.00693349
-0.00541697
0.0476187
-0.0166399
0.0107841
-0.0417743
0.0749908
-0.00586183
-0.03015
-0.0389808
-0.00893806
-0.0206079
0.232154
-0.318213
-0.155353
-0.0180842
-0.0297891
0.0130178
-0.000464811
0.000158909
0.000229993
7.90074e-05
0.0608335
-0.179898
0.327914
-0.20885
0.064077
-0.105124
-0.246131
-0.0120391
0.000599314
-0.00458898
0.00481739
-0.000825253
0.0984828
-0.110866
-0.299047
-0.00753725
0.00170944
-0.000832693
0.00664251
0.103078
-0.123055
0.0340861
-0.0141132
-0.0203485
0.0303962
-0.0178179
0.0565574
-0.0236182
-0.319555
-0.00124528
0.00104552
0.0014512
-0.00785802
-0.0960298
0.00967794
0.0942094
0.304781
0.0545849
-0.299822
-0.0595457
-0.0296685
-0.00108996
0.00115819
0.0296102
-0.0396351
0.0438076
0.0231323
-0.0273062
0.135958
-0.31032
0.471265
-0.296897
-0.00448365
0.00553523
-0.00447107
-0.0643815
0.0311815
0.0600639
-0.00370618
0.00951031
0.000252491
-0.000372205
-0.00031341
-0.00533135
0.0208755
0.00463604
-0.000987079
0.00272377
-0.00475225
0.00668589
-0.00466897
-0.0207312
-0.290659
-0.00409597
0.00573289
-0.0309268
0.0293124
-0.367295
0.321695
0.0252516
-0.0239607
-0.306844
-0.00698128
0.000137917
0.00676946
7.31993e-05
0.0416734
-0.0195099
-0.0475195
0.0253655
-0.0276658
-0.0540628
0.0339944
0.0477282
-0.0138486
-0.000136458
0.0337399
-0.0239236
0.0161654
-0.0259694
-0.0891629
-0.430358
0.0277902
0.0198347
-0.0216792
0.000416957
-0.00213058
0.000393454
0.183354
0.0442457
-0.0628602
0.000712052
0.00271475
-8.03072e-05
-0.000114129
0.0541915
0.0651702
-0.0435622
-0.197537
0.0589329
-0.0621267
0.200732
0.184337
-0.227505
-0.151328
-0.0606382
0.00890432
0.0530376
-0.00130499
-0.00367595
0.000835562
-0.0291668
-0.00582504
0.100464
-0.0947078
-0.052235
0.0464863
0.00171938
-0.00338016
-0.0808925
0.05123
0.341438
-0.311773
0.00142566
0.0136343
-0.0139675
0.000823366
-0.000157509
0.0356405
0.00186282
-0.034653
-0.00282449
-0.320329
-0.281866
0.214821
0.0363159
-0.0183387
-0.274794
-0.00207823
0.262484
0.0143847
-0.0140671
-0.0106133
0.0151544
0.00953579
0.0180135
-0.0267456
-0.0831391
-0.0380255
0.00227289
0.00331706
0.0324281
0.0879517
-0.0334526
-0.0865311
-0.0987808
-0.0128176
0.0398388
0.0717367
0.0111117
-0.0650009
-0.0622658
0.116148
0.00310901
0.000199321
-0.341757
-0.0280211
0.301116
-0.0209366
-0.0311911
0.0140976
-0.0129275
0.0391835
0.0359761
0.00604526
0.006625
-0.048645
-0.0565215
-0.115498
0.0129378
0.1591
-0.150453
0.240657
0.0692541
-0.159473
0.00637073
-0.00892488
0.00921689
-0.0243478
-0.0382477
0.0447797
-0.00297516
-0.0480669
0.0446341
0.530429
-0.536816
-0.177949
0.375931
-0.502462
0.277544
-0.151014
0.00787189
0.00427509
-0.00135244
-0.0108051
-0.135783
-0.213047
0.247997
0.100832
-0.000207376
0.00572409
-0.0448682
0.0525018
-0.0252394
0.0184477
0.0427653
0.0210812
-0.0169685
0.0419163
-0.0460159
-0.00249322
0.000865404
0.00257908
-0.00123438
0.00269525
0.000233742
-0.000372801
0.000238495
0.00479145
0.259041
0.115364
-0.131049
0.206806
0.159549
-0.235312
0.269023
-0.558444
0.32058
-0.0311612
-0.0680566
0.028945
0.0149489
-0.0120916
0.0328346
0.179712
-0.358876
0.222043
-0.0428809
-0.001886
-0.00211379
0.107005
0.0015606
-0.0974578
-0.00334645
0.00173921
0.00781303
-0.238485
0.0929339
-0.0872499
0.232801
0.0387947
-0.0445365
0.00800154
-0.287434
0.21255
-0.291713
-8.58603e-05
-0.0699282
0.453038
0.173682
0.101279
-0.134825
-0.00249023
0.0270501
-0.000140248
-0.000805829
-0.0260825
-0.0583218
-0.189489
0.218238
0.0295719
-0.460433
1.30027e-05
0.00261449
0.0171109
-0.0389453
-0.038806
-0.0205972
0.0470047
0.187346
-0.140623
0.0384317
-0.0151714
-0.00486833
-0.0183827
0.0666925
-0.0614886
0.0311149
-0.0306458
-0.351743
0.0143838
0.0850415
-0.157813
0.103099
-0.0303378
0.390821
0.141631
-0.156532
0.176378
-0.183737
0.180745
-0.247311
0.278281
0.235463
-0.00370257
-0.00723531
0.101876
0.0276369
-0.0288842
-0.100619
0.00437825
0.00735098
0.0245795
0.0911211
-0.0746651
-0.00391863
0.184672
0.00343642
-0.0242592
-0.0140957
0.00207878
-0.000292903
-0.00669087
0.00416634
-0.000345341
0.00287259
-0.0127061
0.0990543
-0.097594
-0.477683
-0.17168
0.0536196
0.00589191
-0.378294
0.0604828
-0.045535
-0.0433644
-0.0322063
0.0566452
0.018919
-0.00269237
-0.00462122
0.0028345
-0.0381207
0.0430648
-0.0292866
0.00167138
0.0721671
-0.0964501
0.0226057
-0.0230246
0.0662075
0.0208914
-0.19982
-0.107057
0.171629
0.135248
-0.00696143
0.0354547
0.000746989
0.0113695
-0.000154782
0.000959242
0.0266717
-0.0550771
0.7051
-0.196299
0.0753527
-0.0217711
-0.0420983
-0.0124186
-0.0366701
0.0281452
0.0759972
0.0724901
-0.0220797
-0.126428
-0.0557477
-0.0279471
0.0592787
-0.00104471
0.0767947
-0.000753927
0.0810681
0.0303555
-0.0770305
-0.263235
-0.069861
0.102652
0.230441
-0.00057596
0.0901113
-0.000276681
-0.0892573
0.010608
-0.00354164
0.0420606
-0.049131
0.27875
-0.146144
0.13375
-0.266353
-0.243919
-0.0415018
0.117858
0.167561
-0.00941857
0.00802738
-0.0213343
0.0197514
0.00365778
-0.111812
0.092107
-0.0231723
0.0284269
0.0480715
-0.0533184
0.0351384
0.00673498
-0.0202027
-0.0400965
0.0251149
-0.037164
0.0241911
-0.157583
-0.228059
0.176279
-0.154257
0.00938076
-0.0314091
0.0076348
0.0354926
-0.0135741
-0.0295422
-0.048287
0.0793506
-0.0875741
-0.268186
0.291565
-0.101709
0.0783355
-0.397639
-0.126116
0.386317
0.137442
-0.155233
0.224526
-0.127615
-0.0703417
0.0610443
0.242827
-0.00181484
-0.0134979
0.0212886
-0.00546554
0.027988
0.0624602
-0.0230117
-0.00220156
0.0530361
-0.0402328
0.00790601
0.00645267
-3.20918e-05
-0.0467449
-0.021194
0.0129664
-0.0275136
-0.4107
-0.200157
0.290518
-0.024014
0.0778537
0.00642713
-0.0602691
-0.38575
-0.0797418
-0.0178973
-0.00571151
0.00322899
-0.0391761
0.378131
-0.437762
-0.0190107
0.040441
-0.0446025
0.218963
-0.0799776
-0.27477
-0.057723
0.345507
0.0446997
-0.015033
0.0715037
0.0147017
-0.0305209
-0.110171
-0.0046618
0.00665198
-0.237427
-0.369343
0.0356478
0.0802575
-0.041474
-0.0744374
-0.0205448
-0.0123104
-0.000920346
0.000494154
-0.00153476
0.0019944
-0.0331816
-0.083253
0.0861132
0.0303307
-0.381802
0.0238576
0.0360381
0.321904
-0.0830306
0.236263
-0.297482
0.311945
-0.344554
0.000311128
-0.536621
0.171219
-0.171416
0.0137583
-0.0650433
-0.216398
-0.140549
0.0275022
0.329436
-0.0943512
0.229246
-0.22589
-0.0298237
0.0332883
-0.035675
-0.0222604
0.0244712
-0.00419163
-0.0261139
-0.0146539
0.124199
-0.116127
0.363516
-0.468628
-0.174312
0.279435
0.00130951
0.0951996
-0.412346
0.495716
0.00405682
-0.142286
0.152682
-0.0144537
0.067162
-0.0614368
0.0537901
-0.0595189
-0.0952192
-0.0104837
0.0816922
0.0239938
-0.0105299
0.0143268
-0.122603
0.00684255
0.120839
-0.00507036
0.0842025
-0.0340936
0.0276892
-0.0777831
-0.0690617
0.0234416
0.0661955
-0.249067
-0.150918
0.0238254
-0.336491
0.0538397
0.258825
0.038522
0.0435785
-0.0286426
-0.0534739
-0.037018
0.0393804
-0.00576162
0.0365126
0.358803
0.0262706
0.0476862
-0.0495983
-0.0243449
0.0041956
-0.00378941
0.00464678
0.0962359
-0.02303
-0.0201614
-0.00901115
0.0113177
-0.0612409
0.0983013
0.0373283
-0.0743877
-0.165425
-0.394419
0.162218
0.0217204
-0.0529335
0.049057
-0.0178513
0.36922
-0.212069
0.169849
0.261182
0.0573673
0.0719398
-0.0735025
-0.0558102
0.000240514
0.00351534
0.000254863
-0.00401355
0.0376276
-0.0396448
-0.00100664
-0.0608576
0.0667772
-0.0178571
0.0128939
-0.00911347
0.0140838
0.0179002
-0.00244699
0.00138652
0.028018
0.0794027
-0.0255369
-0.253989
-0.0817874
0.0702203
0.265561
-0.491539
0.0463978
-0.00278337
0.029497
0.0230315
-0.0326911
-0.0319106
0.0394199
0.000122518
-1.66907e-05
0.000592621
-0.000701095
0.0236679
0.371781
-0.647533
0.276842
-0.165924
-0.0649821
-0.0312871
0.0338486
0.034296
-0.00440914
0.0228312
-0.0187289
0.0483976
-0.0819993
-0.236895
-0.000779027
0.319662
0.000138151
-0.000306416
8.68637e-05
0.274554
0.166428
-0.345781
-0.0326463
0.0201155
-0.0274475
-0.00219404
-0.553573
0.0667803
-0.160738
0.0752821
-0.00331458
-0.0548291
-0.017132
0.0119196
0.0589958
0.00673909
0.0234763
-0.00805428
0.130975
-0.0378864
-0.00483903
-0.00146836
-0.000390561
-0.00364298
0.0115818
0.032843
0.0526108
-0.0570259
-0.00470409
-0.158731
0.065551
0.0978925
0.105083
0.0118049
-0.0998092
-0.0170665
-0.194193
0.193401
0.0435625
-0.0427614
-0.0800884
-0.244244
-0.10218
-0.351589
0.216339
0.0307475
-0.0729765
0.0942529
-0.0520278
0.0178325
0.00165365
0.0103726
-0.335564
0.095987
0.0180891
-0.011005
-0.0141783
-0.0168307
-0.106106
-0.00873814
0.106987
0.109471
-0.0144333
0.0226588
-0.130634
-0.0146243
0.390263
-0.0947986
-0.0771821
-0.326664
0.198766
-0.296734
0.186554
0.235514
-0.125327
-0.0637356
0.154361
0.246038
0.0346036
-0.0066001
-0.0392314
0.011219
-0.263793
-0.102201
0.393704
-0.0277121
0.00690347
0.0025692
-0.012271
0.00280306
0.0445283
-0.0804249
-0.0399469
0.0758456
-0.196249
0.131349
0.271691
-0.00187538
-0.0407371
-0.321046
-0.00251219
-0.39155
0.0602674
0.333787
-0.00306545
-0.00156626
0.0190488
0.00162729
-0.0126412
0.0782137
-0.0343358
-0.0770632
-0.341702
-0.161277
0.0922813
0.18275
-0.0240954
0.00246148
-0.00159271
-0.0149657
-0.0090282
0.00180717
-0.469153
-0.00555388
-0.0100068
0.0122269
0.0804252
-0.302688
-0.0876576
-0.431615
0.396485
-0.130284
0.107726
0.0582074
-0.0705953
-0.210208
0.198246
0.0274497
-0.0972728
-0.0303443
0.100159
0.0211325
0.0947956
0.0398508
0.00475173
-0.00581115
-0.0493418
-0.0114371
0.0438199
0.00504988
-0.00146394
0.103071
-0.0743679
0.0689095
-0.40469
0.453774
-0.117991
0.0165225
-0.104645
0.00370682
-0.00516756
0.0160406
0.0546376
-0.033248
-0.114273
0.206614
0.067204
0.105155
0.388803
-0.376765
-0.117193
0.423182
-0.393448
-0.00133174
0.00278421
-0.265243
0.234346
-0.102277
0.114426
0.0129306
-0.025074
0.00898976
0.0120339
0.0411739
-0.00725794
0.146953
-0.0137592
-0.125936
0.0288361
0.0802504
0.00731147
-6.78646e-06
-0.00743457
0.0276632
-0.175618
-0.436463
0.0792968
-0.145286
-0.118104
0.0570932
0.113813
-0.00746559
-0.00301252
-0.0655167
0.227028
-0.228774
0.0672627
-0.0625668
0.0285276
-0.267261
0.149973
-0.124793
0.0255193
-0.0699858
0.169249
-0.0312352
0.0293874
-0.0347278
0.1083
-0.0146777
-0.108872
0.00265751
0.0245361
-0.0462618
0.040755
0.0380449
0.00198895
0.107475
-0.00461107
-0.0683082
-0.0293049
0.0367562
-0.0163388
-0.024455
0.116782
0.0551182
-0.0633618
0.0738643
-0.0656273
0.133516
-0.128748
-0.000312591
-0.0386465
0.00573498
0.05275
-0.0339523
0.0648131
-0.0836307
-0.0829875
0.0991981
0.0427553
-0.0589544
0.114719
-0.320298
0.334842
-0.311893
0.181227
-0.394808
0.0850627
-0.133926
0.012777
-0.00758552
-0.00708988
-0.0763678
-0.0866601
-0.00973949
0.0691377
0.0272607
0.138943
-0.0825683
-0.0890961
0.0712924
-0.0388623
0.0380054
-0.0704251
0.170211
-0.17115
0.0417005
-0.0407594
0.142902
-0.0552091
0.0783214
-0.166013
0.219249
-0.217612
0.0650544
-0.0666952
0.12109
-0.0969911
0.00335088
0.307928
-0.0758965
-0.228129
-0.0572534
0.331452
0.0869823
-0.0140985
-0.0682418
-0.20122
-0.368934
0.340896
0.22925
-0.0176797
-0.0583942
-0.0786188
0.109282
0.00980336
-0.0933669
-0.373569
0.0831661
-0.114286
0.0882298
-0.0283824
-0.0725605
-0.0364009
0.111744
-0.0992948
0.0324779
0.0978966
-0.0284949
-0.367814
0.0684812
-0.0826048
0.290747
-0.276619
0.0988675
-0.0281308
-0.0272373
0.0193241
-0.118955
0.126882
-0.0111222
0.121962
-0.118102
-0.0948035
0.324651
0.0185284
0.109008
-0.0192389
0.0238972
-0.0538727
-0.358042
0.353361
-0.123667
-0.303488
0.107275
0.30546
-0.0785223
0.108619
-0.113082
-0.00362257
0.0218696
0.020219
0.0367933
0.0544877
-0.0584382
-0.0257161
0.00912676
-0.0153172
0.0965813
0.0196645
0.00058232
0.033826
-0.00616054
0.00830475
0.111693
-0.113828
-0.146241
0.0764256
0.102296
0.180437
0.0173874
-0.0275741
-0.170242
0.148466
-0.00364591
-0.00575459
-0.00718188
0.154122
-0.0332625
0.0257471
-0.146596
0.00431076
0.570986
-0.121513
0.220248
0.0680894
-0.0690911
0.0335223
-0.00664309
0.0845904
0.0218392
0.0526345
-0.0411884
0.0246779
-0.0180344
-0.113912
0.10727
0.0915209
0.0255944
0.00398126
0.104252
-0.0947086
0.0270159
-0.0365691
0.104238
-0.0549328
0.0954361
-0.124782
0.0666209
-0.0372775
0.0769635
0.0648068
-0.0375188
0.124341
-0.0192827
0.0553995
-0.160458
0.0705702
-0.0348758
0.0356043
0.100809
-0.0681833
0.0665738
0.0887574
0.0235242
-0.00803872
0.169684
0.0138949
-0.0212983
-0.162277
0.0776653
-0.0473549
0.047746
-0.0780555
0.0838956
-0.0905706
-0.0225462
0.0292213
0.202591
-0.341604
-0.097886
0.0690764
-0.022618
0.0322687
-0.0787194
0.172236
0.0343694
-0.0369232
0.115761
-0.12115
-0.00928507
0.0537288
0.239134
-0.231684
-0.0611647
0.120242
-0.126858
-0.00888989
0.0155188
-0.0880674
0.173242
-0.112401
0.0188041
0.109537
0.119968
-0.109857
0.0578324
-0.0679405
0.151504
-0.127642
0.137418
0.039746
-0.0369375
0.0926239
0.0161309
0.1021
-0.104713
-0.0135091
-0.0101107
0.109919
-0.105543
0.00574025
0.104546
-0.050868
-0.0986937
0.0450137
0.0884473
0.0513453
-0.0154568
0.0716247
-0.0335237
0.0824307
-0.0820453
0.100426
0.0341967
0.0845211
-0.0481481
0.075702
-0.0393015
0.0761326
-0.0178748
0.0256317
0.0828119
0.0178312
-0.0118828
0.0379432
-0.0171512
0.00834096
-0.017207
0.137327
-0.128447
0.143396
-0.020796
0.0136904
-0.136276
0.101869
0.00369254
0.0146878
0.141673
-0.0525365
0.0537646
0.156634
-0.091874
-0.0664632
0.0623409
-0.20079
0.204911
0.232457
-0.21945
-0.0468807
0.0338938
-0.049004
0.0731417
0.275138
-0.445379
0.126228
0.167873
-0.142599
0.221101
0.0488002
-0.0525482
0.139772
0.0667719
-0.0648692
-0.342544
-0.163745
0.196852
-0.0214403
0.0246053
0.07624
-0.0981613
-0.171813
0.0980061
0.171979
0.113849
-0.113296
0.0155829
0.11533
-0.118593
0.0818191
-0.0783099
0.0307001
-0.024152
0.20088
-0.207159
0.0304353
0.254964
0.0180986
-0.0405981
-0.129668
-0.328993
0.106017
0.0507374
-0.142847
0.0926363
0.00530574
0.0981161
-0.00750539
-0.0959123
0.120448
-0.170994
-0.0279753
0.0411353
0.273264
-0.0892745
0.0318024
0.0863085
-0.0584544
0.218456
-0.211318
0.051324
-0.00436674
0.126529
-0.318316
-0.17917
0.0765266
-0.268261
-0.0817704
0.273494
0.0486124
-0.0619058
-0.116505
0.129801
-0.0631554
0.114629
0.124796
0.00144344
0.150272
0.0175263
0.196548
-0.258138
-0.261996
0.42095
-0.162611
-0.348256
0.0899157
0.234916
0.313317
-0.239014
-0.063397
-0.0109052
0.00441486
-0.00461578
0.0179724
0.0063946
0.176289
-0.238662
0.0932132
-0.0527789
0.12586
-0.0806323
0.268083
0.31866
0.10759
-0.303789
-0.122459
-0.275459
0.279994
-0.324839
-0.0318243
-0.0739593
0.313935
-0.112122
0.124182
-0.162183
-0.0224302
0.0553812
0.0507378
-0.0532608
0.0761707
-0.0702664
0.0488729
-0.0280974
-0.123631
0.108253
0.0639837
-0.140397
0.0545242
0.12649
-0.0406112
-0.106683
0.160572
0.0285361
-0.195827
0.0641282
-0.0273812
-0.0323812
0.0969069
0.0236956
-0.00149778
0.116182
0.0559365
0.0391182
-0.0105347
-0.016235
0.0107452
-0.113705
0.119194
-0.0737057
0.0262047
-0.0778663
0.0836452
-0.0784937
0.0691792
0.111189
-0.223519
0.124916
0.145704
-0.0471057
-0.0876654
0.0524778
-0.103314
0.0674633
-0.0495104
-0.0387348
0.0201208
0.0174602
-0.0137745
0.0791251
-0.332059
0.328458
0.0552835
-0.0516796
0.0503951
0.0978415
-0.0150287
0.0984764
-0.0989551
0.0155121
-0.0604274
0.15627
-0.159004
0.134985
-0.0308854
-0.0530618
0.0173031
0.00113644
0.000451266
-0.000595918
-0.413141
-0.0418434
-0.0781884
0.0204156
0.0752345
-0.253691
0.243788
0.111771
-0.101875
0.0594256
-0.276843
0.290018
-0.0725965
-0.0561282
0.206947
0.14054
-0.268376
-0.0818759
0.10214
-0.0916424
0.133251
0.159706
-0.105051
-0.182294
0.147773
-0.0215768
-0.179058
0.170153
-0.0596749
0.0391201
-0.209912
-0.146909
0.232786
0.124032
0.10669
-0.0783405
-0.0389203
0.0105647
-0.0303667
0.0108518
-0.0901127
0.109636
0.344448
0.242725
-0.369208
-0.217972
-0.0847891
0.109854
0.0895714
0.149152
-0.102556
0.0317292
-0.183794
0.100113
-0.0815445
-0.0465847
0.0214404
-0.119661
-0.0146618
0.047657
-0.105036
-0.0148148
0.104099
0.0157591
-0.0968672
0.0729248
0.100365
-0.296832
-0.0584707
0.078375
0.0105203
0.0418231
-0.0478121
0.260952
-0.297246
0.0230155
0.193528
0.080699
-0.0207019
0.00516217
-0.103525
0.0837413
-0.0862675
-0.0702314
0.0616606
-0.0947458
-0.00209962
0.140891
-0.0197331
-0.119056
0.210166
0.135984
-0.221236
-0.0525149
-0.0361792
0.0820801
0.00661449
0.0163273
0.00906016
-0.0136604
0.193709
-0.0442466
0.113789
9.39571e-05
0.345968
-0.336489
-0.104277
-0.266121
0.276081
-0.09175
0.0938255
-0.00257899
0.00278287
-0.219701
-0.0643767
-0.238274
0.239668
0.0819842
-0.0833777
0.3703
-0.397414
0.157209
-0.130114
0.171019
0.0426003
-0.0434066
-0.369501
0.396458
0.0888462
-0.115798
0.306842
0.0495697
-0.0778047
0.360394
0.10602
-0.356829
-0.10957
-0.429461
0.510027
0.0415139
-0.122079
-0.374394
0.121909
0.3902
-0.137725
0.24112
0.080767
-0.244269
-0.07762
-0.0376062
0.0693042
0.22203
-0.0710874
-0.247052
0.25637
0.0784236
-0.0877452
0.00672838
0.0804335
0.0043593
-0.0270788
0.136757
-0.142644
0.145114
-0.0941162
0.00996918
-0.0136271
0.0145398
0.126746
-0.125866
0.106857
-0.168796
0.241644
0.250675
-0.128167
0.197152
0.0094524
0.124745
-0.10952
0.00220804
-0.00215051
0.109869
-0.106359
-0.0249458
0.0272029
0.0998432
0.00631358
0.156044
-0.148791
0.172825
0.0336486
-0.0576804
0.214895
0.0274625
-0.04865
0.120774
-0.00235599
-0.00462676
-0.117279
0.106869
0.0193889
0.0678803
-0.0143652
-0.216653
0.269656
-0.251675
0.238491
-0.0763553
-0.00299964
-0.00881424
-0.125283
0.137102
0.0587929
-0.0676298
0.227075
0.0675279
0.034177
-0.270252
-0.0883576
-0.00139256
-0.00177016
0.0915338
0.152818
-0.241355
0.0354168
-0.106039
-0.0109234
0.214451
-0.22035
-0.227848
0.233742
-0.147777
-0.0822608
0.0462433
-0.096551
0.103546
-0.00677508
-0.000211273
-0.143706
0.164077
-0.0233632
-0.0923934
0.0918232
-0.00131829
-0.0901863
0.00299869
-0.124732
0.131064
0.0101451
-0.0164752
0.0949079
-0.0990254
0.00809349
-0.00398111
-0.287334
0.231295
0.115776
-0.059739
-0.17866
0.191664
0.035763
-0.0487622
-0.335065
0.00180006
0.415567
-0.0822883
0.2737
0.158174
-0.345205
-0.0866735
0.303345
-0.279882
0.073021
-0.0964799
0.338628
-0.321272
0.0843024
-0.101652
0.0549281
-0.190122
-0.02221
0.0141888
0.208903
0.167287
0.200072
-0.221657
0.0725895
0.0347522
-0.0235947
0.320118
-0.164065
0.110887
-0.0796571
0.0176485
-0.0969758
0.0581135
0.108358
-0.111944
-0.121512
0.0100543
-0.013272
-0.0024996
0.00721633
-0.0198598
0.0998016
0.262751
-0.0888595
-0.00409445
0.00137441
0.347478
0.0957836
-0.104628
-0.0886045
-0.00363628
0.00205705
0.0388245
-0.0464631
-0.0988173
-0.104248
0.0106827
-0.00546527
-0.227124
-0.00240478
-0.0578045
0.0518817
-0.0801022
-0.0838626
-0.340502
0.17914
-0.135001
0.0779903
0.0201991
-0.0659804
-0.00673325
-0.158092
0.104821
-0.0591033
0.0102312
0.0835431
-0.324206
0.109394
-0.0906475
0.200079
0.177373
-0.0817968
0.00229349
0.0270394
-0.036285
-0.144104
0.134823
-0.294209
-0.0873444
0.0162722
0.128313
0.116043
0.245986
0.145223
0.00166523
-0.159591
0.0240006
-0.144152
-0.0224871
0.0443429
-0.0413372
0.0552281
-0.058234
-0.00171767
-0.0123835
-0.161169
0.147259
-0.405711
0.080658
0.0772243
-0.0109075
0.105694
0.0671878
-0.0341628
0.301285
0.103381
-0.112482
0.274551
-0.0632639
0.0109004
-0.222182
0.0834441
-0.0805983
0.170318
-0.245471
0.065154
-0.193246
-0.0196809
0.0332946
0.101687
0.232057
-0.239265
0.143189
-0.0109994
-0.114904
-0.025831
0.138959
-0.129359
-0.126151
0.127879
0.0128062
-0.213793
0.00579432
0.0325855
-0.0752845
0.0152251
0.108692
-0.0491064
-0.029074
0.181097
-0.173315
0.0361309
-0.0156483
0.0521121
0.0117986
-0.00904537
0.0305579
-0.035386
0.0927738
0.0193057
0.0819617
-0.0439647
-0.168433
-0.0425115
0.114076
-0.00531292
0.105117
-0.117838
0.0262775
-0.0392268
0.0206963
0.0946914
0.263507
-0.176244
-0.238626
0.151361