/*--------------------------------*- C++ -*----------------------------------*\
  =========                 |
  \\      /  F ield         | OpenFOAM: The Open Source CFD Toolbox
   \\    /   O peration     | Website:  https://openfoam.org
    \\  /    A nd           | Version:  10
     \\/     M anipulation  |
\*---------------------------------------------------------------------------*/
FoamFile
{
    format      ascii;
    class       volVectorField;
    location    "100";
    object      U;
}
// * * * * * * * * * * * * * * * * * * * * * * * * * * * * * * * * * * * * * //

dimensions      [0 1 -1 0 0 0 0];

internalField   nonuniform List<vector> 
23845
(
(0.363664 -0.0195782 1.15488e-20)
(0.344264 0.0198852 -3.1854e-21)
(0.399051 -0.161937 6.48044e-21)
(0.199754 -0.0618496 1.61953e-22)
(0.36477 -0.00226133 2.00557e-21)
(0.927689 -0.0653833 1.23225e-21)
(0.571986 -0.155512 -6.93554e-21)
(0.0896421 -0.102966 -7.69201e-23)
(0.938604 -0.134705 -7.55213e-23)
(0.300494 -0.0388454 -1.09424e-20)
(0.294036 0.0038053 -3.7976e-20)
(0.996954 0.0102069 -7.83655e-23)
(0.597195 0.114992 1.23259e-22)
(0.946078 -0.113151 -6.26103e-24)
(0.566313 0.198292 -9.74586e-21)
(0.234916 -0.0823625 -3.54269e-21)
(0.463959 0.09432 2.02423e-22)
(0.229908 -0.00709169 1.30752e-21)
(0.429454 -0.0607673 -2.48548e-21)
(0.746868 0.0765736 1.40379e-21)
(0.341529 0.00281556 1.69335e-20)
(0.296195 -0.00139705 -7.37746e-20)
(0.426784 -0.0353802 -2.57294e-21)
(0.906748 -0.138623 -3.81296e-23)
(0.277909 -0.0664374 -3.243e-21)
(0.901118 0.194042 3.04629e-22)
(0.444217 0.0710546 5.35794e-21)
(0.795076 -0.0562095 -8.31083e-22)
(0.0448645 0.113454 4.91817e-21)
(0.76235 0.088812 -4.4168e-22)
(0.226124 0.0419275 7.04688e-21)
(-0.00365132 0.00151925 1.99034e-22)
(0.587628 -0.271076 4.37298e-21)
(0.254782 -0.0171974 -3.79734e-21)
(0.98551 0.0242473 2.64683e-22)
(0.820085 0.0505604 -2.52826e-21)
(0.00140101 -0.00719182 -3.93296e-21)
(0.985733 0.0109263 1.15307e-22)
(0.999063 -0.030467 -5.59583e-23)
(0.930238 0.177152 -2.38688e-23)
(0.405062 -0.0386654 1.09719e-21)
(0.430312 -0.032248 -2.02416e-23)
(0.585511 -0.0868015 8.07837e-22)
(0.417978 0.0675459 7.09585e-22)
(0.904422 -0.168838 1.89569e-21)
(0.583441 0.106834 2.88529e-22)
(0.382886 -0.0253453 -4.72677e-22)
(0.257237 0.0293047 -2.38931e-20)
(-0.00633935 -0.00312855 6.29186e-22)
(0.00767432 0.0574335 2.67672e-21)
(0.00652397 0.0195228 3.4606e-22)
(0.357004 -0.120742 -7.62567e-22)
(-0.00472951 -0.00722081 -1.623e-21)
(0.86106 -0.0872937 6.41315e-23)
(-0.00293736 0.000840576 3.97572e-21)
(0.493134 0.102674 -4.55308e-22)
(0.339915 0.0320346 9.86399e-21)
(0.0600352 0.0606446 6.66671e-21)
(0.338763 0.00338463 -3.00258e-20)
(0.309253 0.0569623 -3.58454e-21)
(0.120873 -0.179957 1.47267e-21)
(0.414178 0.0718399 -2.69729e-22)
(0.241295 -0.0757747 -5.57401e-21)
(0.141296 0.210569 2.37647e-21)
(0.898415 -0.146929 7.23632e-22)
(0.617876 0.112397 2.25881e-21)
(0.502559 0.091148 5.53669e-21)
(0.939828 0.217955 3.59455e-22)
(0.914835 -0.175613 -8.24226e-22)
(0.379729 -0.0376902 7.91986e-22)
(0.0967422 -0.125411 1.07722e-22)
(0.363677 -0.163628 3.37916e-21)
(0.803534 0.156139 -2.22972e-22)
(0.563657 0.178302 5.76765e-21)
(0.891954 -0.154492 -1.28851e-21)
(0.521104 0.180212 6.14627e-23)
(1.00672 -0.00132828 -2.80734e-23)
(0.98117 -0.0301646 4.65645e-22)
(0.110808 0.0559247 1.06529e-21)
(0.360906 0.0558485 2.46927e-21)
(0.405531 0.0427213 -1.23412e-21)
(0.501372 -0.143965 -1.52717e-20)
(0.343354 0.0260991 -1.126e-21)
(0.124458 0.1148 -1.16997e-22)
(0.389576 0.187964 -1.70688e-21)
(0.984223 0.0382668 6.52794e-22)
(0.401868 0.103081 5.10286e-21)
(-0.0052061 -0.00574331 7.05308e-21)
(0.916792 -0.148355 1.65576e-22)
(0.398218 0.0642486 -3.53702e-21)
(0.0149222 0.0345839 -5.65025e-21)
(0.371366 -0.00239215 -2.39763e-21)
(0.0801155 0.160546 8.6889e-21)
(0.829259 -0.0180982 7.95054e-22)
(0.0420173 0.0372003 9.93403e-22)
(0.0314782 0.0589183 -1.51523e-20)
(0.461512 -0.0605874 5.21564e-22)
(0.26343 0.0272589 -1.73933e-21)
(0.918956 -0.157585 1.42707e-23)
(0.37589 -0.00868074 -4.20985e-21)
(0.401782 -0.056734 2.58934e-21)
(0.518094 0.101636 1.99636e-21)
(0.372186 -0.0221626 1.37816e-20)
(-0.0161838 -0.0311486 -1.74898e-20)
(0.0952204 0.130621 -2.68245e-20)
(0.135163 0.108876 1.4732e-21)
(0.91502 -0.0789706 -8.02125e-22)
(0.902502 -0.160908 8.43885e-23)
(0.529618 0.088249 -1.00211e-21)
(0.449816 0.0726848 2.17404e-22)
(0.265975 0.0116344 -1.73463e-20)
(0.984436 -0.0022988 2.14636e-22)
(0.432168 0.182736 4.65867e-21)
(0.298469 0.0148174 -6.85385e-21)
(0.799282 0.0553193 5.97646e-22)
(0.353345 -0.0088226 -3.29979e-21)
(0.848068 -0.138842 -5.93345e-22)
(0.260172 -0.0659505 -1.42622e-20)
(0.0457552 0.105645 3.22905e-21)
(0.212551 -0.220418 -6.64265e-21)
(0.990893 -0.0203141 2.74922e-22)
(0.00469453 0.0145772 -8.14397e-22)
(0.41738 0.0487311 7.44131e-22)
(0.298996 -0.187274 7.28007e-21)
(0.528846 0.114149 -1.91512e-21)
(0.875945 0.181464 1.33098e-22)
(0.120415 -0.16783 1.17015e-21)
(0.00765691 0.0532984 -1.03602e-20)
(0.374668 -0.200249 1.92953e-22)
(0.373443 -0.0337876 4.46653e-21)
(0.45992 -0.288533 7.22579e-21)
(0.332703 -0.0482706 1.25945e-21)
(0.346488 -0.0128019 7.88511e-22)
(0.960859 -0.09568 -1.60625e-23)
(0.335947 -0.0387212 3.07137e-21)
(0.363851 -0.0180341 4.3667e-21)
(-0.0299428 0.0338561 3.20441e-20)
(1.00795 0.00885012 5.86466e-23)
(0.529514 -0.0985271 -2.50511e-23)
(0.988256 -0.0365349 -1.84498e-23)
(0.0199532 0.06144 -8.80434e-21)
(0.449967 -0.02842 -2.11097e-22)
(0.975493 0.0767353 -9.69967e-24)
(0.377051 0.0625033 1.45409e-22)
(0.264077 0.0293579 -1.54961e-20)
(0.457072 0.0665262 -2.42341e-22)
(0.322505 0.00542659 -1.73245e-22)
(0.413647 0.15866 1.20905e-20)
(0.303465 -0.268303 -6.22354e-21)
(0.334399 0.0101359 2.72001e-21)
(0.525055 0.232622 -5.99545e-21)
(0.718585 0.130479 -8.14503e-22)
(0.401687 -0.0888798 4.75324e-21)
(0.714576 -0.087739 5.07135e-22)
(0.461593 -0.19551 -1.83605e-21)
(0.243636 -0.0503305 -1.16171e-20)
(0.382118 -0.0251187 -4.25424e-21)
(0.916491 -0.00919955 2.36284e-21)
(0.509971 -0.30183 7.20207e-22)
(0.0451384 0.0843431 1.51626e-21)
(0.346434 -0.000128378 2.75145e-21)
(0.560617 -0.200198 -9.01673e-22)
(0.0259499 -0.0117237 -3.82615e-22)
(0.911827 -0.144626 2.18898e-22)
(0.563502 -0.0940906 -5.94637e-23)
(0.297492 0.000615183 3.28353e-21)
(0.978903 -0.0767678 1.17311e-22)
(0.0100833 -0.0266677 -2.69794e-21)
(0.763884 -0.0513012 -4.52189e-22)
(0.451342 -0.0174394 1.22864e-21)
(0.981184 0.137769 -8.10623e-23)
(0.217995 -0.0851228 1.11048e-21)
(0.892795 -0.138832 1.45746e-21)
(0.266247 -0.170367 -1.52847e-21)
(0.900892 0.183746 1.57841e-21)
(0.0612227 0.00704704 -1.56278e-21)
(0.314422 -0.0419075 2.66299e-21)
(0.252735 -0.0703192 1.12292e-20)
(0.913291 -0.162627 5.86561e-23)
(0.937344 -0.0133671 -7.64053e-22)
(0.392888 -0.0257123 3.12149e-21)
(0.391716 -0.0235437 4.12236e-22)
(0.522818 0.158729 4.77449e-21)
(0.255998 0.0104229 -9.76897e-21)
(0.253431 0.033585 -1.55941e-20)
(0.522521 0.109824 1.2979e-22)
(0.446732 0.0769857 -7.43935e-23)
(0.124801 0.125411 7.81002e-22)
(0.0360635 -0.101553 1.46166e-21)
(0.453587 -0.039805 2.72022e-22)
(0.125527 -0.186308 2.47122e-20)
(0.917508 -0.113396 2.13517e-22)
(0.935164 0.166385 -2.29502e-22)
(0.940281 0.141549 -5.19724e-22)
(0.294045 -0.0422842 -5.01574e-21)
(0.897748 -0.122146 3.2734e-22)
(0.0373069 0.0460892 -2.29273e-21)
(0.0629532 -0.119282 1.87038e-21)
(-0.00394079 -0.0130608 -1.2789e-20)
(0.261601 0.0169408 -6.49031e-22)
(0.265229 -0.00710447 -2.75621e-21)
(0.851313 -0.107958 -1.0286e-21)
(0.279035 -0.249105 -2.86337e-21)
(0.349213 -0.0482641 2.96168e-21)
(0.115143 -0.110958 3.66554e-21)
(0.0326414 -0.0286707 3.05876e-22)
(0.355929 0.164523 -8.34058e-21)
(0.97176 -0.0588998 1.82373e-24)
(0.389895 -0.0419095 -6.71785e-21)
(0.26022 0.0296445 3.07216e-21)
(0.324336 0.0472682 -1.63823e-21)
(0.0168033 -0.0397257 5.13081e-21)
(0.268891 0.0333074 8.03023e-22)
(0.754184 -0.0636113 -5.6516e-23)
(-0.00247808 0.00250662 1.12337e-21)
(0.0025999 0.00442113 -3.0987e-21)
(0.366328 -0.0433003 -8.39186e-21)
(0.406495 0.0740717 -1.43545e-22)
(-0.0155535 -0.00624087 1.06088e-20)
(0.434446 -0.250561 2.30402e-23)
(0.706677 -0.107513 -6.24896e-22)
(0.542674 0.179357 -2.79707e-21)
(0.0451433 -0.0483617 -2.20599e-20)
(0.256077 -0.0470052 -9.9479e-21)
(0.42415 0.0605618 -1.12877e-22)
(0.546002 -0.235152 9.09843e-21)
(-0.0179951 0.0015041 -5.77752e-21)
(0.907231 -0.110995 -8.66178e-22)
(0.94307 0.118325 -2.82572e-22)
(0.444283 0.0480566 3.8455e-21)
(0.89929 -0.0345255 4.08339e-22)
(-0.0056548 -0.00243812 -4.06645e-21)
(0.972383 -0.00320464 -2.11121e-22)
(0.915408 0.20429 6.84612e-23)
(0.367553 -0.00808776 4.66652e-21)
(0.073401 0.128618 -5.22779e-21)
(0.885532 -0.145837 5.33879e-22)
(0.208812 -0.0335606 2.00151e-21)
(0.849326 0.163778 -1.78417e-22)
(0.220409 0.109429 4.36686e-21)
(-0.00629946 -0.00136042 3.81463e-21)
(0.306189 0.0122224 1.45661e-20)
(0.109402 0.0940194 -3.6616e-21)
(0.372574 -0.0145579 -9.57647e-21)
(0.00612404 -0.0227083 1.48476e-21)
(0.235701 -0.0791681 -8.96112e-22)
(0.926046 -0.0852875 1.36045e-21)
(0.902701 -0.171027 -7.50079e-22)
(0.044506 -0.0133387 7.87344e-22)
(0.538003 -0.190846 2.1545e-21)
(0.573613 -0.0655039 -5.42914e-22)
(0.935268 0.0514304 2.98154e-22)
(0.00700601 -0.0261454 -1.95767e-21)
(0.616175 0.122067 9.06308e-24)
(0.568593 -0.180145 -3.7321e-21)
(0.0189606 -0.0426789 9.39287e-22)
(0.259282 -0.228593 1.57761e-20)
(0.0240178 -0.0460162 3.37686e-22)
(0.782618 -0.0161762 -3.44696e-22)
(0.886012 -0.130787 -1.26511e-21)
(-0.00484188 -0.00441373 -8.79227e-21)
(0.896833 0.000650207 1.04168e-21)
(0.117998 -0.156155 -1.40503e-21)
(0.251983 0.0169156 2.35457e-20)
(0.240333 -0.0490661 -1.24112e-22)
(0.926511 0.186983 2.62647e-22)
(0.0803098 0.0136614 -1.03817e-21)
(0.334645 -0.21416 -3.09585e-22)
(0.297462 -0.0467055 1.25119e-21)
(0.187339 -0.0335322 -3.54146e-21)
(0.971985 -0.02305 6.09631e-22)
(0.194988 -0.0893541 -6.80582e-22)
(-0.00195758 0.00373155 -2.14122e-22)
(0.925024 0.157622 5.39644e-22)
(0.270597 0.00405953 -9.72247e-21)
(0.924782 0.167057 -7.64871e-23)
(0.0283395 0.0529784 2.92613e-21)
(0.897844 -0.105635 5.74177e-22)
(0.0875597 0.0574425 3.38706e-21)
(0.402429 0.0194981 1.32659e-20)
(0.159134 0.123966 4.62054e-21)
(0.929013 0.119122 4.23249e-22)
(0.0126835 0.0242435 4.29248e-21)
(0.259453 0.0235151 6.34428e-22)
(0.959187 0.0237256 2.47092e-22)
(0.18722 0.231133 -6.12257e-21)
(0.263996 -0.149482 -7.88837e-22)
(0.82826 -0.108763 9.29811e-22)
(0.0458473 -0.0478442 -1.22699e-22)
(0.480317 -0.179761 3.36743e-21)
(0.0655703 -0.0147227 8.48646e-22)
(-0.00432916 -0.00716625 -4.80928e-21)
(0.138176 0.212396 1.62622e-20)
(0.0293071 -0.0540792 -2.25947e-21)
(0.0520703 -0.0329353 1.20339e-22)
(0.974006 0.0108641 7.33016e-23)
(0.270801 -0.272863 9.6751e-21)
(0.903711 -0.0926901 -1.16765e-22)
(0.969941 0.0385079 2.19458e-23)
(0.0436655 0.0863985 -3.53227e-21)
(0.524658 -0.306217 1.35934e-20)
(0.527611 -0.219618 5.48479e-21)
(0.0790568 0.14805 1.03499e-20)
(0.186454 0.00488091 1.84083e-20)
(0.923838 0.147135 4.87919e-22)
(0.209267 -0.00836867 -1.08487e-20)
(0.151779 0.203543 -1.02645e-20)
(0.00124941 0.00995081 -1.36905e-21)
(0.415683 -0.0592852 6.75491e-24)
(0.0272944 -0.0418929 4.83896e-21)
(-0.00380495 -0.00139161 -5.57855e-21)
(0.384995 -0.0818011 9.04064e-21)
(0.468277 -0.0719052 2.55936e-22)
(0.975268 0.137174 -2.171e-22)
(0.289503 0.113196 5.68718e-21)
(0.0161291 0.0647559 8.42768e-21)
(0.206924 0.245527 8.89369e-22)
(0.350402 -0.0491464 -4.04422e-20)
(0.0227075 -0.0464852 2.57807e-21)
(0.668328 -0.100903 -3.2268e-22)
(0.142822 -0.140827 8.05817e-21)
(0.0141098 -0.0336539 -3.97631e-21)
(0.362933 -0.293644 -1.18038e-20)
(0.737168 -0.0568211 -4.71349e-22)
(0.511881 -0.184403 -4.71307e-21)
(0.980603 0.110217 2.41092e-22)
(0.132176 0.0230874 -5.18148e-21)
(0.364289 -0.0368284 3.71214e-21)
(0.227943 0.214273 -3.69124e-22)
(0.232104 0.0206263 -1.69444e-20)
(0.415084 -0.140995 1.39503e-20)
(0.256239 0.0151841 5.40361e-21)
(0.0126156 0.0320363 4.2803e-21)
(0.896434 0.0170388 -9.29848e-22)
(0.235125 0.226521 -1.53449e-21)
(0.221999 -0.05958 -4.97301e-22)
(0.247439 0.0968542 -2.32821e-21)
(0.254713 0.0324464 5.39044e-21)
(0.491487 0.0668065 1.30266e-22)
(0.100349 0.0258808 3.194e-21)
(0.241655 -0.104573 -2.21502e-22)
(0.331765 -0.28333 -6.9698e-21)
(0.281066 0.00521573 5.24335e-20)
(0.893176 0.192662 -5.9339e-23)
(0.863929 -0.154096 -3.64705e-22)
(0.0911035 -0.0497003 -4.34337e-21)
(0.910791 0.0362031 1.1162e-21)
(0.0297009 0.055478 2.62131e-21)
(0.121351 0.0403253 2.44419e-21)
(0.518375 -0.2401 -1.41189e-21)
(0.248055 0.082208 3.3193e-21)
(0.418492 0.280091 -2.5118e-21)
(0.00773547 -0.0449733 1.86398e-20)
(0.014848 0.03373 -4.5926e-21)
(-0.00630904 0.00106561 9.51537e-21)
(0.944866 0.166108 -2.89492e-22)
(0.473573 -0.0115753 -6.35291e-22)
(0.832712 0.161887 -5.27411e-23)
(0.445182 0.162067 -2.20898e-21)
(0.0832423 0.0761264 1.28036e-21)
(0.336913 -0.198595 -2.35305e-21)
(0.931067 0.197195 1.20681e-22)
(0.313943 0.00909253 -1.33412e-20)
(0.286318 0.00718148 -8.8942e-21)
(0.0386184 -0.109169 7.32299e-21)
(0.962519 -0.0841395 -1.1752e-24)
(0.270012 0.215015 -7.76978e-22)
(0.811758 -0.0284302 -2.02547e-25)
(0.0459282 0.0945079 3.33296e-21)
(0.911322 0.198453 -3.43658e-22)
(0.4277 -0.0210377 1.59671e-22)
(0.0170051 0.0368713 8.33259e-21)
(0.284862 -0.22214 -1.08342e-20)
(1.00438 0.041711 -1.64836e-23)
(0.895872 -0.0181658 -3.21743e-21)
(0.0157112 -0.0395396 -1.57822e-21)
(0.285331 0.126541 -3.72531e-21)
(0.240113 -0.0807925 -7.53841e-22)
(0.471996 -0.0257808 -4.55235e-22)
(0.209042 -0.118062 1.56408e-21)
(0.519673 -0.165803 -5.04972e-21)
(0.878654 -0.00243454 -1.63539e-22)
(0.403082 -0.0285348 1.27722e-20)
(0.878012 -0.160044 1.83116e-22)
(0.905046 0.198433 -1.20176e-22)
(0.984737 -0.0135449 1.30764e-22)
(0.90783 -0.0471607 3.92738e-21)
(0.0940063 0.0417083 -1.99625e-21)
(0.241767 -0.00566221 -5.21842e-21)
(0.0608332 0.0459601 -4.80972e-21)
(0.520786 -0.114295 -1.42616e-21)
(0.467711 0.0614227 5.5443e-23)
(0.19348 0.209879 2.33676e-20)
(0.122779 0.133976 7.05072e-21)
(-0.00480762 -0.00507162 4.09291e-21)
(0.0389493 -0.0729687 3.23816e-21)
(0.242568 -0.0439013 -1.49745e-20)
(0.892001 -0.161313 -3.94681e-22)
(0.364762 -0.0306151 -2.68563e-21)
(0.878315 0.0151842 -5.8613e-22)
(0.26679 0.1021 -3.25824e-21)
(0.272079 0.0198118 1.15804e-20)
(0.0321319 -0.0443728 1.17901e-22)
(0.266242 -0.120773 -1.35779e-21)
(0.324316 0.0564275 5.02139e-21)
(0.502098 0.158219 4.5408e-21)
(0.987366 -0.0536417 -5.37e-23)
(0.260226 -0.22941 1.325e-20)
(0.0729074 0.133113 1.07984e-21)
(0.199015 -0.201639 -6.36802e-21)
(0.552678 -0.216369 -4.59698e-21)
(0.925891 0.210421 4.51314e-22)
(0.52449 0.138468 4.30977e-21)
(0.285028 0.239666 3.68296e-21)
(0.351692 -0.00909876 -1.40295e-20)
(0.334183 -0.127037 -3.02192e-21)
(0.312293 -0.0419665 4.52513e-21)
(0.258088 0.00386572 -6.318e-21)
(0.976834 0.0975401 -6.92729e-22)
(0.313503 -0.0241535 2.93678e-21)
(0.513683 0.277565 3.61444e-21)
(0.614295 0.0628805 1.00786e-21)
(0.929569 -0.130221 3.22448e-22)
(0.111692 0.0080138 1.53645e-21)
(0.149517 -0.17211 2.64546e-21)
(0.343327 0.0128818 4.12764e-20)
(0.532588 -0.297199 -2.68564e-21)
(0.246377 0.0478828 3.23037e-21)
(0.291581 -0.162745 2.08765e-21)
(0.321109 -0.176361 -4.87614e-21)
(0.890093 -0.115891 3.12872e-22)
(0.300502 0.0486853 -4.51161e-22)
(0.293306 0.269261 -1.16431e-20)
(0.229377 0.0219062 -1.15079e-20)
(0.641438 0.0984319 2.69269e-21)
(0.81154 -0.13086 -5.85305e-22)
(1.00177 0.0322648 2.96278e-25)
(0.531285 0.110905 -8.76508e-22)
(0.0802631 0.159165 2.65762e-21)
(0.274433 -0.140918 7.97313e-22)
(0.496854 0.180084 1.98604e-23)
(0.423531 0.247955 -8.11598e-21)
(0.10102 -0.120974 -1.94683e-20)
(0.377801 -0.214551 -1.28951e-21)
(0.256717 0.034985 -1.77057e-21)
(0.222597 0.251396 -4.07799e-21)
(0.719704 -0.0460356 9.95184e-22)
(0.316595 -0.00174438 -6.56487e-21)
(0.965052 0.0922441 5.37291e-22)
(0.219972 -0.10994 -1.34168e-21)
(0.0927139 -0.00157752 9.99798e-22)
(0.726039 -0.101097 2.72356e-22)
(0.423526 -0.247866 -7.34608e-21)
(0.902015 0.0462795 2.01899e-21)
(0.928542 0.211118 -1.09926e-21)
(0.280075 0.26196 -4.86436e-22)
(0.3169 0.0471725 1.12874e-21)
(0.351781 -0.0447083 4.57135e-21)
(0.0392783 -0.0608718 5.38393e-21)
(0.846219 -0.0930098 1.12296e-21)
(0.405995 -0.0555977 -3.20271e-21)
(0.168688 -0.0129098 -1.20204e-20)
(-0.026854 -0.0156055 1.87842e-20)
(0.356782 -0.0488138 -1.83556e-21)
(0.913455 0.0898841 -6.16771e-22)
(0.967558 -0.0431949 4.853e-22)
(0.926401 0.132922 -5.70467e-22)
(-0.00450735 -0.000382094 1.50078e-21)
(0.880816 0.186265 8.14784e-23)
(0.530271 -0.256594 -1.58911e-21)
(0.783945 0.0933484 -3.19474e-23)
(0.963988 -0.0707252 -1.93863e-22)
(0.256186 0.00822745 -9.06174e-22)
(0.158682 -0.188179 3.27785e-21)
(0.215719 -0.245174 -1.56274e-20)
(0.390109 -0.0257862 4.88082e-21)
(0.761066 -0.110704 -4.80245e-22)
(0.00298751 -0.0188251 -2.90505e-21)
(0.801285 -0.0735979 6.14211e-22)
(0.391139 0.0483087 1.40715e-21)
(0.352491 -0.00420298 -7.25945e-23)
(0.318878 -0.0188527 -5.5666e-21)
(0.232726 -0.0170257 -2.00655e-21)
(0.304856 -0.0449604 -2.22369e-20)
(0.225774 -0.0148338 -4.75326e-21)
(0.431728 0.138931 -3.37589e-21)
(0.964165 -0.0166842 -1.23656e-21)
(0.989668 0.0559705 3.17044e-22)
(0.350335 0.128783 -7.40796e-22)
(0.305783 -0.231914 -2.99066e-21)
(0.919665 0.201428 1.70382e-22)
(0.4717 0.287744 8.87157e-21)
(0.0311641 -0.0597505 3.10165e-21)
(0.334711 -0.0061412 -5.52525e-21)
(0.134515 -0.131497 -2.3241e-21)
(0.367807 -0.00700451 2.65069e-20)
(0.796626 -0.125555 1.5745e-21)
(0.32926 -0.141294 -1.09924e-21)
(0.905048 -0.15337 -2.89673e-22)
(0.911528 0.0552169 -1.87359e-21)
(0.416362 -0.106948 5.50586e-21)
(0.020344 -0.0545718 -7.56363e-21)
(0.353964 -0.269533 7.6347e-22)
(0.36544 -0.0125456 -5.95002e-21)
(0.13147 -0.101032 3.45924e-21)
(0.120906 0.0826815 3.65155e-21)
(0.243501 0.0150481 2.25685e-20)
(0.569948 0.118312 3.16177e-22)
(0.792197 -0.0378156 -8.93907e-23)
(0.327347 -0.251652 -8.39058e-21)
(0.222417 0.0103225 2.60964e-21)
(0.356185 0.278013 -6.84727e-21)
(0.00329646 0.00888495 1.54884e-20)
(0.241993 -0.00442436 2.35001e-21)
(0.938644 0.155044 4.62034e-22)
(0.86667 0.180363 7.6717e-23)
(0.301344 -0.0202136 1.32871e-21)
(0.555769 -0.275995 -4.25839e-21)
(0.491547 -0.241947 1.72092e-21)
(0.524278 0.0706424 5.22418e-22)
(-0.000168346 -0.00690655 1.26995e-20)
(0.806583 -0.0904867 -5.43065e-22)
(0.25822 0.0320925 4.59748e-21)
(0.240812 0.254276 6.92358e-21)
(0.85297 0.175279 2.18175e-22)
(0.527551 -0.136587 2.54301e-21)
(0.550019 -0.175599 -2.81357e-21)
(0.19757 -0.243638 -1.6384e-20)
(0.397277 -0.0299254 7.89763e-23)
(0.0432759 -0.0807484 -1.81894e-21)
(0.0705148 0.117401 4.69423e-22)
(0.583632 -0.303017 -2.11726e-21)
(0.392198 -0.0232574 2.23242e-20)
(0.426891 0.025892 -1.11765e-20)
(0.460972 0.090771 5.39969e-22)
(0.561166 0.117341 9.92317e-24)
(0.837332 -0.0805877 1.16753e-21)
(0.245186 0.243265 6.99415e-21)
(0.387668 -0.0175774 -4.13219e-20)
(0.132721 0.0702716 -4.23905e-21)
(0.379224 0.17589 1.30857e-21)
(0.832965 -0.0955762 4.64368e-22)
(0.382478 0.00975971 1.2957e-20)
(0.408343 -0.0271928 -2.00707e-21)
(0.28997 0.0169249 5.29552e-22)
(0.388124 -0.0188436 -5.96574e-21)
(0.316402 -0.0440452 6.49808e-21)
(0.589806 -0.0847685 1.70043e-21)
(0.777238 -0.063653 5.66374e-22)
(0.683077 0.119426 -2.24273e-21)
(0.732824 -0.0915349 -1.14501e-22)
(0.972603 0.0244125 -6.03057e-22)
(0.260873 0.182135 -6.42787e-22)
(0.660522 -0.0808738 1.66739e-21)
(0.078989 -0.0818025 -1.43652e-21)
(0.354951 0.055239 -6.75874e-21)
(0.495141 -0.0219781 -3.2131e-22)
(0.383417 -0.283764 -4.98641e-21)
(0.896658 0.0328764 -3.47485e-24)
(0.847875 0.0878715 1.67972e-21)
(0.0412174 0.00537193 6.28004e-22)
(0.125161 -0.0119378 -6.93213e-22)
(0.361002 -0.057853 -2.61624e-21)
(0.702454 -0.0395113 -5.08813e-22)
(0.501941 0.0623395 -5.22766e-22)
(0.15079 0.13745 2.26729e-22)
(0.141397 -0.175696 7.37778e-22)
(0.862383 0.175392 -1.11347e-23)
(0.0753824 -0.157407 -1.60214e-20)
(0.605843 0.121148 -2.25068e-23)
(0.80808 -0.134729 -4.50062e-24)
(0.509519 -0.129435 1.12345e-21)
(0.513925 0.108545 5.95557e-23)
(0.941943 0.130276 -1.57673e-21)
(0.277481 0.0244543 2.28813e-20)
(0.395238 -0.0247959 -1.4334e-21)
(0.242653 0.19744 -1.09499e-20)
(0.465815 0.265748 3.01501e-21)
(0.0298142 0.05237 3.43094e-21)
(0.38446 -0.0141141 7.44444e-21)
(0.765334 -0.123995 -3.25233e-22)
(0.996598 -0.00106833 -1.19768e-23)
(0.278523 0.0219411 4.92094e-21)
(0.384892 0.152093 1.89567e-21)
(0.300795 -0.282087 6.32683e-21)
(0.481054 -0.000390959 1.29735e-21)
(0.779396 0.150639 1.12416e-22)
(0.744037 -0.113713 1.29207e-22)
(0.0211561 0.0369548 -4.79479e-21)
(0.778734 -0.120019 -6.75607e-22)
(0.463365 -0.0484719 -4.65997e-21)
(0.504152 0.22418 4.76004e-22)
(0.378213 -0.0324788 -2.5581e-21)
(0.245987 0.00842913 -1.42128e-20)
(0.0495182 0.0819096 -1.62784e-21)
(0.454984 -0.00563483 -6.18798e-22)
(0.849665 -0.148386 7.00684e-22)
(0.819603 -0.091094 -4.55308e-22)
(0.239371 -0.00671785 -2.19453e-21)
(1.01342 0.0601303 1.10861e-22)
(0.356254 -0.138363 1.61972e-21)
(0.767804 -0.0734411 -5.21175e-23)
(0.395692 -0.0213491 -2.04521e-21)
(0.477038 0.159471 -3.49671e-21)
(0.248543 -0.126706 -2.22778e-22)
(0.299407 -0.0614742 -1.73849e-21)
(0.0168577 -0.0355583 -4.73504e-22)
(0.390077 -0.0176698 -1.20013e-20)
(0.555315 -0.156894 -1.03553e-21)
(0.249088 -0.042991 1.67203e-20)
(0.362224 -0.0186197 2.71249e-20)
(0.34839 -0.0157646 -8.99562e-21)
(0.374913 -0.0597844 -6.42542e-21)
(0.386337 -0.0181415 -3.13785e-21)
(0.338947 -0.288317 1.84931e-20)
(0.33636 -0.0069104 2.12167e-20)
(0.389331 -0.0321243 -3.48269e-20)
(0.359521 -0.0150243 1.40116e-20)
(0.740585 0.090788 -2.18996e-21)
(0.786496 -0.0809599 -1.09453e-22)
(0.397366 -0.022598 1.39291e-20)
(0.0702501 0.112545 -1.0469e-21)
(0.386465 -0.0212059 1.7857e-20)
(0.253219 -0.028603 -1.9431e-21)
(0.35299 0.00448956 -1.67859e-20)
(0.212186 -0.0123739 1.06674e-20)
(0.427771 -0.0503489 -7.0097e-22)
(0.320537 0.0427554 -9.16128e-21)
(0.521774 -0.0859951 -4.59486e-23)
(0.268702 0.0301516 8.9937e-21)
(0.608406 0.115651 1.41106e-22)
(0.591782 -0.0758479 -2.73558e-22)
(0.332239 0.00740057 8.16164e-21)
(0.8271 -0.0592543 -3.44988e-22)
(0.994246 0.0407828 -9.41121e-22)
(0.49261 -0.201376 1.0556e-20)
(0.341213 -0.00846714 6.68526e-21)
(0.28305 0.0226651 6.79743e-21)
(0.752674 -0.121399 -6.2135e-22)
(0.245784 -0.0353785 -8.83025e-21)
(0.374239 -0.0422833 -1.6167e-21)
(0.240151 0.000288533 -8.37594e-21)
(0.774024 -0.0355473 1.24405e-22)
(0.587478 0.119773 -2.83842e-23)
(0.355083 -0.0134069 -1.65514e-20)
(0.310387 -0.0624535 7.26445e-21)
(0.372816 -0.0239353 -3.95977e-21)
(0.626951 0.123137 -1.26727e-22)
(0.292802 -0.0654735 -7.17438e-22)
(0.408545 -0.204676 -5.40966e-22)
(0.790241 0.0386742 -1.10527e-22)
(0.941613 0.0352598 7.46134e-22)
(0.394979 -0.029066 -9.16642e-21)
(0.145704 0.0972192 2.38137e-21)
(0.128209 0.201443 -1.91983e-20)
(0.605397 -0.293256 4.17845e-21)
(0.358964 0.284076 -3.51046e-23)
(0.270567 -0.0708417 3.05643e-21)
(0.241528 -0.209543 6.63603e-21)
(0.28346 -0.0550239 -2.78531e-21)
(0.268997 0.00832236 -9.87213e-22)
(0.438496 0.0769613 3.34825e-21)
(0.327815 0.0518972 -2.86723e-21)
(0.35476 -0.00340205 6.633e-21)
(0.325687 -0.0378432 -8.50354e-22)
(0.776892 -0.125589 1.6805e-21)
(0.532434 -0.088416 -3.28603e-22)
(0.378202 -0.0201186 1.34097e-20)
(0.271925 -0.00924067 7.46333e-21)
(0.302423 0.00765556 -4.50512e-21)
(0.2655 0.0325534 -2.37383e-21)
(0.23099 -0.0189481 -1.56921e-20)
(0.247094 0.0227625 1.6003e-21)
(0.25474 -0.0206599 -3.95667e-22)
(0.221196 -0.0132109 1.87712e-20)
(0.375188 -0.035892 2.4103e-20)
(0.204572 -0.00759834 -7.46157e-21)
(0.388866 -0.0325049 2.44961e-20)
(0.237541 0.0257994 1.47916e-20)
(0.37117 0.0659049 -6.16877e-21)
(0.271355 0.015997 -3.3995e-20)
(0.195637 0.00336489 1.34864e-20)
(0.525523 0.0808353 7.2583e-22)
(0.210998 0.0139045 -1.7271e-20)
(0.379737 0.0706824 1.7293e-21)
(0.321353 -0.0569607 -1.36246e-20)
(0.511172 0.104258 -4.20305e-22)
(0.239378 0.0201192 1.99713e-20)
(0.333294 -0.0544499 -2.33306e-20)
(0.286489 -0.0686686 4.37741e-21)
(0.29105 0.0338106 5.11095e-21)
(0.476296 -0.0464888 1.94108e-22)
(0.242678 -0.0143437 1.34914e-20)
(0.275797 -0.0177877 3.48117e-21)
(0.306351 -0.0232231 4.52007e-21)
(0.343319 -0.033459 -2.64649e-20)
(0.36694 -0.0356756 -1.80513e-20)
(0.211407 -0.00745133 -2.25238e-20)
(0.385576 -0.0315227 -2.33867e-20)
(0.197085 -0.00333839 -1.50668e-20)
(0.256961 0.0216262 9.40306e-21)
(0.197051 0.00576595 -1.274e-21)
(0.231209 0.0274438 -1.40933e-21)
(0.214114 0.0143417 -7.28598e-21)
(0.27652 -0.0194096 1.33948e-21)
(0.299517 -0.0299482 5.50737e-21)
(0.254109 0.0213835 -1.25161e-20)
(0.327463 0.0363692 8.25598e-21)
(0.298414 0.0262339 -4.68348e-21)
(0.483553 -0.0770665 -1.27055e-21)
(0.493473 0.0958197 8.85278e-23)
(0.285865 -0.0279769 -6.44374e-21)
(0.84141 -0.127223 2.66842e-22)
(0.498597 -0.0539747 -7.44955e-22)
(0.47348 0.0952453 -9.05393e-22)
(0.339649 0.0297393 -5.23025e-21)
(0.902034 -0.0710738 -2.18114e-21)
(0.232946 0.0184988 3.86171e-20)
(0.36955 0.0349112 -5.32764e-22)
(0.277548 -0.0292776 1.59027e-20)
(0.308845 -0.0340169 3.12817e-21)
(0.203831 -0.00519228 3.20444e-20)
(0.397996 0.0253863 2.47559e-22)
(0.501411 0.0948417 -6.57467e-23)
(0.766456 -0.011649 3.63725e-22)
(0.253134 0.0291192 -9.44364e-21)
(0.245552 0.0307001 -8.87909e-21)
(0.395887 -0.0262116 3.31156e-20)
(0.741119 -0.103238 -6.03498e-22)
(0.249149 0.000690152 -5.20851e-21)
(0.451989 0.0274823 -9.44964e-22)
(0.250204 -0.00643256 2.47455e-21)
(0.757121 -0.0274831 -2.54203e-22)
(0.534037 0.0945445 -2.19275e-22)
(0.352402 -0.0448428 -1.63021e-22)
(0.319963 0.0556086 6.66266e-21)
(0.397434 -0.0234717 -3.60255e-21)
(0.403971 0.0440276 -2.66535e-23)
(0.815196 -0.101363 2.19072e-22)
(0.678915 0.0962871 1.73214e-21)
(0.909774 -0.166143 -4.90212e-22)
(0.485699 0.0294305 -8.7806e-22)
(0.27132 0.0014525 7.9361e-21)
(0.137353 -0.155861 -5.5707e-21)
(0.756634 -0.114863 7.74185e-22)
(0.453407 0.0445632 -8.7713e-23)
(0.392252 -0.0288896 1.25371e-20)
(0.503926 0.0241196 2.14799e-21)
(0.651996 0.0884016 -1.12301e-23)
(0.722233 0.0784503 4.35042e-22)
(0.437282 -0.149971 -1.02672e-20)
(0.543759 0.0822918 -1.24452e-22)
(0.889584 -0.165303 -3.70233e-23)
(0.315237 -0.0601387 7.1469e-21)
(0.483622 0.0960032 1.75364e-22)
(0.289961 -0.211571 1.06742e-21)
(0.265266 0.0207504 -2.39866e-20)
(0.245246 0.0260241 -3.46487e-20)
(0.35525 -0.0360362 -1.57786e-20)
(0.329601 -0.0308933 -3.81475e-20)
(0.38021 -0.0275006 6.23751e-20)
(0.513011 0.079049 2.90417e-22)
(0.203109 -0.0033528 4.87542e-20)
(0.238998 -0.0317981 -6.46319e-21)
(0.294079 -0.0446393 1.76071e-20)
(0.192558 -0.000586608 3.69346e-20)
(0.281893 -0.0289247 -4.61358e-21)
(0.224488 0.0154577 1.84046e-21)
(0.345626 0.011631 -1.87647e-20)
(0.268461 0.0284222 9.95545e-21)
(0.562476 0.0184538 5.39539e-22)
(0.361265 -0.0314617 -1.41134e-20)
(0.336807 -0.0263937 1.42254e-20)
(0.348697 -0.0496225 2.8493e-20)
(0.23081 0.0853803 -3.56413e-21)
(0.230328 0.0271704 2.98811e-20)
(0.705491 0.0883105 -3.3379e-22)
(0.36573 -0.0205232 1.62181e-20)
(0.243575 -0.0656525 -5.98933e-21)
(0.356333 0.0671143 6.40451e-21)
(0.311916 0.0207473 7.29252e-22)
(0.214189 0.0101425 3.45266e-21)
(0.00075066 -0.0163407 1.44905e-21)
(0.915699 0.164926 1.3925e-22)
(0.226422 0.0245807 -2.3901e-20)
(0.530679 0.0317611 2.61309e-22)
(0.565742 0.112858 -5.84778e-23)
(0.383248 0.0579888 1.91065e-21)
(0.515019 0.0405756 -9.46365e-22)
(0.546591 0.0242962 -2.25655e-21)
(0.352536 0.0209205 5.16041e-21)
(0.485736 -0.0567575 1.81163e-23)
(0.310816 -0.0315833 -3.80087e-21)
(0.495196 -0.0352227 8.29109e-22)
(0.468382 0.0291833 8.25871e-22)
(0.518089 -0.0554078 -4.91891e-22)
(0.348787 0.0142921 5.99504e-21)
(0.215363 0.00259363 1.61047e-21)
(0.655468 -0.0541458 -2.43575e-21)
(0.29889 0.0469034 -1.87315e-22)
(0.347934 0.0539797 -2.18988e-21)
(0.520043 -0.0623969 3.84687e-23)
(0.381635 -0.0250041 -2.55573e-20)
(0.242915 -0.0367613 1.35846e-21)
(0.260675 -0.0622751 -5.18648e-21)
(0.30337 0.0206565 -1.25892e-21)
(0.498418 0.0807873 3.18424e-22)
(0.691554 0.0919417 -8.81538e-22)
(0.510025 0.0942426 4.11017e-23)
(0.52691 -0.0427031 -1.531e-22)
(0.375993 -0.0265144 -4.34972e-21)
(0.260363 0.0243835 4.89453e-20)
(0.341203 -0.0202278 -8.49177e-21)
(0.306252 -0.0217618 1.09857e-20)
(0.570557 0.0286139 2.66271e-21)
(0.194459 0.00215609 9.25074e-21)
(0.1224 -0.196323 6.37124e-21)
(0.239454 -0.0434499 -9.32663e-21)
(0.456966 0.0568188 -2.02672e-21)
(0.327825 -0.0331534 1.68965e-21)
(0.659019 0.130879 -4.21569e-23)
(0.600581 0.124238 -2.14148e-22)
(0.273869 0.0329772 -1.14476e-20)
(0.511574 -0.0834364 7.71428e-22)
(0.565173 0.117733 2.74552e-24)
(0.76072 0.150608 -5.30829e-22)
(0.438223 -0.0549708 1.00526e-21)
(0.706359 0.139339 3.07253e-22)
(0.572243 -0.0952509 -2.22023e-22)
(0.681614 0.134396 -1.7141e-22)
(0.728518 0.142236 -1.04729e-21)
(0.789511 0.157311 -2.18877e-23)
(0.545682 0.110292 -2.32934e-22)
(0.417239 -0.0446718 1.05162e-21)
(0.543535 -0.0901501 -3.95962e-22)
(0.582753 0.121653 -3.86039e-22)
(0.264882 0.0340339 6.52527e-21)
(0.436375 0.0556018 2.40322e-22)
(0.344286 0.00584745 7.30785e-22)
(0.346419 -0.152556 -4.83745e-21)
(0.375315 -0.0284298 -2.17597e-20)
(0.79132 -0.129529 -1.70352e-21)
(0.936916 0.191686 -4.64911e-22)
(0.529022 0.065619 -2.18803e-21)
(0.279864 0.0177082 6.2036e-21)
(0.296338 -0.0220663 1.48778e-21)
(0.268635 -0.0637332 -2.72769e-21)
(0.264438 -0.0138768 -5.37828e-21)
(0.332485 0.0561346 3.05987e-21)
(0.494132 0.081364 -2.08343e-21)
(0.467019 0.0645434 -4.16464e-22)
(0.345864 -0.0209602 -4.51383e-21)
(0.249522 -0.0765667 -8.1157e-21)
(0.201134 0.00672079 -6.7624e-21)
(0.720547 0.0929178 -1.41442e-21)
(0.483596 0.0814037 -7.59956e-23)
(0.590762 -0.0804522 -1.22694e-21)
(0.330187 -0.00724248 -3.9682e-21)
(1.01356 0.0391843 5.33131e-23)
(0.492512 -0.163011 -3.74366e-22)
(0.961801 0.010109 9.05857e-22)
(0.241677 -0.0801334 -7.8797e-22)
(0.458104 0.0856055 -2.80443e-22)
(0.385022 -0.0243028 6.67899e-21)
(0.605744 0.0180439 -1.14465e-21)
(0.522489 -0.0680562 1.18471e-22)
(0.287896 0.0274561 -2.09376e-21)
(0.373238 -0.0176632 -2.44088e-21)
(0.297673 0.017149 -4.85397e-21)