/*--------------------------------*- C++ -*----------------------------------*\
  =========                 |
  \\      /  F ield         | OpenFOAM: The Open Source CFD Toolbox
   \\    /   O peration     | Website:  https://openfoam.org
    \\  /    A nd           | Version:  10
     \\/     M anipulation  |
\*---------------------------------------------------------------------------*/
FoamFile
{
    format      ascii;
    class       volScalarField;
    location    "1250";
    object      epsilon;
}
// * * * * * * * * * * * * * * * * * * * * * * * * * * * * * * * * * * * * * //

dimensions      [0 2 -3 0 0 0 0];

internalField   nonuniform List<scalar> 
10435
(
0.178896
0.552349
0.489727
0.49055
0.906544
0.803148
0.444081
0.308193
0.203996
0.658788
0.768522
0.521778
0.605847
0.0502469
0.0559787
0.412242
0.0462317
0.704164
0.149339
0.218102
0.359074
0.36425
0.459926
0.208187
0.61303
0.0170592
0.0279933
0.530998
0.0265313
0.694927
0.572521
0.853491
0.275029
0.0270629
0.321625
0.220276
0.377855
0.0280726
0.011812
0.172909
0.763919
0.457684
0.0308131
0.386466
0.449242
0.189914
0.763601
0.0281134
0.175179
0.250605
0.330122
0.708099
0.0114446
0.0221462
0.0130244
0.024315
0.335839
0.0301217
0.0394448
0.271657
0.0127982
0.432721
0.0304976
0.741975
0.459835
0.526235
0.0355496
0.0343523
0.338337
0.210479
0.0217239
0.0224351
0.0205285
0.513099
0.0646301
0.0329064
0.226195
0.414701
0.241827
0.0602659
0.248028
0.117806
0.011094
0.0226262
0.242457
0.149097
0.189707
0.477941
0.0868026
0.251751
0.554274
0.625496
0.141584
0.107871
0.323841
0.149283
0.635859
0.0632214
0.0423677
0.74051
0.072989
1.00512
0.141651
0.400454
0.955396
0.444584
0.166935
0.251243
0.239089
0.0693143
0.236799
1.04311
0.0975367
0.0815146
0.755242
0.336962
0.717834
0.207991
0.570196
0.612792
0.683056
0.0264152
0.285702
0.0605453
1.05999
0.0149749
0.627372
0.0319318
0.815974
0.0265839
0.0429289
1.00128
0.366643
0.0535666
0.0249635
0.0103531
0.145421
0.505642
0.475349
0.29936
0.258952
0.518553
0.0323955
0.652936
0.373335
0.0501307
0.09259
0.772836
0.0442708
0.563839
0.0243766
0.428834
0.215588
0.579486
0.708457
0.0205784
1.07991
0.377849
0.688385
0.782532
0.51791
0.048719
0.733585
0.371867
0.0768859
0.756848
0.26766
0.493918
0.35479
0.723804
0.633493
0.0164671
0.0258306
0.0581779
0.472035
0.644512
0.316867
0.0377346
0.216582
0.0289126
0.665768
0.839578
0.566541
0.0140187
0.508249
0.0246762
0.0267733
0.397407
0.908817
0.678089
0.617542
0.0109026
0.0249338
0.229982
1.06985
0.367562
0.0391967
0.108674
0.0331305
0.4024
0.082522
0.0273647
0.563995
0.0294929
0.534955
0.843308
0.660679
0.501641
0.0314899
0.369981
0.0206648
0.472387
0.666942
0.406895
0.0278552
0.0484811
0.0930515
0.0140283
0.0173441
0.045197
0.0272958
0.0410431
0.0342655
0.0584643
0.0191808
0.35087
0.0143705
0.0828058
0.628105
0.0374909
0.0376243
0.308151
0.015762
0.412787
0.0287466
0.0431958
0.30377
0.0190746
0.298912
0.596271
0.327953
0.01684
0.0150838
0.0239432
0.805012
0.229823
0.102789
0.339499
0.0207799
0.496166
0.0209567
0.102011
0.627611
0.365985
0.367771
0.802141
0.0188633
0.388783
0.0183678
0.0271217
0.410195
0.646575
0.0167681
0.28081
0.114954
0.0397982
0.270007
0.517106
0.0126958
0.837764
0.433114
0.295125
0.339461
0.580032
0.0190678
0.595123
0.0270217
0.945412
0.397178
0.271161
0.617871
0.037295
0.45531
0.0683439
0.129737
0.0122088
0.853815
0.0130709
0.0230421
0.0279722
0.07255
0.905167
0.03167
0.315644
0.0120651
0.0213297
0.0437468
0.143732
0.949776
0.56955
0.0343292
0.307781
0.475803
0.0225554
0.918568
0.0546835
0.0417327
0.396115
0.548852
0.0232368
0.192883
0.0245865
0.349944
0.832094
0.240966
0.0218231
0.0147743
0.601171
0.036426
0.495259
0.910754
0.0287341
0.167805
0.0107164
0.245079
0.573116
0.0209289
0.496648
0.0372091
0.0290654
0.234684
0.0297923
0.0232168
0.468479
0.493756
0.0317053
0.0223394
0.0215382
0.0248814
0.0251088
0.022459
0.0216147
0.0125171
0.0257928
0.0248497
0.0235876
0.0333071
0.0294824
0.0105402
0.217708
0.0236328
0.570261
0.0274637
0.520214
0.219771
0.15582
0.600421
0.507089
0.0231718
0.0252456
0.0220036
0.0154233
0.024569
0.0123842
0.0274637
0.0238042
0.0316808
0.448986
0.0231701
0.20041
0.0141769
0.0252942
0.632091
0.129849
0.0124925
0.0278475
0.0295048
0.0287076
0.0249521
0.0188223
0.0322507
0.0135617
0.260262
0.0343683
0.315413
0.198737
0.546437
0.574758
0.179578
0.505203
0.282315
0.0456154
0.0198548
0.0255454
0.0222958
0.486462
0.0241469
0.641176
0.0308086
0.0292097
0.0263523
0.031135
0.0160045
0.430883
0.0289552
0.288373
0.381892
0.016456
0.0204141
0.0288134
0.138137
0.0286674
0.0217791
0.0180989
0.0245152
0.0305018
0.0268709
0.505838
0.0218068
0.020785
0.0269216
0.0281662
0.708271
0.0128891
0.0109215
0.102003
0.0248912
0.000103261
9.89719e-05
9.26266e-05
8.51764e-05
7.7155e-05
6.86614e-05
5.98039e-05
5.07409e-05
4.16938e-05
0.000112068
0.000106231
9.85239e-05
8.99585e-05
8.09771e-05
7.17727e-05
6.24833e-05
5.3334e-05
4.46553e-05
0.000123101
0.000115744
0.000106573
9.67198e-05
8.66579e-05
7.65953e-05
6.67026e-05
5.72102e-05
4.84273e-05
0.00013777
0.000128741
0.000117818
0.000106403
9.49966e-05
8.38082e-05
7.30141e-05
6.28156e-05
5.34563e-05
0.00015791
0.000146845
0.000133693
0.000120278
0.000107101
9.43727e-05
8.22502e-05
7.08825e-05
6.04068e-05
0.000186045
0.000172321
0.000156225
0.000140148
0.000124571
0.000109706
9.5677e-05
8.25852e-05
7.04978e-05
0.000225844
0.000208423
0.000188308
0.00016861
0.000149743
0.000131908
0.000115193
9.96768e-05
8.54233e-05
0.000282841
0.000259721
0.000234032
0.000209386
0.000186016
0.000164072
0.000143601
0.000124677
0.000107419
0.000364394
0.00033222
0.000298987
0.000267705
0.000238254
0.000210682
0.000184988
0.000161227
0.000139532
0.000477809
0.000433124
0.00039048
0.000350626
0.000313156
0.00027802
0.000245191
0.000214672
0.000186482
0.000628141
0.000570535
0.000517494
0.000467114
0.000419397
0.000374376
0.00033209
0.000292516
0.000255585
0.000818123
0.000753815
0.000690496
0.000627692
0.000567282
0.000509765
0.000455405
0.000404217
0.000356158
0.00105691
0.000995352
0.000921178
0.000843622
0.000767753
0.000694906
0.000625677
0.000560182
0.000498554
0.00137739
0.0013114
0.00122155
0.0011255
0.00103086
0.000939631
0.000852632
0.00077009
0.000692294
0.00180387
0.00171496
0.00160081
0.00148128
0.00136421
0.00125147
0.00114382
0.00104139
0.000943967
0.00234421
0.00221
0.00206265
0.00191499
0.00177216
0.00163518
0.00150451
0.00138022
0.0012621
0.00297666
0.00278924
0.00260506
0.00242699
0.00225644
0.0020934
0.00193798
0.00179032
0.00165092
0.00366628
0.00344044
0.00322348
0.00301615
0.00281791
0.00262835
0.00244729
0.00227482
0.00211143
0.00440749
0.0041587
0.0039161
0.00368299
0.00345895
0.00324392
0.00303765
0.00284006
0.00265129
0.00520746
0.00494811
0.00468643
0.00443164
0.00418499
0.00394706
0.00371756
0.00349635
0.00328399
0.00608142
0.00581931
0.00554258
0.00526983
0.00500471
0.00474797
0.00449879
0.00425639
0.0040208
0.00705157
0.00678661
0.00649506
0.00620736
0.00592914
0.00565984
0.00539718
0.00513908
0.00488481
0.00815135
0.00786558
0.00755413
0.00725441
0.00697063
0.00669809
0.00643174
0.00616764
0.00590509
0.0094221
0.00906726
0.00872563
0.00841896
0.00814111
0.00787897
0.00762325
0.00736701
0.00710924
0.0108998
0.0103841
0.0100085
0.00970725
0.00945346
0.00922047
0.0089948
0.00876784
0.00850582
0.000996468
0.000976356
0.000960903
0.000950044
0.000943762
0.000941946
0.000944482
0.000951163
0.000961796
0.000976069
0.000993657
0.00101417
0.00103712
0.001062
0.0010882
0.00111508
0.00114195
0.0011681
0.00119278
0.00121526
0.00123473
0.00125028
0.00126071
0.00126398
0.00125903
0.00124702
0.00122861
0.00120344
0.00116976
0.00112985
0.00108481
0.00103503
0.000981023
0.00092381
0.000864326
0.00080347
0.00074211
0.000681063
0.000621098
0.000562915
0.000507126
0.000454266
0.000404757
0.000358931
0.00031703
0.000279195
0.00024548
0.000215894
0.000190345
0.000168665
0.0001506
0.000135838
0.000124046
0.00011489
0.000108074
0.000103339
0.000100479
9.93425e-05
9.9793e-05
0.00101018
0.000992632
0.000979398
0.000970462
0.000965748
0.000965115
0.000968344
0.000975228
0.00098557
0.000999121
0.00101557
0.00103457
0.00105567
0.00107839
0.00110219
0.00112647
0.00115059
0.00117388
0.00119565
0.0012152
0.00123182
0.00124477
0.00125321
0.00125615
0.00125246
0.00124133
0.00122245
0.00119596
0.00116257
0.00112336
0.0010791
0.00103033
0.000977631
0.000921711
0.000863358
0.000803401
0.000742678
0.000682007
0.000622169
0.00056388
0.000507791
0.000454474
0.00040441
0.000357992
0.00031552
0.000277191
0.000243102
0.000213253
0.000187542
0.000165769
0.000147653
0.000132857
0.00012103
0.000111815
0.000104906
0.000100039
9.69977e-05
9.56249e-05
9.57729e-05
0.00100335
0.000987123
0.000974822
0.000966424
0.000961885
0.000961123
0.000964011
0.000970382
0.000980027
0.000992692
0.00100808
0.00102583
0.00104555
0.00106678
0.001089
0.00111166
0.00113415
0.00115584
0.00117608
0.00119418
0.00120941
0.00122101
0.00122813
0.00122986
0.00122535
0.001214
0.00119553
0.00117
0.00113783
0.00109977
0.00105659
0.00100895
0.000957503
0.000902955
0.000846048
0.000787557
0.000728262
0.000668936
0.000610321
0.000553114
0.000497956
0.00044542
0.000396005
0.000350128
0.000308115
0.000270196
0.000236487
0.000206994
0.000181608
0.000160117
0.000142228
0.000127606
0.000115892
0.000106744
9.98473e-05
9.49344e-05
9.1788e-05
9.02498e-05
9.01709e-05
0.000972913
0.00095779
0.00094637
0.00093861
0.000934445
0.000933777
0.000936481
0.000942396
0.000951326
0.000963039
0.000977259
0.000993664
0.00101188
0.0010315
0.00105204
0.00107299
0.00109378
0.0011138
0.00113242
0.00114896
0.00116271
0.00117292
0.00117882
0.00117962
0.00117462
0.00116329
0.00114534
0.00112084
0.00109011
0.00105373
0.00101236
0.000966661
0.000917325
0.000865042
0.000810525
0.000754499
0.000697691
0.00064082
0.000584581
0.000529636
0.000476599
0.000426029
0.000378421
0.000334196
0.000293689
0.00025713
0.000224645
0.000196236
0.000171795
0.000151111
0.000133903
0.000119839
0.00010856
9.97287e-05
9.30441e-05
8.82469e-05
8.51254e-05
8.35232e-05
8.32958e-05
0.000928154
0.000914335
0.000903935
0.000896914
0.000893209
0.000892724
0.000895341
0.000900904
0.00090923
0.000920097
0.000933248
0.000948382
0.000965156
0.000983181
0.00100202
0.00102118
0.00104015
0.00105833
0.00107513
0.0010899
0.00110197
0.00111063
0.00111519
0.00111498
0.00110943
0.00109809
0.00108075
0.00105743
0.00102837
0.000994014
0.000954905
0.000911665
0.000864952
0.000815438
0.00076381
0.000710759
0.000656967
0.000603114
0.000549858
0.000497828
0.000447609
0.000399735
0.000354681
0.000312851
0.000274561
0.000240031
0.000209371
0.000182581
0.000159548
0.000140069
0.000123867
0.000110618
9.99884e-05
9.16554e-05
8.53288e-05
8.07601e-05
7.77468e-05
7.61379e-05
7.57944e-05
0.000868589
0.000855849
0.000846291
0.000839876
0.000836541
0.000836193
0.00083871
0.000843941
0.000851704
0.000861785
0.000873935
0.000887869
0.000903261
0.000919744
0.000936906
0.000954294
0.000971409
0.000987714
0.00100264
0.0010156
0.00102596
0.0010331
0.00103641
0.00103532
0.00102933
0.00101809
0.00100143
0.000979354
0.000952066
0.00091991
0.000883356
0.000842956
0.000799327
0.000753107
0.000704936
0.000655468
0.000605338
0.000555176
0.000505613
0.000457238
0.000410598
0.000366188
0.000324448
0.000285749
0.000250379
0.000218529
0.000190292
0.000165655
0.000144503
0.000126636
0.000111789
9.96597e-05
8.9933e-05
8.23104e-05
7.65177e-05
7.23227e-05
6.95358e-05
6.80157e-05
6.76332e-05
0.000796162
0.000784479
0.000775717
0.000769845
0.000766816
0.000766543
0.000768913
0.000773783
0.000780974
0.000790277
0.000801451
0.00081422
0.000828276
0.000843269
0.000858811
0.000874485
0.000889825
0.000904325
0.000917466
0.000928703
0.000937476
0.00094322
0.00094542
0.000943594
0.000937304
0.000926281
0.000910388
0.000889655
0.000864223
0.000834379
0.000800544
0.000763204
0.000722956
0.0006804
0.000636113
0.000590712
0.000544771
0.000498868
0.000453615
0.000409541
0.000367134
0.000326839
0.000289043
0.000254077
0.000222192
0.000193545
0.000168208
0.000146152
0.000127258
0.000111333
9.81271e-05
8.73587e-05
7.87393e-05
7.19933e-05
6.68718e-05
6.31626e-05
6.06935e-05
5.93349e-05
5.89701e-05
0.000709014
0.000698077
0.000689832
0.000684281
0.000681394
0.000681102
0.000683296
0.00068784
0.000694548
0.000703197
0.000713571
0.000725366
0.000738281
0.000751973
0.000766096
0.000780302
0.000794177
0.000807208
0.000818935
0.000828799
0.000836292
0.000840904
0.000842265
0.000840013
0.000833688
0.000823133
0.000808229
0.000789041
0.000765609
0.000738179
0.00070717
0.000673035
0.000636411
0.000597877
0.00055786
0.000516969
0.000475731
0.00043464
0.00039432
0.000355177
0.000317633
0.000282063
0.000248794
0.000218109
0.000190229
0.000165261
0.000143271
0.000124202
0.000107924
9.42465e-05
8.29376e-05
7.37456e-05
6.64135e-05
6.06991e-05
5.63841e-05
5.3281e-05
5.12368e-05
5.01361e-05
4.98747e-05
0.000604427
0.00059384
0.000585815
0.000580446
0.000577752
0.000577633
0.000579906
0.00058428
0.000590782
0.00059944
0.000609615
0.000620986
0.000633166
0.000645743
0.000658654
0.000671546
0.000684356
0.000696914
0.000708164
0.000717235
0.000723779
0.000727497
0.000728318
0.000725897
0.000719955
0.000710267
0.000696812
0.000679573
0.000658381
0.000633338
0.000605133
0.00057431
0.000541503
0.000507317
0.000472095
0.000435898
0.000399464
0.000363971
0.000329367
0.000295727
0.000263594
0.000233298
0.000205063
0.000179074
0.000155492
0.000134526
0.000116184
0.000100486
8.72032e-05
7.6029e-05
6.67569e-05
5.92258e-05
5.32567e-05
4.86468e-05
4.52038e-05
4.27832e-05
4.12581e-05
4.05223e-05
4.04819e-05
0.0219178
0.0198351
0.0179135
0.0160947
0.014359
0.0127067
0.0111482
0.00969513
0.00835562
0.00713324
0.00605284
0.00513698
0.00438226
0.00376565
0.00324478
0.00279766
0.00242509
0.0021244
0.00188563
0.0016929
0.00153347
0.00139751
0.00127697
0.00116509
0.00105548
0.0209045
0.0193831
0.0176874
0.015952
0.0142399
0.012585
0.0110142
0.00954795
0.00820162
0.00698917
0.00592437
0.00501286
0.004249
0.00361797
0.00309909
0.00267366
0.00232774
0.00204935
0.0018268
0.00164795
0.00150136
0.00137736
0.00126812
0.00116716
0.00106876
0.0208644
0.0192652
0.0175524
0.0158026
0.0140684
0.0123892
0.010798
0.00932011
0.00797412
0.00677323
0.00572401
0.00482551
0.00407051
0.00344694
0.00293932
0.00253106
0.00220575
0.00194794
0.00174381
0.00158099
0.00144849
0.00133689
0.00123842
0.00114687
0.00105741
0.0210062
0.0192309
0.0174191
0.0156071
0.0138317
0.0121261
0.0105208
0.0090401
0.00770166
0.00651557
0.00548433
0.00460392
0.00386597
0.0032589
0.00276852
0.00237872
0.0020724
0.00183301
0.00164573
0.0014978
0.00137826
0.0012779
0.00118914
0.00110597
0.00102357
0.0211852
0.0192419
0.0173076
0.0154091
0.013576
0.0118359
0.0102143
0.00873136
0.00740109
0.00623003
0.00521768
0.00435802
0.00364145
0.0030557
0.00258625
0.00221668
0.00192957
0.00170797
0.00153667
0.00140269
0.00129513
0.00120501
0.00112506
0.00104967
0.000974704
0.0213282
0.0192362
0.0171773
0.0151861
0.0132911
0.011515
0.00987712
0.00839276
0.00707158
0.00591672
0.00492526
0.0040894
0.00339799
0.00283741
0.00239206
0.00204473
0.00177765
0.00157377
0.00141787
0.00129704
0.00120064
0.00112002
0.00104828
0.000980179
0.000911742
0.0214551
0.0192058
0.0170133
0.0149261
0.0129694
0.0111587
0.00950586
0.00802113
0.00671036
0.00557361
0.0046058
0.00379734
0.00313514
0.00260353
0.00218535
0.00186243
0.00161656
0.00143079
0.00129015
0.00118205
0.00109619
0.00102436
0.000960058
0.000898384
0.000835962
0.0215911
0.0191345
0.0167931
0.0146106
0.0125981
0.0107581
0.00909391
0.00761084
0.00631263
0.0051968
0.00425613
0.0034794
0.00285143
0.00235313
0.00196556
0.00166945
0.0014462
0.00127915
0.00115389
0.00105832
0.000982537
0.00091884
0.000861012
0.000804352
0.000746444
0.0216868
0.0189794
0.0164863
0.0142206
0.0121656
0.0103058
0.00863688
0.00715712
0.00587313
0.0047819
0.00387198
0.00313229
0.00254553
0.00208566
0.00173255
0.00146601
0.00126676
0.00111906
0.00100958
0.00092672
0.000860691
0.000804823
0.000752386
0.000697849
0.000640746
0.68844
0.665324
5.08651
1.96636
0.000575395
0.000865461
0.0348522
0.000116768
3.77418
5.20717e-05
2.80876
0.000732463
0.00574214
0.00235506
0.0293211
0.000438831
2.81728
1.65941
3.41161e-05
0.0900828
0.0070745
0.000236078
3.20126
0.00306828
0.00013086
0.000179281
0.000118304
0.0123127
0.960467
2.73947
4.26939e-05
0.000223246
2.65373
0.00924698
2.71844
0.000307463
0.026055
0.0296005
0.0294244
0.000570629
3.95164
0.000141227
0.00019733
0.0313032
0.00604217
0.000348065
4.41212
5.32476
1.47838
1.5645
4.04927
3.44598
0.00428795
1.5073
0.0325181
3.6916
0.00201135
0.00467765
0.000398117
3.4631
0.000472412
5.61452
0.000585612
0.000354821
0.000118857
0.0277729
0.000288301
0.015769
0.00681814
1.52205
3.39112
0.000320236
0.000276031
0.081454
0.000134618
0.00643254
0.0635578
4.81868
0.000134821
1.23566
0.00789696
0.000662877
0.000134191
2.7832
0.000487284
0.00052525
0.000207137
4.69392
2.71252
0.0020043
0.00330861
0.000751884
7.58968e-05
0.000786716
0.000362766
2.83116
0.000189307
3.18266
0.000304939
3.38855
0.00456932
3.88771
0.00538899
0.00031982
0.00030513
0.00681198
3.43678
0.00750225
0.000279811
2.74144
0.000269563
0.000647013
3.43301
0.000301364
0.00426247
1.43152
2.78245
0.000481497
0.00400672
0.000445832
3.39227e-05
0.000632694
0.0030613
0.000146574
2.8278
0.000196741
3.46223
0.053658
0.000327942
5.30148
0.000130972
0.0778081
1.57543
0.0237378
0.0152424
0.000213989
0.00567099
0.00271907
0.000404219
0.101383
0.00019789
0.0281572
3.57113
4.66323e-05
1.12207
0.000510867
2.20446
0.0251157
0.000439695
2.65395
0.00810788
0.00117523
2.23795
0.0431994
0.000231204
2.7059
0.000189305
0.000447059
0.0581786
0.000148956
0.000188972
3.42196
0.000261928
3.40596
0.000123646
3.44996
0.0023843
0.000109891
0.000549093
0.000229278
0.00208717
0.000368608
0.0157048
3.04855
0.000312821
0.00859402
0.0138625
1.25082
2.07775
0.000206542
0.0161646
0.000221793
0.00410729
0.0178436
0.0227174
0.000167948
3.77641
0.000249527
1.8039
0.000418138
4.63145
3.47476
1.56183
0.0277441
0.0349485
2.03709
0.000130977
0.000228349
1.26872
0.791002
0.0182866
0.000584781
0.000613722
0.000442877
0.00589491
0.000101661
0.000352656
0.00543903
1.58804
0.000354871
0.000287676
0.000816897
0.0155569
0.00545736
0.0102225
4.43931
0.000481043
0.000132084
0.000491333
0.00331956
0.00472141
0.000162698
0.000280256
5.70816
0.044805
3.052
0.00165615
2.82366
0.000260808
0.000316465
2.49774
0.000309823
0.000233392
0.00016502
0.0289018
6.70841e-05
0.0525339
0.00783236
0.0184704
0.045137
6.05404e-05
0.000482149
0.000127921
0.0193407
0.000244165
0.000179724
0.000208361
0.00877817
0.000425755
0.000124164
0.000217913
0.00938374
0.000129921
1.42398
0.000270318
0.00011325
3.26917
0.060393
0.0565952
3.42603e-05
0.0118495
0.000418331
0.000315447
0.00019425
0.0743426
0.00016578
0.000102027
2.60024
0.0356464
0.000107523
0.00929423
1.60056
0.000320137
0.0001344
3.65626e-05
2.5747
0.000460684
3.70297
0.00207244
3.90629
0.0316602
0.0086106
0.0123033
0.000344523
2.11447
0.000454889
0.00748956
0.261236
3.99961
4.82374
0.0458117
0.000280201
0.000104767
4.24848
0.0564737
4.34049
4.04813
0.000522235
0.000157125
2.59303
3.62308
0.000184035
0.00102976
0.000468154
3.73905
0.000110773
0.00757713
0.00015863
0.101442
0.000611245
0.00032389
0.000145381
2.19379
0.000260737
0.00033778
0.0305781
4.89539
0.000141729
0.000130204
0.0653123
0.0583941
0.000179683
0.00121143
4.2066e-05
0.000222114
0.000161599
2.70376
0.00800661
0.000467766
0.00496771
0.000118071
0.033627
0.0037873
5.67669e-05
4.36018
0.000565247
0.000179655
0.000142445
9.92306e-06
0.0123052
0.000850634
0.000660133
2.88248
0.000132134
0.0705765
0.000497641
0.00135044
0.000261114
0.000212688
4.19265
0.745219
7.81929e-05
0.000337705
0.055589
4.30305
0.031629
0.122507
0.0303492
0.000132592
4.60684
1.60185
2.77269
0.000122999
2.94603
0.000104979
0.000191283
0.000477669
5.04743
0.000286102
1.68365
0.00022019
0.0430179
0.946448
3.15834
0.00573215
0.00021782
0.00039825
0.000113487
0.000179663
6.31058e-05
3.97055
0.000357361
2.80326
0.0348199
0.0323008
0.0981999
0.000124447
0.0874422
2.55176
4.65889
0.0253362
0.00010267
0.00486627
2.49548
0.0157869
4.14383e-05
0.000115827
2.5916
0.000442246
0.988509
0.000118353
0.00020094
0.000496687
1.17578
0.000588201
9.20587e-08
0.0317228
0.00537346
0.0404915
6.14034e-05
1.84241
0.000302812
2.58895
0.000389874
0.000166299
0.005172
1.62225
4.19057
0.00032116
0.000721352
0.000130035
0.00017749
0.00224371
0.00656012
0.000484616
4.33363
5.58826e-06
0.00135355
0.000113045
0.000214499
0.000419482
0.000120909
0.00211861
0.000123109
0.0442875
0.000453366
0.000263407
7.81296e-05
0.000249016
0.00235316
0.000134499
0.0450645
4.2636
0.0351794
0.00781707
5.72262
0.00911288
2.49947
0.000290111
0.00013834
3.105
0.000174352
0.000261704
2.39631
0.00013921
1.4305
4.29165
0.000494566
0.00349234
0.0484785
0.000280779
0.0213275
1.77123
0.0141889
3.99892
0.000144847
0.000356361
5.92542
0.000128706
2.59629
0.00784856
0.000164439
2.74519
0.00262695
0.000144786
0.0073339
0.00172483
0.000153268
0.0248533
0.0190946
0.0102834
0.0261247
1.15296e-05
0.000678574
2.69071
0.000414195
0.000597071
0.000403838
1.36146
0.00022912
0.0337909
0.000324944
0.000352995
2.37072
0.000271513
0.000637227
0.0322669
0.000425062
8.83835e-05
1.64818
0.000194247
0.0443954
0.00033951
0.0159324
0.0126405
0.0108017
0.000433281
0.000406727
0.0329906
0.000214541
0.00017532
0.00947082
0.00030735
0.00150651
0.000173822
5.00183
3.64471
1.72162
0.000241219
0.0157933
7.22738e-05
4.79028
0.0922641
4.25783
0.00943755
0.000410586
4.19746
3.80965
0.000107035
0.000424431
0.0091435
0.000246813
2.88325
3.03432
0.00048725
0.0464324
0.000203784
2.18217
1.37053
0.000342778
0.0636022
2.73057
0.000219453
3.75548
0.000418127
5.05782
0.000219141
0.00393003
0.000415726
3.61538
0.0262993
0.0250677
0.000311573
1.47211
1.67603
5.0356
0.000238005
0.000117757
0.00454934
1.80014
0.000133742
0.0219718
0.000204438
0.00616097
2.68134
4.26293e-05
0.0144363
0.000329197
0.000218509
0.0157943
2.36172
0.000462423
0.0245845
0.000454729
0.000641985
3.38615
4.59433
1.85855
0.00443452
0.0173436
0.0978943
0.00392493
0.000571359
7.65606e-05
0.000120551
2.56946
0.000202295
0.000902854
0.0870124
0.00051756
0.00145192
0.000679097
0.000334851
0.0413444
0.000145859
0.000447193
0.00766097
1.77481
0.000453071
0.000207869
2.90826
0.0121976
0.000125537
0.00135559
0.0500466
0.000280893
0.000477035
9.95579e-05
0.165179
0.000179989
0.000195561
0.0273125
0.000167798
0.000526646
0.00570761
0.00509034
0.000237881
0.00125962
5.35555
0.000384626
0.000123366
0.000178437
0.000107875
0.00193237
0.000401582
3.29739
5.27868
0.0109831
2.40405
0.000204327
0.000109046
0.000146677
0.000190302
0.000507048
0.000420957
0.00682378
0.00188552
0.000332887
0.00103777
0.0356208
0.0132559
0.00356293
0.0275031
0.000213446
0.00074752
0.000134618
0.00412904
0.0443712
3.22667
0.0406548
0.0549202
0.000218801
5.02459e-05
0.000288706
0.000436171
8.46278e-05
4.63159
3.44402e-05
0.0121572
0.000160137
2.02258
0.851541
2.72776
2.42522e-05
0.000146909
0.000120327
3.86926
2.56218
0.0218203
0.00408579
0.000353575
4.17141e-05
0.000470831
3.49689
5.79628e-05
0.000164489
0.0230471
0.000280385
0.000237612
7.53459e-05
0.000308393
0.00483814
0.00153307
0.00014197
0.000105293
0.004467
0.000113423
1.15796
3.92382
0.000216275
0.0310433
0.000373146
2.70306
0.000124142
0.000123482
0.000128854
0.000175413
0.10916
0.000414702
0.000174389
0.000404409
0.0124667
0.000262091
0.000413229
0.000285561
4.06741
0.0299919
0.00767603
5.06952
0.033541
1.38666
2.74181
3.56058e-05
0.000178936
0.000133548
3.77166e-07
0.000320023
0.0314359
0.000497707
0.000259617
0.00492813
5.5974e-05
8.24581e-05
0.0129928
0.000155928
0.000165534
0.000129121
0.00789138
0.00958471
4.01412
4.33407e-05
2.20329
0.0363684
1.20059
0.0125787
3.96969
3.97544
2.91902
0.000135937
0.000429602
2.53194e-05
0.00984334
0.000244704
0.0719509
0.945954
0.000102341
0.0638071
0.0365729
0.000218243
0.000124345
0.000323784
5.06738
4.62158
0.000168788
0.0398488
0.0437937
0.00453182
2.41536
4.62871e-09
0.000123375
0.013446
3.64178e-05
0.825273
0.0427979
2.94696
0.0418743
0.00012523
0.0422639
0.000405953
2.59197e-06
0.0206485
0.00126148
0.00334069
0.000156023
0.000196986
0.0474002
0.000439275
0.000177011
0.000191073
0.000329917
0.0281693
0.000540143
3.53419
0.0319038
0.000205927
0.613543
0.000373114
0.0964572
0.000671386
7.81427e-05
0.000218094
0.013441
0.00937565
4.41032e-05
0.000258523
4.24566
4.41434
0.0384007
0.000426751
0.0222257
0.0417576
0.0477973
5.79305
0.0218743
0.00330485
0.00015196
3.26442
0.000307808
0.000116076
0.00443306
2.03416
4.55856
0.000246488
0.000350728
1.61645
0.000132399
4.67604
2.08321
0.000233048
0.000243252
4.28872
0.983803
0.960889
0.000117046
0.000146415
0.000181748
0.0197063
0.0254878
0.000163919
0.000115583
0.000761015
0.0361165
0.00114424
0.0164498
0.98022
4.22188e-05
0.000208628
5.39184
4.78046e-05
0.00831007
0.000611038
0.0128976
0.000197602
0.000383726
0.0503035
0.000301093
0.000109372
9.0206e-05
0.0103206
0.00902405
4.51836
0.000136247
0.000120368
0.000244787
0.0256575
0.0991415
5.15038
0.000384274
0.0122575
0.0313332
2.62715e-06
0.000131422
0.00129894
2.54283
0.000284947
0.0811159
0.000461965
7.49569e-06
0.0227338
0.000412048
4.64938
3.09812
0.0230296
3.60638
3.94444
4.97536
4.96242e-05
2.24893
0.0229275
0.000188745
0.0316227
0.000265657
0.0013655
0.0577325
0.000400714
0.00297115
0.0144741
5.34928
0.000336168
0.000219237
2.16218
0.00265343
0.000481288
0.0339718
1.08842
0.124743
8.63354e-05
0.00559581
5.11173
2.895
0.0462358
0.00675894
1.45518
0.00223659
0.000169961
0.0173192
1.9667
0.000271363
0.0492847
0.0014141
2.10004
0.000485239
0.0193915
0.900176
4.87712e-05
0.000922828
9.08022e-05
2.45724
0.0939902
2.2712
1.29641
0.000499942
0.0140318
0.0142676
0.00353885
0.894159
0.00468285
0.000119743
0.000439512
0.00037875
0.00020504
0.0223725
2.78376
0.000318479
2.41961
0.000255063
0.0507876
5.91397e-05
0.000277331
0.000115181
2.97568
2.02878
0.0114342
0.0105117
0.000208817
0.000291541
0.0434118
9.82235e-05
0.0905333
0.0272416
3.15803
0.000626504
0.0153187
0.04572
0.000456969
0.00052478
0.000612284
3.2294
0.000550426
0.00382805
0.0489802
0.0324591
0.000373913
0.00348489
0.00013103
0.000279712
0.000531426
0.000274003
0.00626685
0.000182068
0.00702915
2.23983
0.0934362
2.89347
0.000248579
0.00595977
0.0151127
0.000227594
1.08597
0.000707012
0.00193305
3.54178
0.000467892
0.0146648
0.00220116
0.000107799
1.52937
7.32189e-05
0.0198035
0.000231127
0.0366086
0.0409541
2.72989
0.000284075
0.0447582
0.00021599
0.0206386
0.000432202
2.76613
0.0182078
0.0082508
2.74181
0.000898361
4.29085
0.000329569
1.34087
0.000893439
0.000117918
0.000491924
0.0206102
0.0316042
0.000492848
8.58997e-05
0.0650498
0.000137213
9.88105e-05
0.00033283
0.000233431
0.000348462
5.20109
0.000516565
0.000302348
0.0439077
0.0107293
4.95556
0.000170072
0.00013516
0.000259893
0.0159285
0.00057625
0.00119944
3.74963
0.0213426
0.0301067
0.000161029
0.00380453
0.0231896
2.51667
0.000111782
7.33329e-05
0.00106924
0.000558427
0.000241077
0.0502795
4.56731
1.54142
0.01501
0.000200075
0.0448093
3.16643
0.00810503
0.047827
0.00046701
1.1423
2.64468
4.60386
0.000364921
0.000372963
0.00548077
2.19903
0.00052181
4.5005
0.00170068
0.0187791
1.67699
0.000114057
0.000726729
0.00173374
5.70633e-05
4.14034e-05
0.00366538
1.00554
3.88391e-05
2.17947
0.00019805
0.000238383
0.000174008
6.86302e-05
0.00497515
0.000748233
0.0935758
0.0143749
0.000428487
0.000465395
1.2843
2.63773
0.000120792
0.00034862
0.000291755
0.0767979
1.08713
0.00676803
3.73679
0.000174091
5.50875e-05
0.0043524
0.000326533
0.00544318
0.0414965
0.000161439
0.000192574
5.19838e-05
0.00306954
0.0167259
4.45149
0.0446075
5.83901e-05
0.00645025
7.46878e-05
3.38532
3.70674
0.000138786
5.37888e-05
0.062759
0.000235547
0.000560577
1.25863
1.01146
0.00345685
6.76351e-05
0.000300488
0.0188608
0.990259
0.000449546
0.000372762
0.886962
2.34184
1.33778e-06
0.000213033
0.000280754
0.000262514
0.0226984
0.00421776
0.000282768
0.048475
0.000392265
0.000172944
0.000302498
0.00557413
0.000265515
3.95641
1.67778
3.20935
0.835438
0.109245
2.78801
0.000215617
3.19769
0.00606123
0.000126395
0.00783357
0.000411465
0.00507766
0.00016846
0.000289769
0.000431698
2.38661
0.000127963
0.0100308
0.0425829
0.00203976
0.00599511
0.0203128
4.57955
0.000140751
4.25852
3.16499
0.00167186
0.000262525
0.00478382
0.0100963
0.00376415
0.0384702
5.00129
0.000187381
0.000370493
0.000241243
0.0226071
3.55423
0.000494854
0.00152016
0.000140637
0.000125199
0.000684116
0.0140599
5.48262e-05
0.00237864
0.0045473
1.54258
9.33708e-05
0.00542995
3.2571
0.000400446
0.00685256
0.00414433
3.15523
0.00751506
0.0261197
0.00395391
0.000238545
5.02906
2.10557
0.000360922
0.0163239
0.0302444
0.000120823
0.000667306
0.000203121
0.0238831
0.000208604
0.0064731
7.91301e-05
0.0417809
1.42195
0.0565632
1.41978
0.0051886
0.000565025
0.062836
0.0396794
0.00161055
0.000370868
0.00121035
2.69257
0.000204389
0.00622826
0.000329082
0.000409784
0.0174383
0.000595404
0.000303468
0.000123716
2.41526
0.0626383
6.46058e-05
0.000371084
4.79413e-05
0.00017366
0.00038991
1.38544
0.000317365
0.0459536
2.01092
0.0347604
6.33804e-06
0.0500525
0.926222
0.0974931
1.19823
0.0037717
0.0261388
3.07746
3.15758
0.000104169
1.91862
0.000109181
3.53947
0.348058
4.59083e-05
0.0069287
0.0288259
4.69312
0.012529
0.00851603
0.000180499
0.0367333
1.82254
0.0515841
3.18118
0.000455427
0.0959863
6.42832e-05
2.08691
0.00592793
0.000303683
0.000379396
0.0707179
0.000492304
0.00204211
0.105591
0.000153754
1.39619
0.000301344
0.000169802
0.148652
0.037563
0.00164304
0.00442786
0.0340975
0.000500163
0.00832969
0.0945129
9.26089e-05
0.0119158
0.000178366
1.24639
0.0160865
0.000137091
4.10432
7.31414e-05
0.00642736
0.0844051
0.000159622
0.00027889
0.00603921
0.0179472
0.034021
0.000299057
4.53585
0.000465934
0.0074782
4.35445
0.00737238
0.000410894
0.0890544
0.000342824
0.000186565
2.36922e-05
0.0509503
1.91756
0.000398099
2.51266
0.00538921
0.000392128
0.0293331
0.000261182
0.000802186
0.00930268
0.000265848
0.00013415
0.0330359
0.000626963
0.000188876
0.000300571
1.37956
1.94002
0.00270122
7.75183e-05
0.000214366
0.0104543
4.44087
0.00030887
0.000467058
0.00719545
2.76695
0.000570589
0.0316489
0.00910343
0.000119382
0.00605721
3.30721
0.000272084