/*--------------------------------*- C++ -*----------------------------------*\
  =========                 |
  \\      /  F ield         | OpenFOAM: The Open Source CFD Toolbox
   \\    /   O peration     | Website:  https://openfoam.org
    \\  /    A nd           | Version:  10
     \\/     M anipulation  |
\*---------------------------------------------------------------------------*/
FoamFile
{
    format      ascii;
    class       volScalarField;
    location    "1250";
    object      k;
}
// * * * * * * * * * * * * * * * * * * * * * * * * * * * * * * * * * * * * * //

dimensions      [0 2 -2 0 0 0 0];

internalField   nonuniform List<scalar> 
10435
(
1.3492
1.51334
1.7561
1.89378
2.03602
1.91353
1.74356
1.6932
1.53778
1.81891
1.78044
2.03376
1.77316
0.91259
0.94112
1.81176
0.890369
1.85624
1.40501
1.4509
1.75358
1.81071
1.82552
1.64847
1.8095
0.571247
0.732355
1.73951
0.682124
1.83461
1.89774
1.89233
1.65062
0.689942
1.77898
1.1107
1.84509
0.747789
0.457956
1.50889
1.8974
1.76712
0.709167
1.70481
1.8883
1.58875
1.88762
0.697848
1.44289
1.66899
1.73575
1.90253
0.44495
0.620839
0.485741
0.638978
1.82788
0.765559
0.838956
1.7297
0.476216
1.36584
0.757528
1.95
1.86035
1.76956
0.795067
0.797772
1.71795
1.67038
0.615185
0.669238
0.555191
1.79396
0.979157
0.69985
1.71321
1.73438
1.5883
0.973306
1.73378
1.20507
0.432396
0.62766
1.74291
1.0944
1.25008
1.70885
1.00423
1.361
1.8129
1.90359
1.28721
1.06661
1.47857
1.00805
1.97776
0.942223
0.866672
2.01851
0.969478
2.10716
1.15007
1.59674
2.06209
1.8061
1.37209
1.70928
1.74791
1.01561
1.60806
2.13929
1.131
1.0678
1.97789
1.73722
2.0434
1.19502
1.66973
2.05257
2.05318
0.608148
1.30809
0.755476
2.10371
0.524534
2.03096
0.643416
2.02033
0.749414
0.698102
2.0118
1.78046
0.939297
0.70949
0.400986
0.909215
1.9586
1.55175
1.64895
1.55226
1.89514
0.758301
1.99768
1.86258
0.838171
0.822784
1.91948
0.857602
2.01654
0.654609
1.90465
1.37342
1.99352
1.86751
0.61153
2.15245
1.42926
1.83744
1.70284
1.95685
0.911909
1.88205
1.92017
1.03019
2.02931
1.6565
2.01028
1.89411
2.00089
1.83775
0.500636
0.672111
0.876886
1.98577
1.52049
1.2308
0.813266
1.53639
0.721467
1.65108
1.95227
2.03378
0.500608
1.92802
0.632629
0.634729
1.7404
2.02845
1.95183
2.05385
0.423805
0.721046
1.02096
2.15504
1.73289
0.788623
1.01026
0.758383
1.8378
1.02369
0.724525
1.75044
0.753977
1.75236
1.99196
1.78375
1.99645
0.764361
1.89145
0.591562
1.79563
2.0418
1.95751
0.718357
0.877475
1.09221
0.484623
0.577825
0.888985
0.696969
0.851685
0.788276
0.834485
0.601969
1.78827
0.513844
0.947929
1.91103
0.722533
0.823853
1.72874
0.543877
1.91207
0.777778
0.870538
1.80488
0.608066
1.80496
1.86005
1.59716
0.556007
0.497877
0.639725
1.93963
1.57711
0.924458
1.69891
0.546894
1.338
0.570541
1.09193
1.79179
1.90469
1.71228
1.99357
0.504071
1.7189
0.563583
0.707192
1.72443
1.86838
0.560901
1.80935
1.16541
0.845464
1.48488
1.86072
0.464677
2.0141
1.72816
1.65368
1.69323
1.78869
0.615314
2.05519
0.744749
2.051
1.77583
1.62463
1.79188
0.789352
1.72726
0.913077
1.17205
0.445003
1.9926
0.484109
0.633281
0.705528
0.858763
1.87331
0.76116
1.67288
0.465004
0.606414
0.808343
1.2521
2.03614
1.83427
0.787816
1.82715
1.72505
0.58935
1.97858
0.906373
0.846025
1.91423
1.80448
0.635171
1.45715
0.68851
1.16382
1.96202
1.62901
0.606663
0.51074
1.96008
0.817125
2.01926
2.01677
0.723983
1.26732
0.415742
1.5841
1.76302
0.657206
1.72512
0.820954
0.764927
1.63889
0.727418
0.633503
1.73886
1.9768
0.776211
0.606809
0.570794
0.655038
0.650929
0.686559
0.643008
0.46579
0.672901
0.64806
0.65793
0.788951
0.792886
0.408261
1.53485
0.63813
1.77123
0.717908
1.72877
1.53677
1.37966
1.76642
1.82602
0.6333
0.665872
0.587176
0.536713
0.637425
0.453236
0.703221
0.708071
0.772019
1.98443
0.691165
1.50207
0.510498
0.73313
1.78883
1.29337
0.446076
0.735588
0.752383
0.761732
0.66234
0.608576
0.862966
0.495793
1.61523
0.795745
1.68193
1.49144
1.73663
1.75018
1.44612
1.73354
1.71084
0.761795
0.565504
0.668996
0.617554
1.73354
0.649795
1.79777
0.833478
0.728167
0.74749
0.749548
0.528103
1.77226
0.757173
1.65415
1.91432
0.514718
0.642505
0.788945
1.3306
0.798403
0.668262
0.573545
0.638483
0.745462
0.687561
1.7443
0.614457
0.643752
0.687653
0.699822
1.85932
0.444865
0.41043
1.18358
0.659128
0.115511
0.113152
0.109203
0.104394
0.0991392
0.0935559
0.0877627
0.0819102
0.0761797
0.115282
0.112396
0.108229
0.103374
0.0981406
0.0926938
0.0871659
0.0817436
0.0766675
0.114717
0.11147
0.107136
0.102246
0.0970765
0.0917879
0.0865277
0.0814808
0.0768724
0.11408
0.110576
0.106096
0.101187
0.0960942
0.0909646
0.0859441
0.0811969
0.0769018
0.113594
0.10989
0.105273
0.10035
0.095327
0.0903383
0.085515
0.0809906
0.0768864
0.113462
0.109584
0.104832
0.099885
0.0949102
0.0900308
0.085358
0.0809967
0.0770323
0.113922
0.109857
0.10495
0.0999514
0.0949916
0.0901819
0.0856142
0.0813745
0.0775335
0.115333
0.11094
0.105822
0.10073
0.0957443
0.0909596
0.0864496
0.0822888
0.0785458
0.118049
0.113057
0.107669
0.102436
0.0973808
0.0925715
0.0880659
0.0839258
0.080212
0.122109
0.116382
0.110727
0.105325
0.100162
0.095278
0.09072
0.0865337
0.0827563
0.127214
0.121048
0.11525
0.109692
0.104394
0.0993916
0.0947283
0.0904385
0.0865409
0.133025
0.127246
0.121523
0.115856
0.110413
0.105258
0.100447
0.0960126
0.0919762
0.139989
0.135411
0.129904
0.124159
0.118553
0.11321
0.108212
0.103598
0.0994049
0.150155
0.146255
0.140804
0.134908
0.129082
0.123501
0.118264
0.113427
0.109038
0.164492
0.160259
0.154494
0.148286
0.142143
0.136248
0.130708
0.125579
0.120887
0.182921
0.17741
0.170969
0.16428
0.157714
0.151427
0.145522
0.140063
0.135076
0.204156
0.197195
0.189955
0.182698
0.175638
0.1689
0.162581
0.156755
0.151484
0.22672
0.218957
0.211072
0.203272
0.195705
0.188491
0.181726
0.175487
0.169845
0.250393
0.242355
0.234044
0.225783
0.217742
0.210063
0.202848
0.196178
0.190113
0.275347
0.267358
0.258768
0.250121
0.241657
0.233552
0.225918
0.218841
0.212401
0.301938
0.294114
0.285275
0.276268
0.26743
0.258957
0.250956
0.243505
0.236682
0.330674
0.322852
0.313632
0.304235
0.295074
0.286316
0.278039
0.270297
0.263161
0.362337
0.353797
0.343866
0.334008
0.324591
0.315676
0.307266
0.299374
0.292091
0.397941
0.387003
0.375832
0.365464
0.355925
0.347048
0.338707
0.330837
0.323541
0.43862
0.421928
0.409127
0.398399
0.389003
0.380452
0.372455
0.36486
0.357006
0.203389
0.203429
0.204104
0.205415
0.207372
0.209969
0.213197
0.217029
0.221442
0.226391
0.23183
0.2377
0.243926
0.250436
0.257132
0.263918
0.27069
0.277335
0.283741
0.289793
0.295362
0.300313
0.304464
0.307526
0.309335
0.31001
0.309603
0.30804
0.305046
0.300901
0.295725
0.289544
0.282405
0.274434
0.265756
0.256499
0.246797
0.236786
0.226602
0.216384
0.20626
0.196358
0.186787
0.177647
0.169022
0.160982
0.15358
0.14687
0.140881
0.135632
0.131113
0.127296
0.124141
0.12159
0.119597
0.118109
0.117083
0.116482
0.116272
0.203643
0.204016
0.20498
0.206544
0.20871
0.211466
0.214792
0.218663
0.223052
0.227924
0.233233
0.238924
0.244933
0.251183
0.257592
0.264067
0.27051
0.276815
0.282876
0.288581
0.293817
0.298464
0.302393
0.305446
0.307453
0.308276
0.307841
0.306133
0.303213
0.299197
0.294163
0.288159
0.281243
0.273497
0.265021
0.255932
0.246352
0.236414
0.226253
0.216004
0.205799
0.195767
0.186028
0.176694
0.167865
0.159627
0.152051
0.145191
0.139083
0.133735
0.129135
0.125247
0.122023
0.1194
0.117324
0.115742
0.114607
0.113881
0.113524
0.200933
0.201377
0.202376
0.203938
0.206066
0.208756
0.211997
0.215767
0.220038
0.224774
0.229931
0.235454
0.241281
0.247342
0.253555
0.259834
0.266084
0.272206
0.278094
0.28364
0.288727
0.293234
0.297026
0.299957
0.301889
0.302714
0.302362
0.300806
0.298073
0.294231
0.289355
0.283513
0.276772
0.269214
0.260933
0.252035
0.242634
0.232855
0.222826
0.212676
0.202536
0.192534
0.182795
0.173437
0.164568
0.156285
0.148665
0.141769
0.135629
0.130252
0.12562
0.121698
0.118436
0.115776
0.113661
0.112039
0.11086
0.110089
0.109685
0.194759
0.195212
0.196201
0.197735
0.199812
0.202427
0.205568
0.209214
0.213339
0.217909
0.222881
0.228205
0.233823
0.239668
0.245664
0.251729
0.257772
0.263695
0.269397
0.274766
0.279689
0.284043
0.287701
0.290536
0.292424
0.293264
0.292989
0.291571
0.289022
0.285389
0.280733
0.275122
0.268629
0.261335
0.25333
0.244714
0.235594
0.226086
0.21631
0.206393
0.196461
0.186641
0.17706
0.167838
0.159089
0.150912
0.14339
0.136583
0.130523
0.125218
0.120651
0.116787
0.113569
0.110941
0.108849
0.107241
0.106069
0.105299
0.104891
0.186244
0.186703
0.187678
0.189174
0.191192
0.193727
0.196765
0.200288
0.204269
0.208677
0.213469
0.218599
0.22401
0.229639
0.235414
0.241255
0.247076
0.252781
0.25827
0.263436
0.268168
0.272347
0.275857
0.27858
0.280409
0.281257
0.281061
0.27979
0.277446
0.274056
0.269668
0.264343
0.258152
0.251174
0.243496
0.235213
0.226429
0.217254
0.207804
0.198201
0.18857
0.179038
0.16973
0.160767
0.152263
0.144316
0.137008
0.130397
0.124517
0.119371
0.114943
0.111194
0.108074
0.105527
0.103498
0.101936
0.100797
0.100044
0.0996401
0.175418
0.175835
0.176752
0.178177
0.180108
0.182541
0.185463
0.188854
0.192688
0.196934
0.20155
0.206491
0.211701
0.21712
0.222677
0.228295
0.233891
0.239373
0.244643
0.249599
0.254135
0.258141
0.261506
0.264126
0.265903
0.26676
0.266638
0.265509
0.263364
0.260223
0.256122
0.251114
0.245267
0.238655
0.231362
0.223479
0.215102
0.206337
0.197299
0.188107
0.178881
0.169745
0.160822
0.152231
0.144082
0.136472
0.129479
0.123159
0.117542
0.112634
0.108415
0.104848
0.101886
0.0994749
0.0975602
0.0960922
0.0950272
0.0943304
0.093966
0.162559
0.162906
0.163739
0.165067
0.16689
0.169202
0.171993
0.175244
0.178928
0.183012
0.187458
0.192217
0.197237
0.202457
0.207809
0.213218
0.218604
0.223876
0.228941
0.233702
0.238057
0.241901
0.245137
0.247668
0.249404
0.250275
0.250231
0.249241
0.247295
0.244402
0.240595
0.235919
0.23044
0.224232
0.21737
0.209944
0.202041
0.193762
0.185223
0.176535
0.167813
0.159176
0.150738
0.142617
0.134918
0.127734
0.121139
0.115185
0.109902
0.105293
0.10134
0.0980072
0.095249
0.0930135
0.0912486
0.089906
0.0889439
0.0883284
0.0880252
0.147486
0.147693
0.14838
0.149559
0.151234
0.153402
0.15605
0.15916
0.162705
0.166649
0.170953
0.175565
0.180428
0.185482
0.190662
0.195901
0.201124
0.206237
0.211151
0.215763
0.219976
0.223691
0.226827
0.229303
0.231023
0.231932
0.231982
0.231148
0.229404
0.226756
0.223238
0.218893
0.213798
0.20803
0.201639
0.194721
0.18736
0.179641
0.171693
0.163606
0.155487
0.147444
0.139586
0.132023
0.124861
0.118181
0.112061
0.106547
0.101661
0.097406
0.093766
0.0907097
0.0881941
0.0861723
0.0845962
0.0834199
0.0826025
0.0821106
0.0819101
0.129873
0.12983
0.130284
0.13126
0.132768
0.134801
0.137334
0.140323
0.143772
0.147682
0.151945
0.156502
0.161279
0.166203
0.171248
0.176345
0.18147
0.186572
0.19147
0.196015
0.200129
0.20374
0.20681
0.209258
0.211009
0.212002
0.212199
0.211567
0.210046
0.207618
0.204365
0.200349
0.195648
0.190351
0.184502
0.178103
0.17128
0.164256
0.15704
0.149653
0.142237
0.134895
0.127713
0.120785
0.114203
0.108084
0.102494
0.0975092
0.0931212
0.0892797
0.0859698
0.0831898
0.0809214
0.0791248
0.077751
0.076765
0.0761298
0.075809
0.0757685
0.637515
0.594067
0.555063
0.517996
0.481982
0.446879
0.412909
0.380423
0.349773
0.321253
0.295693
0.273974
0.256353
0.242465
0.231156
0.221769
0.214467
0.209362
0.206264
0.204617
0.203937
0.203819
0.203883
0.203743
0.202922
0.607137
0.580588
0.548312
0.513856
0.47872
0.443703
0.409463
0.376588
0.345606
0.317077
0.291611
0.269656
0.251362
0.236579
0.22491
0.215948
0.209392
0.204972
0.202388
0.201263
0.201177
0.201737
0.202578
0.203352
0.203676
0.601913
0.574705
0.543076
0.508978
0.473728
0.438309
0.403567
0.370236
0.338965
0.310341
0.284838
0.262755
0.244211
0.229151
0.217371
0.208576
0.202408
0.198478
0.196396
0.195768
0.196186
0.197255
0.1986
0.199866
0.200722
0.601969
0.571519
0.53829
0.50321
0.467214
0.431173
0.395916
0.362203
0.330702
0.301969
0.276408
0.254266
0.235649
0.220534
0.208778
0.200116
0.194182
0.190545
0.188775
0.188448
0.18915
0.190479
0.192055
0.193521
0.19452
0.603188
0.569609
0.534137
0.497417
0.4602
0.423249
0.387328
0.353153
0.321354
0.292442
0.26678
0.244589
0.225962
0.210879
0.1992
0.190659
0.184881
0.18142
0.179822
0.179639
0.180446
0.181841
0.183446
0.184925
0.185978
0.603955
0.56763
0.529821
0.491243
0.452605
0.414599
0.377907
0.343188
0.311021
0.281876
0.256088
0.233859
0.215266
0.200268
0.188702
0.180281
0.174613
0.17124
0.169694
0.169517
0.170278
0.171577
0.173049
0.174377
0.175273
0.604366
0.565306
0.525063
0.484524
0.444379
0.405234
0.367688
0.332342
0.29974
0.270314
0.244384
0.222135
0.20362
0.188753
0.177335
0.169042
0.163459
0.160119
0.158542
0.158267
0.158854
0.15991
0.161077
0.162055
0.162617
0.604584
0.562371
0.519548
0.477028
0.435378
0.395078
0.356627
0.320582
0.287482
0.257738
0.231656
0.209415
0.191041
0.176368
0.165144
0.157003
0.151497
0.148153
0.146491
0.146039
0.146349
0.147026
0.1477
0.148062
0.147965
0.604066
0.558365
0.512956
0.468553
0.425499
0.384077
0.344717
0.307883
0.274206
0.244115
0.217858
0.195665
0.177551
0.163155
0.15219
0.144244
0.138817
0.135443
0.133667
0.133006
0.132972
0.133192
0.133193
0.132514
0.13112
1.83565
1.81489
4.86505
2.77213
0.0835225
0.0982666
1.27334
0.0458563
4.06144
0.0743485
2.74391
0.0946932
0.609961
0.148172
1.34911
0.121901
3.02507
2.45552
0.0708721
0.903491
0.562757
0.116319
3.10852
0.208635
0.0376903
0.0629066
0.0371522
0.399742
2.05849
2.89458
0.0718722
0.076501
3.58012
0.715062
2.85021
0.0745177
1.16197
1.35539
1.21564
0.108454
3.93456
0.0163104
0.0925216
0.74278
0.296009
0.159547
3.57072
4.05612
2.4867
2.79768
3.38129
3.5521
0.558581
2.28185
1.2265
4.05396
0.136311
0.546926
0.0521025
3.27848
0.0943518
5.19482
0.0822376
0.128482
0.0474817
0.685329
0.0878595
0.358897
0.625661
2.6937
3.88267
0.141359
0.0566018
0.954033
0.0399869
0.5533
1.06314
3.99464
0.0387988
1.97994
0.684932
0.118412
0.0561347
2.65601
0.084677
0.0969063
0.0543636
3.97057
3.61673
0.168854
0.218965
0.112451
0.0857497
0.0989158
0.0632374
2.76922
0.0636788
2.92287
0.0375877
3.25043
0.216155
3.94532
0.238859
0.146659
0.0469552
0.296564
3.27297
0.67868
0.0314663
2.91052
0.117885
0.0761827
3.37157
0.143134
0.552336
2.45694
3.51278
0.103015
0.570463
0.0497449
0.00557926
0.0756419
0.20668
0.0386215
3.66798
0.0897648
3.58736
0.825731
0.0560921
4.05353
0.053702
0.959204
2.72432
1.07402
0.465788
0.0539015
0.286127
0.158213
0.0937449
0.902993
0.12056
1.16568
3.33198
0.00727536
2.2088
0.137822
3.03792
0.806977
0.1204
2.8172
0.524984
0.126945
3.0524
1.54425
0.0469972
2.61509
0.0425253
0.100953
1.1854
0.0754987
0.0928451
3.86608
0.100768
3.05105
0.0921971
3.01596
0.156986
0.0361563
0.154948
0.0449588
0.134337
0.135362
0.363794
2.8028
0.0880778
0.334543
0.828755
2.39705
2.79073
0.122054
0.966685
0.0743699
0.560498
1.01114
0.616646
0.0413964
3.17782
0.0300869
3.01418
0.109741
3.78196
3.29515
2.6181
1.13968
1.43661
3.20265
0.0392515
0.113249
2.33553
1.90493
0.735283
0.179916
0.112056
0.112306
0.368024
0.0797905
0.091983
0.237538
2.61201
0.0952058
0.0462805
0.0974983
0.941558
0.34606
0.620173
4.08358
0.0647332
0.0488557
0.181345
0.215765
0.205293
0.0189887
0.0500944
5.36274
0.297622
3.60453
0.158803
3.04183
0.0282807
0.0605949
2.49339
0.0764191
0.0725391
0.0464476
1.2048
0.0771506
1.25881
0.290664
1.03847
1.60866
0.0717719
0.0935107
0.0901217
0.546959
0.0547734
0.056205
0.0774406
0.360168
0.120149
0.0800412
0.0237363
0.356482
0.0773474
2.47182
0.0578538
0.0361254
3.23819
1.08197
1.2062
0.0709379
0.34952
0.0634234
0.090704
0.0438412
0.981697
0.0395005
0.0807947
3.41826
1.27171
0.0362031
0.625839
2.67834
0.0427394
0.046557
0.0722596
3.41326
0.0990861
3.86397
0.146384
3.54788
0.742358
0.549968
0.3309
0.158411
2.79694
0.103056
0.313388
0.700127
3.4648
3.86217
1.57849
0.106546
0.0129336
3.57472
1.06799
4.07968
3.95292
0.100117
0.0769208
2.99011
3.41982
0.0934578
0.123452
0.116745
3.82893
0.0854472
0.561673
0.078075
0.89942
0.116625
0.14376
0.110783
3.31734
0.0509354
0.0410175
1.1467
3.83605
0.0787138
0.0380324
1.27582
1.19117
0.0797243
0.129648
0.0713144
0.0567052
0.0395425
3.46748
0.696126
0.0970485
0.555308
0.0909704
1.41772
0.176625
0.0755332
3.8833
0.101878
0.0668045
0.0601626
0.00386345
0.346363
0.0990312
0.0898199
3.0534
0.107054
0.986821
0.0643869
0.111374
0.0572788
0.0514236
3.3936
1.52107
0.0860824
0.0258743
1.21782
3.62049
0.262058
1.48367
0.74008
0.0894178
3.57857
2.64695
2.83406
0.0722714
3.55553
0.0141608
0.0500812
0.14373
3.96576
0.0862645
2.90598
0.130945
1.52671
2.06142
3.52497
0.609496
0.0411794
0.0517919
0.0954795
0.0735891
0.0758038
3.94072
0.127102
3.64611
0.787908
0.761956
1.32459
0.0938081
0.903199
2.62847
3.78943
0.917255
0.0800096
0.264005
3.343
0.950416
0.0723869
0.0853712
3.52129
0.100138
2.09078
0.046196
0.094019
0.0837427
2.38913
0.0842966
0.000333147
1.29978
0.278407
0.908485
0.0715685
2.939
0.0875238
2.96979
0.0909205
0.0720595
0.140294
2.56531
3.39749
0.0869315
0.111208
0.0951069
0.0753054
0.178781
0.267181
0.148945
3.7295
0.00249003
0.142562
0.0754154
0.0774711
0.107815
0.0365992
0.172877
0.0381264
1.51327
0.138062
0.117738
0.0104193
0.0581422
0.136934
0.0751931
1.60561
3.63952
0.819257
0.63849
5.55434
0.322896
3.50724
0.0468402
0.0390225
3.5075
0.0877488
0.0988696
2.9057
0.109174
2.61113
3.42189
0.0977867
0.224767
0.88533
0.108726
0.59662
2.87761
0.897463
3.59464
0.0461828
0.0508342
5.42847
0.0741687
2.67496
0.340285
0.0461974
2.82434
0.138418
0.0388457
0.654187
0.156217
0.0408786
0.834477
0.76168
0.628239
1.21582
0.0041228
0.0909043
2.60295
0.0735472
0.117099
0.15774
2.49718
0.12568
1.39816
0.109475
0.0495538
3.26414
0.0830212
0.064958
1.37034
0.101848
0.0868705
2.87499
0.093544
1.53247
0.0894728
0.477361
0.799402
0.771437
0.109536
0.108841
1.3085
0.0754122
0.102363
0.740022
0.0877018
0.147226
0.0389559
3.94584
3.83708
2.62164
0.0424013
0.66742
0.086314
3.85436
0.906263
4.6309
0.707079
0.165946
3.66704
4.01712
0.0795672
0.150225
0.344918
0.131533
3.72387
3.77124
0.0525869
0.911665
0.0943759
2.86112
2.43021
0.114374
1.25026
2.92355
0.111657
3.47555
0.0317893
5.09266
0.0831376
0.180757
0.10198
3.76114
1.19273
1.21924
0.0554087
2.52499
2.60462
3.92756
0.0467936
0.102037
0.5873
2.7734
0.0770078
1.07658
0.0956028
0.620713
2.85162
0.0724936
0.654669
0.0494605
0.077505
0.385549
3.42462
0.175568
1.25098
0.0562867
0.0816197
3.35782
3.60369
2.82838
0.197508
0.399924
0.93588
0.556395
0.175901
0.0877739
0.0471242
3.49402
0.1075
0.0983457
1.39511
0.16823
0.12996
0.103432
0.124198
1.45458
0.11067
0.0551647
0.666567
2.65319
0.075322
0.0742842
3.07344
0.402917
0.0167319
0.140707
0.814059
0.0607927
0.104704
0.0745203
0.541943
0.0861821
0.0951078
1.21424
0.0550456
0.150524
0.26239
0.567592
0.0624488
0.109407
5.28547
0.140443
0.0432523
0.0787439
0.0993592
0.178519
0.0689857
3.21096
3.90489
0.368228
3.37894
0.049913
0.0359874
0.042885
0.0307836
0.138481
0.0469602
0.604169
0.167946
0.0530224
0.115978
1.31116
0.630568
0.183942
0.680627
0.108447
0.0923887
0.0550654
0.243058
0.894409
3.18473
1.46086
1.23132
0.0285576
0.0743799
0.0227891
0.171547
0.0733061
3.62739
0.07197
0.59773
0.0775935
2.92631
1.51641
2.67847
0.00435322
0.0439783
0.0449906
4.01177
3.52931
0.589319
0.555322
0.0645653
0.0742143
0.0801846
3.3451
0.0100623
0.0703315
1.12535
0.0709318
0.135447
0.0761803
0.0411816
0.566501
0.143323
0.0586736
0.0798455
0.213916
0.0945579
2.25414
3.619
0.0772513
1.31779
0.0891149
2.72851
0.0488528
0.104075
0.0809186
0.0569884
1.45125
0.0980248
0.104011
0.0521756
0.336845
0.0609681
0.160997
0.139193
3.53596
1.31115
0.499329
3.98131
1.41344
2.53058
2.8525
0.0717536
0.0425453
0.0441745
0.000704658
0.105649
0.738833
0.130118
0.0696294
0.59519
0.0806127
0.0734328
0.43587
0.0852945
0.0786307
0.049099
0.50032
0.7483
4.02491
0.0743861
2.89655
1.2028
2.33931
0.610612
4.04683
3.43873
3.7378
0.0454474
0.11662
0.00574862
0.310843
0.0932397
1.07931
2.12293
0.0973651
1.16389
0.834514
0.0588398
0.0483935
0.0865761
3.78969
4.93584
0.063583
1.31449
1.49282
0.580884
3.13245
5.61724e-05
0.0783331
0.447694
0.00785787
1.98895
0.937079
2.95619
1.49245
0.0367277
1.50033
0.0407208
0.00204444
0.574698
0.121228
0.178833
0.0744966
0.0909702
0.568707
0.116917
0.0443551
0.0945555
0.104027
0.432628
0.105557
3.40192
1.38234
0.11022
1.33854
0.134413
0.928277
0.100797
0.0891137
0.130023
0.702125
0.578253
0.00923736
0.133567
3.43511
4.84235
1.06099
0.0958095
0.828756
0.942077
1.37786
5.56152
1.10012
0.210341
0.113026
3.13384
0.034017
0.0446668
0.252168
3.19592
4.58605
0.0726272
0.0758223
2.84434
0.0409728
4.88038
3.12356
0.127841
0.0719073
4.20975
2.1314
2.09254
0.0892274
0.0711841
0.0277985
0.794299
1.17489
0.0883012
0.041451
0.0711516
1.04578
0.106741
0.456132
2.14961
0.0740759
0.081565
5.38205
0.0761148
0.644395
0.0706785
0.674148
0.0843226
0.0552585
0.974222
0.136365
0.0998045
0.0864773
0.383007
0.65119
3.91653
0.0528291
0.0794705
0.0915939
1.27538
0.91648
5.0786
0.0413566
0.690569
1.38609
0.000983756
0.0385204
0.0936917
2.51117
0.0901216
1.0218
0.13256
0.00265784
1.14276
0.112481
4.88884
3.94758
0.775081
3.39395
3.48367
3.76698
0.0766542
3.2815
1.20488
0.123239
1.22871
0.0717907
0.095453
0.914716
0.0967747
0.203978
0.630022
5.32133
0.0456698
0.0377
3.27893
0.182418
0.118314
1.30504
2.24983
1.42083
0.0916699
0.283265
3.99024
2.92828
1.04423
0.615541
2.67792
0.198192
0.0425939
0.755796
2.74471
0.0870678
0.45153
0.143951
3.15372
0.137907
0.961032
2.02489
0.00726446
0.081516
0.0931166
2.91724
1.35946
3.01794
2.35101
0.17443
0.44557
0.621925
0.223846
2.06587
0.541269
0.0732375
0.108571
0.0971116
0.0284935
0.860853
2.7814
0.0432864
2.93477
0.139567
1.27522
0.0817987
0.0689856
0.0439093
3.67306
2.96188
0.381196
0.650454
0.0714804
0.0542794
1.54258
0.0747592
1.39531
1.10432
3.62736
0.0725267
0.347169
1.56217
0.121073
0.16299
0.109636
3.67977
0.104126
0.192609
1.27737
1.33189
0.0512697
0.222916
0.0762098
0.13415
0.0589106
0.0596753
0.582797
0.0540299
0.315307
2.85119
0.917576
3.59912
0.100276
0.287924
0.790744
0.0376187
2.17268
0.0865725
0.122112
3.50057
0.130599
0.425003
0.195485
0.0361077
2.55786
0.0778237
0.360833
0.0392032
1.24943
1.35219
3.5189
0.0495453
1.13627
0.0737744
0.388481
0.123684
3.11112
1.03838
0.301963
2.93982
0.0963589
3.46417
0.092021
2.42068
0.120261
0.0438054
0.101651
0.999725
1.38856
0.0516303
0.091196
0.937117
0.0695707
0.0963197
0.052076
0.0358259
0.117949
4.02942
0.150227
0.100728
1.46755
0.381447
3.75358
0.0255882
0.107776
0.06952
0.205096
0.169184
0.0928866
4.00778
0.226484
0.729288
0.0712171
0.232669
0.863642
2.97831
0.0881797
0.0863752
0.128743
0.164145
0.0781852
0.460628
3.76605
2.29687
0.650582
0.0679323
1.56993
3.6832
0.316902
0.91153
0.124836
2.30299
2.7547
3.59437
0.0890684
0.0930783
0.258203
3.00928
0.177619
4.81819
0.16131
0.443131
2.78923
0.0384465
0.117246
0.126562
0.0772494
0.0722528
0.122257
2.17087
0.0727308
3.29816
0.0844996
0.073837
0.0532945
0.0751351
0.578209
0.0865432
0.946468
0.859273
0.0765368
0.145681
2.36448
2.61105
0.0719618
0.0853427
0.138135
0.515493
1.80226
0.29076
3.46815
0.060074
0.0786936
0.581007
0.0846049
0.357406
1.53944
0.0753131
0.0512105
0.0101711
0.153336
0.975205
4.88518
1.11372
0.0804239
0.277429
0.0732663
3.83127
3.91583
0.0905585
0.0777438
1.17863
0.0866248
0.0599216
2.358
2.15024
0.155441
0.0800854
0.0557241
0.532107
2.17491
0.0730799
0.0470956
2.0351
2.92022
0.00140267
0.0722445
0.0576444
0.141048
0.422515
0.571686
0.0910424
1.34584
0.0944603
0.118794
0.0706805
0.579948
0.0675896
3.48728
2.79312
3.62028
1.98199
1.31835
3.44843
0.0767046
3.62591
0.611181
0.0513227
0.275078
0.05246
0.242348
0.087114
0.0800519
0.0516876
3.33128
0.0380108
0.359615
1.53697
0.124578
0.292085
0.39373
3.57807
0.0222035
3.64921
2.93224
0.120529
0.0605442
0.261981
0.321453
0.232186
1.12104
5.15734
0.122382
0.0533016
0.087327
1.08693
3.86114
0.133365
0.149636
0.0376571
0.0703308
0.107504
0.436627
0.0774502
0.144408
0.270318
2.61649
0.0893211
0.27283
3.44814
0.111713
0.316002
0.242718
3.97536
0.322255
0.388494
0.570667
0.0986103
5.15738
2.82104
0.0756954
0.81577
1.35768
0.08675
0.121801
0.126715
1.23029
0.0742223
0.62899
0.0883167
1.53587
2.65577
0.84473
2.51822
0.189895
0.103975
0.95753
1.09242
0.135553
0.148581
0.0991742
2.75906
0.127296
0.286651
0.063179
0.164367
0.744838
0.079123
0.0542246
0.0701511
3.09933
0.91786
0.0733363
0.161998
0.0710043
0.0835307
0.102267
2.5045
0.15126
0.93244
3.15865
0.778227
0.00276097
1.14048
2.04517
0.912519
2.38274
0.238672
0.93511
3.5366
3.17046
0.0192426
2.74534
0.0865826
3.86648
0.830479
0.075864
0.630869
1.30252
3.86968
0.835394
0.324044
0.0919924
1.26613
2.95647
0.366018
3.57037
0.163665
0.91096
0.0827036
2.90893
0.383471
0.0466449
0.104433
0.889572
0.0614534
0.18495
0.885795
0.0789157
2.42055
0.0386852
0.0999647
1.55471
1.23955
0.154156
0.573267
1.4316
0.170818
0.659741
0.465733
0.0940174
0.41061
0.0469952
2.46732
0.733699
0.0428569
4.07052
0.0871649
0.573956
0.433132
0.114587
0.0639368
0.552458
0.891095
1.24167
0.0568387
3.76033
0.074182
0.643113
3.90792
0.488537
0.155955
1.26954
0.132051
0.0815213
0.00538576
1.26259
3.05075
0.0898978
3.51201
0.274076
0.105144
1.10054
0.114025
0.0978853
0.659288
0.14105
0.0800264
0.288553
0.0767552
0.107258
0.149489
2.59096
2.92632
0.195689
0.0821128
0.0552737
0.684948
3.79422
0.0814642
0.0686292
0.299336
3.6309
0.0772014
1.00879
0.653316
0.0451033
0.600361
3.67221
0.0767159
0.22633
0.0809599
0.574004
0.0689167
0.0792515
0.154557
0.484348
3.00074
0.037237
3.46312
0.0541198
2.83794
0.0999908
1.13684
0.539947
0.948303
2.55199
0.131829
0.662865
0.167579
0.139756
0.144642
2.81947
2.87417
0.0928124
0.0918613
0.421915
0.143905
0.100009
0.0409913
4.07151
3.18071
0.881346
3.59574
0.157288
0.0464567
0.731938
0.219746
2.45732
0.0357713
0.122246
0.0447484
0.103259
0.0860942
0.091943
0.091151
0.465831
3.96538
2.95025
0.0796355
0.296374
0.757109
3.75605
0.0929241
3.77495
2.16363
3.25678
0.126679
0.893265
0.0552865
0.157105
0.115629
0.11884
0.0711244
2.46793
3.71771
0.133404
0.335237
0.885313
0.306216
2.79912
4.09265
0.0910863
0.0509041
0.0978617
0.284716
0.819428
0.0408958
2.71182
0.760643
0.0972548
0.158566
0.155197
0.548696
0.16428
0.062003
0.0903807
0.0689741
0.173053
0.655169
0.146515
3.57439
0.129734
0.102044
0.300484
0.145545
0.0719471
3.54929
2.86309
0.106945
3.02252
0.0753236
1.14964
0.130267
0.16801
0.0753261
0.0494393
2.88519
0.118349
0.145298
3.60426
2.49446
0.0720629
0.0806244
0.0795784
0.152117
1.46159
0.0329444
0.0923855
3.66304
0.0921527
0.0758636
0.133344
3.15857
0.100885
3.02722
2.41291
0.0564709
4.76619
0.143222
0.0360699
4.02299
0.521584
0.0728113
0.00550718
0.571747
0.149715
0.176195
0.0471013
1.32904
2.98523
0.102296
0.0479676
2.87196
0.0986613
1.49177
0.969743
0.105309
0.832918
3.79887
0.0711994
0.759156
0.0920472
0.131176
0.158798
0.0854941
3.38245
2.7576
0.10285
0.0781672
3.36748
0.109614
0.165274
0.15006
0.785491
1.13068
0.0444575
0.0733962
0.0784671
0.0778743
0.0430677
0.00370937
0.130661
0.157091
3.32703
0.580971
0.0822094
1.21289
0.145439
0.990484
3.86639
1.0009
3.0598
0.148654
0.00216246
0.598851
0.161472
0.0967078
2.53341
0.122254
5.72283
2.8571
0.577066
0.121855
3.90956
0.0441678
3.17127
0.0894411
0.0876311
3.69628
0.389058
0.99175
0.106121
0.0799607
0.0467482
0.136907
1.42569
1.01024
0.0972797
1.9706
0.473789
2.84091
0.0380384
3.97739
0.10653
0.0825898
0.345137
0.0847483
0.573388
3.15044
0.731096
0.0500641
2.36686
1.34461
0.339075
0.903525
0.685517
0.0227776
0.648979
3.16277
0.0749422
0.0813097
0.0822507
3.457
0.102553
0.0389234
1.30513
0.677392
0.314345
4.00117
0.810564
0.263349
0.299756
1.27444
0.149341
0.701012
0.0675975
0.0925148
0.0820362
3.48497
0.113377
0.996187
2.9551
0.0373235
0.967745
3.23315
0.0950357
2.73925
0.076544
0.675814
0.158529
0.0400134
0.133995
0.0781237
0.0538795
0.137116
0.103691
0.106085
0.122716
2.56753
0.703914
0.105057
0.665129
0.0702805
0.0945491
0.0721194
0.0990579
0.128816
1.55324
0.0353078
1.44164
2.87576
1.51996
1.07201
0.265249
0.141083
3.478
0.0840141
0.57318
0.106689
0.0815
0.205159
2.99123
0.123118
0.079655
0.0706048
0.248772
0.183761
1.49978
0.668309
1.19664
2.38808
0.087988
0.0620498
2.90027
0.0832494
0.112037
0.049278
0.188991
0.0531707
0.0711878
0.130266
0.0372022
1.12394
3.01847
1.19799
0.164354
0.0773155
0.936708
3.22913
2.76975
0.0465199
0.0991704
0.748761
0.0734832
0.0420012
0.149888
2.94373
0.815761
0.0701843
0.0788002
0.125602
0.0438749
2.90886
0.0624341
0.105362
0.11021
0.102002
2.85378
0.0856366
1.5506
0.12272
0.125181
0.0443693
0.0582906
3.09843
0.459606
0.0677381
3.70381
0.79371
0.665893
0.0502549
0.0849014
1.24157
3.93207
3.985
0.0791461
0.900512
0.0849092
0.0743602
3.33313
2.76685
0.0385035
0.00850296
1.07096
1.47254
0.0763231
0.040126
2.94077
0.0808316
0.224175
0.188436
0.107692
3.16484
0.0830397
0.0886159
0.109012
2.03195
0.0754906
0.0472687
0.0762428
0.115118
0.266464
0.134585
0.558461
0.818129
0.760941
0.111904
0.102273
0.0736647
0.0521183
0.105227
0.0904478
0.676782
0.0940067
0.119492
0.339135
2.16106
0.0621745
0.0389745
0.106292
3.64436
0.0977874
0.9313
0.0332736
0.0794179
0.00902617
0.107883
0.0877915
3.72629
0.115281
0.0551387
0.412258
0.0764563
1.35929
0.0991623
0.0768634
3.13019
3.1483
0.0408899
2.92284
0.0805463
1.05375
1.77058e-05
2.60136
0.0612761
1.31437
0.0844786
3.18982
0.580231
1.10348
3.17451
4.07618
0.124046
3.58463
0.0558522
0.042133
0.0875706
3.16391
0.18996
0.0461606
0.771539
2.60477
2.23395
0.167928
3.85025
0.0444617
0.155124
0.0756029
0.546265
0.15034
1.64982
0.0915115
0.118355
0.0795535
0.0384243
0.157396
2.5527
0.0735505
0.0793164
4.01985
0.657975
0.0402258
0.204654
3.1609
0.10865
0.0935426
3.45529
0.170918
3.78786
1.26802
0.0818147
0.447427
0.875566
0.0359945
0.15045
0.0690233
0.0415652
0.164858
0.158762
2.96912
0.047341
0.880602
0.305693
0.100889
3.0748
1.07234
0.15715
0.081431
0.0361135
0.0562855
0.0410891
0.804001
1.92383
0.07436
0.0906629
0.107576
1.11877
0.136155
0.892927
0.123206
0.0864401
0.121827
0.138533
1.27161
0.133598
0.638665
1.14981
0.000190377
1.34254
0.105825
0.894805
0.571602
0.0914415
0.0863691
0.154648
0.0613796
0.13857
1.18637
3.4823
3.21627
2.83707
0.805682
0.00952324
0.0404192
1.26826
0.0509359
1.42757
3.98312
0.0840287
2.72661
0.90508
2.58591
0.113222
0.0504325
0.0914217
0.0756676
2.43646
0.072639
3.04882
0.282128
0.170886
0.0424675
3.2987
1.17661
0.106451
0.0590438
0.338234