/*--------------------------------*- C++ -*----------------------------------*\
  =========                 |
  \\      /  F ield         | OpenFOAM: The Open Source CFD Toolbox
   \\    /   O peration     | Website:  https://openfoam.org
    \\  /    A nd           | Version:  10
     \\/     M anipulation  |
\*---------------------------------------------------------------------------*/
FoamFile
{
    format      ascii;
    class       volScalarField;
    location    "1250";
    object      nut;
}
// * * * * * * * * * * * * * * * * * * * * * * * * * * * * * * * * * * * * * //

dimensions      [0 2 -1 0 0 0 0];

internalField   nonuniform List<scalar> 
10435
(
0.915785
0.373167
0.566747
0.657988
0.411547
0.410314
0.616101
0.837209
1.0433
0.451979
0.371227
0.713438
0.467064
1.49171
1.424
0.716625
1.54327
0.440392
1.18967
0.868678
0.770743
0.810101
0.652121
1.17477
0.480706
1.7216
1.72438
0.512865
1.57838
0.435903
0.566144
0.377606
0.891582
1.58304
0.885595
0.504043
0.810869
1.79274
1.59796
1.18505
0.424145
0.614058
1.46894
0.676835
0.714337
1.19618
0.419958
1.55901
1.06961
1.00037
0.821382
0.460059
1.55691
1.5664
1.6304
1.51126
0.895375
1.75114
1.60595
0.9912
1.59478
0.388001
1.69346
0.461237
0.677374
0.535544
1.60035
1.66742
0.785078
1.19306
1.56789
1.7967
1.35135
0.564501
1.3351
1.33959
1.16783
0.652824
0.938863
1.41472
1.09077
1.10943
1.51677
1.56704
1.12761
0.722976
0.741369
0.54989
1.04562
0.662194
0.533662
0.52139
1.05324
0.949185
0.607571
0.612623
0.553643
1.26382
1.59557
0.49519
1.15894
0.397575
0.840366
0.573001
0.400567
0.66035
1.01499
1.04659
1.15006
1.3393
0.982801
0.394866
1.18033
1.25888
0.466189
0.806064
0.523508
0.617942
0.440057
0.618763
0.555446
1.26011
0.539021
0.848404
0.375762
1.65359
0.591727
1.16682
0.450205
1.90138
1.02172
0.363795
0.778152
1.48236
1.8148
1.39775
0.511622
0.682799
0.455902
0.817457
0.837435
0.623348
1.5975
0.550075
0.83632
1.26126
0.658037
0.429065
1.49519
0.649082
1.5821
0.76135
0.787447
0.61722
0.443051
1.63556
0.386121
0.486569
0.441404
0.333496
0.665429
1.5362
0.434564
0.892347
1.24231
0.489701
0.922667
0.736376
0.910084
0.497815
0.479817
1.36984
1.57394
1.18952
0.751839
0.322833
0.43027
1.5775
0.980901
1.62028
0.368516
0.408565
0.657081
1.60891
0.658246
1.45969
1.35431
0.685966
0.407469
0.505638
0.614771
1.48267
1.87663
0.40791
0.390687
0.735284
1.42801
0.845256
1.5624
0.755409
1.1429
1.72647
0.488948
1.73477
0.516621
0.423464
0.433431
0.715098
1.66981
0.870271
1.52409
0.6143
0.562573
0.847555
1.66731
1.42935
1.1538
1.50677
1.73254
1.5737
1.60167
1.5906
1.63208
1.07198
1.7003
0.820283
1.6536
0.976638
0.523295
1.25324
1.62358
0.872843
1.68901
0.79712
1.89394
1.57898
0.965151
1.74457
0.980925
0.522216
0.700047
1.65219
1.47903
1.53832
0.420608
0.974033
0.748293
0.765144
1.29541
0.324736
1.39795
1.05193
0.460388
0.892133
0.717486
0.44592
1.2123
0.683971
1.55633
1.65959
0.652441
0.485907
1.68861
1.04925
1.06336
1.61648
0.73494
0.602595
1.53068
0.435797
0.620594
0.833951
0.760128
0.496431
1.78704
0.638762
1.84735
0.400455
0.714593
0.876037
0.467695
1.5036
0.589724
1.09789
0.952958
1.4598
0.418525
1.6137
1.56644
1.60156
0.914854
0.348927
1.64644
0.797947
1.61296
1.55166
1.34427
0.981671
0.39286
0.531665
1.62715
0.976226
0.562885
1.38592
0.383563
1.35207
1.54359
0.832546
0.53394
1.5626
0.990736
1.73526
0.348352
0.416366
0.991137
1.51783
1.58904
0.575165
1.64971
0.740963
0.401934
1.64173
0.861417
1.45159
0.921509
0.488104
1.85737
0.539301
1.63016
1.81178
1.03005
1.59848
1.55574
0.580872
0.71229
1.71029
1.48345
1.36142
1.55203
1.51874
1.8889
1.72158
1.55997
1.57996
1.52108
1.65165
1.68192
1.91911
1.42321
0.97387
1.55076
0.495127
1.68897
0.517052
0.967139
1.09942
0.467709
0.591795
1.55777
1.58066
1.41022
1.68093
1.48838
1.49287
1.62057
1.89558
1.69318
0.78937
1.85558
1.01322
1.65444
1.91242
0.455619
1.15944
1.43354
1.74874
1.72675
1.81907
1.58234
1.77092
2.07821
1.63129
0.902199
1.65818
0.807194
1.00734
0.496725
0.479647
1.04809
0.535361
0.9331
1.145
1.4496
1.5768
1.53946
0.55598
1.57374
0.453665
2.02936
1.63372
1.90825
1.62403
1.56833
0.656049
1.782
0.853963
0.863632
1.44896
1.81998
1.9442
1.15352
2.00124
1.84543
1.63578
1.4966
1.63971
1.58337
0.541343
1.55823
1.79445
1.58081
1.56491
0.439292
1.3819
1.38815
1.23602
1.57086
11.6293
11.6426
11.587
11.5153
11.4649
11.4729
11.5913
11.9004
12.5271
10.6729
10.7027
10.7001
10.6911
10.7048
10.7742
10.9439
11.2758
11.8466
9.6213
9.66188
9.69316
9.72785
9.78729
9.89946
10.1021
10.4443
10.9823
8.50177
8.54769
8.59863
8.66034
8.74839
8.88589
9.10475
9.44612
9.95673
7.35436
7.40112
7.46052
7.53511
7.63626
7.78288
8.00185
8.32861
8.80757
6.22764
6.27185
6.33113
6.40701
6.50805
6.6496
6.85368
7.14949
7.57552
5.17187
5.21142
5.26425
5.33258
5.42333
5.54894
5.72672
5.97895
6.33352
4.23264
4.26495
4.30649
4.36125
4.43524
4.53842
4.68395
4.8881
5.16902
3.44188
3.46267
3.48954
3.52769
3.58219
3.66074
3.77324
3.93183
4.14999
2.80856
2.81451
2.82586
2.84751
2.88327
2.93868
3.02096
3.13933
3.30527
2.31876
2.31142
2.31004
2.31829
2.33866
2.37484
2.4319
2.51651
2.63724
1.94665
1.93316
1.92487
1.92458
1.93414
1.95607
1.99396
2.05251
2.13772
1.66875
1.65796
1.64872
1.64455
1.64757
1.65993
1.68438
1.7243
1.7838
1.47321
1.46802
1.4607
1.45537
1.4547
1.46091
1.47634
1.50361
1.54564
1.34998
1.34783
1.34192
1.336
1.33295
1.335
1.34427
1.3629
1.39329
1.28461
1.28176
1.27542
1.26837
1.26322
1.26207
1.2668
1.2792
1.30108
1.26019
1.25473
1.2466
1.23778
1.23043
1.22645
1.22754
1.23525
1.25099
1.26181
1.25414
1.24388
1.23295
1.22327
1.21658
1.21448
1.21839
1.22962
1.28025
1.27113
1.25887
1.24573
1.23363
1.22426
1.21912
1.21959
1.2269
1.31032
1.30014
1.28595
1.27051
1.25588
1.24376
1.23562
1.23278
1.23639
1.34919
1.33784
1.32147
1.30348
1.28613
1.27113
1.25991
1.25376
1.25389
1.39558
1.38228
1.36301
1.342
1.32164
1.30356
1.28911
1.2795
1.27596
1.44956
1.43225
1.40876
1.38405
1.36033
1.33898
1.32112
1.30783
1.30033
1.51263
1.4866
1.45691
1.42782
1.40048
1.37579
1.35441
1.33715
1.32519
1.58854
1.54294
1.50518
1.47158
1.44064
1.41283
1.38803
1.36648
1.34858
3.73625
3.81469
3.90181
3.99726
4.10092
4.21236
4.33121
4.45678
4.58861
4.72587
4.86792
5.01406
5.16335
5.3151
5.46822
5.6218
5.77482
5.92615
6.0747
6.21937
6.3589
6.49207
6.61758
6.73392
6.84014
6.93615
7.02169
7.09631
7.15941
7.2122
7.25544
7.28985
7.31657
7.33731
7.35412
7.36961
7.38679
7.40912
7.44066
7.48599
7.55017
7.63889
7.75788
7.91307
8.11015
8.35394
8.64764
8.99226
9.38442
9.81613
10.2733
10.7362
11.1811
11.5813
11.9114
12.1491
12.2788
12.292
12.1926
3.6947
3.77385
3.86107
3.95631
4.05942
4.1701
4.28796
4.41253
4.54327
4.67956
4.82071
4.96598
5.11456
5.2656
5.41815
5.57124
5.72385
5.87489
6.02324
6.16779
6.30735
6.44077
6.5669
6.68454
6.7926
6.89024
6.97694
7.05255
7.11735
7.17196
7.21699
7.25318
7.28164
7.30385
7.32173
7.33767
7.35452
7.37565
7.40497
7.44695
7.5066
7.58948
7.70154
7.84896
8.03776
8.27324
8.55919
8.89673
9.28306
9.71027
10.1646
10.6266
11.0722
11.4749
11.809
12.0519
12.1873
12.206
12.1108
3.62154
3.69737
3.78124
3.8732
3.97311
4.08077
4.19583
4.31786
4.44632
4.5806
4.72002
4.86383
5.01123
5.16134
5.31323
5.46592
5.61837
5.7695
5.91819
6.06329
6.20362
6.338
6.46526
6.58422
6.69387
6.79341
6.88232
6.96037
7.02766
7.08461
7.1318
7.17
7.20024
7.22391
7.24278
7.25907
7.27544
7.29509
7.32176
7.35976
7.41404
7.49011
7.59403
7.73214
7.9108
8.13572
8.41115
8.73871
9.11615
9.53615
9.98562
10.4458
10.8931
11.3015
11.6448
11.9002
12.0506
12.086
12.0081
3.50884
3.58083
3.66088
3.74907
3.84531
3.94945
4.06119
4.18014
4.3058
4.4376
4.57487
4.71687
4.8628
5.01178
5.16289
5.31513
5.46745
5.61876
5.76792
5.91376
6.05509
6.19071
6.31946
6.4402
6.55194
6.65388
6.74544
6.82634
6.89659
6.95646
7.00644
7.04725
7.07987
7.10559
7.12605
7.14332
7.15989
7.1788
7.20364
7.2386
7.28855
7.35898
7.456
7.58612
7.75592
7.97144
8.23733
8.55574
8.92501
9.33855
9.78398
10.2431
10.6928
11.1073
11.4605
11.729
11.895
11.9477
11.8877
3.36346
3.43115
3.50695
3.59099
3.68324
3.78359
3.89179
4.00749
4.13024
4.25948
4.39457
4.53477
4.67929
4.82726
4.97773
5.1297
5.28212
5.43386
5.58377
5.73067
5.87336
6.01063
6.14132
6.26431
6.37865
6.48352
6.57835
6.66277
6.7367
6.8003
6.85395
6.89831
6.93428
6.96305
6.98618
7.00559
7.02367
7.04332
7.06802
7.1019
7.14976
7.21711
7.31009
7.43533
7.59959
7.80913
8.06895
8.38159
8.74589
9.15581
9.59957
10.0595
10.5132
10.9348
11.2982
11.5798
11.7613
11.8311
11.7889
3.18843
3.25128
3.3224
3.40196
3.48998
3.5864
3.691
3.80348
3.92342
4.05027
4.1834
4.3221
4.46556
4.6129
4.76317
4.91535
5.06836
5.22108
5.37232
5.52088
5.66555
5.80514
5.93847
6.06445
6.18212
6.29069
6.38954
6.47828
6.55676
6.62504
6.68344
6.73255
6.77321
6.80655
6.83401
6.85745
6.87913
6.90187
6.92907
6.9648
7.01381
7.08163
7.17445
7.29899
7.46215
7.67041
7.92901
8.24083
8.6051
9.01621
9.46282
9.92766
10.3885
10.8197
11.195
11.4906
11.6877
11.7744
11.7496
2.98719
3.04463
3.11061
3.18536
3.26897
3.36139
3.46249
3.57198
3.68945
3.81439
3.94615
4.084
4.22714
4.37465
4.52556
4.67885
4.8334
4.98806
5.14162
5.29286
5.44055
5.58349
5.72051
5.85056
5.97266
6.08605
6.19008
6.28436
6.36867
6.44303
6.50775
6.56335
6.61068
6.65081
6.68512
6.71541
6.74386
6.7732
6.80681
6.84867
6.90353
6.97689
7.07503
7.20479
7.37323
7.58702
7.85164
8.17019
8.54218
8.96222
9.41917
9.89583
10.3698
10.8154
11.206
11.5175
11.7309
11.834
11.8256
2.76115
2.81229
2.87245
2.94195
3.02096
3.1095
3.20745
3.31455
3.43039
3.55445
3.68605
3.82437
3.96854
4.1176
4.27058
4.42644
4.58409
4.7423
4.89981
5.05531
5.20758
5.35541
5.49771
5.63347
5.76167
5.88159
5.9926
6.09429
6.1864
6.26899
6.3424
6.40718
6.46419
6.5145
6.55945
6.60091
6.64101
6.68229
6.72818
6.78256
6.85021
6.93667
7.04833
7.19233
7.376
7.60618
7.88853
8.22612
8.6185
9.06043
9.54073
10.0418
10.5406
11.0102
11.4232
11.7547
11.9852
12.1029
12.107
2.5115
2.55461
2.60774
2.67142
2.74592
2.83124
2.92713
3.03306
3.14894
3.27453
3.40849
3.54977
3.69727
3.84999
4.00715
4.16769
4.3308
4.49526
4.65919
4.82125
4.98033
5.13528
5.28522
5.42915
5.56596
5.69509
5.81587
5.92793
6.03105
6.12542
6.21165
6.29028
6.36197
6.42795
6.48955
6.54941
6.60964
6.67145
6.73883
6.8159
6.9077
7.01982
7.15855
7.33219
7.549
7.81554
8.13753
8.51588
8.94966
9.43558
9.96411
10.5165
11.0661
11.5828
12.0359
12.3964
12.6428
12.7641
12.7632
1.66889
1.60132
1.54791
1.50042
1.45606
1.41445
1.3764
1.34346
1.31776
1.30212
1.30007
1.31508
1.34965
1.40507
1.48207
1.58215
1.70701
1.85696
2.03064
2.22585
2.44094
2.67532
2.92971
3.20661
3.51117
1.587
1.56515
1.52979
1.48974
1.44843
1.4079
1.37
1.33679
1.3107
1.29463
1.29184
1.3055
1.3383
1.39229
1.46901
1.56976
1.69523
1.84508
2.01799
2.21221
2.42614
2.65928
2.91252
3.18868
3.49333
1.56281
1.54297
1.51226
1.47541
1.43568
1.3956
1.35748
1.32367
1.29679
1.27975
1.27566
1.28766
1.31863
1.37105
1.44678
1.54692
1.67164
1.82009
1.99071
2.1817
2.39145
2.61941
2.86636
3.13477
3.42916
1.55254
1.52863
1.4971
1.46022
1.42037
1.37983
1.34092
1.30609
1.278
1.25954
1.25378
1.26384
1.29275
1.34314
1.41697
1.51518
1.63751
1.78269
1.94883
2.1339
2.33627
2.5553
2.79166
3.04757
3.32703
1.54567
1.51757
1.48358
1.44513
1.40399
1.36217
1.32188
1.28554
1.25578
1.23547
1.22765
1.23545
1.26194
1.30979
1.38087
1.4759
1.59428
1.73434
1.89385
2.07053
2.26269
2.46964
2.69204
2.93209
3.19368
1.53921
1.50749
1.47078
1.43018
1.38714
1.34349
1.30131
1.26299
1.23114
1.20859
1.19838
1.20363
1.22736
1.27217
1.33975
1.43056
1.54364
1.67693
1.82785
1.99396
2.17343
2.36556
2.57101
2.792
3.0325
1.53219
1.49754
1.4584
1.41556
1.37034
1.32446
1.28
1.2393
1.20499
1.17989
1.16703
1.16949
1.19021
1.2316
1.29512
1.38087
1.48753
1.61269
1.75344
1.90716
2.07183
2.24668
2.43227
2.63092
2.84699
1.52364
1.48755
1.44665
1.40172
1.35417
1.30579
1.2587
1.21532
1.17829
1.15044
1.13478
1.13437
1.15195
1.1897
1.24877
1.32887
1.42831
1.54435
1.67378
1.81369
1.96189
2.11733
2.28031
2.45294
2.63974
1.51432
1.47842
1.43641
1.38945
1.33938
1.28824
1.23826
1.192
1.1522
1.12158
1.1032
1.10004
1.11458
1.14869
1.20318
1.27733
1.36909
1.47537
1.59276
1.71806
1.84892
1.98381
2.12208
2.26467
2.41488
0.44051
0.445564
0.418792
0.351728
1.09115
1.00417
4.18696
1.62075
0.393351
9.55401
0.241251
1.10178
5.8314
0.839016
5.58672
3.04761
0.292337
0.327022
13.2505
0.815546
4.02892
5.15809
0.271661
1.2768
0.977001
1.98656
1.05005
1.16801
0.397061
0.275263
10.8892
2.35935
0.434692
4.97657
0.268954
1.62543
4.66379
5.58565
4.52003
1.85516
0.35258
0.169533
3.90424
1.58626
1.30515
6.58203
0.26008
0.278077
0.376444
0.450262
0.254115
0.329534
6.54886
0.310899
4.16344
0.40067
0.831412
5.75536
0.613691
0.279334
1.69598
0.432584
1.03938
4.18718
1.70715
1.52202
2.40975
0.735153
5.16719
0.429052
0.400091
5.61587
1.04459
1.00567
1.069
4.28333
1.60051
0.298037
1.0049
0.285528
5.3466
1.90371
2.1134
0.228118
1.32431
1.60909
1.2841
0.302282
0.434012
1.28027
1.30421
1.51361
8.71935
1.11932
0.992121
0.243778
1.92781
0.241586
0.416985
0.280614
0.920286
0.360339
0.952833
6.05277
0.650318
1.162
0.280527
5.52561
0.31847
0.278102
4.6398
0.807314
0.298011
6.11839
6.44151
0.379522
0.399133
1.98358
7.30985
0.499537
0.0825859
0.813904
1.25584
0.915888
0.428202
3.68604
0.334531
1.14363
0.863474
0.278941
1.98174
1.06424
0.423993
4.37344
1.28104
1.22194
1.29928
0.828525
1.95668
0.723847
6.61037
4.34323
0.279796
0.102156
0.391323
3.34636
0.376786
2.33356
2.96716
0.269144
3.05934
1.23411
0.374691
4.96823
0.859786
0.22746
0.859755
2.05169
2.17374
3.444
4.10547
0.393107
3.48903
0.245982
6.18724
0.23729
0.93026
1.07065
3.93521
0.793431
0.778178
4.47376
0.758438
0.231918
2.23192
1.17206
4.45916
0.41343
0.337353
6.4914
5.20291
2.24435
6.8839
5.15677
1.50645
0.918317
0.240671
0.326498
0.453283
2.59214
0.277946
0.281234
0.394985
4.21342
5.31485
0.453161
1.05867
5.05485
0.386942
0.41288
2.66083
4.98185
1.84137
2.56311
2.06784
5.63623
2.15926
0.933657
0.38666
2.29879
0.670093
1.0473
5.12878
1.97498
3.38617
0.338072
0.783992
1.62639
6.02391
1.26219
0.803374
0.199458
0.805872
0.453441
0.177929
0.383137
1.37045
0.294918
0.275995
1.04421
0.224015
1.69641
2.02908
1.17661
4.52013
7.98548
2.7147
0.970807
5.25475
5.15984
7.65784
1.63224
5.71424
1.39213
1.10585
1.58193
2.59039
1.32999
3.05156
4.6438
0.232694
1.21882
4.14434
0.386164
1.11438
1.03712
0.288676
1.74455
2.31368
13.2193
0.927873
0.86541
2.3473
0.890526
1.1667
0.847061
5.75829
0.404428
4.08325
1.09706
3.79275
0.403369
0.513526
1.45149
12.8528
0.407244
1.91807
0.362878
0.930564
0.290013
1.56659
3.16143
0.800966
6.55534
0.332971
2.10127
1.18019
0.168874
0.270136
0.278306
4.89497
3.64628
0.143699
0.270703
1.81773
0.345108
0.347395
1.72739
3.3891
0.310319
0.290517
4.27144
1.33198
2.62016
0.352887
5.93203
3.74718
3.45844
0.717709
2.00266
5.74278
7.59771
0.451468
0.895531
0.448278
3.8702
0.270535
3.93446
0.999823
2.24297
2.18686
3.1836
1.24876
10.8809
1.3029
0.870827
0.400223
5.44715
1.81214
5.58667
6.3081
5.3794
0.741339
9.04531
0.311272
1.65258
2.2357
2.28691
0.135378
0.877441
1.03763
1.09991
0.291101
7.80612
1.24182
0.749759
0.826673
1.13084
1.11899
0.247215
0.279418
8.5291
0.17842
2.40115
0.274158
0.195411
1.61718
1.62425
5.42718
0.250183
0.393651
0.260711
3.82184
0.386202
0.171914
1.18009
3.89236
0.28043
2.34092
0.451413
7.00844
4.87649
0.404089
0.354074
5.83266
0.700653
0.606193
7.22964
2.71276
8.19512
0.352001
4.06857
0.426814
1.6046
1.61767
1.60802
6.36411
0.83963
0.243674
0.2774
2.98869
5.61155
1.28906
0.403053
5.14961
11.3805
5.66311
0.430604
2.04067
0.397996
1.62282
3.95919
1.27073
0.436914
1.08727
0.108505
4.79307
1.29822
1.83449
7.50747
0.421945
2.27678
0.306599
1.90828
2.81019
0.342504
0.365093
0.247906
2.11775
1.54301
6.26044
2.87554
1.28208
0.979356
4.11998
0.288864
0.0998562
1.35138
4.52807
2.51823
2.49396
0.997077
1.2696
1.06268
4.65366
3.7839
4.73637
0.125056
1.22179
0.717157
3.78337
5.1486
0.279611
1.71709
4.69361
0.485191
1.0297
0.44292
0.680636
0.990659
0.356596
3.97465
3.36168
0.317105
7.70566
0.428955
0.245556
1.74012
1.30194
1.45514
3.78918
1.5021
0.420758
5.1089
0.29081
1.32524
0.652625
0.447587
3.84668
0.248041
1.32782
1.16808
0.26152
0.65641
0.937998
5.25184
1.27336
0.981259
2.52166
2.7345
3.45425
5.09252
0.132682
1.09601
0.226625
1.17536
2.0669
5.54524
0.412226
6.20462
5.20665
3.31945
0.626077
0.404483
2.2847
0.595955
5.23771
2.19634
7.6845
0.451348
4.05433
4.76088
2.12213
1.28723
4.54997
4.95853
2.49223
2.62134
4.67091
2.3857
5.37894
5.20408
2.2523
1.29491
0.785752
0.280151
0.363565
0.359296
0.670796
2.53845
9.27735
0.279118
0.801159
0.4533
4.7678
6.03629
0.288328
0.38123
5.32336
4.7854
1.17101
6.30875
0.432861
0.421841
0.510793
1.61099
3.93365
0.337619
0.387829
3.43464
2.21195
0.281715
5.11301
0.289484
0.217518
0.461496
2.83867
0.748231
2.25145
0.352149
4.86832
5.33709
0.886826
0.389781
0.364293
0.2757
0.827996
7.95746
6.82361
0.384559
3.99065
4.74758
4.02366
5.62826
0.272944
11.0952
2.67197
0.668813
2.47419
0.847035
0.44693
5.99919
5.72898
0.627048
0.933916
0.299675
0.254398
0.387386
0.791705
0.829965
0.80524
7.09865
4.87384
9.05667
1.65791
0.427613
5.1413
0.96413
2.01315
4.92139
1.04693
1.41782
4.14591
4.60575
7.55734
0.612449
5.2197
0.356967
1.12699
2.38916
0.29232
1.19784
0.200707
1.31446
1.19173
1.18414
2.06833
5.02014
0.160028
3.7139
4.16286
4.85838
1.62518
3.87201
1.08563
5.69597
1.47547
0.855245
0.469467
4.61537
1.36479
3.12746
8.23641
1.48431
1.06656
0.281411
0.259976
1.1111
0.427424
1.09735
1.06889
1.12848
0.448163
3.40387
0.471482
4.81431
1.34633
0.760088
1.16652
4.34361
2.69959
0.854663
1.51593
4.95892
1.02768
2.0272
1.28769
1.62261
0.2829
4.72441
2.48457
0.335458
9.90954
0.161898
6.07231
5.71492
0.255682
13.5357
2.64497
3.38377
0.381047
0.243037
0.236705
0.0703254
1.18487
1.51399
0.374357
0.437534
1.43246
6.79292
1.06111
11.8833
1.22902
0.287991
0.157214
2.70648
4.9454
1.61499
6.94882
6.93215
0.49493
5.96988
1.20591
2.18239
5.44934
0.92196
7.09477
0.394922
0.300408
2.4834
5.03461
1.91542
0.247878
1.73022
7.89462
4.57341
1.6663
1.73644
2.08535
5.5832
0.605837
0.819122
1.27643
5.6453
6.1063
0.276655
5.15875
2.92334
0.281403
5.36072
0.415638
0.267089
13.014
0.910434
1.31507
0.118486
3.13903
1.56282
3.06156
1.68072
6.46951
10.4487
5.88558
1.31599
4.19914
3.36155
1.68032
2.85486
5.25793
0.363216
11.4902
0.342716
3.58017
0.410228
2.66771
0.371293
0.267703
0.430762
1.36749
2.84919
0.117467
0.883451
3.19745
1.45714
0.428788
8.33678
1.91074
1.71376
1.42773
1.69507
2.08345
0.255074
0.474433
2.15568
3.90249
4.57977
6.70114
0.36562
0.0613521
4.47615
1.34157
0.152595
0.431412
1.8466
0.266891
4.78735
0.96944
4.79341
0.36762
0.145131
1.43957
1.04849
0.861593
3.2013
3.78098
0.614101
2.80067
1.0003
4.21131
2.95206
0.597992
1.85655
0.294713
5.3905
5.30943
0.262819
4.35797
0.804013
1.36196
9.14625
6.97653
3.30095
3.20979
0.174128
6.21068
0.250137
0.478067
2.63832
1.93591
2.78125
1.91285
3.57476
0.480532
4.97952
1.20486
7.56602
0.270763
0.338341
1.54692
1.29098
0.451906
0.415233
1.92595
1.47525
0.450447
1.14117
0.458429
0.421512
6.31161
1.91308
0.371902
0.415591
0.410126
6.12184
3.11474
0.382661
2.88142
4.87417
4.281
1.33788
0.598713
2.72531
0.896168
1.13832
0.424267
11.6974
2.86997
0.483505
10.9071
4.4972
0.735781
3.17136
3.23846
0.716177
1.69809
5.55837
8.19662
7.46124
1.27924
4.22918
0.305538
1.84358
4.72219
3.08452
5.70569
0.762489
0.450705
0.400582
3.5015
5.51853
0.0331537
1.01615
0.608212
0.223192
2.56528
1.15842
3.4234
0.0848182
5.16992
2.76347
0.462657
0.452695
2.34774
0.287463
0.276905
0.256688
10.6567
0.430933
5.69868
7.2421
4.2968
1.74606
0.600522
1.30435
2.10345
1.26033
2.4681
0.476417
0.5584
0.583461
0.447522
1.12868
2.61764
4.51202
0.41855
1.4565
8.76006
1.29052
0.280332
0.266575
2.12253
5.04519
0.443528
1.58062
0.9607
2.96842
0.344744
2.51424
0.372308
1.31884
0.426247
3.52741
4.28653
0.409936
0.0973835
0.648049
8.59409
0.311701
1.76967
0.360919
0.383714
5.4773
1.27339
2.43988
1.27432
0.429571
5.63066
4.03144
2.4138
2.24095
0.356365
2.98117
0.250113
0.529498
0.320366
6.87323
2.88173
10.1826
1.5444
1.50653
0.40805
0.389171
1.14376
3.62245
2.20217
0.90952
4.93324
5.12101
1.93542
4.029
0.37498
0.75564
0.708115
4.80388
2.887
4.55604
1.76683
0.377365
1.77281
0.872207
2.99818
4.91862
0.632694
1.28333
3.98926
5.79046
0.587741
1.16971
4.87784
1.44304
1.27294
0.326648
0.810982
0.402918
3.64056
1.25189
3.72369
0.559613
0.391215
0.954061
0.694247
0.311386
3.28076
1.10853
1.56248
1.08849
0.385022
7.44463
0.591715
0.598458
3.83784
4.01807
0.408236
0.777702
2.59616
2.26788
0.658118
3.18553
0.314923
5.32967
0.994613
0.283691
0.930198
0.251708
2.31244
0.393304
1.45689
1.4646
1.89046
4.36436
5.49072
0.486786
8.7137
1.21502
3.17468
8.45025
0.733323
0.494855
3.59317
0.280952
3.93201
3.02017
4.41453
1.22051
0.255883
0.346489
7.73464
1.67366
0.237674
4.47044
0.647396
0.385533
0.216306
1.58993
2.8347
1.28062
2.89479
0.317216
6.26049
9.15633
1.39514
4.34241
2.2821
0.379798
0.279482
0.308031
2.53785
2.07588
4.95035
0.385587
1.11516
1.56355
3.00326
0.417876
0.258236
0.252561
1.95655
2.09062
1.09477
0.370627
5.44135
0.464247
1.37703
0.941095
0.417523
1.16636
1.70242
0.831498
9.41187
11.3479
0.367002
0.421806
12.2577
0.449195
3.24471
2.05833
1.46905
7.40309
6.04791
0.900888
0.86157
4.62276
1.2304
4.10415
0.391784
0.232617
3.85841
1.88029
5.88615
0.311415
0.268902
1.12422
0.289693
1.8657
10.1174
6.98033
1.9729
2.1121
5.1399
3.1621
1.22564
0.179108
0.689378
5.11736
0.482502
2.50259
9.96949
1.07392
6.46846
0.390238
0.372305
5.31808
10.1131
1.99214
2.86714
0.576468
0.397587
0.411404
0.629065
8.53449
0.930038
1.35108
0.429907
1.06921
0.535515
0.420252
0.327729
0.132364
2.20498
1.0652
6.82063
0.707835
6.97392
2.63815
3.36289
2.0472
7.34385
1.48635
5.43055
1.54851
0.27664
0.418492
0.367543
0.423186
1.43185
0.383876
2.45586
0.370034
5.54652
1.87556
0.869349
0.601958
1.04102
4.05436
1.99037
0.556976
0.418488
1.01618
1.16033
4.99274
0.684774
1.28075
0.686862
0.251604
0.315233
0.281437
0.244494
0.782027
1.25666
1.29124
0.921123
1.28899
2.94009
0.478644
7.19366
0.690149
2.84502
4.70331
0.377509
3.2348
1.32564
0.90748
3.55576
1.52043
1.22035
9.8469
0.789029
1.44623
0.399421
7.69023
1.23376
0.328535
2.80482
1.3115
1.27936
0.450779
1.24368
0.520048
7.41279
3.66874
0.476008
0.340166
1.42879
3.66906
5.4852
5.60573
2.00086
7.11453
5.7038
2.37677
5.50069
8.87127
5.0813
0.446417
1.13539
0.401984
0.625491
1.722
1.31322
2.7068
1.0268
5.35738
0.731356
0.254447
7.13538
1.18736
1.09165
5.9336
2.86327
0.946317
0.872013
3.58002
0.357945
1.21047
7.4922
6.36491
9.46459
3.61605
2.41408
0.40747
6.48828
1.70281
0.446529
1.56809
0.108246
2.33881
0.406429
0.768692
0.426437
1.35928
3.01081
0.365781
0.286505
0.319914
0.353546
6.17955
0.380133
0.17834
11.283
5.16974
5.297
0.287164
5.01311
1.10972
4.21961
3.92774
0.43163
0.233739
0.360646
5.29338
0.778093
9.57622
0.364925
2.23257
0.644808
2.58717
1.00711
0.690399
1.50754
0.66878
3.64537
0.377682
0.446961
5.29655
1.46343
3.68135
1.30171
6.6798
5.40956
5.25046
4.70284
0.20655
8.59025
1.27344
1.11439
0.439584
3.01174
1.2058
0.363329
9.34895
4.61283
0.200039
7.40313
1.3192
4.54841
3.98192
4.07859
0.972246
0.280566
1.06296
4.97759
0.315646
2.91359
5.32739
1.62885
4.57781
3.20593
0.110187
2.8159
0.436824
1.82704
0.441795
1.25447
2.53737
3.71616
4.48021
1.07499
4.20518
6.73527
4.29654
0.226833
0.8457
5.48187
6.69131
0.437951
0.397264
1.2759
7.82817
1.2827
4.03888
0.291755
1.93375
0.907588
1.12073
0.428815
0.94009
2.89389
4.21972
1.53363
5.35543
0.366974
1.94675
1.26922
5.95688
0.187436
1.41821
2.82691
1.01407
1.28632
0.41913
0.300058
0.425418
0.822004
0.241443
5.669
5.32521
3.10043
0.858251
0.397366
0.813457
2.24398
4.66484
5.1443
3.83449
0.358696
0.330695
8.51979
5.89707
0.577648
5.52097
1.09628
0.53125
0.342203
0.288797
1.34446
0.411596
5.77157
1.45153
3.98389
1.2043
0.399696
0.53617
1.88223
0.671297
1.68117
1.91758
2.02254
1.71849
2.68348
0.395426
0.372534
10.25
1.29673
2.50691
0.392056
2.75857
0.37221
0.429349
0.281582
6.05937
1.286
1.99592
6.252
6.67798
1.79377
13.3362
0.404593
0.39644
6.87889
1.09777
0.669663
1.22633
0.421987
0.276191
2.08247
0.769947
2.1654
1.06833
4.85515
1.09355
0.394193
1.57429
7.45712
0.765606
4.83949
1.40565
4.9241
1.3009
7.96274
1.30067
1.29904
5.17934
6.6798
0.365474
3.09233
3.84853
0.896537
0.720328
2.76278
0.392271
0.424631
3.09901
0.40437
10.3873
2.51201
5.85282
5.42221
2.00315
1.40175
0.350371
1.60321
4.64496
0.454649
0.402064
6.65674
8.13065
4.92981
5.50157
4.46515
0.437645
3.32539
0.42885
1.78944
10.6497
5.63959
0.428565
2.08811
0.388242
0.418792
0.48384
0.482425
5.29526
0.562884
0.384591
0.314302
12.3578
0.0833921
6.35196
0.836728
5.35735
0.93554
5.51802
0.288312
0.802141
1.23307
0.320645
8.22562
0.279861
1.97965
5.1176
3.24134
0.294575
10.4674
4.75817
7.65544
3.45173
5.88746
2.15338
0.426496
0.340454
5.21561
8.92391
0.371234
4.64754
4.77298
1.13781
1.65283
3.63789
1.43063
1.07432
9.38663
3.09284
1.2512
0.103842
0.673853
6.3443
0.307284
6.41483
1.35315
1.36711
0.990373
2.5683
0.289275
1.08075
0.297091
0.311223
0.113489
5.84236
6.09755
5.3219
0.378668
3.21038
0.48791
0.396209
7.19703
6.24169
0.260477
1.05637
0.33494
0.855083
1.69199
0.457882
1.21488
2.79098
3.96127
2.03339
0.820791
6.02174
5.24972
1.47662
7.14073
0.430504
1.37037
0.410939
1.14172
0.390484
4.961
3.55717
1.22248
9.20803
5.16808
0.283812
3.15441
1.07035
0.433633
3.44675
0.195307
0.73627
3.65115
0.370421
2.79111
0.302589
4.55441
0.577505
0.883175
0.418685
1.14714
0.513356
3.23841
4.08469
1.06317
0.360512
5.14561
1.29269
1.04394
4.42969
0.778841
2.75601
0.579994
7.23532
2.35383
0.312962
1.41959
3.22888
0.404921
0.959703
3.10552
0.318384
7.59482
0.237518
3.98209
2.40247
4.64214
0.795974
3.20147
8.251
0.513365
1.36865
1.84027
0.774927
0.742055
0.424468
3.60177
2.40619
2.08576
1.19717
2.18896
1.92447
5.43697
3.29401
5.25459
0.59106
1.52437
0.430712
5.18612
1.52541
0.227024
5.38079
0.27466
3.94684
0.747715
4.78089
1.01158
1.28316
0.237538
1.61841
4.26912
1.36613
1.03245
0.755822
5.0198
2.58751
2.01611
0.411037
2.52975
2.18969
0.374708
2.64057
1.51239
0.527589
0.851568
1.91376
8.16439
6.00452
0.519886
4.02638
0.425551
1.51307
0.764319
6.99838
4.0942
0.283541
0.358968
1.03653
3.06395
1.64453
3.86793
1.41242
0.718292
0.30793
3.10643
1.85571
3.11152
4.2854
0.697647
0.412152
1.05229
5.28027
1.92826
1.73016
0.365454
8.0115
5.01628
0.302208
0.765126
1.11034
1.61708
0.329259
2.7414
1.54966
0.375195
3.17297
1.8549
1.72201
3.36996
4.29698
0.401497
0.355455
0.842311
1.12586
7.53113
11.9473
0.30496
0.348205
0.891022
0.181172
3.9018
4.43337
6.27701
1.19505
0.340248
2.16407
0.215178
1.33468
1.8703
0.39357
8.2064
5.8147
1.68992
0.426599
4.83265
1.395
0.972408
7.46657
1.72883
0.995654
5.25553
3.90617
2.77679
6.58272
6.85937
5.20675
0.490742
4.56711
2.04865
3.76167
2.27491
1.09072
0.228761
0.329459
1.64199
1.06161
1.66449
0.286388
1.46384
2.62678
0.239819
10.1135
0.119886
4.75023
8.0173
0.291843
5.42636
0.987258
0.439902
5.3428
3.61068
2.34897
4.19857
0.423393
0.440322
1.35337
0.356695
5.9179
2.95835
0.0229432
0.443191
1.7423
1.79703
3.01595
0.363296
1.40957
5.35116
0.241584
0.273394
1.09025
0.404652
0.623937
1.05856
0.876719
0.34514
1.19076
0.721342
1.69666
0.229308
0.423239
5.87757
0.395746
1.13016
4.50066
1.57336
2.60506
1.23931
5.15768
4.49875
1.47647
7.99007
0.545868
5.23729
0.431682
3.44293
9.86056
0.282275
2.84718
1.09316
1.26942
0.292629
6.8192
5.32593
0.363201
5.15648
0.43121
4.5387
3.76424
1.34618
1.01698
0.428243
5.27175
3.38419
1.40321
5.20599
1.31948
0.437029
1.27399
4.9886
1.06587
0.593537
0.335308
1.34347
1.0152
3.61037
1.04178
1.2462
1.24597
2.05398
0.418351
3.68807
3.78337
3.3532
4.83551
0.862079
4.21713
1.53014
0.564989
7.15473
6.81447
1.68919
0.740056
5.4272
3.65264
0.0341439
5.12999
7.87978
2.91329
2.57867
2.21875
3.6172
1.0383
1.19969
4.83203
4.93848
0.353819
0.419694
0.351864
1.53348
0.121048
1.28352
5.1759
1.46935
4.24974
0.305524
8.23119
0.232482
2.22921
0.225067
1.71971
1.33898
2.7984
6.03095
0.438509
3.89863
0.411486
0.89681
0.65995
0.837969
0.247867
4.10628
2.34595
1.05361
0.175416
4.89265
3.66521
2.78081
1.88835
1.21097
0.735464
0.242199
4.8668
3.17191
7.31467
3.48569
6.19553
0.387478
0.108018
0.479917
3.65572
3.45369
0.98042
1.15546
0.295541
1.15626
0.403409
5.28337
0.682274
1.7771
1.27557
1.05887
5.26831
0.319361
0.630737
3.06564
4.0465
0.32844
2.192
1.35185
0.899798
3.6153
0.895433
0.942741
6.82308
3.61752
10.0242
1.29367
5.72409
0.431843
1.94838
1.49494
1.93139
8.67365
0.264459
0.672407
2.0974
1.60608
4.527
0.941231
0.353821
5.03665
3.25271
7.83305
2.88229
0.375314
0.299724
0.436401
0.306922
0.404855
0.825675
1.10525
0.648803
2.95948
5.18076
1.77771
3.1374
1.08932
0.252284
5.46554
5.19688
0.390329
0.288056
0.592893
3.87751
1.3028
0.422655
0.332082
0.764531
1.08437
1.66389
8.95271
1.6812
5.25282
1.50686
0.126514
3.43866
0.999554
1.16801
1.47029
4.24091
7.4643
2.82364
0.396476
1.35629
4.31578
1.86006
2.57617
2.04417
0.3527
2.29322
0.395781
3.22784
3.49751
5.11879
0.332377
1.32459
2.97591
3.29733
0.339183
1.00062
0.903691
7.43632
0.133772
0.705298
0.734121
0.402545
2.93361
7.2545
0.372109
3.81476
3.19651
0.2439
2.64389
5.12235
4.53029
0.94772
5.20676
9.74887
0.234737
10.3595
5.27607
2.85279
0.285673
5.25269
7.8663
4.49345
1.6715
9.27545
2.51288
0.849433
3.79094
6.73324
0.389668
5.07612
1.1844
3.57663
0.408779
2.9788
0.27811
0.395826
12.3882
0.321901
3.87571
3.00033
1.01319
1.51113
0.47749
0.751116
1.86594
0.249266
0.24641
5.44658
1.21476
1.3183
0.883021
1.01673
0.157509
1.31029
5.455
1.25868
2.23916
0.999632
2.60925
0.442554
7.94818
1.11364
0.325565
0.423625
2.8967
1.11352
1.0785
0.59064
2.10981
1.06957
1.07559
4.91175
2.29091
1.41707
4.21082
0.370374
3.75377
0.976035
2.5989
0.296569
0.407501
0.432166
0.446114
0.285936
1.89642
0.127739
4.54197
0.860207
2.40532
0.35117
1.27794
1.68788
0.820017
9.85653
5.41741
4.60859
3.29705
2.86858
1.10546
0.373344
0.306387
1.04679
0.959197
0.235123
1.42864
1.30334
1.31161
8.91583
0.560662
0.813466
5.04681
7.52022
1.53648
1.27987
1.20168
0.902144
0.3761
4.23192
0.362839
0.435177
0.421258
0.428098
1.1679
9.62444
0.282345
0.197823
2.68887
1.73986
7.53017
1.22738
3.79987
0.352913
0.333638
1.29739
9.16102
4.3089
0.323663
1.77565
0.437515
0.434095
0.69431
0.445366
0.278529
3.42086
0.41184
5.52755
4.7536
1.1251
0.693658
0.316473
1.54884
2.01386
0.404818
10.0749
0.396268
2.34707
0.25238
1.76632
2.06414
0.401306
5.42476
0.405914
0.848538
0.37421