/*--------------------------------*- C++ -*----------------------------------*\
  =========                 |
  \\      /  F ield         | OpenFOAM: The Open Source CFD Toolbox
   \\    /   O peration     | Website:  https://openfoam.org
    \\  /    A nd           | Version:  10
     \\/     M anipulation  |
\*---------------------------------------------------------------------------*/
FoamFile
{
    format      ascii;
    class       volScalarField;
    location    "1250";
    object      p;
}
// * * * * * * * * * * * * * * * * * * * * * * * * * * * * * * * * * * * * * //

dimensions      [0 2 -2 0 0 0 0];

internalField   nonuniform List<scalar> 
10435
(
0.000727009
-0.668243
-11.7487
-2.78947
-7.57927
-11.6288
-11.8457
-11.7221
-11.6486
-11.2662
-2.25979
-6.98261
-11.3805
1.1523
1.16632
-11.3154
1.06396
-11.2944
-11.7201
-0.379754
-11.9843
-2.83281
-11.3944
-9.35989
-11.3366
0.421382
0.243289
-11.6919
-0.206978
-11.538
-10.2973
-3.19159
-12.035
0.450759
-10.8087
0.771376
-10.6886
-1.03125
0.966279
-10.3856
-12.1156
-11.9133
1.36096
-1.37208
-10.5338
-10.3896
-11.6425
0.833176
-11.7634
-3.18299
-11.6973
-10.4497
0.507569
-0.39039
1.31322
-0.46678
-10.2108
-0.0196684
0.660615
-10.3997
0.660185
-0.0654426
0.224141
-9.59825
-10.9954
-11.6569
0.541765
0.419411
-12.0673
-8.7896
0.346918
-0.218375
1.74333
-11.3805
1.04925
1.61128
-7.51
-12.099
-12.2215
0.969793
-4.9702
0.122284
0.690234
0.0705117
-5.92212
0.879159
0.490721
-1.305
1.21398
0.16137
-2.01282
-2.78328
-0.226043
0.952437
-0.235435
1.04745
-3.91235
1.35123
1.18429
-5.06453
0.874357
-9.32859
0.759481
-0.726603
-10.0831
-2.03601
-0.630522
-4.02566
-7.1036
0.874154
-2.40972
-8.27111
0.433502
0.623611
-3.78654
-2.0737
-5.86466
0.611644
-1.33431
-5.52076
-6.41039
1.73167
0.275921
1.63434
-4.73423
0.564941
-4.68735
1.77087
-6.61024
-0.68782
1.79652
-3.53574
-11.377
1.04571
-0.0158454
1.63303
1.37377
-3.64509
-0.685466
-1.42
-0.861772
-10.4727
0.80641
-8.61896
-3.65694
1.50724
1.59234
-10.401
1.24502
-8.81161
0.743979
-10.1706
0.0547356
-9.09488
-11.0449
0.666208
-5.97553
-0.148423
-11.2417
-1.44333
-9.67287
1.07043
-3.04214
-6.38004
1.04905
-7.62634
-11.7326
-5.40663
-8.20751
-8.89172
-11.1153
1.16647
-1.00603
1.45029
-8.52411
-0.549142
0.407853
0.896841
-1.71641
0.359681
-1.39925
-11.1467
-7.78937
0.466142
-10.475
1.40831
1.20915
-11.9942
-8.52748
-9.67302
-7.02198
0.841292
0.439798
1.09573
-7.16885
-12.0581
1.45094
1.08703
0.953658
-11.0942
1.26233
1.05634
-11.5737
0.274862
-11.6883
-4.94546
-2.13492
-4.50775
0.0140624
-4.56675
1.14543
-11.4288
-7.75155
-7.01867
0.575739
1.29641
0.749817
1.03611
-1.33722
1.03889
0.23606
0.690724
0.771244
1.48963
0.284635
-11.2768
-0.990182
1.22858
-10.3585
1.53283
0.771573
-11.4622
-1.08392
-9.74053
-0.680889
1.00937
-10.0653
-0.48648
-9.1545
-10.9014
-0.815162
0.618218
1.05576
-0.399102
-4.13361
-12.0166
1.29541
-12.2489
-2.98628
0.16081
-3.23766
0.841387
-11.6892
-5.47869
-12.4301
-8.16856
-4.45224
-12.4819
0.660691
0.410621
-12.4826
-10.8605
-0.0564601
-7.46733
0.6027
1.13458
-0.336069
-11.1074
1.01872
-5.75333
-12.2173
-13.2853
-13.0654
-11.2764
-1.7046
-6.34497
0.357698
-6.45753
-11.8493
-13.1475
-11.7735
1.07107
-12.0791
1.07568
0.66547
1.19248
-9.48793
-0.688988
0.193093
0.00535251
1.57476
-2.44596
-0.154139
-13.0705
-0.364585
-4.26395
1.43748
0.326338
-5.29825
-11.0533
0.716351
-8.42576
-12.0041
-3.69282
-4.28449
1.29352
1.41021
-9.19803
-11.2349
0.266262
-1.14486
-0.0827101
0.686526
-9.84608
-11.0609
-4.77719
1.01156
-9.83495
0.592449
-6.22881
-10.8915
-0.888652
0.390228
1.07779
-12.7648
-11.6132
-2.51767
-11.8947
0.784178
-0.0990738
-11.17
0.0267611
0.307106
-11.8294
-9.10142
0.121471
0.11254
-1.25296
0.678676
-1.07568
-3.366
0.558356
0.869887
-3.13491
-4.44591
-0.0251602
0.25711
1.33679
1.21142
-12.2941
0.480936
-11.5353
-3.15803
-11.7714
-13.4017
-13.2661
-11.5809
-11.294
-0.391398
0.346052
-1.14831
0.89653
-0.698469
0.73828
-0.705193
-3.81876
0.0399168
-7.77222
0.356378
-12.1655
0.835566
-4.31857
-11.2232
-13.5916
1.16049
-5.23282
-0.855784
-0.319865
0.272941
0.122358
-6.95141
-0.38587
-12.6606
0.455248
-12.3497
-13.1893
-11.641
-11.502
-13.3843
-11.8067
-11.0204
1.62626
0.995623
-0.0373274
0.746934
-11.881
0.0807932
-11.6825
-4.91045
-0.136841
-6.22049
0.812688
0.473502
-11.6234
-1.21965
-12.4256
-8.93461
1.1676
0.158376
-3.14989
-10.912
-3.37859
0.391471
0.0354832
-0.58708
0.787546
0.192428
-11.75
-2.6199
-0.466938
-0.242408
1.05374
-11.6074
1.35004
1.52423
-11.9161
0.639441
28.7395
10.8029
16.0844
11.9583
13.1403
11.6594
11.5423
10.9032
9.2808
23.9651
9.02325
13.0845
10.2766
11.0256
10.0914
9.96808
9.46006
9.01025
19.1791
7.03791
10.5973
8.78434
9.28431
8.69118
8.55705
8.16643
7.71194
15.211
5.49642
8.414
7.30697
7.68057
7.34982
7.26428
7.01383
6.66794
11.5612
4.36363
6.59239
6.00375
6.29932
6.14784
6.12269
6.00632
5.75571
8.28615
3.64678
5.15158
4.93949
5.16758
5.13163
5.14969
5.11177
4.99964
5.6301
3.457
4.10923
4.13612
4.29381
4.3272
4.37485
4.39429
4.37761
3.70653
3.56372
3.39888
3.55883
3.65333
3.72472
3.78911
3.84736
3.77624
2.40445
3.44878
2.87492
3.13783
3.20071
3.29426
3.36751
3.43501
3.46852
1.54726
3.01238
2.47587
2.82995
2.89231
2.9997
3.07938
3.15563
3.19866
1.01863
2.55758
2.22654
2.6236
2.69401
2.80453
2.88589
2.96372
3.0429
0.876506
2.37361
2.15359
2.50955
2.57481
2.67397
2.74697
2.81101
2.94
1.04947
2.42466
2.21391
2.45949
2.50474
2.58391
2.64652
2.7121
2.77977
1.20592
2.51997
2.29583
2.42864
2.45261
2.51118
2.56462
2.62955
2.67073
1.28215
2.58059
2.3517
2.39106
2.39886
2.44015
2.48622
2.5438
2.59684
1.35482
2.5743
2.36191
2.33284
2.3328
2.36288
2.40472
2.45596
2.52275
1.3243
2.42024
2.29156
2.24095
2.247
2.27424
2.31531
2.36016
2.45589
1.19877
2.13188
2.14504
2.11718
2.14188
2.17482
2.22002
2.26827
2.35623
1.10683
1.84145
1.97552
1.97894
2.02351
2.06457
2.11301
2.16414
2.22687
1.06306
1.61746
1.80908
1.83897
1.89887
1.94889
2.00181
2.0583
2.12728
0.976511
1.44738
1.64581
1.70218
1.77131
1.82891
1.88487
1.94797
1.99267
0.797165
1.34236
1.48552
1.56998
1.6414
1.70448
1.76279
1.83476
1.80612
0.46946
1.34248
1.34337
1.45668
1.5246
1.58891
1.64724
1.71889
1.66904
0.0543327
1.38485
1.13366
1.27189
1.34244
1.41804
1.50019
1.59825
1.53133
-0.0686493
1.73331
1.33534
1.45472
1.48592
1.48025
1.52223
1.60856
0.992971
12.6411
12.7343
13.0967
13.5968
14.1672
14.8234
15.5542
16.357
17.223
18.1369
19.086
20.054
21.0157
21.9589
22.864
23.7057
24.4732
25.1491
25.7186
26.1763
26.5488
26.9879
27.3438
27.146
26.7134
26.6694
27.1632
27.9713
28.6231
29.2349
29.9746
30.5056
30.7042
30.7214
30.64
30.469
30.2225
29.9539
29.6807
29.4505
29.292
29.2336
29.2876
29.4837
29.8245
30.2116
30.5947
30.9991
31.4134
31.8257
32.2402
32.6537
32.9521
33.0116
32.8699
32.6297
32.2509
31.7641
31.5222
2.16946
1.77673
1.51069
1.25529
1.03269
0.833741
0.622495
0.405083
0.219719
0.0816248
-0.00767238
-0.0452742
-0.0294016
0.0398268
0.162241
0.337314
0.565086
0.848558
1.19481
1.61479
2.12553
2.75483
3.49183
4.38091
5.21402
5.65669
5.68064
5.2143
4.51867
3.94728
3.54291
3.25757
3.04207
2.87736
2.75312
2.65723
2.58448
2.53467
2.50695
2.50011
2.51138
2.53605
2.56985
2.6087
2.65479
2.69568
2.69428
2.65707
2.64165
2.7056
2.8751
3.24033
3.82368
4.47112
5.1596
5.95395
6.79042
7.63526
8.74432
6.39473
6.54613
6.66948
6.83001
7.01432
7.21979
7.44579
7.6946
7.96693
8.26082
8.57488
8.90668
9.25396
9.61315
9.98179
10.3573
10.7373
11.1207
11.5079
11.8991
12.2952
12.6949
13.0824
13.429
13.7003
13.8979
14.0335
14.0894
14.0416
13.9697
13.8998
13.828
13.7493
13.6705
13.5968
13.5323
13.4815
13.4498
13.442
13.4625
13.5159
13.6042
13.7313
13.898
14.1064
14.3562
14.6463
14.9754
15.3489
15.7656
16.1613
16.5214
16.8996
17.2672
17.5886
17.8484
18.0343
18.1981
18.183
3.25466
3.11773
3.05234
3.00555
2.97605
2.96706
2.97837
3.01151
3.06846
3.15122
3.26199
3.40258
3.574
3.77732
4.01228
4.27816
4.57345
4.8954
5.24126
5.60652
5.98579
6.37092
6.74968
7.10523
7.41295
7.64995
7.80391
7.87263
7.86773
7.81526
7.73163
7.62523
7.50123
7.36362
7.21493
7.05796
6.89518
6.72977
6.56655
6.41049
6.26831
6.14697
6.05574
6.00377
6.00219
6.06046
6.18774
6.39174
6.66991
7.02832
7.50131
8.04278
8.57128
9.08656
9.62315
10.1689
10.6813
11.177
11.7194
4.52447
4.58433
4.65025
4.74094
4.84888
4.97304
5.11239
5.26629
5.43384
5.61386
5.80581
6.00895
6.22215
6.44522
6.67707
6.91702
7.16423
7.41689
7.67408
7.93352
8.19227
8.44588
8.6882
8.91253
9.10999
9.27513
9.40327
9.4935
9.54704
9.57026
9.56966
9.54873
9.51257
9.46592
9.41135
9.35458
9.29877
9.24653
9.20536
9.17983
9.17569
9.19895
9.25622
9.35373
9.4982
9.69376
9.94396
10.2488
10.6011
11.0011
11.4746
11.9839
12.4531
12.8677
13.2453
13.5809
13.8576
14.1119
14.2594
3.43501
3.37889
3.36463
3.37114
3.39482
3.43736
3.49953
3.58161
3.68411
3.80659
3.95028
4.11474
4.29998
4.50523
4.72904
4.96961
5.22479
5.4889
5.76189
6.03959
6.31833
6.59095
6.85094
7.09386
7.30705
7.4899
7.63413
7.74227
7.81329
7.84931
7.85637
7.83205
7.78394
7.7176
7.62937
7.53154
7.42292
7.29855
7.17721
7.06135
6.95938
6.87937
6.83021
6.82151
6.86446
6.96197
7.12394
7.35035
7.64198
7.99481
8.40325
8.85028
9.32247
9.80063
10.2576
10.6863
11.0799
11.456
11.8189
3.70058
3.70711
3.73522
3.78537
3.85151
3.93396
4.03087
4.14357
4.27089
4.40994
4.56198
4.72528
4.90131
5.08783
5.28284
5.48612
5.70046
5.91112
6.12918
6.34699
6.56778
6.78052
6.98211
7.17968
7.34514
7.49857
7.61866
7.72091
7.79776
7.84659
7.88231
7.88217
7.86477
7.84264
7.78888
7.74366
7.69412
7.61165
7.5569
7.50823
7.47691
7.4684
7.48839
7.54521
7.6564
7.80566
8.01795
8.27908
8.59364
8.95451
9.35091
9.76736
10.1927
10.6148
11.0009
11.3393
11.6307
11.9016
12.1176
3.42904
3.37847
3.35724
3.36467
3.3819
3.42744
3.47968
3.57137
3.67629
3.76578
3.90067
4.0424
4.20933
4.39827
4.59338
4.81486
5.05504
5.2302
5.43959
5.65827
5.8993
6.11869
6.3163
6.54594
6.68847
6.85236
6.94957
7.05319
7.13076
7.17846
7.23655
7.21605
7.19323
7.19622
7.09598
7.08168
7.09512
6.9054
6.80178
6.69976
6.61885
6.5566
6.51738
6.51279
6.6384
6.71797
6.93576
7.13998
7.36757
7.66549
8.03524
8.46717
8.88132
9.29976
9.72335
10.1393
10.5134
10.9108
11.2186
3.31581
3.34414
3.3477
3.40639
3.46097
3.54918
3.61477
3.67183
3.78907
3.98656
4.03299
4.17503
4.36916
4.50893
4.72685
4.80463
5.04517
5.22886
5.43741
5.58199
5.79443
5.95426
6.11376
6.32669
6.41455
6.56991
6.62983
6.72753
6.85331
6.7938
6.96807
6.93732
6.84683
6.90283
6.7768
6.83285
6.67814
6.44627
6.55601
6.46641
6.41387
6.41701
6.34828
6.35991
6.44811
6.47871
6.62371
6.75283
7.10713
7.43107
7.73405
8.06513
8.42025
8.87248
9.2856
9.612
9.94377
9.77197
10.2001
-4.3181
-4.30714
-3.95364
-3.47102
-2.87636
-2.26929
-1.75322
-1.26794
-0.776785
-0.365037
-0.036753
0.292234
0.586331
0.849035
1.25272
1.84901
2.50643
3.19066
3.95866
4.84256
5.84946
6.99593
8.35716
10.0949
11.6853
0.904403
0.98046
0.863031
0.716981
0.682637
0.808953
1.01398
1.24504
1.45683
1.52414
1.42137
1.25732
1.10491
1.01615
1.08804
1.32382
1.552
1.63556
1.69737
1.88566
2.16302
2.47456
2.79885
3.15584
3.27621
-0.189322
-0.131747
-0.0456623
0.0557128
0.216054
0.431782
0.660246
0.873817
1.05062
1.1438
1.15145
1.12051
1.08499
1.07886
1.15642
1.33099
1.55872
1.80652
2.10144
2.47387
2.92215
3.44486
4.04687
4.73391
5.59219
0.242655
0.274354
0.365062
0.45268
0.566716
0.703546
0.848522
0.984881
1.09948
1.17545
1.21291
1.23033
1.24592
1.2772
1.34436
1.45356
1.59373
1.75578
1.94735
2.17628
2.43783
2.72017
3.00607
3.25761
3.52101
0.3033
0.329481
0.42427
0.517695
0.631503
0.754413
0.880231
0.995696
1.09421
1.16833
1.21871
1.25569
1.29116
1.33616
1.40379
1.50116
1.62865
1.78612
1.9779
2.20727
2.47605
2.78467
3.13951
3.53697
4.07942
0.414155
0.453102
0.54877
0.634581
0.738595
0.842809
0.950377
1.04719
1.1323
1.2018
1.25487
1.2988
1.34238
1.39109
1.45445
1.53831
1.64567
1.77853
1.93887
2.12581
2.33976
2.57531
2.83124
3.08621
3.41816
0.547293
0.536797
0.641051
0.715539
0.814252
0.904685
1.00353
1.08874
1.16638
1.23354
1.2857
1.33065
1.37763
1.42664
1.48722
1.56474
1.66294
1.78554
1.93448
2.10695
2.30871
2.53438
2.79327
3.08146
3.47974
0.674765
0.599573
0.72572
0.786314
0.884972
0.963662
1.06101
1.13598
1.20618
1.27144
1.31877
1.36016
1.41086
1.45944
1.517
1.58963
1.68004
1.79229
1.92751
2.08123
2.26812
2.47281
2.72701
3.00952
3.357
0.669319
0.637998
0.818486
0.854721
0.950706
0.999629
1.09944
1.15862
1.24336
1.30646
1.35514
1.38638
1.4286
1.46872
1.52585
1.5912
1.67327
1.77725
1.92907
2.07823
2.24359
2.44563
2.6578
2.77128
2.98113
-12.2928
-11.9607
1.74372
5.76816
1.71912
1.63627
-2.73603
2.21876
0.487857
6.36456
-12.0428
2.23814
-13.8094
0.951101
-7.28807
3.6544
-7.26098
5.73253
6.63877
-14.3834
-16.1523
4.1427
-11.5005
3.7076
2.17693
3.06111
2.14257
1.11863
-10.7443
-9.80345
6.40237
3.6642
-14.1317
-11.4724
-10.3426
2.0337
-4.00534
-7.05384
-5.93539
4.26353
-12.9701
4.24855
3.52666
0.990427
2.20551
5.617
-11.6294
-9.78606
-10.0093
-13.2947
-11.6148
-12.1125
-15.338
5.79063
-2.56089
0.71391
0.931367
-16.0174
1.43246
-8.77695
2.24535
2.56734
1.73493
3.7165
2.17381
0.959526
3.3652
3.75383
-11.7431
-12.023
0.089708
4.72951
1.82452
-13.7228
1.79267
-16.9348
-12.9006
-11.6965
1.11121
5.9094
-11.4305
2.44151
2.4983
-8.60061
1.8882
2.30575
1.79493
-11.8881
-14.2743
2.68033
3.04614
2.7093
5.68252
2.29192
1.72573
-11.9022
2.9498
-11.323
4.16422
-8.89668
1.40159
-13.4477
1.37229
4.19201
1.50373
1.37332
-11.5186
-12.9828
2.87713
-9.28387
3.53919
2.54954
-10.2637
4.1083
-15.9072
-9.9196
-13.1648
4.57279
-14.0501
2.72811
3.32565
2.46377
3.90105
2.2812
-13.942
3.54219
-12.3404
-15.1906
0.816441
-10.0809
2.64685
-13.8654
-11.5973
-8.94882
0.88837
1.811
2.26707
1.51358
2.51502
-13.8461
2.86974
-4.79842
-9.45083
3.35694
-10.4082
3.22309
5.19445
-14.5624
2.43257
-10.4805
-0.463617
0.459929
5.05483
-7.38728
2.12763
-9.76746
1.70785
4.39132
-11.0042
4.98825
3.78256
0.0883465
2.91443
-11.3543
4.32798
-8.47591
0.880525
1.97046
4.64964
1.70142
0.947798
3.84486
3.50787
-8.78035
2.97142
1.11445
-13.2099
-11.1982
-9.40661
4.79646
-10.8522
4.05911
-14.7639
-10.7429
1.44651
4.75915
-8.86266
2.82667
-14.0198
2.95576
-9.53817
-9.62162
-2.72416
-3.83094
-7.66299
-14.0418
1.81437
4.03022
-10.0817
-10.7705
-12.0625
4.33432
2.61089
2.74789
-0.188775
4.87851
3.75082
1.44161
-10.6957
4.41776
1.49342
2.37613
-10.8862
-0.340287
-0.568176
-12.7163
1.63803
4.93062
6.69865
2.15928
1.36301
4.30146
2.20883
2.76954
5.93965
-13.0139
3.08399
-6.94714
2.86146
1.78963
-9.46221
2.1634
3.86906
2.71566
-5.46626
5.33624
-10.8275
1.17277
-11.0367
-6.90102
5.25536
2.14759
4.43883
1.07238
1.81193
2.03536
3.49889
1.46597
3.3746
4.48081
2.91785
1.16982
4.08298
-10.5531
3.31722
1.79576
-10.1222
-12.6001
-11.0142
9.16683
3.0837
0.817356
2.66293
2.03516
-13.7022
2.36387
5.29914
4.85267
-3.53969
1.9941
-15.1566
-3.27794
4.00396
4.94861
7.19878
4.76202
3.52974
-0.966235
0.855814
-11.3996
1.06846
-0.394206
4.06596
5.27871
-9.0938
2.90077
1.25121
5.99287
-12.3512
-9.47647
-4.95593
3.11441
3.95561
-12.3601
-10.5291
-12.8408
-11.752
2.98138
4.81567
-9.77862
-10.6811
3.55213
4.67334
2.87324
-10.8764
4.8738
-16.4717
3.55105
-14.0257
2.63562
4.20388
4.85611
-14.1995
0.977644
3.97209
-3.49113
-11.6059
4.12295
2.19919
-8.70842
-11.5453
2.92477
4.66008
6.31372
1.97945
2.38634
-13.2878
-12.9859
3.22024
-15.584
4.12502
-7.80924
1.36748
5.86748
-12.2685
2.26271
2.3264
2.61357
2.78234
3.4528
2.37819
2.15377
-9.63013
3.99706
-13.7231
1.66141
1.56436
4.11591
1.88908
-9.95189
0.897389
5.80014
3.58349
-11.3348
-12.3937
5.90219
-8.07623
0.652071
4.35694
-8.6572
-10.8971
-11.4412
4.93029
-13.1791
4.34304
1.7841
3.90855
-12.0938
2.47248
-13.695
5.50287
-7.74688
-10.8534
-5.77096
-12.3612
2.52343
2.56041
4.86785
4.96976
5.42462
-11.5828
3.02894
-13.682
0.835613
1.01664
-9.36374
4.5649
-14.4114
-12.3741
-9.29974
-1.15212
5.15595
1.94007
-10.6892
-10.931
7.40302
4.46923
-13.6517
4.47074
-10.4614
2.15543
3.69238
1.816
-12.7901
2.07734
4.79515
-3.55497
1.92801
-0.210294
4.3076
-7.70694
2.3386
-9.51757
2.34536
2.98676
5.58019
-9.74205
-9.76623
4.86531
3.00179
4.03332
4.77633
2.65453
1.30146
4.93891
-11.0324
2.81604
4.40406
3.59328
3.67603
2.19109
1.77855
2.25679
1.13759
-3.44911
4.11916
3.00181
3.91669
4.05128
5.15298
4.8913
-6.83237
-12.6541
0.340499
-12.5666
4.78428
1.25331
-3.37115
1.44173
1.0795
-5.73948
3.94824
2.7491
-9.67884
5.43591
-12.0217
-8.36845
2.55594
3.03679
-14.3536
2.86852
0.438663
-7.77141
-10.9643
-11.0578
1.93156
1.60808
3.15969
4.87709
-11.8724
1.14524
1.88219
-11.2568
5.24125
2.30896
-12.5995
2.37088
1.76809
-14.3997
-14.4774
-0.670561
-6.52462
4.55857
2.16137
-9.29396
1.82238
2.38363
5.42606
-11.397
4.00227
-9.29685
3.32194
2.47606
-10.4359
2.3913
1.55267
-8.33724
2.31963
5.55493
-13.607
3.57327
-4.36831
2.59851
1.07916
-13.9162
-11.3637
3.23544
2.9373
-3.3292
3.12785
4.00695
-10.9707
3.18494
2.48219
4.79674
-12.1389
-11.178
-9.52827
2.48726
-1.00343
5.63831
-9.83936
-14.3662
5.44271
-11.197
5.70391
-11.1472
-13.7188
4.6558
4.7984
1.23901
3.92138
4.27731
-1.36988
2.68535
0.138134
2.9837
-9.91193
-10.1979
3.15564
-9.75094
-9.15091
3.2828
-11.8964
3.5878
3.41493
2.86471
1.35148
2.36286
-1.44404
-5.35936
-6.66532
0.850999
-10.5469
-9.71956
-11.4803
2.13852
5.21439
-12.8952
-11.2922
3.11068
-9.70061
2.82132
-12.7969
-9.80563
6.92536
-0.804554
1.34242
3.88767
2.73587
-14.3007
6.19797
-7.7769
1.6216
1.65337
-9.87676
-10.1152
-11.1411
1.31517
2.82168
-13.2859
-16.1037
4.10084
5.40714
2.34963
-13.4593
3.96235
1.64615
-5.14661
5.39588
1.61923
1.82069
3.79436
-8.88622
5.25543
1.34052
-11.9805
-9.8622
1.72844
4.07763
-9.59539
1.19712
4.41976
4.58505
-14.861
3.44803
2.67409
4.2866
6.01087
3.8854
3.8997
-5.78305
2.11147
4.54734
1.32517
-15.4995
5.02667
1.56604
3.9143
4.06713
1.96526
2.69101
5.03118
0.325622
1.85647
-8.96951
-8.77811
1.09222
-13.1072
1.6588
1.8927
1.82556
4.67828
3.37845
2.75516
-14.8775
2.87512
2.30813
0.530159
-10.3866
-1.02929
1.04739
0.981442
3.74891
1.73979
4.77389
2.95005
0.353097
-9.14974
-8.74598
-11.2886
4.95627
5.96042
3.52489
6.00129
4.4129
-10.1603
11.273
-16.0701
4.43412
-11.1287
5.99686
-11.6235
3.43153
1.88211
2.33184
-12.8899
-3.52871
0.949776
-15.9606
1.82282
7.49507
1.99792
-10.5067
4.48587
2.84973
-9.02667
2.09641
5.51244
5.15773
4.06762
-14.6695
4.62465
2.57376
5.28598
0.98942
4.73244
-10.2894
-11.9948
3.38562
-4.15737
4.80727
-12.0475
2.5069
5.35115
4.38839
2.94205
-5.14115
3.45145
4.17817
1.45991
3.71303
3.23556
4.8328
5.57827
-8.75484
-9.68529
-0.28726
-10.4219
-5.69295
-11.8476
-10.5036
8.36314
1.72304
1.92923
4.79171
3.00842
0.428729
3.49401
2.19359
-12.7334
4.8509
4.2005
1.54217
4.16036
3.12686
2.08518
-0.155198
-12.4391
-12.7119
6.29974
-10.2071
-1.86968
-11.2513
-15.9591
-13.3387
-12.5569
4.44837
4.91258
3.28895
4.48555
4.04999
2.74536
-10.1292
-11.941
4.34634
-11.5471
0.475134
4.99948
2.13834
2.48355
-8.5551
3.62066
2.19518
-2.36596
-8.04157
-13.9426
-11.3427
4.79868
4.92445
1.74048
4.5699
-11.1734
-0.529884
-11.5926
-7.9427
1.71523
-9.17617
2.85745
4.86119
1.30259
1.58975
1.5373
5.00576
3.1829
2.11595
2.78191
2.71765
3.59412
2.67477
2.97097
4.49381
-10.8079
-5.412
3.9659
1.20705
3.62756
-13.7133
1.95292
7.27844
4.4057
-14.8403
-0.41087
4.63067
2.86388
-10.5096
3.4226
-13.5572
2.85259
-14.3998
-10.9991
-9.5945
4.70335
-8.95738
0.705394
4.81121
-11.838
4.12858
2.14913
2.49153
-14.3449
1.59764
3.67989
1.82645
-13.0497
1.85658
3.08505
-7.25897
5.0199
3.86681
-0.83702
-11.1944
-12.4271
4.74102
5.03193
4.62535
-14.7145
-5.12111
4.18218
2.01089
1.59374
-12.4162
5.03989
2.07724
-12.4095
7.08257
2.58169
4.97647
6.13238
-13.8497
2.60305
-14.9509
4.49926
2.40524
-10.7243
4.46163
5.10587
5.02155
1.12353
-15.0793
-11.9441
4.78892
4.77008
2.48619
-8.22389
-13.6022
2.31209
2.80321
-10.8832
-6.6018
2.89078
1.61104
1.50897
-9.57514
4.63527
-12.7278
3.54302
2.8951
-10.5935
3.20452
5.30107
3.58782
-15.3308
-10.4911
-8.99278
-9.28156
5.81135
-13.2793
-8.59086
4.66749
-2.76865
1.99357
1.53705
-14.3435
2.72233
2.05893
-15.5851
3.75892
5.20872
5.11831
-14.2498
0.781326
3.51582
-10.6253
-11.1592
-10.1542
4.74525
2.55451
-9.96975
-11.0973
-10.3469
-14.515
-13.3324
0.347341
4.70885
-1.07974
-9.45303
3.84803
4.64523
0.415897
-6.37575
3.66534
-1.65082
-12.07
3.48542
1.58913
5.09044
-8.9946
-3.9119
-10.7754
-9.91877
5.7763
1.15017
-0.702187
2.41616
-11.5784
-15.2502
4.71753
2.72298
2.65432
4.93104
-14.2372
-12.1427
2.5905
-9.86254
3.98127
-10.7915
5.54594
2.03295
2.27778
-2.05031
-11.3591
0.968812
-14.6424
3.18865
3.35269
-4.77745
3.83079
-8.01611
-9.24359
-9.19348
2.57047
4.11091
-3.99764
3.20239
4.42781
2.30894
-9.94175
3.17193
1.32117
-10.9549
-3.89662
1.59881
2.59114
3.62657
4.21672
1.57174
3.97525
-15.267
4.57889
2.42662
-9.62793
-13.9597
-3.02605
2.97654
2.81511
-1.29698
5.07181
-10.1207
1.65632
1.49942
-10.0586
3.07613
2.46165
0.345627
1.90631
-10.5692
5.50706
4.47883
4.48414
-3.20422
-2.97956
-13.2083
2.22888
-13.0108
3.32848
3.55149
3.33539
-10.2265
-10.5876
3.57743
-8.51374
5.03546
-10.3005
2.88744
-10.4342
1.82851
2.01357
3.73779
-1.71148
-6.40147
2.73987
4.94483
-14.1967
4.93492
4.67934
2.31467
4.45187
2.80095
-10.3586
3.79179
2.97068
-8.82357
1.20431
-9.30652
4.94765
3.32446
3.70066
5.7982
4.55829
1.54978
-13.3353
5.80101
0.757983
4.86597
2.32817
-1.05042
-9.82592
3.93602
5.16389
2.90828
4.44803
5.00388
4.45163
-9.80183
5.87735
-15.6244
3.12999
-5.07923
-10.606
1.21701
-14.3057
3.30673
-11.6063
-11.4668
-9.58249
2.43108
2.6902
1.15919
-11.0791
4.64537
3.23817
3.45204
2.38594
-8.97052
1.29285
4.13791
1.52528
6.14906
6.7496
5.56489
-11.3488
8.42167
-14.4714
4.57843
3.80904
4.53733
5.34945
-14.2958
5.07499
-13.5229
-12.8816
1.90807
4.37955
-10.4383
-10.9708
4.95272
4.79127
4.85668
4.45795
5.86654
1.23398
-10.9884
2.82212
6.50987
-13.6924
2.34116
-0.212043
-5.85953
4.36683
1.8589
4.59565
1.36491
-11.8311
3.99766
-13.3797
4.09852
1.28652
4.57082
-13.6482
-13.818
4.20026
6.60755
-11.5439
4.38594
1.5577
-7.42797
-11.0849
5.23734
5.53533
5.1036
0.989254
-12.0368
1.97184
5.2325
-12.1323
-9.86932
4.85032
4.07392
1.73213
6.66294
2.99544
-15.007
2.21924
-10.0662
2.42548
4.94408
2.06539
-14.3619
3.7508
-12.4056
-8.29935
-8.7334
-11.9851
-10.5297
5.93952
3.33921
-12.9287
-14.3401
2.48389
4.4555
2.58958
1.31717
3.90112
2.23488
2.63889
-5.87925
1.64518
1.16941
-5.97768
1.52018
2.48973
3.19699
-9.62541
4.93605
-12.5835
-11.6307
1.50448
4.00751
2.55515
3.60315
2.49667
-12.6491
3.66718
4.98628
2.43737
3.99279
-11.346
-13.5643
3.77424
2.86105
1.70106
4.85044
1.86679
1.09932
5.86383
1.48768
0.6196
-10.9303
4.93361
3.0303
-3.70683
2.88325
2.10951
3.23468
3.85309
2.50968
4.47514
-13.5391
3.2086
5.41068
-9.96825
1.77447
-1.23173
-5.93734
4.59065
2.786
4.95321
-8.30938
3.28152
-12.0705
5.4254
-5.49623
-13.1961
-14.921
-10.9588
5.2157
2.29887
-13.9289
-12.5763
1.44715
4.40184
5.18534
-11.8499
4.97705
3.027
5.02602
5.29114
-1.47031
5.081
1.69563
4.88639
-11.0677
-14.3002
5.32682
6.18495
5.32839
3.99003
2.6469
-9.05497
5.96631
0.193711
-14.1245
-15.023
4.59378
-12.182
-10.7036
-13.9231
-11.607
0.677966
-10.5164
-12.4384
-9.49844
4.84031
-9.96557
5.3373
-0.250973
5.99974
5.57861
-11.3866
-9.16854
-10.9613
-11.315
1.24723
3.73951
-2.71604
-12.4471
5.75192
-12.9241
4.54522
-13.969
5.41431
-10.7441
-0.291798
1.51792
2.8115
-14.5921
2.48882
0.320392
-13.6196
4.32056
-9.99987
2.90536
3.7312
-7.71933
-2.45422
2.80726
-14.8019
-7.37353
6.10905
-13.8697
5.73576
5.11844
1.14534
1.61873
-12.5673
-11.0151
4.94939
-13.9697
4.14142
-15.6317
5.76113
4.75971
3.77531
-15.8895
-1.4552
-10.8041
3.43848
-10.0464
1.96167
-13.9585
-12.7856
-0.305515
4.89109
-10.7782
4.15832
3.10674
4.39821
-10.8716
-12.7731
2.23779
-14.1177
2.87492
2.8131
-3.72047
3.52208
2.36074
-11.6851
5.15714
4.67071
5.82722
2.49334
4.00913
6.2147
-13.2801
-11.39
2.54552
5.35088
3.02235
-10.9733
-11.297
2.3604
0.751661
1.33445
-14.3127
0.717612
-1.74743
-11.6563
2.07526
-14.244
-12.9515
2.22614
2.3438
5.1821
5.72215
1.97824
3.30679
1.48538
1.1186
-12.1718
3.65791
-13.4966
2.19474
-12.3104
4.23231
-10.232
-0.335926
-13.155
-10.7728
1.58058
-0.0203061
3.96952
4.07016
3.79482
-10.367
-9.80335
5.07424
4.77369
3.26821
4.40518
2.37503
2.97073
-13.3301
-9.86634
-14.0231
-13.4516
5.28422
1.9679
-10.9682
4.0953
-10.8785
4.59078
2.37938
1.51417
3.13296
2.36305
3.3422
2.32057
-0.0612275
-13.3356
-11.071
6.21417
2.29695
-14.1966
-0.580612
2.66707
-10.5159
-11.9068
-9.45776
3.79045
-14.7508
2.55827
5.40786
5.11125
2.17135
8.65362
-7.85055
-11.6857
4.63212
1.26419
-13.6315
2.87142
-12.2844
-9.20754
3.34307
0.963553
4.17263
1.35565
-11.2305
1.70635
-10.9772
1.35136
4.48392
1.4379
5.55228
0.808285
5.21678
3.48659
4.72057
1.921
2.80302
-13.7533
5.48654
-7.52476
3.12066
3.49679
3.97118
1.47571
2.63446
-3.17855
-12.1311
3.12691
-11.782
6.50449
-12.0201
4.46518
5.01582
2.25996
1.95599
-10.3697
3.49404
3.72673
-0.944073
-6.65996
4.21919
5.67353
5.24816
4.53383
-3.94824
2.56688
3.00984
-14.4565
2.4529
6.15478
3.52458
-13.0095
3.53603
-11.4456
-11.3891
5.31231
3.77802
4.54393
4.57449
-13.9231
4.21121
5.93508
4.02647
-14.8729
1.45992
4.86273
2.00327
-5.47383
-7.78735
1.53642
2.75801
-9.49744
5.19824
0.744644
-9.89782
3.4841
-1.34145
-11.4404
6.39093
-11.3021
4.82652
3.42401
5.38507
2.33191
-5.0179
-9.28683
3.8438
5.87668
-12.0451
3.77456
4.88257
4.70428
0.91777
-4.12989
2.03132
1.80719
6.18854
3.12132
1.87572
3.17693
1.47273
5.29922
-8.35953
-14.1523
1.84906
-11.1996
1.50095
-13.6634
-11.1502
-12.6705
-9.65689
5.6351
4.41235
-14.6076
4.87921
4.11626
-10.1329
3.2968
4.56387
-11.3481
-13.5751
4.0556
-9.38904
1.79388
-10.9135
1.60166
4.83114
-1.12577
1.13695
-13.7031
3.59439
4.81764
0.99547
3.17016
-7.57806
0.298261
3.53208
-11.721
1.02375
-11.7766
1.26595
-13.883
3.54628
4.83399
2.54432
5.86335
-15.6477
-9.00126
-14.5851
1.76895
-12.8507
-10.0864
5.84643
-13.7837
-0.894716
4.86045
-15.2794
-10.4079
3.72809
1.53309
1.67342
-13.3103
2.25773
5.02998
-10.7281
-14.4956
1.05963
-13.3785
-11.555
2.36191
1.29389
-3.04762
1.48971
-15.113
1.56498
4.76054
2.40967
-9.42241
1.87184
-1.86044
-11.7265
2.09931
-1.638
-4.71556
4.77568
-11.6159
4.38489
-15.4619
4.43977
2.42979
3.29935
5.49381
2.73311
2.98264
4.50501
1.58963
5.16182
-12.0419
-14.5598
2.7686
-15.4527
1.93486
2.49203
3.56344
3.88657
3.42324
-6.54261
5.05842
-3.66789
-12.341
-5.51741
-12.9772
5.78703
4.27934
-12.5758
4.16227
2.20266
3.37413
2.2701
2.65056
-9.81524
4.13538
4.86961
2.05369
1.35347
1.31012
-4.87569
-1.33512
-2.2523
-11.9054
2.76447
2.29831
4.47315
3.32142
2.08586
2.64921
1.38012
2.41075
5.04013
4.51827
5.04286
-2.36355
-12.3642
-10.3704
1.48848
4.69343
-1.67433
-9.50251
-10.2829
1.78432
2.76599
0.894929
4.66118
2.0963
1.48595
-9.6319
-1.40718
2.25703
2.96142
3.66091
1.52808
-11.7469
1.8331
3.7238
2.65288
3.13407
-10.6785
5.62924
-7.29891
5.57732
1.56027
1.54708
4.44843
-10.6238
-0.451518
3.66242
-13.1563
-14.3143
0.474971
4.91624
3.18026
-10.8526
-14.0498
-13.5182
2.53153
-14.3392
4.8701
8.35184
-8.95678
-10.0554
2.22206
2.63224
-2.01346
-4.60984
4.84013
1.88186
-10.2614
2.34427
5.78935
3.2169
4.20402
4.59825
5.83221
4.87774
4.53047
-11.9623
4.02441
1.98023
1.69891
4.65551
0.0338687
1.526
-15.2121
-1.35152
-1.30217
5.05735
4.25908
3.80662
5.26136
3.43614
2.36192
-14.7307
4.59566
1.57097
5.75374
1.83827
3.06692
1.6362
4.60331
-12.6334
2.07385
-13.967
3.64886
7.49672
4.2494
3.71507
5.04187
-11.1924
4.20694
1.71867
4.64409
4.44897
-10.0556
2.72841
4.47257
-12.7628
-13.1519
2.03743
-10.6142
4.93608
-12.8498
4.80451
-13.2281
4.92393
-3.20114
2.62426
-11.3782
1.10425
-10.5166
-9.48663
-10.1032
0.645463
-13.3973
2.51966
1.79614
2.52716
-11.1369
4.3124
1.66441
-14.921
-10.5316
-11.4369
5.33726
-13.7635
1.5846
3.77942
2.18042
-0.677726
4.54985
-5.37978
3.66124
3.0474
5.33653
5.08445
4.71412
-13.4097
4.53061
5.89012
-10.5822
-0.876688
1.81963
2.5082
-9.91841
4.17227
4.2344
-12.1813
5.01789
-1.49037
-3.31838
4.15005
1.27369
-14.7644
2.7181
4.62839
4.88491
2.1187
5.00141
2.98126
-12.7131
1.9233
-10.8627
1.00799
1.48025
-10.5339
0.136214
0.75896
4.64313
1.92355
3.0647
1.93834
-11.1626
-11.0434
4.6422
3.6179
2.98466
-11.2823
1.50935
-1.6418
1.93957
1.48144
4.63055
5.56454
-2.50805
1.4989
-13.8346
-12.0545
4.66556
-9.20003
6.71874
-14.1035
-0.669591
2.17828
3.81977
1.49631
3.84619
3.5788
-10.7855
-4.8628
-12.6528
-10.2568
-14.7952
4.04605
1.95497
-4.23076
2.02654
-2.88382
-12.985
4.69579
-10.258
-14.2043
-9.23991
4.39203
1.90936
2.72845
4.84543
-12.7356
4.94857
-12.0348
4.26874
5.22043
1.39044
-10.6041
-11.7843
3.01025
5.06092
5.89854
4.59434
3.53953
-1.28831
-14.3613
3.72415
2.36815
-11.6025
4.81247
-12.4689
4.97893
2.98141
5.47612
-10.712
4.17328
2.72707
4.59019
4.72787
1.16252
3.22009
-10.3045
1.23017
2.77948
3.64126
2.54469
-14.6056
1.99775
1.81975
-6.17226
-10.8848
1.47605
-13.6941
4.77302
-9.69071
-15.2715
4.17469
1.22332
3.34935
3.07112
1.7493
-13.3126
-0.830662
5.61554
2.12048
-7.003
-5.35822
-8.78474
-12.9246
0.251195
5.64721
-11.6318
1.48491
2.33798
2.55432
5.11252
-13.27
-13.2338
4.05905
-13.9774
4.13581
-14.8449
-0.344969
-9.99847
-13.3727
-9.82404
3.565
1.23449
4.61361
1.50609
-15.801
-5.05273
4.96977
-1.0495
1.80673
-11.6291
4.54149
-3.97978
-4.79855
-9.92642
1.47826
-11.9304
0.852643
-12.9368
-11.0123
4.78604
1.69469
3.57102
6.03267
3.09888
-4.7451
4.70344
3.1631
-12.6651
1.77291
0.630556
1.08016
4.1104
5.50192
-13.7708
-13.9329
0.951122
-11.357
2.63586
4.40418
3.55785
-11.3275
-12.2948
-11.7231
3.20514
4.21218
4.46794
-10.1733
0.925906
-0.962431
2.97616
-13.2527
3.15257
0.943436
-14.6518
4.35541
5.17072
1.53251
3.89825
2.83998
6.19485
-2.19765
3.49696
4.30384
-12.1612
3.22607
-10.4408
-11.0529
1.01325
-5.87184
5.76812
-10.0705
5.83188
-10.7291
2.49742
4.19808
5.19875
5.56985
3.55466
0.345217
6.68028
-15.1654
3.38749
4.24925
3.05578
-13.4941
4.20916
4.09812
3.50271
-14.1391
2.89244
-9.41907
-7.64891
6.70423
5.88105
-2.59708
-13.1537
-13.2895
-1.97418
4.98555
1.55469
-12.0812
-11.8455
-10.6986
-10.0505
4.20073
3.65893
3.04805
1.09764
5.947
4.65145
4.90633
1.89372
4.56951
-13.3372
3.87447
-14.2861
4.80123
2.96345
-4.22856
3.03706
-15.305
1.21007
1.81821
2.56083
2.67573
5.0614
1.78849
-5.09203
0.136527
3.17444
-3.28856
-13.2304
-9.68112
5.08357
0.027346
-10.1806
-13.7007
-12.0121
-12.7426
-9.18096
4.80255
3.79638
3.67665
2.66178
-13.9981
-12.9442
1.81301
4.98412
1.30614
5.98654
-10.1653
3.22396
-14.606
2.45075
1.68202
2.96674
-10.6793
3.12865
-14.5869
-11.243