/*--------------------------------*- C++ -*----------------------------------*\
  =========                 |
  \\      /  F ield         | OpenFOAM: The Open Source CFD Toolbox
   \\    /   O peration     | Website:  https://openfoam.org
    \\  /    A nd           | Version:  10
     \\/     M anipulation  |
\*---------------------------------------------------------------------------*/
FoamFile
{
    format      ascii;
    class       surfaceScalarField;
    location    "1250";
    object      phi;
}
// * * * * * * * * * * * * * * * * * * * * * * * * * * * * * * * * * * * * * //

dimensions      [0 3 -1 0 0 0 0];

internalField   nonuniform List<scalar> 
16133
(
1.98398
0.578165
-0.853698
-1.70849
-1.95504
1.88077
-2.26928
2.34354
-0.801907
-3.20547
2.46321
1.54417
0.202684
-0.606979
-3.57551
3.97982
-1.38897
0.374328
5.7978
-4.78312
5.60183
1.70186
-7.19372
-0.109959
-3.37477
1.02308
2.02035
0.331352
-0.0761313
-2.89921
0.782515
2.19283
-1.55267
2.2388
1.64503
-2.33116
0.532702
4.28447
-0.00352621
-4.81363
3.16359
-2.76555
2.02708
-2.42512
4.15753
-1.71469
1.51121
-3.95405
-0.248827
-4.42333
2.62304
2.04911
0.852531
-0.741369
0.664104
-0.775268
0.935155
0.743345
-0.825971
-1.47425
1.05105
-3.40268
3.82589
-0.675097
0.580611
-0.646886
-5.99453
1.28653
4.40905
0.298947
-3.79586
3.066
-0.822806
0.446907
2.2935
-0.756434
-0.658735
2.50774
-2.12782
0.278813
-0.100162
-3.36879
3.67162
-3.83284
3.92375
-1.56515
5.24041
-4.29642
-0.103129
-0.840849
-4.52997
5.41811
-0.355427
-0.0024185
0.00279586
-0.0731472
0.0727697
0.0350047
-0.00586758
-0.0222791
-0.00685805
-0.210363
-2.36205
2.14456
0.427857
-0.029975
0.053845
-0.0253012
0.00143114
-4.71264
3.00258
3.09846
-0.987107
-5.00181
2.89048
-2.33555
2.15172
3.34744
0.870889
-2.59701
1.64999
-0.0439846
0.160395
-0.00079476
-0.115616
-2.63845
-2.56967
2.72108
2.48705
-0.953721
1.65442
1.17388
-1.87458
-2.18941
-4.00202
3.55299
-0.046947
0.0842033
-0.0987519
0.0614955
0.043133
0.0905705
-0.0233259
-0.110378
-3.76486
0.756258
-0.787254
-4.94518
0.229015
-3.35679
-0.819891
-0.891785
-0.341217
0.11018
1.12282
-1.02543
3.07588
0.617758
-2.66821
4.129
-1.73777
-4.58064
2.30355
-0.828006
0.575829
0.0808255
-0.427166
-0.344149
0.610754
0.160561
1.78785
1.12192
-0.670969
3.50608
-3.22557
-0.380675
-1.49983
-2.05811
-5.44243
5.72839
-4.04773
3.76179
0.123148
0.0418654
-0.121881
-0.0235176
0.0369299
0.0480237
-0.061436
-0.0166198
0.0507698
0.0564204
-0.0238246
-0.0195364
0.0133859
3.58695
-1.95362
-5.63534
-0.0641277
-0.080545
0.121422
0.0232506
-0.519506
0.768992
-0.563506
0.314019
3.32084
0.0751944
0.0169458
0.0310082
1.78933
-1.51369
-2.23069
0.0856761
-0.00838003
0.00278105
-0.0800771
2.55703
-4.64277
4.16184
-2.07609
1.86282
-1.56666
-3.95953
2.63471
-1.88065
-0.46735
-0.237829
0.185672
-0.000937845
0.287486
-0.0328156
-0.253732
1.01791
2.27234
-3.73094
0.288524
-0.854007
0.028129
0.00515286
-0.0567995
0.1068
-0.0302708
0.0113322
-0.0878611
-0.920662
0.433747
1.49019
-1.00327
1.99316
-3.2855
-2.66719
0.731657
-1.06559
1.26909
-0.764125
-0.972108
1.05617
0.68006
-4.30862
1.4132
-0.835519
-2.01883
1.25599
1.78591
-1.67094
1.49395
1.04789
1.18895
-1.0755
0.618209
3.91535
-3.70038
0.427791
-0.642785
1.76315
-1.52364
-0.673113
0.433597
0.054423
0.12048
-0.133037
0.0461221
0.056609
-0.0658012
4.35427
0.303788
-0.742725
-1.55936
1.30268
1.20767
-0.950993
1.62881
-1.37544
-1.41216
1.15879
3.12305
-2.65069
-1.49781
0.910918
-0.440989
0.573861
-1.04378
1.92014
-1.45121
1.15986
3.68137
1.01702
-1.57534
4.90499
-1.83062
2.01213
0.32918
1.15249
-1.15583
0.914259
2.27847
-1.40748
1.04914
-1.79041
-0.722664
0.789636
4.16342
-0.0480769
0.563081
-0.812748
-0.815917
0.77557
-0.432659
0.426082
-4.04628
4.41721
-0.37168
0.000751141
1.0987
-0.976602
4.79056
-4.68005
1.26012
-1.3706
1.07973
-1.41074
1.03851
0.818909
5.00628
-1.03461
0.517387
2.25691
0.202127
0.336084
-0.530396
-0.507391
5.67123
-0.809573
1.24345
-0.661793
0.607293
-0.107635
-2.89018
-0.227754
-4.36783
-1.70118
-1.35305
-0.680771
0.510174
-0.680874
0.571272
-0.0556099
-3.20105
-2.95904
-0.490742
4.17015
0.737785
1.44992
-2.59197
-1.9379
3.03205
-4.09602
-0.193052
3.79831
2.11398
2.54908
-0.492911
0.558793
-0.176863
-1.14606
1.7401
-1.74139
-0.768816
0.462839
1.87467
-1.56868
-3.15734
3.47221
2.21166
-2.52649
-0.0514612
0.119631
0.00738427
-0.0755545
-0.304285
0.708887
1.12857
-1.27867
5.85
-4.73788
-0.0621736
0.050857
-0.0124143
0.0237308
1.35503
-1.41496
-2.8252
-2.66768
-2.5766
-0.939679
0.607523
-0.0151877
0.113687
0.00830025
-0.0570623
0.142707
0.0925137
-0.178159
-0.558797
0.69868
-1.93028
-0.12866
4.06038
-2.12195
-2.57444
0.233157
-0.658532
0.377586
-3.55296
4.91366
-0.0816704
-0.15077
-0.23491
-0.810242
2.6382
-5.41225
3.58431
3.87904
0.852982
-0.886002
0.842319
-0.809299
1.64048
-1.73643
1.25979
-4.14518
-0.848815
0.695118
-0.521404
3.37285
1.50853
-5.69162
-0.514379
0.144783
-0.0575702
-1.51058
-5.02367
1.99553
-1.68938
4.10386
1.90719
5.06813
2.36213
-0.167826
0.0411558
0.289037
-0.162367
3.89862
1.86353
-2.28993
0.830326
-2.09178
2.35991
2.49735
-2.76548
6.05065
1.47697
-2.79718
-4.73043
-0.848396
0.57282
-3.48379
3.80488
4.3526
-4.29526
-0.564739
-0.610318
1.21761
4.16291
3.80107
-2.27835
1.73547
-2.05413
-4.03183
-0.039603
3.87837
-3.14277
2.3534
-1.74877
2.53814
-4.45642
-5.5986
-0.343352
-3.35629
0.463776
-0.503804
-0.880634
0.000432177
0.0113011
-0.00984085
-0.00189248
-0.488863
0.5291
4.14346
-4.00664
1.3717
-1.64521
-2.71585
-2.0812
-0.670002
0.635181
-0.0976213
0.132442
-2.57163
-0.0854006
-0.0288824
0.106976
-0.0242482
-5.54476
-0.389172
-3.20585
1.67176
0.0996778
-0.0759446
-0.802187
-1.44824
2.59783
-3.16841
3.1387
3.91922
3.69842
3.49936
-2.66497
0.144371
0.0543124
-0.14426
-0.069264
-0.00809731
0.981962
-2.15786
1.54938
-2.01857
2.24619
-2.67652
-0.498472
0.705826
-0.648116
-1.4587
0.0509327
2.01313
1.06224
0.16437
-0.00600337
-0.205313
-3.05742
2.59822
0.184445
-1.13761
1.41027
-2.6006
3.93662
-1.39164
-0.275745
0.0855479
0.0476138
-0.0474856
4.03108
-0.237932
0.0049084
-0.281356
2.56012
1.78016
4.08365
0.0313764
0.00406043
-0.87972
0.799569
-0.768626
1.30537
0.129194
-0.128353
-0.163222
0.16238
-0.059348
0.0569294
0.507785
0.0871251
-0.0610469
-0.0549607
0.666856
-0.20898
0.177304
0.247287
-0.155625
-0.173332
0.871177
-0.0655696
-1.29447
-0.025549
-0.0925483
0.157859
-0.039762
2.15761
0.0577751
-0.062467
0.00469184
-0.423675
-1.26822
3.76508
-5.0051
1.0599
0.748735
0.472325
-0.450047
-0.1199
-2.17886
-0.00157289
1.22222
-4.76892
-0.0657922
0.0611355
0.0296887
-0.0250321
-0.41269
-4.51625
-0.0947879
-0.0182505
0.0874894
-3.53985
-0.687881
-2.77092
5.31805
-2.28823
-0.0276393
-0.139254
0.0743445
0.242043
-0.295485
0.182636
-0.0228021
-0.0364143
0.0353919
-1.99676
1.70957
-0.54088
1.98584
1.15723
-0.896875
0.00172782
-0.0101058
0.00837788
-1.28927
-2.58662
0.0165674
-0.0292027
0.0126353
1.20787
-4.01957
0.882773
1.19044
-0.557079
1.34117
0.0122695
0.00429791
0.453509
-0.163715
-0.203198
0.341977
0.218584
-0.870817
1.49541
-0.300161
-0.643532
3.99053
0.168695
-0.0614807
0.0371569
-0.800502
0.198872
-0.92397
1.23133
-2.15225
-0.501651
2.33142
-0.79178
3.87847
0.0526153
0.00431406
0.640427
-4.03424
1.42818
-0.72678
-1.98645
1.31443
0.756789
0.335225
-2.19052
1.41679
-0.163074
-0.0304093
0.0651307
6.07931
-0.0790868
0.0484088
0.0680244
-0.0703111
-0.0912882
0.134429
-2.75297
0.106543
0.0859801
-0.102413
0.0229368
0.0282161
-0.051153
-0.886196
-3.56234
4.31909
-0.400052
0.226747
0.256461
-1.98168
0.00533018
-0.00360237
-1.32022
-4.13658
0.241809
0.0472101
0.076291
-0.0750924
0.0628657
-0.168744
-0.0282689
-2.38851
-0.141966
-2.86348
-1.52181
-0.00626587
0.129119
0.290704
-0.123118
-0.680443
-0.030716
0.0360681
-0.0137321
0.0534388
0.156474
-0.155601
-0.32561
-2.12747
-3.31225
0.0493869
0.00322841
0.199936
-2.00466
0.042086
1.21362
-0.0470767
0.0567019
0.0604674
0.0662152
-0.0794725
0.604045
0.157402
-0.0331986
0.021986
-0.0321528
-0.00674745
0.00891115
-0.133209
0.220988
-0.0885742
0.0061775
0.0104538
0.0515201
-0.00213325
0.00549485
-0.0153357
0.1722
0.0359618
0.00600054
-0.0122736
-0.166697
1.63421
-1.19316
1.0529
0.0109931
-0.0837343
-0.0212033
0.288369
-0.367706
-0.552124
0.85436
0.611626
-1.45288
-1.1412
-0.0230794
0.0346888
-0.0534052
0.038408
-0.0673358
-0.000376224
0.0149316
0.0111142
-0.00162471
0.0531448
-0.102486
-0.0595565
1.63832
-0.0118741
0.0450475
-1.84544
0.519186
-1.34554
-0.60827
-0.0876473
0.00385553
-0.0250588
-0.0527661
0.0175382
-0.0464277
0.0588332
-0.0190583
0.570408
-0.776783
-0.933074
0.845136
-0.0908987
-1.4859
-0.333502
-0.04487
-0.0271031
-1.46853
-0.937521
-0.0313319
-0.0356657
0.0326332
0.127784
-0.432221
0.0425449
0.0195167
-0.0563641
1.04949
-0.0191449
0.0219209
0.0123136
0.0427798
3.25615
0.215374
-0.19499
-0.741035
-0.190124
-0.855531
-0.00405452
0.118698
-0.114644
-0.0085145
0.123777
-0.119317
-0.0129277
0.135059
-0.130646
-0.0177104
0.144577
-0.139794
-0.0226534
0.154414
-0.149471
-0.0279199
0.16331
-0.158043
-0.0333557
0.172046
-0.166611
-0.0390082
0.1803
-0.174647
0.188239
-0.182685
-0.0445628
-0.00360674
0.122305
-0.00761053
0.127781
-0.011549
0.138998
-0.0158137
0.148841
-0.0201613
0.158762
-0.0247783
0.167927
-0.0295464
0.176814
-0.0344827
0.185236
0.193324
-0.0395671
-0.00340236
0.125707
-0.00678363
0.131162
-0.0101906
0.142405
-0.0138442
0.152495
-0.017594
0.162511
-0.0215435
0.171876
-0.0256253
0.180896
-0.0298519
0.189463
0.19769
-0.0342181
-0.00306566
0.128773
-0.00590979
0.134006
-0.00877216
0.145267
-0.0118046
0.155527
-0.014939
0.165646
-0.0182321
0.17517
-0.021645
0.184309
-0.0252014
0.193019
0.201422
-0.0289336
-0.00263066
0.131404
-0.00494465
0.13632
-0.00725167
0.147574
-0.00967713
0.157953
-0.0121926
0.168161
-0.0148415
0.177819
-0.0176155
0.187083
-0.0205426
0.195946
0.20453
-0.0236505
-0.00207043
0.133474
-0.00385736
0.138107
-0.00562029
0.149337
-0.00745735
0.15979
-0.0093666
0.17007
-0.0113881
0.17984
-0.0135198
0.189215
-0.0157941
0.198221
0.206985
-0.0182489
-0.00126229
0.134736
-0.002594
0.139439
-0.00386394
0.150607
-0.00516452
0.161091
-0.00649303
0.171399
-0.00789722
0.181244
-0.0094022
0.19072
-0.0110338
0.199852
0.208785
-0.0128336
-0.000224578
0.134961
-0.00122294
0.140437
-0.00205748
0.151441
-0.00284944
0.161883
-0.00362474
0.172174
-0.00444511
0.182065
-0.00533949
0.191614
-0.00634722
0.20086
0.20989
-0.00745258
0.00066706
0.134294
1.87078e-05
0.141086
-0.000351054
0.151811
-0.000635584
0.162167
-0.00087058
0.172409
-0.00112167
0.182316
-0.00143887
0.191931
-0.00184605
0.201267
0.210424
-0.00238017
0.00108121
0.133213
0.000914833
0.141252
0.00111145
0.151615
0.00137742
0.161901
0.00168342
0.172103
0.0019527
0.182046
0.00215469
0.191729
0.00225233
0.20117
0.210427
0.00224951
0.00109378
0.132119
0.00152776
0.140818
0.00234541
0.150797
0.00315679
0.16109
0.00396121
0.171299
0.00469071
0.181317
0.00533002
0.19109
0.00583952
0.20066
0.21007
0.00619664
0.00106862
0.13105
0.00214549
0.139741
0.00348374
0.149459
0.00474688
0.159827
0.00593927
0.170106
0.00704436
0.180212
0.00803175
0.190103
0.00890127
0.19979
0.209421
0.00954971
0.00144646
0.129604
0.00302886
0.138159
0.00465206
0.147835
0.00617627
0.158302
0.00761432
0.168668
0.00894741
0.178879
0.010165
0.188885
0.0112453
0.19871
0.208459
0.0122073
0.00214778
0.127456
0.00404456
0.136262
0.00578178
0.146098
0.00741602
0.156668
0.00895797
0.167126
0.0103867
0.17745
0.0116944
0.187577
0.0128565
0.197548
0.207431
0.0138849
0.0028315
0.124624
0.00495168
0.134142
0.0067316
0.144318
0.00838071
0.155019
0.00993233
0.165575
0.0113809
0.176001
0.012704
0.186254
0.0138726
0.196379
0.2064
0.0149037
0.00318743
0.121437
0.00551355
0.131815
0.00732581
0.142506
0.00898163
0.153363
0.0105306
0.164026
0.0119705
0.174561
0.0132808
0.184944
0.0144394
0.195221
0.205381
0.0154583
0.00295278
0.118484
0.00550611
0.129262
0.00743995
0.140572
0.00917557
0.151627
0.010771
0.16243
0.0122371
0.173095
0.0135491
0.183632
0.0147069
0.194063
0.204427
0.0156609
0.00235181
0.116132
0.00500654
0.126607
0.00713994
0.138439
0.00903271
0.149735
0.0107385
0.160724
0.0122762
0.171557
0.0136377
0.18227
0.014814
0.192887
0.203458
0.0157831
0.00183992
0.114292
0.00441628
0.124031
0.00668375
0.136171
0.00873863
0.14768
0.010592
0.158871
0.0122573
0.169892
0.0137287
0.180799
0.0150104
0.191605
0.202357
0.0161111
0.0015516
0.112741
0.00398543
0.121597
0.00630256
0.133854
0.00848632
0.145496
0.0104888
0.156868
0.0123069
0.168074
0.0139291
0.179177
0.0153465
0.190187
0.201155
0.0165486
0.00142245
0.111318
0.00377068
0.119249
0.0061135
0.131511
0.00840194
0.143207
0.0105568
0.154713
0.0125527
0.166078
0.0143674
0.177362
0.0159633
0.188592
0.199834
0.0172837
0.0014773
0.109841
0.00380624
0.11692
0.00617989
0.129137
0.00855897
0.140828
0.010873
0.152399
0.0130788
0.163872
0.0151388
0.175302
0.0169841
0.186746
0.198226
0.0185921
0.00181524
0.108026
0.00411907
0.114616
0.00651323
0.126743
0.0089723
0.138369
0.0114573
0.149914
0.013912
0.161417
0.0162966
0.172917
0.0184647
0.184578
0.196448
0.0202431
0.00243883
0.105587
0.00467477
0.11238
0.00706511
0.124353
0.0096181
0.135816
0.0122927
0.14724
0.0150166
0.158693
0.0177982
0.170136
0.0203589
0.182017
0.194852
0.0219546
0.00317387
0.00517625
0.00764813
0.0104272
0.0134069
0.0164997
0.0199378
0.0237964
0.0285247
-0.0907402
-0.00128925
0.0920295
-0.0892873
-0.00145287
-0.0876562
-0.00163112
-0.0858294
-0.00182682
-0.0837966
-0.00203286
-0.081548
-0.00224856
-0.0790765
-0.00247153
-0.0763788
-0.00269767
-0.0734484
-0.00293034
-0.0702875
-0.00316096
-0.0668975
-0.00338996
-0.0632844
-0.00361313
-0.0594569
-0.00382748
-0.0554224
-0.00403443
-0.0511947
-0.00422776
-0.0467851
-0.00440956
-0.0422119
-0.00457315
-0.0374942
-0.0047177
-0.0326586
-0.00483555
-0.0277387
-0.00491992
-0.0227804
-0.00495829
-0.0178494
-0.00493094
-0.0130245
-0.00482482
-0.00837449
-0.00465003
-0.00386534
-0.00450912
0.000631378
-0.0044967
0.00524942
-0.00461801
0.0101441
-0.00489463
0.0153624
-0.00521828
0.0207934
-0.00543106
0.0263231
-0.00552962
0.0318735
-0.00555036
0.0373901
-0.0055166
0.0428222
-0.00543213
0.0481231
-0.00530087
0.0532531
-0.00512997
0.0581764
-0.00492326
0.0628613
-0.00468488
0.067286
-0.00442468
0.0714346
-0.00414855
0.0753033
-0.00386865
0.078898
-0.00359477
0.0822316
-0.00333352
0.085327
-0.00309543
0.088208
-0.00288093
0.0909088
-0.00270081
0.0934626
-0.0025537
0.0959002
-0.00243764
0.0982327
-0.00233242
0.100459
-0.00222608
0.102573
-0.00211385
0.104561
-0.00198792
0.106415
-0.00185426
0.108127
-0.00171219
0.109698
-0.00157113
0.111131
-0.00143289
0.112427
-0.00129624
0.113598
-0.00117069
-0.00104567
-0.089419
-0.00268548
0.0908152
-0.0879089
-0.00296295
-0.0862765
-0.00326353
-0.0845116
-0.0035917
-0.0826086
-0.00393581
-0.0805542
-0.00430301
-0.0783412
-0.00468453
-0.0759547
-0.00508418
-0.0733856
-0.0054994
-0.0706235
-0.00592312
-0.0676587
-0.00635475
-0.0644844
-0.00678744
-0.0610926
-0.00721924
-0.0574852
-0.00764178
-0.0536615
-0.00805151
-0.0496252
-0.00844587
-0.0453836
-0.00881463
-0.040948
-0.00915332
-0.0363285
-0.0094551
-0.0315386
-0.00970976
-0.0265874
-0.00990952
-0.0214681
-0.0100502
-0.0161536
-0.0101393
-0.0105983
-0.0102053
-0.00482023
-0.0102872
0.00109235
-0.0104093
0.0070499
-0.0105755
0.0129397
-0.0107844
0.0187341
-0.0110127
0.0244871
-0.0111841
0.0302202
-0.0112627
0.0359171
-0.0112472
0.041543
-0.0111424
0.0470665
-0.0109556
0.0524535
-0.0106879
0.0576752
-0.0103517
0.0627055
-0.00995349
0.0675287
-0.00950812
0.0721294
-0.00902538
0.0765007
-0.00851978
0.080637
-0.00800498
0.0845335
-0.00749124
0.0881951
-0.00699512
0.0916218
-0.00652218
0.0948182
-0.00607725
0.0977858
-0.00566848
0.100523
-0.00529082
0.103023
-0.00493764
0.105297
-0.00460641
0.107357
-0.00428635
0.109222
-0.00397863
0.110913
-0.00367885
0.11245
-0.00339125
0.113855
-0.00311738
0.115138
-0.00285404
0.116316
-0.00261099
0.117397
-0.00237724
0.118393
-0.00216607
-0.00196994
-0.0973939
-0.00424185
0.0989503
-0.0957152
-0.00464174
-0.0939066
-0.00507213
-0.0919658
-0.00553248
-0.0898766
-0.00602501
-0.0876295
-0.00655011
-0.0852112
-0.00710283
-0.0826136
-0.0076817
-0.0798253
-0.00828775
-0.0768358
-0.00891257
-0.0736364
-0.00955423
-0.07022
-0.0102038
-0.0665815
-0.0108577
-0.0627155
-0.0115077
-0.0586189
-0.0121482
-0.0542959
-0.0127688
-0.0497442
-0.0133664
-0.0449697
-0.0139278
-0.0399764
-0.0144484
-0.0347674
-0.0149187
-0.0293421
-0.0153348
-0.0236996
-0.0156928
-0.0178404
-0.0159984
-0.0117807
-0.016265
-0.00555924
-0.0165087
0.000777554
-0.0167461
0.007182
-0.01698
0.0136008
-0.0172032
0.0199793
-0.0173912
0.026303
-0.0175078
0.0325671
-0.0175268
0.0387558
-0.017436
0.0448468
-0.0172334
0.0508112
-0.01692
0.0566266
-0.0165033
0.0622682
-0.0159933
0.0677147
-0.0153999
0.0729494
-0.0147429
0.0779602
-0.0140361
0.0827338
-0.0132934
0.0872654
-0.0125365
0.0915509
-0.0117768
0.095587
-0.0110312
0.0993696
-0.0103048
0.102904
-0.00961204
0.106186
-0.00894983
0.109218
-0.00832321
0.112009
-0.00772823
0.114567
-0.00716476
0.116907
-0.00662668
0.119041
-0.00611211
0.120983
-0.00562101
0.122756
-0.00516467
0.124376
-0.00473677
0.125858
-0.00433583
0.127212
-0.00396554
0.128459
-0.00362357
0.1296
-0.00330721
-0.0030162
-0.103987
-0.00583908
0.105585
-0.102264
-0.00636554
-0.100399
-0.00693672
-0.0983845
-0.00754708
-0.0962119
-0.00819758
-0.0938708
-0.00889118
-0.0913516
-0.00962213
-0.0886395
-0.0103938
-0.0857286
-0.0111986
-0.0826082
-0.012033
-0.0792698
-0.0128926
-0.0756992
-0.0137744
-0.0718921
-0.0146649
-0.067837
-0.0155628
-0.0635328
-0.0164524
-0.0589709
-0.0173307
-0.0541527
-0.0181846
-0.0490778
-0.0190027
-0.0437481
-0.0197781
-0.0381664
-0.0205004
-0.0323363
-0.021165
-0.0262629
-0.0217661
-0.019957
-0.0223044
-0.0134413
-0.0227807
-0.00674864
-0.0232013
7.60898e-05
-0.0235708
0.00698001
-0.0238839
0.0139106
-0.0241337
0.0208234
-0.024304
0.0276889
-0.0243734
0.0344858
-0.0243237
0.0411938
-0.024144
0.0477893
-0.0238289
0.0542502
-0.0233809
0.0605496
-0.0228026
0.0666671
-0.0221108
0.0725831
-0.0213159
0.078272
-0.0204318
0.083718
-0.0194821
0.0889102
-0.0184857
0.0938362
-0.0174624
0.0984866
-0.0164272
0.102854
-0.0153987
0.106936
-0.0143864
0.110725
-0.0134015
0.114231
-0.012456
0.117454
-0.0115461
0.12041
-0.0106837
0.123105
-0.00985996
0.125563
-0.00908527
0.127802
-0.00835023
0.129838
-0.00765718
0.131684
-0.00701084
0.133365
-0.00641758
0.134896
-0.00586723
0.136293
-0.0053628
0.137567
-0.00489746
0.138729
-0.00446862
-0.00408149
-0.113079
-0.00758137
0.114821
-0.111186
-0.0082586
-0.109139
-0.00898399
-0.106927
-0.00975878
-0.104541
-0.0105837
-0.101972
-0.0114599
-0.099207
-0.0123873
-0.0962407
-0.0133602
-0.0930608
-0.0143785
-0.0896572
-0.0154366
-0.0860205
-0.0165294
-0.082142
-0.0176529
-0.0780127
-0.0187941
-0.073628
-0.0199475
-0.0689778
-0.0211026
-0.0640602
-0.0222483
-0.0588729
-0.0233719
-0.053413
-0.0244626
-0.0476852
-0.0255059
-0.0416901
-0.0264955
-0.035438
-0.0274172
-0.0289383
-0.0282658
-0.0222081
-0.0290346
-0.0152698
-0.029719
-0.00815669
-0.0303145
-0.000909336
-0.0308182
0.00642934
-0.0312226
0.0138155
-0.0315199
0.0212076
-0.031696
0.0285699
-0.0317357
0.0358718
-0.0316255
0.0430837
-0.0313559
0.0501764
-0.0309217
0.057125
-0.0303295
0.0639047
-0.0295824
0.0704855
-0.0286915
0.0768444
-0.0276749
0.0829617
-0.026549
0.0888167
-0.0253372
0.0943965
-0.0240654
0.099683
-0.0227489
0.104672
-0.0214166
0.109355
-0.0200812
0.113731
-0.0187624
0.117802
-0.0174729
0.12157
-0.0162233
0.125046
-0.0150228
0.128239
-0.0138768
0.131165
-0.0127855
0.133837
-0.0117575
0.136279
-0.0107924
0.138511
-0.00988903
0.140551
-0.00905055
0.142405
-0.00827169
0.144094
-0.00755656
0.145632
-0.00690029
0.147032
-0.00629797
0.14831
-0.00574645
-0.00524222
-0.121659
-0.00940714
0.123485
-0.119677
-0.0102409
-0.117532
-0.0111289
-0.115211
-0.0120803
-0.112699
-0.0130958
-0.10999
-0.014168
-0.107073
-0.0153051
-0.103933
-0.0164995
-0.100561
-0.0177512
-0.0969466
-0.0190507
-0.0930789
-0.020397
-0.0889495
-0.0217823
-0.0845469
-0.0231968
-0.0798631
-0.0246313
-0.0748938
-0.026072
-0.0696344
-0.0275077
-0.064082
-0.0289242
-0.0582424
-0.0303022
-0.0521154
-0.031633
-0.0457091
-0.0329019
-0.0390302
-0.0340961
-0.032095
-0.0352011
-0.0249211
-0.0362084
-0.0175349
-0.0371052
-0.00996952
-0.0378798
-0.0022636
-0.0385241
0.00554164
-0.0390278
0.013406
-0.0393842
0.0212893
-0.0395793
0.0291536
-0.0396
0.036965
-0.039437
0.0446873
-0.0390782
0.0522892
-0.0385237
0.0597423
-0.0377825
0.0670136
-0.0368537
0.0740784
-0.0357563
0.0809092
-0.0345057
0.087473
-0.0331128
0.0937526
-0.0316168
0.0997273
-0.0300401
0.105387
-0.0284084
0.110716
-0.0267463
0.115715
-0.0250793
0.120376
-0.0234235
0.124705
-0.0218021
0.128707
-0.0202252
0.13239
-0.0187059
0.135768
-0.0172545
0.138859
-0.0158768
0.14168
-0.014579
0.144255
-0.0133668
0.146599
-0.0122336
0.148733
-0.0111842
0.150675
-0.0102134
0.152443
-0.00932442
0.154047
-0.00850495
0.155506
-0.00775658
0.156836
-0.0070765
-0.00644957
-0.131449
-0.0113598
0.133401
-0.129325
-0.0123643
-0.127021
-0.0134335
-0.124524
-0.0145768
-0.121825
-0.0157949
-0.118908
-0.0170849
-0.115764
-0.0184496
-0.112378
-0.0198856
-0.108744
-0.0213844
-0.104848
-0.0229471
-0.100682
-0.0245626
-0.0962385
-0.0262261
-0.0915045
-0.0279307
-0.0864741
-0.0296617
-0.0811422
-0.0314039
-0.0755064
-0.0331436
-0.0695615
-0.0348691
-0.0633207
-0.0365429
-0.056783
-0.0381707
-0.0499593
-0.0397256
-0.0428543
-0.041201
-0.035487
-0.0425684
-0.027877
-0.0438184
-0.0200458
-0.0449365
-0.0120343
-0.0458914
-0.00387741
-0.046681
0.00438142
-0.0472867
0.0127083
-0.0477111
0.0210649
-0.0479359
0.0294107
-0.0479458
0.0377132
-0.0477394
0.0459258
-0.0472908
0.0540153
-0.0466132
0.0619529
-0.0457201
0.069699
-0.0445998
0.0772318
-0.0432892
0.0845204
-0.0417943
0.0915153
-0.0401076
0.0982065
-0.038308
0.104571
-0.0364049
0.1106
-0.0344376
0.116277
-0.0324231
0.121599
-0.0304012
0.126561
-0.0283851
0.131171
-0.0264124
0.135433
-0.0244875
0.139359
-0.0226314
0.142957
-0.0208528
0.146249
-0.0191687
0.149254
-0.0175844
0.151989
-0.0161013
0.154483
-0.0147276
0.156749
-0.0134509
0.158811
-0.0122752
0.160683
-0.0111967
0.162385
-0.0102068
0.163932
-0.00930333
0.165336
-0.00848057
-0.00772404
-0.14133
-0.0134279
0.143398
-0.13909
-0.0146044
-0.136662
-0.0158608
-0.134025
-0.0172141
-0.131171
-0.0186487
-0.128079
-0.0201772
-0.124747
-0.021782
-0.121148
-0.0234846
-0.117266
-0.0252658
-0.113117
-0.0270962
-0.108676
-0.0290038
-0.103933
-0.0309686
-0.0988831
-0.0329811
-0.0935131
-0.0350316
-0.0878226
-0.0370944
-0.0818023
-0.0391639
-0.0754484
-0.041223
-0.0687977
-0.0431937
-0.061847
-0.0451214
-0.0546007
-0.046972
-0.0470575
-0.0487442
-0.0392484
-0.0503775
-0.031196
-0.0518708
-0.0228921
-0.0532404
-0.0144173
-0.0543661
-0.00579181
-0.0553065
0.00292392
-0.0560024
0.0117213
-0.0565085
0.0205563
-0.0567709
0.0293833
-0.0567728
0.0381847
-0.0565409
0.0468835
-0.0559896
0.0554512
-0.0551809
0.0638863
-0.0541552
0.0721005
-0.052814
0.0801075
-0.0512962
0.0878918
-0.0495786
0.0953226
-0.0475384
0.102431
-0.0454169
0.109199
-0.0431728
0.115609
-0.040847
0.121654
-0.0384685
0.127304
-0.0360509
0.132569
-0.0336504
0.13748
-0.0313236
0.142
-0.0290074
0.146173
-0.0268047
0.149994
-0.0246731
0.153463
-0.0226375
0.156615
-0.0207373
0.159479
-0.0189651
0.16208
-0.017328
0.164438
-0.0158093
0.166576
-0.0144132
0.168515
-0.0131356
0.170276
-0.0119677
0.171871
-0.0108981
0.173324
-0.00993398
-0.00904738
-0.152164
0.154336
-0.0156003
-0.149787
-0.0169809
-0.147207
-0.018441
-0.14439
-0.0200313
-0.141335
-0.0217034
-0.138007
-0.0235058
-0.134399
-0.02539
-0.130544
-0.0273396
-0.126407
-0.0294022
-0.121899
-0.031605
-0.117125
-0.0337775
-0.112034
-0.0360599
-0.106576
-0.0384388
-0.100838
-0.0407694
-0.0947292
-0.0432033
-0.0883579
-0.0455352
-0.081656
-0.0479248
-0.0745929
-0.0502567
-0.067158
-0.0525563
-0.059459
-0.054671
-0.0514575
-0.0567458
-0.0432453
-0.0585897
-0.0347797
-0.0603364
-0.0259996
-0.0620204
-0.0170559
-0.0633099
-0.00797659
-0.0643858
0.00116206
-0.065141
0.0104363
-0.0657827
0.0197843
-0.066119
0.0290526
-0.066041
0.03835
-0.0658383
0.0475444
-0.065184
0.0565466
-0.0641831
0.0654858
-0.0630944
0.074213
-0.0615413
0.082705
-0.0597881
0.0908482
-0.0577218
0.0986242
-0.0553144
0.106208
-0.0530003
0.113379
-0.0503443
0.120178
-0.0476461
0.126636
-0.044926
0.132664
-0.0420787
0.138292
-0.0392786
0.143521
-0.0365529
0.14833
-0.0338159
0.152736
-0.0312114
0.156742
-0.0286784
0.160466
-0.0263616
0.163846
-0.0241179
0.166893
-0.0220119
0.169639
-0.0200735
0.172106
-0.0182768
0.174362
-0.0166687
0.176401
-0.0151751
0.178237
-0.0138038
0.179896
-0.0125569
0.181333
-0.0113715
-0.0103984
-0.0620702
0.0109172
-0.0718407
0.00977048
-0.0804743
0.00863353
-0.0878383
0.00736402
-0.0942104
0.00637206
-0.100047
0.00583637
-0.105561
0.00551438
-0.110811
0.00525016
-0.115804
0.00499268
-0.120192
0.00438829
-0.123379
0.00318705
-0.125079
0.00169982
-0.125409
0.000330151
-0.124786
-0.00062373
-0.123784
-0.00100212
-0.122656
-0.00112768
-0.121198
-0.00145802
-0.119057
-0.00214091
-0.116237
-0.00282001
-0.112976
-0.00326128
-0.109399
-0.00357626
-0.105542
-0.0038578
-0.101396
-0.00414534
-0.0969818
-0.00441447
-0.00495234
-0.0659947
0.0201124
-0.0750205
0.0187962
-0.0834922
0.0171053
-0.0914518
0.0153235
-0.0988904
0.0138107
-0.105724
0.0126696
-0.11193
0.0117212
-0.117468
0.0107878
-0.122159
0.00968335
-0.125868
0.00809798
-0.128664
0.00598286
-0.130592
0.00362715
-0.131621
0.00135927
-0.131699
-0.000544974
-0.130797
-0.00190432
-0.129047
-0.00287817
-0.126692
-0.00381256
-0.123953
-0.00488058
-0.120835
-0.00593716
-0.117232
-0.00686461
-0.113117
-0.00769154
-0.108475
-0.00849939
-0.103271
-0.00934917
-0.097377
-0.0103089
-0.0115142
-0.0716875
0.0303638
-0.0814668
0.0285755
-0.0907413
0.0263797
-0.0994992
0.0240815
-0.107602
0.0219138
-0.114897
0.0199638
-0.121299
0.0181236
-0.126751
0.0162394
-0.1312
0.0141324
-0.134728
0.0116266
-0.13747
0.00872409
-0.13948
0.00563755
-0.140761
0.00264067
-0.141255
-5.13804e-05
-0.14085
-0.00230973
-0.139512
-0.00421541
-0.137368
-0.00595662
-0.134588
-0.00766137
-0.131233
-0.00929188
-0.127287
-0.0108103
-0.122744
-0.0122344
-0.117614
-0.0136298
-0.111917
-0.0150458
-0.105678
-0.0165481
-0.0182419
-0.0771366
0.0416992
-0.0877816
0.0392204
-0.0978166
0.0364147
-0.107213
0.0334778
-0.115854
0.0305553
-0.123603
0.0277128
-0.130366
0.0248862
-0.136097
0.021971
-0.140802
0.0188368
-0.144568
0.0153924
-0.14751
0.0116668
-0.149688
0.00781513
-0.151087
0.00404014
-0.151661
0.000522487
-0.151322
-0.00264866
-0.150048
-0.00548935
-0.147898
-0.00810658
-0.14498
-0.01058
-0.141344
-0.0129275
-0.137015
-0.0151396
-0.131992
-0.0172574
-0.126295
-0.0193266
-0.119945
-0.0213961
-0.112988
-0.0235047
-0.0256454
-0.0825827
0.0539708
-0.0941476
0.0507853
-0.104986
0.0472529
-0.115059
0.0435509
-0.124266
0.0397627
-0.132509
0.0359549
-0.139709
0.0320862
-0.14584
0.0281019
-0.150922
0.0239193
-0.155026
0.0194968
-0.158241
0.014881
-0.160614
0.0101885
-0.162134
0.00556051
-0.162765
0.0011529
-0.162465
-0.00294863
-0.161206
-0.00674841
-0.159022
-0.0102907
-0.155987
-0.0136151
-0.152154
-0.0167596
-0.147563
-0.0197315
-0.142246
-0.0225742
-0.136248
-0.0253247
-0.129629
-0.028015
-0.122469
-0.0306646
-0.033293
-0.0881209
0.0669993
-0.100575
0.0632393
-0.112215
0.0588927
-0.122991
0.0543266
-0.13281
0.049582
-0.141605
0.0447504
-0.149306
0.0397864
-0.155902
0.034698
-0.161418
0.029435
-0.1659
0.0239793
-0.169422
0.018403
-0.172013
0.0127789
-0.17367
0.00721755
-0.174372
0.00185476
-0.174079
-0.00324124
-0.172795
-0.0080322
-0.17055
-0.0125362
-0.167381
-0.0167843
-0.163348
-0.0207921
-0.15849
-0.0245897
-0.152856
-0.0282082
-0.146487
-0.0316936
-0.139429
-0.0350724
-0.131734
-0.0383603
-0.0415415
-0.0936045
0.0811313
-0.10706
0.0766952
-0.11954
0.0713719
-0.131059
0.0658455
-0.141539
0.0600629
-0.150942
0.0541534
-0.159182
0.0480256
-0.166276
0.0417927
-0.17224
0.035399
-0.177115
0.0288535
-0.180959
0.022247
-0.183799
0.015619
-0.185617
0.0090358
-0.186398
0.00263543
-0.186142
-0.00349752
-0.184845
-0.00932892
-0.182533
-0.0148486
-0.179249
-0.0200674
-0.175042
-0.0249995
-0.169973
-0.0296585
-0.164087
-0.0340943
-0.157443
-0.038338
-0.150072
-0.0424432
-0.142035
-0.0463969
-0.0501758
-0.0992179
0.096615
-0.113713
0.0911905
-0.127008
0.0846667
-0.139292
0.0781298
-0.150469
0.0712396
-0.160523
0.064207
-0.169327
0.0568296
-0.17693
0.049396
-0.183368
0.0418367
-0.188637
0.0341227
-0.192801
0.026411
-0.195913
0.0187308
-0.197905
0.0110274
-0.198788
0.00351873
-0.198573
-0.00371268
-0.197261
-0.0106407
-0.194888
-0.0172219
-0.19149
-0.0234654
-0.187116
-0.0293732
-0.181834
-0.0349403
-0.175696
-0.0402325
-0.168771
-0.0452628
-0.161055
-0.0501593
-0.152585
-0.0548676
-0.0593623
-0.105346
0.113386
-0.12063
0.106475
-0.134612
0.0986484
-0.147674
0.0911928
-0.159587
0.0831518
-0.170362
0.0749819
-0.179738
0.0662058
-0.187856
0.0575147
-0.19478
0.0487598
-0.200476
0.0398196
-0.204937
0.030872
-0.208308
0.0221015
-0.210511
0.0132306
-0.211488
0.00449574
-0.211316
-0.00388541
-0.209997
-0.0119591
-0.207554
-0.019665
-0.204063
-0.0269571
-0.199508
-0.0339274
-0.193953
-0.0404956
-0.187543
-0.0466429
-0.180308
-0.0524979
-0.172231
-0.0582356
-0.163588
-0.0635107
-0.0686143
1.37786
2.57592
0.12315
-2.69906
0.940665
0.028882
-0.969558
0.269357
-0.36808
0.0987236
0.333371
-0.401434
0.0680636
-0.564033
-0.505529
1.06956
-0.468663
0.76135
-0.292687
2.60421
-3.04186
0.437652
-0.0368841
-0.196587
0.233471
5.16345
-3.51106
-1.65239
-0.875094
1.87274
-0.997649
-0.799474
0.260839
0.538636
1.22548
-1.97823
0.752747
-1.2769
0.347925
0.92898
0.111766
-0.113091
0.00132529
4.97314
-4.82563
-0.147513
-0.13825
1.07892
0.132896
-0.0260795
-0.106816
-0.10903
-0.121052
0.370034
0.228734
-0.598768
-0.338256
0.22073
0.117527
3.0228
2.07988
-5.10268
-0.590705
0.872776
-0.282071
1.30036
-1.05622
-0.24413
-0.975201
0.361552
0.613649
1.14617
0.154187
-1.18641
0.794634
0.391773
-0.788477
0.115497
0.67298
5.15191
-2.80782
-2.34409
-0.028475
-0.142543
0.171018
0.155634
0.517162
-0.672796
-1.12684
0.315091
0.811748
0.840327
0.682269
-1.5226
2.98911
-5.31467
2.32556
-0.286269
-0.0730217
0.359291
0.0505697
1.54978
-1.60035
-0.901186
-0.375719
-2.86042
1.41989
1.44054
-0.320938
0.631537
-0.310599