/*--------------------------------*- C++ -*----------------------------------*\
  =========                 |
  \\      /  F ield         | OpenFOAM: The Open Source CFD Toolbox
   \\    /   O peration     | Website:  https://openfoam.org
    \\  /    A nd           | Version:  10
     \\/     M anipulation  |
\*---------------------------------------------------------------------------*/
FoamFile
{
    format      ascii;
    class       volVectorField;
    location    "1250";
    object      U;
}
// * * * * * * * * * * * * * * * * * * * * * * * * * * * * * * * * * * * * * //

dimensions      [0 1 -1 0 0 0 0];

internalField   nonuniform List<vector> 
10435
(
(1.78722 0.635654 2.12439e-22)
(2.37867 1.50957 -1.56051e-20)
(4.32284 -0.375688 -2.98892e-20)
(2.91038 0.47723 5.77133e-20)
(4.05593 0.597651 -3.32269e-20)
(4.17065 -0.241498 2.43362e-19)
(4.26728 -0.339513 -1.06727e-19)
(3.79248 -0.330079 6.14886e-20)
(3.22334 -0.329736 2.03198e-19)
(4.30052 -0.44693 -7.08596e-20)
(2.94259 1.44441 -5.49185e-20)
(3.74388 -0.0633501 1.49355e-19)
(4.17965 -0.439191 7.77458e-20)
(0.850512 0.653777 -5.06109e-21)
(0.946112 0.701441 -6.12644e-21)
(4.08816 -0.359881 -8.05089e-21)
(0.762946 0.590105 1.6756e-21)
(4.01254 -0.475801 2.64396e-19)
(2.92655 -0.320971 -7.96756e-20)
(1.97325 0.578125 -6.71683e-21)
(3.962 -0.341535 4.5338e-20)
(2.78423 0.233224 -8.94373e-20)
(4.21984 -0.372992 3.2009e-19)
(3.18182 -0.327692 -8.71338e-20)
(4.39369 -0.41836 8.24092e-20)
(0.241255 0.401051 -7.98018e-23)
(0.0400379 0.148555 1.56718e-23)
(4.30466 -0.390991 6.58556e-20)
(0.20257 0.00534112 -5.22586e-23)
(4.13662 -0.472069 3.49244e-19)
(4.34168 -0.339123 1.33075e-19)
(3.2079 1.35636 -6.16617e-21)
(3.65304 -0.330078 -1.29274e-19)
(0.448765 0.0358035 2.99839e-22)
(3.67764 -0.345321 7.25006e-20)
(1.57273 1.33494 -3.74296e-22)
(3.86546 -0.349924 1.06187e-19)
(0.146834 0.32843 -1.02373e-21)
(0.375303 0.374731 -1.60165e-22)
(3.02948 -0.309427 2.42504e-20)
(4.03164 -0.485686 -3.85007e-19)
(4.28091 -0.362306 -8.74501e-20)
(0.574621 0.674581 -5.84422e-21)
(2.43027 0.660287 -7.21985e-20)
(4.08264 -0.348226 -2.28125e-19)
(3.11968 -0.316241 1.4482e-19)
(4.12653 -0.372758 -2.84385e-19)
(0.420299 0.546918 -1.66625e-20)
(3.16354 -0.357765 6.43595e-20)
(2.65855 0.0110863 -3.05252e-20)
(3.82332 -0.341041 -9.55485e-21)
(4.43813 -0.206844 1.08729e-18)
(0.41545 0.394853 -3.10084e-22)
(0.291664 -0.0987441 2.00466e-23)
(0.334449 0.382295 1.53204e-23)
(0.152127 -0.034742 1.30972e-22)
(3.67756 -0.334667 -3.14011e-19)
(0.150452 0.263372 5.09588e-23)
(0.649751 0.347805 -4.86343e-22)
(3.45063 -0.323929 2.00098e-19)
(0.373956 0.406358 2.7867e-22)
(2.09027 1.48126 2.58806e-21)
(0.162581 0.169843 3.56758e-22)
(4.37276 -0.0465665 -9.09925e-20)
(4.17258 -0.37052 -4.38058e-19)
(4.35819 -0.407904 2.32607e-19)
(0.590899 0.231471 1.46664e-21)
(0.320755 0.327389 -8.75888e-23)
(3.92885 -0.330252 -8.1876e-20)
(3.15314 -0.322629 6.53903e-21)
(0.242741 -0.128229 -1.74325e-22)
(0.182834 0.391399 3.89285e-23)
(0.672658 0.755545 2.7966e-20)
(4.3515 -0.391436 -2.94496e-19)
(1.04977 0.73897 -2.68722e-21)
(0.714927 0.820892 2.86283e-21)
(3.13967 -0.321488 3.5543e-19)
(4.2194 -0.320096 2.60204e-19)
(3.53044 -0.333807 1.82729e-20)
(1.12881 0.632606 1.42913e-20)
(2.92386 -0.178039 3.73499e-20)
(1.64749 0.527273 4.57431e-22)
(0.454219 0.414705 5.96204e-22)
(0.332832 -0.0753686 -2.74455e-23)
(3.02253 -0.244768 -7.45662e-20)
(1.39009 1.11135 3.80825e-20)
(1.58333 0.988552 3.74218e-21)
(2.50807 0.927892 1.51217e-20)
(1.13557 0.92209 -1.73197e-21)
(1.78561 1.0023 -1.85348e-21)
(2.77271 0.8651 -1.09716e-20)
(3.07146 0.772768 -1.44344e-20)
(1.80453 0.462825 2.45414e-21)
(1.25784 0.947353 1.25502e-20)
(2.00979 0.997594 5.69756e-21)
(1.37048 1.24697 1.69012e-20)
(3.29544 0.616274 1.87019e-19)
(0.992171 0.824981 4.18546e-21)
(0.738996 0.444339 -1.97486e-21)
(3.6662 0.571707 -1.87967e-19)
(1.05831 0.871051 8.73561e-21)
(4.00487 0.570608 -1.29095e-19)
(1.40523 0.968665 -8.4629e-21)
(2.25144 0.971737 -2.97074e-21)
(4.08763 0.346316 -8.47697e-21)
(2.66941 0.580713 -4.92257e-22)
(1.97258 0.381577 1.46853e-21)
(2.80562 -0.0958298 4.10299e-20)
(3.10112 -0.277114 -1.01261e-19)
(1.24101 0.630877 -3.96802e-21)
(2.49745 0.107306 -1.15021e-20)
(3.89896 0.813976 -5.89361e-20)
(1.50098 0.573637 -4.96091e-21)
(1.3667 0.611155 -3.48446e-21)
(3.47849 0.759772 -1.05751e-19)
(2.58307 0.337428 2.48015e-20)
(3.80768 0.383303 -1.0878e-19)
(1.5791 1.16278 -1.3532e-21)
(2.60299 1.21045 -7.33883e-20)
(3.62645 0.241729 -2.77822e-20)
(3.90371 0.221503 -3.36551e-19)
(0.74956 0.876768 3.05409e-21)
(1.79995 1.20853 -1.26748e-20)
(1.02332 1.13396 -5.01397e-20)
(3.36876 1.46518 1.30514e-20)
(0.313539 0.409419 1.82565e-23)
(3.47559 0.410619 1.84965e-19)
(0.823196 0.960353 -5.83157e-21)
(4.00131 0.478596 -2.18122e-19)
(0.0755483 0.330842 1.78192e-22)
(0.911784 1.04562 1.54156e-20)
(3.14568 1.59561 -1.05985e-19)
(3.94007 -0.34798 -1.14058e-19)
(1.02453 0.615739 1.0049e-20)
(0.156441 0.363264 2.0419e-23)
(0.586771 0.495389 1.07232e-22)
(1.33728 1.35314 5.19914e-20)
(3.12206 0.334329 -8.61026e-21)
(2.32115 1.23718 2.01731e-20)
(2.37474 0.426486 1.91968e-20)
(2.16974 0.507724 1.6014e-21)
(4.25983 -0.34655 -4.81151e-19)
(0.522199 0.143215 5.29678e-21)
(4.24147 -0.109183 9.92451e-19)
(2.96734 0.114498 1.38183e-20)
(0.864335 0.879729 2.60537e-20)
(1.16519 1.24207 -1.51818e-20)
(4.36935 -0.0991558 -3.21507e-19)
(0.716439 0.671508 9.42011e-21)
(4.06803 -0.158781 6.05815e-20)
(0.372392 0.516039 7.61099e-22)
(3.96802 -0.331854 1.98411e-19)
(1.78106 0.808066 5.8669e-22)
(4.17286 -0.192346 4.35267e-19)
(4.39489 -0.297048 -2.82979e-19)
(0.319936 0.468464 1.29596e-22)
(3.56468 1.27173 1.76367e-19)
(2.05049 1.23519 8.27879e-21)
(4.34179 -0.371848 -2.46953e-19)
(2.65407 1.74449 -1.45269e-20)
(4.15065 -0.290785 -8.05651e-20)
(0.930754 0.579078 -2.14625e-21)
(3.19235 1.04761 1.26669e-19)
(3.38152 -0.138539 9.62907e-20)
(1.16947 0.747784 8.64074e-21)
(4.1089 0.257466 7.88353e-19)
(3.55778 -0.337635 -2.01497e-19)
(3.44851 0.0674558 -8.74267e-20)
(3.5305 -0.272649 1.42625e-19)
(4.27142 0.0217409 -1.42811e-18)
(4.41873 -0.37889 2.8061e-19)
(0.636775 0.6811 -8.83022e-21)
(0.0197594 0.0720603 -2.76287e-22)
(0.945658 0.910773 3.46077e-22)
(3.88183 -0.23203 -2.23448e-19)
(2.38399 1.74879 -4.97569e-21)
(1.81474 1.41784 2.23383e-20)
(0.520556 0.528716 2.98739e-21)
(2.32641 0.199956 7.06269e-21)
(0.257363 0.0515322 -2.13236e-23)
(2.66586 1.49502 2.90867e-20)
(4.18989 -0.0849423 -4.02372e-20)
(3.95929 -0.104406 -5.26161e-19)
(0.358408 0.423921 7.79905e-23)
(4.19625 -0.32221 6.79788e-20)
(0.53074 0.643198 9.8851e-21)
(0.676392 0.789725 -2.44242e-20)
(4.15693 -0.317064 -2.0643e-19)
(4.16998 0.427728 7.7953e-20)
(4.37977 -0.162164 -7.09276e-19)
(3.88107 0.0775211 7.55106e-20)
(0.488919 0.435944 6.34929e-22)
(0.104256 0.359382 -6.29972e-23)
(1.5556 1.47774 -4.32194e-20)
(3.74537 1.05102 9.47597e-20)
(4.04742 -0.316168 1.19658e-20)
(0.688435 0.745969 2.4375e-20)
(1.2329 1.0604 -1.36601e-20)
(0.467228 0.551671 1.82225e-20)
(3.99825 -0.357514 1.64882e-19)
(1.14657 0.833841 -1.02555e-20)
(0.210504 0.379893 9.47823e-22)
(4.2687 -0.412157 -1.92456e-20)
(0.196208 0.337047 7.91907e-22)
(4.33087 -0.407684 -7.20405e-20)
(3.63095 0.866114 -2.159e-21)
(2.88762 1.1541 9.62616e-20)
(3.30151 0.190714 -5.56808e-20)
(0.230589 0.154739 -5.62723e-23)
(3.12196 0.0034228 -4.45811e-20)
(0.434562 0.545336 -2.94273e-21)
(4.2836 -0.37239 -4.1751e-19)
(4.07968 0.0347651 8.07029e-19)
(3.54416 -0.170576 5.99306e-20)
(0.0688664 0.131298 1.96479e-22)
(0.801551 0.736993 -2.59874e-20)
(1.31366 0.727918 2.79394e-21)
(0.457703 0.488867 -4.34043e-22)
(0.229321 0.386077 -2.04747e-22)
(0.841304 0.520628 1.87998e-21)
(0.306283 0.0160618 -5.42748e-23)
(0.582704 0.493839 4.89881e-21)
(0.430509 0.17854 -2.55191e-21)
(0.967236 0.996038 -5.00374e-20)
(0.26498 0.429644 -1.44778e-22)
(3.83031 -0.348708 -5.15392e-20)
(0.286636 0.377865 3.26493e-22)
(1.10412 1.00717 5.19258e-21)
(4.4 -0.295012 7.9404e-19)
(0.796054 0.901461 -2.59407e-20)
(0.453312 0.410041 -1.49492e-20)
(3.68931 -0.338085 2.25837e-19)
(0.260373 0.383482 6.50035e-22)
(3.87066 -0.306137 2.3286e-19)
(0.0577686 0.262464 -4.81276e-22)
(0.671851 0.522595 -8.15249e-21)
(3.5419 -0.329157 -2.75681e-19)
(0.232076 0.411417 5.10266e-23)
(3.48131 -0.31769 -1.73292e-20)
(4.4117 -0.374243 4.45841e-21)
(2.20163 0.724294 2.06186e-20)
(0.315776 0.439216 1.93329e-23)
(0.488077 0.525595 1.01295e-22)
(0.203173 -0.0579065 -3.28553e-23)
(3.42165 0.999812 -2.25362e-19)
(3.41707 -0.339163 7.02392e-20)
(1.20465 1.16148 -5.75618e-20)
(4.0134 -0.306727 6.79242e-20)
(0.0595523 -0.028536 -3.99772e-22)
(2.10005 1.69621 8.27825e-22)
(0.125084 -0.0864248 -6.68765e-22)
(1.28342 0.833407 -9.5017e-21)
(4.19016 -0.453544 -1.35895e-19)
(3.25477 -0.0880777 -8.47473e-20)
(4.09863 -0.291303 -1.78321e-19)
(4.25177 0.207239 3.47201e-19)
(0.0718461 -0.0590534 1.65637e-21)
(4.15786 -0.300615 2.53834e-19)
(0.396826 0.504517 2.29333e-22)
(0.29236 0.432952 -4.15547e-21)
(4.21635 -0.308409 1.2977e-20)
(4.4317 -0.336981 7.30321e-22)
(0.283123 0.419163 -9.99089e-24)
(3.26484 -0.279671 -2.099e-19)
(1.4549 0.705808 1.90133e-21)
(0.549073 0.385734 9.36336e-21)
(1.98387 0.774186 3.00892e-21)
(4.31563 -0.378728 2.60781e-19)
(0.437236 0.446848 -1.40133e-22)
(3.80724 0.698158 4.08151e-20)
(4.25669 -0.317729 3.12375e-23)
(3.85189 -0.307037 -3.60584e-20)
(4.02931 -0.29508 -2.58039e-20)
(4.38504 -0.43384 -3.00446e-19)
(0.195319 0.391673 5.19949e-22)
(3.7307 0.123859 -1.38236e-19)
(0.114488 0.325516 3.84848e-22)
(3.85692 0.863957 3.19475e-20)
(4.09503 -0.339769 6.6279e-20)
(3.73627 -0.320429 1.43917e-20)
(4.28225 -0.462468 1.55205e-19)
(0.596524 0.647119 -3.12741e-20)
(4.28563 -0.332891 -7.88853e-21)
(1.02432 0.955065 -4.29691e-21)
(1.42559 0.832002 -4.78922e-21)
(0.511256 0.487865 -2.57117e-22)
(4.27319 0.206488 5.37756e-20)
(0.317649 0.365113 -1.81244e-22)
(0.377552 -0.051604 -1.43288e-22)
(0.372163 0.0356178 6.66353e-23)
(1.06087 1.07599 5.41221e-20)
(2.90696 1.69648 1.03501e-19)
(0.300296 0.119681 -2.76979e-23)
(3.93738 -0.298632 6.9677e-20)
(0.36044 0.349031 -7.75463e-23)
(0.200738 -0.131663 -1.65053e-21)
(0.783063 0.823431 -4.53835e-22)
(1.61418 0.676959 1.28273e-21)
(3.65407 1.07906 -6.21093e-21)
(4.39611 -0.393579 1.74581e-19)
(0.387253 0.436125 2.16508e-20)
(3.44826 -0.317541 -7.02392e-20)
(4.2978 -0.345807 -2.69579e-21)
(0.0360818 0.00327193 -4.86886e-22)
(3.44098 1.2501 -6.1643e-20)
(0.889984 0.789566 1.46323e-20)
(0.632944 0.597238 1.25071e-20)
(3.76101 -0.297938 -1.53895e-20)
(4.38259 -0.400861 -2.27003e-21)
(0.420978 -0.0337486 3.11166e-23)
(2.14656 0.294009 4.95283e-21)
(0.217718 0.400359 1.00902e-21)
(1.8138 1.60079 1.52984e-20)
(4.31768 0.0641364 -1.65398e-19)
(3.37647 -0.325562 -3.41927e-20)
(0.164227 -0.111374 -3.70007e-22)
(0.376767 0.44806 -2.52258e-22)
(4.30324 -0.248292 -8.71797e-19)
(0.394942 0.303891 1.83427e-22)
(3.58336 -0.0141565 1.08828e-19)
(4.1279 0.113183 -6.40623e-20)
(0.143288 0.102389 -5.57352e-22)
(1.59386 0.825246 -1.12587e-21)
(0.523778 0.458236 5.0848e-22)
(3.60098 -0.32227 -8.04977e-21)
(4.30212 -0.433322 -6.72587e-20)
(0.169106 0.393543 3.07362e-22)
(4.29911 -0.358114 -3.6538e-22)
(0.483529 0.276955 -5.98732e-22)
(0.100332 0.262174 7.33061e-22)
(3.3113 -0.320083 1.68475e-21)
(0.454636 0.0869706 -1.53174e-22)
(0.459132 -0.0185829 1.06596e-22)
(4.30053 -0.353682 9.48211e-21)
(4.00709 -0.25457 2.04335e-19)
(0.209431 0.249566 -1.78604e-22)
(0.155996 -0.0933518 -5.99499e-22)
(0.0721998 -0.0489197 -3.40334e-22)
(0.507805 0.0224071 9.21524e-23)
(0.0472704 0.043981 -6.12777e-23)
(0.14599 0.385934 -7.67887e-22)
(0.240182 0.424175 2.55956e-22)
(0.409206 0.423061 -8.97736e-24)
(0.0180303 0.0751929 5.53762e-22)
(0.0245622 0.0371913 -7.53905e-22)
(0.300759 0.460496 -4.67619e-22)
(0.271174 0.233579 1.50387e-22)
(0.0096547 0.222974 1.78957e-22)
(0.554055 0.477156 -5.91062e-22)
(3.46811 -0.338986 -4.49753e-20)
(0.488344 -0.00118366 3.1369e-22)
(4.35837 -0.438632 8.16018e-21)
(0.0203229 0.116551 -2.06244e-22)
(4.28846 -0.372394 -1.48295e-21)
(3.5007 -0.333085 2.0362e-20)
(3.1045 -0.347006 -1.66968e-20)
(4.1333 -0.426868 -4.31139e-21)
(4.32229 -0.38368 -1.87068e-19)
(0.247919 -0.0780087 3.69288e-23)
(0.394609 -0.00831408 -2.82937e-22)
(0.111181 -0.0689172 -2.89694e-23)
(0.273271 0.395217 2.5137e-22)
(0.0774108 0.0164925 -1.02395e-23)
(0.476074 0.467755 2.53755e-22)
(0.0951319 0.0954772 3.38533e-22)
(0.123469 0.373453 -4.50723e-22)
(0.258922 0.341138 -2.1102e-21)
(3.73761 -0.198675 -1.66566e-20)
(0.130406 0.377668 -2.8805e-23)
(3.33951 -0.34463 5.04517e-20)
(0.299221 0.387068 -2.24295e-22)
(0.102038 0.354872 6.42064e-22)
(4.03874 -0.457626 -3.47642e-20)
(2.93332 -0.364851 -5.05642e-20)
(0.540999 0.516861 2.6473e-21)
(0.0153722 0.164026 -7.56195e-22)
(0.11192 0.18307 -4.23905e-22)
(0.026704 0.192777 8.56464e-23)
(0.342475 -0.0256079 1.74522e-23)
(0.204002 0.400252 -6.75943e-23)
(0.00790835 0.20803 1.01045e-21)
(0.338567 0.395848 -5.81963e-24)
(3.64293 -0.326195 -1.33659e-20)
(0.341325 0.207064 -5.83906e-22)
(3.90545 -0.311246 7.81844e-21)
(3.37763 -0.33476 7.03778e-20)
(4.25748 -0.389318 -8.10391e-22)
(4.20376 -0.412078 6.70688e-20)
(3.25743 -0.337289 -3.12804e-20)
(4.31039 -0.372705 -2.15291e-20)
(3.52908 -0.331601 -4.52195e-20)
(0.88287 0.97436 1.4463e-21)
(0.527177 0.609601 -4.18271e-21)
(0.249023 -0.0252761 -8.26912e-23)
(0.195845 -0.106249 -8.95607e-23)
(4.30935 -0.362371 2.95989e-20)
(0.29133 -0.0530857 -1.23225e-22)
(4.0643 -0.449208 -1.60343e-19)
(0.0115485 0.231527 -7.22027e-23)
(0.195566 0.0810514 2.59254e-24)
(0.0762445 0.325442 -1.61084e-22)
(0.376627 0.104798 -2.49478e-22)
(0.396625 0.477702 3.63812e-22)
(4.2069 -0.345367 3.60305e-19)
(0.0747936 0.198916 2.62981e-22)
(3.78184 -0.317488 3.27442e-21)
(3.66823 -0.295271 -8.46544e-20)
(0.523116 0.566059 -3.46013e-22)
(0.173572 0.393858 1.46778e-23)
(0.0478125 0.264226 2.76358e-22)
(2.92105 -0.353771 6.52299e-20)
(0.0647643 0.299062 -6.43139e-22)
(0.150503 0.386386 6.99735e-23)
(0.327723 0.456281 -1.80865e-22)
(0.114467 -0.00764329 -4.82584e-23)
(0.327585 0.438252 8.52869e-22)
(0.122056 0.0558602 9.47792e-25)
(4.32403 -0.382103 1.68008e-19)
(0.185929 -0.133311 -3.40075e-23)
(0.194308 0.396098 -7.36102e-23)
(0.15882 0.0362339 4.17995e-23)
(0.544024 0.0807952 -2.77148e-21)
(3.91307 -0.449855 -1.21577e-19)
(0.614913 0.582294 4.09745e-21)
(0.599255 0.522484 -8.20379e-21)
(2.70727 -0.347615 -8.74486e-20)
(0.442919 0.00268837 -1.35382e-22)
(0.438856 -0.383048 1.09704e-21)
(0.462928 -0.373732 -3.93291e-23)
(0.516439 -0.379812 -6.52972e-22)
(0.553891 -0.385361 3.41184e-22)
(0.593494 -0.390205 -3.78612e-22)
(0.625634 -0.3935 -1.17957e-21)
(0.656498 -0.39598 2.7182e-22)
(0.682976 -0.397965 3.54341e-22)
(0.708665 -0.398426 3.68391e-22)
(0.472128 -0.370956 -7.17067e-22)
(0.495864 -0.365585 -5.31863e-23)
(0.546348 -0.370445 5.44329e-22)
(0.583832 -0.376653 -1.016e-21)
(0.621375 -0.381601 9.1441e-22)
(0.652775 -0.385672 1.56051e-21)
(0.682019 -0.388675 -9.88776e-22)
(0.707563 -0.390992 1.03105e-21)
(0.730558 -0.392118 -5.06297e-22)
(0.506699 -0.354322 2.02825e-21)
(0.527369 -0.351448 5.22654e-22)
(0.575245 -0.356442 -1.14921e-21)
(0.611994 -0.363474 5.87593e-22)
(0.647852 -0.368945 -1.48196e-21)
(0.678416 -0.373742 -2.20828e-22)
(0.706363 -0.377413 -3.32186e-23)
(0.730817 -0.380332 -5.14516e-22)
(0.752641 -0.382353 -8.19649e-22)
(0.538765 -0.335003 -9.54159e-22)
(0.556506 -0.333184 3.51536e-22)
(0.602245 -0.338704 8.8612e-22)
(0.638204 -0.346548 5.14552e-23)
(0.672679 -0.352688 6.60865e-22)
(0.702419 -0.358164 1.91335e-21)
(0.729307 -0.362463 -1.15553e-21)
(0.752914 -0.365917 1.82498e-22)
(0.774098 -0.36847 4.44989e-22)
(0.568098 -0.312886 1.48177e-22)
(0.582971 -0.311454 -1.81989e-22)
(0.626703 -0.317745 4.80967e-23)
(0.661952 -0.326222 -3.81724e-22)
(0.695354 -0.333082 1.90751e-22)
(0.724441 -0.339202 -4.36356e-22)
(0.750594 -0.344101 1.81511e-22)
(0.773695 -0.348072 7.64242e-22)
(0.794685 -0.350891 1.65741e-22)
(0.594117 -0.288191 1.53149e-22)
(0.606319 -0.286784 -7.69372e-22)
(0.648195 -0.294104 9.70555e-23)
(0.682938 -0.30293 9.10107e-22)
(0.715564 -0.310451 -2.9933e-22)
(0.744197 -0.317137 -4.30099e-22)
(0.769881 -0.322626 -1.51361e-22)
(0.792721 -0.327143 -1.30079e-21)
(0.813514 -0.330677 6.71993e-22)
(0.61525 -0.26247 1.12184e-22)
(0.626241 -0.259977 5.80222e-22)
(0.66655 -0.26836 1.25939e-22)
(0.701044 -0.277053 -4.50922e-22)
(0.733132 -0.285051 9.66955e-23)
(0.761488 -0.292159 -1.46907e-22)
(0.786916 -0.298152 3.52823e-22)
(0.809643 -0.303163 -3.30854e-22)
(0.830409 -0.307289 -2.27082e-22)
(0.630028 -0.235855 -2.78119e-22)
(0.64321 -0.231349 5.38133e-22)
(0.682093 -0.240618 -1.05789e-22)
(0.716371 -0.248711 2.13804e-22)
(0.748008 -0.256975 -1.92338e-22)
(0.776202 -0.264343 5.99129e-22)
(0.801541 -0.270723 7.97823e-22)
(0.824308 -0.276193 -1.01459e-21)
(0.845287 -0.280377 3.00912e-22)
(0.639207 -0.204914 -1.98817e-23)
(0.657948 -0.199695 1.08046e-22)
(0.695167 -0.210008 5.159e-23)
(0.728969 -0.217595 -2.59241e-22)
(0.760127 -0.226091 -7.96928e-23)
(0.788234 -0.233613 -2.19547e-22)
(0.813623 -0.240245 -1.21e-22)
(0.8366 -0.245931 1.06945e-21)
(0.857691 -0.250688 -1.0959e-22)
(0.644949 -0.167501 7.32815e-23)
(0.670013 -0.163739 -4.63086e-22)
(0.705255 -0.175642 -2.24895e-22)
(0.738462 -0.183383 8.94107e-23)
(0.769259 -0.192242 -9.21354e-23)
(0.797441 -0.199847 3.74503e-22)
(0.823073 -0.206532 5.92636e-23)
(0.846414 -0.212176 7.16735e-22)
(0.867902 -0.2167 -4.48551e-23)
(0.648517 -0.125399 -3.98799e-23)
(0.677928 -0.12421 9.63096e-25)
(0.711212 -0.137995 1.37938e-22)
(0.744212 -0.146384 2.72718e-22)
(0.775076 -0.155563 -8.60633e-23)
(0.803658 -0.163074 -8.37902e-23)
(0.829833 -0.169537 -2.41228e-22)
(0.853857 -0.174791 -8.72532e-22)
(0.876029 -0.17889 -1.40291e-22)
(0.650378 -0.0821777 9.76526e-23)
(0.680553 -0.0840656 4.17463e-22)
(0.712417 -0.0989882 -2.99044e-22)
(0.745928 -0.107623 1.79486e-22)
(0.777431 -0.116555 -3.31392e-23)
(0.806772 -0.123531 5.68588e-22)
(0.833749 -0.129379 5.79241e-23)
(0.858618 -0.133904 -4.59469e-22)
(0.881726 -0.137995 -3.3113e-22)
(0.64874 -0.0417085 3.55063e-23)
(0.677318 -0.0462314 -8.92848e-23)
(0.709526 -0.0603282 1.96484e-23)
(0.744076 -0.0680831 1.23221e-22)
(0.776572 -0.0757497 -8.2643e-23)
(0.806866 -0.0814836 -1.08972e-22)
(0.834758 -0.0860963 -2.01146e-22)
(0.860493 -0.0895489 3.73485e-22)
(0.884712 -0.0921729 -2.15346e-22)
(0.640871 -0.00465519 -5.85802e-23)
(0.670297 -0.0100963 -8.65632e-24)
(0.703816 -0.0220204 -7.01517e-23)
(0.739443 -0.0278868 2.03293e-22)
(0.772934 -0.0333698 -3.71708e-23)
(0.804161 -0.0371798 -2.16619e-23)
(0.83295 -0.0399645 -1.47488e-22)
(0.859554 -0.0417627 1.75096e-23)
(0.884359 -0.0423004 1.35854e-22)
(0.627869 0.0313508 2.22537e-22)
(0.66023 0.0258862 -1.9676e-23)
(0.695774 0.0168414 4.04099e-22)
(0.73242 0.013384 -5.95384e-22)
(0.766739 0.0105928 6.705e-23)
(0.798742 0.00911756 2.18508e-22)
(0.828321 0.00851088 1.53968e-22)
(0.855767 0.00877099 2.21798e-22)
(0.881392 0.0100449 -7.85311e-22)
(0.609347 0.0683941 4.42916e-23)
(0.647131 0.0630648 -2.15353e-22)
(0.685296 0.0572964 -5.90911e-22)
(0.722893 0.056241 8.00894e-22)
(0.757852 0.0561625 2.72926e-22)
(0.790446 0.0570862 -1.4493e-22)
(0.820644 0.0587438 -2.06885e-23)
(0.848692 0.0611673 6.09087e-22)
(0.874668 0.0640844 -2.59572e-22)
(0.587 0.107886 4.53932e-22)
(0.629842 0.102776 -4.70385e-22)
(0.671492 0.0999981 5.84425e-22)
(0.710191 0.100861 -3.917e-22)
(0.74578 0.1031 -4.24484e-22)
(0.778897 0.10621 1.67902e-21)
(0.80963 0.110015 -1.11905e-21)
(0.838194 0.11459 -4.58658e-22)
(0.864973 0.119004 1.07506e-22)
(0.564424 0.147791 -5.74969e-22)
(0.608296 0.143809 6.45805e-22)
(0.653375 0.14392 -3.04085e-22)
(0.693513 0.146406 4.75532e-22)
(0.729951 0.150594 1.11441e-22)
(0.763697 0.155667 -1.33498e-21)
(0.794989 0.161488 1.20136e-22)
(0.824024 0.168035 -6.41394e-22)
(0.851232 0.174684 -8.26241e-22)
(0.542681 0.185241 -9.19155e-23)
(0.584053 0.183129 -1.42132e-22)
(0.631185 0.186745 -3.10691e-22)
(0.672736 0.191194 -1.36246e-21)
(0.71017 0.197337 3.45006e-22)
(0.744664 0.204311 5.71086e-22)
(0.77659 0.212037 6.69819e-22)
(0.806203 0.220355 8.4033e-22)
(0.833914 0.229008 -3.89753e-22)
(0.520737 0.219634 9.0896e-23)
(0.558226 0.219387 4.60838e-23)
(0.605994 0.226814 1.0883e-21)
(0.648414 0.233782 -9.00987e-23)
(0.686698 0.242111 5.4778e-22)
(0.721897 0.251101 -3.70389e-22)
(0.754424 0.260767 -2.69291e-21)
(0.784526 0.270917 -4.20461e-22)
(0.812591 0.281277 -3.99414e-23)
(0.49794 0.251536 1.92665e-22)
(0.53114 0.252594 -1.26762e-21)
(0.578661 0.263471 7.96033e-22)
(0.621238 0.273312 -1.0284e-21)
(0.660034 0.284017 7.80833e-22)
(0.695761 0.295157 -1.6052e-22)
(0.728812 0.306821 7.54152e-22)
(0.759452 0.318786 6.89177e-22)
(0.787834 0.331441 -2.19215e-22)
(0.474235 0.280408 3.33696e-22)
(0.502747 0.282639 1.21989e-21)
(0.549715 0.296355 -2.14321e-21)
(0.591773 0.309289 3.10636e-22)
(0.630644 0.322454 -2.08559e-21)
(0.666603 0.33582 6.17683e-22)
(0.700021 0.349496 2.42158e-22)
(0.731302 0.363206 -3.44983e-22)
(0.759672 0.378722 -1.93463e-22)
(0.449578 0.304401 -4.57207e-22)
(0.47336 0.309432 -1.02352e-21)
(0.519794 0.325525 1.10634e-21)
(0.560703 0.341722 1.21432e-21)
(0.599155 0.357289 1.39861e-21)
(0.634953 0.372824 -1.07873e-22)
(0.668451 0.388362 -4.53703e-22)
(0.700222 0.40384 1.40028e-21)
(0.728825 0.421502 -3.71111e-21)
(0.423401 0.322947 -2.16936e-23)
(0.442904 0.332649 6.18384e-22)
(0.488245 0.350636 -2.93585e-22)
(0.527355 0.36993 5.52272e-22)
(0.564895 0.387697 -1.15266e-21)
(0.60023 0.405393 -3.61064e-22)
(0.633648 0.422738 1.91348e-21)
(0.666289 0.440064 -1.98912e-21)
(0.695794 0.46207 2.53458e-21)
(0.395874 0.337588 -1.10639e-22)
(0.413928 0.355914 7.70735e-23)
(0.45829 0.376771 3.92068e-22)
(0.495682 0.397755 -6.34495e-22)
(0.531902 0.416797 1.59668e-22)
(0.565817 0.435537 -9.60952e-22)
(0.598263 0.453417 7.17384e-22)
(0.632442 0.470366 -5.76507e-22)
(0.663782 0.494019 -3.77252e-23)
(0.342239 0.301497 -2.77034e-22)
(0.335295 0.299219 -3.37085e-22)
(0.328018 0.29619 -1.04638e-21)
(0.319954 0.292666 1.48076e-21)
(0.311054 0.288568 -1.12258e-21)
(0.301278 0.283859 8.51304e-22)
(0.290604 0.278498 3.35663e-22)
(0.279033 0.272427 -8.71663e-23)
(0.266589 0.265573 -6.25465e-22)
(0.253317 0.257865 -2.71504e-22)
(0.239297 0.249231 2.9688e-22)
(0.224634 0.239599 -3.34834e-22)
(0.209463 0.228903 9.11813e-22)
(0.193943 0.217083 -2.30045e-21)
(0.178242 0.204086 4.00403e-21)
(0.162541 0.189881 -4.53004e-21)
(0.147024 0.174464 4.04429e-21)
(0.131859 0.157856 -1.82139e-21)
(0.117192 0.140133 -5.92221e-22)
(0.103137 0.121433 6.26055e-22)
(0.0897304 0.101967 -2.16299e-22)
(0.0768137 0.0819533 4.69038e-22)
(0.0641886 0.0620075 3.20674e-23)
(0.0517584 0.0425262 -6.51025e-22)
(0.0414856 0.0229058 5.1305e-22)
(0.0356114 0.00267632 -2.77508e-22)
(0.0341599 -0.0185816 3.58137e-22)
(0.0375616 -0.0410016 2.86074e-22)
(0.0433046 -0.0648539 -3.45054e-22)
(0.0489189 -0.0898667 9.23258e-24)
(0.0549346 -0.115209 -3.08744e-22)
(0.0620807 -0.140468 2.80256e-22)
(0.0706892 -0.165382 5.29669e-22)
(0.0807666 -0.189629 -4.29596e-22)
(0.0922072 -0.212872 6.10374e-22)
(0.104863 -0.234893 -1.01582e-21)
(0.118529 -0.255487 7.93803e-23)
(0.132986 -0.274496 2.19446e-22)
(0.148022 -0.291811 -3.30005e-22)
(0.163448 -0.307359 7.37032e-22)
(0.179114 -0.32112 -4.20786e-22)
(0.194907 -0.333115 -1.78427e-21)
(0.21075 -0.343393 3.63344e-21)
(0.226605 -0.352046 -3.87835e-21)
(0.242442 -0.359207 3.35727e-21)
(0.258301 -0.364955 -1.97157e-21)
(0.274363 -0.369358 1.00589e-21)
(0.290571 -0.372635 -3.45624e-22)
(0.306593 -0.375079 3.1886e-22)
(0.322122 -0.37694 -3.40524e-22)
(0.336896 -0.37843 -4.78028e-22)
(0.350697 -0.379708 -1.3707e-22)
(0.363394 -0.38085 2.55425e-22)
(0.375059 -0.381811 6.1951e-22)
(0.385791 -0.382549 -9.19366e-22)
(0.395592 -0.383095 1.17783e-21)
(0.404492 -0.383483 -7.92577e-22)
(0.412529 -0.383723 -2.72398e-22)
(0.419807 -0.383886 -1.91756e-22)
(0.357503 0.265045 -1.48026e-23)
(0.351262 0.262347 2.73494e-24)
(0.34457 0.259479 -3.32517e-23)
(0.337306 0.256358 6.70903e-23)
(0.329409 0.252999 -2.00092e-23)
(0.320814 0.249398 -1.30279e-22)
(0.311494 0.245494 2.25664e-23)
(0.301472 0.241158 3.21729e-23)
(0.290759 0.2363 4.79229e-23)
(0.279353 0.230841 -4.36918e-23)
(0.267266 0.224685 2.87819e-23)
(0.254539 0.217732 -5.66133e-23)
(0.241241 0.209876 3.73345e-23)
(0.227461 0.201017 2.49201e-23)
(0.213319 0.191064 -2.43404e-23)
(0.198949 0.17994 5.92481e-23)
(0.184495 0.167593 2.84248e-23)
(0.170109 0.153995 6.57754e-23)
(0.155931 0.139144 8.02004e-23)
(0.142089 0.123057 3.177e-23)
(0.128697 0.105756 6.91584e-24)
(0.115884 0.0872131 -2.0626e-22)
(0.103974 0.0673046 1.84748e-22)
(0.0935884 0.0455878 -8.33581e-23)
(0.0854621 0.0220044 3.01383e-22)
(0.0799001 -0.00306893 -1.22102e-22)
(0.0770886 -0.0289927 -1.1825e-23)
(0.0772144 -0.0550326 5.56882e-23)
(0.080262 -0.0805519 1.59724e-23)
(0.0851413 -0.105514 -2.90037e-24)
(0.0913693 -0.130102 -4.77394e-23)
(0.0989991 -0.154279 1.12628e-23)
(0.108097 -0.177847 -1.80136e-23)
(0.118548 -0.200603 -2.24675e-23)
(0.130212 -0.222354 -6.67973e-23)
(0.142942 -0.242938 4.54106e-23)
(0.156575 -0.262221 4.09552e-23)
(0.170941 -0.280111 -1.20714e-22)
(0.18588 -0.296547 2.62449e-24)
(0.201252 -0.311495 -3.86357e-23)
(0.216942 -0.324942 -1.84972e-24)
(0.232856 -0.336883 9.23439e-23)
(0.24892 -0.347324 -2.52522e-22)
(0.265064 -0.356277 -1.64502e-22)
(0.28122 -0.363765 2.85503e-22)
(0.297309 -0.369817 -2.42623e-22)
(0.313194 -0.374478 1.4052e-22)
(0.328658 -0.37784 -2.98774e-25)
(0.343482 -0.380065 -8.05536e-23)
(0.357468 -0.381371 2.53796e-23)
(0.370539 -0.381927 1.32059e-22)
(0.382691 -0.381922 -2.98747e-23)
(0.39385 -0.381555 5.40347e-23)
(0.40411 -0.380937 -2.15976e-22)
(0.413577 -0.380137 3.23992e-23)
(0.422276 -0.379224 8.75891e-23)
(0.430261 -0.378253 -7.63237e-23)
(0.437609 -0.377252 1.84443e-23)
(0.444433 -0.376293 -1.78817e-23)
(0.415028 0.250225 -3.10286e-22)
(0.408751 0.247606 6.25693e-23)
(0.402018 0.244751 -2.67254e-22)
(0.394807 0.241659 -6.31735e-23)
(0.387077 0.238291 9.24324e-22)
(0.378796 0.234602 -2.88675e-22)
(0.369945 0.230526 -5.63218e-22)
(0.360504 0.226006 -2.91369e-24)
(0.350453 0.220992 3.38636e-22)
(0.339777 0.215424 -8.59782e-23)
(0.32848 0.209229 9.19168e-22)
(0.316582 0.20233 -1.0937e-21)
(0.304126 0.194638 9.89293e-22)
(0.291176 0.186063 -1.36039e-22)
(0.27782 0.176516 -8.78023e-22)
(0.264165 0.165913 2.69135e-22)
(0.250338 0.15418 1.04347e-21)
(0.236476 0.141251 -4.15356e-22)
(0.222731 0.12707 -1.0136e-22)
(0.209267 0.111586 2.02896e-23)
(0.196267 0.0947405 -2.80112e-22)
(0.183955 0.0764604 6.7186e-23)
(0.172642 0.0566666 -7.08905e-22)
(0.162739 0.0353292 8.53044e-22)
(0.15479 0.0125601 -3.28703e-22)
(0.149299 -0.0113744 5.87358e-24)
(0.146528 -0.0361126 4.63603e-23)
(0.146521 -0.0612282 -2.07966e-22)
(0.149004 -0.0862313 1.31161e-22)
(0.15349 -0.110806 6.92821e-23)
(0.159624 -0.134864 1.57906e-22)
(0.16722 -0.158328 -1.63149e-22)
(0.176161 -0.181071 7.21225e-23)
(0.186326 -0.202954 9.93902e-23)
(0.197589 -0.223848 -3.35427e-22)
(0.209819 -0.243639 9.33955e-22)
(0.222878 -0.26223 -6.08414e-22)
(0.23663 -0.279545 -1.34845e-22)
(0.250949 -0.295528 -1.49869e-22)
(0.265718 -0.310141 -4.89813e-23)
(0.280833 -0.323362 -2.35883e-22)
(0.296199 -0.335177 -4.00863e-22)
(0.31172 -0.345584 9.72115e-22)
(0.327294 -0.354595 4.49827e-22)
(0.34281 -0.362235 -9.26063e-22)
(0.358139 -0.36855 -2.95955e-22)
(0.373135 -0.373615 9.51558e-22)
(0.38764 -0.377537 -1.09675e-21)
(0.401509 -0.380466 7.66006e-22)
(0.414634 -0.382572 -3.01443e-23)
(0.426904 -0.384017 3.03472e-22)
(0.438355 -0.38489 5.42023e-23)
(0.44901 -0.385287 -4.96346e-22)
(0.458899 -0.385336 -2.45413e-22)
(0.468074 -0.385113 7.7489e-22)
(0.476576 -0.384681 -1.67724e-23)
(0.484458 -0.384089 -2.19256e-22)
(0.491776 -0.383386 6.78765e-23)
(0.498574 -0.3826 -2.51109e-22)
(0.454488 0.241911 -5.6305e-23)
(0.448223 0.239776 2.9787e-22)
(0.441533 0.237422 -1.41906e-22)
(0.434352 0.234783 1.0664e-22)
(0.426657 0.231832 -1.16297e-22)
(0.418423 0.228534 -1.66813e-24)
(0.409629 0.224845 -7.56355e-23)
(0.40026 0.220718 -1.91877e-22)
(0.390306 0.216095 1.27141e-22)
(0.379763 0.210914 1.69247e-22)
(0.36864 0.205098 1.22874e-22)
(0.356959 0.198565 -4.99395e-22)
(0.344757 0.191224 4.53165e-22)
(0.332092 0.182981 -1.08054e-22)
(0.319041 0.173739 5.85112e-23)
(0.305705 0.163404 -2.81638e-22)
(0.292205 0.151884 2.80632e-22)
(0.278686 0.139097 -1.222e-22)
(0.265315 0.12497 -1.93726e-22)
(0.252282 0.109437 9.57471e-23)
(0.239807 0.0924426 -4.89559e-23)
(0.228143 0.0739477 -3.38249e-22)
(0.217589 0.0539386 2.09963e-22)
(0.208483 0.0324554 2.30504e-22)
(0.201173 0.00963257 -1.84782e-22)
(0.195953 -0.0142823 2.1601e-23)
(0.193015 -0.0389554 2.10754e-22)
(0.192428 -0.0640096 -2.46331e-22)
(0.194119 -0.089074 8.12859e-23)
(0.197877 -0.113859 -2.19914e-23)
(0.203478 -0.138177 1.03039e-22)
(0.210734 -0.161879 -2.41064e-22)
(0.219476 -0.184832 1.81616e-22)
(0.229547 -0.20691 -6.06355e-24)
(0.240786 -0.227996 -2.26486e-22)
(0.253041 -0.247988 8.34414e-23)
(0.266161 -0.266796 2.49654e-22)
(0.279996 -0.284342 -1.06115e-22)
(0.294409 -0.300565 -1.01295e-22)
(0.309266 -0.315419 1.81313e-22)
(0.324442 -0.328872 -4.77813e-23)
(0.339813 -0.340901 -6.41255e-23)
(0.355256 -0.351503 3.89095e-22)
(0.370644 -0.360689 -3.5865e-22)
(0.385849 -0.36849 1.53675e-22)
(0.400743 -0.374964 -1.87119e-23)
(0.4152 -0.38019 4.6526e-22)
(0.429111 -0.384275 -4.23585e-22)
(0.442386 -0.387338 1.81836e-22)
(0.454933 -0.389541 1.49389e-22)
(0.466616 -0.391113 1.64881e-22)
(0.47747 -0.39213 -2.06005e-22)
(0.487649 -0.392597 -4.45082e-23)
(0.497212 -0.392592 -6.57503e-23)
(0.506146 -0.392228 -1.05822e-22)
(0.514444 -0.391606 7.46646e-23)
(0.522147 -0.390784 -1.4317e-22)
(0.529304 -0.389806 2.91904e-22)
(0.535987 -0.388732 -8.13685e-23)
(0.505435 0.237269 -4.76546e-22)
(0.49927 0.234941 4.99861e-23)
(0.492603 0.232396 4.63367e-22)
(0.485412 0.229602 -3.32337e-22)
(0.477672 0.226516 8.67147e-23)
(0.469369 0.2231 2.92433e-22)
(0.46049 0.219309 -3.68318e-22)
(0.451028 0.215092 1.39237e-22)
(0.440984 0.21039 4.4584e-22)
(0.430364 0.205138 -1.50389e-22)
(0.419185 0.199265 -4.5675e-22)
(0.407475 0.19269 -1.53119e-22)