/*--------------------------------*- C++ -*----------------------------------*\
  =========                 |
  \\      /  F ield         | OpenFOAM: The Open Source CFD Toolbox
   \\    /   O peration     | Website:  https://openfoam.org
    \\  /    A nd           | Version:  10
     \\/     M anipulation  |
\*---------------------------------------------------------------------------*/
FoamFile
{
    format      ascii;
    class       volScalarField;
    location    "400";
    object      epsilon;
}
// * * * * * * * * * * * * * * * * * * * * * * * * * * * * * * * * * * * * * //

dimensions      [0 2 -3 0 0 0 0];

internalField   nonuniform List<scalar> 
23845
(
0.0361584
0.0535657
0.0635216
0.0140332
0.0379447
0.00198604
0.0711611
0.0100613
0.00225019
0.0262637
0.0186242
0.00168976
0.00379446
0.00213656
0.11071
0.0146765
0.00567235
0.00671096
0.00503476
0.00253738
0.0336107
0.01655
0.0296907
0.00226094
0.0246563
0.00201042
0.051485
0.00229649
0.00984268
0.00256667
0.0157109
0.0216386
0.131621
0.00707972
0.00170385
0.00206932
0.0180389
0.00170669
0.00177574
0.00209337
0.00532209
0.00463861
0.00318118
0.00472336
0.002423
0.00398118
0.0276302
0.0140846
0.0202449
0.0103448
0.0130214
0.0509792
0.0247133
0.00221539
0.0209221
0.00544552
0.0522033
0.0103183
0.0397465
0.0369555
0.01036
0.0051051
0.0127251
0.0143269
0.00230126
0.00361108
0.056285
0.00207743
0.00247398
0.00612287
0.00981176
0.048529
0.00225254
0.0974445
0.00234232
0.107891
0.0016913
0.00179268
0.0109044
0.00850652
0.0404445
0.0856677
0.0548568
0.0107915
0.0718712
0.00171932
0.0745522
0.0258992
0.00230161
0.00792075
0.012697
0.00743665
0.0115725
0.00203642
0.0105184
0.0112238
0.00465035
0.0154
0.00236128
0.0303425
0.00565531
0.0602652
0.0428553
0.0152259
0.0150581
0.0112539
0.00205481
0.00236485
0.0513011
0.00465714
0.0164792
0.00172419
0.0926692
0.0200049
0.00216213
0.0240702
0.00237128
0.0176778
0.00979478
0.0141292
0.00175356
0.0156599
0.00713601
0.0254701
0.0642877
0.00204755
0.0101272
0.0105154
0.0492853
0.0309822
0.0723862
0.0323556
0.0223657
0.00204956
0.00715192
0.0401971
0.0129828
0.00167635
0.0472379
0.0018065
0.0107365
0.00433817
0.00181987
0.00507238
0.00962096
0.00432922
0.0195203
0.0861011
0.0240029
0.00972212
0.125151
0.00274059
0.063333
0.00264603
0.0892527
0.0146738
0.0410242
0.00183413
0.0935825
0.0103291
0.00878471
0.105808
0.0107737
0.00228077
0.00311304
0.0109851
0.00195743
0.0141157
0.0023765
0.00407085
0.00199507
0.015546
0.00228343
0.0204487
0.00208879
0.0104179
0.00849654
0.0189485
0.00239088
0.00181139
0.0304601
0.0271707
0.0942507
0.0145764
0.011662
0.00497778
0.00493116
0.0106929
0.00995283
0.00451263
0.013027
0.00215751
0.00209299
0.00206978
0.00991586
0.0022208
0.0141268
0.0109484
0.027059
0.0176359
0.0114782
0.00228258
0.0203937
0.028225
0.0104634
0.0106167
0.0604496
0.00190184
0.0437132
0.00783196
0.0086243
0.0128231
0.00922438
0.00247762
0.0166916
0.0196799
0.0240829
0.00540251
0.0154468
0.0662559
0.00253956
0.103188
0.0143004
0.0133457
0.00438867
0.120858
0.012533
0.00217182
0.00201586
0.00612019
0.00192963
0.018021
0.00174476
0.00196805
0.0379816
0.00967643
0.00232293
0.0141043
0.00219738
0.0176364
0.0235694
0.0178451
0.0106685
0.03573
0.0145649
0.013709
0.00205481
0.00245311
0.0104735
0.104488
0.00351914
0.00181378
0.0127512
0.00347597
0.0897148
0.0121897
0.0179776
0.0112622
0.00215414
0.00226921
0.0295612
0.00185219
0.0099826
0.0159339
0.014867
0.00208319
0.0105347
0.0321932
0.0207706
0.0132115
0.00178722
0.0140179
0.0141082
0.00211264
0.0146335
0.0021104
0.0111558
0.00217546
0.0266565
0.0303672
0.0122327
0.0020531
0.0118732
0.0101755
0.00174323
0.0151359
0.0207673
0.00234273
0.0104254
0.0946533
0.0104297
0.0161524
0.0131965
0.0110695
0.0104149
0.00172528
0.0207405
0.00212297
0.00173865
0.0101691
0.0996987
0.113809
0.0098814
0.0130926
0.00211253
0.0139518
0.0163584
0.0137151
0.00540262
0.0122122
0.0145343
0.0597057
0.00449591
0.00200213
0.0358627
0.0104402
0.0176907
0.0240901
0.0120035
0.00266309
0.0179298
0.013461
0.0359448
0.00251476
0.101546
0.00192074
0.0114439
0.0296292
0.0177558
0.00737606
0.0708507
0.0105944
0.0125139
0.0018417
0.0186977
0.0152561
0.0216267
0.00663578
0.00415156
0.0107873
0.0180914
0.0291498
0.0166407
0.00194278
0.00241412
0.0315221
0.00183188
0.0112377
0.0111717
0.113848
0.0203853
0.0682732
0.0104269
0.0119079
0.0250487
0.00207884
0.0037424
0.00220748
0.0951314
0.0103597
0.0346475
0.00207281
0.0187122
0.00891177
0.00980665
0.00199962
0.0247115
0.00212683
0.00993232
0.00201757
0.00439058
0.012753
0.0346911
0.00169729
0.00188963
0.0121849
0.034062
0.0172957
0.00403891
0.0148727
0.0948517
0.0018911
0.0285006
0.00242472
0.00195284
0.00174619
0.00195956
0.0106417
0.0104898
0.0103733
0.0576369
0.0040576
0.0210005
0.018885
0.0152018
0.0105743
0.0141133
0.00238374
0.00645074
0.00187401
0.0270276
0.0180187
0.0107216
0.0218267
0.0469136
0.098653
0.00186482
0.026541
0.0125084
0.013089
0.1167
0.00199475
0.0805667
0.0275272
0.0447086
0.0405441
0.0222211
0.0130804
0.00188549
0.0241372
0.11145
0.00315259
0.00221773
0.0109885
0.0107921
0.047492
0.103002
0.0176876
0.0257199
0.0321934
0.00221717
0.00682982
0.0297435
0.00632686
0.00339088
0.00240008
0.00168789
0.00480953
0.0103329
0.0234081
0.108498
0.0831576
0.0140637
0.0476185
0.0177815
0.0202366
0.00254024
0.0199894
0.00188783
0.015975
0.0106785
0.00256819
0.0720497
0.00186232
0.0020148
0.0262021
0.0371383
0.0303172
0.0105913
0.00226951
0.0465619
0.0124587
0.0124147
0.0340524
0.0019911
0.00185116
0.0020901
0.0172604
0.00195678
0.115898
0.00248907
0.00194873
0.0163015
0.0112207
0.0177236
0.0352677
0.00247233
0.0147922
0.00233458
0.00813291
0.0232526
0.0200981
0.0149384
0.015921
0.0104689
0.0882391
0.00178071
0.00174039
0.0637518
0.0245204
0.0020295
0.0935963
0.0110834
0.0210834
0.0107011
0.0247138
0.00240994
0.0378689
0.00232271
0.00186532
0.0684367
0.0112583
0.0340166
0.0232537
0.0110568
0.0110363
0.0142449
0.00408895
0.00221998
0.0282539
0.014655
0.0450182
0.0176715
0.0153626
0.00208585
0.00198004
0.0189044
0.125358
0.0999299
0.00402876
0.0235205
0.0023632
0.00728211
0.0237399
0.00202109
0.071998
0.092696
0.0153091
0.0303422
0.0103409
0.00969486
0.127264
0.0280665
0.0313135
0.00630955
0.00422622
0.00225831
0.0209619
0.0244637
0.0114173
0.0679026
0.00231233
0.0280543
0.027175
0.00836847
0.0255675
0.0162099
0.00317811
0.00238872
0.00302308
0.00258913
0.00172357
0.0241484
0.00288292
0.0102153
0.0610087
0.00375187
0.0419647
0.00185206
0.00218935
0.0105061
0.011289
0.0416928
0.00256624
0.00388824
0.0240602
0.0149721
0.00209194
0.010144
0.00359885
0.00239851
0.0721643
0.00514861
0.00204995
0.0151784
0.0291592
0.0202995
0.0947418
0.010932
0.0260264
0.00240443
0.00170456
0.00883777
0.0759026
0.0252498
0.00351583
0.00232585
0.00247471
0.0112759
0.00242835
0.031519
0.119545
0.0432642
0.0128763
0.0103216
0.00375291
0.00241127
0.00232952
0.00642085
0.00172407
0.0485465
0.00246586
0.0240749
0.100008
0.0191749
0.0282459
0.0114678
0.0251632
0.0787282
0.0139135
0.0234936
0.0436676
0.053426
0.0283178
0.0326468
0.0451829
0.0229835
0.0420142
0.00269043
0.0024108
0.0251489
0.00974861
0.024951
0.0128634
0.0465535
0.0090865
0.00491788
0.0050066
0.00350278
0.0120672
0.00366482
0.0032842
0.0230384
0.00220028
0.0017099
0.10166
0.0452801
0.0154979
0.00240217
0.0127356
0.0394045
0.0097456
0.00226619
0.00383606
0.0330347
0.026082
0.033404
0.00335959
0.0267843
0.0640304
0.00210969
0.00177757
0.0220234
0.0117792
0.0119197
0.139432
0.0465347
0.023411
0.0162583
0.017666
0.0102525
0.00686379
0.00821254
0.0459907
0.00701626
0.0024092
0.0033917
0.0331043
0.0168726
0.0234921
0.0111305
0.010077
0.0165024
0.0109731
0.00941875
0.0191658
0.00854833
0.0213919
0.0153361
0.00790064
0.019162
0.00725515
0.00422254
0.00665247
0.00760721
0.0291048
0.00507994
0.00580412
0.0237662
0.0254512
0.0051835
0.00435198
0.0103241
0.0118086
0.0135008
0.0160181
0.0181075
0.00891119
0.020192
0.0080812
0.0179626
0.00688865
0.0141843
0.00636562
0.00651924
0.00692527
0.00551776
0.00472158
0.00492747
0.00415376
0.00510009
0.0181967
0.00235751
0.00419712
0.00546385
0.00450367
0.0020551
0.0137593
0.00426878
0.0124017
0.0140913
0.00828127
0.00398991
0.00492806
0.00217937
0.015169
0.0115785
0.0231573
0.00253407
0.0116198
0.0036133
0.00614676
0.00228259
0.00442683
0.018872
0.00668123
0.0235372
0.0041272
0.00236126
0.00307192
0.00240078
0.00341533
0.010901
0.010456
0.00246487
0.00376487
0.0215168
0.0032752
0.00321751
0.00268831
0.0801778
0.00409751
0.00243007
0.0276123
0.00527759
0.02215
0.0191647
0.0165664
0.0170364
0.0148996
0.0203388
0.00428763
0.00854938
0.0119929
0.0154405
0.0076861
0.0117615
0.00604001
0.0520732
0.00542764
0.0029557
0.0173436
0.0156087
0.0216352
0.0181982
0.0132069
0.00285621
0.0384106
0.0170884
0.00718976
0.00473654
0.00624498
0.0138771
0.0021273
0.0135108
0.00318087
0.00422719
0.0047398
0.00335571
0.00305407
0.00438079
0.00434537
0.00666291
0.0040012
0.00353111
0.00401054
0.0364155
0.00822668
0.00289538
0.0059871
0.0051284
0.00401577
0.0223135
0.0134731
0.018013
0.0100327
0.00450473
0.0029741
0.0047539
0.00381799
0.045254
0.0180207
0.0170641
0.00815151
0.00295464
0.00842295
0.0119443
0.0141273
0.00588928
0.00822775
0.00290925
0.0035164
0.00879503
0.00362176
0.0040101
0.00229018
0.00472906
0.00257478
0.0030406
0.00274048
0.00247153
0.00217882
0.0043183
0.00510788
0.00328205
0.00375129
0.0103928
0.00410644
0.00461814
0.0434709
0.0190942
0.00239505
0.00208564
0.00378773
0.0209182
0.0129213
0.0189026
0.0113174
0.0078155
0.00532629
0.00571584
0.00757664
0.010669
0.00662245
0.00281127
0.00459746
0.00324902
0.00720756
0.00168066
0.0931786
0.00174452
0.0183211
0.00523579
0.023546
0.00273136
0.00398106
0.00805487
0.00589408
0.0150628
0.0121616
0.00632396
0.0169541
0.00392393
0.0044153
0.00287109
0.0027526
0.00252143
0.00246164
0.00468711
0.00384252
0.00289974
0.0158477
0.00308915
0.0147961
0.0170743
0.0150483
0.00658483
0.0159308
0.00611815
0.0026694
0.00838517
0.00244071
0.0128335
0.00456214
0.00249024
0.0181119
0.00411586
0.00297112
0.0119001
0.00286417
0.00731092
0.0180284
0.00880392
0.00415628
0.00765483
0.00316997
0.00608923
0.00284663
0.014295
0.0432011
0.00179431
0.00771208
0.0108118
0.0117291
0.0273274
0.0136154
0.00349871
0.00929316
0.00580641
0.00484266
0.120374
0.0229065
0.00452762
0.00394215
0.00251389
0.023359
0.00394899
0.116734
0.00376438
0.00264074
0.00539386
0.00416925
0.00426118
0.00350377
0.00399953
0.03312
0.00298528
0.0256226
0.00980526
0.0211537
0.00362315
0.0108927
0.00891803
0.0111154
0.0116696
0.00751369
0.0141827
0.00683629
0.013043
0.0144789
0.0171057
0.00620561
0.0151272
0.0149595
0.0099591
0.0233659
0.0183691
0.0131675
0.0222994
0.00280629
0.00549661
0.00731443
0.00480788
0.00221075
0.0043687
0.0119826
0.00462729
0.00270425
0.012633
0.0124189
0.0131941
0.0056331
0.0356803
0.00262456
0.0049124
0.00417735
0.0038805
0.00820149
0.00267895
0.0133882
0.027536
0.0480117
0.00301838
0.00360509
0.0163205
0.0192575
0.00254488
0.019099
0.00969959
0.00896426
0.0125379
0.0182657
0.00670024
0.0147922
0.0192249
0.0168621
0.0241247
0.0228415
0.0247181
0.00353724
0.00697173
0.00667032
0.00348766
0.0118586
0.0148465
0.00461145
0.0322816
0.00298759
0.109781
0.00342664
0.00262979
0.0109989
0.00247125
0.00211497
0.00179842
0.00255887
0.00368374
0.00306114
0.00332476
0.00459152
0.021469
0.0108842
0.00279393
0.00894021
0.00725326
0.0244582
0.0220859
0.0439987
0.0158533
0.00284384
0.00505237
0.00392756
0.00257793
0.00238229
0.00228922
0.0297617
0.0232251
0.0113267
0.0160766
0.0131085
0.0178305
0.0200166
0.0182673
0.00340033
0.0254605
0.0174762
0.0208611
0.0165795
0.0140405
0.0141486
0.00745398
0.0123424
0.00415598
0.0108664
0.00829744
0.00460589
0.00729666
0.00643779
0.00582951
0.00372903
0.00383994
0.00965354
0.02604
0.0214175
0.00272111
0.0206433
0.00273698
0.00259445
0.00561116
0.00169856
0.00977431
0.0053081
0.00486332
0.00439383
0.00593781
0.00417671
0.0269562
0.00319622
0.00249094
0.0232072
0.00536154
0.0023865
0.00942368
0.0228251
0.00992099
0.0103286
0.0565616
0.00380292
0.012946
0.0153456
0.0164033
0.00780673
0.00262776
0.0139126
0.0131561
0.0121838
0.0105051
0.00893849
0.00809234
0.0409694
0.00703085
0.0185151
0.00308824
0.00554622
0.029827
0.00591592
0.00672654
0.0599674
0.00492645
0.00203306
0.00323375
0.00435699
0.00230462
0.00331243
0.00273891
0.00293509
0.0235761
0.00402531
0.00361953
0.0335481
0.00238891
0.00259406
0.00256106
0.0460636
0.00417109
0.00321937
0.0238726
0.00280951
0.00234037
0.00288633
0.00376035
0.0051336
0.0205523
0.00288302
0.003259
0.0111817
0.0179386
0.0235192
0.0147106
0.0113984
0.00281949
0.00591561
0.00411763
0.00468251
0.00274683
0.0230508
0.00627972
0.0026555
0.00247196
0.00758287
0.00641135
0.0281876
0.0119934
0.00277347
0.00400981
0.0027704
0.0237936
0.00601854
0.00260876
0.0183453
0.00298062
0.011822
0.00263188
0.00190497
0.00233875
0.00956796
0.00368053
0.00434999
0.0171539
0.00262476
0.0226966
0.00671493
0.00281462
0.0134185
0.00343695
0.0111116
0.0124778
0.00903375
0.0162585
0.00819441
0.0025711
0.00932122
0.00914585
0.00375729
0.0050404
0.00462313
0.00544598
0.0113906
0.00222813
0.00281791
0.0137627
0.00249779
0.00448474
0.0169424
0.00237674
0.0038759
0.0212351
0.00363464
0.00300358
0.0188286
0.0290619
0.0290872
0.00232787
0.00281909
0.0221314
0.00185157
0.00197655
0.0329283
0.0199493
0.0306261
0.00626987
0.0274441
0.00381437
0.00539226
0.013915
0.0146109
0.00274969
0.0127057
0.0348568
0.0472169
0.00268866
0.00345284
0.00245779
0.00175816
0.00228946
0.00417872
0.00315601
0.119159
0.00703353
0.00376576
0.0206746
0.00726784
0.0167346
0.00253303
0.0295027
0.00475985
0.00648418
0.0363983
0.00399872
0.00805206
0.00221891
0.00307447
0.0656536
0.00223638
0.0409948
0.0129949
0.0192996
0.0176677
0.0117464
0.0265558
0.00318728
0.00336674
0.0258053
0.00329949
0.00340919
0.00371818
0.0361161
0.00218929
0.00279809
0.00436167
0.0384602
0.00488025
0.00615767
0.00510119
0.00235553
0.0213515
0.00819201
0.00997574
0.0374504
0.00166978
0.0140794
0.00354536
0.0108263
0.00216195
0.0403776
0.00650835
0.006479
0.00265113
0.00952512
0.012733
0.0060608
0.0163483
0.0211597
0.00348765
0.00622299
0.00218978
0.0197144
0.018445
0.00199868
0.008084
0.0061688
0.00904113
0.0104554
0.0125803
0.00519021
0.012299
0.0127358
0.0344271
0.00829245
0.0321589
0.00205553
0.00982302
0.00267758
0.00296036
0.0736961
0.0334038
0.0211863
0.00204812
0.0284913
0.00593817
0.00510783
0.0356337
0.00533064
0.0474445
0.00982
0.0402475
0.0119708
0.00195134
0.112442
0.01124
0.0106938
0.00925349
0.0324957
0.045556
0.00234961
0.00363754
0.132548
0.0361016
0.00273049
0.0393177
0.0419313
0.00380367
0.0422545
0.00359665
0.0375862
0.00584936
0.013503
0.00210663
0.0286928
0.0396739
0.00175492
0.106863
0.0388704
0.00208474
0.0127519
0.00317235
0.0199803
0.0293621
0.0105876
0.00246035
0.0249561
0.0336809
0.00615846
0.0391996
0.00549922
0.00325948
0.00963122
0.0105529
0.0324718
0.0022882
0.00262522
0.0244987
0.00752881
0.00364971
0.0057307
0.00280261
0.0109722
0.0097708
0.0312941
0.057611
0.0370007
0.00235783
0.0106432
0.00239834
0.00844322
0.0116234
0.00469281
0.00978116
0.00246274
0.0354929
0.0160145
0.00265783
0.00258603
0.0116445
0.0222993
0.0384327
0.0489683
0.0140681
0.00536388
0.0102382
0.00220051
0.00240484
0.0035514
0.00240896
0.00204289
0.00351347
0.0302974
0.13163
0.00496604
0.00351252
0.00799112
0.042387
0.00354933
0.012001
0.00644698
0.00893418
0.00440937
0.00974449
0.0222566
0.0234774
0.0120473
0.00225635
0.0123566
0.0772417
0.0104015
0.00305986
0.00940108
0.022278
0.0121781
0.00268439
0.0024024
0.00571576
0.0114372
0.0111716
0.0111947
0.00237288
0.0122504
0.00325795
0.00216204
0.0528035
0.0101039
0.0291412
0.0111151
0.0154647
0.0179775
0.0101045
0.00255763
0.0303707
0.00240772
0.00605937
0.00573677
0.00876498
0.0104667
0.0120202
0.00773987
0.0112084
0.0250418
0.0104225
0.0160472
0.00279153
0.0504949
0.00224011
0.0021479
0.021501
0.0249091
0.00972982
0.062705
0.0098517
0.0025043
0.0211071
0.00252597
0.0303011
0.0310266
0.00227677
0.0156023
0.0449528
0.00563198
0.0435307
0.0153216
0.0273137
0.00679126
0.0398927
0.0366707
0.00266985
0.00881118
0.0500036
0.00259978
0.00248542
0.0336016
0.00192491
0.0125381
0.0353003
0.0250666
0.0983499
0.00238981
0.00213746
0.00202238
0.067424
0.00264732
0.00413663
0.00803702
0.0156062
0.00300502
0.0029823
0.0025658
0.0134745
0.0153394
0.0020959
0.00924502
0.00188805
0.00194064
0.00250802
0.0709694
0.018836
0.00204366
0.00235972
0.024398
0.0260482
0.00436883
0.0156111
0.00200763
0.00193097
0.0389401
0.00272131
0.0218411
0.00182152
0.0164542
0.0101598
0.132736
0.0122905
0.0864331
0.0592518
0.00239891
0.0385483
0.00245436
0.00247219
0.00507636
0.0235019
0.00233885
0.0124488
0.0300862
0.00336875
0.00316261
0.0159177
0.0429862
0.0142934
0.0716676
0.0249829
0.0350823
0.00211604
0.036213
0.0251862
0.0017768
0.0199344
0.00193774
0.00203838
0.0491529
0.010061
0.00986465
0.0552369
0.0487832
0.00383484
0.0110389
0.00388118
0.0272387
0.00209177
0.0415693
0.0343881
0.00247251
0.0323868
0.00224984
0.00253568
0.00194127
0.0120171
0.0152169
0.0931335
0.0421186
0.00295472
0.0511343
0.00204536
0.00213041
0.00176586
0.0260978
0.011071
0.00196855
0.00679994
0.0568054
0.0132313
0.0132751
0.00236406
0.0104347
0.00296409
0.00317933
0.00525887
0.00206364
0.0044058
0.00224299
0.00191259
0.105159
0.00345504
0.00599455
0.00207928
0.0119994
0.0119987
0.0306664
0.00240336
0.0115918
0.0292674
0.0125152
0.00241855
0.045273
0.00284618
0.0252171
0.0130043
0.0113256
0.00630427
0.00300902
0.0556755
0.0449981
0.00243879
0.00297975
0.0489539
0.0405078
0.0217837
0.006865
0.0273282
0.00337077
0.0105704
0.00617324
0.0111429
0.00195647
0.00288396
0.00562167
0.0112475
0.00996747
0.00208637
0.0116108
0.0127888
0.0104476
0.0120883
0.0223414
0.0276164
0.0254214
0.00219439
0.0324494
0.034077
0.0365235
0.00240039
0.0162529
0.0206768
0.01207
0.0365479
0.00232907
0.00232587
0.0258886
0.104392
0.013127
0.0536338
0.00209048
0.00267354
0.00506031
0.0029191
0.0144042
0.0030056
0.00200268
0.0250984
0.0222457
0.061682
0.0522695
0.106715
0.0555544
0.0487174
0.0185047
0.014102
0.0310874
0.00686679
0.0296127
0.00228014
0.0206915
0.00172505
0.0782858
0.0113317
0.00529129
0.00944665
0.00330086
0.00602152
0.00539465
0.00224966
0.0100234
0.00210358
0.0437992
0.0371359
0.00393989
0.0259914
0.025819
0.0164904
0.0281099
0.141016
0.0103707
0.0100103
0.0566844
0.011039
0.019157
0.00202224
0.0790761
0.00242328
0.0129164
0.0152664
0.00556909
0.0341462
0.0249375
0.00229574
0.0112746
0.00288099
0.065177
0.0304773
0.00963649
0.0921492
0.00493357
0.0270429
0.00429202
0.00557252
0.0569271
0.0214589
0.00883365
0.00296627
0.00354082
0.0118192
0.00324267
0.0911019
0.0110158
0.00778833
0.0573252
0.00171867
0.0102205
0.0108623
0.00221064
0.0226492
0.0732535
0.031644
0.0261722
0.0145514
0.0584757
0.00230906
0.0162724
0.00190085
0.00201551
0.0125031
0.00219946
0.0567206
0.057727
0.060078
0.0171499
0.0147444
0.030914
0.00835761
0.00285747
0.00678948
0.00310868
0.013612
0.00522715
0.00429436
0.00871932
0.117184
0.00192739
0.0808498
0.039753
0.00967787
0.0104235
0.0365349
0.0354181
0.00176399
0.142395
0.00451561
0.00190576
0.00191134
0.129076
0.00282279
0.00221079
0.00256037
0.0334307
0.00349966
0.0104054
0.0061795
0.00858593
0.0104279
0.00239489
0.0265595
0.00356238
0.00490421
0.0293124
0.00214799
0.00812862
0.00408749
0.0351751
0.0151104
0.00220992
0.0284034
0.0333779
0.0594279
0.00349425
0.00217077
0.0800955
0.0566085
0.0748577
0.0522651
0.0696883
0.0565989
0.00225219
0.0260435
0.0539863
0.00650586
0.011972
0.0022595
0.0105158
0.0331333
0.00972148
0.0174295
0.0665262
0.0242083
0.00226878
0.00167157
0.00176696
0.0112716
0.010594
0.0146853
0.0260468
0.0531288
0.00748044
0.00211569
0.0553204
0.116095
0.0108883
0.00684916
0.0221511
0.00313946
0.0102192
0.0355745
0.0124969
0.0103914
0.00971961
0.0143571
0.0041346
0.0910151
0.0126568
0.0755418
0.0422832
0.00988948
0.012676
0.0103453
0.0440499
0.00588604
0.012646
0.0233839
0.00609438
0.0106919
0.00738477
0.0297439
0.0113846
0.0281852
0.053802
0.0448351
0.00747739
0.0480138
0.107756
0.00274186
0.0513022
0.00371772
0.00855495
0.0358167
0.00197233
0.00302299
0.0277799
0.0022258
0.00413415
0.00204564
0.00253945
0.0453666
0.00184586
0.0367874
0.0136524
0.0321924
0.00197549
0.00782756
0.00399126
0.0114405
0.00229158
0.0922104
0.0750987
0.0215422
0.0337988
0.0150129
0.0118351
0.0270051
0.00517797
0.0686726
0.0627519
0.0352428
0.00564463
0.00175915
0.00204765
0.0201683
0.0367861
0.00370784
0.00209547
0.00387399
0.0150244
0.00214626
0.00924256
0.0105132
0.0108141
0.0187226
0.00842709
0.00581831
0.00337989
0.0538638
0.00517918
0.0108212
0.00635631
0.0114251
0.00748581
0.00956265
0.0099499
0.0117796
0.0416074
0.0261362
0.0173937
0.0119988
0.0474208
0.00189662
0.00963697
0.00901415
0.00309838
0.00465003
0.0317239
0.0715246
0.00210412
0.0400082
0.0143007
0.0946606
0.0120573
0.0568345
0.00493908
0.0112283
0.0767019
0.00767303
0.0208069
0.0668658
0.0466633
0.00167931
0.0213236
0.00207003
0.0417386
0.028662
0.0192201
0.0021831
0.00683912
0.0463368
0.00310913
0.0119805
0.00569509
0.0346413
0.00186008
0.0266663
0.00257913
0.0707473
0.00218769
0.0020857
0.00679115
0.00923308
0.0609553
0.0307273
0.00310815
0.00638926
0.00721217
0.00170084
0.015693
0.00476975
0.017634
0.0102506
0.0832169
0.00174811
0.00217798
0.0394966
0.0550889
0.0169542
0.138656
0.0543
0.00381974
0.0274094
0.0707528
0.00200939
0.063163
0.019632
0.0315314
0.00526078
0.061947
0.00172829
0.0424225
0.00173434
0.0602427
0.0105158
0.00214791
0.0835349
0.00351013
0.0582213
0.0381276
0.0074435
0.00327783
0.0896735
0.131765
0.00838625
0.0298005
0.0570542
0.00230959
0.0176642
0.0050543
0.0122579
0.00340629
0.00242451
0.00974352
0.0627139
0.00366016
0.0470586
0.0210186
0.00212952
0.00176022
0.00176818
0.00196737
0.00578296
0.0170748
0.0227695
0.00717415
0.0431355
0.0120531
0.00279708
0.00306219
0.00200556
0.0735787
0.0430473
0.00183893
0.00909972
0.0201176
0.00660869
0.0753095
0.0320835
0.0028893
0.00288976
0.0102971
0.00250521
0.00354828
0.0393479
0.0551486
0.0017956
0.00180511
0.0117803
0.0597329
0.0999457
0.00211414
0.00211639
0.122554
0.0120426
0.00206759
0.00183318
0.0470164
0.0449342
0.106243
0.00544823
0.063867
0.0159255
0.112472
0.0558676
0.00288227
0.0318181
0.002254
0.0150785
0.0020837
0.00276981
0.0116608
0.0160205
0.00812989
0.0207125
0.00239451
0.00698495
0.0105747
0.0442306
0.00560425
0.0770389
0.0269036
0.0364763
0.00252998
0.0826973
0.0253339
0.00969131
0.0104783
0.0101086
0.0354178
0.00235002
0.0259457
0.046201
0.00211069
0.0212728
0.00898001
0.00287735
0.00249811
0.00178477
0.0103699
0.00456005
0.00234762
0.046162
0.132181
0.00206477
0.0551123
0.0526346
0.0842252
0.0237155
0.033771
0.082412
0.00184974
0.0222058
0.0186528
0.00168384
0.00575667
0.00197031
0.0021785
0.0037149
0.0252806
0.00966861
0.0636812
0.0024013
0.0115861
0.00195044
0.00218334
0.0017062
0.0626989
0.0326305
0.00659987
0.00198472
0.0327977
0.00984321
0.0533282
0.0393588
0.0386971
0.0316042
0.00194246
0.0019716
0.0102035
0.0018712
0.0102845
0.00209578
0.0208806
0.0450333
0.0177086
0.0609456
0.00233585
0.00235897
0.0222229
0.0323888
0.0186284
0.0135
0.0144894
0.0130582
0.125326
0.0832691
0.0405568
0.06563
0.015565
0.00230396
0.00869863
0.00806224
0.0512137
0.00209342
0.00340904
0.00672709
0.0357382
0.0168391
0.0201938
0.0100941
0.0109402
0.00210471
0.0572406
0.0265138
0.0276629
0.00190789
0.136589
0.0593153
0.0446773
0.00240789
0.0661181
0.0173543
0.0174886
0.00166814
0.0168601
0.0071307
0.00211244
0.010261
0.0135058
0.0199959
0.0177313
0.101553
0.0746385
0.00201076
0.060678
0.00177858
0.0101301
0.00838144
0.0374858
0.00201209
0.00179417
0.0659888
0.00989334
0.00192817
0.0642384
0.0279084
0.0198208
0.00197347
0.00201476
0.0103181
0.0393452
0.00212986
0.00205706
0.00264467
0.0464784
0.0024116
0.00211444
0.0100905
0.00589161
0.0500117
0.00468016
0.0265554
0.00207996
0.0121401
0.0822997
0.0193466
0.0248805
0.0106446
0.00183851
0.00239061
0.00238801
0.00231761
0.0370419
0.00421343
0.00245246
0.0573662
0.0111656
0.0105554
0.0440617
0.0170884
0.00290093
0.00220403
0.00252042
0.0124857
0.0173026
0.00208612
0.0485969
0.00769147
0.0824981
0.0722372
0.0121367
0.0044563
0.0697576
0.00215007
0.0016852
0.0123603
0.11835
0.00333676
0.00232477
0.0131822
0.0163384
0.00205711
0.00200179
0.0204447
0.0117855
0.00165983
0.0017876
0.00974338
0.0052901
0.0411871
0.00165926
0.132603
0.0581735
0.00261936
0.066082
0.0101187
0.032514
0.0441491
0.0623814
0.0523723
0.0667269
0.0170231
0.00733765
0.00612133
0.00171386
0.00210712
0.010213
0.00932031
0.0458182
0.0619708
0.00187364
0.00208753
0.00224833
0.00213897
0.00209842
0.00202662
0.00904202
0.00490618
0.00220961
0.00904881
0.00275503
0.00229578
0.00318171
0.00261623
0.0249134
0.0272057
0.0153837
0.019156
0.00999196
0.0375763
0.00636866
0.0102191
0.00208367
0.0120464
0.00204767
0.0147735
0.0663069
0.0147482
0.00575052
0.00211597
0.00507448
0.0516775
0.0320232
0.0104574
0.00228098
0.0070457
0.00184445
0.0497674
0.0100768
0.0163707
0.00478236
0.003224
0.00916583
0.00708476
0.0311505
0.0200388
0.0055304
0.00217822
0.00223292
0.00371168
0.0455315
0.01926
0.102573
0.021493
0.0109291
0.0407049
0.0289582
0.0268924
0.0184056
0.0516076
0.0103274
0.00251516
0.0772337
0.0545266
0.0102752
0.0102254
0.0177627
0.00248471
0.011402
0.00666516
0.0129858
0.081367
0.0153158
0.00559734
0.00969332
0.0525783
0.084359
0.0022363
0.0137043
0.0128382
0.00428056
0.00188388
0.00193787
0.00204779
0.00516486
0.00225266
0.0017956
0.122666
0.00868663
0.0523893
0.0591791
0.0116719
0.00214376
0.0230336
0.0241354
0.0212703
0.00956281
0.0125511
0.00181718
0.113592
0.0361563
0.0674127
0.00244667
0.00216822
0.0020658
0.013407
0.0179187
0.0127277
0.00220963
0.0106913
0.0413683
0.00206185
0.00207847
0.00712252
0.0821327
0.00249064
0.00607596
0.00999774
0.0129263
0.00269833
0.0856745
0.0368633
0.101716
0.0140048
0.0280448
0.0299389
0.00217612
0.0220735
0.125561
0.0123375
0.00586123
0.0123007
0.0553545
0.0169705
0.015069
0.0104241
0.0301341
0.00209684
0.0416785
0.0020956
0.00193465
0.00243886
0.0305579
0.00892946
0.0529958
0.0814738
0.0121213
0.0238027
0.00214454
0.0200785
0.00181497
0.0101917
0.0274209
0.0268427
0.00221478
0.00205161
0.0512215
0.00238959
0.0643054
0.00222167
0.0645399
0.0021067
0.0325014
0.00209732
0.0554949
0.0121663
0.0275382
0.0599825
0.0312669
0.0229362
0.0020919
0.0636788
0.0303852
0.0263148
0.0199351
0.014165
0.023812
0.0275045
0.00203961
0.0299177
0.046926
0.00776874
0.0533736
0.10548
0.00208283
0.0103736
0.00335932
0.0628695
0.00196754
0.00199449
0.00190837
0.0293631
0.115023
0.0324623
0.0133023
0.021503
0.00218111
0.00765819
0.00460803
0.00567763
0.00194554
0.00829749
0.00776709
0.00829083
0.00298614
0.0691406
0.0637004
0.00210468
0.00692538
0.0346637
0.04871
0.025991
0.00241614
0.001807
0.00967367
0.0275829
0.00205539
0.00166518
0.100808
0.0202081
0.00237361
0.00582639
0.020357
0.0182647
0.0402946
0.0281096
0.0255785
0.00972072
0.00797074
0.0495346
0.0671201
0.00241698
0.0108328
0.0110723
0.0018676
0.00332086
0.0104531
0.00274493
0.0285674
0.0482821
0.00266068
0.0263135
0.109976
0.00369034
0.0133876
0.00332694
0.0348154
0.020671
0.00724089
0.0108891
0.0851011
0.00784889
0.00598458
0.0104568
0.00635294
0.0793986
0.0548366
0.0543845
0.0105213
0.00601398
0.00289287
0.0098625
0.00206213
0.00206078
0.00928497
0.0210222
0.00321542
0.00681816
0.00868991
0.00199859
0.0447843
0.0102551
0.0136401
0.00217704
0.116878
0.00385612
0.00317784
0.00634149
0.0253722
0.00248296
0.0030574
0.0114784
0.00290886
0.00293946
0.00752118
0.0493972
0.00304715
0.0430264
0.00967033
0.00487307
0.0438105
0.0168959
0.00287245
0.108846
0.0110501
0.0833919
0.00472649
0.0240917
0.00513334
0.0259267
0.122592
0.00260674
0.0196406
0.0073765
0.0110282
0.00182705
0.00185319
0.00402096
0.00260273
0.00320424
0.00283034
0.0153021
0.00904111
0.00235887
0.00174347
0.00325315
0.0160584
0.0348009
0.0399507
0.0141021
0.00698865
0.127359
0.00204005
0.00199136
0.00449815
0.00198204
0.00199254
0.0184963
0.00387995
0.00453127
0.0263464
0.0102747
0.00986895
0.0463242
0.0465453
0.00214285
0.0551843
0.0108562
0.0234112
0.0230577
0.0222739
0.0145509
0.0348491
0.00311923
0.0129133
0.00320245
0.0108294
0.00232499
0.0364912
0.00588811
0.00344233
0.0116471
0.0307836
0.0237788
0.00200411
0.0179106
0.0240872
0.0165124
0.00213457
0.00474679
0.00885539
0.0213276
0.0079497
0.128105
0.0183854
0.00490024
0.010046
0.00212202
0.00295576
0.00986465
0.00270412
0.0403348
0.0164502
0.00206158
0.00375122
0.034444
0.00760913
0.0533355
0.0238192
0.0265007
0.00698369
0.00228701
0.0246855
0.0743173
0.00224644
0.00211777
0.0097624
0.00210933
0.00246541
0.0247907
0.00555291
0.0552901
0.0206193
0.0567144
0.00590754
0.0189554
0.0024506
0.0022237
0.00226391
0.0323098
0.00216304
0.00250687
0.00238098
0.0122914
0.00988711
0.00234734
0.0251025
0.0611869
0.0368363
0.00230626
0.025369
0.0899588
0.0417194
0.00210998
0.0124594
0.00395857
0.058799
0.00210044
0.0107572
0.0383128
0.040236
0.0017892
0.00260875
0.0133146
0.0421061
0.0548434
0.00430227
0.0604893
0.00209901
0.00216796
0.0342437
0.0134259
0.00278984
0.0479526
0.0122093
0.00194872
0.010762
0.0369067
0.0104461
0.00233968
0.00200367
0.0274291
0.00879388
0.0020939
0.0258968
0.066309
0.0421412
0.0131168
0.00231822
0.00306747
0.015509
0.0478448
0.0151686
0.0472549
0.0752367
0.0639971
0.00178011
0.00180521
0.00529085
0.00234035
0.00239033
0.0259585
0.0380295
0.00188427
0.00193065
0.00185969
0.00212024
0.0191083
0.0141951
0.0135845
0.00213834
0.00245955
0.00241822
0.012495
0.0311397
0.0102614
0.00188623
0.0440353
0.00333189
0.00542061
0.0434254
0.00347712
0.0155918
0.0289982
0.00219585
0.0114667
0.00207564
0.0136959
0.0101751
0.00987559
0.0588225
0.00191295
0.025394
0.0405331
0.0134946
0.00410622
0.0750286
0.0796125
0.00191558
0.00209874
0.00996195
0.0127196
0.00552002
0.0356312
0.0662315
0.0160475
0.0168659
0.0756823
0.0241841
0.01031
0.0554339
0.0504095
0.0671229
0.0487465
0.0118455
0.0484772
0.00207605
0.00302043
0.00224251
0.0138088
0.00209231
0.066877
0.0202076
0.00204398
0.00208795
0.00255438
0.00219581
0.00208653
0.0151617
0.0223958
0.010657
0.0275845
0.0295632
0.0163522
0.00210191
0.00245
0.0134619
0.00561068
0.00203489
0.00183986
0.00301666
0.0196331
0.00181402
0.01039
0.00175492
0.00335538
0.031293
0.00204741
0.0110441