/*--------------------------------*- C++ -*----------------------------------*\
  =========                 |
  \\      /  F ield         | OpenFOAM: The Open Source CFD Toolbox
   \\    /   O peration     | Website:  https://openfoam.org
    \\  /    A nd           | Version:  10
     \\/     M anipulation  |
\*---------------------------------------------------------------------------*/
FoamFile
{
    format      ascii;
    class       volScalarField;
    location    "400";
    object      k;
}
// * * * * * * * * * * * * * * * * * * * * * * * * * * * * * * * * * * * * * //

dimensions      [0 2 -2 0 0 0 0];

internalField   nonuniform List<scalar> 
23845
(
0.0787132
0.0944783
0.0747824
0.0453547
0.0885552
0.0280566
0.0886123
0.0320148
0.0354183
0.070791
0.0683681
0.0243792
0.032668
0.0328168
0.0945739
0.0565544
0.0394399
0.042493
0.0367402
0.0273619
0.0741496
0.0651017
0.0729205
0.0349213
0.072896
0.0303063
0.0831948
0.028628
0.0190354
0.027686
0.0497742
0.0169178
0.0901746
0.0435365
0.0240717
0.0249113
0.0143191
0.0243078
0.0263922
0.0296183
0.0372927
0.0358752
0.0316217
0.0360594
0.0393246
0.0335002
0.0767042
0.0557094
0.0218037
0.0147564
0.0279022
0.0750969
0.0181946
0.0303602
0.0163444
0.038536
0.0936271
0.0343304
0.0805394
0.075669
0.0257197
0.0374585
0.053874
0.0254451
0.0358477
0.0320938
0.0864328
0.035953
0.040558
0.0397457
0.0288355
0.065875
0.0273975
0.0932913
0.0369096
0.0944414
0.0248391
0.0260769
0.038489
0.0474988
0.078144
0.0898758
0.095807
0.0355046
0.0741262
0.0240359
0.0895848
0.0179092
0.0364427
0.0454928
0.0249781
0.0425831
0.021452
0.02573
0.0340586
0.0254082
0.036111
0.0577457
0.0379145
0.0812837
0.0391344
0.0876024
0.0915572
0.012122
0.0219926
0.0372664
0.0290896
0.0378981
0.0871171
0.0358791
0.0646239
0.0247063
0.0853196
0.0635618
0.0253584
0.0657888
0.0359139
0.0603833
0.0194649
0.0316987
0.0256167
0.0204665
0.042408
0.046838
0.088754
0.028847
0.0266837
0.0149245
0.0604605
0.0781554
0.0634656
0.0864614
0.0745178
0.0310814
0.04334
0.0862829
0.0102956
0.0244997
0.0840429
0.0265983
0.0161196
0.0347636
0.0246373
0.0373082
0.0475634
0.0346092
0.0612981
0.0860049
0.0373406
0.0494113
0.092447
0.028734
0.0879839
0.0318273
0.0821094
0.0607626
0.0919773
0.0248157
0.0699302
0.0235954
0.0463997
0.0922594
0.0336008
0.0357224
0.0308324
0.053102
0.0294795
0.0208603
0.0285168
0.0336415
0.0281586
0.0466368
0.0349417
0.0443259
0.0295491
0.0363209
0.044978
0.0683082
0.0386064
0.0249794
0.0817757
0.0778614
0.0932152
0.0612515
0.0512507
0.0367285
0.0369258
0.0344275
0.0174253
0.0355474
0.0227365
0.0321767
0.0288712
0.0273353
0.0485753
0.033077
0.0176252
0.0184595
0.0156098
0.066044
0.0548218
0.0321903
0.0361609
0.082661
0.0340758
0.0335584
0.0719226
0.0279131
0.0803787
0.0459776
0.0480379
0.0194213
0.0463724
0.0297425
0.0241581
0.0158481
0.077468
0.0385138
0.00936173
0.0644338
0.0325571
0.0940713
0.0171059
0.057178
0.0347581
0.0922243
0.0100276
0.0319886
0.0262342
0.0391772
0.0260938
0.0235018
0.0247229
0.0320677
0.089855
0.0225716
0.0359124
0.046829
0.0282167
0.047796
0.0198631
0.0595054
0.036292
0.0887907
0.0216567
0.0556459
0.0295671
0.0399903
0.0351014
0.0922093
0.0325609
0.0241127
0.0275743
0.031218
0.0907756
0.0246784
0.0357752
0.0290641
0.0260467
0.0340898
0.0161275
0.0245831
0.0276035
0.063332
0.0619327
0.0303851
0.0375018
0.0486405
0.0591055
0.0447083
0.0255904
0.0436762
0.0275754
0.0282734
0.0615113
0.0288555
0.0284852
0.0315273
0.0243762
0.0742977
0.0383961
0.0263434
0.0302315
0.0493992
0.0240633
0.0300341
0.0471515
0.0326749
0.0334773
0.0875025
0.0364838
0.0252001
0.025779
0.0281231
0.0350251
0.0242937
0.0327677
0.030283
0.0240098
0.020663
0.0699104
0.0906666
0.0225498
0.0451704
0.0276215
0.0471478
0.0259694
0.0276797
0.0383688
0.0157397
0.0272246
0.0891089
0.0354115
0.0277264
0.0655694
0.0155799
0.0308379
0.0776179
0.0237273
0.0315301
0.0231233
0.0202078
0.0422608
0.0294284
0.090934
0.0260987
0.0407593
0.0752923
0.0362673
0.0446813
0.0820484
0.0509807
0.0267312
0.0242366
0.0355256
0.0478982
0.0539994
0.0424504
0.033995
0.0385841
0.0487676
0.0394077
0.0651519
0.0297462
0.0383484
0.0228811
0.0241046
0.026901
0.0396828
0.0877632
0.0541154
0.0617752
0.0144028
0.0288291
0.018332
0.0291582
0.0323057
0.0277909
0.0898743
0.0353969
0.0520501
0.0318147
0.0604329
0.0467358
0.0182148
0.0298627
0.0425314
0.0264427
0.0199493
0.0311419
0.0348756
0.023434
0.0344435
0.0242109
0.0252385
0.0260044
0.0617636
0.0498169
0.0336181
0.0428835
0.0909756
0.0247736
0.070733
0.0388667
0.0308735
0.0251977
0.0268463
0.0377369
0.0528293
0.0353115
0.0849298
0.0335307
0.0285308
0.0243208
0.026412
0.0215916
0.0607326
0.0380928
0.0406083
0.0243413
0.059019
0.0556999
0.0318519
0.0516295
0.0849347
0.0935537
0.0277218
0.031137
0.0203884
0.0320859
0.0928805
0.0334559
0.0912687
0.0419178
0.0946539
0.0670526
0.0620334
0.0584489
0.0254005
0.0669262
0.0699369
0.029922
0.0344708
0.0394429
0.029845
0.087294
0.065003
0.0527726
0.0500472
0.0532693
0.0324765
0.0430552
0.0389657
0.0414794
0.0313102
0.0356927
0.0241568
0.036184
0.0222303
0.0508754
0.0940211
0.0560479
0.0204997
0.0580075
0.0540079
0.0314775
0.0288004
0.0616568
0.025118
0.0452578
0.0382457
0.0327292
0.0500155
0.0241877
0.0332814
0.0382186
0.0779079
0.0849669
0.0301145
0.031018
0.0798785
0.0434338
0.0100959
0.0774634
0.0252739
0.0267698
0.0269636
0.0239905
0.0287053
0.0869635
0.0274985
0.0286636
0.0527094
0.0291687
0.0280587
0.0873835
0.0335879
0.0226824
0.0299089
0.0455626
0.0690766
0.061471
0.0492407
0.0645472
0.0528117
0.090515
0.0252327
0.0242299
0.0799698
0.0413069
0.0315719
0.0711432
0.0259542
0.0644562
0.033624
0.0725844
0.0351987
0.062654
0.0367442
0.0242518
0.0872682
0.0170718
0.0446435
0.0701393
0.0366666
0.0379731
0.0604276
0.0334012
0.0272361
0.0423415
0.0488502
0.0487816
0.014519
0.0505946
0.0281278
0.0279077
0.0585573
0.0872892
0.0816072
0.0335949
0.0139985
0.0312239
0.0443831
0.0327996
0.0273929
0.0874483
0.0908893
0.0275464
0.0709794
0.0207852
0.0230323
0.0771504
0.081376
0.0766249
0.0407792
0.0338681
0.0301554
0.0356901
0.0745501
0.0395379
0.0742124
0.0315408
0.0721502
0.0707705
0.0450005
0.0684274
0.0651461
0.0317726
0.0293947
0.0298596
0.0320351
0.0240618
0.0459806
0.0316315
0.0336201
0.0913037
0.0324869
0.048033
0.0241393
0.0260359
0.0349883
0.0403226
0.0831438
0.0285116
0.0329293
0.0272202
0.0230333
0.0283278
0.021155
0.0316692
0.0367047
0.0872691
0.0372721
0.0268023
0.0565559
0.0809502
0.0407532
0.0749952
0.0301474
0.0765867
0.0352093
0.0247354
0.0460223
0.0820463
0.0345372
0.0312798
0.0273016
0.0338629
0.0308064
0.0345628
0.0772024
0.0916602
0.0831671
0.0579225
0.0269781
0.0322942
0.0378599
0.031158
0.041611
0.0245895
0.0704978
0.0304285
0.0757166
0.0930268
0.0478325
0.079789
0.0299316
0.0763186
0.0894312
0.0592425
0.069622
0.0946025
0.091696
0.0808629
0.0378533
0.0905382
0.0757479
0.0942565
0.0282901
0.030744
0.0767505
0.0254321
0.0745635
0.0576176
0.0945342
0.0494424
0.0361584
0.0369839
0.0318937
0.0514253
0.0321735
0.0321018
0.0666685
0.0284191
0.0241097
0.0875079
0.0928195
0.0567342
0.0345449
0.0580328
0.0852863
0.0510145
0.0272733
0.0325198
0.0764138
0.0794044
0.0735228
0.0307747
0.0782223
0.0680305
0.0250527
0.0240148
0.0743263
0.0391317
0.0256782
0.0859116
0.0481254
0.0715865
0.0358252
0.0674263
0.0521355
0.042233
0.0469649
0.0957431
0.0431748
0.0355394
0.0315682
0.0867951
0.0542426
0.0744311
0.0499125
0.051993
0.0638998
0.054164
0.0503044
0.0704144
0.0479914
0.0736328
0.0616071
0.0459869
0.0683971
0.0443033
0.0343775
0.0424659
0.0451944
0.0829292
0.0373617
0.0397289
0.0771185
0.0767506
0.037615
0.0350861
0.0525842
0.0560938
0.059769
0.0649378
0.0687228
0.0489653
0.0719404
0.0466874
0.0661043
0.0431894
0.0591929
0.0415618
0.0418903
0.0430636
0.0387911
0.0359305
0.0366814
0.0341398
0.0375654
0.0562206
0.0346754
0.0346363
0.038774
0.0351277
0.0285716
0.0593239
0.0342434
0.0574427
0.0610726
0.0472718
0.0331296
0.0369737
0.0259617
0.0582071
0.0522381
0.0757452
0.033003
0.0553914
0.0316099
0.0407551
0.0269357
0.0351971
0.0698722
0.0426
0.0756419
0.0336844
0.0320997
0.0299492
0.0389108
0.0307605
0.0535765
0.0304321
0.0341636
0.0322746
0.0737641
0.0301596
0.0305187
0.0280785
0.0851734
0.0339617
0.0392486
0.0812035
0.0381585
0.0413675
0.0674817
0.0633897
0.066839
0.0627242
0.0720316
0.0346187
0.0479772
0.0564013
0.0636012
0.0455969
0.0538438
0.0404971
0.0968857
0.0384555
0.0287862
0.0673729
0.0640435
0.0742241
0.0507131
0.0571086
0.0289627
0.091998
0.0651542
0.0441041
0.035991
0.0411442
0.0267087
0.0286176
0.0584333
0.0297723
0.03423
0.0360812
0.0305571
0.029204
0.0346588
0.0351227
0.042309
0.0336735
0.0312537
0.0340474
0.0834688
0.0470973
0.0303206
0.0404143
0.0374688
0.0340948
0.0748132
0.0590646
0.0676566
0.0514922
0.0353819
0.0295368
0.0363722
0.033173
0.0927893
0.0644423
0.0666184
0.0458319
0.0287734
0.0475037
0.0231647
0.0604979
0.0385487
0.0443464
0.0287471
0.0310031
0.0455075
0.0322532
0.0327341
0.0266815
0.0356088
0.0275585
0.0306836
0.0281348
0.0272796
0.0265307
0.0337854
0.0367037
0.0312556
0.0318378
0.048596
0.0336654
0.0355496
0.0644939
0.0701875
0.0360373
0.0316095
0.0325371
0.0690026
0.0585479
0.0691463
0.0549481
0.0458874
0.0368902
0.0380312
0.0428766
0.0494153
0.0423638
0.0288174
0.0357613
0.0319804
0.0424085
0.0242677
0.0901367
0.0242891
0.0645871
0.0379977
0.0764459
0.0277979
0.0340053
0.0439336
0.0388418
0.0561585
0.0517159
0.0399121
0.0587813
0.0332087
0.0346732
0.0303674
0.0303066
0.0310652
0.0319977
0.036005
0.0325534
0.0285794
0.0603586
0.0299103
0.0592047
0.0615188
0.0628159
0.040559
0.0573748
0.0393805
0.0303247
0.0446428
0.0325724
0.0527466
0.0351045
0.0315007
0.060251
0.0337851
0.0305349
0.0560846
0.0291875
0.0444624
0.0570147
0.048493
0.0343964
0.0453945
0.0304057
0.0406206
0.0282975
0.0600957
0.0416472
0.02406
0.0456669
0.0537636
0.0559328
0.0803736
0.0600619
0.031253
0.0469642
0.0397559
0.0363602
0.0921905
0.0254985
0.0352364
0.0329683
0.0309555
0.0648149
0.0336488
0.0948659
0.0322252
0.0277636
0.0376895
0.0332859
0.0346108
0.0311568
0.0340663
0.0871024
0.0289533
0.0671247
0.0487827
0.0730543
0.0317396
0.0509029
0.0489997
0.0544773
0.0557421
0.0445654
0.0572228
0.043065
0.0588412
0.0618841
0.0668961
0.0410549
0.0617318
0.0623336
0.0506851
0.075349
0.0676248
0.0587274
0.0703712
0.0283214
0.0387269
0.0443778
0.0362915
0.025902
0.0346565
0.053828
0.0356446
0.0277776
0.0573298
0.0559993
0.0580869
0.0393387
0.0797062
0.0273546
0.0368099
0.0339391
0.0326899
0.0467625
0.0283767
0.059311
0.0809952
0.0942867
0.0299034
0.0316269
0.065416
0.0705723
0.0270403
0.0639488
0.0509493
0.0490648
0.0574999
0.0629746
0.0418437
0.062323
0.0704584
0.065991
0.0750843
0.0755921
0.0776216
0.0317559
0.0434457
0.0425499
0.031238
0.0548326
0.0600118
0.0357972
0.0255884
0.029749
0.080309
0.0314303
0.0300183
0.0154497
0.0266647
0.0365525
0.0243297
0.0306741
0.0323632
0.0292802
0.0314273
0.0357879
0.0739082
0.0255868
0.0281466
0.0490215
0.0431075
0.0723602
0.0669782
0.0924129
0.0640951
0.0282848
0.0373941
0.0329198
0.030416
0.0376673
0.0298708
0.0816227
0.0756697
0.0505783
0.0580388
0.0535703
0.0604503
0.0632361
0.0688721
0.0307209
0.079122
0.0642217
0.0696161
0.0659233
0.0579898
0.0610806
0.0448703
0.0572969
0.0337887
0.053854
0.0472653
0.0355186
0.0443508
0.0417603
0.0397699
0.0320764
0.032914
0.0508857
0.0701215
0.0736457
0.0277403
0.0635756
0.027866
0.0325978
0.0391527
0.0243698
0.0512063
0.0380771
0.0367063
0.0347675
0.0398239
0.0346137
0.0791181
0.0301971
0.0269523
0.0663104
0.038455
0.0370427
0.0502811
0.0754186
0.0499593
0.0218895
0.0731788
0.0333869
0.0558216
0.0600415
0.0652836
0.045897
0.0274801
0.0604193
0.0576193
0.0567541
0.052935
0.0489275
0.0465882
0.0355262
0.0435576
0.0635865
0.0293852
0.038826
0.0814311
0.0395441
0.0423813
0.054821
0.0366716
0.0270273
0.0303282
0.0346004
0.0267689
0.030379
0.0281233
0.0294804
0.0764582
0.0332961
0.0316451
0.0765377
0.0262823
0.0271596
0.0276515
0.0864817
0.0345755
0.0310806
0.0767381
0.0309971
0.0374108
0.028626
0.0333418
0.0368836
0.0444126
0.0309689
0.03017
0.0520894
0.0675812
0.0759705
0.061802
0.0548221
0.0305894
0.04001
0.0337657
0.0358608
0.0287778
0.0760284
0.0411594
0.0283446
0.0266263
0.0452717
0.0415642
0.0620794
0.0361898
0.0293369
0.0336446
0.0288059
0.0723878
0.0403304
0.0304391
0.0686641
0.0289804
0.041927
0.027994
0.0276064
0.0259986
0.0500959
0.0325418
0.0347498
0.066168
0.0285228
0.0729884
0.0427211
0.0291264
0.059294
0.0318107
0.0529138
0.0568421
0.0485872
0.0637068
0.0465713
0.0273641
0.0494138
0.0495138
0.0326756
0.0370935
0.0356203
0.0372999
0.0506974
0.0265105
0.0284136
0.0546219
0.0272764
0.0343308
0.059231
0.026985
0.0322722
0.0646752
0.0314264
0.0291068
0.0617427
0.0834793
0.077685
0.0331721
0.0312768
0.0671562
0.0271962
0.0245601
0.0856897
0.0672209
0.0846486
0.0410691
0.0730186
0.032866
0.0384502
0.0547975
0.0618092
0.029592
0.0579043
0.0864604
0.0361566
0.0297691
0.0312398
0.0265852
0.0246545
0.0259214
0.0339018
0.029662
0.0942948
0.043647
0.0322442
0.0726899
0.0439197
0.0662397
0.0268896
0.0712528
0.0363006
0.0414453
0.0848738
0.0339636
0.0466051
0.0256905
0.0316571
0.0619833
0.0255931
0.0893214
0.0583355
0.0705407
0.0431002
0.040891
0.0805921
0.031583
0.0312263
0.0727141
0.0318333
0.0320749
0.0325482
0.0789342
0.0275716
0.029026
0.0346918
0.0904622
0.0360442
0.040577
0.0372908
0.0268258
0.0291891
0.0460411
0.0503038
0.0884993
0.0242898
0.011574
0.0319262
0.0227576
0.0254183
0.0907905
0.041764
0.0419416
0.0284438
0.0502227
0.0576793
0.0406379
0.0647311
0.0705438
0.0321993
0.0411328
0.0254087
0.0681786
0.0660877
0.029471
0.0461027
0.0408379
0.0484605
0.0505089
0.0567547
0.0376236
0.0551371
0.0567428
0.0802471
0.0472392
0.0805242
0.029089
0.0513266
0.0280047
0.0316311
0.0749475
0.0848954
0.0690219
0.030341
0.0802673
0.0401386
0.0375545
0.08704
0.0382459
0.0825894
0.024654
0.0933662
0.0553942
0.0290569
0.0849025
0.0536402
0.0523212
0.0487667
0.083701
0.0878352
0.026312
0.0321796
0.0943545
0.0678361
0.0307512
0.0925053
0.0932099
0.0334427
0.0490434
0.0318093
0.0817094
0.0398285
0.0538205
0.0290287
0.0790668
0.0788691
0.0241644
0.0918562
0.0849022
0.0298531
0.0323326
0.0318954
0.064031
0.0732083
0.0369812
0.0276443
0.0760496
0.0744248
0.0409806
0.0897212
0.0387778
0.0302262
0.0507089
0.0522577
0.0812595
0.0261488
0.0285149
0.0752913
0.0441871
0.0321433
0.0395237
0.0290879
0.054007
0.0504321
0.0792493
0.085987
0.0887771
0.0264525
0.0525847
0.0281423
0.0470552
0.0548352
0.0360064
0.0270323
0.0279403
0.0845924
0.0128814
0.0309625
0.0282643
0.0537132
0.0731811
0.0879042
0.0913625
0.0608524
0.0382012
0.0522268
0.0315942
0.0277167
0.0319107
0.0376321
0.0247602
0.0317308
0.0759416
0.0861678
0.0370283
0.0326109
0.0456438
0.0806279
0.0322661
0.0550114
0.0418916
0.0489102
0.0348846
0.0508952
0.074606
0.0757894
0.056425
0.0258302
0.05666
0.0888425
0.0283502
0.0294962
0.049985
0.0738699
0.056603
0.0320645
0.0265328
0.0394534
0.0540106
0.0543909
0.0167098
0.0337594
0.0301076
0.0303271
0.0252604
0.0850196
0.0509493
0.0832059
0.0536567
0.0622709
0.066673
0.0502258
0.0311036
0.0792165
0.0265445
0.0404816
0.0394273
0.0478487
0.0368583
0.0558105
0.0451054
0.0543213
0.0727461
0.029762
0.0644947
0.0290911
0.0887063
0.0255957
0.0254713
0.0731586
0.0700329
0.0239848
0.0525124
0.0511516
0.0274684
0.071939
0.0281543
0.0726925
0.0832518
0.0258241
0.0633474
0.093251
0.0391153
0.0808427
0.0631215
0.0814103
0.0423158
0.0812489
0.0907687
0.0286135
0.048206
0.0633041
0.0313946
0.0281929
0.0812646
0.0248666
0.0555119
0.0897947
0.071929
0.0770574
0.0363036
0.0325629
0.0286492
0.0591001
0.0286101
0.0338457
0.0456496
0.0423507
0.0305169
0.0311137
0.0283278
0.0390999
0.0574501
0.0250101
0.0485175
0.0242105
0.0255564
0.0280022
0.0887956
0.0695928
0.0248627
0.0261749
0.0683421
0.0799423
0.0343502
0.0613501
0.0248377
0.0245772
0.0557586
0.0315272
0.0733726
0.0240892
0.0627863
0.0330602
0.0919548
0.0185463
0.0899546
0.0897505
0.0280588
0.0899626
0.0274383
0.0280117
0.0372361
0.068048
0.0260111
0.0301206
0.0360657
0.0307595
0.0297954
0.0511822
0.00293392
0.0550246
0.0890696
0.0773028
0.0791827
0.025312
0.0889657
0.00205222
0.0245286
0.0553974
0.0259282
0.0254776
0.0943249
0.0185776
0.0282969
0.0939961
0.0927381
0.0331654
0.0148146
0.0331771
0.0711638
0.0252291
0.0807189
0.0872763
0.0280708
0.0820387
0.0262836
0.0325692
0.0268115
0.018662
0.0491271
0.0908741
0.0585877
0.0289465
0.0928654
0.0278619
0.0298708
0.0240954
0.0767148
0.0332479
0.0267404
0.0426098
0.094342
0.0282721
0.0592568
0.0276032
0.03632
0.0310668
0.029966
0.0379441
0.026799
0.0353255
0.0349146
0.0244599
0.0936298
0.0312524
0.0404824
0.0252871
0.0516548
0.0408538
0.0838391
0.0388564
0.0388745
0.077381
0.0526058
0.0278238
0.0442459
0.030502
0.00206531
0.040611
0.036247
0.0415059
0.0293469
0.0876975
0.0831677
0.0281232
0.0298067
0.0925965
0.0880096
0.0648517
0.0412459
0.00217867
0.031105
0.0280366
0.0410167
0.0237508
0.0246677
0.0296743
0.039231
0.0546149
0.0203978
0.0260473
0.0407773
0.019295
0.0528385
0.0530866
0.0651594
0.00246563
0.0750383
0.0290222
0.0870339
0.088214
0.0762762
0.0371928
0.0475329
0.063316
0.0421391
0.00339814
0.0341073
0.0270206
0.0751931
0.0917157
0.0588489
0.0911478
0.0297885
0.0320493
0.0370275
0.0289413
0.0314819
0.0314501
0.0257245
0.0680242
0.070352
0.0893499
0.0903774
0.0835496
0.0706436
0.0933545
0.0205808
0.0471456
0.085767
0.0416793
0.00268169
0.027304
0.0527371
0.0251705
0.0614805
0.0241125
0.037934
0.0500292
0.0302167
0.0405732
0.0383041
0.0266598
0.0516442
0.0277011
0.0816857
0.0884087
0.0331991
0.0795916
0.0790814
0.050475
0.00203678
0.093039
0.0345899
0.0241202
0.0915463
0.0190284
0.0702158
0.0296026
0.0591801
0.0332445
0.029221
0.0568783
0.0379905
0.0030965
0.0782259
0.0363928
0.0390184
0.0289409
0.08692
0.0733623
0.0473826
0.0926344
0.0367569
0.0682906
0.0342929
0.0388883
0.091389
0.0144617
0.0473058
0.0293322
0.0322967
0.0558377
0.0306183
0.0751047
0.0538298
0.0444446
0.0915705
0.0243073
0.0309527
0.0498155
0.0266224
0.0703764
0.070304
0.00287807
0.0499436
0.0389994
0.0884337
0.0273902
0.0523309
0.0249843
0.0269891
0.0435333
0.0333322
0.0663977
0.0920092
0.0904642
0.044621
0.0619752
0.0666075
0.0474265
0.0316373
0.0426952
0.03167
0.0441447
0.0377434
0.0346664
0.0464103
0.0947084
0.0247083
0.0916761
0.00383752
0.0506651
0.0147548
0.00347395
0.0771451
0.0240903
0.0889559
0.0348365
0.0283303
0.0243493
0.0924576
0.0288833
0.0280963
0.0279349
0.0789989
0.0323596
0.0358293
0.0410983
0.047817
0.0495785
0.0273438
0.0700067
0.0327538
0.0363569
0.0790536
0.0288284
0.046602
0.0337369
0.00312714
0.0582046
0.0283567
0.0327517
0.079107
0.0930979
0.0315535
0.0291915
0.0898727
0.0882057
0.0876138
0.0878919
0.085925
0.0808094
0.0281405
0.0567785
0.0836382
0.041338
0.0386472
0.0332886
0.0263148
0.0398313
0.0227468
0.0619466
0.0857653
0.0178003
0.0357157
0.024234
0.0243336
0.0317357
0.0376616
0.0239369
0.00229885
0.0817235
0.0436852
0.0260517
0.0894341
0.0800883
0.038888
0.0411105
0.064932
0.0302387
0.0301328
0.0359876
0.0385156
0.0306766
0.0260122
0.0444861
0.0341335
0.0917922
0.0410571
0.0565788
0.0778885
0.0284001
0.0548578
0.0348048
0.0456787
0.0390082
0.0298759
0.0609002
0.0402398
0.0317521
0.042785
0.0025825
0.0319126
0.0744908
0.0919271
0.00463264
0.0426781
0.0894296
0.0862948
0.031085
0.0853998
0.032098
0.0475305
0.090001
0.0274681
0.0296933
0.0815994
0.0273398
0.0340831
0.0258869
0.0278273
0.0785297
0.0244659
0.0844642
0.0111584
0.0559067
0.0274767
0.0435573
0.033638
0.0320458
0.0332521
0.0792414
0.0894568
0.0734146
0.0670114
0.043071
0.0302188
0.0808188
0.0375406
0.0900493
0.00748804
0.0488243
0.0391836
0.0240026
0.0307115
0.070166
0.0814134
0.0325251
0.0265044
0.0331398
0.0396198
0.0277957
0.0465721
0.0510861
0.0532755
0.0408674
0.0455773
0.0389173
0.0319216
0.0819135
0.0376885
0.0336135
0.0414638
0.052381
0.0447912
0.0470301
0.0281001
0.0284756
0.00427251
0.00222721
0.0643567
0.0525585
0.0735668
0.0261958
0.0243743
0.0482594
0.0294564
0.0356579
0.0821692
0.090821
0.0294002
0.0889544
0.0110551
0.0818882
0.0187469
0.0840683
0.0357273
0.0324465
0.061203
0.045214
0.0659071
0.00611246
0.0934234
0.0243873
0.0520314
0.02956
0.0814246
0.069699
0.0532898
0.0307905
0.0417604
0.0751532
0.0305436
0.0516849
0.039507
0.0755595
0.0254247
0.0567149
0.0321218
0.0891463
0.0334361
0.0294312
0.0418825
0.0474469
0.0851253
0.0623773
0.0311587
0.0415094
0.0438725
0.0245682
0.0601261
0.0364088
0.0221946
0.0142743
0.0896057
0.0245543
0.0283245
0.00380354
0.00457643
0.0237279
0.0905232
0.0853217
0.0334166
0.067106
0.0871122
0.0251019
0.0883725
0.0707828
0.0831129
0.0379642
0.0847446
0.0248363
0.0040622
0.0258878
0.0588998
0.0346511
0.0283487
0.0915461
0.0321734
0.0524592
0.0808871
0.043194
0.0307671
0.0922539
0.0857024
0.0461639
0.00285119
0.0944417
0.0350317
0.0318468
0.037293
0.0325009
0.0314034
0.0338371
0.0505802
0.00468682
0.0327404
0.0665732
0.0717484
0.0271527
0.0251976
0.026483
0.0256522
0.0396285
0.0405797
0.0664298
0.0419772
0.0881173
0.053698
0.0285265
0.0293919
0.0264064
0.0894213
0.0927732
0.0250477
0.0470822
0.0709466
0.0422461
0.0685075
0.0867751
0.02905
0.031367
0.0344887
0.0330592
0.0327487
0.0594256
0.0849971
0.0256088
0.0271353
0.0177272
0.00470806
0.0708018
0.0306798
0.028008
0.078702
0.0560011
0.0310677
0.0260725
0.0789202
0.0901534
0.0868505
0.0385605
0.0900667
0.0509148
0.092207
0.00489302
0.0291898
0.0858676
0.028074
0.011965
0.0265409
0.0317315
0.0510318
0.0573544
0.0454643
0.0720677
0.0360885
0.0431365
0.052632
0.0677385
0.0387063
0.0878584
0.00242901
0.0747205
0.0320598
0.00458712
0.0678629
0.0244506
0.0259814
0.0501743
0.0884814
0.0364109
0.0724062
0.079235
0.033643
0.0472564
0.049035
0.0292956
0.0319515
0.0250306
0.0312734
0.0358009
0.0264917
0.0044166
0.0943044
0.0303443
0.0807172
0.00491661
0.0890097
0.0572144
0.00313285
0.0712403
0.0263301
0.0642538
0.0615156
0.0249641
0.0383737
0.0251616
0.0276311
0.0331317
0.0710433
0.0257722
0.00562846
0.0342129
0.0328907
0.0257517
0.0267343
0.0253822
0.0867884
0.00296269
0.0404603
0.0245471
0.0564847
0.0287337
0.0425191
0.0718599
0.0888949
0.0748331
0.0276759
0.0299159
0.0502471
0.0265917
0.0333031
0.0280451
0.0627454
0.0802117
0.0133876
0.00524317
0.026709
0.0279521
0.0621085
0.0605815
0.0459679
0.0551924
0.0557217
0.0290212
0.0902861
0.0907736
0.0497763
0.00564889
0.0315503
0.0342849
0.0483143
0.045547
0.0517941
0.0316104
0.0306121
0.0425954
0.0746599
0.0593763
0.0557925
0.0314763
0.0321324
0.0309937
0.0843474
0.0673387
0.00261881
0.0271236
0.0915198
0.08623
0.0400136
0.0339115
0.0916438
0.0526671
0.0189445
0.0246344
0.0583746
0.0423338
0.0257705
0.0518042
0.00950249
0.0700797
0.0157943
0.0919164
0.0543428
0.0250555
0.0618338
0.0247036
0.0322398
0.0449722
0.0750204
0.0265109
0.0241167
0.00476337
0.0261969
0.0291855
0.00390818
0.0699906
0.0706497
0.0281631
0.0306693
0.0328134
0.0032543
0.0289618
0.0279649
0.0284095
0.0904686
0.0320862
0.0287462
0.0482973
0.0388026
0.00472581
0.0353805
0.00232121
0.030165
0.0162569
0.0663024
0.061773
0.0634727
0.0153894
0.0258673
0.0273945
0.03482
0.0278505
0.00380294
0.0346604
0.0270376
0.0893197
0.0298597
0.0330979
0.0921283
0.0195264
0.0315824
0.0275991
0.0270855
0.035879
0.042726
0.0324721
0.064109
0.0450437
0.0881873
0.0901489
0.00944761
0.0352515
0.0894643
0.0296529
0.0241521
0.00994727
0.0772353
0.0321279
0.0280673
0.0408512
0.0495665
0.0314416
0.0286775
0.0572542
0.0359898
0.0244139
0.0241883
0.0200284
0.0381194
0.0791626
0.0243141
0.0810692
0.00417286
0.0317872
0.005212
0.0321215
0.0858473
0.0740267
0.0874817
0.0873766
0.0856984
0.0614975
0.0440787
0.0404605
0.025265
0.027307
0.0337688
0.0485156
0.0543397
0.0044792
0.0256017
0.030028
0.032407
0.033047
0.0322336
0.0292685
0.0490047
0.0366872
0.0280163
0.0491148
0.0286051
0.0280407
0.0318835
0.0283651
0.0773557
0.0806673
0.0195742
0.0405893
0.0299099
0.0613689
0.040694
0.0178562
0.0306011
0.0095985
0.0298449
0.058561
0.0893901
0.0466244
0.0386477
0.0291687
0.0374214
0.0394684
0.0860812
0.0356373
0.0277537
0.0435829
0.0278117
0.0831597
0.0308536
0.0587453
0.0352467
0.0306675
0.0491784
0.0429428
0.0721372
0.0649983
0.0381167
0.0338542
0.0314056
0.0331651
0.0822981
0.0150151
0.0681385
0.0647085
0.0219253
0.0773142
0.0480203
0.0701057
0.052727
0.0738852
0.0150711
0.027865
0.0739721
0.0846943
0.0254773
0.0142396
0.0543734
0.0327744
0.0361895
0.0417742
0.0103367
0.0902104
0.0120755
0.0387124
0.0480589
0.0887033
0.0782474
0.0339135
0.0320969
0.043441
0.034667
0.0284637
0.0272976
0.0331562
0.0370878
0.026001
0.0245104
0.0928156
0.0479736
0.0839791
0.0887749
0.0175545
0.0323392
0.058031
0.0602032
0.0218958
0.0480748
0.0422337
0.0243592
0.0778884
0.0744821
0.0848139
0.0397979
0.0286371
0.0304538
0.0108904
0.0465813
0.0528042
0.0282269
0.030182
0.0783046
0.0286388
0.0331794
0.0417976
0.0818464
0.0334651
0.0404953
0.0296281
0.0429775
0.0277507
0.0857888
0.0815693
0.0866821
0.0572352
0.0277753
0.0560956
0.0277848
0.0686619
0.0951379
0.0426051
0.0400981
0.00985945
0.0864084
0.0136102
0.0444225
0.0348246
0.0694429
0.0312931
0.0537385
0.02664
0.0277308
0.0328016
0.0842946
0.0484787
0.0460675
0.0909197
0.0343949
0.0666569
0.0285896
0.0569827
0.0241363
0.048546
0.00235857
0.0615717
0.0346371
0.0299674
0.0867752
0.0375753
0.0728192
0.0274416
0.0680849
0.0254806
0.0531089
0.0317704
0.0732459
0.0527231
0.0806395
0.0785043
0.0309852
0.0153032
0.0344986
0.0489523
0.0728152
0.0546391
0.060388
0.0558117
0.0661013
0.0757026
0.0285212
0.077357
0.0809479
0.0433166
0.0850947
0.077959
0.0310857
0.0318252
0.0320253
0.0865459
0.0254724
0.028594
0.0267564
0.0823493
0.0925531
0.0467299
0.0559998
0.0643909
0.03356
0.0447394
0.0347086
0.0389094
0.02512
0.0469501
0.0455998
0.0460662
0.0293665
0.0878506
0.00409096
0.0323086
0.0418593
0.071882
0.0540218
0.0742368
0.0279065
0.0269679
0.0230287
0.0801043
0.0253786
0.0243128
0.0679116
0.0713283
0.0347514
0.0397104
0.0636193
0.00640953
0.0687753
0.0817845
0.00212187
0.0190939
0.0460493
0.0854454
0.0672046
0.0271248
0.0333697
0.0523157
0.0261958
0.0318175
0.0201484
0.0318289
0.0647487
0.081607
0.0277611
0.0790103
0.0784075
0.0327162
0.0198591
0.0309899
0.0739212
0.0589737
0.04407
0.0371175
0.0919238
0.0456354
0.039603
0.0365561
0.0411815
0.0910175
0.0463406
0.0590891
0.0504109
0.039734
0.0289886
0.0294076
0.0306888
0.0326256
0.0488629
0.0660302
0.0303563
0.0429034
0.0464745
0.02907
0.0780264
0.032279
0.0552544
0.0336877
0.092288
0.0330648
0.0309804
0.0397837
0.0180144
0.0267766
0.0317756
0.0220105
0.0314681
0.0291017
0.0447382
0.0821154
0.0295115
0.0859935
0.0264499
0.03681
0.0612075
0.0621883
0.0284661
0.0902705
0.0320126
0.0617852
0.0359269
0.066722
0.0363064
0.00228336
0.0950911
0.0273771
0.0625787
0.0443836
0.033163
0.0257087
0.0256968
0.0337188
0.0324827
0.0305195
0.0284175
0.0235992
0.0477585
0.0279577
0.0257761
0.0308019
0.0126851
0.0699792
0.00523229
0.0586618
0.043324
0.0921331
0.0264001
0.0265444
0.0351508
0.0246149
0.0247516
0.0626874
0.0334946
0.0356537
0.068468
0.0314341
0.0220667
0.00260301
0.0859308
0.0266803
0.00389135
0.016065
0.0684125
0.0164105
0.0218218
0.0251255
0.0739547
0.0301892
0.0218489
0.0298494
0.0329664
0.0370671
0.0859924
0.0401269
0.0323609
0.031164
0.0727214
0.0181188
0.0273011
0.0681337
0.0768204
0.0594937
0.026549
0.0363542
0.0457497
0.0494852
0.0440546
0.088183
0.0685593
0.0368254
0.0317945
0.0340682
0.0307196
0.0476139
0.0312824
0.0845042
0.0122422
0.0298315
0.033124
0.0713798
0.0432835
0.0879805
0.0528097
0.069128
0.0423255
0.0362131
0.0615618
0.0847359
0.027812
0.0334971
0.0265554
0.0328495
0.03157
0.0696457
0.0389321
0.0511652
0.0703777
0.0875751
0.0398863
0.0696595
0.0275483
0.034211
0.0272949
0.0739322
0.0365003
0.0408893
0.0383259
0.0409672
0.0298581
0.0375639
0.0706342
0.0863695
0.076287
0.0280682
0.0518497
0.0924956
0.0422211
0.0259995
0.0269198
0.0329466
0.0804642
0.0327819
0.0374446
0.0350368
0.0504387
0.025294
0.0273434
0.0386335
0.0073877
0.00651288
0.0348137
0.0515662
0.0339967
0.0273077
0.0501828
0.0423746
0.031716
0.0857431
0.0530094
0.028326
0.0248709
0.0326799
0.0360718
0.0352011
0.0302568
0.0717353
0.0469237
0.0319294
0.0729383
0.078197
0.061901
0.0365994
0.0369032
0.0312764
0.035879
0.0807297
0.0415288
0.0932908
0.0899864
0.0866659
0.0249134
0.024925
0.0374334
0.0279679
0.0330292
0.0167166
0.0766448
0.0245754
0.0243531
0.0243291
0.0346058
0.0641507
0.0113928
0.0351625
0.0355241
0.0399915
0.0391385
0.0094436
0.0725771
0.0330494
0.0260388
0.0767668
0.030786
0.0377157
0.0842547
0.0315725
0.0219035
0.0736171
0.0284073
0.0319381
0.030444
0.0275663
0.0280525
0.0479841
0.0837385
0.0287535
0.0675479
0.0434551
0.0452732
0.0341923
0.0907981
0.0896447
0.0271279
0.0317913
0.027228
0.0105179
0.0386187
0.0754948
0.0875341
0.0583782
0.013608
0.0884211
0.0161711
0.0280235
0.0612627
0.0581475
0.0884159
0.0879647
0.0323841
0.0833281
0.0346214
0.0299245
0.0351615
0.0407469
0.0316774
0.0898581
0.0156813
0.0292661
0.0311045
0.0417208
0.0376442
0.0308575
0.0377603
0.0642202
0.0376136
0.0655247
0.056592
0.039587
0.0322607
0.0333593
0.0358389
0.0382464
0.02724
0.0275451
0.0314875
0.0143674
0.0253002
0.0181512
0.0249011
0.031032
0.0276979
0.0319056
0.039034
0.035843
0.0787583
0.0903354
0.036795
0.0254416
0.0424164
0.0440597
0.0694205
0.0274885
0.0279145
0.0378913
0.0244303
0.0859636
0.0287577
0.0252541
0.0279612
0.0344799
0.039123
0.0339824
0.0749476
0.0833703
0.0395859
0.029395
0.0850812
0.0448366
0.0823598
0.0843423
0.0433803
0.0825551
0.0841343
0.0702113
0.0515173
0.0174405
0.0415144
0.037136
0.0505138
0.0767421
0.0277433
0.0585673
0.085789
0.0741999
0.0406993
0.0265904
0.0308909
0.0363198
0.0281273
0.0838521
0.0238277
0.0307674
0.0820273
0.0406904
0.087832
0.0870508
0.0280262
0.0150287
0.028433
0.0621511
0.0837686
0.0395519
0.0426058
0.0358073
0.0943039
0.129425
0.145567
0.151858
0.152344
0.148772
0.142412
0.134319
0.125229
0.115739
0.106252
0.097056
0.0883422
0.0802237
0.0727545
0.0659446
0.0597739
0.0542024
0.0491765
0.04463
0.0937811
0.128665
0.144824
0.151216
0.151827
0.148403
0.142243
0.134302
0.125338
0.115966
0.10658
0.0974653
0.0888129
0.0807372
0.0732934
0.0664927
0.0603149
0.0547189
0.0496474
0.0450276
0.0932262
0.127886
0.144037
0.150537
0.151271
0.148002
0.142015
0.134249
0.125425
0.116176
0.106894
0.0978631
0.0892735
0.0812409
0.0738218
0.0670283
0.0608409
0.0552181
0.0501022
0.0454243
0.0926416
0.127076
0.143211
0.149819
0.150678
0.147568