/*--------------------------------*- C++ -*----------------------------------*\
  =========                 |
  \\      /  F ield         | OpenFOAM: The Open Source CFD Toolbox
   \\    /   O peration     | Website:  https://openfoam.org
    \\  /    A nd           | Version:  10
     \\/     M anipulation  |
\*---------------------------------------------------------------------------*/
FoamFile
{
    format      ascii;
    class       volScalarField;
    location    "400";
    object      nut;
}
// * * * * * * * * * * * * * * * * * * * * * * * * * * * * * * * * * * * * * //

dimensions      [0 2 -1 0 0 0 0];

internalField   nonuniform List<scalar> 
23845
(
0.0154216
0.0149976
0.00792356
0.0131926
0.0186003
0.0356718
0.00993088
0.00916839
0.0501741
0.0171728
0.0225877
0.031656
0.0253126
0.045365
0.00727108
0.0196134
0.0246803
0.0242155
0.0241294
0.0265552
0.0147226
0.0230478
0.0161184
0.0485437
0.0193964
0.041117
0.0120991
0.0321188
0.00331324
0.0268777
0.0141922
0.00119043
0.00556014
0.0240954
0.0306072
0.0269902
0.00102297
0.0311586
0.0353034
0.0377153
0.0235184
0.0249715
0.0282893
0.0247758
0.0574404
0.0253703
0.0191645
0.0198315
0.00211343
0.00189445
0.005381
0.00995622
0.00120558
0.0374457
0.00114915
0.0245435
0.0151129
0.01028
0.0146879
0.0139444
0.00574663
0.0247365
0.0205277
0.00406723
0.0502575
0.0256714
0.0119456
0.0559998
0.0598411
0.0232203
0.00762692
0.00804788
0.0299911
0.00803835
0.052345
0.00744016
0.0328318
0.0341391
0.0122268
0.0238702
0.0135886
0.00848615
0.0150594
0.0105131
0.00688067
0.0302417
0.00968837
0.00111457
0.0519315
0.0235159
0.00442242
0.0219452
0.00357892
0.0292587
0.00992537
0.00517667
0.0252369
0.0194877
0.0547906
0.0195974
0.0243728
0.0114606
0.0176045
0.000868579
0.00289085
0.0111064
0.0370635
0.0546604
0.0133144
0.0248775
0.0228083
0.031862
0.00706975
0.018176
0.0267672
0.0161833
0.0489536
0.018563
0.00348139
0.00640041
0.0336797
0.00240737
0.0226821
0.00775192
0.0110278
0.0365772
0.00632769
0.00190641
0.00667527
0.0177439
0.00500799
0.020794
0.022345
0.0424212
0.0236373
0.0166685
0.000734807
0.0322257
0.0134572
0.0352461
0.00217815
0.0250718
0.0300186
0.0246967
0.0211626
0.0249009
0.0173241
0.00773179
0.00522806
0.0226013
0.00614603
0.0271139
0.0110007
0.0344545
0.00679841
0.0226449
0.0185594
0.0302178
0.00470303
0.00485103
0.0220569
0.00724011
0.00943139
0.050355
0.0274836
0.0231026
0.0399573
0.00277447
0.0307969
0.0250212
0.035769
0.0125916
0.048122
0.00864753
0.0376215
0.0113966
0.0214289
0.0221622
0.0561053
0.0310022
0.0197588
0.020081
0.00829719
0.0231646
0.0202708
0.0243901
0.0248859
0.00997606
0.00274573
0.0252016
0.00357144
0.043189
0.0358431
0.0324912
0.0214162
0.0443389
0.00197909
0.0028011
0.000810445
0.0222593
0.0235654
0.040857
0.00577068
0.0217876
0.0099876
0.00954677
0.00770157
0.0368712
0.0133019
0.0242921
0.0240816
0.00264732
0.0209809
0.0321339
0.00314679
0.00114861
0.0224274
0.0247104
0.000510642
0.00563956
0.0375643
0.00771843
0.00184155
0.0220475
0.0247754
0.0063337
0.000722075
0.0424042
0.0307267
0.0225707
0.0317574
0.00275844
0.0315287
0.0470266
0.0191317
0.00473863
0.0499684
0.0139933
0.03261
0.0116577
0.00150657
0.0178581
0.0111112
0.0198584
0.00289814
0.0203283
0.0382902
0.0586726
0.0105877
0.00732361
0.0271142
0.0288503
0.00536664
0.0252335
0.0082664
0.0044966
0.00640731
0.00675045
0.0283449
0.0460912
0.000791874
0.0293651
0.00686954
0.0226551
0.0232198
0.0398873
0.012015
0.00661415
0.0151373
0.0136165
0.0329775
0.0122475
0.00485081
0.0340546
0.0232704
0.0355087
0.00654607
0.041121
0.00200619
0.0163602
0.0108467
0.0304211
0.00692776
0.0215837
0.029895
0.00536371
0.00963505
0.0410155
0.00967502
0.00728028
0.011486
0.00353843
0.00453227
0.00643042
0.010601
0.0307873
0.00465925
0.0388774
0.0298406
0.00377876
0.00441201
0.0065007
0.00463137
0.0140257
0.0325038
0.0143395
0.00371045
0.00502766
0.0245242
0.00182576
0.00458954
0.0119693
0.0251023
0.034557
0.0107895
0.00209248
0.00483799
0.0225075
0.00422118
0.0335975
0.0026839
0.00273025
0.0044718
0.0309941
0.00732882
0.0319161
0.0130654
0.0172196
0.00666705
0.0243596
0.00855141
0.022079
0.00513909
0.0287057
0.00607487
0.0135344
0.0121348
0.0244407
0.0250531
0.0124208
0.0118313
0.00479478
0.0229575
0.0409903
0.054825
0.0014948
0.0285459
0.00579565
0.0126861
0.00608893
0.0129291
0.00503061
0.00179053
0.00628161
0.00120748
0.0368081
0.0250987
0.0314884
0.0076417
0.0108849
0.00703743
0.0439479
0.0175656
0.0220586
0.00304489
0.0401379
0.00658814
0.0295885
0.00360618
0.0432618
0.0249324
0.00387546
0.00307778
0.031082
0.0303383
0.00499477
0.0100795
0.0129139
0.0251841
0.0111284
0.0078532
0.0292082
0.0157991
0.0560709
0.0439287
0.0327245
0.0331019
0.0120438
0.0239454
0.0108182
0.0112632
0.0249378
0.00348851
0.00281891
0.00412999
0.00396791
0.023521
0.0547861
0.0230071
0.0284549
0.0115989
0.0154963
0.00851635
0.0109913
0.0138393
0.00798461
0.0370895
0.00328761
0.00299095
0.00707892
0.00665307
0.0505008
0.00930531
0.00574483
0.0180355
0.00998036
0.0155858
0.0235057
0.0307967
0.0167012
0.00394981
0.0255596
0.0482209
0.0127422
0.00742817
0.0144408
0.00369201
0.0141707
0.00876461
0.00793286
0.0428135
0.0244278
0.00459426
0.0244748
0.0260197
0.0477721
0.0311156
0.0245004
0.0043044
0.0099516
0.00733286
0.00339985
0.00268931
0.00635968
0.0147635
0.00440663
0.0293877
0.0171161
0.030078
0.0115396
0.0123281
0.0375392
0.00312478
0.0282735
0.0494783
0.00501713
0.014709
0.0214315
0.00770627
0.0381538
0.0123331
0.0136278
0.000738914
0.0158594
0.0288732
0.0348408
0.0313063
0.00300102
0.0378988
0.00587275
0.0273415
0.0379448
0.0153387
0.00682431
0.00399784
0.0194861
0.0410678
0.00313032
0.0344853
0.0229728
0.0184685
0.0169211
0.0146079
0.0235519
0.0239774
0.00835647
0.0321792
0.0303598
0.00902823
0.00626269
0.0442034
0.00486688
0.00546996
0.017735
0.0095085
0.0191862
0.0462689
0.00932949
0.0523146
0.0283777
0.0100153
0.00232986
0.00527311
0.0190403
0.0109435
0.011759
0.0230703
0.0245559
0.0300735
0.00571081
0.0146552
0.00475737
0.0010736
0.0149964
0.0341376
0.0354012
0.0163245
0.0054703
0.00599796
0.0252126
0.000749818
0.0371294
0.0243456
0.00407849
0.0334144
0.00955928
0.00802061
0.0044609
0.0149438
0.00376005
0.00492463
0.00420935
0.0212348
0.0168753
0.0237204
0.0244271
0.03624
0.00546898
0.0204464
0.0123227
0.00729977
0.0387202
0.0167001
0.0165874
0.0217787
0.0164821
0.0235634
0.0285877
0.0325548
0.0265436
0.0356732
0.0302322
0.0078796
0.0312357
0.00995844
0.0122978
0.025317
0.00494809
0.0283162
0.0278658
0.0104868
0.0129623
0.0149225
0.0285095
0.0250988
0.00277157
0.00318913
0.0345237
0.00397066
0.0250815
0.0505527
0.00949819
0.024284
0.0315385
0.0189659
0.0202256
0.00736343
0.00534279
0.00748245
0.0202831
0.046403
0.0323048
0.0215693
0.00798186
0.00425167
0.0250462
0.0288428
0.0417029
0.00757483
0.0442741
0.0170189
0.00632518
0.0143885
0.0234501
0.00634624
0.0250105
0.0535003
0.0375073
0.0242698
0.0315636
0.00921374
0.0337936
0.0214319
0.00778795
0.0107387
0.0202849
0.00703106
0.0208323
0.00914302
0.0227025
0.0185689
0.0184454
0.0141642
0.0207817
0.00395011
0.016328
0.0224681
0.0190313
0.0267725
0.0352859
0.0210807
0.00597125
0.0200543
0.0232273
0.017277
0.0242128
0.0239268
0.024588
0.0261361
0.0197238
0.0254206
0.0282404
0.0173633
0.0330357
0.0305954
0.00677936
0.0171243
0.0186921
0.0447101
0.0237996
0.0166132
0.0240338
0.0295407
0.0248116
0.015908
0.0217566
0.0145642
0.0253714
0.02056
0.00650526
0.0267753
0.0291993
0.0225758
0.0116999
0.00497858
0.00476412
0.00447934
0.0197009
0.00710466
0.0231613
0.0238605
0.0233874
0.024172
0.0179386
0.023911
0.0471836
0.0264439
0.0204809
0.0156943
0.0212241
0.020144
0.0241435
0.0222687
0.0240622
0.0241803
0.023283
0.0242487
0.0228105
0.0222735
0.0240906
0.0219723
0.0243482
0.0251894
0.0243972
0.024165
0.0212663
0.0247308
0.0244748
0.0225216
0.0208304
0.0245664
0.0254581
0.0241047
0.0239814
0.0238142
0.0236933
0.0234739
0.024215
0.023068
0.0242753
0.0218944
0.0243705
0.0222318
0.0244225
0.0242255
0.0241005
0.024544
0.0246083
0.0245759
0.0252536
0.0249023
0.0156329
0.0459019
0.025725
0.0247643
0.0246591
0.0357501
0.02302
0.0247225
0.0239459
0.0238223
0.0242857
0.0247577
0.0249662
0.0278343
0.020102
0.0212113
0.022298
0.0386839
0.0237645
0.0248877
0.0243198
0.0286069
0.0251862
0.0232828
0.0244459
0.0218782
0.0247426
0.0392736
0.0262787
0.0567584
0.0249343
0.0236987
0.00797152
0.0426162
0.0249008
0.0227591
0.0249951
0.0260529
0.0263943
0.00814321
0.0253339
0.0570521
0.0214926
0.0248307
0.00695324
0.0213852
0.0218298
0.0236008
0.0237651
0.0229596
0.0251564
0.0242313
0.0238724
0.0235782
0.0243449
0.0221846
0.0244373
0.0162236
0.0245216
0.0252319
0.0235545
0.0236497
0.0229177
0.012719
0.0222251
0.026432
0.0198311
0.0223577
0.0243492
0.0246132
0.0243966
0.00462647
0.0346481
0.0227448
0.0250795
0.0249462
0.0247198
0.0250428
0.0251333
0.0246784
0.02555
0.0241794
0.0255053
0.0248962
0.0260141
0.0172189
0.0242666
0.0285768
0.0245525
0.0246377
0.0260526
0.0225752
0.0233039
0.0228706
0.0237852
0.0250113
0.0264006
0.0250456
0.0259404
0.0171231
0.0207403
0.0234071
0.0231922
0.0252186
0.024112
0.0040433
0.0233165
0.0227091
0.0215119
0.0255652
0.0246011
0.021192
0.0258504
0.0240485
0.0279764
0.0241314
0.0265469
0.0278673
0.0259959
0.027099
0.0290749
0.0237897
0.0237368
0.0267887
0.0243191
0.0204509
0.0248396
0.0246289
0.00861154
0.0232199
0.0488015
0.043116
0.0251547
0.0204856
0.0238759
0.0227645
0.0240105
0.0242479
0.0229953
0.0227742
0.0218377
0.0205988
0.0243902
0.0265857
0.0250351
0.0283307
0.0224574
0.0315371
0.00784747
0.0304361
0.0204919
0.0248185
0.0223375
0.0254617
0.0261418
0.0215664
0.023037
0.0188437
0.0197925
0.0226706
0.018342
0.0252944
0.0245059
0.0289075
0.0300313
0.0344465
0.0374331
0.0248922
0.024821
0.0253507
0.0206898
0.0260642
0.021321
0.0199488
0.023599
0.0224839
0.0185972
0.0228131
0.0310042
0.0213911
0.0391225
0.0195113
0.0243108
0.0358626
0.0180388
0.0249592
0.0282433
0.0237892
0.0267692
0.0243364
0.0162278
0.0240395
0.025619
0.0242278
0.0262482
0.0243879
0.0253168
0.0227376
0.00361343
0.029036
0.0243374
0.0240614
0.0240055
0.0212751
0.0238457
0.0251257
0.0213606
0.0244985
0.0245703
0.00635451
0.00255454
0.0246806
0.0248144
0.0343061
0.0161859
0.0258045
0.00693848
0.0248279
0.0262705
0.0237019
0.0239169
0.0253009
0.0249353
0.0261146
0.0206164
0.0252727
0.0158264
0.0218432
0.0227064
0.0250242
0.0214089
0.0242304
0.0240297
0.0239637
0.0237895
0.0207789
0.0244158
0.0238906
0.0238047
0.0235453
0.0244449
0.0226726
0.0233761
0.0232158
0.0218683
0.0224061
0.0235733
0.0199867
0.0257241
0.0245569
0.0242323
0.0246546
0.0273129
0.0247434
0.0217625
0.0247117
0.0256793
0.0234151
0.0227261
0.0230154
0.0247249
0.016025
0.0256595
0.0248243
0.0248166
0.0247846
0.0239964
0.0270522
0.0236478
0.0214417
0.0166646
0.026663
0.0249711
0.0235981
0.0232761
0.0258582
0.0192707
0.0240861
0.0241695
0.0237329
0.0195406
0.0235186
0.0236324
0.0232404
0.0232434
0.0210319
0.0225149
0.0219378
0.0256583
0.0243667
0.0244283
0.0251811
0.0228185
0.0218318
0.0250094
0.00182546
0.0266603
0.00528743
0.025946
0.0308385
0.00195314
0.025894
0.0568555
0.0296228
0.033093
0.0255892
0.0252062
0.026736
0.0251049
0.0228989
0.00541352
0.0255199
0.0241918
0.0230577
0.0192671
0.0182807
0.017469
0.0233223
0.0253188
0.0249088
0.0248333
0.032298
0.0536015
0.0350791
0.0201468
0.0221885
0.0203267
0.0188576
0.0197033
0.0184449
0.0179797
0.0233697
0.0249798
0.0221295
0.0212403
0.0209086
0.0235911
0.0215557
0.0237321
0.0243093
0.0239389
0.0247237
0.0240211
0.0242317
0.0246514
0.0242617
0.0243799
0.0244185
0.0248324
0.025391
0.0241406
0.0169944
0.0227913
0.0254518
0.0176216
0.0255341
0.0368614
0.0245874
0.0314676
0.0241437
0.0245828
0.024934
0.0247597
0.0240383
0.0258169
0.0208995
0.0256765
0.0262466
0.0170523
0.0248232
0.0517471
0.0241452
0.0224278
0.0226423
0.00417517
0.00852102
0.0263802
0.0216627
0.0211427
0.023384
0.0242852
0.0258639
0.0236148
0.0227119
0.0237933
0.0240065
0.0241037
0.024139
0.00277256
0.0242863
0.0196538
0.0251645
0.024462
0.0200084
0.0237894
0.0240325
0.00451046
0.0245679
0.0323368
0.0255993
0.0247296
0.0279836
0.0250751
0.0259895
0.0266495
0.0223162
0.0247873
0.0249003
0.0157154
0.0260237
0.0255923
0.0268694
0.0146128
0.0257947
0.0270053
0.0222007
0.0307791
0.0538209
0.0255515
0.0266067
0.0238499
0.00863763
0.0299396
0.0251367
0.0218389
0.0229143
0.0220856
0.0233677
0.0237307
0.0298686
0.0243546
0.0249198
0.0247174
0.0271348
0.0225688
0.0242795
0.0272294
0.0258121
0.0243255
0.0242512
0.0123049
0.00982818
0.0279285
0.0254067
0.0269564
0.0198204
0.024323
0.0319647
0.0231301
0.0253597
0.0133826
0.0267983
0.0360059
0.0260111
0.0236063
0.025895
0.0249838
0.0229708
0.0278956
0.0211246
0.0244617
0.0271268
0.0235808
0.0264982
0.022678
0.0233048
0.0235189
0.0224663
0.0238211
0.0262111
0.0235758
0.0241253
0.025575
0.0245682
0.0247003
0.0229922
0.020308
0.0283881
0.0257851
0.0195107
0.0268078
0.0236522
0.0186365
0.0275743
0.024184
0.0177282
0.0244551
0.0253859
0.018222
0.0215812
0.018673
0.0425431
0.0312305
0.0183403
0.0359516
0.0274658
0.0200692
0.0203856
0.0210567
0.024211
0.0174848
0.0254867
0.0246756
0.0194214
0.0235327
0.0286621
0.0237502
0.0193014
0.00249185
0.0296645
0.0254381
0.0258807
0.0311154
0.0264135
0.024754
0.0250902
0.00671568
0.0243769
0.0248481
0.0230014
0.0238866
0.0235974
0.0256905
0.0154876
0.024916
0.0238418
0.0178118
0.0259626
0.0242774
0.02677
0.029337
0.00526663
0.0263597
0.0175156
0.0235687
0.0232045
0.00946285
0.0128113
0.0220124
0.0281662
0.026066
0.0184405
0.0276413
0.0271596
0.0256429
0.0155265
0.0312511
0.0270991
0.0248338
0.0191498
0.0239591
0.024065
0.0245344
0.0274953
0.00359133
0.0232886
0.0228297
0.018822
0.0318004
0.000856297
0.0258747
0.00430544
0.0268962
0.0183731
0.0241199
0.0244356
0.0274654
0.0238327
0.0235153
0.0245231
0.0230673
0.0211666
0.0267549
0.0244692
0.0265343
0.0212205
0.0213111
0.0391102
0.0236629
0.0243315
0.0233774
0.0219603
0.0230439
0.0245458
0.0222465
0.022753
0.0168345
0.0242195
0.0181465
0.037049
0.0241369
0.0263611
0.0304178
0.00685981
0.0194185
0.0202377
0.0404528
0.020352
0.0244182
0.0248502
0.0191346
0.0246963
0.0129391
0.00557064
0.0194932
0.02307
0.0389411
0.0057697
0.0230387
0.0230391
0.0231304
0.0194034
0.0152417
0.0265188
0.025621
0.00604499
0.011472
0.0311693
0.0195879
0.0186478
0.0264632
0.00512307
0.0253194
0.0159867
0.0244074
0.0193067
0.0360007
0.0196091
0.0141108
0.029946
0.00710613
0.0166902
0.0384742
0.00737814
0.0288614
0.018468
0.0164277
0.0116254
0.0279548
0.0208573
0.0148011
0.024543
0.0184821
0.0246098
0.0252267
0.0240287
0.0232902
0.0183014
0.0268939
0.0278753
0.0208252
0.0233404
0.025478
0.024533
0.0271709
0.0239248
0.0234275
0.0180623
0.0115505
0.0191706
0.0267093
0.0233824
0.0297203
0.0236021
0.0232825
0.0248639
0.00672387
0.028529
0.0181453
0.000932522
0.0324628
0.0278027
0.0222989
0.0216146
0.0180951
0.0153414
0.0236899
0.0244859
0.0239776
0.0408257
0.0287502
0.0258057
0.0529088
0.0270088
0.025791
0.0171316
0.00507666
0.0248485
0.0272489
0.0234638
0.0138032
0.0263992
0.0226951
0.0244985
0.0240984
0.0248389
0.0239242
0.0225078
0.0220197
0.0237846
0.0266128
0.0233828
0.0091967
0.00695442
0.0255901
0.0239191
0.0220445
0.0236779
0.0344704
0.0263733
0.0245097
0.0229553
0.0238331
0.00224479
0.0432271
0.00665952
0.0254074
0.026562
0.0123202
0.0231222
0.0213817
0.023312
0.0225668
0.0222543
0.022469
0.0340428
0.018596
0.0263381
0.0243405
0.0243875
0.0235089
0.0116816
0.0233218
0.0236574
0.023694
0.0190194
0.00764885
0.0233288
0.0272848
0.014025
0.0263213
0.0271851
0.0224034
0.0177211
0.0053212
0.0039579
0.0239029
0.0271159
0.0220669
0.0282425
0.015695
0.0201046
0.0263617
0.0231479
0.0174098
0.0244497
0.0135123
0.0234041
0.0218384
0.0237299
0.0148931
0.0202207
0.0275993
0.0237361
0.00721283
0.0341205
0.0287821
0.0176883
0.0289112
0.0221199
0.0205573
0.0185761
0.00543372
0.0496341
0.0446468
0.0365261
0.00466234
0.0278275
0.0249232
0.0233357
0.0103435
0.0278916
0.0292142
0.0281479
0.0102113
0.0193649
0.0268598
0.0229156
0.0279406
0.0302898
0.0281381
0.00999894
0.023141
0.0272226
0.0261309
0.0172292
0.0220809
0.0243072
0.021699
0.0276555
0.0281534
0.00718571
0.0328727
0.0221839
0.0286717
0.0215623
0.00968204
0.00573326
0.00251878
0.00842576
0.0122353
0.0295369
0.0188956
0.027607
0.0285654
0.0245821
0.0177325
0.0260351
0.00655908
0.00389103
0.0252774
0.0252635
0.0148115
1.80222e-05
0.0190643
0.00996274
0.0215274
0.0160848
0.0272503
0.0196708
1.50497e-05
0.0304753
0.0138554
0.0312243
0.0286599
0.0162909
0.00308731
0.00730529
0.0143957
0.0158668
0.0258146
0.00178937
0.0255244
0.016733
0.0273863
0.0141065
0.0199355
0.0286823
0.0187031
0.0276351
0.0376496
0.0333272
0.0026083
0.0142745
0.00798025
0.00733468
0.0255222
0.0151788
0.0341582
0.0376941
0.0295908
0.0202953
0.00898636
0.0326912
0.0240301
0.0141014
0.00543699
0.0238057
0.0290069
0.0113777
0.0293052
0.0254193
0.0246399
0.0313216
0.0254914
0.0489137
0.0281534
0.00750284
0.0254422
0.0246047
0.0276775
0.0200126
0.0125191
0.0206287
0.0565389
0.0117333
0.0184131
0.0199009
0.0288085
0.0038918
0.0294195
1.52236e-05
0.0114141
0.0104406
0.0245939
0.0257597
0.0124323
0.0138343
0.0291875
0.0268344
0.0157632
0.0172093
0.0173762
0.022303
1.5632e-05
0.0258329
0.00669274
0.0245273
0.00455618
0.0279915
0.0274799
0.0246398
0.0238675
0.00375684
0.0292668
0.0128889
0.00262
0.0240508
0.020982
0.0171036
1.98121e-05
0.0199346
0.0345452
0.0210094
0.0205521
0.0143367
0.0518653
0.0125112
0.0174496
0.0132405
2.84355e-05
0.0449524
0.0282519
0.0196557
0.00725209
0.023744
0.0139411
0.0382028
0.0345775
0.0243845
0.0258243
0.00619263
0.0296181
0.0297389
0.0165929
0.0200239
0.0116486
0.0140642
0.00588717
0.0080848
0.0161001
0.00206009
0.0141855
0.021296
0.0227683
2.18566e-05
0.0294262
0.0120972
0.0330539
0.00434545
0.00461778
0.0244759
0.0238458
0.0248948
0.0246045
0.0244776
0.0284342
0.023948
0.0328304
0.013711
0.0189426
0.0251774
0.0219355
0.0217997
0.0139048
1.32823e-05
0.00552463
0.0103833
0.00523063
0.0133064
0.002952
0.0231624
0.0390003
0.00398611
0.0410468
0.00594967
0.0190722
0.0233242
2.52721e-05
0.0220847
0.0519218
0.0121529
0.0261653
0.0104325
0.0158932
0.0209682
0.008381
0.0246468
0.0155207
0.0246598
0.0244246
0.0132042
0.000877156
0.0227998
0.0261049
0.0265127
0.0237415
0.0260196
0.0055725
0.0236739
0.0228263
0.0131646
0.0309404
0.00843659
0.0205613
0.028855
0.0196808
0.00607259
2.35588e-05
0.00857754
0.00940707
0.0120366
0.0292414
0.0151463
0.0295547
0.0325264
0.0136417
0.0454628
0.00699532
0.0131985
0.0122597
0.0104486
0.023445
0.0129162
0.0242216
0.0315254
0.0241637
0.0290377
0.0128848
0.0245279
0.0251861
0.0222325
0.0068889
0.0285073
0.00935569
3.33406e-05
0.0238716
0.00187974
2.9729e-05
0.0151228
0.0296095
0.00500148
0.0241877
0.0379033
0.0279176
0.00596049
0.0265985
0.0321361
0.0274305
0.0168012
0.0269291
0.0111036
0.0246001
0.0239674
0.0212145
0.0280978
0.0166074
0.0271035
0.0242576
0.0191882
0.0348218
0.0240455
0.0250609
2.50209e-05
0.0201782
0.0327475
0.00339891
0.0168739
0.013126
0.0256438
0.0353298
0.0090759
0.0123696
0.00922893
0.0133024
0.00953502
0.0103838
0.0316446
0.0111407
0.0116619
0.0236394
0.0112282
0.044139
0.00592648
0.0043095
0.00479016
0.0198149
0.00995115
0.00117796
0.050602
0.0316204
0.0301598
0.00804178
0.0120498
0.00351152
1.82603e-05
0.0113137
0.0229606
0.0288711
0.0130126
0.00497242
0.0125002
0.022208
0.0171303
0.0262128
0.00799657
0.0032765
0.0106835
0.00815053
0.00626541
0.0124058
0.0253612
0.00833184
0.0119866
0.00381385
0.0129128
0.00734024
0.0213666
0.0105385
0.0042631
0.0232665
0.00635232
0.0142745
0.0239125
0.00848661
0.0223095
2.01802e-05
0.00805094
0.0177185
0.0141361
4.30805e-05
0.0219232
0.0149913
0.0062197
0.0317175
0.0127944
0.0249415
0.0237667
0.0203541
0.0344287
0.0262497
0.0215717
0.0302237
0.0252892
0.0294832
0.0274439
0.0122342
0.0291853
0.0174538
0.0008208
0.00873807
0.034395
0.0218141
0.0255149
0.00807867
0.0434256
0.00612868
0.00959041
0.0225174
0.0119574
0.0111211
0.00694425
0.0217681
0.0244955
0.0106272
8.04176e-05
0.00608757
0.0244802
0.0294751
0.0414561
0.0219698
0.0162162
0.0256778
0.0301716
0.0255143
0.00940306
0.0323978
0.0211204
0.0223415
0.0236216
0.00802841
0.0221852
0.0234278
0.0271338
0.0112113
0.024683
0.00939714
0.0243431
0.0216137
0.0241207
0.0208169
0.00714234
0.00619524
3.94855e-05
1.70813e-05
0.0214308
0.0207201
0.0102716
0.0325631
0.0055484
0.0232531
0.0252038
0.0246093
0.0191546
0.0103791
0.0369719
0.0178004
0.000769153
0.00637552
0.00262333
0.0111917
0.0232593
0.00843853
0.00439524
0.0239785
0.0187888
5.02887e-05
0.0168337
0.0318743
0.0114265
0.0379905
0.014296
0.0152542
0.0132976
0.0390843
0.0229494
0.0109701
0.027005
0.0200675
0.0246654
0.0148329
0.0312768
0.0108561
0.0360056
0.0101097
0.0459927
0.0373772
0.0232469
0.0219437
0.0106991
0.0113965
0.0281124
0.0242708
0.0240194
0.0319395
0.0207331
0.0250127
0.00251412
0.00178897
0.00868365
0.0310405
0.0331522
3.29654e-05
3.42162e-05
0.00298871
0.00531893
0.012066
0.0263107
0.0147865
0.00965288
0.0282223
0.0111279
0.0229685
0.0197168
0.024657
0.0104339
0.0321216
3.50081e-05
0.0347776
0.00518281
0.0102762
0.0336738
0.0090293
0.0265408
0.00425406
0.0154441
0.0225586
0.0259913
0.00854177
0.00501684
0.0228707
2.45512e-05
0.0140696
0.0478224
0.00516749
0.0247648
0.00775569
0.0260563
0.0425016
0.0236313
3.15236e-05
0.026358
0.00847622
0.0220426
0.0311591
0.0324633
0.0356985
0.0301028
0.0244403
0.00867966
0.0174427
0.0221054
0.0162006
0.0215308
0.0261838
0.0253901
0.0312914
0.00978075
0.0179946
0.0307054
0.0219244
0.022518
0.0243052
0.0056088
0.0211228
0.0262871
0.0306427
0.0103964
0.039263
0.0272028
0.00807735
0.0117901
0.032871
0.036712
0.00240086
3.33974e-05
0.00451405
0.0400696
0.0333589
0.0045487
0.0234376
0.0420144
0.0333736
0.0119226
0.0162791
0.00638981
0.0245625
0.0114313
0.01465
0.00680343
3.85688e-05
0.0266054
0.0208558
0.0314701
0.000854488
0.0304255
0.0327171
0.0200999
0.0184799
0.0228823
0.0225679
0.0489512
0.0239756
0.0235763
0.00933665
0.0240596
0.00901776
1.97375e-05
0.0137756
0.0365635
2.28998e-05
0.0163608
0.00555188
0.00579798
0.0224137
0.0198941
0.050773
0.0181856
0.01223
0.0482622
0.009448
0.0240978
0.0268444
0.0367802
0.0315937
0.00848825
0.0252964
0.0269051
3.80307e-05
0.00605534
0.040135
0.0106396
4.13336e-05
0.00846594
0.0124229
2.61563e-05
0.00554248
0.0337316
0.0167329
0.0182587
0.0333099
0.0230218
0.028919
0.0315414
0.0265939
0.0179681
0.00618274
4.47723e-05
0.0438707
0.00840333
0.0306
0.0294617
0.0339838
0.010812
2.42098e-05
0.0223236
0.0273238
0.00875508
0.007549
0.00305108
0.0118079
0.0183789
0.0159472
0.0354892
0.0408534
0.0222697
0.0340107
0.00970569
0.0337762
0.0169693
0.0128583
0.000910891
4.05964e-05
0.0274861
0.0298092
0.0156222
0.0101983
0.0102089
0.0203081
0.019286
0.00580485
0.00585388
0.00890589
0.00549824
4.37588e-05
0.00575572
0.0459169
0.0241515
0.0231583
0.0047143
0.0429583
0.0247398
0.024274
0.0140373
0.018843
0.0138732
0.00883371
0.00849387
0.0410768
0.0111862
0.0153922
2.23127e-05
0.0347043
0.00551897
0.0112822
0.0032253
0.0429832
0.0114322
0.0143852
0.00184693
0.032741
0.0181899
0.0226196
0.0282945
0.0235387
0.000601722
0.0221048
0.0012662
0.00748748
0.00356094
0.0280989
0.00567105
0.0308807
0.00923455
0.0217176
0.0135125
0.0314372
0.0291753
3.09458e-05
0.00624311
0.0397588
2.13992e-05
0.0157974
0.0226643
0.0361721
0.0420171
0.00939174
2.42252e-05
0.035444
0.0342153
0.0274662
0.0158485
0.0384216
0.0351729
0.0208054
0.0230002
4.01906e-05
0.0240719
1.82608e-05
0.0393726
0.00195927
0.00480731
0.0177515
0.0145733
0.00200244
0.0327551
0.0282527
0.0456945
0.030121
3.5139e-05
0.0256611
0.0268272
0.0125164
0.00718672
0.00934042
0.0173367
0.00200809
0.0309454
0.031104
0.0261965
0.0092792
0.00949545
0.045491
0.00761152
0.0237411
0.0084842
0.0101252
0.00066189
0.0250971
0.0103264
0.0368063
0.0311531
0.000720481
0.00453634
0.0278408
0.0304973
0.0113937
0.0135335
0.0432506
0.0369749
0.0144303
0.00989128
0.0323186
0.0294566
0.00370531
0.0247212
0.0136937
0.0320659
0.00446068
2.69392e-05
0.0347179
3.69971e-05
0.00917719
0.0203998
0.0111711
0.0110413
0.0131199
0.00990575
0.0199949
0.023831
0.0240691
0.0335201
0.0318493
0.0100489
0.0227288
0.00580015
2.91378e-05
0.0314842
0.0388743
0.0420398
0.0459519
0.0445623
0.0380426
0.023903
0.0246905
0.0319705
0.0239925
0.0267302
0.0308241
0.0287551
0.027678
0.0216169
0.0215267
0.00224156
0.00774036
0.00805792
0.00902037
0.0234021
0.00280807
0.040447
0.000688322
0.0391494
0.0208918
0.0108458
0.0132657
0.0233766
0.0361882
0.0248365
0.00271294
0.0208254
0.0109302
0.0303921
0.0242633
0.0377425
0.0125062
0.00850222
0.0189723
0.0233797
0.0262546
0.0237476
0.023426
0.0150348
0.0189747
0.0236437
0.047355
0.0397541
0.0266708
0.0133878
0.00105351
0.00407373
0.0175335
0.00395866
0.0132164
0.00716671
0.0164482
0.0135943
0.00952016
0.00197944
0.027784
0.00637634
0.0118397
0.00568538
0.00178468
0.0149798
0.0389078
0.0103378
0.023564
0.000740521
0.00900134
0.000856864
0.0240969
0.0214446
0.0134684
0.00653208
0.0462868
0.00676568
0.0132293
0.0252682
0.0387053
0.0346071
0.0483155
0.0239688
0.0270101
0.0301116
0.00632063
0.0238449
0.0121155
0.0119855
0.00237617
0.0439062
0.0131583
0.0135153
0.00202857
0.0217516
0.0127902
0.0293881
0.00480664
0.013809
0.00960362
0.0582625
0.0340405
0.0404053
0.000796162
0.0108983
0.0197166
0.0324526
0.00766849
0.0133398
0.0358009
0.0476691
0.0220755
0.0073405
0.0404685
0.0242906
0.00790223
0.0128603
0.0256859
0.0077313
0.0162443
0.00664834
0.0210519
0.00247576
0.00945941
0.0319282
0.0192222
0.00648776
0.0132415
0.0246889
0.000711246
0.0121395
0.000982366
0.011786
0.0104707
0.0144026
0.0420316
0.00623594
0.0304793
0.0357737
0.0397051
0.0209275
0.0236875
0.00360404
0.00913148
0.00878376
0.0167999
0.0343025
0.0145545
0.0288878
0.0208114
1.82582e-05
0.0127109
0.0487525
0.0393955
0.0132307
0.053177
0.00742142
0.0305057
0.00646421
0.027737
0.00781043
0.0433136
0.00870075
0.020563
0.0212521
0.00924708
0.00276355
0.000918935
0.0512041
0.00338683
0.0157045
0.0102105
0.0164636
0.0197913
0.0165145
0.0187525
0.0358948
0.0180017
0.0125672
0.021737
0.0122101
0.00518566
0.0417552
0.00878735
0.0274775
0.0107225
0.0296797
0.0368945
0.0337626
0.0207855
0.00670255
0.00605414
0.0212172
0.0173537
0.046474
0.0235232
0.0235289
0.0239985
0.0291906
0.0239094
0.0240941
0.0230361
0.0259919
0.0100461
2.36457e-05
0.0446366
0.0227711
0.0134155
0.00539216
0.0190835
0.0290089
0.0362224
0.0049339
0.020937
0.0282021
0.0319485
0.00411754
0.022659
0.0457907
0.0243586
0.017894
0.000202434
0.0105648
0.0214155
1.58418e-05
0.00337548
0.0239437
0.0132651
0.00605603
0.0273971
0.00925139
0.0222469
0.0330692
0.0274361
0.00349525
0.0332165
0.0132079
0.012414
0.026069
0.0213516
0.00503108
0.0261037
0.00265131
0.0259799
0.0141257
0.0151425
0.02414
0.011387
0.00893642
0.0238802
0.0235867
0.0115018
0.0240254
0.0093903
0.00352448
0.00577807
0.0217381
0.0236268
0.0261437
0.00789176
0.0411043
0.0464867
0.023143
0.0186659
0.0257931
0.0242974
0.0223695
0.0380546
0.0122349
0.00914419
0.0201446
0.0469158
0.00655843
0.0255166
0.0271822
0.0224626
0.00115113
0.0259886
0.0297219
0.00379858
0.030638
0.0259306
0.0239504
0.0122854
0.0257235
0.0154682
0.00651101
0.0250248
0.00769617
0.0206006
0.0253891
0.00673784
0.00834679
0.0041199
0.0245779
0.0166308
0.0231105
1.80986e-05
0.00663836
0.0258774
0.0179449
0.0240346
0.00897521
0.0325577
0.0320686
0.0254482
0.0364853
0.0261622
0.0256788
0.00327558
0.0227051
0.0298222
0.0342974
0.0262478
0.000901834
0.0126646
6.1674e-05
0.0219618
0.0241717
0.00599851
0.0307478
0.0318448
0.0247218
0.0275124
0.027672
0.0191213
0.0260236
0.0252482
0.0160139
0.00865517
0.00444063
1.3164e-05
0.0142779
0.0298974
2.46961e-05
0.00213957
0.0179924
0.00105116
0.0019241
0.00390464
0.0141248
0.0262966
0.0033271
0.0250398
0.00903195
0.0531862
0.0182379
0.0246115
0.0273798
0.00750465
0.0154614
0.00124254
0.0334718
0.0233268
0.02205
0.0192919
0.0297187
0.0250582
0.0212721
0.0103336
0.0219722
0.00546317
0.0230093
0.024907
0.00905633
0.0492256
0.0287345
0.0206837
0.0325699
0.0159338
0.000819959
0.03885
0.0263242
0.0133131
0.0221592
0.0130617
0.0105376
0.0162291
0.0230867
0.0516068
0.0138173
0.00869536
0.0309892
0.0476846
0.00650119
0.0460421
0.0363833
0.0176093
0.0245662
0.00426133
0.0216191
0.0121706
0.0242373
0.0230394
0.0278714
0.0473694
0.0296174
0.0152257
0.0554334
0.0600246
0.0555228
0.0122889
0.00811516
0.0541012
0.0178878
0.0109725
0.014219
0.0307443
0.00953744
0.00855935
0.0038456
0.0288334
0.00523468
0.0246789
0.0099101
0.046047
0.0117307
0.00288368
0.00569055
0.0321823
0.0257938
0.0100889
0.000116658
6.96088e-05
0.0253539
0.00395635
0.0495566
0.0309571
0.00661869
0.0120368
0.0324503
0.0137984
0.0207137
0.0370564
0.00517287
0.00260434
0.0112105
0.0476648
0.0411209
0.0168848
0.0225344
0.0438196
0.0184887
0.00829947
0.00818334
0.00919098
0.0528708
0.0287009
0.00747028
0.0122596
0.0102328
0.0165758
0.00968649
0.0105628
0.0313806
0.0309732
0.0238361
0.0300804
0.0410752
0.000968855
0.0139023
0.0288469
0.0276469
0.0286453
0.0508341
0.0193831
0.000822925
0.0081914
0.0531145
0.0585223
0.0570105
0.000642362
0.0152239
0.00957993
0.0323511
0.0120445
0.0256012
0.0236177
0.0147125
0.0258013
0.00276932
0.0168201
0.0330749
0.00800615
0.040188
0.00499355
0.00696057
0.0209833
0.0107288
0.0388972
0.0161709
0.0041929
0.0136699
0.0256246
0.00988937
0.00908471
0.0345762
0.0433413
0.00669777
0.000782761
0.0243162
0.0143962
0.010412
0.0191134
0.000988147
0.00929737
0.000973172
0.0068553
0.00609341
0.0060366
0.0104817
0.0142862
0.00796804
0.012891
0.051963
0.0266826
0.0496185
0.0108212
0.0431635
0.0108663
0.00109519
0.0377135
0.041703
0.0613284
0.0580824
0.0410715
0.00846377
0.0165736
0.0119481
0.0140084
0.00974992
0.00862525
0.0445633
0.0408799
0.00858705
0.0234643
0.0328182
0.0371148
0.0295796
0.000946251
0.0317576
0.0028539
0.0317997
0.0258298
0.00220643
0.0447479
0.0124165
0.00783996
0.0123378
0.00836141
0.0250593
0.0318798
0.0232396
0.0224447
0.0153861
0.00646109
0.00557997
0.0241807
0.00343414
0.0108559
0.00621133
0.0313026
0.0346779
0.0483611
0.0232174
0.00951776
0.0160261
0.0114899
0.0579722
0.00668713
0.0152801
0.0223101
0.014065
0.0116786
0.0226158
0.0138101
0.0140083
0.0155461
0.0208929
0.00117859
0.0612102
0.0574429
0.0210702
0.014697
0.0352477
0.00654719
0.0157665
0.00599611
0.0600391
0.0334379
0.00861842
0.0503286
0.0380362
0.0160436
0.00453387
0.0262863
0.0161149
0.0598206