/*--------------------------------*- C++ -*----------------------------------*\
  =========                 |
  \\      /  F ield         | OpenFOAM: The Open Source CFD Toolbox
   \\    /   O peration     | Website:  https://openfoam.org
    \\  /    A nd           | Version:  10
     \\/     M anipulation  |
\*---------------------------------------------------------------------------*/
FoamFile
{
    format      ascii;
    class       volScalarField;
    location    "400";
    object      p;
}
// * * * * * * * * * * * * * * * * * * * * * * * * * * * * * * * * * * * * * //

dimensions      [0 2 -2 0 0 0 0];

internalField   nonuniform List<scalar> 
23845
(
-0.102149
-0.13878
-0.230107
-0.228753
-0.118623
0.00381991
-0.217939
-0.236329
-0.00121682
-0.0686201
-0.0171495
0.00149176
0.00177899
0.00112479
-0.22527
-0.035188
0.000270832
-0.00197734
-0.00191796
0.00394612
-0.119454
-0.0161207
-0.165875
0.00439409
-0.0405077
0.00701002
-0.189807
0.0056139
-0.244262
0.00404312
-0.222999
-0.224164
-0.236543
-0.00212064
0.00209809
0.00427142
-0.234296
0.00187798
0.00154023
0.00495687
-0.00606474
0.000917935
0.00148587
-0.000146373
0.00709426
0.0021903
-0.134945
-0.0293205
-0.216736
-0.247163
-0.224257
-0.219792
-0.2167
0.00546616
-0.226736
8.76478e-05
-0.162148
-0.232925
-0.122013
-0.201983
-0.242572
0.00156225
-0.0244426
-0.244597
0.00516595
0.000787156
-0.204278
0.00559802
0.00407926
-0.00504693
-0.239021
-0.235087
0.0048674
-0.22474
0.00438529
-0.225621
0.00101946
0.00176318
-0.231934
-0.00282637
-0.170185
-0.215088
-0.148958
-0.236247
-0.227208
0.00219491
-0.205923
-0.214295
0.00253946
-0.00306019
-0.228698
-0.0123693
-0.246488
0.00489324
-0.230159
-0.232971
-0.00130794
-0.0330043
0.0018422
-0.119758
-0.000870671
-0.218294
-0.0870956
-0.255744
-0.249465
-0.235113
0.00391825
0.0045977
-0.206917
0.00133027
-0.0144396
0.0016478
-0.23188
-0.0512985
0.00412168
-0.104413
0.00546765
-0.0537846
-0.24312
-0.242068
0.00176539
-0.227548
-0.00522571
-0.239055
-0.210748
0.00790983
-0.24166
-0.248499
-0.233961
-0.155762
-0.237973
-0.0483948
-0.0334267
0.00108612
-0.00117421
-0.0940475
-0.253518
0.00103463
-0.201864
0.00171488
-0.243146
0.000761803
0.00260562
-0.000267866
-0.0165382
0.00118813
-0.0803034
-0.221905
-0.24136
-0.00678468
-0.220785
0.00430922
-0.193124
0.00179345
-0.23156
-0.0104747
-0.0947609
0.00370751
-0.23966
-0.237708
-0.0089494
-0.228663
-0.229088
0.00415368
-0.000561974
-0.00577517
0.000838589
-0.230974
0.00261701
0.000861931
9.96403e-05
-0.229874
0.00559124
-0.239039
0.00630681
-0.231329
-0.0163208
-0.0173842
0.00488828
0.00359512
-0.114988
-0.116946
-0.221594
-0.0121794
-0.0227361
-0.000405196
0.00175188
-0.236086
-0.245747
0.00065798
-0.247208
0.00288044
0.00396167
0.00382147
-0.0144099
0.00431104
-0.252783
-0.247504
-0.264609
-0.0167304
-0.00498099
0.00427073
-0.241417
-0.0426735
-0.236494
-0.230188
-0.232003
0.00242174
-0.142857
-0.00197962
-0.00405629
-0.235529
-0.0248416
0.00171603
-0.21994
-0.230485
-0.0387384
0.000580716
-0.245304
-0.236535
0.00245922
-0.226074
-0.253419
-0.0110158
0.0012952
-0.226473
-0.247944
0.00542487
0.00324504
-0.00673294
0.00433815
-0.217529
0.00249172
0.00762144
-0.10647
-0.242323
0.0057082
-0.225053
0.00794496
-0.233142
-0.216128
-0.0650053
-0.234213
-0.0995217
-0.228831
-0.0289513
0.00405657
0.00973321
-0.230418
-0.219824
0.00221242
0.00347083
-0.225603
0.00129352
-0.217229
-0.231361
-0.241304
-0.231068
0.00360788
0.00499581
-0.212769
0.00354678
-0.240941
-0.0125413
-0.00973367
0.0065788
-0.230479
-0.240961
-0.206843
-0.227795
0.00247131
-0.232345
-0.221818
0.00489795
-0.0131764
0.0043396
-0.230384
0.00621728
-0.259669
-0.166372
-0.235679
0.00412701
-0.226331
-0.0116285
0.0028033
-0.242647
-0.236264
0.00481738
-0.231518
-0.22787
-0.231117
-0.220366
-0.244176
-0.23141
-0.231277
0.00234883
-0.242894
0.00400874
0.00243891
-0.240286
-0.242806
-0.222881
-0.242972
-0.226394
0.00412807
-0.224512
-0.24678
-0.22277
-0.00144475
-0.251925
-0.221146
-0.188537
-0.000327196
0.00540819
-0.22853
-0.244574
-0.242629
-0.0303401
-0.232579
0.00162951
-0.250749
-0.233403
-0.241481
0.00365447
-0.227133
0.00245488
-0.230231
-0.165117
-0.242107
-0.00162265
-0.221972
-0.013156
-0.226892
0.00353978
-0.238436
-0.22572
-0.225994
-0.00216466
0.00150252
-0.230795
-0.230885
-0.241359
-0.0164827
0.00785718
0.00676174
-0.26498
0.00360103
-0.231476
-0.230967
-0.223731
-0.22284
-0.243224
-0.249136
-0.228673
-0.216964
0.0056394
0.00112108
0.00557755
-0.227272
-0.232498
-0.236757
0.00818755
-0.0753321
-0.00995043
-0.244811
0.00217824
-0.238613
0.0030726
-0.241885
0.00769719
0.000961526
-0.230464
-0.252499
0.00116881
0.00335924
-0.2296
-0.227314
-0.22617
0.00132261
-0.235207
-0.22482
0.00408752
-0.151097
0.00552018
0.00737941
0.00230555
0.00427583
-0.230425
-0.00455487
-0.23107
-0.207452
0.00198141
-0.247362
-0.251235
-0.220676
-0.238407
-0.00921207
0.00596279
-0.00549243
0.00373099
-0.227981
-0.21098
-0.229939
-0.231927
-0.191726
-0.22338
0.00164382
-0.249185
-0.247908
-0.241791
-0.228902
0.00875584
-0.212947
-0.241902
-0.0960895
-0.228238
-0.203501
-0.0109612
0.00293931
-0.0986198
-0.243243
0.00264938
0.00315532
-0.231078
-0.241286
-0.128127
-0.254125
-0.220194
-0.237838
-0.23741
0.00444091
-0.00167523
-0.241428
-0.00187141
0.00273133
0.00478101
0.00201162
-5.78854e-05
-0.244103
-0.237742
-0.226719
-0.248072
-0.250067
-0.240697
-0.216315
-0.243229
0.00353525
-0.190189
0.00360983
-0.232638
-0.232743
0.00398767
-0.257429
0.00410752
0.00746914
-0.23966
-0.189953
-0.0469099
-0.23049
0.00348746
-0.162535
-0.22957
-0.2508
-0.178074
0.00474226
0.00227936
0.00431196
-0.218543
0.00674944
-0.234344
0.00535839
0.00230284
-0.214787
-0.241857
-0.245647
-0.0979662
0.00309755
-0.226695
0.0037415
-0.00580064
-0.164181
-0.193652
-0.22148
-0.016791
-0.00482369
-0.219579
0.0024601
0.00188628
-0.222295
-0.240221
0.00688153
-0.242408
-0.231948
-0.181168
-0.238109
-0.146057
0.00345147
-0.230426
0.00497374
0.00375558
-0.204265
-0.240847
-0.240116
-0.15571
-0.235587
-0.233643
-0.0111284
-0.000121178
0.00349532
-0.240152
-0.221807
-0.241928
-0.2346
-0.218545
0.00486027
0.00733563
-0.202757
-0.234716
-0.233254
0.0064784
-0.22721
0.00446878
-0.00192791
-0.24429
0.0056298
-0.223234
-0.229998
-0.244242
-0.148201
-0.239552
-0.240713
-0.250532
-0.0746772
-0.165349
-0.00107015
-0.000306508
0.00367446
-0.2426
-0.11991
-0.23221
-0.235731
0.00705128
-0.152251
-0.153232
-0.0121863
-0.150484
-0.0182714
0.00431461
0.00333844
0.00395317
0.00165802
0.00240631
-0.238535
0.000906464
-0.234524
-0.174594
0.00165038
-0.240148
0.00339258
0.0058053
-0.23017
-0.23084
-0.173413
0.00229281
0.00322272
-0.252199
-0.249081
0.00538243
-0.244622
0.00114237
0.00351971
-0.218578
-0.00092388
0.0042781
-0.0424686
-0.0990011
-0.241198
-0.227721
-0.230698
-0.119321
0.00252517
0.0015518
-0.0127873
-0.224522
-0.243347
0.00218644
0.00551204
0.00339693
-0.22903
0.00277453
-0.177045
-0.228572
-0.124297
-0.0102862
-0.235139
-0.000243741
0.00405778
0.00694265
-0.00157759
0.000999605
-0.226986
0.00323125
-0.0966562
-0.224011
-0.234877
-0.0387094
-0.228852
-0.108136
-0.21959
-0.00961806
-0.162505
-0.0992078
-0.169604
-0.0981049
-0.243171
-0.0971707
-0.0530554
-0.0802663
0.00393029
0.00341831
-0.100226
-0.238941
-0.129191
-0.00584088
-0.120103
-0.00469877
-0.00469952
-0.000321682
-0.000515052
-0.0453911
0.00203929
0.00182285
-0.181779
0.00373059
0.00185869
-0.23186
-0.088802
-0.0491949
0.00211498
-0.0104396
-0.152588
-0.00516054
0.00447575
0.00028957
-0.0925354
-0.0321371
-0.117982
0.00159357
-0.0353885
-0.232043
0.00391894
0.00326816
-0.0576973
-0.234376
-0.243606
-0.247557
-0.241689
-0.0364739
-0.241053
-0.0158593
-0.0061326
-0.00248698
-0.00253354
-0.118504
-0.00223191
0.00143069
-0.00039364
-0.091947
-0.211264
-0.0255792
-0.036829
-0.00636959
-0.0132253
-0.00996031
-0.0067826
-0.0372995
-0.0046727
-0.0498431
-0.0143091
-0.00211603
-0.0190335
-0.0022118
0.00326421
-0.00221391
-0.0014736
-0.0363283
0.000396
-0.000763054
-0.032204
-0.0323524
0.000206994
0.000648595
-0.0081035
-0.0115195
-0.0153375
-0.0208993
-0.0325979
-0.00528449
-0.0445289
-0.00438655
-0.0187323
-0.00245947
-0.0115406
-0.00198537
-0.00128836
-0.0018338
-0.00164692
0.000132853
-0.000541611
-0.00103421
0.000214225
-0.208701
0.00693158
0.000854925
-6.86027e-05
9.3398e-05
0.00414028
-0.00974199
0.000955047
-0.0115148
-0.0162629
-0.00390639
0.00158268
4.28471e-05
0.00361624
-0.0240774
-0.0125896
-0.0644258
0.00449617
-0.00984908
0.00108202
-0.00128886
0.0037893
0.00102817
-0.0277423
-7.67283e-06
-0.0851786
0.00121245
0.00428431
0.00242754
0.00459909
0.00172413
-0.00299818
-0.240441
0.0039637
-0.000417247
-0.0540534
0.00161224
0.00328201
0.00408095
-0.210406
-0.00178944
0.00585448
-0.034571
0.00115254
-0.239397
-0.0206623
-0.0155921
-0.0252145
-0.0181008
-0.0429166
-0.00267031
-0.00522542
-0.00811856
-0.0152559
-0.00335976
-0.00928866
-0.00125476
-0.13076
-0.00187345
0.00187361
-0.033399
-0.0221006
-0.0265519
-0.228673
-0.0105504
0.000753329
-0.0819163
-0.0141868
-0.000269175
-0.000322935
-0.00238884
-0.225373
0.00721243
-0.00957285
0.0026841
0.000692022
0.000655616
0.00308897
0.00200978
0.000338567
0.000100939
-0.00142667
0.00134648
0.00178644
0.00137809
-0.152001
-0.00212229
0.00295752
0.00011252
0.00141622
0.00088596
-0.0490844
-0.00578501
-0.0153745
-0.00376688
0.00319423
0.00445449
0.00086615
0.00409753
-0.101614
-0.0254016
-0.0235616
-0.00199196
0.00193347
-0.00614986
-0.244979
-0.010584
-0.00610545
-0.0144299
0.00151516
-0.000324643
-0.0231916
-0.00102643
-0.00158742
0.00385028
-0.00420436
0.0017929
0.000896519
0.00167659
0.00237907
0.0046226
-0.00142063
-0.00538088
0.000126076
-0.00112462
-0.0346389
0.00136032
-0.00184882
-0.231865
-0.0364744
0.00428457
0.00370833
0.00170765
-0.0224464
-0.0142982
-0.0163895
-0.0103669
-0.00169208
-0.0105373
-0.00577611
-0.0072906
-0.0261506
-0.00259535
0.00492696
7.71305e-05
0.000480855
-0.00785777
0.00100342
-0.222936
0.00279075
-0.0239742
0.00256279
-0.0518309
0.0024982
-0.000375472
-0.0197905
-0.0085879
-0.0712239
-0.0483171
-0.0105152
-0.0860774
-0.00115142
-0.00337474
0.0018883
0.00137747
0.000933827
0.0014782
-0.000884879
0.000952644
0.000775715
-0.0230266
0.00337317
-0.0228074
-0.0277933
-0.0180613
-0.0114888
-0.0786271
-0.00958938
0.0011093
-0.0217928
0.00163162
-0.0534279
-0.00395703
0.00108803
-0.0940319
-0.00374092
0.000742101
-0.0106781
0.00429062
-0.00149818
-0.205603
-0.00434167
0.0010984
-0.00463845
0.00337068
-0.00121137
0.00207202
-0.0105947
-0.249443
0.00346768
-0.00322756
-0.00721158
-0.00952595
-0.0875862
-0.0145983
0.00254223
-0.0141049
-0.00151548
0.00186773
-0.236384
-0.253554
0.000388535
0.000152038
0.00576723
-0.194091
0.00082121
-0.22897
0.00197801
0.00276219
-0.00371316
-0.00178087
0.000997446
0.00101605
0.00148494
-0.0790571
0.00214027
-0.114272
-0.0112721
-0.0345222
0.000684301
-0.0115612
-0.00453522
-0.00877448
-0.00572216
-0.00224707
-0.0194982
-0.00205726
-0.0132497
-0.0173079
-0.0233366
0.00066953
-0.0122348
-0.0151074
-0.00248509
-0.0273633
-0.0179123
-0.0103025
-0.0332611
0.00202047
-0.000288619
-0.000833267
0.000426747
0.00415756
4.10347e-05
-0.0111812
-0.000228055
0.00259645
-0.00905421
-0.00756258
-0.008748
-0.000577655
-0.188524
0.00302943
0.000330974
0.00108197
0.00100598
-0.00285905
0.00153031
-0.0137849
-0.0768431
-0.106839
0.00326479
-0.000549071
-0.019897
-0.0342489
0.00353391
-0.0377933
-0.0044841
-0.00553147
-0.0114885
-0.0342052
-0.00250245
-0.013951
-0.0243448
-0.0145964
-0.0277256
-0.0213691
-0.0259233
0.00309531
-7.29626e-05
0.00033085
0.0016488
-0.00918511
-0.0139036
0.000728843
-0.26311
0.00386632
-0.235513
0.00256414
0.00313388
-0.249664
0.00319894
0.00375325
0.00245336
0.00135268
-0.000780254
0.0018156
0.00243059
0.00162919
-0.037626
-0.243336
0.00235095
-0.00421338
-0.00636407
-0.148828
-0.173583
-0.101936
-0.0170536
0.00235368
-0.00119775
0.00222134
0.00315764
0.00508958
0.00614721
-0.107926
-0.0741644
-0.0325534
-0.0685041
-0.0460479
-0.0838523
-0.101366
-0.0329157
0.00182099
-0.0583235
-0.0204734
-0.0262828
-0.0247776
-0.0116131
-0.0167107
-0.00127161
-0.013585
0.0012904
-0.00981963
-0.00449503
-0.000590868
-0.00201262
-0.00228619
-0.000931581
0.000610199
0.00150944
-0.00577794
-0.139463
-0.0494366
0.00267587
-0.0725435
0.00286365
0.000597262
0.00199554
0.000974964
-0.0033981
0.00119116
0.000176555
0.00102271
-0.00336167
-2.6429e-05
-0.0947148
0.000548061
0.00328902
-0.0661208
-0.000828677
0.0055085
-0.00686477
-0.0404706
-0.00423622
-0.23881
-0.229096
0.00101124
-0.0107796
-0.0132525
-0.0209118
-0.00203634
0.00311993
-0.0142029
-0.00748767
-0.0112801
-0.008355
-0.00540795
-0.00265523
-0.256695
-0.00226238
-0.0306075
0.00219712
-0.000966856
-0.0437736
-0.0015938
-0.00155923
-0.243939
0.000177142
0.00612938
0.00165932
0.00077142
0.00453627
0.00159144
0.0027319
0.00437381
-0.056714
0.00160446
0.00193243
-0.164785
0.00306322
0.00354006
0.00358393
-0.184011
0.000610455
0.00180303
-0.0676544
0.00169276
0.00189805
0.00253646
0.000334224
-0.000428217
-0.238987
0.00051011
0.00279836
-0.0105744
-0.0203322
-0.0733262
-0.0156227
-0.00859183
0.00151657
-0.000656817
0.0010038
-0.00173462
0.0030268
-0.0484797
-0.000636568
0.00470924
0.00234653
-0.0031451
-0.000825143
-0.220641
-0.238302
0.00305536
0.00101418
0.00396012
-0.140285
-0.000674852
0.00105109
-0.0171461
0.00192441
-0.229024
0.00262105
0.00411468
0.00320098
-0.003788
0.000587074
-0.00255669
-0.0133292
0.00242386
-0.0243902
-0.0027337
0.00420747
-0.00683143
0.00286983
-0.00533593
-0.0121941
-0.00635699
-0.012867
-0.00203436
0.00317219
-0.0033987
-0.0057738
-0.00186437
0.000180904
-0.00385433
-0.00301561
-0.0332353
0.00401845
0.0014744
-0.0509146
0.00324959
-0.00279605
-0.0764417
0.00421342
-0.00156066
-0.110691
-0.000630425
0.00117862
-0.0909129
-0.0454389
-0.145419
0.00425303
0.00495279
-0.0518746
0.0018815
0.00395279
-0.0888072
-0.0262893
-0.0422701
-0.000718342
-0.0622624
0.00202447
-0.00250166
-0.0408279
-0.0169799
0.00193524
-0.0155271
-0.0597368
-0.261727
0.00231361
0.00121025
0.00312831
0.00293556
0.00413495
0.00114916
0.00233026
-0.227376
-0.00234134
-0.000962765
-0.0429142
-0.00168701
-0.0237242
0.00244239
-0.131278
0.000182546
-0.00251488
-0.149566
-0.000211066
-0.000676937
0.00312161
3.12189e-05
-0.242351
0.00377363
-0.0813037
-0.00628598
-0.023771
-0.237828
-0.230852
-0.0456237
0.00248917
0.00285838
-0.155282
0.00264903
0.00360455
0.0020036
-0.103085
0.00441679
0.00438013
0.000217599
-0.0874563
-0.00158055
-0.000485998
-0.00179304
0.00152757
-0.247079
-0.00538329
-0.00689446
-0.0775694
0.00102754
-0.242094
0.00244311
-0.236951
0.00401223
-0.0894524
-0.00214218
0.000346563
0.00273898
-0.00292555
-0.00689106
-0.00432987
-0.0119148
-0.0230539
0.00121283
2.86915e-05
0.00427143
-0.0225297
-0.0208292
0.00274136
-0.00204092
-0.000731882
-0.00355609
-0.00739048
-0.0081101
0.00078705
-0.0101993
-0.00911507
-0.0706244
-0.00325084
-0.141503
0.000989262
-0.00714815
0.00307096
0.0033996
-0.231358
-0.0529628
-0.0295043
0.00302742
-0.04
-0.00102025
0.000416058
-0.0558599
-8.14516e-05
-0.196282
-0.241983
-0.0774794
-0.00755859
0.00194107
-0.244075
-0.00599153
-0.00966427
-0.00438359
-0.0469824
-0.166573
0.00217844
0.00262218
-0.230628
-0.224327
0.00242736
-0.0672631
-0.0800122
0.00114972
-0.239568
0.00224012
-0.0921686
-0.000810868
-0.0582327
0.00614141
-0.0476975
-0.178029
0.00270619
-0.234171
-0.0823837
0.00451682
-0.241708
0.00216495
-0.0436309
-0.0777187
-0.23345
0.00412737
-0.0269174
-0.150471
0.000634218
-0.0702796
-9.96514e-05
0.00261232
-0.00038361
-0.00726266
-0.0615089
0.00262459
0.00442709
-0.111561
-0.00513947
0.00250822
0.000159076
0.00388816
-0.00322177
-0.00213352
-0.0616405
-0.186504
-0.0638151
0.00342873
-0.00719568
0.00354617
-0.00292587
-0.00698196
-5.62063e-05
-0.238094
0.00377328
-0.0691543
-0.238689
0.00258791
0.00472934
-0.0118254
-0.026638
-0.0753965
-0.148695
-0.01218
-0.00042086
-0.00744293
0.00428499
0.00369322
0.00282962
0.00459433
0.00380074
0.00139223
-0.0740539
-0.241347
-0.000242652
0.000809319
-0.000880472
-0.187831
0.00142432
-0.00789701
-0.0023286
-0.0019187
0.0012658
-0.00535512
-0.0229007
-0.0233789
-0.00533389
0.0038399
-0.00819942
-0.215878
-0.233792
0.00107026
0.00340821
-0.0223666
-0.00411253
0.00176283
0.00264234
-0.000649974
-0.00703879
-0.00600536
-0.241526
0.00379879
-0.225149
0.00234139
0.00438219
-0.163986
-0.00648955
-0.069408
-0.00594026
-0.0115882
-0.0159668
-0.00814484
0.00132318
-0.0579847
0.00526204
-0.00060187
-0.000363152
-0.00415068
-0.231646
-0.00757789
-0.00261795
-0.00768128
-0.0465102
-0.232891
-0.0127693
0.00502792
-0.183982
0.00384077
0.00368154
-0.0259625
-0.172741
-0.239909
-0.243374
-0.00571684
0.00276293
-0.0212776
0.00431042
-0.184634
-0.0525327
0.00459831
-0.0106872
-0.116051
-0.000337531
-0.184943
-0.0112751
-0.0334841
-0.0042348
-0.105357
-0.0637793
0.00501412
-0.001362
-0.238384
0.00516929
0.00466561
-0.0758384
0.00465662
-0.0100163
-0.0742772
-0.0365887
-0.235306
0.00562661
0.00257635
0.00265183
-0.239109
0.00489202
-0.00173087
-0.00391182
-0.236559
0.00245106
9.56481e-05
0.00362415
-0.238306
-0.0394252
0.00368703
-0.00699272
0.00364557
0.00430359
0.00664338
-0.207215
-0.0188428
0.00354548
0.00410214
-0.129995
-0.0355648
-0.000671411
-0.0151571
0.00378714
0.00420104
-0.235579
0.0038185
-0.0263683
0.00347672
-0.0166331
-0.235706
-0.23981
-0.237466
-0.212216
-0.177182
0.00520193
-0.0697831
0.00370132
0.00446999
0.000300279
-0.175654
0.00380576
-0.224679
-0.245326
0.00240619
0.00212948
-0.219052
-0.243775
-0.0638154
-0.210139
-0.0802015
-0.180739
0.00355538
-0.0774165
-0.248445
0.00288549
-0.220445
0.00310651
0.00406095
-0.142986
-0.245215
-0.240204
-0.156455
-0.125142
-9.57395e-05
-0.250457
0.00195136
-0.0876333
0.00434229
-0.192765
-0.0575902
0.00320224
-0.135398
0.00442665
0.00322354
0.00148621
-0.248755
-0.221951
-0.234854
-0.235624
0.0025489
-0.121374
0.00457248
0.00649263
0.0020646
-0.0374698
-0.239482
0.0031506
-0.00310109
-0.154223
-0.223858
-0.0117711
0.00495116
-0.231727
0.00262383
0.00178123
8.42898e-05
0.00567526
0.00104084
0.00382915
0.00460821
-0.224163
0.00248327
0.000720365
0.00350202
-0.0311406
-0.231744
-0.0755628
0.00195828
-0.234162
-0.0540544
-0.0416463
0.00482113
-0.24423
-0.00426855
-0.249838
-0.235267
-0.236863
0.00153771
0.00226025
-0.161859
-0.132347
0.00477109
0.00207022
-0.121805
-0.141928
-0.184583
-0.012659
-0.246593
0.00381439
-0.234059
-0.00268985
-0.235315
0.00414184
0.00283338
-0.0034049
-0.00261067
-0.241264
0.00279075
-0.23069
-0.236114
-0.00912014
-0.0167577
-0.0839678
-0.246408
-0.129493
0.00479064
-0.0570961
-0.0542608
-0.163505
0.00373764
-0.229726
-0.112024
-0.229677
-0.238453
0.00551901
0.00469559
-0.0411069
-0.229047
-0.00918151
-0.142541
0.00797596
0.00359251
0.000362159
0.000887041
-0.242179
0.00171103
0.00379862
-0.184531
-0.0284231
-0.176031
-0.148083
-0.243789
-0.228007
-0.142556
-0.221228
-0.224728
-0.0614545
-0.0110636
-0.244674
0.00467605
-0.226802
0.00195599
-0.24194
-0.244278
-0.000251094
-0.00417671
0.000195007
0.000945862
-0.000793434
0.00410673
-0.0066979
0.00404092
-0.135559
-0.109081
0.0015931
-0.0584791
-0.0395824
-0.222027
-0.244236
-0.232554
-0.234644
-0.237222
-0.161136
-0.247399
-0.0211247
0.00690567
-0.244597
0.00167006
-0.224444
-0.062085
-0.00605768
-0.240753
-0.0470775
0.000776454
-0.232598
0.00209576
-0.193405
-0.0969253
-0.022831
-0.222448
0.00184568
-0.123824
-0.00246237
-0.000496629
-0.176881
-0.260668
-0.00370723
-0.000189917
-0.00169387
-0.00942116
0.00228183
-0.227584
-0.00692779
-0.00371358
-0.159287
0.0013839
-0.239312
-0.0222933
0.00586417
-0.034881
-0.234127
-0.242828
-0.236479
-0.239238
-0.205259
0.00495314
-0.21581
0.00296789
0.00413389
-0.228179
0.00473494
-0.232815
-0.172945
-0.184874
-0.235733
-0.0096276
-0.215333
-0.00150735
0.00255636
-0.00178943
-0.00246626
-0.230606
6.3263e-05
0.00168308
-0.00655957
-0.226698
0.00353433
-0.220617
-0.235963
-0.00496133
-0.245366
-0.238773
-0.176473
0.00317866
-0.236304
-0.00122671
0.00184005
0.00479842
-0.238999
0.00277813
0.00675391
0.00471347
-0.0817331
0.000898681
-0.231094
4.55859e-06
-0.00391538
-0.0157372
0.00454291
-0.183934
0.00056521
-0.00141948
-0.131001
0.00664375
-0.00319325
0.00130213
-0.241029
-0.0245088
0.00596647
-0.248575
-0.166281
-0.169505
0.00271021
0.00410902
-0.228291
-0.166755
-0.215126
-0.148932
-0.218987
-0.215058
0.00857772
-0.226696
-0.200764
-0.00186419
-0.235692
0.00558595
-0.241948
-0.241169
-0.240394
-0.030745
-0.201092
-0.262014
0.00146592
0.00115344
0.00315271
-0.227377
-0.230264
-0.225278
-0.250957
-0.19331
-0.00829933
0.00482048
-0.184686
-0.241617
-0.230794
-0.00919119
-0.1207
0.00186345
-0.234098
-0.246617
-0.23659
-0.23952
-0.239719
-0.231097
0.0014183
-0.221634
-0.232937
-0.2559
-0.204594
-0.236835
-0.0148817
-0.232328
-0.241019
-0.00185161
-0.224344
-0.211352
0.00127128
-0.231153
-0.00933503
-0.256039
-0.227436
-0.16353
-0.171608
-0.231342
-0.0150059
-0.1689
-0.23102
0.00190184
-0.191365
0.000646242
-0.0029888
-0.0608876
0.00372402
0.00123133
-0.0534819
0.0050647
0.00177848
0.00394793
0.00327557
-0.181617
0.00390525
-0.0735073
-0.253894
-0.236297
0.00383939
-0.0173611
-0.000448056
-0.227123
0.00518358
-0.233056
-0.206684
-0.0219937
-0.216222
-0.235077
-0.227059
-0.0531523
-0.00232091
-0.203221
-0.213674
-0.238124
-0.000601848
0.00283094
0.00235748
-0.0155174
-0.188329
0.00155729
0.00404688
0.00127957
-0.239268
0.00504206
-0.0205056
-0.00873095
-0.00609252
-0.239414
-0.00842287
-0.00350528
0.00104592
-0.189064
-0.000814878
-0.22892
-0.0019175
-0.0124372
-0.00187066
-0.0292547
-0.240326
-0.242419
-0.233606
-0.252683
-0.0188026
-0.0210244
-0.216265
0.00145143
-0.241392
-0.00701426
0.000995137
7.78804e-05
-0.119281
-0.218075
0.00566316
-0.131153
-0.255289
-0.232084
-0.23779
-0.19557
-0.0027098
-0.239658
-0.243659
-0.00199969
-0.0440388
-0.214601
-0.129867
0.000153203
-0.230546
0.00263791
-0.195923
-0.132408
-0.221316
0.00485953
-0.00497409
-0.216847
0.000880313
-0.0373271
0.00231558
-0.189664
0.00390643
-0.23001
0.00160315
-0.223394
0.00563864
0.00803621
-0.00168716
-0.0101148
-0.203754
-0.22433
0.000314849
-0.000633683
-0.00219326
-7.63757e-05
-0.0221444
-0.000769862
-0.22083
-0.246752
-0.219911
0.00160109
0.00442392
-0.236415
-0.228667
-0.220707
-0.244987
-0.212624
0.000896904
-0.201064
-0.206242
0.00342673
-0.218299
-0.0300993
-0.0497379
0.000338123
-0.196748
-0.000346997
-0.233952
0.000536481
-0.239415
-0.230164
0.00413545
-0.219932
0.0014425
-0.241157
-0.183955
-0.00549061
0.00200429
-0.220642
-0.239766
-0.00421591
-0.255593
-0.165319
0.00404819
-0.242545
8.84188e-05
-0.241403
0.00354281
0.00212506
-0.00690565
-0.21289
0.000942254
-0.230758
-0.0282358
0.00492444
-0.000639184
0.000665175
0.00347168
-0.00130712
-0.239844
-0.118714
-0.0136781
-0.103878
-0.0136637
0.00355299
0.00232728
0.00491268
-0.207478
-0.105197
0.00251567
-0.0100159
-0.0208473
-0.00208958
-0.236447
-0.0547001
0.00370822
-0.000351462
-0.233165
0.002459
0.00113603
-0.234225
-0.197632
-0.000894499
0.000610498
-0.239221
-0.220296
-0.244425
0.00433927
0.00441958
-0.242027
-0.00437877
0.0055236
-0.00113154
-0.174708
-0.158137
-0.23208
-0.000125366
-0.214886
-0.219705
-0.230297
-0.223397
0.00420206
-0.063287
0.00731468
-0.241147
0.00426763
0.000915398
-0.0278485
-0.0547078
-0.00577674
-0.0200445
0.00539555
-0.00121278
-0.00525781
-0.230051
-0.00469342
-0.21479
-0.252376
-0.148149
0.00329064
-0.212032
-0.114051
-0.239725
-0.23413
-0.00988162
-0.0632958
0.00837629
-0.0567862
-0.190711
0.00251305
-0.236109
-0.00218941
0.00134056
0.00655698
0.00297358
-0.232771
-0.000281304
0.00445897
-0.231317
-0.23134
0.00434839
-0.224806
-0.225965
-0.221867
-0.224669
-0.257482
-0.239076
0.00308083
-0.192674
-0.059227
0.000662305
-0.00742003
0.00445601
0.00695335
0.000606215
-0.165019
-0.240744
-0.216171
0.00591037
-0.240522
0.00391479
0.00583773
0.000591336
-0.209
-0.258266
-0.00835455
0.00377306
-0.234619
-0.239039
-0.252255
-0.21306
-0.118843
-0.180064
-0.00163051
0.00151861
-0.00156497
-0.00127255
-0.232665
0.00366906
-0.0883123
-0.170917
-0.257889
-0.218084
0.00432861
0.00607427
-0.203415
-0.22923
-0.235218
-0.0234974
-0.0562814
-0.24251
-0.235251
-0.214288
-0.241235
-0.214635
-0.242329
0.00589933
-0.00588715
-0.00556761
-0.240715
0.00256888
-0.000104039
-0.000932209
-0.163478
-0.0488404
-0.220772
-0.237967
-0.230248
0.00356983
-0.180042
-0.199416
-0.253925
-0.0012988
-0.235949
-0.179775
-0.249741
0.0019232
-0.181906
-0.219995
-0.255398
0.000679785
-0.0589535
-0.00673018
0.00397521
-0.00262823
-0.246353
-0.0197692
-0.232713
-0.227203
-0.250496
0.00402776
-0.232257
0.00303884
-0.234289
-0.0111547
-0.153418
0.00369604
0.00283539
-0.216045
-0.241445
0.00155398
-0.212693
-0.1098
-0.0183315
-0.00182986
0.00138251
-0.232887
-0.259787
0.00541142
0.00404967
0.0029516
-0.119328
0.00460817
0.00426842
-0.0252632
-0.00983835
-0.228609
-0.00164533
-0.247985
0.00322557
-0.251065
-0.233532
-0.102655
-0.208766
-0.244031
0.00310216
0.0043024
0.00623635
0.0054985
-0.260875
0.00105679
0.00525502
-0.211931
-0.241547
-0.230965
-0.133824
-0.254615
-0.000557717
0.0060734
0.00425817
-0.239452
-0.238349
0.00352137
-0.23074
-0.00209749
-0.220635
-0.221691
-0.249169
0.00140621
-0.212581
0.00352814
0.00149207
-0.249385
-0.242674
9.69063e-05
0.0056134
-0.235614
-0.225233
0.00114109
-0.00159032
-0.214797
-0.23819
0.000627036
0.00350667
-0.242311
0.000126772
-0.194345
0.000520641
-0.239401
-0.222867
0.0019562
-0.213524
-0.23526
-0.0602287
-0.211268
-0.217095
-0.15169
-0.206601
-0.0304822
-0.00307467
-0.00411558
0.000877149
0.00404333
-0.233746
-0.00584195
-0.23688
-0.220857
0.0019091
0.00666624
0.00549981
0.000562831
0.000835582
-0.00185153
-0.00547541
-0.00166041
0.00710605
-0.00496148
0.00505733
0.00339306
0.00397038
0.00322418
-0.0337227
-0.0616506
-0.229311
-0.240848
-0.235846
-0.232006
-0.00351678
-0.246984
0.00457211
-0.250497
-0.00223757
-0.0198389
-0.196445
-0.228341
-0.00231487
0.00631399
0.00140889
-0.258044
-0.0596006
-0.234049
0.00510428
-0.0011467
0.00140138
-0.158401
-0.234568
-0.0408689
-0.0030812
0.00342851
-0.00448296
-0.00388974
-0.105363
-0.0422056
-0.00363653
0.00041168
0.00543949
-0.000229125
-0.148864
-0.231841
-0.246006
-0.0589914
-0.244999
-0.148995
-0.239418
-0.0753245
-0.221926
-0.222932
-0.245906
0.00317289
-0.233986
-0.175987
-0.23662
-0.248053
-0.214961
0.00220276
-0.236837
-0.00351537
-0.246538
-0.214469
-0.240545
-0.00224836
-0.0156514
-0.210008
-0.233118
0.00523384
-0.242332
-0.229192
0.00206022
0.00143896
0.00141439
0.00495153
-0.00414869
0.0041701
0.00358403
-0.230393
-0.00278574
-0.198063
-0.212844
-0.239771
0.00377647
-0.221258
-0.215407
-0.256767
-0.010647
-0.229984
0.00361468
-0.23594
-0.156362
-0.213812
0.000907388
0.00430295
-0.00255792
-0.244892
-0.232824
-0.0341683
0.00715841
-0.240678
-0.14777
0.00337745
0.0018597
-0.00991628
-0.230328
0.00179482
-0.00108429
-0.235562
-0.230555
0.00377239
-0.228854
-0.165671
-0.232046
-0.017788
-0.25469
-0.231445
0.00369941
-0.0411688
-0.23866
-0.228691
-0.00272317
-0.251951
-0.213509
-0.236539
-0.234458
-0.235649
-0.201583
0.00318814
-0.237283
0.00540353
0.00301582
0.00508047
-0.0477121
-0.00294857
-0.251397
-0.215687
-0.239925
-0.130886
0.0058332
-0.215291
0.0036237
-0.0216068
-0.254242
-0.217669
-4.54819e-05
0.00364251
-0.212918
0.00430431
-0.226389
0.00624628
-0.234616
0.00448752
-0.236076
-0.0030257
-0.228837
-0.0191805
-0.0396374
-0.220751
-0.254296
-0.224833
0.00300678
-0.251513
-0.110703
-0.231966
-0.199703
-0.0312003
-0.0775677
-0.050319
0.0026407
-0.153628
-0.186017
-0.0170904
-0.203171
-0.229285
-0.00281569
-0.23285
-0.000558467
-0.202114
0.00409064
0.00392428
0.000845348
-0.040999
-0.238232
-0.239152
-0.016086
-0.0832654
0.00189966
-0.00255268
-0.00269465
-0.0019031
0.00339945
-0.0025336
-0.00219669
-0.00344573
0.00420645
-0.216849
-0.218181
-0.00385083
-0.00536756
-0.206621
-0.238805
-0.0452835
0.00671705
-0.000298749
-0.242662
-0.0343408
0.00417429
0.000361767
-0.244589
-0.0284189
0.00411556
-0.00167467
-0.0552669
-0.243884
-0.215673
-0.0446116
-0.251223
-0.243651
-0.0020719
-0.208287
-0.236929
0.00447888
-0.229075
-0.00898708
0.00102962
0.00035169
-0.246033
0.000320698
-0.21531
-0.17799
0.00316398
-0.0280528
-0.252546
0.000250495
-0.234226
0.0029301
-0.196012
-0.212448
-0.00202371
-0.23417
-0.223076
-0.00210338
-0.00200224
-0.231623
-0.000585141
-0.221089
-0.247368
-0.238422
-0.0106969
-0.0060102
0.00132002
-0.23729
0.00613331
0.00831582
-0.00343812
-0.0469297
0.00298543
-0.00246818
-0.00790103
0.00343473
-0.20669
-0.238034
-0.025332
0.00132259
-0.220094
0.00326955
8.65414e-06
-0.00730321
-0.215345
0.00384904
0.000863628
-0.235385
0.00326516
0.00371529
-0.00262035
-0.19306
0.00291195
-0.111794
-0.240139
0.000804541
-0.237294
-0.0245807
0.00242858
-0.236116
-0.227274
-0.246589
0.000281144
-0.0807203
-0.00387235
-0.249506
-0.228356
0.00253207
-0.0650076
-0.00235948
-0.239089
0.00103744
0.00138097
0.000676406
0.00363145
0.00103181
0.00233233
-0.224058
-0.00706502
0.00544933
0.0005472
0.00223819
-0.239062
-0.213528
-0.263919
-0.0124842
-0.0021225
-0.233767
0.00567044
0.00256785
0.000227978
0.00388658
0.00435913
-0.0385748
8.99311e-05
-0.000216707
-0.090109
-0.238779
-0.243585
-0.263411
-0.20866
0.00311999
-0.225729
-0.242531
-0.0568932
-0.222401
-0.256907
-0.223769
-0.131191
-0.000349476
-0.232414
0.000585796
-0.228873
0.00133942
-0.130188
0.00102587
0.000155711
-0.228926
-0.193279
-0.218418
0.00233079
-0.0305765
-0.0326937
-0.0385844
0.0052455
0.000151608
-0.0180367
-0.235834
-0.0113485
-0.235394
-0.0231659
-0.00155343
-0.235407
-0.00232491
-6.71918e-06
-0.031242
0.000703503
-0.167444
-0.257446
0.00135628
0.00206441
-0.205377
-0.0104848
-0.212611
-0.230787
-0.112836
-0.00635155
0.000909176
-0.213123
-0.222349
0.00655286
-0.00200293
-0.238777
-0.00292586
0.00337041
-0.0624347
-0.000760578
-0.242449
-0.020643
-0.216072
0.00100049
-0.0244528
0.00376459
0.00303164
0.00550261
-0.109519
-0.00287833
0.000223768
0.00128707
-0.23283
-0.238144
0.00168206
-0.0517028
-0.21762
-0.136572
0.00634149
-0.23544
-0.223396
-0.245097
0.00268154
-0.227975
3.62412e-05
-0.215061
0.00302996
-0.232857
-0.251874
-0.238766
0.00101822
0.00203214
-0.237869
-0.267295
-0.267771
-2.17664e-06
-0.246001
0.00609123
0.00594187
-0.235227
-0.233907
0.00268496
-0.202959
-0.0226581
0.00250337