/*--------------------------------*- C++ -*----------------------------------*\
  =========                 |
  \\      /  F ield         | OpenFOAM: The Open Source CFD Toolbox
   \\    /   O peration     | Website:  https://openfoam.org
    \\  /    A nd           | Version:  10
     \\/     M anipulation  |
\*---------------------------------------------------------------------------*/
FoamFile
{
    format      ascii;
    class       surfaceScalarField;
    location    "400";
    object      phi;
}
// * * * * * * * * * * * * * * * * * * * * * * * * * * * * * * * * * * * * * //

dimensions      [0 3 -1 0 0 0 0];

internalField   nonuniform List<scalar> 
38623
(
0.207263
-0.206766
0.0755436
-0.0760413
-0.0617373
0.076095
0.124773
-0.13913
-0.00637733
0.0131125
0.0427083
-0.0494417
0.0034873
-0.00195248
-0.0210143
0.0194798
0.0164657
0.0378418
-0.0363632
-0.0179425
-0.109228
-0.226179
0.210585
0.124822
0.0846922
-0.0699481
0.0782516
-0.0929955
-0.00820219
0.00832101
-0.00637167
0.00625292
0.0139874
0.0199134
-0.203156
-0.0293486
0.0691752
-0.293859
0.25403
0.108094
0.122768
-0.113297
-0.117567
-0.201169
0.177944
-0.00397065
0.0271964
0.410863
-0.0400107
-0.416967
0.046114
-0.194384
0.17645
-0.00629104
0.0242249
0.0371999
0.0486327
-0.0534277
-0.032405
0.0355652
-0.266479
-0.0385248
0.269438
-0.0112789
0.345523
-0.00241492
-0.331832
-0.00845008
0.245415
-0.00794286
-0.229022
0.00558525
-0.0240358
0.362704
-0.344255
0.363683
-0.256722
0.219292
-0.326253
0.169476
0.128646
-0.0392985
-0.258825
0.108799
0.0804455
-0.0811512
0.294266
-0.252672
0.000245071
-0.0418399
-0.180628
0.24428
-0.224118
0.160465
0.0357006
0.230284
-0.035925
-0.23006
-0.0295875
0.496793
-0.475393
0.00819055
0.0273047
-0.169877
-0.0521642
0.194737
0.199664
-0.162992
-0.434648
0.397976
-0.00893588
-0.000773762
0.00143196
0.00827778
-0.247315
0.263017
0.34798
-0.0144064
-0.0189489
0.0191365
0.0142188
0.00573496
-0.0015096
0.000763925
-0.00498948
0.0354868
-0.037706
-0.0385019
0.0407214
0.268463
-0.0226195
-0.254294
-0.00844709
-0.0113456
-0.217277
0.23707
-0.313022
-0.157503
0.131614
0.33891
-0.000557918
0.000121137
-0.00721994
0.00765667
0.00585515
-0.215471
-0.131776
0.149452
0.00384007
-0.0215154
-0.0496396
0.0629165
0.277707
-0.290982
0.0575575
0.366046
-0.380894
-0.0427095
0.243809
0.168793
-0.229296
-0.183306
0.289632
-0.160535
0.288986
-0.418085
-0.376276
0.186509
0.305625
-0.115858
0.500153
0.193994
-0.421676
-0.272472
-0.0258536
0.0648543
-0.382726
0.343725
-0.00115392
0.0173135
-0.00840293
-0.00775491
-0.234858
0.170618
0.140793
-0.0765527
-0.00101289
0.00200605
0.000962264
-0.00195537
0.00734568
-0.000475428
-0.00751254
0.00064244
-0.00496566
-0.00126008
0.00135478
0.00487109
-0.0141712
0.0363139
-0.0315597
0.00941783
-0.00188786
0.000709478
-0.0016435
0.00282148
-0.32824
-0.0983294
0.25495
0.171619
-0.000974841
0.000420436
0.00628927
-0.016492
-0.353333
0.358545
0.0438981
-0.0277279
-0.0602624
0.044093
-0.00451152
-0.00790087
0.00838748
0.00402496
-0.135062
0.174346
0.130191
0.0104745
-0.0102499
0.00528454
-0.00550849
-0.00860065
0.00375507
-0.00330062
0.0081463
-0.308605
-0.102012
0.0343401
-0.305758
0.295336
0.0716662
-0.0612451
-0.0055021
-0.00664225
0.00776932
0.00437514
-0.200597
-0.270985
0.290954
-0.445811
0.313596
-0.205352
0.337568
-0.160655
0.136976
-0.0250599
0.0487394
-0.461983
0.358733
0.146839
-0.0435878
0.0949449
0.443891
-0.0386838
-0.344776
-0.0565949
0.0562435
0.345127
0.00860563
-0.00275053
-0.00877282
0.00291783
0.0211477
-0.00894906
-0.0185753
-0.0436005
-0.0164959
-0.454156
0.514248
0.061636
-0.0613754
0.0369392
0.334711
-0.319684
-0.215625
0.0409683
-0.0630964
0.0621872
-0.0400591
0.0190664
-0.165324
0.159883
-0.0136252
0.101527
0.171075
-0.175963
-0.0966395
-0.0115086
0.00545785
-0.00536625
0.0114171
0.0361285
-0.0293074
0.306312
-0.313133
-0.103397
0.210716
-0.195136
0.0878174
0.0425058
-0.0579138
-0.0914407
0.106849
0.0764268
-0.0942656
-0.0101704
0.00807872
-0.000248339
0.00234006
-0.0232905
0.0507986
-0.0301772
0.00266942
-0.216429
0.22608
-0.0209972
-0.0594183
0.0964165
-0.101082
0.0640839
-0.00141384
0.000430601
0.000308982
0.000673937
-0.241349
-0.0809176
0.110119
0.212147
0.323311
-0.325757
0.0385746
-0.00681382
-0.000348097
0.00651007
0.000651939
-0.385464
0.0611419
0.366094
-0.0417729
0.00367956
-0.00699092
-0.00219067
-0.301322
-0.1726
0.18409
0.28983
-0.00692112
-0.00315169
0.00516721
0.00490564
-0.00732095
0.000118678
-6.18873e-05
0.00726426
0.438215
-0.101663
-0.348104
0.0115518
0.0657771
-0.0903674
-0.210269
-0.230971
-0.0204507
0.0521151
0.199306
0.00735156
0.0110179
-0.00190202
0.30787
0.0576136
-0.0854718
-0.280012
-0.0380147
-0.0981569
-0.0244831
-0.0560865
0.0209252
-0.131527
0.166687
-0.00662366
4.18167e-05
0.00658514
-3.07662e-06
0.00144448
0.00674567
-0.00769813
-0.000491871
0.000258049
0.0016603
-0.0120887
0.2374
-0.0912604
-0.255367
0.18104
0.347664
-0.137419
0.141494
-0.0420893
0.320179
-0.284894
-0.11748
0.0821954
-0.106691
0.148957
0.0865244
-0.128791
-0.24982
0.0735548
0.18212
0.0618132
-0.0460174
-0.039086
-0.00203738
0.26124
-0.00318593
-0.256017
-0.126606
-0.303335
0.116917
-0.282239
-0.0481276
0.0535278
0.276837
-0.15901
0.316145
-0.460914
0.30378
0.045078
-0.2586
-0.0464781
0.26
-0.000180273
0.000381994
-0.00913756
0.00560434
-0.00650043
-0.00443159
0.00532775
-0.109115
0.0204666
0.190176
-0.0001876
0.00574275
0.000233752
-0.00578887
-0.034461
-0.343619
0.0331439
0.344936
-0.0024026
-3.39675e-05
0.0100252
-0.00758796
-0.088556
0.0828628
-0.0924636
-0.0670148
-0.585203
0.47908
0.173144
-0.00844247
0.00265516
-0.00281325
0.0077051
-0.000118387
-0.000240919
0.00179553
-0.0139576
-0.00817888
0.0203414
0.00638363
-0.0150149
-0.00143892
0.0100715
0.00847961
0.01425
-0.00719514
-0.0155342
0.0242335
0.157975
-0.14468
-0.0375291
0.139122
-0.00329163
-0.016217
-0.119614
-0.182177
0.17278
0.0468075
-0.037411
0.373548
0.0781397
-0.174474
-0.277214
-0.0928228
0.211274
-0.174538
3.12798e-05
0.00622572
-0.00629044
3.36154e-05
0.0377115
0.1593
0.0512301
-0.113774
-0.162007
0.22455
-0.0959737
0.135273
0.00847931
-0.0085333
-0.000126235
0.153048
-0.166631
-0.231623
0.245205
-0.130512
-0.21886
0.201159
0.148214
0.0763045
0.274124
-0.105308
-0.24512
0.322358
0.00962136
-0.0314816
-0.300498
0.429377
-0.178694
0.0694945
0.26117
-0.0469973
-0.257568
0.0433941
-0.0757196
0.0409576
-0.020096
0.0548582
-0.00150093
0.000459597
0.00710183
-0.0060603
0.0181917
-0.332916
0.348104
-0.033381
0.0523402
-0.00225578
-0.0442334
-0.00585092
0.239639
-0.106324
-0.40981
0.27649
0.0794695
-0.0964729
-0.0624212
0.0794259
-0.0401216
0.374872
0.125841
-0.460591
0.0388737
-0.040024
0.0284535
-0.0273031
-0.0545291
0.0412438
0.264943
-0.251658
0.0141895
0.0923026
-0.0855677
-0.249321
0.143803
0.213504
-0.107985
-0.0128131
0.0164111
-0.0094903
0.00589237
0.00228458
0.0101137
-0.00829941
-0.00409875
0.0464309
0.342351
-0.344159
-0.044624
0.0863714
0.0285631
-0.0464156
-0.068519
0.00261249
-0.00939816
-0.00144088
0.00822662
-0.130998
0.13393
0.405699
0.00137827
-0.361404
-0.0456768
-0.00303927
0.329064
-0.307833
-0.165124
0.163795
-0.0564865
0.0578165
-0.00628545
-0.00162517
0.00708757
0.000823106
-0.202408
0.360741
0.183503
-0.341837
0.254053
0.119086
-0.220092
-0.15822
0.0279732
0.164158
-0.0339098
0.0176619
0.00357607
-0.0177502
-0.191227
-0.264705
0.184946
0.00452847
-0.00485792
-0.00207289
0.247492
-0.473939
0.292593
-0.0661422
-0.0134521
0.000330311
0.010435
0.00268692
0.304144
0.0430428
-0.304905
-0.0422814
0.0444718
0.22388
-0.0460781
-0.222274
-0.215212
-0.0291082
0.22679
0.0175305
-0.182797
0.154714
-0.117627
0.145711
0.00238571
0.0225634
-0.0112213
-0.0137276
0.00872183
0.00617488
-0.0125098
0.0770134
0.0342714
-0.0703165
-0.0913
-0.129221
0.0741701
0.146351
-0.0346446
0.077788
-0.355416
0.312272
0.375325
-0.36453
-0.0272879
-0.173665
0.0752802
-0.00442129
0.00492042
0.00757964
-0.00714088
-0.000778573
0.00540603
0.00251345
0.256163
-0.178984
-0.00265058
0.00441134
0.00620589
-0.00796663
-0.333451
0.0645737
0.032643
0.236234
-0.264418
0.316916
-0.102137
-0.263056
0.126137
-0.161177
0.298098
-0.0431488
-0.292452
0.0501871
0.285414
0.126138
-0.168234
-0.250763
0.292859
0.000429139
3.67281e-05
-0.00714385
0.00667815
-0.0005127
0.00670076
-0.00883865
0.00207903
-0.00598992
-0.000584299
0.00449538
0.153983
-0.121735
-0.13894
0.28956
-0.0255352
-0.267065
-0.228235
-0.273529
0.239819
0.261947
-0.00254374
0.00706622
-0.00602329
0.00821663
-0.125381
-0.0281734
0.145336
0.00910877
-0.00660647
-0.0107045
0.00281868
-0.00953014
0.00932402
-0.036954
0.0174071
0.028819
-0.00927206
-0.0555161
-0.174423
0.0697974
0.160142
0.189689
-0.00422526
-0.0589349
-0.126529
-0.0894885
0.213776
0.0622958
-0.186583
0.277615
-0.03692
-0.270002
-0.00804484
-0.000655364
0.00814236
0.31684
-0.307311
-0.044174
-0.394317
0.218802
-0.0268953
-0.00319022
-0.00111189
0.00241432
-0.00447498
0.00112234
0.00921353
-0.00586095
0.119611
-0.0157863
-0.0956089
0.037575
-0.269876
-0.000193088
0.00710801
-0.00118517
-0.00572946
-0.0176421
-0.0109291
0.0121143
0.016457
0.0676312
-0.0424464
-0.441042
0.415862
-0.0398988
0.0384384
-0.00659809
0.000362404
0.000111251
0.00612445
0.283157
-0.0645813
-0.273105
-0.0925972
0.280742
0.0220242
0.032492
-0.0151716
-0.0393446
-0.000134421
0.00693203
-0.00727283
-0.265369
0.0580564
-0.220172
0.0566682
-0.00317515
0.16668
0.365019
0.0401096
-0.364229
-0.0409006
-0.183064
0.215869
-0.251345
0.218541
-0.00242214
-4.5743e-06
-0.00223694
-0.0555335
-0.192049
-0.498949
0.515696
-0.0463337
0.0631419
-0.0406002
0.0153011
0.0104856
0.00029367
-0.00657217
-0.00420711
-0.208824
-0.302087
0.0269902
-0.00797767
0.00201019
-0.0210225
0.0536374
-0.411219
0.458999
-0.101412
-0.00964127
-0.00602463
0.00894699
0.00671921
-0.00139761
0.00247434
0.000929004
-0.278687
0.0379884
-0.0445304
0.285229
0.00144958
-0.0118765
0.0106851
0.00991951
0.00552594
0.0476973
-0.00105133
-0.00620893
-0.104908
-0.291818
0.0909672
-0.0729408
0.221089
0.0892532
0.0252156
-0.408393
-0.0384997
-0.0112051
0.00259997
-0.000792999
0.0858715
0.0214904
-0.0209905
0.105118
0.409334
-0.380662
-0.133791
0.0711271
-0.206303
0.284252
-0.149075
-0.00498712
-0.00134897
0.00171265
0.00462354
-0.435773
0.435518
-0.0399479
0.0402009
0.102324
-0.0149977
-0.0587633
0.00471769
-0.00770357
0.0019346
0.00698116
-0.00392045
0.00443986
-0.000588515
-0.00684062
0.00298934
-0.0805543
-0.308834
0.0821588
0.307229
-0.257752
-0.175187
0.000709125
0.000683067
-0.0500211
0.0767597
-0.281604
0.254867
0.000907946
-0.00822048
-0.00112987
-0.104929
0.162587
0.0269012
0.240155
-0.225813
0.0497607
-0.313531
0.326688
-0.010011
-0.00892743
0.00548639
0.0138989
0.00434278
-0.00909966
-0.00914162
-0.0282248
0.0069132
0.00589998
0.0154118
0.00869091
0.0163469
0.161032
-0.230543
-0.106451
0.00433124
0.0176045
-0.00427352
0.000306183
0.000782719
0.00274167
-0.00383052
0.0822707
-0.195091
0.258469
-0.145648
0.107575
-0.150273
-0.216453
0.0343069
0.000513192
0.00717935
-0.00730015
-0.00039236
0.046228
-0.0695361
-0.24206
0.00558101
0.00115274
-0.000776865
-0.00595677
0.25563
-0.296132
0.0809809
-0.0404794
0.00685258
-0.0140018
0.00880965
0.0742893
-0.0440955
-0.250365
-1.58901e-05
-0.000342274
-0.00460743
-0.0613961
-0.294928
0.0741146
0.282209
0.216784
0.0362809
-0.216035
-0.0370295
0.00588047
0.00570517
-0.00311804
-0.00846745
0.00259182
0.000323285
-0.00396615
0.00105157
0.0738797
-0.312339
0.470218
-0.231757
0.00819523
-0.0086646
0.00328809
-0.0557973
0.0510493
0.0436218
0.00323527
-0.01411
-0.00276276
-0.00195228
0.00331751
0.00434629
-0.00758475
-0.00340372
0.00318845
-0.00453982
0.0057913
-0.0107284
0.00379824
-0.0119005
-0.205808
0.00587948
-0.00517778
0.00292261
-0.00362417
-0.310891
0.265859
0.0123935
-0.00885571
-0.219966
0.00882138
0.000502428
-0.00882516
-0.000498559
0.00871005
-0.0105049
-0.0140354
0.0158304
-0.0341031
-0.0373859
0.0212451
0.0502438
0.00904542
0.00182228
-0.0262451
0.019524
-0.0138777
0.0205992
-0.108589
-0.349557
-0.0198289
-0.0143938
0.00612287
-0.00165465
0.0033012
-0.00414408
0.332665
0.0475449
-0.0723402
9.28796e-06
-0.00657612
0.00184122
-0.00348059
0.0600931
0.0573408
-0.0379636
-0.348566
0.0572685
-0.0546844
0.34598
0.122202
-0.179979
-0.100442
-0.0173691
0.000146822
0.0134392
0.00378385
0.00817931
-0.000473711
0.00467605
0.00555076
0.102014
-0.0492269
-0.0773087
0.0245213
-0.00328752
0.00638007
-0.0312707
0.00583956
0.439507
-0.414076
0.00250785
-0.00783929
0.00569382
-0.00171516
0.000757906
0.000582451
-0.00536309
-0.00146651
0.00624733
-0.328763
-0.250675
0.185119
0.0664181
-0.0363438
-0.206887
0.0181774
0.19342
-0.0047098
0.0123618
0.012493
-0.0138356
-0.0110189
0.00414676
-0.0106648
0.0129025
0.00215471
0.00762818
-0.00499651
-0.00478611
0.192641
-0.0919086
-0.19022
-0.093652
-0.023455
0.0631862
0.0539225
0.00763679
-0.19214
-0.156834
0.341338
-0.00763678
0.00133624
-0.260834
-0.0156598
0.226474
0.00652891
0.00255055
-0.00692464
0.00246062
-0.0214645
-0.00759652
-0.00257824
0.00147356
0.00870167
-0.153618
-0.237202
0.0631175
0.327703
-0.249821
0.284945
0.140293
-0.17542
-0.00917198
0.00867897
-0.0095179
0.0033179
0.0123293
-0.0120705
0.00692163
-0.0982723
0.0782788
0.508206
-0.527602
-0.0476172
0.411596
-0.552314
0.179733
-0.0390151
-0.000564961
-0.00642895
0.00120047
0.0057933
-0.096737
-0.160832
0.188002
0.069568
-0.000489688
-0.00831881
-0.0382697
0.0261909
0.010201
-0.00376326
-0.0140341
-0.00370536
0.00488344
0.0155361
-0.0167139
0.00686116
-0.00016056
-0.00721327
-0.000300653
-0.00598132
0.000371858
-0.000825325
0.00292767
0.0437528
0.216624
0.0565395
-0.171504
0.276229
0.209444
-0.314171
0.322056
-0.529316
0.311031
-0.103768
-0.0676166
0.0537105
-0.0132112
0.0101493
0.0156607
0.120873
-0.334876
0.200948
0.0130554
-0.0414272
0.0239103
0.296469
-0.0114776
-0.277354
0.00287193
-0.00135572
-0.00865706
-0.182667
0.0555373
-0.0497353
0.176865
-0.000969427
0.000340115
0.00825768
-0.243445
0.194259
-0.252138
-2.24832e-05
0.0404396
0.405777
0.0505776
0.144315
-0.207144
0.00644118
-0.00337537
-0.00223942
0.00381466
0.00180013
-0.0434498
-0.131795
0.14918
0.0260653
-0.355626
0.00131614
-0.00583121
0.000227708
-0.00822652
-0.00936988
0.0032253
-0.0185147
0.268698
-0.18615
-0.0132518
0.00353977
0.00322832
0.00648402
0.0692153
-0.0637571
0.0609601
-0.0222469
-0.27435
0.0149915
0.1973
-0.374385
0.248249
-0.0711637
0.400723
0.0499356
-0.0390616
0.0562118
-0.0469521
0.125472
-0.181434
0.225665
0.171639
0.00632441
0.00781244
0.23807
0.0507221
-0.0511408
-0.237652
-0.00352834
-0.0112936
0.0165097
0.166415
-0.131695
-0.0372853
0.216841
0.0025575
0.00500991
0.00573403
0.00144085
-0.00287691
0.00946317
-0.00639533
0.000165601
-0.00323337
0.0105759
0.206753
-0.190428
-0.462881
-0.394726
0.107509
0.01106
-0.294141
-0.00151715
-0.000914111
0.0213093
0.0201795
-0.0282614
-0.0132273
0.00735177
0.00373561
-0.00289208
0.00538919
-0.00312233
0.00105151
0.00821714
0.0338932
-0.0492054
0.00709555
-0.0451702
0.0740057
0.0481781
-0.14848
-0.0687946
0.118532
0.0987426
0.00466161
-0.0055291
-0.000149611
-0.00920309
-0.00329107
0.00432443
-0.00753366
-0.0513095
0.601249
-0.0451132
0.108559
-0.0161788
-0.058109
-0.00558741
0.00349797
0.00861846
0.0738325
0.0801716
-0.0551649
-0.0988407
-0.0222122
-0.0111677
0.0192095
0.00485171
-0.0257415
-0.00733443
0.135916
0.0559365
-0.117682
-0.199235
-0.0345536
0.0623517
0.171438
-0.0497659
0.235056
0.0420487
-0.22734
-0.0031784
0.00618844
0.0107855
-0.0137954
0.281283
-0.18404
0.178318
-0.275561
-0.179275
-0.0627449
0.109422
0.132598
0.0118136
-0.00883846
0.00833628
-0.00874516
0.00131693
-0.226267
0.167298
-0.00845059
0.0151984
0.00769742
-0.0144452
-0.0163074
-0.00558833
0.00748938
-0.00217571
0.00929646
-0.00452447
0.0123743
-0.152626
-0.167673
0.347418
-0.303688
-0.0287039
-0.0150278
-0.0051321
-0.000106864
0.00541838
-0.000179286
-0.126333
0.162298
-0.189584
-0.297153
0.316259
-0.160576
0.141471
-0.445742
-0.0448266
0.422431
0.0681383
-0.10426
0.153093
-0.0922821
-0.0282921
0.0209819
0.382635
0.00232765
0.00814977
-0.00264121
0.00194396
0.00102099
0.0559233
-0.0389063
-0.00295435
0.00568251
-0.00590647
-0.00290019
-0.00492983
0.00917428
-0.018789
0.0148435
-0.00984148
0.00391911
-0.416426
-0.174
0.26166
0.0100347
-0.0320848
-0.00444341
0.0264935
-0.289935
-0.0398119
0.00340885
0.00724964
-0.00436342
0.026767
0.414213
-0.481102
-0.00339653
0.00114744
-0.00620157
0.172102
-0.0666597
-0.202178
-0.134763
0.274029
-0.00266832
0.00811228
0.00930408
0.00938752
0.00362919
-0.104777
0.00411725
-0.00924557
-0.231966
-0.324508
0.0714168
0.143429
-0.075202
-0.139644
0.0193045
0.00891064
-3.96292e-05
-8.02768e-05
-0.0068334
0.00695355
-0.0159948
0.00715139
0.00333951
0.00550497
-0.290909
-0.00681602
0.0526635
0.245062
-0.0472434
0.174656
-0.224052
0.24007
-0.274369
0.00162512
-0.539121
0.0594197
-0.0478945
-0.010584
-0.0428571
-0.188699
-0.157864
0.0512071
0.295356
-0.0568016
0.172293
-0.171008
0.0190985
-0.0197622
0.0208432
0.0077004
-0.00539738
0.00478204
0.00502675
0.00862722
0.052477
-0.0469153
0.456732
-0.475888
-0.236501
0.255659
-0.00640233
0.123991
-0.372602
0.448277
-0.0148289
-0.29582
0.306998
0.00365156
-0.0174266
0.0200759
-0.015618
0.0129692
0.0436342
-0.00106403
-0.0325347
-0.0150767
0.00535131
-0.0101035
-0.139174
0.0292124
0.150051
-0.0400889
0.198673
-0.0576183
0.0433202
-0.184376
-0.0778924
0.050088
0.0687626
-0.180677
-0.1054
0.00997425
-0.2401
0.0497317
0.180395
0.0461027
0.0253902
-0.030093
-0.0413994
-0.00216483
0.00134559
0.00780058
-0.0416371
0.312652
0.0222716
0.0070505
-0.0160969
-0.0132251
-0.00644226
0.0050894
-0.0048817
-0.0340712
0.00686869
0.00910281
0.00495515
-0.00494912
0.0151807
-0.015017
-0.0121681
0.0120055
-0.0889395
-0.457175
0.100374
0.0146826
-0.017375
0.010694
-0.00800052
0.340996
-0.148517
0.117608
0.203012
0.0865962
0.0699011
-0.0844683
-0.0720284
-0.000209208
-0.00845435
-0.000516851
0.00918043
0.00302352
-0.00433764
0.00841614
0.0140097
-0.0162552
0.00858762
-0.00857205
0.0075877
-0.00760318
-0.0128075
-0.00226551
0.00319648
0.0746151
0.156034
-0.0842978
-0.394497
-0.0367705
0.0257684
0.405499
-0.438781
0.0323433
0.00792498
-0.019817
-0.0167378
0.0221612
-0.00569795
0.00741102
-0.000197494
-0.000117275
-0.00740471
0.00771967
-0.015795
0.28247
-0.652353
0.161318
-0.0480835
0.0313674
0.0171186
0.0373584
0.00991011
-0.0117815
0.0282177
-0.024862
0.0228352
-0.140252
-0.277284
0.0413266
0.376206
0.000116198
-0.0050335
0.000442194
0.251305
0.180575
-0.307887
-0.094065
0.0706387
0.00333006
0.0038903
-0.553964
-0.0499347
-0.0484577
0.116967
-0.0226205
-0.0914676
-0.00287837
0.0359569
0.0878579
-0.00485481
-0.00572032
-0.0206876
0.301667
-0.0836788
0.00654342
0.00253208
0.000387655
0.00379106
-0.00986077
0.02314
0.0151886
-0.0231302
0.00699384
-0.0738923
0.0242707
0.0426272
0.245791
0.0203692
-0.228342
-0.0378177
-0.35004
0.338283
0.0207268
-0.00897129
-0.0345681
-0.388221
-0.0647289
-0.321558
0.154322
-0.00304839
0.00452895
-0.00517455
0.00369534
-0.0129795
-0.00519409
-0.0062513
-0.315356
0.245465
0.0522564
-0.0420919
-0.037255
-0.042864
-0.315116
-0.0513803
0.3051
0.272849
-0.0452883
0.0432188
-0.134115
-0.048278
0.507296
-0.070185
-0.14748
-0.294415
0.220509
-0.29419
0.251069
0.256775
-0.213654
-0.0261145
0.111828
0.289161
-0.001173
-0.00482905
-0.00193286
0.00793522
-0.316747
-0.150017
0.439096
0.0276692
-0.0056254
-0.000883017
0.0111825
-0.00467406
0.0716568
-0.12592
-0.0505734
0.104838
-0.24956
0.165945
0.359841
0.00841127
-0.00582714
-0.243152
-0.0226339
-0.329577
0.0905946
0.261617
0.00845801
0.00118397
-0.0190281
-0.00377021
0.01396
0.0216755
-0.0182992
-0.0193711
-0.347809
-0.14001
0.0713916
0.212483
-0.0677909
0.00141286
-0.000364307
0.00468557
0.00547454
-0.00216883
-0.472144
0.00416256
0.00684354
-0.00813412
0.0351979
-0.431297
-0.0396751
-0.50617
0.457699
-0.0404673
0.175982
0.0205443
-0.0332732
-0.351802
0.135561
0.0237555
-0.306303
-0.0449022
0.32745
0.0113926
0.0197973
-0.00243741
0.00706652
-0.00559826
-0.021822
0.00353004
0.0231756
-0.00714741
-0.00045337
-0.000728011
0.00503205
-0.00681273
-0.464497
0.512657
-0.041346
0.0128263
-0.322502
0.0574081
-0.0500227
0.0318092
0.0404564
0.00234157
-0.141131
0.260831
0.0897429
0.0354462
0.420176
-0.421254
-0.034373
0.465504
-0.44555
-0.000803943
-0.00519326
-0.188209
0.187767
-0.215728
0.239557
0.0138149
-0.0376435
-0.00393469
0.0291465
0.0271284
-0.0268694
0.254216
-0.00499606
-0.22235
0.0627096
0.147821
-0.00815377
-0.000207998
0.00829994
0.0416347
-0.23672
-0.474994
-0.0378807
-0.0394401
-0.0814163
0.0173658
0.26089
-0.0133453
-0.00213013
-0.0515203
0.155203
-0.158032
0.0543495
-0.0335579
0.0260291
-0.255384
0.17977
-0.00474278
-0.00434671
-0.00694102
0.0160319
-0.0512714
0.0576607
0.00615691
0.201806
0.0298565
-0.195962
-0.00447594
-0.00616874
0.000699158
0.0467208
0.0739283
0.0606908
0.269611
-0.0653588
0.021143
0.00382146
-0.0109542
0.00810771
-0.0595179
0.125242
0.0402549
-0.0326112
0.0533524
-0.0609955
0.0257241
-0.0201502
-0.00497219
0.00235281
0.00496105
0.10488
-0.0295746
0.088683
-0.16399
-0.0244972
0.044934
0.0116831
-0.032119
0.0938053
-0.336092
0.355891
-0.276523
0.214139
-0.366233
0.00615109
-0.00169949
-0.010208
0.00656202
0.00593063
0.012097
-0.201804
-0.0572798
0.169927
0.0891575
0.0936208
-0.0952037
-0.0347804
0.161175
-0.0733725
0.0684825
-0.156286
0.341933
-0.352289
0.0530426
-0.0426872
0.230088
-0.12725
0.1709
-0.273736
0.36632
-0.372158
0.0506144
-0.0447772
0.405525
-0.335361
-0.0464082
0.402457
-0.0174468
-0.296925
-0.0418831
0.443926
-0.0279968
-0.00168162
0.0247964
-0.144084
-0.337158
0.303185
0.178058
-0.028066
-0.0483018
-0.100464
0.150178
-0.0202101
-0.28813
-0.440649
0.0181057
-0.0419517
0.168159
-0.0312895
-0.126293
-0.0291939
0.0287254
-0.0145449
0.068911
0.225799
-0.0566403
-0.335833
0.0225644
-0.0356028
0.424977
-0.411939
0.19744
-0.083
0.00930043
-0.0252066
-0.176454
0.19236
-0.0381141
0.261461
-0.250217
-0.0401163
0.435624
-0.0316408
0.209927
0.0235198
0.0234905
-0.0224949
-0.300805
0.290281
-0.116082
-0.223624
0.0724663
0.222285
-0.0245041
0.0395653
-0.0395585
-0.00122897
-0.0131251
-0.00837511
0.0326091
0.0222731
-0.0317421
0.0010728
-0.00317909
-0.00359159
0.235172
-0.0365291
0.00602216
-0.00561806
0.026587
-0.0352056
0.174899
-0.166281
-0.336969
0.176025
0.229854
0.339308
-0.0180552
0.00302532
-0.324279
0.289982
0.0341473
-0.0465146
-0.0458206
0.318184
-0.0398371
0.0353004
-0.313648
-0.100016
0.653815
-0.0411398
0.357766
0.0534595
-0.0449058
0.00187907
0.0123985
0.0334197
-0.0140174
-0.0292617
0.023517
0.0163195
-0.00531695
-0.203895
0.192891
0.302063
0.149159
-0.0456981
0.206032
-0.174002
0.023888
-0.0559183
0.229617
-0.180564
0.158203
-0.193109
0.0856219
-0.050716
0.160326
0.11426
-0.0685547
0.0791352
-0.00433053
0.0191807
-0.0939864
0.165174
-0.0740202
0.0700207
0.0477557
-0.0234578
0.0206356
0.22104
0.0980943
-0.0895168
0.32284
-0.0173129
0.0088434
-0.314372
0.146026
-0.130587
0.114445
-0.129886
0.210278
-0.222947
-0.064088
0.076757
0.272415
-0.467628
-0.0820721
0.160222
-0.0659525
0.091008
-0.185277
0.322419
0.0179763
-0.0175564
0.165222
-0.164187
0.028821
0.0161456
0.370103
-0.366168
-0.0200812
0.259823
-0.294776
0.0166308
0.0183219
-0.0475321
0.19049
-0.133658
-0.0330952
0.217815
0.208083
-0.189108
0.134251
-0.153226
0.240555
-0.167207
0.182816
0.0528861
-0.0591799
0.164496
0.00884755
0.144604
-0.137069
-0.0163823
-0.0223661
0.125571
-0.11259
0.00938458
0.0977619
-0.0506949
-0.0759996
0.0289322
0.0644937
0.0202606
-0.00561989
0.157186
-0.0702321
0.0432462
-0.0367217
0.041231
0.0750975
0.205209
-0.115133
0.158719
-0.13443
0.190454
-0.0528781
0.0727021
0.217966
0.091045
-0.0879715
0.0835377
-0.0496485
0.0132859
-0.0220847
0.291616
-0.282818
0.300788
-0.0219601
0.0164844
-0.295312
0.221077
0.0287883
0.00995706
0.224494
-0.11587
0.121464
0.273539
-0.192706
-0.0565815
0.0580754
-0.359532
0.358037
0.345867
-0.336126
-0.00576799
-0.00397246
0.0242632
0.014931
0.241368
-0.415309
0.206392
0.223333
-0.189172
0.346149
0.0127317
-0.0133584
0.215254
0.135742
-0.126502
-0.288655
-0.105374
0.138663
-0.085126
0.0784369
0.162722
-0.175449
-0.252792
0.187629
0.240611
0.160735
-0.148843
-0.00304464
0.131025
-0.124179
0.197798
-0.185196
0.0624936
-0.00156989
0.289802
-0.319262
0.0310295
0.372394
-0.0311362
0.00460943
-0.108213
-0.291468
0.0908474
0.202706
-0.400506
0.275586
-0.0365396
0.309679
0.0364479
-0.309587
0.0443108
-0.0488653
-0.0199502
0.1104
0.2777
-0.143001
0.0546746
0.151036
-0.0555459
0.28853
-0.287462
0.0544785
-0.00454445
0.27872
-0.293349
-0.150697
0.0533459
-0.383049
-0.0530505
0.38275
0.0549439
-0.0761719
-0.0881348
0.109362
-0.0711511
0.173821
0.244746
-0.0075937
0.0250112
-0.00138622
0.276185
-0.370352
-0.21318
0.435187
-0.226996
-0.364576
0.156386
0.227396
0.383049
-0.306462
-0.0490852
-0.0275029
0.00331313
0.00110028
-0.0089829
-0.000862451
0.237061
-0.329892
0.0393406
-0.0232334
0.177615
-0.109914
0.315347
0.326034
0.170188
-0.320864
-0.175357
-0.239054
0.243852
-0.340889
-0.0121156
-0.0684238
0.414679
-0.100938
0.0313111
-0.0389814
0.0122879
0.0261684
-0.00173177
-0.164507
0.161909
-0.12799
0.0892819
-0.111127
-0.0826824
0.0818662
0.0557592
-0.123622
0.0589425
0.121786
-0.0571068
-0.058712
0.0895317
0.0124263
-0.27399
0.148083
-0.0649184
-0.0346522
0.191607
0.0112033
0.021053
0.155585
0.139465
0.0960079
-0.0302642
-0.0779827
0.0706975
-0.295503
0.302788
-0.181524
0.0490458
-0.0504566
0.0800261
-0.144433
0.159425
0.206085
-0.246533
0.147983
0.156691
-0.0581416
-0.0584724
0.0402834
-0.090617
0.0647573
-0.0216903
0.0173127
-0.00563809
0.0921423
-0.0875035
0.213326
-0.336707
0.34068
0.0883841
-0.0923563
0.0406951
0.0549886
0.0317846
0.239251
-0.23353
-0.0375064
-0.061985
0.293252
-0.30242
0.229853
-0.0721837
-0.13128
0.0332939
-0.00522947
0.000884997
0.00299556
-0.373843
0.0117429
-0.182302
0.0900571
0.184387
-0.289885
0.273784
0.15083
-0.134731
0.0174779
-0.411875
0.421906
-0.0275094
-0.126469
0.29858
0.193752
-0.306023
-0.103694
0.130945
-0.162089
0.201894
0.252537
-0.127179
-0.292565
0.300454
-0.0217518
-0.234745
0.253882
-0.0539201
0.0359882
-0.283416
-0.230459
0.308873
0.205
0.0163896
-0.000126623
-0.0265845
0.0103221
-0.0708592
0.0247534
-0.213356
0.25946
0.399763
0.242919
-0.388552
-0.254132
-0.199984
0.183985
0.18982
0.227362
-0.137746
0.0812829
-0.252405
0.175381
-0.0433402
-0.0218273
0.00645471
-0.274368
-0.0816303
0.154195
-0.198491
0.0241114
0.206264
-0.0318849
-0.206993
0.168411
0.214607
-0.423889
-0.0255232
0.132688
-0.0342088
0.00122117
-0.00610618
0.377277
-0.391043
0.0152818
0.246618
0.129141
-0.0464981
0.0240476
-0.109077
0.207897
-0.169699
-0.0596073
0.0559026
-0.0869126
0.0105435
0.329085
-0.0531283
-0.286502
0.220696
0.163562
-0.236276
-0.129706
-0.0852011
0.207438
0.00746838
-0.00672703
-0.00609438
0.0264783
0.3713
-0.0407422
0.302884
-0.0418893
0.452339
-0.448059
-0.0443961
-0.405772
0.411721
-0.0427181
0.308018
0.0527214
-0.0438998
-0.384094
-0.0446452
-0.391725
0.386089
0.0476023
-0.0419655
0.435273
-0.479151
0.0911157
-0.0472425
0.33483
0.0498842
-0.0427814
-0.461937
0.481357
0.0262587
-0.0456813
0.437511
0.0139087
-0.0457227
0.46137
0.0463268
-0.462617
-0.0450776
-0.511167
0.609027
-0.0515418
-0.0463183
-0.427167
0.0438651
0.430975
-0.0476789
0.400436
0.0505052
-0.409588
-0.0413505
-0.0428375
0.0547993
0.348169
-0.045204
-0.391246
0.397786
0.0357095
-0.0422483
0.0774565
0.269997
-0.0453913
-0.061744
0.163791
-0.246243
0.23741
-0.153256
0.0143046
-0.0105313
0.00594977
0.0792511
-0.040563
0.131129
-0.19508
0.184826
0.282739
-0.189566
0.283032
-0.0323858
0.299829
-0.251124
-0.00988685
0.000902498
0.134555
-0.189225
-0.0366465
0.0279012
0.153349
-0.0268037
0.299472
-0.308193
0.32596
0.0237409
-0.0415079
0.399706
0.0122503
-0.0406571
0.324311
0.0195189
-0.040946
-0.396471
0.335068
-0.0435054
0.168058
-0.0435564
-0.200276
0.301902
-0.353173
0.350689
-0.140318
-0.00680096
-0.0128617
-0.321346
0.341008
0.0453226
-0.0500219
0.153879
0.0623509
0.0242093
-0.193736
-0.233139
0.0800296
-0.0958006
0.24891
0.230805
-0.378302
0.0192084
-0.0490008
-0.0135478
0.217787
-0.237322
-0.231216
0.25075
-0.213862
-0.138213
0.0996701
-0.306069
0.31742
0.0323766
-0.0437272
-0.338024
0.373664
-0.0424416
-0.286538
0.29282
-0.0477089
-0.309143
-0.0464284
-0.31573
0.319546
0.038744
-0.0425597
0.285824
-0.288728
0.050788
-0.0478842
-0.50932
0.411126
0.14205
-0.043854
-0.340041
0.355419
0.0278688
-0.0432479
-0.468315
-0.0541889
0.568101
-0.0456001
0.413933
0.148464
-0.516537
-0.0458625
0.410237
-0.392087
0.0266238
-0.0447752
0.433529
-0.423268
0.033519
-0.0437804
0.0541775
-0.344668
-0.00779961
0.00578831
0.291814
0.187895
0.216406
-0.24761
0.194776
0.143207
-0.130089
0.307671
-0.208633
0.331849
-0.223965
-0.0186024
-0.262274
0.0617393
0.110218
-0.113015
-0.320067
0.0470254
-0.042689
-0.047712
0.0240486
-0.0425268
0.0693199
0.390202
-0.0455913
0.0458341
-0.0438847
0.434145
0.0426694
-0.0432841
-0.298125
0.0358318
-0.0468498
0.0378036
-0.0430154
-0.0443044
-0.294686
0.0536484
-0.04769
-0.402576
-0.0628244
-0.0439197
0.0147422
-0.0455474
-0.123711
-0.340923
0.229031
-0.267374
-0.0404043
0.0522507
-0.154942
-0.0270151
-0.241871
0.272354
-0.152719
0.0198295
0.154338
-0.348726
0.255489
-0.219789
0.209064
0.199528
-0.176383
0.00321516
0.00254166
-0.00109515
-0.0993065
0.0946186
-0.218934
-0.155769
-0.0044723
0.0305292
0.142191
0.27275
0.20374
-0.0366829
-0.31563
0.0499051
-0.256825
-0.0393226
0.0606516
-0.0511622
0.0440578
-0.0535471
-0.000504562
0.00395897
-0.243518
0.206641
-0.399511
0.117232
-0.0228799
-0.00392519
0.171711
0.0584981
-0.0497643
0.399982
0.0448231
-0.0453898
0.470519
-0.0261342
-0.0612317
-0.383152
0.0502472
-0.0415341
0.216436
-0.321579
0.0748481
-0.295618
0.00690914
0.0286736
0.045441
0.238155
-0.25031
0.175717
-0.0443725
-0.27598
-0.0920293
0.345396
-0.33135
-0.0896991
0.09504
0.000608616
-0.283105
0.0721588
0.0599709
-0.175146
-0.00114205
0.216637
-0.101436
-1.40884e-05
0.340199
-0.331343
0.164407
-0.0912
0.121567
-0.00829948
0.00164706
0.0408258
-0.0487581
0.0799296
0.0256663
0.106023
-0.0512443
-0.379863
-0.0802009
0.25307
0.00740288
0.144412
-0.157132
0.0415478
-0.0516554
-0.035862
0.237938
0.277877
-0.185483
-0.257019
0.164624
0.154302
-0.0521405
0.312573
-0.132926
-0.222961
0.0644191
-0.262967
0.249578
0.17719