/*--------------------------------*- C++ -*----------------------------------*\
  =========                 |
  \\      /  F ield         | OpenFOAM: The Open Source CFD Toolbox
   \\    /   O peration     | Website:  https://openfoam.org
    \\  /    A nd           | Version:  10
     \\/     M anipulation  |
\*---------------------------------------------------------------------------*/
FoamFile
{
    format      ascii;
    class       volVectorField;
    location    "400";
    object      U;
}
// * * * * * * * * * * * * * * * * * * * * * * * * * * * * * * * * * * * * * //

dimensions      [0 1 -1 0 0 0 0];

internalField   nonuniform List<vector> 
23845
(
(0.683252 -0.0986283 9.1974e-21)
(0.478127 0.0951544 -4.01476e-21)
(0.298225 -0.0319351 2.3221e-20)
(-0.128779 0.0130316 7.07672e-22)
(0.11081 0.0594793 4.17402e-21)
(0.715407 -0.00102814 -3.92282e-22)
(0.89273 -0.0437529 -1.07283e-20)
(-0.0723507 0.0654415 -2.64857e-22)
(0.776245 0.0060939 5.1143e-24)
(0.780036 0.0784056 -4.49667e-21)
(0.44181 -0.0412464 -5.46036e-21)
(0.687039 0.0028313 2.57364e-23)
(0.825791 0.0113939 7.29541e-23)
(0.752964 0.00339261 1.55372e-24)
(0.727399 0.0440904 -1.78444e-20)
(0.845346 0.0535209 -8.29991e-22)
(0.722309 0.0139602 2.08759e-23)
(0.555555 -0.0161467 5.46822e-23)
(0.835478 -0.0229404 -2.16288e-22)
(0.704563 0.00993135 1.90534e-21)
(0.825576 0.0869539 1.50413e-20)
(0.401691 -0.0320248 -1.01648e-20)
(0.980565 -0.0534297 -2.60725e-21)
(0.783268 0.00476104 4.87415e-23)
(0.693596 0.0679092 -8.22296e-22)
(0.856738 0.00277385 -5.27322e-22)
(0.892307 0.0554917 8.80159e-21)
(0.716799 -0.00362235 1.57272e-21)
(-0.0504645 -0.114482 7.54489e-21)
(0.724307 0.0111383 -1.17801e-21)
(-0.140426 -0.00413229 3.05187e-20)
(-0.031042 0.0876024 4.00741e-22)
(0.48416 -0.0395698 8.21731e-21)
(0.594971 -0.0204897 -1.84856e-22)
(0.686223 0.00387441 -8.03234e-23)
(0.679474 0.00662287 1.42278e-21)
(-0.0432544 0.117196 -6.92602e-21)
(0.686129 0.00267928 -3.9081e-23)
(0.698513 0.00117145 -4.05878e-23)
(0.800118 0.00693817 2.42227e-23)
(0.865637 -0.0255537 1.37378e-22)
(0.664955 -0.0176193 2.63187e-22)
(0.827572 -0.0153336 7.13788e-23)
(0.620261 0.00779803 -1.39444e-22)
(0.834413 0.00924729 -2.66215e-21)
(0.788232 0.0123717 1.29803e-22)
(-0.0244592 -0.0301136 -1.654e-21)
(0.799321 -0.0553997 -4.05395e-21)
(-0.0238117 0.0112528 1.50436e-21)
(-0.0582519 -0.112947 3.27161e-21)
(-0.0494377 -0.0429907 6.9005e-22)
(0.207203 -0.0347467 -3.35063e-21)
(-0.0221516 -0.0396619 -3.48644e-21)
(0.742731 -0.00145476 -7.74444e-23)
(-0.034129 0.0972263 7.31829e-21)
(0.771114 0.0140889 1.32411e-24)
(0.240325 0.0778891 2.10821e-20)
(-0.0906358 -0.035063 1.83048e-20)
(0.735208 0.093689 -2.90194e-20)
(0.0400641 0.0398888 -1.46015e-20)
(-0.0366584 0.0985636 2.56217e-21)
(0.63071 0.0092822 3.6188e-23)
(0.831695 0.0445584 -9.95856e-22)
(-0.03032 -0.0896543 3.28645e-21)
(0.79593 0.00557854 -5.31547e-22)
(0.809342 0.0119682 5.53556e-22)
(0.933214 0.0409861 9.09718e-21)
(0.867784 -0.0055404 -6.13614e-22)
(0.839593 0.0112873 8.71315e-22)
(0.828085 -0.0270798 8.56016e-23)
(-0.0563974 0.0857264 2.71767e-22)
(0.19748 -0.0135015 1.48016e-20)
(0.86451 0.00877581 -1.66044e-22)
(0.792393 0.0415615 1.02815e-20)
(0.810592 0.00668649 1.00122e-21)
(0.678333 0.043222 -5.06482e-23)
(0.689198 0.00226189 -1.71396e-23)
(0.697464 0.000356196 -1.47771e-22)
(-0.11765 -0.0205185 3.72445e-21)
(0.70494 0.0211411 1.1344e-22)
(0.90943 0.067573 -2.3368e-21)
(0.706689 -0.0536486 -3.14537e-20)
(0.345498 0.0885531 -3.74559e-21)
(-0.0824009 -0.0500849 -7.78064e-22)
(0.29106 0.0135592 -6.46e-21)
(0.688181 0.00497337 -1.49649e-22)
(0.623405 0.0673505 1.18362e-20)
(-0.0178341 -0.0120662 1.62604e-20)
(0.793886 0.00687422 -1.45469e-22)
(0.762268 0.0203599 -2.5529e-22)
(-0.0477031 -0.0807378 -1.22125e-20)
(0.880423 0.0272521 -6.15427e-22)
(-0.043913 -0.101187 1.09701e-20)
(0.682382 -0.00129818 -3.32598e-22)
(-0.0880252 -0.0235616 2.7377e-21)
(-0.0530346 -0.0907936 -3.44174e-20)
(0.748683 -0.0210723 1.01742e-23)
(0.785726 -0.0576125 -3.13214e-22)
(0.805825 0.00857653 -3.97624e-23)
(0.0299186 0.0384172 -6.51936e-21)
(0.752117 -0.0228495 1.51966e-22)
(0.932204 0.0386061 3.1325e-21)
(0.424294 -0.0941839 1.14709e-20)
(-0.0681457 -0.0858484 -1.45687e-20)
(-0.0483124 -0.0874912 -2.81637e-20)
(-0.0904318 -0.0417074 5.16104e-21)
(0.725755 -0.00100391 2.35115e-22)
(0.818195 0.00764949 -1.07182e-22)
(0.982794 0.0329319 -1.41683e-21)
(0.643253 0.00862704 1.8352e-22)
(0.479412 -0.0374321 -1.84035e-21)
(0.687934 0.00159744 -7.31713e-23)
(0.406767 0.0270967 1.31345e-20)
(0.771028 -0.072771 -1.7875e-21)
(0.681918 0.00700641 -7.3152e-22)
(0.875727 -0.0792721 -2.14676e-21)
(0.815374 0.00515596 1.0213e-21)
(0.8538 0.063167 -4.57568e-21)
(-0.0505303 -0.116484 5.55394e-21)
(-0.00978462 0.0762614 -1.62424e-20)
(0.693915 0.00100537 -1.50465e-22)
(-0.0393333 -0.0929452 -1.8893e-21)
(0.842004 0.0214289 7.73943e-23)
(0.0515827 0.0300647 3.47202e-20)
(0.919858 0.0380848 -3.05433e-21)
(0.857462 0.00500067 -4.65651e-22)
(-0.039784 0.0957753 2.15528e-21)
(-0.0592208 -0.107842 -1.22919e-20)
(0.174299 0.00310941 9.27825e-22)
(-0.0138915 -0.0427956 1.09748e-20)
(0.183251 0.00673008 1.56467e-20)
(0.454382 0.0696709 4.73042e-22)
(0.334998 -0.0460022 2.23342e-22)
(0.736637 0.00230962 -6.13012e-24)
(0.733051 -0.0258366 1.63928e-22)
(0.56686 -0.099352 3.37172e-21)
(-0.0651912 0.0913857 3.11262e-20)
(0.687875 0.00292819 3.60523e-23)
(0.973549 -0.0422917 6.39516e-23)
(0.700834 0.000616887 1.83273e-23)
(-0.0539978 -0.122026 -1.51074e-20)
(0.658731 -0.0159863 -1.22515e-22)
(0.702501 0.0080031 4.40604e-23)
(0.600761 0.0070809 2.70086e-22)
(0.825378 -0.0418447 -2.22203e-21)
(0.634388 0.00715044 -2.31543e-22)
(0.866664 -0.0741465 -2.44212e-22)
(0.433694 0.0358689 3.53211e-20)
(0.0309157 0.060548 -1.31297e-20)
(0.775705 0.0276218 2.86632e-22)
(0.487206 0.0317039 -1.38136e-20)
(0.842901 0.0102939 -3.45631e-22)
(0.486567 -0.0785587 1.24157e-20)
(0.784029 -0.00571876 2.32889e-22)
(0.384884 -0.0259818 -4.74913e-21)
(0.658315 0.0368841 -1.05401e-21)
(0.270497 -0.0831181 -3.94012e-21)
(0.684354 0.000462661 -6.27227e-22)
(0.217407 5.8471e-05 1.0347e-21)
(-0.0525778 -0.105767 3.62947e-21)
(0.832264 0.0277908 3.26048e-22)
(0.694219 -0.0469748 -1.5059e-21)
(-0.0831937 0.0134278 -1.0014e-21)
(0.789629 0.00584189 -1.01057e-22)
(0.871634 -0.0164435 -1.24929e-23)
(0.707054 0.027752 2.82639e-22)
(0.721685 0.00159337 2.23597e-23)
(-0.0441965 0.102152 -5.49414e-21)
(0.712805 -0.00413705 8.12883e-22)
(0.635731 -0.0136436 3.10908e-22)
(0.750267 0.00698801 -3.50393e-24)
(-0.106975 0.0155911 5.12244e-21)
(0.788389 0.00422696 -8.34145e-22)
(0.0107364 0.0342126 -7.42292e-21)
(0.829979 0.00577339 -1.24849e-21)
(-0.106814 -0.000595243 -4.37318e-21)
(0.885187 0.0331025 5.51129e-22)
(0.614053 0.0455744 1.50215e-21)
(0.816472 0.00935332 -1.1468e-22)
(0.68724 0.000328345 1.90333e-22)
(0.0564165 -0.0457355 5.48981e-21)
(0.00717428 -0.0289347 7.00203e-22)
(0.763075 0.044196 9.11126e-21)
(0.466817 -0.0312665 -8.58648e-22)
(0.825404 -0.0486128 -2.63688e-21)
(0.817136 0.0135142 5.29738e-24)
(0.654109 0.00980943 -4.56903e-23)
(-0.0744273 -0.057143 2.7187e-21)
(-0.0525488 0.11336 1.79549e-21)
(0.686587 -0.0182639 -3.56563e-23)
(-0.0404776 0.0950337 2.91067e-20)
(0.754457 0.00174079 -7.54085e-23)
(0.784553 0.007934 1.05619e-22)
(0.755153 0.00960548 1.46565e-22)
(0.843435 0.0348217 -8.22266e-22)
(0.76697 0.0022135 -1.41956e-22)
(-0.0615764 -0.087699 -2.51497e-21)
(-0.0520513 0.102919 1.88549e-21)
(-0.0739135 -0.0675889 -9.16468e-21)
(0.53409 -0.0435574 1.75091e-22)
(0.634004 0.0270219 -1.80301e-22)
(0.765823 0.000184582 6.36303e-22)
(0.0220412 0.0631337 -7.01262e-21)
(0.352539 0.0553408 9.85582e-22)
(-0.0776658 0.0571624 1.15909e-20)
(-0.083712 0.0268637 7.15805e-22)
(0.262059 0.0179096 -3.23822e-20)
(0.711239 0.000363355 -8.1282e-24)
(0.71923 -0.0916855 -8.95995e-21)
(0.560688 0.0127653 6.85897e-24)
(0.648474 0.0196333 -1.28236e-22)
(-0.0472982 0.114726 1.03564e-20)
(0.871238 -0.0434915 9.083e-23)
(0.733087 -0.00536557 -2.31616e-22)
(-0.0345075 -0.0350165 2.40864e-21)
(-0.0393357 -0.106387 -5.72495e-21)
(0.267129 0.038588 -3.08802e-21)
(0.634919 0.0101834 -5.04249e-23)
(-0.0513028 0.11619 1.5094e-20)
(0.20432 0.00672319 -1.46405e-22)
(0.838075 -0.00473129 -1.44041e-22)
(0.739139 0.042966 -5.37997e-21)
(-0.062986 0.0851129 -1.95742e-20)
(0.731573 0.0370642 -1.11334e-21)
(0.611861 0.00550358 -9.78854e-23)
(0.519586 -0.0396708 1.75468e-20)
(-0.0589128 -0.110649 -7.09e-21)
(0.754066 0.00124652 4.61465e-22)
(0.731327 0.0101278 9.86723e-23)
(0.884367 0.0202631 5.64866e-22)
(0.695079 -0.00111027 -2.38023e-23)
(-0.0285325 -0.00495872 -9.09458e-21)
(0.687296 0.00134303 7.57497e-23)
(0.872687 -0.000749239 -4.53664e-22)
(0.149911 0.0617637 6.41937e-21)
(-0.0470609 -0.109791 -1.03955e-20)
(0.801981 0.00512564 -4.97861e-22)
(-0.146457 0.00583284 8.45141e-21)
(0.835044 0.007899 1.64408e-22)
(-0.0681224 -0.0176993 2.14227e-20)
(-0.0224587 0.0265763 8.33318e-21)
(0.852095 -0.0713338 5.22203e-21)
(-0.0953248 -0.0404021 -1.26029e-20)
(0.155737 0.0620336 -1.04998e-20)
(-0.0420728 0.0933621 3.05608e-21)
(0.823572 0.0468639 -2.20652e-22)
(0.729285 -0.000366366 -4.50272e-22)
(0.842246 0.0105856 1.32937e-21)
(-0.0962587 0.0121604 2.06979e-21)
(0.651422 -0.046777 4.32611e-21)
(0.755748 -0.0164738 -1.06295e-22)
(0.687081 0.00570202 -4.29266e-23)
(-0.0510069 0.0551695 -4.26373e-21)
(0.862794 0.0100286 1.06019e-23)
(0.795638 -0.0455398 -6.60614e-21)
(-0.0499954 0.0881579 2.12007e-21)
(0.0130408 0.0631617 4.33022e-20)
(-0.0608648 0.0622814 7.34313e-22)
(0.677829 -0.00153167 6.87724e-22)
(0.780969 0.00309375 8.11333e-22)
(-0.0136544 0.00202646 -2.00916e-20)
(0.680198 0.00115779 -3.14638e-22)
(-0.0443886 0.0921316 -3.48201e-21)
(0.517521 -0.0385474 2.2717e-21)
(0.583244 0.0336758 -2.67729e-23)
(0.815938 0.00486658 -1.82834e-22)
(-0.115774 -0.00343871 -3.03354e-21)
(0.090693 0.0289514 -1.33834e-21)
(-0.118992 -0.00932148 5.13595e-21)
(-0.142174 0.00790091 -1.50264e-20)
(0.693918 0.00037799 -1.69711e-22)
(-0.105515 0.0223776 -3.0694e-21)
(-0.0441824 -0.0132372 -4.9139e-22)
(0.777807 0.00913146 -2.90011e-22)
(0.430226 -0.0283744 -1.23195e-21)
(0.790096 0.00821698 3.90495e-23)
(-0.0588385 -0.0679045 6.70905e-21)
(0.750124 0.000708918 -2.40919e-22)
(-0.0535307 -0.0648561 3.37139e-21)
(0.986642 0.0513233 1.49164e-20)
(-0.0786882 -0.0426554 1.87019e-20)
(0.734509 0.0102958 -1.55792e-22)
(-0.0607497 -0.032851 9.79213e-21)
(0.779907 -0.0388223 6.46478e-23)
(0.683655 0.00326488 -7.37747e-23)
(-0.0104146 -0.0802363 -1.28445e-20)
(-0.00372067 0.0242334 -4.02914e-21)
(0.77642 0.000793287 -7.78027e-22)
(-0.0843075 0.0385598 -3.80699e-22)
(0.487787 -0.0387514 8.19579e-21)
(-0.108122 0.0107376 2.50977e-21)
(-0.0366334 0.0311617 -1.01724e-20)
(-0.028181 -0.0915687 2.56434e-20)
(-0.0593951 0.0731878 -5.10392e-21)
(-0.0958269 0.0240132 3.30098e-22)
(0.68513 0.00239855 -2.3472e-23)
(0.00510788 0.0714551 1.68555e-20)
(0.738068 -0.000456756 -1.40931e-23)
(0.686852 0.00474129 -8.38481e-24)
(-0.0513478 -0.116023 -6.7159e-21)
(0.208016 -0.00355343 2.53953e-20)
(0.518297 -0.0371188 1.21419e-20)
(-0.0442237 -0.107857 1.86522e-20)
(-0.151389 -0.000459022 7.76301e-20)
(0.764809 0.00959851 -1.27733e-22)
(-0.154286 0.00150039 -4.49538e-20)
(-0.0311599 -0.085048 -1.26614e-20)
(-0.0463859 -0.0278316 -3.04424e-21)
(0.759492 -0.0224108 3.5935e-24)
(-0.0620469 0.0925891 4.26141e-21)
(-0.0419021 0.00158258 -1.23085e-20)
(0.374867 -0.075989 2.53027e-20)
(0.807769 -0.0212174 1.64976e-23)
(0.748051 0.00799171 1.24845e-22)
(0.0833681 0.0172642 2.73306e-20)
(-0.0552419 -0.119986 1.39364e-20)
(-0.00520404 -0.0767941 1.77544e-21)
(0.328992 0.0395897 -1.17543e-20)
(-0.0503254 0.0963338 5.49001e-21)
(0.84088 -0.00882654 -4.19633e-23)
(-0.0469775 0.0792431 8.40859e-21)
(-0.0458823 0.109219 -7.87164e-21)
(0.0514761 0.0481842 -2.18574e-20)
(0.724233 -0.00514112 -5.45405e-22)
(0.584869 -0.0456758 -1.02853e-20)
(0.724897 0.00888547 -8.0004e-23)
(-0.134715 -0.00624053 -1.88551e-20)
(-0.0366866 -0.0357125 1.0078e-20)
(0.0126607 -0.0614276 -6.30541e-22)
(0.529078 0.00955788 -3.75864e-22)
(0.399253 -0.0488661 4.2757e-20)
(0.732039 -0.0378815 3.99712e-23)
(-0.0498962 -0.0660464 9.30388e-21)
(0.677834 0.00271661 2.82716e-22)
(0.0146216 -0.0658054 -4.69554e-21)
(-0.130008 0.00862089 -2.19698e-21)
(-0.0555562 -0.00409175 -1.15112e-20)
(0.543606 0.00772938 5.41238e-23)
(0.65403 0.00680472 1.56859e-22)
(-0.122342 -0.00826435 1.04954e-20)
(-0.0736316 0.0147509 -1.31352e-21)
(0.0404281 0.0555135 -1.31205e-20)
(0.441881 -0.0350394 6.99907e-21)
(0.877045 0.0021532 -1.38272e-22)
(0.843509 0.0084846 -9.29476e-22)
(-0.0562872 0.0588985 -4.63149e-21)
(0.680481 0.00464297 -3.18989e-22)
(-0.0553088 -0.0801 5.8738e-21)
(-0.126742 -0.0129935 8.9388e-21)
(0.433812 -0.0357144 -3.3494e-21)
(-0.0820935 -0.001598 1.56196e-20)
(0.166941 -0.0133144 -5.8854e-21)
(-0.0599825 0.105365 1.96785e-20)
(-0.0563543 -0.0523311 -1.04279e-20)
(-0.0212116 0.0436973 2.05866e-20)
(0.782516 0.00722749 1.60047e-22)
(0.627781 -0.0120183 -3.61864e-23)
(0.848733 0.008424 2.8314e-23)
(0.517224 0.0393722 -6.15668e-21)
(-0.0959501 -0.0372505 3.53097e-21)
(0.104739 0.0188195 -1.1473e-20)
(0.828983 0.00163479 -1.38953e-22)
(0.859371 -0.0738176 -5.53505e-21)
(0.786363 -0.0350946 -9.93224e-22)
(-0.0510639 0.115482 1.04356e-20)
(0.727213 0.00125788 9.01053e-24)
(0.0468934 -0.0453395 -3.06305e-21)
(0.688979 -0.0024968 -7.5989e-23)
(-0.0509577 -0.11723 6.52653e-21)
(0.853883 0.00251121 4.73082e-22)
(0.63915 -0.014856 -2.97615e-23)
(-0.0467247 -0.0924131 1.84358e-20)
(-0.00750174 0.0537845 -1.31131e-20)
(0.690591 0.00520908 3.19716e-23)
(0.68632 -0.000327075 9.77934e-22)
(-0.0511835 0.0784124 -3.37455e-21)
(0.0794352 0.00736648 -1.95779e-20)
(-0.103884 0.00901798 -3.57118e-21)
(0.653362 -0.0149961 -1.34313e-22)
(-0.0740449 0.0300153 6.90298e-21)
(0.685605 -0.0519544 -1.01047e-20)
(0.679318 0.000842526 3.40316e-23)
(0.949554 -0.0639658 1.2419e-20)
(0.843688 0.00942668 3.65998e-22)
(0.8753 0.000783528 -5.91515e-23)
(0.69103 0.000996327 -9.54936e-24)
(0.703684 -0.00120641 -1.26317e-21)
(-0.11569 -0.015763 -6.21968e-21)
(0.563963 0.0217655 -2.16553e-22)
(-0.0979213 -0.0240279 -1.31597e-20)
(0.907507 -0.0513939 -2.26599e-21)
(0.627431 0.00624538 7.02894e-23)
(-0.0241411 -0.0749019 2.94718e-20)
(-0.0442376 -0.077429 7.15225e-21)
(-0.0389856 0.0164261 9.12102e-21)
(-0.0513037 0.112677 6.53635e-21)
(0.514243 0.0285322 -1.22354e-21)
(0.825323 0.00773262 4.82931e-22)
(0.824322 -0.0276967 -3.21048e-22)
(0.676274 0.00247565 2.67896e-22)
(-0.00303411 0.00414909 -1.70826e-20)
(-0.145356 0.00454102 4.44813e-20)
(-0.0738836 0.0453705 2.59229e-22)
(-0.0308973 0.00989308 -7.74585e-21)
(0.157235 0.0615265 1.57431e-20)
(0.706187 0.0463039 9.6241e-21)
(0.708372 0.000906926 5.08192e-23)
(-0.0179048 0.0652178 1.89794e-20)
(-0.0497319 -0.0959367 9.42015e-22)
(-0.0180943 0.0743659 -1.65507e-20)
(0.601678 -0.0415171 -8.62765e-21)
(0.870206 -0.00255745 -5.98147e-22)
(0.835492 0.0405408 8.02439e-21)
(0.0506546 -0.0525162 1.09508e-20)
(0.342869 0.0871048 -1.15728e-20)
(0.124427 -0.0219026 -1.42032e-20)
(-0.111143 -0.0131456 1.59634e-20)
(0.4301 -0.0241453 -5.71627e-22)
(0.714828 0.00868712 1.68626e-22)
(0.881079 0.0756714 1.01997e-21)
(0.198024 0.00848765 5.69777e-21)
(0.677225 0.00868339 3.08967e-22)
(0.770743 0.00470551 -2.25143e-22)
(-0.128965 -0.00102793 6.04598e-21)
(-0.038572 0.0828105 6.63772e-21)
(0.628018 0.0951456 4.67983e-20)
(0.172176 -0.0076569 -5.14064e-21)
(-0.126722 -0.000663992 1.3657e-20)
(0.0401271 0.0189797 1.12714e-20)
(0.0892543 0.0148819 -2.4042e-20)
(0.761894 0.00172342 -1.32088e-22)
(0.583715 0.0116251 4.00161e-24)
(0.0343287 -0.0583613 -2.43315e-20)
(0.522205 0.00254578 -2.7748e-22)
(0.763297 0.0116202 7.59518e-22)
(0.828559 0.00366444 -4.76491e-22)
(0.688495 0.00462038 6.94307e-23)
(0.817965 0.0131266 -2.39095e-25)
(-0.042636 -0.105998 4.19381e-21)
(0.00357607 0.0138405 4.19071e-21)
(0.605658 0.0421008 -3.84177e-22)
(0.097124 -0.0064685 -1.28395e-20)
(-0.0505596 0.0896213 -2.05849e-20)
(0.162009 0.0108021 -4.46414e-21)
(-0.137044 0.00269626 -7.70133e-21)
(-0.00389806 -0.0745677 -6.56707e-21)
(0.707815 -0.00580135 1.13429e-21)
(-0.139657 0.00441222 -2.09058e-20)
(0.710923 0.00892025 -1.33776e-22)
(-0.078767 0.0237166 -6.04238e-21)
(-0.121239 0.00316965 2.97202e-21)
(0.808975 -0.00394501 6.07712e-23)
(0.0683395 0.0174 -1.35153e-20)
(0.682443 0.00572268 -8.33939e-22)
(0.863616 -0.00226121 1.91537e-21)
(0.0337677 -0.05758 -1.60014e-21)
(0.0347997 0.0430827 4.09524e-21)
(0.347779 0.0569487 1.83618e-21)
(-0.0670644 0.0639815 1.2698e-20)
(0.752569 -0.00122158 -4.07966e-22)
(0.755786 -0.0919516 -5.29743e-21)
(-0.144576 0.00409691 -5.05976e-20)
(-0.0623609 -0.100285 2.11604e-20)
(0.00350898 -0.041637 -6.28778e-21)
(0.710053 0.00912214 2.51056e-22)
(0.703135 -0.000218372 -1.24032e-22)
(0.74873 0.010232 1.84925e-22)
(-0.0316602 -0.0199288 3.3566e-21)
(0.878686 0.00329447 9.17525e-23)
(0.408394 -0.0312441 -3.29642e-21)
(0.730606 0.0105024 -3.41155e-22)
(0.717603 0.000470828 7.42176e-23)
(-0.156795 0.000860548 -3.5859e-21)
(-0.0309646 0.0856898 7.97819e-21)
(-0.0204316 0.0810128 -2.21921e-20)
(0.14952 -0.0635912 5.61637e-21)
(0.813965 -0.000857587 -1.39085e-22)
(-0.0409348 0.0824666 -5.95677e-21)
(0.738513 -0.00301184 -1.02726e-21)
(0.792826 0.0231546 1.37132e-22)
(-0.10131 0.0109226 2.33309e-21)
(-0.13846 -0.00371944 -1.90835e-20)
(-0.154157 0.00135856 -7.90917e-21)
(0.379657 0.0219206 -3.15991e-21)
(0.522157 0.0188668 -1.83002e-22)
(0.563617 0.0456465 -8.8786e-21)
(0.690748 0.000490838 3.85131e-22)
(0.693588 0.00637917 -7.52527e-23)
(0.320078 0.0400081 -3.08777e-21)
(0.0475218 0.048273 -9.52576e-21)
(0.849306 0.00191477 -2.02258e-22)
(0.216258 0.00368703 1.84674e-20)
(-0.0544653 0.0882708 6.77706e-21)
(-0.127979 0.00373103 -1.47352e-20)
(-0.0662596 0.0629598 -7.50536e-21)
(-0.0680957 0.0171808 5.83415e-20)
(0.828294 0.00215531 9.96578e-22)
(0.114646 -0.0114882 -6.58779e-21)
(0.803609 0.00685203 1.44731e-22)
(0.687219 0.00617326 6.13768e-22)
(0.507565 -0.0705223 1.50572e-20)
(-0.0508017 0.123475 -1.33848e-20)
(0.0730302 0.0439065 1.95102e-21)
(-0.0915409 0.00117785 -1.3261e-20)
(-0.0901013 0.0440167 1.19494e-20)
(-0.106233 -0.0313656 1.28058e-20)
(0.496851 -0.03289 2.06577e-21)
(0.859851 0.0113115 5.85024e-24)
(0.696103 -0.00338469 -5.63421e-23)
(0.0590097 0.0477517 -2.27335e-20)
(-0.15641 -0.00114191 1.05613e-20)
(0.0878555 -0.0390456 -1.6081e-20)
(-0.0447157 -0.116892 2.95825e-20)
(-0.15836 0.000206785 9.79374e-21)
(0.770391 0.00916705 -2.33303e-22)
(0.880116 0.00445134 1.05477e-22)
(-0.146314 -0.00371733 4.32468e-21)
(0.388414 -0.0278515 -7.90618e-21)
(0.351975 -0.0223573 4.30108e-21)
(0.674726 0.00804854 2.19604e-22)
(-0.0331825 -0.100103 2.45693e-20)
(0.758182 -0.00179387 5.95072e-22)
(0.552545 0.0108355 1.79728e-22)
(-0.00208294 -0.0699211 1.12636e-20)
(0.880937 0.00493317 1.81066e-22)
(0.840526 -0.0510968 4.64961e-21)
(0.761839 -0.0487808 -4.92729e-21)
(-0.0199778 0.0860259 -2.48416e-20)
(0.910837 -0.0715157 9.47331e-23)
(-0.050489 0.115988 -3.50942e-21)
(-0.0490742 -0.108975 9.95278e-22)
(0.283519 -0.0265211 -4.30987e-21)
(0.160643 -0.04857 1.84306e-20)
(1.00478 0.0423549 -1.21404e-20)
(0.802807 0.0170491 2.67745e-23)
(0.859286 0.011708 5.56993e-24)
(0.741218 -0.00243994 -6.18197e-22)
(0.0192327 -0.0655967 1.79692e-20)
(-0.0289262 -2.68555e-05 -7.2924e-20)
(-0.117328 -0.0237354 -1.54568e-20)
(0.297627 0.0193629 5.3466e-21)
(0.75873 -0.00100205 -2.59924e-22)
(0.980038 0.0555455 1.26588e-20)
(0.972045 -0.0582811 -2.05625e-21)
(0.82836 -0.0355607 6.01731e-23)
(0.962147 -0.0637293 -5.67122e-21)
(0.356169 0.0200219 1.02971e-21)
(0.816669 -0.0153812 7.04747e-22)
(0.72905 -0.00412181 -1.54755e-21)
(0.822485 0.0114843 -6.14748e-22)
(0.785169 -0.00498852 -1.896e-22)
(0.684934 0.00353356 1.80155e-22)
(0.0417021 -0.0333796 -2.72655e-21)
(0.785266 -0.0105405 1.93975e-22)
(-0.0838456 0.0514354 -4.19513e-21)
(0.519692 0.0849577 -1.29431e-20)
(0.650375 -0.013072 -5.20446e-22)
(0.0893936 0.0376289 -1.11674e-20)
(0.678792 0.00430239 -1.732e-23)
(0.712157 0.00998734 -9.55364e-22)
(-0.0949602 -0.000111762 1.74477e-21)
(-0.132813 0.00578654 -2.13444e-21)
(0.0860186 -0.0535791 -7.81842e-21)
(0.69646 -0.00586143 -1.03689e-22)
(0.643233 0.00819606 -6.75874e-23)
(-0.0393706 -0.0681302 -2.26413e-23)
(-0.0408329 0.0889112 5.24199e-22)
(0.85703 0.00564361 3.99193e-22)
(-0.0444953 0.108609 -2.19542e-20)
(0.861579 0.0103627 1.85785e-24)
(0.849091 0.00472163 1.94704e-24)
(0.811485 -0.0550183 2.10271e-21)
(0.816498 0.0140912 -1.30512e-24)
(0.74277 0.010028 6.58442e-22)
(0.825584 -0.0620123 5.55762e-21)
(0.0656046 -0.041344 -1.29596e-21)
(0.0233268 -0.0476148 -4.54906e-20)
(0.263508 0.00334426 6.983e-21)
(-0.0651679 -0.0557696 8.14433e-21)
(-0.0104497 0.0184154 1.19883e-20)
(0.853406 0.00146544 -6.07534e-23)
(0.688452 0.00193478 8.01742e-24)
(0.825217 -0.0372553 5.56988e-22)
(0.374408 0.0355709 7.09937e-21)
(0.0100686 0.0647646 1.09678e-20)
(0.614912 -0.00857597 3.8232e-22)
(0.869222 0.0082822 5.78587e-23)
(0.832429 -0.00106408 4.05341e-23)
(-0.0658818 -0.041027 -1.13311e-20)
(0.824988 0.00115121 -5.52525e-22)
(1.0085 -0.0431294 -5.46194e-21)
(0.475057 0.035907 9.90293e-22)
(0.644506 -0.0981115 -3.20574e-21)
(0.454529 -0.0260133 -1.14944e-21)
(-0.057778 -0.0883278 -3.85774e-21)
(0.614862 -0.0099957 1.70119e-22)
(0.843607 0.00769341 1.13725e-21)
(0.754077 -0.00107138 5.61066e-22)
(0.558942 -0.0152717 -7.80979e-23)
(0.697267 0.00639768 4.32859e-23)
(0.19668 -0.0299886 7.32082e-21)
(0.745918 -0.00520721 5.48094e-22)
(0.0242326 0.00428743 -2.8395e-21)
(0.626696 0.0460966 -7.68232e-21)
(-0.0410533 0.0200794 -1.08848e-21)
(0.588777 0.0680829 -3.66232e-22)
(-0.0624132 0.0504344 -1.05709e-21)
(0.00465874 0.0137407 -1.84321e-20)
(0.84041 -0.0470581 -1.59891e-21)
(0.670441 0.035989 1.42861e-21)
(-0.095398 -0.00944049 6.61573e-20)
(0.386319 0.0819087 -7.94818e-21)
(0.257765 -0.0804166 -1.4376e-20)
(0.0677231 0.034309 -3.95595e-21)
(0.0199244 0.0569572 2.95654e-20)
(0.572709 0.0938631 1.87487e-20)
(0.156297 0.0173673 -1.92126e-20)
(0.276873 0.0724023 1.41675e-20)
(0.729907 0.0119697 -1.91672e-21)
(0.751678 -0.00359669 1.66141e-22)
(0.0287117 -0.0195348 1.79221e-20)
(-0.0530155 -0.0996957 -2.87258e-21)
(-0.0364555 -0.0175727 3.50043e-20)
(0.64498 0.030635 -6.70492e-23)
(0.236725 0.0784961 -2.40742e-20)
(0.458723 0.00676904 4.48262e-22)
(0.867782 -0.0230256 -5.63096e-23)
(0.56408 0.0023566 8.91144e-23)
(0.871399 -0.0182728 -8.72864e-24)
(0.87658 -0.0552632 2.15809e-21)
(0.827305 0.0109375 6.61055e-23)
(0.788697 -0.0143502 -1.17388e-22)
(-0.112565 0.0174486 2.22347e-20)
(0.717461 -0.00317037 2.25927e-22)
(0.689668 0.00523142 2.38153e-22)
(0.465858 -0.0346099 2.50507e-20)
(0.477366 0.0941446 5.29733e-21)
(0.837208 -0.0644651 1.90301e-21)
(0.855461 -6.91075e-05 -1.26143e-22)
(0.464262 0.0197386 -6.5891e-22)
(0.0837446 -0.0618406 -4.43041e-21)
(0.555161 0.0186708 -5.8937e-22)
(0.693235 -0.00295525 -6.0886e-22)
(0.860745 0.0108127 -2.58258e-25)
(0.70232 -0.0961219 -1.12511e-20)
(0.490522 0.0573811 1.73144e-21)
(0.789188 -0.0919368 -3.51324e-21)
(0.863891 0.00974667 -7.29517e-23)
(0.594567 0.0650188 -5.6376e-23)
(0.234075 -0.00554057 -1.5715e-21)
(0.670879 0.00529075 4.42418e-22)
(0.683288 0.00421065 -2.12723e-22)
(0.124191 0.00272662 -6.43587e-21)
(-0.100575 -0.0332334 9.0019e-21)
(-0.0301961 -0.0946691 -3.2238e-20)
(0.396777 -0.0396151 7.74766e-21)
(0.0785794 -0.0405883 -8.6566e-23)
(0.69605 0.0649058 7.90105e-22)
(0.00231345 0.0615204 2.12897e-20)
(0.457154 0.0335445 -4.21226e-22)
(0.612522 0.0227948 -6.74437e-23)
(0.807404 0.0195349 2.40682e-22)
(0.641189 0.0181432 -1.50338e-22)
(0.285498 0.087402 9.74445e-21)
(0.695307 -0.0247379 -4.16099e-23)
(0.849255 0.00243136 4.14582e-22)
(0.871618 -0.017601 -7.16449e-24)
(0.149743 0.0563999 1.34635e-20)
(-0.157426 -3.74886e-05 2.87005e-20)
(0.524497 -0.0617237 -9.88835e-22)
(0.876406 -0.0532957 -5.01117e-22)
(0.435146 0.00796811 -8.52967e-22)
(0.582344 -0.0439708 3.54667e-22)
(0.404389 0.00551167 -2.33872e-22)
(0.439293 0.00392207 1.01498e-21)
(0.219126 0.0083796 9.64636e-21)
(0.461615 0.0031136 -4.40661e-22)
(0.163811 0.00935287 1.30147e-20)
(0.616572 -0.0434114 1.38293e-21)
(0.692684 0.0193767 -3.60879e-22)
(0.547293 -0.0479112 -4.57613e-21)
(0.49022 -0.000398159 3.98652e-22)
(0.69437 0.0101125 4.18276e-22)
(0.509252 0.0012803 -6.16765e-22)
(0.692348 0.0186382 9.64146e-23)
(0.478925 0.0635093 -3.85669e-21)
(0.773283 0.0132831 2.00979e-23)
(0.528155 -0.00132635 4.97312e-22)
(0.383281 0.0447278 -5.98684e-21)
(0.598261 0.0624791 1.15828e-21)
(0.550618 0.000891648 -1.8275e-22)
(0.707499 -0.0186918 8.9869e-23)
(0.412931 0.00085784 9.83827e-22)
(0.37709 -0.00290707 3.79594e-22)
(0.34164 -0.00505916 5.86343e-22)
(0.288458 0.00221795 -5.29147e-21)
(0.240664 0.00525741 -5.80639e-21)
(0.446257 -0.00104229 -9.99424e-22)
(0.180883 -0.00177712 -1.12524e-20)
(0.467509 -0.00140557 -4.52369e-22)
(0.593154 -0.0475254 9.12434e-22)
(0.498081 -0.00294946 -5.3905e-23)
(0.640978 -0.0428245 -1.63433e-22)
(0.512805 -0.00146935 -2.52281e-22)
(0.602928 -0.0193817 4.02961e-23)
(0.647455 -0.023064 2.70347e-22)
(0.53588 -0.00235276 -6.45942e-22)
(0.563713 -0.000114111 4.92876e-24)
(0.553775 -0.00275058 -4.12185e-23)
(0.839719 -0.0205316 -8.91386e-23)
(0.727867 0.0129345 -9.8398e-24)
(-0.146099 -0.00399957 -2.50283e-20)
(0.799344 0.00268348 -3.35769e-22)
(0.72921 -0.0192926 -2.74529e-22)
(0.723222 0.013819 2.62855e-23)
(0.566825 -0.00289928 1.17895e-22)
(0.72116 -0.0014754 8.55654e-22)
(0.52483 -0.0340097 2.78514e-21)
(0.576165 -0.00157073 -4.54067e-24)
(0.386376 0.0092802 1.67201e-21)
(0.347261 0.00815054 4.40818e-22)
(0.480758 0.00656091 1.32172e-21)
(0.583723 -0.00443409 -2.13846e-22)
(0.726183 0.0125693 1.9785e-23)
(0.672072 -0.00145537 -6.57717e-22)
(0.754297 -0.0547935 -1.35602e-21)
(0.766466 -0.0431582 -9.39882e-22)
(0.126538 -0.0219111 2.35299e-20)
(0.806686 -0.00361447 -2.88928e-22)
(0.422008 -0.0174142 -4.3139e-22)
(0.597809 -0.00296355 -3.1541e-22)
(0.562766 -0.0146316 8.33476e-23)
(0.68411 -0.00306736 -7.00952e-22)
(0.732491 0.0129843 -6.5713e-23)
(0.285715 0.0238702 -8.30668e-23)
(0.596015 0.0123509 -5.89184e-23)
(0.0516251 0.00127878 -3.67426e-21)
(0.589735 0.00141592 9.29113e-23)
(0.769622 -0.000190909 -2.54181e-22)
(0.746811 0.0120892 7.36733e-22)
(0.824021 0.00972504 5.12034e-22)
(0.607818 -0.00155096 -1.71645e-22)
(0.631787 0.0254897 4.15103e-22)
(-0.0475631 0.0797973 -1.5507e-20)
(0.827861 -0.000139435 5.0448e-22)
(0.604165 0.0016777 -1.61429e-23)
(0.150224 -0.00756556 6.93101e-21)
(0.610693 -0.0019704 5.65149e-22)
(0.732418 0.0113882 -2.69353e-23)
(0.709268 0.0108264 4.2207e-22)
(0.447546 -0.0442109 -3.29491e-20)
(0.707525 0.00904798 2.56261e-23)
(0.841665 0.0101146 3.34869e-22)
(0.488279 0.0601688 2.02381e-21)
(0.725995 0.013063 -2.13852e-23)
(0.0378183 0.0456299 4.82911e-21)
(0.608624 -0.0530786 -3.63601e-21)
(0.637906 -0.0460072 -4.05076e-21)
(0.265629 0.0060982 -3.3141e-21)
(0.309848 -5.76796e-07 -6.44714e-21)
(0.203433 -0.0189102 2.80984e-20)
(0.685242 0.0102368 -1.09315e-22)
(0.456243 -0.00430976 2.15211e-21)
(0.465672 0.0185098 -4.48021e-22)
(0.397824 0.022398 2.24921e-21)
(0.477209 -0.00336886 1.43655e-21)
(0.756314 0.0330111 -4.60997e-22)
(0.520792 -0.0026327 2.5137e-22)
(0.361725 0.0890494 -2.73958e-20)
(0.541772 0.000157 4.89493e-22)
(0.625008 -0.00132802 2.09374e-22)
(0.250314 -0.0047445 -4.42791e-21)
(0.297995 -0.00879283 2.9434e-21)
(0.318512 0.0353283 7.35135e-21)
(-0.0927165 -0.00763471 -1.61528e-20)
(0.662659 -0.0411271 2.41069e-21)
(0.727063 0.012437 -1.40649e-22)
(0.246076 0.071288 1.33256e-20)
(0.632965 0.041992 -6.88691e-22)
(0.645108 0.0160317 9.22458e-23)
(0.560384 -0.0048391 8.69827e-23)
(0.517148 -0.0052904 1.48234e-22)
(-0.0450997 0.0471051 3.20736e-21)
(0.790789 0.00885138 -5.38174e-23)
(0.604856 -0.0384551 -1.78995e-21)
(0.620153 0.000994204 1.0494e-22)
(0.81981 0.0121713 8.17538e-24)
(0.595068 0.00583212 -1.24438e-22)
(0.621806 0.00274276 -3.22656e-22)
(0.621904 -0.000256856 -6.83858e-22)
(0.573636 -0.00551524 -1.22465e-22)
(0.738298 -0.0201593 -2.33858e-23)
(0.651043 -0.0222999 -1.60043e-22)
(0.676761 -0.016218 1.95569e-22)
(0.602843 -0.00170031 2.63322e-22)
(0.732715 -0.0185509 -1.40095e-22)
(0.0413347 0.0528414 1.38876e-20)
(0.509151 0.0103813 1.36142e-22)
(0.71961 -0.00922434 -8.19931e-22)
(0.566991 0.00805665 1.44503e-22)
(0.583204 0.00545754 1.74527e-22)
(0.755122 -0.0191364 4.89992e-23)
(0.205773 -0.0280508 -1.21711e-20)
(0.614654 0.0322697 2.3534e-22)
(0.543834 0.0397996 -5.56702e-22)
(0.668366 0.0251542 7.36887e-23)
(0.683449 0.0104956 3.03661e-22)
(0.737217 0.0127359 -6.04814e-22)
(0.724776 0.0125087 8.50331e-24)
(0.697273 -0.0169573 -5.98973e-23)
(0.402891 -0.092588 -4.26486e-21)
(0.675044 -0.0549742 7.62718e-21)
(0.300751 -0.0222525 -1.81231e-21)
(0.730831 -0.0283145 5.89135e-22)
(0.629085 0.00140885 6.94067e-22)
(0.484815 -0.0125901 4.41869e-22)
(-0.0373868 0.0985029 8.70984e-21)
(0.591808 0.0328918 -6.40801e-22)
(0.885393 0.0190011 -2.64144e-22)
(0.883541 0.0309924 3.16979e-22)
(0.896435 0.00770637 4.51424e-24)
(0.894951 0.00941123 -1.08103e-23)
(0.871055 -0.0414624 -2.0029e-21)
(0.870958 -0.0187592 4.20673e-23)
(0.893067 0.0112847 2.34106e-24)
(0.892926 0.00719751 -2.04108e-22)
(0.869116 -0.0221227 9.33528e-23)
(0.89569 0.00754231 7.98707e-23)
(0.870146 -0.0158441 1.70877e-23)
(0.895937 0.00767444 -5.59018e-23)
(0.891362 0.00669685 -3.15822e-22)
(0.891309 0.00663874 -1.71347e-23)
(0.890309 0.0119158 -3.2116e-23)
(0.867137 -0.0243623 1.08679e-22)
(0.872447 -0.0170507 3.82373e-24)
(0.894188 0.0103606 -2.4849e-23)
(0.878142 -0.0504116 1.38082e-21)
(0.608023 0.00452054 1.54433e-22)
(0.581351 -0.0101999 1.64291e-22)
(0.160833 -0.01234 -2.24738e-20)
(0.218689 -0.0150076 -8.59059e-21)
(0.848424 0.00341666 -6.93291e-22)
(0.817955 0.00254289 4.50923e-22)
(0.660281 0.00862315 -1.05693e-21)
(0.633311 -0.0601653 1.02045e-21)
(0.354483 -0.00356921 1.9335e-22)
(0.531795 0.0412792 -3.40638e-22)
(0.389652 -0.00410435 -4.99528e-22)
(0.636141 0.0169581 1.40412e-22)
(0.888068 0.0158359 -4.96446e-22)
(0.884731 0.0178912 -4.59183e-23)