/*--------------------------------*- C++ -*----------------------------------*\
  =========                 |
  \\      /  F ield         | OpenFOAM: The Open Source CFD Toolbox
   \\    /   O peration     | Website:  https://openfoam.org
    \\  /    A nd           | Version:  10
     \\/     M anipulation  |
\*---------------------------------------------------------------------------*/
FoamFile
{
    format      ascii;
    class       volScalarField;
    location    "550";
    object      epsilon;
}
// * * * * * * * * * * * * * * * * * * * * * * * * * * * * * * * * * * * * * //

dimensions      [0 2 -3 0 0 0 0];

internalField   nonuniform List<scalar> 
23845
(
0.0401779
0.0590603
0.0622659
0.0150338
0.04207
0.00240092
0.0733471
0.0115005
0.00207033
0.0258668
0.0225988
0.00203191
0.00401374
0.00226833
0.119163
0.0134327
0.00648791
0.00832956
0.00526009
0.00311612
0.0331837
0.0200801
0.0279111
0.00210347
0.0258671
0.00177005
0.0508253
0.00283676
0.0111033
0.00314005
0.0166828
0.0257492
0.137983
0.00880345
0.00204992
0.00253005
0.0216129
0.00205675
0.0021416
0.0023361
0.00509529
0.00581375
0.00342491
0.00572709
0.00135745
0.00446038
0.0299507
0.0146529
0.0239451
0.0116153
0.0153238
0.0507663
0.0291847
0.00258797
0.024935
0.00597434
0.0563823
0.0118377
0.0415547
0.0380093
0.0113848
0.0061445
0.0118302
0.0139686
0.001969
0.00398038
0.0541697
0.00125307
0.00123737
0.00641496
0.0112264
0.0464515
0.00219358
0.102916
0.00178969
0.116815
0.00203337
0.00217008
0.0121771
0.0095817
0.0389953
0.093942
0.060168
0.0120027
0.0692419
0.00206758
0.0799436
0.0306342
0.00192404
0.0084474
0.014968
0.00653898
0.0119943
0.00251248
0.0121466
0.0131942
0.00568628
0.0162433
0.00174416
0.0336041
0.00676119
0.0586284
0.049255
0.0149058
0.014259
0.0124045
0.0024508
0.00163543
0.0472645
0.00561276
0.0200941
0.00208254
0.0935377
0.0211429
0.00264765
0.0237789
0.00192401
0.016184
0.0112198
0.0142812
0.00211941
0.0185392
0.00677479
0.0242159
0.0624655
0.00190132
0.0112712
0.0115456
0.0452491
0.0331215
0.0643396
0.0373111
0.0267557
0.00231211
0.00849485
0.0460719
0.0138907
0.00201146
0.0451967
0.00218257
0.0125323
0.00543459
0.00219914
0.00616213
0.00978176
0.00524838
0.0190894
0.0886049
0.0217692
0.0100107
0.130165
0.00291998
0.0691654
0.00303401
0.0885687
0.0164117
0.04675
0.00223775
0.0852308
0.0120876
0.00834282
0.116089
0.0125002
0.00199845
0.00290793
0.0120733
0.00229615
0.0168217
0.00295653
0.00508113
0.00239233
0.0163899
0.00209313
0.0201544
0.0021452
0.0118945
0.00739069
0.0214216
0.00158972
0.00220609
0.0337937
0.0299594
0.100647
0.0178143
0.0117674
0.00515413
0.00590593
0.0118925
0.0112338
0.00564308
0.0130777
0.0023474
0.00243386
0.00249985
0.00914206
0.00231891
0.013557
0.0116617
0.0237581
0.0213434
0.0132306
0.00249878
0.0191014
0.0331766
0.0117602
0.0123014
0.058491
0.00228563
0.0482641
0.00944231
0.0100338
0.0152979
0.0087076
0.00302826
0.0197104
0.0233091
0.0284773
0.00647408
0.0184048
0.0597291
0.00239141
0.110759
0.0138464
0.0141007
0.00534911
0.127962
0.0143895
0.00237713
0.00246261
0.00538468
0.00236755
0.0213052
0.00211294
0.0014012
0.0426524
0.0109925
0.00193227
0.0151594
0.00230059
0.0182116
0.0278599
0.0175767
0.0119399
0.040513
0.0173358
0.0128538
0.00241926
0.00122415
0.01204
0.113547
0.00435897
0.00219724
0.0150619
0.00339617
0.0968307
0.0144583
0.0173566
0.0132426
0.00266943
0.0022203
0.0349357
0.0022614
0.0112154
0.0193888
0.0173067
0.00217327
0.0119188
0.029448
0.0216925
0.0142927
0.00216808
0.0149507
0.016629
0.00249531
0.0178311
0.00243828
0.0130665
0.00243549
0.0228041
0.0270481
0.0132217
0.00251239
0.0139267
0.0110862
0.00210723
0.0148281
0.0207338
0.00249906
0.0120482
0.0984132
0.0118868
0.0190939
0.0132187
0.0130311
0.0119573
0.00208379
0.0190239
0.00246836
0.0020958
0.0118631
0.0908093
0.119638
0.011025
0.0141889
0.00253964
0.0150311
0.0153631
0.0161566
0.00643933
0.0124961
0.017141
0.0644137
0.00507227
0.00241136
0.0356053
0.0120781
0.016667
0.0286123
0.0142527
0.00262816
0.0164163
0.0160508
0.0310178
0.00310536
0.108953
0.00233323
0.0126471
0.0313684
0.017234
0.00896799
0.0724452
0.0122614
0.0147245
0.00224398
0.0177958
0.016205
0.0220335
0.00807925
0.00501375
0.0120955
0.0186697
0.0256747
0.0202732
0.0014908
0.00141193
0.0271373
0.00222585
0.013191
0.0124075
0.116128
0.0210149
0.061003
0.0115722
0.0139747
0.0296704
0.00240989
0.00466126
0.00224719
0.0999753
0.0117488
0.0319578
0.00197752
0.0183827
0.00971705
0.0111924
0.00232964
0.0229801
0.00263389
0.0115053
0.00173113
0.00549258
0.0150576
0.0294101
0.00203504
0.00231451
0.014422
0.0334156
0.0180529
0.00505316
0.0156526
0.103946
0.002315
0.0271244
0.00135257
0.00144212
0.0021121
0.00239727
0.0119849
0.0124978
0.0118739
0.0587638
0.00494061
0.0187475
0.0169839
0.0179458
0.0125148
0.0167811
0.00158009
0.00678206
0.00228763
0.0271217
0.0190274
0.0124972
0.0220113
0.0490146
0.106948
0.00223836
0.0230111
0.0125306
0.0135587
0.125275
0.00132797
0.083156
0.0249385
0.0502259
0.0398795
0.0231795
0.0159605
0.00228914
0.0223625
0.102267
0.00383641
0.00215598
0.0122559
0.0118048
0.0514585
0.0924897
0.0185892
0.0249125
0.03041
0.00238178
0.00822972
0.0260887
0.00775464
0.00397992
0.00191502
0.00202432
0.00499343
0.0112484
0.0232481
0.115738
0.0721409
0.0136991
0.0432702
0.0187394
0.0184991
0.0031713
0.0212217
0.00229295
0.0166874
0.0120156
0.00267474
0.0615178
0.0022636
0.00144342
0.0233893
0.0384738
0.035481
0.0123876
0.00260429
0.0508285
0.0135825
0.0136301
0.0355795
0.00243178
0.0022427
0.00254412
0.0203922
0.00154915
0.117336
0.00305107
0.00232422
0.0173473
0.0120709
0.0165664
0.0396934
0.00239311
0.0175843
0.0028192
0.00830757
0.0249568
0.0212576
0.0160003
0.0191848
0.0125971
0.0937941
0.00216118
0.0020929
0.0645021
0.0226514
0.00175855
0.0859414
0.0130981
0.0224656
0.0119012
0.0267998
0.00199967
0.0367016
0.00182583
0.0022656
0.0742041
0.0133915
0.0299274
0.0251019
0.0122757
0.0122582
0.017454
0.0039501
0.00276131
0.0254455
0.0157145
0.0391199
0.0209433
0.0164229
0.00248008
0.00159354
0.0199801
0.126289
0.0975335
0.00483721
0.0278688
0.00273138
0.00882336
0.0210733
0.00170021
0.0772408
0.101764
0.0148582
0.0299981
0.0122197
0.0111404
0.120774
0.0322133
0.0274487
0.00649876
0.00407168
0.00267962
0.0194699
0.0269882
0.0126036
0.065795
0.00260551
0.0248984
0.0254018
0.00852932
0.0241635
0.0195215
0.0034881
0.00293137
0.00333068
0.00295549
0.00207862
0.0231336
0.00338708
0.0116923
0.0660329
0.00469102
0.0363691
0.00225318
0.00268783
0.0120933
0.0125106
0.0436389
0.00321101
0.00471925
0.0207814
0.0144206
0.00201495
0.0112192
0.0035151
0.00160114
0.0781774
0.00531334
0.00249834
0.0151958
0.0325465
0.0195885
0.0892077
0.012765
0.0288114
0.00176214
0.00205376
0.00903123
0.0767643
0.0223626
0.00436785
0.00225043
0.00222092
0.0131868
0.00214249
0.028601
0.123931
0.0484123
0.0157544
0.0120497
0.00466763
0.00151099
0.00269478
0.00797213
0.002067
0.0474803
0.00296427
0.0270583
0.106738
0.0195189
0.0314391
0.0134649
0.0280317
0.0841705
0.0154865
0.0252132
0.0493946
0.0574952
0.0319895
0.0280066
0.0497976
0.0267787
0.0477806
0.00328312
0.00285752
0.0281346
0.0112631
0.0273558
0.0146588
0.051678
0.0110661
0.00469537
0.00613847
0.00330572
0.0114808
0.00388189
0.00386901
0.0244533
0.00270476
0.00205368
0.104436
0.0504291
0.0153522
0.00181417
0.0153642
0.042181
0.0116776
0.00282016
0.00372687
0.0364625
0.0302976
0.0354788
0.00328913
0.0298315
0.0594082
0.00258619
0.00215184
0.0254573
0.0128843
0.0123518
0.141264
0.0402442
0.0245504
0.0161321
0.0210436
0.0119827
0.00695495
0.00960768
0.0516661
0.00857662
0.00179889
0.00319335
0.0378199
0.0179328
0.028105
0.0104589
0.0122539
0.0199093
0.0133145
0.0114642
0.0226444
0.0104345
0.0249933
0.0184757
0.00902087
0.0230882
0.00888533
0.00502328
0.00815598
0.00870812
0.0336458
0.0056038
0.00714085
0.0281973
0.0283949
0.00636458
0.0054316
0.0125501
0.0143138
0.0162947
0.0191915
0.0214885
0.0108707
0.0236839
0.00988518
0.0215671
0.00845246
0.0169988
0.00782097
0.00811978
0.0085945
0.00679405
0.00580615
0.00606872
0.0043551
0.00587177
0.0192134
0.00217842
0.00522464
0.00627282
0.00554878
0.0024784
0.016835
0.00525404
0.0150132
0.0169982
0.0101018
0.00493566
0.00570241
0.00269725
0.0165164
0.0126976
0.0267112
0.0026037
0.0141742
0.00447058
0.00763379
0.0028405
0.00515834
0.0225722
0.00804233
0.0266852
0.00507474
0.00261619
0.00370059
0.00150513
0.00421995
0.012618
0.0116031
0.00220138
0.00463182
0.0250403
0.00404806
0.00387151
0.00329145
0.0831781
0.00487005
0.00133065
0.0319776
0.0060627
0.0209553
0.0227509
0.0197175
0.0203529
0.0179035
0.0239054
0.00511795
0.0104531
0.0144873
0.0186142
0.00941252
0.0122028
0.0074356
0.0577406
0.00666751
0.00365118
0.0206243
0.0187106
0.0258413
0.0188848
0.0157412
0.00347368
0.0439361
0.0192261
0.00843485
0.00585096
0.00769552
0.0164076
0.00246622
0.0164135
0.00392309
0.00445453
0.00578256
0.0041281
0.00377074
0.00541819
0.0053757
0.00827961
0.00501663
0.0043634
0.00498729
0.0390901
0.0100046
0.00360834
0.0072851
0.00625654
0.00494143
0.0261907
0.0155783
0.0210329
0.0115253
0.00535833
0.0035972
0.00552284
0.00478714
0.0516755
0.0207829
0.0204461
0.00955805
0.00364057
0.0103549
0.012369
0.0164419
0.00518232
0.00715848
0.00257358
0.00310585
0.00829709
0.00342819
0.00354365
0.00198452
0.00449989
0.00227602
0.00284281
0.00243122
0.00221756
0.00185778
0.00382823
0.00487423
0.0030736
0.00331206
0.00972153
0.00502104
0.00574471
0.0418084
0.022533
0.00168979
0.00210725
0.00458514
0.0243512
0.0156172
0.0220702
0.0137377
0.00918947
0.00475076
0.00502597
0.00649002
0.00930082
0.00814061
0.0034208
0.00548485
0.00368894
0.00743474
0.00201103
0.100529
0.00211131
0.0187978
0.00615738
0.0275526
0.00336988
0.00481804
0.00761262
0.00563465
0.0140713
0.0113946
0.00600141
0.0158467
0.00375585
0.00419976
0.00263576
0.00255528
0.00218266
0.00205738
0.00529595
0.00475576
0.00358766
0.0179574
0.00373877
0.0171612
0.0188863
0.01811
0.00624778
0.0148831
0.00581661
0.0024262
0.00790619
0.00199751
0.0120256
0.00434371
0.00212047
0.0169595
0.00400278
0.00276059
0.0144842
0.00345474
0.00878122
0.0191147
0.0108216
0.0051925
0.00940573
0.00375021
0.00752577
0.00351354
0.0173889
0.0366278
0.00217664
0.00942821
0.0131238
0.0142119
0.0311394
0.0164452
0.0042687
0.00949898
0.00710779
0.00603006
0.131889
0.0201106
0.00556342
0.00485737
0.00299194
0.0244336
0.00494462
0.125938
0.00461846
0.0023229
0.00524134
0.00369165
0.00533618
0.00434886
0.00479179
0.0380257
0.00366723
0.0253387
0.00940591
0.0250734
0.00442933
0.0119261
0.0108504
0.0134544
0.014143
0.00816665
0.0158152
0.00834633
0.0157721
0.0174346
0.0204947
0.00757163
0.0183842
0.018129
0.0109095
0.0281055
0.0222727
0.0160313
0.0234111
0.00348007
0.00672989
0.00835787
0.00588916
0.00273275
0.00535545
0.013779
0.00576539
0.00334799
0.0154981
0.0135831
0.016133
0.00662848
0.0328388
0.00324034
0.00543482
0.00520123
0.00477407
0.00931729
0.00269458
0.016221
0.0316102
0.0535187
0.00345931
0.00442649
0.0196333
0.0229097
0.0031465
0.0186255
0.011719
0.0108048
0.0149937
0.0178541
0.00683923
0.0178409
0.0230592
0.0200844
0.0268829
0.02704
0.0287203
0.00375422
0.00813537
0.00795431
0.00434089
0.0129466
0.0157855
0.00515085
0.0272846
0.00350776
0.106305
0.00379897
0.00323463
0.0116875
0.00305178
0.00134924
0.00217125
0.00224464
0.00460732
0.00379137
0.00417373
0.0053439
0.0254719
0.0116592
0.00345718
0.0108421
0.00820078
0.0264783
0.0236452
0.0493153
0.0191459
0.00349841
0.00595683
0.00488551
0.00313467
0.00161953
0.002749
0.0332997
0.0265901
0.00995574
0.0140579
0.0114093
0.0156112
0.0175791
0.0216569
0.00421799
0.0298044
0.0205382
0.0246657
0.0198007
0.016334
0.0170487
0.0087832
0.0149381
0.00514344
0.0132115
0.0101688
0.00569548
0.00897304
0.00792887
0.00720373
0.00461449
0.00460456
0.0117146
0.0230354
0.0250496
0.00334402
0.0190399
0.0033551
0.0027112
0.00677783
0.00203347
0.0118744
0.00648728
0.00576363
0.00547536
0.0062066
0.00513577
0.0303136
0.00320019
0.00308656
0.0243675
0.0063463
0.00169172
0.0115013
0.0269712
0.0116817
0.012087
0.0553923
0.00470933
0.0149929
0.017593
0.0197306
0.00933516
0.00325301
0.0168249
0.0145193
0.0148039
0.0128009
0.010961
0.00995351
0.0343314
0.00866032
0.0205092
0.0038015
0.0068554
0.0332026
0.00665142
0.00823408
0.0520515
0.00611966
0.00167704
0.00316232
0.00541209
0.00286617
0.00411067
0.00340119
0.00349499
0.0274408
0.00499729
0.00449544
0.0302165
0.00294716
0.00319327
0.00318858
0.048518
0.00503383
0.00403867
0.0275708
0.00283505
0.0017779
0.00357733
0.00450073
0.0049473
0.0202255
0.00294051
0.00399905
0.0128127
0.0216955
0.0268864
0.0178862
0.0139408
0.00349825
0.00735353
0.00513378
0.00585732
0.00343399
0.0270944
0.00782743
0.00321478
0.00303511
0.00924796
0.00797599
0.028447
0.0129358
0.00346931
0.00473398
0.00334677
0.0259868
0.0073952
0.00233378
0.0219009
0.00369405
0.0129867
0.00327799
0.00230064
0.00287591
0.0106643
0.00461863
0.00459106
0.0200268
0.00328417
0.0251459
0.00781929
0.00312334
0.0159622
0.00431505
0.0132606
0.0142556
0.00993498
0.0182678
0.010147
0.00318861
0.0114744
0.011189
0.00357163
0.00622842
0.00494275
0.00476522
0.00989286
0.00191379
0.00248993
0.0119828
0.00219637
0.00398698
0.0148368
0.00209053
0.0034224
0.0186822
0.00321203
0.00265723
0.0165029
0.0340457
0.0315942
0.00242463
0.00339784
0.0216094
0.00223468
0.00241663
0.0373044
0.0208006
0.0353727
0.00770945
0.0305413
0.00453227
0.00652276
0.0139506
0.0176493
0.0034334
0.0154165
0.040741
0.0396186
0.00333311
0.00429808
0.00301546
0.00213219
0.0028246
0.00519076
0.00390496
0.128159
0.00860355
0.00468057
0.024347
0.00793311
0.020102
0.00311314
0.0275843
0.00529221
0.00770009
0.0395458
0.00461103
0.00973629
0.0027363
0.00371194
0.0588586
0.00274653
0.0454749
0.0152507
0.0231699
0.0178623
0.0129102
0.0312605
0.00395594
0.00380905
0.0277543
0.00410461
0.00425635
0.00437287
0.0371491
0.00271087
0.00333166
0.00457768
0.04403
0.00467725
0.00731241
0.00633309
0.00292695
0.0191807
0.0097752
0.0119329
0.0419171
0.00200029
0.016875
0.00410118
0.012822
0.00266348
0.0465027
0.00799137
0.00747125
0.00331041
0.0108646
0.0148646
0.00689121
0.0190789
0.0231893
0.00366119
0.00706467
0.00268537
0.0213765
0.0198375
0.0023513
0.0099109
0.00767932
0.0110091
0.011827
0.0153629
0.00639801
0.0145756
0.0154297
0.0388433
0.00986327
0.0346556
0.00241578
0.0119632
0.00333046
0.00349977
0.070641
0.0372313
0.0222057
0.0023607
0.0336763
0.00739772
0.00626551
0.0398544
0.00654821
0.0490825
0.0110418
0.0460863
0.0146225
0.00230968
0.111344
0.0136505
0.0129762
0.0111346
0.0380786
0.0484408
0.00288214
0.00433673
0.142066
0.0361501
0.00334371
0.0449433
0.0475504
0.0046404
0.0369624
0.00435391
0.0395644
0.00730389
0.0126338
0.00214513
0.0336814
0.0369503
0.00211455
0.117001
0.0417483
0.0023365
0.0132931
0.0038131
0.0213854
0.0319886
0.0119141
0.0030031
0.029736
0.0316488
0.00742951
0.0437738
0.00685914
0.00404889
0.0113799
0.0116966
0.0374353
0.00283074
0.0029203
0.0271748
0.00881384
0.00439089
0.00696587
0.0032298
0.0132547
0.0119787
0.0332312
0.0614272
0.0431057
0.00292208
0.0130618
0.00299285
0.0103495
0.0142737
0.00587968
0.0112816
0.00259861
0.041068
0.0192038
0.00322065
0.00311846
0.0137485
0.0268068
0.0443662
0.0531354
0.0169774
0.00664124
0.012506
0.00246234
0.00300249
0.00418732
0.00149479
0.00250146
0.00439697
0.0338668
0.13252
0.00590718
0.00412497
0.00958666
0.0396913
0.00445413
0.0144722
0.00766258
0.010685
0.00550969
0.0113516
0.0262493
0.0271888
0.0144068
0.00276569
0.0151864
0.0821464
0.0121285
0.00380254
0.0108909
0.0256368
0.0144324
0.00301713
0.00297243
0.00712554
0.012537
0.0132404
0.0131478
0.00236716
0.0143832
0.00396591
0.0026541
0.0561075
0.0122597
0.03371
0.0136173
0.0173463
0.0202649
0.0103782
0.00304605
0.0351136
0.00295505
0.00755895
0.00714105
0.010722
0.0118816
0.0147692
0.00834792
0.013743
0.0286116
0.0121297
0.0191198
0.0031332
0.0533439
0.00274912
0.00263123
0.0258111
0.0265407
0.011228
0.0536716
0.012099
0.00311693
0.0241218
0.00303888
0.0315126
0.0365924
0.002792
0.0181893
0.0504543
0.00616024
0.0448625
0.0182476
0.0320916
0.00806019
0.0445751
0.0422805
0.00316922
0.00982897
0.0470889
0.00306762
0.00290489
0.0358581
0.00236004
0.0131381
0.0408012
0.0282545
0.0930088
0.0018192
0.0022914
0.00240661
0.0594487
0.00304892
0.00394357
0.00844998
0.0161712
0.003754
0.00309802
0.00301238
0.0142501
0.014018
0.0025725
0.0109783
0.0023002
0.00238453
0.00265073
0.0757724
0.0225625
0.00250779
0.00289402
0.0215573
0.0306982
0.00419848
0.016619
0.00246482
0.00234909
0.0361931
0.00319678
0.0263622
0.00220961
0.0175579
0.0115482
0.142498
0.0146606
0.0945705
0.0653018
0.00284651
0.0446103
0.00306114
0.00298385
0.00634645
0.0249695
0.00287188
0.0146202
0.0259697
0.00410427
0.00387017
0.0169341
0.0511718
0.0133676
0.0750951
0.0282506
0.03119
0.00260686
0.041707
0.0295052
0.00214067
0.0207156
0.00235799
0.00249209
0.0537962
0.0111436
0.0111859
0.0611564
0.0551784
0.00398016
0.0118271
0.00455129
0.0268983
0.00255803
0.0397407
0.0402143
0.00270361
0.0353177
0.00276277
0.0027565
0.00235276
0.0123362
0.0162426
0.100064
0.0392206
0.00361066
0.0576736
0.00249464
0.00251203
0.00212983
0.030805
0.0121523
0.0023905
0.00743987
0.0620897
0.0155987
0.0160334
0.00287197
0.011875
0.00366711
0.00395219
0.00578709
0.00172441
0.00535033
0.00210788
0.00233924
0.111467
0.00418497
0.00713514
0.00256177
0.0120487
0.0131361
0.0349672
0.00158961
0.0127594
0.0309174
0.0108829
0.00292886
0.0384286
0.00270946
0.028808
0.0139484
0.0124696
0.00737096
0.00374471
0.0599656
0.0476443
0.00286727
0.0037335
0.0539139
0.0438962
0.0230886
0.00651523
0.032513
0.00421717
0.0124131
0.00736784
0.0132025
0.00239885
0.00360865
0.00681848
0.0134713
0.0117161
0.0025566
0.0127963
0.015123
0.0126386
0.0131732
0.0205003
0.0321066
0.0279176
0.0026616
0.0377377
0.0392489
0.0345663
0.00154971
0.0170348
0.0194172
0.0132121
0.0435059
0.00226712
0.00285307
0.0301455
0.109814
0.0158451
0.0586736
0.00216884
0.00286491
0.0055689
0.00362867
0.0144207
0.00369396
0.00244827
0.0263124
0.0257486
0.0666983
0.0585773
0.105
0.0537982
0.0537408
0.0220137
0.0151453
0.036177
0.00729881
0.0347519
0.00219916
0.0211296
0.00208217
0.0686455
0.0119778
0.00656931
0.0116469
0.0029188
0.00710199
0.00673063
0.00275945
0.0122772
0.00259024
0.0486985
0.0414575
0.00416504
0.0302654
0.030673
0.0174082
0.0340148
0.148484
0.0116953
0.0117457
0.0628865
0.0116267
0.0229958
0.00181542
0.0689821
0.00193276
0.0151999
0.0133342
0.00533626
0.0405435
0.0293965
0.00196733
0.0124973
0.00359034
0.0714969
0.030437
0.00836831
0.0951921
0.00617805
0.0267103
0.00409691
0.00694646
0.0606985
0.0193208
0.00904894
0.0029495
0.00369544
0.0139537
0.00405686
0.0857164
0.0135472
0.00861991
0.0624178
0.00206214
0.01148
0.0109085
0.00271244
0.0259368
0.0682636
0.0373986
0.0252474
0.0151536
0.0616438
0.00281277
0.0173156
0.00231
0.00247728
0.0136178
0.00226083
0.0530636
0.0631443
0.0642609
0.0176248
0.0175314
0.031346
0.0100221
0.00315447
0.00845005
0.00346677
0.0146154
0.00652841
0.00480909
0.00960265
0.124735
0.00234543
0.0810015
0.0473255
0.0119107
0.0122024
0.0441042
0.0334872
0.00213721
0.145184
0.00432765
0.00227656
0.00232718
0.135123
0.0035267
0.00260485
0.00311633
0.0346508
0.00436114
0.0119042
0.00719109
0.0105977
0.00966277
0.00293143
0.02797
0.00436429
0.00514083
0.0320975
0.00236743
0.0100338
0.00431907
0.042481
0.0144039
0.00253792
0.0244142
0.0354189
0.0644889
0.00420658
0.00261173
0.0834193
0.0630612
0.0810052
0.0565097
0.0726879
0.0576807
0.0025922
0.0259949
0.0549802
0.00666337
0.0130683
0.00231299
0.0114416
0.0286879
0.0113297
0.0169936
0.0718177
0.021684
0.00203055
0.00200098
0.00214315
0.0131748
0.0119634
0.0174341
0.0285633
0.0559906
0.00838527
0.00259565
0.0589062
0.111278
0.0121814
0.00601625
0.020843
0.00392826
0.0118921
0.0299219
0.0134951
0.0115281
0.0110581
0.0152709
0.00480719
0.0970842
0.0137065
0.0658156
0.0433246
0.0114206
0.0125913
0.0118604
0.0376327
0.00554071
0.0148603
0.0241131
0.00625361
0.0124341
0.00754338
0.030746
0.0133077
0.0301032
0.0574175
0.0530842
0.00710073
0.0510809
0.108087
0.00272413
0.0533435
0.00362328
0.0105812
0.0412647
0.00238127
0.00377788
0.0324431
0.00270836
0.00462584
0.00250399
0.00249677
0.047299
0.00223742
0.0397591
0.0139963
0.0309349
0.00240288
0.00691027
0.00417294
0.0133711
0.00236799
0.0889876
0.0809147
0.0252914
0.0338586
0.0157346
0.0138968
0.0317374
0.00592355
0.0732142
0.0738268
0.031654
0.00705466
0.00212525
0.00233488
0.0243608
0.0324405
0.00426143
0.0025658
0.00442855
0.015513
0.00256802
0.00803046
0.0107774
0.013325
0.0184378
0.00800648
0.00606628
0.00353514
0.0583702
0.00616363
0.0125607
0.00785666
0.0112842
0.00926009
0.00898627
0.0111611
0.0124309
0.0494355
0.0287103
0.0186213
0.0111105
0.0472972
0.00229877
0.0110101
0.0097007
0.00274082
0.00484286
0.0348405
0.0695774
0.00233893
0.0438241
0.0146251
0.0929939
0.0142341
0.059108
0.00438292
0.0121955
0.067806
0.00952383
0.0227878
0.0791393
0.0520257
0.00200353
0.0216164
0.00239123
0.0433948
0.0282903
0.0199183
0.00251381
0.00657918
0.0465733
0.00389789
0.0104285
0.00679059
0.0357647
0.00227338
0.026556
0.00247879
0.0715723
0.00224296
0.00208434
0.00758607
0.00879389
0.0642263
0.0305919
0.00387671
0.00706759
0.0089409
0.00203122
0.0157299
0.00596235
0.0209367
0.0118551
0.0911145
0.00210079
0.00253705
0.0476248
0.0650386
0.020083
0.146426
0.053734
0.00437568
0.0282602
0.0773638
0.00247288
0.0622721
0.0233466
0.0351109
0.00658464
0.0681626
0.00206746
0.0510388
0.00208407
0.0529622
0.012123
0.00251267
0.0879592
0.00354365
0.049982
0.0399537
0.00707035
0.00344456
0.096723
0.130741
0.00853257
0.0299648
0.0618704
0.00210141
0.0167892
0.00633453
0.0129844
0.0039503
0.00237669
0.0120274
0.0742093
0.00459228
0.0454599
0.0254023
0.00258734
0.00210986
0.0021245
0.0024001
0.00710502
0.0171872
0.0201166
0.00681962
0.0493352
0.0119398
0.00341739
0.00374217
0.0024468
0.0784372
0.0486873
0.00222538
0.00986102
0.0243404
0.00816535
0.0693174
0.0373821
0.00287059
0.00348855
0.0117787
0.00229096
0.00427188
0.0372771
0.0574339
0.00215689
0.00216394
0.0140434
0.0707133
0.0915557
0.00242182
0.00201768
0.116877
0.0138221
0.00203181
0.00220617
0.0504846
0.0483578
0.107773
0.0068147
0.0605523
0.016949
0.11774
0.0665078
0.00301147
0.0370113
0.0026597
0.0178393
0.00257313
0.00320596
0.011389
0.015809
0.00925953
0.0242277
0.0018532
0.00761189
0.0130317
0.0432374
0.00641248
0.0842706
0.0286957
0.0384923
0.00285565
0.0978594
0.0234729
0.0112675
0.0123384
0.0118373
0.041199
0.001824
0.0292567
0.0478196
0.00191376
0.0211035
0.0106541
0.00313655
0.00283367
0.00216896
0.012022
0.00567335
0.00288071
0.0553877
0.140249
0.00202087
0.0564667
0.0628228
0.0905771
0.0240616
0.0325712
0.0759107
0.00224846
0.0234448
0.0171222
0.00201882
0.00522108
0.00242179
0.0021149
0.0042629
0.026938
0.011068
0.0750858
0.00227983
0.0125132
0.00237646
0.00267556
0.0020487
0.06367
0.0323737
0.00580593
0.00242591
0.0314998
0.0111521
0.0446215
0.0396799
0.0428116
0.0296525
0.0023329
0.00228318
0.0117794
0.00225459
0.0118531
0.00256749
0.02049
0.0460417
0.0165667
0.0719937
0.00287
0.00258827
0.0232388
0.0317609
0.0188934
0.0145215
0.0126379
0.0133082
0.130641
0.0892454
0.0359251
0.0773523
0.0152885
0.00219091
0.0103012
0.00835985
0.0442379
0.00232455
0.00301551
0.007559
0.0354975
0.0154001
0.0209486
0.0114423
0.0127528
0.0023857
0.0635927
0.0275742
0.0287584
0.00229755
0.141529
0.0656204
0.0375199
0.00186553
0.0713666
0.0182846
0.0161347
0.00199642
0.0166017
0.00742274
0.00258863
0.0126414
0.0160231
0.0227137
0.0209927
0.111333
0.0641808
0.0024527
0.0546396
0.00216078
0.011637
0.0074897
0.0389747
0.00247788
0.00216953
0.0784863
0.0110943
0.00226517
0.0758919
0.026232
0.0231588
0.00236028
0.00228976
0.0118994
0.0365678
0.00236374
0.00246202
0.00280154
0.052838
0.00267444
0.00256045
0.00876615
0.00572655
0.0598625
0.00447951
0.0304492
0.00233872
0.0122916
0.0737839
0.0181405
0.0256836
0.0125462
0.00223875
0.00232735
0.0021315
0.00278283
0.03563
0.00488495
0.00300797
0.0532061
0.0120209
0.0122259
0.0483097
0.0155773
0.00319842
0.00264942
0.00308779
0.0133535
0.0175897
0.00198395
0.0459887
0.00940626
0.086872
0.0724923
0.0140249
0.00498902
0.0703272
0.0025539
0.00202293
0.0139192
0.111878
0.0041011
0.00262975
0.0141475
0.0172205
0.00228673
0.00237766
0.0212874
0.0128166
0.00198329
0.00217126
0.0113492
0.00660031
0.0401782
0.0019807
0.128493
0.0689561
0.00255599
0.0778717
0.0116651
0.0382133
0.0442956
0.0623687
0.0588371
0.0733553
0.0167297
0.00896733
0.00734725
0.00206424
0.0026007
0.0116608
0.00961054
0.0409948
0.073723
0.00227149
0.00217373
0.00242701
0.00223997
0.00227066
0.00238126
0.0111543
0.00556604
0.0023058
0.0104799
0.00270397
0.00268913
0.00371274
0.00282131
0.0298713
0.0315027
0.0182308
0.0187692
0.0115694
0.0363168
0.00707664
0.0112724
0.00221383
0.0136508
0.00237276
0.0147375
0.0712969
0.0156902
0.00544913
0.00235233
0.00632569
0.043428
0.0375436
0.0118362
0.00275047
0.00802116
0.00220283
0.0555417
0.0116224
0.0169258
0.00424822
0.0037654
0.0113331
0.00824101
0.0330047
0.019547
0.00573225
0.00219398
0.00251651
0.00433187
0.0478487
0.0230262
0.0927722
0.0224729
0.0116019
0.0435172
0.0270481
0.02612
0.0192135
0.0514319
0.0118003
0.00306172
0.0731361
0.0607891
0.0120024
0.0115891
0.0187352
0.00266887
0.0124825
0.00767418
0.0150963
0.0870045
0.0183647
0.00579193
0.00901268
0.0479518
0.0817419
0.00221937
0.0139641
0.0139185
0.00498469
0.0022355
0.00234027
0.00165077
0.0053641
0.00276334
0.0021837
0.130774
0.0107515
0.0510194
0.0558202
0.0137579
0.00231668
0.0235814
0.0246876
0.0186366
0.0103745
0.0136367
0.00221283
0.107827
0.0365819
0.0705176
0.00147454
0.0023949
0.00234841
0.0157225
0.0183574
0.0126682
0.00239813
0.0117055
0.0417069
0.00243533
0.00184648
0.00625518
0.0820345
0.00225783
0.00664887
0.0115469
0.0139881
0.0033053
0.0892394
0.038946
0.102623
0.013939
0.024033
0.0291091
0.00260294
0.024865
0.133457
0.0134636
0.00688099
0.0136028
0.0538126
0.0203464
0.0158601
0.0117732
0.0309038
0.00235358
0.0378021
0.00175926
0.00233659
0.0025922
0.0360668
0.0110226
0.044984
0.0873419
0.0129538
0.0224498
0.00223097
0.020932
0.00220678
0.0101963
0.029374
0.0271841
0.00213578
0.00238876
0.0484518
0.00162279
0.0619751
0.00216283
0.0603624
0.00258018
0.0306239
0.00224196
0.0546217
0.0128476
0.0328071
0.0602693
0.0263875
0.0271548
0.00165573
0.0542457
0.0299356
0.0260242
0.0210761
0.0129669
0.0244252
0.0289474
0.00242735
0.032168
0.04691
0.00736554
0.0513906
0.10049
0.00230425
0.0120481
0.00366432
0.0646029
0.00241873
0.00239127
0.0023093
0.0348464
0.125825
0.0293212
0.0132145
0.0198257
0.00223296
0.00918728
0.00408138
0.0063855
0.00237159
0.0102792
0.00959471
0.00964383
0.00290602
0.07217
0.0759314
0.00217426
0.0065876
0.0353384
0.0427395
0.0272885
0.00264593
0.00217387
0.0109841
0.0328959
0.00253526
0.00198673
0.0913685
0.0243267
0.00217359
0.00635795
0.0212971
0.0219082
0.0398146
0.0333009
0.0286581
0.0112134
0.00988429
0.0471005
0.0616218
0.00296699
0.0125869
0.0113959
0.00225853
0.00351404
0.0113966
0.0030057
0.029033
0.0494612
0.00325804
0.0314445
0.10503
0.00383135
0.0158327
0.00395594
0.0357162
0.0216121
0.00897082
0.012161
0.0873281
0.0097209
0.00652871
0.0118586
0.0067722
0.0810112
0.046203
0.048717
0.0102148
0.00670828
0.00352506
0.0113608
0.00200982
0.0017955
0.0099628
0.0204971
0.00388926
0.00841248
0.00970606
0.00237314
0.0457695
0.0115235
0.0124853
0.00221784
0.127128
0.0043116
0.0029583
0.005573
0.029971
0.00304248
0.00353278
0.0135256
0.00314465
0.00357927
0.00931822
0.0494677
0.00370767
0.0463267
0.0111392
0.0059607
0.041435
0.0171067
0.00352511
0.114689
0.0128995
0.0739086
0.00494793
0.0252539
0.00457261
0.0290602
0.132525
0.00319304
0.0180732
0.00916379
0.01208
0.00220529
0.00224207
0.00467159
0.00266347
0.00345294
0.00345901
0.0180604
0.0105212
0.00282002
0.00210206
0.00367028
0.0190358
0.0351806
0.0376456
0.0149585
0.00866824
0.135818
0.00251893
0.00242424
0.00469915
0.00241543
0.00243004
0.0200011
0.00425903
0.0053607
0.0275598
0.0114902
0.0110626
0.0422431
0.0433674
0.0026256
0.0655233
0.0128785
0.0229191
0.0272742
0.0196656
0.0172474
0.0368949
0.003414
0.0152654
0.0028377
0.0125949
0.00187194
0.0399777
0.0067183
0.00391518
0.0136451
0.0320112
0.0280833
0.00242361
0.0213428
0.0287091
0.017506
0.00180828
0.00562227
0.00769245
0.0213983
0.00808578
0.129214
0.0221386
0.00613476
0.0114708
0.00189684
0.00283438
0.00921591
0.00268343
0.042712
0.0161174
0.00238261
0.00467638
0.035124
0.00774354
0.0492454
0.0237765
0.0242702
0.00688456
0.00198606
0.0253324
0.0767522
0.00269745
0.00199943
0.0113538
0.00209385
0.00285181
0.0243497
0.00682125
0.047629
0.0247278
0.0546624
0.00708876
0.0227251
0.00238593
0.00218514
0.00275708
0.0319083
0.00154803
0.00134236
0.00169058
0.0133716
0.0112547
0.00180369
0.0275964
0.0622072
0.0370681
0.0026367
0.0248993
0.0944012
0.0354154
0.00260939
0.0147297
0.00383471
0.0600056
0.00202931
0.0120706
0.0321358
0.0356258
0.00215448
0.00319559
0.0141584
0.0393762
0.0506884
0.00482655
0.051964
0.00178272
0.00262928
0.0313566
0.0143835
0.00303743
0.0439315
0.0131469
0.00233589
0.0116184
0.0311348
0.0118566
0.00206703
0.00231008
0.0288522
0.00999698
0.00229949
0.0277718
0.0660912
0.0402065
0.0138298
0.00190156
0.00310998
0.0155653
0.0485381
0.0158166
0.0536018
0.0784425
0.0670512
0.00214396
0.00217911
0.00545874
0.00259954
0.00249916
0.0308232
0.0378103
0.00228728
0.00235572
0.0022554
0.00177615
0.0210284
0.0167316
0.0140971
0.001651
0.00146102
0.00156987
0.0146921
0.0290117
0.0115732
0.00230492
0.0447348
0.00403566
0.00518615
0.0403451
0.00414932
0.01843
0.0306544
0.00242773
0.0134038
0.00234281
0.0137349
0.0118954
0.00995455
0.0625696
0.00226894
0.0266091
0.0347886
0.0145399
0.00458486
0.0747008
0.0841209
0.00232658
0.00220735
0.0116253
0.0135857
0.0064021
0.0346003
0.0708047
0.0146666
0.0199998
0.0809254
0.0287637
0.0113736
0.050478
0.0453375
0.0722533
0.0439688
0.0126376
0.0511957
0.00151327
0.00339441
0.00209257
0.0146702
0.00216241
0.0647974
0.0241239
0.00240127
0.00227991
0.00124899
0.0014026
0.00225396
0.015482
0.0220458
0.0120038
0.0282635
0.0289191
0.0165755
0.00213998
0.00247092
0.0140941
0.00534764
0.00246313
0.0022065
0.00334926
0.018367
0.0021894
0.0113046
0.00210842
0.00403735
0.026577
0.00183397
0.0123078
0.0150508
0.0485606
0.0940878
0.00604915
0.00222713
0.0069836
0.00741104
0.0292164
0.0114929
0.012959