/*--------------------------------*- C++ -*----------------------------------*\
  =========                 |
  \\      /  F ield         | OpenFOAM: The Open Source CFD Toolbox
   \\    /   O peration     | Website:  https://openfoam.org
    \\  /    A nd           | Version:  10
     \\/     M anipulation  |
\*---------------------------------------------------------------------------*/
FoamFile
{
    format      ascii;
    class       volScalarField;
    location    "550";
    object      k;
}
// * * * * * * * * * * * * * * * * * * * * * * * * * * * * * * * * * * * * * //

dimensions      [0 2 -2 0 0 0 0];

internalField   nonuniform List<scalar> 
23845
(
0.0805105
0.0971407
0.073954
0.0487936
0.0934768
0.0260101
0.0837739
0.0357361
0.0233835
0.067049
0.0762898
0.0241293
0.0315612
0.0248863
0.0919439
0.0519928
0.0413977
0.048034
0.0351649
0.0295638
0.0695054
0.0729325
0.0668584
0.0234179
0.0722053
0.0204831
0.0772049
0.0281368
0.0208609
0.0295046
0.0528768
0.0192613
0.088784
0.0489795
0.0242287
0.0268194
0.0163998
0.0242684
0.024723
0.0248067
0.0341285
0.0399102
0.028997
0.03993
0.0178986
0.033879
0.0811795
0.0551621
0.0245897
0.0160152
0.0313366
0.0758009
0.0205796
0.0266937
0.018639
0.03904
0.0966343
0.038231
0.0781837
0.077482
0.0282145
0.0411941
0.0500075
0.0260029
0.0224085
0.0317924
0.0790288
0.0168254
0.0169847
0.0386064
0.0322218
0.0653969
0.0228003
0.0892382
0.0210744
0.0925199
0.0241394
0.024881
0.0423481
0.0496195
0.0719058
0.0898892
0.0990868
0.0390519
0.0715569
0.0243274
0.0887699
0.0202621
0.0221989
0.0456298
0.0280825
0.0380852
0.0225181
0.0267175
0.0380318
0.0285435
0.0384784
0.0576016
0.0208752
0.0862791
0.0414923
0.080417
0.0979935
0.0119464
0.0218279
0.0408015
0.0261523
0.0199849
0.0782649
0.0394277
0.0722267
0.0244115
0.0831418
0.0633638
0.0274066
0.062431
0.0218121
0.0553408
0.0215328
0.033599
0.0246081
0.0230865
0.0394697
0.047679
0.081665
0.0212798
0.0294624
0.0159703
0.058753
0.0820678
0.059355
0.0920017
0.0827183
0.0253541
0.0463014
0.0910293
0.0107945
0.024017
0.0773593
0.0249332
0.0179999
0.038745
0.0250294
0.0414508
0.0462613
0.0382449
0.0581642
0.0844693
0.0371349
0.0486173
0.0903749
0.0267822
0.0904742
0.0281852
0.0801655
0.0633182
0.098673
0.0252651
0.0656061
0.0264645
0.0434352
0.0915564
0.0375907
0.022702
0.0259953
0.0546457
0.0254099
0.0236756
0.0287021
0.0376985
0.0258296
0.0498297
0.0232744
0.046146
0.0232168
0.0403786
0.0401598
0.0715887
0.019743
0.0250903
0.0874006
0.0830427
0.0901127
0.0687606
0.049764
0.0355586
0.0403226
0.0378888
0.0191381
0.0391316
0.0236379
0.0252857
0.0256029
0.0263356
0.0448625
0.0249195
0.0173935
0.0196325
0.0143801
0.0733522
0.0584724
0.0259108
0.0367612
0.0896425
0.0377904
0.0375492
0.0702231
0.0254335
0.0811429
0.0509326
0.0515469
0.0220738
0.0432021
0.0289482
0.0271846
0.0179641
0.0849485
0.042205
0.0107144
0.0609906
0.0240302
0.0913174
0.0170282
0.0573118
0.038677
0.0913319
0.0110511
0.0254395
0.0262868
0.0347922
0.0259321
0.0264629
0.0245786
0.0178322
0.0953138
0.0249464
0.0220882
0.0502834
0.0239815
0.0503555
0.0224626
0.0567925
0.040005
0.0948321
0.0245482
0.0518847
0.025971
0.0168707
0.0391549
0.0919339
0.0339637
0.0250385
0.0310661
0.0284229
0.0886555
0.0279095
0.0370297
0.0327194
0.0274976
0.0241214
0.0183148
0.0253995
0.0306219
0.0705389
0.066522
0.0236391
0.0415254
0.0481767
0.0619829
0.048269
0.0248678
0.0470513
0.0309856
0.0260658
0.0691128
0.0255491
0.0319482
0.0257944
0.0223945
0.066301
0.0416536
0.0265104
0.0339234
0.0501839
0.0245507
0.0310387
0.0492689
0.0257173
0.0374559
0.0866972
0.0405428
0.0283815
0.0268174
0.0316941
0.0390683
0.0244199
0.0327814
0.0261472
0.0244846
0.023122
0.0655534
0.089694
0.0246682
0.0486917
0.0264338
0.0505932
0.0259375
0.0310978
0.0404505
0.0162146
0.0305984
0.0919539
0.0352802
0.0259253
0.0663403
0.017277
0.0311264
0.08507
0.0268603
0.0251687
0.022567
0.0229494
0.0401706
0.0292897
0.0906188
0.0256583
0.0445579
0.0787861
0.0373744
0.0499106
0.0820455
0.0539397
0.0300213
0.0253077
0.0361888
0.0511924
0.0561502
0.0474638
0.0373515
0.0425326
0.0515729
0.0382654
0.0729777
0.0184172
0.0181457
0.0211442
0.0252046
0.0301976
0.0435192
0.0858866
0.0565448
0.0574763
0.0155135
0.0323491
0.0207873
0.025514
0.0361836
0.0234269
0.0882688
0.0392335
0.0516055
0.0222227
0.0575425
0.0473632
0.0201732
0.0255368
0.0425699
0.0272998
0.0222239
0.0202868
0.0391014
0.0263724
0.0319552
0.0241443
0.0256691
0.0293593
0.0624209
0.0528155
0.0374785
0.0460419
0.0907722
0.0256857
0.0656362
0.01776
0.0181158
0.0245695
0.0260417
0.0416932
0.0578261
0.0392893
0.0802875
0.0371894
0.0275171
0.0233582
0.0297071
0.0244428
0.0664257
0.0194852
0.03964
0.0255436
0.0605642
0.0586334
0.0357296
0.0539187
0.0868599
0.0914626
0.025202
0.0295455
0.0209078
0.0344267
0.0924323
0.0173563
0.0863588
0.0411321
0.0995514
0.0679521
0.0648645
0.0657724
0.0254639
0.0612152
0.0652858
0.0327304
0.0239524
0.0433575
0.0327776
0.0871944
0.0606144
0.0556528
0.0513131
0.0535739
0.0253396
0.0476067
0.0373113
0.0466826
0.032575
0.0215532
0.0240857
0.0350383
0.0240049
0.0527985
0.0923488
0.0511871
0.0207889
0.0561541
0.0569126
0.0311059
0.0296903
0.0647767
0.0254967
0.0482991
0.042247
0.0259622
0.0458283
0.025407
0.0182694
0.0372296
0.0800008
0.091845
0.0338541
0.0266568
0.0796412
0.047076
0.0107646
0.0804746
0.02622
0.0252495
0.0265697
0.0270014
0.0188012
0.0847208
0.0290704
0.025591
0.0558411
0.0318002
0.0282418
0.0937811
0.0244729
0.0256653
0.0278903
0.0444713
0.0726939
0.0645418
0.0526037
0.0716891
0.0584174
0.089238
0.0248445
0.0244607
0.0794078
0.0415511
0.0205491
0.0664491
0.0293159
0.0677438
0.0371544
0.0766388
0.0220547
0.0633156
0.0214316
0.0254087
0.0889871
0.0193826
0.0431658
0.0740411
0.0404217
0.0416933
0.0676986
0.0305785
0.0278925
0.0418057
0.0521631
0.0456442
0.0164912
0.0538668
0.0260799
0.0190635
0.0615861
0.0848719
0.0787302
0.0365722
0.0159273
0.0271556
0.0493784
0.0316974
0.0197025
0.084836
0.0896926
0.0283821
0.0667691
0.0235149
0.0256213
0.0735902
0.0885996
0.0679293
0.0397219
0.0310249
0.0272048
0.035759
0.0794659
0.0432492
0.0720003
0.0265362
0.064399
0.0648446
0.0436688
0.0632172
0.0723902
0.0294768
0.0284904
0.0290029
0.0278168
0.0243902
0.0467167
0.0297231
0.0375201
0.0921321
0.0361974
0.0455615
0.0253542
0.0274822
0.0390337
0.0441778
0.0861365
0.0299751
0.0363425
0.0254404
0.0233781
0.0219698
0.0231219
0.0289055
0.0193415
0.0854382
0.0360625
0.0263867
0.0546632
0.0867925
0.041773
0.0707487
0.0337769
0.0815907
0.0202528
0.0242506
0.0447981
0.0805811
0.0336483
0.0351159
0.0230532
0.0232226
0.0345361
0.0229119
0.0699665
0.0894548
0.0855902
0.0652065
0.0302334
0.0362663
0.0188061
0.0270235
0.0470357
0.0243157
0.0707847
0.0285143
0.0814304
0.0912729
0.0503687
0.0823801
0.033649
0.0816146
0.0864836
0.0615226
0.073369
0.0996318
0.0954564
0.0867901
0.0358711
0.0919855
0.0828942
0.100134
0.0301045
0.027913
0.0824382
0.0283852
0.0793098
0.0608593
0.0989554
0.0554861
0.0328263
0.0415126
0.0277102
0.0482509
0.0310078
0.0315283
0.0698211
0.0274811
0.0242449
0.0861843
0.0958367
0.0546271
0.020558
0.0643855
0.0892699
0.0561557
0.0281809
0.0297363
0.0778101
0.0849784
0.0724804
0.0279515
0.0808635
0.0655136
0.0271141
0.024798
0.081187
0.0426513
0.0271999
0.0836668
0.044772
0.0709837
0.0376365
0.0738157
0.0563353
0.0408273
0.0506101
0.100886
0.0472698
0.0205359
0.0272442
0.093339
0.0573685
0.0816185
0.0465645
0.058297
0.0705346
0.0607299
0.0564825
0.0777906
0.0539805
0.080846
0.0676824
0.0485331
0.0754937
0.0499097
0.0369971
0.0478321
0.0477527
0.0883753
0.037897
0.0448352
0.0842267
0.0794943
0.0423119
0.0383188
0.0590658
0.0629689
0.0669318
0.0723726
0.0761659
0.05509
0.079264
0.0526031
0.0724911
0.0487138
0.0646937
0.0469052
0.0471252
0.0480102
0.0437789
0.0404185
0.0413517
0.0321786
0.0394773
0.0592674
0.0235533
0.0373976
0.0407685
0.0395704
0.0263429
0.0663492
0.0385138
0.0642485
0.0681878
0.0530629
0.0373207
0.0389819
0.0276665
0.0593486
0.0533985
0.0827483
0.0256987
0.0623882
0.0355623
0.0460657
0.0283184
0.037148
0.077412
0.0469672
0.0817354
0.0377997
0.0264143
0.0317244
0.0190263
0.0345358
0.0572428
0.0336177
0.0231964
0.0361768
0.0809539
0.0338411
0.0325434
0.0302687
0.0849915
0.036445
0.0176091
0.0866642
0.0400765
0.0422411
0.0733255
0.0688987
0.0743072
0.0700145
0.0795181
0.0375136
0.0540767
0.0626662
0.0706142
0.0514241
0.053317
0.0457411
0.100861
0.0433138
0.0321661
0.0748516
0.071478
0.0818226
0.0533489
0.062089
0.0309741
0.0984854
0.0681285
0.0476801
0.0406269
0.0465256
0.0300918
0.0256491
0.0647083
0.0333044
0.0332361
0.0402386
0.0341409
0.0326611
0.0390932
0.0376924
0.0471677
0.0370974
0.0351157
0.0365555
0.0870093
0.052628
0.0315189
0.0450519
0.0418418
0.0360127
0.0824845
0.063154
0.0728726
0.0546692
0.0382101
0.031377
0.0384384
0.0361419
0.0988515
0.0683838
0.0743141
0.0487462
0.0320951
0.0536759
0.0245495
0.0649683
0.034173
0.0395652
0.0242415
0.0266225
0.0423397
0.0282162
0.0284067
0.0212864
0.0321596
0.0227894
0.0257185
0.0235731
0.0225316
0.0205702
0.0295106
0.0334196
0.0267222
0.027478
0.0451919
0.0375717
0.0401604
0.0645784
0.0776554
0.0198913
0.0232113
0.0357084
0.0737779
0.0656048
0.0745364
0.0617362
0.0496353
0.0326958
0.0336461
0.0379005
0.0443096
0.0478303
0.0306615
0.0388318
0.0305615
0.0411973
0.0240128
0.0900736
0.0245742
0.0634072
0.040799
0.0841105
0.0309253
0.0352476
0.0408083
0.035693
0.052132
0.0481582
0.0367419
0.0544763
0.0295378
0.0311053
0.0247643
0.0243933
0.0225261
0.0218883
0.036061
0.0366614
0.0318935
0.0632173
0.0321357
0.0630153
0.0633951
0.0702411
0.0374183
0.0532164
0.0362218
0.0237468
0.0414695
0.0215787
0.0491176
0.0316071
0.0222151
0.0558167
0.0304238
0.0253292
0.0631237
0.0306793
0.0490322
0.0600341
0.054774
0.0374948
0.0512829
0.0317409
0.0459513
0.0315634
0.0667601
0.038613
0.0249381
0.0513744
0.0601872
0.0626059
0.0866965
0.0670801
0.0345909
0.04578
0.0446291
0.0410709
0.0909643
0.0241851
0.0395867
0.0370317
0.0284991
0.0677337
0.0366153
0.093045
0.0360008
0.0230306
0.0351549
0.028994
0.0381761
0.0350477
0.0350101
0.0938059
0.0321864
0.0636001
0.0460154
0.0809208
0.0352788
0.0519376
0.0548556
0.0606569
0.0622649
0.045267
0.0592071
0.0482932
0.0657573
0.0690724
0.0743865
0.0459731
0.068726
0.0699199
0.0519658
0.0834909
0.075211
0.06606
0.0698997
0.0314031
0.0434564
0.0467841
0.0406663
0.0278523
0.038823
0.0568676
0.0402124
0.0308132
0.0645262
0.0574357
0.0648813
0.0423469
0.072347
0.0303262
0.0373631
0.0382103
0.0366609
0.04916
0.0253997
0.0665709
0.087641
0.0977719
0.0300122
0.0353254
0.0727501
0.0780845
0.0298697
0.0607531
0.0565614
0.0543457
0.0632
0.0599459
0.0406109
0.0692099
0.0780505
0.0722645
0.0777498
0.0823982
0.0830965
0.0305906
0.0467516
0.0464968
0.0349572
0.056168
0.060378
0.0364903
0.0232551
0.0304615
0.0764386
0.0311008
0.0298414
0.0161806
0.0294186
0.0175773
0.0248886
0.0228347
0.0358225
0.0327646
0.0338987
0.0378039
0.0814183
0.027561
0.0313176
0.0546196
0.044351
0.0765175
0.070509
0.095608
0.0717398
0.0314655
0.0402019
0.0370705
0.029335
0.0197659
0.0275613
0.0870824
0.082159
0.0455059
0.0520279
0.0479976
0.0541433
0.056603
0.0763995
0.0345288
0.0864863
0.0691204
0.07536
0.0734187
0.0618752
0.0683459
0.0486192
0.0642544
0.0380736
0.0605653
0.0533468
0.0400961
0.0501149
0.0472067
0.0449711
0.0361052
0.0356114
0.0568023
0.0626021
0.0810657
0.0307788
0.0582549
0.0308142
0.0260989
0.0433092
0.0241353
0.0572991
0.0426154
0.0396144
0.0391583
0.0390943
0.0366857
0.0852122
0.027647
0.0295654
0.0654798
0.0415803
0.0202099
0.0566286
0.0833541
0.0535256
0.0245431
0.0729309
0.0353964
0.0593102
0.0634684
0.0729462
0.0504141
0.03037
0.0677603
0.0594785
0.063829
0.0595994
0.0552196
0.0526467
0.0322532
0.0492358
0.0655975
0.0327715
0.0438974
0.0840243
0.0400858
0.0463532
0.0510579
0.0414569
0.0195508
0.0274536
0.0390202
0.0284443
0.0340921
0.0310216
0.0306731
0.0838812
0.03752
0.0356129
0.0685278
0.0289263
0.0300851
0.0299904
0.0888437
0.0359592
0.0333605
0.0835321
0.0261008
0.0210988
0.0318437
0.0339448
0.0341832
0.0458944
0.0265919
0.0335732
0.0547757
0.0755418
0.0826085
0.0693666
0.061777
0.0309367
0.0452228
0.0379388
0.040325
0.03102
0.0834299
0.0462625
0.0296536
0.0293564
0.0507502
0.0463125
0.0636879
0.0392841
0.0310959
0.0358612
0.0301997
0.0767763
0.0440229
0.0232832
0.0752418
0.0323512
0.045659
0.0303957
0.0255218
0.0285917
0.0519872
0.0356749
0.0330362
0.0712372
0.0303463
0.0753012
0.045769
0.0280936
0.0648771
0.0344447
0.0574418
0.0601569
0.0499568
0.0665722
0.0521284
0.0300461
0.0551568
0.055824
0.0288006
0.0419021
0.034332
0.0328432
0.0453731
0.02088
0.023857
0.0489322
0.0224053
0.0300997
0.0530961
0.021886
0.0279211
0.0578576
0.0270655
0.0246408
0.0552751
0.0908355
0.0817898
0.0252469
0.0300927
0.0636067
0.0251953
0.0262421
0.0923923
0.0666012
0.0901641
0.0449572
0.075024
0.0351258
0.0425576
0.0530445
0.0692567
0.030823
0.0650656
0.0933689
0.0330252
0.0303351
0.0347942
0.0292425
0.0246885
0.0283274
0.0382018
0.0332471
0.0917129
0.0490675
0.0363088
0.0800471
0.0447097
0.0736885
0.0297179
0.0650821
0.0369272
0.0440375
0.0889396
0.0339
0.0517912
0.0278842
0.0312298
0.0579815
0.0279486
0.0915108
0.0631341
0.0779916
0.0452135
0.044585
0.0880362
0.0326591
0.0313607
0.0764522
0.0332747
0.0338986
0.0342377
0.0762582
0.0275778
0.0298118
0.0336556
0.0975117
0.0332095
0.0429335
0.0421576
0.0287719
0.028558
0.0496101
0.0545425
0.0915739
0.0239536
0.0132335
0.0328327
0.0257608
0.0275164
0.0974968
0.0457481
0.0445928
0.0304921
0.052961
0.0622597
0.0425446
0.0696547
0.07226
0.0296134
0.0430383
0.0276073
0.0693555
0.0668901
0.0256593
0.0508842
0.045443
0.0532265
0.0526952
0.0632964
0.0424691
0.059593
0.0625239
0.0834209
0.0516494
0.0848948
0.0257296
0.0577298
0.030668
0.0301639
0.0727357
0.0875902
0.068567
0.0256397
0.0872827
0.0446023
0.0404726
0.0900231
0.0414096
0.0840999
0.027158
0.099581
0.0616019
0.0254964
0.0816855
0.059157
0.0574708
0.0532428
0.0905101
0.0913622
0.0285233
0.0343613
0.0923111
0.0688459
0.0301316
0.0981007
0.0977227
0.0348207
0.046287
0.034845
0.0802347
0.0446769
0.0500777
0.0230568
0.0848465
0.0714512
0.0245771
0.0900573
0.0847237
0.0248822
0.0345821
0.0316413
0.064406
0.0739341
0.0408479
0.0287371
0.0830004
0.0679326
0.0453061
0.0927622
0.042937
0.033818
0.0551982
0.0540627
0.0860872
0.0283442
0.0272339
0.0805333
0.0467331
0.0348052
0.0440055
0.0290447
0.0599919
0.0560844
0.0786899
0.0839065
0.0957879
0.0287732
0.0586654
0.0289577
0.0520011
0.0613756
0.0403348
0.0301618
0.0252525
0.0899514
0.0147834
0.0294702
0.0290668
0.0578469
0.0807154
0.0938324
0.0956307
0.0676109
0.0432045
0.0588562
0.0258875
0.0290523
0.0335006
0.0186864
0.0266746
0.0349871
0.0783155
0.0837277
0.0387188
0.0323122
0.04939
0.0730437
0.0349349
0.0602909
0.04567
0.053813
0.0392063
0.0547261
0.0810558
0.0809198
0.0620413
0.0279766
0.0636808
0.0885223
0.0317591
0.032789
0.0535361
0.0784189
0.0617646
0.027868
0.0290439
0.0437733
0.0554484
0.0593147
0.0187509
0.024706
0.0337909
0.033311
0.0274647
0.0831011
0.0562092
0.0901439
0.0599536
0.0650082
0.0697749
0.0493555
0.0286521
0.0840674
0.0288451
0.0454498
0.0445503
0.0528078
0.0408732
0.0626001
0.0455877
0.0612354
0.0765243
0.0333147
0.0706477
0.0283307
0.0917954
0.0279443
0.0272814
0.0813502
0.0733562
0.0267438
0.0483804
0.0577116
0.0296664
0.0759105
0.028634
0.0755481
0.0904864
0.0281178
0.0681051
0.0992185
0.0395826
0.0831829
0.0691039
0.0881589
0.0450296
0.0834475
0.0970821
0.0290896
0.0499686
0.0616813
0.028634
0.0275939
0.0808654
0.0259282
0.0553327
0.0965708
0.0748783
0.0733038
0.0210325
0.0250109
0.025825
0.0546666
0.0281477
0.0301834
0.045415
0.0449442
0.0322073
0.0273207
0.0281573
0.0420075
0.0527416
0.0270501
0.0522601
0.0256055
0.0260324
0.0254718
0.0885243
0.0764503
0.0267191
0.0286199
0.0610891
0.0867559
0.0314869
0.0617558
0.0264939
0.0258383
0.0547238
0.0290279
0.0815673
0.0251134
0.0632705
0.0367039
0.0910612
0.0210881
0.0883574
0.0930108
0.0274901
0.0969149
0.0293729
0.0284222
0.0419359
0.071458
0.0285465
0.0338042
0.0339972
0.0339248
0.0330134
0.0543078
0.00348727
0.0511569
0.0853862
0.0835438
0.0703726
0.0272279
0.0963159
0.0024006
0.0247144
0.0580002
0.0257873
0.026525
0.0980526
0.0201351
0.0315159
0.0985346
0.0981152
0.0307895
0.0156722
0.0348938
0.0673556
0.0269191
0.0742993
0.0949151
0.025952
0.0869263
0.0278393
0.0266381
0.0257251
0.0194404
0.0524727
0.0876638
0.0578009
0.0318562
0.0979736
0.0264821
0.0263965
0.0246724
0.0833096
0.0365626
0.0258962
0.0433512
0.0967112
0.0317979
0.0659015
0.0280443
0.0403599
0.0316412
0.0333952
0.0384777
0.0197984
0.0372195
0.0235387
0.025821
0.0898386
0.0341121
0.0441596
0.0269924
0.0499743
0.044577
0.0908244
0.019757
0.0426254
0.0766753
0.0471194
0.0282534
0.0411181
0.0251316
0.00235584
0.0438384
0.0398516
0.0446077
0.0325036
0.0872141
0.0814392
0.0274738
0.0322441
0.0949517
0.0926929
0.0680762
0.0381339
0.00258802
0.0342999
0.0315907
0.0448378
0.0268743
0.0261361
0.0316716
0.0435625
0.0601661
0.0230055
0.0267881
0.0445798
0.0217643
0.0587801
0.0540694
0.0594414
0.00286274
0.0796813
0.0272017
0.0938475
0.0938328
0.0697567
0.0190069
0.0503947
0.0585543
0.0457953
0.0040395
0.0242071
0.0281226
0.0803543
0.0900486
0.065343
0.0923427
0.0234701
0.0268397
0.0366763
0.032025
0.0329712
0.0314666
0.0262616
0.0710634
0.0748954
0.0894814
0.0945193
0.080198
0.0693787
0.0984863
0.0233088
0.0504752
0.0929858
0.0410386
0.00314292
0.0228163
0.055285
0.0244042
0.0569526
0.025906
0.0428963
0.0564582
0.0258169
0.0438219
0.0432288
0.0277449
0.0582399
0.0269956
0.083222
0.094426
0.0321484
0.0867535
0.087349
0.053647
0.00246115
0.091059
0.0382675
0.0272073
0.0955011
0.0200198
0.0773998
0.0207661
0.0546438
0.02122
0.0328279
0.0509895
0.0349054
0.00367164
0.0862562
0.022543
0.0428675
0.0318116
0.088663
0.0696052
0.0423718
0.087295
0.0413151
0.0645282
0.0307327
0.0439177
0.0933861
0.0134489
0.0463307
0.0265024
0.0296802
0.0607111
0.0336551
0.0709455
0.0606811
0.045298
0.0927058
0.0242915
0.0343467
0.0482275
0.0274802
0.0744882
0.0667363
0.0033969
0.05073
0.0418484
0.0899931
0.0278076
0.0555449
0.0256032
0.0264662
0.0471204
0.0246293
0.0646112
0.0957488
0.0919355
0.0473587
0.0677691
0.0682079
0.0523025
0.0281211
0.0480378
0.0294201
0.0474775
0.042565
0.0352567
0.0472807
0.0930794
0.0258073
0.0849858
0.00456219
0.0571822
0.0165177
0.00418746
0.070842
0.0247179
0.0863525
0.0319477
0.0253745
0.0257423
0.0904058
0.0314664
0.0263923
0.02923
0.0768547
0.0342187
0.0398626
0.0438909
0.0539981
0.0458878
0.0284509
0.072903
0.0337894
0.0348028
0.0835667
0.0247258
0.0526432
0.0327441
0.00377102
0.0547846
0.0258223
0.0306729
0.0822333
0.0948533
0.0340573
0.0269632
0.0851779
0.0912344
0.088416
0.0875947
0.0859613
0.0819012
0.0260084
0.0587067
0.0790475
0.0401906
0.0422663
0.0247647
0.0285996
0.0376359
0.0255821
0.0589732
0.0837439
0.0166722
0.0230061
0.0239566
0.0247507
0.0355784
0.0416871
0.0270461
0.00251747
0.0789212
0.0447887
0.0269867
0.0924383
0.075958
0.0428452
0.0366491
0.060005
0.0331323
0.0338442
0.0330277
0.0419613
0.0337222
0.028853
0.0476436
0.0357476
0.0899737
0.0446349
0.051859
0.0799761
0.0317103
0.0528918
0.03882
0.0427528
0.0359008
0.033536
0.0635183
0.039097
0.0355319
0.0413733
0.00266548
0.0357719
0.0779406
0.0943753
0.00547735
0.0396194
0.0921196
0.0833989
0.0255601
0.0877172
0.0293383
0.0532106
0.0958894
0.0258197
0.0325428
0.0894615
0.0273055
0.0345585
0.0265358
0.0243268
0.0755447
0.0252346
0.084756
0.0113497
0.0561901
0.0260554
0.0390885
0.0314948
0.0359147
0.0249943
0.0757357
0.0878699
0.0796171
0.068706
0.0459239
0.0339503
0.0888816
0.0382373
0.090506
0.00879647
0.047752
0.0439161
0.024648
0.0254893
0.0777273
0.0720733
0.0333893
0.0267526
0.0339843
0.0420945
0.0264689
0.0416275
0.0501646
0.0600327
0.0423681
0.0426371
0.0375845
0.0291791
0.0808629
0.0395705
0.0375988
0.0469151
0.0503232
0.0506317
0.0437488
0.0310055
0.0307599
0.0050693
0.00244282
0.0649653
0.0486837
0.0737514
0.0254896
0.0271988
0.0488403
0.0250144
0.034538
0.0873956
0.0832018
0.0247522
0.0941632
0.0112163
0.0794165
0.0211226
0.084813
0.0314591
0.0353545
0.056444
0.0508914
0.0673486
0.00722333
0.0989529
0.0239852
0.0541016
0.0254563
0.0841207
0.0656863
0.0561145
0.026291
0.0391166
0.0757294
0.0328381
0.0463123
0.0431082
0.0781494
0.0254469
0.0581489
0.0244768
0.0835277
0.0245684
0.0227427
0.0426669
0.044529
0.086924
0.0640531
0.0325231
0.0425143
0.0489319
0.0241369
0.0582469
0.0400657
0.0250897
0.0158315
0.0886808
0.0244986
0.0259971
0.00457945
0.00539541
0.026771
0.0893437
0.079362
0.0329944
0.0696752
0.0879533
0.0265258
0.0820809
0.0785843
0.0857264
0.04244
0.0850253
0.024333
0.00487997
0.0244312
0.0552982
0.0386719
0.0259256
0.0877314
0.0289937
0.0485932
0.0833713
0.0402796
0.0291898
0.0899127
0.0823489
0.0449734
0.00286314
0.0970422
0.0232061
0.0326057
0.0416107
0.035223
0.0322667
0.0245257
0.0568157
0.00553731
0.0353222
0.0658808
0.079602
0.0267482
0.0245593
0.0246446
0.0260228
0.0431465
0.0425535
0.0594495
0.0389206
0.0929503
0.0517054
0.0308724
0.032444
0.02618
0.0868674
0.0990463
0.0251505
0.0475425
0.0791194
0.0477902
0.0644894
0.0935367
0.0261517
0.0304398
0.0384593
0.0235065
0.0331741
0.0593312
0.0870341
0.0248038
0.0248496
0.0201541
0.00556512
0.0660232
0.0258694
0.0219478
0.0751228
0.0594995
0.0225417
0.025051
0.077366
0.0935385
0.0850179
0.0431694
0.0817582
0.0541845
0.0903849
0.00581623
0.0271269
0.0936999
0.0266044
0.0135623
0.0269706
0.0288876
0.0486876
0.0549111
0.047314
0.0780233
0.0211709
0.0438455
0.0591584
0.0675898
0.0395765
0.0882012
0.00258728
0.0731214
0.0274183
0.00541971
0.0619695
0.0274817
0.0293237
0.0535144
0.096001
0.0212949
0.075282
0.0755668
0.0218647
0.0489016
0.0534396
0.0279619
0.0273691
0.0248887
0.0349604
0.0389202
0.0284558
0.00529135
0.0924291
0.022344
0.0811599
0.0058596
0.0893836
0.0595365
0.00301735
0.0674197
0.0252829
0.0672124
0.0563855
0.0240704
0.0345406
0.0262516
0.0225163
0.0326045
0.074661
0.0287957
0.0066264
0.0239625
0.035938
0.0258898
0.0272504
0.0242365
0.0815465
0.00293496
0.0360405
0.0262779
0.057186
0.0318489
0.0387671
0.0729024
0.094541
0.0684623
0.025622
0.0253299
0.0531099
0.0252839
0.0372482
0.0268453
0.0595559
0.0761333
0.0127896
0.00618431
0.0283192
0.0254886
0.0647953
0.0618293
0.0481436
0.0557835
0.0499419
0.0306065
0.0888537
0.0892035
0.0474267
0.00664789
0.0329251
0.0238233
0.0526232
0.0448875
0.0484934
0.0253225
0.0262344
0.0441981
0.0704537
0.0544399
0.0585996
0.0350443
0.0359907
0.025663
0.0852971
0.0698237
0.00271884
0.0254778
0.0892148
0.0883971
0.036423
0.0208431
0.0927008
0.0557729
0.018306
0.0239449
0.0557913
0.0413429
0.0269981
0.0581305
0.0107906
0.0736503
0.0179156
0.0904711
0.049889
0.0263582
0.0582503
0.0248459
0.0359299
0.0406926
0.0726538
0.0264868
0.0248856
0.00565672
0.0288589
0.0252913
0.00461013
0.0642801
0.07632
0.0257122
0.0253076
0.0366156
0.00302064
0.0247656
0.0260684
0.0262185
0.0954764
0.0266545
0.0267418
0.0432156
0.0359806
0.0056482
0.0324939
0.00265808
0.0249834
0.0165846
0.0619429
0.0571794
0.0657751
0.0173478
0.0252447
0.0234674
0.0230398
0.0274206
0.00365258
0.0349985
0.0290164
0.0804396
0.0323931
0.0369907
0.0964181
0.0186793
0.0282742
0.0269062
0.0294589
0.03901
0.0452225
0.0223072
0.0632308
0.04952
0.0873321
0.083891
0.0104326
0.0359276
0.0836602
0.0266507
0.0240777
0.010779
0.072891
0.0329343
0.0259788
0.0442869
0.0525292
0.0252071
0.0257326
0.0598627
0.03939
0.0238709
0.024907
0.0224806
0.0420936
0.0736102
0.0238559
0.0773123
0.00493896
0.0248341
0.00613268
0.0359459
0.093739
0.0752961
0.0816924
0.0906691
0.0852977
0.0588062
0.0483336
0.0432321
0.0243092
0.0270836
0.0375388
0.047751
0.051786
0.00532058
0.0253709
0.0235661
0.0255159
0.0247387
0.0250196
0.0256753
0.0553095
0.0369877
0.0239249
0.052525
0.0254238
0.0266161
0.0308922
0.0263859
0.0854854
0.0881001
0.0220944
0.0422315
0.0335501
0.0614
0.0411078
0.0193226
0.0239841
0.0104446
0.0255166
0.0565867
0.0894531
0.0497814
0.0356635
0.0247541
0.0411026
0.0357347
0.09411
0.0395749
0.0273231
0.0457322
0.0250356
0.0847171
0.0344387
0.0579304
0.0309988
0.0315289
0.0553362
0.0450608
0.0711084
0.0616802
0.0365618
0.0243604
0.0261534
0.0330346
0.0799951
0.0171688
0.063711
0.0639073
0.0233458
0.0763076
0.0478792
0.0654712
0.0554715
0.0737102
0.0165622
0.0289716
0.07119
0.0864384
0.0285562
0.0155655
0.0574563
0.026275
0.0395337
0.0433805
0.0115214
0.089167
0.0138633
0.0376554
0.0445278
0.0793811
0.0751735
0.0242293
0.0339427
0.0469418
0.0364639
0.0251839
0.0256545
0.0197989
0.0354491
0.0279104
0.0249733
0.0921332
0.0540371
0.0773571
0.0804966
0.0197559
0.0251372
0.060204
0.0626742
0.0204362
0.048634
0.0457543
0.0251358
0.0742323
0.0708563
0.0858749
0.018836
0.024799
0.0252428
0.0122304
0.0489793
0.0508533
0.0246754
0.0329887
0.0737965
0.0258389
0.0212549
0.0373017
0.080454
0.0233486
0.0410818
0.0330872
0.0465582
0.0305176
0.0853368
0.0849955
0.0841633
0.0552421
0.0258969
0.0572736
0.0266112
0.0715362
0.0934976
0.0462864
0.0430953
0.0105631
0.0799831
0.0156044
0.0473784
0.038669
0.071452
0.0254836
0.0518568
0.0200106
0.0257042
0.0260046
0.0924375
0.0542128
0.042022
0.0884552
0.0372019
0.0615743
0.0235968
0.059868
0.0251047
0.0468433
0.00252268
0.0637643
0.0239052
0.025801
0.0795435
0.019737
0.07128
0.0227167
0.0651529
0.0269665
0.0529271
0.0243756
0.0724598
0.0526127
0.0888475
0.0788619
0.0284159
0.0173596
0.0198853
0.0445068
0.0684967
0.056364
0.0633442
0.0513253
0.0643085
0.0749343
0.0258865
0.0810719
0.0757391
0.0402431
0.0779141
0.0742715
0.0248625
0.0356873
0.0299351
0.0819157
0.0262307
0.0259063
0.0255257
0.0901383
0.0917852
0.0455394
0.0540038
0.0589199
0.0245349
0.0482973
0.0304198
0.0394592
0.0259119
0.0529011
0.0515284
0.0488086
0.0262606
0.0837556
0.00486898
0.0238433
0.0390108
0.0740286
0.0512639
0.0734744
0.0257521
0.024895
0.0255976
0.0879906
0.0268432
0.0238908
0.063066
0.079501
0.0233985
0.0401605
0.063074
0.00741066
0.069871
0.0900286
0.00237373
0.0213019
0.0518682
0.0784926
0.064187
0.0287396
0.0373359
0.0515175
0.0252916
0.029129
0.0217954
0.0275413
0.0669672
0.0774505
0.0302278
0.087158
0.074871
0.0301655
0.022409
0.0327039
0.0762765
0.0616632
0.0498198
0.0409813
0.0863608
0.0510081
0.0394688
0.0405172
0.0411015
0.0853544
0.0424407
0.056348
0.0479289
0.0401228
0.0313191
0.0329343
0.0223237
0.0209154
0.0493417
0.062574
0.032807
0.0485134
0.0477687
0.0257863
0.0791497
0.0356769
0.0508699
0.0244729
0.0912731
0.0333144
0.026218
0.0353647
0.0203778
0.0293231
0.030075
0.0247638
0.0278601
0.0315619
0.0499402
0.0771474
0.0321453
0.0857022
0.029626
0.0394076
0.0601906
0.0605844
0.0315573
0.0894061
0.0358993
0.056956
0.0342863
0.0657456
0.0320945
0.00255599
0.0930518
0.0299923
0.0573542
0.0499325
0.0362655
0.0250334
0.0252217
0.035173
0.0257383
0.0294024
0.0311936
0.0265504
0.0505634
0.0274906
0.0245178
0.0307335
0.0144069
0.0718787
0.00492341
0.0589452
0.0489727
0.0912889
0.0266883
0.0260655
0.0340565
0.026241
0.0262728
0.0635334
0.0322072
0.0367935
0.0671982
0.0346722
0.0243373
0.00237061
0.0782972
0.0270076
0.00461372
0.0182001
0.0647974
0.0185898
0.020574
0.0283517
0.0726044
0.0292026
0.0246121
0.0254588
0.036898
0.021823
0.0904563
0.0420862
0.0311801
0.0349721
0.0751409
0.0204879
0.0260097
0.0757976
0.0850581
0.059547
0.0202847
0.0377605
0.0408543
0.0513567
0.0426236
0.0852243
0.0765475
0.0408912
0.0353626
0.0217573
0.0258726
0.0442109
0.0254138
0.0873556
0.0120264
0.0254667
0.0354409
0.0729995
0.0418184
0.0790595
0.0544582
0.0628084
0.0402509
0.0227464
0.0637091
0.0839932
0.0270062
0.0225266
0.0298471
0.0232211
0.027634
0.0659783
0.0422764
0.0471047
0.0773104
0.0807903
0.042541
0.0776337
0.0237528
0.0240777
0.0275599
0.0694802
0.0191238
0.0178908
0.0205352
0.044473
0.0331626
0.0213778
0.0721977
0.081157
0.0721622
0.0261221
0.053057
0.0881928
0.0389247
0.0272185
0.0303565
0.0301429
0.0805279
0.0226916
0.0413872
0.0322375
0.048603
0.0247765
0.0300459
0.0418305
0.00689972
0.00601243
0.034411
0.0472048
0.0208752
0.0268886
0.0491875
0.0456369
0.0276272
0.0768739
0.0536473
0.0256738
0.0270352
0.0300973
0.0400707
0.0228649
0.0254246
0.0749441
0.0488514
0.0251783
0.0768299
0.076988
0.0612561
0.0393194
0.0221044
0.0274339
0.0376625
0.0763683
0.0444991
0.0991198
0.0858229
0.0831574
0.0247255
0.0249112
0.0357138
0.0257147
0.0255402
0.0190051
0.0719856
0.0255105
0.025905
0.0253537
0.0208542
0.0659341
0.0128663
0.037511
0.0199257
0.0187846
0.0196353
0.010609
0.0661352
0.0365834
0.0255899
0.0784871
0.0334551
0.0348793
0.0767274
0.033569
0.0246729
0.0766191
0.0249729
0.0357994
0.0250965
0.0289721
0.0315778
0.0464852
0.0810762
0.0253283
0.0702812
0.0404652
0.0486632
0.0334943
0.0840554
0.0858212
0.0256778
0.0240667
0.030643
0.0109792
0.0399191
0.0704587
0.0854559
0.053554
0.0154589
0.0855538
0.0184106
0.0306997
0.0583294
0.055874
0.0876354
0.0783573
0.0350038
0.0812621
0.0188247
0.0295318
0.0235059
0.0440198
0.0236741
0.0822694
0.0179093
0.0257045
0.0245981
0.0171469
0.0180588
0.0243406
0.0399519
0.0609452
0.0416096
0.0679322
0.0574633
0.0419457
0.0235307
0.0250729
0.038613
0.0353691
0.0261744
0.0250525
0.0288623
0.0137576
0.0249609
0.0194413
0.0245351
0.0333281
0.0255759
0.0211159
0.0429503
0.0381677
0.0774035
0.0871949
0.0401433
0.0251922
0.0407339
0.0411848
0.0721434
0.0299616
0.0297938
0.0366896
0.0274762
0.081314
0.0307509
0.0251063
0.0259882
0.0239843
0.0358448
0.0372514
0.0775907
0.0790156
0.0187779
0.0316464
0.0770783
0.0419488
0.0741085
0.0808107
0.0433593
0.0760072
0.0754923
0.0689871
0.0477031
0.0197324
0.0171406
0.0178237
0.0467428
0.0709761
0.0257505
0.0565312
0.0758338
0.07094
0.0173246
0.0256542
0.0343455
0.0214138
0.0251844
0.0741401
0.0267838
0.0311334
0.0742259
0.0178549
0.0823883
0.0772403
0.0305847
0.0171418
0.0309832
0.0601213
0.0756467
0.0167143
0.0164383
0.0191978
0.0887025
0.122332
0.136752
0.141633
0.14088
0.136239
0.129095
0.120455
0.111069
0.101466
0.0920258
0.0830133
0.0745888
0.0668365
0.059786
0.0534286
0.0477312
0.0426463
0.0381189
0.034095
0.0880143
0.121399
0.135847
0.140821
0.14021
0.135724
0.128734
0.12024
0.11097
0.101463
0.0920974
0.0831401
0.0747532
0.0670248
0.0599874
0.0536352
0.0479371
0.0428471
0.0383108
0.0342732
0.087295
0.120451
0.134908
0.139984
0.139515
0.135188
0.128356
0.120009
0.110863
0.101458
0.0921701
0.0832706
0.0749238
0.0672208
0.0601975
0.0538509
0.0481521
0.0430567
0.0385108
0.0344607
0.0865479
0.119478
0.13394
0.139122
0.138796
0.134631
0.127961