/*--------------------------------*- C++ -*----------------------------------*\
  =========                 |
  \\      /  F ield         | OpenFOAM: The Open Source CFD Toolbox
   \\    /   O peration     | Website:  https://openfoam.org
    \\  /    A nd           | Version:  10
     \\/     M anipulation  |
\*---------------------------------------------------------------------------*/
FoamFile
{
    format      ascii;
    class       volScalarField;
    location    "550";
    object      nut;
}
// * * * * * * * * * * * * * * * * * * * * * * * * * * * * * * * * * * * * * //

dimensions      [0 2 -1 0 0 0 0];

internalField   nonuniform List<scalar> 
23845
(
0.0145198
0.0143797
0.00790525
0.0142527
0.0186929
0.02536
0.00861147
0.00999401
0.0237697
0.0156418
0.0231787
0.0257886
0.0223357
0.0245728
0.00638481
0.0181119
0.0237733
0.0249298
0.0211577
0.0252435
0.0131025
0.0238407
0.0144138
0.023464
0.0181398
0.0213329
0.0105549
0.0251171
0.00352744
0.0249509
0.0150835
0.00129673
0.00514147
0.0245255
0.0257731
0.0255865
0.00111997
0.0257716
0.0256865
0.0237076
0.0205735
0.0246577
0.0220952
0.0250558
0.0212403
0.0231596
0.0198029
0.0186896
0.00227264
0.00198736
0.00576741
0.0101863
0.00130605
0.02478
0.00125395
0.0229601
0.014906
0.0111124
0.013239
0.0142152
0.00629306
0.0248557
0.0190248
0.00435645
0.0229522
0.0228542
0.0103767
0.0203328
0.0209827
0.0209106
0.00832341
0.00828622
0.021329
0.00696405
0.0223344
0.00659501
0.0257917
0.0256745
0.0132546
0.0231262
0.0119332
0.00774102
0.0146862
0.0114353
0.00665543
0.0257616
0.00887136
0.00120616
0.023051
0.0221828
0.00474188
0.0199639
0.00380477
0.02557
0.0107172
0.00555739
0.0234341
0.0183838
0.0224864
0.0199371
0.0229169
0.00992727
0.0175463
0.000861706
0.00300732
0.0120786
0.0251162
0.0219794
0.0116638
0.024927
0.0233652
0.0257537
0.00665111
0.0170907
0.0255324
0.014752
0.0222551
0.0170313
0.00371927
0.00711428
0.0257148
0.00258744
0.0206954
0.00844882
0.00960892
0.0214349
0.00693118
0.00198818
0.00686583
0.0183011
0.0049281
0.0204172
0.0230159
0.0250225
0.022713
0.0161871
0.000754955
0.0258089
0.0119168
0.0256347
0.00232676
0.0248604
0.0256383
0.0250944
0.0196907
0.0250821
0.01595
0.00724741
0.00570117
0.02125
0.00564734
0.0221083
0.0106513
0.0235651
0.00653036
0.021986
0.0187438
0.0256728
0.004545
0.00521473
0.0203523
0.00649874
0.0101739
0.0232102
0.0209145
0.0222603
0.0253074
0.00299899
0.0250777
0.0251728
0.0250991
0.0136347
0.0232917
0.00950914
0.0226141
0.0123367
0.01964
0.0215318
0.0220672
0.025682
0.020344
0.0207163
0.00726126
0.0238865
0.0189405
0.0220789
0.0247772
0.010864
0.00293436
0.0244221
0.00384529
0.0245135
0.0242397
0.0249698
0.0198137
0.0241011
0.00200842
0.00297463
0.000783352
0.0226885
0.0232575
0.0241812
0.00636732
0.0217991
0.0109293
0.0103155
0.00758776
0.0254712
0.0122778
0.0247261
0.0238332
0.00286658
0.019291
0.0249053
0.00337437
0.00124603
0.0228063
0.0247624
0.00056137
0.00560509
0.0217321
0.00677598
0.0018847
0.0209648
0.025169
0.00586685
0.000763852
0.0245024
0.0252535
0.0202324
0.0255634
0.00295824
0.0257318
0.0204247
0.0191695
0.00509521
0.0227245
0.015011
0.0224986
0.012531
0.00162998
0.0165153
0.0120634
0.0199783
0.00312853
0.0188491
0.0250921
0.0209254
0.0114601
0.0066991
0.023817
0.0256793
0.00576681
0.0214087
0.00730535
0.00484873
0.00711013
0.0072758
0.0254925
0.023585
0.00086413
0.0256752
0.0075247
0.0230966
0.0230123
0.0231415
0.0130208
0.00709351
0.0159396
0.0146712
0.0256709
0.0133267
0.00519633
0.0245052
0.0241091
0.024094
0.00703032
0.0245871
0.00197931
0.0146267
0.0118103
0.0251761
0.00743694
0.0204451
0.0257429
0.00584743
0.0105368
0.0238186
0.01048
0.00687384
0.0124453
0.00379681
0.0048965
0.00693773
0.0114884
0.0257559
0.00508391
0.0249278
0.0257441
0.00405598
0.00425895
0.00605203
0.00496754
0.0150385
0.0247622
0.0153263
0.00394112
0.00538705
0.0228691
0.00189356
0.00491589
0.0118142
0.0220853
0.0250858
0.0111245
0.00222422
0.00523171
0.0227637
0.00455583
0.0216927
0.002792
0.00295317
0.00468218
0.0248634
0.00678328
0.0253947
0.0141287
0.0178094
0.00729465
0.0249996
0.00836263
0.021356
0.00550887
0.0256879
0.00662328
0.0145547
0.0128784
0.0250955
0.0250436
0.0134606
0.0128218
0.00513273
0.0236429
0.0204772
0.0209883
0.00148271
0.0256867
0.00622172
0.0137379
0.00571686
0.0136931
0.00487382
0.00187175
0.00673943
0.00131074
0.0243111
0.0252791
0.0219802
0.00701398
0.0117913
0.00749994
0.0224759
0.0162111
0.0207773
0.0032724
0.0251935
0.00709734
0.0254662
0.00386357
0.0213963
0.0250524
0.00415707
0.00312485
0.025781
0.0256215
0.00537907
0.0104943
0.0139065
0.0250175
0.0121888
0.00713409
0.0256491
0.0142945
0.0209878
0.0204812
0.0257229
0.0254604
0.0130539
0.02408
0.0117003
0.00987253
0.0251942
0.00363501
0.00289123
0.00442587
0.00429659
0.0236643
0.0216257
0.020852
0.0256696
0.0121719
0.0162612
0.00919359
0.0118871
0.0138534
0.00703972
0.0255377
0.00341418
0.00313968
0.00786713
0.00613799
0.0204159
0.00807164
0.00610566
0.0177586
0.0104208
0.0163363
0.024394
0.025493
0.0150813
0.00375096
0.0251316
0.0239494
0.0138047
0.00819106
0.0132973
0.0035752
0.0149954
0.00951223
0.00849442
0.0242627
0.0247852
0.00480255
0.0252925
0.0239959
0.021832
0.0257917
0.0221273
0.00461051
0.0107919
0.00663176
0.00326875
0.00283932
0.00655867
0.0155562
0.00470737
0.0250169
0.0177951
0.0255162
0.0125815
0.0133687
0.0226801
0.00307262
0.0256655
0.0208114
0.00533336
0.0149715
0.0213972
0.00832676
0.0245567
0.0112308
0.0146846
0.000765134
0.0163818
0.0254439
0.0255845
0.0249733
0.00321773
0.0205362
0.00550543
0.0249283
0.0253594
0.0161778
0.00753986
0.0043331
0.0199413
0.0225242
0.00337142
0.0248326
0.0214254
0.0190567
0.0176364
0.0155649
0.0241097
0.0243812
0.0076413
0.0257046
0.0257295
0.00879823
0.00685981
0.0216108
0.004624
0.00590525
0.018385
0.0104394
0.0197246
0.021892
0.00983058
0.0226408
0.0256462
0.00960437
0.00252485
0.0056034
0.0196554
0.0119791
0.0127629
0.0236323
0.0213043
0.0253574
0.00618162
0.0155837
0.00479309
0.00116869
0.0159014
0.0246826
0.0205251
0.0170848
0.0051334
0.00571968
0.0248856
0.000819234
0.0242985
0.0248704
0.00429098
0.0205487
0.00838602
0.00711478
0.00487941
0.0133752
0.00407255
0.00530327
0.00403562
0.0219316
0.0151299
0.0218511
0.021276
0.0248576
0.00591085
0.0210587
0.0133569
0.00709119
0.0243235
0.0149909
0.0148979
0.020122
0.0148852
0.0241595
0.0224189
0.0249213
0.0227297
0.0235628
0.0257573
0.00849069
0.023475
0.0108361
0.0115692
0.0251379
0.00513697
0.0256772
0.0252897
0.011339
0.0140402
0.0153018
0.0251838
0.0251883
0.00280294
0.00341098
0.0215591
0.00428871
0.0213928
0.0210277
0.0084036
0.0220286
0.025082
0.0176973
0.0208306
0.00801737
0.00504983
0.00804382
0.020795
0.0209495
0.0257713
0.0199993
0.00761288
0.00455666
0.0254087
0.0212539
0.021854
0.0081405
0.0220519
0.0154043
0.00581128
0.0136187
0.0242897
0.00682713
0.0253603
0.0210658
0.0243894
0.024976
0.025744
0.00949748
0.024686
0.0220554
0.0070244
0.011698
0.0194275
0.00756802
0.0213859
0.00799743
0.0219967
0.019215
0.0180867
0.0142633
0.0211922
0.00413495
0.0152923
0.0230941
0.0188867
0.0248438
0.0245396
0.0217399
0.00643825
0.0206941
0.0227404
0.0170536
0.0250389
0.0206545
0.0252663
0.0209052
0.0182507
0.0222917
0.0231229
0.0179423
0.0251293
0.0257601
0.00640098
0.0163917
0.0174939
0.0209665
0.0242834
0.0170034
0.0243039
0.0253441
0.0213537
0.014944
0.0214512
0.0133265
0.0213782
0.0197276
0.00650218
0.0255841
0.0257196
0.0233025
0.0127071
0.00539072
0.00445983
0.00448283
0.0184715
0.00790259
0.0233034
0.0238368
0.02157
0.0239937
0.0177297
0.0234474
0.0210993
0.0209192
0.0207323
0.0165174
0.0213322
0.0186581
0.0249609
0.0224901
0.02493
0.0250454
0.0240512
0.0251331
0.0235362
0.0223149
0.0235001
0.0222164
0.0252313
0.0245239
0.0252468
0.0235676
0.0208917
0.0230658
0.0253356
0.0226431
0.0200297
0.0253161
0.0243298
0.0250188
0.024931
0.0247434
0.024563
0.0242973
0.0251264
0.0238749
0.025193
0.021929
0.0252676
0.0221589
0.0253176
0.0246152
0.0241373
0.0253888
0.0253229
0.025359
0.0213982
0.0238874
0.0164539
0.0229194
0.0240921
0.0238468
0.0253972
0.0251998
0.0235343
0.0254086
0.0247454
0.024618
0.0250857
0.0253978
0.0239833
0.0255405
0.0191932
0.0202107
0.023071
0.0228284
0.0247143
0.0254601
0.0250183
0.0254089
0.024077
0.0238938
0.024686
0.0225316
0.0253399
0.0240022
0.024477
0.0216459
0.0254375
0.0233719
0.00876606
0.0219983
0.0254302
0.0235548
0.0254615
0.0246199
0.0250521
0.00781601
0.0245463
0.0209725
0.0211386
0.0238428
0.00766333
0.0212693
0.0216677
0.0244162
0.0246422
0.0238056
0.0247471
0.0251777
0.0243961
0.0241092
0.0252854
0.020966
0.0253244
0.0158566
0.0253239
0.0255038
0.0244493
0.0245753
0.0233171
0.0135638
0.0220411
0.0248571
0.0198685
0.0217274
0.0242571
0.0253888
0.0253156
0.00496701
0.0240079
0.0229594
0.0254459
0.0223183
0.0252004
0.0254122
0.0254611
0.0253858
0.0237857
0.0241837
0.0246897
0.0254344
0.0241148
0.0174304
0.0249158
0.0247786
0.0250746
0.0251842
0.0236211
0.0233798
0.0230422
0.0227233
0.0233386
0.0245227
0.0246321
0.0240774
0.0245577
0.0170186
0.0202509
0.0243094
0.0223745
0.0254654
0.0250411
0.00438524
0.0231043
0.0202808
0.0196811
0.0205506
0.020538
0.0194452
0.0209013
0.0204944
0.0205491
0.0206853
0.0205367
0.0209404
0.0205709
0.020604
0.0204986
0.0204739
0.0206223
0.0209093
0.0205171
0.0189072
0.0253029
0.025268
0.00897748
0.0240861
0.0210735
0.0230104
0.0250283
0.0201176
0.0248033
0.0226555
0.0249694
0.0241286
0.0202518
0.0202718
0.0199198
0.0189984
0.0252925
0.0247344
0.024743
0.0227871
0.0205454
0.0258053
0.00726352
0.0257423
0.0192492
0.0243301
0.0231089
0.025542
0.0232076
0.0196882
0.020349
0.0173827
0.0183183
0.0202448
0.0168546
0.0209069
0.0207342
0.0209406
0.0209577
0.0209232
0.0209582
0.0220991
0.0254355
0.0255173
0.0200295
0.0248594
0.0208251
0.0191516
0.0245192
0.020169
0.0171254
0.0203008
0.0209182
0.0195764
0.0209799
0.0180555
0.0206991
0.0209463
0.0165333
0.0208117
0.0209162
0.0247589
0.0245199
0.0246406
0.0169696
0.0249517
0.0243673
0.025165
0.0241782
0.0252515
0.025519
0.0230678
0.00366352
0.0257147
0.0251945
0.0248422
0.0248211
0.0217238
0.0246259
0.0252273
0.0198572
0.0252199
0.0251761
0.00564646
0.00261766
0.0253513
0.025409
0.0244315
0.0168992
0.0244026
0.00618687
0.0252563
0.0205505
0.0212212
0.0204945
0.0245808
0.0254207
0.0230214
0.0208269
0.0254243
0.0143672
0.0202604
0.0235044
0.025289
0.0203567
0.0249596
0.0246116
0.0246711
0.022582
0.0199487
0.0251489
0.0246741
0.0246286
0.0242991
0.0251223
0.0231227
0.02427
0.0222778
0.0223218
0.0228577
0.0244991
0.0187833
0.0255035
0.0252547
0.0235691
0.0252731
0.0255484
0.0253295
0.0211229
0.0252426
0.0255229
0.0241788
0.0218578
0.0234838
0.0243485
0.0143448
0.0255439
0.0231177
0.0252637
0.0253372
0.0233441
0.0215481
0.0245886
0.0218691
0.0160755
0.0234342
0.0253721
0.0242614
0.0239526
0.0255197
0.0178349
0.0245693
0.0246011
0.0239756
0.0181143
0.021703
0.0241636
0.0237766
0.0234009
0.0202379
0.0225981
0.0216381
0.0224336
0.0241801
0.0244617
0.025336
0.0219313
0.0207846
0.0232659
0.00178386
0.0238077
0.00494669
0.022915
0.0247775
0.00201608
0.0255231
0.020609
0.0256765
0.0209068
0.0250672
0.0254833
0.024779
0.0240689
0.0234221
0.00586356
0.0255328
0.0247644
0.0215871
0.019901
0.018923
0.016682
0.0241928
0.0254707
0.0244186
0.0253157
0.0247072
0.0217114
0.0248694
0.0204957
0.0228472
0.0187199
0.0173298
0.0181728
0.0169003
0.0164031
0.0242564
0.025439
0.0225869
0.0209359
0.0207219
0.0245005
0.0210952
0.0246591
0.0242217
0.0248744
0.025365
0.0249883
0.0251876
0.0254048
0.0251905
0.0252953
0.0252669
0.0254248
0.0247875
0.0247882
0.0153117
0.0236111
0.0254963
0.0160414
0.0254705
0.0226113
0.0249064
0.0257816
0.0248843
0.025195
0.0245049
0.0252045
0.0221624
0.0235847
0.021558
0.0214962
0.0254881
0.0158361
0.0245188
0.0217291
0.0250938
0.0231844
0.0220728
0.0044852
0.00864205
0.0239442
0.0211162
0.0206072
0.0242722
0.0245033
0.0255179
0.0245607
0.0219288
0.0247687
0.0249738
0.0250369
0.0250616
0.00272707
0.0251924
0.0188829
0.0254261
0.0252981
0.0191373
0.0217425
0.0234847
0.00450749
0.025276
0.0205129
0.0214504
0.0253195
0.0254058
0.025447
0.0254648
0.0242277
0.0230768
0.0253532
0.0253914
0.0139873
0.0255519
0.0255099
0.0253868
0.0146417
0.0231187
0.024801
0.0227772
0.0216267
0.0225345
0.0255112
0.0230412
0.0212569
0.00937264
0.021643
0.0253671
0.0210755
0.0236727
0.0228434
0.0242117
0.0246383
0.0246229
0.02503
0.0252332
0.0249857
0.025219
0.023121
0.0246083
0.0246175
0.0255548
0.0250653
0.0242022
0.0128328
0.010737
0.0250844
0.0244492
0.0245258
0.0204147
0.0235858
0.0209059
0.0232648
0.0254988
0.0144476
0.0253664
0.025481
0.0255828
0.0228089
0.0248003
0.0213949
0.0228058
0.0252364
0.0202946
0.0241111
0.0227425
0.0237319
0.0247459
0.0223942
0.022847
0.0226081
0.0218344
0.0241021
0.025481
0.0238621
0.0250664
0.0209017
0.0253709
0.0214621
0.0203728
0.0187291
0.0205027
0.0205724
0.0179834
0.0205702
0.0204513
0.0171012
0.0206215
0.020501
0.0161264
0.0205255
0.0205647
0.0166625
0.0218118
0.0190561
0.02366
0.0239863
0.0168502
0.0255663
0.0256466
0.0205946
0.0191924
0.0206844
0.0235948
0.0165865
0.0245006
0.02499
0.0181522
0.0244591
0.024904
0.0247149
0.0192582
0.00247762
0.0248476
0.0253502
0.0255222
0.025728
0.0255681
0.0253035
0.025476
0.00590684
0.0251856
0.0253494
0.0236859
0.0226779
0.024311
0.0255316
0.0138199
0.0231899
0.0226669
0.0180025
0.0224308
0.0247948
0.0255738
0.0236472
0.00514058
0.0255963
0.0165735
0.0235224
0.0236273
0.0103001
0.0138576
0.0223136
0.0242661
0.0232379
0.0189536
0.0242772
0.0242979
0.0241259
0.0140886
0.0252495
0.0240081
0.0222696
0.019436
0.0212216
0.0226869
0.0252568
0.0254545
0.0038268
0.0226598
0.0224371
0.0180051
0.0258162
0.000934002
0.0236563
0.00465805
0.0255846
0.0183969
0.0235704
0.023954
0.0252776
0.023235
0.0234695
0.0236394
0.0228871
0.0202651
0.0215575
0.0235972
0.0255439
0.020252
0.0202993
0.0252013
0.0235123
0.0242021
0.0231604
0.0211305
0.0234708
0.0253714
0.0219284
0.0228021
0.0161241
0.0243418
0.0187168
0.0246632
0.0250724
0.0254161
0.023398
0.00674033
0.0185458
0.019055
0.0250627
0.0203599
0.0242024
0.0235293
0.018301
0.0235679
0.012969
0.00601168
0.0193653
0.0233567
0.0253307
0.00539343
0.0230732
0.0229082
0.0229134
0.0193622
0.0155083
0.0254054
0.024503
0.00539835
0.0118002
0.0244376
0.0192718
0.018075
0.0235159
0.00521675
0.0250983
0.0146441
0.0245954
0.0178648
0.0223042
0.0192362
0.0124349
0.0257091
0.00623867
0.0154744
0.0238481
0.00809692
0.0236306
0.0174574
0.0153793
0.0126043
0.024749
0.0208507
0.0131233
0.0248654
0.0176917
0.02419
0.0254216
0.0240965
0.0224895
0.0178172
0.0255429
0.0228578
0.0214796
0.0223012
0.0248301
0.0250196
0.0235071
0.0244376
0.023633
0.01677
0.0103151
0.0191571
0.0254991
0.023714
0.0252165
0.0235151
0.0237519
0.0249028
0.00725753
0.0220856
0.0177319
0.00102424
0.0242697
0.0243836
0.0219052
0.0218731
0.0178606
0.0154901
0.0242329
0.025296
0.0249292
0.0244948
0.0253001
0.0241219
0.0210239
0.0256003
0.0250556
0.0162991
0.00476103
0.0228405
0.0227801
0.022901
0.012098
0.0246603
0.0226053
0.0244979
0.0243918
0.0251088
0.0237452
0.0225265
0.0216751
0.0240457
0.02547
0.0240328
0.00858537
0.00748465
0.0254464
0.023685
0.0215884
0.0237895
0.0231665
0.0255412
0.0242015
0.0220713
0.0239148
0.00240677
0.023207
0.00714472
0.0251812
0.0255784
0.0110773
0.0231942
0.0216948
0.0237564
0.0219267
0.0216221
0.0211248
0.024256
0.0181144
0.0253409
0.0245949
0.0250139
0.0234079
0.0126545
0.02388
0.0224058
0.0245564
0.0184204
0.00823498
0.0234938
0.0230553
0.0142167
0.0255643
0.0254576
0.0230756
0.0182475
0.00573305
0.00392497
0.0247754
0.0254124
0.0215
0.0242825
0.0163007
0.0201381
0.0254853
0.0229501
0.0175602
0.0228904
0.0138812
0.0235527
0.0217963
0.0226408
0.0140597
0.0200623
0.0240307
0.0228628
0.00727162
0.024055
0.0235905
0.0164127
0.0256369
0.0209737
0.0205713
0.0178594
0.00519962
0.0218849
0.0245698
0.0249411
0.00452422
0.0233874
0.0207916
0.0219677
0.0112421
0.0248689
0.0216842
0.0236873
0.011145
0.0178593
0.0255991
0.0223897
0.0256533
0.0255782
0.022029
0.00930801
0.0233139
0.0256209
0.0254728
0.0155803
0.0220662
0.0212525
0.0206536
0.0256301
0.0255783
0.0074468
0.0237225
0.022714
0.0256883
0.0205198
0.0104991
0.00523722
0.00273002
0.00742972
0.011923
0.0238936
0.0189491
0.0253661
0.0243657
0.0249393
0.0184049
0.0255377
0.00703443
0.00400555
0.0252372
0.025345
0.0156749
2.13886e-05
0.0176197
0.00873789
0.0222353
0.01429
0.0255948
0.0200184
1.75785e-05
0.02568
0.0146152
0.0253812
0.0254091
0.0160845
0.00327435
0.00799156
0.0142882
0.0157017
0.0214362
0.00186906
0.0240771
0.0151798
0.0254951
0.0125019
0.0201619
0.0224203
0.0192554
0.0252473
0.0231681
0.0253151
0.00275722
0.0152565
0.00691199
0.00766649
0.0252955
0.014979
0.0253011
0.0249639
0.0257229
0.0202774
0.00990058
0.025248
0.0227341
0.0135574
0.00583381
0.0243786
0.0246463
0.0123455
0.0245711
0.0253964
0.023025
0.020458
0.0233026
0.023657
0.0256515
0.00651664
0.0250246
0.0245975
0.0255968
0.018655
0.0136144
0.0212318
0.0221002
0.0128159
0.017114
0.018361
0.0245292
0.00395961
0.0209797
1.73389e-05
0.0124002
0.0114626
0.0242962
0.0253914
0.011416
0.0125285
0.0236927
0.0250627
0.0150504
0.0176161
0.0180649
0.0200879
1.85404e-05
0.0251077
0.00723567
0.0245578
0.00492335
0.0256284
0.0250172
0.0250485
0.0241845
0.00406557
0.0252618
0.0139776
0.00281898
0.024604
0.0199735
0.0155118
2.29727e-05
0.0204681
0.0250203
0.0210045
0.0201895
0.0126696
0.0209804
0.0134176
0.0158918
0.0142861
3.37559e-05
0.0232624
0.0249484
0.019277
0.00664566
0.024252
0.0130799
0.0228584
0.0226301
0.0217392
0.0254374
0.00678463
0.024124
0.0253528
0.0172732
0.0196064
0.0108042
0.0137263
0.00551289
0.00805243
0.0162439
0.00222121
0.0151398
0.0215101
0.020767
2.55817e-05
0.0213047
0.0130187
0.0257429
0.00425264
0.00504275
0.0252094
0.0246313
0.0205516
0.0243358
0.0249881
0.0251065
0.0248648
0.0253214
0.0127998
0.0193563
0.0223328
0.0223806
0.0223873
0.0148792
1.6027e-05
0.00502583
0.0112692
0.00567201
0.0130527
0.00310248
0.0234463
0.0213784
0.00389573
0.0209678
0.00638098
0.0175484
0.020549
2.99255e-05
0.0227786
0.0232482
0.0132337
0.0253675
0.00989556
0.014326
0.0193089
0.00720478
0.0248662
0.0140302
0.0207485
0.0249895
0.0129309
0.000842537
0.0213492
0.021432
0.0214541
0.0237733
0.0251277
0.0052848
0.0244625
0.0214238
0.0123922
0.0257535
0.00924851
0.0191896
0.0250567
0.0192531
0.0058719
2.77685e-05
0.00917394
0.0104012
0.0118242
0.024742
0.0160359
0.0255399
0.0254477
0.0146742
0.0241478
0.00708046
0.013067
0.0118376
0.0114529
0.023577
0.0133576
0.0245655
0.0225621
0.0245782
0.0224701
0.0138806
0.024977
0.0232629
0.0209517
0.00625117
0.0255568
0.00802494
3.95816e-05
0.0247075
0.00201232
3.57819e-05
0.0134879
0.0257287
0.00462245
0.0212261
0.0254541
0.0256275
0.00544385
0.0252678
0.0240666
0.0246749
0.0153416
0.024164
0.0120136
0.02411
0.0247621
0.0196126
0.0248516
0.0171018
0.0235445
0.021205
0.0195811
0.0232416
0.0248577
0.0223418
3.01276e-05
0.0187534
0.0236458
0.00346824
0.0171831
0.0125563
0.0248161
0.0250528
0.00782762
0.0118795
0.00868542
0.0122201
0.00914927
0.0104663
0.0234856
0.0119325
0.0102285
0.0218171
0.012303
0.0238634
0.00643388
0.00444373
0.00519871
0.018419
0.00878854
0.00115369
0.0234592
0.0258136
0.0257255
0.00864713
0.0130735
0.00377617
1.99693e-05
0.0100119
0.0215309
0.0252521
0.0130552
0.00466637
0.0135628
0.0200929
0.0155474
0.0251505
0.00866872
0.00328103
0.0117426
0.00887806
0.00677555
0.0133778
0.0239246
0.00750456
0.0130817
0.00367758
0.013287
0.0079242
0.0199963
0.0114355
0.00437125
0.0209356
0.00681146
0.0150587
0.0219988
0.00913831
0.0204228
2.07972e-05
0.00865412
0.0181617
0.0139609
5.08649e-05
0.0198956
0.0149516
0.00579148
0.0215844
0.0129817
0.0213802
0.0240827
0.0200542
0.0251963
0.0252292
0.022202
0.0247762
0.023236
0.0253091
0.0213321
0.0108592
0.0256145
0.016261
0.000828326
0.00918571
0.0254276
0.0198996
0.0213934
0.008682
0.0237434
0.00580116
0.00858807
0.0225571
0.0125477
0.0120633
0.00746476
0.0224024
0.0222144
0.0100694
9.43291e-05
0.00648332
0.0246044
0.0257275
0.0250434
0.0223202
0.0144113
0.0235452
0.0251045
0.0234713
0.0102801
0.0245537
0.0194206
0.0210147
0.0243417
0.00876217
0.0204351
0.0209574
0.0216761
0.0100821
0.0228638
0.0101293
0.0252133
0.0201979
0.0249156
0.0191688
0.007752
0.00685031
4.67841e-05
1.87063e-05
0.0203984
0.0191989
0.0103502
0.0254374
0.00604718
0.0221308
0.0205467
0.0221684
0.0197304
0.00895447
0.0235751
0.0182092
0.000774183
0.00610394
0.00282104
0.0109527
0.0203222
0.00922424
0.00422873
0.0244748
0.0179142
5.93369e-05
0.0169387
0.0258424
0.0121865
0.0243899
0.0146761
0.0137263
0.0142279
0.0247472
0.0209311
0.0110824
0.0248983
0.0185103
0.0246295
0.0153688
0.0256355
0.0114594
0.0217527
0.00877322
0.02422
0.0223336
0.0215977
0.0202931
0.0105879
0.0120703
0.0245563
0.0230166
0.0241016
0.0258136
0.0194116
0.024231
0.00270598
0.00190275
0.00776808
0.0257124
0.0239752
3.96312e-05
4.02829e-05
0.00321175
0.00490626
0.0105492
0.0223913
0.0154605
0.00899931
0.025608
0.00973717
0.0238062
0.0188378
0.0246185
0.00954538
0.0257748
4.1993e-05
0.0257762
0.00519636
0.0111026
0.024075
0.00787537
0.02135
0.00425187
0.0156574
0.0206525
0.0222624
0.00752238
0.00466818
0.0213341
2.46216e-05
0.0136987
0.0230641
0.00569901
0.0246001
0.0085995
0.0237203
0.0227778
0.0241551
3.71862e-05
0.0244517
0.00859274
0.0224501
0.0248874
0.0257289
0.0257294
0.0253934
0.0235813
0.00948218
0.0158119
0.0199913
0.0157612
0.020152
0.0251008
0.0253156
0.0252107
0.00865832
0.0181344
0.0255818
0.0206293
0.0231463
0.0251736
0.00539979
0.0210641
0.0214422
0.0239046
0.0113019
0.0217072
0.0231858
0.00849897
0.0118701
0.0256714
0.0256825
0.00260314
3.94177e-05
0.00428499
0.0248698
0.0214869
0.00434565
0.0230512
0.0225078
0.0256008
0.0106705
0.0162839
0.00603604
0.0246121
0.00993514
0.0155901
0.0062447
4.57776e-05
0.021992
0.0213494
0.0239506
0.000927971
0.0254427
0.0234264
0.0187325
0.0171655
0.0217587
0.0226141
0.0217671
0.02273
0.0241699
0.00950924
0.0219833
0.00830836
2.09948e-05
0.0125014
0.0236929
2.70142e-05
0.0147242
0.00603257
0.00627221
0.0217737
0.020133
0.0223753
0.0174341
0.0107473
0.0224824
0.0101985
0.0241241
0.0224348
0.023791
0.0257037
0.00914992
0.02403
0.0252979
4.54948e-05
0.00548227
0.0222345
0.0104986
4.91881e-05
0.00793853
0.0132582
2.51571e-05
0.00538905
0.0255865
0.0173418
0.0167115
0.0258293
0.0205656
0.0256104
0.0215748
0.0224436
0.0186236
0.00674264
5.26308e-05
0.0226676
0.00928925
0.0253844
0.0249789
0.0258049
0.00939979
2.39472e-05
0.020135
0.0256181
0.00934358
0.00818607
0.00303128
0.0120547
0.0187897
0.0142261
0.0253262
0.0252913
0.0215511
0.0255189
0.0105347
0.0252622
0.0155794
0.0113303
0.000888632
4.78112e-05
0.0251491
0.0225905
0.0162598
0.0108328
0.011041
0.0192859
0.0177622
0.00633506
0.00543896
0.00802454
0.00563495
5.14206e-05
0.0063816
0.0233142
0.024194
0.0216918
0.00478423
0.0248265
0.020541
0.0232587
0.012585
0.0173202
0.0147529
0.00965974
0.00914149
0.0248451
0.0102968
0.0159127
2.31336e-05
0.0254273
0.00506142
0.0107172
0.00318223
0.0209588
0.0108371
0.015311
0.00186925
0.0258473
0.0168742
0.0207243
0.0253419
0.0240577
0.000654019
0.0214934
0.00137605
0.00661663
0.00349017
0.0254936
0.00558896
0.0257123
0.00998422
0.019898
0.0121892
0.0254812
0.0256905
3.66926e-05
0.0067562
0.0254147
2.52042e-05
0.0141763
0.0226361
0.025209
0.0251741
0.0101403
2.24565e-05
0.0233529
0.0248416
0.0220832
0.015527
0.0239084
0.0251366
0.0191741
0.0203463
4.79633e-05
0.0212136
2.08835e-05
0.0240198
0.00201392
0.0046802
0.0162209
0.0151604
0.00215884
0.02562
0.0212966
0.0224138
0.0243169
3.36998e-05
0.0225673
0.0251916
0.0109451
0.00785613
0.0100727
0.0173191
0.0020159
0.0224951
0.0245921
0.0252947
0.0102565
0.0104639
0.0225737
0.00782436
0.0234632
0.00790151
0.00873737
0.000698434
0.0232854
0.00895688
0.0250297
0.0257925
0.000751249
0.0042741
0.0238034
0.0230976
0.012477
0.0144211
0.0250077
0.0250646
0.0151507
0.0108954
0.0258579
0.0257143
0.00400766
0.0241607
0.0121375
0.0258592
0.00418657
3.18376e-05
0.0217159
4.34673e-05
0.00996898
0.0206951
0.0115193
0.00963028
0.012575
0.00892659
0.0186038
0.0234465
0.0228944
0.0257646
0.0253842
0.0108761
0.0213531
0.00588761
3.45587e-05
0.0255038
0.0229939
0.024143
0.0245897
0.0248114
0.0249153
0.0246831
0.0221214
0.022342
0.0236929
0.0215141
0.0237094
0.0231338
0.0222093
0.0220177
0.0221742
0.0024099
0.00855204
0.00875622
0.00934268
0.0214913
0.00298096
0.0233855
0.000719226
0.0246964
0.0195546
0.010101
0.014215
0.021007
0.0234443
0.0240367
0.00264638
0.0212314
0.0119089
0.0244284
0.0234666
0.0256081
0.0116296
0.00918415
0.0178445
0.0203576
0.0237602
0.0243172
0.0221748
0.0137882
0.0175167
0.0209881
0.0243432
0.0244625
0.0226728
0.0120365
0.00115212
0.0039378
0.0163563
0.00422797
0.0120425
0.00762779
0.0147697
0.0144137
0.00950747
0.00209212
0.024673
0.00623661
0.0110619
0.00611472
0.00188158
0.0158584
0.0232809
0.0112687
0.0220699
0.000791376
0.00822449
0.000941879
0.022033
0.0197994
0.0118269
0.00622196
0.0238064
0.00742546
0.0142485
0.0240065
0.0255337
0.0253107
0.0213716
0.0210841
0.025371
0.0257041
0.00584191
0.0244432
0.0105562
0.0104474
0.00255321
0.0245477
0.0138333
0.0143199
0.00201686
0.0205189
0.0138165
0.0256968
0.00459937
0.0123519
0.00941189
0.0216551
0.0231113
0.02442
0.000856261
0.0117614
0.0183724
0.0228507
0.00836728
0.0117518
0.0246736
0.0220199
0.0200198
0.00710135
0.0217306
0.0228452
0.00853294
0.0139469
0.025359
0.00734444
0.0166944
0.00621216
0.0197039
0.00251149
0.010142
0.0244854
0.0185227
0.00589523
0.0143215
0.0242914
0.000738234
0.0106993
0.00107709
0.0127379
0.0114308
0.0148682
0.0248334
0.00640234
0.0204848
0.0254489
0.0234787
0.0213222
0.0239974
0.00353296
0.00806245
0.00961559
0.0151995
0.0224623
0.0154107
0.0257036
0.0193685
1.94985e-05
0.0134612
0.0240808
0.025081
0.0117528
0.0216044
0.00737838
0.021474
0.00632913
0.0253653
0.00823261
0.0238521
0.0086511
0.019391
0.0216553
0.00928712
0.00275402
0.00099879
0.021494
0.00328647
0.0141057
0.0109867
0.0171343
0.0182839
0.0152384
0.017458
0.0248461
0.0183891
0.0110057
0.0197889
0.0106314
0.00494043
0.0241437
0.00951378
0.0220095
0.00934814
0.0256021
0.0252596
0.0253932
0.0209847
0.00602588
0.00636553
0.0198629
0.0157594
0.0242622
0.0228508
0.0204055
0.0219455
0.02548
0.0245026
0.024906
0.0222324
0.0213577
0.0087481
2.80994e-05
0.0235324
0.0207915
0.0139571
0.00553397
0.0178047
0.0225574
0.0256586
0.00536878
0.0211823
0.0255793
0.0258562
0.00391775
0.0233833
0.0226695
0.0228309
0.0168121
0.000225605
0.0110355
0.0219052
1.76953e-05
0.00364203
0.0244963
0.0117727
0.00601731
0.0250547
0.00996731
0.0209605
0.02549
0.0217314
0.00375142
0.0227126
0.0139019
0.0109151
0.0252406
0.0217427
0.0048035
0.0213753
0.00285452
0.0243328
0.0146608
0.0158343
0.0249008
0.0124293
0.00768638
0.0240888
0.0214745
0.0124591
0.0224506
0.00809375
0.00350863
0.00586569
0.0202399
0.0215981
0.0250434
0.00859273
0.0223161
0.0219275
0.0219932
0.0171924
0.0249063
0.0251792
0.0211586
0.0252172
0.0123187
0.00994108
0.0186537
0.0243042
0.00589777
0.0231669
0.0209121
0.0201973
0.00124697
0.0254351
0.0230429
0.00408055
0.0222144
0.025048
0.0240885
0.0108284
0.0250827
0.014269
0.00709147
0.023448
0.00786922
0.0193106
0.0254255
0.00627269
0.00899172
0.00395026
0.0213826
0.0154045
0.0202741
2.02331e-05
0.00588022
0.0253545
0.0163809
0.0244869
0.00979854
0.0255751
0.0255354
0.0238339
0.0223849
0.022533
0.0253176
0.00351284
0.02187
0.0241189
0.0257372
0.0231615
0.000981331
0.0132172
5.79507e-05
0.0209051
0.0249012
0.00552229
0.0254488
0.0252233
0.0222138
0.0256572
0.0255647
0.0181632
0.0219198
0.0227281
0.0147463
0.00941623
0.00481871
1.19731e-05
0.0127225
0.0250026
2.92382e-05
0.00231486
0.0164877
0.00114035
0.00193719
0.00419448
0.0128588
0.0224814
0.00357135
0.0205567
0.00972866
0.0228972
0.0184205
0.0237281
0.0223483
0.00806691
0.0158743
0.00134521
0.0251218
0.0242271
0.0226806
0.0182296
0.0204792
0.0228247
0.0195279
0.0110932
0.0202218
0.00505894
0.0238207
0.0245305
0.0098115
0.0224606
0.0212552
0.0190881
0.0216616
0.0160795
0.000807642
0.0244982
0.0241736
0.0136546
0.0203253
0.0114231
0.0112259
0.0146287
0.0211796
0.0234463
0.0144201
0.00827256
0.0243341
0.0228415
0.00706164
0.0231772
0.0240995
0.0160898
0.0235817
0.00419275
0.0217537
0.0107466
0.0229767
0.0238692
0.0212822
0.0238776
0.0247942
0.0136163
0.0212622
0.0214603
0.0224493
0.0133122
0.00879442
0.0228037
0.0169995
0.00952914
0.0126433
0.0232915
0.0101751
0.00741533
0.00385036
0.0255523
0.00563057
0.0213246
0.00972622
0.0228362
0.0127716
0.00291056
0.00596765
0.0256437
0.0254251
0.0111228
0.000108811
6.41851e-05
0.0220801
0.00385934
0.0219998
0.0247482
0.00694422
0.013032
0.0226157
0.0121066
0.0197022
0.0253964
0.00566184
0.0026185
0.0121881
0.0227632
0.0251839
0.0175202
0.0214846
0.024812
0.0191293
0.00807132
0.00839934
0.010061
0.0231254
0.0217801
0.00820167
0.010814
0.0112676
0.0164962
0.0084508
0.00928191
0.0256636
0.0256303
0.0210291
0.0228932
0.0234907
0.00105464
0.0123346
0.0256071
0.0256382
0.0256508
0.0220369
0.0186061
0.000890448
0.00898315
0.0216434
0.0217366
0.022103
0.000689457
0.0135686
0.0104077
0.0255697
0.0123935
0.0249605
0.0211122
0.0131327
0.0244422
0.00297275
0.0172355
0.0231196
0.0086053
0.0241954
0.00550018
0.00754445
0.0195367
0.00945509
0.0254466
0.0167067
0.00423613
0.0146583
0.0220221
0.00851234
0.00788002
0.0255058
0.0236159
0.00726948
0.000798547
0.0224018
0.0129132
0.00928249
0.0175994
0.00107541
0.00814022
0.00106056
0.00745784
0.00606619
0.00619733
0.0095663
0.0125677
0.00872584
0.0116087
0.0210757
0.0231237
0.023764
0.0118878
0.0233266
0.00940073
0.00119662
0.0247639
0.0238853
0.0211862
0.0209261
0.0236571
0.00927874
0.0151634
0.0129811
0.0146949
0.0102764
0.00955327
0.0232864
0.0228977
0.00952081
0.0210537
0.0250327
0.0256
0.0223849
0.000927441
0.0256116
0.00300911
0.0256958
0.0247609
0.00221512
0.021881
0.0134894
0.00871113
0.011104
0.00727263
0.0239759
0.0256465
0.0213833
0.0205986
0.0160328
0.00702976
0.00616487
0.0219967
0.00368116
0.00948253
0.00678654
0.0255874
0.0249732
0.0240324
0.0208624
0.01038
0.0164099
0.0101297
0.0215941
0.00731382
0.0136256
0.0205174
0.0123808
0.0103268
0.0209901
0.0122418
0.0123002
0.0142924
0.0193485
0.00127676
0.0210548
0.0208547
0.0195097
0.0130417
0.025223
0.00663281
0.0139446
0.00582553
0.0212262
0.0255319
0.00933766
0.0222724
0.0255463
0.014204
0.00486775
0.0234148
0.0144206
0.021407
0.00918956
0.0132093
0.0252349