/*--------------------------------*- C++ -*----------------------------------*\
  =========                 |
  \\      /  F ield         | OpenFOAM: The Open Source CFD Toolbox
   \\    /   O peration     | Website:  https://openfoam.org
    \\  /    A nd           | Version:  10
     \\/     M anipulation  |
\*---------------------------------------------------------------------------*/
FoamFile
{
    format      ascii;
    class       volScalarField;
    location    "550";
    object      p;
}
// * * * * * * * * * * * * * * * * * * * * * * * * * * * * * * * * * * * * * //

dimensions      [0 2 -2 0 0 0 0];

internalField   nonuniform List<scalar> 
23845
(
-0.121832
-0.163926
-0.256493
-0.253757
-0.141099
0.000681251
-0.24154
-0.260447
-0.00103575
-0.0824167
-0.0192098
0.000591898
-0.00323038
-0.000113028
-0.249152
-0.0419323
-0.00373756
-0.00482877
-0.00583338
-0.000878837
-0.141388
-0.0180927
-0.189543
0.000156118
-0.0478757
-0.000288674
-0.215392
0.00214531
-0.26825
-0.000735314
-0.248549
-0.246894
-0.260435
-0.00507076
0.000849344
0.000236918
-0.257612
0.000568215
0.00113657
0.000761873
-0.00962506
-0.00315628
-0.00323625
-0.00440552
0.000622202
-0.00267963
-0.159087
-0.0339594
-0.239252
-0.271094
-0.247432
-0.247376
-0.239185
0.0012052
-0.249615
-0.0040993
-0.189553
-0.257181
-0.14433
-0.22958
-0.266769
-0.00232147
-0.0290848
-0.268741
0.000372287
-0.00469093
-0.228955
-0.000687264
-0.00180273
-0.00830291
-0.263127
-0.261351
-0.00229402
-0.248629
-0.00100527
-0.25007
0.000435738
0.000112881
-0.256494
-0.0057528
-0.196013
-0.240649
-0.175306
-0.260806
-0.252945
0.0010201
-0.233616
-0.236598
-0.000340322
-0.0061635
-0.252065
-0.0159329
-0.270459
0.00136825
-0.25416
-0.256606
-0.00589539
-0.0384419
-0.000164175
-0.14202
-0.00463188
-0.24337
-0.104696
-0.279063
-0.273216
-0.259687
0.000335472
-0.000639605
-0.230795
-0.00293024
-0.0163394
0.000167407
-0.257445
-0.0605526
-0.000176562
-0.123258
-0.000703929
-0.0642177
-0.267087
-0.266588
0.000634488
-0.250728
-0.00847288
-0.264447
-0.235307
0.000927269
-0.265842
-0.272391
-0.259848
-0.18159
-0.262328
-0.0572946
-0.0387592
-0.000114782
-0.00394146
-0.11222
-0.277262
0.000436053
-0.225529
0.000524824
-0.267063
-0.00351187
0.0012249
-0.00430105
-0.0198978
-0.00314739
-0.0952687
-0.247809
-0.265992
-0.00937862
-0.244666
-0.00168508
-0.221407
-0.00275981
-0.257117
-0.0125204
-0.113431
0.000924157
-0.263387
-0.261578
-0.0119555
-0.252875
-0.252952
0.00025474
-0.0058167
-0.00800631
-0.000277485
-0.254216
-0.00187851
-0.00345964
-0.000698137
-0.254992
0.000681882
-0.264246
-0.000350245
-0.255658
-0.0203962
-0.0200631
0.00131484
0.00118968
-0.136217
-0.138807
-0.246134
-0.013794
-0.0269187
-0.00478009
-0.00239381
-0.260349
-0.269774
-0.00358765
-0.271268
-0.00120006
0.000304712
0.000687792
-0.0177403
-0.00010057
-0.276331
-0.271481
-0.286925
-0.0189882
-0.00689645
-0.00090077
-0.266115
-0.0501675
-0.260762
-0.25412
-0.258505
0.000602932
-0.167636
-0.00457031
-0.00712215
-0.259007
-0.0297107
-0.00295192
-0.242744
-0.253772
-0.0456465
-0.00335727
-0.269237
-0.261479
-0.00196406
-0.250389
-0.277038
-0.0133996
-0.00285985
-0.250693
-0.271887
0.00177631
0.000439862
-0.0102658
0.00127162
-0.240144
0.00102725
-0.000231463
-0.12702
-0.266348
5.81129e-05
-0.250172
0.00197802
-0.258526
-0.238524
-0.0770435
-0.258652
-0.118614
-0.251972
-0.0341007
0.000664271
0.00309725
-0.254519
-0.243905
-0.00204934
0.00119534
-0.248763
-0.00390288
-0.240164
-0.2548
-0.266025
-0.254736
-0.000475671
-8.10194e-06
-0.23492
0.00040409
-0.265111
-0.0142027
-0.0115041
0.00203027
-0.254822
-0.266049
-0.233225
-0.252663
0.000921056
-0.257245
-0.244835
0.00139658
-0.0149168
0.000119535
-0.253995
0.00257817
-0.282629
-0.190398
-0.260321
0.00106186
-0.24976
-0.0143002
0.00105202
-0.267002
-0.261582
-0.000251897
-0.255506
-0.253594
-0.255394
-0.243158
-0.268334
-0.254991
-0.255415
0.000847447
-0.267334
0.000174858
0.000880903
-0.264194
-0.266486
-0.247338
-0.267023
-0.251364
0.000338814
-0.249834
-0.270794
-0.245852
-0.00552206
-0.275689
-0.244093
-0.216991
-0.00471956
0.00415475
-0.25543
-0.268515
-0.26696
-0.0354016
-0.256032
-0.00283265
-0.274516
-0.256761
-0.265829
-0.000415021
-0.252612
0.000938671
-0.254935
-0.191565
-0.266776
-0.00401377
-0.24942
-0.0162276
-0.250193
0.000495887
-0.263198
-0.250979
-0.252056
-0.00518306
-0.00303678
-0.255301
-0.256207
-0.26588
-0.018554
0.00012747
0.000277745
-0.287578
0.000846257
-0.255081
-0.255594
-0.248746
-0.248629
-0.266857
-0.273097
-0.25223
-0.239372
0.00289841
-0.00317822
-0.00219556
-0.253012
-0.256729
-0.262412
0.00356279
-0.0893355
-0.0127358
-0.268842
0.000402854
-0.263617
-0.00113551
-0.265817
0.000559274
-0.00317622
-0.253888
-0.276091
0.000483455
5.05438e-05
-0.252953
-0.253997
-0.251606
-0.00296809
-0.259959
-0.250077
0.000901097
-0.175478
-0.000813456
-0.000461009
0.00104671
0.00126587
-0.254763
-0.00654097
-0.255228
-0.231924
-0.00230769
-0.271309
-0.27482
-0.243546
-0.262175
-0.0108126
0.000286254
-0.00874475
0.000569115
-0.254334
-0.237177
-0.253648
-0.257535
-0.220145
-0.248448
0.000350813
-0.273047
-0.271758
-0.266292
-0.253475
0.00158697
-0.236894
-0.266309
-0.115245
-0.255062
-0.230148
-0.0124182
0.00142133
-0.11694
-0.267625
-0.00221293
0.000761768
-0.255742
-0.265599
-0.151896
-0.277279
-0.246026
-0.263446
-0.263137
-2.72161e-05
-0.00484207
-0.265733
-0.00469113
-0.00258107
-0.000632328
0.00110339
-0.00450686
-0.268161
-0.263275
-0.25162
-0.272177
-0.273979
-0.265893
-0.242235
-0.267504
-0.000616664
-0.217004
0.00197424
-0.257662
-0.257464
-0.000251262
-0.280524
0.00120978
-0.00064844
-0.264186
-0.217775
-0.0554388
-0.254047
-0.00220327
-0.189233
-0.254697
-0.274646
-0.205253
0.00186472
0.000386573
0.000892907
-0.241249
-0.00122788
-0.258578
0.000533491
0.000115995
-0.240732
-0.266188
-0.26985
-0.117167
-0.00227863
-0.249729
-0.00094521
-0.00889733
-0.190459
-0.220175
-0.247083
-0.0189884
-0.00650977
-0.245761
0.000444132
0.000906943
-0.249846
-0.265154
-0.000348956
-0.266051
-0.255378
-0.207889
-0.262432
-0.171031
-0.00197099
-0.256965
0.000511939
0.000962256
-0.232285
-0.26465
-0.264825
-0.181348
-0.260018
-0.258234
-0.012746
-0.00488193
-0.000626323
-0.265008
-0.247323
-0.265965
-0.258093
-0.244328
0.0019066
-0.000639413
-0.229064
-0.258555
-0.257616
0.00244047
-0.250285
-0.000448949
-0.00468831
-0.268455
-0.00252852
-0.249237
-0.255256
-0.268534
-0.172512
-0.263408
-0.264737
-0.273869
-0.0890345
-0.188592
-0.00463176
-0.00496921
-0.00109459
-0.267127
-0.142146
-0.256881
-0.261659
0.00295241
-0.175475
-0.17627
-0.0153295
-0.17371
-0.0206828
0.000298947
-0.000976924
-0.00155899
-0.00332503
0.000912706
-0.263848
-0.00360372
-0.258664
-0.202492
-0.00249946
-0.264669
0.00050397
0.00184423
-0.254265
-0.255579
-0.201193
-0.00212344
-0.00117392
-0.275725
-0.272984
-0.00204619
-0.268712
-0.00396883
-0.00183804
-0.244911
-0.00524454
0.0014455
-0.0500931
-0.118529
-0.266167
-0.252342
-0.254443
-0.141341
-0.00202571
0.00064883
-0.0158027
-0.251254
-0.267667
-0.00209261
-0.00126609
-0.00103338
-0.252701
-0.00267429
-0.199631
-0.253257
-0.147177
-0.011807
-0.258964
-0.0047402
-0.00162548
0.00290549
-0.004551
0.000519676
-0.25411
-0.00132911
-0.115358
-0.249512
-0.260155
-0.0456145
-0.2524
-0.128622
-0.243591
-0.0116748
-0.188545
-0.117831
-0.197382
-0.116988
-0.267393
-0.116299
-0.0634069
-0.0970407
-0.0010834
-0.00140189
-0.119425
-0.262999
-0.152477
-0.00757604
-0.143154
-0.00620141
-0.00853478
-0.00405407
-0.00566391
-0.0536677
-0.00306143
-0.00254181
-0.208563
-0.000457198
0.00091142
-0.257298
-0.107525
-0.058151
-0.00268684
-0.0122324
-0.178591
-0.00744611
0.000676519
-0.00466335
-0.110194
-0.0373746
-0.139271
-0.00373842
-0.0415101
-0.257769
-0.000367058
0.00110409
-0.069181
-0.259042
-0.267779
-0.271123
-0.265576
-0.0429649
-0.265762
-0.0179742
-0.00867264
-0.00588853
-0.00549895
-0.140192
-0.00548492
-0.00344882
-0.00545996
-0.109668
-0.23727
-0.0295073
-0.0439008
-0.00774321
-0.0149938
-0.01158
-0.00847298
-0.0437263
-0.00641426
-0.0591266
-0.0164474
-0.00523784
-0.0215944
-0.00437489
-0.000898732
-0.0048304
-0.00465286
-0.0427069
-0.00397175
-0.00370092
-0.0373432
-0.0377833
-0.00317222
-0.00373913
-0.00952834
-0.0130254
-0.0172909
-0.0237205
-0.0378852
-0.00683242
-0.0525641
-0.00634672
-0.0213948
-0.00486352
-0.0134926
-0.00470318
-0.00445283
-0.00502598
-0.00501428
-0.00368599
-0.00422416
-0.00569539
-0.00421913
-0.234838
0.00170607
-0.00355891
-0.00426041
-0.00386318
0.000722637
-0.0113161
-0.00307832
-0.013033
-0.0183751
-0.00581691
-0.0025591
-0.00449077
-0.000531421
-0.0280375
-0.014856
-0.0770106
0.00024606
-0.011354
-0.0032869
-0.00438276
-0.000295505
-0.00363568
-0.0321817
-0.00310888
-0.10175
-0.0029008
-0.000633262
-0.00295404
-0.000401478
-0.00271109
-0.00488268
-0.264723
-0.000563448
-0.00508876
-0.0643099
-0.00282471
-0.00182462
-0.000799241
-0.236623
-0.00701016
-0.00032436
-0.0403914
-0.00301621
-0.264444
-0.0235548
-0.0177362
-0.0291414
-0.0204986
-0.0505572
-0.00777616
-0.00696317
-0.00964317
-0.0172326
-0.00520294
-0.0117586
-0.00401213
-0.154791
-0.00535087
-0.00254537
-0.03874
-0.0251751
-0.0307528
-0.254246
-0.0125654
-0.00487841
-0.0983741
-0.0164901
-0.00342279
-0.00407901
-0.00521321
-0.248574
0.00300651
-0.0113096
-0.00169781
-0.00410651
-0.00331751
-0.0012296
-0.00235533
-0.00361886
-0.0044037
-0.00473324
-0.00299847
-0.0025306
-0.00286936
-0.178013
-0.00405221
-0.00109469
-0.00309231
-0.00218467
-0.00351622
-0.057859
-0.0073184
-0.0176093
-0.00619734
-0.000869748
-0.000578186
-0.00364167
0.000196716
-0.121572
-0.0293007
-0.0269984
-0.00428979
-0.0026175
-0.00831827
-0.269126
-0.0126439
-0.00970755
-0.0182949
-0.00420033
-0.00533132
-0.0278581
-0.00612393
-0.00630159
-0.00302866
-0.00827356
-0.00446613
-0.00417042
-0.00435977
-0.00428686
-0.00271898
-0.00591532
-0.00914577
-0.0050882
-0.00592704
-0.0412215
-0.00298357
-0.00600459
-0.258339
-0.0429016
-0.000933362
0.00044172
-0.0029371
-0.0257535
-0.0161087
-0.0187265
-0.0118002
-0.004685
-0.0138652
-0.00954255
-0.0113996
-0.0318203
-0.0051871
4.7175e-05
-0.00445509
-0.00445398
-0.0108321
0.000471296
-0.248716
0.00105697
-0.028284
-0.00125156
-0.0614873
-0.00204317
-0.00511339
-0.0240499
-0.0121566
-0.0844053
-0.0572021
-0.0140982
-0.10177
-0.00588405
-0.00777165
-0.00326015
-0.00355452
-0.00361728
-0.00296451
-0.00520843
-0.00334917
-0.003739
-0.0266769
-0.00164266
-0.0265483
-0.0322008
-0.0204694
-0.015178
-0.0930162
-0.0132014
-0.00388217
-0.026392
-0.00283092
-0.0632691
-0.0081681
-0.0034806
-0.110924
-0.00837883
-0.00428946
-0.012157
-0.00103496
-0.00443061
-0.231736
-0.00609385
-0.0032556
-0.00690252
-0.0019391
-0.00405428
-0.00250236
-0.0123009
-0.273031
0.00104
-0.00526315
-0.00849849
-0.0108395
-0.104635
-0.0164561
-0.00200708
-0.0171379
-0.00480753
-0.00173271
-0.260606
-0.277115
-0.00358026
-0.0043299
0.00183769
-0.220797
-0.00347912
-0.253533
-0.0021886
-0.0033803
-0.00775936
-0.00641981
-0.00333098
-0.00324663
-0.00292382
-0.0948729
-0.00254022
-0.134514
-0.0143083
-0.0405066
-0.00383804
-0.013918
-0.00632592
-0.0106415
-0.00652274
-0.00547889
-0.0225349
-0.00474449
-0.0149589
-0.0195864
-0.0268156
-0.00200137
-0.0139883
-0.0169151
-0.0047253
-0.0316332
-0.0202128
-0.0114737
-0.0390309
-0.00246316
-0.00364474
-0.00409286
-0.00344131
3.90424e-05
-0.00414589
-0.0134869
-0.00428924
-0.00181499
-0.0105489
-0.00969287
-0.0103401
-0.00469138
-0.211499
-0.00134599
-0.00416475
-0.00305292
-0.00323732
-0.00594661
-0.00495892
-0.0155419
-0.0920299
-0.12785
-0.00236283
-0.00542566
-0.0225691
-0.0399522
-0.000796332
-0.0447694
-0.0063366
-0.00810554
-0.0137991
-0.0404034
-0.00594449
-0.015792
-0.0280259
-0.0165692
-0.0322629
-0.0245812
-0.0299883
-0.00197369
-0.00340202
-0.00289607
-0.00272663
-0.0116607
-0.0164706
-0.00389101
-0.285918
-0.00166882
-0.259533
-0.00275325
-0.00117603
-0.273483
-0.00127374
-0.00155659
0.000810298
-0.0035652
-0.00547035
-0.00256649
-0.0017488
-0.00285011
-0.0440532
-0.267489
-0.00218492
-0.00626624
-0.00957393
-0.173891
-0.200002
-0.121304
-0.0193004
-0.0022904
-0.0057563
-0.00188563
-0.0010969
-0.000546381
0.00232319
-0.128422
-0.0887095
-0.0385822
-0.0816614
-0.0550812
-0.0995319
-0.119747
-0.0384143
-0.00251894
-0.0690344
-0.0235111
-0.0304032
-0.0284894
-0.0134268
-0.0188922
-0.00438261
-0.0153429
-0.00262957
-0.0113585
-0.00625858
-0.00452649
-0.00414979
-0.00500145
-0.00391722
-0.00370127
-0.00339787
-0.00758645
-0.161892
-0.0584907
-0.0019353
-0.0866188
-0.0018792
-0.00440938
-0.00133869
0.000488503
-0.0044783
-0.00215151
-0.00429216
-0.00287294
-0.0075733
-0.00464267
-0.112795
-0.00517206
-0.00103453
-0.0785733
-0.00505406
-0.000839545
-0.00847513
-0.0476681
-0.00612823
-0.262662
-0.256123
-0.00327571
-0.0126898
-0.015156
-0.0237891
-0.0048644
-0.00113699
-0.0159973
-0.00942733
-0.012803
-0.00981083
-0.00715038
-0.0044143
-0.279923
-0.00461597
-0.0354448
-0.00226756
-0.0041057
-0.0517891
-0.00507274
-0.00490485
-0.267513
-0.00349738
-0.00165095
-0.00375495
-0.00317966
0.00058021
-0.00284521
-0.0015357
-0.000992925
-0.0676157
-0.00249025
-0.00236934
-0.189341
-0.00145364
-0.000834199
-0.000616784
-0.212241
-0.00387402
-0.00260486
-0.0807931
-0.00306134
-0.00146146
-0.00193603
-0.00425948
-0.00462326
-0.26419
-0.00453899
-0.00166773
-0.0130209
-0.0231228
-0.087563
-0.0175603
-0.0100535
-0.00272623
-0.00380717
-0.00327452
-0.00600064
-0.00107159
-0.0573498
-0.00385907
-0.000330367
-0.00237479
-0.00552687
-0.00417103
-0.247328
-0.262887
-0.00104441
-0.0039045
-0.00141136
-0.164617
-0.00428314
-0.00410431
-0.0194412
-0.00256862
-0.253751
-0.00160282
0.00253716
-0.00123037
-0.00637409
-0.00378765
-0.00725994
-0.0153169
-0.00195913
-0.0283325
-0.00664044
-0.00154204
-0.00818111
-0.00119059
-0.00690907
-0.0149712
-0.00941389
-0.0150478
-0.00448182
-0.00105252
-0.00543007
-0.00739229
-0.00675967
-0.00327289
-0.00851763
-0.00720927
-0.0399858
-0.00319966
-0.00433077
-0.0609703
-0.00296448
-0.00711543
-0.0908848
-0.00257257
-0.00636188
-0.130378
-0.0055624
-0.00433686
-0.107741
-0.0542964
-0.170379
-0.00112481
0.00139333
-0.0618254
0.000251832
0.000210256
-0.10627
-0.0307469
-0.0498843
-0.00417964
-0.0740187
-0.00278168
-0.00678084
-0.0480806
-0.0192332
-0.00241253
-0.0176449
-0.0711224
-0.284563
-0.00203441
-0.00329865
-0.00155111
0.00122886
-0.000241104
-0.00274289
-0.00192839
-0.25066
-0.0047625
-0.00536796
-0.0505905
-0.00497727
-0.0272409
-0.00225444
-0.153917
-0.00442781
-0.0060354
-0.174983
-0.00489624
-0.00273049
-0.00105007
-0.00472673
-0.266331
-0.000628707
-0.0982053
-0.0078222
-0.0272616
-0.262868
-0.255548
-0.0540031
-0.00161811
-0.00240554
-0.181017
-0.00141073
-0.00025288
-0.00296849
-0.12275
0.00051991
-0.00128396
-0.00453406
-0.104608
-0.00591767
-0.00385731
-0.00555483
-0.00302492
-0.271172
-0.00838913
-0.00932616
-0.0920636
0.000411982
-0.265876
-0.00272963
-0.260668
-0.000103772
-0.106815
-0.00572932
-0.00323857
-0.00155179
-0.00533299
-0.00864864
-0.00878332
-0.0137765
-0.0268298
-0.00348636
-0.00372571
-0.000164423
-0.0262327
-0.0242557
0.000332647
-0.00460851
-0.00422082
-0.00588903
-0.00939409
-0.00980182
-0.00234868
-0.0123649
-0.0109885
-0.084832
-0.00613257
-0.166339
-0.00109847
-0.00858278
-0.00106684
-0.000614326
-0.257232
-0.0631222
-0.0345308
0.000349638
-0.0469411
-0.00473292
-0.00358949
-0.0670669
-0.00404797
-0.224615
-0.265988
-0.0926753
-0.00940029
0.00032211
-0.267524
-0.00779721
-0.0124047
-0.00673489
-0.0557195
-0.19397
-0.00271011
-0.00228283
-0.254151
-0.251458
-0.00188473
-0.0805653
-0.096243
-0.00315502
-0.264014
-0.00250598
-0.110139
-0.00439348
-0.0689095
-0.000566372
-0.055711
-0.202706
0.00151091
-0.258456
-0.0989782
0.00102
-0.266175
-0.00200077
-0.0513545
-0.0925121
-0.257993
-0.00114132
-0.0310687
-0.17467
-0.00265737
-0.0846829
-0.00394071
-0.00161957
-0.00212745
-0.00984738
-0.0730421
-0.00178067
-0.0015185
-0.132557
-0.00831986
-0.00226745
-0.00320773
-0.00203259
-0.00421861
-0.00370842
-0.0736336
-0.21442
-0.0765142
-0.000820495
-0.00944553
-0.000647965
-0.0054713
-0.00874162
-0.00425604
-0.262085
-0.00292756
-0.08237
-0.262274
-0.00203539
-0.000655983
-0.0143426
-0.0307461
-0.0897405
-0.175008
-0.0138307
-0.00372366
-0.00891139
-0.000814477
-0.000485124
-0.00227579
-0.000947204
-0.000288997
-0.00280382
-0.0880565
-0.265037
-0.00440006
-0.00378966
-0.00316164
-0.212806
-0.0027735
-0.00977679
-0.00615885
-0.00405628
-0.00274072
-0.008022
-0.026291
-0.0269332
-0.00672859
-0.000740923
-0.00973988
-0.243709
-0.257605
-0.00339051
0.0018737
-0.0257625
-0.0054949
-0.00224012
-0.00180498
-0.00445026
-0.00931139
-0.00800174
-0.265396
-0.00119825
-0.248496
-0.00243715
7.4944e-05
-0.190002
-0.00884489
-0.0831121
-0.00770922
-0.0136773
-0.018476
-0.0108058
-0.00394496
-0.0684259
0.000993506
-0.00398577
-0.00366385
-0.00674771
-0.256051
-0.00921895
-0.00580177
-0.00915973
-0.0547317
-0.256739
-0.014536
-0.000586247
-0.211912
-0.000510968
-0.000479171
-0.0301475
-0.199259
-0.263873
-0.267364
-0.00727809
-0.00161837
-0.0245196
-0.00141139
-0.211742
-0.0620404
0.000139712
-0.0124807
-0.13825
-0.00446187
-0.213036
-0.0129297
-0.039345
-0.00781916
-0.125835
-0.0765759
-0.000496277
-0.00396373
-0.264003
0.00113255
-0.00157897
-0.0902387
0.00144058
-0.0124379
-0.0889379
-0.0434028
-0.259684
-0.000236307
0.000363375
0.00208282
-0.263194
-0.000951309
-0.00622533
-0.00692242
-0.261417
-0.00177246
-0.00472472
-0.00250603
-0.263078
-0.046961
-0.000503824
-0.00968195
0.000562635
0.00107147
0.000628899
-0.235538
-0.0214153
-0.000520912
-0.000343527
-0.151671
-0.0414152
-0.00524837
-0.0178411
-0.000172347
0.00131753
-0.261106
7.07477e-05
-0.0303028
0.000912616
-0.0194687
-0.260038
-0.264067
-0.261076
-0.236229
-0.205125
-0.000558019
-0.0839284
-0.000436246
-0.00117398
-0.00349284
-0.202188
-0.00065637
-0.247998
-0.269321
-0.00224739
-0.00254211
-0.244742
-0.267654
-0.0756195
-0.235804
-0.0962134
-0.204374
-0.000598576
-0.0925373
-0.272498
0.00180551
-0.246442
0.00133412
0.000882027
-0.168598
-0.269204
-0.264355
-0.183392
-0.148969
-0.00483779
-0.274332
-0.00287778
-0.10377
0.000395467
-0.216712
-0.068946
-0.00366067
-0.15916
9.08461e-05
-0.0021525
0.000202889
-0.272671
-0.247312
-0.259431
-0.26152
-0.00226701
-0.144709
0.00130557
0.00331423
0.000404723
-0.0436547
-0.263857
0.00150832
-0.00678478
-0.180992
-0.246972
-0.0135351
-1.87179e-05
-0.256014
-0.00145224
-0.00250227
-0.00422651
-0.00216354
-0.00324814
0.000498576
0.00132485
-0.247351
-0.0022805
-0.00280644
-0.00057647
-0.0366616
-0.256422
-0.0908032
0.000290876
-0.258717
-0.0644722
-0.0497364
-0.000464969
-0.268513
-0.00967538
-0.27389
-0.259946
-0.261288
-0.00195467
-0.00212093
-0.188534
-0.156182
-0.00144004
-0.00225198
-0.144705
-0.166886
-0.211264
-0.016273
-0.270589
-0.000164037
-0.257842
-0.0066374
-0.258935
0.000642566
-0.00127773
-0.00756167
-0.00376205
-0.265186
-0.000909868
-0.255328
-0.259766
-0.0114116
-0.0197147
-0.100272
-0.270379
-0.152825
0.000613804
-0.0679855
-0.0644152
-0.188635
-0.00181001
-0.25493
-0.131393
-0.254509
-0.262105
5.65132e-05
0.00011928
-0.0482598
-0.254411
-0.0106187
-0.167907
0.00244663
-0.000605255
-0.00342773
-0.00369751
-0.266552
-0.00226079
0.00102123
-0.211311
-0.0328501
-0.203318
-0.174005
-0.268
-0.254971
-0.167588
-0.243867
-0.249871
-0.073497
-0.0148586
-0.268601
-0.00245945
-0.252537
0.0012076
-0.26575
-0.268459
-0.00369988
-0.00584293
-0.00499613
-0.00264225
-0.00446043
-0.000278967
-0.0082371
-3.86337e-05
-0.159417
-0.129987
-0.00330494
-0.0699575
-0.0465797
-0.247553
-0.26812
-0.256316
-0.25892
-0.260895
-0.188342
-0.271319
-0.0240962
-0.000259645
-0.268523
-0.00255994
-0.24768
-0.0741359
-0.00964702
-0.264521
-0.055502
-0.000584603
-0.257156
-0.00228438
-0.221085
-0.115034
-0.0277016
-0.245647
-0.00185607
-0.14527
-0.0069463
-0.00398155
-0.205112
-0.283498
-0.00632491
-0.00637111
-0.00685921
-0.0117907
-0.00197869
-0.252665
-0.00846937
-0.00620979
-0.186277
0.000642954
-0.26355
-0.0264406
0.00212687
-0.0405525
-0.259035
-0.266688
-0.262075
-0.263967
-0.234181
0.000229692
-0.241547
0.000760557
0.000679306
-0.253119
0.000965274
-0.258802
-0.200926
-0.213926
-0.260774
-0.0111429
-0.242441
-0.0038659
-0.0015593
-0.00485961
-0.00784743
-0.255662
-0.00362783
-0.00301167
-0.00884386
-0.250979
0.000708846
-0.243864
-0.259488
-0.0065759
-0.269335
-0.26232
-0.201768
0.00111307
-0.260293
-0.00575404
0.000370634
0.00178445
-0.263127
-0.00137773
0.00204606
-0.00020189
-0.0972844
-0.00349668
-0.25534
-0.00382836
-0.00588882
-0.0192679
-0.000359901
-0.211004
-0.00412278
-0.00537226
-0.154675
0.000951069
-0.00520267
-0.00352938
-0.264721
-0.029306
0.000832001
-0.272377
-0.193025
-0.19742
-0.00219136
-0.000335794
-0.252223
-0.1941
-0.242239
-0.174499
-0.247076
-0.24308
0.0032105
-0.252829
-0.225095
-0.00535905
-0.260289
0.000638697
-0.26614
-0.265424
-0.26425
-0.0362184
-0.225995
-0.28494
-0.000616371
0.000549248
0.00108424
-0.250971
-0.254569
-0.24829
-0.274869
-0.220122
-0.0115824
0.0014538
-0.213085
-0.265378
-0.255305
-0.0126987
-0.141001
-0.00255537
-0.257976
-0.270541
-0.261161
-0.263793
-0.263738
-0.256064
-0.00344873
-0.247469
-0.257613
-0.27841
-0.232494
-0.260828
-0.0179055
-0.256498
-0.265233
-0.00548181
-0.247613
-0.23808
-0.00224201
-0.25505
-0.0124288
-0.279616
-0.251071
-0.18975
-0.19974
-0.254611
-0.018706
-0.196826
-0.256079
-0.00264823
-0.219731
-0.00439127
-0.00540831
-0.0724408
0.00271695
-0.00333965
-0.0640864
0.000728408
-0.00303499
0.00072856
-0.00326272
-0.208311
0.00189666
-0.0885304
-0.277432
-0.26218
0.000692252
-0.0208647
-0.00515854
-0.250739
-0.000104099
-0.257553
-0.233423
-0.025224
-0.243253
-0.260146
-0.250507
-0.0628123
-0.00652845
-0.231354
-0.235824
-0.263261
-0.00430242
0.000928323
0.000409578
-0.0176202
-0.211607
-0.00362977
0.000440844
-0.00379148
-0.264107
0.000859732
-0.0250673
-0.0113865
-0.00769143
-0.26449
-0.0114476
-0.00680468
-0.00363558
-0.216133
-0.00493671
-0.252794
-0.00469706
-0.0152581
-0.00418452
-0.034891
-0.264512
-0.266762
-0.257003
-0.276609
-0.021906
-0.0252073
-0.243812
0.000340197
-0.26546
-0.0100773
-0.00444995
-0.00446108
-0.141737
-0.241362
0.000951329
-0.154929
-0.278839
-0.257286
-0.261518
-0.224102
-0.00678408
-0.264023
-0.267417
-0.004545
-0.0516942
-0.236771
-0.153745
3.54232e-05
-0.256287
0.000359441
-0.223833
-0.154649
-0.247124
0.000667491
-0.00841636
-0.244721
-0.00379858
-0.0446523
-0.00132357
-0.217313
0.0011237
-0.256095
-0.00294071
-0.246883
0.00289612
0.00170964
-0.0044137
-0.0131292
-0.232111
-0.250953
-0.00440535
-0.0044434
-0.00527311
-0.000217262
-0.0261046
-0.0050825
-0.243531
-0.270732
-0.245208
0.000803475
-0.000884574
-0.259815
-0.251782
-0.243473
-0.268869
-0.236644
-0.0037139
-0.228167
-0.233829
-0.000372495
-0.241507
-0.0350553
-0.059011
-0.00349428
-0.224321
-0.000506261
-0.257195
0.0004761
-0.263872
-0.254229
-0.00112578
-0.245029
-0.00326423
-0.265434
-0.211602
-0.0086058
-0.00350079
-0.24631
-0.263694
-0.00707955
-0.27901
-0.193068
-0.00142835
-0.267041
-0.0039133
-0.26587
-0.00165913
-0.00328085
-0.00929673
-0.235002
-0.00338129
-0.257567
-0.0324559
0.00119367
-0.000811449
0.000783073
0.00108771
-0.00522178
-0.264745
-0.139204
-0.0172471
-0.123838
-0.0165517
-0.00156483
-0.00243773
0.00291862
-0.233547
-0.125713
0.00125904
-0.0127183
-0.0237425
-0.00474485
-0.261243
-0.0647105
-0.00206211
-0.00535346
-0.257306
-0.00209159
-0.00335086
-0.260305
-0.226005
-0.00107698
0.000800158
-0.262946
-0.242904
-0.268094
0.000552131
-0.00303357
-0.265805
-0.00607653
0.000118091
-0.00130027
-0.201397
-0.184819
-0.256671
-0.00388718
-0.238127
-0.245155
-0.255008
-0.245988
-0.00175166
-0.0756507
0.00281242
-0.26495
0.000526272
-0.00332052
-0.0329254
-0.064695
-0.00851287
-0.022924
-0.000171251
-0.00456235
-0.00689627
-0.25697
-0.00889857
-0.24158
-0.276177
-0.173391
-0.00157333
-0.234103
-0.134156
-0.263649
-0.257657
-0.0126268
-0.0761411
0.00297118
-0.0672367
-0.217504
0.00162681
-0.261502
-0.00459803
-0.00487571
0.00299893
0.000816384
-0.256735
-0.00469769
-0.000185873
-0.254394
-0.255097
-0.00205212
-0.252952
-0.248709
-0.248357
-0.250862
-0.280659
-0.263527
0.00115412
-0.219559
-0.0707413
0.000568563
-0.011183
0.00108184
-0.000138972
-0.00407582
-0.191221
-0.264847
-0.238546
0.000682082
-0.264943
0.00201936
0.0023249
0.000494525
-0.234803
-0.281596
-0.0118844
0.000331812
-0.260611
-0.263212
-0.275951
-0.24076
-0.141245
-0.204168
-0.00177031
0.00189122
-0.00263265
-0.00143104
-0.256655
-0.000455304
-0.104673
-0.197743
-0.280972
-0.240568
-0.000313263
-0.000448236
-0.230118
-0.25566
-0.260374
-0.027571
-0.0672505
-0.266874
-0.259308
-0.240611
-0.265857
-0.236915
-0.266847
0.000394833
-0.00903418
-0.00868767
-0.264949
0.000507959
-0.00526192
-0.00462986
-0.188052
-0.0582715
-0.246682
-0.262155
-0.254129
1.51418e-05
-0.20669
-0.226417
-0.277558
-0.00140175
-0.259915
-0.207446
-0.273419
-0.00272092
-0.209733
-0.245634
-0.278891
0.000587692
-0.0697506
-0.00969185
0.000311308
-0.00400152
-0.270318
-0.0227915
-0.256108
-0.25082
-0.27407
0.000719168
-0.257444
0.000882066
-0.258433
-0.0146727
-0.178412
-8.40455e-05
0.000824755
-0.238259
-0.265569
0.00204434
-0.234821
-0.130665
-0.0209379
-0.00206415
0.00167206
-0.256992
-0.282684
-0.000281102
0.00127832
-0.00332649
-0.141078
-0.000229613
0.000313144
-0.030528
-0.0136213
-0.251517
-0.00608143
-0.271967
0.000573897
-0.274775
-0.258034
-0.120769
-0.23568
-0.26796
0.000802005
-0.00245122
0.000950389
0.000288407
-0.283898
-0.00324904
0.000603313
-0.235093
-0.265877
-0.254957
-0.158464
-0.277971
-0.00536
0.0018142
-0.000365745
-0.263972
-0.263348
-1.6056e-05
-0.256979
-0.00490971
-0.247504
-0.246228
-0.273163
-0.00322026
-0.237134
-0.00112484
0.000674814
-0.273303
-0.266523
-0.00435816
-0.000704474
-0.260522
-0.250568
0.0013287
-0.00171832
-0.241009
-0.262652
0.000519347
0.00108896
-0.266266
-0.00382987
-0.219483
0.000421259
-0.26367
-0.245631
-0.00243261
-0.235724
-0.259412
-0.0711367
-0.239058
-0.240836
-0.177942
-0.233818
-0.03556
-0.00626464
-0.00820517
0.000209746
8.11738e-05
-0.25795
-0.00848063
-0.261988
-0.243304
0.000553286
0.00142733
0.000578878
0.000652615
0.000962827
-0.00186863
-0.00754158
-0.00595118
0.000616911
-0.00793457
-0.000587763
-0.00330841
0.000222205
-0.00326852
-0.0390463
-0.0739979
-0.252558
-0.265812
-0.259811
-0.258414
-0.00680475
-0.270995
0.000624195
-0.274457
-0.00224442
-0.0234314
-0.224849
-0.253538
-0.00600025
0.00116722
-0.00246642
-0.281321
-0.0708545
-0.258357
0.000268789
-0.00465372
0.00204698
-0.185141
-0.25858
-0.0482618
-0.00719009
-0.00191423
-0.00664327
-0.00703724
-0.124951
-0.0501
-0.00725459
0.000524803
0.000865465
-0.005078
-0.174286
-0.255007
-0.269707
-0.0698967
-0.269038
-0.174736
-0.264718
-0.0910251
-0.247561
-0.250355
-0.26985
-0.0023585
-0.259347
-0.203455
-0.260471
-0.272038
-0.240786
-0.00300179
-0.261339
-0.00677732
-0.270487
-0.241495
-0.264237
-0.00647569
-0.0188413
-0.233248
-0.25821
0.00074997
-0.266774
-0.25416
-0.00255435
0.00198148
0.00107499
-0.000557878
-0.00820438
-0.000259795
0.00120966
-0.254133
-0.0048309
-0.223514
-0.236464
-0.26359
0.000707589
-0.247539
-0.241993
-0.279933
-0.0133636
-0.254605
0.00083422
-0.259945
-0.180878
-0.241676
-0.000792226
-0.0020818
-0.00250636
-0.268816
-0.258186
-0.040251
0.000942624
-0.264977
-0.172697
0.00078515
-0.00160803
-0.0134441
-0.256445
-0.00286803
-0.00505944
-0.25955
-0.255377
-0.000806801
-0.255138
-0.192488
-0.256947
-0.021113
-0.278217
-0.257655
-0.00110726
-0.0482316
-0.263197
-0.253386
-0.00704701
-0.275831
-0.237183
-0.259998
-0.259628
-0.260002
-0.229011
0.000308739
-0.262397
-0.00238944
0.000131403
0.000932742
-0.0565703
-0.0051478
-0.274392
-0.241655
-0.264377
-0.152065
-0.000681179
-0.241343
0.000866364
-0.0257634
-0.278025
-0.244155
0.000144064
0.00050654
-0.236122
-0.0016415
-0.252752
-0.000741847
-0.259761
0.000911397
-0.26175
-0.00275538
-0.255889
-0.0226173
-0.0465747
-0.248435
-0.277683
-0.247781
0.000249399
-0.275085
-0.130777
-0.257845
-0.226096
-0.0372495
-0.0924466
-0.0598225
0.000952025
-0.179258
-0.212207
-0.0210175
-0.22818
-0.253839
-0.00274165
-0.2568
-0.00580999
-0.22795
0.000544611
0.000983965
0.000298194
-0.0484841
-0.263073
-0.264068
-0.0192423
-0.0987798
-0.000617942
-0.00527497
-0.00694373
-0.00547346
0.00079561
-0.0047737
-0.00432065
-0.00578789
-0.00134377
-0.240977
-0.240484
-0.003579
-0.00875853
-0.234007
-0.263557
-0.0537051
0.000662994
-0.00151274
-0.266725
-0.040091
0.000444499
0.000250749
-0.268378
-0.0326926
-0.00196061
-0.00580526
-0.0654051
-0.267747
-0.243167
-0.052686
-0.275236
-0.267658
-0.00445025
-0.23137
-0.261941
-0.00038834
-0.252953
-0.0115376
0.000600168
-0.00458356
-0.27009
-0.00440826
-0.242041
-0.205587
-0.00172993
-0.0328799
-0.27547
-0.00463582
-0.257772
-0.00229576
-0.223543
-0.238913
-0.00452539
-0.258596
-0.246978
-0.00475987
-0.00529548
-0.255959
-0.00424283
-0.245648
-0.271391
-0.263388
-0.0136788
-0.00999215
-0.00400375
-0.261309
-8.99866e-05
0.00364364
-0.00607086
-0.0558301
-0.00198648
-0.00499744
-0.0105712
0.000703506
-0.234487
-0.262331
-0.0305177
7.45251e-05
-0.242908
-0.00160246
-0.00508692
-0.0108758
-0.237738
-0.000781565
-0.00333762
-0.259022
-0.000836968
-0.000823177
-0.00557317
-0.217299
-0.00196153
-0.132861
-0.264225
-0.00325947
-0.263149
-0.0288986
-0.0022857
-0.261076
-0.250795
-0.270279
-0.00360366
-0.0961137
-0.00777724
-0.273475
-0.252088
-0.0023625
-0.0777027
-0.00515753
-0.263629
0.000664427
0.000456576
-0.00443761
-0.000504345
-0.00466385
-0.00237076
-0.247115
-0.00976149
-1.68506e-05
-0.000371756
-0.00328478
-0.262775
-0.240807
-0.28654
-0.0149332
-0.00481822
-0.257643
0.00252175
0.000407809
-0.00441585
0.00014966
0.00107339
-0.045395
-0.00452789
-0.00463474
-0.10714
-0.263087
-0.267676
-0.285962
-0.231585
-0.000989292
-0.248661
-0.266394
-0.067904
-0.245213
-0.280363
-0.24673
-0.154317
-0.006517
-0.255915
-0.00476136
-0.252689
-0.000367021
-0.154163
-0.00287148
-0.00475187
-0.252639
-0.220602
-0.241018
0.000227509
-0.0353902
-0.0382838
-0.0451022
-0.00228866
-0.00405371
-0.02244
-0.261358
-0.0145557
-0.259509
-0.0264989
-0.00601199
-0.259489
-0.00170315
-0.00577453
-0.0372319
-0.00389873
-0.19476
-0.280806
0.000591968
-0.00213045
-0.232844
-0.0136419
-0.236501
-0.256474
-0.133723
-0.00971705
0.00110766
-0.239799