/*--------------------------------*- C++ -*----------------------------------*\
  =========                 |
  \\      /  F ield         | OpenFOAM: The Open Source CFD Toolbox
   \\    /   O peration     | Website:  https://openfoam.org
    \\  /    A nd           | Version:  10
     \\/     M anipulation  |
\*---------------------------------------------------------------------------*/
FoamFile
{
    format      ascii;
    class       surfaceScalarField;
    location    "550";
    object      phi;
}
// * * * * * * * * * * * * * * * * * * * * * * * * * * * * * * * * * * * * * //

dimensions      [0 3 -1 0 0 0 0];

internalField   nonuniform List<scalar> 
38623
(
0.21783
-0.215955
0.0804561
-0.0823307
-0.0614369
0.077657
0.127772
-0.143991
-0.00669587
0.0132553
0.0375318
-0.0440915
0.00400354
-0.00221822
-0.0222755
0.0204901
0.0165806
0.032976
-0.0362826
-0.0132723
-0.12044
-0.244397
0.228693
0.136143
0.0863449
-0.071844
0.0817198
-0.0962205
-0.00864892
0.00864661
-0.00655521
0.00655745
0.0180401
0.0203874
-0.232385
-0.0351023
0.0781414
-0.316005
0.272966
0.114038
0.128939
-0.117623
-0.125355
-0.212224
0.187658
-0.00531725
0.0298835
0.446519
-0.0429771
-0.453219
0.0496772
-0.218718
0.198737
-0.00911404
0.0290946
0.0379914
0.0480766
-0.0535015
-0.0325665
0.0419866
-0.287273
-0.045494
0.29078
-0.0131359
0.376571
-0.00162358
-0.361812
-0.00820157
0.265702
-0.00959064
-0.24791
0.00504183
-0.0252798
0.397545
-0.377307
0.390514
-0.271999
0.230943
-0.349459
0.182393
0.136401
-0.0436975
-0.275096
0.113921
0.08445
-0.0843342
0.312785
-0.267927
0.000270634
-0.0451292
-0.210143
0.278865
-0.254102
0.18538
0.0415512
0.248801
-0.0421552
-0.248197
-0.0315299
0.556171
-0.53128
0.00663985
0.0286231
-0.178148
-0.0545219
0.204046
0.215624
-0.173533
-0.472739
0.430649
-0.00930312
-0.000809728
0.00147348
0.00863938
-0.262381
0.283464
0.369432
-0.0150858
-0.020291
0.0198388
0.0155382
0.0058751
-0.00157542
0.000798017
-0.00509769
0.0315392
-0.0344498
-0.035689
0.0385998
0.29107
-0.0236137
-0.275658
-0.0101822
-0.0102943
-0.228909
0.249386
-0.330784
-0.169188
0.142917
0.357055
-0.000600184
0.00013796
-0.00743404
0.00789623
0.00501703
-0.227424
-0.141765
0.160089
0.00337347
-0.0216967
-0.056166
0.0710782
0.304373
-0.319285
0.063058
0.400234
-0.416391
-0.0469016
0.26585
0.18072
-0.249787
-0.196784
0.318578
-0.179187
0.321367
-0.460758
-0.4101
0.201799
0.332826
-0.124525
0.581508
0.230696
-0.496396
-0.315808
-0.0274671
0.0700204
-0.415878
0.373324
-0.00750926
0.0226914
-0.00499779
-0.0101826
-0.254673
0.187833
0.151634
-0.0847952
-0.00101611
0.00202674
0.00100755
-0.00201819
0.0076217
-0.000526338
-0.00778624
0.0006909
-0.00510719
-0.00131327
0.00140952
0.00501093
-0.0122907
0.0322525
-0.0271164
0.00715455
-0.00194434
0.000734327
-0.00170692
0.00291698
-0.364474
-0.105769
0.281719
0.188524
-0.00102751
0.000447482
0.00645513
-0.0187349
-0.384951
0.39055
0.0420907
-0.0252565
-0.0588274
0.0419946
-0.00461048
-0.00816798
0.00866049
0.00411797
-0.140881
0.185843
0.137432
0.00539532
-0.00892202
0.00589169
-0.00236472
-0.00915202
0.0037977
-0.00335451
0.00870879
-0.336487
-0.109634
0.0360211
-0.33023
0.319088
0.0808179
-0.069677
-0.00581212
-0.00732969
0.00862169
0.00452017
-0.234962
-0.309189
0.334009
-0.483816
0.339548
-0.223586
0.367853
-0.168004
0.143527
-0.0259409
0.0504179
-0.525696
0.411049
0.167877
-0.0532304
0.115476
0.521544
-0.0555118
-0.377567
-0.0618397
0.0613451
0.378061
0.00898541
-0.00300426
-0.00911203
0.00313081
0.0173552
-0.00823694
-0.0158144
-0.051705
-0.0147816
-0.499182
0.565668
0.0620866
-0.0623515
0.0382562
0.38627
-0.365635
-0.255597
0.0415852
-0.0628371
0.0610423
-0.0397905
0.0212276
-0.174901
0.169106
-0.0154324
0.109381
0.18243
-0.187117
-0.104694
-0.0119121
0.00557784
-0.00547503
0.0118092
0.0378887
-0.0303874
0.334586
-0.342088
-0.110128
0.222557
-0.205485
0.0930574
0.0442286
-0.057591
-0.0913649
0.104727
0.075771
-0.0951165
-0.010674
0.0084857
-0.00028462
0.00247286
-0.0200944
0.0458432
-0.0270021
0.00125332
-0.22778
0.238116
-0.0206307
-0.0592905
0.0958785
-0.102077
0.0654891
-0.00145958
0.000429255
0.000318874
0.000711494
-0.277004
-0.0966205
0.129163
0.244461
0.352697
-0.355301
0.0404923
-0.00701768
-0.000366501
0.00670663
0.000677518
-0.414733
0.0687266
0.393962
-0.0479555
0.00390461
-0.00742392
-0.00229279
-0.322785
-0.182032
0.195309
0.309508
-0.00709676
-0.00326331
0.00533317
0.00502692
-0.00755209
0.000135559
-8.12471e-05
0.00749773
0.478471
-0.108153
-0.379694
0.00937596
0.0732358
-0.100273
-0.227636
-0.267993
-0.0269474
0.0632556
0.231685
0.00766793
0.00512532
0.00378877
0.33692
0.0613566
-0.0919545
-0.306322
-0.0393473
-0.102649
-0.026008
-0.0598533
0.0229102
-0.131722
0.168667
-0.00679092
7.01958e-06
0.00677122
1.26213e-05
0.00138694
0.00739567
-0.00825262
-0.000529904
0.000214047
0.00181165
-0.0126997
0.260009
-0.10205
-0.278399
0.21444
0.402527
-0.143973
0.148496
-0.0438704
0.348345
-0.310286
-0.12661
0.0885505
-0.114501
0.158031
0.0922525
-0.135783
-0.264504
0.0767238
0.192797
0.0592317
-0.0430025
-0.0363236
-0.00471796
0.282461
-0.0012534
-0.276489
-0.136733
-0.321004
0.126953
-0.301933
-0.0536496
0.058809
0.296773
-0.177845
0.358557
-0.53122
0.350508
0.0522394
-0.277655
-0.054064
0.279481
-0.000183588
0.000369635
-0.00948916
0.00559003
-0.00740353
-0.00444508
0.00625854
-0.115506
0.0224732
0.202414
-0.000203108
0.00591616
0.000247114
-0.00596018
-0.0394245
-0.372609
0.037854
0.374179
-0.00433041
0.00242684
0.00819682
-0.00629348
-0.092387
0.0858852
-0.0961469
-0.0720682
-0.649872
0.534113
0.187828
-0.00893765
0.00261748
-0.00283188
0.00801499
-9.66558e-05
-0.000296623
-4.41418e-05
-0.0116657
-0.00606638
0.017776
0.0122959
-0.0132497
-0.00909166
0.0100465
0.00831699
0.0109405
-0.00702282
-0.0122349
0.0281834
0.166875
-0.152217
-0.0428416
0.142177
-0.00219189
-0.0182315
-0.121754
-0.202098
0.192107
0.0534709
-0.0434805
0.408479
0.084493
-0.190006
-0.302966
-0.0993983
0.219334
-0.179789
9.06309e-05
0.00642404
-0.00650414
-1.05501e-05
0.0408529
0.168033
0.0525838
-0.119322
-0.169194
0.235932
-0.104466
0.145131
0.00877692
-0.00882415
-0.00013636
0.163287
-0.178323
-0.252095
0.267131
-0.135346
-0.232215
0.210533
0.157028
0.0818697
0.298964
-0.113346
-0.267487
0.352128
0.0121413
-0.0360872
-0.328182
0.466711
-0.192804
0.0744381
0.281847
-0.0533186
-0.277315
0.0487859
-0.0716513
0.0401492
-0.0196036
0.0511057
-0.00284997
0.00195127
0.00702381
-0.00612515
0.021888
-0.362482
0.379024
-0.0384306
0.0491547
-0.00282717
-0.0413516
-0.00497587
0.258965
-0.113466
-0.447396
0.301897
0.0758571
-0.094492
-0.0599297
0.0785644
-0.04676
0.415363
0.139724
-0.508327
0.036778
-0.0361276
0.0246204
-0.025271
-0.0616877
0.0470907
0.288472
-0.273876
0.0156613
0.0892071
-0.0819572
-0.265399
0.151723
0.226811
-0.113135
-0.0109896
0.0128172
-0.00742415
0.00559665
0.00233898
0.0104672
-0.00859299
-0.0042132
0.0526668
0.370989
-0.37288
-0.0507752
0.084424
0.0293567
-0.0460067
-0.0677741
0.00265328
-0.00965055
-0.00145136
0.0084486
-0.154149
0.15601
0.447017
-0.00101982
-0.398128
-0.0478692
-0.00126753
0.359112
-0.335957
-0.180776
0.17987
-0.0636026
0.0645085
-0.00644699
-0.00170618
0.00727937
0.000873794
-0.220647
0.389751
0.198733
-0.367838
0.276106
0.12666
-0.23948
-0.169825
0.0313222
0.175743
-0.03724
0.0190026
0.00436265
-0.0193619
-0.222603
-0.300367
0.213781
0.00307378
-0.00630914
-0.00109515
0.273873
-0.525145
0.32669
-0.0754179
-0.0138065
0.000310605
0.0107075
0.00278838
0.327552
0.0495852
-0.328127
-0.04901
0.0505476
0.242805
-0.0526177
-0.240736
-0.25337
-0.0296855
0.264775
0.0182806
-0.194979
0.164566
-0.123713
0.154126
0.0059573
0.0150206
-0.0123004
-0.00867592
0.0153847
0.00102829
-0.0104536
0.0775041
0.035446
-0.071365
-0.0979063
-0.136715
0.0789683
0.155653
-0.0401403
0.0874438
-0.387787
0.340483
0.408202
-0.396477
-0.0304596
-0.189803
0.0813163
-0.0046768
0.00516804
0.00799443
-0.00747415
-0.000828825
0.00567015
0.0026328
0.279572
-0.192045
-0.00278593
0.00463034
0.00677191
-0.00861633
-0.37385
0.0700267
0.0384792
0.265344
-0.287581
0.3447
-0.113285
-0.281412
0.137987
-0.174695
0.31812
-0.049423
-0.316552
0.0570097
0.308965
0.144435
-0.193107
-0.281472
0.330145
0.000417337
-8.45057e-06
-0.00749977
0.00709089
-0.000573173
0.00710379
-0.00931655
0.0021269
-0.00626335
-0.000553113
0.00468951
0.163995
-0.131494
-0.147003
0.316087
-0.0258979
-0.291456
-0.251554
-0.310028
0.267626
0.293957
-0.00382271
0.00703988
-0.00606714
0.0117291
-0.130217
-0.0325099
0.150996
0.00955868
-0.00704127
-0.0111664
0.00287596
-0.00980566
0.00958298
-0.0328717
0.0166963
0.0253233
-0.00914754
-0.0615722
-0.188763
0.0766804
0.173655
0.19694
-0.00474293
-0.0601816
-0.132015
-0.0960247
0.233444
0.0665477
-0.203967
0.303259
-0.038753
-0.294893
-0.00827857
-0.000716986
0.00839536
0.345376
-0.33493
-0.0505861
-0.427885
0.238194
-0.0309554
-0.00327988
-0.00116092
0.00249645
-0.00461436
0.0011658
0.00949405
-0.00604547
0.122085
-0.013258
-0.0970988
0.0398195
-0.294437
-0.000194078
0.00739867
-0.00122841
-0.00597623
-0.0141307
-0.0102005
0.00930081
0.0150303
0.0765146
-0.0494957
-0.495083
0.468064
-0.0401933
0.0394428
-0.00696476
0.000368351
6.56786e-05
0.00653072
0.308245
-0.0725908
-0.297342
-0.0992193
0.305435
0.0200015
0.0313316
-0.0144749
-0.0368581
-0.000166391
0.00715148
-0.00751142
-0.296229
0.0668139
-0.233524
0.0618567
-0.0054822
0.17715
0.393536
0.0456554
-0.392561
-0.0466311
-0.193664
0.230589
-0.270871
0.233946
-0.00249279
1.71072e-05
-0.00123898
-0.060091
-0.203174
-0.563376
0.584156
-0.0523093
0.0586016
-0.0422717
0.0166478
0.0109607
0.000335751
-0.00684563
-0.00445083
-0.238035
-0.350204
0.0282301
-0.00845469
0.00235408
-0.0221295
0.0635778
-0.452044
0.502666
-0.114199
-0.0110554
-0.00680604
0.0106421
0.00721914
-0.00144881
0.00251236
0.000963227
-0.301207
0.0435024
-0.0509825
0.308688
0.00145248
-0.0123585
0.01112
0.0118073
0.00216192
0.0446341
-0.00111406
-0.00636045
-0.11744
-0.314436
0.101645
-0.0822807
0.243166
0.0991241
0.0342354
-0.476636
-0.0539952
-0.0115137
0.00265102
-0.000787845
0.0828904
0.0225646
-0.0210312
0.117743
0.443711
-0.414036
-0.147418
0.073218
-0.218068
0.299686
-0.154836
-0.00514257
-0.0013565
0.00177331
0.00472575
-0.47315
0.472969
-0.0432228
0.0434038
0.10315
-0.0144513
-0.0593416
0.00484617
-0.00791166
0.00195143
0.00696908
-0.00520174
0.0045539
-0.000647953
-0.00701047
0.00310452
-0.0874081
-0.328863
0.0888172
0.327454
-0.290763
-0.202711
0.000721077
0.000715843
-0.0514607
0.0800591
-0.298838
0.270239
0.000777387
-0.00864139
-0.00107369
-0.11338
0.173505
0.0312578
0.260899
-0.245066
0.0571973
-0.347014
0.360895
-0.0102732
-0.00920253
0.00566917
0.0108274
0.00515037
-0.00937678
-0.00660103
-0.0319505
0.00695761
0.00771346
0.0172795
0.008983
0.0170288
0.172159
-0.244511
-0.114764
0.00498546
0.0187049
-0.00468805
0.000336526
0.000778303
0.00281832
-0.00393316
0.0910791
-0.21337
0.278577
-0.156286
0.113731
-0.158195
-0.236063
0.0395621
0.00052792
0.00740304
-0.00752568
-0.000405287
0.0537605
-0.0793538
-0.270635
0.00645871
0.000926318
-0.000740951
-0.00664415
0.27034
-0.312674
0.0870647
-0.0447306
0.00742191
-0.0149821
0.00937175
0.0815936
-0.0492159
-0.265902
1.29427e-06
-0.000372664
-0.00473583
-0.0681832
-0.322044
0.0818384
0.308388
0.228595
0.0370572
-0.228101
-0.0375514
0.00691277
0.00561606
-0.00311371
-0.00941514
0.00466153
-0.00211709
-0.00498348
0.00243869
0.0850904
-0.34823
0.52762
-0.26448
0.00845112
-0.00894312
0.00336794
-0.052379
0.0494652
0.0396915
0.00331541
-0.0145186
-0.00280734
-0.00202095
0.00337948
0.00446987
-0.00826055
-0.00353898
0.00332437
-0.00469867
0.00592818
-0.0110501
0.00389541
-0.0112748
-0.217388
0.00590907
-0.00533168
0.00409853
-0.00467595
-0.342297
0.294008
0.0115885
-0.00772424
-0.231644
0.00914026
0.000493076
-0.00913569
-0.000497665
0.00606642
-0.0086591
-0.0109004
0.0134932
-0.032055
-0.0346908
0.0192407
0.047505
0.00951794
0.00181243
-0.0273327
0.0202779
-0.0143644
0.0214191
-0.11902
-0.375761
-0.020763
-0.0150244
0.00698908
-0.00166146
0.00329414
-0.00425663
0.364047
0.0501711
-0.0772989
3.14946e-05
-0.00690559
0.00186233
-0.00357683
0.0579236
0.053328
-0.0353935
-0.382568
0.0604367
-0.0577038
0.379835
0.129352
-0.192604
-0.106573
-0.0133312
-0.000619806
0.00992855
0.00402257
0.00847309
-0.000505892
0.00575014
0.00563254
0.106545
-0.047922
-0.0825019
0.0238786
-0.0034124
0.00655239
-0.0346391
0.00557445
0.491376
-0.462311
0.00245659
-0.00851534
0.00642714
-0.00180469
0.000805487
-0.00106388
-0.00526545
0.000256462
0.00607272
-0.35487
-0.273896
0.200881
0.0656877
-0.0351765
-0.219191
0.0209713
0.20468
-0.00646007
0.0127938
0.0128482
-0.0143156
-0.0113264
0.00277682
-0.00855173
0.0180713
0.00367859
0.00732866
-0.00502232
-0.00598507
0.21012
-0.0984416
-0.207703
-0.0871443
-0.022282
0.0608755
0.0485509
0.00775646
-0.209826
-0.17055
0.37262
-0.00786518
0.00137541
-0.275988
-0.015016
0.239544
0.00724361
0.00377247
-0.00733748
0.00306214
-0.0229837
-0.00944101
-0.00264861
0.000974996
0.0111145
-0.165318
-0.258892
0.0670552
0.357154
-0.270129
0.309443
0.151703
-0.191017
-0.0094107
0.00896358
-0.00982613
0.00456322
0.0139998
-0.0142008
0.00679641
-0.104768
0.0829054
0.571956
-0.591676
-0.0523482
0.47515
-0.636204
0.214781
-0.0537272
-0.0012873
-0.00709519
0.00138304
0.00699924
-0.101034
-0.169883
0.19889
0.0720274
-0.000515553
-0.00852902
-0.0348886
0.0228351
0.0112351
-0.00476907
-0.0159071
-0.00448508
0.0052985
0.0126112
-0.013425
0.00718101
-0.00021848
-0.0075357
-0.000298431
-0.00615724
0.000393368
-0.000863702
0.00298271
0.049408
0.235807
0.0594847
-0.183053
0.299442
0.224089
-0.340478
0.357487
-0.581864
0.341751
-0.117375
-0.0656925
0.0532727
-0.0136643
0.0105062
0.01321
0.134084
-0.373835
0.224609
0.0151421
-0.0474697
0.0281097
0.324369
-0.0131855
-0.303427
0.00298591
-0.00141517
-0.00904492
-0.200726
0.0623618
-0.0565198
0.194884
-0.00273338
0.00248059
0.0075815
-0.26123
0.207016
-0.268571
-1.31507e-05
0.0466577
0.455496
0.0540174
0.154021
-0.225397
0.00663907
-0.00469462
-0.00217638
0.00356799
0.00330304
-0.0464538
-0.138562
0.156512
0.028504
-0.379003
0.00138534
-0.00597263
-0.000906492
-0.00553239
-0.00689255
0.0043039
-0.0206038
0.292211
-0.199158
-0.0148052
0.00409425
0.00349802
0.00721263
0.067109
-0.063075
0.0616536
-0.0219524
-0.291287
0.0144016
0.209926
-0.39873
0.263986
-0.0751808
0.464906
0.0645032
-0.0542584
0.060775
-0.0521951
0.133377
-0.196924
0.242535
0.184978
0.00648664
0.00805477
0.259579
0.0533457
-0.0538663
-0.25906
-0.00365756
-0.0116072
0.016144
0.173382
-0.136942
-0.0392729
0.235854
0.00227331
0.00610277
0.0065322
0.00128085
-0.0029632
0.00979243
-0.00660714
0.00021419
-0.00339951
0.013109
0.22377
-0.205622
-0.537169
-0.432142
0.117633
0.0135773
-0.311518
-0.00499198
0.00172356
0.0232153
0.0213069
-0.0308789
-0.0136433
0.00758572
0.00381046
-0.00294508
0.00732981
-0.0055325
0.00276554
0.00750365
0.0298989
-0.0436363
0.00623464
-0.045203
0.0734368
0.0492703
-0.159826
-0.0756956
0.128719
0.106803
0.0047589
-0.00699695
-0.000189477
-0.00972459
-0.00320671
0.00418497
-0.00838182
-0.0493659
0.682797
-0.0519837
0.111419
-0.016242
-0.0597307
-0.00485112
0.00512536
0.00696947
0.0751105
0.0823006
-0.0588923
-0.0985176
-0.0178187
-0.00914208
0.0146697
0.00467535
-0.0298537
-0.00677251
0.144314
0.05916
-0.124506
-0.21077
-0.0347901
0.064331
0.181229
-0.0567258
0.25076
0.0480622
-0.242097
-0.00331301
0.00577514
0.00805663
-0.0105187
0.301625
-0.198585
0.192976
-0.296017
-0.206577
-0.0689939
0.124052
0.151518
0.012146
-0.00912393
0.00896781
-0.00930643
0.00111595
-0.238708
0.175484
-0.00638208
0.0126158
0.00459148
-0.0108252
-0.0178333
-0.00568559
0.0084331
0.00020067
0.00753437
-0.00213157
0.0105289
-0.169828
-0.190998
0.378591
-0.331348
-0.0292349
-0.0180081
-0.0052747
-0.0017153
0.00577128
0.00121877
-0.136155
0.17759
-0.206754
-0.320855
0.340834
-0.174892
0.154912
-0.507655
-0.0570454
0.48261
0.0820896
-0.10874
0.160688
-0.0984019
-0.0314229
0.0234943
0.41613
0.00236884
0.00862259
-0.00370689
0.0022268
-0.000637405
0.0538207
-0.0379814
-0.00244678
0.00219767
-0.00306396
-0.00321512
-0.00526872
0.00885203
-0.0153674
0.0154678
-0.0100857
0.00499563
-0.447764
-0.189149
0.282043
0.0112185
-0.0361002
-0.00458071
0.0294629
-0.30612
-0.0399955
0.00417993
0.00744657
-0.00450315
0.0276623
0.464313
-0.538735
-0.00178347
-0.00143824
-0.00316045
0.182576
-0.0715325
-0.212078
-0.152779
0.309879
-0.00453741
0.00845469
0.00510318
0.00779653
0.00635888
-0.108393
0.00420775
-0.00955438
-0.254925
-0.361103
0.0742968
0.148225
-0.077318
-0.145203
0.0199693
0.00929151
1.75393e-05
-0.000127218
-0.00703829
0.00714797
-0.0131542
0.0123319
-0.00231123
0.00313423
-0.306619
-0.0101964
0.0583019
0.258514
-0.0526277
0.187612
-0.239678
0.255502
-0.292929
0.00167452
-0.602865
0.0630653
-0.0518752
-0.0106821
-0.0386813
-0.20062
-0.170956
0.0569212
0.314655
-0.0635011
0.188063
-0.186134
0.0201548
-0.0211277
0.0222798
0.00837856
-0.00622301
0.00487932
0.00597399
0.0100624
0.0467775
-0.0411779
0.513687
-0.539638
-0.26323
0.289181
-0.00655053
0.134745
-0.410013
0.490892
-0.014731
-0.322117
0.334599
0.00224971
-0.0214733
0.0234979
-0.0186398
0.0166157
0.0482015
-0.000205752
-0.0367777
-0.0159347
0.00575879
-0.0105871
-0.14644
0.0322869
0.158747
-0.0445941
0.216103
-0.060898
0.0454091
-0.200616
-0.0766072
0.0502622
0.0664942
-0.191406
-0.113196
0.00918578
-0.25266
0.0540771
0.189397
0.0438106
0.0224304
-0.0279988
-0.038242
-0.000361159
-0.000531783
0.00786207
-0.0481439
0.350861
0.0197598
0.00441888
-0.0130757
-0.011103
-0.0066757
0.00521472
-0.00482677
-0.0394512
0.00817774
0.00964081
0.00532337
-0.00540556
0.018813
-0.0210586
-0.0142577
0.0165037
-0.107051
-0.518498
0.117894
0.0129203
-0.0134118
0.00716303
-0.00667207
0.394299
-0.154726
0.122378
0.214924
0.0854183
0.0659393
-0.0822511
-0.0691065
-0.000257984
-0.00874347
-0.000507834
0.00950926
0.00111851
-0.00221685
0.00812211
0.0176789
-0.0203387
0.00905761
-0.00907658
0.0079776
-0.00795869
-0.0133262
-0.00227281
0.00324046
0.0798467
0.16667
-0.0908646
-0.427964
-0.0405561
0.028552
0.439968
-0.470422
0.0356585
0.00779724
-0.0208641
-0.0174565
0.0232962
-0.00380204
0.00508824
-0.000214722
-0.000115706
-0.00763255
0.00796291
-0.016644
0.303279
-0.726679
0.175413
-0.0515995
0.0342876
0.0185893
0.0345233
0.00788723
-0.0108711
0.0262082
-0.0227405
0.0193673
-0.151554
-0.300849
0.0447745
0.407628
0.000113305
-0.00519064
0.000462999
0.278494
0.199464
-0.343213
-0.100943
0.075495
0.00448442
0.0038054
-0.615288
-0.0597464
-0.0516455
0.119613
-0.0237366
-0.093861
-0.00201576
0.0371684
0.0885459
-0.00507513
-0.00647957
-0.0226551
0.320716
-0.0881343
0.00678009
0.00256934
0.000442978
0.00390912
-0.0102617
0.0203018
0.0116662
-0.0193521
0.00785456
-0.0679884
0.0211709
0.0389623
0.260502
0.022128
-0.241214
-0.0414168
-0.381089
0.368413
0.0238356
-0.0111604
-0.0383106
-0.421077
-0.0733382
-0.35268
0.171093
-0.00493366
0.0090207
-0.0109566
0.00687103
-0.0135056
-0.00529575
-0.00663192
-0.34935
0.260047
0.0572244
-0.0469303
-0.0392394
-0.046705
-0.344437
-0.0573449
0.333598
0.291134
-0.049803
0.046706
-0.14013
-0.0530163
0.557349
-0.0744387
-0.164331
-0.322791
0.239804
-0.317994
0.274078
0.278038
-0.234123
-0.0309275
0.125116
0.321174
-0.00281962
-0.00437211
9.51532e-05
0.00709657
-0.348386
-0.165021
0.482294
0.0311124
-0.00581824
-0.000889071
0.0116116
-0.00490436
0.0731317
-0.128366
-0.0501811
0.105416
-0.266951
0.176964
0.389429
0.00809174
-0.00351229
-0.256431
-0.0263058
-0.349623
0.10022
0.275709
0.00867647
0.00124323
-0.019637
-0.00387918
0.0143921
0.0165242
-0.0157044
-0.0139732
-0.373381
-0.151526
0.0771441
0.230384
-0.0724948
0.00117414
-0.000271765
0.00562977
0.00584061
-0.00228382
-0.523229
0.00433221
0.00723604
-0.00858236
0.0381552
-0.468218
-0.0430869
-0.578435
0.524129
-0.0527459
0.179986
0.0232409
-0.037064
-0.382655
0.142664
0.0223894
-0.332765
-0.0462269
0.356603
0.010511
0.0145724
-0.00414604
0.00662449
-0.00521195
-0.0185722
0.00385851
0.020012
-0.00736708
-0.000457024
-0.00671113
0.0094463
-0.00419652
-0.529067
0.585039
-0.0517758
0.0125789
-0.352367
0.0639567
-0.0560264
0.0308158
0.0369862
0.00371237
-0.153693
0.282135
0.0956474
0.0355447
0.461626
-0.462326
-0.0348442
0.527096
-0.50363
-0.000808956
-0.00534697
-0.220111
0.2153
-0.227898
0.253293
0.0142521
-0.0396464
-0.00410283
0.0283405
0.024917
-0.029471
0.263633
-0.00372321
-0.230438
0.0666239
0.157536
-0.00842925
-0.000239622
0.0085876
0.0433179
-0.257136
-0.546849
-0.035709
-0.0536461
-0.092026
0.0211692
0.282536
-0.0155789
-0.00125615
-0.0551849
0.162792
-0.165792
0.0581852
-0.0285722
0.0236738
-0.280801
0.196204
0.0023568
-0.00611273
-0.00304767
0.0068062
-0.0503669
0.0581113
0.00780275
0.216861
0.0348087
-0.210119
-0.00456732
-0.00786345
0.00351071
0.046965
0.0765481
0.0682605
0.293618
-0.0734067
0.0251379
0.00568244
-0.0131412
0.0101427
-0.0638043
0.128773
0.0366898
-0.0287865
0.0496224
-0.0575249
0.0196055
-0.0139097
-0.00481764
0.00409523
0.00443469
0.111372
-0.0292946
0.0917075
-0.173784
-0.0212467
0.0427765
0.00991745
-0.0314473
0.0946062
-0.36133
0.383505
-0.294174
0.235073
-0.405282
0.00104674
0.00641757
-0.010627
0.00682302
0.00614292
0.0168963
-0.219373
-0.0641976
0.185262
0.0983086
0.0912535
-0.0961374
-0.0313981
0.17421
-0.0778301
0.0726418
-0.169023
0.374115
-0.385287
0.0577982
-0.0466274
0.251049
-0.136916
0.184656
-0.298788
0.403043
-0.40918
0.0533776
-0.0472403
0.440551
-0.364675
-0.0534862
0.437255
-0.018204
-0.325547
-0.0442175
0.487507
-0.0326881
-0.000507365
0.0283695
-0.159381
-0.362915
0.328876
0.19342
-0.0264834
-0.0448208
-0.1037
0.156181
-0.0248362
-0.312646
-0.500696
0.0232537
-0.0516243
0.181204
-0.0324962
-0.135599
-0.0269059
0.0216846
-0.00802765
0.0732823
0.246117
-0.05982
-0.359097
0.0247671
-0.0389983
0.461274
-0.447043
0.208657
-0.0902248
0.0125896
-0.0299018
-0.188203
0.205515
-0.041976
0.276961
-0.264455
-0.043202
0.473193
-0.0371972
0.226018
0.0280402
0.0212829
-0.0184973
-0.318313
0.306822
-0.125243
-0.236183
0.074977
0.234425
-0.0212744
0.0359372
-0.0359094
-0.00118954
-0.013783
-0.00900542
0.0298507
0.0187012
-0.0282499
0.00222872
-0.00342613
-0.00260463
0.254413
-0.042809
0.00585172
-0.00686851
0.0303457
-0.0401179
0.187391
-0.177619
-0.368232
0.190216
0.251298
0.369235
-0.0181931
0.00171651
-0.35276
0.316746
0.0357403
-0.0492279
-0.0495357
0.346833
-0.0423433
0.0374149
-0.341905
-0.109104
0.746302
-0.0521603
0.393907
0.0564626
-0.0473269
-0.000107703
0.0137837
0.030959
-0.0148678
-0.0313972
0.0251374
0.0153467
-0.00384333
-0.215907
0.204402
0.327996
0.16525
-0.0526944
0.221599
-0.186757
0.0238535
-0.0586957
0.246391
-0.195778
0.168908
-0.205805
0.0898751
-0.0529792
0.17259
0.121492
-0.0724842
0.0788621
-0.00337057
0.0173263
-0.0928183
0.178595
-0.0786691
0.0742838
0.045661
-0.0210267
0.0181415
0.238458
0.106513
-0.0985798
0.352534
-0.0174282
0.00823478
-0.343341
0.155302
-0.140995
0.122832
-0.137141
0.227809
-0.241668
-0.0677879
0.0816458
0.295466
-0.507262
-0.0890535
0.174307
-0.070408
0.0975776
-0.201478
0.351991
0.021049
-0.020506
0.175729
-0.173981
0.0330603
0.0181852
0.402937
-0.39874
-0.0223829
0.282146
-0.319495
0.0160583
0.0212905
-0.0465397
0.200129
-0.141
-0.0387734
0.234889
0.227086
-0.206661
0.144845
-0.16527
0.26308
-0.179512
0.196004
0.0553
-0.0622512
0.175859
0.00823835
0.153043
-0.144518
-0.0167637
-0.0243586
0.131357
-0.117176
0.0101772
0.100973
-0.0527558
-0.0770844
0.0288669
0.0651359
0.0187922
-0.00506597
0.169286
-0.0745262
0.0417277
-0.0345346
0.0384676
0.0797878
0.221885
-0.123079
0.169879
-0.146072
0.206426
-0.0561098
0.0774921
0.235876
0.0991781
-0.096596
0.0912517
-0.0530995
0.0132394
-0.0228126
0.31623
-0.306657
0.326906
-0.0227957
0.0168427
-0.320954
0.239536
0.0301007
0.0125086
0.244719
-0.124382
0.130712
0.297888
-0.207718
-0.0600861
0.061558
-0.395062
0.39359
0.3765
-0.366043
-0.00676454
-0.00369275
0.0263774
0.0204301
0.275983
-0.474257
0.226697
0.240572
-0.204189
0.377076
0.0147996
-0.015305
0.234657
0.146016
-0.135953
-0.312647
-0.117452
0.1517
-0.0920883
0.0842687
0.174489
-0.188995
-0.275585
0.201947
0.262633
0.170625
-0.157497
-0.00489034
0.137529
-0.129602
0.214482
-0.200836
0.0661409
-0.00376138
0.313786
-0.34531
0.0352847
0.405149
-0.0332833
0.00463439
-0.116689
-0.310208
0.098034
0.221898
-0.433679
0.299225
-0.0413406
0.337945
0.041134
-0.337738
0.0397507
-0.0413365
-0.0196892
0.121646
0.311739
-0.151746
0.0575956
0.160774
-0.0614002
0.311835
-0.310792
0.0603568
-0.00616268
0.301938
-0.313138
-0.162648
0.0580981
-0.416287
-0.0575691
0.415758
0.0577078
-0.0805278
-0.0897586
0.112579
-0.0791099
0.191144
0.266557
-0.00825176
0.0175626
-0.00250443
0.299806
-0.402787
-0.240792
0.467262
-0.246889
-0.392085
0.171712
0.264633
0.413939
-0.331174
-0.054493
-0.0282723
0.00119996
0.00131124
-0.00946956
-0.00114816
0.256588
-0.357261
0.0365811
-0.0216707
0.19052
-0.117037
0.340457
0.349741
0.185795
-0.345057
-0.190479
-0.25343
0.258297
-0.366197
-0.0101744
-0.0637145
0.44954
-0.1093
0.0429021
-0.0546318
0.0155666
0.0292181
-0.00405685
-0.178502
0.173282
-0.135775
0.0953551
-0.121254
-0.0827512
0.083233
0.0572259
-0.126881
0.0614843
0.1262
-0.0608031
-0.0566574
0.0870016
0.011384
-0.297461
0.159661
-0.0690448
-0.0357501
0.206632
0.0103214
0.0238332
0.165259
0.151323
0.102345
-0.0317835
-0.0870358
0.0791502
-0.321607
0.329492
-0.196315
0.0544105
-0.0485772
0.0802122
-0.157788
0.172263
0.22506
-0.265551
0.158702
0.168724
-0.0618751
-0.0583053
0.0406899
-0.0925826
0.0666746
-0.0205224
0.0188092
-0.0065991
0.100524
-0.0960396
0.231392
-0.361004
0.36581
0.0969439
-0.10175
0.0410923
0.0534064
0.036805
0.25999
-0.253534
-0.043262
-0.0690143
0.319963
-0.330058
0.249946
-0.0764406
-0.14213
0.0370665
-0.0053479
0.000928915
0.00306248
-0.407539
0.0151894
-0.196243
0.0976608
0.199105
-0.313256
0.295366
0.16205
-0.14416
0.0191196
-0.447854
0.458716
-0.0299821
-0.136036
0.325366
0.208807
-0.331543
-0.110662
0.140478
-0.174542
0.220203
0.276297
-0.136205
-0.319604
0.326543
-0.0224498
-0.25214
0.2774
-0.0596025
0.0402642
-0.307103
-0.252408
0.333747
0.225764
0.0107091
0.00421154
-0.0244395
0.00951975
-0.0751589
0.0249221
-0.23198
0.282216
0.433343
0.261624
-0.420607
-0.27436
-0.216291
0.201378
0.206056
0.24824
-0.151197
0.087614
-0.274303
0.193896
-0.0414398
-0.0205356
0.0053177
-0.298039
-0.0909402
0.169607
-0.214215
0.028202
0.222956
-0.0369431
-0.22769
0.182767
0.235139
-0.460424
-0.028055
0.145731
-0.0394723
0.0018361
-0.00689842
0.410211
-0.422264
0.0143535
0.265832
0.142078
-0.0490684
0.0255517
-0.108205
0.224129
-0.180735
-0.0607328
0.0569648
-0.0888148
0.0119384
0.359422
-0.058206
-0.313154
0.237474
0.17577
-0.254541
-0.139593
-0.0923249
0.223359
0.00855828
-0.00726765
-0.00642383
0.0311201
0.40052
-0.046409
0.326639
-0.0485106
0.490775
-0.485787
-0.0481898
-0.438578
0.445198
-0.0471762
0.335826
0.0596762
-0.050126
-0.422032
-0.0472342
-0.422855
0.416886
0.0527293
-0.0467606
0.47811
-0.525218
0.0973718
-0.0502623
0.366449
0.054186
-0.0465196
-0.502777
0.524554
0.0273452
-0.0491225
0.482523
0.012447
-0.047953
0.501596
0.0495181
-0.502438
-0.0486768
-0.557777
0.665765
-0.05852
-0.0494683
-0.470092
0.0454642
0.475174
-0.0505457
0.432213
0.0561571
-0.442074
-0.0462958
-0.046892
0.0579395
0.383465
-0.0474978
-0.422568
0.429811
0.0396574
-0.0469003
0.0867313
0.293522
-0.0522575
-0.0660035
0.178633
-0.266592
0.258994
-0.166944
0.0133224
-0.00937931
0.00533833
0.0782926
-0.0522439
0.146582
-0.217161
0.204663
0.305996
-0.204693
0.306325
-0.037659
0.322438
-0.269433
-0.011438
0.00143986
0.141354
-0.203786
-0.0382956
0.0284926
0.162846
-0.0276996
0.327018
-0.331264
0.351052
0.0271304
-0.0469186
0.43151
0.0152914
-0.04628
0.35112
0.0228913
-0.0473719
-0.426292
0.359726
-0.0508736
0.182186
-0.0461678
-0.213697
0.326077
-0.38415
0.387862
-0.15606
-0.00803139
-0.0135854
-0.351712
0.373328
0.0486566
-0.0536025
0.161458
0.0589832
0.0245967
-0.204927
-0.252652
0.0895355
-0.106553
0.269669
0.251259
-0.411844
0.0184891
-0.0457838
-0.0141451
0.233609
-0.254334
-0.248202
0.268927
-0.233424
-0.152163
0.111284
-0.333721
0.346197
0.0372081
-0.0496831
-0.3694
0.408439
-0.0470707
-0.309967
0.317189
-0.0546916
-0.335962
-0.0535494
-0.344846
0.349136
0.0432447
-0.0475341
0.308726
-0.31132
0.0571145
-0.0545204
-0.558464
0.451362
0.153708
-0.046605
-0.372259
0.389151
0.0297133
-0.0466054
-0.517153
-0.0625306
0.627731
-0.0480484
0.461762
0.161801
-0.574509
-0.0490529
0.460731
-0.439555
0.0288278
-0.050004
0.488885
-0.476239
0.0378129
-0.0504593
0.0572409
-0.378251
-0.00992794
0.00803529
0.315678
0.201389
0.232967
-0.265632
0.210834
0.156602
-0.143307
0.328601
-0.225749
0.360298
-0.242749
-0.0221945
-0.283505
0.063989
0.11412
-0.116625
-0.349513
0.0524503
-0.0477837
-0.0545606
0.027047
-0.0473109
0.07481
0.436121
-0.0491686
0.0520463
-0.0499412
0.490705
0.048837
-0.0506568
-0.323701
0.0416996
-0.053961
0.040778
-0.0465881
-0.0501478
-0.317193
0.0599474
-0.0540741
-0.440934
-0.0707542
-0.0467762
0.013292
-0.0479221
-0.130882
-0.366075
0.249321
-0.291993
-0.0436868
0.0557429
-0.166708
-0.0286288
-0.263976
0.293742
-0.164591
0.0221716
0.16964
-0.375931
0.276713
-0.237882
0.224758
0.214104
-0.189153
0.00284843
0.0010381
0.000872405
-0.1032
0.0984882
-0.231471
-0.167207
-0.00668733
0.0251381
0.149924
0.294773
0.22003
-0.0415796
-0.343978
0.0529509
-0.278423
-0.0411189
0.0603743
-0.0498336
0.0420928
-0.0526335
-0.000431767
0.00468254
-0.265606
0.223875
-0.439637
0.127881
-0.027205
-0.00285456
0.188884
0.0567511
-0.0488678
0.43284
0.0476485
-0.0488297
0.510682
-0.0298456
-0.0651048
-0.415732
0.0557466
-0.0463885
0.233635
-0.347064
0.0800555
-0.323461
0.00998142
0.0290971
0.0429545
0.255965
-0.269411
0.189215
-0.0493085
-0.2946
-0.102095
0.374186
-0.359127
-0.0889812
0.0949552
-0.000635712
-0.305852
0.0798574
0.0634227
-0.189975
-0.0029349
0.23342
-0.109828
-0.00143053
0.371155
-0.36149
0.180191
-0.100534
0.131177
-0.0104037
0.00283137
0.0433042
-0.0518636
0.0823408
0.0268427
0.111043
-0.0534358
-0.414086
-0.0891846
0.275581
0.0089646
0.150741
-0.163549
0.0437694
-0.0545444
-0.0420506
0.25769
0.297556
-0.199348
-0.275285
0.177077
0.16698
-0.0581399
0.341116
-0.143004
-0.236755
0.0695513
-0.286113
0.271912
0.190671
0.152239
-0.0839166
0.315016
0.216148
0.0728026