/*--------------------------------*- C++ -*----------------------------------*\
  =========                 |
  \\      /  F ield         | OpenFOAM: The Open Source CFD Toolbox
   \\    /   O peration     | Website:  https://openfoam.org
    \\  /    A nd           | Version:  10
     \\/     M anipulation  |
\*---------------------------------------------------------------------------*/
FoamFile
{
    format      ascii;
    class       volVectorField;
    location    "550";
    object      U;
}
// * * * * * * * * * * * * * * * * * * * * * * * * * * * * * * * * * * * * * //

dimensions      [0 1 -1 0 0 0 0];

internalField   nonuniform List<vector> 
23845
(
(0.716604 -0.109138 1.09181e-20)
(0.489187 0.101858 -4.83608e-21)
(0.266242 -0.0209833 2.66363e-20)
(-0.135866 0.0152804 7.28948e-22)
(0.0953713 0.0618919 4.96497e-21)
(0.777188 -0.0051374 -7.89825e-23)
(0.922044 -0.0371553 -1.25207e-20)
(-0.0759998 0.0676435 -2.69194e-22)
(0.889443 -0.00315906 7.7056e-24)
(0.840573 0.0942237 -5.3647e-21)
(0.464473 -0.0462077 -5.95275e-21)
(0.724376 -0.00148348 1.14365e-23)
(0.897538 0.0114151 -1.45408e-22)
(0.847394 -0.00458701 1.34724e-24)
(0.729853 0.0392771 -2.11783e-20)
(0.913565 0.0683149 -9.84381e-22)
(0.787676 0.0171157 1.66289e-22)
(0.601914 -0.0151672 1.2192e-22)
(0.916336 -0.0226911 -5.13142e-22)
(0.751716 0.0051051 -4.03261e-22)
(0.880958 0.0997524 1.78995e-20)
(0.420682 -0.035205 -1.09868e-20)
(1.04075 -0.0578574 -3.03491e-21)
(0.896994 -0.00360832 1.51729e-23)
(0.750949 0.0828249 -9.62299e-22)
(0.959101 -0.00114617 -9.49968e-24)
(0.936338 0.0581434 1.03659e-20)
(0.775938 -0.00688652 1.52221e-22)
(-0.0526637 -0.119294 7.8282e-21)
(0.774154 0.00575263 1.82655e-22)
(-0.14847 -0.00667243 3.19974e-20)
(-0.0321135 0.0896149 4.1511e-22)
(0.445946 -0.0279878 9.77261e-21)
(0.645495 -0.0200135 -4.0838e-22)
(0.721932 -0.000595917 -3.53336e-23)
(0.719688 0.0019057 7.77735e-23)
(-0.0448126 0.12067 -7.1568e-21)
(0.723627 -0.00148233 -1.45428e-23)
(0.747712 -0.00342716 -2.42964e-23)
(0.877505 0.00189398 1.09073e-23)
(0.946377 -0.0283332 2.19226e-22)
(0.720608 -0.0144165 -7.83338e-22)
(0.913347 -0.0112528 -8.50961e-22)
(0.674894 0.0109252 7.76107e-22)
(0.975524 -0.00151599 -3.22436e-22)
(0.856327 0.0122834 -1.78381e-22)
(-0.048864 -0.0286961 -1.81007e-21)
(0.868661 -0.0663492 -4.62274e-21)
(-0.0244696 0.0110855 1.55649e-21)
(-0.0599808 -0.117468 3.43246e-21)
(-0.0508077 -0.044415 7.13599e-22)
(0.178696 -0.0247256 -3.85053e-21)
(-0.0228537 -0.0410727 -3.61874e-21)
(0.82031 -0.00621238 -1.63864e-22)
(-0.0353613 0.0996474 7.57192e-21)
(0.840349 0.0169746 -1.95967e-22)
(0.22839 0.0775865 2.52412e-20)
(-0.0932535 -0.0364503 1.87796e-20)
(0.781205 0.106117 -3.47296e-20)
(0.0217188 0.0332471 -1.65864e-20)
(-0.0408682 0.103806 2.58869e-21)
(0.686929 0.0125543 -1.40954e-22)
(0.901099 0.057212 -1.17471e-21)
(-0.0355335 -0.0966618 3.37832e-21)
(0.916946 -0.0033758 -9.79456e-23)
(0.879085 0.0108607 -1.21308e-21)
(0.976676 0.0407151 1.06917e-20)
(0.992959 -0.00312499 7.86388e-23)
(0.984422 -0.0010211 -1.03072e-22)
(0.906911 -0.0292637 1.26238e-22)
(-0.06011 0.0889151 2.7545e-22)
(0.16858 -0.00249387 1.64205e-20)
(0.951944 0.00340511 7.33337e-23)
(0.807032 0.0371656 1.22007e-20)
(0.939105 -0.00285895 -1.79849e-22)
(0.675153 0.0384089 -7.20613e-23)
(0.728763 -0.00218762 -8.51801e-24)
(0.745708 -0.00377833 -2.4851e-23)
(-0.121324 -0.0217628 3.82107e-21)
(0.77056 0.0266744 2.58975e-22)
(0.961582 0.0744526 -2.59078e-21)
(0.704436 -0.047383 -3.68511e-20)
(0.34247 0.0917081 -4.36922e-21)
(-0.0863297 -0.0526707 -7.9483e-22)
(0.262202 0.00347675 -7.60276e-21)
(0.723025 0.000126368 -8.30493e-23)
(0.626667 0.0655025 1.39856e-20)
(-0.018392 -0.0127892 1.6856e-20)
(0.916599 -0.00267861 5.76766e-23)
(0.832071 0.0257652 -5.06496e-22)
(-0.0492 -0.0831118 -1.26294e-20)
(0.949737 0.0362886 -7.3295e-22)
(-0.0471911 -0.107053 1.1368e-20)
(0.727425 -0.00450196 -1.45608e-22)
(-0.0903958 -0.0245401 2.81215e-21)
(-0.0548753 -0.0935427 -3.54959e-20)
(0.817097 -0.0175455 3.8499e-22)
(0.852376 -0.0690147 -3.52128e-22)
(0.936749 -0.00248347 1.13386e-23)
(0.0098738 0.0399484 -7.64333e-21)
(0.822582 -0.0210594 5.9325e-22)
(0.973852 0.0373209 3.67919e-21)
(0.427278 -0.101428 1.36571e-20)
(-0.069457 -0.0886079 -1.58142e-20)
(-0.052872 -0.0939434 -2.96314e-20)
(-0.0947464 -0.0442344 5.25535e-21)
(0.79476 -0.00556811 5.85683e-23)
(0.952583 -0.00253302 1.55655e-22)
(1.0301 0.032074 -1.65527e-21)
(0.699559 0.0113429 -2.85314e-22)
(0.508887 -0.0418468 -2.00208e-21)
(0.727941 -0.00236246 -2.73631e-23)
(0.379256 0.018328 1.55478e-20)
(0.831044 -0.0858174 -2.08108e-21)
(0.723408 0.00232789 9.53093e-24)
(0.93741 -0.0907815 -2.53302e-21)
(0.937546 -0.00331394 -1.69851e-22)
(0.920797 0.0792915 -5.44407e-21)
(-0.0526842 -0.121 5.74983e-21)
(-0.0174642 0.0830966 -1.6202e-20)
(0.738911 -0.00311727 -6.0479e-23)
(-0.0406034 -0.0956431 -1.95816e-21)
(0.913577 0.0280449 1.25533e-22)
(0.0342903 0.0390862 3.54276e-20)
(0.959305 0.0358922 -3.56219e-21)
(0.953793 -5.31497e-05 1.21852e-23)
(-0.0440138 0.100506 2.17734e-21)
(-0.0609195 -0.112507 -1.29682e-20)
(0.145405 0.0153261 1.03897e-21)
(-0.0380241 -0.0397173 1.2207e-20)
(0.149166 0.0206516 1.80099e-20)
(0.480884 0.0822552 5.52886e-22)
(0.341309 -0.0506439 2.5519e-22)
(0.818208 -0.00480411 -5.00019e-25)
(0.801454 -0.0262483 3.56342e-22)
(0.586487 -0.109113 3.9858e-21)
(-0.0665436 0.0949008 3.31808e-20)
(0.725288 -0.0015841 1.74051e-23)
(1.02004 -0.0386165 6.42887e-23)
(0.752102 -0.003918 1.71258e-23)
(-0.0558057 -0.126284 -1.56943e-20)
(0.712695 -0.0126009 5.64599e-22)
(0.738749 0.00214888 5.31946e-23)
(0.654247 0.0105122 1.03656e-22)
(0.900586 -0.0498687 -2.63742e-21)
(0.689213 0.00970617 5.85214e-22)
(0.932834 -0.0872276 -2.88318e-22)
(0.410009 0.0286174 4.16394e-20)
(0.0173228 0.0705036 -1.32386e-20)
(0.845752 0.0350746 3.85647e-22)
(0.459209 0.0232084 -1.64546e-20)
(0.918786 0.00583506 2.11168e-22)
(0.471587 -0.0746373 1.46698e-20)
(0.867795 -0.00846204 -9.01546e-23)
(0.349577 -0.0142645 -5.5999e-21)
(0.71817 0.0460939 -1.23058e-21)
(0.259251 -0.087464 -4.69563e-21)
(0.726313 -0.00298229 -1.73733e-22)
(0.177624 0.0137315 1.24182e-21)
(-0.0546685 -0.109222 3.74487e-21)
(0.90335 0.0361095 4.39376e-22)
(0.684486 -0.0391972 -1.76371e-21)
(-0.08543 0.0134965 -1.02991e-21)
(0.908604 -0.0030946 -2.68593e-24)
(0.961946 -0.0128398 -9.94006e-24)
(0.772542 0.0349958 3.69637e-22)
(0.791609 -0.00475492 -1.39989e-23)
(-0.045872 0.104725 -5.65665e-21)
(0.769631 -0.00673342 -2.30204e-22)
(0.686776 -0.0103871 -1.04554e-21)
(0.803307 0.00238543 1.70418e-23)
(-0.115543 0.0190779 5.24223e-21)
(0.903505 -0.00408935 -9.75549e-23)
(-0.00299502 0.0415725 -7.48677e-21)
(0.919208 0.000957311 2.74776e-22)
(-0.109695 -0.000890184 -4.48297e-21)
(0.953753 0.0441357 6.85614e-22)
(0.667286 0.056518 1.69408e-21)
(0.952592 -0.00141208 -3.57506e-23)
(0.729783 -0.00317264 6.25393e-23)
(0.0330761 -0.0456981 6.38024e-21)
(-0.0171135 -0.0281585 7.92261e-22)
(0.774806 0.0407278 1.07681e-20)
(0.496093 -0.034424 -9.43059e-22)
(0.898708 -0.0588002 -3.05512e-21)
(0.889023 0.0162757 6.6498e-23)
(0.711973 0.0126991 -4.68181e-22)
(-0.0783504 -0.0600251 2.76541e-21)
(-0.0549754 0.11874 1.85549e-21)
(0.74456 -0.0147888 3.67456e-22)
(-0.0447496 0.101952 2.97852e-20)
(0.846566 -0.00470716 6.86892e-24)
(0.853315 0.00203961 2.57291e-23)
(0.809094 0.00283821 1.92307e-23)
(0.913777 0.0451627 -9.95117e-22)
(0.866488 -0.00448046 -8.34174e-23)
(-0.0645689 -0.0928892 -2.72343e-21)
(-0.0549027 0.108898 1.95376e-21)
(-0.0785758 -0.0706195 -1.00099e-20)
(0.56989 -0.0494383 1.93354e-22)
(0.692308 0.0340692 -2.41806e-22)
(0.857329 -0.00572506 -2.97555e-22)
(0.010128 0.0721139 -7.00261e-21)
(0.367233 0.0656785 1.13684e-21)
(-0.0820046 0.059478 1.174e-20)
(-0.0861205 0.0273303 7.34579e-22)
(0.235496 0.00864195 -3.73103e-20)
(0.771498 -0.00429768 -1.15065e-23)
(0.746831 -0.0970076 -1.0715e-20)
(0.611176 0.0174187 1.08223e-22)
(0.708717 0.0250779 -2.22673e-22)
(-0.049231 0.117994 1.06479e-20)
(0.947791 -0.0536282 1.08872e-22)
(0.797919 -0.00854403 1.46878e-22)
(-0.0354753 -0.0362523 2.49523e-21)
(-0.0406214 -0.109657 -5.95317e-21)
(0.270917 0.0461322 -3.54297e-21)
(0.69196 0.0136056 -9.95501e-23)
(-0.0534093 0.120954 1.56791e-20)
(0.170651 0.0201497 -1.77372e-22)
(0.94241 -0.00738962 1.63361e-22)
(0.745049 0.0387023 -6.36983e-21)
(-0.0663165 0.0904167 -2.0796e-20)
(0.798096 0.0466327 -1.31793e-21)
(0.665124 0.00841436 -1.3516e-25)
(0.487699 -0.029391 2.07684e-20)
(-0.060389 -0.114647 -7.46745e-21)
(0.844669 -0.00466367 1.17759e-22)
(0.776339 0.00340794 2.28435e-23)
(0.953834 0.0275133 8.54769e-22)
(0.743384 -0.00441506 9.85283e-23)
(-0.0293083 -0.00549455 -9.42334e-21)
(0.727668 -0.00240886 2.34585e-23)
(0.987182 -0.00262376 -1.31184e-23)
(0.137685 0.065968 7.68184e-21)
(-0.0496481 -0.114225 -1.06859e-20)
(0.924431 -0.00385976 2.88621e-23)
(-0.153522 0.00712162 8.77791e-21)
(0.918546 0.0016885 1.08528e-22)
(-0.0773663 -0.0227173 2.20446e-20)
(-0.0231056 0.0267807 8.63924e-21)
(0.919313 -0.0849581 6.1181e-21)
(-0.0989063 -0.0424302 -1.28725e-20)
(0.144755 0.067634 -1.26465e-20)
(-0.0435965 0.0955814 3.15049e-21)
(0.892485 0.0599516 -2.50581e-22)
(0.801845 -0.00535892 -9.60053e-23)
(0.985304 -0.000539326 4.80044e-22)
(-0.0988894 0.0122498 2.12234e-21)
(0.636357 -0.0386813 5.07356e-21)
(0.823044 -0.0130748 2.58796e-22)
(0.723293 0.000573991 -2.28191e-23)
(-0.0526261 0.0562387 -4.39857e-21)
(0.936899 0.0103985 -3.1384e-23)
(0.805263 -0.0381105 -7.78996e-21)
(-0.0519137 0.0903074 2.18288e-21)
(0.00224368 0.0712186 4.31382e-20)
(-0.0629839 0.063678 7.54424e-22)
(0.723017 -0.00428314 -1.49978e-22)
(0.889321 -0.00444372 -2.01225e-23)
(-0.0141011 0.00166118 -2.0873e-20)
(0.720897 -0.00238633 -5.92983e-23)
(-0.0485661 0.0963582 -3.52115e-21)
(0.552538 -0.0432984 2.474e-21)
(0.634679 0.0421686 -2.86054e-23)
(0.902896 0.000283159 -4.81526e-23)
(-0.118982 -0.00383626 -3.11108e-21)
(0.0698563 0.0396869 -1.41423e-21)
(-0.13333 -0.00539926 5.46093e-21)
(-0.148362 0.00905012 -1.55255e-20)
(0.73952 -0.0033698 -3.34374e-23)
(-0.112811 0.0253059 -3.13235e-21)
(-0.0453552 -0.0139428 -5.0835e-22)
(0.841966 0.00252295 -1.02036e-22)
(0.454636 -0.0309109 -1.3307e-21)
(0.860876 0.00213812 1.43193e-23)
(-0.060654 -0.0700147 6.91756e-21)
(0.836686 -0.00483789 -6.23316e-23)
(-0.0631811 -0.0710479 3.69042e-21)
(1.04595 0.05947 1.74467e-20)
(-0.0839602 -0.0459165 1.90167e-20)
(0.780816 0.00347642 -4.33325e-23)
(-0.062385 -0.0340368 1.00987e-20)
(0.851731 -0.0450801 7.81352e-23)
(0.720263 -0.000980266 -3.10135e-23)
(-0.0171854 -0.0875069 -1.30488e-20)
(-0.0178543 0.031147 -4.03777e-21)
(0.871533 -0.00467917 5.44875e-26)
(-0.0870102 0.0394394 -3.90147e-22)
(0.457824 -0.0287034 9.65091e-21)
(-0.111159 0.0108536 2.57142e-21)
(-0.037658 0.0315191 -1.05304e-20)
(-0.0330382 -0.0982785 2.62277e-20)
(-0.0616213 0.074961 -5.24154e-21)
(-0.0986522 0.0244982 3.37915e-22)
(0.722913 -0.00168344 -1.02229e-23)
(-0.0053144 0.0808089 1.70328e-20)
(0.815472 -0.00556281 -6.97646e-23)
(0.72211 -4.8423e-05 -7.86191e-24)
(-0.0534103 -0.119964 -6.92789e-21)
(0.166854 0.010082 3.0101e-20)
(0.487245 -0.0265712 1.44145e-20)
(-0.0469743 -0.112748 1.92067e-20)
(-0.157271 -0.000625444 8.0758e-20)
(0.822606 0.00266462 -6.68732e-24)
(-0.161161 0.00176012 -4.69224e-20)
(-0.0372256 -0.0923993 -1.3106e-20)
(-0.0476409 -0.0288843 -3.14769e-21)
(0.830915 -0.0202653 4.96257e-24)
(-0.064515 0.0978834 4.49061e-21)
(-0.043008 0.00122661 -1.27449e-20)
(0.353731 -0.0709467 2.99133e-20)
(0.886223 -0.0182602 7.63761e-23)
(0.799776 0.00268809 1.05023e-22)
(0.0642162 0.00871037 3.02866e-20)
(-0.0570367 -0.124411 1.45286e-20)
(-0.0132878 -0.0847979 1.81618e-21)
(0.34156 0.0479642 -1.34898e-20)
(-0.0523411 0.0988186 5.6443e-21)
(0.939093 -0.00861209 1.52265e-22)
(-0.0533803 0.0865 8.83692e-21)
(-0.0476845 0.112148 -8.0998e-21)
(0.0324853 0.0598448 -2.32593e-20)
(0.785093 -0.00739699 8.81266e-23)
(0.562452 -0.0369933 -1.20655e-20)
(0.767107 0.00275401 -3.85632e-23)
(-0.138932 -0.00687632 -1.9414e-20)
(-0.0600325 -0.0319541 1.11923e-20)
(0.00297888 -0.0688367 -6.24061e-22)
(0.575468 0.0138138 -9.59402e-22)
(0.36984 -0.0396717 5.00999e-20)
(0.79868 -0.0429565 1.05549e-22)
(-0.0513654 -0.068038 9.62274e-21)
(0.716622 -0.00119943 5.19822e-23)
(0.00465037 -0.0735236 -4.73195e-21)
(-0.138289 0.0112672 -2.26971e-21)
(-0.0674841 -0.010167 -1.20217e-20)
(0.591829 0.0117095 3.99961e-22)
(0.709709 0.00873578 4.2049e-22)
(-0.125877 -0.00889819 1.0768e-20)
(-0.0845808 0.0197253 -1.33863e-21)
(0.0244996 0.0664101 -1.34773e-20)
(0.466123 -0.0388886 7.57519e-21)
(0.985385 -0.000954354 -4.45063e-23)
(0.97966 -0.00195185 1.47227e-22)
(-0.0668242 0.0654752 -4.8861e-21)
(0.717824 0.000172927 -8.46343e-23)
(-0.0571245 -0.0825354 6.05563e-21)
(-0.130674 -0.0139626 9.18627e-21)
(0.396442 -0.0243565 -4.01158e-21)
(-0.0931786 -0.0069752 1.63345e-20)
(0.13667 -0.0254061 -6.80625e-21)
(-0.0619753 0.110561 2.06367e-20)
(-0.0579374 -0.0539974 -1.07654e-20)
(-0.0218831 0.0443578 2.13474e-20)
(0.851114 0.00192771 7.65821e-23)
(0.67719 -0.00891379 -2.34934e-23)
(0.934984 0.00259734 -4.5117e-23)
(0.498768 0.0329076 -7.2929e-21)
(-0.0989829 -0.0388753 3.61358e-21)
(0.0820412 0.0297709 -1.22618e-20)
(0.925766 -0.000783548 -6.6923e-23)
(0.926135 -0.0874251 -6.5108e-21)
(0.859869 -0.0400286 -1.25871e-21)
(-0.0535564 0.120666 1.07569e-20)
(0.800872 -0.00486266 3.05357e-24)
(0.0329077 -0.0540654 -3.14775e-21)
(0.736909 -0.00561808 8.65548e-23)
(-0.0530712 -0.121453 6.74304e-21)
(0.958273 -0.000356338 3.20272e-23)
(0.691433 -0.0116511 1.37071e-22)
(-0.0482685 -0.0951172 1.90558e-20)
(-0.0237629 0.0636853 -1.38837e-20)
(0.724809 0.000222638 1.65893e-23)
(0.730268 -0.00366994 1.78031e-22)
(-0.0530259 0.0802264 -3.47264e-21)
(0.0604434 -0.00128926 -2.15508e-20)
(-0.114064 0.0131221 -3.68494e-21)
(0.705693 -0.0116097 4.56421e-22)
(-0.0825594 0.0339765 6.97302e-21)
(0.677686 -0.0450855 -1.18777e-20)
(0.720667 -0.00269005 -8.6491e-25)
(1.01025 -0.070029 1.43655e-20)
(0.982492 -0.00160137 2.05415e-24)
(0.987048 -0.00174078 2.17171e-23)
(0.733818 -0.00297538 -1.30533e-23)
(0.756956 -0.00462673 -3.96098e-22)
(-0.119054 -0.0166898 -6.37443e-21)
(0.614402 0.0278591 -3.14913e-22)
(-0.100632 -0.0250742 -1.34983e-20)
(0.943471 -0.0479371 -2.63906e-21)
(0.680742 0.00865821 -6.09731e-23)
(-0.0328834 -0.083054 3.09039e-20)
(-0.0509279 -0.0845614 7.57055e-21)
(-0.0400338 0.016422 9.44571e-21)
(-0.0537637 0.116189 6.69435e-21)
(0.556978 0.0360522 -1.37681e-21)
(0.961259 -0.00222435 -2.26901e-24)
(0.902642 -0.0302126 -4.61637e-22)
(0.715538 -0.00143312 6.45754e-23)
(-0.018124 -0.00313113 -1.7986e-20)
(-0.156731 0.00235123 4.75208e-20)
(-0.0762633 0.0463501 2.65939e-22)
(-0.0450208 0.0165853 -7.83964e-21)
(0.13925 0.0564364 1.84669e-20)
(0.709331 0.0426813 1.13551e-20)
(0.766905 -0.00425394 1.77002e-23)
(-0.0298957 0.0745991 1.98109e-20)
(-0.0530341 -0.101911 9.82051e-22)
(-0.0252935 0.0803991 -1.65033e-20)
(0.578362 -0.0318967 -1.01789e-20)
(0.988458 -0.00336132 -2.31284e-23)
(0.860924 0.0374124 9.56494e-21)
(0.0358078 -0.0616996 1.14621e-20)
(0.348422 0.0959554 -1.40149e-20)
(0.0988313 -0.0118624 -1.5885e-20)
(-0.127247 -0.00914064 1.71456e-20)
(0.455952 -0.0258045 -6.14498e-22)
(0.753995 0.00248526 9.98323e-23)
(0.944887 0.0912463 1.26007e-21)
(0.157884 -0.00329034 6.75572e-21)
(0.728528 0.00740219 -2.64803e-22)
(0.878479 -0.00370948 -4.42841e-23)
(-0.132793 -0.00131606 6.21242e-21)
(-0.0437491 0.087408 6.66811e-21)
(0.658266 0.104674 5.584e-20)
(0.130452 0.00625067 -6.14984e-21)
(-0.136371 -0.00410325 1.44038e-20)
(0.0225757 0.0275194 1.17069e-20)
(0.0676658 0.0248557 -2.57971e-20)
(0.856442 -0.00448914 -1.55229e-23)
(0.636764 0.0159334 -2.14787e-23)
(0.0192936 -0.0680906 -2.53289e-20)
(0.567317 0.00590325 -8.98516e-22)
(0.825668 0.00884652 -8.25529e-22)
(0.949397 -0.00477632 2.50685e-22)
(0.723186 -0.000158292 4.0708e-23)
(0.889814 0.0155956 -4.94471e-22)
(-0.0455595 -0.111328 4.3239e-21)
(-0.0119805 0.0213709 4.27063e-21)
(0.593372 0.0365868 -4.74708e-22)
(0.0636182 -0.0182492 -1.51831e-20)
(-0.0549154 0.0962292 -2.136e-20)
(0.134076 0.0231105 -4.92421e-21)
(-0.147272 -0.000308601 -8.15588e-21)
(-0.0131441 -0.0829788 -6.73974e-21)
(0.762832 -0.00762767 -1.87199e-22)
(-0.155286 0.00408348 -2.26846e-20)
(0.749375 0.00268104 -6.71985e-23)
(-0.0879682 0.027927 -6.11256e-21)
(-0.124742 0.00305867 3.04305e-21)
(0.905867 -0.00789158 -1.53902e-22)
(0.0361593 0.0300521 -1.57348e-20)
(0.719807 0.000963931 -2.83254e-22)
(0.979618 -0.00274013 -5.52921e-23)
(0.0200217 -0.0672356 -1.64692e-21)
(0.0160143 0.0372902 4.6875e-21)
(0.36118 0.0671401 2.13399e-21)
(-0.069557 0.0655594 1.30121e-20)
(0.834835 -0.00623901 1.24667e-22)
(0.783697 -0.0963954 -6.31844e-21)
(-0.149958 0.00444276 -5.23386e-20)
(-0.0635242 -0.103887 2.2556e-20)
(-0.0200873 -0.0360864 -7.01166e-21)
(0.750258 0.00281912 7.9832e-23)
(0.756158 -0.0043414 -4.48464e-23)
(0.80008 0.00337391 5.88599e-23)
(-0.0325355 -0.0208131 3.47638e-21)
(0.984033 -0.000513672 -5.17938e-23)
(0.368851 -0.019252 -3.91273e-21)
(0.780745 0.00468681 3.76967e-23)
(0.783048 -0.00459869 1.01365e-23)
(-0.16655 -0.000234431 -3.79859e-21)
(-0.0363941 0.090951 8.00908e-21)
(-0.0279395 0.0894494 -2.2568e-20)
(0.130273 -0.0654351 6.66229e-21)
(0.918791 -0.00663887 2.37568e-23)
(-0.0423324 0.0842854 -6.14862e-21)
(0.808556 -0.00684565 -1.04534e-22)
(0.863959 0.0294609 2.1638e-22)
(-0.121802 0.0104817 2.34908e-21)
(-0.154385 -0.00206475 -2.0627e-20)
(-0.162288 0.00217907 -8.31645e-21)
(0.401822 0.0282536 -3.44403e-21)
(0.567191 0.0246207 -2.47028e-22)
(0.552492 0.0407741 -1.0474e-20)
(0.734264 -0.00313609 1.14045e-22)
(0.728096 0.00108703 -4.45637e-23)
(0.296844 0.0320164 -3.5784e-21)
(0.0320578 0.0578996 -9.81095e-21)
(0.954151 -0.000590019 -2.19505e-23)
(0.180317 -0.00828889 2.20127e-20)
(-0.0567006 0.0905624 6.95444e-21)
(-0.146041 0.00352966 -1.61716e-20)
(-0.0711502 0.0659382 -7.56669e-21)
(-0.090241 0.0171622 6.50676e-20)
(0.94611 -0.00561931 -6.90395e-22)
(0.0899842 -0.00155299 -7.22835e-21)
(0.930317 -0.00252395 3.05946e-23)
(0.724344 0.00103787 1.8129e-22)
(0.48993 -0.0647681 1.77293e-20)
(-0.0530706 0.12757 -1.37607e-20)
(0.0533022 0.0554199 2.0879e-21)
(-0.113555 0.00176823 -1.47244e-20)
(-0.0949246 0.0461269 1.21041e-20)
(-0.110125 -0.0331987 1.30984e-20)
(0.530454 -0.0363796 2.25169e-21)
(0.93299 0.0134773 2.19047e-22)
(0.746715 -0.00642142 -5.28942e-23)
(0.0418357 0.0582915 -2.38278e-20)
(-0.163937 -0.00188447 1.10505e-20)
(0.0655461 -0.0500864 -1.78699e-20)
(-0.0462465 -0.120483 3.06907e-20)
(-0.167022 0.000327169 1.03071e-20)
(0.831626 0.0027811 -8.02633e-23)
(0.982514 3.1661e-05 -2.32475e-23)
(-0.160106 -0.00254874 4.67329e-21)
(0.346254 -0.0152181 -9.38925e-21)
(0.313155 -0.00953691 5.0647e-21)
(0.731278 0.00918189 -1.8388e-23)
(-0.034362 -0.103198 2.55623e-20)
(0.840107 -0.00679026 -6.17107e-23)
(0.602021 0.015226 4.03012e-22)
(-0.0129264 -0.0787594 1.17307e-20)
(0.980283 6.04601e-05 -9.16127e-23)
(0.861803 -0.0457871 5.51528e-21)
(0.765521 -0.0417378 -5.77516e-21)
(-0.0265199 0.0938926 -2.50913e-20)
(0.967835 -0.0781326 1.117e-22)
(-0.053028 0.119808 -3.59564e-21)
(-0.0515542 -0.113063 1.02251e-21)
(0.23716 -0.012836 -5.16446e-21)
(0.144661 -0.0510359 2.17593e-20)
(1.06273 0.0487001 -1.42249e-20)
(0.874466 0.0216505 9.24616e-23)
(0.932284 0.0141887 9.12025e-24)
(0.815283 -0.00693113 1.15375e-22)
(0.00837631 -0.0739609 1.83181e-20)
(-0.0526934 0.000943956 -8.18749e-20)
(-0.121523 -0.0254044 -1.58523e-20)
(0.269881 0.00980013 6.20456e-21)
(0.843692 -0.00594415 -8.96267e-23)
(1.04102 0.0653242 1.48932e-20)
(1.03438 -0.0642331 -2.44055e-21)
(0.905041 -0.0417835 8.89883e-23)
(1.02653 -0.0718055 -6.66384e-21)
(0.374579 0.025978 1.12484e-21)
(0.900492 -0.0115665 -6.53561e-22)
(0.793299 -0.00753859 4.89513e-22)
(0.894027 0.00798101 7.33943e-22)
(0.871759 -0.00859116 1.58808e-22)
(0.721072 -0.000864956 7.58189e-23)
(0.0275198 -0.0413315 -2.82768e-21)
(0.864451 -0.0105461 -6.95789e-22)
(-0.0872789 0.0530168 -4.27297e-21)
(0.525045 0.0868473 -1.5459e-20)
(0.701412 -0.00979601 -3.19209e-23)
(0.066489 0.0500062 -1.2224e-20)
(0.716699 -6.95456e-05 -1.26302e-23)
(0.755685 0.00386636 -2.41213e-22)
(-0.0974651 -0.000404803 1.79079e-21)
(-0.137018 0.00593121 -2.17917e-21)
(0.0609577 -0.0475493 -9.1459e-21)
(0.748371 -0.00709958 1.42505e-22)
(0.69689 0.0102086 3.29241e-22)
(-0.0487942 -0.0757446 -4.64719e-23)
(-0.0461191 0.0960974 5.38854e-22)
(0.950359 0.000152166 1.03374e-23)
(-0.0476107 0.114216 -2.24701e-20)
(0.935399 0.0111241 -3.94864e-23)
(0.976341 -0.00350394 4.48641e-23)
(0.828785 -0.0503785 2.45836e-21)
(0.888437 0.0171415 2.20432e-23)
(0.791852 0.00317259 2.59044e-22)
(0.894642 -0.0746318 6.49645e-21)
(0.0427627 -0.0413806 -1.56249e-21)
(0.0118337 -0.0552164 -4.60959e-20)
(0.228415 -0.00816749 8.23214e-21)
(-0.0670736 -0.0575838 8.3876e-21)
(-0.0329244 0.019789 1.35818e-20)
(0.974176 -0.00465395 1.18726e-22)
(0.728005 -0.00230607 1.68841e-24)
(0.901203 -0.0439874 6.78778e-22)
(0.349561 0.027997 8.32633e-21)
(-0.00248355 0.0749479 1.12107e-20)
(0.663087 -0.00570366 -4.8634e-22)
(0.954941 0.00337525 -3.28857e-23)
(0.941783 -0.00613682 -2.28501e-23)
(-0.0676856 -0.0424355 -1.16752e-20)
(0.937703 -0.00566975 5.64197e-22)
(1.06735 -0.0445568 -6.38303e-21)
(0.447209 0.0277682 1.1759e-21)
(0.666418 -0.105482 -3.76023e-21)
(0.483713 -0.028024 -1.2637e-21)
(-0.0599521 -0.0911681 -3.96502e-21)
(0.663772 -0.00685074 1.27497e-21)
(0.97661 -0.00215045 -2.81707e-22)
(0.834787 -0.00572971 2.40203e-22)
(0.605761 -0.0140413 -2.30628e-22)
(0.731567 0.00121227 2.61711e-23)
(0.167813 -0.0194196 8.28987e-21)
(0.817488 -0.00931812 -3.9357e-22)
(0.00195869 0.00576887 -3.35239e-21)
(0.619348 0.0415146 -9.0416e-21)
(-0.0531912 0.0259351 -1.09712e-21)
(0.634053 0.0821021 -4.19816e-22)
(-0.0643752 0.0514549 -1.08868e-21)
(-0.0179166 0.0153727 -2.11157e-20)
(0.859852 -0.0407759 -1.88207e-21)
(0.731768 0.0449447 1.69195e-21)
(-0.11709 -0.00803104 7.29665e-20)
(0.397624 0.0917888 -9.47907e-21)
(0.236004 -0.0764944 -1.71981e-20)
(0.0494765 0.0375461 -4.68421e-21)
(0.00372055 0.0677414 3.08523e-20)
(0.602311 0.106002 2.2642e-20)
(0.145864 0.0215686 -2.25846e-20)
(0.277261 0.0798795 1.70199e-20)
(0.781751 0.00692034 5.79723e-22)
(0.827668 -0.00800748 -7.50576e-23)
(0.00551983 -0.0191051 2.08614e-20)
(-0.0555181 -0.103285 -2.95267e-21)
(-0.0607619 -0.0165326 3.89466e-20)
(0.704075 0.0385255 -8.37833e-23)
(0.229447 0.0825917 -2.89434e-20)
(0.49455 0.0104992 5.29792e-22)
(0.949291 -0.024834 -1.08999e-22)
(0.613676 0.00568434 -1.76789e-21)
(0.958026 -0.0157574 -1.14801e-23)
(0.950883 -0.068107 2.52447e-21)
(0.899088 0.0105126 -5.46189e-23)
(0.865211 -0.010592 1.65297e-23)
(-0.130562 0.0154822 2.455e-20)
(0.777414 -0.00697797 5.64366e-24)
(0.724115 0.000276347 1.27261e-22)
(0.432937 -0.0237524 2.95285e-20)
(0.496649 0.105109 6.38489e-21)
(0.906351 -0.0776455 2.21506e-21)
(0.973944 -0.00548945 1.87359e-22)
(0.500238 0.0257403 -7.36698e-22)
(0.0594896 -0.05836 -5.17157e-21)
(0.604693 0.0242347 -7.9808e-22)
(0.743263 -0.00540552 5.601e-23)
(0.934188 0.0123156 -2.37244e-23)
(0.741238 -0.107819 -1.33232e-20)
(0.525038 0.0694543 1.96899e-21)
(0.834536 -0.101829 -4.15111e-21)
(0.938332 0.00967756 1.63174e-22)
(0.641412 0.0787758 -5.61996e-23)
(0.201015 0.00705657 -1.81675e-21)
(0.71183 0.00130309 -4.34596e-23)
(0.719659 -0.000343438 -7.48992e-23)
(0.109468 0.00521586 -7.61941e-21)
(-0.105231 -0.035629 9.19739e-21)
(-0.0344764 -0.100809 -3.29114e-20)
(0.351774 -0.0269625 9.22489e-21)
(0.0560376 -0.0516393 -9.72331e-23)
(0.754421 0.0794905 9.23954e-22)
(-0.00763157 0.068694 2.11925e-20)
(0.490569 0.0419659 -4.63008e-22)
(0.668795 0.028957 -1.18498e-22)
(0.879195 0.0248113 5.67546e-22)
(0.700661 0.023308 -3.31007e-22)
(0.284113 0.0946242 1.16051e-20)
(0.758462 -0.024544 -1.09699e-22)
(0.970404 -0.00405673 -5.10641e-22)
(0.959142 -0.0148026 -1.53671e-22)
(0.138615 0.0623301 1.60472e-20)
(-0.16824 0.000278025 3.05729e-20)
(0.554319 -0.0705339 -1.11686e-21)
(0.951527 -0.0658353 -5.90475e-22)
(0.467087 0.0118936 -9.87264e-22)
(0.625457 -0.0501521 3.83136e-22)
(0.431204 0.0090535 -2.66181e-22)
(0.471889 0.00728707 1.20433e-21)
(0.216177 0.0118712 1.10822e-20)
(0.497709 0.00631964 -5.57143e-22)
(0.153819 0.0127099 1.52417e-20)
(0.665098 -0.0496469 1.52987e-21)
(0.757086 0.0244804 -8.61971e-22)
(0.58354 -0.054841 -5.02426e-21)
(0.530438 0.00247985 6.80158e-22)
(0.753306 0.0112521 -1.73117e-22)
(0.55239 0.00441596 -1.27102e-21)
(0.756622 0.0235651 2.45376e-22)
(0.510392 0.0760267 -4.45659e-21)
(0.842171 0.0155923 -2.97511e-22)
(0.573588 0.00158098 1.75729e-21)
(0.403747 0.0543404 -6.79693e-21)
(0.646355 0.0760229 1.33865e-21)
(0.598717 0.00420594 4.74565e-22)
(0.768051 -0.0149408 -4.08456e-22)
(0.44083 0.00355491 1.10195e-21)
(0.398564 -0.000762164 4.11316e-22)
(0.35692 -0.00324892 6.34022e-22)
(0.295586 0.00515997 -5.81915e-21)
(0.240683 0.00847791 -6.58324e-21)
(0.479563 0.00146692 -1.23835e-21)
(0.172301 0.000359034 -1.30227e-20)
(0.504231 0.00118606 -7.26381e-22)
(0.636391 -0.0546984 9.86429e-22)
(0.539238 -0.000433846 -1.00563e-22)
(0.69366 -0.0488236 -1.82805e-22)
(0.556244 0.00137716 -6.00712e-22)
(0.654296 -0.0183663 1.59762e-22)
(0.704239 -0.0225638 7.27533e-22)
(0.582076 0.000510722 -1.81827e-21)
(0.612549 0.00308938 2.44073e-21)
(0.601515 0.000279747 -8.95804e-22)
(0.922296 -0.0180371 -4.32959e-22)
(0.792668 0.015274 1.13503e-22)
(-0.158495 -0.00206868 -2.66377e-20)
(0.911662 -0.00490569 -4.31963e-23)
(0.792898 -0.0154009 1.34131e-21)
(0.788295 0.0167972 -4.71196e-22)
(0.615329 0.000223414 -2.09342e-21)
(0.785949 -0.00563218 3.35241e-22)
(0.562559 -0.0376901 3.11789e-21)
(0.625285 0.00153322 -4.98183e-22)
(0.410138 0.0135074 1.81626e-21)
(0.364368 0.0121993 4.7906e-22)
(0.520143 0.0103171 1.86942e-21)
(0.63264 -0.00146026 3.5201e-22)
(0.790381 0.0146671 -2.78389e-22)
(0.71629 -0.00405051 1.09153e-22)
(0.818793 -0.064895 -1.52728e-21)
(0.83575 -0.0505523 -1.08219e-21)
(0.110123 -0.0218078 2.7806e-20)
(0.904786 -0.00860757 -2.68803e-23)
(0.448352 -0.017836 -4.72624e-22)
(0.646768 -0.000229553 6.20237e-22)
(0.610019 -0.0131873 2.77012e-22)
(0.731699 -0.00544215 7.31924e-23)
(0.795863 0.0141243 4.33546e-22)
(0.292942 0.0299697 -9.51542e-23)
(0.650425 0.0166897 6.45107e-22)
(0.0308174 0.0028737 -4.34533e-21)
(0.640182 0.00440309 -1.82872e-22)
(0.858914 -0.00560544 -4.95326e-23)
(0.804646 0.00813129 -4.19251e-22)
(0.962426 -0.00133259 -4.24133e-23)
(0.656897 0.000777288 4.96044e-22)
(0.69008 0.0321271 6.02543e-22)
(-0.0523954 0.0837406 -1.55821e-20)
(0.937881 -0.00556148 -3.35414e-23)
(0.65464 0.00440502 7.39391e-23)
(0.13749 -0.00623945 8.07205e-21)
(0.659205 0.000254831 -8.2209e-22)
(0.789267 0.00840381 -2.12171e-23)
(0.758495 0.00639025 -2.39268e-23)
(0.418891 -0.034956 -3.87663e-20)
(0.767057 0.00953891 2.75746e-22)
(0.981977 -0.00122826 -5.93323e-23)
(0.521742 0.0724569 2.33195e-21)
(0.790985 0.0156088 8.35441e-23)
(0.0231934 0.0544111 4.87331e-21)
(0.652981 -0.0613544 -4.03878e-21)
(0.688401 -0.0530312 -4.48802e-21)
(0.269466 0.00955591 -3.6949e-21)
(0.320317 0.00268858 -7.03783e-21)
(0.19613 -0.0189773 3.23755e-20)
(0.743647 0.0117989 -4.83939e-22)
(0.490716 -0.00230992 2.76847e-21)
(0.50211 0.0241921 -5.08954e-22)
(0.422942 0.0288485 2.44775e-21)
(0.515037 -0.00105969 2.05203e-21)
(0.824784 0.0418322 -5.73359e-22)
(0.565164 9.85611e-05 2.42287e-22)
(0.363541 0.0945514 -3.28189e-20)
(0.588968 0.00334706 1.39106e-21)
(0.672016 -7.23644e-07 -1.21164e-22)
(0.251059 -0.00288517 -4.98784e-21)
(0.305563 -0.00756505 3.23312e-21)
(0.330174 0.0431983 8.35198e-21)
(-0.102159 -0.0124678 -1.68398e-20)
(0.718914 -0.0468242 2.77948e-21)
(0.780131 0.00812035 1.57531e-22)
(0.244136 0.0791936 1.60771e-20)
(0.689157 0.0522662 -7.81097e-22)
(0.704763 0.0206501 7.27087e-22)
(0.608187 -0.00190072 1.68388e-22)
(0.560633 -0.0029372 3.19647e-22)
(-0.046464 0.0479071 3.31232e-21)
(0.860953 0.00249826 2.58495e-23)
(0.653305 -0.0432786 -2.05557e-21)
(0.668624 0.00277964 -5.08934e-23)
(0.891398 0.0133727 -9.98207e-23)
(0.647467 0.00919728 9.46846e-22)
(0.671693 0.00454742 3.53818e-22)
(0.669778 0.00136421 8.37637e-22)
(0.622028 -0.00249499 2.50125e-21)
(0.804126 -0.0163352 -1.18541e-22)
(0.70814 -0.0214343 -5.26327e-22)
(0.731313 -0.0127147 -5.04992e-22)
(0.65196 0.0009006 -4.66324e-22)
(0.796432 -0.0146745 3.4437e-22)
(0.0220654 0.0513246 1.6173e-20)
(0.552848 0.0146881 1.22709e-22)
(0.777864 -0.00906257 4.52175e-22)
(0.617853 0.0120166 1.83617e-22)
(0.635108 0.00893691 -4.14575e-22)
(0.82344 -0.0150677 3.93067e-22)
(0.197402 -0.0291922 -1.40358e-20)
(0.670324 0.0404112 2.65538e-22)
(0.588972 0.0494825 -6.19789e-22)
(0.730558 0.0316622 1.17469e-23)
(0.742485 0.0123859 -3.79059e-22)
(0.792831 0.0086068 -4.63216e-23)
(0.788358 0.0143356 9.53003e-23)
(0.754004 -0.0137266 8.07504e-23)
(0.401459 -0.0986112 -5.09444e-21)
(0.728569 -0.0642929 8.5223e-21)
(0.30677 -0.0232047 -1.99912e-21)
(0.798851 -0.0302061 1.008e-21)
(0.676564 0.00229109 -8.55992e-22)
(0.522217 -0.0118134 5.85926e-22)
(-0.0414858 0.105149 8.87883e-21)
(0.644525 0.0411124 -7.62421e-22)
(0.954971 0.0259412 -4.23046e-22)
(0.952183 0.0416154 4.03359e-22)
(0.972278 0.00801812 -4.15428e-23)
(0.967602 0.0118835 -1.35611e-22)
(0.948016 -0.0509824 -2.39969e-21)
(0.956841 -0.0166288 2.8371e-22)
(0.964565 0.014894 -3.90563e-24)
(0.979465 0.00426103 1.72662e-22)
(0.951012 -0.0234011 1.91543e-22)
(0.975754 0.00632557 -1.63216e-22)
(0.961218 -0.0120724 -2.70734e-22)
(0.973643 0.00724784 1.39747e-22)
(0.973743 0.00416941 5.53679e-22)
(0.981938 0.00311752 4.53844e-24)
(0.961316 0.0161503 -7.52981e-23)
(0.948168 -0.0266473 1.85794e-22)
(0.96085 -0.0138953 -2.20507e-22)
(0.966209 0.0134514 -1.96617e-22)
(0.95389 -0.0624367 1.63205e-21)
(0.660083 0.00735389 -4.24701e-22)
(0.62999 -0.00744161 5.88441e-22)
(0.133724 -0.00183755 -2.48693e-20)
(0.214064 -0.0145516 -9.86356e-21)
(0.972605 -0.00395163 5.10996e-22)
(0.909036 0.000220439 1.28182e-22)
(0.714569 0.00980949 2.69676e-22)
(0.679154 -0.0700003 1.14772e-21)
(0.372014 -0.00151957 2.08527e-22)
(0.574989 0.0512215 -3.79586e-22)
(0.413073 -0.00219644 -5.43535e-22)