/*--------------------------------*- C++ -*----------------------------------*\
  =========                 |
  \\      /  F ield         | OpenFOAM: The Open Source CFD Toolbox
   \\    /   O peration     | Website:  https://openfoam.org
    \\  /    A nd           | Version:  10
     \\/     M anipulation  |
\*---------------------------------------------------------------------------*/
FoamFile
{
    format      ascii;
    class       volScalarField;
    location    "1200";
    object      epsilon;
}
// * * * * * * * * * * * * * * * * * * * * * * * * * * * * * * * * * * * * * //

dimensions      [0 2 -3 0 0 0 0];

internalField   nonuniform List<scalar> 
10435
(
0.141539
0.458866
0.450465
0.408114
0.869588
0.776395
0.400058
0.252361
0.153607
0.62808
0.680649
0.446074
0.566961
0.0437561
0.0479242
0.360356
0.0409062
0.657605
0.107965
0.172271
0.304959
0.292222
0.412557
0.160924
0.582686
0.0156198
0.0257904
0.494171
0.0243245
0.657211
0.531754
0.773843
0.219438
0.0248178
0.26567
0.168628
0.321564
0.0259106
0.0107353
0.129341
0.723527
0.413722
0.0278365
0.313894
0.394991
0.145019
0.733428
0.0257848
0.127241
0.194859
0.274523
0.678984
0.0104067
0.0201084
0.0118603
0.0222431
0.278314
0.0278177
0.0359109
0.21766
0.0116642
0.346335
0.0281445
0.712413
0.408939
0.490406
0.0326221
0.0316624
0.283744
0.163097
0.0196977
0.0206493
0.0185728
0.474601
0.0543535
0.0290084
0.175817
0.367724
0.187504
0.050765
0.19275
0.0934586
0.0100956
0.0205762
0.188799
0.117041
0.149971
0.396539
0.070588
0.199502
0.470042
0.542295
0.111245
0.0866365
0.259303
0.115087
0.55561
0.0530253
0.0381027
0.672718
0.0603135
0.980926
0.112604
0.32577
0.93358
0.365893
0.130313
0.195191
0.186999
0.0573972
0.184199
1.00955
0.0783332
0.066427
0.684646
0.269208
0.652007
0.162426
0.483203
0.533695
0.61617
0.0232318
0.224725
0.0484081
0.986713
0.0136877
0.54739
0.0274527
0.768315
0.0245022
0.035635
0.912843
0.312075
0.0459121
0.0230115
0.00945703
0.108284
0.422824
0.391229
0.237798
0.204838
0.470417
0.0297941
0.603336
0.30014
0.042608
0.0709114
0.748879
0.0391082
0.500866
0.0224362
0.37074
0.171163
0.522009
0.682813
0.0189473
1.02684
0.302897
0.661509
0.675934
0.460596
0.0424758
0.656213
0.301818
0.0635362
0.706426
0.212411
0.413258
0.290371
0.681104
0.603614
0.0150532
0.02375
0.0486346
0.404665
0.53716
0.246015
0.0342676
0.168359
0.0265786
0.572923
0.815836
0.497783
0.0128077
0.455489
0.0225076
0.0239237
0.347886
0.878096
0.641443
0.545213
0.00993241
0.0229664
0.170572
1.02531
0.315102
0.0346174
0.086397
0.0302264
0.348244
0.0677068
0.0252545
0.527295
0.0272332
0.498924
0.785031
0.575842
0.419718
0.0290489
0.297538
0.0190073
0.428279
0.606521
0.335455
0.0256591
0.0421173
0.0757221
0.0128598
0.0158796
0.0400492
0.0250292
0.0371306
0.0315564
0.0482951
0.017626
0.295301
0.0131123
0.0669978
0.590821
0.0323978
0.0344397
0.252197
0.0144078
0.351771
0.0265132
0.0387543
0.246664
0.0175106
0.24114
0.56181
0.263469
0.0154447
0.0138522
0.0218521
0.735892
0.176404
0.0804596
0.285727
0.0190338
0.39543
0.0190876
0.0826071
0.589137
0.294759
0.31698
0.770576
0.0172373
0.340231
0.0168956
0.0250076
0.363907
0.615245
0.0153619
0.222853
0.0923512
0.0363066
0.215209
0.471634
0.0115986
0.782967
0.389281
0.24053
0.286438
0.548294
0.0174827
0.518239
0.0249243
0.897528
0.345806
0.216455
0.58415
0.0334721
0.413982
0.0563071
0.103891
0.0111724
0.828535
0.0119045
0.0209847
0.025671
0.0583525
0.804233
0.0291856
0.261702
0.0109653
0.019328
0.0378879
0.114368
0.895395
0.534367
0.0315223
0.248525
0.436412
0.0206986
0.849042
0.0466739
0.0373597
0.332995
0.513783
0.0211835
0.150035
0.022672
0.266775
0.808307
0.188036
0.0198248
0.0135279
0.554265
0.0335138
0.417109
0.889052
0.0264663
0.133424
0.00977291
0.191103
0.537968
0.0192125
0.458718
0.0341776
0.0268254
0.183419
0.0273895
0.0211776
0.42759
0.430584
0.0292826
0.0203508
0.0197021
0.0227688
0.0230702
0.0206419
0.0199009
0.0114162
0.0237044
0.0228178
0.0217395
0.030743
0.0271749
0.00962145
0.165147
0.021582
0.536818
0.0252771
0.483204
0.1674
0.110737
0.559394
0.464907
0.0210932
0.023085
0.0200967
0.0140955
0.0225471
0.0113225
0.0252791
0.021902
0.0292413
0.378294
0.0213193
0.149344
0.0129329
0.0232941
0.587632
0.0894532
0.0114474
0.0256499
0.0272244
0.0264581
0.0227961
0.017261
0.0297171
0.012366
0.205304
0.03169
0.260494
0.148131
0.509493
0.536586
0.131109
0.467313
0.227301
0.0385135
0.0182003
0.0233651
0.0202634
0.447284
0.022023
0.597113
0.0284013
0.0268892
0.0242856
0.0286596
0.0146897
0.383415
0.0267055
0.232924
0.317654
0.0151198
0.0187415
0.0265707
0.096348
0.0264283
0.0200163
0.0166309
0.0224661
0.0280916
0.0247008
0.467934
0.0197812
0.0191003
0.024723
0.0258657
0.656288
0.0118255
0.00999223
0.0678256
0.0227603
8.66963e-05
8.29323e-05
7.74999e-05
7.12061e-05
6.45132e-05
5.74838e-05
5.01861e-05
4.27242e-05
3.5252e-05
9.36288e-05
8.85958e-05
8.20348e-05
7.48284e-05
6.73525e-05
5.97501e-05
5.21138e-05
4.46069e-05
3.74822e-05
0.000102389
9.60878e-05
8.83139e-05
8.00509e-05
7.1692e-05
6.33932e-05
5.52744e-05
4.7505e-05
4.03238e-05
0.000114123
0.000106414
9.71837e-05
8.76343e-05
7.81716e-05
6.89526e-05
6.01019e-05
5.17656e-05
4.41283e-05
0.000130327
0.000120898
0.000109809
9.86028e-05
8.76783e-05
7.71921e-05
6.72529e-05
5.79641e-05
4.94216e-05
0.000153074
0.000141398
0.000127843
0.000114418
0.0001015
8.9244e-05
7.77322e-05
6.70292e-05
5.7174e-05
0.000185409
0.000170605
0.000153668
0.000137204
0.000121533
0.000106801
9.30588e-05
8.03543e-05
6.87258e-05
0.00023199
0.000212347
0.000190686
0.000170038
0.000150571
0.000132385
0.000115499
9.99589e-05
8.58497e-05
0.000299137
0.000271752
0.000243641
0.000217326
0.000192681
0.000169718
0.000148418
0.000128813
0.000110999
0.00039338
0.000355153
0.000318886
0.000285163
0.000253608
0.000224148
0.000196742
0.000171382
0.000148074
0.000519637
0.000469939
0.000424501
0.000381551
0.000341044
0.000302971
0.00026735
0.000234153
0.000203324
0.000681139
0.00062495
0.000570268
0.000516268
0.000464513
0.000415386
0.0003691
0.000325668
0.000285062
0.000886052
0.000832031
0.00076753
0.000700264
0.000634637
0.000571757
0.000512129
0.000455856
0.000403072
0.00116502
0.00110707
0.00102839
0.000944358
0.000861727
0.000782167
0.000706388
0.000634584
0.000567038
0.00154189
0.00146344
0.00136264
0.00125718
0.00115406
0.00105484
0.000960128
0.000870024
0.000784383
0.00202582
0.00190615
0.00177486
0.00164355
0.00151678
0.00139528
0.00127934
0.00116901
0.00106411
0.00259858
0.00242922
0.00226378
0.00210442
0.00195214
0.00180664
0.00166784
0.00153583
0.00141106
0.00322673
0.00302111
0.0028252
0.00263887
0.00246114
0.00229125
0.00212882
0.00197379
0.00182664
0.00390395
0.00367669
0.00345714
0.00324722
0.00304593
0.00285278
0.00266721
0.00248899
0.00231821
0.00463651
0.00439947
0.00416258
0.0039331
0.00371144
0.0034976
0.00329092
0.00309108
0.00289853
0.00543862
0.00519928
0.00494901
0.00470363
0.00446565
0.00423515
0.00401091
0.0037919
0.00357803
0.00633091
0.00608941
0.00582619
0.00556792
0.00531884
0.00507772
0.0048419
0.00460908
0.00437841
0.0073444
0.00708439
0.00680378
0.00653553
0.00628252
0.0060396
0.00580148
0.00556408
0.00532651
0.00851724
0.00819448
0.0078873
0.00761398
0.00736782
0.0071358
0.00690874
0.00667967
0.00644746
0.00988182
0.00941287
0.00907601
0.0088092
0.00858674
0.00838288
0.00818469
0.00798362
0.00774821
0.000935245
0.000916621
0.000902489
0.000892794
0.000887521
0.000886562
0.000889806
0.000897046
0.000908086
0.000922618
0.000940321
0.000960806
0.00098359
0.00100818
0.00103395
0.00106029
0.00108651
0.00111192
0.00113578
0.00115738
0.00117592
0.00119055
0.00120005
0.00120238
0.00119645
0.0011838
0.00116499
0.00113965
0.00110596
0.00106647
0.00102217
0.000973438
0.000920807
0.000865258
0.000807698
0.000748998
0.000689993
0.000631471
0.000574164
0.000518734
0.000465751
0.000415706
0.000368972
0.000325835
0.000286485
0.000251013
0.000219464
0.000191843
0.000168053
0.000147926
0.000131209
0.000117592
0.000106744
9.83349e-05
9.20666e-05
8.7684e-05
8.49852e-05
8.3821e-05
8.40614e-05
0.000950762
0.000934608
0.000922624
0.000914797
0.000911059
0.000911277
0.00091524
0.000922685
0.000933417
0.00094719
0.000963702
0.000982594
0.00100344
0.00102577
0.00104904
0.00107267
0.00109603
0.00111847
0.00113932
0.00115791
0.00117354
0.00118549
0.00119297
0.00119499
0.00119045
0.00117862
0.00115926
0.00113257
0.00109929
0.00106054
0.00101704
0.000969315
0.000917948
0.000863629
0.000807133
0.000749264
0.000690833
0.000632626
0.000575386
0.000519792
0.00046645
0.000415886
0.000368537
0.000324753
0.000284792
0.000248816
0.000216905
0.00018905
0.000165143
0.000144987
0.00012828
0.000114687
0.000103855
9.54431e-05
8.91352e-05
8.46704e-05
8.18424e-05
8.04979e-05
8.04968e-05
0.000946763
0.000931909
0.000920807
0.000913442
0.000909777
0.000909728
0.000913178
0.000919958
0.000929857
0.000942625
0.000957961
0.00097552
0.000994902
0.00101565
0.00103728
0.00105923
0.00108091
0.00110172
0.00112101
0.00113811
0.00115234
0.00116294
0.0011691
0.00116992
0.00116461
0.00115262
0.00113373
0.00110803
0.00107599
0.00103838
0.000995947
0.000949346
0.000899219
0.000846252
0.000791172
0.000734729
0.000677678
0.000620759
0.000564677
0.000510089
0.000457593
0.00040772
0.000360926
0.000317591
0.000278011
0.00024239
0.000210827
0.000183317
0.000159739
0.000139867
0.000123405
0.000110005
9.93128e-05
9.09846e-05
8.47119e-05
8.02319e-05
7.73331e-05
7.58616e-05
7.56771e-05
0.000919397
0.000905556
0.000895249
0.000888438
0.000885061
0.000885021
0.000888194
0.000894421
0.00090351
0.00091523
0.00092931
0.000945433
0.000963238
0.000982314
0.0010022
0.0010224
0.00104235
0.00106147
0.00107913
0.00109469
0.00110746
0.0011167
0.00112168
0.00112165
0.00111593
0.00110404
0.00108575
0.00106114
0.00103059
0.000994674
0.000954059
0.000909405
0.000861378
0.000810658
0.000757936
0.000703916
0.000649294
0.000594758
0.000540966
0.000488541
0.000438057
0.000390034
0.00034493
0.000303135
0.000264958
0.000230608
0.000200193
0.000173704
0.000151018
0.000131913
0.0001161
0.000103237
9.29631e-05
8.49431e-05
7.88809e-05
7.45232e-05
7.16641e-05
7.01523e-05
6.98515e-05
0.000877926
0.000865279
0.000855891
0.000849725
0.000846719
0.000846777
0.00084978
0.000855578
0.000863988
0.000874794
0.00088774
0.000902534
0.000918842
0.000936284
0.000954434
0.000972823
0.000990937
0.00100822
0.00102408
0.00103789
0.00104901
0.00105676
0.00106047
0.00105951
0.00105332
0.00104152
0.00102391
0.00100056
0.000971729
0.000937864
0.000899524
0.000857322
0.000811903
0.000763924
0.000714051
0.000662951
0.000611277
0.000559675
0.000508769
0.00045915
0.000411367
0.000365919
0.000323247
0.000283729
0.000247658
0.000215234
0.000186551
0.000161594
0.000140239
0.00012227
0.0001074
9.53005e-05
8.56351e-05
7.80835e-05
7.236e-05
6.82223e-05
6.54745e-05
6.39709e-05
6.35812e-05
0.000821835
0.000810143
0.000801486
0.000795824
0.000793097
0.000793208
0.000796037
0.000801435
0.000809223
0.000819189
0.000831089
0.000844645
0.00085954
0.000875418
0.000891881
0.000908489
0.000924761
0.000940179
0.000954196
0.000966238
0.000975712
0.000982009
0.000984547
0.000982783
0.000976253
0.000964642
0.000947799
0.000925769
0.000898761
0.000867137
0.000831372
0.000792012
0.000749664
0.000704951
0.000658492
0.000610918
0.000562833
0.000514838
0.000467528
0.000421457
0.000377137
0.000335032
0.000295553
0.000259045
0.000225774
0.000195913
0.000169541
0.000146628
0.000127049
0.000110594
9.69893e-05
8.59291e-05
7.70984e-05
7.02015e-05
6.49696e-05
6.11771e-05
5.86417e-05
5.72278e-05
5.68145e-05
0.00075307
0.000742309
0.000734331
0.000729108
0.000726593
0.000726694
0.000729301
0.000734271
0.000741429
0.000750567
0.000761451
0.000773811
0.000787349
0.000801724
0.000816565
0.000831467
0.000845983
0.000859625
0.000871896
0.000882273
0.000890217
0.000895189
0.000896699
0.000894289
0.000887552
0.000876245
0.000860255
0.000839634
0.00081454
0.000785271
0.00075225
0.00071596
0.000676986
0.000635915
0.000593302
0.000549741
0.000505779
0.000461964
0.000418874
0.000377004
0.00033681
0.000298707
0.000263054
0.000230159
0.00020025
0.000173467
0.000149867
0.000129408
0.000111962
9.73274e-05
8.52498e-05
7.54469e-05
6.76321e-05
6.15348e-05
5.69128e-05
5.35614e-05
5.1316e-05
5.00532e-05
4.9664e-05
0.000669702
0.000659562
0.000651988
0.000646981
0.000644512
0.000644508
0.00064686
0.000651434
0.000658047
0.000666478
0.000676519
0.000687874
0.000700251
0.000713319
0.000726745
0.000740195
0.000753272
0.000765481
0.000776384
0.000785444
0.000792174
0.000796092
0.000796845
0.000794096
0.000787413
0.00077666
0.00076174
0.000742735
0.000719703
0.000692898
0.00066274
0.000629678
0.000594336
0.000557275
0.000518908
0.000479817
0.000440505
0.000401436
0.000363201
0.000326173
0.000290745
0.000257262
0.000226024
0.00019729
0.000171258
0.00014802
0.000127627
0.00011001
9.50342e-05
8.25049e-05
7.21898e-05
6.38393e-05
5.72011e-05
5.204e-05
4.81458e-05
4.53396e-05
4.34763e-05
4.24469e-05
4.21549e-05
0.000568901
0.000558997
0.000551534
0.000546605
0.000544226
0.000544296
0.000546635
0.000550959
0.000557296
0.000565672
0.000575458
0.000586351
0.000597972
0.000609925
0.000622155
0.000634319
0.000646371
0.000658147
0.000668619
0.000676945
0.000682799
0.000685905
0.000686207
0.00068338
0.000677168
0.000667368
0.000653976
0.000636992
0.000616266
0.000591911
0.000564612
0.000534902
0.000503405
0.000470699
0.000437115
0.000402704
0.000368171
0.000334641
0.000302046
0.000270442
0.000240335
0.000212023
0.000185707
0.000161549
0.000139689
0.000120312
0.000103416
8.90029e-05
7.68496e-05
6.66604e-05
5.82347e-05
5.14124e-05
4.60185e-05
4.18586e-05
3.87502e-05
3.65563e-05
3.51576e-05
3.44553e-05
3.43628e-05
0.0198201
0.0178959
0.0161266
0.0144594
0.012875
0.0113734
0.00996294
0.00865293
0.00744961
0.00635478
0.00539048
0.00457745
0.00391176
0.00337125
0.00291583
0.00252467
0.00219831
0.00193468
0.00172556
0.00155712
0.00141766
0.0012981
0.00119108
0.00109038
0.000990051
0.0189113
0.0174924
0.0159247
0.0143302
0.0127651
0.0112596
0.00983718
0.00851525
0.00730612
0.00622125
0.00527221
0.00446344
0.00378896
0.00323435
0.00277997
0.00240836
0.00210673
0.00186432
0.00167083
0.00151555
0.00138828
0.00128024
0.00118425
0.0010943
0.00100497
0.0188957
0.0174
0.0158116
0.0141997
0.0126112
0.0110816
0.00963946
0.0083063
0.00709738
0.00602328
0.00508883
0.00429209
0.00362556
0.00307739
0.00263292
0.00227677
0.00199398
0.00177062
0.00159433
0.00145411
0.00134011
0.00124381
0.00115809
0.00107717
0.000996489
0.0190482
0.0173864
0.0157028
0.0140301
0.0124009
0.0108449
0.00938822
0.00805156
0.00684906
0.00578836
0.00487034
0.00409012
0.00343904
0.00290572
0.00247675
0.00213724
0.00187169
0.00166515
0.00150435
0.00137786
0.00127587
0.00119
0.00111329
0.00104014
0.000965973
0.0192343
0.0174143
0.0156142
0.0138586
0.0121738
0.0105841
0.009111
0.00777133
0.0065758
0.00552864
0.00462782
0.00386652
0.00323484
0.0027208
0.00231069
0.0019894
0.00174114
0.00155067
0.00140436
0.00129055
0.00119945
0.00112289
0.00105418
0.000988084
0.000920726
0.0193857
0.0174258
0.0155076
0.0136637
0.0119195
0.0102949
0.00880567
0.00746389
0.0062763
0.00524384
0.00436212
0.00362254
0.00301374
0.00252249
0.00213411
0.0018328
0.00160249
0.00142787
0.00129534
0.00119331
0.00111219
0.00104411
0.000982724
0.000923131
0.000861611
0.0195209
0.0174128
0.0153685
0.0134332
0.0116302
0.00997223
0.00846831
0.00712572
0.00594755
0.00493175
0.0040718
0.00335734
0.00277518
0.00231019
0.00194629
0.00166686
0.00145547
0.00129695
0.00117794
0.00108715
0.00101531
0.000954939
0.000900051
0.000846086
0.000789877
0.0196641
0.0173606
0.0151752
0.0131494
0.0112931
0.00960707
0.00809228
0.00675116
0.00558474
0.00458849
0.00375375
0.00306854
0.00251768
0.00208292
0.0017466
0.00149116
0.00129987
0.00115788
0.00105238
0.000972532
0.000909418
0.000856037
0.000806658
0.000756895
0.000704517
0.0197681
0.0172278
0.0148982
0.0127933
0.0108967
0.00919216
0.00767309
0.00633544
0.00518273
0.0042098
0.00340388
0.00275298
0.00223993
0.00184008
0.0015348
0.00130577
0.00113573
0.00101076
0.000919011
0.00085017
0.000795386
0.000748614
0.000703614
0.000655205
0.000602956
0.63837
0.617379
5.4516
1.55964
0.000503315
0.000751946
0.034336
9.46968e-05
4.07204
4.50591e-05
2.87993
0.000560391
0.00458402
0.00202661
0.0280857
0.000407748
2.93073
1.28073
2.9348e-05
0.0946702
0.00617684
0.000213293
3.25564
0.00264837
9.84071e-05
0.000148804
8.93584e-05
0.0110828
0.901067
2.80666
3.54753e-05
0.000193019
2.62667
0.00764156
2.77707
0.000276727
0.0224886
0.0283757
0.0249509
0.000475585
3.95511
0.000111391
0.000173901
0.0280198
0.00548767
0.000319057
4.54625
5.44755
1.4373
1.50386
4.17103
3.41539
0.00370574
1.13584
0.0319136
3.96873
0.00172434
0.00403385
0.000324065
3.40076
0.000434013
5.96281
0.000509577
0.00032423
9.69376e-05
0.025406
0.000232373
0.0120787
0.00530239
1.46321
3.60159
0.000292236
0.000236156
0.0848972
9.61573e-05
0.00558701
0.0647398
4.8989
0.000101466
0.899973
0.00662842
0.000616013
0.000111374
2.86196
0.000435795
0.000480802
0.000178594
4.76028
2.68629
0.00174455
0.00295806
0.000619355
6.91639e-05
0.000604477
0.000311638
2.90205
0.000157492
3.2721
0.000261693
3.32158
0.00402038
3.88852
0.00476404
0.000292148
0.000246595
0.00601334
3.48838
0.00638082
0.000258041
2.81054
0.000243187
0.000536793
3.46037
0.000274953
0.00368043
1.38855
2.75678
0.000399547
0.00342156
0.000376157
2.45518e-05
0.000518087
0.00262296
0.000111279
2.80245
0.00017254
3.4338
0.0545287
0.000258871
5.42278
0.000107727
0.0808261
1.52028
0.0195774
0.0138411
0.000183908
0.00514599
0.00236242
0.000372444
0.107159
0.000180366
0.0238738
3.52005
3.50047e-05
1.0668
0.000478293
1.80525
0.0240037
0.000408732
2.72869
0.00729326
0.000982306
1.82539
0.0421392
0.000163109
2.78115
0.00015442
0.000371
0.0588226
0.000124754
0.000168168
3.64672
0.000234897
3.50289
0.000113302
3.55732
0.00205033
8.27054e-05
0.000514398
0.000187843
0.00179181
0.00033744
0.012152
3.13841
0.000248573
0.00765127
0.0126249
1.18967
2.04263
0.000188224
0.0143388
0.000191878
0.00354634
0.0162822
0.0207589
0.000141857
3.89871
0.000236021
1.75321
0.000387785
4.67943
3.41637
1.44795
0.0234308
0.0339388
1.99499
9.36221e-05
0.000205987
1.21839
0.735417
0.0124364
0.000546634
0.000569016
0.000412227
0.00539318
8.77063e-05
0.000285606
0.00481504
1.54828
0.000293617
0.00023168
0.000650273
0.0135822
0.00498013
0.00905505
4.47633
0.000406286
0.000108343
0.000454972
0.00293969
0.00417817
0.00012802
0.000202304
5.96416
0.0275801
3.02738
0.00144169
2.92666
0.000236438
0.000272297
2.56475
0.000279633
0.000201563
0.000133315
0.0245946
5.82297e-05
0.0524145
0.00700804
0.0168351
0.044281
4.89184e-05
0.000441578
0.000116479
0.0176349
0.000209071
0.000155611
0.000178637
0.00801727
0.000394821
0.000109794
0.000195893
0.00836325
0.000105
1.37926
0.000228291
8.71455e-05
3.30307
0.0612255
0.0570142
2.94016e-05
0.00973659
0.000334166
0.000286845
0.000136206
0.0768945
0.000127722
8.97171e-05
2.20154
0.0351799
8.14628e-05
0.00828371
1.50564
0.000274142
0.000110508
3.15602e-05
2.19101
0.000377322
4.0172
0.00177518
3.89186
0.0290332
0.00771269
0.00959664
0.000315619
2.07667
0.000422589
0.00662682
0.14678
4.09628
4.89069
0.0454914
0.000252456
9.9169e-05
4.35777
0.0395589
4.36941
4.05961
0.000422452
0.000131444
2.53646
3.58423
0.000164463
0.000848561
0.000437144
3.73045
9.98354e-05
0.00663137
0.000125272
0.10724
0.000570076
0.000295765
0.000131465
2.15607
0.000203871
0.000290202
0.0253713
5.03844
0.00011504
9.88911e-05
0.0492021
0.0589255
0.00015509
0.000995298
3.50661e-05
0.000192684
0.0001255
2.67769
0.00684458
0.000376422
0.00429545
0.000108067
0.0325856
0.0033318
4.93113e-05
4.39229
0.000518951
0.000156238
0.000118877
1.27633e-05
0.00991087
0.000683214
0.000494203
2.80611
0.000118881
0.072703
0.000419039
0.00116052
0.000223724
0.000180877
4.33124
0.58185
7.13551e-05
0.000279755
0.055807
4.4102
0.0201558
0.0928395
0.0267591
0.000120355
4.76688
1.56031
2.82949
0.000105597
2.92085
8.22957e-05
0.000162481
0.000444256
5.17897
0.000258354
1.62932
0.000200022
0.0419291
0.885172
3.14304
0.00459041
0.000172067
0.000321059
0.00010461
0.000148617
5.43839e-05
3.97656
0.000326728
2.77727
0.0310918
0.0285647
0.0717744
0.000114366
0.0917458
2.61304
4.70893
0.0247273
8.90159e-05
0.00437163
2.47204
0.0141569
3.58985e-05
0.000104282
2.56378
0.000366866
0.928826
9.67726e-05
0.000177062
0.000441984
1.11108
0.000435041
7.27123e-08
0.0308868
0.00484585
0.0323983
4.96742e-05
1.84736
0.000274524
2.52788
0.000358212
0.000141733
0.0037107
1.58552
4.32858
0.000264856
0.000594472
0.000119559
0.000147279
0.00196906
0.00583876
0.000450581
4.35949
6.30252e-06
0.00112963
8.94829e-05
0.000185967
0.000389108
9.42965e-05
0.0018438
9.16038e-05
0.0440258
0.000420627
0.000237578
5.84448e-05
0.000213356
0.0018193
0.000113398
0.0441742
4.35893
0.0295418
0.00598138
5.58359
0.00817884
2.52201
0.000233024
0.000104449
3.09563
0.000155214
0.000234687
2.34646
0.000125463
1.36871
4.43855
0.000455736
0.00311936
0.0487341
0.00025304
0.0194422
1.77165
0.0123569
3.99364
0.00012128
0.000292682
6.2222
0.000108767
2.65823
0.00714662
0.000137742
2.80188
0.0020113
0.000110939
0.00597471
0.00148127
0.000124818
0.0237151
0.0178827
0.00919175
0.0227366
9.00928e-06
0.000512993
2.7656
0.000364091
0.000557817
0.000371211
1.34639
0.000208646
0.032712
0.000295749
0.000280369
2.35117
0.000244244
0.000530775
0.0311425
0.000394047
8.06425e-05
1.59085
0.000172271
0.044095
0.000310075
0.0144813
0.0114446
0.00907394
0.00040273
0.000376495
0.0322576
0.00018338
0.000159692
0.00806895
0.000244369
0.00128609
0.000147168
5.13231
3.62998
1.68683
0.000190137
0.0151549
6.46502e-05
4.85478
0.0970842
3.72086
0.00765683
0.000377797
4.20996
3.80702
9.16648e-05
0.000391113
0.0081654
0.000224687
2.54282
3.1356
0.000414338
0.038067
0.000179661
2.14889
1.32334
0.00031299
0.0476361
2.81711
0.00019814
3.80873
0.000348084
5.25331
0.000193897
0.00346153
0.00038507
3.90786
0.0228655
0.0221882
0.000245306
1.4278
1.6409
5.17503
0.000169519
0.000106479
0.00376769
1.76718
0.000105596
0.0185207
0.000180556
0.00498113
2.75953
3.68562e-05
0.0137522
0.000264698
0.000188859
0.012722
2.32892
0.000427251
0.0229266
0.000375934
0.000553212
3.40893
4.74726
1.82664
0.00391575
0.0139286
0.103193
0.00338649
0.000533778
6.87861e-05
9.73447e-05
2.54136
0.000182962
0.000781593
0.0664629
0.000481233
0.00126676
0.000612637
0.000305005
0.0402966
0.000132162
0.000364477
0.00628626
1.7412
0.000396843
0.000180173
2.83385
0.010932
9.89751e-05
0.00112579
0.0505955
0.000239023
0.000443724
8.02933e-05
0.0907111
0.000159428
0.000173678
0.0235452
0.000144507
0.000492469
0.00502405
0.00441439
0.000191556
0.00108324
5.48038
0.00035282
0.000101269
0.000153998
9.64412e-05
0.00166246
0.000286222
3.22482
5.46336
0.00988373
2.37506
0.000141257
8.29517e-05
0.000121003
0.000160426
0.000474379
0.000355706
0.00598992
0.00165101
0.000247348
0.000862406
0.0345314
0.0125625
0.0031029
0.0251203
0.0001923
0.000650577
0.000112145
0.0036937
0.0366691
3.15167
0.0396136
0.0550659
0.000183005
4.36756e-05
0.000235214
0.000402167
6.84503e-05
4.78516
2.93525e-05
0.0109724
0.000140197
1.99564
0.577239
2.79897
2.64222e-05
0.00012186
9.6249e-05
3.86644
2.59991
0.0199295
0.00352828
0.000249515
3.64176e-05
0.000416995
3.44639
4.55096e-05
0.000139323
0.0196985
0.000250885
0.000216014
6.39828e-05
0.000264391
0.00419141
0.00126143
0.000117658
9.20364e-05
0.00390731
0.000104536
1.10254
3.97114
0.000186244
0.0300815
0.000307132
2.76693
0.00010063
0.00011144
0.000114241
0.000144069
0.0830427
0.000383404
0.000159165
0.000329762
0.00980614
0.000221704
0.000380158
0.000260269
4.06148
0.0287858
0.00679584
5.16629
0.0325941
1.36556
2.79787
3.07204e-05
0.000146432
0.000110607
3.04406e-07
0.000291079
0.0287668
0.000465911
0.000231609
0.00404128
4.9068e-05
6.58026e-05
0.0118017
0.000139158
0.000130517
0.000107807
0.00693235
0.00825455
4.01961
3.81627e-05
2.17301
0.035875
1.1394
0.0113937
3.97383
4.07429
2.56182
0.000111403
0.000398918
1.98408e-05
0.00785455
0.000218359
0.0484529
0.883247
9.17365e-05
0.0650321
0.0304664
0.000175396
0.000102965
0.000294701
5.24719
4.71584
0.00014585
0.0395029
0.042672
0.00390424
2.39107
3.6757e-09
0.000108446
0.0122839
2.87265e-05
0.769978
0.0339934
2.99972
0.04082
9.75783e-05
0.0411973
0.000344933
2.07212e-06
0.018846
0.00110093
0.00291627
0.000130135
0.000172724
0.0355376
0.000408544
0.00014329
0.000170231
0.000300827
0.0207516
0.000448745
3.49096
0.0308642
0.000186573
0.459338
0.000341817
0.101648
0.000602929
6.91733e-05
0.000198197
0.0122811
0.0082821
3.51988e-05
0.00023538
4.38366
4.46345
0.0376147
0.000394071
0.0210285
0.028518
0.0470274
5.74726
0.0187135
0.00285251
0.000137052
3.32226
0.000264199
9.44384e-05
0.00400289
1.99325
4.90364
0.000212096
0.000315253
1.5558
0.000108047
4.88316
2.09893
0.000212197
0.000209772
4.67248
0.919109
0.926741
0.000106655
0.000121919
0.000152463
0.0184896
0.0222326
0.000146762
9.36194e-05
0.000637238
0.0352337
0.00090582
0.0143656
0.927451
3.70625e-05
0.000183791
5.03358
4.24029e-05
0.0073729
0.000523133
0.0117464
0.000164138
0.000294075
0.0338424
0.00027428
9.79807e-05
8.20876e-05
0.00920432
0.00804309
4.56523
0.000113419
0.000102514
0.000218475
0.024137
0.104648
5.4101
0.000325093
0.00895239
0.03022
7.04582e-07
9.94269e-05
0.00110444
2.61223
0.00023604
0.0845693
0.000429839
4.41986e-06
0.0212898
0.000381655
4.08911
2.83035
0.0218768
3.56448
3.92714
5.14798
4.41449e-05
2.2187
0.0211027
0.000170939
0.0309463
0.000237702
0.00116269
0.0587771
0.000369838
0.00262103
0.0132558
5.39967
0.000246072
0.000166693
2.12532
0.00228304
0.000450042
0.0328494
1.02188
0.0926034
7.72981e-05
0.0050709
5.21199
2.94733
0.0329878
0.00593425
1.39827
0.00193838
0.000143515
0.0165886
1.93363
0.00021909
0.0321959
0.0011947
2.11483
0.000452548
0.0182183
0.867408
4.66625e-05
0.000779844
8.16157e-05
2.40169
0.0716454
2.24645
1.24769
0.000463458
0.0125719
0.0136436
0.0031584
0.833595
0.004031
0.000102973
0.000408783
0.000348712
0.000171707
0.0211587
2.84881
0.000310787
2.37321
0.000232154
0.0504869
5.20052e-05
0.000247302
9.22539e-05
3.06311
2.0001
0.0102664
0.0094462
0.000176629
0.000246588
0.0429964
7.80136e-05
0.0686091
0.0220986
3.12914
0.000528409
0.0115975
0.0454491
0.000425941
0.00048897
0.000565671
3.20095
0.000453427
0.0033538
0.0485338
0.0316142
0.000306735
0.00312111
0.000103709
0.000254677
0.000439607
0.00023505
0.00547213
0.000154425
0.00635442
2.19867
0.098349
2.9572
0.000222143
0.00533905
0.0141068
0.000174366
1.02965
0.000610784
0.00166497
3.55581
0.000436004
0.0127392
0.00190436
8.23585e-05
1.48828
6.34196e-05
0.0144037
0.000195686
0.036186
0.0406676
2.70382
0.000207421
0.0442363
0.000183923
0.0154193
0.000400958
2.71379
0.0164098
0.00681061
2.82858
0.000712765
4.42982
0.000300605
1.29094
0.000807209
9.63793e-05
0.000405304
0.0194517
0.0305145
0.000423617
7.73547e-05
0.0667729
0.000114456
8.81377e-05
0.000250127
0.00019716
0.000318394
5.31435
0.000482391
0.000273999
0.0428129
0.00962542
5.12818
0.000143078
0.000122015
0.00022332
0.0107914
0.000539599
0.00101973
3.74175
0.0141292
0.0268421
0.000133388
0.00341222
0.0225633
2.46721
0.000101689
6.60279e-05
0.0009015
0.000522454
0.000198483
0.0329657
4.61099
1.15
0.0137987
0.000167917
0.0444247
3.13791
0.00722308
0.0479672
0.000435689
1.0764
2.70573
4.76017
0.0003343
0.000342663
0.00481692
2.1749
0.000484618
4.67036
0.00148184
0.0156273
1.67639
8.19285e-05
0.000609566
0.00149414
5.04303e-05
3.45341e-05
0.00264843
0.939028
3.38688e-05
2.14285
0.000164193
0.000205599
0.000147259
5.81982e-05
0.00431617
0.000590879
0.0984017
0.0130863
0.000379036
0.000431794
1.23298
2.70717
0.000102838
0.000286231
0.000265916
0.0478969
0.769757
0.00598212
3.70707
0.000143663
4.93404e-05
0.00370417
0.000297117
0.00494761
0.0409115
0.000140575
0.00016435
4.14293e-05
0.00268483
0.0151683
4.41136
0.0441079
5.23275e-05
0.00570607
5.98071e-05
3.36961
3.70053
0.000126086
4.80321e-05
0.0638429
0.000195432
0.000463984
1.2243
0.947363
0.0026307
6.02745e-05
0.000236018
0.0171663
0.928295
0.000322768
0.000270399
0.841123
2.30193
1.07137e-06
0.000184287
0.000195235
0.000239068
0.0174732
0.00363004
0.000255144
0.0478312
0.000361334
0.000156573
0.000270251
0.00485072
0.000228273
4.04034
1.6766
3.18197
0.788658
0.0790714
2.24853
0.000185231
3.1724
0.00529348
0.000103469
0.00618476
0.000387266
0.00446115
0.000150188
0.000261605
0.000357
2.4146
9.68384e-05
0.00900389
0.0421118
0.00175925
0.00542168
0.0154187
4.73555
0.000118632
4.3512
3.25104
0.00143856
0.000225317
0.0043255
0.00819035
0.00338367
0.0376264
5.03463
0.000170003
0.000286071
0.000198562
0.0212471
3.54208
0.000462742
0.00130899
0.000110928
0.000106781
0.000621993
0.0127477
4.87614e-05
0.00206062
0.00393183
1.49697
8.56579e-05
0.00481268
3.48991
0.000370156
0.00623678
0.00368682
2.86191
0.00675044
0.0184329
0.0033602
0.000212558
4.599
2.073
0.000323667
0.0153649
0.029075
0.000109172
0.000622307
0.00018432
0.0222073
0.000177364
0.00524172
7.15743e-05
0.0412393
1.35932
0.057683
1.36866
0.00392892
0.000520795
0.0642581
0.0389254
0.00140253
0.000339808
0.000938138
2.75136
0.000185357
0.00546275
0.000261577
0.000376987
0.0167327
0.00047131
0.000255314
0.000104739
2.38962
0.0641748
5.39913e-05
0.000340489
3.96657e-05
0.000153504
0.000359891
1.37205
0.000289986
0.0367936
1.97126
0.0341501
5.0231e-06
0.0498882
0.864747
0.102848
1.13087
0.00325879
0.0195276
3.04981
3.08327
8.81517e-05
1.8882
9.8851e-05
3.80801
0.201971
4.03682e-05
0.00549029
0.02758
4.75455
0.0107113
0.00760961
0.000161253
0.0363191
1.77307
0.031872
3.15359
0.000420692
0.101191
5.78387e-05
2.06161
0.00540018
0.0002459
0.000349544
0.073216
0.000392978
0.00176207
0.111698
0.000135142
1.35211
0.000251192
0.000154638
0.113525
0.0371068
0.00141662
0.00382413
0.0330947
0.000463888
0.00738967
0.0548796
8.28262e-05
0.010709
0.000123675
1.17967
0.0115104
0.000112841
4.11577
6.47399e-05
0.00560793
0.0490421
0.000144767
0.000239443
0.00523512
0.0168861
0.0329152
0.000254355
4.57729
0.000334398
0.00659589
4.38572
0.00662363
0.000377946
0.0644254
0.000312703
0.000160746
1.8885e-05
0.0506822
1.86917
0.000365462
2.48365
0.004814
0.000362104
0.0242569
0.000235015
0.000629414
0.00704237
0.000242153
0.000118545
0.0210877
0.000506352
0.00017183
0.000274476
1.32443
1.90712
0.00239034
6.93837e-05
0.000177416
0.00796479
4.47789
0.000279919
0.000373986
0.00637668
2.74282