/*--------------------------------*- C++ -*----------------------------------*\
  =========                 |
  \\      /  F ield         | OpenFOAM: The Open Source CFD Toolbox
   \\    /   O peration     | Website:  https://openfoam.org
    \\  /    A nd           | Version:  10
     \\/     M anipulation  |
\*---------------------------------------------------------------------------*/
FoamFile
{
    format      ascii;
    class       volScalarField;
    location    "1200";
    object      k;
}
// * * * * * * * * * * * * * * * * * * * * * * * * * * * * * * * * * * * * * //

dimensions      [0 2 -2 0 0 0 0];

internalField   nonuniform List<scalar> 
10435
(
1.29505
1.43504
1.72397
1.8314
2.00316
1.87023
1.6968
1.57891
1.39272
1.78751
1.70466
1.97412
1.72579
0.891468
0.917594
1.74283
0.871263
1.78452
1.26398
1.38945
1.66156
1.72906
1.77995
1.53376
1.79175
0.556079
0.715695
1.70772
0.664156
1.78085
1.87731
1.81832
1.52357
0.671524
1.6709
1.06542
1.75828
0.732175
0.44369
1.37449
1.83248
1.72474
0.696621
1.64201
1.82931
1.46595
1.83434
0.685234
1.29304
1.58394
1.62951
1.89248
0.431176
0.600591
0.471182
0.621245
1.7271
0.74987
0.822337
1.61034
0.462143
1.3011
0.741407
1.94475
1.8104
1.74587
0.778633
0.78294
1.61827
1.56323
0.594734
0.653786
0.546514
1.76861
0.952802
0.687448
1.60979
1.67561
1.45119
0.946577
1.64253
1.15863
0.419143
0.60763
1.64984
1.05601
1.2049
1.65596
0.974416
1.31125
1.7652
1.86241
1.23327
1.03239
1.42596
0.971159
1.94036
0.91746
0.848861
1.99502
0.94273
2.05874
1.11044
1.54281
2.01921
1.74356
1.31021
1.62051
1.65273
0.985425
1.52731
2.08049
1.09108
1.03327
1.94698
1.65879
2.02243
1.15073
1.61734
2.0095
2.02901
0.598579
1.2591
0.736683
1.99703
0.509995
1.99108
0.632641
2.00476
0.732725
0.683829
1.89096
1.68927
0.91537
0.693878
0.389673
0.872469
1.89404
1.50064
1.57462
1.4838
1.8599
0.741429
1.97901
1.77789
0.818623
0.79655
1.90135
0.839668
1.97672
0.642031
1.83589
1.32142
1.96074
1.85077
0.59809
2.06273
1.37845
1.81266
1.57407
1.91381
0.89033
1.83679
1.83128
0.99995
2.01748
1.5262
1.94012
1.80114
1.99289
1.82283
0.491933
0.655874
0.8546
1.92135
1.40697
1.17722
0.79837
1.46057
0.703841
1.57389
1.91373
1.98804
0.486564
1.88535
0.621624
0.624121
1.67183
1.99526
1.94765
2.01876
0.411048
0.704705
0.96917
2.0878
1.6486
0.772975
0.977726
0.744801
1.76084
0.993795
0.709878
1.71437
0.738968
1.72396
1.95372
1.73213
1.9286
0.748048
1.80384
0.579815
1.75649
2.01636
1.87168
0.701923
0.857679
1.05728
0.472247
0.562471
0.869414
0.678522
0.83553
0.771919
0.813745
0.587456
1.69063
0.499079
0.92044
1.90069
0.708813
0.808845
1.61303
0.528859
1.8362
0.760767
0.853148
1.69932
0.592943
1.70229
1.84881
1.53638
0.541834
0.486242
0.620966
1.89594
1.43582
0.894859
1.60365
0.532229
1.24114
0.553182
1.05705
1.74393
1.81557
1.63283
1.98715
0.489725
1.65026
0.551124
0.693483
1.66596
1.85642
0.546185
1.71063
1.12496
0.829573
1.42782
1.82993
0.451573
1.98828
1.67938
1.53964
1.60047
1.77153
0.59953
2.0104
0.728608
2.0067
1.70306
1.50043
1.75682
0.774559
1.68647
0.888705
1.13174
0.433031
1.97233
0.469651
0.613477
0.687243
0.834998
1.74362
0.744374
1.56864
0.450532
0.586115
0.791146
1.20511
1.9727
1.81949
0.773596
1.72845
1.68934
0.574255
1.90679
0.884233
0.82941
1.83104
1.78687
0.615567
1.38766
0.673881
1.09123
1.94136
1.4939
0.58726
0.497144
1.93936
0.801839
1.9506
1.97473
0.707399
1.22105
0.403479
1.45074
1.73088
0.640872
1.69202
0.805109
0.748662
1.50726
0.709808
0.614055
1.70077
1.92078
0.760768
0.588386
0.554982
0.636269
0.634864
0.670022
0.628457
0.452186
0.656456
0.631792
0.644409
0.773408
0.77516
0.396488
1.39283
0.618931
1.74818
0.701044
1.69572
1.3967
1.23099
1.71557
1.79561
0.61366
0.646753
0.570308
0.521818
0.621153
0.440704
0.686733
0.691508
0.757353
1.9083
0.675025
1.35533
0.495759
0.716398
1.72944
1.14846
0.434686
0.718722
0.736181
0.744631
0.643049
0.593036
0.843432
0.481319
1.48498
0.779854
1.57426
1.34662
1.70034
1.70715
1.29827
1.70147
1.58789
0.745676
0.555001
0.650224
0.597902
1.69941
0.63029
1.73779
0.814881
0.711186
0.730744
0.732313
0.515078
1.71692
0.740586
1.53433
1.82721
0.503937
0.626567
0.771539
1.18336
0.780675
0.652153
0.559809
0.621551
0.731721
0.670799
1.71355
0.594251
0.628182
0.670385
0.682024
1.78165
0.435027
0.399561
1.04908
0.640061
0.111787
0.109384
0.105465
0.100745
0.0956347
0.0902336
0.0846421
0.0789886
0.0734296
0.111614
0.108716
0.104584
0.0998185
0.0947234
0.0894475
0.0841051
0.0788622
0.0739379
0.111109
0.107861
0.103565
0.0987625
0.0937234
0.0885924
0.0834999
0.0786125
0.0741381
0.110518
0.107013
0.102572
0.0977485
0.0927769
0.0877908
0.0829201
0.0783135
0.0741361
0.110047
0.10634
0.101763
0.0969218
0.0920106
0.0871512
0.0824609
0.0780604
0.0740614
0.109886
0.106005
0.101294
0.096424
0.0915516
0.0867878
0.0822326
0.0779812
0.0741121
0.11026
0.106196
0.101329
0.0964031
0.0915365
0.08683
0.0823664
0.0782247
0.0744712
0.11151
0.107125
0.102049
0.0970245
0.0921237
0.0874313
0.0830144
0.0789425
0.0752811
0.113977
0.109002
0.103657
0.098487
0.0935087
0.0887824
0.084361
0.0803034
0.0766692
0.1177
0.111989
0.106373
0.101029
0.0959343
0.0911253
0.0866444
0.0825364
0.0788402
0.122376
0.116209
0.110442
0.104932
0.0996949
0.0947593
0.0901665
0.0859516
0.0821368
0.127663
0.121846
0.116143
0.110517
0.105127
0.100031
0.0952829
0.0909188
0.0869635
0.133927
0.129329
0.123847
0.118139
0.112582
0.107292
0.102351
0.0978004
0.0936829
0.143284
0.139408
0.133997
0.128145
0.122368
0.116837
0.111653
0.106874
0.102552
0.156789
0.152624
0.146919
0.140766
0.134677
0.128833
0.123344
0.118269
0.113639
0.174437
0.169019
0.162652
0.156029
0.149525
0.143295
0.137443
0.132036
0.127106
0.194994
0.188107
0.180946
0.173765
0.166778
0.160106
0.153846
0.148074
0.142859
0.216917
0.209214
0.201416
0.193708
0.18623
0.179096
0.1724
0.166222
0.160638
0.239954
0.231982
0.223775
0.21563
0.207702
0.200125
0.192998
0.186401
0.180402
0.264273
0.25637
0.247914
0.239415
0.231097
0.223126
0.215607
0.208628
0.202271
0.29024
0.28253
0.273861
0.265044
0.256395
0.248097
0.240251
0.232931
0.226216
0.318364
0.310689
0.301686
0.29253
0.28361
0.27508
0.267009
0.259444
0.252456
0.349416
0.341074
0.33142
0.321861
0.312746
0.30412
0.295978
0.288325
0.28125
0.384388
0.373738
0.36292
0.352919
0.343748
0.335228
0.327227
0.31967
0.312659
0.424363
0.408147
0.395794
0.385504
0.376544
0.368419
0.360837
0.35364
0.346168
0.196648
0.19669
0.197385
0.198734
0.200747
0.203416
0.206732
0.210666
0.215195
0.220268
0.225839
0.231847
0.238215
0.244866
0.251701
0.258621
0.265519
0.27228
0.278789
0.284929
0.290571
0.295577
0.29976
0.302818
0.304576
0.305206
0.304754
0.303133
0.300051
0.295834
0.290594
0.284355
0.277167
0.269158
0.260452
0.251181
0.24148
0.231486
0.221338
0.211174
0.201123
0.191312
0.181845
0.172817
0.164305
0.156368
0.149059
0.142434
0.136524
0.13135
0.126906
0.123162
0.120079
0.117599
0.115669
0.114235
0.113252
0.112681
0.112491
0.197135
0.197512
0.198497
0.200101
0.202324
0.205158
0.20858
0.212555
0.217057
0.222047
0.227478
0.233293
0.239425
0.245797
0.252323
0.258908
0.265452
0.271849
0.277988
0.28376
0.289047
0.29373
0.297677
0.300729
0.302709
0.303485
0.302991
0.301215
0.298227
0.294152
0.289063
0.283008
0.276046
0.268263
0.259759
0.250651
0.241066
0.231137
0.221
0.210788
0.200635
0.190667
0.181001
0.171746
0.162998
0.154839
0.147341
0.140561
0.134533
0.129275
0.124764
0.120966
0.117829
0.115294
0.113298
0.111783
0.110704
0.11002
0.109693
0.194694
0.195148
0.196169
0.197767
0.199944
0.202697
0.206012
0.209868
0.214233
0.219069
0.22433
0.229959
0.235892
0.242056
0.248369
0.254742
0.261079
0.267278
0.273233
0.278834
0.283963
0.288497
0.292299
0.295223
0.29713
0.297915
0.297511
0.295899
0.293107
0.28921
0.284284
0.278397
0.271617
0.264028
0.255723
0.246811
0.237408
0.227638
0.217628
0.207508
0.197408
0.187454
0.177769
0.168469
0.159663
0.151446
0.1439
0.137084
0.131033
0.125752
0.121221
0.117401
0.114237
0.11167
0.109641
0.108092
0.106974
0.10625
0.10588
0.188737
0.189199
0.190209
0.191774
0.193894
0.196563
0.199767
0.203485
0.207688
0.21234
0.217398
0.222809
0.228514
0.234443
0.240521
0.246663
0.252776
0.258762
0.264518
0.269931
0.274886
0.279261
0.282926
0.285754
0.287621
0.288429
0.288112
0.286647
0.284051
0.280372
0.275676
0.27003
0.263508
0.256193
0.248175
0.239555
0.23044
0.220946
0.211194
0.201306
0.19141
0.181632
0.172097
0.162926
0.154233
0.14612
0.13867
0.131945
0.125978
0.120774
0.116315
0.112559
0.109446
0.106915
0.10491
0.103377
0.102269
0.101547
0.101173
0.180421
0.180886
0.181877
0.1834
0.185455
0.188034
0.191125
0.194707
0.198752
0.203227
0.208089
0.213289
0.218769
0.224465
0.230303
0.236204
0.242078
0.247831
0.253361
0.25856
0.263314
0.267507
0.27102
0.273735
0.275547
0.276368
0.27614
0.274833
0.272453
0.269029
0.264612
0.259263
0.253056
0.246068
0.238389
0.230115
0.221346
0.212193
0.202772
0.193204
0.183614
0.174125
0.164865
0.155955
0.147509
0.13963
0.1324
0.125879
0.120097
0.115058
0.110742
0.107105
0.104092
0.101645
0.0997057
0.0982207
0.0971442
0.0964393
0.096069
0.16977
0.170189
0.171117
0.172562
0.174521
0.17699
0.179953
0.183391
0.187276
0.191574
0.196244
0.201238
0.206501
0.211969
0.217572
0.223233
0.228867
0.234381
0.239678
0.244656
0.249205
0.253217
0.256582
0.259193
0.260955
0.26179
0.261644
0.260489
0.258319
0.255156
0.251038
0.246019
0.240169
0.233562
0.226283
0.218421
0.210074
0.201346
0.19235
0.183205
0.174031
0.16495
0.156086
0.147558
0.13948
0.131948
0.125043
0.118821
0.11331
0.108514
0.104409
0.100956
0.0981017
0.0957901
0.0939635
0.0925703
0.091566
0.0909153
0.0905826
0.157063
0.157408
0.158247
0.159586
0.161428
0.163766
0.166587
0.169871
0.173591
0.177713
0.182196
0.186992
0.192047
0.197299
0.202679
0.208115
0.213522
0.218812
0.223891
0.228661
0.23302
0.236864
0.240094
0.242614
0.244336
0.24519
0.245127
0.24412
0.242159
0.239256
0.235444
0.230771
0.225305
0.219118
0.212287
0.204901
0.197046
0.188823
0.180346
0.171725
0.163075
0.154512
0.146154
0.138115
0.130504
0.123414
0.116919
0.111073
0.105903
0.101409
0.0975714
0.0943508
0.0916976
0.0895575
0.0878761
0.086604
0.0856985
0.0851255
0.0848511
0.1421
0.142299
0.142984
0.144166
0.145849
0.14803
0.150694
0.153824
0.15739
0.161355
0.16568
0.170311
0.175192
0.180261
0.185453
0.190703
0.195933
0.20105
0.205966
0.210576
0.214784
0.218492
0.221617
0.224081
0.225787
0.226682
0.226719
0.225875
0.224126
0.221479
0.217969
0.213643
0.208577
0.202849
0.19651
0.189654
0.182365
0.174728
0.166869
0.158876
0.150857
0.142917
0.135164
0.127709
0.120658
0.11409
0.108086
0.102688
0.0979204
0.0937822
0.0902553
0.087306
0.0848888
0.0829549
0.0814548
0.0803417
0.0795745
0.0791199
0.0789442
0.124514
0.124456
0.124897
0.125865
0.12737
0.129403
0.131939
0.134932
0.138386
0.142302
0.146571
0.151131
0.15591
0.160833
0.165876
0.17097
0.17609
0.181188
0.186081
0.190616
0.194718
0.198316
0.201371
0.203806
0.205545
0.206528
0.206718
0.206085
0.204568
0.202152
0.198921
0.194939
0.190286
0.185052
0.179279
0.17297
0.166247
0.159338
0.152245
0.144988
0.137706
0.130501
0.123456
0.116665
0.110219
0.104232
0.0987721
0.0939127
0.0896441
0.0859157
0.0827119
0.0800295
0.077849
0.0761296
0.0748214
0.0738892
0.073296
0.0730058
0.0729849
0.615397
0.57267
0.534379
0.498115
0.462997
0.428889
0.39599
0.364622
0.335103
0.30769
0.283187
0.262468
0.245772
0.232714
0.222123
0.21333
0.206492
0.201727
0.198884
0.197456
0.196958
0.196981
0.197145
0.197062
0.19625
0.586131
0.559682
0.527844
0.494053
0.459744
0.425686
0.39251
0.360759
0.330924
0.303526
0.279143
0.2582
0.240828
0.22686
0.215887
0.207501
0.20141
0.197356
0.19506
0.194168
0.194276
0.194996
0.195966
0.19683
0.19719
0.581332
0.554135
0.522832
0.489307
0.454828
0.420342
0.386655
0.354452
0.324337
0.296858
0.272453
0.251396
0.233781
0.219535
0.208448
0.200226
0.194525
0.190971
0.189194
0.188814
0.189441
0.190688
0.19218
0.193557
0.194476
0.581665
0.551214
0.518263
0.483706
0.448445
0.413313
0.379099
0.346512
0.316174
0.288597
0.26415
0.243046
0.225366
0.211072
0.200012
0.191927
0.186464
0.183211
0.181757
0.181688
0.182608
0.184123
0.185851
0.18743
0.188491
0.583114
0.549517
0.51429
0.478062
0.441556
0.405503
0.37062
0.337576
0.306951
0.279211
0.254679
0.233541
0.215865
0.201611
0.190634
0.182674
0.17737
0.174297
0.173019
0.173099
0.174126
0.175705
0.177458
0.179042
0.18015
0.584087
0.547721
0.510127
0.472015
0.434073
0.396958
0.361309
0.327732
0.296758
0.268806
0.24417
0.223013
0.205386
0.191227
0.180369
0.172532
0.167339
0.164353
0.163127
0.16321
0.164186
0.165662
0.167272
0.168693
0.16963
0.584692
0.545556
0.505491
0.465392
0.425931
0.38768
0.351188
0.317007
0.285623
0.257419
0.232668
0.211515
0.193981
0.179965
0.169259
0.16155
0.15644
0.153482
0.152217
0.152194
0.152987
0.154207
0.155496
0.156551
0.157137
0.585115
0.542756
0.500058
0.45795
0.416978
0.37758
0.340207
0.305357
0.273512
0.245028
0.220159
0.199041
0.181668
0.167853
0.157344
0.149783
0.144742
0.14177
0.140406
0.140192
0.140692
0.141513
0.142287
0.142703
0.142609
0.584794
0.538839
0.49349
0.449472
0.407097
0.366599
0.32835
0.292755
0.260379
0.231595
0.206594
0.185556
0.168461
0.154931
0.144677
0.137303
0.132326
0.129307
0.127808
0.127364
0.127495
0.127833
0.127903
0.127245
0.125815
1.76185
1.74691
5.06284
2.3182
0.0782977
0.0921788
1.2591
0.041863
4.24593
0.0715343
2.75962
0.0858029
0.592236
0.13763
1.3403
0.116182
3.08186
2.01439
0.0681934
0.877424
0.534955
0.110862
3.11141
0.200906
0.034267
0.0575301
0.0338621
0.383392
1.97342
2.91448
0.0692016
0.0710927
3.50439
0.695956
2.86442
0.0698202
1.14376
1.34675
1.19432
0.102511
3.89803
0.0145062
0.0869537
0.723745
0.287761
0.154288
3.59989
4.06324
2.41762
2.68988
3.40875
3.49557
0.537839
1.84286
1.21129
4.23136
0.126271
0.523347
0.0472476
3.18912
0.0892867
5.37784
0.076973
0.122507
0.0433607
0.668028
0.0829116
0.343891
0.606719
2.59923
4.03197
0.135636
0.0525938
0.931143
0.0360658
0.525902
1.04448
3.98891
0.0344976
1.56454
0.666843
0.113176
0.0513718
2.67686
0.079716
0.0918253
0.0505111
3.95877
3.54351
0.160226
0.212083
0.105532
0.0828671
0.0898115
0.0588323
2.78461
0.0582721
2.94395
0.0343391
3.15839
0.203423
3.90695
0.225363
0.141084
0.0427124
0.281186
3.27174
0.660779
0.0315364
2.93319
0.112046
0.0716373
3.35513
0.137653
0.530902
2.38616
3.46078
0.0973488
0.552794
0.0468088
0.00497954
0.0706029
0.198599
0.0350619
3.59437
0.0841649
3.53316
0.798743
0.0495944
4.06045
0.0490245
0.93677
2.63539
1.04714
0.448501
0.0500799
0.27839
0.147916
0.0884824
0.875242
0.116041
1.14562
3.24986
0.00666252
2.12574
0.132195
2.59946
0.780987
0.114698
2.84179
0.507216
0.114207
2.60317
1.5398
0.0417838
2.63414
0.0391739
0.095344
1.17332
0.0708849
0.0876356
4.01954
0.0950174
3.07356
0.088571
3.04325
0.146249
0.0330867
0.149274
0.0413668
0.12428
0.129361
0.350479
2.82612
0.0830605
0.318022
0.807764
2.30277
2.72543
0.117419
0.947667
0.0690684
0.540744
0.993189
0.597904
0.0378041
3.20821
0.0306031
2.91663
0.104099
3.75262
3.20896
2.44269
1.1197
1.43082
3.1132
0.0354503
0.107818
2.25781
1.82676
0.697558
0.174141
0.106852
0.106688
0.346699
0.0761677
0.0866938
0.224122
2.54481
0.0899869
0.0420778
0.0900949
0.921859
0.324879
0.604158
4.05939
0.0598618
0.0446704
0.175604
0.205811
0.192937
0.0167639
0.0446043
5.48905
0.259305
3.55506
0.151506
3.09331
0.028052
0.0563811
2.51038
0.0716319
0.0672834
0.0420805
1.18425
0.0741477
1.24743
0.276191
1.02084
1.60661
0.0688499
0.0884738
0.086245
0.529173
0.0508919
0.0521099
0.0718018
0.350334
0.114412
0.0755961
0.0234325
0.339294
0.0735527
2.39963
0.0530137
0.0331865
3.22876
1.06391
1.1944
0.0682808
0.341776
0.0561951
0.0852671
0.0391003
0.960184
0.03587
0.0770426
2.99778
1.25675
0.0331505
0.59929
2.52595
0.0390739
0.0425718
0.0694672
3.00549
0.0933568
4.04731
0.135918
3.48973
0.725461
0.53287
0.316482
0.153098
2.72907
0.0976512
0.2974
0.514316
3.48041
3.84217
1.5751
0.100728
0.0111279
3.59361
0.986706
4.05206
3.91417
0.0940183
0.0723239
2.90922
3.34836
0.0883847
0.115899
0.111151
3.77476
0.0817017
0.532963
0.0740984
0.871487
0.111389
0.138065
0.10689
3.23439
0.0450575
0.0375571
1.12455
3.86382
0.074814
0.0345808
1.21181
1.17779
0.0740909
0.121683
0.0686359
0.052745
0.0359236
3.41472
0.678059
0.0912258
0.531744
0.0874172
1.4114
0.16521
0.0726717
3.85552
0.0967379
0.0619402
0.0551461
0.00447791
0.336614
0.0919586
0.080636
2.95676
0.103228
0.965629
0.0594442
0.103833
0.0526804
0.0477159
3.42661
1.28587
0.0831986
0.0240755
1.2052
3.63768
0.232764
1.39936
0.719659
0.0853755
3.61605
2.57788
2.84391
0.067525
3.50537
0.0124692
0.0464464
0.1379
3.98588
0.0809198
2.8033
0.126352
1.52163
1.97259
3.47852
0.591782
0.037561
0.0476997
0.0922421
0.0686581
0.0728269
3.89761
0.121135
3.57058
0.768722
0.741783
1.22671
0.0902562
0.877462
2.64206
3.7609
0.892138
0.0763204
0.253665
3.27282
0.931666
0.0697004
0.081479
3.44211
0.0944877
2.00433
0.0422746
0.088331
0.0787605
2.27508
0.0753474
0.00029627
1.28847
0.268181
0.880671
0.0686107
2.91111
0.0821754
2.88483
0.0857292
0.0665907
0.127484
2.49951
3.4304
0.0814685
0.104417
0.0914752
0.0704443
0.170309
0.252941
0.143079
3.69227
0.00279254
0.134715
0.0719297
0.0720899
0.102199
0.0336561
0.163912
0.0339205
1.50693
0.132211
0.111941
0.00676211
0.0534856
0.126666
0.0706812
1.60345
3.65226
0.795339
0.618241
5.41618
0.307776
3.49777
0.0424939
0.0346597
3.46886
0.0827622
0.0931598
2.82903
0.105295
2.51252
3.45719
0.0926771
0.218147
0.861216
0.102876
0.577452
2.84282
0.877943
3.54164
0.0426783
0.046513
5.57934
0.0696305
2.68853
0.329982
0.0427585
2.83468
0.127762
0.0352792
0.63592
0.147436
0.0377225
0.80949
0.735255
0.611542
1.19722
0.00364335
0.0819383
2.62232
0.0688486
0.111843
0.151816
2.44306
0.120741
1.39105
0.103678
0.0453559
3.20081
0.0777668
0.0593755
1.36234
0.0963605
0.083857
2.77065
0.0881735
1.52719
0.0841527
0.460219
0.778406
0.751919
0.103926
0.103188
1.29709
0.0698039
0.0978618
0.721472
0.0826765
0.138779
0.0355795
3.96608
3.77662
2.55721
0.0386882
0.642145
0.0831687
3.83349
0.880073
4.16603
0.687263
0.160193
3.62271
3.97255
0.0758781
0.144217
0.328291
0.126448
3.36212
3.85106
0.0497992
0.883783
0.0886506
2.79856
2.35564
0.108529
1.18428
2.95649
0.106362
3.4711
0.0292375
5.1826
0.0777335
0.169223
0.0964598
3.93189
1.17476
1.2025
0.0489741
2.45326
2.54044
3.95219
0.0416685
0.0984681
0.570297
2.71297
0.0733485
1.05287
0.089902
0.602901
2.87979
0.0697937
0.630177
0.0446785
0.072046
0.37752
3.34777
0.169794
1.23819
0.0514834
0.0761499
3.33932
3.6387
2.76911
0.185327
0.392024
0.90978
0.53684
0.170107
0.0846327
0.0428984
3.41379
0.102462
0.0921179
1.33794
0.162322
0.122533
0.0980523
0.11824
1.44801
0.106805
0.0498682
0.64824
2.5897
0.0704993
0.069045
2.97865
0.386276
0.0147231
0.132716
0.786713
0.0559038
0.0993476
0.0710363
0.414017
0.0810827
0.0897173
1.19496
0.0509575
0.144807
0.248097
0.545023
0.0574488
0.102113
5.32608
0.134432
0.0398243
0.0731526
0.0957289
0.163783
0.0610141
3.11539
3.94461
0.352361
3.29702
0.0440663
0.0330142
0.0396296
0.0279081
0.132829
0.0441693
0.580393
0.160529
0.0474965
0.104173
1.30069
0.606678
0.172033
0.663264
0.10315
0.0866377
0.0504624
0.23684
0.86766
3.08785
1.45466
1.21929
0.0260275
0.0716015
0.0207957
0.165803
0.069994
3.66237
0.0692595
0.56647
0.0725897
2.8721
1.1509
2.695
0.00558373
0.0406495
0.0408959
3.9612
3.54054
0.5717
0.53496
0.0569875
0.0713706
0.0752834
3.26608
0.0088423
0.0648555
1.10332
0.066338
0.130738
0.0730028
0.0376378
0.544681
0.134832
0.0536645
0.0759621
0.201053
0.0913066
2.17014
3.60932
0.0717178
1.30744
0.0834005
2.74184
0.0444672
0.100402
0.0764308
0.0518844
1.3858
0.0926147
0.0995897
0.0473575
0.323916
0.0559616
0.155086
0.133782
3.47877
1.30113
0.483415
3.97723
1.40666
2.46892
2.86445
0.0689889
0.0392432
0.0407624
0.000629445
0.0999059
0.72183
0.124518
0.0650303
0.578062
0.0775174
0.0702719
0.429155
0.0805438
0.074629
0.0451203
0.484998
0.729827
3.98136
0.0716177
2.8374
1.1809
2.24567
0.579863
4.00647
3.45564
3.3626
0.0415626
0.110931
0.00506327
0.298311
0.087616
0.975072
2.01701
0.0938399
1.1504
0.809909
0.0540312
0.0443792
0.0813323
3.82994
4.95254
0.0588362
1.29767
1.48613
0.562228
3.08201
5.07524e-05
0.0738111
0.439794
0.00693437
1.89544
0.907881
2.96172
1.48687
0.0337458
1.49481
0.0383055
0.00182621
0.556497
0.114229
0.167601
0.0697663
0.0852682
0.552623
0.11125
0.0402055
0.0893173
0.098308
0.416323
0.0995407
3.32926
1.37448
0.105198
1.11843
0.128418
0.902594
0.0954114
0.0857583
0.125428
0.67584
0.562467
0.00819305
0.128359
3.46749
4.82302
1.04224
0.0905499
0.803998
0.872174
1.36822
5.4875
1.07825
0.198122
0.109024
3.13781
0.0311161
0.0408874
0.24467
3.1062
4.78283
0.0672902
0.0711474
2.73899
0.0378223
4.98315
3.11077
0.122888
0.0666524
4.41658
2.03275
2.01766
0.085582
0.0663921
0.0251308
0.768942
1.1575
0.0835168
0.038107
0.0651178
1.02662
0.0988137
0.451432
2.0501
0.0712869
0.0761687
5.08624
0.0733258
0.620763
0.0676473
0.646826
0.0799054
0.0499492
0.892371
0.1307
0.0961822
0.0833992
0.365107
0.626789
3.89509
0.0483552
0.0755288
0.0860168
1.26367
0.889791
5.21099
0.0387076
0.663591
1.37857
0.000886919
0.035062
0.0860915
2.52886
0.085168
1.00288
0.126801
0.00203623
1.12756
0.106796
4.42185
3.64783
0.748216
3.31975
3.42028
3.80565
0.0738809
3.1983
1.19036
0.118924
1.21411
0.0670858
0.0876973
0.891527
0.0913647
0.194283
0.59922
5.30716
0.0404356
0.0334334
3.19229
0.170866
0.112745
1.29453
2.14716
1.31469
0.08834
0.276753
3.98728
2.93497
0.976048
0.592971
2.5706
0.18322
0.038875
0.73183
2.68112
0.082231
0.408246
0.130326
3.13924
0.132172
0.943017
1.95789
0.00722531
0.0750027
0.0897876
2.83576
1.30357
2.96595
2.27494
0.168517
0.428263
0.596724
0.214684
1.96427
0.517028
0.0685792
0.102987
0.091625
0.0259906
0.837101
2.79451
0.0455836
2.86164
0.134739
1.26405
0.0786725
0.0644884
0.0400098
3.74557
2.9062
0.365007
0.62399
0.065873
0.0496901
1.53821
0.0714504
1.32453
1.07401
3.55498
0.0687652
0.329437
1.55798
0.115416
0.157134
0.104439
3.60596
0.0980682
0.180742
1.26593
1.32175
0.0468478
0.214707
0.0724751
0.128676
0.0537461
0.0549836
0.558405
0.0495029
0.309856
2.78111
0.891833
3.65174
0.0944998
0.28257
0.770942
0.0333182
2.08923
0.080898
0.113181
3.47321
0.124884
0.420648
0.181211
0.033131
2.48927
0.0747282
0.337659
0.035598
1.23177
1.33742
3.46511
0.0442481
1.1198
0.0681706
0.372122
0.117927
3.03722
1.02038
0.29244
2.97097
0.0890799
3.4966
0.0865705
2.34312
0.114504
0.0402168
0.0958648
0.982055
1.38106
0.0493221
0.0879625
0.914559
0.0647807
0.0927718
0.0468123
0.0324605
0.112062
4.03386
0.144473
0.0950503
1.46031
0.364117
3.7924
0.0234022
0.10397
0.0643177
0.185609
0.163467
0.0855848
3.9538
0.203604
0.709851
0.0663435
0.224006
0.838368
2.90337
0.0846069
0.0833137
0.121223
0.158407
0.0729794
0.41711
3.73508
1.84366
0.620682
0.0623944
1.56643
3.60732
0.301055
0.888329
0.119176
2.20129
2.76938
3.63058
0.0838635
0.0877214
0.244116
2.95805
0.171726
4.89513
0.15415
0.437709
2.75427
0.0341596
0.110935
0.118121
0.0744514
0.0696034
0.110786
2.06661
0.069962
3.2129
0.0801156
0.0684925
0.0488036
0.0720413
0.557293
0.0797557
0.922008
0.839018
0.0717702
0.139784
2.28552
2.62763
0.067292
0.0796766
0.132626
0.455576
1.40022
0.275474
3.40149
0.0548156
0.075901
0.563509
0.0794649
0.33692
1.53579
0.0702714
0.0475164
0.00900729
0.14278
0.956774
4.79878
1.09652
0.0775382
0.262613
0.0702136
3.78476
3.87436
0.0864337
0.0749857
1.16552
0.0819287
0.0546194
2.28248
2.05394
0.143662
0.0772032
0.0509043
0.514835
2.06714
0.0647382
0.0415596
1.94749
2.85262
0.00125333
0.0670521
0.0507772
0.136146
0.411185
0.553112
0.0855426
1.33596
0.0891164
0.114623
0.0661563
0.557185
0.0625024
3.49709
2.75646
3.55182
1.8978
1.2047
2.92566
0.0711426
3.57643
0.590235
0.0468155
0.261055
0.0539181
0.228776
0.0822152
0.0749963
0.0481398
3.33744
0.0346436
0.343045
1.5326
0.115441
0.286249
0.379818
3.61432
0.0203251
3.66005
2.95191
0.112205
0.0558001
0.255123
0.311165
0.224493
1.10431
5.12795
0.118081
0.0483159
0.0827159
1.07021
3.81739
0.127723
0.141659
0.0345971
0.065514
0.102157
0.419956
0.0746906
0.134687
0.256821
2.54287
0.0863023
0.267118
3.58512
0.106011
0.307719
0.236463
3.66024
0.317384
0.361024
0.553305
0.0928398
4.79859
2.75852
0.0710286
0.795349
1.34898
0.0828237
0.116558
0.122273
1.21686
0.0685687
0.611052
0.0852456
1.53183
2.54377
0.818584
2.43862
0.176185
0.098823
0.935673
1.07468
0.127729
0.14266
0.0911989
2.7702
0.122852
0.280912
0.0579885
0.158566
0.720296
0.0728479
0.0501675
0.0653913
3.04739
0.894683
0.0702708
0.156472
0.0682095
0.0784871
0.0966826
2.45272
0.145902
0.902693
3.06823
0.750284
0.00246126
1.12419
1.95588
0.885931
2.27616
0.225847
0.893414
3.48531
3.0751
0.0176023
2.6851
0.082967
4.03647
0.603053
0.0729913
0.612137
1.29222
3.85009
0.815673
0.308166
0.0869632
1.24969
2.8734
0.322663
3.51891
0.157696
0.884515
0.0797734
2.85565
0.362833
0.0424851
0.0987896
0.864776
0.0564659
0.169432
0.855511
0.0739943
2.34859
0.0352905
0.0955188
1.46619
1.21903
0.145869
0.553935
1.42574
0.164881
0.637225
0.391995
0.0905864
0.392613
0.0415933
2.35267
0.700563
0.0392065
4.03378
0.0838774
0.54838
0.366938
0.110578
0.05903
0.525792
0.871845
1.22902
0.052185
3.72861
0.0656865
0.621183
3.88057
0.470763
0.149989
1.17162
0.126065
0.0757895
0.00479684
1.25094
2.96805
0.0847858
3.44155
0.268493
0.0995154
1.07895
0.108186
0.0898209
0.637106
0.136054
0.0754012
0.25832
0.0711378
0.102571
0.14438
2.4852
2.86616
0.187076
0.0791077
0.0503429
0.661751
3.76357
0.0764107
0.0607807
0.283808
3.57028
0.0685526
0.985055
0.631129
0.0413882
0.578292
3.62391
0.0717609
0.216366
0.0773217
0.457843
0.064468
0.0735465
0.145624
0.467341
2.92951
0.0340026
3.4022
0.0481591
2.8561
0.0958297
1.12139
0.523712
0.923844
2.47706
0.122979
0.645155
0.161745
0.133839
0.138852
2.76305
2.80765
0.0895732
0.0880744
0.403525
0.138099
0.0914372
0.03717
4.04418
3.08792
0.856999
3.54192
0.151449
0.0428302
0.70767
0.211283
2.37694
0.0324437
0.116966
0.0408116
0.0969717
0.0809646
0.0865098
0.0861051
0.450711
3.90576
2.89786
0.0767044
0.289442
0.730087
3.88016
0.0873809
3.70571
2.05571
3.1661
0.121607
0.869303
0.0504246
0.151532
0.111359
0.113549
0.0684807
2.40407
3.64114
0.128669
0.319415
0.855287
0.301244
2.71579
4.10515
0.0857306
0.0452344
0.0924956
0.269727
0.799
0.036828
2.64507
0.743613
0.0939981
0.147937
0.149202
0.530609
0.158334
0.056991
0.0873832
0.0645234
0.164925
0.634333
0.141401
3.51073
0.124109
0.0962328
0.287721
0.135394
0.0663958
3.58737
2.78124
0.10119
2.96165
0.0725862
1.13361
0.124936
0.162064
0.0703748
0.045744
2.82875
0.111847
0.139289
3.49559
2.40938
0.0689852
0.0776736
0.0757573
0.146217
1.45285
0.0361579
0.0867317
3.60257
0.0870484
0.0731237
0.127792
3.07583
0.0954772
2.97344
2.314
0.0501329
4.64512
0.137327
0.032744
3.97651
0.462677
0.0700204
0.0017015
0.551351
0.139924
0.170293
0.0418264
1.31929
3.02272
0.0951983
0.0434683
2.79746
0.0951306
1.26904
0.900862
0.100382
0.809993
3.76766
0.0684712
0.738863
0.0889807
0.125388
0.153004
0.0802392
3.39196
2.69237
0.098174
0.0753213
3.31715
0.103946
0.159377
0.141094
0.76394
1.10768
0.040912
0.0685945
0.0756792
0.0722391
0.0397525
0.00195191
0.1211
0.15158
3.30622
0.561367
0.0773411
1.09448
0.136845
0.969631
3.84544
0.981102
2.96922
0.134829
0.00193501
0.578385
0.155774
0.0924239
2.46574
0.116474
5.528
2.79503
0.559874
0.117089
3.94916
0.0408384
3.11074
0.0833104
0.0817212
3.62502
0.371833
0.971055
0.100277
0.0745499
0.0414494
0.131502
1.41946
0.975926
0.0939626
1.88025
0.4548
2.76895
0.0338351
3.93022
0.101346
0.0783255
0.340645
0.0818073
0.549502
3.05161
0.705009
0.0464128
2.25649
1.33493
0.294714
0.876098
0.667926
0.0208776
0.619821
3.07991
0.071431
0.0744299
0.0766161
3.39878
0.0928973
0.0346183
1.29439
0.653095
0.299027
3.96422
0.791602
0.255429
0.28466
1.26136
0.139281
0.673158
0.0617395
0.0893438
0.0767838
3.45555
0.107737
0.97492
2.89174
0.0339114
0.943095
3.2816
0.0918733
2.75715
0.0717959
0.646266
0.152599
0.0364019
0.128386
0.0751723
0.051761
0.129467
0.0976499
0.0986234
0.113373
2.47081
0.678577
0.0994674
0.634228
0.0657338
0.0891153
0.0667149
0.0947679
0.12307
1.55043
0.0316666
1.37557
2.78913
1.51608
1.05381
0.238609
0.135248
3.48956
0.0791475
0.561216
0.101279
0.0737018
0.196907
3.01706
0.11649
0.0755603
0.0661022
0.23493
0.172146
1.49472
0.643164
1.15548
2.32493
0.082564
0.0573058
2.49712
0.078649
0.10658
0.0460189
0.177231
0.0484578
0.0682847
0.125036
0.0331716
1.10634
2.94316
1.09183
0.153439
0.0741395
0.917853
3.13662
2.7116
0.0430506
0.0935084
0.727834
0.0687277
0.0384942
0.139496
2.85914
0.792135
0.0654493
0.0731096
0.119636
0.0399829
2.83908
0.0550292
0.100599
0.104996
0.0958443
2.79902
0.0826956
1.54654
0.109855
0.116484
0.0391417
0.0535611
3.03416
0.440639
0.0625879
3.65633
0.768936
0.645418
0.0459571
0.0791751
1.22903
3.88104
3.94976
0.0744972
0.876571
0.0818437
0.0714925
3.31262
2.70579
0.0348983
0.0119477
1.0521
1.46387
0.0730291
0.0369937
2.88124
0.0756736
0.201265
0.181376
0.101743
2.76365
0.0801259
0.0848045
0.102609
1.93726
0.0719301
0.0436668
0.071137
0.111067
0.246965
0.126627
0.534117
0.799157
0.73571
0.10777
0.0986891
0.0703157
0.0460643
0.0996466
0.0851566
0.651407
0.0887067
0.112752
0.300552
1.84713
0.0568805
0.0353636
0.0998792
3.65044
0.0926038
0.908881
0.0307537
0.0765724
0.00848769
0.102377
0.0848445
3.68761
0.110118
0.0511627
0.378363
0.072979
1.34991
0.0936162
0.0722136
3.05195
3.06731
0.0375052
2.86878
0.0769369
1.03496
1.42899e-05
2.48993
0.0563904
1.26245
0.0789938
3.13925
0.562791
1.08714
3.20405
4.10344
0.113384
3.53252
0.0515495
0.0377851
0.0840551
3.10828
0.180785
0.0423449
0.743556
2.62259
2.12775
0.162089
3.80264
0.0393586
0.149197
0.0709037
0.523414
0.141846
1.64911
0.0867578
0.111275
0.0765652
0.0339312
0.151414
2.45346
0.0686245
0.0765343
4.02222
0.634581
0.037128
0.195589
3.07003
0.104767
0.0893602
3.40366
0.164989
3.85521
1.25517
0.0769
0.428554
0.850243
0.0373931
0.144493
0.0642422
0.0380057
0.15889
0.150817
2.88198
0.0438153
0.860373
0.29045
0.0927414
3.01395
1.0344
0.1463
0.0771198
0.0330231
0.0513445
0.0378699
0.749619
1.84121
0.0695139
0.0852045
0.10179
1.10291
0.127293
0.874995
0.117505
0.0791104
0.117532
0.133654
1.22083
0.124239
0.61831
1.1342
0.000201148
1.33356
0.10201
0.87173
0.54805
0.0860383
0.0811781
0.145909
0.0566083
0.132576
1.17238
3.46385
3.13926
2.77976
0.778748
0.00684918
0.0371821
1.25662
0.0471279
1.41658
3.97066
0.0811257
2.74669
0.881733
2.60531
0.106869
0.0467351
0.0859023
0.0723402
2.32262