/*--------------------------------*- C++ -*----------------------------------*\
  =========                 |
  \\      /  F ield         | OpenFOAM: The Open Source CFD Toolbox
   \\    /   O peration     | Website:  https://openfoam.org
    \\  /    A nd           | Version:  10
     \\/     M anipulation  |
\*---------------------------------------------------------------------------*/
FoamFile
{
    format      ascii;
    class       volScalarField;
    location    "1200";
    object      nut;
}
// * * * * * * * * * * * * * * * * * * * * * * * * * * * * * * * * * * * * * //

dimensions      [0 2 -1 0 0 0 0];

internalField   nonuniform List<scalar> 
10435
(
1.06645
0.403908
0.593799
0.739653
0.415298
0.405464
0.647711
0.889068
1.13648
0.457852
0.384233
0.786291
0.472785
1.63461
1.58121
0.758615
1.67013
0.435831
1.33181
1.0086
0.814767
0.920769
0.691152
1.31563
0.495863
1.78172
1.78748
0.531127
1.63207
0.434302
0.596492
0.38453
0.952037
1.63532
0.945801
0.605834
0.865271
1.86207
1.65039
1.31459
0.417702
0.647117
1.56899
0.773057
0.762486
1.3337
0.412901
1.63892
1.18261
1.15877
0.870521
0.474727
1.60781
1.61444
1.68471
1.56161
0.964592
1.81925
1.69479
1.07225
1.64793
0.439917
1.75777
0.477789
0.721332
0.559385
1.67261
1.74243
0.83065
1.34846
1.61612
1.86298
1.44733
0.593169
1.50321
1.46622
1.32653
0.687171
1.01083
1.58851
1.25973
1.29274
1.56616
1.61494
1.29756
0.857508
0.871242
0.622383
1.2106
0.775657
0.596613
0.575648
1.2305
1.10721
0.70575
0.737555
0.609872
1.42868
1.702
0.532479
1.32618
0.388875
0.985553
0.65759
0.393057
0.747763
1.1856
1.21084
1.31465
1.52265
1.13975
0.385877
1.36776
1.44653
0.498312
0.919893
0.564593
0.733732
0.487208
0.680967
0.601326
1.38804
0.634911
1.00899
0.363766
1.71019
0.651812
1.31212
0.470792
1.97205
1.18103
0.352544
0.822962
1.64251
1.88306
1.44507
0.632673
0.76359
0.518039
0.938399
0.967352
0.661818
1.66055
0.584226
0.947823
1.41553
0.805291
0.434467
1.62252
0.702119
1.6535
0.818211
0.918152
0.662835
0.451487
1.69914
0.372927
0.56459
0.447033
0.329904
0.71568
1.67959
0.462719
1.00002
1.41637
0.518554
0.986936
0.819746
1.00551
0.524803
0.495422
1.44686
1.63012
1.35152
0.821031
0.33167
0.506983
1.67405
1.14039
1.67749
0.389129
0.404019
0.714585
1.66361
0.702339
1.54515
1.46539
0.723083
0.408038
0.532236
0.672735
1.53099
1.94609
0.495603
0.382618
0.776284
1.55338
0.995815
1.65172
0.80131
1.31282
1.79585
0.501646
1.80466
0.536119
0.437604
0.46892
0.797573
1.73369
0.984235
1.59184
0.648349
0.603301
0.939875
1.72814
1.57192
1.32863
1.5608
1.7931
1.69864
1.65548
1.69213
1.69941
1.234
1.76214
0.871115
1.70963
1.13808
0.550309
1.3957
1.70968
0.928515
1.74713
0.862626
1.96464
1.69033
1.05363
1.80704
1.08153
0.54757
0.806324
1.71079
1.53613
1.58812
0.43962
1.0518
0.895725
0.81005
1.33941
0.350604
1.44287
1.21735
0.464606
1.00647
0.756997
0.461198
1.25221
0.720395
1.61796
1.73078
0.686408
0.504137
1.74774
1.18179
1.23332
1.70595
0.852568
0.639007
1.58232
0.454417
0.652043
0.886972
0.804839
0.51514
1.85036
0.701906
1.91694
0.403795
0.754865
0.936063
0.475521
1.61313
0.618326
1.26239
1.10958
1.51055
0.422562
1.66755
1.61412
1.65585
1.07536
0.340224
1.70866
0.846215
1.66599
1.59964
1.48681
1.14285
0.391158
0.557575
1.70865
1.0819
0.588547
1.43387
0.385407
1.50766
1.65721
0.906151
0.559307
1.60989
1.1551
1.80268
0.401727
0.41964
1.06819
1.56565
1.64429
0.610717
1.72661
0.820971
0.394756
1.70168
1.00572
1.4992
0.991192
0.501212
1.92398
0.561708
1.70691
1.88048
1.11475
1.65554
1.60244
0.608845
0.771152
1.77884
1.53104
1.40698
1.60023
1.57236
1.95736
1.78617
1.61196
1.63615
1.57441
1.71916
1.75111
1.99002
1.47049
1.05723
1.59748
0.512377
1.74987
0.535578
1.0488
1.23158
0.473521
0.624165
1.60678
1.63076
1.45659
1.73861
1.5401
1.54381
1.67902
1.96496
1.7654
0.866373
1.92358
1.10699
1.71037
1.98292
0.458088
1.32703
1.48555
1.8125
1.79165
1.88611
1.63257
1.83374
2.15445
1.68609
0.966696
1.72722
0.856249
1.10176
0.510711
0.488815
1.15701
0.557547
0.998347
1.29936
1.52318
1.62855
1.58778
0.581108
1.62348
0.45518
2.10423
1.6929
1.9789
1.68409
1.62546
0.691945
1.84839
0.90963
0.945943
1.51164
1.88527
2.0163
1.30807
2.07546
1.91231
1.69592
1.54764
1.71537
1.63951
0.564746
1.60668
1.8594
1.63602
1.61851
0.435307
1.44031
1.43796
1.46037
1.61997
12.9726
12.9845
12.9169
12.8284
12.7592
12.7478
12.8479
13.1431
13.7658
11.9748
12.0066
11.9999
11.9839
11.9896
12.0515
12.2161
12.5481
13.1266
10.8513
10.8969
10.9305
10.9663
11.0273
11.1428
11.3525
11.7081
12.2677
9.63239
9.68541
9.74336
9.8127
9.91
10.0598
10.2961
10.6629
11.2095
8.36308
8.41815
8.48761
8.57425
8.69013
8.85557
9.09971
9.46119
9.98871
7.09952
7.15244
7.22318
7.31336
7.43202
7.59593
7.82942
8.16503
8.64613
5.90125
5.94931
6.01347
6.09619
6.20492
6.35344
6.56123
6.85364
7.26273
4.82392
4.86382
4.9152
4.98263
5.07275
5.19684
5.36998
5.61103
5.94123
3.90849
3.93493
3.96904
4.01687
4.0842
4.17992
4.31558
4.50558
4.76613
3.16944
3.17817
3.19355
3.22138
3.26608
3.33415
3.4342
3.57742
3.77796
2.59379
2.58632
2.586
2.59721
2.62288
2.66738
2.73687
2.83955
2.98626
2.15347
2.13804
2.12887
2.12924
2.14127
2.16799
2.21375
2.28441
2.38768
1.82187
1.80923
1.79852
1.79378
1.79743
1.81204
1.84096
1.88841
1.95966
1.586
1.57995
1.57137
1.56499
1.56391
1.57074
1.58833
1.61993
1.66925
1.43489
1.43256
1.42567
1.41853
1.41449
1.41617
1.4261
1.44695
1.48173
1.35181
1.34883
1.34153
1.33312
1.32662
1.32448
1.32893
1.34217
1.36643
1.31689
1.31094
1.30168
1.29133
1.28237
1.27699
1.2772
1.28487
1.30171
1.31241
1.30395
1.29235
1.27973
1.26825
1.25992
1.25655
1.25985
1.27141
1.32737
1.31732
1.30361
1.28869
1.27469
1.26351
1.25687
1.25637
1.26349
1.35568
1.34455
1.32887
1.31163
1.29506
1.28107
1.27131
1.26729
1.27038
1.39402
1.38175
1.36391
1.34414
1.32489
1.30803
1.29517
1.28777
1.2872
1.44086
1.42665
1.40595
1.38322
1.36103
1.3412
1.32519
1.31436
1.31008
1.49613
1.47787
1.45294
1.42659
1.40117
1.37824
1.35901
1.34466
1.33655
1.56129
1.5341
1.50292
1.47225
1.44339
1.41736
1.3949
1.37687
1.36457
1.64014
1.59277
1.55341
1.51832
1.48609
1.45725
1.43173
1.40983
1.39192
3.7213
3.79854
3.88533
3.98138
4.08658
4.20051
4.32276
4.45264
4.58964
4.73287
4.88163
5.03513
5.19238
5.3526
5.51459
5.67737
5.83981
6.0007
6.15885
6.31309
6.46206
6.60446
6.73891
6.8638
6.97811
7.08194
7.17495
7.25667
7.32644
7.38571
7.43523
7.47577
7.50857
7.53547
7.55873
7.58114
7.60604
7.63724
7.67922
7.73709
7.81653
7.92394
8.0659
8.24929
8.4809
8.76679
9.11156
9.51746
9.98189
10.4968
11.0469
11.6097
12.1572
12.6573
13.079
13.3942
13.5829
13.633
13.5481
3.67874
3.75665
3.84349
3.93926
4.04383
4.15691
4.27811
4.4069
4.5427
4.68484
4.83257
4.98509
5.1415
5.30086
5.46214
5.62429
5.78619
5.94665
6.10449
6.25849
6.40741
6.55
6.68504
6.81128
6.92757
7.03305
7.12722
7.20995
7.28158
7.34277
7.39417
7.43658
7.47117
7.49956
7.52381
7.54653
7.57082
7.60038
7.63952
7.69318
7.76698
7.86718
8.00062
8.17452
8.39614
8.67217
9.00788
9.40573
9.86373
10.3739
10.921
11.483
12.0314
12.5347
12.9609
13.2819
13.4768
13.5333
13.4531
3.60334
3.67787
3.76126
3.85361
3.95482
4.06468
4.18287
4.30889
4.44219
4.58211
4.72789
4.87873
5.03373
5.19193
5.35234
5.51387
5.6754
5.83577
5.99377
6.14818
6.29774
6.44119
6.57728
6.7048
6.82267
6.93009
7.02652
7.11177
7.18597
7.24956
7.30317
7.34761
7.384
7.41381
7.43896
7.46183
7.48532
7.5129
7.54868
7.59742
7.66464
7.75658
7.88018
8.04295
8.25254
8.51618
8.83968
9.22601
9.67375
10.1755
10.7169
11.2764
11.8263
12.3353
12.7715
13.1063
13.3179
13.393
13.3322
3.48703
3.55765
3.63714
3.72558
3.82295
3.9291
4.04373
4.16643
4.29666
4.4338
4.57712
4.72583
4.87904
5.0358
5.1951
5.35587
5.51698
5.67726
5.83548
5.99039
6.14075
6.28527
6.42273
6.55193
6.67185
6.78165
6.88076
6.9689
7.0461
7.11266
7.16911
7.21621
7.255
7.28686
7.31353
7.33724
7.36068
7.38713
7.42051
7.46545
7.52737
7.61249
7.72784
7.88108
8.08016
8.33268
8.64487
9.02026
9.4581
9.95179
10.4877
11.045
11.5966
12.1113
12.5576
12.9063
13.1349
13.2292
13.1886
3.33701
3.40328
3.47841
3.56257
3.65577
3.75791
3.86874
3.9879
4.1149
4.24913
4.38991
4.53643
4.68784
4.84319
5.00146
5.16158
5.32241
5.48277
5.64142
5.7971
5.94855
6.09449
6.2337
6.36502
6.48744
6.60014
6.7025
6.79419
6.87512
6.94546
7.00565
7.05636
7.09856
7.13352
7.16287
7.18869
7.21352
7.2405
7.27342
7.31681
7.37603
7.45729
7.56769
7.71499
7.90732
8.15252
8.45714
8.82512
9.25623
9.74447
10.2769
10.8334
11.3875
11.9085
12.3647
12.7269
12.9719
13.0848
13.0641
3.1563
3.21767
3.28802
3.36755
3.45631
3.55428
3.66123
3.77685
3.90066
4.03211
4.1705
4.31508
4.46497
4.61924
4.77686
4.93675
5.09776
5.25869
5.41829
5.5753
5.72843
5.87644
6.01807
6.15221
6.27785
6.39417
6.50054
6.59655
6.68207
6.75717
6.82221
6.8778
6.92483
6.96449
6.99833
7.0283
7.05682
7.08693
7.12232
7.16745
7.22762
7.30903
7.4188
7.56477
7.7552
7.99808
8.30022
8.66586
9.09515
9.58257
10.1157
10.675
11.2344
11.7635
12.2307
12.6066
12.8678
12.999
12.9979
2.9482
3.00409
3.06917
3.14371
3.22783
3.32152
3.42464
3.5369
3.65786
3.78696
3.92353
4.06679
4.21588
4.36984
4.52764
4.68817
4.85029
5.01275
5.1743
5.33365
5.4895
5.64059
5.78571
5.92376
6.05372
6.1748
6.28634
6.38793
6.47936
6.56067
6.63219
6.69448
6.74843
6.79518
6.8362
6.87338
6.90905
6.94614
6.98829
7.03987
7.10611
7.19321
7.30829
7.4593
7.65458
7.90229
8.20937
8.58029
9.01544
9.5096
10.0507
10.6192
11.1894
11.7307
12.2117
12.6028
12.8806
13.0296
13.0471
2.71363
2.76306
2.82213
2.89119
2.97043
3.05993
3.15956
3.26905
3.38797
3.51578
3.65176
3.79505
3.94472
4.09978
4.2592
4.42191
4.58675
4.75243
4.91763
5.08096
5.24116
5.39696
5.54721
5.69087
5.8269
5.95453
6.07312
6.18225
6.28166
6.37143
6.45194
6.52378
6.58787
6.64535
6.69763
6.74669
6.79479
6.84465
6.89993
6.96486
7.04468
7.14555
7.27466
7.44018
7.65068
7.91437
8.23833
8.62689
9.08048
9.59409
10.1558
10.7459
11.3381
11.9012
12.4027
12.8129
13.1081
13.273
13.3056
2.45271
2.49381
2.54551
2.60843
2.68284
2.76882
2.86608
2.97407
3.09273
3.2218
3.35988
3.50584
3.65854
3.81694
3.98025
4.14737
4.31749
4.48932
4.66086
4.83068
4.99763
5.16051
5.31842
5.47034
5.61512
5.7522
5.88084
6.00069
6.11151
6.21355
6.30747
6.39388
6.47351
6.54765
6.61771
6.68649
6.7562
6.82814
6.9065
6.9957
7.10122
7.22917
7.38653
7.58262
7.82689
8.12712
8.49034
8.9184
9.41119
9.96597
10.573
11.2118
11.8527
12.4613
13.0023
13.4413
13.7526
13.922
13.9515
1.71968
1.64929
1.59367
1.54437
1.49848
1.4556
1.41652
1.38282
1.35664
1.34082
1.33894
1.35448
1.38975
1.44575
1.52288
1.62234
1.74566
1.89304
2.06306
2.25351
2.46272
2.69019
2.9368
3.20529
3.50111
1.63498
1.61167
1.57464
1.53298
1.49022
1.44844
1.40952
1.37556
1.349
1.33278
1.33016
1.34426
1.37764
1.43209
1.50888
1.60902
1.73299
1.88028
2.04949
2.23887
2.44684
2.67303
2.91851
3.18631
3.48224
1.60964
1.58827
1.55593
1.51749
1.47632
1.43499
1.39584
1.36128
1.33395
1.31676
1.31283
1.32523
1.3567
1.40951
1.48525
1.58476
1.70794
1.85376
2.02059
2.20655
2.4102
2.6311
2.87022
3.13023
3.41586
1.59858
1.5728
1.53945
1.50088
1.45951
1.41768
1.37773
1.34215
1.31361
1.295
1.28939
1.29982
1.32917
1.3799
1.45369
1.55117
1.67185
1.81423
1.97639
2.1562
2.35222
2.56398
2.79233
3.03969
3.31025
1.59101
1.56063
1.52454
1.4842
1.44141
1.39822
1.35686
1.31974
1.28953
1.26908
1.2614
1.26955
1.29644
1.34455
1.41548
1.50965
1.62619
1.76321
1.91846
2.08957
2.27504
2.47441
2.68855
2.91984
3.17236
1.58386
1.54942
1.51027
1.46753
1.42268
1.37755
1.33425
1.29514
1.26283
1.24014
1.23007
1.23564
1.25973
1.3047
1.37199
1.46173
1.57268
1.70259
1.84888
2.00901
2.18141
2.3656
2.56247
2.77441
3.00564
1.57615
1.53833
1.49636
1.45111
1.40389
1.35643
1.31077
1.26926
1.2345
1.20927
1.19655
1.19931
1.22031
1.26174
1.32476
1.40916
1.51333
1.63469
1.7703
1.91755
2.0747
2.24117
2.41777
2.60699
2.81346
1.56694
1.52716
1.48303
1.4354
1.38566
1.33558
1.28724
1.24303
1.20557
1.17762
1.16211
1.16197
1.17977
1.21739
1.2757
1.35407
1.45056
1.56224
1.68592
1.8188
1.95893
2.10544
2.25884
2.42144
2.59804
1.55698
1.51681
1.47117
1.42123
1.36881
1.31585
1.26458
1.21751
1.17733
1.14668
1.1285
1.12561
1.14026
1.17404
1.22742
1.29937
1.38757
1.4888
1.5997
1.71724
1.83929
1.96457
2.09252
2.22406
2.36278
0.43763
0.444871
0.423162
0.310114
1.09623
1.01699
4.1554
1.66559
0.398452
10.2209
0.23799
1.18238
6.8863
0.841192
5.75651
2.97937
0.291669
0.285149
14.2609
0.731893
4.16976
5.18595
0.26762
1.37167
1.07391
2.00178
1.15487
1.19366
0.388977
0.272379
12.1492
2.35663
0.420786
5.70458
0.265907
1.58545
5.23543
5.75264
5.14515
1.98864
0.34576
0.170019
3.91305
1.68247
1.35806
6.71491
0.256547
0.272764
0.365991
0.433012
0.25072
0.321987
7.02541
0.269097
4.13771
0.406024
0.832196
6.11087
0.619969
0.269158
1.65316
0.436523
1.04643
4.1659
1.74559
1.58086
2.66249
0.881184
6.24807
0.415551
0.406241
5.66577
1.05417
0.91914
1.21745
4.45526
1.5166
0.292315
1.0556
0.244786
6.03782
1.87137
2.13259
0.225335
1.31235
1.57834
1.28573
0.296299
0.420686
1.32442
1.36851
1.61834
8.93567
1.20096
0.999594
0.240474
1.94046
0.238383
0.405534
0.27029
0.926353
0.353292
0.959475
6.1319
0.665836
1.18335
0.276169
6.15856
0.346879
0.275508
4.6462
0.860426
0.292778
6.20237
6.89244
0.369046
0.39101
2.1347
8.03792
0.524239
0.0908944
0.865935
1.35334
0.994263
0.414906
3.695
0.327187
1.05301
0.855116
0.273634
2.00791
0.97714
0.41116
5.04076
1.30797
1.22735
1.35544
0.833522
1.89189
0.643387
6.71914
4.94773
0.270036
0.114128
0.381222
3.28835
0.336876
2.28693
2.8968
0.266363
3.17473
1.19503
0.334112
5.06391
0.963338
0.224541
0.894402
2.20524
2.10634
3.6249
4.11016
0.398744
3.45916
0.242717
6.23143
0.234313
0.938865
1.19128
3.89861
0.819881
0.775804
4.46324
0.909743
0.229042
2.49792
1.18966
4.6514
0.401159
0.327283
6.59243
5.6369
2.23757
7.42073
5.45248
1.54989
0.906713
0.237601
0.357129
0.436688
2.51502
0.270843
0.271273
0.370875
4.81569
5.42899
0.437234
1.2081
5.07911
0.376557
0.408386
3.52135
4.99283
1.80586
2.48506
2.00587
5.95323
2.36838
0.938885
0.376447
2.4821
0.687797
1.12343
5.63121
1.90742
3.62789
0.331316
0.793799
1.6576
6.09995
1.29682
0.801841
0.197569
0.8851
0.454661
0.219416
0.375725
1.43295
0.294251
0.299539
1.05067
0.221144
1.65146
2.02138
1.19543
5.13203
8.49754
2.67194
0.979639
5.57116
5.2462
8.7212
1.59538
5.74728
1.42911
1.11493
1.57052
2.59742
1.37778
2.9839
4.68448
0.252267
1.23885
4.63714
0.37574
1.10798
1.13742
0.284051
1.66386
2.25196
14.2715
1.07974
0.850505
2.28117
1.0102
1.07909
0.906648
5.95428
0.36738
4.04057
1.21413
3.90204
0.381392
0.501234
1.47602
13.7614
0.371047
2.07885
0.366988
0.936602
0.281623
1.63146
3.31344
0.93934
6.68376
0.322777
2.03086
1.20121
0.162194
0.266142
0.27166
4.90827
3.61706
0.112382
0.266711
2.215
0.338198
0.339655
1.88317
3.5815
0.30031
0.281521
4.27492
1.42469
2.54356
0.343764
6.01756
3.85508
3.94463
0.637393
1.95881
5.80045
7.82183
0.436683
0.896235
0.437449
4.48602
0.266674
4.37886
1.08832
2.68615
2.11874
3.18559
1.33891
12.0909
1.29945
0.92546
0.391915
6.04548
1.98977
5.92432
6.36421
5.50194
0.737287
9.63888
0.304591
1.62296
2.21004
2.30237
0.141393
1.02895
1.11396
1.18412
0.280394
8.06719
1.15428
0.75894
0.836108
1.11642
1.13289
0.243983
0.255755
8.7307
0.186473
2.34247
0.270043
0.241921
1.89831
1.7419
5.45061
0.246874
0.383315
0.257256
3.88617
0.378618
0.170036
1.19493
3.85247
0.276087
2.28106
0.434087
7.18339
4.9699
0.395627
0.346483
6.86618
0.737936
0.637808
7.32028
2.85468
8.77719
0.343821
4.04201
0.413143
1.71055
1.73367
1.88693
6.41063
0.755288
0.240427
0.270336
2.89688
5.8892
1.32471
0.389969
5.51816
12.1797
5.7296
0.415921
2.19021
0.389267
1.66207
3.96592
1.26315
0.419264
1.17449
0.108645
4.83746
1.33576
2.1545
8.52895
0.412867
2.21384
0.296296
1.84655
2.81578
0.394182
0.354634
0.244673
2.25534
1.65066
6.29894
3.03244
1.32575
0.986192
4.08905
0.281446
0.111359
1.4459
5.20379
2.51511
2.4158
1.08112
1.31145
1.13046
4.64216
3.74007
4.74696
0.0704145
1.20673
0.793709
3.965
5.23822
0.275413
1.92713
5.75117
0.47284
1.04237
0.436594
0.697422
1.03511
0.349838
3.97169
3.32821
0.306975
7.95324
0.415099
0.242352
1.69619
1.37302
1.36972
3.76429
1.54358
0.410546
5.61393
0.282672
1.35166
0.665265
0.450261
4.01185
0.244726
1.37127
1.19459
0.258107
0.730415
1.00971
6.09159
1.32075
1.02605
2.4868
2.72072
3.66182
5.67368
0.132603
1.17789
0.223782
1.17171
2.01823
5.58803
0.39897
6.28842
5.32379
3.27111
0.660359
0.392173
2.22847
0.597787
5.36366
2.12076
7.84796
0.434289
4.06168
4.76036
2.05547
1.31633
4.7649
5.60775
2.41368
2.54533
4.69407
2.39138
5.39742
5.80582
2.51745
1.34779
0.774153
0.275836
0.353627
0.348901
0.708488
2.44881
9.62924
0.272435
0.718011
0.4198
5.55187
6.11327
0.280564
0.373076
5.65292
4.78597
1.18791
6.40453
0.400086
0.425678
0.538683
1.84665
3.93687
0.328018
0.377388
3.38691
2.64981
0.27925
5.13855
0.284706
0.221023
0.460155
2.80471
0.744548
2.17468
0.356047
5.43202
5.86529
0.879969
0.37937
0.35398
0.271647
0.921804
8.19536
7.76909
0.374847
4.58539
5.38681
4.02875
6.56759
0.270477
11.895
2.59895
0.678717
2.47358
1.00825
0.433111
6.073
6.01832
0.634549
0.943387
0.294402
0.25101
0.377807
0.789415
0.993026
0.721877
7.65917
4.87896
9.37171
1.70143
0.412714
5.16424
0.977124
2.42401
4.9277
1.06673
1.41239
4.12539
4.68291
7.76824
0.614072
6.01619
0.346651
1.12718
2.38132
0.281777
1.2284
0.197114
1.40809
1.10094
1.17675
2.00191
5.65619
0.170066
3.71138
4.1711
5.45812
1.61722
3.83215
1.10263
6.05621
1.55064
0.866324
0.465851
4.60991
1.40949
3.12742
8.55197
1.45221
1.17058
0.27087
0.256325
1.13057
0.411919
1.23722
1.18255
1.16812
0.436946
3.34734
0.493619
5.06134
1.40475
0.820837
1.1325
4.40935
2.63683
0.858415
1.57612
4.97963
1.03838
2.04361
1.36676
1.84774
0.272279
4.80751
2.42982
0.333154
10.5645
0.165473
6.15208
6.44152
0.252273
14.7081
2.63206
3.38262
0.372014
0.20652
0.23354
0.1062
1.22037
1.56389
0.365245
0.433934
1.47599
7.29998
1.1714
12.5884
1.22323
0.278568
0.154622
2.71714
5.56179
1.57867
7.12136
7.49649
0.482218
6.37039
1.29708
2.20289
5.64257
0.931081
7.17763
0.384436
0.295242
2.4855
5.11432
2.03824
0.244527
1.76846
8.14116
4.60211
1.68169
2.08134
2.01347
5.6082
0.612095
0.962965
1.2713
5.6941
6.18898
0.268169
5.29307
3.09485
0.275566
5.46365
0.401739
0.263935
13.9436
0.946531
1.35201
0.11714
3.08612
1.63013
2.99506
1.6433
7.44169
11.0216
6.75402
1.40452
4.19564
3.84052
1.69957
3.05381
5.80749
0.354913
12.0961
0.333444
3.49849
0.398345
2.656
0.363545
0.263783
0.397233
1.39557
2.77629
0.116291
1.01967
3.16401
1.76602
0.41455
8.63923
1.83154
1.93773
1.498
1.72152
2.02016
0.251594
0.4681
2.13612
3.83658
4.65813
7.2867
0.357535
0.063069
4.5214
1.41712
0.150651
0.419939
2.18226
0.263178
4.87434
1.05034
4.88143
0.382851
0.144853
1.47894
1.06669
0.866893
3.36619
3.78846
0.773413
2.72648
1.0153
4.21769
2.89136
0.751713
1.98721
0.285755
5.50891
5.33841
0.245091
4.34212
0.721322
1.35887
9.56877
7.1439
3.34729
3.43792
0.171635
6.29982
0.246851
0.46904
2.59909
1.8726
2.76658
2.40065
3.58266
0.471554
5.59148
1.23846
7.8055
0.266724
0.329824
1.59321
1.34595
0.435653
0.419849
1.92139
1.44511
0.433981
1.19158
0.457667
0.414937
6.40504
1.90602
0.375723
0.404618
0.39535
6.18057
3.25391
0.372813
2.87807
5.42369
4.27738
1.396
0.598879
2.69217
0.970142
1.27674
0.40785
12.3403
2.84099
0.46255
11.412
4.70387
0.787284
3.20563
3.50095
0.763554
2.11774
5.60531
8.49751
7.62586
1.30344
4.39605
0.299098
1.85543
5.00824
3.04794
5.95428
0.68091
0.451728
0.414789
4.42694
5.65987
0.10048
1.11279
0.603977
0.220333
2.76572
1.07035
3.36654
0.0844283
5.37467
2.68956
0.430351
0.423128
2.3031
0.278264
0.268096
0.2532
11.1282
0.414938
6.04309
7.44635
4.287
1.70401
0.595321
1.21704
2.03137
1.2961
2.43786
0.469461
0.598008
0.603511
0.431542
1.15091
2.54203
4.59131
0.406041
1.67982
9.08634
1.35939
0.274531
0.26304
2.59915
5.33266
0.425325
1.55865
0.947734
2.90571
0.334581
2.77774
0.465893
1.27951
0.419388
3.4742
4.39313
0.397736
0.10069
0.649214
8.88999
0.301346
2.13464
0.35243
0.373316
5.51465
1.31299
2.34889
1.31333
0.416571
5.96839
4.11057
2.33517
2.16673
0.354069
2.98064
0.246712
0.601723
0.310553
7.03807
2.84836
10.7113
1.51348
1.56168
0.412208
0.380051
1.16796
3.70972
2.21103
0.901179
4.95269
5.88954
2.30137
4.69784
0.363488
0.805397
0.842212
4.80663
2.81463
4.54468
1.73541
0.365598
1.90894
0.876643
2.9718
4.97346
0.643958
1.32931
4.5583
5.85124
0.591388
1.15758
5.12843
1.42819
1.35984
0.316607
0.727846
0.405845
3.61802
1.34596
3.79191
0.572984
0.38153
0.96434
0.692446
0.305328
3.21932
1.25008
1.5519
1.19951
0.374716
7.9248
0.712401
0.582821
3.77363
3.95852
0.399667
0.849531
2.55119
2.27404
0.808255
3.12156
0.305926
5.71036
1.13014
0.280847
1.00197
0.248399
2.24381
0.382759
1.46183
1.51034
2.0407
4.46228
5.6255
0.516836
9.00225
1.12737
3.29985
8.78846
0.788501
0.480986
3.54973
0.275571
3.89419
2.96756
4.48292
1.23966
0.252411
0.344494
7.97351
1.66715
0.287317
4.45686
0.646472
0.376009
0.264057
1.68951
2.96977
1.3235
2.80356
0.307497
6.33551
9.46124
1.46705
4.32258
2.41502
0.474987
0.272301
0.266016
2.5127
2.08659
4.97095
0.373225
1.1293
1.48063
2.9339
0.405158
0.255108
0.249214
1.89344
2.0211
1.11344
0.362089
5.47663
0.461764
1.44321
1.10339
0.407269
1.28184
1.81702
0.840437
9.89228
12.6257
0.41708
0.409337
13.0067
0.433557
3.51821
2.05356
1.45567
8.02594
6.47606
0.968874
0.777515
4.84139
1.22307
4.07267
0.38129
0.229539
3.96291
1.99612
5.9533
0.389993
0.229236
1.14169
0.280899
1.88237
10.5084
7.71531
1.91278
2.06491
5.18872
3.16148
1.2364
0.176248
0.683378
5.43158
0.469821
2.45335
10.3406
1.08777
7.41878
0.382597
0.365071
5.33264
10.5358
1.91499
3.09114
0.578674
0.382972
0.400775
0.706086
8.89977
0.98811
1.38964
0.414281
1.16862
0.574884
0.405821
0.318155
0.131958
2.1957
1.18856
6.97799
0.870853
7.58501
2.5812
3.35828
1.9781
7.55212
1.45753
5.76016
1.54022
0.272419
0.407866
0.356819
0.41101
1.6519
0.342603
2.45917
0.362872
5.92314
1.9064
0.99171
0.67562
1.05589
4.05053
1.93498
0.584228
0.415169
1.11543
1.17629
5.01992
0.68176
1.36018
0.842067
0.24827
0.313406
0.277081
0.241227
0.787661
1.24371
1.35427
1.06395
1.34048
2.91694
0.47007
7.38154
0.734427
3.10117
4.85154
0.370269
3.17277
1.37974
0.971139
3.61757
1.51006
1.24514
10.2967
0.792313
1.50977
0.388758
7.82563
1.33432
0.331464
2.73249
1.36644
1.36495
0.421314
1.34301
0.636386
8.19986
3.64951
0.450615
0.330367
1.40285
3.70535
5.63295
5.65512
1.96481
7.30017
6.0011
2.38577
6.41099
9.13753
5.12099
0.428426
1.04549
0.391055
0.711064
1.68768
1.22621
2.67036
1.04692
5.39035
0.797912
0.251025
7.32827
1.30009
1.15698
6.00259
2.7906
1.01338
0.887183
3.67428
0.34976
1.12258
8.23129
6.47159
10.5564
3.61176
2.33759
0.394608
6.60674
1.9932
0.42981
1.48355
0.108539
2.27996
0.398143
0.686823
0.412322
1.40869
3.67874
0.35847
0.276025
0.316339
0.343648
6.26717
0.385077
0.162056
11.878
6.14248
5.44904
0.280591
5.59026
1.12318
4.22091
3.86998
0.419092
0.293989
0.353389
5.32009
0.695839
9.90239
0.355995
2.19405
0.660629
2.51283
0.919272
0.730208
1.46626
0.589723
3.64626
0.367151
0.446224
5.3101
1.70424
3.60428
1.35181
7.22152
5.52796
5.27439
4.94542
0.251996
8.91663
1.29546
1.25895
0.422283
3.8375
1.22601
0.355808
9.78048
4.82617
0.247092
7.60174
1.30974
4.75274
4.05127
4.13012
0.963595
0.273356
1.16127
5.26511
0.309024
3.01128
5.35708
1.91761
4.57404
3.21603
0.109657
2.77882
0.424165
1.7703
0.429201
1.34773
2.46145
4.31928
4.48213
1.15362
5.18736
6.87977
4.31636
0.284792
0.89948
5.51047
6.83524
0.419699
0.387673
1.31771
8.11751
1.28566
4.94831
0.284688
1.87723
0.889033
1.13684
0.418262
0.917403
3.42712
5.26358
1.57285
5.68733
0.359901
1.89565
1.30412
6.18235
0.212918
1.39533
2.83744
1.03487
1.31837
0.408123
0.297384
0.415411
0.896463
0.2382
5.68901
5.571
3.28287
0.773953
0.386675
0.820436
2.54025
4.65897
5.16722
3.79248
0.349304
0.320957
8.77859
5.92944
0.726154
5.56471
1.1762
0.525563
0.335055
0.278543
1.25711
0.402898
5.82945
1.47795
4.81494
1.30864
0.388856
0.521909
1.85707
0.692008
1.81796
1.85757
2.23554
1.67089
2.86735
0.385108
0.363731
10.6777
1.36171
2.47476
0.398222
2.70428
0.361134
0.414128
0.271372
6.13425
1.19818
2.02215
6.34768
6.78228
1.77195
14.4837
0.390575
0.383626
7.03622
1.11051
0.590723
1.33004
0.409607
0.271115
2.30084
0.768025
2.33957
1.08094
5.49472
1.23819
0.384021
1.64889
7.57007
0.764783
4.84198
1.44199
4.9304
1.29511
8.1083
1.28693
1.34644
5.51397
6.82018
0.355376
3.02618
3.83306
1.02969
0.71732
2.77425
0.393902
0.412398
3.04237
0.394639
10.9445
2.46175
5.91659
5.45631
1.95424
1.41401
0.341194
1.70351
4.63953
0.437949
0.386018
7.57894
8.47814
5.24437
5.54259
4.43764
0.509449
3.29975
0.418211
1.73609
11.1558
5.69134
0.412429
2.01691
0.379361
0.405719
0.525665
0.46711
5.3258
0.548482
0.376132
0.394512
13.138
0.0330347
6.82284
0.843596
5.3876
1.05824
5.69142
0.286068
0.810409
1.24978
0.310453
8.50644
0.258955
2.46347
5.13757
3.19315
0.287523
11.5227
5.46895
7.77694
3.396
5.95346
2.09165
0.423176
0.330228
5.23276
9.37218
0.363629
4.65934
4.77194
1.22901
1.79745
4.24709
1.46928
1.07732
9.80205
3.09835
1.29298
0.0985798
0.668982
6.44866
0.302158
6.92186
1.33685
1.60159
1.00964
2.52814
0.282653
0.993562
0.286819
0.361069
0.114094
6.26365
6.17975
5.33182
0.368334
3.14765
0.473673
0.386386
8.01264
6.32392
0.256816
1.08969
0.326658
0.865192
1.79656
0.444803
1.23382
2.76525
3.9464
2.15293
0.82642
6.09801
5.36316
1.72213
7.22699
0.419151
1.39855
0.400024
1.24185
0.382146
4.98051
3.83676
1.3314
9.48731
5.45625
0.273049
3.18268
1.08803
0.415583
3.44878
0.245235
0.655344
3.83098
0.366525
2.78877
0.293097
5.21985
0.573402
0.892924
0.40925
1.23037
0.515648
3.22681
4.23137
1.08207
0.353375
5.6598
1.3446
1.05391
4.4272
0.780485
2.74773
0.579741
7.33075
2.30114
0.306846
1.42195
3.78464
0.39493
1.07587
3.01592
0.318358
7.71358
0.234365
4.01008
2.36527
4.63467
0.840662
3.13906
8.71238
0.546753
1.43217
1.96812
0.781271
0.81565
0.411078
3.68301
2.32805
2.02548
1.19156
2.11695
1.92235
5.45131
3.233
5.33349
0.603142
1.8279
0.417797
5.24391
1.43974
0.283097
5.41675
0.270472
3.94293
0.914393
4.79764
1.08434
1.32807
0.234482
1.72546
4.54302
1.3466
1.04554
0.752676
5.0545
2.50216
2.43636
0.396868
2.47329
2.17711
0.335752
2.97306
1.50696
0.552266
0.854578
1.94293
9.21029
6.07779
0.523357
4.00559
0.413996
1.78376
0.762653
7.50455
4.16231
0.273243
0.349324
1.06256
3.01566
1.77528
3.91765
1.47178
0.714528
0.297493
3.04553
1.81457
3.12044
4.27076
0.721869
0.401432
1.16555
5.30237
1.88174
1.8724
0.356276
8.20275
5.11109
0.344694
0.768859
1.25376
1.60284
0.320584
2.78601
1.54311
0.36804
3.19716
2.05394
1.76361
3.38022
4.36629
0.392585
0.34848
0.900201
1.03761
7.73156
12.6864
0.299737
0.338289
0.9845
0.238277
3.87769
4.40131
6.83037
1.2545
0.331154
2.10881
0.261247
1.40049
2.00447
0.355942
8.46476
5.86189
1.80483
0.413056
5.41347
1.41651
0.980186
7.68692
1.65999
1.01459
5.55065
4.01259
2.69185
6.66992
6.93803
5.95475
0.53085
4.57906
1.98205
3.86491
2.44496
1.10849
0.289248
0.294518
1.6478
1.17872
1.77656
0.281815
1.44913
2.5936
0.242883
10.4987
0.121834
4.76619
8.17953
0.284401
5.4629
1.00003
0.543767
5.88363
3.62371
2.2738
4.23851
0.407909
0.42766
1.41963
0.34778
6.17822
2.94025
0.024453
0.424866
1.82311
2.17228
2.98893
0.355397
1.45673
5.636
0.238471
0.269128
1.08119
0.396383
0.657285
1.20886
0.950649
0.337041
1.29011
0.742809
1.61651
0.226325
0.409998
5.94206
0.387777
1.27563
4.48648
1.53583
2.55668
1.3321
5.21635
4.49708
1.56605
8.38391
0.559161
5.26145
0.413705
3.45973
10.2266
0.276766
2.79684
1.14606
1.3083
0.282556
6.91581
5.33524
0.355801
5.17515
0.433408
4.55267
3.76099
1.37259
0.928568
0.473041
5.29925
3.48736
1.46922
5.22754
1.37114
0.423815
1.29531
5.56133
1.08568
0.586756
0.326707
1.56619
1.02634
3.86991
1.16864
1.24618
1.30087
2.71714
0.412195
3.71453
3.79078
3.30866
4.99266
0.87265
4.37064
1.53282
0.55841
7.33295
6.96816
2.0368
0.740501
5.80709
3.67878
0.0316472
5.25355
8.1661
2.90395
2.51739
2.1499
3.61635
1.0603
1.18912
4.83839
5.08625
0.349346
0.404576
0.342453
1.4486
0.0914305
1.3471
5.31136
1.47524
4.20379
0.299502
8.46064
0.22947
2.17291
0.222242
1.83774
1.34875
2.74851
6.61572
0.420456
4.02491
0.401319
1.02301
0.742643
0.87696
0.24463
4.16747
2.26769
1.11606
0.216989
4.90285
3.67109
2.6924
1.81617
1.20169
0.781405
0.238995
5.1273
3.16452
7.51357
3.45966
6.28611
0.377581
0.10642
0.524963
3.69251
3.52823
0.990588
1.15081
0.285876
1.17225
0.441483
5.31381
0.721549
1.70064
1.31247
1.15806
5.34578
0.310544
0.624553
3.06284
4.32949
0.318253
2.13896
1.44338
0.904739
3.62369
0.890475
0.960567
7.51264
3.83621
11.2918
1.3371
5.99705
0.425497
2.31552
1.40903
1.95521
9.02243
0.260692
0.666923
2.03974
1.64005
4.51541
0.855531
0.346443
5.05139
3.27749
8.05072
2.88377
0.380024
0.289679
0.424853
0.296979
0.370059
0.826468
1.19961
0.645299
2.97477
5.24019
1.85426
3.10385
1.11272
0.248909
5.47961
5.36459
0.389103
0.277943
0.58563
3.91891
1.34799
0.407312
0.323887
0.754722
1.21923
1.65923
9.29301
1.69013
5.3719
1.60726
0.101636
3.45362
1.0157
1.16608
1.52331
4.21544
7.69179
2.80227
0.387391
1.41055
4.39157
1.88812
2.78557
2.04467
0.344818
2.23164
0.386665
3.23649
3.49339
5.13848
0.323128
1.37194
2.92555
3.27586
0.332148
0.994802
0.911747
8.12994
0.133306
0.774093
0.736815
0.367103
2.89669
7.46476
0.375927
3.77246
3.20016
0.240616
2.65487
5.30052
4.62732
0.974511
5.26882
10.1442
0.231714
10.7909
5.71566
2.79154
0.279479
5.50622
8.11236
4.49104
1.67512
9.66599
2.48372
0.84049
3.79627
6.82936
0.382137
5.08081
1.28862
3.52616
0.399629
2.98011
0.268933
0.38256
13.185
0.279513
3.83024
2.98725
0.926427
1.81397
0.47683
0.756662
1.78663
0.245912
0.243193
5.7846
1.31425
1.31013
1.03938
1.06792
0.179799
1.29603
5.49186
1.24808
2.40094
0.913114
2.87161
0.426931
8.92896
1.11506
0.327857
0.417313
2.9031
1.19732
1.21356
0.665606
2.1324
1.12708
1.20387
4.92702
2.57196
1.41856
4.16472
0.363311
3.77666
1.03222
2.79909
0.286842
0.399056
0.417226
0.43034
0.275155
1.93059
0.0767697
4.5387
1.02681
2.358
0.344193
1.26587
1.75138
0.819842
10.2065
5.80843
4.61795
3.33755
2.81283
1.24811
0.372145
0.297314
1.04296
0.872039
0.232014
1.4951
1.32805
1.36639
9.21533
0.557762
0.878352
5.14676
7.65376
1.63958
1.36118
1.29649
0.90827
0.367823
4.4317
0.340814
0.426247
0.406361
0.413813
1.18739
10.0854
0.27318
0.246563
2.61266
1.66098
7.64622
1.32313
3.80057
0.356424
0.326509
1.29025
10.1722
4.3071
0.317618
1.78008
0.423878
0.423029
0.614773
0.427206
0.268607
3.42918
0.401152
5.87059
5.38568
1.03638
0.614155
0.307677
1.46554
2.2356
0.396036
11.036
0.388444
2.36557
0.249036
1.75126
2.06204