/*--------------------------------*- C++ -*----------------------------------*\
  =========                 |
  \\      /  F ield         | OpenFOAM: The Open Source CFD Toolbox
   \\    /   O peration     | Website:  https://openfoam.org
    \\  /    A nd           | Version:  10
     \\/     M anipulation  |
\*---------------------------------------------------------------------------*/
FoamFile
{
    format      ascii;
    class       volScalarField;
    location    "1200";
    object      p;
}
// * * * * * * * * * * * * * * * * * * * * * * * * * * * * * * * * * * * * * //

dimensions      [0 2 -2 0 0 0 0];

internalField   nonuniform List<scalar> 
10435
(
0.00106364
-0.448528
-11.4207
-2.638
-7.07711
-11.1505
-11.553
-11.3904
-11.3043
-11.0045
-1.8913
-6.75716
-11.143
1.02915
1.06413
-10.9932
0.920746
-11.0605
-11.4011
-0.36214
-11.68
-2.73992
-11.0966
-9.12281
-10.9763
0.203579
-0.0214555
-11.4627
-0.417894
-11.1581
-9.9264
-2.76008
-11.6989
0.276738
-10.5007
0.808946
-10.385
-1.2908
0.774369
-10.1039
-11.6807
-11.6675
1.21301
-1.28776
-10.2214
-10.1238
-11.2578
0.648939
-11.4195
-3.13388
-11.3692
-10.0349
0.304946
-0.582771
1.13095
-0.660211
-9.94055
-0.243736
0.483772
-10.1096
0.461374
0.0832289
0.0118974
-9.23089
-10.6798
-11.3457
0.363079
0.21764
-11.7519
-8.58558
0.159191
-0.441323
1.60696
-11.0893
0.961936
1.49674
-7.34123
-11.8148
-11.8752
0.866475
-4.88051
0.0794391
0.497171
-0.113859
-5.81107
0.881765
0.50028
-1.16774
1.17907
0.194121
-1.83077
-2.54867
-0.255842
0.927581
-0.170262
1.05554
-3.66711
1.28243
1.03955
-4.72006
0.791587
-8.74215
0.75118
-0.628614
-9.55505
-1.9204
-0.646204
-3.95851
-6.96794
0.794075
-2.37713
-7.68227
0.378965
0.55048
-3.41331
-2.00391
-5.52438
0.63677
-1.12211
-5.27298
-6.0998
1.61029
0.334007
1.58086
-4.16068
0.36403
-4.44897
1.6708
-6.15588
-0.918273
1.72061
-3.01597
-11.0511
0.928246
-0.217162
1.48958
1.36633
-3.47685
-0.529623
-1.37186
-0.830308
-10.1363
0.641909
-8.23562
-3.5475
1.40628
1.56149
-9.99311
1.11009
-8.54085
0.563509
-9.89076
0.0673341
-8.78273
-10.6445
0.476767
-5.37568
-0.0451977
-10.8973
-1.07045
-9.35835
0.939003
-2.70777
-6.22309
0.992199
-7.24375
-11.3973
-5.21929
-7.99617
-8.51882
-10.8036
1.03299
-1.29822
1.37898
-8.27269
-0.263855
0.492882
0.724687
-1.70366
0.170683
-1.10647
-10.7276
-7.49832
0.262376
-10.206
1.25295
1.09212
-11.7069
-7.98123
-9.32932
-6.76097
0.657714
0.245275
1.12535
-6.5615
-11.7538
1.32089
1.069
0.780334
-10.7795
1.22209
0.885556
-11.3419
0.0648192
-11.4065
-4.50415
-1.85815
-4.3327
-0.201857
-4.44736
0.980719
-11.0946
-7.43962
-6.83334
0.34837
1.17885
0.69963
0.868395
-1.61442
0.894264
0.0498954
0.515518
0.59564
1.43876
0.0799944
-10.961
-1.24298
1.19126
-9.98979
1.43156
0.588444
-11.1381
-1.34253
-9.46917
-0.884888
0.849856
-9.81443
-0.720263
-8.92683
-10.5517
-0.756591
0.419623
0.890955
-0.586406
-3.73121
-11.6659
1.2796
-11.9426
-3.30159
0.350947
-3.54787
0.801553
-11.3973
-5.34398
-12.1482
-7.69561
-4.85855
-12.2123
0.476939
0.208301
-12.2609
-10.4814
-0.280549
-7.32577
0.575004
0.973971
-0.299369
-10.8079
0.840315
-5.31343
-11.9803
-12.985
-12.8043
-11.0217
-2.0123
-6.1022
0.182123
-5.92239
-11.5593
-12.8277
-11.4088
0.917632
-11.843
1.00764
0.642569
1.0255
-9.03785
-0.934299
0.0158104
-0.186396
1.53439
-1.9922
-0.369455
-12.7694
-0.601581
-4.55764
1.323
0.312521
-4.77345
-10.694
0.528506
-8.21344
-11.7857
-4.11111
-3.78651
1.19259
1.2754
-8.9505
-10.893
0.0917573
-1.14896
-0.304645
0.78398
-9.34264
-10.7492
-5.12259
0.831687
-9.52041
0.401937
-6.02494
-10.3764
-1.14087
0.384629
0.904975
-12.4302
-11.3327
-2.88164
-11.6946
0.6085
-0.325179
-10.8699
-0.168743
0.13445
-11.5568
-8.83117
-0.0949037
-0.0680128
-1.48292
0.513302
-1.30851
-3.76908
0.365285
0.680933
-3.46172
-4.92425
-0.246103
0.0491131
1.18418
1.04748
-11.9469
0.312576
-11.1612
-3.42861
-11.5779
-13.0599
-12.9057
-11.382
-11.0109
-0.580507
0.171231
-1.40214
0.695021
-0.874885
0.553115
-0.987886
-4.2348
-0.180551
-7.53631
0.154591
-11.8185
0.636658
-4.75752
-11.0593
-13.2347
0.999259
-5.55303
-1.13017
-0.585466
0.0954955
-0.0968183
-7.3683
-0.617867
-12.3338
0.260905
-12.039
-12.8267
-11.4585
-11.3151
-13.0221
-11.5903
-10.7073
1.54972
0.82689
-0.233138
0.587174
-11.6076
-0.105043
-11.4023
-5.34477
-0.352027
-6.75413
0.640951
0.279761
-11.2868
-1.50846
-12.1074
-8.69559
1.00798
-0.0446131
-3.4842
-10.601
-3.74188
0.198561
-0.179517
-0.757801
0.60025
-0.0145585
-11.4719
-2.85429
-0.699652
-0.457525
0.903165
-11.2827
1.2085
1.37892
-11.5662
0.474729
31.7534
11.3715
17.3502
12.7525
14.0307
12.3567
12.1769
11.4208
9.56702
26.4554
9.54594
14.0802
10.9265
11.7354
10.67
10.497
9.8946
9.35338
21.0823
7.40338
11.3411
9.29485
9.83332
9.15093
8.97421
8.5085
7.96876
16.5994
5.66444
8.90488
7.65743
8.06335
7.68003
7.56616
7.26419
6.85346
12.477
4.35774
6.85615
6.19884
6.52503
6.34818
6.30882
6.16371
5.86595
8.76634
3.52346
5.22852
4.99959
5.25495
5.21171
5.22539
5.17262
5.03663
5.74057
3.29937
4.04997
4.09149
4.2693
4.30583
4.3551
4.36936
4.34356
3.54306
3.43144
3.25125
3.4404
3.54602
3.62541
3.69441
3.75392
3.66615
2.06359
3.32494
2.6687
2.96949
3.03737
3.14088
3.21986
3.29043
3.32289
1.11141
2.85476
2.23106
2.63
2.69554
2.81361
2.89958
2.98051
3.02461
0.54074
2.35726
1.96432
2.40816
2.48178
2.60241
2.68977
2.77246
2.85651
0.40641
2.16103
1.89578
2.29219
2.35994
2.46729
2.54507
2.61275
2.75188
0.636634
2.22694
1.97703
2.249
2.29462
2.37927
2.4451
2.51402
2.58508
0.849501
2.33859
2.07971
2.22674
2.24945
2.31129
2.36699
2.43523
2.47786
0.960693
2.40678
2.14996
2.19596
2.20194
2.24506
2.29271
2.35289
2.40799
1.06375
2.40244
2.16904
2.14224
2.14066
2.17197
2.21525
2.26874
2.33849
1.05662
2.24442
2.10289
2.0528
2.05827
2.08679
2.12948
2.17644
2.27697
0.942618
1.94605
1.95585
1.92979
1.95547
1.99019
2.03732
2.08767
2.17925
0.859657
1.64624
1.78492
1.79194
1.839
1.88255
1.9334
1.98698
2.05272
0.827488
1.4186
1.61812
1.65273
1.71627
1.76956
1.82555
1.88516
1.95798
0.749661
1.24825
1.4551
1.51705
1.59057
1.65205
1.71148
1.77801
1.8253
0.57407
1.14545
1.29526
1.38619
1.46251
1.53016
1.59263
1.66908
1.64162
0.243854
1.15159
1.15411
1.2746
1.34766
1.41702
1.48006
1.5569
1.50803
-0.177653
1.20105
0.943156
1.08918
1.16536
1.24687
1.33517
1.44029
1.37489
-0.299766
1.56235
1.15356
1.28028
1.31641
1.31449
1.36144
1.45454
0.823128
12.5372
12.5924
12.9218
13.409
13.9704
14.6236
15.3595
16.1748
17.0603
18.001
18.9836
19.9906
20.9955
21.9845
22.9361
23.823
24.6327
25.3463
25.9479
26.4318
26.8277
27.2975
27.6808
27.4593
26.9984
26.9857
27.545
28.4095
29.0747
29.7019
30.4727
31.0129
31.2121
31.2275
31.1391
30.9587
30.7021
30.4258
30.1505
29.9292
29.797
29.7876
29.9229
30.2638
30.7514
31.2435
31.7736
32.3853
32.977
33.5469
34.1626
34.78
35.3663
35.7997
35.8996
35.753
35.4224
34.9636
34.7635
1.99207
1.5688
1.27256
0.987906
0.734683
0.519398
0.308588
0.0769178
-0.136029
-0.296879
-0.406078
-0.460543
-0.457819
-0.3977
-0.280031
-0.1053
0.126576
0.418534
0.777745
1.21535
1.74893
2.40702
3.17706
4.10999
4.96366
5.38682
5.38338
4.86829
4.14123
3.56908
3.16595
2.88149
2.66693
2.5036
2.38116
2.28885
2.22301
2.18519
2.17614
2.19583
2.24223
2.31012
2.39292
2.48804
2.59749
2.65017
2.60205
2.49361
2.41548
2.41205
2.48732
2.73923
3.25913
4.034
4.89326
5.75214
6.68319
7.67279
8.95197
6.21286
6.35078
6.46018
6.61
6.78585
6.9855
7.2068
7.45171
7.72255
8.01755
8.33522
8.67316
9.02903
9.39912
9.78079
10.1712
10.5676
10.9687
11.3746
11.785
12.2008
12.62
13.0252
13.386
13.6625
13.8643
14.0034
14.0588
14.0058
13.9329
13.8632
13.7917
13.7136
13.636
13.5645
13.504
13.4598
13.4383
13.4453
13.4863
13.5664
13.6883
13.856
14.0707
14.334
14.6427
14.998
15.3964
15.882
16.4358
16.933
17.3879
17.8729
18.3548
18.7763
19.1216
19.386
19.6178
19.6385
3.0443
2.89266
2.81248
2.75341
2.71328
2.69535
2.69949
2.72639
2.77805
2.85652
2.96406
3.10259
3.27327
3.47727
3.71448
3.98423
4.28509
4.61424
4.96884
5.34415
5.73446
6.13113
6.52116
6.88678
7.2016
7.44245
7.59751
7.66499
7.65788
7.60379
7.51863
7.41065
7.28502
7.14579
6.99561
6.83746
6.67406
6.50879
6.34672
6.19294
6.05439
5.93815
5.85393
5.81133
5.82226
5.8967
6.04575
6.27872
6.59164
7.01704
7.57768
8.20067
8.81052
9.40785
10.0257
10.6574
11.2558
11.8326
12.4555
4.32761
4.37719
4.43218
4.51435
4.61532
4.734
4.86932
5.02059
5.18681
5.36678
5.55986
5.76525
5.98176
6.20914
6.44621
6.69224
6.94627
7.20639
7.47156
7.73931
8.00649
8.26836
8.51844
8.74964
8.9527
9.12218
9.25347
9.3457
9.40036
9.42431
9.42414
9.40341
9.36742
9.32106
9.26707
9.21145
9.15764
9.10846
9.07191
9.05298
9.05799
9.09364
9.16749
9.28686
9.45983
9.69179
9.98776
10.3486
10.7658
11.2494
11.825
12.4363
13.0033
13.5092
13.9712
14.385
14.7295
15.043
15.2303
3.22995
3.16398
3.13963
3.13798
3.15475
3.19156
3.24917
3.32778
3.42784
3.54886
3.69204
3.85688
4.04338
4.25074
4.4775
4.72182
4.98149
5.25079
5.52959
5.81359
6.09894
6.37822
6.64465
6.89352
7.11182
7.29886
7.44624
7.55659
7.62897
7.66564
7.67276
7.64781
7.59855
7.53068
7.44046
7.34048
7.22959
7.10265
6.97913
6.86172
6.75938
6.68088
6.63608
6.63578
6.6927
6.81099
7.00228
7.26759
7.60846
8.02117
8.50018
9.0242
9.57961
10.1463
10.6848
11.1838
11.6432
12.0816
12.499
3.50466
3.50343
3.52339
3.56708
3.62786
3.706
3.79965
3.91005
4.03598
4.17448
4.32678
4.49109
4.66881
4.85764
5.05555
5.26225
5.48053
5.69547
5.91822
6.14098
6.36694
6.58482
6.79139
6.99372
7.16325
7.32029
7.44321
7.54773
7.62619
7.67598
7.71229
7.71186
7.69373
7.67078
7.61546
7.56903
7.51844
7.4342
7.37894
7.33067
7.30134
7.29713
7.32458
7.39322
7.52229
7.69578
7.94082
8.24328
8.60853
9.02916
9.49311
9.98226
10.4843
10.9863
11.4476
11.8513
12.1983
12.5176
12.7712
3.23412
3.17656
3.14829
3.14997
3.16248
3.20402
3.25325
3.34253
3.44585
3.53463
3.66945
3.81184
3.98001
4.1708
4.36825
4.59262
4.83597
5.01423
5.22763
5.45084
5.69687
5.92112
6.12333
6.35776
6.50363
6.67095
6.77039
6.8761
6.95514
7.0037
7.06254
7.04063
7.01597
7.01764
6.91337
6.89713
6.90936
6.71245
6.60428
6.49816
6.41421
6.35052
6.3121
6.31191
6.45026
6.54424
6.78759
7.02162
7.28619
7.63095
8.05727
8.55379
9.03369
9.51927
10.0101
10.4899
10.9211
11.3732
11.7248
3.13684
3.16022
3.15928
3.21337
3.26418
3.34894
3.41285
3.46887
3.58441
3.78039
3.82676
3.96944
4.16433
4.30485
4.52454
4.60323
4.8462
5.03314
5.24391
5.39125
5.60687
5.76935
5.93216
6.14877
6.23846
6.39674
6.45752
6.55648
6.68392
6.62177
6.79852
6.76486
6.6707
6.72512
6.59335
6.64726
6.48617
6.24551
6.35485
6.26065
6.20493
6.20789
6.13827
6.15288
6.25235
6.29393
6.45938
6.6129
7.00651
7.37238
7.72197
8.10618
8.51615
9.03359
9.50599
9.88349
10.2651
10.0905
10.5595
-4.6035
-4.56789
-4.19059
-3.67908
-3.06102
-2.44846
-1.93445
-1.44573
-0.945757
-0.525828
-0.195233
0.13467
0.43125
0.696788
1.10542
1.70511
2.36607
3.0549
3.82676
4.71375
5.72208
6.8666
8.22309
9.96447
11.5753
0.733123
0.808348
0.681101
0.532981
0.514228
0.657425
0.871687
1.11017
1.32815
1.39557
1.29011
1.12345
0.96621
0.873398
0.946148
1.18861
1.42888
1.52601
1.58539
1.75982
2.03083
2.34186
2.6676
3.03191
3.14394
-0.373092
-0.313448
-0.22322
-0.114842
0.057088
0.282509
0.517358
0.73598
0.916566
1.01066
1.01669
0.983226
0.944636
0.936112
1.01344
1.1897
1.4205
1.67178
1.9661
2.33475
2.7792
3.29753
3.89408
4.57515
5.43015
0.0674285
0.101693
0.197359
0.290346
0.411355
0.554602
0.704609
0.844893
0.962284
1.03961
1.07729
1.09441
1.10943
1.14042
1.20806
1.31838
1.4598
1.62239
1.81202
2.0365
2.29203
2.56667
2.84282
3.08165
3.333
0.132539
0.162089
0.262107
0.360597
0.479907
0.607699
0.737447
0.855937
0.956581
1.03193
1.08278
1.11982
1.15519
1.20016
1.26803
1.36572
1.49327
1.64995
1.83929
2.06431
2.32704
2.62791
2.97349
3.35996
3.89338
0.247054
0.29033
0.391257
0.481567
0.590047
0.69808
0.808772
0.907995
0.994796
1.06543
1.1191
1.16335
1.20718
1.25612
1.31973
1.4037
1.51065
1.64215
1.79962
1.9819
2.18934
2.4165
2.66232
2.90523
3.22641
0.385047
0.377945
0.487592
0.565987
0.668451
0.761923
0.86327
0.950412
1.02934
1.09748
1.15014
1.1954
1.24275
1.29203
1.3529
1.43045
1.52812
1.64926
1.79538
1.96339
2.15896
2.3767
2.62633
2.90412
3.29308
0.517004
0.444127
0.575906
0.639702
0.741645
0.822892
0.922423
0.998982
1.06996
1.13605
1.18364
1.22518
1.27645
1.3254
1.38335
1.45612
1.5461
1.65704
1.78969
1.93939
2.12061
2.3178
2.56321
2.83549
3.17249
0.513518
0.486119
0.673179
0.711644
0.809857
0.860131
0.960961
1.02133
1.1073
1.17108
1.22015
1.25113
1.29344
1.33375
1.39173
1.45742
1.53942
1.6426
1.79254
1.93843
2.0988
2.29314
2.49977
2.60977
2.81297
-11.855
-11.6315
2.11611
5.58468
1.59492
1.51026
-2.73811
2.06386
0.979016
6.30978
-11.8857
2.0593
-13.2751
0.80991
-7.33322
3.44786
-6.67414
5.55587
6.49455
-14.622
-16.3171
3.92236
-11.2242
3.50466
2.02502
2.86265
1.99134
0.985705
-10.4412
-9.37651
6.49305
3.4328
-13.9187
-11.5515
-9.95982
1.89566
-3.94498
-7.08998
-5.88119
4.07331
-12.8549
3.99954
3.30639
0.855404
2.04884
5.3924
-11.4806
-9.61649
-9.74265
-13.0395
-11.4641
-11.9507
-15.2432
5.6075
-2.55277
1.17655
0.790581
-16.0132
1.28066
-8.58444
2.10735
2.89585
1.61053
3.51402
2.02095
0.809117
3.16506
3.5302
-11.0513
-11.7662
0.567638
4.51644
1.69455
-13.9977
1.63463
-17.1447
-13.2126
-11.5554
0.945961
5.70112
-11.423
2.29562
2.33109
-8.43934
1.76132
2.17022
1.66837
-11.7473
-14.0807
2.51975
2.88324
2.50607
5.42591
2.1134
1.59711
-11.7412
2.75394
-11.17
3.91789
-8.70264
1.27309
-13.3289
1.24086
3.97184
1.35366
1.24399
-11.2327
-13.1627
2.68747
-8.82169
3.341
2.36561
-9.86913
3.87606
-15.8545
-9.65267
-13.0021
4.39227
-13.704
2.54913
3.09812
2.28004
3.68216
2.12672
-13.72
3.32358
-12.1809
-15.4335
0.659754
-9.9116
2.47222
-14.137
-11.3581
-8.93363
0.746589
1.68392
2.12079
1.38153
2.35676
-14.1002
2.58857
-4.76543
-9.2528
3.13214
-10.1315
3.02695
5.09733
-14.8843
2.25212
-10.0836
-0.562732
0.319128
4.98409
-7.51273
1.97183
-9.60923
1.56975
4.18955
-11.2645
4.73346
3.54508
0.597665
2.72487
-11.1999
4.03428
-8.31191
0.739974
1.82236
4.44663
1.55923
0.807201
3.64317
3.30971
-8.61973
2.76108
0.977346
-13.5173
-10.9244
-9.15976
4.55865
-11.0552
3.81785
-14.5634
-10.9538
1.31637
4.47685
-8.70352
2.63808
-13.7826
2.76513
-9.35746
-9.41776
-2.18104
-3.83828
-7.7666
-13.8239
1.65779
3.81092
-9.81241
-10.5006
-11.3132
4.13936
2.46608
2.56369
-0.303647
4.65811
3.58462
1.31001
-10.4431
4.21222
1.34137
2.19067
-11.0847
-0.456537
-0.649552
-12.5976
1.5081
4.63856
6.52472
2.00038
1.22846
4.04623
2.04946
3.03099
5.6128
-12.8615
2.91273
-6.36213
2.66993
1.66049
-9.30149
2.02032
3.63533
2.53937
-5.45669
5.17228
-11.1028
1.03786
-11.2785
-7.02306
5.27821
2.01528
4.16166
0.92911
1.67945
1.89304
3.28197
1.33642
3.17942
4.19811
2.72526
1.02953
3.89752
-10.2866
3.10971
1.64683
-9.74192
-12.9218
-11.2721
9.25494
2.89965
0.662879
2.49312
1.87969
-13.9807
2.2059
5.05421
4.80354
-3.57007
1.84712
-15.3949
-2.6959
3.7685
4.65243
7.08586
4.72157
3.33865
-0.353958
0.718005
-11.2096
0.917654
-0.484623
3.82252
5.03764
-8.84636
2.73025
1.12013
5.72196
-12.1916
-9.29937
-4.99995
2.92738
3.71837
-12.212
-10.2814
-12.7205
-11.4993
2.79141
4.56596
-9.54321
-10.4865
3.32009
4.41421
2.68565
-10.5061
4.60466
-16.6651
3.36724
-14.2697
2.49177
3.98971
4.55945
-14.0079
0.819546
3.73775
-3.46047
-11.454
3.93346
2.0465
-8.55559
-11.8426
2.72621
4.39917
6.3879
1.85295
2.22812
-13.1122
-13.2358
3.04532
-15.5929
3.83263
-7.91589
1.22993
5.77011
-12.1256
2.12859
2.17074
2.43333
2.56952
3.25343
2.19025
1.97877
-9.40573
3.65713
-14.009
1.53088
1.43556
3.87215
1.75532
-9.79454
1.12532
5.55175
3.36448
-11.6279
-12.2453
5.57219
-7.93122
0.512923
4.07847
-8.49294
-10.6465
-11.1525
4.6457
-13.0165
4.08853
1.65121
3.71402
-11.9478
2.30796
-13.4443
5.24888
-7.8893
-10.566
-5.15656
-11.8058
2.36017
2.38809
4.58157
4.70311
5.30563
-11.3163
2.83317
-13.4376
0.689105
0.892578
-9.10027
4.27685
-14.6508
-12.2093
-9.11996
-1.22025
4.92625
1.78624
-10.1644
-11.127
7.39493
4.18731
-13.3794
4.25483
-10.1727
2.00409
3.47878
1.69178
-12.458
1.9047
4.51122
-3.51434
1.77832
-0.285997
4.16298
-6.99158
2.17499
-9.28321
2.19085
2.79449
5.23175
-9.47477
-9.60407
4.61294
2.82675
3.74829
4.51525
2.49795
1.17024
4.73409
-10.8582
2.60747
4.16405
3.41684
3.44813
2.02333
1.63023
2.0695
0.969826
-3.43974
3.91849
2.79235
3.68256
3.809
4.82845
4.63316
-6.9481
-12.4989
0.234555
-12.2062
4.81585
1.11652
-2.77362
1.28671
0.913281
-5.10603
3.69601
2.5677
-9.43437
5.16329
-11.762
-8.20159
2.4142
2.8724
-14.6422
2.6804
0.281756
-7.05052
-11.1273
-10.878
1.79821
1.4673
3.4395
4.60973
-11.6939
0.996344
1.74963
-10.9543
4.91298
2.15382
-12.6797
2.19653
1.62975
-14.7478
-14.7919
-0.751611
-6.48149
4.28987
1.98453
-9.13497
1.69567
2.22956
5.22687
-10.8639
3.7623
-9.50447
3.12997
2.30635
-9.88878
2.22497
1.41405
-8.46934
2.15766
5.30832
-13.3522
3.34709
-4.39026
2.43212
0.938995
-14.2565
-11.4836
3.03771
2.75129
-3.28242
2.92372
3.76443
-10.9568
2.99285
2.30057
4.51356
-11.996
-10.7994
-9.26529
2.32387
-1.08896
5.36946
-9.66142
-14.6023
5.32622
-11.2185
5.50755
-10.9663
-13.5939
4.41492
4.60884
1.10494
3.67004
4.29474
-0.840778
2.50444
0.0354832
2.782
-9.67001
-9.93739
2.97116
-9.60134
-8.66227
3.05991
-11.6411
3.36718
3.61377
2.68084
1.21497
2.20281
-0.812247
-5.28618
-6.58188
0.694112
-10.2882
-9.45735
-11.3293
1.98182
4.92235
-12.1729
-11.0494
2.88144
-9.69254
2.61689
-12.74
-9.40459
6.89048
-0.887837
1.18706
3.65173
2.57877
-14.1152
6.01501
-7.81463
1.48143
1.52724
-9.44946
-9.95597
-10.9027
1.18026
2.68345
-13.5688
-16.0092
3.9062
5.11821
2.19078
-13.1599
3.7339
1.5206
-5.12082
5.20579
1.4918
1.6925
3.60079
-9.08423
4.98067
1.18668
-12.0655
-9.5997
1.60479
3.82824
-9.37676
1.0636
4.15962
4.33905
-15.1119
3.23424
2.51544
4.13029
5.71819
3.64019
3.66808
-5.73673
1.96495
4.34264
1.19134
-15.5602
4.73315
1.43992
4.06564
3.87311
1.82531
2.50017
4.73775
0.188492
1.68918
-8.7684
-8.61369
0.9585
-12.7654
1.49629
1.74464
1.69098
4.40301
3.1795
2.57531
-15.0259
2.70938
2.14505
0.386275
-10.6706
-1.10976
0.908327
0.831111
3.52917
1.61484
4.48957
2.80049
0.264688
-8.94357
-8.94376
-11.5708
4.66048
5.83994
3.30509
5.80449
4.26767
-9.99991
11.6488
-16.3
4.16436
-10.8955
5.76777
-11.472
3.21065
1.74673
2.17339
-12.6692
-2.92563
0.805001
-15.8864
1.65745
7.39342
1.87328
-10.3043
4.22228
2.65858
-9.07524
1.95584
5.26851
5.01577
3.82317
-14.6157
4.36056
2.39846
5.0428
0.853133
4.44697
-10.0216
-11.7386
3.16771
-4.11265
4.55472
-11.8656
2.33885
5.07435
4.11104
2.75312
-5.1139
3.27509
3.92928
1.30782
3.49026
3.02988
4.6318
5.37059
-8.57134
-9.9042
-0.390474
-10.2502
-5.68479
-11.3514
-10.1332
8.34963
1.58596
1.79358
4.50788
2.82399
0.254422
3.29121
2.04723
-12.1145
4.55016
4.10264
1.41183
3.89702
2.8965
1.93454
-0.256653
-12.6549
-12.5011
6.10147
-9.96708
-1.93478
-10.9709
-16.2077
-13.2238
-12.4011
4.44699
4.61741
3.09246
4.2217
3.82638
2.56043
-9.7984
-11.6092
4.00718
-11.8262
0.391041
4.70353
1.98754
2.31781
-8.39103
3.77906
2.03891
-2.40391
-8.18396
-13.8175
-11.1256
4.51467
4.64198
1.61129
4.30072
-10.8987
-0.624653
-11.2938
-8.08368
1.56761
-9.39665
2.67341
4.57309
1.16282
1.46044
1.40581
4.74587
2.9828
2.05434
2.59183
2.54361
3.36801
2.49672
2.82412
4.27875
-10.615
-5.3742
3.73718
1.38574
3.43243
-13.98
1.82604
7.10701
4.12331
-15.1468
-0.502404
4.3577
2.60511
-10.3538
3.57429
-13.9277
2.69172
-14.751
-10.7416
-9.82614
4.7514
-9.00834
0.573516
4.51233
-11.5759
3.88369
1.9981
2.34123
-14.1124
1.98478
3.45292
1.69736
-12.806
1.72091
3.31154
-6.57471
4.79185
3.6323
-0.252311
-10.8972
-11.9648
4.45544
4.76217
4.35326
-15.0687
-5.11633
3.9223
1.86984
1.45571
-12.7603
4.72972
1.96648
-12.0587
6.93635
2.40486
4.93636
5.9133
-14.0035
2.4173
-15.226
4.27735
2.23841
-10.4652
4.24843
4.80382
4.75253
0.985174
-15.3361
-11.801
4.50131
4.53306
2.30388
-8.27964
-13.8737
2.58405
2.62125
-10.6835
-6.61476
2.67484
1.45153
1.37234
-9.41922
4.41729
-13.0253
3.343
2.69268
-10.8448
3.00782
5.20992
3.68465
-15.6677
-10.2926
-8.80588
-9.11809
5.58605
-12.9353
-8.67136
4.37507
-2.75866
1.85488
1.39922
-14.6186
2.55524
1.88566
-15.8315
3.89836
4.88214
4.79987
-14.0141
0.642867
3.31634
-10.9234
-10.8866
-9.91934
4.42419
2.40898
-9.79782
-10.7771
-10.091
-14.6251
-13.0494
0.213329
4.42923
-1.14584
-9.19855
3.65931
4.37057
0.27432
-5.70493
3.46828
-1.63398
-11.6482
3.2802
1.45498
4.78661
-8.76691
-3.94751
-10.5476
-9.64995
5.58595
1.01764
-0.794239
2.26396
-11.2816
-15.1301
4.43857
2.54146
2.48464
4.63656
-14.6056
-11.9612
2.39626
-9.62005
3.6957
-11.0595
5.29523
1.89648
2.12128
-1.49449
-11.1311
0.832504
-14.865
2.98111
3.14314
-4.81117
3.68384
-7.87058
-9.18833
-8.67717
2.3854
3.85879
-3.99299
3.00552
4.23312
2.17052
-9.46789
2.9841
1.19031
-11.2395
-3.84379
1.45749
2.43849
3.43977
3.99828
1.42955
3.73873
-15.3916
4.30735
2.2785
-9.38175
-14.2198
-2.41693
2.78776
2.68493
-1.33066
4.76038
-9.84688
1.53003
1.36524
-9.63986
2.87908
2.337
0.209147
1.75935
-10.309
5.3643
4.19842
4.22088
-3.25978
-3.03891
-13.0493
2.06886
-13.3531
3.11382
3.35225
3.13922
-10.0131
-10.798
3.36809
-8.01049
4.72799
-10.1406
2.70502
-10.1698
1.69605
1.87047
3.56646
-1.68404
-6.41441
2.55727
4.63198
-14.4726
4.66163
4.3594
2.15036
4.19033
2.61694
-10.1894
3.59222
2.78285
-9.00354
1.06729
-9.14575
4.65291
2.95885
3.47646
5.45413
4.36181
1.41422
-13.1357
5.4557
0.614618
4.59538
2.17413
-1.11894
-9.59594
3.6404
4.8654
2.73951
4.25106
4.74291
4.19127
-9.62173
5.67985
-15.9033
2.9263
-5.11211
-10.1539
1.08185
-14.6102
3.10637
-11.3134
-11.1995
-9.42034
2.27574
2.52371
1.02955
-10.8511
4.44187
3.43371
3.29406
2.27245
-8.29254
1.12428
3.94415
1.39714
6.01517
6.8484
5.21886
-11.0623
8.39863
-14.2505
4.3699
3.57845
4.26645
5.2315
-14.2191
4.76286
-13.7978
-13.1912
1.78359
4.18525
-10.172
-10.8155
4.67227
4.5291
4.63921
4.22019
5.66819
1.09907
-10.7931
2.63726
6.3181
-13.4552
2.18672
-0.325654
-5.90107
4.09857
1.7326
4.32472
1.22527
-12.1394
4.09671
-13.7291
3.73889
1.15225
4.51564
-13.5231
-13.6918
3.92094
6.4526
-11.8058
4.16363
1.41497
-6.77071
-10.8027
4.90588
5.33803
4.79229
0.846739
-11.7104
1.80674
4.90446
-11.7753
-9.63296
4.56286
3.82622
1.56839
6.45322
2.85091
-14.9224
2.0516
-10.2979
2.25982
4.65577
1.9302
-14.3442
3.52359
-12.2291
-7.64339
-8.19516
-11.6289
-10.2323
5.73805
3.11991
-12.7787
-14.4183
2.31705
4.17283
2.39651
1.18506
3.64787
2.08038
2.46308
-5.20871
1.48806
1.03291
-6.05244
1.38661
2.3418
3.02277
-9.46644
4.64241
-12.4245
-11.4762
1.37348
3.76832
2.41233
3.37795
2.34271
-13.0075
3.79069
4.71123
2.26875
3.77642
-11.6408
-13.4417
3.57182
2.69905
1.55096
4.56758
1.73869
0.961239
5.68341
1.35639
0.4935
-10.6763
4.65375
2.86182
-3.04466
2.69757
1.98619
3.07923
3.92078
2.37373
4.19757
-12.9235
3.01149
5.32602
-9.72226
1.64523
-1.26421
-5.92643
4.30925
2.63823
4.68647
-8.3671
3.07436
-12.0104
5.14634
-5.55107
-12.9091
-15.169
-10.6953
4.88508
2.16029
-14.2187
-12.9144
1.31857
4.19012
4.86254
-11.6188
4.70477
2.86974
4.72149
5.08301
-1.53932
4.76831
1.56573
4.607
-10.8514
-14.5726
5.24516
5.98668
5.28795
3.73793
2.4709
-8.3909
5.76113
0.139601
-13.8545
-15.3027
4.32249
-12.5044
-10.4203
-14.1803
-11.3345
0.547074
-10.3494
-12.2728
-9.28982
4.55415
-9.71531
5.06933
0.284696
5.73808
5.30075
-11.1531
-9.35127
-10.7921
-11.4795
1.11283
3.49683
-2.74174
-12.2189
5.41843
-12.7548
4.34058
-14.2215
5.14271
-10.5092
-0.404537
1.36827
2.63026
-14.839
2.31392
0.185002
-13.8834
4.05212
-9.72705
2.71991
3.47739
-7.58015
-2.51085
2.64661
-14.7423
-7.45295
5.91687
-14.0131
5.42032
4.80927
1.00367
1.45618
-12.2764
-10.8425
4.65282
-13.8369
3.79289
-15.781
5.43922
4.46547
3.54812
-16.0041
-1.46692
-11.1012
3.22552
-9.86589
1.79633
-14.0901
-12.6457
-0.397391
4.68836
-10.4773
3.95574
2.90009
4.13935
-11.1505
-12.5556
2.09237
-13.9545
2.70182
2.62857
-3.78789
3.31779
2.17704
-11.519
4.91114
4.38667
5.48878
2.31115
3.7711
6.00782
-12.9563
-11.1598
2.38693
5.13116
2.82963
-10.8712
-11.1285
2.20314
0.598339
1.20005
-14.1624
0.565895
-1.80402
-11.2385
1.92773
-14.2935
-12.8073
2.07074
2.19772
4.94784
5.42964
1.84789
3.09633
1.35284
0.982736
-11.9457
3.43658
-13.3351
2.0323
-12.1626
3.97454
-10.4487
-0.428054
-13.4417
-10.5156
1.4509
-0.11474
3.77098
3.85858
3.59414
-10.1243
-9.55967
4.77842
4.49476
3.10174
4.19639
2.19305
2.78019
-13.1784
-9.6522
-14.3095
-13.3023
5.07544
1.82952
-10.9961
3.88863
-10.6155
4.32108
2.23397
1.36606
2.95264
2.20695
3.17376
2.17967
-0.167473
-13.1286
-10.8395
5.95149
2.1529
-14.5117
-0.0517036
2.48411
-10.0981
-11.5696
-9.25351
3.54911
-15.0228
2.38488
5.196
4.86691
2.03081
8.77815
-7.18929
-11.3017
4.36482
1.13029
-13.8935
2.72167
-12.0379
-9.0382
3.16738
0.805516
3.98001
1.22299
-11.3882
1.54641
-10.7311
1.21643
4.18745
1.30442
5.35642
0.658152
5.02459
3.27367
4.41804
1.79482
2.64433
-13.8805
5.2505
-6.95803
2.9231
3.30394
3.71001
1.34084
2.4475
-2.57606
-11.8929
2.9333
-11.558
6.39842
-12.3511
4.24172
4.82317
2.10494
1.82104
-10.1297
3.32236
3.52626
-0.475238
-6.0076
4.09471
5.49337
5.04711
4.32763
-3.96228
2.37063
2.82191
-14.305
2.30475
5.98986
3.29768
-12.6262
3.35161
-11.2214
-11.1229
4.9773
3.8784
4.34012
4.30577
-13.7885
3.98689
5.71798
3.79879
-14.8358
1.33207
4.67025
1.84638
-5.41324
-7.22165
1.4062
2.58243
-9.25307
4.90325
0.99386
-9.64731
3.2462
-1.3915
-11.2761
6.42797
-11.4072
4.53639
3.22905
5.18444
2.17269
-4.37466
-9.03531
3.60009
5.72313
-11.8567
3.55928
4.69036
4.4386
0.79586
-4.20054
1.88872
1.68349
6.0403
2.91891
1.73757
2.98076
1.33656
5.08949
-7.84317
-14.0544
1.72395
-10.8938
1.37306
-14.0273
-10.9827
-12.966
-9.44046
5.28785
4.15319
-14.6797
4.66306
3.85209
-9.87298
3.10445
4.5867
-11.1122
-13.0787
3.81147
-9.23068
1.66084
-10.6991
1.47396
4.56694
-0.641054
0.997521
-14.0729
3.40329
4.55287
0.835946
2.92864
-7.68299
0.2442
3.20936
-11.4078
0.881127
-11.5381
1.09782
-13.7606
3.31925
4.62652
2.40956
5.61055
-15.7838
-8.79567
-14.8935
1.6415
-12.5215
-10.3249
5.51368
-14.0476
-0.958904
4.57297
-15.5428
-10.1917
3.54943
1.39183
1.54672
-13.1456
2.07999
4.72284
-11.0047
-14.7277
0.925832
-13.2595
-11.7196
2.21071
1.15997
-3.02329
1.36005
-15.4124
1.42503
4.47473
2.2457
-8.97203
1.74322
-1.9344
-11.4988
1.94877
-1.69713
-4.05961
4.4826
-11.4648
4.10397
-15.7464
4.24123
2.26663
3.09835
5.33516
2.54914
2.82041
4.27617
1.46011
4.84088
-11.7714
-14.8387
2.58567
-15.7101
1.81072
2.32252
3.34259
3.632
3.22826
-6.61694
4.7499
-3.66005
-12.1068
-5.53199
-13.2816
5.44383
4.06557
-12.4055
3.89881
2.13516
3.15192
2.09248
2.49856
-9.65528
3.92685
4.6426
1.92248
1.22138
1.17107
-4.88551
-1.41999
-2.31082
-11.3929
2.58995
2.14018
4.45463
3.12087
1.95382
2.47238
1.24781
2.23954
5.00346
4.29333
4.73545
-2.36256
-12.1453
-10.0737
1.35524
4.49036
-1.67196
-9.29715
-10.0375
1.65271
2.58479
0.769078
4.38123
1.95082
1.35169
-9.39073
-1.4619
2.10705
2.76822
3.46203
1.37479
-11.5153
1.67054
3.49112
2.50554
2.95289
-10.4402
5.39507
-7.42138
5.22951
1.42979
1.38418
4.18275
-10.4016
-0.555322
3.43883
-13.0166
-14.6525
0.373135
4.6231
2.9673
-11.1573
-13.922
-13.3975
2.34618
-14.6053
4.60933
8.31034
-8.47192
-9.80347
2.07066
2.43449
-2.01679
-4.65175
4.67496
1.74293
-10.0258
2.1841
5.44666
3.05104
3.9966
4.57118
5.61786
4.59946
4.30132
-11.6251
3.82746
1.84191
1.57373
4.35528
-0.0911307
1.39584
-15.238
-1.38273
-1.37626
4.81441
3.97476
3.63342
4.92918
3.2207
2.20112
-15.0025
4.38035
1.44298
5.41609
2.02956
2.86881
1.47658
4.36178
-12.46
1.94677
-14.3263
3.42496
7.34486
3.99971
3.49909
4.7637
-11.0205
3.98206
1.59203
4.35708
4.26956
-10.2958
2.54921
4.19617
-12.336
-12.9418
1.89306
-10.3791
4.69188
-13.205
4.52005
-12.932
4.63511
-3.23643
2.44845
-11.1684
0.966553
-10.7409
-9.3245
-9.93911
0.501009
-13.2452
2.34549
1.63807
2.33858
-10.9223
4.06808
1.52439
-15.2064
-10.3762
-11.146
5.13693
-13.6401
1.42169
3.5818
2.03697
-0.765752
4.30339
-5.43808
3.40953
2.87909
5.14573
4.76965
4.51698
-13.038
4.25124
5.66638
-10.414
-0.951422
1.68107
2.34932
-9.70677
3.89967
3.96412
-12.0032
4.82418
-0.980626
-3.29777
3.88372
1.137
-15.0046
2.52887
4.42596
4.60592
1.96907
4.80671
2.82833
-12.4872
1.78583
-11.0107
0.873099
1.3393
-10.3105
0.0820797
0.621157
4.41428
1.77456
2.86894
1.79991
-10.7037
-10.7313
4.36123
3.39361
2.79965
-11.5858
1.37724
-1.65305
1.80637
1.33789
4.35025
5.32578
-2.56152
1.36638
-13.939
-12.4113
4.38985
-9.39675
6.49721
-14.4709
-0.758745
2.02015
3.57636
1.36679
3.6157
3.37006
-11.066
-4.22067
-12.2191
-10.0153
-15.0768
3.79418
1.81325
-4.17716
1.88532
-2.9222
-12.8426
4.40937
-10.0991
-14.5445
-9.08166
4.17457
1.77561
2.5505
4.69685
-12.4345
4.67416
-11.8144
4.0029
4.89334
1.23105
-10.4466
-12.1358
2.8253
4.75281
5.57185
4.3865
3.31206
-1.3631
-14.6785
3.49915
2.19748
-11.4523
4.56674
-12.8316
4.69875
2.80053
5.27238
-10.4679
3.92199
2.53857
4.30763
4.44571
1.02773
3.01671
-10.0915
1.09348
2.59101
3.42018
2.36791
-14.9082
1.8208
1.67329
-6.22102
-10.6606
1.33789
-14.0691
4.54731
-9.43864
-15.5544
3.95962
1.08738
3.12632
2.87556
1.61891
-13.0955
-0.899041
5.66026
1.9607
-6.98145
-4.70399
-8.61236
-13.2314
0.124182
5.38352
-11.3774
1.34912
2.17565
2.38219
4.91703
-13.5558
-13.0842
3.85587
-14.3368
3.81522
-15.1705
0.216404
-9.77727
-13.194
-9.59773
3.64199
1.0966
4.34122
1.37088
-16.0732
-5.04528
4.68088
-1.10884
1.67549
-11.4797
4.26876
-3.89856
-4.17167
-9.71667
1.33823
-12.2841
0.71944
-12.5746
-10.8029
4.50232
1.53419
3.35303
5.85255
2.9025
-4.69928
4.44846
2.94046
-13.0345
1.64243
0.488242
0.937798
3.91463
5.23327
-14.1441
-13.7963
0.817135
-11.6868
2.45863
4.19481
3.33991
-11.1163
-12.618
-11.5037
2.99394
3.94982
4.2603
-9.93374
0.794541
-1.02561
2.79023
-13.1099
2.95235
0.783141
-14.2668
4.10027
4.84557
1.3999
3.94319
2.66591
5.95552
-1.60114
3.3029
4.03302
-12.0092
3.0158
-10.6976
-11.3645
0.849372
-5.91622
5.55713
-9.91137
5.56482
-10.9324
2.33262
3.94519
4.9734
5.35287
3.29888
0.212969
6.46692
-15.4732
3.17634
3.97395
2.75682
-13.3608
3.94804
3.85924
3.30615
-14.0069
2.70987
-9.22593
-7.02381
6.5824
5.68721
-2.61998
-13.5268
-13.5767
-2.01155
4.68593
1.42326
-12.3748
-11.6939
-10.5435
-10.2319
3.97579
3.43721
2.89902
0.93157
5.63607
4.37595
4.70973
1.76733
4.34112
-13.6229
3.68357
-14.0366
4.71031
2.77402
-3.56864
2.84359
-15.6014
1.04244
1.65686
2.36869
2.49522
4.75447
1.62799
-5.15749
0.0449819
2.97407
-3.31904
-13.0946
-9.90267
4.77359
-0.0789251
-9.96794
-13.568
-11.7351
-12.4971
-8.97087
4.51301
3.57932
3.47834
2.53519
-14.3543
-12.8035
1.68731
4.69079
1.16861
5.75007
-10.3441
3.02571