/*--------------------------------*- C++ -*----------------------------------*\
  =========                 |
  \\      /  F ield         | OpenFOAM: The Open Source CFD Toolbox
   \\    /   O peration     | Website:  https://openfoam.org
    \\  /    A nd           | Version:  10
     \\/     M anipulation  |
\*---------------------------------------------------------------------------*/
FoamFile
{
    format      ascii;
    class       surfaceScalarField;
    location    "1200";
    object      phi;
}
// * * * * * * * * * * * * * * * * * * * * * * * * * * * * * * * * * * * * * //

dimensions      [0 3 -1 0 0 0 0];

internalField   nonuniform List<scalar> 
16133
(
1.9209
0.499305
-0.75959
-1.66071
-1.79849
1.70254
-2.07884
2.17477
-0.763199
-3.09927
2.37356
1.48891
0.120266
-0.503183
-3.39967
3.78259
-1.34855
0.327716
5.68292
-4.66205
5.6295
1.69216
-7.21011
-0.111539
-3.23412
0.983265
1.93702
0.313843
-0.0689589
-2.74842
0.739296
2.07808
-1.469
2.12565
1.556
-2.21265
0.527888
4.25081
-0.0147384
-4.76394
2.99885
-2.59321
1.86568
-2.27133
3.96282
-1.60275
1.40349
-3.76356
-0.23722
-4.38249
2.59324
2.02646
0.847591
-0.739777
0.651437
-0.759254
0.927119
0.724088
-0.803618
-1.41156
1.00315
-3.23195
3.64036
-0.664379
0.57181
-0.647211
-6.00113
1.28947
4.42385
0.287814
-3.61503
2.92238
-0.776337
0.365131
2.21284
-0.657074
-0.622218
2.38069
-2.01903
0.260559
-0.163764
-3.22181
3.50582
-3.65579
3.74939
-1.50516
4.97111
-4.07227
-0.0960296
-0.802804
-4.42609
5.29602
-0.342033
-0.00240511
0.00282383
-0.0725815
0.0721626
0.0335271
-0.00595467
-0.0214303
-0.00614212
-0.211513
-2.29938
2.09083
0.420066
-0.0304195
0.05447
-0.0274538
0.00340333
-4.73176
2.98144
2.97686
-0.940541
-4.82628
2.78997
-2.20912
2.00461
3.20338
0.825834
-2.45717
1.56238
-0.042113
0.162212
-0.00318344
-0.116916
-2.50443
-2.42707
2.57341
2.3581
-0.887344
1.50956
1.0813
-1.70352
-2.08473
-3.78823
3.36853
-0.0452852
0.0836808
-0.0980679
0.0596721
0.0428799
0.0899243
-0.0231799
-0.109624
-3.57947
0.707925
-0.743483
-4.97392
0.227423
-3.21694
-0.78038
-0.882347
-0.331768
0.104709
1.1094
-0.89889
2.92674
0.514853
-2.54271
3.93082
-1.66404
-4.3515
2.17562
-0.783978
0.576618
0.0789653
-0.42514
-0.337373
0.606255
0.156257
1.69771
1.06095
-0.633001
3.35461
-3.09702
-0.421366
-1.42477
-1.94587
-5.34644
5.62099
-3.93422
3.65968
0.122296
0.0416464
-0.121063
-0.0235433
0.0369182
0.0494856
-0.0628605
-0.0165107
0.0504013
0.0560337
-0.0254128
-0.0200798
0.0150731
3.39891
-1.8553
-5.33183
-0.0618063
-0.0797115
0.120102
0.0214153
-0.523327
0.772794
-0.558305
0.308837
3.14746
0.0746762
0.0168731
0.0307471
1.61479
-1.38806
-2.02523
0.0837883
-0.0105304
0.00505239
-0.0783103
2.50878
-4.51488
4.03657
-2.03046
1.7782
-1.50317
-3.81913
2.55583
-1.83596
-0.469559
-0.233248
0.179479
0.00302633
0.284828
-0.0360575
-0.251797
0.963491
2.1565
-3.52917
0.281742
-0.824834
0.0290097
0.00561187
-0.0581649
0.105558
-0.0294798
0.0110175
-0.0870955
-0.909443
0.424865
1.46548
-0.980899
1.9195
-3.17512
-2.56351
0.704898
-1.02928
1.2515
-0.74433
-0.955743
1.03283
0.667237
-4.06168
1.34978
-0.817275
-1.92431
1.20037
1.70721
-1.5807
1.41559
0.990944
1.18127
-1.07125
0.594878
3.72919
-3.53165
0.460668
-0.658239
1.7265
-1.49919
-0.601646
0.374332
0.0541553
0.11965
-0.132158
0.0459351
0.0582864
-0.0673034
4.14162
0.333077
-0.745513
-1.43978
1.20576
1.13999
-0.905972
1.54765
-1.31426
-1.2919
1.0585
2.94003
-2.49487
-1.34408
0.880708
-0.43201
0.542593
-0.991284
1.81524
-1.31376
1.04616
3.4724
0.889252
-1.42162
4.63267
-1.66348
1.96168
0.264126
1.10813
-1.08364
0.856218
2.14709
-1.26318
0.931313
-1.64616
-0.680959
0.803094
3.94224
-0.112674
0.557885
-0.783476
-0.803684
0.777182
-0.42497
0.420583
-3.83958
4.20265
-0.402777
0.0397007
1.06175
-0.935876
4.78288
-4.65142
1.22772
-1.35914
0.999631
-1.26189
0.914101
0.803031
5.01225
-1.03239
0.416326
2.19161
0.135206
0.380829
-0.557876
-0.444221
5.3875
-0.801663
1.23272
-0.62687
0.575424
-0.0332013
-2.78439
-0.27943
-4.31997
-1.67997
-1.33658
-0.622074
0.459455
-0.633837
0.529973
-0.0240591
-3.01244
-2.83868
-0.508495
3.96968
0.741451
1.35765
-2.41211
-1.76675
2.83476
-3.88863
-0.230237
3.61035
2.04928
2.41442
-0.494032
0.545958
-0.177965
-1.11233
1.61985
-1.57597
-0.735769
0.438415
1.774
-1.47663
-3.05971
3.39097
2.10939
-2.44063
-0.0510111
0.118718
0.0073014
-0.0750087
-0.349181
0.685486
1.09146
-1.23099
5.62002
-4.55085
-0.0612308
0.0504204
-0.0123254
0.0231358
1.29813
-1.34841
-2.71197
-2.55684
-2.44065
-0.938283
0.591117
-0.0153109
0.111722
0.00914659
-0.0569259
0.141714
0.0921835
-0.176972
-0.520153
0.640033
-1.76604
-0.190487
3.86038
-1.97146
-2.47692
0.153091
-0.557236
0.293147
-3.39351
4.70634
-0.0775319
-0.151658
-0.240369
-0.785617
2.52384
-5.20044
3.46224
3.69615
0.831906
-0.868746
0.816881
-0.780043
1.52949
-1.61122
1.25464
-4.09229
-0.833988
0.690804
-0.521199
3.22195
1.42087
-5.42844
-0.508953
0.142198
-0.0583852
-1.44021
-4.76659
1.91161
-1.62505
3.9336
1.81219
5.00349
2.30967
-0.165644
0.0401588
0.286742
-0.161257
3.83269
1.78609
-2.22778
0.816161
-1.95646
2.18518
2.36907
-2.59779
5.77426
1.40358
-2.67321
-4.50463
-0.848589
0.561742
-3.27883
3.61995
4.13516
-4.08221
-0.497185
-0.570491
1.19512
3.97696
3.69235
-2.16059
1.64534
-1.94191
-3.83263
-0.0862468
3.68862
-2.98567
2.21853
-1.63898
2.40611
-4.30071
-5.41461
-0.334383
-3.27554
0.457193
-0.499697
-0.866939
0.00118764
0.0101638
-0.00925292
-0.00209863
-0.466023
0.514456
3.93903
-3.80629
1.28813
-1.5151
-2.5202
-1.88273
-0.664645
0.63045
-0.102236
0.13643
-2.48683
-0.144472
-0.0322763
0.10865
-0.0219039
-5.56158
-0.393885
-3.0321
1.56648
0.0990442
-0.0753791
-0.794855
-1.37395
2.47548
-3.02584
3.0517
3.85894
3.56458
3.35585
-2.54419
0.14338
0.0540932
-0.143318
-0.0684355
-0.0081062
0.890168
-1.95366
1.49088
-1.97814
2.1362
-2.54666
-0.497788
0.696631
-0.624568
-1.36504
0.0463191
1.91478
1.03386
0.161839
-0.00395372
-0.203171
-2.99836
2.54963
0.183714
-1.11559
1.37204
-2.48416
3.76799
-1.3079
-0.321436
0.0829361
0.0500773
-0.0492251
3.83538
-0.236917
0.00645354
-0.278489
2.45195
1.65986
3.87879
0.0294385
0.00527615
-0.858871
0.79042
-0.717302
1.27859
0.128577
-0.127352
-0.162156
0.160931
-0.0589033
0.0564981
0.500404
0.086045
-0.0632531
-0.0550683
0.665029
-0.214887
0.180307
0.250495
-0.152243
-0.175784
0.835087
-0.0553097
-1.2458
-0.0255603
-0.0917439
0.156478
-0.039174
2.04754
0.0573457
-0.0620102
0.00466443
-0.413666
-1.20218
3.65839
-4.82497
1.03099
0.727708
0.468854
-0.446939
-0.124151
-2.05892
-0.00155765
1.15701
-4.52003
-0.0640744
0.0603889
0.0285625
-0.024877
-0.407153
-4.27085
-0.0939641
-0.0181685
0.0865722
-3.3431
-0.646014
-2.69251
5.1481
-2.18585
-0.0275781
-0.138084
0.0739176
0.239751
-0.293227
0.182053
-0.0231048
-0.0379784
0.0356704
-1.87664
1.62064
-0.516503
1.88651
1.09933
-0.849634
0.00280427
-0.0115925
0.00878815
-1.17179
-2.36854
0.0176089
-0.0304353
0.0128263
1.17277
-3.96893
0.875918
1.13269
-0.527557
1.32945
0.0132973
0.00431157
0.431709
-0.16281
-0.20149
0.339734
0.206334
-0.802672
1.45918
-0.304338
-0.627052
3.83023
0.167432
-0.0611435
0.0370918
-0.743148
0.187452
-0.874683
1.16707
-2.04145
-0.475651
2.27978
-0.76546
3.7817
0.0521963
0.00430178
0.572125
-3.91432
1.35426
-0.687373
-1.88222
1.29229
0.748045
0.319783
-2.10847
1.36973
-0.161952
-0.0303505
0.0649503
5.99143
-0.0785209
0.0479579
0.069855
-0.0718778
-0.0933652
0.137297
-2.61423
0.109169
0.0824173
-0.101701
0.0237235
0.028853
-0.0525765
-0.80318
-3.43613
4.17902
-0.397593
0.22521
0.24487
-1.91518
0.00559635
-0.00279211
-1.2466
-3.91945
0.238444
0.0467243
0.0779478
-0.0767143
-0.0020791
-0.167157
-0.0268671
-2.16435
-0.13132
-2.71069
-1.44387
-0.0067118
0.128392
0.287092
-0.126415
-0.680644
-0.0303539
0.0344159
-0.0145924
0.0532691
0.155415
-0.154591
-0.307114
-2.01459
-3.23803
0.0489509
0.00324527
0.190203
-1.94477
0.0403495
1.14469
-0.04393
0.0544845
0.0605144
0.0673471
-0.0811372
0.578937
0.155469
-0.0303145
0.0232597
-0.0335381
-0.00749145
0.0091963
-0.133722
0.220813
-0.0902742
0.004893
0.0108672
0.0510114
-0.00206049
0.00489073
-0.0141437
0.169489
0.0348492
0.00569763
-0.0119844
-0.165609
1.54664
-1.12847
0.997428
0.0122181
-0.0854258
-0.0200984
0.27624
-0.347372
-0.521019
0.807865
0.601095
-1.42851
-1.13827
-0.0232246
0.0347317
-0.0527684
0.037351
-0.0668377
-0.00175887
0.01544
0.00995173
-0.00153923
0.0525506
-0.0983976
-0.0589573
1.55312
-0.011772
0.0444444
-1.8394
0.507628
-1.28116
-0.575166
-0.0865629
0.0039927
-0.0240911
-0.051619
0.0174116
-0.0461665
0.0582959
-0.0183934
0.538731
-0.734589
-0.88255
0.823741
-0.085515
-1.43919
-0.331209
-0.0468517
-0.027753
-1.42176
-0.95121
-0.0303778
-0.0367132
0.032119
0.126513
-0.427645
0.0421393
0.0194018
-0.0552548
1.00821
-0.0188785
0.0225105
0.0107993
0.0349278
3.28048
0.192151
-0.194447
-0.732895
-0.188826
-0.809879
-0.00412075
0.119394
-0.115273
-0.00855841
0.124562
-0.120125
-0.0129421
0.13594
-0.131556
-0.0176845
0.145527
-0.140785
-0.0225914
0.155391
-0.150484
-0.0278267
0.164306
-0.159071
-0.0332442
0.173055
-0.167638
-0.0388977
0.181332
-0.175679
0.189313
-0.183733
-0.0444775
-0.00362426
0.123018
-0.00762191
0.12856
-0.0115379
0.139856
-0.015768
0.149757
-0.0200824
0.159705
-0.0246711
0.168895
-0.0294238
0.177808
-0.0343635
0.186272
0.194426
-0.0394767
-0.00339342
0.126412
-0.0067727
0.131939
-0.0101613
0.143244
-0.0137865
0.153382
-0.0175085
0.163427
-0.0214358
0.172822
-0.025508
0.18188
-0.0297421
0.190506
0.198822
-0.0341379
-0.00305445
0.129466
-0.0058909
0.134776
-0.008734
0.146088
-0.0117418
0.15639
-0.0148537
0.166539
-0.0181314
0.1761
-0.0215412
0.18529
-0.02511
0.194075
0.202585
-0.0288725
-0.00262577
0.132092
-0.00492481
0.137075
-0.00720942
0.148372
-0.00961146
0.158792
-0.0121083
0.169036
-0.0147471
0.178739
-0.0175231
0.188066
-0.020466
0.197018
0.205722
-0.0236036
-0.00207108
0.134163
-0.00383625
0.13884
-0.00557273
0.150109
-0.00738547
0.160605
-0.00927748
0.170928
-0.0112912
0.180753
-0.0134265
0.190201
-0.0157159
0.199308
0.208203
-0.0181967
-0.00126395
0.135427
-0.00256552
0.140142
-0.0038037
0.151347
-0.00507689
0.161878
-0.00638643
0.172238
-0.00778103
0.182147
-0.00928613
0.191706
-0.0109264
0.200948
0.210019
-0.0127417
-0.000215185
0.135642
-0.00117432
0.141101
-0.00197106
0.152144
-0.0027306
0.162638
-0.00348179
0.172989
-0.00428614
0.182952
-0.00517168
0.192592
-0.00617548
0.201952
0.211122
-0.00727909
0.000705458
0.134936
0.000105097
0.141701
-0.000220799
0.152469
-0.000466072
0.162883
-0.000668005
0.173191
-0.000891377
0.183175
-0.00118483
0.192885
-0.00156971
0.202336
0.211633
-0.00208029
0.00116057
0.133776
0.00105273
0.141809
0.00130123
0.152221
0.00161665
0.162567
0.00196961
0.172838
0.00228418
0.18286
0.00253127
0.192638
0.00267598
0.202192
0.211585
0.00272338
0.00121304
0.132563
0.001718
0.141304
0.00260142
0.151337
0.00347848
0.16169
0.00434997
0.171966
0.00514887
0.182061
0.00586144
0.191926
0.00645006
0.201603
0.211142
0.00689347
0.00120832
0.131354
0.00237525
0.140137
0.00380178
0.149911
0.00515355
0.160339
0.0064387
0.170681
0.00764207
0.180858
0.00873469
0.190833
0.00971771
0.20062
0.21037
0.0104896
0.00159413
0.12976
0.0032895
0.138442
0.00502337
0.148177
0.00666082
0.158701
0.00821887
0.169123
0.00968022
0.179397
0.011036
0.189477
0.0122659
0.19939
0.209246
0.0133894
0.00229939
0.127461
0.0043255
0.136415
0.00619198
0.14631
0.00796103
0.156932
0.00964649
0.167437
0.0112286
0.177814
0.0127012
0.188005
0.0140404
0.198051
0.208027
0.0152596
0.00297528
0.124486
0.00523665
0.134154
0.00716032
0.144387
0.00895998
0.155132
0.0106714
0.165726
0.0122905
0.176195
0.0137958
0.186499
0.0151595
0.196687
0.206787
0.0163999
0.00332195
0.121164
0.0057896
0.131686
0.00775136
0.142425
0.00956481
0.153319
0.0112808
0.16401
0.0128984
0.174578
0.0143976
0.185
0.0157572
0.195327
0.205553
0.0169909
0.00307377
0.11809
0.00576252
0.128998
0.00784146
0.140346
0.00973282
0.151427
0.011494
0.162249
0.0131363
0.172935
0.0146354
0.183501
0.0159917
0.193971
0.204388
0.0171569
0.00244629
0.115643
0.00522681
0.126217
0.0074971
0.138076
0.00953794
0.149386
0.011402
0.160385
0.0131088
0.171229
0.014651
0.181958
0.0160207
0.192601
0.203211
0.0171973
0.00190894
0.113734
0.00459345
0.123532
0.00698418
0.135685
0.00917408
0.147197
0.0111729
0.158386
0.0129946
0.169407
0.0146346
0.180318
0.0160985
0.191137
0.201912
0.0173976
0.00160281
0.112132
0.00412264
0.121013
0.00654365
0.133264
0.00884417
0.144896
0.0109745
0.156255
0.0129318
0.167449
0.0147058
0.178544
0.0162888
0.189554
0.20053
0.0176714
0.00146028
0.110671
0.00387309
0.1186
0.00629815
0.130839
0.00868209
0.142512
0.0109441
0.153993
0.0130598
0.165334
0.0150086
0.176596
0.0167556
0.187807
0.19904
0.0182455
0.00150393
0.109167
0.00387902
0.116225
0.00631385
0.128404
0.00876633
0.14006
0.0111652
0.151594
0.0134687
0.16303
0.0156416
0.174423
0.0176187
0.18583
0.197277
0.0193812
0.00183466
0.107333
0.00416847
0.113891
0.00660454
0.125968
0.00911605
0.137548
0.0116641
0.149046
0.0141939
0.1605
0.0166691
0.171947
0.0189483
0.183551
0.19536
0.0208651
0.00245286
0.10488
0.00470581
0.111638
0.00712245
0.123551
0.00971015
0.13496
0.0124286
0.146328
0.0152066
0.157722
0.0180565
0.169097
0.0207057
0.180902
0.193651
0.0224149
0.0031789
0.00519243
0.00768061
0.0104824
0.0134923
0.0166236
0.020112
0.0240421
0.0288669
-0.0916073
-0.00128755
0.0928948
-0.0901531
-0.00145421
-0.0885162
-0.00163685
-0.0866781
-0.0018381
-0.0846273
-0.00205083
-0.082353
-0.00227431
-0.0798478
-0.00250522
-0.077109
-0.00273882
-0.0741298
-0.00297914
-0.0709126
-0.00321724
-0.0674593
-0.00345324
-0.0637767
-0.00368257
-0.0598748
-0.00390191
-0.0557624
-0.00411245
-0.0514546
-0.00430775
-0.0469647
-0.00448983
-0.0423127
-0.00465199
-0.0375192
-0.00479347
-0.0326125
-0.00490667
-0.0276277
-0.00498486
-0.0226122
-0.00501543
-0.0176338
-0.00497837
-0.012773
-0.00486073
-0.0080983
-0.00467471
-0.00356471
-0.00453354
0.000965347
-0.00453005
0.00562588
-0.0046605
0.0105756
-0.00494971
0.0158525
-0.00527683
0.0213332
-0.00548068
0.0269046
-0.00557137
0.0324909
-0.00558628
0.0380386
-0.0055477
0.0434976
-0.00545893
0.0488211
-0.00532354
0.0539693
-0.00514813
0.0589053
-0.00493598
0.0635962
-0.00469085
0.0680186
-0.00442236
0.072155
-0.0041364
0.0760005
-0.00384545
0.0795604
-0.00355994
0.0828481
-0.00328765
0.0858882
-0.00304005
0.0887067
-0.00281847
0.0913509
-0.0026442
0.0938644
-0.00251339
0.0962789
-0.00241449
0.0986026
-0.00232365
0.100832
-0.00222941
0.102962
-0.00212985
0.104977
-0.00201547
0.106868
-0.00189112
0.10862
-0.00175113
0.110226
-0.00160601
0.111689
-0.0014635
0.113013
-0.00132326
0.114207
-0.0011944
-0.00106613
-0.0900673
-0.00270228
0.091482
-0.0885361
-0.00298537
-0.0868802
-0.00329276
-0.0850893
-0.00362896
-0.083158
-0.00398217
-0.0810729
-0.00435938
-0.0788275
-0.00475062
-0.0764067
-0.00515965
-0.0738012
-0.00558465
-0.0710003
-0.00601812
-0.0679944
-0.0064591
-0.0647767
-0.00690033
-0.0613391
-0.00733946
-0.0576839
-0.00776773
-0.0538103
-0.00818134
-0.0497226
-0.00857752
-0.0454286
-0.0089459
-0.0409401
-0.00928205
-0.0362675
-0.0095792
-0.0314251
-0.00982731
-0.0264216
-0.0100189
-0.0212496
-0.0101503
-0.0158801
-0.0102303
-0.0102653
-0.0102895
-0.00442864
-0.0103702
0.00153441
-0.0104931
0.00753486
-0.0106609
0.0134569
-0.0108718
0.0192807
-0.0111005
0.025067
-0.0112671
0.0308342
-0.0113385
0.0365632
-0.0113153
0.0422179
-0.0112024
0.0477664
-0.0110074
0.0531741
-0.0107312
0.0584121
-0.0103861
0.0634545
-0.00997839
0.0682864
-0.0095227
0.072893
-0.00902897
0.0772686
-0.00851206
0.0814095
-0.00798632
0.0853125
-0.00746291
0.0889845
-0.00695963
0.0924276
-0.00648309
0.0956485
-0.00603936
0.0986419
-0.00563765
0.1014
-0.00527097
0.103915
-0.0049303
0.1062
-0.00460831
0.108263
-0.00429263
0.110124
-0.00399064
0.111805
-0.00369665
0.113328
-0.00341329
0.114716
-0.0031401
0.115985
-0.00287462
0.117151
-0.00262963
0.118222
-0.00239398
0.119208
-0.00218073
-0.0019825
-0.0979928
-0.00427872
0.0995692
-0.0962923
-0.00468589
-0.0944604
-0.00512459
-0.0924952
-0.00559421
-0.0903805
-0.00609688
-0.088107
-0.0066328
-0.0856609
-0.00719678
-0.0830331
-0.00778745
-0.0802121
-0.00840565
-0.0771876
-0.00904262
-0.0739506
-0.00969605
-0.0704944
-0.0103566
-0.0668136
-0.0110202
-0.0629031
-0.0116783
-0.0587595
-0.0123248
-0.0543877
-0.0129494
-0.0497852
-0.0135484
-0.0449584
-0.0141089
-0.0399113
-0.0146263
-0.0346474
-0.0150912
-0.0291659
-0.0155004
-0.0234658
-0.0158504
-0.017548
-0.016148
-0.01143
-0.0164075
-0.00515404
-0.0166462
0.00123317
-0.0168803
0.00768392
-0.0171117
0.0141443
-0.0173322
0.0205598
-0.017516
0.0269187
-0.017626
0.0332166
-0.0176364
0.0394372
-0.0175359
0.0455576
-0.0173228
0.0515485
-0.0169983
0.0573872
-0.0165699
0.0630491
-0.016048
0.0685129
-0.0154422
0.0737628
-0.0147726
0.0787872
-0.0140534
0.083574
-0.0132989
0.0881193
-0.0125316
0.0924199
-0.0117635
0.0964727
-0.0110124
0.100273
-0.0102839
0.103827
-0.00959246
0.107124
-0.00893488
0.110168
-0.00831508
0.112965
-0.00772769
0.115528
-0.00717131
0.117872
-0.00663656
0.120005
-0.00612383
0.121943
-0.00563473
0.123709
-0.00517931
0.12532
-0.00475073
0.126794
-0.00434858
0.128141
-0.00397704
0.129381
-0.00363353
0.130516
-0.00331548
-0.00302276
-0.104571
-0.0058951
0.106187
-0.102826
-0.00643045
-0.100939
-0.0070116
-0.0989002
-0.00763294
-0.0967018
-0.00829536
-0.0943328
-0.00900172
-0.0917836
-0.00974606
-0.0890394
-0.0105316
-0.0860945
-0.0113505
-0.0829382
-0.0121989
-0.0795622
-0.0130721
-0.0759522
-0.0139666
-0.0721039
-0.0148685
-0.0680059
-0.0157763
-0.063657
-0.0166738
-0.0590486
-0.0175578
-0.054182
-0.018415
-0.049057
-0.0192339
-0.0436755
-0.0200078
-0.0380403
-0.0207264
-0.0321552
-0.0213855
-0.0260257
-0.0219799
-0.0196629
-0.0225108
-0.0130905
-0.0229799
-0.00634303
-0.0233936
0.000533436
-0.0237568
0.00748537
-0.0240636
0.01446
-0.0243068
0.0214134
-0.0244694
0.0283173
-0.0245298
0.0351505
-0.0244697
0.0418931
-0.0242784
0.0485212
-0.0239509
0.0550128
-0.0234898
0.0613407
-0.0228979
0.0674849
-0.0221922
0.0734262
-0.0213835
0.0791394
-0.0204858
0.0846092
-0.0195232
0.0898253
-0.018515
0.0947755
-0.0174817
0.0994504
-0.0164384
0.103842
-0.0154043
0.107947
-0.0143887
0.111757
-0.0134029
0.115281
-0.0124582
0.118516
-0.0115502
0.121478
-0.01069
0.124175
-0.00986831
0.126633
-0.00909405
0.128867
-0.00835772
0.130895
-0.00766353
0.132732
-0.00701609
0.134403
-0.00642153
0.135924
-0.00586995
0.137312
-0.00536434
0.138576
-0.00489772
0.139728
-0.00446761
-0.00407933
-0.113712
-0.00765696
0.115474
-0.111798
-0.00834509
-0.109727
-0.00908247
-0.107489
-0.0098703
-0.105076
-0.0107093
-0.102477
-0.0116002
-0.0996799
-0.0125432
-0.0966796
-0.0135319
-0.0934638
-0.0145663
-0.0900225
-0.0156403
-0.0863461
-0.0167484
-0.0824262
-0.0178865
-0.0782539
-0.0190409
-0.0738244
-0.0202058
-0.0691277
-0.0213705
-0.0641621
-0.0225234
-0.0589252
-0.0236519
-0.0534141
-0.024745
-0.0476337
-0.0257883
-0.0415846
-0.0267755
-0.0352773
-0.0276929
-0.0287216
-0.0285356
-0.0219352
-0.0292973
-0.0149412
-0.0299739
-0.00777358
-0.0305612
-0.000473827
-0.0310565
0.00691472
-0.0314522
0.014348
-0.0317401
0.0217845
-0.031906
0.0291889
-0.0319342
0.0365309
-0.0318116
0.0437809
-0.0315285
0.0509099
-0.0310799
0.057893
-0.0304728
0.0647056
-0.0297105
0.0713176
-0.0288042
0.0777064
-0.0277724
0.0838524
-0.0266318
0.0897353
-0.025406
0.0953418
-0.0241216
0.100654
-0.0227937
0.105667
-0.021452
0.110372
-0.0201089
0.114767
-0.0187842
0.118855
-0.0174903
0.122634
-0.0162375
0.126119
-0.0150347
0.129315
-0.0138867
0.132241
-0.0127935
0.13491
-0.0117635
0.137348
-0.010796
0.139575
-0.00989037
0.141609
-0.00904987
0.143456
-0.00826891
0.145138
-0.00755181
0.146668
-0.00689396
0.14806
-0.00629038
0.149331
-0.00573778
-0.00523266
-0.122346
-0.00950212
0.124191
-0.120343
-0.0103487
-0.118174
-0.0112508
-0.115827
-0.0122174
-0.113287
-0.0132491
-0.110549
-0.0143384
-0.107599
-0.0154931
-0.104426
-0.0167056
-0.101017
-0.0179755
-0.097364
-0.0192929
-0.0934559
-0.0206565
-0.0892843
-0.0220581
-0.0848376
-0.0234876
-0.0801081
-0.0249353
-0.0750914
-0.0263871
-0.0697831
-0.0278318
-0.0641804
-0.0292546
-0.058289
-0.0306363
-0.0521089
-0.0319684
-0.0456483
-0.0332362
-0.0389141
-0.0344271
-0.0319228
-0.0355268
-0.0246927
-0.0365274
-0.0172505
-0.0374162
-0.00963005
-0.0381817
-0.00187052
-0.0388161
0.00598646
-0.0393092
0.0139004
-0.0396541
0.0218312
-0.0398368
0.029741
-0.039844
0.037596
-0.0396666
0.04536
-0.0392925
0.053002
-0.0387219
0.0604935
-0.0379643
0.0678017
-0.0370187
0.0749019
-0.0359044
0.0817668
-0.0346372
0.0883632
-0.0332282
0.0946742
-0.0317169
0.100679
-0.030126
0.106366
-0.0284811
0.111721
-0.0268071
0.116742
-0.0251296
0.121422
-0.0234644
0.125767
-0.0218349
0.12978
-0.0202507
0.13347
-0.018725
0.136851
-0.0172679
0.139943
-0.0158851
0.142762
-0.0145828
0.145333
-0.0133667
0.147673
-0.0122301
0.149801
-0.0111778
0.151736
-0.0102042
0.153497
-0.00931287
0.155095
-0.00849174
0.156547
-0.00774219
0.15787
-0.00706126
-0.00643368
-0.132229
-0.0114745
0.134202
-0.130084
-0.012494
-0.127755
-0.0135794
-0.125233
-0.0147401
-0.122505
-0.0159767
-0.119557
-0.0172861
-0.116379
-0.0186709
-0.112958
-0.0201273
-0.109287
-0.0216465
-0.10535
-0.0232292
-0.101143
-0.024864
-0.0966552
-0.0265458
-0.0918756
-0.0282672
-0.0867978
-0.030013
-0.0814169
-0.031768
-0.0757307
-0.033518
-0.069734
-0.0352513
-0.0634402
-0.0369301
-0.0568483
-0.0385603
-0.0499693
-0.0401152
-0.0428081
-0.0415882
-0.035384
-0.042951
-0.027717
-0.0441944
-0.0198289
-0.0453043
-0.0117612
-0.0462494
-0.00354933
-0.047028
0.00476303
-0.0476215
0.0131417
-0.0480328
0.0215484
-0.0482434
0.0299424
-0.0482381
0.0382914
-0.0480156
0.0465487
-0.0475498
0.0546812
-0.0468544
0.0626599
-0.045943
0.0704455
-0.0448042
0.0780162
-0.0434752
0.0853411
-0.0419621
0.0923705
-0.0402577
0.0990945
-0.0384409
0.10549
-0.0365215
0.111548
-0.0345386
0.11725
-0.0325095
0.122594
-0.0304739
0.127575
-0.028445
0.1322
-0.0264604
0.136474
-0.0245246
0.140408
-0.0226585
0.144011
-0.020871
0.147305
-0.0191791
0.15031
-0.0175882
0.153043
-0.0160996
0.155534
-0.0147214
0.157798
-0.0134411
0.159856
-0.0122624
0.161725
-0.0111816
0.163423
-0.01019
0.164966
-0.00928535
0.166367
-0.00846176
-0.00770464
-0.142223
-0.0135622
0.14431
-0.139961
-0.0147557
-0.13751
-0.0160304
-0.134846
-0.0174035
-0.131964
-0.018859
-0.128841
-0.0204096
-0.125475
-0.0220369
-0.12184
-0.0237624
-0.11792
-0.0255664
-0.11373
-0.0274189
-0.109246
-0.0293481
-0.104459
-0.0313332
-0.0993613
-0.0333646
-0.0939424
-0.0354319
-0.0882013
-0.0375092
-0.0821287
-0.0395906
-0.0757212
-0.0416587
-0.069016
-0.0436354
-0.0620097
-0.0455666
-0.0547067
-0.0474182
-0.047106
-0.0491889
-0.0392388
-0.0508182
-0.0311279
-0.0523053
-0.0227657
-0.0536665
-0.0142333
-0.0547818
-0.00555119
-0.0557101
0.00321973
-0.0563925
0.0120707
-0.0568838
0.0209576
-0.0571303
0.0298349
-0.0571154
0.0386852
-0.0568658
0.0474308
-0.0562955
0.0560434
-0.0554671
0.0645217
-0.0544213
0.072777
-0.0530596
0.0808235
-0.0515217
0.0886458
-0.0497844
0.0961123
-0.0477242
0.103255
-0.0455837
0.110055
-0.0433212
0.116494
-0.0409777
0.122566
-0.0385819
0.12824
-0.0361475
0.133526
-0.0337311
0.138455
-0.0313893
0.142989
-0.0290589
0.147174
-0.0268431
0.151002
-0.0246997
0.154477
-0.0226538
0.157634
-0.0207453
0.160501
-0.0189665
0.163104
-0.0173241
0.165464
-0.0158012
0.167603
-0.0144019
0.169543
-0.0131218
0.171305
-0.011952
0.172901
-0.010881
0.174355
-0.00991586
-0.00902862
-0.15322
0.155411
-0.0157529
-0.150822
-0.0171539
-0.148217
-0.0186354
-0.145372
-0.0202486
-0.142286
-0.0219444
-0.138925
-0.0237714
-0.13528
-0.0256812
-0.131386
-0.0276565
-0.127208
-0.0297441
-0.122655
-0.0319718
-0.117836
-0.0341673
-0.112697
-0.0364722
-0.10719
-0.0388721
-0.101401
-0.0412209
-0.0952384
-0.0436715
-0.088813
-0.046016
-0.0820551
-0.0484166
-0.0749342
-0.0507563
-0.0674407
-0.0530602
-0.0596829
-0.055176
-0.0516221
-0.0572497
-0.0433507
-0.0590896
-0.0348253
-0.0608306
-0.0259853
-0.0625065
-0.0169825
-0.0637846
-0.00784491
-0.0648476
0.00135019
-0.0655876
0.0106794
-0.066213
0.0200803
-0.0665313
0.0293994
-0.0664344
0.0387466
-0.066213
0.0479885
-0.0655373
0.0570366
-0.0645151
0.0660195
-0.0634043
0.0747881
-0.0618281
0.0833195
-0.0600531
0.0915002
-0.0579651
0.0993116
-0.0555356
0.106929
-0.0532014
0.114133
-0.050525
0.120962
-0.047807
0.127448
-0.0450679
0.133502
-0.0422015
0.139154
-0.039383
0.144406
-0.0366406
0.149234
-0.0338871
0.153659
-0.031268
0.15768
-0.0287213
0.161419
-0.0263926
0.164812
-0.0241383
0.16787
-0.0220242
0.170626
-0.0200799
0.173103
-0.0182784
0.175368
-0.0166674
0.177417
-0.0151709
0.179263
-0.0137976
0.180931
-0.0125484
0.182375
-0.0113608
-0.0103865
-0.063354
0.0107775
-0.0729645
0.00961046
-0.081413
0.00844843
-0.0885983
0.0071853
-0.0948439
0.00624566
-0.100602
0.00575776
-0.10606
0.00545827
-0.11127
0.00520995
-0.116237
0.00496702
-0.120609
0.0043717
-0.123793
0.0031843
-0.125506
0.00171311
-0.125854
0.000347851
-0.125246
-0.00060792
-0.124258
-0.000988264
-0.123149
-0.00110864
-0.121732
-0.0014172
-0.119659
-0.00207265
-0.116901
-0.00275793
-0.113678
-0.00322356
-0.11013
-0.00354757
-0.106302
-0.00382825
-0.10219
-0.00411214
-0.0978127
-0.00437718
-0.00491789
-0.0672498
0.0198624
-0.0761456
0.0185062
-0.0844932
0.016796
-0.0923417
0.0150338
-0.0996729
0.0135768
-0.106408
0.0124924
-0.112537
0.0115876
-0.118019
0.0106923
-0.122676
0.00962332
-0.126372
0.00806855
-0.129169
0.0059808
-0.131104
0.00364851
-0.132152
0.00139557
-0.13226
-0.000500101
-0.131395
-0.00185293
-0.129686
-0.00281819
-0.127365
-0.00373759
-0.124646
-0.00479156
-0.121551
-0.00585355
-0.117975
-0.00679905
-0.113882
-0.00764127
-0.109249
-0.00846135
-0.104036
-0.00932486
-0.0981087
-0.0103043
-0.0115446
-0.0730129
0.0300147
-0.0826816
0.0281749
-0.0918458
0.0259602
-0.100493
0.0236814
-0.108484
0.0215669
-0.115673
0.0196817
-0.12199
0.017905
-0.127379
0.0160816
-0.131788
0.0140319
-0.135297
0.0115773
-0.138035
0.00871946
-0.140057
0.00566973
-0.141361
0.00269972
-0.141887
2.58408e-05
-0.14152
-0.00221998
-0.140222
-0.00411589
-0.138111
-0.00584857
-0.135352
-0.00755041
-0.132014
-0.00919158
-0.128082
-0.0107313
-0.123543
-0.0121799
-0.118402
-0.0136027
-0.112675
-0.0150523
-0.10638
-0.0165989
-0.0183554
-0.0785393
0.0412506
-0.0890761
0.0387117
-0.0989999
0.035884
-0.108284
0.0329655
-0.116813
0.0300962
-0.124458
0.0273266
-0.131134
0.0245804
-0.1368
0.0217475
-0.141461
0.018693
-0.145205
0.0153215
-0.148145
0.0116594
-0.150335
0.00785988
-0.15176
0.00412416
-0.152367
0.00063353
-0.152066
-0.00252091
-0.150829
-0.00535309
-0.148709
-0.00796898
-0.145809
-0.0104499
-0.142184
-0.0128167
-0.137857
-0.0150584
-0.132824
-0.0172131
-0.1271
-0.0193264
-0.120703
-0.0214495
-0.113677
-0.0236243
-0.0258459
-0.0840535
0.0534262
-0.0955105
0.0501687
-0.106235
0.0466082
-0.116192
0.042923
-0.125287
0.0391907
-0.133426
0.0354652
-0.140539
0.0316937
-0.146604
0.0278128
-0.151644
0.0237324
-0.155727
0.0194049
-0.15894
0.0148725
-0.161329
0.0102484
-0.162876
0.00567197
-0.163542
0.00129913
-0.16328
-0.00278299
-0.162056
-0.00657678
-0.1599
-0.010125
-0.156883
-0.0134671
-0.153058
-0.0166415
-0.148462
-0.0196543
-0.143128
-0.0225472
-0.137097
-0.0253573
-0.130429
-0.0281181
-0.123203
-0.0308504
-0.0335745
-0.0896499
0.0663618
-0.101995
0.0625141
-0.113519
0.0581315
-0.124176
0.0535808
-0.133882
0.0488966
-0.142575
0.0441583
-0.150191
0.0393089
-0.156723
0.0343449
-0.162198
0.0292074
-0.166662
0.0238695
-0.170187
0.0183971
-0.172797
0.0128582
-0.174485
0.00736046
-0.175226
0.00203932
-0.174973
-0.00303595
-0.173725
-0.00782458
-0.171507
-0.0123425
-0.168355
-0.016619
-0.164328
-0.0206687
-0.159462
-0.0245202
-0.153806
-0.0282032
-0.1474
-0.0317636
-0.140289
-0.0352291
-0.132524
-0.0386155
-0.0419068
-0.0951798
0.0804043
-0.108527
0.0758615
-0.120889
0.0704934
-0.132289
0.064981
-0.142657
0.0592646
-0.151959
0.0534603
-0.160116
0.0474653
-0.167149
0.0413784
-0.173077
0.0351344
-0.177937
0.0287303
-0.181789
0.0222492
-0.184655
0.0157237
-0.186511
0.0092161
-0.187335
0.00286354
-0.187122
-0.00324841
-0.185865
-0.00908225
-0.183583
-0.0146246
-0.180318
-0.0198835
-0.176116
-0.0248706
-0.171039
-0.0295977
-0.165129
-0.0341127
-0.158447
-0.0384463
-0.151022
-0.0426535
-0.142917
-0.0467204
-0.0506226
-0.100826
0.0958043
-0.115216
0.0902515
-0.128395
0.0836731
-0.140563
0.0771482
-0.151628
0.0703302
-0.161583
0.0634154
-0.170308
0.0561898
-0.177854
0.0489242
-0.184259
0.0415398
-0.189521
0.0339917
-0.1937
0.0264281
-0.196845
0.0188687
-0.198881
0.011253
-0.199816
0.00379804
-0.199651
-0.00341323
-0.198384
-0.0103494
-0.196046
-0.0169631
-0.19267
-0.0232594
-0.188304
-0.0292366
-0.183014
-0.0348873
-0.176853
-0.0402741
-0.16989
-0.0454089
-0.162121
-0.050423
-0.15358
-0.0552608
-0.0598929
-0.106971
0.112501
-0.122159
0.10544
-0.136032
0.0975462
-0.148981
0.0900971
-0.160785
0.082134
-0.171464
0.0740947
-0.180765
0.0654911
-0.188831
0.0569898
-0.195727
0.0484354
-0.201422
0.0396869
-0.205906
0.0309118
-0.209318
0.0222809
-0.211577
0.0135117
-0.212615
0.00483641
-0.212501
-0.00352717
-0.211235
-0.0116151
-0.208834
-0.0193645
-0.20537
-0.0267234
-0.200828
-0.0337782
-0.195268
-0.0404472
-0.188837
-0.0467056
-0.181567
-0.052679
-0.173442
-0.0585483
-0.164736
-0.0639664
-0.0692179
1.39353
2.37029
0.164311
-2.5346
0.740325
0.122055
-0.862391
0.271329
-0.369868
0.0985396
0.335604
-0.403331
0.0677269
-0.531584
-0.506465
1.03805
-0.46131
0.75813
-0.29682
2.50306
-2.85586
0.352799
-0.0369951
-0.19829
0.235285
5.12495
-3.48339
-1.64156
-0.870795
1.8576
-0.986802
-0.798917
0.262187
0.536731
1.21234
-1.95546
0.743124
-1.2531
0.327466
0.925637
0.112668
-0.114169
0.0015008
4.86086
-4.70458
-0.156282
-0.205094
0.945423
0.133721
-0.0263797
-0.107341
-0.0979219
-0.110336
0.36462
0.22264
-0.58726
-0.339639
0.221722
0.117917
2.99702
2.03859
-5.03561
-0.564418
0.856046
-0.291628
1.28835
-1.03907
-0.249287
-0.966554
0.352294
0.61426
1.1302
0.158157
-1.18119
0.789046
0.392146
-0.838296
0.128009
0.710287
5.06274
-2.77153
-2.29121
-0.0284283
-0.14361
0.172039
0.166413
0.509912
-0.676325
-0.964316
0.17047
0.793841
0.829904
0.685065
-1.51497
2.93317
-5.23506
2.30188
-0.287475
-0.0736171
0.361092
0.071143
1.51399
-1.58513
-0.898432
-0.354671
-2.81185
1.38176
1.43009
-0.327155
0.633681