/*--------------------------------*- C++ -*----------------------------------*\
  =========                 |
  \\      /  F ield         | OpenFOAM: The Open Source CFD Toolbox
   \\    /   O peration     | Website:  https://openfoam.org
    \\  /    A nd           | Version:  10
     \\/     M anipulation  |
\*---------------------------------------------------------------------------*/
FoamFile
{
    format      ascii;
    class       volVectorField;
    location    "1200";
    object      U;
}
// * * * * * * * * * * * * * * * * * * * * * * * * * * * * * * * * * * * * * //

dimensions      [0 1 -1 0 0 0 0];

internalField   nonuniform List<vector> 
10435
(
(1.72075 0.566048 1.66769e-22)
(2.18765 1.37176 -1.04664e-20)
(4.16587 -0.351852 -2.8379e-20)
(2.75113 0.39823 5.10395e-20)
(3.9577 0.567618 -3.1564e-20)
(4.18493 -0.240298 2.3523e-19)
(4.09001 -0.317411 -1.01212e-19)
(3.59368 -0.30792 5.72908e-20)
(3.05638 -0.307949 1.84947e-19)
(4.25478 -0.433323 -6.86105e-20)
(2.7661 1.33738 -4.61383e-20)
(3.55188 -0.0866613 1.37722e-19)
(4.13963 -0.420508 7.55997e-20)
(0.844853 0.641272 -4.1449e-21)
(0.93573 0.683745 -5.08409e-21)
(3.88934 -0.335324 -7.64602e-21)
(0.760931 0.581309 1.39984e-21)
(4.02936 -0.471102 2.59595e-19)
(2.78893 -0.299521 -7.04344e-20)
(1.89196 0.503182 -5.68773e-21)
(3.76113 -0.317949 4.26249e-20)
(2.64301 0.168869 -7.84438e-20)
(4.02973 -0.349297 3.03584e-19)
(3.01673 -0.311492 -7.78032e-20)
(4.29691 -0.406536 7.92831e-20)
(0.239458 0.397767 -3.30586e-23)
(0.0412921 0.141311 1.45401e-22)
(4.19782 -0.371004 6.31607e-20)
(0.206695 -0.00156968 -7.46808e-23)
(4.13136 -0.463836 3.38182e-19)
(4.17727 -0.321533 1.25876e-19)
(3.04779 1.26805 -5.92978e-21)
(3.45901 -0.308415 -1.19646e-19)
(0.452368 0.0289225 9.7145e-23)
(3.48088 -0.319923 6.8009e-20)
(1.44619 1.21488 -1.68385e-21)
(3.66435 -0.325515 1.00196e-19)
(0.148344 0.322429 -1.45204e-21)
(0.372807 0.372022 -1.30252e-22)
(2.88007 -0.288023 2.16186e-20)
(4.05942 -0.480614 -3.73987e-19)
(4.10424 -0.339385 -8.31503e-20)
(0.570648 0.66373 -4.53649e-21)
(2.2967 0.568928 -6.21611e-20)
(3.88408 -0.325663 -2.15937e-19)
(2.96022 -0.296137 1.30226e-19)
(4.14902 -0.3718 -2.76579e-19)
(0.420233 0.539717 -1.27574e-20)
(3.00239 -0.334344 5.75415e-20)
(2.53111 -0.0350274 -2.65974e-20)
(3.6234 -0.317195 -8.94174e-21)
(4.33864 -0.200922 1.04249e-18)
(0.412823 0.391942 -1.98951e-22)
(0.295485 -0.104733 -3.64105e-24)
(0.332155 0.379486 -5.84155e-24)
(0.156113 -0.0411442 1.89074e-22)
(3.4803 -0.313461 -2.94547e-19)
(0.152389 0.256973 -1.82571e-22)
(0.652516 0.343346 -2.83204e-22)
(3.26466 -0.301311 1.85679e-19)
(0.371521 0.403285 2.07856e-22)
(1.90876 1.33858 -1.92694e-21)
(0.165151 0.162726 5.78137e-22)
(4.25745 -0.0504651 -8.7115e-20)
(3.97861 -0.347462 -4.14952e-19)
(4.22159 -0.386084 2.22771e-19)
(0.594174 0.226439 1.04937e-21)
(0.323674 0.321163 -8.94845e-22)
(3.72809 -0.307995 -7.69382e-20)
(2.99043 -0.313823 5.77007e-21)
(0.246811 -0.133749 -8.6034e-23)
(0.182229 0.386494 6.33315e-24)
(0.664431 0.740909 2.39952e-20)
(4.19207 -0.370598 -2.81497e-19)
(1.03315 0.714265 -2.24268e-21)
(0.703729 0.800915 2.48249e-21)
(2.97566 -0.318905 3.1534e-19)
(4.03374 -0.298991 2.46174e-19)
(3.34265 -0.312845 1.67836e-20)
(1.11752 0.611625 1.15793e-20)
(2.77344 -0.2041 3.24716e-20)
(1.6056 0.474853 4.58307e-22)
(0.45148 0.411601 4.58323e-22)
(0.33659 -0.0817606 -1.05996e-23)
(2.86421 -0.261214 -6.52734e-20)
(1.30837 1.02685 3.32639e-20)
(1.49852 0.903412 3.46206e-21)
(2.34542 0.820643 1.28237e-20)
(1.0962 0.874815 -1.35908e-21)
(1.67905 0.904793 -2.15768e-21)
(2.59851 0.764387 -9.14558e-21)
(2.89066 0.682157 -1.27145e-20)
(1.75053 0.404445 2.16557e-21)
(1.20722 0.889481 1.07083e-20)
(1.882 0.8919 4.66088e-21)
(1.27418 1.1483 1.42327e-20)
(3.11304 0.538462 1.63425e-19)
(0.970285 0.795825 3.48004e-21)
(0.740598 0.439423 -1.66032e-21)
(3.48896 0.510912 -1.69726e-19)
(1.02867 0.83387 7.37619e-21)
(3.98774 0.556588 -1.22452e-19)
(1.3395 0.897585 -7.29209e-21)
(2.10485 0.86282 -2.07418e-21)
(4.0859 0.340511 -8.18498e-21)
(2.52139 0.493765 -5.88847e-22)
(1.90494 0.320378 1.2014e-21)
(2.66539 -0.131966 3.5597e-20)
(2.93786 -0.287038 -8.976e-20)
(1.22442 0.602662 -3.16897e-21)
(2.38408 0.054214 -1.00492e-20)
(3.8621 0.793973 -5.44503e-20)
(1.46943 0.529074 -3.94557e-21)
(1.34349 0.574934 -2.76727e-21)
(3.29859 0.687228 -9.50307e-20)
(2.45553 0.265786 2.17293e-20)
(3.6313 0.335529 -9.98751e-20)
(1.47304 1.06114 -5.46007e-22)
(2.41513 1.09005 -5.99951e-20)
(3.44228 0.191462 -2.51998e-20)
(3.7248 0.18518 -3.08926e-19)
(0.733726 0.851844 2.70785e-21)
(1.66687 1.09252 -1.42272e-20)
(0.971034 1.07113 -4.20095e-20)
(3.27207 1.4034 1.07792e-20)
(0.311418 0.406139 -2.7256e-23)
(3.29355 0.346468 1.6579e-19)
(0.798942 0.926431 -4.91995e-21)
(3.8547 0.439925 -2.02719e-19)
(0.0756994 0.325394 2.18534e-22)
(0.875841 0.999161 1.30708e-20)
(3.02809 1.51682 -9.3416e-20)
(3.73869 -0.323244 -1.07308e-19)
(1.01785 0.600849 8.10771e-21)
(0.156658 0.357562 1.50788e-23)
(0.583603 0.491196 9.65308e-23)
(1.23076 1.24219 4.44759e-20)
(2.955 0.266806 -7.20068e-21)
(2.14439 1.1108 1.63427e-20)
(2.26255 0.350739 1.66911e-20)
(2.07323 0.430704 1.30865e-21)
(4.07647 -0.325331 -4.56427e-19)
(0.525686 0.137348 4.1718e-21)
(4.07544 -0.113612 9.28425e-19)
(2.81421 0.0599935 1.21446e-20)
(0.843263 0.851864 2.19326e-20)
(1.08905 1.15627 -1.29135e-20)
(4.31222 -0.0998592 -3.0899e-19)
(0.712124 0.659558 7.86427e-21)
(3.87701 -0.16416 5.64362e-20)
(0.372158 0.509853 8.20212e-22)
(3.76677 -0.312566 1.8669e-19)
(1.69717 0.725956 4.64822e-22)
(3.98869 -0.190395 4.09171e-19)
(4.32655 -0.294437 -2.70664e-19)
(0.31907 0.463354 -1.29644e-23)
(3.48915 1.22561 1.63039e-19)
(1.89257 1.11048 8.05276e-21)
(4.2961 -0.367233 -2.38797e-19)
(2.49363 1.62478 -1.27915e-20)
(3.95802 -0.279378 -7.59009e-20)
(0.927623 0.568943 -1.77199e-21)
(3.00516 0.955674 1.12599e-19)
(3.19971 -0.161975 8.6999e-20)
(1.14639 0.715381 7.21337e-21)
(3.95141 0.22944 7.38644e-19)
(3.36789 -0.314607 -1.87292e-19)
(3.26732 0.0247873 -7.83038e-20)
(3.33967 -0.273458 1.30684e-19)
(4.12541 0.00962292 -1.35282e-18)
(4.31704 -0.370481 2.69348e-19)
(0.631704 0.670965 -7.70669e-21)
(0.0216352 0.065101 -3.50642e-22)
(0.918166 0.877199 5.18739e-22)
(3.68267 -0.233357 -2.07228e-19)
(2.20612 1.60989 -1.54118e-21)
(1.65668 1.28158 2.36863e-20)
(0.521293 0.521311 2.46604e-21)
(2.2282 0.14188 6.06934e-21)
(0.261194 0.0444294 7.04912e-24)
(2.4779 1.37031 2.31893e-20)
(4.19949 -0.0870346 -3.89521e-20)
(3.76751 -0.120067 -4.89285e-19)
(0.356103 0.420553 4.72894e-23)
(4.00492 -0.304341 6.43809e-20)
(0.527767 0.633929 8.16601e-21)
(0.666666 0.772784 -2.06004e-20)
(3.96422 -0.294906 -1.96092e-19)
(4.09545 0.404443 7.32146e-20)
(4.23825 -0.157898 -6.76101e-19)
(3.69458 0.0469847 6.92914e-20)
(0.486094 0.432612 4.97785e-22)
(0.103878 0.354392 -1.27812e-22)
(1.41342 1.34081 -3.91406e-20)
(3.6904 1.01818 8.96255e-20)
(3.8482 -0.294137 1.13208e-20)
(0.681207 0.730683 2.01188e-20)
(1.17115 0.992536 -1.18679e-20)
(0.467334 0.543948 1.43255e-20)
(3.79723 -0.33251 1.55856e-19)
(1.11578 0.794258 -8.46001e-21)
(0.211745 0.373987 6.41849e-22)
(4.19156 -0.393223 -1.86173e-20)
(0.198074 0.330963 4.49437e-22)
(4.21343 -0.386964 -6.92204e-20)
(3.47132 0.800127 -2.06265e-21)
(2.69736 1.04546 8.22026e-20)
(3.12752 0.135282 -4.94181e-20)
(0.233899 0.147738 1.45435e-22)
(2.95813 -0.0400965 -3.98097e-20)
(0.433166 0.539226 -2.33538e-21)
(4.10343 -0.349791 -3.97054e-19)
(3.90203 0.0139311 7.58714e-19)
(3.35405 -0.18578 5.58097e-20)
(0.0704428 0.123859 1.29678e-22)
(0.792429 0.720494 -2.1614e-20)
(1.28298 0.686511 2.32745e-21)
(0.45519 0.484673 -3.28476e-22)
(0.227567 0.383199 -2.59456e-22)
(0.840845 0.513841 1.5157e-21)
(0.310163 0.0090483 -3.75576e-23)
(0.584125 0.487545 3.78428e-21)
(0.434221 0.172415 -1.86589e-21)
(0.931821 0.952536 -4.24028e-20)
(0.263705 0.425182 -1.80404e-22)
(3.62967 -0.323221 -4.85288e-20)
(0.284539 0.375061 4.42746e-22)
(1.05855 0.953596 4.20012e-21)
(4.25796 -0.285136 7.60474e-19)
(0.777317 0.873573 -2.19152e-20)
(0.455893 0.403975 -1.09993e-20)
(3.49289 -0.313667 2.11266e-19)
(0.258401 0.380633 8.24215e-22)
(3.67081 -0.290891 2.17907e-19)
(0.0589106 0.255668 -7.52116e-22)
(0.672566 0.515993 -6.18152e-21)
(3.35075 -0.312387 -2.5397e-19)
(0.230655 0.407325 1.13248e-22)
(3.29205 -0.306325 -1.58191e-20)
(4.2734 -0.362108 4.24824e-21)
(2.08391 0.632221 1.74925e-20)
(0.313955 0.435231 5.89122e-24)
(0.485575 0.520707 8.40514e-23)
(0.207293 -0.0642538 -2.72117e-23)
(3.2472 0.919576 -2.0287e-19)
(3.23595 -0.317308 6.45235e-20)
(1.13375 1.08421 -4.91374e-20)
(3.81308 -0.286968 6.3878e-20)
(0.0642047 -0.0346432 -4.2964e-22)
(1.91553 1.54384 -1.76826e-21)
(0.129837 -0.0923941 -6.80996e-22)
(1.24324 0.784675 -8.03363e-21)
(4.15188 -0.439688 -1.3284e-19)
(3.08113 -0.120175 -7.56533e-20)
(3.90281 -0.272048 -1.6938e-19)
(4.12981 0.189864 3.29242e-19)
(0.0757989 -0.0654403 1.76793e-21)
(3.96751 -0.28189 2.41448e-19)
(0.395195 0.499449 1.81487e-22)
(0.293345 0.426957 -3.07394e-21)
(4.03315 -0.289139 1.23466e-20)
(4.31811 -0.328106 6.55737e-22)
(0.281268 0.415517 -2.54842e-23)
(3.08842 -0.284602 -1.89993e-19)
(1.4145 0.654449 1.51704e-21)
(0.551857 0.380442 7.22494e-21)
(1.88273 0.685244 2.50407e-21)
(4.14105 -0.357587 2.47469e-19)
(0.434647 0.44331 -1.05148e-22)
(3.65401 0.645493 3.72215e-20)
(4.08197 -0.297359 4.19459e-23)
(3.65243 -0.288355 -3.388e-20)
(3.83013 -0.276841 -2.4317e-20)
(4.27895 -0.418872 -2.89113e-19)
(0.193945 0.388612 5.91999e-22)
(3.54401 0.0851546 -1.25938e-19)
(0.115443 0.319408 6.34922e-22)
(3.75201 0.821037 2.94871e-20)
(3.89679 -0.315557 6.26429e-20)
(3.5398 -0.301432 1.34608e-20)
(4.21987 -0.44721 1.50137e-19)
(0.593843 0.636652 -2.5562e-20)
(4.12366 -0.312439 -7.53509e-21)
(0.989448 0.912672 -3.69511e-21)
(1.3737 0.771951 -4.04483e-21)
(0.508429 0.483821 -2.0912e-22)
(4.20863 0.191666 5.10186e-20)
(0.315398 0.362434 -1.52255e-22)
(0.381183 -0.0583213 -5.2097e-23)
(0.375978 0.0286751 1.69239e-23)
(1.01139 1.01795 4.57647e-20)
(2.76746 1.59795 8.76677e-20)
(0.304025 0.112805 -1.3863e-22)
(3.73729 -0.280631 6.56729e-20)
(0.357977 0.346489 -7.69912e-23)
(0.205475 -0.13733 -1.70784e-21)
(0.769397 0.801938 -3.06999e-22)
(1.5617 0.61573 1.07941e-21)
(3.53271 1.02217 -5.94041e-21)
(4.25292 -0.376294 1.6617e-19)
(0.389328 0.429686 1.53684e-20)
(3.26094 -0.310594 -6.35492e-20)
(4.15206 -0.326246 -2.57021e-21)
(0.0395696 -0.00268842 -5.2459e-22)
(3.30024 1.17895 -5.55744e-20)
(0.87495 0.767203 1.20902e-20)
(0.631995 0.588539 1.0449e-20)
(3.56182 -0.28748 -1.4186e-20)
(4.24064 -0.382231 -2.14693e-21)
(0.424523 -0.0406609 -5.47283e-24)
(2.06415 0.23283 4.21882e-21)
(0.218091 0.394663 8.84569e-22)
(1.64039 1.44827 1.57755e-20)
(4.26153 0.0557607 -1.58108e-19)
(3.19715 -0.302609 -3.15329e-20)
(0.16908 -0.117346 -3.87234e-22)
(0.374524 0.444312 -2.00791e-22)
(4.13143 -0.240619 -8.27165e-19)
(0.398307 0.297928 1.25079e-22)
(3.39617 -0.0463238 9.86922e-20)
(4.13971 0.107294 -6.17444e-20)
(0.146184 0.0948372 -7.47808e-22)
(1.52703 0.753409 -9.67875e-22)
(0.52086 0.454668 4.5976e-22)
(3.40956 -0.303158 -7.43274e-21)
(4.2169 -0.416393 -6.46984e-20)
(0.168108 0.390082 3.331e-22)
(4.17099 -0.338974 -3.49879e-22)
(0.487013 0.271469 -5.89215e-22)
(0.101959 0.25585 1.06705e-21)
(3.13675 -0.296603 1.561e-21)
(0.458234 0.0803504 -4.47616e-23)
(0.462579 -0.0256061 6.03816e-23)
(4.13974 -0.331214 8.96191e-21)
(3.8091 -0.248623 1.91699e-19)
(0.212013 0.242993 4.64945e-22)
(0.160334 -0.0995539 -6.36648e-22)
(0.0769806 -0.055499 -3.60206e-22)
(0.511129 0.0154786 6.50693e-23)
(0.0496843 0.0369316 -7.75374e-23)
(0.145071 0.382103 -8.33794e-22)
(0.239557 0.419153 1.0913e-22)
(0.40666 0.419818 6.36196e-24)
(0.0189183 0.0685809 6.02533e-22)
(0.0269509 0.0311458 -8.06814e-22)
(0.300722 0.454845 -3.08534e-22)
(0.274365 0.227042 -2.37659e-23)
(0.0105769 0.215798 1.90571e-22)
(0.551029 0.473318 -4.92439e-22)
(3.28354 -0.317886 -4.09834e-20)
(0.491714 -0.00822951 2.1271e-22)
(4.25177 -0.420715 7.98369e-21)
(0.0208701 0.108805 -2.14573e-22)
(4.18222 -0.352964 -1.41471e-21)
(3.31439 -0.313057 1.85954e-20)
(2.94834 -0.324137 -1.4778e-20)
(4.09925 -0.403718 -4.23937e-21)
(4.15152 -0.361036 -1.78053e-19)
(0.251953 -0.0841762 -2.65739e-23)
(0.398302 -0.0152815 -8.91876e-23)
(0.115327 -0.0754108 -1.28255e-23)
(0.271282 0.392176 1.2261e-22)
(0.080934 0.009773 -1.02199e-23)
(0.473362 0.463988 1.99792e-22)
(0.097715 0.0879135 4.28314e-22)
(0.122623 0.369365 -4.88636e-22)
(0.261244 0.334894 -3.6268e-22)
(3.54136 -0.206658 -1.54535e-20)
(0.129613 0.37321 1.0356e-22)
(3.16391 -0.322524 4.57475e-20)
(0.297104 0.384172 -2.04863e-22)
(0.101534 0.350417 6.95266e-22)
(4.02935 -0.430282 -3.42336e-20)
(2.79397 -0.339766 -4.37878e-20)
(0.538066 0.512316 2.24353e-21)
(0.0165753 0.15621 -7.73918e-22)
(0.113675 0.176049 -5.13191e-22)
(0.0280741 0.185668 8.71314e-23)
(0.346265 -0.0324626 -4.24066e-23)
(0.202488 0.396669 -5.48438e-23)
(0.0090216 0.200088 1.02935e-21)
(0.33628 0.392845 3.41373e-23)
(3.44967 -0.306031 -1.23423e-20)
(0.344936 0.200695 -3.06808e-22)
(3.7048 -0.291133 7.32886e-21)
(3.19916 -0.314073 6.38983e-20)
(4.17641 -0.369356 -8.07945e-22)
(4.14866 -0.390966 6.54628e-20)
(3.08808 -0.315679 -2.81417e-20)
(4.18255 -0.353137 -2.05607e-20)
(3.34018 -0.306842 -4.19831e-20)
(0.854596 0.936498 1.23331e-21)
(0.524387 0.602223 -3.42885e-21)
(0.253144 -0.0320298 -1.6779e-22)
(0.20016 -0.112118 -3.25994e-23)
(4.16468 -0.341826 2.81046e-20)
(0.295291 -0.0596518 5.70301e-23)
(4.05288 -0.428343 -1.5627e-19)
(0.0125806 0.223925 -8.18299e-23)
(0.19909 0.0737524 2.24825e-23)
(0.0759817 0.32042 -1.6613e-22)
(0.380411 0.0980692 -1.86908e-22)
(0.394528 0.473448 2.34206e-22)
(4.01761 -0.321977 3.40222e-19)
(0.0761898 0.192046 2.91708e-22)
(3.58356 -0.297445 3.05353e-21)
(3.47119 -0.290158 -7.7499e-20)
(0.520471 0.560152 -2.8341e-22)
(0.172355 0.390066 1.95952e-25)
(0.0491209 0.257478 2.89795e-22)
(2.7823 -0.331688 5.67903e-20)
(0.0653816 0.293359 -6.99406e-22)
(0.149472 0.382344 6.66282e-23)
(0.326179 0.451807 -2.81222e-24)
(0.118464 -0.0141675 -6.07288e-23)
(0.329175 0.431917 2.1029e-22)
(0.125613 0.0484742 -7.42385e-24)
(4.18715 -0.36101 1.60188e-19)
(0.190489 -0.138924 -3.69142e-23)
(0.193286 0.391783 -1.28916e-22)
(0.16285 0.029114 7.74648e-23)
(0.547231 0.0743377 -2.21793e-21)
(3.93368 -0.435739 -1.18077e-19)
(0.611153 0.575896 3.54832e-21)
(0.595918 0.517723 -7.12402e-21)
(2.59478 -0.324813 -7.23139e-20)
(0.446473 -0.00432066 -8.76283e-23)
(0.441812 -0.384799 1.08225e-21)
(0.465985 -0.376116 -4.68497e-23)
(0.519716 -0.382574 -6.29366e-22)
(0.557161 -0.388521 3.29701e-22)
(0.596625 -0.393554 -3.63066e-22)
(0.628636 -0.39697 -1.12564e-21)
(0.659379 -0.399488 2.56851e-22)
(0.685829 -0.401463 3.35971e-22)
(0.711622 -0.401874 3.48103e-22)
(0.474957 -0.373117 -7.03989e-22)
(0.498858 -0.367944 -5.17003e-23)
(0.549535 -0.373105 5.22465e-22)
(0.587047 -0.379615 -9.63121e-22)
(0.624492 -0.384745 8.70208e-22)
(0.655804 -0.388939 1.47574e-21)
(0.684989 -0.392007 -9.34626e-22)
(0.710581 -0.394357 9.68275e-22)
(0.733757 -0.395494 -4.77512e-22)
(0.509439 -0.356557 1.984e-21)
(0.530394 -0.353743 5.00455e-22)
(0.578409 -0.358988 -1.09028e-21)
(0.6152 -0.366235 5.55214e-22)
(0.650999 -0.371866 -1.39004e-21)
(0.681526 -0.376776 -2.03672e-22)
(0.709485 -0.380524 -3.4169e-23)
(0.734069 -0.383501 -4.83933e-22)
(0.756158 -0.385581 -7.60069e-22)
(0.541571 -0.337057 -9.21763e-22)
(0.559625 -0.335322 3.08858e-22)
(0.605439 -0.341079 8.3038e-22)
(0.641438 -0.349091 4.96597e-23)
(0.675886 -0.355371 6.17469e-22)
(0.70564 -0.360948 1.76486e-21)
(0.732611 -0.365324 -1.06408e-21)
(0.756425 -0.368847 1.6641e-22)
(0.777951 -0.371483 4.03517e-22)
(0.571029 -0.314676 1.51134e-22)
(0.586165 -0.313375 -1.68222e-22)
(0.629931 -0.319904 4.11444e-23)
(0.66522 -0.328538 -3.41477e-22)
(0.698628 -0.335532 1.74268e-22)
(0.727782 -0.341746 -4.02295e-22)
(0.754085 -0.346722 1.62006e-22)
(0.77746 -0.350765 6.89085e-22)
(0.798856 -0.353677 1.47116e-22)
(0.597181 -0.289722 1.44996e-22)
(0.60954 -0.288476 -6.55877e-22)
(0.65143 -0.296039 9.11245e-23)
(0.68622 -0.305036 8.09259e-22)
(0.71889 -0.312696 -2.66186e-22)
(0.74764 -0.319479 -3.8122e-22)
(0.773532 -0.325048 -1.36416e-22)
(0.796701 -0.329644 -1.15883e-21)
(0.817941 -0.333282 5.89902e-22)
(0.61843 -0.263769 1.01522e-22)
(0.629424 -0.261465 4.94061e-22)
(0.669739 -0.270106 1.11692e-22)
(0.704298 -0.278997 -3.97836e-22)
(0.736474 -0.287149 8.52032e-23)
(0.764993 -0.294365 -1.17793e-22)
(0.790674 -0.30045 3.1207e-22)
(0.813768 -0.305552 -2.91815e-22)
(0.835009 -0.309804 -2.02186e-22)
(0.63326 -0.237016 -2.36622e-22)
(0.646276 -0.232702 4.53445e-22)
(0.68517 -0.242256 -8.60066e-23)
(0.719543 -0.250574 1.74017e-22)
(0.751313 -0.259012 -1.64544e-22)
(0.77971 -0.266508 5.18375e-22)
(0.805336 -0.273 6.84481e-22)
(0.828491 -0.278583 -8.58775e-22)
(0.84995 -0.282915 2.54923e-22)
(0.642342 -0.206068 -5.90586e-24)
(0.660817 -0.201024 8.93456e-23)
(0.698071 -0.211658 3.87135e-23)
(0.732005 -0.219484 -2.15162e-22)
(0.763337 -0.228178 -6.78338e-23)
(0.791679 -0.235856 -1.80238e-22)
(0.817374 -0.242631 -9.93043e-23)
(0.840742 -0.248461 9.02281e-22)
(0.862306 -0.253395 -9.05002e-23)
(0.647805 -0.168711 4.61917e-23)
(0.672634 -0.165135 -3.909e-22)
(0.707951 -0.177411 -1.83456e-22)
(0.741322 -0.185405 7.95418e-23)
(0.772319 -0.194493 -7.79706e-23)
(0.800752 -0.202295 3.10761e-22)
(0.826696 -0.209168 5.06138e-23)
(0.850422 -0.215002 5.94514e-22)
(0.872368 -0.219746 -4.01774e-23)
(0.650879 -0.12665 -9.70444e-24)
(0.680264 -0.125676 9.69375e-24)
(0.713677 -0.139924 1.07249e-22)
(0.746859 -0.148601 2.251e-22)
(0.777931 -0.158067 -7.20395e-23)
(0.806765 -0.165835 -6.73762e-23)
(0.833244 -0.172552 -2.00265e-22)
(0.857635 -0.178062 -7.24896e-22)
(0.880247 -0.182443 -1.18968e-22)
(0.652118 -0.0833516 4.0488e-23)
(0.682589 -0.0855035 3.43027e-22)
(0.714603 -0.101048 -2.39005e-22)
(0.748308 -0.110045 1.48609e-22)
(0.780018 -0.119352 -2.75059e-23)
(0.809603 -0.126666 4.74138e-22)
(0.836871 -0.132848 4.91902e-23)
(0.862087 -0.137704 -3.83598e-22)
(0.885609 -0.14213 -2.77096e-22)
(0.649871 -0.0427306 2.2253e-23)
(0.678932 -0.0476311 -7.34331e-23)
(0.711344 -0.0624821 1.68649e-23)
(0.746111 -0.0706894 1.03487e-22)
(0.778816 -0.0788288 -6.92504e-23)
(0.809348 -0.0849894 -9.1791e-23)
(0.837517 -0.0900209 -1.69838e-22)
(0.863582 -0.0938843 3.15903e-22)
(0.888198 -0.0969272 -1.81281e-22)
(0.641279 -0.00558012 -4.10514e-23)
(0.671398 -0.011469 -8.19884e-24)
(0.705191 -0.0242301 -5.9661e-23)
(0.741055 -0.0306309 1.73472e-22)
(0.774761 -0.0366705 -3.17406e-23)
(0.806223 -0.040982 -1.84901e-23)
(0.835281 -0.044253 -1.26481e-22)
(0.862201 -0.0465202 1.48748e-23)
(0.88739 -0.0475172 1.16815e-22)
(0.627573 0.0305034 1.68765e-22)
(0.660747 0.0245585 -1.10458e-23)
(0.696632 0.0146256 3.47817e-22)
(0.733538 0.0105694 -5.14314e-22)
(0.768084 0.00716656 5.7912e-23)
(0.800326 0.00514111 1.89433e-22)
(0.830172 0.00400822 1.33666e-22)
(0.857927 0.00376679 1.93032e-22)
(0.883921 0.0045613 -6.86405e-22)
(0.608434 0.0675237 1.93183e-23)
(0.647022 0.0617456 -1.9697e-22)
(0.685578 0.0551053 -5.14563e-22)
(0.723461 0.0534241 6.99262e-22)
(0.758663 0.0527168 2.38356e-22)
(0.791502 0.0530746 -1.26715e-22)
(0.821968 0.0541979 -1.86176e-23)
(0.850322 0.0561198 5.36682e-22)
(0.876659 0.0585689 -2.27999e-22)
(0.585475 0.106947 3.58346e-22)
(0.629145 0.101415 -4.077e-22)
(0.671186 0.0978501 5.14609e-22)
(0.710181 0.098099 -3.43959e-22)
(0.746022 0.0997265 -3.74466e-22)
(0.779389 0.102283 1.47932e-21)
(0.810391 0.105569 -9.89255e-22)
(0.83926 0.109664 -4.08266e-22)
(0.866389 0.113631 9.46048e-23)
(0.562372 0.146797 -4.48108e-22)
(0.607004 0.142425 5.60242e-22)
(0.652484 0.141836 -2.65842e-22)
(0.692915 0.143739 4.15641e-22)
(0.729605 0.147353 9.82495e-23)
(0.763599 0.1519 -1.17981e-21)
(0.795158 0.157228 1.05777e-22)
(0.824492 0.163317 -5.70727e-22)
(0.852041 0.169532 -7.39477e-22)
(0.540285 0.18413 -6.59804e-23)
(0.582237 0.181687 -1.22191e-22)
(0.629732 0.184703 -2.66226e-22)
(0.67156 0.188624 -1.19495e-21)
(0.709235 0.194245 3.04831e-22)
(0.743965 0.200734 5.02987e-22)
(0.776144 0.208005 5.93859e-22)
(0.806037 0.215895 7.48213e-22)
(0.834072 0.224138 -3.50086e-22)
(0.51812 0.218323 7.06322e-23)
(0.555998 0.217814 4.14999e-23)
(0.604051 0.224755 9.42787e-22)
(0.646707 0.231269 -7.74574e-23)
(0.685207 0.239142 4.79028e-22)
(0.720618 0.247702 -3.2386e-22)
(0.753371 0.256957 -2.38294e-21)
(0.783724 0.266718 -3.74261e-22)
(0.812067 0.276702 -3.21695e-23)
(0.4952 0.249992 1.45972e-22)
(0.528627 0.250846 -1.0564e-21)
(0.576335 0.261336 6.69745e-22)
(0.619086 0.270802 -8.87956e-22)
(0.658051 0.281122 6.76055e-22)
(0.693948 0.291887 -1.36114e-22)
(0.727187 0.303183 6.63275e-22)
(0.758042 0.314783 6.11379e-22)
(0.786682 0.327076 -1.93018e-22)
(0.471453 0.278632 2.21513e-22)
(0.500065 0.280694 1.02864e-21)
(0.547121 0.294099 -1.80893e-21)
(0.589279 0.306729 2.74203e-22)
(0.628258 0.319575 -1.80462e-21)
(0.664331 0.332621 5.38548e-22)
(0.697877 0.345968 2.12603e-22)
(0.729313 0.359338 -3.02437e-22)
(0.757873 0.374505 -1.76364e-22)
(0.44683 0.302383 -3.93605e-22)
(0.470615 0.307279 -8.66962e-22)
(0.517049 0.323116 9.22389e-22)
(0.557983 0.339067 1.02761e-21)
(0.596476 0.35437 1.20546e-21)
(0.632323 0.369629 -9.53679e-23)
(0.66588 0.384871 -3.92546e-22)
(0.697732 0.400023 1.23121e-21)
(0.726446 0.417334 -3.28186e-21)
(0.420732 0.320695 -5.10276e-23)
(0.440186 0.3303 5.39873e-22)
(0.485458 0.348064 -2.39611e-22)
(0.524527 0.36715 4.52597e-22)
(0.562046 0.384687 -9.69539e-22)
(0.597367 0.402139 -3.14772e-22)
(0.630774 0.419211 1.66333e-21)
(0.663414 0.436216 -1.7358e-21)
(0.692924 0.457857 2.28157e-21)
(0.393283 0.335161 -1.67546e-22)
(0.411287 0.353376 6.42303e-23)
(0.455531 0.374017 3.44031e-22)
(0.492841 0.394805 -5.21559e-22)
(0.528994 0.413631 1.28532e-22)
(0.562849 0.432139 -8.14338e-22)
(0.595222 0.449745 6.24814e-22)
(0.629316 0.466353 -4.90418e-22)
(0.660601 0.489611 -2.71477e-23)
(0.345041 0.3048 -2.76714e-22)
(0.338117 0.3025 -3.358e-22)
(0.330872 0.299405 -1.03667e-21)
(0.322842 0.295796 1.46637e-21)
(0.313965 0.291583 -1.11127e-21)
(0.304195 0.286731 8.42039e-22)
(0.293505 0.281197 3.32611e-22)
(0.28189 0.274935 -8.51574e-23)
(0.269372 0.267872 -6.188e-22)
(0.255996 0.259937 -2.70303e-22)
(0.24184 0.25106 2.94591e-22)
(0.22701 0.24117 -3.33784e-22)
(0.211643 0.230203 9.06706e-22)
(0.195906 0.218104 -2.28749e-21)
(0.17997 0.204821 3.98283e-21)
(0.164027 0.190328 -4.50696e-21)
(0.148266 0.174623 4.02562e-21)
(0.132863 0.157734 -1.8111e-21)
(0.117971 0.13974 -5.88579e-22)
(0.103706 0.120787 6.22842e-22)
(0.0901011 0.101093 -2.15225e-22)
(0.0769888 0.0808833 4.65996e-22)
(0.064158 0.0607922 3.24883e-23)
(0.0515184 0.0412363 -6.46445e-22)
(0.0412348 0.0214986 5.09453e-22)
(0.0355833 0.00108739 -2.76087e-22)
(0.0343673 -0.0203801 3.55037e-22)
(0.0380852 -0.0430437 2.84225e-22)
(0.0439377 -0.0671741 -3.42235e-22)
(0.0494624 -0.0924473 9.16065e-24)
(0.0554637 -0.117987 -3.06522e-22)
(0.0626546 -0.143421 2.77782e-22)
(0.0713423 -0.168484 5.24629e-22)
(0.0815178 -0.192852 -4.24462e-22)
(0.0930652 -0.216192 6.02244e-22)
(0.105824 -0.238289 -1.00274e-21)
(0.119576 -0.258936 7.77211e-23)
(0.134091 -0.277977 2.1655e-22)
(0.149144 -0.295298 -3.2472e-22)
(0.164535 -0.310827 7.24692e-22)
(0.180108 -0.324543 -4.13755e-22)
(0.195745 -0.336466 -1.75503e-21)
(0.211376 -0.346644 3.57208e-21)
(0.22698 -0.35519 -3.81868e-21)
(0.242496 -0.362209 3.30767e-21)
(0.258285 -0.367673 -1.94156e-21)
(0.274568 -0.371701 9.9111e-22)
(0.291045 -0.374639 -3.39579e-22)
(0.307381 -0.37678 3.15118e-22)
(0.323284 -0.378365 -3.34447e-22)
(0.338457 -0.379608 -4.72219e-22)
(0.35268 -0.380667 -1.37983e-22)
(0.365807 -0.38166 2.49055e-22)
(0.377727 -0.382632 6.15256e-22)
(0.388535 -0.383507 -9.13597e-22)
(0.398386 -0.384204 1.17056e-21)
(0.407333 -0.38472 -7.86444e-22)
(0.415415 -0.38507 -2.70799e-22)
(0.422726 -0.385338 -1.91185e-22)
(0.359917 0.267177 -1.52625e-23)
(0.353682 0.264338 5.58821e-26)
(0.347008 0.261311 -2.79481e-23)
(0.339769 0.258013 5.19009e-23)
(0.331906 0.254465 -2.56875e-23)
(0.323341 0.25066 -8.73947e-23)
(0.314023 0.24658 1.45794e-23)
(0.303969 0.242099 3.85286e-23)
(0.293209 0.237088 1.16633e-23)
(0.281745 0.231482 -4.17721e-23)
(0.269584 0.225182 4.2791e-23)
(0.256765 0.218087 -3.84746e-23)
(0.243352 0.210094 -1.09252e-23)
(0.229436 0.201099 7.88631e-23)
(0.215139 0.191009 -8.03322e-23)
(0.200596 0.179747 7.95323e-23)
(0.185958 0.167259 6.33429e-23)
(0.171379 0.153514 4.01989e-23)
(0.157004 0.13851 7.05488e-23)
(0.142966 0.122265 3.26752e-23)
(0.129384 0.104797 6.96437e-24)
(0.116388 0.0860783 -1.8199e-22)
(0.104325 0.065973 1.67648e-22)
(0.0938443 0.0440077 -8.09174e-23)
(0.0857326 0.0201468 2.87662e-22)
(0.0802153 -0.00518652 -1.15617e-22)
(0.0774766 -0.0313266 -1.0549e-23)
(0.0777072 -0.0575324 5.16112e-23)
(0.0808764 -0.083172 1.67149e-23)
(0.0858184 -0.10826 -2.56465e-24)
(0.0920926 -0.132991 -4.48711e-23)
(0.0997814 -0.157305 8.42425e-24)
(0.108949 -0.180997 -1.61062e-23)
(0.119478 -0.203858 -1.42846e-23)
(0.131222 -0.225694 -7.40201e-23)
(0.144028 -0.246341 4.56374e-23)
(0.157723 -0.265671 2.66552e-23)
(0.172132 -0.283594 -9.80585e-23)
(0.187092 -0.300057 2.41247e-24)
(0.202463 -0.315033 -3.65646e-23)
(0.218137 -0.328514 -7.33159e-24)
(0.234033 -0.340502 7.99477e-23)
(0.2501 -0.351 -2.31764e-22)
(0.266292 -0.360019 -1.56785e-22)
(0.282584 -0.367573 2.67919e-22)
(0.298919 -0.373652 -2.27546e-22)
(0.315115 -0.378274 1.26756e-22)
(0.330912 -0.381527 3.98425e-24)
(0.345988 -0.383673 -7.19685e-23)
(0.360129 -0.384905 2.73514e-23)
(0.373395 -0.385309 1.06155e-22)
(0.385721 -0.385105 -2.49151e-23)
(0.397036 -0.384533 4.55728e-23)
(0.407363 -0.383753 -1.78199e-22)
(0.41679 -0.382848 2.66392e-23)
(0.425468 -0.38186 7.52631e-23)
(0.433445 -0.380821 -6.96982e-23)
(0.440769 -0.379762 1.59043e-23)
(0.447567 -0.378763 -1.77738e-23)
(0.417759 0.251622 -3.0269e-22)
(0.411503 0.248862 6.14205e-23)
(0.404792 0.245856 -2.59866e-22)
(0.397607 0.242611 -6.09227e-23)
(0.389901 0.23909 8.98183e-22)
(0.381638 0.235255 -2.8029e-22)
(0.372796 0.231046 -5.47062e-22)
(0.363358 0.22639 -2.34933e-24)
(0.3533 0.221239 3.2874e-22)
(0.342607 0.215536 -8.31643e-23)
(0.331276 0.209213 8.91786e-22)
(0.319325 0.20219 -1.06262e-21)
(0.306794 0.19438 9.61365e-22)
(0.293746 0.185692 -1.32548e-22)
(0.280268 0.176036 -8.55714e-22)
(0.266469 0.165324 2.63213e-22)
(0.252478 0.15348 1.01856e-21)
(0.238437 0.140435 -4.03905e-22)
(0.224503 0.12613 -9.94367e-23)
(0.210845 0.11051 2.02427e-23)
(0.197654 0.0935144 -2.72801e-22)
(0.185162 0.0750654 6.47541e-23)
(0.173694 0.055081 -6.94049e-22)
(0.163676 0.0335319 8.3539e-22)
(0.155671 0.010544 -3.21503e-22)
(0.150182 -0.0135995 6.39494e-24)
(0.14745 -0.038531 4.5488e-23)
(0.147505 -0.0638187 -2.02785e-22)
(0.150048 -0.0889663 1.28313e-22)
(0.154574 -0.113669 6.75286e-23)
(0.160741 -0.137851 1.53465e-22)
(0.168371 -0.161434 -1.59076e-22)
(0.177349 -0.184289 6.99355e-23)
(0.187555 -0.206272 9.57238e-23)
(0.198858 -0.227256 -3.26189e-22)
(0.211124 -0.247125 9.06124e-22)
(0.224212 -0.265785 -5.90381e-22)
(0.237983 -0.283163 -1.29933e-22)
(0.252312 -0.299208 -1.46234e-22)
(0.267089 -0.313885 -4.77514e-23)
(0.282218 -0.327173 -2.28854e-22)
(0.297616 -0.339057 -3.91058e-22)
(0.313202 -0.34953 9.44423e-22)
(0.328886 -0.358593 4.38024e-22)
(0.344565 -0.366261 -9.01049e-22)
(0.360109 -0.372562 -2.89055e-22)
(0.375355 -0.377562 9.266e-22)
(0.390113 -0.381371 -1.06857e-21)
(0.404229 -0.38417 7.45983e-22)
(0.417521 -0.386171 -2.88012e-23)
(0.429943 -0.387509 2.97831e-22)
(0.441537 -0.388247 5.40551e-23)
(0.452292 -0.388519 -4.82668e-22)
(0.462221 -0.388466 -2.39905e-22)
(0.471413 -0.388162 7.54569e-22)
(0.479931 -0.387663 -1.50356e-23)
(0.487814 -0.387014 -2.12501e-22)
(0.495124 -0.386267 6.63838e-23)
(0.501909 -0.385448 -2.44142e-22)
(0.457448 0.242896 -5.1616e-23)
(0.4512 0.240637 2.78702e-22)
(0.44453 0.238153 -1.32222e-22)
(0.43737 0.23538 9.87064e-23)
(0.429693 0.232294 -1.07106e-22)
(0.421474 0.228859 -3.78329e-25)
(0.412689 0.225034 -6.92988e-23)
(0.40332 0.220772 -1.74049e-22)
(0.393356 0.216019 1.15018e-22)
(0.382791 0.210713 1.54314e-22)
(0.371632 0.20478 1.10222e-22)
(0.359898 0.198137 -4.56683e-22)
(0.347626 0.190694 4.13423e-22)
(0.334872 0.182355 -1.01174e-22)
(0.321712 0.173021 5.25455e-23)
(0.308248 0.162594 -2.58571e-22)
(0.294604 0.150982 2.58506e-22)
(0.280927 0.138097 -1.13661e-22)
(0.267389 0.123864 -1.83324e-22)
(0.254186 0.108212 8.88118e-23)
(0.241544 0.0910839 -4.50395e-23)
(0.229723 0.072438 -3.23548e-22)
(0.219033 0.0522604 1.99172e-22)
(0.20982 0.0305936 2.21325e-22)
(0.202439 0.00757943 -1.76693e-22)
(0.197183 -0.0165236 2.07413e-23)
(0.194237 -0.041374 2.01256e-22)
(0.193663 -0.0665902 -2.34809e-22)
(0.19538 -0.0918001 7.73661e-23)
(0.199166 -0.116719 -2.09258e-23)
(0.204797 -0.141162 9.79939e-23)
(0.212084 -0.164985 -2.28861e-22)
(0.220862 -0.188052 1.72046e-22)
(0.230971 -0.210238 -5.93686e-24)
(0.24225 -0.231426 -2.13534e-22)
(0.254546 -0.251515 7.73775e-23)
(0.267706 -0.270415 2.35063e-22)
(0.281583 -0.288051 -9.75685e-23)
(0.296042 -0.304364 -9.59247e-23)
(0.310953 -0.319308 1.70975e-22)
(0.326198 -0.332849 -4.32148e-23)
(0.341659 -0.344964 -5.98523e-23)
(0.357217 -0.35564 3.64501e-22)
(0.372748 -0.364882 -3.35737e-22)
(0.388121 -0.372715 1.44125e-22)
(0.403201 -0.379188 -1.56937e-23)
(0.417849 -0.38438 4.33624e-22)
(0.431944 -0.388399 -3.92986e-22)
(0.44538 -0.391368 1.70543e-22)
(0.458046 -0.393488 1.40957e-22)
(0.469797 -0.394986 1.58266e-22)
(0.480708 -0.395919 -1.92829e-22)
(0.49093 -0.396296 -4.12809e-23)
(0.500515 -0.396206 -6.24738e-23)
(0.509466 -0.395762 -1.00723e-22)
(0.517775 -0.395064 7.07351e-23)
(0.525477 -0.394176 -1.36867e-22)
(0.532628 -0.393142 2.7908e-22)
(0.539298 -0.392021 -7.75237e-23)
(0.508872 0.238032 -4.59018e-22)
(0.502733 0.235579 4.86131e-23)
(0.496092 0.232904 4.4525e-22)
(0.488925 0.229977 -3.19118e-22)
(0.481204 0.226759 8.30458e-23)
(0.472912 0.223211 2.80989e-22)
(0.464038 0.21929 -3.52679e-22)
(0.454571 0.214947 1.33539e-22)
(0.44451 0.210125 4.27743e-22)
(0.433861 0.20476 -1.43171e-22)
(0.422638 0.19878 -4.36915e-22)
(0.410869 0.192106 -1.47183e-22)