/*--------------------------------*- C++ -*----------------------------------*\
  =========                 |
  \\      /  F ield         | OpenFOAM: The Open Source CFD Toolbox
   \\    /   O peration     | Website:  https://openfoam.org
    \\  /    A nd           | Version:  10
     \\/     M anipulation  |
\*---------------------------------------------------------------------------*/
FoamFile
{
    format      ascii;
    class       volScalarField;
    location    "800";
    object      epsilon;
}
// * * * * * * * * * * * * * * * * * * * * * * * * * * * * * * * * * * * * * //

dimensions      [0 2 -3 0 0 0 0];

internalField   nonuniform List<scalar> 
10435
(
0.0141401
0.029
0.042269
0.0256148
0.141283
0.304157
0.0259085
0.00977337
0.00685745
0.195363
0.0482762
0.0329984
0.147547
0.017044
0.0162533
0.0204677
0.0176756
0.258782
0.00607108
0.0147479
0.0135934
0.0191587
0.0305405
0.0125629
0.127091
0.0057936
0.0103627
0.0713301
0.00936628
0.243741
0.0631083
0.062991
0.00840276
0.00971171
0.0140992
0.0164977
0.0196082
0.011191
0.00352609
0.00812793
0.317166
0.0299892
0.01389
0.0209372
0.0290289
0.0105736
0.308957
0.0129349
0.00560415
0.0145372
0.0116115
0.135961
0.00347072
0.00701577
0.00402054
0.00830282
0.0179297
0.012128
0.0165445
0.0129051
0.00404704
0.0232502
0.0120083
0.127593
0.0305194
0.0623575
0.0146481
0.0151494
0.0114744
0.0136408
0.00679804
0.00841956
0.00883623
0.0511009
0.0154428
0.012707
0.0147642
0.0199344
0.00711687
0.0141921
0.0153697
0.0118241
0.00343822
0.00727344
0.0156511
0.0155375
0.01653
0.0259328
0.0148047
0.0179985
0.0302214
0.0354522
0.0118272
0.0150296
0.020014
0.0147101
0.0380477
0.0154727
0.0170771
0.0551875
0.0150387
0.266027
0.0155702
0.0226039
0.291935
0.0233203
0.0120427
0.014981
0.0158895
0.0133068
0.0138614
0.228895
0.0120641
0.0125822
0.0532453
0.0179844
0.0557994
0.0169644
0.0314905
0.0387824
0.0527142
0.00976495
0.0190819
0.0111991
0.111227
0.00497367
0.0386005
0.0101232
0.0875702
0.0100145
0.0106835
0.0818376
0.0149814
0.0151385
0.00963173
0.00357889
0.013117
0.0271683
0.0261137
0.0167006
0.0156035
0.0441834
0.0128689
0.0652203
0.0200289
0.0146646
0.0118724
0.186681
0.0172949
0.0437764
0.0107769
0.0272003
0.0162626
0.0489746
0.182458
0.00827176
0.147439
0.0220763
0.197601
0.0422416
0.0400607
0.0160215
0.0479659
0.0220003
0.0146988
0.0774077
0.00868806
0.0283067
0.0213839
0.0862863
0.130478
0.00712946
0.00934765
0.0145555
0.0310613
0.0308449
0.0192245
0.0170958
0.0131297
0.0107137
0.0371202
0.297498
0.0398733
0.00465607
0.0415204
0.0112993
0.0111445
0.016978
0.168323
0.0920634
0.0437647
0.00347785
0.00933694
0.015139
0.187911
0.0137162
0.0155349
0.0146664
0.0153223
0.0206338
0.0149173
0.0113436
0.1014
0.0122563
0.0710317
0.0743181
0.0386883
0.0278696
0.0125177
0.0205262
0.00898839
0.032841
0.0575577
0.0243263
0.0103595
0.0167066
0.0140754
0.00516957
0.00585398
0.0167296
0.00973297
0.0179384
0.0141388
0.0133501
0.00711443
0.0147756
0.00457813
0.0142959
0.0856044
0.0125189
0.0170442
0.0110727
0.00517517
0.025844
0.010924
0.017914
0.01738
0.00683736
0.0176452
0.0869831
0.0190093
0.00603605
0.00594684
0.0079835
0.0605421
0.00706117
0.0136158
0.0114212
0.00719958
0.0232681
0.00681502
0.014827
0.170101
0.0210137
0.0141173
0.117783
0.00630696
0.016689
0.00745756
0.0117608
0.0200438
0.118626
0.00581049
0.0175696
0.013786
0.0175057
0.0174613
0.0479515
0.00427527
0.0817624
0.0247514
0.00897558
0.0117201
0.106498
0.00659383
0.0387271
0.0104283
0.123817
0.0175456
0.00797801
0.158336
0.0162439
0.0312592
0.0144126
0.0149525
0.00435039
0.184132
0.00403699
0.00751211
0.0101618
0.0130758
0.058958
0.0124879
0.0100961
0.00358868
0.00664567
0.0149963
0.0138185
0.102549
0.0776087
0.0156851
0.0184852
0.0397868
0.00803278
0.0815615
0.0160922
0.0176125
0.0243932
0.0707577
0.00764818
0.0125054
0.00988283
0.0183173
0.194086
0.00857356
0.00694207
0.00517614
0.0621759
0.0160371
0.0296146
0.310953
0.0108184
0.0154224
0.00351861
0.00711266
0.106819
0.00738994
0.0515988
0.0160423
0.0113239
0.00972452
0.0112936
0.00767465
0.0341532
0.0347024
0.0131241
0.0072948
0.00732754
0.00860206
0.00901672
0.0080823
0.00835928
0.00404262
0.00927611
0.00892083
0.00988008
0.0139916
0.0109926
0.00355935
0.00637883
0.00792113
0.100378
0.00994774
0.0685641
0.00643283
0.00503083
0.146508
0.0467669
0.00752575
0.00866147
0.00736302
0.00506877
0.00869465
0.00428151
0.0101302
0.00871278
0.0137058
0.0277738
0.00853394
0.00605207
0.00451273
0.00938827
0.176966
0.00449041
0.00465442
0.0102066
0.0114247
0.010682
0.00845913
0.00656088
0.011893
0.00430258
0.00762287
0.0144242
0.00989251
0.0059149
0.0919113
0.120987
0.00551444
0.0535271
0.0108866
0.012541
0.00883772
0.00876458
0.00712417
0.0424239
0.00801362
0.183175
0.0114845
0.0109951
0.00986617
0.0120966
0.00600047
0.0224519
0.0110049
0.00862752
0.0233646
0.00692126
0.00723919
0.0108494
0.00489523
0.0107693
0.00786113
0.00684505
0.00853523
0.0137056
0.00975702
0.0515836
0.00685065
0.00754547
0.00968401
0.0104214
0.252946
0.00517505
0.00396405
0.00392291
0.00852204
1.6556e-05
1.56095e-05
1.45272e-05
1.34169e-05
1.23698e-05
1.13276e-05
1.02682e-05
9.13881e-06
7.87917e-06
1.7266e-05
1.61608e-05
1.48956e-05
1.36434e-05
1.24604e-05
1.13171e-05
1.01815e-05
9.02723e-06
7.84532e-06
1.82652e-05
1.69516e-05
1.54838e-05
1.40643e-05
1.27337e-05
1.14682e-05
1.02395e-05
9.03189e-06
7.8541e-06
1.96879e-05
1.81128e-05
1.64009e-05
1.47779e-05
1.3269e-05
1.18516e-05
1.04997e-05
9.19955e-06
7.95783e-06
2.1704e-05
1.98108e-05
1.77912e-05
1.59075e-05
1.41703e-05
1.25555e-05
1.1036e-05
9.59434e-06
8.22381e-06
2.45651e-05
2.22774e-05
1.98543e-05
1.7624e-05
1.55825e-05
1.37029e-05
1.19543e-05
1.0315e-05
8.77119e-06
2.867e-05
2.5847e-05
2.28743e-05
2.01712e-05
1.77154e-05
1.54741e-05
1.34107e-05
1.15016e-05
9.73501e-06
3.46678e-05
3.10008e-05
2.726e-05
2.39056e-05
2.08807e-05
1.8139e-05
1.56364e-05
1.33482e-05
1.12696e-05
4.3412e-05
3.84005e-05
3.3603e-05
2.93571e-05
2.5549e-05
2.21097e-05
1.89846e-05
1.61438e-05
1.35831e-05
5.58278e-05
4.89387e-05
4.27674e-05
3.73231e-05
3.24401e-05
2.80242e-05
2.40109e-05
2.03602e-05
1.70533e-05
7.29094e-05
6.38531e-05
5.60287e-05
4.90071e-05
4.26553e-05
3.68723e-05
3.15939e-05
2.67728e-05
2.23809e-05
9.58463e-05
8.49864e-05
7.52974e-05
6.62187e-05
5.78628e-05
5.01713e-05
4.31001e-05
3.66032e-05
3.0659e-05
0.000126162
0.000115329
0.000103466
9.16437e-05
8.05352e-05
7.01882e-05
6.05935e-05
5.17122e-05
4.35488e-05
0.000172126
0.00016014
0.000144849
0.00012912
0.000114187
0.000100168
8.7062e-05
7.48284e-05
6.35068e-05
0.000243487
0.000226281
0.000205047
0.000183644
0.000163451
0.000144461
0.000126586
0.000109726
9.38631e-05
0.000349703
0.000320584
0.000290055
0.000260899
0.000233824
0.00020841
0.000184353
0.000161462
0.000139697
0.00049456
0.000447354
0.000404908
0.0003664
0.000331089
0.000297949
0.000266352
0.000235995
0.000206934
0.000669885
0.000606757
0.000552811
0.000504815
0.000460795
0.000419224
0.000379111
0.000339942
0.000301703
0.000871341
0.000798584
0.000736186
0.00068027
0.000628348
0.000578681
0.000529928
0.000481274
0.000432458
0.00110183
0.00102591
0.000958762
0.000897531
0.000839765
0.000783611
0.000727337
0.000669758
0.000610515
0.00137024
0.00129551
0.00122655
0.00116289
0.0011024
0.00104277
0.000981608
0.000916933
0.000847764
0.00168876
0.00161616
0.00154702
0.00148392
0.00142496
0.00136661
0.0013053
0.0012378
0.0011622
0.00207303
0.00199678
0.00192756
0.0018686
0.00181703
0.00176688
0.00171286
0.00165007
0.00157577
0.00254038
0.00244386
0.0023735
0.00232389
0.00228796
0.00225556
0.00221933
0.00217221
0.00211057
0.00309983
0.00295615
0.00288756
0.00285621
0.00284762
0.00284501
0.00283986
0.00282388
0.00277758
0.000518244
0.000507164
0.000499382
0.000494894
0.000493687
0.00049567
0.000500721
0.00050864
0.000519214
0.000532141
0.000547102
0.000563731
0.000581615
0.000600339
0.000619405
0.000638299
0.000656465
0.00067332
0.000688279
0.000700776
0.000710217
0.000715945
0.000716957
0.000711536
0.000699803
0.000683314
0.000662626
0.00063739
0.00060769
0.000575249
0.000540783
0.000504613
0.000467138
0.000429079
0.000391064
0.000353652
0.000317341
0.000282562
0.000249675
0.000218959
0.000190599
0.000164692
0.000141235
0.000120163
0.000101427
8.49859e-05
7.07793e-05
5.87209e-05
4.86814e-05
4.04918e-05
3.39439e-05
2.88074e-05
2.48537e-05
2.18721e-05
1.96831e-05
1.8141e-05
1.71352e-05
1.65857e-05
1.64307e-05
0.000547329
0.000537994
0.000531728
0.000528562
0.000528461
0.000531348
0.00053708
0.000545456
0.000556197
0.000568934
0.000583188
0.000598355
0.000614012
0.000629856
0.000645546
0.000660698
0.00067489
0.00068768
0.000698616
0.000707244
0.000713111
0.00071574
0.000714579
0.000708913
0.000698125
0.000682016
0.000660792
0.000635024
0.00060563
0.000573542
0.000539374
0.000503587
0.00046665
0.000429092
0.000391456
0.000354267
0.000318013
0.000283126
0.000249971
0.000218838
0.000189941
0.000163416
0.000139335
0.000117724
9.85983e-05
8.19493e-05
6.7722e-05
5.58208e-05
4.60608e-05
3.81981e-05
3.19657e-05
2.71059e-05
2.33798e-05
2.05774e-05
1.85243e-05
1.70776e-05
1.61297e-05
1.56046e-05
1.54424e-05
0.000567496
0.000559929
0.000554815
0.000552126
0.00055181
0.000553784
0.000557942
0.000564146
0.000572227
0.000581971
0.000593118
0.000605353
0.000618322
0.000631656
0.000644975
0.000657882
0.000669963
0.000680794
0.000689937
0.000696945
0.000701351
0.000702655
0.000700301
0.00069373
0.000682533
0.000666581
0.00064601
0.000621216
0.000592838
0.000561621
0.000528222
0.000493196
0.000457059
0.000420332
0.000383528
0.000347137
0.000311612
0.000277358
0.000244718
0.000213973
0.000185344
0.000158999
0.000135058
0.000113606
9.46931e-05
7.83217e-05
6.44307e-05
5.2886e-05
4.34819e-05
3.59614e-05
3.00472e-05
2.54629e-05
2.19612e-05
1.93315e-05
1.74013e-05
1.60356e-05
1.51327e-05
1.46215e-05
1.44457e-05
0.000561026
0.00055398
0.000549223
0.000546692
0.000546291
0.000547902
0.000551387
0.000556594
0.00056335
0.000571464
0.000580719
0.000590872
0.000601656
0.000612785
0.000623944
0.000634794
0.000644969
0.000654076
0.000661696
0.000667389
0.000670688
0.000671113
0.00066817
0.000661406
0.000650477
0.000635232
0.00061575
0.000592347
0.000565531
0.000535911
0.000504095
0.000470659
0.000436141
0.000401058
0.000365899
0.000331123
0.000297148
0.000264348
0.000233046
0.000203517
0.000175986
0.000150638
0.000127619
0.000107037
8.89507e-05
7.336e-05
6.01926e-05
4.92997e-05
4.04663e-05
3.34326e-05
2.7925e-05
2.36718e-05
2.04289e-05
1.7992e-05
1.61985e-05
1.49234e-05
1.40733e-05
1.35829e-05
1.34009e-05
0.000538985
0.000532441
0.000528021
0.000525653
0.000525234
0.000526634
0.000529704
0.000534281
0.00054019
0.000547247
0.000555255
0.000564002
0.000573265
0.000582794
0.000592322
0.000601551
0.000610156
0.00061778
0.000624038
0.000628522
0.000630801
0.000630435
0.000626996
0.000620107
0.000609493
0.00059503
0.000576772
0.000554957
0.000529974
0.000502314
0.000472516
0.000441119
0.000408655
0.000375628
0.000342513
0.00030975
0.000277733
0.000246818
0.000217317
0.000189498
0.000163589
0.000139774
0.000118202
9.8975e-05
8.21409e-05
6.76828e-05
5.55125e-05
4.54724e-05
3.73472e-05
3.08859e-05
2.58263e-05
2.19173e-05
1.89352e-05
1.66925e-05
1.50388e-05
1.38586e-05
1.30659e-05
1.26002e-05
1.24142e-05
0.000502327
0.00049588
0.000491467
0.00048902
0.000488432
0.00048957
0.000492275
0.00049638
0.000501701
0.000508049
0.00051523
0.000523042
0.00053127
0.000539687
0.000548047
0.000556081
0.000563495
0.000569967
0.000575154
0.000578694
0.000580207
0.000579305
0.000575622
0.000568843
0.000558738
0.000545208
0.000528297
0.000508198
0.000485225
0.000459786
0.000432347
0.000403401
0.00037345
0.00034298
0.000312438
0.000282243
0.000252764
0.000224334
0.000197253
0.000171772
0.000148102
0.00012641
0.000106823
8.94223e-05
7.42346e-05
6.12241e-05
5.02928e-05
4.12833e-05
3.39918e-05
2.81871e-05
2.36326e-05
2.01042e-05
1.74038e-05
1.53655e-05
1.38567e-05
1.27746e-05
1.20418e-05
1.1604e-05
1.14183e-05
0.00045458
0.000448232
0.000443785
0.000441185
0.000440342
0.000441133
0.000443409
0.000447007
0.000451749
0.000457447
0.000463911
0.000470942
0.000478336
0.000485873
0.000493321
0.000500433
0.000506937
0.000512532
0.000516915
0.000519761
0.000520739
0.00051951
0.000515774
0.000509276
0.000499812
0.00048732
0.000471847
0.000453566
0.00043273
0.000409681
0.000384836
0.000358634
0.00033156
0.000304073
0.000276578
0.00024947
0.00022308
0.000197711
0.000173647
0.000151099
0.000130237
0.00011119
9.40481e-05
7.88603e-05
6.56274e-05
5.42978e-05
4.47725e-05
3.6906e-05
3.0519e-05
2.54131e-05
2.13873e-05
1.82522e-05
1.58402e-05
1.401e-05
1.26474e-05
1.16635e-05
1.09912e-05
1.05822e-05
1.03984e-05
0.000394173
0.000387717
0.000383037
0.000380109
0.000378869
0.000379214
0.000381007
0.000384101
0.000388315
0.000393456
0.000399359
0.000405805
0.000412589
0.000419491
0.0004263
0.000432814
0.000438783
0.000443893
0.000447882
0.00045041
0.000451187
0.000449912
0.000446392
0.000440453
0.000431866
0.000420638
0.000406813
0.000390572
0.000372072
0.000351622
0.000329615
0.000306456
0.000282655
0.000258639
0.00023471
0.000211251
0.000188555
0.000166866
0.000146459
0.000127454
0.000109965
9.40661e-05
7.97981e-05
6.71761e-05
5.61814e-05
4.67464e-05
3.87888e-05
3.21801e-05
2.67753e-05
2.24176e-05
1.89508e-05
1.62279e-05
1.41163e-05
1.25036e-05
1.12963e-05
1.04203e-05
9.81815e-06
9.44831e-06
9.27664e-06
0.000317678
0.000310952
0.000305908
0.000302597
0.000301012
0.00030104
0.00030252
0.000305199
0.000309095
0.000314219
0.000320034
0.000326355
0.000332897
0.000339367
0.000345785
0.000351914
0.000357803
0.000363363
0.000367795
0.000370528
0.00037141
0.000370318
0.0003673
0.000362175
0.000354851
0.00034527
0.000333528
0.000319733
0.000303877
0.000286161
0.000267179
0.000247377
0.000227278
0.000207259
0.000187554
0.000168177
0.00014954
0.000132299
0.000116266
0.000101348
8.77107e-05
7.53771e-05
6.4329e-05
5.4522e-05
4.5917e-05
3.85127e-05
3.2229e-05
2.69996e-05
2.26854e-05
1.91319e-05
1.62389e-05
1.39268e-05
1.21161e-05
1.07249e-05
9.67813e-06
8.92026e-06
8.40501e-06
8.09525e-06
7.95921e-06
0.00671794
0.00597945
0.00532221
0.00472214
0.00416832
0.00365762
0.00318934
0.00276387
0.00237972
0.0020343
0.00173979
0.00150456
0.00132538
0.00119085
0.00108053
0.00098426
0.000901347
0.000831749
0.00077639
0.000734595
0.000701813
0.000672127
0.00064033
0.000601777
0.00055176
0.00641684
0.00583859
0.00524129
0.00465979
0.00410885
0.0035956
0.00312431
0.00269659
0.00231308
0.00197615
0.00168993
0.00145515
0.00126792
0.00112096
0.00100525
0.000913644
0.000841493
0.00078547
0.000742948
0.000711319
0.000687253
0.000666662
0.000645166
0.00061799
0.000579461
0.00645418
0.00582409
0.00520097
0.00460129
0.00403547
0.00351082
0.00303197
0.00260124
0.00222018
0.00189024
0.00161144
0.00138137
0.0011956
0.00104846
0.000933975
0.000846733
0.000781978
0.000735397
0.000703073
0.000681379
0.000666679
0.000655
0.000641982
0.000623003
0.000593273
0.00655711
0.00583934
0.0051628
0.00452919
0.00394205
0.00340482
0.00292013
0.00248932
0.00211288
0.0017903
0.00151938
0.00129617
0.00111583
0.000973234
0.000863419
0.0007817
0.000723507
0.000684318
0.000659776
0.000645768
0.000638289
0.000633146
0.000625792
0.000611474
0.000585202
0.00667165
0.00586778
0.00512936
0.00445383
0.00384055
0.00328907
0.00279884
0.00236887
0.00199757
0.00168242
0.0014196
0.00120424
0.00103113
0.000895195
0.000791687
0.000716122
0.000664049
0.000630986
0.000612496
0.000604236
0.000601894
0.000601027
0.000596988
0.000585216
0.000561586
0.00676796
0.0058856
0.00508478
0.00436584
0.00372602
0.00316105
0.0026666
0.00223875
0.00187351
0.00156648
0.00131257
0.00110619
0.000941687
0.000813784
0.000717623
0.000648659
0.000602466
0.000574651
0.00056084
0.000556676
0.000557731
0.000559526
0.000557466
0.000547152
0.000524598
0.006856
0.00588967
0.00502209
0.00425889
0.00359401
0.00301778
0.00252122
0.00209717
0.00173934
0.0014416
0.0011978
0.0010017
0.000847149
0.000728423
0.000640387
0.000578336
0.000537831
0.000514599
0.000504443
0.000503093
0.000506177
0.000509318
0.000508098
0.000498326
0.000476456
0.00695431
0.00587318
0.00492976
0.00412358
0.00343797
0.00285484
0.00235953
0.00194162
0.00159305
0.00130622
0.00107406
0.000889781
0.000746767
0.000638423
0.000559282
0.00050446
0.000469486
0.000450291
0.000442945
0.000443348
0.000447258
0.00045057
0.000449019
0.000438623
0.000416293
0.00703478
0.00581079
0.00478969
0.00394877
0.00325162
0.00266864
0.00217956
0.00177025
0.00143273
0.00115884
0.000939856
0.000769206
0.000639964
0.000543363
0.000473918
0.000426702
0.000397049
0.000381316
0.000376032
0.000377407
0.000381107
0.000383574
0.000380176
0.000366425
0.000340618
0.229782
0.207296
4.144
0.0299046
0.000132388
0.000186278
0.0254821
1.57542e-05
4.4421
1.21812e-05
3.70751
4.89536e-05
0.00118362
0.000192606
0.0185912
0.000179364
6.15574
0.0206263
7.58256e-06
0.150731
0.00090473
7.74229e-05
3.79794
0.00053823
1.08392e-05
2.49733e-05
1.09816e-05
0.00305437
0.533362
4.35782
6.61104e-06
4.33674e-05
2.51501
0.0022937
3.91819
8.68298e-05
0.00869269
0.0190934
0.00912206
7.60233e-05
3.658
1.89606e-05
5.31555e-05
0.0105661
0.00175545
0.000121601
5.9666
6.49615
1.00518
1.22718
5.485
2.62037
0.00082927
0.0169157
0.0230036
4.02366
0.000147239
0.000721643
3.36211e-05
2.41306
0.000182455
3.94129
0.000127587
0.000119464
1.6509e-05
0.010031
2.62697e-05
0.00227617
0.00129365
1.08747
3.6362
0.000109437
5.12955e-05
0.131652
1.19638e-05
0.000805229
0.0789912
5.5245
8.79593e-06
0.0120387
0.00199224
0.000306909
2.07594e-05
3.86936
0.000141128
0.000198265
4.02064e-05
5.21541
2.54844
0.000286024
0.000687628
6.65865e-05
3.33468e-05
5.39721e-05
6.93904e-05
3.71121
2.60642e-05
4.29793
4.38074e-05
2.27331
0.000954408
3.58137
0.00115972
0.00010984
2.95265e-05
0.00158825
3.91835
0.00190829
7.46795e-05
4.38793
8.2069e-05
5.01048e-05
3.80952
0.000102725
0.00077943
0.97116
2.22815
6.21571e-05
0.000935781
3.17846e-05
8.22091e-06
4.37395e-05
0.000517442
1.10144e-05
2.68452
5.03339e-05
2.67976
0.0521159
1.31309e-05
6.46485
1.9077e-05
0.120006
1.12884
0.00636272
0.00431743
4.09032e-05
0.00159054
0.000523251
0.000153001
0.1896
7.44699e-05
0.00832988
2.67029
1.44479e-05
0.696728
0.000235627
0.0442435
0.00999989
0.000180938
4.34815
0.00224641
9.22229e-05
0.0439397
0.0281278
1.24297e-05
3.73739
2.556e-05
6.36244e-05
0.0684754
2.59036e-05
5.69042e-05
4.01693
7.10415e-05
4.5852
5.47963e-05
4.85251
0.000205345
1.14376e-05
0.000255753
3.05133e-05
0.000155185
0.000127679
0.00245783
4.25413
2.4841e-05
0.00204784
0.00401285
0.807654
1.27997
7.69255e-05
0.00555764
4.26569e-05
0.000850718
0.00682709
0.0075883
2.22937e-05
5.34428
7.58203e-05
1.53455
0.000166304
4.90446
2.47618
0.163853
0.0078234
0.0229355
1.82837
1.16295e-05
7.46497e-05
0.829332
0.325728
0.00192378
0.000265814
0.000274041
0.000187673
0.00163243
2.45741e-05
3.17656e-05
0.00116488
1.1179
5.05028e-05
2.72904e-05
6.2236e-05
0.00502124
0.0014557
0.00272912
4.59132
7.65749e-05
1.29582e-05
0.000196617
0.000629824
0.000839346
2.2039e-05
1.33259e-05
3.00558
0.000688121
2.43566
0.000237362
6.02681
7.1712e-05
6.15788e-05
3.44523
8.92362e-05
4.3286e-05
1.59221e-05
0.0090668
1.6747e-05
0.0491607
0.0016372
0.00729506
0.0318146
7.1272e-06
0.000180689
5.14607e-05
0.00600634
4.57034e-05
3.41195e-05
3.92815e-05
0.00305789
0.000168729
3.34211e-05
6.85206e-05
0.00227675
1.48184e-05
0.974466
3.5068e-05
1.33325e-05
3.80458
0.0697193
0.0627007
7.40207e-06
0.00238444
1.65125e-05
9.22485e-05
1.16384e-05
0.11037
1.14413e-05
2.85578e-05
0.0806863
0.026262
1.14654e-05
0.00155741
0.217649
4.7665e-05
1.30441e-05
8.51233e-06
0.0836006
4.35405e-05
6.28704
0.00016319
3.42245
0.0123046
0.00235966
0.001746
0.000119523
1.26538
0.000195031
0.00176094
0.00240087
4.97481
5.31717
0.0364523
7.98621e-05
9.6732e-06
5.38211
0.00474457
4.41284
3.99218
4.27526e-05
2.74225e-05
1.49831
2.82791
5.82538e-05
0.000132979
0.000209321
3.64703
3.93781e-05
0.000938659
1.35479e-05
0.187929
0.000292554
0.000111247
4.89509e-05
1.96477
1.08956e-05
5.05673e-05
0.007583
6.48474
1.69923e-05
1.10348e-05
0.00814123
0.066425
3.83616e-05
0.000151071
6.66716e-06
4.5182e-05
1.16587e-05
2.14216
0.00206307
3.7993e-05
0.000781324
5.15708e-05
0.0221041
0.000608612
1.39896e-05
4.42508
0.000222749
3.43297e-05
2.31137e-05
2.42182e-05
0.00226565
6.81478e-05
4.25928e-05
1.58642
4.13961e-05
0.098304
7.63325e-05
0.000249978
4.22823e-05
3.78952e-05
5.9074
0.0197404
3.47884e-05
5.29781e-05
0.0577895
5.38952
0.00053183
0.0108656
0.00925955
5.08398e-05
6.57614
1.13662
3.66295
2.35594e-05
2.32782
1.45918e-05
3.38059e-05
0.000200597
6.45363
7.60931e-05
1.41045
7.2205e-05
0.0277046
0.507657
3.8998
0.0012003
1.29204e-05
1.93441e-05
5.64112e-05
2.69272e-05
1.44978e-05
3.88478
0.000120444
2.68235
0.0120635
0.0102456
0.00759999
5.77327e-05
0.142774
3.43542
4.95022
0.0145744
2.57839e-05
0.00118557
2.67025
0.00545802
9.6649e-06
4.02653e-05
2.52397
6.45146e-05
0.561873
1.67312e-05
5.28311e-05
0.000136501
0.78673
3.73009e-05
5.04274e-08
0.0222845
0.00140345
0.00564085
7.2791e-06
1.13805
8.51566e-05
1.44485
0.000141816
3.19418e-05
0.00013544
1.08187
5.89436
4.72586e-05
6.38407e-05
6.06563e-05
2.79288e-05
0.000350497
0.00146116
0.000203374
4.36496
1.4102e-05
0.000187852
1.05244e-05
4.34438e-05
0.000168011
1.47145e-05
0.000307007
8.75991e-06
0.0354607
0.000183617
8.05961e-05
6.77548e-06
4.05133e-05
0.000147572
2.47242e-05
0.0316134
5.19353
0.00738515
0.00141573
1.28423
0.00203765
1.21195
2.53511e-05
8.5486e-06
3.84268
5.14362e-05
7.01496e-05
1.37761
4.43591e-05
0.997008
6.14008
0.000199189
0.00074188
0.0416418
8.09432e-05
0.00688206
0.98953
0.00439168
3.63195
2.36493e-05
4.31245e-05
3.48317
2.36922e-05
3.48219
0.00254155
2.6941e-05
3.6705
0.000146071
1.12343e-05
0.00171646
0.000218353
2.15573e-05
0.00990978
0.00572381
0.00295921
0.00965168
2.43493e-06
4.40074e-05
3.72711
9.91765e-05
0.000290624
0.000147882
0.976933
8.25078e-05
0.0211102
0.000100133
1.64769e-05
2.51406
6.89865e-05
7.74122e-05
0.0198396
0.000172772
3.83315e-05
1.33377
5.63214e-05
0.0354347
0.000108096
0.00458629
0.00346995
0.0028443
0.0001798
0.000156659
0.0236543
3.82297e-05
7.0799e-05
0.00250778
2.4309e-05
0.000177973
2.33092e-05
6.39284
3.54091
1.13005
1.32477e-05
0.00717717
2.43897e-05
5.26234
0.158103
0.250482
0.00222232
0.000151571
4.06182
3.59305
2.42411e-05
0.000159898
0.00221111
8.55619e-05
0.160299
2.29263
3.84761e-05
0.00785181
5.27929e-05
1.38288
0.924778
0.000110492
0.00768456
5.08376
7.39927e-05
4.15713
6.79802e-05
2.32512
5.02546e-05
0.000622104
0.000165383
6.60056
0.00941708
0.0102355
1.25288e-05
1.01991
1.1253
6.53769
1.23278e-05
4.21173e-05
0.00103369
1.28942
1.19382e-05
0.0065849
5.42753e-05
0.00136943
4.67398
9.72247e-06
0.00638247
2.40958e-05
4.2964e-05
0.00301482
2.1354
0.000179812
0.0131645
5.55724e-05
0.000125787
3.81451
6.43142
1.34304
0.000790061
0.00331055
0.191726
0.000820985
0.000257641
2.73667e-05
1.55885e-05
2.54172
7.21664e-05
0.000186457
0.00983418
0.000219198
0.000329961
0.000221581
0.000108765
0.0258985
5.11649e-05
3.1794e-05
0.00183671
1.16189
0.000105028
4.11328e-05
1.63713
0.0029365
1.69545e-05
0.00018301
0.0446844
4.04451e-05
0.000210767
1.12558e-05
0.00173159
4.96416e-05
5.74924e-05
0.00945669
3.05414e-05
0.000238815
0.00127599
0.000878379
2.29254e-05
0.000237632
2.07097
0.000136756
1.84397e-05
3.78103e-05
3.21524e-05
0.000239564
2.57015e-05
2.10245
7.41909
0.00263066
2.437
1.51239e-05
1.22349e-05
2.23763e-05
2.5108e-05
0.000231227
3.18652e-05
0.00118069
0.000285676
1.46577e-05
7.10442e-05
0.0208703
0.00564735
0.000405193
0.00979908
7.11326e-05
0.000163751
1.70182e-05
0.000943719
0.0081247
1.9937
0.0254153
0.0559862
3.02542e-05
1.22985e-05
4.84758e-05
0.00016501
9.9264e-06
6.46952
7.03633e-06
0.00189646
3.67383e-05
1.45884
0.00720396
3.65809
8.74951e-06
2.30587e-05
1.4401e-05
3.72632
1.43586
0.00712151
0.000809336
2.29431e-05
1.09914e-05
0.000122606
2.56504
8.2713e-06
3.02287e-05
0.00751019
7.34188e-05
7.72223e-05
1.51945e-05
4.49896e-05
0.000876709
0.000192471
2.1885e-05
2.76365e-05
0.000595468
5.59788e-05
0.729229
4.22026
4.1347e-05
0.021517
5.28836e-05
3.55019
1.63259e-05
4.19602e-05
3.56112e-05
2.12733e-05
0.010473
0.000163177
7.22506e-05
3.55668e-05
0.00194281
3.52551e-05
0.000152654
9.72211e-05
3.71356
0.0174068
0.00183043
5.95033
0.0238723
1.08226
3.88894
8.24657e-06
2.5037e-05
2.08134e-05
2.14737e-07
9.66546e-05
0.0120135
0.000229617
6.43315e-05
0.00110042
1.48661e-05
8.53893e-06
0.00505017
4.67326e-05
1.39216e-05
1.99961e-05
0.00176493
0.00257866
3.91776
1.25523e-05
1.43384
0.0265431
0.759602
0.00209686
3.80036
4.99422
0.153027
1.23739e-05
0.000173752
3.90667e-06
0.00148519
6.21603e-05
0.0040802
0.514484
3.24597e-05
0.0860336
0.00713832
1.97643e-05
1.85821e-05
9.82016e-05
7.21658
1.65873
3.10011e-05
0.0310179
0.0285373
0.00102005
1.70509
2.52018e-09
3.08466e-05
0.00551285
6.13362e-06
0.38694
0.00566455
3.70276
0.0264657
1.49729e-05
0.0267842
4.49338e-05
2.64338e-06
0.00659002
0.000287266
0.000663726
2.57574e-05
4.97072e-05
0.00662619
0.000182413
1.58305e-05
5.84161e-05
0.0001014
0.00374145
7.78617e-05
2.65696
0.0221988
7.42591e-05
0.0156925
0.000130027
0.180901
0.000207789
2.19166e-05
7.26706e-05
0.00299327
0.00236235
7.70061e-06
8.88506e-05
5.92612
1.42211
0.0242095
0.000168751
0.00798847
0.00362079
0.0359818
1.58032
0.00709754
0.000384395
4.77622e-05
3.8669
4.45264e-05
1.61531e-05
0.00108468
1.86575
3.98324
4.34844e-05
0.00010227
1.25522
1.94024e-05
2.30658
1.44858
8.27596e-05
4.39431e-05
6.48516
0.537855
0.535557
4.79396e-05
2.28649e-05
2.41651e-05
0.00626163
0.00919937
5.18958e-05
1.63568e-05
9.59009e-05
0.0214047
9.24829e-05
0.0050586
0.586478
1.18363e-05
4.69049e-05
0.748901
1.51213e-05
0.00158294
5.98627e-05
0.00264217
3.26186e-05
1.65685e-05
0.00363251
0.000101832
3.36207e-05
3.76535e-05
0.00257781
0.0017099
4.78513
1.68014e-05
2.57934e-05
6.13947e-05
0.0144747
0.187034
2.83417
3.64632e-05
0.00188478
0.0210363
2.08362e-06
1.37425e-05
0.000174624
3.52336
4.4044e-05
0.153192
0.000193726
9.58302e-06
0.0107439
0.000160043
0.309677
0.295403
0.00826372
2.78995
3.45888
7.03399
1.62033e-05
2.28321
0.0111511
6.04652e-05
0.022072
6.72424e-05
0.000178235
0.0615311
0.000152458
0.000527415
0.00279204
1.71729
1.1379e-05
7.05034e-06
2.02458
0.000268506
0.000220759
0.0196315
0.642719
0.00874401
2.82252e-05
0.0015393
6.02644
3.71609
0.00482659
0.00127075
1.17485
0.000307865
2.27407e-05
0.00850734
1.24023
2.59381e-05
0.00270604
0.000132869
1.29493
0.000210978
0.009622
0.46117
1.38069e-05
0.000133227
3.13096e-05
1.3658
0.00923891
1.57138
0.850638
0.000203681
0.00355199
0.00616082
0.000728136
0.455136
0.000679315
2.37553e-05
0.000185382
0.000135866
2.64241e-05
0.00822373
3.60979
7.04704e-05
1.44063
8.33037e-05
0.0444518
1.61883e-05
7.09431e-05
1.44051e-05
2.55407
1.48199
0.00272254
0.001929
3.35159e-05
3.84345e-05
0.0339709
9.62125e-06
0.00977905
0.00665746
3.40978
5.35103e-05
0.00187427
0.0366879
0.000196657
0.000227946
0.000262126
3.35571
5.18629e-05
0.000769873
0.0401666
0.0231064
4.38177e-05
0.000732196
1.17994e-05
9.54071e-05
6.06599e-05
4.50665e-05
0.000999289
2.71946e-05
0.00207049
1.33058
0.165137
2.54794
6.64115e-05
0.00156543
0.00658007
7.07012e-06
0.660806
0.000142457
0.000317979
3.80526
0.000200423
0.00420848
0.00028976
1.22559e-05
1.06603
1.80842e-05
0.0018134
3.12449e-05
0.0271333
0.0323162
2.2328
1.32251e-05
0.0332719
3.66905e-05
0.00283127
0.000172666
1.70103
0.00700167
0.0015045
5.04585
7.41678e-05
5.97358
0.000101058
0.899621
0.000301641
1.70275e-05
4.98103e-05
0.0106977
0.0215377
4.78961e-05
3.1041e-05
0.0805222
2.12099e-05
2.91282e-05
1.45733e-05
3.12401e-05
0.000114094
6.29548
0.000229904
8.67468e-05
0.0288001
0.00269862
7.0172
2.6181e-05
4.49481e-05
4.40024e-05
0.000314012
0.00026762
0.00017759
3.57874
0.000387813
0.00979361
2.39725e-05
0.000835113
0.012771
1.49791
4.49452e-05
2.73722e-05
0.000110328
0.000256052
3.47143e-05
0.00297045
4.80452
0.0174307
0.0031432
2.98384e-05
0.0352297
3.24069
0.00190973
0.0403297
0.000203765
0.697668
3.65659
6.504
0.000125146
0.000131453
0.00122653
1.55997
0.000217736
2.01876
0.0002535
0.00437641
1.09567
9.26595e-06
9.69376e-05
0.000325903
1.69967e-05
6.68286e-06
0.000101339
0.557468
1.00812e-05
2.02001
3.17612e-05
4.3717e-05
2.54586e-05
1.34542e-05
0.000972455
5.76954e-05
0.176541
0.00440258
0.000109536
0.000189667
0.846165
3.5705
2.21584e-05
4.79438e-05
9.95666e-05
0.00350495
0.00997548
0.00155052
3.06135
2.29368e-05
1.95734e-05
0.00103124
0.00010015
0.00142326
0.031383
3.45192e-05
3.50094e-05
8.37404e-06
0.000431934
0.00606545
1.13314
0.033121
2.0992e-05
0.00145683
8.0647e-06
2.95457
3.34169
5.37913e-05
1.82426e-05
0.0817946
3.79965e-05
6.19616e-05
0.285655
0.568783
0.000185753
2.23495e-05
1.96229e-05
0.00573713
0.569258
2.86308e-05
1.22391e-05
0.471081
1.43816
1.20235e-06
4.07326e-05
1.90167e-05
8.62963e-05
0.003672
0.000947106
7.48738e-05
0.0381
0.000145489
5.65709e-05
8.07224e-05
0.000970929
4.49104e-05
4.73681
0.936535
3.54446
0.411877
0.00670044
0.0590365
4.02905e-05
2.52398
0.00123416
1.7842e-05
0.000937678
7.70418e-05
0.00111098
5.03663e-05
7.89937e-05
2.45321e-05
1.7824
1.35851e-05
0.00248826
0.032943
0.00032915
0.00166792
0.00302481
6.48047
2.78032e-05
5.12149
4.21574
0.000302427
4.35687e-05
0.00121863
0.00179848
0.000837609
0.0243195
1.52585
6.28047e-05
1.6125e-05
3.35676e-05
0.0100419
3.12013
0.00022399
0.000189442
1.69921e-05
2.22091e-05
0.000244561
0.00384214
1.75925e-05
0.00044143
0.000641159
1.08801
4.36871e-05
0.00130788
7.38135
0.000150505
0.00213287
0.000923471
0.274724
0.00216991
0.00214874
0.000928204
6.25751e-05
0.543458
1.33619
0.00010365
0.00758648
0.0202723
4.38061e-05
0.000322398
6.65924e-05
0.0123573
3.5853e-05
0.00145969
3.12815e-05
0.0318751
1.0797
0.0585806
0.973011
0.000293515
0.000233094
0.0747533
0.0258904
0.000357763
0.000131148
7.414e-05
3.54791
6.5803e-05
0.00148819
2.63178e-05
0.000151106
0.00851843
4.69089e-05
4.83513e-05
2.11148e-05
1.66557
0.0738406
1.07249e-05
0.000131578
7.02774e-06
4.59175e-05
0.000144145
0.559219
0.000107603
0.00632325
1.90924
0.0200667
1.60538e-06
0.043386
0.482242
0.17817
0.75632
0.000487685
0.00419143
2.32723
1.92137
1.91953e-05
1.26831
4.13097e-05
4.84057
0.00300671
1.31261e-05
0.00144996
0.0167004
5.16598
0.00355652
0.00202971
5.66725e-05
0.0273351
1.38225
0.00116905
2.42188