/*--------------------------------*- C++ -*----------------------------------*\
  =========                 |
  \\      /  F ield         | OpenFOAM: The Open Source CFD Toolbox
   \\    /   O peration     | Website:  https://openfoam.org
    \\  /    A nd           | Version:  10
     \\/     M anipulation  |
\*---------------------------------------------------------------------------*/
FoamFile
{
    format      ascii;
    class       volScalarField;
    location    "800";
    object      k;
}
// * * * * * * * * * * * * * * * * * * * * * * * * * * * * * * * * * * * * * //

dimensions      [0 2 -2 0 0 0 0];

internalField   nonuniform List<scalar> 
10435
(
0.948346
1.06855
1.02321
1.24833
1.62997
1.69163
0.961435
0.89096
0.838537
1.4653
1.23992
1.39008
1.22566
0.729822
0.74817
0.99759
0.713669
1.43805
0.816295
0.994637
0.93178
1.20417
1.05317
1.12448
1.35239
0.400924
0.53146
1.07551
0.475953
1.47279
1.30216
1.33015
0.872743
0.47145
1.00096
0.859632
1.06876
0.561148
0.30658
0.917714
1.58289
0.992164
0.589055
1.13426
1.13904
1.03205
1.6393
0.563017
0.789957
1.16258
0.920543
1.5361
0.298321
0.41196
0.329077
0.440969
1.10696
0.575395
0.637094
1.02568
0.324074
0.992507
0.560739
1.57844
1.09804
1.09903
0.583957
0.623829
0.904387
1.19597
0.407787
0.489681
0.444055
1.09828
0.771873
0.585162
1.24417
0.937048
0.845597
0.741252
1.24804
0.861866
0.290488
0.416702
1.27246
0.855247
0.931921
1.16068
0.800561
0.984954
1.22635
1.29634
0.903108
0.836796
1.04067
0.802462
1.3481
0.761096
0.667262
1.44293
0.779833
1.74878
0.881874
1.09906
1.7686
1.19225
0.947855
1.21043
1.2809
0.764646
1.1078
1.69978
0.824639
0.792402
1.40495
1.15101
1.46519
0.909139
1.16797
1.4062
1.46424
0.497993
0.966993
0.628789
1.42344
0.364082
1.38431
0.53268
1.54381
0.550873
0.581031
1.31682
0.958818
0.720834
0.525646
0.272458
0.728719
1.29651
1.09679
1.09628
1.04384
1.21127
0.543899
1.45482
1.2514
0.695068
0.67535
1.63442
0.706039
1.39971
0.512909
1.18119
0.977089
1.38692
1.55574
0.457154
1.52723
1.02967
1.5245
1.10644
1.29888
0.702542
1.32489
1.33013
0.798582
1.52846
0.88338
1.35778
1.29842
1.52703
1.41258
0.384916
0.481461
0.720357
1.33914
1.01354
0.922662
0.666478
1.05162
0.512445
1.15098
1.72898
1.40553
0.346359
1.25574
0.513447
0.523729
0.929927
1.66858
1.48962
1.43528
0.285748
0.528415
0.788388
1.62356
0.916038
0.659463
0.806756
0.621918
1.0346
0.806774
0.552172
1.14164
0.574963
1.09184
1.46018
1.24443
1.33327
0.564815
1.28831
0.457035
1.02866
1.47222
1.34043
0.520972
0.720623
0.828944
0.344514
0.40487
0.685625
0.483611
0.687746
0.584443
0.690444
0.436367
0.978607
0.352375
0.768472
1.40601
0.604742
0.660131
0.926328
0.376997
1.22519
0.57319
0.696261
1.16192
0.435823
1.21655
1.32995
1.07942
0.396504
0.363214
0.435558
1.39718
0.843743
0.751405
0.895294
0.382401
0.930121
0.38616
0.843033
1.29581
1.31432
0.909432
1.59594
0.345979
0.920503
0.420744
0.549813
0.933808
1.43131
0.39589
1.28604
0.864453
0.666212
1.02707
1.17666
0.320631
1.50847
0.950613
0.872761
0.894993
1.26334
0.435556
1.41581
0.552252
1.57443
0.95496
0.860028
1.31856
0.657299
0.969842
0.745974
0.883549
0.309947
1.68075
0.328571
0.420198
0.489846
0.70724
1.20906
0.555821
0.882758
0.311692
0.402447
0.674715
0.904658
1.50081
1.25715
0.632556
1.2569
0.991643
0.418432
1.41838
0.739302
0.693816
1.26177
1.18687
0.420206
0.99782
0.517628
0.855229
1.67221
0.89113
0.40644
0.359406
1.38924
0.636295
1.37521
1.76599
0.524475
0.928847
0.281207
0.844558
1.17739
0.469557
1.02087
0.627815
0.568444
0.938586
0.510572
0.416996
0.984576
1.32314
0.58865
0.410701
0.395112
0.435389
0.463603
0.494705
0.474925
0.318094
0.481096
0.462509
0.502289
0.599658
0.579327
0.27695
0.825878
0.42006
1.19707
0.515564
1.06104
0.827693
0.765337
1.20019
1.12354
0.425382
0.449389
0.402457
0.371866
0.449697
0.31392
0.506496
0.514071
0.599122
1.34494
0.502731
0.811991
0.349667
0.535719
1.24024
0.733435
0.314775
0.532246
0.555396
0.55526
0.447925
0.431914
0.627167
0.338637
0.856094
0.600644
0.884426
0.809655
1.11104
1.16456
0.791349
1.03071
0.941745
0.636699
0.443021
0.459063
0.413419
1.00312
0.438199
1.26255
0.609564
0.52457
0.548502
0.538144
0.380811
0.968825
0.556223
0.87128
1.28793
0.386843
0.459622
0.580051
0.752733
0.586616
0.481838
0.417378
0.445807
0.591027
0.490035
1.03559
0.408878
0.46458
0.486067
0.478532
1.34516
0.321876
0.283516
0.695838
0.44118
0.0856955
0.0832354
0.0799712
0.0762558
0.0723848
0.0682195
0.0637565
0.0589215
0.0536285
0.0866325
0.0838673
0.0803159
0.076441
0.0724301
0.0682425
0.0638473
0.059244
0.0544805
0.0872631
0.0841676
0.0803602
0.0763331
0.0722214
0.0680062
0.0636717
0.059247
0.0548345
0.0877187
0.08429
0.0802427
0.0760769
0.0718776
0.0676344
0.0633437
0.0590451
0.0548366
0.0880947
0.0843701
0.0800952
0.0757941
0.0715085
0.0672309
0.062963
0.0587419
0.0546381
0.0885033
0.0845385
0.0800426
0.0755991
0.0712169
0.0668915
0.0626254
0.0584518
0.0544294
0.0891184
0.0849279
0.0801994
0.0755955
0.0710998
0.0667098
0.0624281
0.0582889
0.0543539
0.090226
0.085665
0.0806662
0.0758759
0.0712474
0.0667743
0.0624594
0.0583411
0.0544882
0.0919993
0.0868329
0.0815268
0.0765267
0.071748
0.0671723
0.0628022
0.0586765
0.054866
0.0943043
0.0884466
0.0828517
0.0776364
0.072696
0.0679985
0.0635474
0.0593785
0.0555516
0.0968039
0.0904778
0.0847088
0.0793056
0.0742023
0.0693661
0.0648083
0.0605641
0.0566869
0.0991264
0.0929325
0.0871958
0.0816651
0.0764083
0.0714207
0.066733
0.062388
0.0584471
0.100882
0.0959932
0.0905084
0.0849125
0.0795077
0.0743525
0.0695077
0.0650293
0.0609955
0.104281
0.100352
0.0950397
0.089349
0.0837643
0.0784045
0.0733587
0.0686992
0.0645191
0.110681
0.106745
0.101265
0.0953385
0.0894901
0.083859
0.0785459
0.0736305
0.0692003
0.120656
0.115617
0.109546
0.103199
0.0969768
0.0909905
0.0853344
0.0800924
0.0753515
0.133614
0.126869
0.119971
0.113089
0.10641
0.099998
0.0939305
0.0882953
0.0831965
0.147651
0.139872
0.13233
0.124965
0.117832
0.110976
0.10446
0.0983707
0.09282
0.162078
0.154143
0.146354
0.138693
0.131207
0.123961
0.117018
0.110459
0.10439
0.177156
0.169671
0.161966
0.154217
0.14653
0.139009
0.131722
0.12475
0.118205
0.193599
0.186795
0.179323
0.171623
0.163892
0.156249
0.148756
0.141472
0.134501
0.212227
0.205969
0.19868
0.191084
0.183454
0.175875
0.168375
0.160968
0.153735
0.233959
0.227597
0.220252
0.212762
0.205386
0.198102
0.190866
0.183627
0.176448
0.259724
0.251863
0.24406
0.236699
0.229777
0.22308
0.216456
0.209754
0.203015
0.290102
0.278403
0.269906
0.262861
0.256698
0.250938
0.245338
0.239656
0.233187
0.134533
0.134401
0.135076
0.136566
0.138879
0.141998
0.1459
0.150543
0.15588
0.161842
0.16836
0.175353
0.182726
0.190386
0.198219
0.206107
0.213922
0.221528
0.228785
0.235556
0.241689
0.247022
0.251322
0.254215
0.255664
0.255908
0.254998
0.252804
0.249284
0.244751
0.239312
0.233
0.225869
0.218066
0.209733
0.201013
0.19205
0.182986
0.173958
0.165094
0.156499
0.148258
0.140415
0.132985
0.125996
0.119485
0.113494
0.108071
0.103251
0.099066
0.0955212
0.0925963
0.0902545
0.0884407
0.0871016
0.0861824
0.0856384
0.0854304
0.0855268
0.137266
0.137449
0.138401
0.140139
0.142665
0.145967
0.150018
0.154775
0.16018
0.166155
0.172602
0.1794
0.186453
0.193681
0.200995
0.208297
0.215481
0.222433
0.229037
0.235173
0.240717
0.245539
0.249492
0.252396
0.254081
0.25445
0.253484
0.251233
0.247832
0.243425
0.238103
0.231927
0.224971
0.217336
0.209136
0.200499
0.191556
0.18244
0.173279
0.164191
0.155284
0.146646
0.138351
0.130463
0.123055
0.116205
0.109986
0.104472
0.0996884
0.0956167
0.0922134
0.0894301
0.0872114
0.0854991
0.0842381
0.0833685
0.0828405
0.0826159
0.0826585
0.13798
0.13838
0.139466
0.141244
0.143713
0.146857
0.150651
0.155058
0.160036
0.165527
0.171468
0.177782
0.184384
0.191186
0.198093
0.205007
0.211824
0.218435
0.224727
0.230581
0.235873
0.240467
0.244217
0.24697
0.248596
0.249015
0.248195
0.246159
0.242981
0.238768
0.233615
0.227606
0.220824
0.213367
0.205341
0.196862
0.188049
0.179022
0.1699
0.160795
0.151812
0.143052
0.134612
0.126589
0.119083
0.11219
0.105992
0.10054
0.095853
0.0919066
0.0886522
0.0860172
0.0839292
0.0823198
0.0811249
0.0802891
0.0797669
0.079524
0.0795277
0.1343
0.134708
0.135771
0.137493
0.139865
0.142866
0.146467
0.150631
0.155311
0.160458
0.166011
0.171907
0.178072
0.184433
0.190906
0.197402
0.203827
0.210077
0.216043
0.221609
0.226651
0.231038
0.234635
0.237309
0.238942
0.239453
0.238801
0.236994
0.234081
0.230141
0.225261
0.219527
0.213031
0.205869
0.198142
0.189957
0.181423
0.172653
0.163756
0.154841
0.146018
0.137396
0.129085
0.121198
0.113845
0.107126
0.101116
0.0958624
0.0913708
0.0876126
0.0845356
0.0820626
0.0801097
0.0786002
0.0774713
0.0766717
0.0761612
0.0759111
0.0758937
0.127891
0.12828
0.129293
0.130932
0.133186
0.136034
0.139445
0.143382
0.147799
0.152646
0.157868
0.163406
0.169197
0.17517
0.181252
0.187361
0.193409
0.199301
0.204933
0.210194
0.214966
0.219128
0.222554
0.225127
0.226744
0.227329
0.226839
0.225268
0.222645
0.219026
0.214483
0.209097
0.202958
0.196161
0.188805
0.180991
0.172824
0.16441
0.155857
0.147275
0.138776
0.130475
0.122487
0.11493
0.107911
0.101523
0.0958336
0.0908762
0.0866492
0.0831187
0.0802265
0.0779004
0.0760645
0.0746476
0.0735885
0.0728368
0.0723535
0.0721103
0.0720809
0.118959
0.119253
0.120147
0.121642
0.123727
0.126382
0.129576
0.133271
0.137422
0.141981
0.146894
0.152104
0.157552
0.163173
0.168896
0.174646
0.180341
0.18589
0.191198
0.196163
0.200673
0.204617
0.207881
0.210359
0.211956
0.212604
0.212259
0.210909
0.20857
0.205283
0.201108
0.196119
0.190403
0.184051
0.177159
0.169825
0.162149
0.154231
0.146181
0.138106
0.130116
0.122322
0.114837
0.107773
0.101228
0.0952853
0.090002
0.0854037
0.0814841
0.0782081
0.0755199
0.073353
0.0716383
0.0703122
0.0693202
0.0686173
0.0681656
0.06794
0.067916
0.107972
0.108144
0.108885
0.110199
0.112076
0.114499
0.117439
0.12086
0.124721
0.128974
0.133568
0.138449
0.14356
0.148838
0.154219
0.15963
0.164994
0.170225
0.175232
0.179919
0.184183
0.18792
0.191029
0.193415
0.194989
0.195688
0.195473
0.194331
0.192266
0.18931
0.185518
0.180955
0.17571
0.169873
0.163534
0.15679
0.149733
0.142459
0.135078
0.127687
0.120386
0.113274
0.106452
0.100018
0.0940573
0.0886401
0.0838147
0.0796024
0.0759981
0.0729726
0.070479
0.0684607
0.0668588
0.065618
0.0646898
0.0640336
0.0636173
0.0634172
0.0634105
0.0946395
0.0946184
0.095137
0.0962035
0.0978147
0.0999564
0.102603
0.105723
0.109276
0.113215
0.117494
0.122057
0.126847
0.131805
0.136869
0.141979
0.147062
0.152029
0.156793
0.161253
0.165311
0.168869
0.171847
0.174166
0.175731
0.176495
0.176417
0.175489
0.173698
0.171072
0.167668
0.16355
0.158824
0.153581
0.147887
0.141847
0.135548
0.129073
0.122536
0.116006
0.109567
0.103297
0.0972753
0.0915832
0.0862945
0.0814594
0.0771273
0.0733136
0.0700189
0.0672256
0.0649032
0.0630112
0.0615045
0.0603397
0.0594768
0.05888
0.0585198
0.058374
0.0584193
0.0782876
0.0779585
0.0781528
0.0788963
0.080196
0.0820366
0.0843857
0.0871903
0.0904511
0.0941639
0.0982105
0.102534
0.107062
0.111723
0.116507
0.121347
0.126235
0.131123
0.135808
0.140135
0.144033
0.147438
0.150319
0.152597
0.154205
0.155085
0.155207
0.154547
0.153055
0.150736
0.147707
0.144055
0.1399
0.135338
0.130427
0.125166
0.119686
0.114231
0.10876
0.103259
0.0978377
0.0925537
0.0874501
0.0825752
0.0779797
0.0737442
0.069905
0.0665113
0.0635464
0.0609597
0.0587448
0.0569084
0.0554428
0.0543215
0.0535055
0.0529716
0.0526937
0.0526463
0.0528029
0.419883
0.388483
0.360928
0.335361
0.311034
0.287756
0.265547
0.244541
0.224823
0.206445
0.190266
0.177053
0.166932
0.159455
0.153406
0.148169
0.143785
0.140354
0.138081
0.137038
0.136912
0.137197
0.13739
0.136977
0.135342
0.399076
0.378582
0.355262
0.331246
0.307384
0.284116
0.261767
0.240573
0.220755
0.202645
0.186712
0.173264
0.162332
0.153697
0.146966
0.14182
0.138073
0.135605
0.134323
0.134108
0.134747
0.135918
0.137231
0.138196
0.138146
0.395089
0.373588
0.350245
0.326158
0.302051
0.278454
0.255779
0.234352
0.214485
0.196513
0.180716
0.167234
0.156065
0.147098
0.140164
0.135092
0.131713
0.129847
0.129296
0.129848
0.131257
0.133214
0.135329
0.13714
0.138086
0.394231
0.36988
0.345
0.319974
0.295236
0.271195
0.248228
0.22667
0.206833
0.188992
0.173335
0.159933
0.148773
0.139789
0.132889
0.127964
0.124866
0.123402
0.123326
0.12438
0.126276
0.128674
0.131161
0.133254
0.134365
0.393769
0.366597
0.339727
0.313336
0.28769
0.263077
0.23979
0.218111
0.1983
0.180568
0.165045
0.15177
0.140722
0.131849
0.125083
0.120329
0.117444
0.116237
0.116436
0.117754
0.119861
0.122382
0.124888
0.126915
0.127982
0.392581
0.362856
0.333932
0.306048
0.279405
0.254183
0.230571
0.208774
0.188985
0.171357
0.155979
0.14287
0.131998
0.123307
0.116725
0.112148
0.109426
0.10836
0.108668
0.110042
0.112128
0.114533
0.116827
0.118566
0.1193
0.390919
0.358551
0.327451
0.298012
0.270361
0.24454
0.220613
0.198701
0.178933
0.16141
0.146193
0.133285
0.12264
0.114178
0.107807
0.103402
0.100794
0.0997769
0.100061
0.101326
0.103201
0.105287
0.107157
0.108398
0.108629
0.38919
0.353509
0.32002
0.289036
0.26045
0.234099
0.209896
0.187878
0.168135
0.150725
0.135686
0.123014
0.11265
0.10446
0.0983225
0.0940819
0.0915465
0.0904957
0.0906455
0.0916638
0.0931635
0.0947411
0.0959619
0.0964342
0.0958301
0.38675
0.347178
0.311256
0.2789
0.249577
0.222835
0.198439
0.176313
0.156583
0.139297
0.124436
0.112035
0.102039
0.0941697
0.0882868
0.084209
0.0816966
0.0805305
0.0804527
0.0811235
0.0821016
0.0830095
0.0833285
0.0825172
0.0803711
1.30173
1.27267
3.85479
0.307973
0.0412403
0.0491423
0.980503
0.0212
4.10115
0.0475627
2.94813
0.0361394
0.423178
0.033504
1.19511
0.0658356
4.69643
0.284417
0.0467473
0.642642
0.267767
0.0669984
3.17947
0.117567
0.0186267
0.0253383
0.0187392
0.187619
1.32832
3.65117
0.0489095
0.0323058
2.97267
0.545438
3.36061
0.0347553
1.01618
1.20326
1.10349
0.0609742
3.30714
0.00524084
0.0464989
0.484072
0.175924
0.106182
3.8736
4.04394
1.63981
2.07567
3.67719
2.63481
0.329836
0.267789
0.93374
3.86452
0.0297214
0.293313
0.0197941
2.16532
0.0490967
3.72727
0.040154
0.0715571
0.021666
0.447607
0.050285
0.234028
0.440899
1.90418
3.66445
0.0862797
0.0272816
0.69327
0.0193636
0.265103
0.827684
3.84082
0.0141894
0.248036
0.504988
0.0700141
0.0245428
2.94366
0.042869
0.0517832
0.0260591
3.73391
2.98103
0.0865747
0.120158
0.0611464
0.0581312
0.0379969
0.0301122
2.96238
0.0253987
3.17613
0.0125101
2.09412
0.103559
3.30424
0.115304
0.0921145
0.0197949
0.16192
3.24864
0.488511
0.0218773
3.70974
0.064931
0.0300138
3.33975
0.0897858
0.318602
1.62515
2.68653
0.0582025
0.370046
0.0202187
0.00134726
0.028713
0.116136
0.0184607
3.04971
0.0439823
2.69767
0.503477
0.0142429
4.04234
0.0234267
0.696256
1.92609
0.946358
0.254294
0.0260253
0.167984
0.0736768
0.0456835
0.6526
0.078412
1.02213
2.3145
0.00291438
1.4434
0.0817621
0.342726
0.462329
0.0646311
3.58802
0.280727
0.029643
0.339032
1.43628
0.0200649
2.87822
0.021076
0.0576802
1.07432
0.0381687
0.0479864
3.89626
0.0501117
3.31024
0.0569852
3.35672
0.0368962
0.0188932
0.0975382
0.0216468
0.0294519
0.0777032
0.243165
3.10944
0.0533786
0.177574
0.548418
1.64175
1.71106
0.0787618
0.776077
0.0307122
0.340735
0.7921
0.394197
0.0143512
3.54493
0.0223335
2.32893
0.055529
3.37396
2.21782
0.952032
0.982926
1.28139
2.55849
0.0192004
0.0646616
1.53692
1.21881
0.531251
0.120901
0.064346
0.0582332
0.155778
0.0477087
0.0517527
0.112593
1.78827
0.0550405
0.0195045
0.0383354
0.761916
0.142055
0.370692
3.6782
0.0293181
0.0160221
0.122638
0.116177
0.0790541
0.00610253
0.0202734
3.11192
0.0946311
2.76965
0.0820165
4.69591
0.019892
0.0290708
2.74087
0.0354042
0.02958
0.0187
1.08428
0.0489075
1.13814
0.120596
0.832019
1.49785
0.047685
0.0488392
0.0525884
0.319841
0.0265341
0.0256951
0.033333
0.237329
0.064061
0.0387331
0.0177341
0.192455
0.0469004
1.66458
0.0218951
0.0190028
3.32514
0.850453
1.09844
0.0470663
0.236973
0.0149444
0.0409913
0.0196292
0.722447
0.0182206
0.0460672
0.399626
0.968228
0.0189031
0.318565
1.02535
0.0150345
0.0152058
0.0475605
0.406952
0.0543969
5.07554
0.0332339
2.79012
0.516999
0.304222
0.205274
0.104623
1.67955
0.0527326
0.170672
0.153048
3.57726
3.55459
1.36944
0.0542513
0.00317909
3.72791
0.792805
3.62629
3.45371
0.0571902
0.0399552
1.77999
2.48847
0.0491814
0.0630466
0.0626713
3.39484
0.0489566
0.260422
0.0486568
0.650863
0.0680108
0.0886125
0.0746566
2.64528
0.0138563
0.014269
0.987519
4.10157
0.0474491
0.0186347
1.08848
1.04646
0.0368171
0.0651485
0.0478659
0.027026
0.0181466
2.62791
0.502373
0.0568567
0.299218
0.0562007
1.26368
0.0641128
0.0482412
3.43697
0.0558135
0.0291794
0.0261579
0.00821311
0.232115
0.0395973
0.0343445
1.73851
0.0718621
0.724789
0.0288135
0.0523871
0.0216316
0.0251058
3.77194
0.635385
0.0581813
0.00916686
1.07919
3.74623
0.0860163
1.19526
0.470523
0.0505751
4.00181
1.83268
3.11371
0.0311157
2.709
0.00472961
0.0245002
0.0854861
4.12814
0.0384262
2.22906
0.0863833
1.42042
1.35994
3.96452
0.424119
0.0178671
0.0196429
0.0649946
0.0348584
0.0479548
3.42163
0.0701416
3.05839
0.536837
0.497843
0.987832
0.0595739
0.639186
2.86409
3.388
0.557503
0.0470494
0.150887
3.20632
0.740568
0.0469354
0.0476648
3.0029
0.0568629
1.36692
0.0215381
0.0472736
0.0421548
1.77013
0.0323498
0.000241733
1.06808
0.161994
0.633774
0.046975
1.83162
0.0392306
1.71675
0.0438882
0.0322116
0.0487256
1.64909
3.77348
0.0453566
0.0600344
0.0604271
0.0369644
0.091724
0.128252
0.0902033
3.2324
0.00508112
0.0759623
0.0490905
0.0330323
0.0541039
0.0191277
0.0893532
0.0145522
1.26818
0.0799928
0.0652137
0.00243498
0.0218465
0.0549328
0.0379631
1.50411
3.70076
0.542263
0.457222
1.74087
0.140996
1.8157
0.0190088
0.0138522
3.94147
0.0435406
0.0485689
1.71257
0.073292
1.83441
3.83269
0.0517864
0.12565
0.569044
0.0560788
0.377328
1.70156
0.711181
2.90144
0.0227116
0.0225118
3.42964
0.0364044
2.90936
0.217728
0.0229945
3.13041
0.0540227
0.0184353
0.483573
0.0817451
0.0208361
0.494757
0.418806
0.375646
1.10566
0.00188826
0.0346061
2.87305
0.0358156
0.0681023
0.0990661
1.92687
0.079366
1.2336
0.0552252
0.0191537
3.09725
0.0367122
0.0260864
1.20287
0.0504081
0.0569805
2.16165
0.0480791
1.30247
0.0409907
0.261179
0.523223
0.597464
0.0558023
0.0545765
1.06456
0.0317811
0.0616413
0.552857
0.052445
0.0768539
0.0137641
4.11033
3.37999
1.66657
0.0180437
0.356444
0.0581279
3.54028
0.648233
0.626081
0.543034
0.108022
3.08673
3.37902
0.0475185
0.0910537
0.181998
0.0830715
0.51513
2.76028
0.0217145
0.632255
0.0472831
1.8079
1.62979
0.058999
1.05338
4.08482
0.0643842
3.35728
0.0111897
2.63856
0.0381351
0.0642377
0.0500602
5.2224
1.06253
1.10124
0.0141773
1.72057
1.68727
4.14497
0.0198759
0.0695436
0.395983
1.92396
0.0500888
0.945124
0.0484178
0.442709
3.81051
0.0469113
0.355472
0.0181007
0.0330964
0.269415
2.74898
0.116854
1.09858
0.0239744
0.0388893
3.38819
3.98638
1.98037
0.0771533
0.283727
0.663522
0.339117
0.116845
0.0594816
0.0211677
3.02788
0.0626754
0.0485518
1.18016
0.108572
0.0691609
0.0563816
0.0681484
1.31325
0.0748777
0.0188969
0.495573
1.68498
0.0367024
0.0306143
1.78261
0.183703
0.00546435
0.0739074
0.486083
0.0235389
0.0549345
0.0461311
0.137199
0.0415068
0.0494649
1.10123
0.025087
0.0928814
0.138246
0.317911
0.0238921
0.0522064
2.42862
0.0821938
0.021465
0.0362745
0.0667774
0.0513147
0.0273275
1.99834
4.31828
0.168905
2.9972
0.0211436
0.0189723
0.0217399
0.0105944
0.0820932
0.0195398
0.33128
0.0866563
0.020446
0.0260173
1.11552
0.34113
0.0485421
0.438961
0.0616516
0.0459499
0.0187829
0.140184
0.617672
1.94376
1.31433
1.10529
0.0123137
0.047749
0.0084261
0.113279
0.0458862
4.007
0.0485895
0.263358
0.0334008
2.05039
0.214886
2.89822
0.00284046
0.0221326
0.0203654
3.40504
2.04166
0.355515
0.331089
0.0258805
0.0486805
0.0398195
2.32675
0.00353558
0.0310195
1.00069
0.0327372
0.0892802
0.0476355
0.0141917
0.324877
0.0726622
0.0252549
0.0444978
0.0620604
0.0635864
1.49533
3.41684
0.0329663
1.11174
0.0457343
2.93166
0.0215899
0.0704913
0.0391315
0.0224137
1.18845
0.047901
0.0639147
0.0201411
0.216199
0.0233236
0.102134
0.0869566
2.82354
1.12928
0.264653
3.856
1.24949
2.00129
3.30936
0.0471601
0.0212778
0.0219798
0.000533782
0.0520807
0.507414
0.0748948
0.0315966
0.406701
0.0537611
0.0485826
0.316493
0.0419074
0.0494883
0.0226235
0.266077
0.551789
3.4635
0.0485631
1.87454
0.85425
1.59391
0.274577
3.44429
3.57328
0.501836
0.0147978
0.0612806
0.00218579
0.189828
0.04473
0.714526
1.57833
0.0656584
1.03228
0.557816
0.0216631
0.0222918
0.0393092
4.22622
2.11501
0.027821
0.99475
1.40504
0.369886
2.18724
3.03263e-05
0.0368447
0.32907
0.00315396
1.51512
0.661517
3.15342
1.36115
0.0190206
1.3755
0.018799
0.00217143
0.346407
0.0638858
0.0843076
0.0365857
0.0448201
0.447598
0.0618037
0.0178909
0.0495711
0.0503008
0.305765
0.0591136
2.42872
1.21771
0.0652012
0.594451
0.0767321
0.674676
0.0541746
0.0598298
0.0856334
0.374691
0.333031
0.00383387
0.083797
3.79786
1.91141
0.781991
0.0477381
0.49106
0.69483
1.28832
2.00459
0.968836
0.0613764
0.0756754
3.18855
0.011074
0.0211776
0.141436
2.58713
3.7807
0.0297471
0.0365364
2.09182
0.021014
2.6388
2.11518
0.0810653
0.0292868
5.14111
1.46835
1.79117
0.0534806
0.0326948
0.00954842
0.455769
1.03416
0.0449795
0.0208011
0.0281476
0.759758
0.0443089
0.341896
1.72426
0.0483776
0.0374788
1.2087
0.0498806
0.361664
0.0305034
0.344311
0.049583
0.0205694
0.688376
0.0824261
0.067133
0.0559028
0.213632
0.3581
3.56296
0.0177738
0.0460404
0.0434066
1.12047
0.663414
3.013
0.0182384
0.515433
1.23383
0.00121665
0.0187382
0.03532
2.76738
0.0521247
0.80314
0.0754416
0.00350752
0.931873
0.0575334
0.700665
0.695611
0.427137
2.44396
2.70115
4.18447
0.0502621
2.90761
1.04997
0.0819648
0.947221
0.0323589
0.0351094
0.61534
0.0466564
0.108278
0.286672
2.1374
0.015051
0.0115148
2.70236
0.0485094
0.0644719
1.10884
1.55552
1.02818
0.061927
0.167809
3.87442
3.1728
0.816074
0.352507
2.04983
0.061
0.0146391
0.44335
1.70293
0.0500377
0.240109
0.0360408
1.9524
0.0806956
0.690368
1.75232
0.00342132
0.0334687
0.0632267
1.67594
1.0928
2.06501
1.53669
0.114602
0.212569
0.321928
0.120057
1.54138
0.283262
0.0326053
0.0553086
0.0459189
0.0119127
0.529199
2.96821
0.0296774
1.7815
0.0918745
1.14805
0.0545756
0.0321002
0.020458
2.97732
2.0986
0.172568
0.336204
0.0294073
0.0205
1.33129
0.0494678
1.17662
0.981846
3.61314
0.0296414
0.211866
1.34042
0.0657665
0.10382
0.0623214
3.52076
0.0562029
0.0902239
1.13018
1.11503
0.0223334
0.11948
0.047899
0.0821494
0.0239413
0.0230716
0.310224
0.018831
0.197771
1.71379
0.661767
2.99039
0.050122
0.177035
0.510499
0.0112076
1.40874
0.0417735
0.050397
3.39831
0.073999
0.309222
0.0597877
0.0190435
1.73767
0.0490858
0.205238
0.0130859
0.922731
1.04212
2.71894
0.02001
0.894641
0.0306861
0.26151
0.0671658
1.96762
0.848897
0.189702
4.10827
0.0395985
3.82387
0.0418794
1.63313
0.0690833
0.0212684
0.0557323
0.729979
1.23421
0.0227576
0.0620992
0.652656
0.0308297
0.0647313
0.0201164
0.0117734
0.0619585
3.99849
0.0922816
0.0485156
1.37775
0.204097
4.17428
0.0116546
0.072689
0.0280306
0.0694649
0.110946
0.0375655
3.3694
0.0752995
0.465572
0.0326045
0.126119
0.51248
1.81409
0.0529984
0.0585759
0.0668073
0.105869
0.0381125
0.253761
3.34576
0.265263
0.306788
0.0274903
1.36484
3.44885
0.163823
0.599919
0.0692294
1.58664
3.11007
3.99644
0.0419615
0.0438168
0.137488
2.09365
0.117784
2.42091
0.0845301
0.329051
1.84808
0.015771
0.0650085
0.0598849
0.0499553
0.0495389
0.0424558
1.52177
0.0474319
2.69153
0.0500055
0.0304876
0.0184228
0.0471096
0.342989
0.0342185
0.693506
0.590781
0.0376129
0.0869158
1.57964
2.83842
0.0322185
0.0422705
0.0852805
0.26931
0.233089
0.154151
2.60287
0.0240224
0.0519834
0.383906
0.038687
0.150034
1.35407
0.0313559
0.0248862
0.00396818
0.0514106
0.754824
1.63214
0.862383
0.053589
0.143191
0.049101
3.09923
3.23394
0.0512565
0.0509644
1.0529
0.0502342
0.0238093
1.58797
1.46524
0.0612273
0.0518357
0.0194148
0.3001
1.65001
0.0286927
0.0156056
1.68986
1.81434
0.00134058
0.0292287
0.0236035
0.0925601
0.302615
0.362279
0.0414456
1.2539
0.0453019
0.0793361
0.0333971
0.324562
0.0270514
3.51952
1.69523
3.6976
1.63402
0.897327
0.365887
0.0326054
2.77512
0.36816
0.0226197
0.151072
0.032519
0.125459
0.0432054
0.0357635
0.0199614
2.4045
0.018775
0.187216
1.33006
0.0502513
0.177012
0.271165
3.98257
0.0114842
3.68425
3.16308
0.0550603
0.0233104
0.150252
0.207239
0.126594
0.865826
1.98694
0.0814546
0.0200724
0.0513332
0.841695
3.14417
0.0773999
0.0761735
0.0191921
0.0292857
0.0599685
0.227435
0.0504507
0.0654612
0.0937357
1.81346
0.0598181
0.166748
5.50803
0.0566797
0.193816
0.141103
0.66575
0.206547
0.221789
0.372888
0.0490928
0.978821
1.77515
0.0366889
0.527744
1.19886
0.0486844
0.0729848
0.0839711
1.07256
0.0311794
0.453538
0.0603362
1.34033
1.96491
0.529483
1.7283
0.0782969
0.0574347
0.67561
0.827038
0.0718539
0.0908594
0.0378558
3.00512
0.0844133
0.180117
0.0234256
0.106175
0.428435
0.0309159
0.0256491
0.0302198
2.12754
0.6255
0.0460116
0.106111
0.0464712
0.0389458
0.0494071
1.66225
0.0977678
0.650925
2.63074
0.433628
0.00139536
0.913797
1.35279
0.660443
1.66032
0.0769031
0.771146
2.62695
1.92809
0.00917544
1.76872
0.051081
4.34936
0.162265
0.0498785
0.455508
1.12433
3.57797
0.655992
0.166178
0.0478678
0.947224
2.14688
0.136634
2.66544
0.104034
0.657657
0.0556004
1.98608
0.166737
0.0200803
0.0507121
0.601156
0.0221371
0.0541753
0.621365
0.0348608
1.57744
0.0157653
0.0595412
1.22342
0.900665
0.0788942
0.355853
1.28006
0.110925
0.38619
0.165381
0.0633743
0.224079
0.0201987
1.78904
0.557093
0.0140085
3.51083
0.0584027
0.293255
0.15134
0.0771526
0.0253113
0.270182
0.60911
1.02427
0.0218838
3.33345
0.0290349
0.380742
3.45696
0.250735
0.0970341
0.932358
0.0752318
0.0375082
0.00204258
1.12307
2.24849
0.0439469
2.82036
0.166107
0.0514966
0.921777
0.0617156
0.0379751
0.485866
0.0918004
0.0374443
0.101804
0.0285018
0.0650367
0.0982981
2.00157
2.08208
0.101708
0.0526666
0.0207731
0.519994
3.36798
0.0369039
0.0155476
0.157254
2.91296
0.0167488
0.784551
0.47199
0.0215093
0.347081
2.84427
0.034045
0.122825
0.0472781
0.181134
0.0327561
0.0350047
0.0821658
0.261232
2.17419
0.0129099
2.6915
0.021057
3.05877
0.0616905
0.936255
0.298313
0.682884
1.75419
0.0615319
0.405253
0.108434
0.0830362
0.0866524
1.8763
1.77862
0.0635593
0.0552733
0.291339
0.0877819
0.0387384
0.0156331
3.65352
1.96052
0.567849
2.82038
0.0993978
0.0224056
0.574056
0.124414
1.67443
0.0119004
0.0733878
0.0199087
0.056929
0.0401262
0.0533742
0.0461433
0.23756
3.30862
2.04837
0.0528554
0.177875
0.410242
3.68335
0.042923
3.42864
1.62182
2.11702
0.0791126
0.586704
0.0236637
0.101351
0.0762235
0.0702573
0.047741
1.59415
3.31529
0.087398
0.168921
0.624522
0.194005
1.99356
4.12753
0.052378
0.0142066
0.0559507
0.145545
0.65007
0.0194495
1.89053
0.529156
0.067191
0.0681746
0.0957055
0.322616
0.104545
0.0239329
0.0617743
0.0332117
0.0883051
0.404196
0.0955865
3.78499
0.0742187
0.0516873
0.178828
0.0594334
0.0317572
3.18195
2.05381
0.0527925
2.1761
0.0487436
0.919899
0.0800047
0.108293
0.0331325
0.0237057
1.90225
0.0626628
0.0865039
1.20392
1.45837
0.0468307
0.0518479
0.0469862
0.094224
1.19119
0.0265592
0.044621
2.95318
0.0462661
0.0494327
0.0807866
2.83898
0.0506453
2.15367
1.66215
0.0192318
1.46134
0.0863395
0.012119
3.38454
0.281837
0.0476156
0.0013783
0.343619
0.0705663
0.116326
0.0204386
1.17034
4.37442
0.0472508
0.019023
1.68988
0.0667509
0.68817
0.729571
0.0614774
0.51832
3.35818
0.0465787
0.593779
0.0627937
0.073912
0.101153
0.038362
2.2158
1.6836
0.0608751
0.0504596
2.43272
0.0597363
0.105802
0.0747824
0.516243
0.960816
0.0217033
0.0354843
0.0510986
0.03551
0.0216999
5.26037e-05
0.050308
0.101801
3.7024
0.359395
0.0412197
0.778637
0.0760721
0.684723
3.55715
0.769776
1.79503
0.0511348
0.0010286
0.364147
0.104348
0.0571371
1.69481
0.0656772
1.62737
2.02117
0.382039
0.0775473
4.32112
0.0221976
2.12111
0.0419129
0.0426644
1.40222
0.20711
0.686025
0.0546592
0.0386015
0.0138646
0.0850536
1.26583
0.714791
0.0663591
1.53952
0.27016
2.02279
0.0153284
3.30641
0.0607947
0.0485949
0.228444
0.0574538
0.308687
1.87091
0.39823
0.024541
1.80624
1.23443
0.11482
0.654106
0.425571
0.0102091
0.311137
1.98554
0.048023
0.030069
0.0386519
2.66864
0.0394597
0.0110097
1.1625
0.37853
0.122285
3.39902
0.613864
0.149447
0.148456
1.00509
0.066476
0.358895
0.0263851
0.0619068
0.0362447
3.4704
0.0636752
0.778472
2.11748
0.018675
0.607969
4.80516
0.0655793
2.96914
0.0338674
0.327374
0.0991282
0.0179296
0.0783863
0.0498856
0.0242733
0.0701715
0.0573448
0.0482154
0.0488588
1.79374
0.386252
0.0519324
0.310888
0.0340426
0.0442178
0.029398
0.05969
0.0720398
1.39545
0.0107924
1.1296
2.06964
1.34288
0.853168
0.0923934
0.0850222
3.53545
0.0400673
0.458899
0.0593488
0.0301264
0.107638
3.30941
0.0681844
0.0457147
0.0339296
0.127314
0.0620514
1.29992
0.359474
0.946513
1.92194
0.0395411
0.0272306
0.359255
0.0500099
0.0633975
0.0195243
0.0869475
0.022949
0.0464678
0.0808403
0.0107883
0.823225
2.19814
0.825138
0.0695236
0.048457
0.655448
2.05087
1.82671
0.0230865
0.04774
0.477368
0.0317096
0.0206263
0.0599187
1.68015
0.496795
0.0310194
0.0358674
0.0695473
0.019485
2.08482
0.0251095
0.062699
0.062181
0.055916
1.93728
0.0564734
1.43429
0.0415836
0.0562522
0.0185273
0.0208534
2.0125
0.224706
0.0270788
2.90022
0.461444
0.391458
0.0166056
0.039883
1.0256
3.24478
3.39178
0.0316937
0.606854
0.0545381
0.0489045
3.5783
1.75957
0.0185865
0.0165179
0.764218
1.1986
0.0474223
0.0206487
1.9048
0.0356835
0.073916
0.101091
0.0608654
0.383759
0.054164
0.0514845
0.0593825
1.61808
0.046355
0.0229155
0.0364109
0.077117
0.0961105
0.0702547
0.29405
0.543834
0.433043
0.0740632
0.0694179
0.0472641
0.0175774
0.0569075
0.0421892
0.366193
0.0536212
0.0636971
0.123995
0.442213
0.0240488
0.0188559
0.0568889
3.61588
0.0524391
0.609016
0.0115555
0.0527016
0.00304011
0.0596314
0.0589794
3.2041
0.0684931
0.026511
0.224047
0.0470516
1.24176
0.0470523
0.0348065
2.86319
2.36014
0.0204122
1.96583
0.04757
0.769941
1.06462e-05
1.95093
0.0234585
1.04998
0.0394216
2.23446
0.338714
0.904522
3.52735
4.31698
0.0276497
2.7921
0.0206805
0.019823
0.0400781
2.14927
0.102553
0.0215797
0.424117
2.84978
1.56474
0.10914
3.12903
0.0189861
0.0958323
0.0357923
0.28019
0.0781479
1.51467
0.0486416
0.0623814
0.0507952
0.0113147
0.0981621
2.01912
0.0304777
0.0524344
3.97099
0.367196
0.0207299
0.107564
1.93875
0.0732197
0.0542609
2.51395
0.111029
2.53422
1.00913
0.037654
0.252382
0.580342