/*--------------------------------*- C++ -*----------------------------------*\
  =========                 |
  \\      /  F ield         | OpenFOAM: The Open Source CFD Toolbox
   \\    /   O peration     | Website:  https://openfoam.org
    \\  /    A nd           | Version:  10
     \\/     M anipulation  |
\*---------------------------------------------------------------------------*/
FoamFile
{
    format      ascii;
    class       volScalarField;
    location    "800";
    object      nut;
}
// * * * * * * * * * * * * * * * * * * * * * * * * * * * * * * * * * * * * * //

dimensions      [0 2 -1 0 0 0 0];

internalField   nonuniform List<scalar> 
10435
(
5.72433
3.54354
2.22919
5.47534
1.69243
0.846754
3.211
7.30995
9.22834
0.989126
2.86614
5.27019
0.916336
2.81259
3.09958
4.376
2.59336
0.719213
9.87803
6.03728
5.74832
6.81167
3.26863
9.05852
1.29518
2.497
2.45306
1.45947
2.17672
0.800932
2.41816
2.52791
8.15818
2.05977
6.39557
4.03128
5.24286
2.53238
2.39904
9.32563
0.710976
2.95423
2.24829
5.5303
4.02246
9.06615
0.782824
2.20558
10.0217
8.36772
6.56814
1.56195
2.30776
2.1771
2.42412
2.10782
6.15077
2.45689
2.20798
7.3368
2.33557
3.81314
2.35658
1.75741
3.55551
1.74331
2.09519
2.31195
6.41536
9.43727
2.20154
2.56318
2.0084
2.12443
3.47223
2.42522
9.43613
3.96427
9.04232
3.4844
9.12087
5.65395
2.20885
2.14859
9.31074
4.23687
4.72855
4.6754
3.8961
4.85107
4.47876
4.26613
6.20638
4.1931
4.87002
3.93981
4.29894
3.36943
2.3465
3.39539
3.63944
1.03464
4.49531
4.80954
0.964307
5.48587
6.71435
8.80202
9.29312
3.95448
7.96813
1.13604
5.0731
4.49135
3.33645
6.6299
3.46257
4.38495
3.89879
4.58885
3.66049
2.2857
4.41029
3.17739
1.63951
2.39863
4.46802
2.52265
2.44948
2.72719
2.844
1.90697
5.52285
3.08907
2.58182
1.86678
3.64356
5.56846
4.14588
6.47673
6.28478
2.98858
2.06888
2.92063
7.03686
2.96501
3.4575
1.28786
2.59406
4.02788
2.19699
4.61647
5.2835
3.5349
1.19386
2.27389
1.42376
4.32223
1.05854
2.60828
3.79022
2.77257
3.29361
7.23778
3.9048
2.71624
8.08379
5.86152
7.09556
2.43217
1.37637
1.87033
2.23184
3.20857
5.1961
2.99738
3.98542
2.33843
7.58066
2.20595
3.21197
0.904351
4.45903
2.31887
3.41807
2.09982
2.21511
4.58409
1.48866
2.16923
4.23636
2.11299
2.69146
3.69509
1.26249
5.50601
2.51951
3.99395
2.27187
4.6688
3.92695
2.41902
1.15681
2.42753
1.51046
2.58201
3.60249
5.74049
2.29366
7.27732
2.09151
2.89979
3.38912
6.64741
2.35793
2.79751
4.39373
2.06634
2.52013
2.5289
2.16267
2.3731
2.17427
3.21378
2.40883
5.83328
2.44098
3.7178
2.07837
2.62915
2.30104
6.9746
2.47169
5.22741
2.70682
2.43554
6.99105
2.5002
7.54873
1.83012
5.51638
2.34415
1.99656
2.13865
2.90194
9.07374
3.73206
6.31631
1.82799
3.34626
1.96929
4.31398
0.888424
7.39843
5.27267
1.94623
1.70814
4.56943
2.1364
2.31333
3.91541
1.55427
2.42761
8.47203
4.87851
2.28185
5.43709
2.59861
2.16417
2.50475
3.28586
7.63785
6.15104
1.34878
2.58936
4.65842
2.6321
1.80181
4.67782
8.34397
0.988245
2.39375
2.70811
3.47494
4.69883
1.98742
1.38077
2.40682
2.11538
2.12516
3.44276
2.23151
2.22651
6.94662
2.43645
2.19342
2.73211
5.33028
1.97679
1.83277
2.2959
7.69163
2.22441
1.96168
2.21994
3.05683
2.45986
5.87403
1.79173
2.07782
7.16557
2.44004
3.59373
1.29667
8.3361
2.14164
2.24599
2.79367
2.27213
5.74747
0.902664
2.28838
5.03477
2.02267
9.02546
1.16797
2.68521
1.81777
2.21125
2.56815
8.1531
2.07742
2.03915
2.55452
4.5404
2.37622
2.08104
1.91745
1.98332
2.14529
2.72521
2.42842
2.25263
2.24564
2.15813
2.29821
2.31303
2.74781
1.93943
9.62351
2.00483
1.28483
2.40482
1.47777
9.58471
10.4787
0.88488
2.42931
2.16396
2.09843
1.97982
2.45535
2.09329
2.07149
2.27918
2.7298
2.35704
5.86155
2.66542
9.80487
2.43844
2.75125
0.782279
10.7815
1.91593
2.49795
2.42998
2.59768
2.13465
2.55902
2.97657
2.39874
8.65301
2.25106
7.11638
9.9746
1.20874
1.00885
10.2206
1.78625
7.33193
2.90924
1.99872
2.164
2.15919
2.1347
2.15653
0.7832
2.91186
2.25244
2.74441
2.15465
2.17509
3.76253
2.53019
7.91903
6.38953
1.94593
2.62636
2.79106
10.4172
2.87582
2.65803
2.29048
2.09566
2.29381
2.21503
1.87114
2.19634
2.57441
2.19573
1.9776
0.64382
1.8018
1.82498
11.1084
2.05556
39.9211
39.9457
39.6211
39.0065
38.1218
36.9763
35.6285
34.1901
32.8513
39.1211
39.1711
38.9753
38.5454
37.8922
37.0354
36.0344
34.9927
34.0498
37.5214
37.6117
37.5359
37.2865
36.8655
36.2949
35.6332
34.9781
34.4551
35.1745
35.3029
35.3333
35.2481
35.0422
34.7377
34.3933
34.1069
34.0086
32.1812
32.3383
32.4527
32.5021
32.4771
32.4
32.3298
32.3686
32.6708
28.6975
28.8727
29.0422
29.1858
29.2936
29.3882
29.5271
29.8106
30.3984
24.9315
25.1149
25.3068
25.4978
25.6819
25.8831
26.1547
26.5862
27.3128
21.1339
21.3048
21.4832
21.6746
21.8794
22.1231
22.4543
22.9493
23.7104
17.5469
17.6715
17.8018
17.9537
18.1338
18.3671
18.6978
19.194
19.9458
14.3369
14.3864
14.4455
14.5344
14.6616
14.8493
15.1366
15.5854
16.2865
11.5676
11.5384
11.5263
11.5502
11.6173
11.7446
11.9647
12.3305
12.922
9.22668
9.14594
9.08769
9.06431
9.08079
9.1503
9.29921
9.57028
10.0279
7.26008
7.19095
7.12563
7.08082
7.0644
7.08876
7.17599
7.35984
7.68885
5.68593
5.65966
5.61226
5.56455
5.53025
5.52327
5.5631
5.67647
5.89927
4.52805
4.53201
4.50098
4.45454
4.40966
4.38117
4.38635
4.44679
4.5916
3.74664
3.75269
3.72353
3.67387
3.61983
3.57532
3.55501
3.57565
3.65797
3.24885
3.23817
3.19917
3.14144
3.07794
3.02053
2.98126
2.97313
3.01037
2.92897
2.90193
2.85092
2.78411
2.71184
2.64397
2.59048
2.56194
2.57007
2.71332
2.67774
2.61858
2.54491
2.46581
2.38988
2.32557
2.28166
2.26785
2.56355
2.52551
2.46253
2.38482
2.30112
2.21937
2.14697
2.09125
2.05975
2.4618
2.424
2.35954
2.27958
2.19291
2.10711
2.02886
1.96448
1.92053
2.40035
2.36244
2.29643
2.21452
2.12566
2.03708
1.95473
1.88397
1.83025
2.37637
2.33478
2.26502
2.18029
2.08939
1.99899
1.91415
1.83913
1.77822
2.38984
2.33611
2.25863
2.16979
2.07687
1.98568
1.90003
1.8229
1.75752
2.44347
2.35974
2.27058
2.17723
2.0826
1.99201
1.90754
1.83052
1.76191
3.14314
3.20553
3.28826
3.3917
3.5161
3.6611
3.82612
4.01008
4.21187
4.42996
4.66288
4.90906
5.16664
5.43397
5.70896
5.98966
6.27395
6.5596
6.84436
7.12606
7.40227
7.67069
7.92886
8.17427
8.40632
8.62559
8.83174
9.02416
9.20345
9.37203
9.53125
9.68269
9.829
9.97424
10.1234
10.2829
10.4603
10.6651
10.9083
11.2032
11.565
12.0118
12.5639
13.2458
14.0864
15.119
16.3789
17.9005
19.7092
21.8134
24.1924
26.7872
29.4977
32.1852
34.6898
36.8483
38.5204
39.6036
40.0675
3.09826
3.16043
3.24212
3.34397
3.46628
3.60889
3.77129
3.95262
4.15173
4.36723
4.59754
4.84095
5.09573
5.36013
5.63229
5.91025
6.19194
6.47524
6.75798
7.03798
7.31305
7.58103
7.83984
8.0875
8.32247
8.54385
8.7514
8.94555
9.12743
9.29842
9.4598
9.61325
9.76126
9.90728
10.0558
10.2126
10.3846
10.5804
10.8104
11.0872
11.4256
11.8437
12.3637
13.0123
13.822
14.8302
16.0764
17.5974
19.4178
21.5411
23.9413
26.555
29.2784
31.9724
34.4762
36.6286
38.2914
39.3657
39.8202
3.01932
3.0779
3.15521
3.25198
3.36858
3.50503
3.66096
3.83567
4.02817
4.2372
4.46136
4.69903
4.94851
5.20802
5.47567
5.74953
6.02758
6.30772
6.58785
6.8658
7.1394
7.40649
7.66498
7.91301
8.14907
8.37221
8.58203
8.77872
8.96298
9.13591
9.29884
9.45346
9.60207
9.74776
9.89458
10.0476
10.2133
10.3996
10.6161
10.875
11.1912
11.5834
12.0751
12.6951
13.478
14.4634
15.6925
17.2022
19.0171
21.1397
23.5406
26.152
28.8677
31.5489
34.0383
36.1803
37.8417
38.9267
39.4042
2.89344
2.94805
3.02072
3.11218
3.22282
3.35272
3.50159
3.66885
3.85364
4.05486
4.27123
4.50126
4.74338
4.99588
5.25697
5.52476
5.79729
6.07253
6.3484
6.62275
6.89346
7.15838
7.41551
7.66305
7.89945
8.12366
8.3351
8.53375
8.72004
8.89486
9.05943
9.21538
9.36487
9.51078
9.65679
9.80759
9.96911
10.1488
10.356
10.6027
10.9038
11.2786
11.7511
12.3509
13.1136
14.0789
15.2877
16.7762
18.568
20.6636
23.0318
25.6036
28.2726
30.9038
33.3465
35.4524
37.095
38.1821
38.6828
2.73115
2.78156
2.84933
2.93518
3.03953
3.16248
3.30382
3.46307
3.63946
3.83203
4.03961
4.26088
4.4944
4.73857
4.99172
5.25205
5.51768
5.78666
6.05695
6.32647
6.59313
6.85484
7.10968
7.35585
7.59183
7.81652
8.0292
8.22966
8.41811
8.59524
8.76213
8.92033
9.07192
9.21959
9.36683
9.51805
9.67889
9.85651
10.0601
10.3014
10.5955
10.9615
11.4235
12.0111
12.7589
13.7055
14.8897
16.3454
18.0931
20.1317
22.4294
24.9193
27.5002
30.0438
32.4078
34.4528
36.0598
37.1415
37.6673
2.53544
2.58112
2.64347
2.72322
2.82078
2.93629
3.06961
3.22031
3.38774
3.57104
3.76918
3.98097
4.2051
4.44013
4.68449
4.93652
5.19445
5.4564
5.7204
5.98447
6.24652
6.50455
6.75669
7.00117
7.23647
7.46146
7.67531
7.8777
8.0687
8.24885
8.41918
8.58117
8.73688
8.88896
9.04074
9.19651
9.36168
9.54318
9.74997
9.99344
10.2882
10.6529
11.1108
11.69
12.4233
13.3466
14.4958
15.9009
17.5798
19.5296
21.7198
24.0875
26.5394
28.9573
31.2107
33.1712
34.7282
35.8003
36.3568
2.30809
2.34826
2.40442
2.47727
2.5673
2.67469
2.79937
2.941
3.09902
3.27268
3.46107
3.66314
3.8777
4.10346
4.33898
4.58275
4.83309
5.08823
5.34625
5.60519
5.86301
6.11778
6.36769
6.61103
6.84627
7.07226
7.28814
7.49349
7.68831
7.87309
8.04891
8.21733
8.38051
8.54111
8.70244
8.86872
9.04514
9.23834
9.45682
9.7112
10.0151
10.3857
10.8443
11.4166
12.1323
13.0233
14.1212
15.4525
17.0325
18.8584
20.9029
23.1105
25.398
27.66
29.7791
31.6394
33.1398
34.2042
34.8014
2.04503
2.07816
2.12667
2.19137
2.2728
2.37126
2.48675
2.61902
2.76761
2.93191
3.11107
3.30407
3.50983
3.72718
3.95491
4.19169
4.43602
4.68614
4.94008
5.19574
5.45114
5.70446
5.95404
6.19828
6.43563
6.66498
6.88542
7.09646
7.29804
7.49078
7.67602
7.85556
8.03187
8.20769
8.38629
8.57202
8.76983
8.98556
9.22683
9.50278
9.82524
10.209
10.6722
11.2372
11.9293
12.7755
13.8024
15.0323
16.4793
18.1436
20.0053
22.02
24.1176
26.2069
28.1838
29.9432
31.392
32.4584
33.1104
1.73636
1.75904
1.79697
1.85136
1.92293
2.01203
2.11849
2.24179
2.3822
2.53968
2.71245
2.89927
3.09885
3.31026
3.53295
3.76584
4.00831
4.25855
4.51322
4.76995
5.02705
5.28304
5.53667
5.78652
6.03106
6.26938
6.50025
6.72316
6.93809
7.14604
7.34921
7.54983
7.75034
7.95367
8.16301
8.384
8.62131
8.8767
9.15652
9.46847
9.82206
10.228
10.6993
11.2556
11.9188
12.7085
13.6462
14.746
16.0206
17.4811
19.1261
20.9288
22.8333
24.7624
26.6224
28.3107
29.7318
30.814
31.5274
2.36191
2.27156
2.20288
2.14353
2.0888
2.03747
1.98987
1.94728
1.9116
1.88554
1.8727
1.87517
1.89226
1.92159
1.96017
2.00746
2.06432
2.13159
2.21019
2.30079
2.40383
2.52045
2.65307
2.8061
2.98783
2.23374
2.2093
2.16721
2.11923
2.0696
2.02052
1.97387
1.93163
1.89614
1.87023
1.8566
1.85674
1.87051
1.89664
1.93376
1.98125
2.03897
2.107
2.18568
2.27556
2.37772
2.49397
2.62709
2.78135
2.96412
2.17666
2.15676
2.12276
2.08074
2.03473
1.98765
1.94199
1.90019
1.86487
1.8387
1.82399
1.82213
1.83344
1.8574
1.89313
1.93978
1.99667
2.06339
2.14001
2.22702
2.32581
2.43837
2.56745
2.71694
2.89258
2.1332
2.10863
2.07489
2.03447
1.99002
1.94407
1.89908
1.8576
1.82224
1.79557
1.7797
1.77606
1.78523
1.80704
1.84076
1.88529
1.93949
2.00276
2.07471
2.15611
2.24837
2.35352
2.47412
2.61353
2.77658
2.09167
2.06132
2.02507
1.98394
1.93954
1.89381
1.84896
1.80741
1.77168
1.74418
1.72696
1.72147
1.72843
1.74775
1.77862
1.81967
1.86941
1.92712
1.99212
2.06532
2.14821
2.24276
2.35135
2.47715
2.62498
2.04948
2.01336
1.97372
1.93087
1.88567
1.83952
1.79429
1.75223
1.7157
1.68703
1.66822
1.66071
1.66521
1.68156
1.70873
1.74506
1.78875
1.83898
1.895
1.95776
2.02885
2.11002
2.2035
2.31235
2.44171
2.00606
1.9645
1.92154
1.87678
1.83042
1.78342
1.73738
1.69437
1.65668
1.62652
1.60588
1.59613
1.59788
1.61074
1.63341
1.66386
1.70008
1.74114
1.78632
1.83667
1.89369
1.95887
2.03394
2.12213
2.22902
1.96025
1.91501
1.8697
1.82336
1.77578
1.72767
1.68044
1.63617
1.59709
1.5653
1.54271
1.53063
1.52939
1.53829
1.55567
1.57917
1.60658
1.63684
1.6695
1.70566
1.74653
1.7929
1.84576
1.90815
1.9854
1.9136
1.86686
1.82041
1.77288
1.72406
1.67463
1.62602
1.58045
1.54018
1.50697
1.48276
1.46861
1.46427
1.46884
1.48024
1.49567
1.51289
1.53066
1.54917
1.56937
1.59184
1.61677
1.64378
1.67242
1.70677
0.663698
0.703207
0.322719
0.285449
1.15621
1.16679
3.39552
2.56754
0.340774
16.7143
0.210985
2.40115
13.6168
0.524526
6.91433
2.17485
0.322476
0.352965
25.9382
0.246591
7.13242
5.21797
0.239554
2.31126
2.88083
2.31377
2.87792
1.03723
0.297733
0.27532
32.5657
2.1659
0.316224
11.6734
0.259414
1.25203
10.6914
6.82463
12.014
4.40137
0.269095
0.130374
3.66083
1.99593
1.58674
8.34464
0.226332
0.226566
0.24076
0.315974
0.22187
0.238439
11.8071
0.381537
3.41114
0.33405
0.539955
10.7296
1.04882
0.174871
1.18903
0.317239
1.13735
3.85755
2.55905
1.79761
8.66294
2.16558
13.5239
0.300082
0.332362
6.12205
1.30588
0.328563
2.82063
7.8551
0.780535
0.240324
2.06011
0.459931
11.5203
1.43748
2.61142
0.201549
1.17197
1.21724
1.52008
0.240592
0.313835
2.35843
1.88969
5.05357
9.12025
2.40752
1.17605
0.212819
2.22753
0.211242
0.321525
0.173616
1.01131
0.274369
1.03176
6.95247
1.19437
1.48567
0.242405
11.255
0.576803
0.282274
4.62346
1.61809
0.263512
7.06289
11.7209
0.244759
0.291528
4.90496
13.1698
1.15753
0.0198713
1.69639
2.34594
2.78471
0.311812
3.4589
0.244413
0.437756
1.39041
0.227484
2.58912
0.363562
0.295777
12.6681
1.348
1.49031
1.59674
0.933672
1.22763
0.202162
7.43066
11.2879
0.180551
0.0529091
0.269125
2.55342
0.238939
1.92376
2.07776
0.26647
3.15734
0.857526
0.235433
6.6006
2.9151
0.199491
1.56407
4.70622
1.51697
5.06172
3.64195
0.340128
3.18133
0.215081
5.33354
0.20898
0.596651
2.80877
3.34789
1.38211
0.50306
4.25599
2.16517
0.204549
10.323
1.38581
6.74549
0.300351
0.20586
7.25777
9.75354
1.99011
12.2826
8.27117
1.84299
0.831445
0.211625
0.592066
0.318108
1.6687
0.208897
0.178777
0.497842
11.1145
6.44318
0.322216
2.85301
5.0409
0.256339
0.410446
13.2034
4.94911
1.35979
1.62623
1.33789
8.33606
7.58844
0.979443
0.257456
5.39874
1.25459
2.1252
10.4051
1.24763
4.53153
0.265202
1.01025
1.78295
6.88455
1.9287
0.670117
0.15208
2.77587
0.289982
1.17124
0.28345
2.55054
0.329302
0.496603
1.23516
0.196245
1.26419
1.81924
1.97664
11.67
12.8545
2.37145
0.799482
8.54043
6.34679
28.7135
1.18809
4.83667
1.53285
1.38645
1.74156
2.54568
1.65777
2.18897
4.04004
0.413084
1.46414
13.3596
0.25591
1.23034
2.43764
0.26155
0.933662
1.7319
26.9345
2.1196
1.21728
1.63933
2.97957
0.425602
2.61151
6.68809
0.178135
3.2127
2.80493
5.86458
0.434739
0.426798
1.59531
23.9159
0.178286
6.11642
0.368774
0.609129
0.204716
1.95504
3.52998
2.17203
8.24218
0.200635
1.28321
1.48875
0.878074
0.231509
0.213865
4.63027
3.31682
0.0940327
0.232392
11.9228
0.268194
0.268908
6.8853
5.23942
0.190316
0.197081
3.73697
2.6902
1.68876
0.284409
5.47786
6.50265
15.7274
0.202874
1.42296
6.35249
10.2475
0.320533
1.58594
0.362378
11.5742
0.233481
11.9247
2.83219
13.0978
1.48373
3.18014
2.52855
30.9282
1.45493
2.54204
0.290142
11.0098
7.65778
10.313
5.51216
6.50194
0.607843
14.9718
0.240256
1.25865
2.23216
2.66428
0.250678
2.14021
2.07072
2.49241
0.171466
11.2275
0.480944
0.978873
0.988072
0.996006
1.49695
0.216759
1.8406
8.75742
0.142754
1.81379
0.234359
1.25208
11.8335
2.15186
4.52806
0.219171
0.265952
0.238214
3.69861
0.283734
0.13797
1.59805
3.27875
0.237655
1.74643
0.317051
9.30111
6.55429
0.327876
0.362729
13.4874
2.2237
1.79517
6.73956
4.06131
14.2759
0.271232
3.6763
0.313844
2.15008
2.17716
11.5557
5.53264
0.257542
0.2149
0.208692
1.91932
7.72685
1.72829
0.346502
9.04351
20.5138
5.07818
0.321544
4.51069
0.299287
2.49534
3.80706
1.17166
0.35845
2.52503
0.104291
4.60728
1.68284
6.40867
27.2834
0.265308
1.62658
0.183583
1.22239
2.92354
1.57765
0.226233
0.217415
3.91779
5.08095
5.4179
4.40308
2.16035
1.01315
3.60074
0.215433
0.164771
2.76453
20.6083
2.26044
1.56806
2.23781
2.34053
2.17571
4.08188
3.1364
4.74904
0.0787575
1.06025
1.84036
5.24617
6.44064
0.237335
3.58346
13.2898
0.21239
0.878069
0.24482
1.28279
2.02015
0.363851
3.31713
3.02645
0.191607
10.8987
0.303763
0.215316
1.21174
1.91528
0.69985
3.49671
1.86192
0.263336
10.3651
0.208608
1.963
1.05764
0.303923
5.03438
0.218768
1.67869
1.76635
0.240281
1.79817
2.7227
12.2612
2.75426
1.81251
2.22312
2.75793
4.29166
11.3993
0.131788
2.44918
0.199323
1.16407
1.43627
5.97278
0.342044
6.87094
6.48787
2.74119
2.00389
0.343415
1.75833
0.791157
6.56365
1.32364
7.62324
0.315306
3.69388
4.30872
1.39895
1.33862
7.10057
11.2951
1.55868
1.7112
4.31195
2.37783
4.83014
10.9693
10.1832
2.9869
0.731497
0.237849
0.290374
0.221204
2.21185
1.5932
12.4682
0.214358
0.239202
0.14084
11.9423
6.92865
0.211115
0.285996
8.38331
4.66652
1.34824
7.25882
0.148986
0.2991
1.10294
4.58202
3.81136
0.21272
0.258504
2.8353
12.9956
0.295395
5.04211
0.24402
0.165765
0.269482
2.60446
0.59698
1.36376
0.371879
10.7896
10.6635
1.44385
0.26123
0.227688
0.236516
2.88409
10.3347
13.6523
0.25837
18.9141
12.2087
3.88733
12.8807
0.279591
20.3714
1.78183
1.22374
2.29455
2.16682
0.318497
6.83457
8.25091
0.930849
1.0821
0.270857
0.222378
0.262811
0.678095
2.18849
0.206667
12.6068
4.76921
11.6355
2.58693
0.324633
4.89894
1.13782
12.7464
4.83995
1.30467
1.29118
3.84294
5.99325
9.86224
1.01083
12.0342
0.21992
1.15432
2.05071
0.174692
1.03429
0.158502
2.68622
0.47589
1.23296
1.28864
17.0158
0.978357
3.12346
3.83024
11.5414
1.8546
3.25116
1.34804
10.3555
2.24097
1.03225
0.256323
4.44604
2.24878
3.13211
12.4821
0.989248
2.61507
0.170946
0.226211
0.976024
0.331756
2.66034
2.64778
1.90094
0.402331
2.62312
1.07837
8.36564
2.36575
2.56681
0.85751
5.36625
1.85454
0.52338
1.76974
4.80908
1.16045
1.86576
1.87412
4.22621
0.170557
6.11727
1.96387
0.451062
16.6847
0.131817
6.99895
19.0904
0.223362
30.1982
3.2915
2.73299
0.259362
0.576885
0.206657
0.0829923
1.91193
2.59201
0.280032
0.261274
1.5973
12.19
2.62745
19.4043
1.16391
0.189954
0.136016
2.86478
12.0003
1.31376
9.28989
13.4405
0.402903
10.8349
2.46884
2.62294
6.44819
0.58212
6.5005
0.275965
0.248973
2.36558
5.16971
3.55964
0.217881
2.56959
10.658
3.86999
2.12537
12.1375
1.26553
5.08865
1.02651
2.16531
1.3887
6.15003
6.99982
0.193214
6.59362
3.44384
0.224893
5.88594
0.333067
0.253455
24.2727
1.62747
2.08905
0.119416
2.52565
1.92884
2.19857
1.39669
13.528
17.4978
24.8772
1.78512
3.38224
15.8328
2.30365
3.6102
10.6266
0.275572
16.9096
0.220562
2.47435
0.301012
3.23596
0.280943
0.230096
0.148114
1.59267
1.94518
0.110066
2.18364
2.89686
11.2615
0.435781
11.953
1.11474
3.92309
2.13699
2.40679
1.41616
0.222749
0.242714
2.24705
2.87117
6.226
12.0714
0.252515
0.0328436
3.96082
1.76784
0.145961
0.533941
6.9528
0.241702
6.3005
2.17463
6.35747
0.707848
0.160537
1.63881
1.2787
0.963802
4.67696
3.63721
2.72117
1.88458
1.81976
3.78588
2.24572
2.24895
4.03918
0.199808
6.01172
5.15234
2.02666
4.07532
0.22646
1.2712
14.6996
9.08176
4.22128
4.22539
0.171787
7.11278
0.219053
0.231216
2.27332
1.21542
2.71674
12.0004
4.15152
0.228849
11.9024
0.881998
10.7912
0.236628
0.247876
2.49885
1.65983
0.322869
0.322961
1.83146
1.17476
0.31374
2.04835
0.271698
0.277966
7.14652
1.7567
0.366806
0.360774
0.539151
5.36958
4.20757
0.33956
2.98569
10.4631
3.50865
2.38076
0.743535
2.42708
1.91057
2.0797
0.456244
17.7957
2.69522
0.175572
14.8087
7.43684
1.39888
4.03816
6.78333
2.29827
11.7405
6.00465
12.0645
7.46972
1.5934
6.74964
0.238766
1.69222
7.39628
2.762
7.80607
0.211784
0.288279
0.821036
12.686
6.51301
0.0639369
2.29951
0.642953
0.195624
5.55193
0.378955
2.64409
0.115542
7.27436
1.86143
0.142678
0.147421
1.98701
0.192679
0.189848
0.224038
14.032
0.333249
8.89777
9.9998
3.65851
1.40148
0.622438
0.553832
1.28504
2.00063
2.64906
0.239426
1.79171
1.69257
0.324633
0.788751
1.69459
5.63672
0.338822
10.8811
12.2283
1.64647
0.224179
0.243804
12.4183
8.8007
0.321879
1.08778
0.84814
2.07942
0.210442
8.68758
1.91745
0.879846
0.264931
2.77782
4.45798
0.599248
0.0763017
0.756705
11.4912
0.185085
11.6332
0.244234
0.249845
5.80328
1.14491
1.51398
1.78159
0.469809
10.6303
4.02772
1.48511
1.39674
0.483351
3.06487
0.21966
1.12483
0.198273
9.11943
2.66853
16.5592
1.30722
2.61488
0.312364
0.267458
0.98444
5.27369
2.32222
0.984073
4.69547
22.8906
12.7413
13.0323
0.344577
1.47775
2.15542
4.40761
1.97944
4.25573
1.33354
0.332453
5.48156
0.951627
2.86203
4.84264
1.02448
1.75472
17.4999
6.36606
0.850424
1.06303
8.66766
1.17357
1.70019
0.198664
0.238676
0.315871
3.40452
1.80189
3.56453
1.59897
0.270291
1.10245
0.718876
0.27314
2.45893
2.04484
1.11027
2.6631
0.254924
11.991
2.09056
0.49325
2.82417
3.02453
0.297982
2.72481
2.16502
2.30979
2.1739
2.35143
0.204839
9.26298
2.15275
0.301041
1.90276
0.220299
1.56197
0.266824
1.42396
2.39089
5.61225
4.48305
6.36535
0.973184
11.1809
0.476097
4.03313
12.9467
2.49912
0.399334
3.02818
0.228563
3.33369
2.44204
5.93186
1.38923
0.223482
0.466931
10.5796
1.60706
1.38302
4.13946
0.715158
0.285508
1.31584
1.99192
3.99102
1.71418
1.85085
0.197731
5.6245
11.2816
3.64087
3.93964
3.76589
1.95105
0.209692
0.363312
2.69492
2.27943
4.75879
0.330335
1.26479
0.803162
2.11687
0.32475
0.238071
0.221008
1.26627
1.31447
1.38706
0.252892
5.73434
0.261286
2.5368
2.22665
0.280545
2.41584
3.92365
0.990351
13.2142
33.0501
1.60082
0.37387
20.0851
0.322767
7.08568
1.91354
1.19983
14.8458
10.8876
1.82652
0.245186
7.13491
1.1624
3.58466
0.265402
0.20308
4.21615
3.35417
6.57398
1.86238
0.490177
1.37929
0.199176
2.26434
12.4252
12.8627
1.345
1.42343
5.25812
2.56343
1.59212
0.169235
0.550719
8.45416
0.211579
2.02087
12.3123
1.26667
26.9051
0.292586
0.281669
4.39571
12.8142
1.21982
5.9772
0.823403
0.794482
0.339716
1.81634
10.8202
1.72881
1.4128
0.430432
2.58793
1.79083
0.545564
0.206001
0.134524
1.88764
2.63671
8.93506
2.24451
12.4719
2.06476
3.71404
1.26953
10.0136
1.24356
9.76453
1.46647
0.235355
0.276171
0.347162
0.583435
10.8154
0.204087
2.37475
0.274612
9.88428
2.58092
2.19056
1.23535
1.27509
3.33564
1.45723
1.4618
0.291934
2.33527
1.26775
4.83307
0.690467
1.69073
2.18782
0.220274
0.426924
0.238531
0.213594
0.902191
1.12245
1.66728
2.14921
1.72198
2.77428
0.232863
9.50783
2.24876
7.06511
6.34948
0.285155
2.4071
2.75661
1.95091
3.47555
1.32343
1.21167
13.0212
0.873673
1.23335
0.272035
7.3715
1.91336
0.369912
1.92109
1.5851
1.94041
0.1452
1.76946
2.06035
13.4821
3.46639
0.158666
0.21225
1.16881
3.30407
6.38087
4.86953
1.48701
9.52966
8.37837
2.44036
12.6826
10.474
5.07241
0.32183
0.430717
0.276289
1.87976
1.27368
0.549546
2.37769
1.29882
5.66526
1.73963
0.229083
9.74583
1.96198
1.87661
6.71432
1.93934
1.8338
1.22455
3.8926
0.244588
0.476872
17.7657
7.70163
27.6563
2.97293
1.52413
0.444686
7.99485
6.03065
0.326238
0.843336
0.109154
1.73218
0.341535
0.220332
0.328035
1.09141
12.7689
0.266873
0.174136
0.394731
0.221991
5.68472
0.351719
0.788134
17.0582
12.8789
6.81242
0.22303
10.8897
1.22449
3.63879
2.95411
0.300106
1.43722
0.264015
5.49358
0.226306
11.4895
0.243784
1.55447
1.17292
1.71056
0.343966
1.84626
0.978461
0.176003
2.94049
0.240076
0.749789
4.64909
11.2194
2.59456
2.67188
11.9664
6.40397
5.39959
7.87109
1.3649
12.4146
1.46904
2.65335
0.340512
12.4408
1.40961
0.276997
14.7303
8.22242
1.33844
9.62444
1.25664
8.42581
3.85201
4.87983
1.0038
0.210438
2.56445
8.5753
0.244319
2.88817
5.58255
11.576
4.45407
3.17641
0.102361
2.52708
0.304715
1.19606
0.316273
1.845
1.64156
11.181
4.42055
2.23515
12.8217
8.6074
3.57684
1.37773
1.81712
5.16306
8.62285
0.326017
0.273666
1.96241
9.27671
1.6328
12.4983
0.2216
1.36643
1.1565
1.34048
0.3105
1.03745
10.1259
13.2193
2.39213
9.51179
0.273873
1.48855
1.84662
7.20873
1.25174
1.24369
2.79133
1.3146
1.29901
0.29136
0.229287
0.307024
2.69595
0.210907
4.96779
7.79219
3.71258
0.225047
0.270565
0.949185
4.59548
4.42813
5.33073
3.19605
0.232967
0.205853
10.5106
5.00133
2.20765
5.96072
2.29999
0.757812
0.267857
0.178221
0.595807
0.301956
6.40334
2.12553
12.2787
2.30586
0.275196
0.452284
1.48091
1.25975
6.06914
1.2759
8.55636
1.17439
3.3093
0.290268
0.25245
13.6117
1.60993
2.3125
0.337278
2.20971
0.309606
0.424212
0.175698
6.65465
0.542668
2.55997
7.41732
7.25577
1.43728
29.3145
0.566679
0.318568
8.86227
1.14859
0.177776
1.82225
0.292702
0.226775
8.54588
1.38638
5.41572
1.22597
11.3373
2.73568
0.267245
1.97468
7.29736
0.776674
4.73322
1.56974
4.84887
1.38159
7.78375
1.20867
2.23281
9.06083
8.53064
0.356245
2.23118
3.66472
2.19527
0.704107
2.89704
0.326766
0.294961
2.42872
0.280641
15.1833
2.00949
6.407
5.71463
1.59741
1.86224
0.22795
4.06626
4.46153
0.192478
0.63737
25.0059
10.2904
7.96392
5.91117
3.72645
1.00459
3.10197
0.310529
1.18399
14.5125
6.11222
0.335228
1.26764
0.268168
0.307854
1.70495
0.200297
5.57399
0.484805
0.287653
1.89525
20.8898
0.149019
11.427
0.970046
5.58382
2.94535
6.61447
0.313346
0.951207
1.94709
0.19274
11.3953
2.09829
12.0733
4.77849
2.39587
0.223895
26.4024
11.6547
7.30291
2.68696
6.62969
1.52084
0.277799
0.205955
4.72721
12.3565
0.264654
4.59523
4.6011
2.35855
2.51219
11.5763
2.25686
1.14635
12.159
3.11794
2.07188
0.000804984
0.641572
7.64131
0.304607
11.529
1.16179
10.8102
1.2692
2.18384
0.224408
0.33076
0.180203
1.53381
0.126284
10.4848
7.0673
4.52879
0.245668
2.39323
0.203871
0.271808
13.3818
6.78054
0.226531
1.73469
0.22729
1.01904
3.05283
0.208885
1.34863
2.56698
3.77313
3.43243
1.57441
6.80902
6.45677
5.6608
6.69494
0.564513
1.61616
0.283702
2.34316
0.291302
4.73272
7.07334
1.8076
10.553
9.33331
0.168767
3.76524
1.50378
0.369337
3.85001
1.2859
0.210107
4.27096
0.450085
3.27375
0.194049
19.9305
0.653164
1.04344
0.302667
2.47892
1.24545
3.34166
6.27196
0.807363
0.275126
10.3524
1.62349
1.10069
3.85503
0.836764
2.97214
0.749716
6.67231
1.88956
0.283403
1.36873
10.0595
0.280147
2.95284
2.02647
0.365353
7.3783
0.207526
3.41465
2.309
4.3994
2.39125
2.37161
12.1307
0.993502
3.18683
3.89347
0.90459
1.8206
0.300255
4.94909
1.49063
1.72169
1.18151
1.37999
1.89687
4.72083
2.47914
5.95201
1.40697
11.2051
0.299395
5.38941
0.694892
1.36985
5.72234
0.234309
3.18807
2.70359
4.62756
2.3302
1.8679
0.20847
3.55059
7.01114
1.20495
1.23196
0.569328
4.90347
1.65332
10.9457
0.388876
1.98089
2.36593
0.258149
11.7783
1.36336
1.34964
0.907347
2.55716
27.1758
6.65836
1.25059
3.30265
0.296053
11.2058
0.752776
12.2654
3.96659
0.175402
0.230288
1.60457
2.5517
2.30149
3.56307
2.50656
0.681561
0.182126
2.20647
1.56722
3.1269
4.04898
1.34843
0.2854
2.6037
4.90065
1.33907
6.12814
0.241802
8.17408
6.55126
1.48529
0.860942
2.54356
1.31056
0.217928
2.39828
1.52073
0.280671
3.61626
3.0742
1.96556
3.27315
5.26913
0.296874
0.271816
1.66697
0.418365
7.93688
20.3052
0.292094
0.216962
2.89238
0.629014
3.15651
3.65629
13.1178
2.21576
0.220578
1.6537
1.29574
2.17887
4.30897
0.208755
9.12597
5.02121
3.53553
0.528915
15.2349
1.98617
1.10414
10.272
1.05508
1.26015
9.68423
4.02383
1.80019
6.8094
6.57723
21.4265
1.71566
4.4468
1.31654
5.47118
4.89351
1.30238
1.413
0.573921
1.91174
2.46983
3.4006
0.240898
1.24202
2.31702
0.179887
12.4961
0.09545
4.64598
7.89765
0.21744
5.46021
1.29823
1.97835
13.1137
4.17742
1.48562
3.69912
0.33652
0.308436
2.50964
0.236333
7.65624
2.83464
0.011627
0.326664
2.48217
11.3842
2.83421
0.25263
1.50975
8.2312
0.212127
0.232203
0.808246
0.297438
1.7289
2.86875
1.68033
0.236034
2.4025
1.25583
0.998279
0.200655
0.357025
6.59062
0.295598
2.59688
4.17801
1.20878
1.83547
2.53128
5.70457
3.75876
4.32854
10.8891
1.5925
5.41565
0.329332
2.90345
11.8293
0.229032
2.03815
2.02622
1.91319
0.181664
7.01345
4.43281
0.261612
5.23435
0.286297
4.0905
3.03206
1.60708
0.350751
0.799827
5.50685
3.86984
2.59958
5.33396
2.50369
0.304134
1.82507
10.9455
0.787501
0.582635
0.222394
5.62192
0.682697
6.60786
2.77746
1.52779
2.22458
12.6893
0.448324
3.17926
3.46165
2.83516
6.5482
1.04193
4.73292
1.45671
0.598754
9.22707
8.82229
10.5666
0.788712
9.65548
4.08726
0.0404215
6.49555
11.9504
2.87871
1.75857
1.46356
3.09635
1.34785
1.12556
4.81787
6.54142
0.36542
0.338672
0.226593
0.798908
0.0887611
2.37638
5.77758
1.85963
3.35271
0.24334
8.77976
0.20372
1.67822
0.197883
3.7587
1.73669
2.31791
13.9675
0.351708
4.52733
0.286296
2.2018
1.87251
1.70949
0.217159
4.94175
1.42869
1.82174
1.18622
4.92831
3.31793
1.78235
1.20058
1.17355
2.17798
0.211871
7.05419
3.19321
9.7337
3.23077
7.28788
0.260497
0.0751674
0.878569
3.26399
3.55763
0.789949
1.32194
0.189137
1.23225
0.733812
5.22274
1.66235
1.07866
1.77639
2.46889
5.86715
0.211076
0.599258
3.09893
7.12654
0.197525
1.88112
2.67678
0.694609
3.35853
1.13346
1.3545
12.5368
4.56129
33.6659
1.63129
7.93874
0.258156
12.6509
0.671914
1.55168
13.0141
0.235092
0.622856
1.53621
2.43311
4.21955
0.27283
0.273057
5.11102
3.64025
9.83692
3.15123
0.356654
0.184884
0.309737
0.189218
0.181715
0.598529
2.32219
0.665372
3.80563
5.34814
2.43996
2.38231
1.62256
0.220286
4.54606
6.07038
0.332212
0.180053
0.567909
4.50825
1.14085
0.334066
0.226764
0.738055
2.64376
1.65637
10.7506
2.00333
5.76464
2.99666
0.0733989
3.707
1.38618
0.8407
1.65429
3.7958
10.5133
2.64576
0.293465
1.20894
5.31812
2.47936
5.85509
2.03997
0.24429
1.65096
0.274766
3.20518
2.83357
5.25962
0.213089
1.20181
2.1505
3.12458
0.266147
1.17192
1.70366
13.2137
0.115015
1.75713
0.82168
0.185586
2.63703
10.1811
0.351357
3.18972
2.61234
0.21298
2.66827
6.96901
5.71879
1.90324
5.58569
12.1238
0.205957
13.5793
9.86291
2.16003
0.204824
7.16632
8.73464
3.71374
1.24621
13.5915
2.45724
0.886531
3.07548
7.01521
0.291431
4.18896
2.33577
2.85126
0.301106
3.02728
0.186604
0.887535
20.9762
0.324671
2.99274
2.92527
0.309849
9.92057
0.818333
0.876164
1.05143
0.217533
0.215935
8.84266
2.39716
1.29872
2.1396
2.06625
0.999948
1.08051
5.79958
1.18476
4.634
0.306869
8.1769
0.324765
25.0924
1.4919
0.368899
0.569644
3.393
2.26946
2.77218
1.23215
2.55338
1.79538
2.66938
4.72881
4.27017
1.67248
3.31314
0.278311
4.54143
1.74468
3.37801
0.187904
0.301548
0.319852
0.311807
0.169267
1.98425
0.0915011
4.43373
2.23604
1.94241
0.263545
1.16663
2.21362
0.647215
11.7269
9.40562
4.57014
3.99455
2.27088
2.69569
0.582622
0.202298
1.2799
0.317068
0.205314
1.34612
1.60179
2.98935
10.1681
0.696855
2.55156
5.33213
7.19831
3.11977
1.82046
2.45677
0.638344
0.260525
5.12343
1.22642
0.239535
0.332087
0.317543
1.44684
15.2697
0.18982
1.29839
1.76249
1.06634
7.09787
2.47925
3.28122
0.374647
0.248805
1.32376
25.2616
3.45756
0.259282
1.96033
0.315584
0.310377
0.19041
0.319513
0.177674
3.64839
0.299452
8.91545
12.3028
0.420177
0.192689
0.210244
0.779358
9.04771
0.299715
23.8046
0.295741
2.64983
0.227149
1.47481
1.98711
0.28221
7.90082
0.32704
1.48348
0.811413
5.80091
4.43228
1.24276
1.18853
0.950769
2.95549
2.62161
0.553471
1.57614
3.85277
1.44724
23.9817
2.41698
0.421534
2.54138
0.491256
0.301837
9.27523
4.1947
6.4713
3.22298
5.07951
0.164536
0.327673
0.181907
0.299013