/*--------------------------------*- C++ -*----------------------------------*\
  =========                 |
  \\      /  F ield         | OpenFOAM: The Open Source CFD Toolbox
   \\    /   O peration     | Website:  https://openfoam.org
    \\  /    A nd           | Version:  10
     \\/     M anipulation  |
\*---------------------------------------------------------------------------*/
FoamFile
{
    format      ascii;
    class       volScalarField;
    location    "800";
    object      p;
}
// * * * * * * * * * * * * * * * * * * * * * * * * * * * * * * * * * * * * * //

dimensions      [0 2 -2 0 0 0 0];

internalField   nonuniform List<scalar> 
10435
(
0.0123005
0.613305
-8.46034
-2.37018
-3.7515
-7.3942
-8.51166
-8.45039
-9.38514
-8.62244
-0.221434
-6.11041
-8.92726
-0.486497
-0.299783
-8.60382
-0.726845
-9.06454
-11.0859
-0.216843
-8.97624
-2.7246
-8.52713
-9.77747
-8.06635
-1.81036
-2.69493
-8.92376
-2.29419
-8.37651
-7.46541
-0.609141
-8.92049
-1.39827
-9.21699
1.14763
-9.01684
-3.79047
-1.08876
-10.6783
-8.20646
-8.93293
-0.298104
-1.08205
-8.38005
-10.8399
-8.13201
-1.22488
-9.03003
-4.0316
-8.77046
-7.23496
-1.80351
-2.39523
-0.526641
-2.30952
-9.59847
-2.32955
-1.25113
-9.14305
-1.55873
0.890117
-1.95129
-6.09785
-8.43842
-8.52175
-1.33121
-1.75953
-8.68454
-9.16309
-1.61519
-2.56238
0.291732
-8.49672
-0.2429
0.228393
-7.08571
-8.51324
-8.26033
-0.369933
-5.66619
-0.438081
-1.4884
-1.85685
-6.5906
0.793215
0.537486
-0.680317
0.653423
0.380428
-1.22539
-1.74269
-0.723261
0.492741
0.190985
1.11381
-2.85905
0.256656
-0.533402
-3.1554
-0.591889
-4.06696
0.589293
-0.204055
-5.02829
-1.69795
-1.1016
-4.75447
-7.26759
-0.176118
-3.09772
-3.11013
-0.246499
-0.34055
-1.46071
-1.93245
-3.90707
0.771091
-0.311678
-4.44466
-4.4913
0.500279
0.667928
0.885007
-0.692685
-1.60555
-3.71445
0.56107
-3.54434
-2.85859
0.879823
-0.13069
-8.84003
-0.445986
-2.09247
0.0134921
1.27816
-3.10244
0.12727
-1.27161
-0.707745
-8.30623
-1.06915
-6.02283
-3.48424
0.12147
1.24677
-6.73464
-0.468605
-7.06409
-1.25511
-8.47855
0.101972
-7.35705
-7.43179
-1.35053
-1.36473
0.476566
-8.03813
0.575989
-7.86047
-0.544013
-1.25418
-6.06373
0.0895169
-5.21579
-9.44393
-4.85041
-8.5207
-6.46226
-8.10364
-0.448874
-3.46259
0.280993
-7.24112
0.906775
1.05845
-1.13221
-2.3001
-1.60251
0.214694
-6.99331
-6.60669
-1.80527
-8.34938
-0.266097
-0.439404
-8.58532
-4.43122
-6.80906
-5.86479
-1.21553
-1.4089
1.32159
-2.19986
-8.62299
-0.126965
0.703808
-1.03271
-8.79829
0.822161
-0.74283
-8.93635
-1.89464
-8.70073
-2.23955
-0.832367
-4.03395
-2.18611
-4.47029
-0.604556
-8.32964
-5.74503
-6.66205
-1.77668
-0.297567
-0.037312
-0.819521
-4.9155
-0.668658
-1.63175
-1.45585
-1.15621
0.667071
-1.84357
-9.1524
-4.33865
0.593419
-7.61675
0.208588
-1.27816
-8.97248
-4.41975
-8.22419
-2.66345
-0.806403
-8.99221
-2.96272
-8.97019
-7.85875
-0.567174
-1.50485
-0.817404
-2.27237
-2.2655
-8.82894
1.04559
-8.42416
-6.24451
1.10103
-6.20787
0.166029
-8.76295
-5.39363
-8.33487
-4.25862
-8.20531
-8.36242
-1.38458
-1.74299
-8.84492
-7.6446
-2.52779
-8.79466
0.244388
-0.693662
-0.12502
-8.35967
-0.928898
-3.01766
-8.75354
-8.46648
-8.69564
-8.71117
-5.72159
-5.17813
-1.38415
-2.67622
-8.88296
-8.06576
-8.39463
-0.846815
-8.71883
-0.179277
0.309107
-0.624472
-5.53207
-4.02828
-1.66138
-1.97438
1.03762
0.244826
-2.30483
-8.20252
-3.64822
-7.23718
-0.0956119
0.187275
-1.78012
-8.04397
-1.36862
-8.02802
-8.86856
-8.47504
-1.21306
-0.151649
-0.256013
-7.98933
-8.22238
-1.56591
-1.72154
-2.40961
1.23308
-5.72672
-10.1948
-8.16005
-0.886366
-7.25211
-1.48358
-5.46789
-5.92097
-3.35714
0.270888
-0.862728
-7.39826
-8.7122
-7.01252
-9.03762
-1.15628
-2.46087
-9.84529
-1.9134
-1.52501
-8.58506
-7.6163
-2.14251
-1.81114
-3.15565
-0.998979
-3.02497
-8.04953
-1.43152
-1.2266
-6.37217
-9.74004
-2.49417
-1.93684
-0.275579
-0.607178
-8.0205
-1.25709
-8.28249
-5.883
-9.13216
-7.94385
-7.46572
-9.24104
-8.52259
-2.30676
-1.47089
-3.46964
-1.29384
-2.26769
-1.42201
-3.47519
-8.43962
-2.32018
-6.93745
-1.65428
-8.51381
-1.3755
-8.97046
-9.25163
-7.64665
-0.542122
-7.62862
-3.57853
-3.21606
-1.56151
-1.89194
-9.5923
-3.23803
-8.65359
-1.62679
-8.34567
-6.92828
-9.21277
-9.18758
-7.51934
-8.94492
-9.23084
0.725449
-0.904012
-2.0091
-0.958375
-8.58785
-1.80521
-8.98273
-9.08669
-2.28331
-11.8991
-1.03035
-1.69314
-8.14011
-4.19834
-8.42899
-7.62365
-0.584745
-1.80972
-6.53825
-10.7362
-7.07392
-1.6383
-2.3393
-2.16257
-1.24017
-1.86464
-8.64247
-5.0613
-2.93321
-2.35898
-0.565813
-8.83885
-0.293015
-0.110329
-8.07419
-1.09531
100.091
26.4653
46.5699
32.0894
33.6599
27.2273
24.5622
21.0744
14.6333
85.8097
24.8329
38.4765
27.6646
28.4635
23.928
21.8814
18.9725
16.0416
68.7697
20.7611
31.0568
23.471
23.7321
20.6088
18.9477
16.7032
14.4104
53.1581
14.9624
23.4954
18.7921
19.0927
17.1244
15.9462
14.3221
12.4686
38.8079
9.35099
16.5265
14.1655
14.6089
13.5607
12.8953
11.9579
10.5686
25.4797
5.33061
10.6126
10.0166
10.539
10.1526
9.87097
9.37846
8.63965
13.7648
3.91844
6.105
6.63179
7.09166
7.13684
7.12701
6.97385
6.69721
4.4396
4.01241
2.89018
4.04073
4.35914
4.6552
4.81543
4.90494
4.39816
-2.3152
3.35651
0.491092
2.09365
2.33002
2.76507
3.02084
3.19907
3.23208
-6.62707
1.67197
-1.20098
0.723006
0.958995
1.46235
1.77596
2.031
2.16021
-9.19543
-0.0727394
-2.10992
-0.0877664
0.167336
0.668691
0.990742
1.2599
1.54639
-9.78444
-0.573117
-2.14286
-0.37768
-0.159993
0.268852
0.547765
0.764357
1.26886
-8.11357
0.0560101
-1.44667
-0.285634
-0.174735
0.138711
0.357382
0.570612
0.803902
-6.1972
0.765512
-0.677581
-0.0793128
-0.0639727
0.141101
0.308223
0.509639
0.627739
-4.9018
1.10847
-0.124616
0.085505
0.0489774
0.174117
0.301935
0.468413
0.61595
-3.72851
1.13736
0.185322
0.158068
0.110942
0.189719
0.294359
0.431509
0.601409
-2.98145
0.777173
0.230201
0.123503
0.106316
0.17111
0.267723
0.383047
0.61445
-2.75618
0.0866829
0.0338629
0.000186466
0.0450752
0.122276
0.22448
0.34049
0.539634
-2.58829
-0.529788
-0.204078
-0.145452
-0.0440032
0.0510675
0.157428
0.273615
0.412992
-2.32408
-0.849307
-0.393939
-0.274553
-0.138372
-0.0259016
0.0880099
0.211605
0.358688
-2.21462
-0.976249
-0.551772
-0.3849
-0.234311
-0.110112
0.00677807
0.136048
0.237283
-2.34562
-0.954106
-0.692559
-0.482258
-0.333551
-0.202272
-0.082325
0.0580668
0.0453056
-2.76857
-0.740932
-0.79872
-0.552226
-0.416683
-0.286488
-0.166632
-0.029772
-0.0742566
-3.29789
-0.473599
-1.00959
-0.741268
-0.607318
-0.463397
-0.305801
-0.13249
-0.19719
-3.31277
0.14082
-0.62842
-0.400211
-0.326342
-0.308807
-0.206677
-0.0481898
-0.854619
9.87408
9.53482
9.48522
9.78698
10.1898
10.7424
11.4592
12.3501
13.4176
14.6529
16.0452
17.5661
19.1708
20.8251
22.4858
24.0927
25.6063
26.9788
28.1732
29.1713
30.0279
30.9577
31.6631
31.5187
31.1288
31.3984
32.3097
33.4189
34.3803
35.4389
36.6557
37.5684
38.016
38.2217
38.3156
38.3138
38.2455
38.2088
38.265
38.5383
39.1899
40.3571
41.9671
43.9606
46.4724
49.6098
53.3377
57.4678
61.8721
66.5576
71.5965
76.9248
82.3848
87.708
92.5234
96.6667
99.9259
102.435
104.917
0.729256
0.0353477
-0.547954
-1.11192
-1.65701
-2.17231
-2.65282
-3.08756
-3.46323
-3.75912
-3.99885
-4.24968
-4.49435
-4.6485
-4.68182
-4.59538
-4.38582
-4.04854
-3.57667
-2.95971
-2.17969
-1.20576
-0.0587742
1.19496
2.21835
2.68473
2.55639
1.8402
0.958469
0.274517
-0.212835
-0.557339
-0.822675
-1.02689
-1.16969
-1.25007
-1.25408
-1.15829
-0.938235
-0.575024
-0.0543165
0.641253
1.42302
2.05517
2.41404
2.49818
2.39359
2.32794
2.49385
2.75007
2.86676
2.9845
3.20048
3.75039
5.17938
7.41642
10.0922
13.2118
17.4911
3.98706
3.97111
3.93379
3.97258
4.06334
4.20368
4.39237
4.62772
4.90759
5.22857
5.58555
5.97856
6.41723
6.9038
7.43429
8.00311
8.60469
9.23301
9.88327
10.5495
11.2266
11.9046
12.5521
13.1098
13.5414
13.8673
14.0925
14.1877
14.1776
14.1553
14.1435
14.1353
14.1241
14.1235
14.1482
14.2126
14.3342
14.5322
14.8271
15.237
15.7815
16.4739
17.3254
18.3381
19.5372
20.9372
22.644
24.7923
27.4017
30.3915
33.5158
36.464
39.2837
42.1063
44.8347
47.3036
49.4229
51.356
52.3779
0.985392
0.698784
0.474663
0.299965
0.161164
0.0603326
-0.00251562
-0.0267921
-0.012393
0.040623
0.131543
0.258624
0.422829
0.628513
0.878593
1.17557
1.52055
1.91255
2.34918
2.82467
3.33045
3.85276
4.37079
4.85492
5.26946
5.58637
5.7909
5.88336
5.8857
5.82945
5.73345
5.60834
5.46127
5.2993
5.12838
4.95555
4.78755
4.6322
4.49925
4.39851
4.34296
4.34681
4.43003
4.61565
4.94126
5.44751
6.18243
7.19695
8.49645
10.1808
12.3754
14.9091
17.5115
20.0243
22.4089
24.608
26.5518
28.4798
30.6159
2.25559
2.20176
2.14937
2.1515
2.19101
2.2656
2.37357
2.51296
2.68147
2.87649
3.09617
3.33854
3.60182
3.88529
4.18751
4.50738
4.84361
5.19358
5.55536
5.92488
6.29689
6.6637
7.01533
7.3406
7.62706
7.8675
8.05614
8.19269
8.28138
8.33122
8.35102
8.3461
8.32452
8.29436
8.26173
8.23727
8.22916
8.24497
8.3006
8.40885
8.5872
8.85554
9.24011
9.76929
10.4793
11.4024
12.5733
14.0106
15.7054
17.6968
20.004
22.5128
25.0816
27.5422
29.7986
31.7975
33.484
34.9547
35.9948
1.21994
1.07462
0.965499
0.899041
0.863973
0.860674
0.889176
0.948711
1.03874
1.15794
1.3066
1.4836
1.68854
1.92058
2.17846
2.46063
2.76523
3.08668
3.42484
3.77461
4.13072
4.48353
4.82343
5.14271
5.42455
5.6665
5.8576
6.00026
6.09323
6.13905
6.14484
6.10737
6.03686
5.94137
5.817
5.68118
5.53398
5.37022
5.21865
5.08743
4.99483
4.96218
5.01602
5.1879
5.51713
6.03078
6.77069
7.75703
9.00806
10.5223
12.2869
14.2514
16.3204
18.3714
20.4081
22.3681
24.0768
25.5977
27.0029
1.55729
1.49791
1.45562
1.45247
1.47723
1.52918
1.60636
1.70883
1.83464
1.98046
2.14659
2.33078
2.53368
2.75291
2.98636
3.23372
3.49751
3.76266
4.04008
4.32113
4.60831
4.88853
5.15674
5.41904
5.64173
5.84669
6.00776
6.14214
6.2406
6.30008
6.33849
6.32655
6.28914
6.24346
6.15555
6.07993
6.00292
5.88594
5.81529
5.76783
5.76493
5.82488
5.9676
6.22125
6.63266
7.19221
7.96296
8.93475
10.1304
11.5409
13.1409
14.8813
16.689
18.496
20.2217
21.775
23.1037
24.2617
25.1735
1.34598
1.25002
1.18195
1.15234
1.14264
1.16563
1.20495
1.28492
1.38454
1.47982
1.62206
1.77725
1.96113
2.17187
2.39412
2.64774
2.92252
3.13762
3.39652
3.67097
3.97337
4.25514
4.5134
4.80539
4.9956
5.20641
5.33613
5.46735
5.56206
5.61707
5.67586
5.62364
5.55829
5.52127
5.34468
5.27536
5.2399
4.92475
4.72703
4.53782
4.38291
4.27082
4.2147
4.24695
4.53992
4.81362
5.4014
6.04316
6.82344
7.8525
9.14891
10.6784
12.2351
13.8397
15.4809
17.0773
18.4951
19.8962
21.0102
1.4094
1.40612
1.38873
1.41978
1.45627
1.52577
1.5917
1.65453
1.76865
1.9578
2.02035
2.1785
2.38345
2.53959
2.77871
2.88065
3.15217
3.38493
3.62561
3.81285
4.06993
4.27261
4.4811
4.747
4.86843
5.06802
5.14401
5.25831
5.40074
5.29842
5.49019
5.40017
5.24414
5.2463
5.01518
4.99379
4.72184
4.34269
4.39567
4.2084
4.07317
4.04297
3.93048
3.95953
4.17418
4.33147
4.73466
5.16282
6.12389
7.10958
8.17009
9.36864
10.6659
12.3188
13.8198
15.1357
16.4156
16.3051
17.1391
-7.27331
-7.12346
-6.61554
-5.9331
-5.21759
-4.62624
-4.14306
-3.59031
-2.9799
-2.49075
-2.09679
-1.65874
-1.25897
-0.902824
-0.406107
0.210002
0.831767
1.47816
2.19436
3.00397
3.89498
4.83123
5.86555
7.33585
8.94218
-0.848998
-0.80533
-1.02393
-1.13869
-0.996327
-0.71617
-0.414999
-0.0754109
0.238707
0.324723
0.158306
-0.108089
-0.372667
-0.536283
-0.455195
-0.132479
0.249634
0.536702
0.638688
0.644325
0.74423
0.982123
1.33465
1.90094
2.11567
-2.08188
-2.04527
-1.92448
-1.75292
-1.48533
-1.18175
-0.886131
-0.608063
-0.379791
-0.278873
-0.298377
-0.370774
-0.448601
-0.481416
-0.399584
-0.201993
0.0567156
0.337368
0.614865
0.90621
1.25107
1.66266
2.14656
2.72679
3.50469
-1.55727
-1.53439
-1.40352
-1.26935
-1.09276
-0.897244
-0.701352
-0.519677
-0.369769
-0.276925
-0.238601
-0.228356
-0.220406
-0.189664
-0.111195
0.0158247
0.171709
0.337348
0.499571
0.660728
0.831032
1.00835
1.17764
1.29746
1.44779
-1.46969
-1.43833
-1.30375
-1.17254
-1.01396
-0.848965
-0.685361
-0.536537
-0.411335
-0.319654
-0.259919
-0.217614
-0.176876
-0.124193
-0.0457549
0.0609821
0.189972
0.334088
0.488515
0.653623
0.83589
1.03994
1.27506
1.53719
1.95945
-1.3346
-1.27944
-1.14475
-1.02943
-0.892267
-0.757101
-0.620592
-0.497384
-0.389868
-0.301555
-0.233968
-0.177157
-0.119946
-0.0573934
0.0195815
0.112461
0.218878
0.335318
0.45827
0.585162
0.717891
0.853735
0.993647
1.11697
1.3251
-1.15485
-1.17434
-1.0282
-0.931574
-0.807855
-0.694676
-0.573611
-0.466896
-0.370272
-0.28359
-0.21498
-0.153642
-0.0880721
-0.0215062
0.0556615
0.143984
0.242588
0.350623
0.466121
0.585225
0.713738
0.849086
1.00187
1.16232
1.4348
-0.972265
-1.08188
-0.920044
-0.84699
-0.728891
-0.631833
-0.515416
-0.422283
-0.338277
-0.253527
-0.190329
-0.13147
-0.0566724
0.0134359
0.0913816
0.178549
0.273417
0.376098
0.484682
0.594017
0.716833
0.841223
0.987783
1.14335
1.36576
-0.989025
-1.03546
-0.804646
-0.761622
-0.660235
-0.606654
-0.502893
-0.427993
-0.319175
-0.23455
-0.16463
-0.116974
-0.0542005
0.00781432
0.0934123
0.17822
0.271769
0.37513
0.508588
0.62418
0.73915
0.870074
0.995691
1.06165
1.20155
-8.46789
-8.86029
4.65676
5.06193
0.401453
0.251953
-5.37833
0.932181
4.3997
6.87202
-10.1897
0.742302
-12.6807
-1.02478
-13.5472
1.81295
0.843076
4.9568
3.42995
-36.6995
-33.841
2.49281
-6.2629
2.84207
0.772403
1.61194
0.726138
-0.595626
-9.92037
-2.61698
9.72514
2.04302
-9.19005
-18.6176
-3.56302
0.753525
-3.82812
-12.4323
-6.90342
3.56296
-11.6442
2.43206
2.00665
-0.574259
0.992487
3.3177
-10.7037
-9.59707
-10.032
-10.1744
-10.6278
-11.25
-25.6292
4.91546
-5.10471
4.40108
-1.0553
-29.772
-0.490216
-8.93421
0.915224
4.91277
0.399882
2.06367
0.885716
-0.671774
1.70166
2.77063
-7.18791
-10.2371
4.14358
2.9637
0.427329
-35.9012
0.0754297
-35.575
-34.8216
-10.7635
-0.936854
4.86489
-17.1508
0.956098
1.25475
-8.66012
0.609662
0.966271
0.47944
-10.8984
-9.85691
1.40623
2.13439
0.568563
2.85794
0.826496
0.325897
-9.90709
1.54794
-10.2211
2.38323
-9.00359
-0.206134
-11.9779
-0.259467
2.3065
-0.353643
-0.126051
-6.10681
-21.2853
1.44395
-1.7458
2.04529
1.1201
-3.29418
2.07034
-26.9963
-9.97631
-11.7637
4.2003
-18.5797
1.36152
1.74632
1.01828
3.01815
0.913717
-8.88513
2.02664
-11.418
-36.8383
-1.31935
-9.8363
1.32092
-35.937
-10.1726
-13.1186
-0.716707
0.461977
1.15511
-0.116254
1.08062
-36.3679
0.485243
-5.91589
-9.33216
1.77645
-10.0735
1.50821
4.98259
-35.086
0.953038
-3.55331
-2.53686
-1.74617
4.95435
-19.6683
0.641134
-9.5335
0.105783
3.59802
-32.5534
3.40424
2.11525
4.25459
1.41526
-10.2002
2.06181
-8.51378
-1.11324
0.473208
2.78809
0.0416887
-1.00103
2.21358
2.71817
-8.84077
0.947659
-0.481887
-27.7834
-9.99563
-9.54506
2.83967
-20.1836
2.32026
-22.4531
-20.5509
-0.170868
2.79586
-8.95197
1.38745
-10.423
1.26798
-9.4736
-9.43649
2.56375
-4.66811
-16.2003
-10.1778
0.117703
2.41045
-10.0192
-9.33771
-6.24293
2.6811
1.12036
1.10892
-2.47673
3.653
2.92321
-0.210579
-10.1509
3.57766
-0.385577
0.895186
-19.9245
-2.5868
-2.36026
-10.6523
0.122718
2.95766
5.23832
0.634257
-0.410087
2.46667
0.757807
4.9012
4.04673
-11.7846
2.03496
0.948051
1.43322
0.39707
-9.24626
0.845305
2.20839
1.42753
-7.006
4.88145
-31.5024
-0.588884
-21.4202
-17.3685
8.84122
0.864425
2.34456
-0.556662
0.391073
0.699547
1.97357
-0.0229909
1.66249
2.47194
1.47024
-0.481683
3.49145
-10.1896
1.83066
0.16375
-3.36341
-34.4259
-32.325
9.07519
2.11978
-1.33942
1.17675
0.502832
-35.7372
1.02558
3.60979
5.0331
-6.35261
0.515037
-32.0887
2.48825
2.27466
2.95873
4.08423
4.99763
2.24979
4.20929
-1.13358
-10.7337
-0.522307
-2.35785
3.06049
2.75039
-9.34211
1.27883
-0.264632
4.32126
-9.95292
-9.39127
-10.073
1.63689
2.22001
-10.4636
-12.4847
-10.6681
-6.37206
1.23188
3.30754
-9.57382
-10.1537
1.98031
3.46856
1.16457
-3.87977
2.77811
-35.3316
2.52289
-36.4959
1.12039
2.39498
1.4449
-10.7271
-1.23612
2.26023
-3.17279
-10.6953
3.38384
0.81943
-12.2553
-32.9107
1.48485
3.45501
9.6208
0.688584
1.05025
-11.8555
-24.0479
1.87042
-29.3113
1.87872
-16.3021
-0.439359
6.00244
-11.2987
0.919036
1.01662
1.28157
1.27655
2.52739
0.893588
0.639257
-9.46697
-0.320295
-35.6839
0.122345
0.0397312
2.35991
0.47554
-9.763
2.92417
3.09989
1.97228
-32.5409
-10.3994
3.9961
-9.11161
-0.915756
2.25755
-8.69972
-10.21
-6.06887
2.89596
-11.8955
2.4978
0.359613
2.23899
-11.1221
1.05182
-9.98798
2.73845
-20.7512
-9.7412
1.65714
-10.8228
1.24272
1.21764
2.31523
3.37347
5.52393
-5.97249
1.4786
-8.13285
-0.848212
-0.514401
-11.1628
2.23529
-36.6672
-10.0685
-9.30573
-3.93276
3.72677
0.439905
-2.23425
-20.0387
7.58694
2.37916
-7.68323
3.54061
-9.82842
0.838786
2.17605
0.556021
-9.36187
0.534292
2.82746
-6.02005
0.480002
-1.03782
4.32303
0.714623
0.940661
-9.45186
0.952657
1.58919
3.57757
-9.96963
-9.44471
3.57155
1.44508
1.88644
3.17163
1.43181
-0.33793
3.12885
-10.4516
1.30825
3.34695
2.94518
2.0805
0.780409
0.132614
0.529365
-0.880799
-7.27708
2.39909
1.42307
2.19567
2.31909
3.39386
3.26854
-17.6729
-10.2938
-1.04645
-12.3666
5.30683
-0.533467
2.87012
-0.488976
-0.979581
1.76022
2.1847
1.31615
-9.60817
2.21704
-10.2582
-8.39979
1.14212
2.17885
-35.8698
1.39109
-1.27226
0.6131
-19.2269
-10.4642
0.586469
-0.0984832
5.07738
3.11404
-9.12453
-0.568907
0.479675
-5.60359
3.47757
0.966972
-20.1165
0.631126
0.216354
-34.8007
-34.0964
-2.56249
-8.28385
2.65268
0.649079
-9.19455
0.503015
0.864701
3.74885
-4.08644
2.06493
-20.6798
1.745
1.13689
-1.86826
0.973225
-0.176628
-18.1855
0.91185
3.27554
-10.3187
2.01642
-8.69126
1.11695
-0.567726
-28.8648
-19.0964
1.41511
1.29353
-5.92979
1.72894
2.2755
-15.1495
1.40038
0.772707
2.81162
-11.1446
-4.0893
-9.80157
1.19085
-3.37324
1.77824
-9.67394
-36.6569
5.32154
-16.8243
3.99026
-10.5504
-11.2528
3.2558
3.22932
-0.337329
1.69485
4.96548
3.6067
1.2906
-1.22075
1.57473
-9.75615
-10.0214
1.64848
-12.9627
-1.34374
1.70632
-6.94008
1.9818
5.04808
1.38962
-0.455902
0.932173
4.00986
-6.42421
-8.7651
-1.31313
-10.1029
-9.82538
-10.5873
0.676065
1.81029
-7.98981
-10.4814
0.810523
-15.1555
1.40477
-17.6771
-2.92749
6.98375
-3.17521
-0.633582
2.19519
1.7779
-10.8798
4.62594
-12.9741
-0.100672
0.250033
-2.55089
-9.80994
-10.3063
-0.440754
2.08721
-35.9472
-25.9297
2.45236
1.65972
1.10181
-7.07875
2.33053
0.256783
-6.41534
3.81291
0.209369
0.528458
2.22721
-23.7511
2.32651
-0.639395
-19.9197
-9.99904
0.431522
2.33097
-9.43472
-0.578921
2.54758
3.54905
-36.5822
1.90942
1.15915
4.28962
4.28126
2.17823
2.23482
-6.25264
0.770317
2.71828
-0.259427
-27.4869
3.24838
0.0837009
5.1636
2.49367
0.591697
1.29078
1.13874
-1.88325
0.200448
-9.06685
-8.84912
-0.594051
-6.16729
-0.14603
0.328036
0.37881
2.72368
1.63414
1.39089
-28.5443
1.79612
0.902139
-1.68204
-25.9934
-3.30746
-0.881396
-0.690448
2.18645
0.388459
2.81817
2.11921
-0.795822
-9.16472
-22.7254
-32.3161
2.94191
5.4947
1.92032
4.2198
4.60923
-9.7714
16.9267
-36.3454
2.4841
-10.3189
4.74436
-10.4273
1.83253
0.466425
1.0569
-8.01023
2.77742
-0.644125
-26.2823
0.139538
4.81108
0.720427
-10.0216
2.59573
1.46266
-13.6901
0.784511
2.91821
5.15773
2.32787
-24.6049
3.41884
1.28726
3.59488
-0.876639
2.28531
-9.96628
-6.99258
1.86704
-6.6822
3.49748
-9.25691
1.20164
2.25478
2.42237
1.5842
-5.411
1.67637
2.31896
-0.448658
2.8656
1.77243
3.09538
3.77422
-8.90778
-21.2425
-2.25035
-10.0657
-9.88351
-4.62671
-3.89778
6.57398
0.162358
0.563158
2.82618
1.48326
-1.35026
1.64498
0.832352
-9.45849
-0.114479
5.30393
0.168788
2.29155
1.01827
0.756759
-2.04054
-20.9242
-8.03926
2.86576
-9.9131
-4.8655
-10.0578
-36.1806
-11.1047
-10.3315
5.019
2.94594
1.54252
2.59294
3.2823
1.27939
-13.1743
-9.19272
-0.128943
-33.4632
-0.743174
3.19225
0.840999
1.02573
-8.65566
5.06495
0.87978
-5.40308
-22.677
-21.5022
-10.5248
2.82924
2.82102
0.401403
2.65785
-9.18961
-1.77537
-6.03754
-21.3886
0.0420491
-24.0569
1.47433
2.8787
-0.321341
0.172579
-0.085441
3.42952
1.82796
1.68663
1.14968
1.42521
2.04643
1.20955
2.20399
3.615
-10.2384
-9.18902
2.31381
2.7241
2.06092
-36.173
0.653665
4.73386
1.41237
-33.316
-2.29495
2.69862
0.666977
-10.1191
4.98324
-33.9571
1.31619
-34.3769
-14.2929
-27.9157
5.28419
-14.0247
-1.21784
1.18874
-6.90188
2.3548
0.822492
1.44793
-9.99451
4.63861
2.06734
0.597616
-10.2804
0.414679
4.9656
0.948404
3.13617
2.1864
4.02101
-9.60358
-7.42396
2.48426
3.32801
2.6893
-34.5745
-6.98813
2.31397
0.643332
-0.130868
-32.2765
3.36708
1.09926
-8.78568
3.82892
1.17977
5.28634
2.66258
-27.2119
1.16358
-33.4867
3.39128
1.04502
-13.0869
2.73389
1.19015
2.72536
-0.463726
-30.7913
-11.0319
2.82231
3.43187
1.04646
-14.7127
-36.1821
4.73056
1.42036
-15.4292
-12.0482
1.36829
-0.218161
-0.235594
-9.48165
3.68512
-35.2765
1.82286
1.3802
-22.2172
1.47588
5.31371
4.86284
-35.9161
-9.99418
-9.06691
-9.18605
2.69023
-6.30604
-14.786
1.30232
-5.23085
0.724337
-0.229267
-35.9967
1.19513
0.462352
-35.745
5.09932
3.23106
3.0814
-9.38989
-1.23913
1.59434
-26.0649
-9.81854
-10.4464
0.388782
1.5674
-9.68479
-5.15294
-13.4733
-26.9283
-9.34025
-1.85756
2.7536
-3.41059
-9.60713
2.91188
3.3116
-1.80173
1.43151
1.94186
-3.18827
-7.57328
1.88638
-0.0694155
1.30894
-9.18268
-5.21676
-10.1448
-10.0504
4.16299
-0.61214
-3.11611
1.18855
-9.27621
-26.6492
2.78164
1.09141
1.1388
2.92715
-34.0321
-9.23379
1.08256
-9.69001
0.875517
-31.206
1.4509
0.737336
0.967825
3.33471
-10.4596
-0.741363
-31.4545
1.71572
1.85633
-9.33743
3.75282
-8.3853
-13.4373
-1.16983
1.12244
3.0546
-8.49236
1.43629
2.76612
0.909913
-2.10458
1.56025
-0.305839
-31.2078
-6.58033
-0.141676
1.50114
2.70124
2.44503
-0.193584
2.27075
-29.7432
2.65656
1.44904
-9.61552
-36.3537
3.01978
1.50341
2.07055
-3.25002
3.07194
-9.99846
0.266349
-0.1935
-2.81217
1.40539
1.58719
-1.84191
0.377314
-10.1587
5.19851
3.2884
2.59575
-6.04928
-6.07602
-11.7395
0.812868
-33.5798
1.79765
2.66318
1.64971
-9.80961
-20.4291
2.76084
-0.688194
3.3706
-9.78176
1.27962
-10.0048
0.463082
0.672223
2.84449
-3.30098
-11.1432
1.35068
0.981194
-35.9962
3.13396
0.279334
0.924955
2.57393
1.34887
-9.97755
2.05902
1.43428
-24.8047
-0.387213
-9.3065
2.94662
-1.04601
2.10755
3.82191
2.84348
-0.140907
-8.7601
3.81052
-0.901463
3.15822
1.09935
-3.66534
-9.65171
1.76216
1.30175
1.53243
2.70696
3.55959
3.28795
-9.6067
4.95316
-35.9176
1.67245
-10.1638
-2.70701
-0.3999
-35.8052
1.53488
-9.90242
-6.49476
-9.38163
1.02383
1.18289
-0.35812
-10.3061
2.91419
4.97071
2.74732
1.50457
-0.436196
-0.703978
3.34059
-0.0120929
5.34212
10.0813
3.59322
-9.64324
6.56313
-10.1217
3.66405
2.16961
2.64032
5.67204
-23.5095
3.33035
-35.9977
-26.7854
0.636548
2.70165
-10.1112
-10.0779
2.99447
3.37298
3.04242
3.3208
4.75595
-0.357665
-10.3764
1.53313
3.75818
-17.6945
0.961519
-2.43167
-11.6132
2.45552
0.536329
2.67679
-0.478988
-24.0081
5.11372
-34.0785
-0.583679
-0.323655
6.58139
-12.0403
-12.1942
2.16025
4.62619
-33.3779
3.21775
-0.237886
-1.07117
-9.77981
3.42571
4.08197
3.23273
-0.670738
-9.21521
0.374368
3.26806
-8.6145
-9.69628
2.87048
2.32666
-0.00528151
4.47686
2.2846
-22.4882
0.864057
-29.2603
0.986258
1.62716
0.777047
-25.6615
2.12623
-9.34616
-0.165771
-0.797083
-8.64908
-11.6684
5.25425
1.80761
-11.7999
-25.4725
1.20208
3.17761
1.09431
-0.259111
2.13901
0.876448
1.28485
1.73572
-0.153822
-0.45004
-11.1658
-0.182016
1.48998
2.40133
-9.53218
2.93112
-10.0204
-10.1793
-0.0866038
2.29832
1.56317
2.61948
1.39926
-32.537
5.04376
2.0243
1.07096
2.7235
-25.1094
-12.056
1.92521
1.63269
-0.021268
2.86665
0.572332
-0.555539
4.18806
-0.132806
-1.27052
-10.1267
2.33557
2.23471
3.16219
1.29069
0.963804
2.5482
4.9331
1.59624
3.18317
-11.8806
1.67112
5.35066
-9.87504
0.535895
-3.20884
-9.68102
2.47324
1.19887
2.11542
-14.7521
1.83005
-17.9696
2.01616
-10.5061
-9.77666
-36.6417
-10.1443
3.44258
0.92431
-35.7568
-32.4577
0.0110895
2.59693
3.40638
-7.63548
1.92019
2.2744
3.22935
3.44473
-3.77813
3.32777
0.222102
2.98215
-10.2913
-36.0731
6.37464
4.34489
6.76099
2.22486
1.11191
-1.50505
4.03706
-0.363619
-8.83961
-36.3448
2.67709
-33.2672
-9.68785
-36.3661
-9.93494
-1.27088
-15.146
-11.4149
-9.35438
2.85216
-9.8719
3.1206
4.13717
4.36861
0.644163
-13.9024
-19.6075
-10.3938
-19.5728
-0.371537
2.03378
-5.54176
-10.6691
3.90778
-11.7914
2.809
-36.4188
1.73996
-10.1616
-2.5297
-0.336005
1.23915
-36.5102
1.10676
-1.90643
-36.3201
2.41013
-10.1275
1.54845
1.92299
-8.68708
-5.35731
1.54152
-23.307
-14.734
4.46157
-26.5099
3.9704
0.991225
-0.481492
-0.19048
-9.73494
-15.2779
2.95585
-11.4756
-1.00452
-31.0662
3.91451
1.56392
2.14885
-31.7913
-3.25874
-27.2888
1.91363
-9.77453
0.359844
-25.949
-11.7391
-2.26402
3.18429
-13.7084
2.51066
1.67207
2.53298
-31.425
-10.8094
0.910983
-11.1564
1.91232
1.20402
-5.7015
1.95929
0.888479
-14.9247
2.65124
2.59286
3.91743
1.06033
2.27643
4.1583
-8.80764
-10.3823
1.33525
3.72905
1.64639
-14.5815
-10.6363
0.956209
-1.41454
-0.264763
-11.9078
-1.46049
-2.55703
-10.2909
0.722885
-25.3134
-11.8026
0.854901
1.01549
3.57303
3.99551
0.703669
1.84246
-0.0186085
-0.528565
-10.6915
2.04147
-11.7271
0.752277
-10.9035
2.31099
-20.8306
-2.21081
-35.8185
-10.1372
0.0144866
-1.40589
2.28141
2.32777
2.08033
-10.0031
-9.68939
1.61498
2.55141
2.50518
2.68443
0.907947
1.58789
-10.2755
-9.56526
-35.7479
-11.8567
3.44941
0.6466
-17.7829
3.36776
-10.2003
2.66197
0.906014
-0.29881
1.6503
0.964462
2.30948
0.984394
-1.97229
-8.57296
-10.362
2.25285
1.19473
-34.2424
3.9769
1.16953
-3.041
-9.19408
-9.3461
1.853
-36.2909
1.26257
3.45675
3.06446
0.746152
10.6113
-1.00938
-4.25962
1.88116
-0.375482
-36.3495
2.02953
-10.6486
-9.26462
2.04727
-1.12835
3.30383
-0.244902
-19.4203
-0.068712
-10.1487
-0.301038
1.8401
-0.251474
3.87829
-0.824884
3.59806
1.96018
1.87585
0.655408
1.685
-25.146
3.06112
0.253343
1.36821
1.99949
2.78133
-0.248629
1.31523
2.88876
-10.5209
1.5292
-10.594
5.53307
-32.8425
2.68362
3.40644
0.894359
0.624357
-9.97604
2.50802
2.09499
3.68931
-0.225119
4.56026
4.47418
4.29885
2.81652
-7.57976
1.05632
1.53933
-11.9578
1.06022
4.11593
1.71433
-5.73391
1.72587
-10.4902
-10.0619
3.32935
5.03901
2.87629
2.65477
-11.1197
3.23981
1.56277
2.27956
-24.3405
-0.10674
3.22954
0.453694
-8.72792
0.271294
-0.00985191
1.45478
-9.56817
1.60398
2.62725
-15.2076
1.80459
-3.61626
-10.75
8.51864
-18.4981
2.10065
1.76229
3.66821
0.947349
2.11256
-9.55972
2.0955
4.91923
-11.0503
2.1862
3.23282
3.52264
-0.647412
-6.33746
0.672475
0.492442
4.9267
1.64391
0.448019
1.6517
-0.279574
3.38344
-0.498646
-22.2945
0.600831
-12.8924
0.0421273
-34.1415
-10.5308
-35.3081
-9.4901
3.64408
2.5468
-25.5498
2.92534
2.1742
-9.99183
1.64935
5.23411
-10.4025
-13.5746
2.10449
-9.47686
0.343534
-10.2635
0.131195
3.42929
3.62657
-0.497301
-33.8116
2.12079
3.32086
-1.09906
1.06467
-16.475
-0.292491
0.911857
-8.90793
-0.568789
-10.5353
-0.734201
-11.5397
1.95155
3.97803
1.65793
2.58468
-29.9608
-9.09331
-33.3485
0.366163
-9.11764
-29.2526
3.9189
-36.3793
-2.76148
2.87006
-34.829
-9.92074
2.98791
-0.257255
0.243933
-11.6611
0.765978
3.0092
-30.5193
-30.2028
-0.727218
-11.6707
-20.0502
1.22143
-0.358188
-5.62439
-0.13584
-34.8092
-0.206253
2.22688
1.0091
-1.89137
0.544491
-2.82564
-10.5772
0.645131
-4.27573
2.35774
2.01092
-10.4773
2.42525
-35.8614
2.77761
1.0779
1.50251
4.84009
1.31251
1.75952
3.4616
0.0352185
3.4479
-10.237
-31.8971
1.14021
-36.2344
0.656308
1.00751
1.99004
2.05191
1.73288
-14.1435
3.03869
-4.66881
-10.6082
-10.7001
-35.0145
3.79693
2.5001
-9.74772
2.29399
1.81018
1.81544
0.805826
1.54121
-9.49811
3.21715
3.60602
0.762105
-0.240865
-0.540626
-9.25135
-3.6254
-3.13432
-5.12504
1.27723
0.990483
4.77994
1.55563
0.728571
1.29625
-0.270705
1.10809
7.01888
2.6958
3.01504
-4.68227
-10.7957
-12.6497
-0.214282
3.81218
-3.49497
-9.35095
-10.0362
0.331662
1.28647
-0.803552
2.69427
0.755645
-0.24497
-9.60316
-3.72098
0.907933
1.63641
2.04953
-0.346634
-10.4759
0.15263
2.10893
1.14948
1.57592
-10.1769
3.40524
-19.0431
3.57015
-0.0407005
-0.324554
2.57113
-10.1017
-2.57106
2.06042
-11.9292
-33.3236
-0.9513
2.9801
1.69945
-26.7252
-11.5377
-11.8874
1.07647
-36.1988
2.78598
6.38394
-1.28055
-9.97177
0.83778
1.14225
-4.25485
-8.43312
4.60449
0.432701
-9.90072
0.950476
3.79183
2.39103
3.26314
4.89799
3.91649
2.66379
3.51481
-8.91616
3.18288
0.625383
0.332359
1.22114
-2.23062
0.0636048
-27.9367
-3.20705
-3.68756
3.08644
1.90316
3.26269
3.28675
1.90916
0.948433
-31.6645
3.67177
0.181404
3.83637
4.01244
1.64193
-0.179862
3.47859
-9.58154
0.789366
-34.3114
2.02621
4.85349
2.43162
2.15622
2.41445
-10.5618
2.5232
0.312513
3.34256
4.01254
-28.7684
1.15276
2.53193
-5.04043
-11.0241
0.667928
-10.1264
3.36917
-32.4093
2.83393
-9.47417
3.14957
-4.36003
1.24695
-10.531
-0.520985
-20.6363
-9.26042
-9.81039
-1.49116
-11.9177
1.15692
0.0881264
1.05189
-10.4148
3.30006
-0.00800826
-36.1271
-9.98882
-9.64481
3.59438
-11.987
-0.271913
2.1478
0.846761
-2.93784
3.50988
-12.8867
1.95156
1.7018
4.22959
3.07124
3.07228
-8.07976
2.55957
3.1405
-10.1399
-3.15344
0.316558
1.24547
-9.60828
1.94739
2.23212
-11.2113
3.36137
3.49472
-5.80891
2.29414
-0.275515
-36.6357
1.27316
2.94562
2.98804
0.771675
3.38806
1.91754
-10.7626
0.522486
-18.7238
-0.786902
-0.33744
-10.0295
-0.49752
-1.21086
3.39027
0.365109
1.65386
0.529773
-12.4467
-9.13889
2.63699
2.07613
1.48031
-24.9955
-0.0620209
-3.30894
0.560707
-0.364066
1.73934
3.11207
-3.59165
-0.158071
-24.6676
-30.4631
2.72829
-20.7234
3.79434
-33.9924
-2.97852
0.833318
2.12611
0.0387417
2.18855
1.88825
-23.9732
2.15365
-4.70334
-9.98177
-36.1532
2.29036
0.541387
-6.37188
0.678598
-6.2084
-11.868
2.16297
-9.71482
-35.0395
-9.20617
3.47155
0.566661
1.25524
4.93842
-9.47738
3.09821
-10.7215
3.13927
3.50949
-0.571021
-9.98388
-28.8414
1.28478
3.2219
3.96461
2.8866
1.97949
-3.69764
-35.5245
2.10542
0.983166
-10.6169
3.25585
-32.0002
1.94397
1.57115
3.64908
-10.0808
2.38032
1.27877
2.60861
2.79143
-0.589103
1.77118
-9.85105
-0.408333
1.33801
2.08174
1.16539
-35.798
0.494369
0.240167
-13.1647
-10.2394
-0.307779
-33.3377
3.61486
-9.77314
-35.9435
3.3205
-0.581212
1.82058
1.66741
0.286315
-18.1144
-2.62216
8.63897
0.81898
-11.3272
1.97804
-9.37168
-35.0099
-1.89184
1.9337
-6.84848
-0.274142
0.926432
1.25932
3.39047
-35.7742
-10.1279
2.38335
-33.0162
0.697502
-34.468
4.25071
-9.68224
-11.3573
-9.60904
4.67959
-0.614496
3.36009
-0.21351
-35.4476
-9.67785
3.14705
-3.27599
0.39061
-10.5601
2.44687
-5.80356
2.10773
-9.6091
-0.347925
-29.7588
-0.862648
-5.85696
-10.3436
2.81256
-0.0928127
2.02305
4.45572
1.70081
-7.41753
3.48468
1.62137
-31.5624
0.34208
-1.49491
-0.520738
2.46237
2.32966
-33.8762
-10.9926
-0.814953
-27.4856
1.32608