/*--------------------------------*- C++ -*----------------------------------*\
  =========                 |
  \\      /  F ield         | OpenFOAM: The Open Source CFD Toolbox
   \\    /   O peration     | Website:  https://openfoam.org
    \\  /    A nd           | Version:  10
     \\/     M anipulation  |
\*---------------------------------------------------------------------------*/
FoamFile
{
    format      ascii;
    class       surfaceScalarField;
    location    "800";
    object      phi;
}
// * * * * * * * * * * * * * * * * * * * * * * * * * * * * * * * * * * * * * //

dimensions      [0 3 -1 0 0 0 0];

internalField   nonuniform List<scalar> 
16133
(
1.86946
0.101025
-0.28699
-1.68374
-1.48188
0.675397
-0.850118
1.65658
-0.454503
-2.25876
1.70397
1.00929
-0.337712
0.167735
-2.69679
2.86674
-0.556783
-0.258323
3.78499
-2.96996
4.48114
1.47595
-5.58147
-0.375631
-2.30306
0.753752
1.38146
0.167858
0.00598134
-2.15101
0.518939
1.62609
-1.24764
1.93254
1.27978
-1.96468
0.592665
3.19363
-0.235226
-3.55108
2.05005
-1.84734
0.6335
-0.836234
2.81756
-0.857181
0.754902
-2.71534
-0.0735081
-3.39911
1.99258
1.48005
0.993083
-0.861449
0.490173
-0.621819
1.10184
0.532198
-0.640968
-1.11678
0.806953
-2.34647
2.65628
-0.549276
0.419895
-0.732078
-4.72757
1.23586
3.62179
-0.130051
-3.38101
2.81788
-0.684515
-0.0336962
2.06254
-0.159379
-0.434334
1.80817
-1.50917
0.135326
-0.484844
-2.64489
2.792
-2.5769
2.61228
-1.15217
4.20664
-3.34522
0.0658756
-0.927281
-3.14158
3.83046
-0.0962167
-0.00265439
0.00407788
-0.0649319
0.0635077
0.0164468
-0.0063498
-0.0115477
0.0014501
-0.234966
-1.64216
1.517
0.360121
-0.0327052
0.0573123
-0.048877
0.0242701
-4.01541
2.48148
2.11079
-0.610115
-3.32935
1.82869
-0.794155
0.722281
2.12191
0.704615
-1.95311
1.25448
-0.0147581
0.178611
-0.035786
-0.128067
-1.96234
-1.92603
1.96248
1.92587
-0.96122
0.895777
1.0869
-1.02147
-1.57297
-2.87025
2.48087
-0.0245563
0.0734767
-0.0856299
0.0367094
0.0418996
0.0824121
-0.0222579
-0.102054
-3.19568
0.590675
-0.775997
-4.07775
-0.172888
-2.26671
-0.490856
-0.86688
-0.220505
0.019125
1.06825
-0.205754
2.4354
-0.00847296
-2.22118
2.79164
-1.22727
-3.13734
1.8881
-0.877153
0.674729
-0.271352
-0.415041
-0.259925
0.577547
0.0974146
1.54882
0.856851
-0.473127
2.77968
-2.63047
-0.634074
-1.11727
-1.46808
-3.73553
3.8624
-2.6527
2.52588
0.113326
0.0417262
-0.113153
-0.0226873
0.0352323
0.0614953
-0.0740402
-0.0155671
0.0459118
0.0520675
-0.0398143
-0.0240219
0.0311315
2.68445
-1.38197
-4.17272
-0.0319843
-0.0654101
0.0975114
-0.000117422
-0.580107
0.859678
-0.426156
0.146579
2.64652
0.0692929
0.0175032
0.0265301
0.720321
-1.26518
-0.937037
0.0558594
-0.0331963
0.0310429
-0.0537064
1.72393
-3.05362
2.65946
-1.32974
1.35947
-1.14473
-2.60114
1.78157
-1.43919
-0.479198
-0.129406
0.0284974
0.0600841
0.233455
-0.0773906
-0.216151
0.675035
1.65207
-2.77226
0.400844
-0.973792
0.0358152
0.00963987
-0.0681424
0.0881562
-0.0184316
0.00652457
-0.0762489
-0.907322
0.356091
1.46659
-0.915359
1.45219
-2.28517
-1.76817
0.476603
-0.807668
1.4329
-0.679682
-0.98177
0.922866
0.738573
-3.01942
1.22536
-0.978196
-1.34304
0.879826
1.21697
-1.27601
1.21466
0.765978
1.33983
-1.22856
0.365323
3.03461
-2.8892
0.681905
-0.827349
1.74471
-1.57533
-0.219319
0.0499389
0.0547475
0.111072
-0.124093
0.042157
0.0730153
-0.07994
3.37617
0.561043
-0.902624
-0.953336
0.763102
1.21026
-1.02003
1.54909
-1.36982
-0.746509
0.567246
2.33897
-2.10583
-0.438905
0.980988
-0.553764
0.346304
-0.77353
1.72245
-0.664231
0.490869
2.61418
0.146686
-0.421905
3.23778
-0.45589
1.90858
-0.0628508
1.20022
-0.752682
0.533451
1.92022
-0.526546
0.328775
-1.11395
-0.800608
1.11669
2.6923
-0.571254
0.799091
-0.637938
-0.968827
0.863808
-0.255711
0.251575
-2.43366
2.67497
-0.717994
0.476624
1.01551
-0.770188
3.46022
-3.26397
0.611881
-0.808194
0.593495
-0.445477
0.259861
0.45633
3.72331
-0.719408
-0.114712
2.05488
-0.179995
0.632474
-0.742004
-0.0490763
4.38477
-0.959566
1.37743
-0.356341
0.318728
0.326085
-2.43282
-0.523746
-2.93119
-0.889605
-1.45026
-0.276443
0.151372
-0.318443
0.24561
0.323657
-1.64065
-2.43352
-0.697117
2.50685
0.865218
1.35952
-1.93496
-0.637166
2.13322
-2.64944
-0.499326
2.45161
1.59835
1.45573
-0.547272
0.603454
-0.264318
-1.01882
1.51127
-0.815984
-0.817654
0.55473
1.45867
-1.19576
-1.97565
2.18437
0.768807
-0.977563
-0.0439731
0.107041
0.00549713
-0.0685656
-0.67515
0.733698
0.968329
-1.09858
3.43834
-2.83149
-0.0479248
0.0430769
-0.0106808
0.0155289
1.07081
-1.15478
-1.77934
-0.990463
-1.81949
-1.08026
0.383902
-0.0164547
0.0853998
0.0192114
-0.0621259
0.134745
0.0969302
-0.16955
-0.622635
0.714448
-1.20577
-0.553377
2.84883
-1.70505
-2.21512
-0.226881
-0.0465869
-0.106002
-2.36028
3.2438
-0.0030992
-0.156347
-0.319751
-0.65045
1.63467
-3.33713
2.35294
2.87108
0.96763
-0.993044
0.678408
-0.653006
1.14271
-1.21062
0.832306
-2.84389
-0.743682
0.811044
-0.616648
2.20997
0.851631
-3.71208
-0.450816
0.107664
-0.0718905
-1.03686
-3.48245
1.83851
-1.63463
2.68739
1.15725
3.61523
1.72312
-0.135416
0.0256708
0.258363
-0.148618
2.51018
0.627667
-0.953518
0.738884
-1.41281
0.827923
1.61026
-1.02541
4.00726
0.95096
-1.7978
-3.16042
-0.961168
0.371075
-2.34481
2.61119
3.14168
-3.11725
-0.0735521
-0.23469
1.31125
2.40839
2.62825
-1.79224
1.41404
-1.57491
-2.7818
-0.388631
2.67107
-2.38223
1.58973
-1.03274
1.82523
-2.99708
-3.39373
-0.144095
-2.25859
0.408883
-0.501795
-0.814409
0.00902218
-0.001789
-0.00322293
-0.0040106
-0.281767
0.611457
2.80019
-2.74876
0.800181
-1.19811
-1.06484
-0.994273
-0.622253
0.576843
-0.187354
0.232754
-2.24596
-0.41375
-0.070315
0.121019
0.00660804
-4.24395
-0.505209
-1.79636
0.901822
0.0936821
-0.0683626
-0.770714
-0.947811
1.81399
-2.20922
1.80405
2.5928
2.35971
2.38505
-1.78651
0.13364
0.0563313
-0.135223
-0.0563469
-0.0080325
0.876563
-1.1836
0.512339
-0.933403
1.61652
-1.8893
-0.617314
0.796488
-0.769905
-1.00281
-0.0255821
1.49386
1.12713
0.125499
0.0221586
-0.172214
-2.20031
1.89184
0.166991
-0.901505
1.04092
-1.64881
2.33766
-0.36523
-0.608137
0.0442403
0.0772335
-0.0656146
2.94484
-0.234682
0.0349527
-0.251088
1.79776
1.01688
2.87968
0.0075882
0.0178805
-0.742168
0.931387
-0.391203
1.38401
0.128704
-0.116544
-0.153982
0.141821
-0.0528344
0.0501799
0.322534
0.0672438
-0.0850553
-0.0525034
0.660603
-0.343917
0.260149
0.287825
-0.0910127
-0.199911
0.732544
0.171665
-1.18598
-0.0268479
-0.0809954
0.137945
-0.0301015
1.63685
0.0517624
-0.0563252
0.00456297
-0.573813
-0.969624
2.44583
-3.2493
0.938724
0.768172
0.399895
-0.397911
-0.189341
-1.62348
-0.00107213
0.797553
-3.32904
-0.0428467
0.0485458
0.0156355
-0.0213346
-0.327188
-3.30929
-0.0825852
-0.0176393
0.0733763
-2.51382
-0.394632
-1.91036
3.59496
-2.0079
-0.0285338
-0.122422
0.06996
0.213238
-0.27437
0.189836
-0.0243388
-0.0515055
0.0360305
-0.678279
1.41782
-0.660712
1.38894
0.835774
-0.60819
0.0131555
-0.0251512
0.0119957
-1.02942
-1.10575
0.0265704
-0.0398861
0.0133164
1.26938
-2.95068
0.787429
0.793537
-0.356239
1.03857
0.0223212
0.00424933
0.288452
-0.156861
-0.178654
0.308475
0.11157
-0.424253
1.53182
-0.370179
-0.565143
2.66422
0.152541
-0.0602126
0.041311
-0.0172221
0.0902022
-0.645747
0.862473
-1.57047
-0.336742
1.52426
-0.392316
2.69852
0.0456106
0.00456862
0.117817
-2.47487
0.902312
-0.506159
-1.48324
1.05505
0.683688
0.18344
-1.50811
1.43862
-0.152631
-0.0333656
0.0694527
4.08772
-0.0718927
0.0411646
0.0869115
-0.0859191
-0.113963
0.166448
-1.00532
0.136944
0.0283155
-0.0941507
0.0293768
0.033
-0.0623768
-0.371235
-2.21244
2.93361
-0.36341
0.30126
0.129103
-1.37514
0.00784393
0.00531141
-0.797018
-2.92667
0.256122
0.0393909
0.0939025
-0.0921289
-0.297087
-0.145184
-0.00781907
-1.14714
-0.0859181
-2.30623
-1.23336
-0.0105092
0.1238
0.21176
-0.167647
-0.606575
-0.0246
0.01389
-0.0224864
0.0569241
0.146036
-0.146629
-0.201942
-1.63672
-2.31439
0.0420699
0.00354048
0.0824141
-1.39891
0.0198449
0.930962
0.00514762
0.0171169
0.058875
0.0783937
-0.0978779
0.363721
0.121873
0.00668113
0.033765
-0.0447871
-0.0139924
0.0111625
-0.135171
0.208738
-0.109353
-0.00829219
0.0143471
0.0431212
-0.00105144
-0.00130081
-0.00192252
0.121715
0.0215571
0.00239529
-0.00831704
-0.157833
1.26638
-0.909321
0.857606
0.0270636
-0.10336
-0.00827249
0.133601
-0.259627
-0.402789
0.656105
0.411073
-1.01164
-0.934617
-0.0231588
0.0331487
-0.0426701
0.0226099
-0.0605068
-0.0156336
0.0193371
-0.00266469
-0.000230874
0.0433522
-0.0424793
-0.0500532
1.36535
-0.010032
0.0353198
-1.46255
0.318951
-1.22314
-0.467929
-0.0701718
0.00463922
-0.0129118
-0.0359435
0.0146485
-0.040814
0.0504368
-0.0105165
0.383735
-0.526588
-0.716451
0.535164
-0.0241226
-1.01466
-0.326878
-0.0653499
-0.0321307
-1.03554
-0.917108
-0.0188335
-0.0451166
0.0246391
0.10876
-0.388131
0.0361493
0.017828
-0.040168
1.1216
-0.0149554
0.0266604
-0.00581393
-0.0938949
2.83088
-0.126194
-0.208794
-0.681132
-0.182036
-0.629897
-0.00480833
0.125928
-0.121118
-0.0090674
0.132028
-0.127769
-0.0133486
0.143993
-0.139712
-0.0179635
0.153925
-0.14931
-0.0228305
0.163689
-0.158822
-0.0281139
0.172469
-0.167185
-0.0337662
0.181045
-0.175393
-0.0399117
0.189302
-0.183157
0.197495
-0.191162
-0.0462445
-0.00385771
0.129786
-0.00781001
0.135981
-0.0116544
0.147837
-0.0157696
0.15804
-0.0200487
0.167968
-0.0247108
0.177131
-0.0297114
0.186046
-0.0351099
0.194701
0.203256
-0.040871
-0.00332287
0.133109
-0.00673238
0.139391
-0.0100915
0.151197
-0.0136558
0.161605
-0.0173877
0.1717
-0.0214243
0.181168
-0.0257554
0.190377
-0.030407
0.199352
0.208226
-0.0353768
-0.00293954
0.136049
-0.00578799
0.14224
-0.00860929
0.154018
-0.0115982
0.164594
-0.0147619
0.174864
-0.0181887
0.184594
-0.0218761
0.194064
-0.0258516
0.203328
0.212524
-0.0301492
-0.00258451
0.138634
-0.00486234
0.144517
-0.00712024
0.156276
-0.00952985
0.167003
-0.0121121
0.177446
-0.0149332
0.187416
-0.0180048
0.197136
-0.0213505
0.206674
0.216159
-0.0249861
-0.00211198
0.140745
-0.00384548
0.146251
-0.00555558
0.157986
-0.00739176
0.168839
-0.00939036
0.179445
-0.0116048
0.18963
-0.0140392
0.19957
-0.0167139
0.209349
0.219097
-0.019651
-0.00135742
0.142104
-0.00263599
0.14753
-0.00384924
0.159199
-0.00515094
0.170141
-0.00657232
0.180866
-0.0081666
0.191224
-0.00995481
0.201358
-0.0119442
0.211338
0.22131
-0.014157
-0.00036548
0.142469
-0.00128001
0.148444
-0.00203516
0.159955
-0.00280902
0.170915
-0.0036571
0.181714
-0.00463833
0.192205
-0.00576938
0.20249
-0.00706712
0.212636
0.222732
-0.00848973
0.000540676
0.141928
4.13598e-05
0.148944
-0.0002099
0.160206
-0.000438325
0.171143
-0.00070054
0.181976
-0.00105252
0.192557
-0.00152953
0.202966
-0.00213243
0.213239
0.223478
-0.00287812
0.00115329
0.140775
0.00118596
0.148911
0.00153563
0.159856
0.00190938
0.170769
0.00226172
0.181624
0.00252485
0.192294
0.00268228
0.202809
0.00271464
0.213206
0.223556
0.00263626
0.00150229
0.139272
0.00218501
0.148228
0.00321539
0.158825
0.00421774
0.169767
0.00518254
0.180659
0.00604821
0.191428
0.0068119
0.202045
0.00744864
0.212569
0.223061
0.0079437
0.00179048
0.137482
0.00323492
0.146783
0.0049206
0.157139
0.00651468
0.168172
0.00803426
0.179139
0.00947069
0.189992
0.0108016
0.200714
0.0120357
0.211335
0.222018
0.0130785
0.00246054
0.135021
0.00460796
0.144635
0.00675433
0.154992
0.00879829
0.166128
0.0107805
0.177156
0.012689
0.188083
0.0145202
0.198883
0.0162561
0.209599
0.220368
0.0179067
0.00344634
0.131575
0.00612666
0.141954
0.00859492
0.152524
0.0109758
0.163747
0.0133125
0.174819
0.0155898
0.185805
0.0178056
0.196667
0.0199373
0.207467
0.218314
0.0219908
0.0042953
0.12728
0.00745581
0.138794
0.0102148
0.149765
0.0128623
0.161099
0.0154702
0.172211
0.0180421
0.183233
0.0205598
0.194149
0.0229924
0.205035
0.215956
0.0253498
0.00474495
0.122536
0.0083253
0.135213
0.011358
0.146732
0.0142569
0.1582
0.0171068
0.169361
0.0199178
0.180422
0.0226727
0.191394
0.0253444
0.202363
0.213366
0.0279347
0.00447642
0.118059
0.00847383
0.131216
0.0118207
0.143385
0.0150095
0.155011
0.0181134
0.166257
0.0211529
0.177383
0.0241037
0.188443
0.0269594
0.199507
0.210658
0.0296669
0.0036192
0.114441
0.00786711
0.126968
0.0115921
0.13966
0.0151164
0.151487
0.018497
0.162876
0.0217621
0.174117
0.0249034
0.185302
0.0279088
0.196502
0.207812
0.0307546
0.00284537
0.111596
0.00702343
0.12279
0.0109848
0.135698
0.0147873
0.147684
0.018424
0.15924
0.0219122
0.170629
0.0252456
0.181968
0.0284265
0.193321
0.204774
0.031465
0.00242691
0.109169
0.00635741
0.118859
0.0103561
0.131699
0.0143094
0.143731
0.018125
0.155424
0.0217913
0.166963
0.0252907
0.178469
0.0286073
0.190004
0.201654
0.0317271
0.00226877
0.106899
0.00597479
0.115153
0.00990597
0.127768
0.0139014
0.139735
0.0178246
0.151501
0.0216309
0.163156
0.0252888
0.174811
0.028754
0.186539
0.198442
0.0319648
0.00234563
0.104554
0.00590443
0.111594
0.0097362
0.123936
0.0137017
0.13577
0.0176801
0.147522
0.0216037
0.159232
0.0254256
0.170989
0.0290658
0.182898
0.195015
0.0324934
0.0027605
0.101793
0.00616894
0.108186
0.00987208
0.120233
0.013765
0.131877
0.0177749
0.143512
0.0218182
0.155189
0.0258524
0.166954
0.0297185
0.179032
0.191509
0.0332242
0.00348356
0.0983095
0.006693
0.104977
0.0102449
0.116682
0.0140778
0.128044
0.0181301
0.13946
0.0222959
0.151023
0.0265946
0.162656
0.030731
0.174896
0.18835
0.0338896
0.00415886
0.0070819
0.0106106
0.0145611
0.0187976
0.0231923
0.0280154
0.0333612
0.0396746
-0.103415
-0.00111142
0.104526
-0.102119
-0.00129583
-0.100607
-0.00151234
-0.0988421
-0.0017646
-0.0967949
-0.00204719
-0.0944348
-0.00236011
-0.0917359
-0.00269898
-0.088682
-0.00305395
-0.0852597
-0.0034222
-0.0814732
-0.00378664
-0.0773341
-0.00413904
-0.0728653
-0.00446883
-0.0680936
-0.00477161
-0.0630467
-0.00504696
-0.0577621
-0.00528435
-0.0522779
-0.00548423
-0.046639
-0.00563871
-0.0408908
-0.00574825
-0.0350839
-0.00580677
-0.0292738
-0.00581001
-0.0235265
-0.00574717
-0.0179266
-0.0055998
-0.0125647
-0.00536183
-0.00747044
-0.00509413
-0.00254462
-0.00492569
0.00237265
-0.00491719
0.00744243
-0.00506961
0.0128066
-0.00536405
0.0184572
-0.00565043
0.0242657
-0.00580836
0.030125
-0.00585916
0.0359656
-0.00584043
0.0417405
-0.00577466
0.0474032
-0.00566256
0.052908
-0.00550459
0.0582129
-0.00530474
0.0632763
-0.00506311
0.0680569
-0.00478049
0.0725216
-0.00446448
0.076642
-0.00412039
0.0804051
-0.00376285
0.0838113
-0.00340619
0.0868901
-0.00307858
0.0897154
-0.00282535
0.09237
-0.00265428
0.0949265
-0.00255652
0.0974278
-0.00250102
0.0998949
-0.00246707
0.102325
-0.00243002
0.104703
-0.00237745
0.107011
-0.0023083
0.109229
-0.00221765
0.111343
-0.00211323
0.113333
-0.00199057
0.115189
-0.00185502
0.116898
-0.00170942
0.118454
-0.00155599
0.119862
-0.00140782
-0.00125627
-0.0992421
-0.00271317
0.100844
-0.0974952
-0.00304269
-0.0955943
-0.00341328
-0.0935273
-0.00383151
-0.091289
-0.00428558
-0.0888664
-0.00478265
-0.0862561
-0.00530932
-0.0834471
-0.00586301
-0.0804353
-0.00643409
-0.0772139
-0.00700804
-0.0737758
-0.00757729
-0.0701119
-0.00813269
-0.0662108
-0.00867279
-0.0620732
-0.00918464
-0.0576982
-0.00965937
-0.0530919
-0.0100906
-0.0482654
-0.0104652
-0.0432351
-0.0107786
-0.0380168
-0.0110251
-0.0326293
-0.0111975
-0.0270833
-0.0112932
-0.0213667
-0.0113164
-0.0154397
-0.0112888
-0.00927377
-0.01126
-0.00292627
-0.0112731
0.0035002
-0.0113435
0.00990309
-0.0114725
0.0161893
-0.0116501
0.0223663
-0.0118274
0.0284903
-0.0119322
0.0345712
-0.01194
0.0405862
-0.0118553
0.0464968
-0.0116852
0.0522717
-0.0114373
0.0578776
-0.0111104
0.0632886
-0.0107156
0.0684831
-0.0102574
0.0734526
-0.00974997
0.0781917
-0.00920354
0.0827069
-0.00863555
0.0870092
-0.00806514
0.0911134
-0.00751027
0.0950336
-0.0069988
0.098752
-0.00654382
0.102245
-0.0061476
0.105496
-0.00580772
0.108496
-0.00550025
0.111228
-0.00519946
0.113696
-0.00489789
0.115904
-0.00458543
0.117868
-0.0042726
0.119615
-0.00396413
0.12117
-0.00366862
0.122564
-0.00338473
0.123813
-0.00310435
0.124943
-0.00283899
0.125967
-0.00257984
0.126902
-0.00234325
-0.00212269
-0.106336
-0.00452078
0.108144
-0.104381
-0.00499792
-0.102273
-0.00552163
-0.100013
-0.00609168
-0.0975884
-0.00670992
-0.094996
-0.00737507
-0.0922266
-0.00807874
-0.0892739
-0.00881572
-0.0861248
-0.00958325
-0.0827644
-0.0103684
-0.0791761
-0.0111656
-0.0753464
-0.0119624
-0.0712683
-0.0127509
-0.0669365
-0.0135165
-0.062348
-0.0142479
-0.0575087
-0.01493
-0.0524173
-0.0155567
-0.0470825
-0.0161135
-0.0415109
-0.0165967
-0.0357086
-0.0169999
-0.0296771
-0.0173248
-0.0234186
-0.0175749
-0.016941
-0.0177665
-0.0102774
-0.0179236
-0.00348187
-0.0180687
0.00339265
-0.0182181
0.0102916
-0.0183715
0.0171572
-0.0185158
0.0239483
-0.0186185
0.0306592
-0.0186432
0.037286
-0.0185669
0.0438112
-0.0183805
0.0502106
-0.0180847
0.0564544
-0.0176812
0.062522
-0.0171781
0.0683918
-0.0165855
0.0740477
-0.0159134
0.0794804
-0.0151828
0.0846864
-0.0144095
0.0896609
-0.0136101
0.0944067
-0.0128109
0.0989231
-0.0120268
0.103203
-0.0112783
0.107228
-0.0105697
0.110992
-0.00991094
0.114473
-0.00928947
0.117674
-0.00870068
0.120606
-0.00813156
0.123288
-0.00757982
0.125738
-0.00703554
0.127967
-0.00650193
0.129989
-0.00598538
0.131819
-0.00549881
0.13347
-0.00503604
0.134964
-0.00459802
0.136317
-0.00419197
0.137554
-0.00381697
0.138681
-0.00347074
-0.00315271
-0.112604
-0.00636167
0.114445
-0.110616
-0.00698646
-0.108465
-0.00767194
-0.106145
-0.00841178
-0.103649
-0.00920623
-0.100967
-0.0100568
-0.098091
-0.010955
-0.0950053
-0.0119014
-0.0917042
-0.0128844
-0.0881764
-0.0138962
-0.084414
-0.0149281
-0.0804041
-0.0159724
-0.0761445
-0.0170105
-0.0716246
-0.0180365
-0.0668433
-0.0190293
-0.0617907
-0.0199826
-0.0564672
-0.0208802
-0.0508712
-0.0217095
-0.0450039
-0.0224641
-0.0388679
-0.0231359
-0.0324681
-0.0237247
-0.0258127
-0.0242303
-0.0189185
-0.0246606
-0.0118186
-0.0250235
-0.00455731
-0.0253301
0.0028115
-0.0255869
0.0102286
-0.0257887
0.0176395
-0.0259267
0.0250028
-0.0259818
0.0322921
-0.0259326
0.0394872
-0.0257621
0.0465684
-0.0254617
0.0535118
-0.0250281
0.0602966
-0.0244659
0.0668976
-0.0237791
0.0732985
-0.0229865
0.0794847
-0.0220997
0.0854358
-0.0211338
0.0911412
-0.0201149
0.0965945
-0.0190635
0.101784
-0.0180009
0.1067
-0.0169419
0.111326
-0.0159045
0.11565
-0.0148943
0.119657
-0.0139175
0.123348
-0.0129802
0.126719
-0.0120726
0.129791
-0.0112034
0.132574
-0.0103627
0.135099
-0.00955997
0.137385
-0.00878817
0.139452
-0.00805198
0.141309
-0.00735633
0.142986
-0.00671297
0.144504
-0.00611587
0.145882
-0.00557015
0.147134
-0.0050685
0.148271
-0.00460759
-0.00419193
-0.122158
-0.00833992
0.124137
-0.120004
-0.0091409
-0.11767
-0.0100059
-0.115146
-0.0109355
-0.112423
-0.0119293
-0.109494
-0.0129861
-0.106346
-0.0141034
-0.102976
-0.0152714
-0.0993735
-0.0164865
-0.095531
-0.0177387
-0.091441
-0.0190182
-0.0870964
-0.0203169
-0.0824902
-0.0216168
-0.0776185
-0.0229081
-0.0724714
-0.0241764
-0.0670468
-0.0254072
-0.0613415
-0.0265855
-0.0553516
-0.0276995
-0.0490812
-0.0287346
-0.0425304
-0.0296867
-0.0357107
-0.0305443
-0.0286342
-0.0313069
-0.0213223
-0.0319726
-0.0138039
-0.032542
-0.00611953
-0.0330145
0.00168347
-0.03339
0.0095569
-0.0336621
0.0174534
-0.0338232
0.0253306
-0.033859
0.0331525
-0.0337545
0.0408883
-0.033498
0.0485083
-0.0330817
0.0559831
-0.032503
0.0632884
-0.0317714
0.0704017
-0.0308924
0.0772943
-0.0298791
0.0839467
-0.0287521
0.090342
-0.0275292
0.0964617
-0.0262346
0.102294
-0.0248956
0.107819
-0.023526
0.113031
-0.0221543
0.117916
-0.0207898
0.122471
-0.0194491
0.126694
-0.0181406
0.130584
-0.0168705
0.134157
-0.0156451
0.137421
-0.0144677
0.140397
-0.013338
0.143102
-0.0122654
0.145565
-0.0112508
0.147808
-0.0102958
0.149858
-0.00940617
0.151724
-0.00857863
0.153426
-0.00781806
0.154975
-0.00711896
0.156383
-0.00647662
0.157664
-0.0058881
-0.00534989
-0.131071
-0.0103927
0.133123
-0.128838
-0.011374
-0.126417
-0.0124263
-0.123795
-0.0135579
-0.120956
-0.0147678
-0.117897
-0.0160451
-0.114605
-0.0173955
-0.11107
-0.018807
-0.10728
-0.0202757
-0.103232
-0.0217871
-0.0989143
-0.0233359
-0.0943213
-0.0249099
-0.0894431
-0.026495
-0.0842733
-0.028078
-0.0788082
-0.0296415
-0.0730433
-0.0311721
-0.0669753
-0.0326535
-0.0606094
-0.0340655
-0.0539438
-0.0354002
-0.0469863
-0.0366442
-0.0397441
-0.0377866
-0.032235
-0.038816
-0.02448
-0.0397276
-0.0165102
-0.0405119
-0.00836426
-0.0411604
-8.66448e-05
-0.0416676
0.00827649
-0.0420253
0.0166808
-0.0422275
0.0250831
-0.0422613
0.0334433
-0.0421148
0.0417256
-0.0417803
0.049892
-0.0412481
0.0579102
-0.0405213
0.0657518
-0.039613
0.0733844
-0.038525
0.0807847
-0.0372794
0.0879268
-0.0358943
0.0947792
-0.0343815
0.101326
-0.0327812
0.107545
-0.0311153
0.113427
-0.0294077
0.118954
-0.027681
0.124122
-0.0259582
0.128925
-0.024252
0.133368
-0.0225831
0.137456
-0.020959
0.141203
-0.0193918
0.144626
-0.0178909
0.147751
-0.0164626
0.150599
-0.0151135
0.153198
-0.0138501
0.155568
-0.0126659
0.157729
-0.0115672
0.159701
-0.0105497
0.161498
-0.00961552
0.16313
-0.00875104
0.164613
-0.00795927
0.165963
-0.00723811
-0.00657211
-0.141568
-0.012565
0.143741
-0.139202
-0.0137407
-0.136629
-0.0149987
-0.13384
-0.0163473
-0.130823
-0.0177847
-0.127564
-0.0193046
-0.124053
-0.0209063
-0.120279
-0.0225815
-0.116238
-0.0243168
-0.111915
-0.0261095
-0.107308
-0.0279434
-0.102408
-0.02981
-0.0972046
-0.031698
-0.0916935
-0.0335891
-0.0858696
-0.0354654
-0.0797311
-0.0373107
-0.073272
-0.0391125
-0.0665053
-0.0408323
-0.0594281
-0.0424773
-0.0520512
-0.0440211
-0.0443793
-0.0454586
-0.0364325
-0.0467629
-0.028233
-0.0479271
-0.0198067
-0.0489382
-0.0111995
-0.0497676
-0.00245149
-0.0504156
0.00638866
-0.0508655
0.0152822
-0.0511211
0.0241866
-0.0511658
0.0330581
-0.0509863
0.0418606
-0.0505828
0.0505434
-0.049931
0.0590712
-0.0490491
0.0674133
-0.0479551
0.07553
-0.0466418
0.0834006
-0.0451501
0.0909957
-0.0434894
0.0982671
-0.0416529
0.105206
-0.0397205
0.111792
-0.0377008
0.118015
-0.0356308
0.123859
-0.0335252
0.129323
-0.0314219
0.134402
-0.0293309
0.139107
-0.0272886
0.143446
-0.0252978
0.147433
-0.0233791
0.151084
-0.0215414
0.154424
-0.0198029
0.157479
-0.0181683
0.160267
-0.0166381
0.16282
-0.0152194
0.165151
-0.0138983
0.16728
-0.0126786
0.16922
-0.0115554
0.170989
-0.0105199
0.1726
-0.00957059
0.174064
-0.00870217
-0.00790041
-0.152263
-0.0148358
0.154534
-0.149801
-0.0162033
-0.147129
-0.0176702
-0.144224
-0.0192523
-0.141079
-0.0209301
-0.137671
-0.0227124
-0.134
-0.0245769
-0.130042
-0.02654
-0.125781
-0.0285775
-0.121235
-0.0306558
-0.116378
-0.0327997
-0.111204
-0.0349847
-0.105706
-0.0371962
-0.099872
-0.0394227
-0.0937027
-0.0416347
-0.0871883
-0.0438251
-0.0803269
-0.0459739
-0.0731551
-0.0480041
-0.0656671
-0.0499654
-0.0578664
-0.0518218
-0.0497515
-0.0535735
-0.0413542
-0.0551601
-0.0327002
-0.0565812
-0.0237859
-0.0578525
-0.0146983
-0.0588552
-0.00546257
-0.0596514
0.00385469
-0.0601827
0.0132395
-0.0605059
0.0226422
-0.0605685
0.0320156
-0.0603597
0.0413374
-0.0599047
0.0505218
-0.0591154
0.0595367
-0.058064
0.0683787
-0.0567971
0.0769575
-0.0552206
0.0852902
-0.0534827
0.0933632
-0.0515625
0.101046
-0.0493358
0.108376
-0.0470501
0.115338
-0.0446629
0.121917
-0.0422102
0.128112
-0.0397205
0.133894
-0.0372034
0.139278
-0.0347148
0.144299
-0.03231
0.148922
-0.0299208
0.153195
-0.0276523
0.157113
-0.0254596
0.160682
-0.0233714
0.163942
-0.0214287
0.166924
-0.0196205
0.169654
-0.0179489
0.172149
-0.0163937
0.174429
-0.0149581
0.176511
-0.0136374
0.178412
-0.0124212
0.18014
-0.0112985
0.181718
-0.0102797
-0.00933926
-0.164412
0.166757
-0.017181
-0.161831
-0.018784
-0.15902
-0.0204817
-0.155945
-0.0223266
-0.152611
-0.0242645
-0.148983
-0.0263406
-0.145052
-0.0285079
-0.140852
-0.0307398
-0.136353
-0.0330764
-0.13146
-0.0355488
-0.126294
-0.0379653
-0.120791
-0.040488
-0.114902
-0.0430856
-0.108718
-0.0456063
-0.102141
-0.0482121
-0.0952894
-0.0506763
-0.0880797
-0.0531836
-0.080481
-0.0556028
-0.0724978
-0.0579485
-0.0642371
-0.0600825
-0.0556576
-0.062153
-0.0468532
-0.0639646
-0.0377759
-0.0656584
-0.0283712
-0.0672573
-0.0187999
-0.0684264
-0.00909115
-0.0693601
0.000662259
-0.0699362
0.0105372
-0.0703809
0.0204588
-0.0704901
0.0302699
-0.0701709
0.0400896
-0.0697244
0.0497576
-0.0687834
0.0591983
-0.0675046
0.0685233
-0.0661222
0.0775806
-0.0642779
0.0863568
-0.0622589
0.094742
-0.0599477
0.102724
-0.0573177
0.110484
-0.05481
0.11781
-0.0519894
0.124749
-0.0491494
0.131344
-0.0463146
0.137509
-0.0433688
0.143281
-0.0404872
0.14867
-0.0376985
0.153655
-0.0349062
0.158262
-0.0322589
0.162478
-0.0296756
0.166431
-0.0273252
0.17005
-0.0250472
0.173345
-0.0229156
0.176349
-0.0209526
0.179079
-0.019124
0.18161
-0.0174897
0.183924
-0.0159512
0.186028
-0.0145249
0.187937
-0.0132077
0.189609
-0.0119512
-0.0108927
-0.0715548
0.00917796
-0.079606
0.0080512
-0.0865935
0.00698755
-0.0926855
0.00609213
-0.0983641
0.00567868
-0.10391
0.00554626
-0.109332
0.00542143
-0.114666
0.00533422
-0.119934
0.00526849
-0.124718
0.00478438
-0.128349
0.00363105
-0.130474
0.0021248
-0.131136
0.000662431
-0.130745
-0.000391042
-0.129921
-0.000823607
-0.129022
-0.000899239
-0.128047
-0.000974564
-0.126778
-0.00126905
-0.1249
-0.00187692
-0.122298
-0.00260198
-0.119156
-0.003142
-0.115692
-0.00346361
-0.112059
-0.0036329
-0.10844
-0.00361893
-0.00391391
-0.0759453
0.0169808
-0.0836447
0.0157504
-0.0909981
0.0143409
-0.0980374
0.0131313
-0.104701
0.0123421
-0.110963
0.0118086
-0.116865
0.0113234
-0.122329
0.0107974
-0.127108
0.0100476
-0.131038
0.00871437
-0.134166
0.00675911
-0.136516
0.0044748
-0.138056
0.00220267
-0.138715
0.000268269
-0.138444
-0.00109486
-0.137336
-0.00200737
-0.13554
-0.00277043
-0.133183
-0.00362575
-0.130399
-0.00466103
-0.127217
-0.00578382
-0.12353
-0.00682917
-0.119213
-0.0077809
-0.114142
-0.00870374
-0.108052
-0.00970914
-0.0111223
-0.0829551
0.0258956
-0.0914611
0.0242563
-0.0996033
0.0224828
-0.107348
0.0208761
-0.114557
0.0195503
-0.12116
0.0184118
-0.127128
0.0172913
-0.132378
0.016047
-0.13682
0.0144896
-0.140522
0.0124164
-0.143592
0.00982926
-0.146063
0.00694545
-0.147916
0.00405572
-0.14906
0.00141271
-0.149343
-0.000811996
-0.148683
-0.0026676
-0.147124
-0.00432933
-0.144771
-0.00597913
-0.141738
-0.0076933
-0.138073
-0.00944943
-0.133728
-0.0111738
-0.128632
-0.0128775
-0.122715
-0.0146207
-0.11589
-0.0165337
-0.0188689
-0.0898031
0.0357585
-0.0990693
0.0335224
-0.10786
0.0312737
-0.116147
0.0291629
-0.123825
0.0272278
-0.13081
0.0253966
-0.137049
0.0235303
-0.142496
0.0214935
-0.147135
0.0191293
-0.15104
0.0163211
-0.154302
0.0130913
-0.156954
0.00959703
-0.158952
0.00605422
-0.160209
0.00266959
-0.160583
-0.000438507
-0.159987
-0.00326325
-0.15841
-0.00590681
-0.155911
-0.0084783
-0.152556
-0.0110483
-0.148391
-0.013614
-0.143386
-0.016179
-0.137497
-0.0187662
-0.130678
-0.0214398
-0.122928
-0.0242839
-0.0273523
-0.0966
0.0464393
-0.106654
0.0435761
-0.116108
0.0407278
-0.12495
0.0380044
-0.133103
0.0353815
-0.140509
0.0328023
-0.147121
0.0301416
-0.152913
0.0272859
-0.157896
0.0241128
-0.162123
0.0205481
-0.165657
0.0166243
-0.168514
0.0124541
-0.170644
0.0081845
-0.171963
0.00398803
-0.172371
-2.96206e-05
-0.171779
-0.00385573
-0.170158
-0.00752824
-0.167539
-0.0110968
-0.163967
-0.0146203
-0.159477
-0.0181045
-0.154083
-0.0215729
-0.147799
-0.0250502
-0.140662
-0.028577
-0.132748
-0.032198
-0.0359637
-0.103441
0.0577515
-0.114235
0.05437
-0.124344
0.0508369
-0.133762
0.0474217
-0.14243
0.0440503
-0.150314
0.0406862
-0.157368
0.037195
-0.163583
0.0335014
-0.168977
0.0295066
-0.173575
0.0251462
-0.177422
0.0204711
-0.180509
0.0155412
-0.18279
0.0104654
-0.18419
0.00538778
-0.184608
0.000388541
-0.183987
-0.00447679
-0.182299
-0.00921573
-0.17954
-0.0138559
-0.175748
-0.0184125
-0.170947
-0.022906
-0.165172
-0.0273475
-0.158451
-0.0317715
-0.150824
-0.0362043
-0.142344
-0.0406773
-0.0451847
-0.110168
0.0700413
-0.121804
0.0660065
-0.132608
0.061641
-0.142641
0.0574543
-0.15187
0.053279
-0.160282
0.049098
-0.167818
0.0447315
-0.174495
0.0401787
-0.180321
0.0353322
-0.185311
0.0301358
-0.189492
0.0246524
-0.192849
0.0188981
-0.195313
0.0129293
-0.196811
0.00688566
-0.19728
0.000857466
-0.196656
-0.00510056
-0.194909
-0.010962
-0.192043
-0.0167225
-0.188074
-0.0223808
-0.183049
-0.027931
-0.177003
-0.0333939
-0.169993
-0.038782
-0.162061
-0.0441361
-0.153281
-0.0494572
-0.0547252
-0.116905
0.0835859
-0.129453
0.0785545
-0.140948
0.073136
-0.151625
0.0681314
-0.161446
0.0630996
-0.170425
0.0580771
-0.178471
0.0527774
-0.185621
0.0473285
-0.191907
0.0416188
-0.197295
0.0355234
-0.201815
0.0291729
-0.205473
0.0225553
-0.208142
0.0155992
-0.209777
0.00852042
-0.210316
0.00139664
-0.209704
-0.00571257
-0.207922
-0.0127439
-0.204965
-0.0196802
-0.20085
-0.0264954
-0.195625
-0.0331558
-0.189335
-0.0396846
-0.182049
-0.0460676
-0.173786
-0.0523991
-0.164595
-0.0586482
-0.0647864
-0.124096
0.0983297
-0.137336
0.0917939
-0.149392
0.0851915
-0.160708
0.0794479
-0.171147
0.0735382
-0.180757
0.0676868
-0.189329
0.0613494
-0.196966
0.0549659
-0.203721
0.0483739
-0.209538
0.04134
-0.214378
0.0340132
-0.218321
0.026498
-0.221248
0.0185265
-0.223029
0.0103016
-0.223652
0.00201905
-0.223078
-0.0062862
-0.221269
-0.0145526
-0.21826
-0.0226891
-0.214015
-0.0307405
-0.208569
-0.0386025
-0.202061
-0.0461921
-0.194532
-0.0535963
-0.185994
-0.0609374
-0.176725
-0.0679169
-0.0747546
1.25075
0.81227
0.273846
-1.08614
-0.313381
0.553679
-0.240303
0.289395
-0.38336
0.0939653
0.35585
-0.417632
0.0617818
-0.169507
-0.517914
0.687422
-0.421549
0.738119
-0.316571
1.34607
-1.23762
-0.108451
-0.0418632
-0.208557
0.25042
4.79633
-3.23486
-1.56146
-0.829492
1.7401
-0.910603
-0.918727
0.306541
0.612187
1.02258
-1.74358
0.720994
-0.883493
-0.0438155
0.927308
0.122285
-0.124776
0.00249155
3.40814
-3.17619
-0.231937
-0.533108
0.219714
0.138928
-0.0267964
-0.112131
0.11797
0.0258686
0.308726
0.120518
-0.429243
-0.352568
0.223365
0.129203
2.76429
1.48108
-4.24535
-0.473483
0.820673
-0.347191
1.21059
-0.939477
-0.271112
-0.904475
0.283122
0.621353
1.03747
0.173117
-1.13403
0.646275
0.487751
-1.18964
0.259972
0.92967
3.88666
-2.28744
-1.59921
-0.030398
-0.150827
0.181225
0.248217
0.454716
-0.702933
0.54949
-1.46741
0.917941
0.721956
0.832014
-1.55397
2.19112
-4.20071
2.00961
-0.299789
-0.0757343
0.375523
0.318261
1.2314
-1.54966
-0.901014
0.0175198
-2.59414
1.02991
1.56423