/*--------------------------------*- C++ -*----------------------------------*\
  =========                 |
  \\      /  F ield         | OpenFOAM: The Open Source CFD Toolbox
   \\    /   O peration     | Website:  https://openfoam.org
    \\  /    A nd           | Version:  10
     \\/     M anipulation  |
\*---------------------------------------------------------------------------*/
FoamFile
{
    format      ascii;
    class       volVectorField;
    location    "800";
    object      U;
}
// * * * * * * * * * * * * * * * * * * * * * * * * * * * * * * * * * * * * * //

dimensions      [0 1 -1 0 0 0 0];

internalField   nonuniform List<vector> 
10435
(
(1.6246 0.225138 4.29068e-24)
(1.52973 0.516467 2.29793e-21)
(2.95863 -0.126328 -7.01682e-21)
(2.02912 -0.0522923 7.96741e-21)
(2.52849 0.123245 -8.45467e-21)
(3.29856 -0.0413655 1.10324e-19)
(2.91805 -0.126927 -1.82535e-20)
(2.80091 -0.152792 6.04809e-21)
(2.69857 -0.187696 2.38209e-20)
(3.20507 -0.12901 -3.22422e-20)
(1.75533 0.402675 -6.07548e-22)
(2.44863 -0.272917 2.58434e-20)
(3.19864 -0.143195 3.88614e-20)
(0.931772 0.509046 1.19958e-21)
(1.02777 0.53544 6.91982e-22)
(2.84115 -0.150017 -1.19772e-21)
(0.838043 0.458494 -3.95026e-22)
(3.34572 -0.1871 1.58746e-19)
(2.65801 -0.209511 -1.00942e-20)
(1.7123 0.144692 -7.8098e-22)
(2.82686 -0.148403 5.3884e-21)
(2.03941 -0.153751 -1.22257e-20)
(2.87223 -0.143783 6.47029e-20)
(2.54989 -0.37791 -1.51777e-20)
(3.07953 -0.135542 3.12351e-20)
(0.217549 0.350099 3.11083e-22)
(0.0509871 0.0592708 1.03592e-21)
(3.05605 -0.130672 2.10065e-20)
(0.235167 -0.0765667 -2.1211e-22)
(3.29432 -0.148925 1.88788e-19)
(2.86954 -0.154968 3.46707e-20)
(1.88857 0.354591 -1.1347e-21)
(2.7757 -0.159022 -1.24649e-20)
(0.476967 -0.0669229 -1.36791e-21)
(2.73788 -0.209954 1.10291e-20)
(1.25661 0.696816 -2.05914e-21)
(2.7567 -0.204948 1.9891e-20)
(0.156732 0.239958 -4.27473e-21)
(0.350631 0.338938 7.9817e-23)
(2.63314 -0.266096 2.78178e-21)
(3.37677 -0.14101 -1.95139e-19)
(2.9185 -0.130912 -1.72394e-20)
(0.618988 0.58526 3.57597e-21)
(1.84531 0.0900741 -9.07988e-21)
(2.79536 -0.188526 -4.72677e-20)
(2.59145 -0.330856 2.50557e-20)
(3.35859 -0.0992088 -1.38153e-19)
(0.44669 0.461149 1.42833e-20)
(2.69711 -0.173726 6.473e-21)
(2.03698 -0.252924 -5.27912e-21)
(2.79942 -0.158526 -1.03321e-21)
(2.9671 -0.0992079 3.82426e-19)
(0.3938 0.354705 5.84537e-22)
(0.319773 -0.158483 -1.65233e-22)
(0.308599 0.344097 -1.68566e-22)
(0.185166 -0.103518 5.45792e-22)
(2.68995 -0.258836 -5.7128e-20)
(0.1644 0.16927 -1.75176e-21)
(0.692831 0.215958 1.07679e-21)
(2.67341 -0.261515 3.34987e-20)
(0.350819 0.362591 -2.90885e-22)
(1.43024 0.579377 -4.19853e-21)
(0.182814 0.071335 2.0128e-21)
(2.83574 -0.0738717 -2.74725e-20)
(2.84046 -0.162315 -8.9485e-20)
(2.99241 -0.131222 7.2199e-20)
(0.6222 0.102678 -1.8882e-21)
(0.351217 0.221527 -6.56705e-21)
(2.82666 -0.144662 -8.92625e-21)
(2.48216 -0.423404 1.15706e-21)
(0.27279 -0.179176 5.06269e-22)
(0.173044 0.317698 -1.98404e-22)
(0.697831 0.683682 -6.11498e-22)
(2.94999 -0.131664 -8.18108e-20)
(1.12411 0.541042 6.53494e-23)
(0.762486 0.713068 5.74527e-22)
(2.41281 -0.445476 5.52354e-20)
(2.89901 -0.127812 3.73502e-20)
(2.75955 -0.160025 1.72295e-21)
(1.1957 0.43573 -1.84337e-21)
(2.1743 -0.375373 5.61473e-21)
(1.57856 0.206334 3.47175e-22)
(0.435763 0.371214 -5.29587e-22)
(0.361242 -0.143701 1.09725e-22)
(2.24168 -0.415079 -1.18636e-20)
(1.25811 0.650469 6.4297e-21)
(1.41983 0.49285 8.95876e-22)
(1.79301 0.20612 1.48075e-21)
(1.15686 0.641048 4.21359e-22)
(1.50949 0.424808 -9.37272e-22)
(1.89271 0.13867 -8.37236e-22)
(2.00819 0.0693399 -1.68703e-21)
(1.66382 0.125787 6.97299e-22)
(1.2404 0.609122 1.6552e-21)
(1.60165 0.352011 4.60456e-22)
(1.1779 0.743537 2.01224e-21)
(2.11812 -0.00848911 1.93521e-20)
(1.05939 0.627397 -2.25942e-22)
(0.79323 0.310103 3.8648e-22)
(2.26085 -0.0106865 -2.5707e-20)
(1.10637 0.637208 1.13933e-21)
(2.80375 0.240684 -2.83885e-20)
(1.32816 0.556217 -1.15401e-21)
(1.69692 0.277619 2.55466e-22)
(2.98015 0.18152 -1.03755e-21)
(1.93592 0.0182563 -2.81597e-22)
(1.74549 0.0428731 3.36525e-22)
(2.10799 -0.324043 6.77839e-21)
(2.31714 -0.437052 -1.7648e-20)
(1.29469 0.402847 4.1017e-22)
(1.9674 -0.185228 -2.22029e-21)
(2.60358 0.309708 -9.772e-21)
(1.48839 0.280191 1.62109e-22)
(1.39368 0.349619 3.05525e-22)
(2.14007 0.0651473 -1.24889e-20)
(1.96004 -0.0836127 3.52032e-21)
(2.35942 -0.0776682 -1.70282e-20)
(1.3434 0.595775 7.03693e-22)
(1.72346 0.329066 -3.44732e-21)
(2.31378 -0.162348 -4.29744e-21)
(2.43775 -0.134455 -5.33236e-20)
(0.770196 0.771038 1.44078e-21)
(1.43 0.534018 -5.24607e-21)
(0.961208 0.855396 -8.96201e-21)
(1.99099 0.464469 1.16351e-22)
(0.289536 0.360139 -3.68788e-22)
(2.22599 -0.0994103 2.61135e-20)
(0.832592 0.816849 -1.0453e-21)
(2.4481 0.00905893 -3.73293e-20)
(0.0730033 0.249394 4.49113e-22)
(0.895874 0.84407 3.05962e-21)
(1.81847 0.501799 -8.68618e-22)
(2.81349 -0.158415 -1.56722e-20)
(1.09739 0.443473 -2.1113e-21)
(0.155126 0.28033 -2.0086e-23)
(0.582043 0.444557 -3.18965e-24)
(1.09405 0.830301 8.66356e-21)
(2.12125 -0.12817 -7.2549e-22)
(1.62106 0.396434 1.1426e-21)
(1.8793 -0.0114718 2.65795e-21)
(1.79698 0.0652793 -2.91736e-23)
(2.84452 -0.164838 -1.16512e-19)
(0.553105 0.0234945 -4.18837e-21)
(2.70019 -0.171063 2.0262e-19)
(2.11893 -0.224404 1.85366e-21)
(0.918485 0.720039 1.01987e-21)
(1.0264 0.853219 -3.64352e-21)
(3.02225 -0.0442943 -1.16354e-19)
(0.79225 0.549744 -1.68886e-21)
(2.61539 -0.234964 1.14614e-20)
(0.383575 0.436302 1.32144e-21)
(2.73982 -0.223437 3.84181e-20)
(1.5743 0.320229 4.2603e-23)
(2.69441 -0.211207 9.27308e-20)
(3.10209 -0.0949228 -1.06141e-19)
(0.315183 0.395163 -1.04215e-21)
(2.181 0.416555 1.6987e-20)
(1.52266 0.465945 2.00241e-21)
(3.19183 -0.114839 -1.03876e-19)
(1.53923 0.586502 -8.56194e-22)
(2.73924 -0.224065 -1.80879e-20)
(1.00106 0.424599 4.24545e-22)
(1.96239 0.199692 1.34601e-20)
(2.34678 -0.349258 1.45883e-20)
(1.22718 0.513551 3.14153e-22)
(2.53322 -0.0755783 1.63414e-19)
(2.75179 -0.171826 -2.3585e-20)
(2.28953 -0.24703 -1.24367e-20)
(2.48048 -0.361797 2.46908e-20)
(2.68931 -0.11237 -3.66122e-19)
(3.05228 -0.132987 9.88914e-20)
(0.651617 0.622592 -5.06967e-22)
(0.0393332 -0.00880367 -7.63839e-22)
(0.989678 0.720366 1.0806e-21)
(2.58101 -0.293248 -3.8264e-20)
(1.42808 0.639797 2.46966e-21)
(1.33962 0.641022 7.69325e-21)
(0.574696 0.423255 -1.60798e-21)
(1.89701 -0.11423 1.09999e-21)
(0.28701 -0.0428752 1.99306e-22)
(1.6374 0.455959 -8.0154e-22)
(3.22091 0.0193654 -1.73148e-20)
(2.5423 -0.250371 -9.61032e-20)
(0.336262 0.374354 -1.70549e-22)
(2.79035 -0.193015 1.50085e-20)
(0.557412 0.566271 -2.86513e-21)
(0.709668 0.701322 1.84339e-21)
(2.87726 -0.129878 -2.84087e-20)
(2.69288 0.0827679 1.9835e-20)
(2.82043 -0.135969 -1.96646e-19)
(2.4623 -0.198741 1.28029e-20)
(0.473852 0.389516 -5.05414e-22)
(0.0967412 0.28296 -5.26491e-22)
(1.16628 0.793553 -7.19238e-21)
(2.39162 0.366631 1.6189e-20)
(2.85089 -0.136077 1.62882e-21)
(0.754717 0.635386 -4.56871e-21)
(1.17572 0.693552 -2.59698e-21)
(0.508317 0.456962 -1.21181e-20)
(2.80543 -0.170902 2.8775e-20)
(1.19134 0.576744 9.75027e-23)
(0.219842 0.291431 -1.46581e-21)
(3.11868 -0.135007 -7.67452e-21)
(0.2103 0.244071 -1.85481e-21)
(3.03651 -0.133628 -2.34125e-20)
(2.1728 0.138942 3.7848e-22)
(1.83221 0.265459 7.12499e-21)
(2.21094 -0.197308 -7.71185e-21)
(0.256642 0.0523799 1.50716e-21)
(2.19605 -0.28503 -6.95104e-21)
(0.440333 0.473804 1.87727e-21)
(2.90566 -0.136502 -8.91138e-20)
(2.55637 -0.170302 1.70821e-19)
(2.4286 -0.337381 1.33989e-20)
(0.0841537 0.039425 -3.91462e-22)
(0.881012 0.598784 3.20535e-21)
(1.34039 0.446877 1.05794e-22)
(0.445966 0.432181 4.55419e-22)
(0.205857 0.340811 -6.85275e-22)
(0.904242 0.378315 -6.29021e-22)
(0.335644 -0.074664 7.96538e-23)
(0.64147 0.376691 -3.76018e-21)
(0.462841 0.0631512 3.14242e-21)
(0.98012 0.777911 -7.36356e-21)
(0.251028 0.362441 -4.37155e-22)
(2.78153 -0.177378 -8.27917e-21)
(0.258789 0.338565 1.39207e-21)
(1.10017 0.71608 -5.86046e-22)
(2.87853 -0.151545 2.48465e-19)
(0.834232 0.763555 -1.21178e-21)
(0.498599 0.299034 1.61148e-20)
(2.76889 -0.172967 2.79115e-20)
(0.233607 0.341704 2.19928e-21)
(2.68008 -0.267817 4.20147e-20)
(0.0652526 0.171367 -2.4401e-21)
(0.73602 0.39705 6.67629e-21)
(2.62232 -0.314942 -4.46389e-20)
(0.21482 0.348315 5.24463e-22)
(2.55923 -0.358146 -2.94881e-21)
(2.95136 -0.144346 1.56218e-21)
(1.75599 0.164985 2.52503e-21)
(0.297664 0.37933 -9.141e-23)
(0.483375 0.466598 -6.85223e-23)
(0.234577 -0.12511 2.14123e-23)
(2.06059 0.172815 -2.81332e-20)
(2.73399 -0.170496 6.93275e-21)
(1.10311 0.777315 -1.07892e-20)
(2.84709 -0.137082 6.98888e-21)
(0.102837 -0.0923325 -6.07266e-22)
(1.32914 0.693067 -2.05539e-21)
(0.163175 -0.146907 -6.66668e-22)
(1.29433 0.526739 -1.0641e-21)
(3.21192 -0.156374 -7.19061e-20)
(2.26924 -0.328165 -1.22343e-20)
(2.86894 -0.130323 -2.08711e-20)
(2.67867 -0.0236219 8.40217e-20)
(0.110872 -0.123663 2.28362e-21)
(2.88641 -0.129286 3.29416e-20)
(0.391242 0.43663 -1.53885e-22)
(0.305678 0.344333 4.21944e-21)
(2.90555 -0.127267 1.92044e-21)
(2.98934 -0.128543 1.66743e-21)
(0.261887 0.363302 -1.31558e-22)
(2.39496 -0.417216 -3.50618e-20)
(1.4378 0.377558 -4.01145e-23)
(0.598263 0.264002 -7.48143e-21)
(1.6651 0.242664 2.95395e-22)
(2.88844 -0.150717 6.53492e-20)
(0.420215 0.396171 1.49718e-22)
(2.30025 0.0830035 5.42217e-21)
(2.92411 -0.125154 2.33395e-25)
(2.82152 -0.143197 -3.0825e-21)
(2.85441 -0.134656 -2.59729e-21)
(3.05871 -0.134706 -1.18366e-19)
(0.176879 0.339775 1.16887e-21)
(2.3846 -0.200095 -2.09702e-20)
(0.119803 0.238306 2.27145e-21)
(2.35253 0.205685 4.10663e-21)
(2.85292 -0.139061 9.45469e-21)
(2.80041 -0.149531 1.13802e-21)
(3.15903 -0.141233 7.23962e-20)
(0.65745 0.544301 1.12301e-20)
(2.94917 -0.124947 -1.58771e-21)
(1.05125 0.719114 -8.07693e-22)
(1.38671 0.465432 -3.92466e-22)
(0.500907 0.434856 1.46649e-22)
(2.83456 0.0266151 1.52198e-20)
(0.289737 0.328605 8.20812e-23)
(0.405538 -0.128267 5.86466e-22)
(0.401533 -0.0625377 -3.29118e-22)
(1.02962 0.792006 9.61347e-21)
(1.66612 0.54384 -2.74922e-21)
(0.329691 0.0150384 -8.91069e-22)
(2.83746 -0.139108 6.44931e-21)
(0.333535 0.315116 -3.66756e-23)
(0.236406 -0.1797 -1.96746e-21)
(0.848177 0.690036 6.1465e-22)
(1.53387 0.303473 1.27369e-22)
(2.18112 0.264726 -5.5036e-22)
(2.96394 -0.137193 5.19653e-20)
(0.423349 0.334207 -2.82769e-20)
(2.50468 -0.380486 -1.04977e-20)
(2.98009 -0.126703 -6.38153e-22)
(0.072016 -0.0605548 -7.94494e-22)
(2.02646 0.318321 -4.70887e-21)
(0.96586 0.625967 -1.31498e-21)
(0.700314 0.481657 -2.54855e-21)
(2.6149 -0.303466 -3.05911e-21)
(2.98044 -0.133526 -5.79717e-22)
(0.448826 -0.117322 -2.6296e-22)
(1.82179 -0.0370696 8.82394e-22)
(0.21966 0.316969 8.693e-23)
(1.24325 0.746132 3.74729e-21)
(2.93803 0.0023814 -5.04179e-20)
(2.71468 -0.194772 -4.4574e-21)
(0.200946 -0.165782 -4.66089e-22)
(0.358282 0.393234 1.59598e-22)
(2.78154 -0.181478 -2.11375e-19)
(0.431462 0.190803 -2.79037e-22)
(2.36666 -0.273278 1.60008e-20)
(3.13104 0.0981614 -2.15574e-20)
(0.167126 0.00755322 -1.93839e-21)
(1.4821 0.395346 -1.39767e-22)
(0.512225 0.410063 1.14447e-22)
(2.77635 -0.153834 -6.38302e-22)
(3.10677 -0.142069 -2.65735e-20)
(0.151665 0.335106 5.15947e-22)
(3.01322 -0.12816 -1.04868e-22)
(0.520834 0.155966 -5.18972e-22)
(0.111079 0.172543 3.18932e-21)
(2.68954 -0.226974 5.56387e-24)
(0.483695 -0.024301 7.34009e-22)
(0.48679 -0.107826 -2.77689e-22)
(2.95114 -0.12513 1.93071e-21)
(2.65678 -0.263271 3.96987e-20)
(0.230237 0.149457 4.87276e-21)
(0.190109 -0.153017 -8.15972e-22)
(0.115068 -0.113905 -4.43215e-22)
(0.535153 -0.079659 -1.34816e-22)
(0.0701053 -0.0356569 -1.49792e-22)
(0.128399 0.323385 -1.30874e-21)
(0.232408 0.349708 -8.71989e-22)
(0.388836 0.376289 1.20899e-22)
(0.0321289 0.000824504 8.59563e-22)
(0.049405 -0.0306738 -1.16272e-21)
(0.304505 0.379798 8.17558e-22)
(0.298299 0.127896 -1.22118e-21)
(0.0191445 0.13102 2.42653e-22)
(0.545827 0.427319 2.45939e-22)
(2.74944 -0.159893 -3.37584e-21)
(0.515746 -0.0962346 -5.15926e-22)
(3.06168 -0.134938 3.6359e-21)
(0.0243176 0.0303521 -2.50744e-22)
(3.05581 -0.129231 -4.46769e-22)
(2.75962 -0.157684 1.48154e-21)
(2.69924 -0.172889 -1.08463e-21)
(3.20063 -0.131591 -2.03927e-21)
(2.91514 -0.137471 -4.65695e-20)
(0.277764 -0.141772 -4.52601e-22)
(0.42303 -0.0981635 1.28749e-21)
(0.147256 -0.131489 9.10782e-23)
(0.24749 0.350025 -7.88379e-22)
(0.109473 -0.0587866 -6.23624e-24)
(0.462445 0.415866 -2.07892e-22)
(0.118194 0.00442056 9.72401e-22)
(0.109139 0.306375 -7.21938e-22)
(0.281029 0.242489 1.18456e-20)
(2.50936 -0.312958 -4.11669e-21)
(0.118032 0.307409 9.44934e-22)
(2.72505 -0.16567 3.70134e-21)
(0.273128 0.345942 -8.96481e-23)
(0.0919291 0.281952 1.0328e-21)
(3.24098 -0.128166 -2.01699e-20)
(2.68369 -0.179094 -3.5483e-21)
(0.535338 0.462269 -6.58095e-22)
(0.0229793 0.0700945 -7.45659e-22)
(0.125083 0.0886935 -1.0746e-21)
(0.0376393 0.103451 9.08412e-23)
(0.371037 -0.10825 -4.43097e-22)
(0.183369 0.343826 9.66175e-24)
(0.0168681 0.108317 9.5973e-22)
(0.313846 0.352898 3.2114e-22)
(2.77969 -0.153843 -1.18005e-21)
(0.372907 0.0962889 1.66618e-21)
(2.82677 -0.142502 7.11269e-22)
(2.73899 -0.162764 4.54581e-21)
(3.10729 -0.130029 -3.6899e-22)
(3.16123 -0.132321 3.27218e-20)
(2.71918 -0.166503 -2.19045e-21)
(3.01432 -0.129115 -5.76906e-21)
(2.73334 -0.196896 -5.68273e-21)
(0.903803 0.792321 2.08785e-22)
(0.541051 0.542156 1.86882e-21)
(0.280342 -0.103599 -7.23572e-22)
(0.228719 -0.162388 3.50357e-22)
(2.98181 -0.127137 6.66937e-21)
(0.321005 -0.126357 1.26962e-21)
(3.24889 -0.146615 -8.44052e-20)
(0.0212718 0.133371 -1.40356e-22)
(0.223528 -0.0136871 1.51995e-22)
(0.069131 0.246771 -1.94985e-22)
(0.406665 -0.00365648 2.70083e-22)
(0.383426 0.417267 -7.11194e-22)
(2.88512 -0.133355 5.74649e-20)
(0.0837161 0.108398 4.47024e-22)
(2.80404 -0.148561 2.57502e-22)
(2.55008 -0.33435 -1.2068e-20)
(0.526078 0.504344 1.76738e-22)
(0.155289 0.333912 -9.14913e-23)
(0.0569865 0.172191 3.68152e-22)
(2.66858 -0.188932 6.56103e-21)
(0.0667149 0.214674 -1.01682e-21)
(0.13433 0.322174 4.63645e-23)
(0.314952 0.390252 1.25303e-21)
(0.149086 -0.079419 -1.29502e-22)
(0.351801 0.343798 -4.16462e-21)
(0.152174 -0.0311709 -5.94347e-23)
(2.99688 -0.129467 4.48962e-20)
(0.22123 -0.18301 -5.4764e-23)
(0.179641 0.329743 -4.93013e-22)
(0.191644 -0.048678 3.00612e-22)
(0.571279 -0.0336983 2.024e-21)
(3.31457 -0.179841 -6.63374e-20)
(0.619118 0.529102 -4.18302e-22)
(0.597176 0.470402 8.24038e-22)
(2.67433 -0.187304 -8.59413e-21)
(0.470769 -0.0918425 2.62124e-22)
(0.469856 -0.400547 1.03362e-21)
(0.495269 -0.398549 -9.15089e-23)
(0.550251 -0.406735 -5.40703e-22)
(0.5875 -0.414274 2.87043e-22)
(0.625483 -0.418829 -3.05857e-22)
(0.656216 -0.421259 -8.76382e-22)
(0.686001 -0.422036 1.73386e-22)
(0.712548 -0.421984 2.39034e-22)
(0.740369 -0.419902 2.44261e-22)
(0.502307 -0.392901 -7.22442e-22)
(0.527498 -0.390198 -7.25594e-23)
(0.579532 -0.396918 4.41217e-22)
(0.617083 -0.404561 -7.62045e-22)
(0.653327 -0.409468 6.64372e-22)
(0.68389 -0.412881 1.05984e-21)
(0.71277 -0.414655 -6.55681e-22)
(0.739266 -0.415589 6.76734e-22)
(0.764733 -0.415166 -3.32066e-22)
(0.535598 -0.377662 1.87821e-21)
(0.559335 -0.375562 4.29009e-22)
(0.608592 -0.382214 -8.64722e-22)
(0.645691 -0.390016 4.14806e-22)
(0.680811 -0.395443 -9.95053e-22)
(0.711061 -0.399657 -1.29909e-22)
(0.739301 -0.402417 -3.33835e-23)
(0.765249 -0.404358 -3.32326e-22)
(0.789638 -0.405518 -4.97756e-22)
(0.568087 -0.356786 -8.1733e-22)
(0.589756 -0.355782 1.83147e-22)
(0.636535 -0.36295 6.05469e-22)
(0.672986 -0.371173 3.35834e-23)
(0.707141 -0.377233 4.2058e-22)
(0.737079 -0.382185 1.1272e-21)
(0.764853 -0.385778 -6.7272e-22)
(0.790468 -0.388542 1.06516e-22)
(0.814674 -0.390613 2.1797e-22)
(0.598686 -0.331961 1.4834e-22)
(0.617602 -0.331734 -1.25483e-22)
(0.66224 -0.339729 2.20627e-23)
(0.698136 -0.348502 -1.89737e-22)
(0.731616 -0.35532 1.05604e-22)
(0.76137 -0.360978 -2.51968e-22)
(0.788918 -0.36531 8.47861e-23)
(0.814446 -0.368756 3.84827e-22)
(0.838796 -0.37127 7.80839e-23)
(0.626197 -0.304624 1.10227e-22)
(0.642081 -0.30447 -2.63077e-22)
(0.684934 -0.313467 6.24607e-23)
(0.720538 -0.322653 4.12936e-22)
(0.753644 -0.330225 -1.3276e-22)
(0.783369 -0.336547 -1.85544e-22)
(0.810872 -0.341596 -7.50289e-23)
(0.836465 -0.345726 -5.92111e-22)
(0.860813 -0.349116 2.80714e-22)
(0.648786 -0.276631 6.32655e-23)
(0.662876 -0.275129 1.88521e-22)
(0.704281 -0.285085 5.64907e-23)
(0.739873 -0.294263 -1.85062e-22)
(0.772836 -0.30244 3.87356e-23)
(0.802662 -0.309317 -9.66546e-24)
(0.830242 -0.315008 1.47757e-22)
(0.855946 -0.319769 -1.39404e-22)
(0.880381 -0.323915 -1.0731e-22)
(0.665091 -0.247593 -7.71609e-23)
(0.680427 -0.244127 1.19278e-22)
(0.720484 -0.254917 -6.71937e-24)
(0.756088 -0.263697 1.22153e-23)
(0.788978 -0.272306 -5.33511e-23)
(0.81897 -0.279613 1.93894e-22)
(0.846713 -0.285848 2.36644e-22)
(0.872583 -0.29121 -2.57081e-22)
(0.897238 -0.295529 8.06647e-23)
(0.675762 -0.214518 4.80063e-23)
(0.695193 -0.210559 2.12065e-24)
(0.733702 -0.222448 -1.61577e-23)
(0.769103 -0.230939 -3.20714e-23)
(0.801885 -0.239968 -1.84557e-23)
(0.832071 -0.247634 -2.1406e-23)
(0.860047 -0.254312 -1.25478e-23)
(0.886186 -0.260053 2.41898e-22)
(0.910911 -0.265094 -1.72854e-23)
(0.682139 -0.176411 -6.53573e-23)
(0.706636 -0.173707 -6.37112e-23)
(0.74343 -0.187234 9.21867e-25)
(0.778533 -0.195977 3.82991e-23)
(0.811281 -0.20555 -1.78818e-23)
(0.841761 -0.213539 4.21408e-23)
(0.870102 -0.220519 1.41459e-23)
(0.896622 -0.226443 9.44147e-23)
(0.921697 -0.231441 -2.19172e-23)
(0.684474 -0.134532 1.21839e-22)
(0.71355 -0.134064 4.45329e-23)
(0.748742 -0.149726 -3.4378e-23)
(0.783835 -0.159196 7.83368e-24)
(0.816855 -0.169347 -8.73522e-24)
(0.847856 -0.177567 6.71474e-24)
(0.876779 -0.184689 -1.9651e-23)
(0.903938 -0.19059 -8.5085e-23)
(0.929636 -0.195528 -2.92951e-23)
(0.683584 -0.0912896 -2.27542e-22)
(0.715151 -0.0937971 -2.58225e-23)
(0.748992 -0.111493 5.68414e-23)
(0.784702 -0.121489 -2.84398e-24)
(0.818444 -0.131849 -7.22296e-26)
(0.850234 -0.140007 1.82347e-23)
(0.879934 -0.147005 7.71449e-24)
(0.907858 -0.152654 -2.70125e-23)
(0.934381 -0.157948 -2.8275e-23)
(0.678396 -0.0503611 -4.7423e-23)
(0.710098 -0.0562048 1.07714e-23)
(0.744582 -0.074112 2.19932e-24)
(0.781476 -0.0837316 -1.86634e-24)
(0.816245 -0.0934767 2.04745e-24)
(0.848976 -0.101022 -7.00377e-25)
(0.879543 -0.107422 -5.57076e-24)
(0.908261 -0.112595 1.81682e-23)
(0.93583 -0.117027 -8.47474e-24)
(0.665008 -0.0129966 5.74614e-23)
(0.700402 -0.020599 -5.6661e-24)
(0.736761 -0.0373794 3.45863e-25)
(0.774883 -0.0458224 5.50903e-25)
(0.810665 -0.0541743 -3.02182e-25)
(0.844309 -0.0605311 -1.71338e-25)
(0.875732 -0.0658102 -4.86138e-24)
(0.905272 -0.0699826 -6.96563e-26)
(0.933469 -0.0729092 9.04297e-24)
(0.645407 0.0236302 -1.66565e-22)
(0.686659 0.0150721 4.28467e-23)
(0.725834 -3.7949e-06 -4.42088e-24)
(0.765204 -0.00697662 -3.74683e-24)
(0.801891 -0.0134983 1.67974e-25)
(0.836338 -0.0182824 4.80921e-24)
(0.868557 -0.0220634 5.71663e-24)
(0.898934 -0.0247838 1.23598e-23)
(0.92792 -0.0263345 -6.90961e-23)
(0.620037 0.0609356 -1.39121e-22)
(0.668727 0.0519059 -7.8615e-23)
(0.711468 0.0392316 -5.65345e-24)
(0.752202 0.0336746 1.7338e-23)
(0.789736 0.0290629 5.73932e-24)
(0.824892 0.025983 -2.64356e-24)
(0.857819 0.0238947 -1.70656e-24)
(0.888896 0.0228693 4.34413e-23)
(0.918384 0.0226971 -1.45739e-23)
(0.590028 0.100802 -2.71753e-22)
(0.645922 0.0911872 2.05173e-23)
(0.692865 0.0811658 3.19392e-23)
(0.735179 0.0766362 -8.39996e-24)
(0.773659 0.0736863 -1.48667e-23)
(0.809559 0.0722275 5.17384e-23)
(0.843197 0.0718712 -5.18403e-23)
(0.874957 0.0727153 -4.45247e-23)
(0.905371 0.0739257 2.80855e-24)
(0.560171 0.14156 4.71306e-22)
(0.617416 0.132365 -4.19902e-23)
(0.668879 0.124952 4.63093e-24)
(0.713224 0.121267 -1.10454e-23)
(0.753001 0.119734 3.55825e-24)
(0.789865 0.119813 -3.59991e-23)
(0.824339 0.121206 1.74367e-25)
(0.85682 0.123897 -4.68782e-23)
(0.887893 0.127305 -9.79591e-23)
(0.533109 0.17891 1.17702e-22)
(0.585845 0.171416 2.3146e-23)
(0.639887 0.167626 5.24499e-23)
(0.68626 0.165478 3.3396e-23)
(0.727575 0.165627 2.24975e-24)
(0.765615 0.167405 -1.04212e-24)
(0.801071 0.170629 2.18709e-23)
(0.834415 0.175124 5.08134e-23)
(0.866222 0.180632 -5.47643e-23)
(0.507187 0.211425 -8.64104e-23)
(0.5532 0.206106 7.65659e-24)
(0.607727 0.206676 -1.16638e-22)
(0.655319 0.207187 1.52921e-23)
(0.697949 0.209642 -2.98002e-23)
(0.737108 0.213547 2.21789e-23)
(0.773521 0.218881 -3.6473e-23)
(0.807655 0.225457 -2.07211e-23)
(0.840029 0.233032 2.71192e-23)
(0.481372 0.240168 -2.05846e-22)
(0.520401 0.236611 4.73646e-22)
(0.574034 0.241235 -2.41005e-22)
(0.621725 0.245173 1.32952e-22)
(0.6651 0.250456 -9.09106e-23)
(0.705066 0.256903 3.58383e-23)
(0.742287 0.264606 -2.70483e-23)
(0.777231 0.273368 1.91347e-23)
(0.810186 0.283591 1.73424e-24)
(0.455267 0.26506 -6.39289e-22)
(0.487439 0.263162 -3.24094e-22)
(0.539745 0.271068 6.13827e-22)
(0.586537 0.27886 -7.18e-24)
(0.629951 0.287254 2.65119e-22)
(0.670222 0.296516 -5.37735e-23)
(0.707925 0.306752 -9.06309e-24)
(0.74365 0.317738 1.90775e-23)
(0.776688 0.331339 -5.07601e-23)
(0.428813 0.284139 1.09984e-22)
(0.454621 0.285869 1.92498e-22)
(0.505678 0.296461 -4.08136e-22)
(0.550744 0.308346 -3.25185e-22)
(0.593481 0.319858 -2.12845e-22)
(0.633463 0.331962 -1.96119e-24)
(0.671182 0.344645 6.39641e-23)
(0.707405 0.357922 -4.3131e-23)
(0.740703 0.374207 -4.58089e-23)
(0.401196 0.297065 -2.31905e-22)
(0.421877 0.30479 4.1402e-23)
(0.471202 0.317536 1.49229e-22)
(0.513821 0.333213 -2.64841e-22)
(0.555232 0.347536 3.6019e-22)
(0.594461 0.362436 2.7571e-23)
(0.631846 0.377479 -1.99266e-22)
(0.668764 0.393119 1.67509e-22)
(0.702799 0.414403 3.88026e-22)
(0.371321 0.306913 -6.06906e-22)
(0.391228 0.32389 -1.51344e-23)
(0.438958 0.339707 1.27413e-23)
(0.479478 0.357459 2.78731e-22)
(0.519255 0.373498 -1.00199e-22)
(0.55682 0.390043 2.60603e-22)
(0.59291 0.40609 -4.87652e-23)
(0.631149 0.421843 1.28116e-22)
(0.667388 0.445175 1.10193e-22)
(0.379378 0.352987 -2.67907e-22)
(0.373052 0.351139 -3.13771e-22)
(0.366552 0.348062 -8.98543e-22)
(0.359413 0.344245 1.25882e-21)
(0.351424 0.339421 -9.4615e-22)
(0.342471 0.33355 7.08163e-22)
(0.332436 0.326568 2.87589e-22)
(0.321207 0.318419 -5.68622e-23)
(0.308699 0.309065 -5.22088e-22)
(0.294869 0.29849 -2.49736e-22)
(0.279736 0.286691 2.59322e-22)
(0.263388 0.273685 -3.17659e-22)
(0.245993 0.25946 8.41634e-22)
(0.227778 0.243987 -2.14668e-21)
(0.208999 0.227257 3.77512e-21)
(0.189945 0.209288 -4.31029e-21)
(0.170921 0.190131 3.89582e-21)
(0.152214 0.169868 -1.7371e-21)
(0.134079 0.148641 -5.70085e-22)
(0.116706 0.126665 6.08133e-22)
(0.100154 0.104228 -2.11324e-22)
(0.0842166 0.0816353 4.51624e-22)
(0.0686649 0.0596692 3.8134e-23)
(0.0542739 0.0384188 -6.28791e-22)
(0.0435336 0.0168543 4.95133e-22)
(0.0379744 -0.00542922 -2.70878e-22)
(0.0374645 -0.0287696 3.36955e-22)
(0.0414575 -0.053409 2.69975e-22)
(0.0469735 -0.0794222 -3.19598e-22)
(0.0523782 -0.106274 8.61081e-24)
(0.0585411 -0.133238 -2.90368e-22)
(0.0661009 -0.159903 2.58252e-22)
(0.0753191 -0.186029 4.88749e-22)
(0.0861305 -0.211323 -3.85895e-22)
(0.0983568 -0.235456 5.46038e-22)
(0.111777 -0.258221 -9.08979e-22)
(0.126101 -0.279418 6.45758e-23)
(0.141013 -0.298889 1.9699e-22)
(0.156199 -0.316521 -2.8951e-22)
(0.17137 -0.332233 6.46211e-22)
(0.186314 -0.346021 -3.66851e-22)
(0.200847 -0.35792 -1.59488e-21)
(0.215217 -0.367818 3.21591e-21)
(0.230263 -0.375563 -3.458e-21)
(0.246404 -0.381319 3.00465e-21)
(0.263483 -0.385479 -1.76683e-21)
(0.281255 -0.38841 9.19581e-22)
(0.299452 -0.390426 -3.07828e-22)
(0.317712 -0.391775 3.07836e-22)
(0.335636 -0.392683 -3.0876e-22)
(0.352876 -0.393344 -4.62717e-22)
(0.36917 -0.3939 -1.56044e-22)
(0.384348 -0.394455 2.21044e-22)
(0.398313 -0.395062 5.98172e-22)
(0.411026 -0.395739 -8.88671e-22)
(0.422466 -0.396492 1.15402e-21)
(0.432657 -0.397305 -7.72173e-22)
(0.44166 -0.398151 -2.81479e-22)
(0.44961 -0.399047 -2.10038e-22)
(0.38905 0.302061 -2.23115e-23)
(0.382599 0.297939 -2.44203e-23)
(0.375942 0.293304 1.28315e-23)
(0.368921 0.288077 -8.52078e-23)
(0.361467 0.282294 -8.79449e-23)
(0.353476 0.276011 3.29651e-22)
(0.344826 0.269285 -5.81133e-23)
(0.335391 0.262168 1.06028e-22)
(0.325041 0.254703 -3.62112e-22)
(0.313655 0.246897 -1.86995e-23)
(0.301146 0.238753 1.76127e-22)
(0.287563 0.23012 1.3636e-22)
(0.273066 0.220729 -4.73336e-22)
(0.257789 0.210433 5.94138e-22)
(0.241845 0.19912 -6.18913e-22)
(0.225375 0.18667 2.7078e-22)
(0.208565 0.172996 3.9661e-22)
(0.191623 0.158035 -1.98793e-22)
(0.174762 0.141757 -1.75379e-23)
(0.158186 0.124156 4.17472e-23)
(0.14209 0.105231 7.61429e-24)
(0.126707 0.0849081 2.88678e-23)
(0.112557 0.062946 2.19994e-23)
(0.100549 0.0388434 -6.05855e-23)
(0.0914292 0.0127964 1.73297e-22)
(0.0853289 -0.0146075 -6.16674e-23)
(0.0824237 -0.0426101 -8.55152e-25)
(0.0828319 -0.0704348 2.1607e-23)
(0.0860357 -0.0975933 2.1937e-23)
(0.0909957 -0.124164 -1.81504e-25)
(0.0974037 -0.150299 -2.40274e-23)
(0.10538 -0.175897 -1.20139e-23)
(0.114993 -0.200723 -2.30531e-24)
(0.126087 -0.224559 4.5527e-23)
(0.138464 -0.247212 -1.26444e-22)
(0.151923 -0.268534 4.73324e-23)
(0.166245 -0.288424 -7.57828e-23)
(0.181222 -0.306832 6.21747e-23)
(0.196678 -0.323754 4.74368e-25)
(0.212498 -0.339217 -2.36341e-23)
(0.228645 -0.35326 -4.32658e-23)
(0.245188 -0.36592 1.00853e-23)
(0.262299 -0.377165 -1.16542e-22)
(0.280093 -0.38685 -1.09667e-22)
(0.298481 -0.39481 1.60903e-22)
(0.317216 -0.400959 -1.33914e-22)
(0.335832 -0.405455 5.21184e-23)
(0.353734 -0.408599 2.36084e-23)
(0.370544 -0.410633 -4.97959e-23)
(0.386052 -0.411742 2.68086e-23)
(0.400332 -0.412012 5.43047e-23)
(0.413482 -0.41156 -1.56424e-23)
(0.425507 -0.410568 1.84144e-23)
(0.436526 -0.409211 -6.30207e-23)
(0.446496 -0.407684 1.26014e-23)
(0.455424 -0.406147 2.84737e-23)
(0.46345 -0.404658 -4.41881e-23)
(0.470707 -0.403234 6.57309e-24)
(0.477362 -0.401932 -1.75211e-23)
(0.449599 0.277079 -2.27793e-22)
(0.443416 0.27271 5.07507e-23)
(0.436897 0.267879 -1.8456e-22)
(0.430029 0.262654 -3.82827e-23)
(0.422729 0.257049 6.29948e-22)
(0.414926 0.251104 -1.93638e-22)
(0.406541 0.244853 -3.84738e-22)
(0.397493 0.23831 8.45733e-25)
(0.387703 0.231466 2.30764e-22)
(0.377107 0.22427 -5.6845e-23)
(0.365679 0.216628 6.32056e-22)
(0.353426 0.208388 -7.68445e-22)
(0.340367 0.199442 6.99608e-22)
(0.326519 0.189712 -9.76335e-23)
(0.311932 0.1791 -6.52313e-22)
(0.296701 0.167498 2.08e-22)
(0.280969 0.154793 8.01869e-22)
(0.264912 0.140875 -3.01239e-22)
(0.248743 0.12564 -8.13881e-23)
(0.232705 0.108988 2.18709e-23)
(0.217082 0.0908141 -2.12084e-22)
(0.202219 0.0710051 4.52746e-23)
(0.188572 0.0494582 -5.77472e-22)
(0.176724 0.0261799 6.95584e-22)
(0.167316 0.00138883 -2.64597e-22)
(0.160819 -0.024553 1.06076e-23)
(0.157422 -0.0512114 3.88425e-23)
(0.157043 -0.0780787 -1.63903e-22)
(0.159269 -0.104672 1.06211e-22)
(0.163586 -0.130745 5.44396e-23)
(0.169671 -0.156226 1.20894e-22)
(0.177355 -0.181024 -1.28574e-22)
(0.18652 -0.204992 5.38784e-23)
(0.197028 -0.227974 6.91152e-23)
(0.208721 -0.249839 -2.58593e-22)
(0.221437 -0.270484 7.0484e-22)
(0.235013 -0.289835 -4.58851e-22)
(0.249306 -0.307844 -9.41683e-23)
(0.264205 -0.324491 -1.22032e-22)
(0.279638 -0.339762 -4.06987e-23)
(0.295577 -0.35364 -1.83873e-22)
(0.312013 -0.36609 -3.32531e-22)
(0.328942 -0.377047 7.62651e-22)
(0.346296 -0.386421 3.67744e-22)
(0.363894 -0.394161 -7.4429e-22)
(0.381443 -0.400283 -2.55867e-22)
(0.398619 -0.404917 7.85399e-22)
(0.415078 -0.408292 -9.27412e-22)
(0.430617 -0.410665 6.43443e-22)
(0.445063 -0.41233 -1.77484e-23)
(0.458358 -0.413448 2.83332e-22)
(0.470694 -0.413981 6.6551e-23)
(0.482152 -0.413991 -4.27585e-22)
(0.492639 -0.413656 -2.2254e-22)
(0.502161 -0.413106 6.78513e-22)
(0.51083 -0.412412 -1.96389e-24)
(0.518754 -0.411614 -1.84229e-22)
(0.526041 -0.410759 6.30565e-23)
(0.532761 -0.40986 -2.18789e-22)
(0.492073 0.262422 -4.02714e-24)
(0.485894 0.258746 8.72975e-23)
(0.479363 0.25471 -3.43153e-23)
(0.472409 0.250292 1.7197e-23)
(0.464979 0.245494 -1.29201e-23)
(0.457019 0.240326 1.31407e-23)
(0.448476 0.23479 -5.09814e-24)
(0.439294 0.228877 3.77769e-24)
(0.429421 0.22256 -5.60224e-24)
(0.418815 0.215797 9.59499e-24)
(0.407452 0.208527 -8.71681e-24)
(0.395327 0.200676 -6.23285e-23)
(0.382454 0.192162 5.19081e-23)
(0.368872 0.18289 -3.86602e-23)
(0.354642 0.172744 8.39441e-26)
(0.339862 0.161598 -5.8427e-23)
(0.324661 0.149318 6.8363e-23)
(0.309211 0.135771 -4.13321e-23)
(0.293724 0.120829 -9.58246e-23)
(0.278452 0.104372 3.11593e-23)
(0.263694 0.0863004 -1.28124e-23)
(0.249794 0.0665413 -2.04106e-22)
(0.237156 0.0450711 1.11544e-22)
(0.226213 0.0219546 1.48183e-22)
(0.217373 -0.00261198 -1.12218e-22)
(0.210945 -0.02831 1.389e-23)
(0.2071 -0.0547439 1.27798e-22)
(0.205866 -0.0814895 -1.46043e-22)
(0.207102 -0.108162 4.73463e-23)
(0.210565 -0.13448 -1.28179e-23)
(0.216024 -0.160257 5.96602e-23)
(0.223288 -0.18534 -1.36164e-22)
(0.232188 -0.209583 9.92498e-23)
(0.242553 -0.232853 -4.99196e-24)
(0.254215 -0.25503 -1.14555e-22)
(0.267009 -0.276018 3.06753e-23)
(0.280779 -0.295737 1.24534e-22)
(0.295382 -0.314124 -3.1993e-23)
(0.310697 -0.331128 -5.64624e-23)
(0.326619 -0.346706 9.50038e-23)
(0.343049 -0.360813 -9.61086e-24)
(0.359883 -0.373399 -3.08233e-23)
(0.376993 -0.384419 1.94415e-22)
(0.394208 -0.393841 -1.82114e-22)
(0.411317 -0.401668 8.10438e-23)
(0.428085 -0.407961 1.47849e-24)
(0.444275 -0.412838 2.5941e-22)
(0.459707 -0.416463 -2.29351e-22)
(0.474266 -0.419 1.16139e-22)
(0.487817 -0.420714 1.0768e-22)
(0.500263 -0.421837 1.41339e-22)
(0.511638 -0.422491 -1.33587e-22)
(0.522036 -0.42273 -2.74557e-23)
(0.531606 -0.422578 -5.00019e-23)
(0.540456 -0.422092 -8.56186e-23)
(0.548652 -0.421341 5.83601e-23)
(0.556262 -0.420373 -1.15184e-22)
(0.563341 -0.419245 2.33203e-22)
(0.569926 -0.418035 -6.29318e-23)
(0.548468 0.254234 -2.87298e-22)
(0.542584 0.250362 3.57641e-23)
(0.536221 0.246159 2.63666e-22)
(0.529347 0.241646 -1.85908e-22)
(0.521896 0.236804 4.62046e-23)
(0.513824 0.231636 1.68462e-22)
(0.505091 0.226133 -1.98192e-22)
(0.495659 0.220279 7.95817e-23)
(0.485501 0.214043 2.58609e-22)
(0.474603 0.207381 -7.22998e-23)