/*--------------------------------*- C++ -*----------------------------------*\
  =========                 |
  \\      /  F ield         | OpenFOAM: The Open Source CFD Toolbox
   \\    /   O peration     | Website:  https://openfoam.org
    \\  /    A nd           | Version:  10
     \\/     M anipulation  |
\*---------------------------------------------------------------------------*/
FoamFile
{
    format      ascii;
    class       volScalarField;
    location    "900";
    object      epsilon;
}
// * * * * * * * * * * * * * * * * * * * * * * * * * * * * * * * * * * * * * //

dimensions      [0 2 -3 0 0 0 0];

internalField   nonuniform List<scalar> 
23845
(
0.0424711
0.0594777
0.0574019
0.0138443
0.04099
0.00242783
0.0765262
0.0107699
0.00176196
0.0258373
0.023946
0.0020595
0.00338321
0.00211507
0.12194
0.0123199
0.0064092
0.00880202
0.00444956
0.00314097
0.0337687
0.0210353
0.0278495
0.0017684
0.0261788
0.00118599
0.0518439
0.00287448
0.0103729
0.00310161
0.0154008
0.0244453
0.135202
0.00937679
0.00207398
0.00256459
0.0206235
0.00208499
0.00218405
0.00195985
0.00406
0.00611761
0.00283284
0.00593196
0.000845344
0.00406194
0.0282537
0.0142412
0.0226063
0.0108844
0.0144321
0.0467414
0.0275461
0.00252719
0.0237173
0.00558537
0.0547504
0.0110879
0.0429357
0.0353948
0.0105231
0.00635706
0.0106713
0.0126538
0.00155909
0.00346333
0.0547943
0.00070322
0.00073415
0.00559916
0.0105125
0.0419441
0.00155565
0.105734
0.001316
0.117992
0.00206516
0.00221368
0.0113416
0.00958227
0.0394586
0.0961443
0.059758
0.0111426
0.06441
0.00208865
0.0805217
0.0289167
0.00151782
0.00796085
0.0140996
0.0052764
0.0110132
0.00257814
0.0114011
0.0124204
0.00566796
0.016066
0.00128254
0.0324194
0.00666864
0.0594808
0.0507518
0.0136372
0.0128655
0.0114964
0.00244197
0.0011373
0.047035
0.00579274
0.021373
0.00211594
0.0892886
0.021491
0.00268404
0.0239574
0.00143591
0.0152534
0.0105165
0.0128619
0.00215974
0.01749
0.00567644
0.0214922
0.0632563
0.0013123
0.0104573
0.0107632
0.0400857
0.0311038
0.056661
0.0386559
0.0277129
0.00225111
0.008525
0.0485204
0.0129064
0.00203895
0.0457128
0.00222574
0.0118138
0.00572635
0.00221216
0.00639488
0.00890315
0.00541914
0.0188319
0.0854763
0.0189758
0.00933146
0.127463
0.00231813
0.0694102
0.00277388
0.0828809
0.0167747
0.0470641
0.00227891
0.0764529
0.0113702
0.00721274
0.118716
0.0117566
0.0016199
0.00211256
0.0120026
0.0022906
0.0159739
0.00301008
0.00534598
0.00228718
0.0150094
0.00172599
0.0180597
0.00162699
0.0111429
0.00609015
0.0221738
0.00109129
0.00224736
0.0325504
0.0285547
0.103273
0.0188644
0.0109848
0.00445728
0.006074
0.0110348
0.0105057
0.005878
0.011784
0.00219956
0.00216021
0.0023834
0.00789828
0.00210085
0.0122846
0.0107228
0.0213551
0.0228417
0.0136969
0.00231116
0.0168155
0.034315
0.0109551
0.0115681
0.0542325
0.00231827
0.0509539
0.00989428
0.0103486
0.0145427
0.00760274
0.00305081
0.0185817
0.0220415
0.02909
0.00669012
0.0176304
0.0528422
0.00181452
0.113285
0.0124076
0.0137894
0.00553306
0.126388
0.013593
0.0022254
0.00241951
0.00419669
0.00242256
0.0200971
0.00214848
0.000827204
0.0419573
0.0102701
0.00149027
0.0139928
0.00175437
0.0166438
0.0263662
0.0172228
0.0111116
0.040142
0.0164437
0.0117536
0.00239775
0.000713473
0.0112998
0.1157
0.00431316
0.00221988
0.0142288
0.00260438
0.101447
0.0136925
0.0154238
0.0125012
0.0027396
0.00191168
0.0330148
0.00230074
0.0104357
0.0207253
0.0180949
0.00169902
0.0111421
0.025851
0.0199173
0.0132135
0.00221029
0.0137325
0.0156719
0.00226597
0.0187526
0.0021356
0.0122897
0.00231677
0.0202195
0.0264205
0.0121921
0.00245767
0.0131092
0.0106544
0.00213415
0.0134247
0.0186572
0.00224514
0.0113224
0.0951608
0.0111335
0.0180355
0.012033
0.0123089
0.0112186
0.00211305
0.016632
0.00242067
0.00211813
0.0111593
0.081617
0.117492
0.0102611
0.0131474
0.00238276
0.0139014
0.0138135
0.0152219
0.0062971
0.0114032
0.0161618
0.0631151
0.00455514
0.00231108
0.0326651
0.0113681
0.0149808
0.0295989
0.0135081
0.00203432
0.0144176
0.0152501
0.0266735
0.00312911
0.109042
0.00231085
0.0117636
0.0292547
0.015561
0.00934678
0.0688324
0.0124558
0.0138647
0.00227746
0.0160106
0.0148907
0.0201295
0.00840896
0.00516438
0.0112832
0.0169829
0.0221893
0.0214427
0.000899218
0.000879458
0.0236996
0.00225281
0.012412
0.0115481
0.11121
0.019271
0.0552787
0.0107955
0.0131529
0.0280665
0.00213848
0.00486738
0.00165599
0.0983377
0.0109739
0.0281837
0.00145193
0.0180865
0.00919676
0.0104977
0.00230799
0.0206025
0.00270889
0.0108077
0.00115093
0.00580189
0.0141914
0.0252642
0.00205507
0.0023625
0.0136438
0.0304854
0.0164946
0.00532158
0.0142972
0.105639
0.00235883
0.027085
0.000827186
0.000858423
0.00215028
0.00244521
0.0111868
0.0131248
0.0111201
0.0610434
0.00510185
0.0166889
0.0151592
0.0169334
0.0118569
0.0176359
0.00107171
0.00597784
0.00232327
0.0247799
0.017596
0.0117708
0.0198968
0.0463928
0.108571
0.00227451
0.0198558
0.0114381
0.0123055
0.125465
0.000769496
0.0853248
0.0222743
0.0506074
0.0362254
0.0213061
0.0167016
0.00228759
0.0218901
0.0947119
0.00390481
0.001888
0.0114228
0.0108947
0.0529483
0.0829064
0.0171304
0.0222447
0.0270185
0.00219355
0.0085899
0.0231626
0.00802226
0.00375726
0.00137885
0.00204589
0.0043069
0.0104199
0.0209083
0.115729
0.0653492
0.0122677
0.0381422
0.017303
0.0165318
0.00324005
0.0196969
0.00229757
0.0152219
0.0112199
0.00223752
0.0538208
0.00228904
0.000864064
0.020822
0.0359524
0.0366172
0.0116793
0.00250164
0.0536997
0.0125934
0.012771
0.0330856
0.00243838
0.00228809
0.00244498
0.0192285
0.000946279
0.111655
0.00298994
0.00233566
0.0160451
0.0110815
0.0145805
0.0389644
0.00190862
0.0166604
0.00280436
0.00753188
0.0233782
0.0196682
0.0147716
0.0199121
0.0132322
0.0930873
0.00220114
0.0021114
0.0610024
0.0198829
0.00118038
0.079092
0.0123911
0.0209031
0.0110485
0.0253048
0.00146234
0.03304
0.00137194
0.00228955
0.0742258
0.0127287
0.0258995
0.0235402
0.0113963
0.0113929
0.0186103
0.00308803
0.00284242
0.0221663
0.0145376
0.0348595
0.0198167
0.0151786
0.00228582
0.00098299
0.018456
0.119967
0.0906249
0.00492907
0.0263422
0.00259823
0.00922719
0.0187303
0.00108675
0.0810113
0.105789
0.0132185
0.0305444
0.0115727
0.0104348
0.111551
0.0319775
0.0266742
0.0057497
0.00319376
0.0026504
0.0174586
0.0256786
0.0117036
0.0612721
0.00244352
0.0242278
0.0251639
0.00760734
0.0240165
0.0201718
0.00295046
0.00294225
0.0027969
0.00271273
0.00210404
0.0208446
0.00312547
0.0109545
0.0664093
0.00493126
0.0313765
0.00228175
0.00268683
0.0113506
0.0116435
0.0409289
0.00330953
0.00486515
0.0184003
0.0128458
0.00143206
0.0103991
0.00271061
0.00103561
0.0819447
0.00460152
0.00241484
0.0146609
0.0314184
0.0176656
0.0829103
0.012
0.0275746
0.00117009
0.0020859
0.00813996
0.0730806
0.0193566
0.0045252
0.00158497
0.00167649
0.0124039
0.00161688
0.0280609
0.120779
0.050986
0.0165996
0.0113222
0.00485904
0.000975013
0.00257434
0.00841235
0.002084
0.0432715
0.00294326
0.0261081
0.106924
0.0176682
0.0325286
0.0127039
0.0268723
0.0883258
0.0157489
0.0235507
0.0502074
0.0556365
0.0312588
0.0240429
0.0511984
0.0266802
0.0481412
0.0032334
0.00279178
0.0270493
0.0105572
0.0259246
0.0150758
0.0509543
0.011441
0.00368412
0.00634763
0.00244945
0.0105786
0.00324614
0.00355119
0.022804
0.00273122
0.00207403
0.100297
0.0513754
0.0148364
0.00121206
0.0160888
0.0400073
0.0122699
0.00290348
0.00289555
0.0385404
0.0316353
0.0371756
0.00250359
0.0308578
0.0531685
0.00262481
0.00217675
0.0250655
0.011926
0.0113184
0.134584
0.0358339
0.0247693
0.014459
0.0220682
0.0124931
0.00614231
0.00993163
0.05175
0.00890878
0.00122908
0.00234985
0.0375922
0.0165764
0.0299532
0.00943071
0.0126496
0.0212882
0.0136763
0.0118086
0.0227374
0.0107724
0.0248676
0.0197253
0.00910722
0.0246662
0.00917769
0.0050417
0.00843364
0.00879696
0.0350148
0.00522212
0.00737907
0.0293547
0.0293787
0.00657388
0.00561823
0.0128925
0.0146625
0.0166375
0.0194883
0.0216496
0.011199
0.0235942
0.010201
0.0230662
0.00873076
0.0180589
0.00808069
0.00863661
0.00911572
0.00701457
0.00599342
0.00626553
0.00360245
0.00577294
0.0177077
0.00176888
0.0053369
0.00619843
0.00572092
0.00248684
0.0180075
0.00541181
0.0154439
0.0174277
0.0104649
0.00509089
0.00562245
0.00276467
0.0165621
0.0124486
0.0263162
0.00216752
0.0147238
0.00459992
0.00804615
0.00292945
0.0050604
0.0231061
0.00839382
0.0259127
0.00523222
0.00241491
0.00358858
0.000999166
0.00433572
0.0130652
0.0107595
0.00165645
0.00476604
0.024794
0.00415381
0.0038083
0.00329498
0.0802097
0.00487177
0.000811931
0.033335
0.00597008
0.0185322
0.0242262
0.0209683
0.0206317
0.018216
0.0238971
0.00520576
0.0107848
0.0151503
0.0193692
0.00972533
0.0116549
0.00768669
0.0579101
0.00688528
0.00374181
0.0207824
0.0189922
0.0267168
0.0173125
0.0166072
0.00344638
0.0442339
0.0198124
0.00872095
0.00604716
0.00796729
0.0154988
0.00215239
0.0175533
0.00402405
0.00381773
0.00599056
0.00423812
0.00386575
0.00560825
0.00542119
0.00877622
0.0052358
0.00448638
0.00507887
0.0372384
0.0104323
0.00368052
0.00758064
0.00648628
0.00489485
0.0262529
0.0162258
0.0220456
0.0118336
0.0054129
0.00352326
0.00545552
0.00496359
0.0528396
0.0217697
0.0208552
0.00957765
0.00372708
0.0107998
0.0112383
0.0171801
0.00400996
0.00587109
0.00176693
0.00220719
0.00717878
0.00255547
0.00258014
0.00128251
0.00350261
0.00152693
0.00206445
0.00165417
0.00150035
0.00118315
0.00283507
0.00384897
0.00224671
0.00238084
0.00864188
0.00518256
0.00599536
0.0376843
0.0225794
0.0011167
0.00162443
0.00469536
0.0257685
0.0159648
0.0231324
0.0140886
0.00951604
0.00366463
0.0038756
0.00519434
0.00801316
0.00841662
0.00335804
0.00560482
0.00323992
0.00655222
0.00203132
0.100941
0.00214154
0.0184915
0.00623097
0.0275863
0.0034465
0.00464125
0.0064831
0.00456222
0.0132626
0.0104277
0.00489641
0.0151586
0.00285773
0.00323604
0.00188657
0.00184845
0.00151927
0.00141614
0.00479001
0.00490193
0.00368459
0.0184955
0.00372488
0.0178644
0.0193033
0.0184932
0.00513613
0.0141355
0.00472493
0.00172883
0.00677727
0.00136504
0.0110916
0.00336269
0.00146848
0.016356
0.00312069
0.00199657
0.0149761
0.00333279
0.0091796
0.0177039
0.0113063
0.00536466
0.00976069
0.00356428
0.00783175
0.00359565
0.0186203
0.0314979
0.00220406
0.0097483
0.0135702
0.0146177
0.0305977
0.0169001
0.00438236
0.00863005
0.00736597
0.00631791
0.135259
0.0174449
0.00574006
0.00500275
0.00291394
0.0225063
0.00510162
0.127003
0.00476046
0.00156256
0.00431978
0.00271367
0.00557325
0.00448911
0.00454448
0.0380222
0.00375457
0.0256239
0.00830699
0.025464
0.00455872
0.0115982
0.0112744
0.014038
0.0146714
0.00780166
0.0160183
0.0086668
0.0162291
0.0178098
0.0209025
0.00786854
0.0196696
0.0187999
0.0107567
0.0296727
0.0237174
0.0166962
0.0235751
0.00358873
0.00696496
0.00839642
0.00608939
0.00279562
0.00552665
0.0140406
0.006041
0.00343944
0.0164344
0.0135634
0.0172772
0.00675232
0.032529
0.00331598
0.00505685
0.00543212
0.0049194
0.00937723
0.00200825
0.0167015
0.0312868
0.0542284
0.0030618
0.00455511
0.020169
0.023299
0.00322395
0.0179974
0.0122865
0.0113398
0.0157569
0.0172044
0.00606189
0.0185883
0.0237782
0.0210794
0.0277884
0.0281935
0.0300168
0.00312369
0.00836464
0.00824841
0.00451582
0.0128681
0.0156178
0.00480109
0.0242653
0.00320183
0.100291
0.00329872
0.00326186
0.0108323
0.00312123
0.000786059
0.00218859
0.00157069
0.00483856
0.00389929
0.00432191
0.00526044
0.025966
0.0107524
0.00355101
0.0113362
0.00784585
0.0248889
0.0220563
0.0505924
0.0197723
0.00357658
0.00603596
0.00508241
0.0031308
0.00111357
0.00273325
0.0323405
0.0260409
0.00871487
0.0129801
0.0102046
0.0146041
0.0166655
0.0217936
0.00434876
0.03006
0.0217605
0.0262435
0.0200414
0.016984
0.0173921
0.00909878
0.0152858
0.00531678
0.0135752
0.0105271
0.00589555
0.0093017
0.00821139
0.00748739
0.00475349
0.00465357
0.0122154
0.0223112
0.0249266
0.00341379
0.0183374
0.00342572
0.00227163
0.00704844
0.00205202
0.0123177
0.00672273
0.00585034
0.00572747
0.00555379
0.00510126
0.0293715
0.0024689
0.00317082
0.0250433
0.00649746
0.00116707
0.011856
0.027373
0.0119643
0.0113735
0.0508149
0.0047219
0.0154631
0.0181874
0.0202344
0.00976142
0.00334133
0.0172803
0.014644
0.0152604
0.0132013
0.011396
0.0103775
0.0304437
0.00899994
0.0210783
0.00389636
0.00711511
0.0343517
0.00615337
0.00853444
0.045246
0.00638662
0.00105487
0.00240141
0.00562498
0.00295025
0.00423894
0.00351358
0.00329513
0.0272956
0.00518106
0.00465018
0.0297009
0.00300929
0.00326109
0.00329387
0.0460374
0.00486212
0.00417728
0.027264
0.00221431
0.00131869
0.00368754
0.0042359
0.00400593
0.0182958
0.00231676
0.00410233
0.0129599
0.0226376
0.0263039
0.0186749
0.0145689
0.0035246
0.00775316
0.00538293
0.00617911
0.00356125
0.0272978
0.00831797
0.00309323
0.00309116
0.00960286
0.00844482
0.0260789
0.0119149
0.00358279
0.00470765
0.00322116
0.0245755
0.00762244
0.00164844
0.0229408
0.00380457
0.0120668
0.00338919
0.00233951
0.00292876
0.0106411
0.00481857
0.00384751
0.020986
0.00339924
0.0259155
0.00798935
0.00260599
0.0167814
0.00447039
0.0138853
0.0146912
0.00978097
0.0187866
0.0108367
0.00328189
0.0122548
0.0115796
0.00268488
0.00645384
0.00422504
0.00362667
0.00862912
0.00122566
0.0016995
0.0108002
0.00146783
0.00298013
0.0137998
0.00137557
0.00247601
0.0178224
0.00229825
0.00183651
0.0155457
0.0347504
0.0300765
0.00214942
0.00326509
0.0212085
0.00227553
0.00244904
0.0367544
0.0207559
0.0367368
0.00798676
0.0322114
0.00450184
0.00677705
0.0132954
0.0181357
0.00351193
0.0158759
0.0426948
0.0343339
0.00338543
0.00449909
0.00306959
0.00216762
0.00288564
0.00539577
0.00401146
0.130662
0.00890733
0.0048529
0.0244407
0.00760124
0.0205906
0.00317387
0.0274493
0.00492741
0.00766064
0.0379531
0.00417356
0.0101866
0.0027939
0.00353989
0.0533214
0.00279358
0.0469012
0.015975
0.0240636
0.0162313
0.011984
0.0319214
0.00395932
0.00339248
0.0261407
0.00413477
0.00431605
0.00422641
0.0380029
0.00276484
0.00305838
0.00392806
0.0444233
0.00373769
0.00722119
0.00661211
0.00301382
0.0167068
0.00998886
0.0124228
0.0431973
0.00202427
0.0161411
0.00381156
0.0121489
0.00271569
0.0478276
0.00829314
0.00756767
0.00342686
0.0110532
0.0155617
0.00681678
0.0199853
0.0237401
0.00296244
0.00697474
0.00272615
0.0217161
0.0200052
0.00233802
0.010444
0.00811383
0.0115857
0.0117429
0.0164498
0.00660721
0.0152471
0.0164483
0.04107
0.0103025
0.0327564
0.00221162
0.012304
0.00344741
0.00325141
0.0645033
0.0384864
0.0222724
0.00231785
0.0358088
0.00780029
0.00633534
0.0411317
0.00666396
0.046258
0.0102811
0.0470276
0.0156597
0.00231138
0.106044
0.0145062
0.0137538
0.011664
0.0402059
0.0460507
0.00291972
0.00429273
0.142505
0.0332667
0.00330833
0.0461926
0.0486442
0.00451645
0.0329522
0.00445615
0.0407267
0.00774687
0.0117319
0.00159657
0.03592
0.0368985
0.00213402
0.121853
0.0431357
0.00198021
0.0121635
0.00360827
0.0218331
0.0337562
0.0111125
0.00289879
0.031714
0.0316606
0.00774848
0.0450341
0.00719601
0.00419859
0.0119047
0.0117004
0.0396558
0.00290042
0.0024158
0.0259476
0.00875949
0.00443075
0.00724563
0.00282991
0.0138682
0.0127823
0.0340624
0.0629519
0.0448941
0.00299877
0.0139766
0.00306813
0.0109375
0.0152884
0.00621983
0.0105672
0.00201039
0.0434267
0.0183429
0.00314465
0.00292974
0.0143069
0.028579
0.0463407
0.0514231
0.0176956
0.00690632
0.0129609
0.00233748
0.0030938
0.00402912
0.000950111
0.00253831
0.00459944
0.0357753
0.125921
0.00570642
0.00376303
0.00982799
0.039729
0.00460622
0.0153494
0.00793105
0.0112083
0.00580206
0.0117764
0.0274405
0.0284174
0.0151637
0.00280385
0.0161901
0.0813043
0.011393
0.00394331
0.0112314
0.0267583
0.0151607
0.00269176
0.00304511
0.00749765
0.0124741
0.0138953
0.0124055
0.00201263
0.0135443
0.0040527
0.00269685
0.0580102
0.0129925
0.0337385
0.0145703
0.0177952
0.0209283
0.00969221
0.00295062
0.0374005
0.00299474
0.00802474
0.00754047
0.0113292
0.0111117
0.015784
0.00793931
0.0144528
0.0302324
0.0113899
0.0200756
0.00265146
0.0507225
0.00279454
0.00265832
0.0268287
0.0248591
0.0105237
0.0465148
0.0126848
0.00321579
0.0251072
0.00282036
0.0291352
0.0385407
0.00283428
0.0190414
0.0502104
0.00576362
0.0417873
0.0191633
0.0332808
0.00803472
0.046976
0.0432718
0.00288754
0.00975531
0.0429916
0.00292117
0.00254259
0.0368528
0.00240624
0.0127108
0.0412705
0.0297696
0.0849301
0.00129738
0.00213991
0.00225973
0.0536107
0.00261946
0.00301932
0.00788086
0.0147694
0.00386596
0.00248301
0.00266829
0.0130698
0.0129377
0.00261352
0.0112862
0.00232954
0.00243765
0.00205604
0.0751069
0.0235921
0.00254863
0.00294073
0.0207874
0.0319397
0.00330354
0.0165068
0.00250571
0.00237071
0.0326623
0.00299255
0.027818
0.00223441
0.0175214
0.0107778
0.142534
0.0139411
0.0987603
0.0660922
0.00253692
0.0461054
0.00316555
0.00278041
0.00670746
0.023197
0.00292199
0.0137721
0.0229863
0.00420984
0.00396793
0.0156547
0.0491727
0.012514
0.0774494
0.0274278
0.0305289
0.00265893
0.0423111
0.0282628
0.00215611
0.0190559
0.00233685
0.00249486
0.0525326
0.01038
0.0104413
0.0612617
0.0561067
0.00322547
0.0109374
0.0044079
0.0270034
0.00258659
0.0402251
0.0416629
0.00217214
0.0336639
0.0027565
0.00242115
0.00230784
0.011227
0.0149645
0.104782
0.0348524
0.00368921
0.0591478
0.00253017
0.00247615
0.00215009
0.0328181
0.0112326
0.0023356
0.00710053
0.0622856
0.0147226
0.0167152
0.00272901
0.0111179
0.00369829
0.00410469
0.00540459
0.00108233
0.00524018
0.00179828
0.00237744
0.114332
0.00425772
0.00737921
0.00261384
0.011291
0.012168
0.034634
0.00109253
0.0118242
0.0315846
0.00965285
0.00276039
0.0330086
0.00200581
0.0274383
0.0128455
0.0115415
0.00754506
0.00389025
0.0612117
0.0491848
0.00252148
0.00387769
0.0547438
0.0419792
0.021403
0.0053976
0.0311963
0.0044122
0.0117197
0.00762432
0.0125055
0.00244116
0.00373011
0.00708778
0.0141684
0.0110772
0.00252964
0.0118867
0.014277
0.0132215
0.0129138
0.0198648
0.030527
0.0265647
0.00266317
0.0385964
0.0405398
0.0346942
0.000990933
0.0156396
0.01898
0.0122615
0.0412996
0.00191888
0.00278004
0.0321401
0.108165
0.0165688
0.0596961
0.0016673
0.00241334
0.00493722
0.00376204
0.0130993
0.00362416
0.00243292
0.0243037
0.0272602
0.0674187
0.0599732
0.0995138
0.0497072
0.0529905
0.0208471
0.0140149
0.0366948
0.00656454
0.0330594
0.00154854
0.0191868
0.00211895
0.0602672
0.0109476
0.00686882
0.0123243
0.00205196
0.0072732
0.00711659
0.00271245
0.0127945
0.002635
0.0512716
0.0405129
0.00353395
0.0303595
0.0316833
0.0159774
0.0328381
0.147106
0.0108986
0.0110906
0.0639477
0.0107218
0.0239578
0.00122701
0.0605786
0.00131031
0.0143348
0.0122205
0.00428827
0.038526
0.0298639
0.00159801
0.0116151
0.00373491
0.0726444
0.0308752
0.00706165
0.0976319
0.00653282
0.0270673
0.00315269
0.00734449
0.0587189
0.0173787
0.00831784
0.00223322
0.00299031
0.0146427
0.00423724
0.0795029
0.0143335
0.00810399
0.0628851
0.00208039
0.0106857
0.0100435
0.00265011
0.027435
0.0627793
0.0355703
0.0228049
0.013787
0.0592745
0.00268629
0.0159775
0.00231807
0.00253245
0.0126319
0.00203582
0.0475766
0.0624772
0.0627639
0.015985
0.0184157
0.0288681
0.0105167
0.00269222
0.00899488
0.00298509
0.0134909
0.00690421
0.00444365
0.00912925
0.124847
0.00236346
0.0826692
0.0448895
0.0125567
0.0115639
0.0423747
0.0335481
0.00216625
0.140732
0.00341501
0.00230096
0.00235315
0.133013
0.00366704
0.00230712
0.00300666
0.0355184
0.004403
0.0111518
0.00728729
0.0111941
0.00845999
0.00284387
0.0260946
0.0042532
0.00434469
0.0306915
0.00192979
0.0105705
0.00368905
0.0408339
0.0134076
0.0021538
0.0216044
0.0334065
0.0641588
0.00422816
0.00261214
0.087179
0.0646763
0.0811717
0.0580058
0.0702445
0.0540475
0.00220038
0.0234887
0.057153
0.00590964
0.012069
0.00204445
0.0105809
0.0254193
0.0106737
0.0162368
0.0754634
0.0190994
0.00168327
0.00202296
0.0021754
0.0123947
0.0111802
0.0164971
0.026859
0.0586236
0.00795394
0.00257211
0.0567229
0.104549
0.0113593
0.00477943
0.0205033
0.00410019
0.0111979
0.0263979
0.0124154
0.0106898
0.0103234
0.0140565
0.00463166
0.0977018
0.0126432
0.0594524
0.0402529
0.0106998
0.0117579
0.0111209
0.0323392
0.00449259
0.0140048
0.0220476
0.00549421
0.0116815
0.0066027
0.0283684
0.0125231
0.028343
0.0553119
0.050321
0.00597933
0.0488562
0.103406
0.00210188
0.0502923
0.00280696
0.0113112
0.0424472
0.00230554
0.0039406
0.0327287
0.00258058
0.00423632
0.00248311
0.00180674
0.0494971
0.00225525
0.0409745
0.0129292
0.0280219
0.0024451
0.0056396
0.00342565
0.0125866
0.00210409
0.0833745
0.0822744
0.0264654
0.0308443
0.0144103
0.0131072
0.0322327
0.0054985
0.0717515
0.0700869
0.0276233
0.0074749
0.00214856
0.00228129
0.0259679
0.0317123
0.00394984
0.00249856
0.00411081
0.0141537
0.00236908
0.00672549
0.0100888
0.0141766
0.0166751
0.00688464
0.00523207
0.00286394
0.0613549
0.00598565
0.0118104
0.00819244
0.0103733
0.00976395
0.00788113
0.0103806
0.0113429
0.0468656
0.0269827
0.0186759
0.00991787
0.0438872
0.00228032
0.0103033
0.00933021
0.00190599
0.00416776
0.0333613
0.0704808
0.00194218
0.0423041
0.0134062
0.0866134
0.0134343
0.0564909
0.00332835
0.0112507
0.0614088
0.010154
0.0235295
0.0748847
0.0516469
0.0020208
0.019706
0.00212965
0.040558
0.0287265
0.0181791
0.00242997
0.0055382
0.0432908
0.00403504
0.00918545
0.00700604
0.0330436
0.00232234
0.0241884
0.00189782
0.0742265
0.00202104
0.00153621
0.00709589
0.00766883
0.0618844
0.0277143
0.00393017
0.00678341
0.00949365
0.00204699
0.015091
0.00620007
0.0198024
0.0111997
0.0950115
0.00211685
0.00221707
0.0457101
0.0616438
0.0189795
0.14446
0.0552524
0.00391726
0.0259448
0.0786941
0.00252495
0.0639509
0.0237366
0.0363154
0.00696127
0.0710762
0.00208111
0.0488975
0.0021219
0.0462467
0.0113787
0.0022215
0.09063
0.00275612
0.0432358
0.0375711
0.00597543
0.00278605
0.0988044
0.124957
0.00774593
0.0277416
0.0607712
0.00172226
0.0148375
0.00668779
0.0118681
0.00365321
0.00198265
0.0128628
0.0698639
0.00472146
0.041729
0.0270376
0.00246893
0.00211985
0.00216434
0.00238678
0.00729443
0.015606
0.0193334
0.00570069
0.0516392
0.0110589
0.00344315
0.00382989
0.00239432
0.0809268
0.0487351
0.00223257
0.00929891
0.0256225
0.00852232
0.0635553
0.0384485
0.00215099
0.00335656
0.0110353
0.00171116
0.00403667
0.0332897
0.054491
0.00216088
0.00220224
0.0133547
0.0667595
0.0843662
0.00235206
0.00142177
0.107913
0.0142772
0.00152014
0.00220049
0.0531959
0.0464573
0.102738
0.00720954
0.0608534
0.0156157
0.115795
0.0633774
0.00235773
0.0374597
0.00234654
0.016895
0.00263209
0.00294755
0.0104617
0.0152885
0.0089838
0.0253851
0.00131966
0.00723395
0.0139039
0.0397337
0.00601188
0.085852
0.0268511
0.0403608
0.00262457
0.0924205
0.0230578
0.0106046
0.0116609
0.0120982
0.0421906
0.00133799
0.0308675
0.0500692
0.00137671
0.0191247
0.0111054
0.00258537
0.00260065
0.0022087
0.0112816
0.00581072
0.00290075
0.0529776
0.139913
0.00148465
0.0534597
0.0599639
0.0914052
0.0218487
0.0298221
0.0681683
0.00229543
0.0217896
0.0162651
0.00204946
0.00409983
0.00247489
0.0014969
0.0038063
0.0250962
0.0103618
0.0709084
0.00186977
0.0115071
0.00235865
0.00259256
0.00208332
0.0652753
0.0295419
0.00458796
0.00245853
0.0281642
0.0103973
0.0384479
0.0367364
0.0416333
0.029589
0.00226833
0.00226269
0.0118661
0.00223464
0.0111284
0.00259855
0.0203735
0.0474864
0.0149928
0.067961
0.00285241
0.00206013
0.021516
0.0286048
0.0171879
0.014324
0.0114926
0.0121386
0.127188
0.0900936
0.0321107
0.0730704
0.0136485
0.00183198
0.0107412
0.00768573
0.0382353
0.00222699
0.00213414
0.00741463
0.0363318
0.0144131
0.0191477
0.0106847
0.0119897
0.00230439
0.067001
0.0255835
0.0267885
0.00225769
0.138407
0.0673065
0.0332371
0.00125249
0.0711169
0.0167899
0.01424
0.00202306
0.0161594
0.0065625
0.00259107
0.0135111
0.0153179
0.0235768
0.0198574
0.116027
0.0560915
0.00247103
0.0494515
0.00219819
0.0108933
0.00621758
0.0408009
0.00253589
0.00219075
0.0743308
0.0103212
0.00226596
0.0716725
0.0260042
0.024278
0.00226695
0.00224411
0.0111563
0.0333095
0.00194055
0.00230645
0.00221135
0.0545491
0.00244328
0.00257066
0.00746457
0.00471639
0.0571909
0.00355123
0.0289129
0.00200831
0.0112791
0.0654608
0.0176159
0.0237036
0.0119117
0.00228494
0.00165701
0.00167839
0.00255269
0.0322388
0.0044796
0.00301696
0.0530739
0.011076
0.0114792
0.0469289
0.013961
0.00273417
0.00247191
0.00313195
0.0122456
0.0158969
0.00146509
0.0413127
0.0098482
0.0848785
0.0741444
0.0133273
0.00463697
0.072022
0.00253677
0.0020466
0.013108
0.104665
0.00403155
0.00217804
0.0129985
0.0158568
0.00220745
0.00225031
0.0196235
0.0118151
0.00200651
0.00220309
0.0107002
0.0069034
0.0410694
0.00200154
0.121667
0.0651334
0.00196993
0.0735647
0.0109518
0.0396435
0.0407535
0.0644137
0.0609639
0.0768042
0.0160397
0.00934266
0.0073502
0.00210051
0.00265825
0.010904
0.00893373
0.0368115
0.0700481
0.00226768
0.00169085
0.00223163
0.00207506
0.00215139
0.00221318
0.0118006
0.00508734
0.00175437
0.0107948
0.00197365
0.00234341
0.00335561
0.00225964
0.0315094
0.0314259
0.0172092
0.0167864
0.0108756
0.0330846
0.00654521
0.0104642
0.00177278
0.012894
0.00215695
0.0140187
0.0711883
0.014468
0.00442477
0.00194104
0.00656817
0.0387958
0.0384261
0.0110573
0.00254799
0.00800504
0.00223576
0.0585342
0.0108874
0.0166729
0.00320866
0.00348422
0.0121078
0.0080789
0.0345492
0.0189941
0.00488107
0.00197911
0.00238447
0.00394166
0.0493177
0.0219475
0.0832808
0.0229272
0.0106984
0.0457312
0.0243097
0.0260383
0.0176682
0.047944
0.0110863
0.00294135
0.0664452
0.0634514
0.011281
0.010892
0.0172323
0.00235403
0.0115404
0.00740098
0.0142821
0.0873481
0.0175497
0.00509173
0.00780166
0.04754
0.0766309
0.00194305
0.0127244
0.0128855
0.00485328
0.00225706
0.00228707
0.00107763
0.00452844
0.00278977
0.00221945
0.130501
0.0114722
0.0518717
0.0560319
0.0129871
0.00216871
0.0216362
0.0224977
0.0165653
0.00986144
0.0126206
0.00224761
0.0993407
0.0377709
0.0678992
0.000973094
0.00194398
0.00207924
0.0148839
0.0167364
0.01192
0.00188484
0.0108232
0.0428791
0.00223474
0.00129712
0.00500769
0.0768715
0.00168932
0.00627336
0.0108187
0.012917
0.00336747
0.0865457
0.036554
0.098495
0.0131721
0.020715
0.0260781
0.00239786
0.0260567
0.133111
0.0124747
0.00701408
0.0127535
0.0549026
0.0194284
0.0145478
0.0109875
0.0285672
0.00226484
0.0339898
0.00111009
0.00237291
0.00227533
0.0373665
0.0117819
0.0400323
0.0899862
0.0119057
0.0222115
0.0016883
0.0191812
0.00223751
0.00926691
0.0274052
0.0247323
0.00187171
0.00235597
0.0487839
0.00110907
0.0566556
0.00154083
0.0554129
0.00259229
0.0276149
0.00186022
0.0507624
0.0123442
0.0344006
0.0561979
0.0233106
0.0256464
0.00108616
0.0485908
0.0301924
0.0234199
0.0195509
0.0118311
0.0249631
0.0294726
0.00226426
0.0304694
0.0480924
0.00623987
0.0519378
0.0923664
0.00197955
0.011337
0.00305684
0.0665219
0.00247121
0.00239716
0.00227838
0.0366617
0.127745
0.0262192
0.0124005
0.019175
0.00201825
0.00938698
0.00305528
0.00590733
0.00237935
0.0109616
0.0101026
0.00963826
0.0021597
0.0756411
0.0720261
0.00174842
0.00553138
0.0325026
0.0371513
0.0276905
0.00209904
0.00221528
0.0102606
0.0349337
0.00259258
0.00200599
0.0840233
0.0253039
0.00176089
0.00595481
0.0216059
0.021052
0.0362176
0.0344502
0.0271142
0.0105461
0.0105402
0.0475288
0.0549562
0.00293114
0.011833
0.0107587
0.00224716
0.00285238
0.0105331
0.00257725
0.0265029
0.0510885
0.00330356
0.0331032
0.0968896
0.00308612
0.0149458
0.00383006
0.0329213
0.0199717
0.00947641
0.0113175
0.0895607
0.0103604
0.00587418
0.0110841
0.006228
0.0829717
0.0397822
0.0428027
0.00917574
0.00618712
0.00354223
0.0106623
0.00147948
0.00122939
0.00958061
0.0200046
0.00390811
0.00876536
0.00934718
0.00236739
0.0428009
0.0107178
0.0112833
0.00200922
0.129612
0.0038807
0.00214024
0.00436777
0.0282901
0.00309399
0.00315165
0.0127482
0.00262508
0.00361291
0.00991064
0.051205
0.00375391
0.0478935
0.0104508
0.00596153
0.0377267
0.0166082
0.00360388
0.112568
0.0121515
0.067183
0.00414681
0.0260326
0.0035033
0.0275164
0.134068
0.00324897
0.0172918
0.00976574
0.0111641
0.00220688
0.00223971
0.00447568
0.00215562
0.00285696
0.00351963
0.017021
0.0105737
0.00255612
0.00214187
0.00322306
0.018023
0.0322275
0.0339805
0.014724
0.00916455
0.135172
0.00257821
0.002368
0.00403431
0.002444
0.00245288
0.0203281
0.00363681
0.00508635
0.0285832
0.010673
0.010293
0.0383424
0.0433298
0.00254466
0.0619501
0.0122395
0.022628
0.0257457
0.0171293
0.0163056
0.03863
0.00286277
0.014397
0.00198674
0.011839
0.00145462
0.0385628
0.00664657
0.00342523
0.0128597
0.0298037
0.0265031
0.00233674
0.021634
0.0296927
0.0174629
0.00114455
0.00536929
0.00639028
0.0194438
0.00714312
0.124317
0.0228988
0.00644225
0.0107151
0.00136227
0.0021015
0.00810895
0.00207773
0.040479
0.0145616
0.00213605
0.00475152
0.0325313
0.00679751
0.0490543
0.0216215
0.0237904
0.00593995
0.00162757
0.0233152
0.0738126
0.00247621
0.00149484
0.0106879
0.00162742
0.00269698
0.0241864
0.00697292
0.0425149
0.026385
0.0555547
0.00705776
0.0233563
0.00170101
0.00191654
0.00263165
0.0322682
0.000975358
0.000834413
0.00121793
0.0123693
0.0105036
0.00136375
0.0288463
0.0645461
0.0379636
0.00220714
0.0225637
0.0969658
0.0313608
0.00267726
0.0139233
0.00298834
0.0568536
0.00152543
0.0112556
0.0275557
0.0309835
0.00216389
0.00325568
0.0129624
0.0357081
0.0465716
0.00428377
0.046477
0.00122482
0.00248464
0.0281316
0.0132517
0.00257231
0.0436307
0.0128446
0.00235749
0.0106845
0.0267919
0.0110904
0.00163701
0.00228186
0.0267549
0.00978981
0.00219611
0.0259861
0.0621622
0.0366376
0.0126741
0.001504
0.00241036
0.0141344
0.0504867
0.0143987
0.0544662
0.0807413
0.0691763
0.00215644
0.00219011
0.0045935
0.00210668
0.00219213
0.0291777
0.0386207
0.00230437
0.00238691
0.00227614
0.00122028
0.0215966
0.0158461
0.0128806
0.0010805
0.000958842
0.00107417
0.0140162
0.0288418
0.010776
0.00235418
0.041448
0.0040808
0.00420954
0.0402235
0.00407656
0.0173762
0.0287378
0.00196492
0.0126228
0.00203564
0.0123394
0.0112167
0.00904964
0.0660064
0.00228528
0.0247375
0.0308508
0.0134548
0.00401885
0.076174
0.088187
0.002373
0.00178468
0.0109555
0.0126487
0.00607422
0.0350791
0.0731547
0.0136293
0.0189295
0.0847679
0.0272857
0.0105379
0.0457469
0.0398269
0.0730947
0.043424
0.011616
0.0528451
0.000935958
0.00292157
0.00178794
0.0134308
0.00171172
0.0655896
0.0229725
0.00220931
0.00190954
0.000746842
0.000829782
0.00185422
0.0140953
0.0220698
0.0112094
0.0258831
0.0262622
0.0149651
0.00168489
0.00208306
0.012842
0.00434702
0.00235949
0.00224457
0.00287589
0.0163653
0.00219612
0.0104943
0.00212268
0.00402793
0.0229395
0.00127043
0.0114632
0.0136096
0.0513483
0.0983876