/*--------------------------------*- C++ -*----------------------------------*\
  =========                 |
  \\      /  F ield         | OpenFOAM: The Open Source CFD Toolbox
   \\    /   O peration     | Website:  https://openfoam.org
    \\  /    A nd           | Version:  10
     \\/     M anipulation  |
\*---------------------------------------------------------------------------*/
FoamFile
{
    format      ascii;
    class       volScalarField;
    location    "900";
    object      k;
}
// * * * * * * * * * * * * * * * * * * * * * * * * * * * * * * * * * * * * * //

dimensions      [0 2 -2 0 0 0 0];

internalField   nonuniform List<scalar> 
23845
(
0.0801378
0.0957319
0.0702413
0.0465617
0.0909583
0.0243988
0.0824224
0.0344731
0.0195211
0.0636327
0.0767262
0.022889
0.0267212
0.0219983
0.0909963
0.0465193
0.038751
0.0477682
0.0296339
0.0279673
0.0669856
0.0731817
0.0631672
0.0194355
0.0693232
0.0153597
0.0752126
0.026508
0.0200257
0.027589
0.0503581
0.018566
0.0864683
0.0486744
0.0229838
0.0255923
0.0158721
0.0230331
0.0234104
0.0208077
0.0279596
0.0389454
0.0241009
0.038941
0.0129166
0.0299976
0.0779325
0.0507364
0.023625
0.0153514
0.0301445
0.0721628
0.0197285
0.0244324
0.01799
0.0351969
0.0939405
0.0367791
0.0767389
0.0739
0.0271047
0.040084
0.0442824
0.024613
0.0179932
0.0274117
0.0767132
0.0118507
0.0120321
0.0331237
0.0311061
0.0616959
0.0176334
0.0882899
0.0162953
0.0912297
0.0228925
0.0235937
0.0406388
0.0469004
0.0694083
0.0892162
0.0969947
0.0374558
0.0680042
0.0230651
0.0874844
0.0194294
0.0177822
0.0414591
0.0270147
0.0317131
0.0214315
0.0255571
0.0366093
0.0274754
0.0358744
0.0536186
0.0161123
0.0835749
0.0384525
0.0782651
0.097769
0.0112104
0.0205543
0.0390974
0.0243531
0.0150568
0.0754175
0.0381909
0.0726565
0.0231769
0.0799413
0.0602685
0.026162
0.0590702
0.0170349
0.0503976
0.0207037
0.0319612
0.0233434
0.0221899
0.0334628
0.044919
0.079554
0.0161851
0.0283536
0.0152546
0.0548774
0.0786473
0.0548805
0.0915461
0.0827414
0.0230893
0.0434919
0.0913286
0.0102201
0.0227705
0.0745862
0.0236018
0.0173289
0.0378142
0.0236378
0.0406004
0.0407769
0.037139
0.0541063
0.0816318
0.0346966
0.0438541
0.0880314
0.0218863
0.0892862
0.0247268
0.076293
0.0611196
0.0974338
0.0240593
0.0610685
0.0254836
0.0374805
0.0906775
0.0362224
0.0184534
0.0203166
0.0515592
0.0236014
0.0229001
0.0272236
0.0369664
0.0234792
0.0474681
0.0191287
0.0437088
0.0184652
0.0388568
0.033829
0.0700327
0.0147683
0.0238716
0.0846582
0.0800512
0.0892027
0.0690895
0.0445552
0.030583
0.0388689
0.0363443
0.0184012
0.0379489
0.0223659
0.0224502
0.0221749
0.0239044
0.0387244
0.0216515
0.0163585
0.0187
0.0133478
0.0737205
0.0570023
0.0228173
0.0345611
0.0893779
0.0363861
0.036198
0.0667812
0.0239086
0.0811176
0.050386
0.050066
0.0213827
0.037197
0.0272049
0.0261216
0.0172498
0.0844552
0.0410252
0.0103934
0.0566334
0.0190231
0.0903434
0.0159142
0.0534466
0.0377353
0.0890958
0.0106074
0.0225917
0.0244028
0.0284643
0.0246764
0.0254301
0.0233499
0.0128026
0.093259
0.0239782
0.0175111
0.0479588
0.0191399
0.0478673
0.0215718
0.0525468
0.0383962
0.0930639
0.023724
0.0463393
0.0240387
0.0119282
0.037715
0.0908104
0.0313316
0.0237709
0.0299718
0.0229171
0.0882269
0.026984
0.0349999
0.0315936
0.0263599
0.0203179
0.0175334
0.0242046
0.0295063
0.0709109
0.0656283
0.0190848
0.0399218
0.0450658
0.0588389
0.0461097
0.023607
0.0449224
0.0298081
0.022873
0.0693549
0.0219501
0.0307467
0.0231352
0.0207683
0.0625054
0.0398328
0.0245521
0.0326513
0.0457808
0.023319
0.0294456
0.0467072
0.0222712
0.0361205
0.0837778
0.0390216
0.0273199
0.0254762
0.0306241
0.0376419
0.0231898
0.0306688
0.0239594
0.0232291
0.0222647
0.061134
0.0873181
0.0236675
0.0465133
0.0237124
0.0482615
0.0244532
0.0299131
0.0372499
0.0153076
0.0294403
0.0899215
0.0307327
0.0236266
0.062972
0.016618
0.0294026
0.0849573
0.0259861
0.0201405
0.0209642
0.022214
0.0370437
0.0275726
0.0888882
0.0239276
0.0427078
0.0752483
0.0354293
0.0494344
0.0790312
0.0511255
0.0288792
0.0241066
0.0342334
0.0487619
0.05328
0.0469103
0.0360668
0.0408436
0.0490132
0.0355008
0.0733996
0.0133445
0.0131582
0.0194289
0.0239762
0.0290634
0.0417372
0.0826109
0.0537044
0.053885
0.0148274
0.0311274
0.0199672
0.0220881
0.0354487
0.0184151
0.0861035
0.037706
0.0483424
0.0173237
0.0534127
0.0428233
0.0194437
0.0235993
0.0401526
0.0261127
0.0213901
0.0151467
0.0383809
0.0253734
0.0292908
0.0228677
0.0244649
0.0283651
0.0591665
0.0502144
0.036621
0.0439185
0.0899483
0.0245011
0.0620321
0.0127831
0.0130477
0.0233221
0.0246969
0.0400518
0.0572007
0.0377973
0.0786823
0.0361351
0.0257622
0.0218418
0.0285888
0.0236803
0.066153
0.0145296
0.0342021
0.0243514
0.0574317
0.0557879
0.0344729
0.0511144
0.0834679
0.0902696
0.0237318
0.0272372
0.0198157
0.032862
0.0910087
0.0123621
0.0850998
0.0386615
0.0982599
0.0643953
0.0615755
0.065858
0.023909
0.0572956
0.0619694
0.0313361
0.0203516
0.0416152
0.0314919
0.0862496
0.0566
0.0529325
0.0484393
0.0503829
0.0222683
0.0468881
0.0349095
0.0461269
0.0295389
0.0166032
0.0228238
0.030086
0.0229755
0.0499761
0.0908184
0.0480456
0.0195305
0.0523263
0.0541421
0.0292605
0.0282006
0.0616653
0.0239959
0.0460045
0.0405983
0.021605
0.0423072
0.0241619
0.0131168
0.0349453
0.0764263
0.0915055
0.0326948
0.0240739
0.0793911
0.0450265
0.0102519
0.0767764
0.0247045
0.023902
0.024319
0.0259465
0.0136928
0.0812082
0.0270226
0.0239141
0.0531621
0.0304912
0.026456
0.0916824
0.0198476
0.0247795
0.0258985
0.0394101
0.0694547
0.0613764
0.0501119
0.0716205
0.0581052
0.0875316
0.0236034
0.0231597
0.0762606
0.0389808
0.0153901
0.0627509
0.028353
0.0645419
0.0357434
0.0734887
0.0171152
0.0598022
0.0167519
0.0241371
0.0873041
0.018798
0.0400405
0.070791
0.0388426
0.0399841
0.0680447
0.0249227
0.0266178
0.039009
0.0497221
0.04261
0.0158488
0.0513014
0.0230972
0.0139427
0.0585536
0.0812183
0.0745944
0.0349317
0.0152708
0.0244468
0.0488463
0.0296896
0.0146053
0.0841208
0.0891473
0.0267802
0.0638767
0.0227828
0.0246485
0.0697317
0.0870732
0.0639829
0.0346605
0.0253362
0.0250781
0.0337381
0.0765117
0.0414434
0.0685242
0.023626
0.0604539
0.0608859
0.0380318
0.059324
0.0722527
0.024775
0.0266966
0.0244788
0.0244255
0.023152
0.0441736
0.026253
0.0361755
0.0906972
0.0354211
0.0420415
0.0241343
0.025854
0.0375875
0.0423741
0.0825324
0.0286757
0.0351703
0.0236632
0.0219639
0.0169468
0.0221963
0.0233763
0.0142668
0.084857
0.0310492
0.0242777
0.0500303
0.0841955
0.0395568
0.0670741
0.0325083
0.0787503
0.0151287
0.0230108
0.0392556
0.0774821
0.0312319
0.0342912
0.0177862
0.0183139
0.0332426
0.0180524
0.0659447
0.0869081
0.0856803
0.0654138
0.029104
0.0354875
0.0138262
0.0243585
0.0467259
0.022985
0.0671284
0.0264149
0.0789543
0.0898798
0.0478249
0.0809927
0.032468
0.0788521
0.0858933
0.0591149
0.0700427
0.0985897
0.0928904
0.0846226
0.0330468
0.0912022
0.0815501
0.0989106
0.0281346
0.0255261
0.0797929
0.027317
0.0762328
0.0589878
0.09688
0.0551141
0.0266881
0.0407849
0.0218808
0.0428178
0.0261345
0.0278044
0.0665742
0.0259443
0.0229747
0.0829812
0.0948848
0.0500497
0.0153945
0.064266
0.0860321
0.0556218
0.0269563
0.0241485
0.0771475
0.0846145
0.0711214
0.0224511
0.0794107
0.0612448
0.0259227
0.0235588
0.0794886
0.0408308
0.0259308
0.0805024
0.0417488
0.0679713
0.0357232
0.0737118
0.0552898
0.035593
0.0492608
0.0993256
0.0455972
0.0154902
0.0214409
0.0917345
0.054588
0.0819751
0.0408457
0.0579579
0.070496
0.0603383
0.0560775
0.0769044
0.0535754
0.0795363
0.0673081
0.0462374
0.075739
0.0494204
0.0351619
0.0473002
0.0455001
0.0879521
0.0340887
0.0442386
0.0842025
0.0780143
0.0416213
0.0368303
0.0586743
0.0625934
0.0665252
0.0718464
0.0754157
0.0546827
0.0780708
0.0521789
0.0723998
0.0482103
0.0639209
0.046361
0.0467415
0.0472254
0.043151
0.039665
0.0406493
0.026762
0.0368326
0.0563332
0.0192006
0.035471
0.0381529
0.0388052
0.0246647
0.066617
0.0376947
0.0639309
0.067865
0.0526635
0.0365013
0.0364416
0.0265328
0.0558575
0.0493916
0.0810525
0.0213506
0.0622828
0.0346668
0.0457125
0.0271753
0.0345762
0.0770736
0.0460963
0.0794998
0.036939
0.0232725
0.0292445
0.0140368
0.0335802
0.0557165
0.0323499
0.0182613
0.0352479
0.0794754
0.0328674
0.0303698
0.0286038
0.0822036
0.0344572
0.012655
0.0862479
0.0374282
0.0397986
0.0729236
0.0681991
0.0737437
0.0695331
0.0784527
0.0359054
0.0536899
0.0625106
0.0705718
0.0509895
0.0488931
0.0451833
0.0991829
0.0426581
0.0311626
0.074128
0.0709413
0.0817429
0.0507036
0.0608886
0.0290884
0.0972626
0.0663081
0.0463524
0.0399252
0.0460145
0.0290081
0.0220236
0.0644955
0.0322922
0.0284175
0.0394094
0.0331208
0.0316508
0.0383543
0.0354554
0.0463528
0.0360139
0.0341864
0.0346112
0.0837855
0.0522288
0.0299344
0.0444176
0.0410767
0.0333885
0.0814475
0.0618779
0.0723333
0.0526904
0.0364638
0.0291852
0.0359697
0.0347884
0.0984215
0.0667736
0.0739168
0.0457694
0.0310447
0.0534504
0.0233551
0.0640212
0.0278615
0.0332333
0.018639
0.0208024
0.0362751
0.0223492
0.0224424
0.0159344
0.026041
0.0173348
0.0200852
0.0180486
0.0171643
0.0153024
0.0234924
0.0272587
0.0209623
0.0215844
0.039343
0.0366468
0.0395337
0.0609686
0.0767169
0.0147996
0.0185721
0.0343763
0.0728896
0.0652142
0.0740785
0.061367
0.0483572
0.0265532
0.0273799
0.0314539
0.0382267
0.047329
0.0286259
0.0373101
0.0262902
0.0355751
0.0227364
0.0886443
0.023349
0.0594724
0.0390613
0.0829946
0.0298812
0.032067
0.0346566
0.0294889
0.0470288
0.0426308
0.0304948
0.04964
0.0236172
0.0250459
0.0192016
0.0189666
0.0172076
0.016626
0.0315585
0.0358174
0.0309277
0.0607862
0.0302813
0.0610759
0.0605825
0.0698505
0.031182
0.0482471
0.0299926
0.0183404
0.035347
0.0163361
0.0436837
0.0255175
0.0169279
0.0511487
0.0245867
0.0197426
0.0629385
0.0280718
0.0482945
0.0571299
0.0545956
0.0361569
0.0509302
0.0287736
0.0454879
0.0305373
0.0668354
0.0354233
0.023713
0.0509211
0.0598946
0.0622597
0.0847476
0.066792
0.0334283
0.0403058
0.044007
0.0404969
0.0902762
0.0222798
0.0387998
0.0361518
0.0260348
0.0643351
0.0350753
0.0917224
0.0350222
0.0175438
0.0294661
0.0230033
0.0370419
0.0341784
0.0315415
0.0923972
0.0310934
0.0603899
0.0402068
0.0803506
0.0342111
0.0477715
0.0545144
0.0604625
0.0620398
0.0414657
0.0560566
0.0477814
0.0654784
0.0686791
0.0739618
0.0453777
0.0689853
0.0698964
0.0486845
0.0839838
0.0756206
0.0660599
0.0668024
0.0304536
0.0427926
0.0444003
0.039893
0.0267265
0.0379788
0.0541247
0.039603
0.0298248
0.0648088
0.0543467
0.0650874
0.0406418
0.068751
0.0292794
0.0335745
0.0375145
0.0357579
0.0467063
0.0201442
0.0663437
0.0859441
0.0966582
0.0261392
0.0343285
0.0724859
0.0775812
0.0288214
0.0562687
0.0562393
0.0538974
0.0629351
0.0553758
0.0354779
0.0691653
0.0779196
0.0721388
0.0761652
0.0823238
0.0827082
0.0257208
0.0451923
0.0453431
0.0341676
0.0529741
0.0568069
0.0328259
0.0215859
0.0269902
0.0730443
0.0267667
0.0280411
0.0153962
0.0283456
0.0124843
0.0235572
0.0174901
0.0349072
0.031827
0.0325675
0.0352953
0.0809431
0.0263591
0.0303382
0.0542737
0.0402563
0.0732677
0.0672522
0.0948622
0.0716295
0.0303851
0.0384184
0.0363143
0.027274
0.0148423
0.0255458
0.0846589
0.080229
0.039576
0.0468443
0.0423461
0.049201
0.0519405
0.0756126
0.0336373
0.0855068
0.0681458
0.0750207
0.0728153
0.0599077
0.0679261
0.0473716
0.0638744
0.0373011
0.0602182
0.0530043
0.0394022
0.0497118
0.0467173
0.0444626
0.0352364
0.0339576
0.0565226
0.0584942
0.0798008
0.0296766
0.0538376
0.0296698
0.0217392
0.0424485
0.0228372
0.056985
0.0419108
0.0379183
0.0385033
0.0343394
0.0341129
0.082803
0.02233
0.0285163
0.0628504
0.0399811
0.0152243
0.0562803
0.0827429
0.0510976
0.0236351
0.0692787
0.0329897
0.0569879
0.0612441
0.0726715
0.0496185
0.0293553
0.0674925
0.0567423
0.0635925
0.0593104
0.0549844
0.0523836
0.029957
0.0488488
0.0630256
0.0317182
0.0433385
0.0827176
0.0355965
0.044606
0.0469837
0.0408713
0.0144307
0.0220206
0.038335
0.0273093
0.0332001
0.0300578
0.0275774
0.0825104
0.0367566
0.0347752
0.0649802
0.027829
0.0289912
0.0289351
0.0854643
0.0327601
0.0320211
0.0819079
0.0210105
0.01637
0.0309107
0.0304019
0.0283993
0.0435076
0.0214958
0.0324892
0.0517673
0.0757092
0.0806622
0.0694785
0.0617688
0.0290382
0.0448366
0.0372358
0.0396953
0.0299195
0.0824784
0.0458206
0.0271771
0.0282109
0.0502924
0.0454408
0.0604351
0.0375736
0.0298027
0.0337337
0.027688
0.0736934
0.0421472
0.0179136
0.0751751
0.0314241
0.043729
0.0293403
0.0240507
0.0274678
0.0490746
0.0345218
0.0276656
0.0706244
0.0291389
0.0734702
0.0440088
0.0236024
0.0645672
0.0331388
0.0558736
0.0584469
0.0467044
0.0646496
0.051748
0.0290155
0.0548254
0.0555263
0.0229022
0.0412685
0.0290736
0.0265533
0.0394299
0.015573
0.0182918
0.0433782
0.0170071
0.0240634
0.0480415
0.0164954
0.0219945
0.0533375
0.0212133
0.0190028
0.0504733
0.0902264
0.0787064
0.0216614
0.0272679
0.0595698
0.0237936
0.025049
0.0904864
0.0631483
0.0897399
0.0432199
0.073904
0.0330394
0.0416823
0.048167
0.0690111
0.0293446
0.0648291
0.0937098
0.0303443
0.0287234
0.0340843
0.0280673
0.0234646
0.0272225
0.0374776
0.0322946
0.090719
0.0485661
0.0355091
0.0790767
0.0410086
0.0733516
0.0285922
0.0617532
0.033198
0.0410761
0.0859194
0.0296537
0.0513306
0.0267683
0.0281621
0.0543946
0.0267978
0.090594
0.0626013
0.0779206
0.0429603
0.0426957
0.0874808
0.0304758
0.0273877
0.0732261
0.0311825
0.031879
0.0315265
0.0741725
0.0262209
0.0264387
0.0288001
0.0964458
0.0274038
0.0397555
0.0415963
0.0276714
0.0265561
0.0472438
0.0527321
0.0906123
0.022701
0.0128417
0.0294495
0.024948
0.026383
0.0971755
0.0440576
0.0423897
0.0293919
0.0507752
0.0614121
0.0398392
0.0689696
0.0700174
0.0243308
0.0402037
0.0264088
0.0667166
0.0639327
0.023798
0.049733
0.0444799
0.0519618
0.0491473
0.0633421
0.0418108
0.0579563
0.0619608
0.0831668
0.050769
0.081656
0.0227073
0.0573523
0.0296709
0.0267376
0.0685515
0.0864684
0.0653223
0.0235182
0.0877326
0.0435586
0.0381418
0.0890098
0.0392279
0.0806291
0.0260815
0.0987536
0.0614506
0.0237538
0.0784782
0.058428
0.0564862
0.0516477
0.0909371
0.0880503
0.0272206
0.0322185
0.0910878
0.065404
0.0278762
0.0974444
0.0968636
0.0319505
0.0432758
0.0335016
0.0784679
0.044126
0.0447495
0.018186
0.0851041
0.0685244
0.0232845
0.0894834
0.0833113
0.0209867
0.0330048
0.0284134
0.0614958
0.0727301
0.0392318
0.0264172
0.0833909
0.0648687
0.0445322
0.0918284
0.0417124
0.0330038
0.0543526
0.051208
0.0861254
0.027253
0.0227387
0.0776842
0.0435689
0.0330848
0.0432937
0.0250887
0.0597677
0.0555498
0.0765692
0.0827343
0.0958626
0.0276978
0.0585152
0.0275556
0.0509818
0.0614914
0.0395933
0.0290227
0.0203384
0.0902331
0.0143371
0.0269975
0.026194
0.0559522
0.0811536
0.0939424
0.0931103
0.0675393
0.0426493
0.0586479
0.0231964
0.0278154
0.0307539
0.0136774
0.0254841
0.0340232
0.0775899
0.0803141
0.0353352
0.0284134
0.0471974
0.0701992
0.0335727
0.0593578
0.0444983
0.0532335
0.0385656
0.0534672
0.080999
0.0803684
0.0616972
0.0267084
0.0639366
0.0866256
0.0305691
0.0319254
0.0520403
0.0775928
0.0612056
0.0240645
0.0279714
0.0426505
0.0523178
0.0586655
0.018059
0.0206854
0.0325249
0.0320186
0.0262944
0.0822203
0.0553913
0.0888096
0.0598943
0.0629696
0.0680754
0.0445756
0.026071
0.0841165
0.027563
0.0449506
0.0441378
0.05178
0.0392995
0.0627897
0.0416245
0.0613268
0.0756719
0.0320631
0.0704875
0.0240047
0.0884886
0.0267714
0.0259204
0.0814729
0.0700798
0.0257364
0.0444133
0.0576577
0.0286038
0.0747914
0.0256016
0.0718994
0.0908962
0.0269032
0.0673285
0.0976179
0.0357056
0.0795374
0.0688861
0.087912
0.0420661
0.0832693
0.0963468
0.0256972
0.0469775
0.0582973
0.0257604
0.0237817
0.0789869
0.0247523
0.0511984
0.0955482
0.0737359
0.0688452
0.0161006
0.0221469
0.0231741
0.0511619
0.0240179
0.0242022
0.0409431
0.0427872
0.0307157
0.0222837
0.0244406
0.0400914
0.0473783
0.0258792
0.0500819
0.0243873
0.0248274
0.0205357
0.0868664
0.0764162
0.0255491
0.0274119
0.056854
0.0866273
0.0257613
0.0582885
0.0253267
0.024519
0.0515675
0.0258321
0.0820582
0.0238688
0.0599405
0.0352756
0.0899727
0.0204402
0.087886
0.0920537
0.0239214
0.0967098
0.0282814
0.0254553
0.0413717
0.0680802
0.0273682
0.0325432
0.0317035
0.0327139
0.0318758
0.0517158
0.00335012
0.0459452
0.084252
0.0812704
0.0667809
0.0260863
0.0955397
0.00229895
0.0233605
0.0551142
0.0240619
0.0249669
0.0955798
0.0192895
0.0303998
0.0968493
0.0974145
0.0253292
0.0149056
0.0321433
0.0641333
0.0255647
0.0713373
0.0948722
0.0212788
0.0838629
0.026173
0.0227743
0.0238212
0.0184047
0.0499718
0.086964
0.0541991
0.0306206
0.0974819
0.0249712
0.0243223
0.0233906
0.0836497
0.0351316
0.0239413
0.0396385
0.0949735
0.0306429
0.0658143
0.0254739
0.0388536
0.0295975
0.0325664
0.0346625
0.0146185
0.0342835
0.0196957
0.0246392
0.0889487
0.0326933
0.0429805
0.0258449
0.0448268
0.0427102
0.0891544
0.0147839
0.0408951
0.0743123
0.0413642
0.0254763
0.0377293
0.0197391
0.00224349
0.0418754
0.0382715
0.0431207
0.0316231
0.0861385
0.0802489
0.0237504
0.0310756
0.0937254
0.0897719
0.0647873
0.0319102
0.00248252
0.0333565
0.0305367
0.0437145
0.0260127
0.0249672
0.0304571
0.0428124
0.0598297
0.0222781
0.02499
0.042737
0.020951
0.0585486
0.0500149
0.0552504
0.00272129
0.0766998
0.0254652
0.0931994
0.0933376
0.0668664
0.0139535
0.0479659
0.0541747
0.043828
0.00383363
0.0202022
0.0260604
0.0801423
0.0878584
0.0652524
0.0913966
0.0188032
0.0224502
0.0317412
0.0311216
0.0313497
0.0289081
0.024567
0.0675724
0.0740531
0.0882123
0.0939458
0.0768458
0.0659314
0.0965531
0.0224597
0.0481506
0.0920804
0.0358254
0.00298911
0.0175917
0.0524485
0.0231558
0.0525279
0.0247401
0.0423714
0.0564823
0.0200697
0.0422565
0.042748
0.0258084
0.0581139
0.0255134
0.0832392
0.0921129
0.0273241
0.0855445
0.0873144
0.0510284
0.00237518
0.0893984
0.0367541
0.0263356
0.0944919
0.0190615
0.0773749
0.0156366
0.0504232
0.0160046
0.0316224
0.0456848
0.028714
0.003488
0.0856566
0.0183177
0.0411504
0.0308877
0.0879842
0.0668897
0.0361519
0.0861012
0.0406759
0.0614172
0.0247251
0.0434739
0.0906584
0.0124788
0.0414156
0.0211947
0.0243641
0.0600199
0.0326817
0.0672269
0.0608414
0.0407625
0.0913852
0.0229912
0.03309
0.04284
0.0255076
0.0734984
0.0630554
0.00322998
0.0479875
0.0399317
0.0870135
0.0253644
0.0528544
0.0241299
0.0251259
0.0450611
0.021326
0.0605858
0.0938662
0.0896458
0.045051
0.0675017
0.0648013
0.0517139
0.0237281
0.0476939
0.0249852
0.0453177
0.0420425
0.0315281
0.0427949
0.0914281
0.0244356
0.0833644
0.00432626
0.0571916
0.0159686
0.00402203
0.0675831
0.0234954
0.0838646
0.0261829
0.0237792
0.0244811
0.0882793
0.0304365
0.0228712
0.0268883
0.0746256
0.0320975
0.0383563
0.0419394
0.0539261
0.0398909
0.0262889
0.069536
0.0309291
0.0293119
0.0806257
0.0204147
0.0525068
0.0279394
0.00362368
0.0495144
0.021847
0.0285679
0.0788301
0.0930573
0.0322349
0.0251859
0.0840769
0.0909068
0.0869708
0.0866596
0.0832596
0.0785157
0.021996
0.0555901
0.0773958
0.0351209
0.0405203
0.0212174
0.0273929
0.0351236
0.0247502
0.0542177
0.0831104
0.0152986
0.0189349
0.0226941
0.0235322
0.034254
0.0400852
0.0260935
0.0023673
0.0777707
0.040513
0.0251736
0.0897455
0.0725186
0.0411525
0.030275
0.0557893
0.0321469
0.0326919
0.0306496
0.0401892
0.0323508
0.0277379
0.0454336
0.0328563
0.0886145
0.0427218
0.0485683
0.0763875
0.0305128
0.0478103
0.0374104
0.0392787
0.0298724
0.0322933
0.0602203
0.0339987
0.0341999
0.0356467
0.00245998
0.0344445
0.0746405
0.0914076
0.0051911
0.0334354
0.0889318
0.0802763
0.0204354
0.0843659
0.0237848
0.0529094
0.0953515
0.023704
0.0315895
0.0885297
0.024795
0.0307378
0.0247903
0.0190225
0.0740915
0.0238826
0.0832577
0.010721
0.0531323
0.0245949
0.0327296
0.026081
0.0345899
0.0214468
0.0721618
0.086786
0.0795049
0.0651445
0.0437525
0.0327368
0.0882555
0.0340263
0.088469
0.0083496
0.0444907
0.0433113
0.0233983
0.0232903
0.0781311
0.0684282
0.0298877
0.0247272
0.0304624
0.040092
0.0235165
0.0353714
0.0453831
0.0601973
0.0401893
0.036673
0.0320274
0.0239758
0.0804346
0.0362649
0.0362156
0.0465027
0.0450333
0.0504584
0.0377697
0.0297749
0.0294173
0.00480463
0.00229588
0.0618022
0.0428419
0.0703032
0.023788
0.0262573
0.0449402
0.0193474
0.0296128
0.0844722
0.0811109
0.0206501
0.0914748
0.0105215
0.0753546
0.0203398
0.0817983
0.0253448
0.0338526
0.0529048
0.0506799
0.0649936
0.0068339
0.0971102
0.0226846
0.0513314
0.0220794
0.080492
0.0626686
0.0532718
0.0238848
0.0332154
0.0722257
0.031585
0.0404747
0.0418397
0.0743597
0.0242222
0.0551125
0.0194677
0.0818629
0.0212743
0.0178316
0.0381992
0.0386218
0.0844042
0.0606485
0.0307392
0.0390381
0.0482028
0.0228097
0.0536418
0.0387452
0.0241677
0.0152655
0.0882141
0.0231581
0.0223682
0.00439406
0.00511276
0.0257774
0.087401
0.0772111
0.0286634
0.0661423
0.0872549
0.0253747
0.0799475
0.0780696
0.0845048
0.0417027
0.0848915
0.0229663
0.00467396
0.0231383
0.051067
0.0372309
0.0224255
0.0867242
0.0233777
0.0446197
0.0798445
0.0342932
0.0241742
0.0887516
0.0793618
0.0398915
0.00265153
0.0947199
0.0189872
0.0307034
0.0407168
0.0337156
0.0288571
0.0203291
0.0568014
0.00521227
0.0336541
0.0625015
0.0801154
0.0243414
0.0231376
0.0233114
0.0243527
0.0411685
0.0404427
0.0551035
0.0327223
0.0931344
0.0464968
0.0293031
0.0312567
0.0242538
0.0858288
0.0976455
0.0236891
0.0428118
0.0795366
0.0474145
0.0608017
0.0930777
0.0208076
0.0275851
0.0370662
0.0184546
0.0297765
0.0558108
0.0839417
0.0233086
0.0234513
0.0195432
0.00525303
0.0624194
0.0235438
0.0168905
0.0710777
0.0578981
0.017752
0.023458
0.0766698
0.0904274
0.0815599
0.0424972
0.0793328
0.0515658
0.0879569
0.00554131
0.0220449
0.0928219
0.0230059
0.0130496
0.0257237
0.0254095
0.0431231
0.0503445
0.0435092
0.0778086
0.0162173
0.0400332
0.0592434
0.0641861
0.035402
0.0873955
0.00242123
0.0718854
0.0241164
0.00511774
0.0581721
0.0265798
0.0283694
0.0510072
0.0955462
0.0164752
0.074255
0.0739988
0.0168709
0.0463652
0.0524906
0.0233235
0.0240755
0.0236597
0.0336437
0.0370877
0.0269388
0.00505981
0.0909305
0.0174595
0.0780295
0.00559168
0.0881772
0.056418
0.00276411
0.0629011
0.0239784
0.0640045
0.0516171
0.0228099
0.0283084
0.0250894
0.017365
0.0282798
0.0712414
0.0278045
0.00625677
0.019662
0.0344746
0.0241974
0.0251317
0.0229657
0.0799411
0.00267935
0.0296883
0.0250779
0.0539158
0.0306082
0.0355141
0.0694199
0.0920391
0.064847
0.0235688
0.0233997
0.0500875
0.0235633
0.0359262
0.0252864
0.0557504
0.0745315
0.0119066
0.00583694
0.026553
0.0208798
0.0616424
0.0584333
0.0457263
0.0518227
0.0445209
0.0291466
0.0863452
0.0879966
0.0444167
0.00627892
0.0311808
0.0197503
0.0516689
0.0401064
0.0446135
0.0228134
0.020457
0.0411906
0.067922
0.0493463
0.0556052
0.0337891
0.0346486
0.0232638
0.0855672
0.0664722
0.0025331
0.0236036
0.08693
0.0879821
0.0338234
0.0156522
0.0908689
0.0530138
0.0169318
0.0226862
0.0513814
0.0358091
0.0253867
0.0581429
0.0104514
0.0722945
0.0172122
0.0899499
0.0459764
0.0249672
0.0546739
0.0236258
0.0345599
0.0343683
0.0711818
0.0252255
0.023604
0.00535628
0.027711
0.0235296
0.00435316
0.0608281
0.0759899
0.0234509
0.023164
0.0352316
0.00275322
0.0205522
0.0233436
0.02135
0.0953448
0.0233164
0.0250396
0.0370504
0.0299452
0.00539485
0.0266998
0.00252351
0.0212172
0.0157044
0.0573869
0.0526539
0.0625155
0.016803
0.0239781
0.0182056
0.0184889
0.0242431
0.00330677
0.0308789
0.0273746
0.0777563
0.0310029
0.0356048
0.0937042
0.0174497
0.0238745
0.0240551
0.028153
0.0373605
0.0429995
0.0174407
0.0594758
0.0481124
0.0850665
0.0822269
0.0100406
0.0322596
0.0821018
0.024659
0.0228292
0.0103155
0.0694867
0.0302221
0.0217146
0.0423505
0.0499982
0.0228171
0.0232107
0.0569015
0.037787
0.0226081
0.0236944
0.0217453
0.0407667
0.071058
0.022585
0.0742127
0.00466428
0.0198211
0.0057926
0.0346887
0.0937677
0.0716859
0.0797556
0.0908082
0.0849621
0.0541313
0.0467498
0.0404672
0.0230538
0.0257235
0.0360941
0.0429954
0.0485626
0.00505439
0.0237961
0.0189729
0.0223874
0.021773
0.0223545
0.0228583
0.0552916
0.0325834
0.0190813
0.0509172
0.0199984
0.0228441
0.0270338
0.0216381
0.085968
0.0867465
0.0212428
0.0399996
0.032408
0.0581417
0.0364989
0.0185
0.0196142
0.00999632
0.0223979
0.0518058
0.0879915
0.0474534
0.0297015
0.0205934
0.039527
0.033316
0.0937748
0.0381023
0.0243158
0.0431566
0.0235424
0.0849568
0.0331331
0.0538541
0.0249085
0.0281892
0.0553154
0.0415931
0.0695545
0.0573408
0.0309413
0.0210773
0.023441
0.0289872
0.0786866
0.0165994
0.0594424
0.0609475
0.022284
0.0754513
0.0451563
0.0620393
0.0527365
0.0703857
0.0159079
0.0265141
0.0668621
0.0865712
0.0274929
0.0149525
0.0546078
0.0225258
0.0378615
0.0395641
0.0110765
0.0877698
0.0134549
0.0327166
0.0385023
0.0764598
0.071618
0.0206044
0.0323296
0.0448613
0.0337536
0.0235712
0.0236817
0.0146463
0.0298481
0.0264837
0.0237621
0.0904722
0.0539985
0.0751541
0.0780207
0.0190283
0.0222972
0.057152
0.059393
0.0189922
0.0440462
0.0437452
0.0239315
0.0700309
0.0687075
0.0832034
0.0138314
0.0204543
0.0218142
0.0117676
0.0465411
0.04577
0.0200569
0.0316158
0.0718891
0.0228191
0.0162351
0.0309328
0.0767215
0.0183503
0.037276
0.0318362
0.0445188
0.0292848
0.08267
0.0814477
0.0810648
0.0503403
0.0237544
0.0540632
0.0236299
0.069962
0.0919713
0.0442962
0.0413559
0.0100584
0.077563
0.0151164
0.0451386
0.0372366
0.0679522
0.023032
0.048724
0.0148125
0.0242004
0.0222681
0.0924954
0.0539206
0.0390932
0.0872877
0.0355644
0.0575251
0.0187837
0.0568244
0.0238931
0.0412711
0.00235387
0.0604241
0.0203171
0.0237626
0.076674
0.014802
0.0673413
0.0175922
0.0615501
0.0254943
0.0499511
0.0202952
0.0690687
0.0479476
0.0892559
0.0754473
0.0263654
0.0166448
0.0147262
0.0415302
0.065596
0.053316
0.0602933
0.0457687
0.0613656
0.0723644
0.0231443
0.0778435
0.0738119
0.03408
0.0755749
0.0699176
0.0211106
0.034444
0.0250064
0.0805013
0.0250366
0.0242045
0.0237115
0.0905815
0.0908588
0.0427858
0.048989
0.0546358
0.0212689
0.0459911
0.0243385
0.0350505
0.0244192
0.0528229
0.0513606
0.0457187
0.0208308
0.0827562
0.00461768
0.0194993
0.0330499
0.0703837
0.0474081
0.0707282
0.0210673
0.0235309
0.0246892
0.08859
0.0257023
0.0226092
0.0595973
0.0796398
0.0190354
0.036261
0.0599402
0.00718365
0.0662602
0.0900473
0.0022457
0.0205737
0.0517226
0.0756718
0.0598325
0.0268668
0.0359533
0.0468677
0.0236406
0.0239576
0.0208619
0.0232722
0.0634989
0.0758553
0.0288183
0.087588
0.0706536
0.0247314
0.0215655
0.0300707
0.0725635
0.0586387
0.049627
0.0393947
0.0850498
0.05049
0.0344452
0.0389472
0.0367354
0.0838853
0.0388655
0.0523058
0.0423038
0.0355589
0.0296994
0.0318079
0.0174497
0.0157906
0.0454175
0.0583678
0.0311332
0.0481407
0.0436099
0.0239994
0.0756295
0.0342563
0.0451428
0.021234
0.0904156
0.0293098
0.0204647
0.029014
0.0195366
0.0280838
0.0261083
0.0238438
0.0231957
0.0300577
0.0492967
0.0751655
0.0306623
0.0844617
0.0286238
0.0368409
0.0569039
0.0562735
0.0304331
0.0870013
0.0346174
0.0534901
0.028776
0.0632218
0.0259708
0.00241994
0.0919677
0.028737
0.0527598
0.0496715
0.0347449
0.0235023
0.0236599
0.0321773
0.0210653
0.0246234
0.0299022
0.025516
0.047543
0.0241467
0.0232429
0.026622
0.013858
0.0682709
0.00444696
0.0552422
0.0487459
0.0898959
0.0254397
0.0241086
0.0291558
0.0249715
0.0249509
0.0604893
0.0272489
0.0331527
0.0649973
0.0332809
0.0234231
0.00215328
0.075134
0.0249166
0.00436122
0.0176458
0.0609565
0.0178221
0.0189138
0.0273382
0.0712616
0.0246092
0.0236835
0.0197519
0.0355259
0.0173223
0.0876279
0.0394222
0.0267103
0.0337081
0.0716368
0.0196411
0.0238313
0.0752298
0.0850399
0.0558232
0.015046
0.03421
0.0345589
0.0487093
0.036918
0.0823288
0.0765161
0.0399955
0.0339982
0.0167592
0.0203604
0.0382481
0.0203491
0.083956
0.0111481
0.0221773
0.0335425
0.0694949
0.0360733
0.0762563
0.0516291
0.0590259
0.0346348
0.0185794
0.0605163
0.0812473
0.0239002
0.0177099
0.0288615
0.0186357
0.0247338
0.0623495
0.0401977
0.0439067
0.0775072
0.0782679
0.0396977
0.0774433
0.0184449
0.0204893
0.0251068
0.0667253
0.0139168
0.0128413
0.0156869
0.0425373
0.031879
0.0167262
0.0705207
0.0795382
0.0700581
0.0219536
0.0502426
0.0871636
0.0361994
0.0260794
0.0293057
0.0245222
0.0773776
0.0178999
0.039794
0.0295065
0.0451078
0.023332
0.0288311
0.0400041
0.00626105
0.0055277
0.0297604
0.0440117
0.0157481
0.024357
0.0462758
0.04357
0.0232234
0.0739259
0.0494794
0.0240587
0.0259052
0.0275737
0.0385784
0.0183992
0.0234143
0.0713877
0.0451331
0.0226189
0.0734587
0.0737014
0.0579621
0.0375353
0.0176995
0.022052
0.0358163
0.0746144
0.0424344
0.0984502
0.0846989
0.08208
0.023328
0.0234937
0.0300227
0.0212409
0.021775
0.0182612
0.0698057
0.0241488
0.0246945
0.0240489
0.0157248
0.0633429
0.0123826
0.0357721
0.0147197
0.0137553
0.0146509
0.0102506
0.0628512
0.0351363
0.02432
0.0749511
0.0319349
0.0290113
0.0734889
0.0312734
0.023711
0.0732313
0.0205789
0.0344913
0.0214575
0.0274897
0.0305288
0.0409568
0.0802495
0.023669
0.0669467
0.0376953
0.0464615
0.0287561
0.0822994
0.0850317
0.0242739
0.0197692
0.0296323
0.0104151
0.0360453
0.0675643
0.0844511
0.0483203
0.0148622
0.0848131
0.0177143
0.0294419
0.054845
0.0519404
0.086497
0.0752605
0.0334695
0.0801352
0.0136369
0.0252897
0.0196821
0.0420599
0.0192164
0.0801322
0.0172997
0.0227359
0.0206019
0.0121441
0.0128658
0.0201866
0.0380332
0.0573549
0.0400122
0.0644482
0.0544058
0.0399026
0.0190321
0.0209127
0.0368966
0.0294518
0.023886
0.0236143
0.0244461
0.0126705
0.0234927
0.018581
0.0231562
0.0313546
0.0234431
0.0160327
0.0412451
0.0363623
0.0767371
0.0866445
0.0384348
0.0239542
0.035345
0.0352257
0.0685335
0.0287082
0.0283958
0.0316702
0.026405
0.079815
0.029355
0.023624
0.0234923
0.0204192
0.029738
0.035705
0.0740963
0.0773496
0.0137896
0.030247
0.0736863
0.0359947
0.0710977
0.0795222
0.0383095
0.0731973
0.0725041
0.0670207
0.0418007
0.0189163
0.0121736
0.0126495
0.0407645
0.0679693
0.0236164
0.053208
0.0724277
0.0665063
0.012309
0.0243295
0.0330196
0.0166849
0.0236536
0.0706341
0.0257854
0.0273624
0.0705983
0.0128132
0.0808609
0.0740016
0.0292354
0.0164765
0.029588
0.0567143
0.0720758
0.0117441
0.0115326
0.0139951
0.0884102
0.121909
0.136202
0.140968
0.140088
0.135317
0.128043
0.119281
0.109767
0.100071
0.0905619
0.0814973
0.0730395
0.0652743
0.0582299
0.0518959
0.0462364
0.0412013
0.0367334
0.0327782
0.0877062
0.120952
0.135268
0.140121
0.139376
0.134752
0.127623
0.118994
0.109597
0.099986
0.0905442
0.0815284
0.0731032
0.0653574
0.0583231
0.0519927
0.046333
0.0412956
0.0368249
0.0328666
0.0869705
0.11998
0.134299
0.139248
0.138638
0.134166
0.127187
0.118694
0.109417
0.0998984
0.0905274
0.0815629
0.0731722
0.0654474
0.058424
0.0520978
0.046438
0.0413983
0.0369238
0.0329608
0.0862065
0.118984
0.133301
0.13835