/*--------------------------------*- C++ -*----------------------------------*\
  =========                 |
  \\      /  F ield         | OpenFOAM: The Open Source CFD Toolbox
   \\    /   O peration     | Website:  https://openfoam.org
    \\  /    A nd           | Version:  10
     \\/     M anipulation  |
\*---------------------------------------------------------------------------*/
FoamFile
{
    format      ascii;
    class       volScalarField;
    location    "900";
    object      nut;
}
// * * * * * * * * * * * * * * * * * * * * * * * * * * * * * * * * * * * * * //

dimensions      [0 2 -1 0 0 0 0];

internalField   nonuniform List<scalar> 
23845
(
0.0136089
0.0138676
0.00773573
0.0140939
0.0181656
0.0220679
0.00798956
0.00993095
0.019465
0.0141044
0.0221257
0.0228947
0.0189945
0.0205919
0.00611143
0.015809
0.0210865
0.0233313
0.0177625
0.0224119
0.0119589
0.0229139
0.0128946
0.0192244
0.0165215
0.0179031
0.00982032
0.0220007
0.0034795
0.0220864
0.0148196
0.00126906
0.00497707
0.02274
0.0229235
0.022985
0.00109938
0.0229004
0.0225838
0.0198824
0.0173292
0.0223137
0.0184539
0.0230069
0.0177625
0.0199381
0.0193466
0.0162681
0.00222207
0.00194866
0.00566666
0.0100269
0.00127166
0.0212588
0.00122812
0.0199618
0.0145065
0.0109799
0.012344
0.0138865
0.0062833
0.0227473
0.0165381
0.00430874
0.0186891
0.0195263
0.00966601
0.0179737
0.0177477
0.0176359
0.00828374
0.00816742
0.0179889
0.00663517
0.0181599
0.00634837
0.022839
0.0226319
0.0131054
0.0206598
0.0109881
0.00745086
0.0141691
0.0113316
0.0064619
0.0229238
0.00855442
0.00117494
0.0187496
0.0194322
0.00465838
0.0171546
0.00375351
0.0228013
0.0105798
0.00547011
0.0204355
0.0161053
0.0182174
0.0193905
0.0199552
0.00926833
0.0169509
0.0008294
0.00295544
0.0119668
0.021858
0.0179405
0.0108834
0.0226609
0.0222293
0.0228481
0.00644153
0.0152113
0.0229507
0.0131081
0.0181883
0.0149864
0.00366831
0.00714802
0.0227075
0.00253376
0.0177538
0.0084493
0.00900457
0.0179654
0.00691895
0.00194584
0.00676144
0.0178977
0.00478404
0.0195122
0.0222334
0.0213141
0.0199694
0.0154715
0.000728366
0.0228867
0.0109527
0.0225247
0.00228768
0.0224737
0.0227322
0.0231991
0.0168085
0.0229073
0.0139909
0.00701642
0.00570975
0.0185487
0.00547184
0.0185973
0.0103368
0.0198376
0.00632058
0.0200424
0.018154
0.0228601
0.00439018
0.00514039
0.0175288
0.00623354
0.0100442
0.0189194
0.0175848
0.0199334
0.0218862
0.00295465
0.0221593
0.0230055
0.0216925
0.0135109
0.0190798
0.00952071
0.018861
0.0121949
0.0169119
0.0199069
0.0179871
0.0228209
0.0198164
0.0201976
0.00693443
0.0227732
0.0162647
0.0188857
0.0223858
0.0107734
0.00290075
0.0220501
0.00382055
0.0206228
0.0204866
0.0215775
0.0170876
0.0200826
0.00196052
0.00293505
0.000750858
0.0214137
0.0213504
0.0202741
0.00639308
0.0209517
0.0108767
0.0101941
0.00740101
0.0221915
0.0116224
0.0230929
0.0217995
0.00282958
0.016379
0.0218333
0.00330488
0.00121498
0.0220674
0.0226418
0.000551442
0.00546269
0.0179491
0.0064843
0.00183706
0.0186439
0.0231619
0.00565264
0.000744988
0.0206411
0.022151
0.0173754
0.022622
0.00289605
0.0228393
0.017833
0.0186559
0.00503852
0.0185186
0.0147936
0.0187933
0.0123899
0.00158842
0.0144289
0.011941
0.0194181
0.00308048
0.0164426
0.0216902
0.0179478
0.0113293
0.00641478
0.0204839
0.0229089
0.00568199
0.0181492
0.00690564
0.00478602
0.00714803
0.00718605
0.0228267
0.019435
0.000838045
0.0229178
0.00750841
0.0218357
0.0214224
0.019294
0.0128734
0.00707065
0.0156438
0.0144814
0.0226921
0.0132257
0.00510258
0.0207795
0.0230853
0.0203048
0.00692305
0.0207925
0.00191988
0.0133087
0.0117124
0.0220748
0.00731928
0.0177044
0.0229319
0.00581274
0.0105236
0.0198831
0.0103707
0.00663808
0.012309
0.00372453
0.00485444
0.00685727
0.011367
0.0229047
0.00508969
0.0213432
0.0229274
0.00399797
0.00412123
0.00584041
0.00491304
0.0148101
0.0212379
0.0150794
0.00389593
0.00529047
0.0198314
0.00184941
0.00482657
0.0115302
0.0186613
0.0217386
0.0109258
0.00218631
0.00519373
0.0219467
0.00449917
0.0179459
0.00274353
0.0029122
0.0046301
0.0218663
0.00652135
0.0222983
0.0139546
0.0174197
0.00725991
0.0235309
0.00816671
0.0188863
0.0054138
0.0229649
0.00658772
0.014371
0.0126922
0.0235525
0.0226693
0.0133063
0.0127308
0.00511182
0.0226126
0.0178231
0.0177181
0.0014335
0.0229657
0.00612486
0.0135762
0.005523
0.0134697
0.00472738
0.00183287
0.00662989
0.00127846
0.020533
0.0232352
0.0184304
0.00678522
0.0116601
0.00746279
0.0186028
0.0141964
0.017946
0.00324121
0.0217173
0.00704285
0.0226545
0.00381008
0.0179403
0.0228509
0.00408294
0.00305633
0.0229014
0.0228012
0.00530734
0.0103348
0.0137581
0.022681
0.0121419
0.00689296
0.0229042
0.0127863
0.0177792
0.0178489
0.0227657
0.0224497
0.0129057
0.0224363
0.0115626
0.00912764
0.0230343
0.00357917
0.00283234
0.004344
0.00425643
0.0223328
0.0177286
0.0176118
0.0229715
0.0119797
0.0159187
0.00908641
0.011818
0.0135155
0.00675481
0.0222853
0.00336264
0.00308963
0.00789828
0.00594135
0.0178739
0.00763879
0.00603944
0.0171704
0.0103024
0.016016
0.0233724
0.0224899
0.013497
0.00364915
0.0226325
0.0197441
0.0136451
0.00819266
0.0126446
0.00347766
0.0147204
0.00949315
0.00845563
0.0203456
0.0230346
0.00473523
0.0238701
0.0209007
0.0179932
0.0229159
0.018915
0.0045594
0.010751
0.00641428
0.00317913
0.00279838
0.00646065
0.0152472
0.00466106
0.0220906
0.0173751
0.0225554
0.0125134
0.0132212
0.0187752
0.0029931
0.0229537
0.0179207
0.00527835
0.0146218
0.0205803
0.00823724
0.0208501
0.0105637
0.014489
0.000740674
0.0160346
0.0225265
0.0224718
0.02177
0.00315104
0.0178323
0.00531574
0.0219803
0.0220364
0.0158527
0.00755085
0.00432033
0.0194154
0.0185754
0.00331697
0.0215257
0.018559
0.018571
0.0172378
0.0153002
0.0231847
0.0229636
0.00740768
0.0227795
0.0228633
0.00858017
0.00687803
0.0180595
0.00448074
0.0058389
0.0179356
0.0104071
0.0192079
0.0180284
0.00974175
0.0184093
0.0229015
0.0092418
0.00249852
0.00557121
0.0191597
0.0119151
0.0126294
0.0223912
0.018103
0.0224336
0.00617846
0.0153055
0.00468752
0.00114079
0.0156052
0.0210049
0.0177987
0.0167191
0.00494867
0.00552595
0.0222801
0.000796736
0.0207019
0.0232722
0.00423551
0.0176659
0.00786146
0.00676109
0.00488303
0.0120225
0.00403665
0.00524011
0.00392311
0.0213386
0.0138127
0.0188047
0.0180893
0.0213561
0.00586779
0.0205176
0.013208
0.00689711
0.0205592
0.0135762
0.0132587
0.0171121
0.0131885
0.023292
0.0187232
0.0218009
0.0192817
0.0197936
0.022928
0.00842512
0.0198465
0.0107517
0.0111481
0.0228985
0.00506985
0.0229743
0.0223902
0.0112024
0.0138791
0.0149783
0.0223616
0.0228823
0.00273882
0.00337989
0.0180492
0.00426392
0.0181437
0.0176887
0.00790854
0.0188556
0.0219668
0.0153655
0.0203066
0.00797178
0.00488365
0.00792593
0.0202413
0.0176047
0.0228461
0.0170382
0.00739338
0.00453533
0.0233867
0.0179633
0.0180054
0.0080181
0.0181399
0.0139476
0.00562824
0.0129585
0.0231997
0.00673315
0.0233262
0.0176455
0.0207433
0.0233582
0.0228158
0.00937245
0.021336
0.0214892
0.00679971
0.0116508
0.0181497
0.00746821
0.020824
0.0075175
0.0199704
0.0187484
0.0174236
0.013958
0.0206178
0.00408803
0.0146217
0.0224337
0.0182899
0.0220326
0.0210053
0.0211843
0.00636151
0.020175
0.0207723
0.0165779
0.0238949
0.0173998
0.0235847
0.0175914
0.0155978
0.0189367
0.0195928
0.0174922
0.0221804
0.0229048
0.00617891
0.0157718
0.0151955
0.0175973
0.0231037
0.0166504
0.022693
0.0225239
0.0181256
0.0138986
0.0203685
0.0122458
0.0181199
0.0183922
0.0063493
0.0230412
0.0229478
0.022687
0.0125813
0.00534675
0.00433379
0.00437761
0.0167872
0.00794336
0.022159
0.0220223
0.0185627
0.02199
0.0171575
0.0210039
0.0175703
0.017607
0.020147
0.0161788
0.0201912
0.0159218
0.0238996
0.0210103
0.0239585
0.0239675
0.0234102
0.0239806
0.0228949
0.0206706
0.0211272
0.0209304
0.0239509
0.0220703
0.0238756
0.0211804
0.0198831
0.020027
0.0238696
0.0217378
0.0186449
0.0237165
0.0217297
0.0240327
0.0240487
0.0239401
0.0238385
0.0236437
0.0240304
0.0232495
0.0240209
0.0204523
0.0239591
0.0203628
0.0239387
0.0227669
0.0220193
0.0238904
0.0236256
0.0237351
0.0178929
0.02115
0.0161291
0.0187574
0.0212178
0.0211356
0.0236895
0.0220164
0.0221799
0.0236298
0.0238181
0.0237845
0.0238521
0.0235541
0.0212575
0.0229174
0.0169547
0.0176372
0.0224674
0.0189277
0.0237115
0.0235136
0.0233735
0.0226885
0.0212624
0.023138
0.0227832
0.0219514
0.0234707
0.0201849
0.0214491
0.0177477
0.0234071
0.0213843
0.00875379
0.0181187
0.0234612
0.0229278
0.0234059
0.021797
0.022348
0.00758223
0.0219339
0.0177521
0.0200835
0.0211184
0.0076922
0.0197557
0.0199635
0.0237223
0.0238876
0.02318
0.0222883
0.0240555
0.0232128
0.0231416
0.0240602
0.0184599
0.0239033
0.0152884
0.0237862
0.0233576
0.0237964
0.0238487
0.0225091
0.0133647
0.0200918
0.0220963
0.0192477
0.0199727
0.022173
0.0237238
0.0239178
0.00488631
0.0202813
0.0213276
0.0233224
0.0190375
0.0233332
0.0232954
0.0233227
0.0236071
0.0208695
0.0220337
0.0222946
0.0234451
0.021228
0.0169664
0.0235332
0.0219116
0.0234233
0.023412
0.0204974
0.0227416
0.0212377
0.0213598
0.0211148
0.0221073
0.0217583
0.0213442
0.021944
0.0164992
0.0184331
0.0235784
0.019685
0.0232729
0.0238084
0.00436823
0.0214716
0.0174225
0.0169305
0.0176958
0.0176454
0.0164972
0.0175911
0.0175687
0.0178178
0.0174248
0.0177116
0.0175869
0.0177235
0.0176727
0.0178124
0.01752
0.0173743
0.0176024
0.0176113
0.0161201
0.0233222
0.0234619
0.00887759
0.0234592
0.0176523
0.0191101
0.0226512
0.018556
0.0239753
0.0213504
0.0240571
0.0221161
0.0173159
0.0174087
0.017142
0.0164124
0.023953
0.0219622
0.0223529
0.0191998
0.0173839
0.0229039
0.00700609
0.0229114
0.0172148
0.0220385
0.0224724
0.0233163
0.0199399
0.0166737
0.0171547
0.0150086
0.0156856
0.0170929
0.0146301
0.0175663
0.0174462
0.0175891
0.0175152
0.0175408
0.0175675
0.0187128
0.023554
0.023364
0.0179799
0.0221554
0.0187928
0.0171122
0.0237449
0.0170379
0.0148209
0.0171346
0.0175108
0.0165918
0.0175953
0.0154841
0.0174274
0.0175623
0.0143958
0.0174339
0.0175698
0.0238056
0.0212802
0.0228672
0.0165921
0.0237267
0.0219322
0.0239173
0.0209055
0.023778
0.0233413
0.0215908
0.00358541
0.0229611
0.0239392
0.023792
0.023866
0.0211256
0.0237575
0.0229489
0.016942
0.0236622
0.0233621
0.0054228
0.00256092
0.0236039
0.0235122
0.0209349
0.0165513
0.0217038
0.00596183
0.023189
0.0177277
0.0180895
0.0175496
0.0221575
0.0234199
0.0197026
0.020208
0.0231749
0.0128093
0.0175145
0.0228189
0.0231065
0.0177088
0.0237232
0.0234374
0.0236109
0.019835
0.0176555
0.0237083
0.0237763
0.0238359
0.0235538
0.0235523
0.0217751
0.0233882
0.0198309
0.0213933
0.0216998
0.0235235
0.0170362
0.0232583
0.0236625
0.021131
0.0235214
0.0229958
0.0234889
0.0187779
0.0233663
0.0232761
0.0230015
0.0195984
0.022068
0.0220158
0.0130777
0.0232678
0.0200623
0.0233169
0.0233924
0.0209372
0.0181854
0.0237185
0.0212478
0.0155058
0.020084
0.0232838
0.0234458
0.0232497
0.0231892
0.0158331
0.0231684
0.0230553
0.0226234
0.0160415
0.0186875
0.0231622
0.0229803
0.0222189
0.0187885
0.0216344
0.0205104
0.0190609
0.0219748
0.0224333
0.0232667
0.019627
0.0185962
0.0201992
0.00172821
0.0204765
0.00478798
0.0195473
0.0216953
0.00196949
0.023168
0.0178451
0.0228205
0.0175281
0.0226651
0.0233802
0.0220869
0.0213134
0.0227089
0.00581564
0.0233276
0.0233859
0.0185896
0.0194116
0.0184554
0.0160082
0.0233545
0.0232325
0.0220077
0.0233522
0.0213838
0.0178044
0.0214883
0.0199453
0.0222459
0.0161751
0.0152152
0.0158152
0.0149182
0.0145692
0.0236103
0.0234164
0.0218904
0.0192067
0.0193011
0.02381
0.0190181
0.0238761
0.022197
0.0240219
0.0235525
0.024041
0.0240191
0.0237006
0.0239111
0.0239211
0.023763
0.0235079
0.0223013
0.0235385
0.0138021
0.0229929
0.0232185
0.0142258
0.023127
0.0187238
0.0230078
0.0228742
0.0237264
0.0235152
0.0221187
0.0232956
0.019109
0.0205307
0.0210091
0.0181767
0.0230811
0.0141961
0.0221415
0.0178738
0.0240447
0.0225103
0.0196407
0.00442043
0.00850062
0.0207435
0.0189022
0.018561
0.0234899
0.0226995
0.0232111
0.0237248
0.0197877
0.02385
0.0239822
0.0238764
0.0237981
0.00265302
0.0238622
0.0169606
0.0232381
0.0237579
0.0179263
0.0185329
0.0209823
0.00439093
0.02354
0.0177673
0.0181734
0.0235132
0.0227513
0.0234027
0.0231424
0.0207719
0.0224474
0.023469
0.0234051
0.0127949
0.0231619
0.0231959
0.0228763
0.0142791
0.0198658
0.0220914
0.0221465
0.0179423
0.0182893
0.0233197
0.019638
0.0181199
0.00931153
0.0179502
0.0231574
0.0186103
0.0227881
0.022262
0.023264
0.0235697
0.0215315
0.0233361
0.0231816
0.0229507
0.0226229
0.0224282
0.0227168
0.02149
0.0231716
0.0237054
0.0220061
0.0126047
0.0106639
0.0223116
0.0217554
0.0214197
0.0198883
0.0209742
0.01752
0.0221708
0.0233595
0.0142623
0.02286
0.0222521
0.0231849
0.020369
0.0222593
0.0179037
0.0213905
0.0224805
0.0187458
0.0218178
0.0192391
0.0223583
0.022109
0.020235
0.0209271
0.0200714
0.0200228
0.0222399
0.0230876
0.022075
0.0239633
0.0175821
0.0237499
0.0180057
0.0174973
0.0162154
0.0178082
0.0177189
0.0156803
0.0177348
0.0174872
0.0150523
0.0178028
0.0175839
0.0143662
0.0176223
0.0176964
0.0147487
0.0210839
0.0185368
0.019647
0.0204952
0.0150586
0.0223914
0.0230584
0.0200493
0.0172912
0.0197293
0.0210494
0.0152605
0.0218231
0.023073
0.0157051
0.0236344
0.0220675
0.0238257
0.0185114
0.00241364
0.021933
0.0232395
0.0230974
0.0228605
0.0231129
0.0234279
0.0233992
0.00566878
0.023832
0.0233841
0.0230264
0.0199117
0.0235175
0.0231818
0.0125035
0.0201302
0.0198224
0.0175056
0.0189624
0.0232792
0.023082
0.0201643
0.00499405
0.0231356
0.0157491
0.0220785
0.0227084
0.0102335
0.0136902
0.0215768
0.0211122
0.0198993
0.0184611
0.0211647
0.0211917
0.0211652
0.013029
0.0223803
0.0205699
0.0190043
0.0188451
0.0180827
0.0196983
0.0235511
0.0228659
0.00379906
0.0201102
0.0201453
0.0171065
0.022912
0.000919501
0.0204784
0.00461082
0.0230681
0.0177696
0.0210652
0.0213698
0.0226882
0.0209922
0.0218119
0.0209548
0.0214214
0.0185854
0.0179848
0.0208567
0.0230245
0.0184472
0.0183885
0.0218009
0.021314
0.0219454
0.0209743
0.0185125
0.0219516
0.0238124
0.019827
0.0210066
0.0151572
0.0225163
0.0183199
0.0209827
0.0240602
0.0229832
0.0197887
0.00655685
0.0174844
0.0172424
0.0214765
0.0193452
0.0218917
0.0206669
0.0173357
0.0207826
0.0126485
0.00595479
0.0186636
0.0217026
0.0219704
0.00522703
0.0211802
0.0208787
0.0205824
0.0185112
0.0151519
0.0228399
0.021763
0.00524002
0.0115729
0.0211398
0.0185005
0.0173593
0.0203424
0.00511502
0.0226681
0.0136065
0.0226207
0.0153621
0.0186436
0.0181471
0.0114531
0.0228654
0.00591411
0.0144815
0.0200179
0.00806005
0.0201367
0.015589
0.0141032
0.0124654
0.021667
0.0197347
0.0119617
0.0230342
0.0168521
0.0217611
0.0233489
0.0223339
0.0201706
0.0168345
0.0230468
0.0192625
0.020932
0.0195037
0.0222343
0.0232818
0.0200183
0.0231823
0.0217269
0.0154908
0.009786
0.0184226
0.0230245
0.0220485
0.0222735
0.0213871
0.0222592
0.0226834
0.00717392
0.0185181
0.016874
0.00100855
0.0208602
0.0210774
0.0196939
0.0207402
0.0171397
0.0151733
0.0232001
0.0237039
0.0238843
0.0207175
0.0225072
0.0211268
0.0177204
0.0230269
0.0226511
0.015145
0.0046103
0.0196922
0.0193087
0.0203992
0.0111635
0.0220227
0.0206588
0.0224698
0.0227548
0.0230707
0.0218476
0.0215184
0.0204563
0.0225927
0.0228973
0.0227244
0.00830657
0.00738192
0.0232624
0.0217014
0.0202501
0.0222384
0.0193624
0.0231243
0.0218356
0.0197484
0.0222915
0.00236601
0.019134
0.00702942
0.0227668
0.0230735
0.0104881
0.0212536
0.0210395
0.0221587
0.020054
0.0199291
0.0184508
0.0207322
0.0170266
0.0228316
0.0226612
0.0232523
0.0212994
0.0125094
0.0224803
0.0196408
0.0234202
0.0170467
0.0081233
0.022274
0.0195591
0.0138936
0.0230821
0.0227467
0.0222674
0.0177804
0.00566459
0.0038166
0.0235871
0.0228983
0.0200515
0.0209156
0.0159689
0.0192936
0.0229831
0.021426
0.0170808
0.0199077
0.0136251
0.0222862
0.0209
0.0198215
0.0132842
0.0193069
0.020582
0.0203601
0.0071147
0.0204453
0.0200194
0.0152364
0.0229158
0.0185602
0.0199089
0.0164372
0.0050226
0.0179829
0.0206288
0.0213891
0.00439424
0.0198198
0.0174599
0.0191439
0.011156
0.0219637
0.0179986
0.0201482
0.0110681
0.0156151
0.0230632
0.0200013
0.0229773
0.0227579
0.01846
0.00904204
0.0222765
0.0230508
0.0229967
0.0139947
0.0211457
0.0180801
0.0185245
0.0230394
0.0228228
0.00732737
0.0200687
0.0217851
0.0229478
0.018455
0.0103911
0.00511149
0.0026972
0.00703882
0.0115392
0.0203006
0.0182571
0.0227402
0.0209744
0.0229662
0.0179826
0.0230704
0.00692087
0.00393538
0.0228793
0.0230463
0.0153761
2.05419e-05
0.0151819
0.00824869
0.0216729
0.0131473
0.0230334
0.0194158
1.683e-05
0.022779
0.0143463
0.0222983
0.0224868
0.0156511
0.00322616
0.00796576
0.0137799
0.0152221
0.0179016
0.00182821
0.0210956
0.0137085
0.0227404
0.0113862
0.0194433
0.0187607
0.0188026
0.0223662
0.0192803
0.0221291
0.00271542
0.0150186
0.0064958
0.00758566
0.0228738
0.0144595
0.0221806
0.0215018
0.0229018
0.0191892
0.00988909
0.0220872
0.0199153
0.0130335
0.0057401
0.0233223
0.0214007
0.0122203
0.0213182
0.0232542
0.0200078
0.0177701
0.0201868
0.0194146
0.0229819
0.00622808
0.0225934
0.0225307
0.0229992
0.0160172
0.0134923
0.020655
0.0180047
0.0127295
0.0157358
0.0159528
0.0211614
0.00388126
0.0174826
1.65096e-05
0.012286
0.0114217
0.0221795
0.0231352
0.0109095
0.0117839
0.020134
0.0224134
0.0144418
0.0172779
0.0176501
0.0169786
1.77797e-05
0.022696
0.00716095
0.0225576
0.00486983
0.0229818
0.0223819
0.023274
0.0227381
0.00403245
0.0222186
0.013829
0.00276704
0.0233343
0.0174336
0.0138302
2.18327e-05
0.0199308
0.0219148
0.0202545
0.0193408
0.0115985
0.0176834
0.0132398
0.0139168
0.0140995
3.20271e-05
0.0191423
0.0219864
0.0179854
0.0064228
0.0231284
0.0125938
0.019085
0.018796
0.0183657
0.0231709
0.00675244
0.0207527
0.0223263
0.0169087
0.018105
0.0103877
0.0132446
0.00534071
0.0078706
0.0158335
0.00217774
0.0148887
0.0207957
0.0175962
2.43237e-05
0.0179861
0.0129035
0.0227741
0.00412042
0.00503183
0.0235237
0.0232972
0.0176666
0.0220956
0.0231101
0.0221006
0.0237564
0.022233
0.0121625
0.0188491
0.019014
0.0216936
0.0216562
0.0146676
1.54617e-05
0.00488957
0.0111554
0.00562828
0.0125663
0.0030499
0.0224903
0.0179342
0.00377732
0.0175938
0.00627827
0.0153707
0.017304
2.84211e-05
0.0221114
0.0188975
0.0131211
0.0229898
0.00959068
0.0130422
0.0166571
0.00683392
0.0227938
0.0125423
0.0174517
0.02316
0.0125974
0.000806441
0.0185592
0.0181036
0.017866
0.0221418
0.0226866
0.00511618
0.0232428
0.018453
0.0119522
0.0228676
0.00922213
0.0164458
0.0220963
0.0177212
0.00569994
2.6397e-05
0.00908805
0.010409
0.011496
0.0215545
0.015736
0.0226062
0.0224359
0.014467
0.0201057
0.0069437
0.0126923
0.0115237
0.0114271
0.0222681
0.0130915
0.0228863
0.0188217
0.0227601
0.0188213
0.0137005
0.0230412
0.0201325
0.0180547
0.00602592
0.0227375
0.0075659
3.75251e-05
0.0234439
0.00198459
3.43579e-05
0.0122533
0.0229351
0.00449787
0.0180671
0.022117
0.022922
0.0052731
0.0227362
0.0204056
0.0216414
0.0141112
0.021059
0.0118733
0.021723
0.0233804
0.0169285
0.0218714
0.0166767
0.0202424
0.017798
0.0190621
0.0194366
0.0234735
0.0190442
2.89415e-05
0.0164572
0.0199443
0.00339983
0.0167416
0.0121475
0.0221179
0.0218555
0.00729766
0.0114998
0.00838657
0.0116521
0.00888174
0.0102655
0.0197894
0.0118407
0.00943274
0.0187851
0.0122438
0.0198176
0.00638262
0.00436795
0.00516515
0.0162938
0.00823791
0.00110288
0.0191696
0.022913
0.0229101
0.00851982
0.0129349
0.00371448
1.87785e-05
0.00928543
0.0185716
0.022174
0.0127794
0.0045271
0.0134178
0.0172598
0.0136622
0.0226839
0.00858988
0.00320274
0.0117085
0.00881135
0.00670758
0.0132166
0.020977
0.00723352
0.0129923
0.00357091
0.0130464
0.00783124
0.0174966
0.0113263
0.00429366
0.0178767
0.0067018
0.0148036
0.0189349
0.00901138
0.0173205
1.91987e-05
0.00852648
0.0176907
0.0135953
4.8196e-05
0.0168268
0.0145692
0.0056088
0.0178814
0.0127372
0.0181387
0.0222742
0.0192774
0.0219339
0.022791
0.0215523
0.0214414
0.0200724
0.0222746
0.0180253
0.00998159
0.022762
0.0152257
0.000800088
0.00906699
0.0222656
0.0170953
0.017871
0.00855529
0.0196745
0.00562113
0.00823905
0.0214957
0.0123829
0.0119557
0.00735879
0.0217485
0.0189508
0.00981734
8.95234e-05
0.00644918
0.0225861
0.0229332
0.0213999
0.021157
0.0132888
0.0203539
0.0220243
0.0203162
0.0102209
0.0210092
0.0167426
0.0183735
0.0230052
0.00871755
0.0175814
0.0176446
0.0180645
0.00949026
0.0197745
0.00999462
0.0237567
0.0175952
0.0234685
0.0162908
0.00768639
0.00686635
4.4331e-05
1.75814e-05
0.0184064
0.0166556
0.0101357
0.0223339
0.00602238
0.0194814
0.0176752
0.0189364
0.0192499
0.00840099
0.0197606
0.0178017
0.00074318
0.00590034
0.00277154
0.0106599
0.0173697
0.00916744
0.00410206
0.0227654
0.0161574
5.6129e-05
0.0164334
0.0229183
0.012034
0.020602
0.0143771
0.0123044
0.0140496
0.0211293
0.0179288
0.010845
0.0222513
0.0160513
0.0224878
0.0150602
0.0227375
0.0113015
0.0179728
0.00812564
0.0201548
0.0186282
0.0185074
0.0175056
0.0103607
0.0119448
0.021638
0.0202195
0.0220269
0.0228751
0.0171605
0.0217912
0.00265458
0.00187266
0.00737126
0.0228012
0.0203107
3.80156e-05
3.81649e-05
0.00315091
0.00475913
0.00971071
0.0188763
0.0151758
0.00870723
0.0229505
0.0089951
0.0231093
0.0176976
0.0224845
0.0091253
0.0228101
4.02092e-05
0.0227081
0.00507508
0.0109637
0.0203743
0.00746881
0.0178463
0.00414431
0.0152714
0.0177129
0.0188781
0.00717495
0.00453635
0.0184897
2.2809e-05
0.013287
0.0188394
0.00571813
0.0223104
0.00862033
0.020515
0.01876
0.0225749
3.4998e-05
0.0215895
0.00842529
0.0213652
0.0215986
0.0227286
0.0225972
0.0223627
0.0209113
0.00943259
0.0141349
0.0169045
0.0151176
0.0175945
0.0224446
0.0229585
0.0221115
0.00819249
0.0176078
0.0226222
0.0177393
0.0222205
0.0237415
0.00523507
0.0202794
0.0181154
0.0204032
0.011205
0.0179127
0.0197681
0.00842112
0.0116378
0.0226279
0.0224756
0.00257395
3.72006e-05
0.00415635
0.0212104
0.0180593
0.00421341
0.0211314
0.0186576
0.0225063
0.00994517
0.0158412
0.00582724
0.0225453
0.00930815
0.0153252
0.00601302
4.36047e-05
0.0185509
0.0207004
0.0202998
0.000907151
0.022626
0.019714
0.0159978
0.0149205
0.0189646
0.0214644
0.0179365
0.0199392
0.0227188
0.00933181
0.0187624
0.00800702
1.96496e-05
0.011523
0.0199438
2.55053e-05
0.0132085
0.00599588
0.00621167
0.0193546
0.0194739
0.0182578
0.0160765
0.00984286
0.0186071
0.0101165
0.0223291
0.0189368
0.0200592
0.02281
0.00902979
0.0213045
0.0225159
4.3493e-05
0.00531868
0.018479
0.0102502
4.69285e-05
0.00765568
0.0131115
2.30577e-05
0.00522368
0.0225434
0.0169205
0.0147425
0.022848
0.0175917
0.0228912
0.0181301
0.01891
0.0182012
0.00671484
4.96873e-05
0.0186084
0.00929554
0.0223417
0.0219259
0.0227848
0.00881117
2.18707e-05
0.0172899
0.0230222
0.00928916
0.00810953
0.00295238
0.0118063
0.0183125
0.0127906
0.02204
0.021779
0.0190281
0.0223619
0.0104383
0.0221455
0.01373
0.0105282
0.000851014
4.51183e-05
0.0222463
0.0190459
0.0158943
0.010743
0.0109484
0.016874
0.0155221
0.00629866
0.00527563
0.00773535
0.00552948
4.85592e-05
0.00641109
0.0191632
0.0223692
0.0188358
0.004685
0.0210332
0.0176483
0.0205944
0.0114281
0.0152053
0.014533
0.00961686
0.00901166
0.0211372
0.00983505
0.015544
2.15575e-05
0.0222094
0.00491386
0.0103508
0.0030978
0.0176045
0.0104496
0.0150651
0.00181191
0.0228959
0.0147038
0.0175857
0.022386
0.0225188
0.000641794
0.0199511
0.00134275
0.00627602
0.00339168
0.022704
0.00544031
0.0228535
0.00986794
0.0170977
0.0111766
0.0225835
0.0228888
3.47377e-05
0.00669604
0.0219898
2.37957e-05
0.0128059
0.0214063
0.0218334
0.0215192
0.0100135
2.04812e-05
0.0195901
0.0212635
0.0185516
0.0149985
0.0200259
0.021951
0.016551
0.0171115
4.58009e-05
0.0180668
1.98226e-05
0.0201738
0.00196793
0.0045278
0.0141644
0.0148389
0.00213325
0.0226463
0.0180023
0.0183304
0.0207214
3.05262e-05
0.019157
0.0223547
0.0102526
0.00781026
0.00993914
0.0168392
0.00196293
0.0187623
0.021068
0.0227761
0.0102586
0.0104678
0.0186855
0.00770618
0.0211543
0.00767294
0.00820714
0.000680799
0.0201988
0.00842331
0.0215731
0.0229188
0.000730611
0.00415186
0.02039
0.0194842
0.0124184
0.0141885
0.0212263
0.0215466
0.0148495
0.0108765
0.0229261
0.0229352
0.00397727
0.0216666
0.011065
0.0229361
0.00407404
3.00613e-05
0.0179494
4.10506e-05
0.00988854
0.0199607
0.0113487
0.00888764
0.0121736
0.0084588
0.0164416
0.0210539
0.0200516
0.0227721
0.0224032
0.010753
0.0186231
0.00576584
3.28234e-05
0.0224736
0.0191604
0.0202129
0.0205612
0.0209051
0.0212477
0.0233161
0.0187821
0.0186783
0.0216151
0.0182375
0.020042
0.0196013
0.0186485
0.0211094
0.0215506
0.00235996
0.00857822
0.00869146
0.00919586
0.018318
0.0029436
0.0195312
0.000697483
0.0209322
0.0172302
0.00978849
0.0140078
0.0179436
0.0196636
0.0214085
0.00257492
0.0205962
0.0118167
0.0208845
0.0209398
0.0223109
0.0110976
0.00907491
0.0156555
0.0174026
0.020526
0.0227442
0.0192723
0.0126025
0.0155794
0.0176525
0.0202025
0.0207397
0.0191856
0.011299
0.00112991
0.00381848
0.0145815
0.00417743
0.0112037
0.00754918
0.0133034
0.0141669
0.00929987
0.0020544
0.0215105
0.00605534
0.0106304
0.00603025
0.00184742
0.0155743
0.0193995
0.0111794
0.0190351
0.000773131
0.00793742
0.000928395
0.0189197
0.0171013
0.0110675
0.00602397
0.0196642
0.00739279
0.0140567
0.0211274
0.0221545
0.0220693
0.0179156
0.0177063
0.0226272
0.0228963
0.00564492
0.0228749
0.00979981
0.00977748
0.00250918
0.0206321
0.0135871
0.0141115
0.00195972
0.017706
0.0136466
0.0229331
0.00444319
0.0112485
0.00917614
0.0176937
0.0193695
0.0205976
0.000837336
0.011648
0.0158172
0.0192085
0.00831175
0.0108473
0.0209707
0.0182882
0.0171966
0.00689146
0.0179398
0.0199343
0.00843154
0.0138092
0.0229204
0.0071071
0.016333
0.00600472
0.0173148
0.00245158
0.0100872
0.0209577
0.0169063
0.00571916
0.0141562
0.0219455
0.000713962
0.00986185
0.00105853
0.0126049
0.0113576
0.0145473
0.0210799
0.00628607
0.0177885
0.0222129
0.0196139
0.0206063
0.0222095
0.00343585
0.00762032
0.00956132
0.0134085
0.0188087
0.0151509
0.0229627
0.0165425
1.81959e-05
0.0132861
0.0198485
0.0215705
0.0108458
0.0177799
0.00720381
0.0180772
0.00615304
0.0225656
0.00813185
0.0199282
0.0084579
0.0167615
0.0208425
0.00911613
0.00268385
0.000972239
0.0179692
0.0031946
0.0128263
0.0109238
0.0167345
0.0159351
0.0135767
0.0159909
0.0212915
0.0178988
0.0101958
0.016752
0.00989724
0.00476323
0.0202616
0.00941825
0.0184108
0.00876767
0.0228288
0.0219957
0.0222093
0.0201422
0.00581611
0.0062838
0.0174181
0.0140108
0.0201725
0.0202798
0.0174493
0.0187171
0.0225553
0.0229094
0.0235001
0.0195178
0.0180826
0.00814866
2.66441e-05
0.019572
0.0177725
0.0137173
0.00544469
0.0162591
0.01903
0.0224953
0.0053467
0.0202194
0.0229327
0.0229342
0.00380449
0.0225588
0.0185196
0.0198726
0.014966
0.000220617
0.0109101
0.0211832
1.67397e-05
0.00361222
0.0228431
0.0108431
0.00586274
0.0221635
0.00983157
0.0183752
0.0223834
0.0181102
0.00371873
0.018913
0.0136925
0.0101366
0.0226255
0.0208575
0.00463697
0.0178372
0.00280056
0.0212483
0.0143947
0.0154952
0.0233902
0.0123415
0.00726895
0.022145
0.0181782
0.0123166
0.0195012
0.00763281
0.00341729
0.00575269
0.0175534
0.0183929
0.022411
0.00854007
0.018523
0.0182537
0.0193774
0.0153271
0.0223214
0.0237956
0.0183118
0.0218966
0.0120274
0.00985415
0.0162549
0.0201967
0.00567654
0.0199232
0.0176113
0.017346
0.00121425
0.0229422
0.0194653
0.00401368
0.0184466
0.0225059
0.0220687
0.00993043
0.0225408
0.0134056
0.0070558
0.0204902
0.00772463
0.0171604
0.0231294
0.00605171
0.00887569
0.00383292
0.0179717
0.0138184
0.0173274
1.9154e-05
0.00567792
0.0228759
0.014488
0.0227379
0.00973198
0.022526
0.0224944
0.0208201
0.0185271
0.0191
0.022864
0.00344258
0.0192392
0.0205294
0.0227002
0.0197905
0.000958994
0.0130163
5.23769e-05
0.0186534
0.023335
0.00538066
0.0225916
0.0220904
0.0189637
0.0229631
0.0228422
0.0161996
0.0183747
0.019448
0.0133021
0.00933998
0.00479722
1.08834e-05
0.0117254
0.021958
2.76322e-05
0.0022896
0.0147787
0.00111035
0.00187958
0.0041252
0.0118312
0.0190393
0.00350641
0.0176734
0.0095944
0.0185654
0.0179208
0.0210439
0.018746
0.0079521
0.0154969
0.00131002
0.0218739
0.0235443
0.0219199
0.0160604
0.0178011
0.019617
0.0168207
0.0109821
0.0171724
0.00490701
0.0230109
0.0223474
0.00970858
0.018556
0.0177536
0.0162367
0.0179368
0.0156717
0.000768138
0.0207228
0.0213108
0.0133613
0.0172292
0.0106688
0.0110955
0.0131803
0.0181755
0.0190883
0.0141367
0.00804879
0.0207615
0.0188833
0.00701436
0.0192058
0.0204148
0.0144656
0.0208559
0.00408096
0.0204913
0.00992405
0.0200958
0.0231104
0.0180007
0.0197142
0.0215574
0.0124179
0.0178714
0.0177861
0.0181841
0.0131654
0.00870787
0.0184632
0.0155162
0.00882113
0.0116357
0.0196527
0.0100688
0.0070517
0.00376061
0.0228637
0.00555142
0.0181106
0.00947798
0.0189039
0.0126622
0.00284358
0.00591039
0.0226418
0.0229785
0.0111114
9.8803e-05
5.90487e-05
0.0186078
0.00375095
0.0182232
0.0214894
0.00685104
0.0128928
0.01887
0.0112731
0.0171542
0.0220971
0.00565274
0.00255404
0.0120776
0.0186119
0.021623
0.0171429
0.0187266
0.0209667
0.0186891
0.00786444
0.00825284
0.0100047
0.0187464
0.0181575
0.00816821
0.00992456
0.0112553
0.0160158
0.00799655
0.00876517
0.0227122
0.0226818
0.0176603
0.0192748
0.0194666
0.00102861
0.0113555
0.0227762
0.0229936
0.0228683
0.018237
0.0167206
0.000870847
0.0089412
0.0180474
0.0177596
0.0179846
0.000674699
0.0123267
0.0103109
0.0226116
0.0121982
0.0224919
0.0179946
0.0120839
0.0215923
0.00291197
0.0167951
0.0193973
0.00848218
0.0203564
0.00551174
0.00747816
0.0166826
0.00878095
0.0220629
0.0163059
0.00414524
0.0144395
0.0185182
0.00800256
0.00737904
0.0223472
0.0197087
0.00721346
0.00077183
0.0192508
0.0117119
0.00877428
0.015418
0.00105019
0.00763726
0.00103503
0.0074032
0.00591772
0.00609645
0.00921211
0.0117394
0.0086793
0.0109367
0.0178819
0.0197022
0.0195
0.0118543
0.0194158
0.00881093
0.0011725
0.0210577
0.0200046
0.0177723
0.0179537
0.0197792
0.00923619
0.0134148
0.0128543
0.0144427
0.0101438
0.00957562
0.0193483
0.0188956
0.00954078
0.0179586
0.0217627
0.0223593
0.0187021
0.000882889
0.0226179
0.00296093
0.0227349
0.0219666
0.00215619
0.0182099
0.0133562
0.00874382
0.0103211
0.00686727
0.0213477
0.0227231
0.0183845
0.0176916
0.0157129
0.0069791
0.00618044
0.0188469
0.0036074
0.00877776
0.0067466
0.0226007
0.0215103
0.0198272
0.0178334
0.0103026
0.0160136
0.00947108
0.0176749
0.00727304
0.0125378
0.0176341
0.0114585
0.00969418
0.0179303
0.0112278
0.011424
0.012968
0.0167536
0.00124331
0.0177194
0.0180399
0.0168764
0.0118267
0.0219235
0.00649221
0.0129849
0.00564449
0.0178833
0.0225009
0.00924217
0.0181554
0.0222274
0.013166
0.00479024
0.0201057
0.0131877
0.0178076
0.00863348
0.0123183