/*--------------------------------*- C++ -*----------------------------------*\
  =========                 |
  \\      /  F ield         | OpenFOAM: The Open Source CFD Toolbox
   \\    /   O peration     | Website:  https://openfoam.org
    \\  /    A nd           | Version:  10
     \\/     M anipulation  |
\*---------------------------------------------------------------------------*/
FoamFile
{
    format      ascii;
    class       volScalarField;
    location    "900";
    object      p;
}
// * * * * * * * * * * * * * * * * * * * * * * * * * * * * * * * * * * * * * //

dimensions      [0 2 -2 0 0 0 0];

internalField   nonuniform List<scalar> 
23845
(
-0.127936
-0.17017
-0.254512
-0.251445
-0.147729
-1.36568e-05
-0.238942
-0.256803
-0.000835517
-0.0865495
-0.0165166
0.000215519
0.000608193
-0.000330623
-0.246296
-0.0421731
0.0010456
0.000422826
-0.00111797
0.000576301
-0.146785
-0.0151929
-0.191852
-0.000399209
-0.0489985
-0.000102209
-0.215905
0.00311852
-0.264448
0.000414274
-0.247269
-0.243564
-0.25686
0.000117476
0.000332024
0.00072849
-0.25371
7.1245e-05
0.00105842
0.000183919
-0.00508243
0.00138755
0.000238703
8.3104e-05
0.00010705
0.00111266
-0.165325
-0.0324698
-0.236543
-0.267169
-0.244466
-0.247025
-0.236606
0.000934733
-0.246119
0.000561697
-0.194849
-0.253972
-0.150143
-0.231294
-0.262841
0.00249026
-0.0275525
-0.265058
-0.000218687
-0.00129217
-0.227683
-0.000725509
-0.00173915
-0.00350143
-0.259294
-0.258995
-0.000414117
-0.245795
-0.00125927
-0.247436
0.000268545
-0.00040301
-0.253564
-0.000730846
-0.198745
-0.2394
-0.18121
-0.257579
-0.250586
0.000413063
-0.233977
-0.234101
-0.000671087
-0.00125515
-0.248891
-0.0122857
-0.266601
0.00187221
-0.25101
-0.253234
-0.00162756
-0.0376749
-0.000332479
-0.148515
0.000232813
-0.242168
-0.110672
-0.274692
-0.269207
-0.256568
-0.000349641
-0.00105673
-0.229173
0.00151861
-0.0129013
-0.00036996
-0.254865
-0.0624064
0.000583335
-0.128022
-0.000426675
-0.0666154
-0.263308
-0.262847
0.000280368
-0.247606
-0.00406558
-0.261311
-0.233392
0.00132112
-0.261956
-0.268429
-0.257237
-0.186822
-0.258935
-0.0595285
-0.0385463
-0.000398651
0.00125094
-0.118207
-0.272673
0.000255421
-0.224202
3.2249e-05
-0.263251
0.000855897
0.000499192
0.000474781
-0.0168649
0.00111871
-0.0993102
-0.24585
-0.262413
-0.0048693
-0.241922
0.000838231
-0.22383
-0.000855193
-0.254626
-0.0085541
-0.11954
0.00036522
-0.259674
-0.258014
-0.00796059
-0.250019
-0.249773
-0.000312416
-0.00169952
-0.00325938
-0.000568745
-0.25054
-0.000961919
0.000823727
-0.000897475
-0.252657
9.47799e-05
-0.261034
-0.000459008
-0.252558
-0.0177161
-0.0173579
0.000640902
0.000558476
-0.142265
-0.145296
-0.243654
-0.00987001
-0.0252482
-0.000244882
0.00217495
-0.257003
-0.26564
0.000826816
-0.267132
-0.00182354
-0.000311928
-4.52672e-05
-0.0145653
-0.000600531
-0.27215
-0.267313
-0.28198
-0.0158489
-0.00192728
-0.00112996
-0.262522
-0.0515127
-0.257202
-0.250863
-0.256245
3.63215e-05
-0.172667
0.000703671
-0.00218688
-0.255113
-0.0280174
-0.00187212
-0.239974
-0.250496
-0.0469419
0.00148748
-0.264966
-0.258329
0.000520629
-0.247649
-0.27245
-0.00965708
0.00166383
-0.247944
-0.267879
0.00124931
-0.000274952
-0.00601734
0.00083538
-0.237438
0.000547527
2.17777e-05
-0.133486
-0.262604
-0.000292791
-0.248294
0.00244127
-0.256183
-0.235802
-0.0799536
-0.255498
-0.124567
-0.248423
-0.0329703
-6.85202e-05
0.00210489
-0.251346
-0.241502
0.00156397
0.000658528
-0.245513
1.28713e-05
-0.237002
-0.251203
-0.262427
-0.251274
0.000295087
-0.000443333
-0.23247
-7.43249e-05
-0.26124
-0.0104371
-0.0073303
0.00137089
-0.251814
-0.262667
-0.233839
-0.250328
0.000339596
-0.25452
-0.241944
0.000879183
-0.0112394
-0.000402515
-0.250761
0.00212035
-0.278043
-0.193051
-0.257232
0.000457996
-0.246708
-0.0105321
0.000456613
-0.263388
-0.258677
1.33373e-05
-0.252166
-0.251452
-0.252264
-0.240214
-0.264631
-0.251454
-0.252172
0.000332814
-0.263604
-0.000398582
0.000254519
-0.260505
-0.26252
-0.24465
-0.263288
-0.249277
-0.000318204
-0.248196
-0.266973
-0.24294
-0.000781235
-0.271231
-0.2412
-0.220058
-8.55642e-05
0.00355463
-0.254194
-0.264657
-0.263379
-0.0356825
-0.252345
0.00015932
-0.270143
-0.252958
-0.262207
0.00103913
-0.250441
0.000268523
-0.252236
-0.196239
-0.263207
0.00133458
-0.248582
-0.0121823
-0.247109
2.16917e-05
-0.259916
-0.249132
-0.250736
-3.30236e-06
0.00103821
-0.25239
-0.2539
-0.2623
-0.0154282
0.000773153
0.0004934
-0.282124
0.00030077
-0.251787
-0.252785
-0.246234
-0.247413
-0.263123
-0.268782
-0.249068
-0.236559
0.00228511
0.00089911
-0.00117645
-0.250666
-0.253573
-0.259532
0.00253866
-0.0930448
-0.00851117
-0.264724
-3.50933e-05
-0.260366
-0.000904299
-0.262061
0.000369899
0.00137211
-0.250626
-0.271576
0.000100568
-0.000520141
-0.249444
-0.252557
-0.249801
0.00124916
-0.256851
-0.247883
0.000677221
-0.179683
-0.000443166
8.04919e-05
0.000585388
0.000739757
-0.251799
-0.00146687
-0.252095
-0.230651
0.00192071
-0.267471
-0.27072
-0.240636
-0.258227
-0.00651413
0.000142083
-0.00411576
0.000256671
-0.252974
-0.237504
-0.250299
-0.255283
-0.223106
-0.246173
-0.000195185
-0.268807
-0.267842
-0.262541
-0.250826
0.00108469
-0.234358
-0.262748
-0.121291
-0.253643
-0.231297
-0.00834902
0.000666885
-0.12184
-0.264101
0.000689565
0.000326756
-0.252905
-0.261768
-0.157953
-0.272558
-0.245196
-0.260558
-0.260294
-0.000507984
0.000263054
-0.26224
0.000563806
0.000524528
0.000352544
0.000857762
-3.76871e-05
-0.264397
-0.260451
-0.249096
-0.268387
-0.269663
-0.262589
-0.241811
-0.263913
0.00103552
-0.219674
0.00124109
-0.255009
-0.254497
0.00163723
-0.275606
0.000779829
-0.000696393
-0.26081
-0.22067
-0.057534
-0.250573
-0.00257281
-0.193855
-0.252447
-0.270563
-0.20911
0.00146307
-0.000146738
0.000270746
-0.238528
-2.60474e-05
-0.255339
0.00173867
-0.00045906
-0.240507
-0.262353
-0.265878
-0.123434
-0.000877399
-0.246308
-0.000547258
-0.00426163
-0.19521
-0.222248
-0.245937
-0.0161279
-0.00139912
-0.244184
-0.000100046
0.000335702
-0.248931
-0.261724
-0.000353022
-0.262393
-0.251729
-0.211285
-0.258797
-0.176735
-0.00076014
-0.255173
-0.000161641
0.000461899
-0.233392
-0.260575
-0.26137
-0.186509
-0.25664
-0.25522
-0.00862261
-0.000566582
1.66856e-05
-0.261575
-0.24608
-0.262382
-0.254609
-0.243595
0.00129866
0.00036339
-0.230118
-0.255207
-0.254476
0.00680181
-0.247186
-0.000120514
0.000559417
-0.264806
-0.000888438
-0.248111
-0.253258
-0.264656
-0.177234
-0.259467
-0.261063
-0.269373
-0.093479
-0.1897
0.000203346
-0.000580783
-0.00104505
-0.263522
-0.148353
-0.25405
-0.258969
0.00324389
-0.178558
-0.17914
-0.0116992
-0.177528
-0.0181644
0.0037287
-0.000199563
0.00103417
-0.00153767
0.000347545
-0.260755
-0.00104906
-0.255158
-0.206304
0.00154694
-0.26118
-5.33754e-05
0.00222079
-0.251124
-0.252829
-0.205541
-0.000342334
0.00294755
-0.271589
-0.268717
-0.000944844
-0.264656
2.59879e-05
-0.000426205
-0.244101
-0.000680577
0.000895155
-0.0509412
-0.125032
-0.262735
-0.249587
-0.251211
-0.147573
-1.22817e-05
0.000297575
-0.0122346
-0.249537
-0.2639
0.00205562
0.00089086
0.000889977
-0.249543
-0.00142469
-0.199682
-0.250493
-0.153199
-0.00754767
-0.255509
-0.00068499
-0.000723616
0.00339146
0.000682014
0.000341389
-0.25281
-0.000250418
-0.12137
-0.24734
-0.257454
-0.0465868
-0.249049
-0.134816
-0.24114
-0.00755204
-0.19333
-0.123546
-0.202146
-0.12291
-0.263636
-0.122303
-0.0668491
-0.103228
0.000404677
-0.00078286
-0.125695
-0.259422
-0.158528
-0.00297428
-0.149896
-0.00107404
-0.00400279
0.000900184
-0.00129142
-0.0544051
0.000658383
0.000866396
-0.211996
-0.000317025
0.000333459
-0.254756
-0.11369
-0.0596786
-0.000418732
-0.00792696
-0.184112
-0.00240398
0.00163961
-0.00050336
-0.115811
-0.0371692
-0.144694
5.10078e-05
-0.0419314
-0.255268
0.000459175
0.000554764
-0.0731084
-0.256059
-0.264074
-0.266865
-0.261988
-0.0435088
-0.262168
-0.0149191
-0.0038024
-0.00112125
-0.000415262
-0.146472
-0.000458076
-0.00135308
-0.00107976
-0.115259
-0.237402
-0.0285175
-0.0441602
-0.00292544
-0.011387
-0.00722714
-0.00356637
-0.0445455
-0.00125923
-0.0617404
-0.0127394
-0.000214291
-0.0189408
0.000986466
0.00309333
0.000449638
0.000377793
-0.0434834
0.000475886
0.0015832
-0.0369636
-0.0376836
0.00194348
0.000557648
-0.00490341
-0.00905389
-0.0142132
-0.0221551
-0.0379133
-0.00174164
-0.0545664
-0.00115616
-0.0185415
0.000457012
-0.00951565
0.00057449
0.000690503
5.74303e-05
3.5722e-05
0.00122121
0.000754206
-0.00114167
0.000132711
-0.235179
0.00184606
0.000695439
0.000344154
0.000945003
0.000224106
-0.00697835
0.00169561
-0.00914293
-0.0154052
-0.000588626
0.00208061
-0.000247305
0.000530816
-0.0263158
-0.0111602
-0.0810156
0.0021254
-0.00704426
0.0008985
0.000807846
0.000869314
0.000293629
-0.031432
0.00205295
-0.107149
0.0017004
-0.000197482
-0.000628234
-0.000878516
0.00130354
0.000203347
-0.260911
0.00120303
-0.00107192
-0.0673239
0.000982003
0.00092481
0.00104387
-0.235758
-0.00349692
-0.000198703
-0.0406815
0.00153943
-0.261128
-0.0211846
-0.0144077
-0.0283846
-0.0182556
-0.0520558
-0.0042613
-0.0018538
-0.00508087
-0.0140592
9.54579e-05
-0.00777029
0.00134403
-0.161284
-0.000346019
0.000708958
-0.0382472
-0.0232874
-0.0304278
-0.252466
-0.00844832
-0.00312663
-0.104109
-0.0132082
0.00166609
0.000848533
5.05804e-05
-0.245364
0.00238173
-0.00695938
0.00198875
1.95863e-05
0.00146016
0.00268234
0.00105189
0.00117115
-0.000221723
0.000322538
0.00109535
0.00163432
0.00123006
-0.183628
0.00129236
0.00140756
0.00204588
0.00290361
0.000621681
-0.0598198
-0.00273066
-0.0144441
-0.001281
0.00344507
0.00171179
0.000561669
0.00436029
-0.127934
-0.0275456
-0.0256236
0.000888816
0.000546151
-0.00321768
-0.265146
-0.00842137
-0.00541636
-0.0153471
-0.00044572
-0.00106241
-0.0258548
-0.00169951
-0.00189681
-0.000285818
-0.00373826
-0.00112796
-0.000248172
-0.000785518
-0.00107078
-0.00019443
-0.00144555
-0.00466302
-0.0008536
-0.00151072
-0.0408746
0.00138675
-0.00142318
-0.25634
-0.0438378
0.000435306
-3.23437e-05
0.000764156
-0.0242402
-0.0127098
-0.0158237
-0.00762775
0.000454857
-0.00865189
-0.0052562
-0.00875158
-0.030941
8.80811e-05
0.00195249
-0.000336361
-0.00102992
-0.00654471
0.000342874
-0.246962
0.000508198
-0.027078
0.00343519
-0.0640682
0.000864601
-0.00100836
-0.0214769
-0.00803348
-0.0875535
-0.0583916
-0.0102417
-0.105727
-0.00156025
-0.00322222
0.000202408
3.27725e-05
-0.000369881
-8.31856e-05
-0.000521376
0.00102684
-0.000746218
-0.0245499
0.000886612
-0.0237921
-0.0308655
-0.0180291
-0.0115409
-0.0965502
-0.00921418
-0.000366766
-0.0241919
-0.000136655
-0.0649542
-0.00361188
-0.000400666
-0.115062
-0.0037249
-0.000385654
-0.00803659
0.0010139
0.000791986
-0.232487
-0.000908829
0.000935797
-0.00166699
0.000774986
0.00125874
0.000587169
-0.00810836
-0.268697
0.000533459
1.51277e-05
-0.00382208
-0.00662662
-0.110195
-0.0131446
0.00167202
-0.0137259
0.000267397
0.00335172
-0.257182
-0.272521
0.00121887
-5.08512e-05
0.0032142
-0.222838
0.000375612
-0.250714
0.00201019
-6.31031e-05
-0.00300469
-0.0019875
0.000948517
0.000848517
0.00126628
-0.100229
0.00054052
-0.139415
-0.0106311
-0.0411759
-0.00017261
-0.0101048
-0.00115702
-0.0060413
-0.00186383
-0.000532992
-0.0197399
0.000517569
-0.0113703
-0.016951
-0.0255094
0.00341166
-0.0100352
-0.0138224
0.000192865
-0.0308217
-0.017317
-0.00755217
-0.0390492
0.000446909
0.00145012
0.000905269
0.0014595
0.00148588
0.000450405
-0.00956611
0.000426917
0.0010408
-0.00609521
-0.00532873
-0.00583308
-1.31943e-05
-0.211109
0.00139125
0.000169953
0.00155233
0.00104894
-0.000970084
-0.00205934
-0.0120826
-0.0971981
-0.134413
0.000294312
-0.00166041
-0.0204354
-0.0399495
0.00178464
-0.045428
-0.00117565
-0.00312646
-0.00943841
-0.0405296
-0.0011104
-0.0123713
-0.0268103
-0.0132445
-0.0315611
-0.0233489
-0.029084
0.00158836
0.00161263
0.00219131
0.00120355
-0.00731814
-0.0131625
0.000270468
-0.28118
0.000709332
-0.256191
0.000277366
0.000547395
-0.269479
0.00105532
-0.00130443
8.84466e-05
-0.000195906
-0.00189258
0.000889835
0.00158451
0.00128246
-0.044654
-0.263745
0.000858614
-0.00109733
-0.00468917
-0.179313
-0.20391
-0.127277
-0.0166874
0.000717196
-0.00151508
0.00260517
0.000495602
-0.000429896
0.00278802
-0.134722
-0.0935553
-0.0378357
-0.0848562
-0.0563964
-0.10348
-0.1242
-0.0385477
0.00151019
-0.0719937
-0.020978
-0.029118
-0.0274208
-0.00964
-0.0161196
0.000719167
-0.0116522
0.00212332
-0.0070533
-0.00107948
0.000259879
0.00124308
0.000267481
0.00134022
0.000529086
9.77945e-05
-0.00255711
-0.165453
-0.0608997
0.000849017
-0.0905171
0.000757263
-0.00218531
0.00382928
0.000341535
0.000681558
0.00301062
-2.19566e-05
0.00187163
-0.00307345
-0.000453368
-0.118444
-0.00148763
0.00127007
-0.0819181
-0.000535847
-0.000722249
-0.00360107
-0.0490181
-0.00131563
-0.259023
-0.254572
0.000566148
-0.00873039
-0.0118578
-0.0217485
0.000351589
0.0015601
-0.0128383
-0.00510127
-0.00887521
-0.00527537
-0.00207404
0.000927792
-0.27553
0.000735905
-0.0345162
0.00108119
0.00106519
-0.0534384
-0.000273341
8.73318e-05
-0.263518
0.00148548
6.54918e-06
-6.21183e-05
0.00159246
0.00208757
0.00100031
0.00129099
0.00124214
-0.0708894
0.00211197
0.00190224
-0.191588
0.000584516
0.00179748
0.00171579
-0.215933
0.000339725
0.000384522
-0.0849435
0.000353033
-0.00155527
0.0012613
-0.000292015
-0.000166469
-0.261072
-0.00102949
0.00192879
-0.00904321
-0.0208978
-0.0921328
-0.0142296
-0.0055311
-0.000517176
0.00136753
0.00116013
-0.00160321
0.00142106
-0.0596448
0.00127536
0.000904285
-0.000399946
-0.000259424
0.000884355
-0.246794
-0.259562
0.00132165
-0.000356895
0.000231064
-0.170283
0.000648577
-0.000660004
-0.0166871
0.0007014
-0.251187
0.000710721
0.00212275
0.000598915
-0.00143393
-0.000201285
-0.00270913
-0.0118405
0.000100167
-0.0271563
-0.00193881
0.0010103
-0.00357591
0.002428
-0.00192049
-0.0107189
-0.00460344
-0.0115116
0.000815468
0.00143247
-0.000189506
-0.00238758
-0.00226499
0.00183547
-0.00405496
-0.0032392
-0.0398779
-0.000441145
-0.000638051
-0.0628592
0.000150599
-0.00247959
-0.0944916
5.36111e-05
-0.00191321
-0.13496
-0.00122822
-0.000460732
-0.111882
-0.0572157
-0.176197
-0.000987645
0.00400365
-0.0642397
-0.000361
0.000555906
-0.112071
-0.0297765
-0.0513926
0.00080138
-0.0773752
0.000625328
-0.00215579
-0.0485332
-0.016369
-0.000308226
-0.0140125
-0.0745713
-0.279336
-0.000121013
0.000394055
0.000327419
0.000713102
0.00163938
0.00196727
0.0017769
-0.247443
0.000549147
-0.00134345
-0.0521572
-3.80356e-06
-0.0256551
2.11581e-05
-0.15859
-0.000203281
-0.00115735
-0.180639
-0.000678091
0.00271313
0.000248612
-0.00192122
-0.262703
0.000951761
-0.103997
-0.00316307
-0.0257209
-0.259816
-0.252848
-0.0561565
0.00145717
0.000552267
-0.186293
0.00190227
0.00333846
0.000249923
-0.12827
0.00095859
0.000659637
-0.000330186
-0.11032
-0.00138903
0.00112359
-0.000703862
-0.00173954
-0.267113
-0.00353497
-0.00462596
-0.0964598
0.000198538
-0.261671
0.000261235
-0.256805
0.0012007
-0.11248
-0.000823139
0.00160875
0.000721781
-0.000124483
-0.00395241
-0.00428278
-0.0100354
-0.0253436
0.000455276
0.00104263
0.00100791
-0.0244792
-0.022147
-0.000247037
0.000617779
0.000776891
-0.000776426
-0.00503535
-0.0051703
0.00292935
-0.00815164
-0.00652944
-0.0894163
-0.00103639
-0.172171
-0.00155262
-0.00379013
0.00157174
0.00217932
-0.254876
-0.0660091
-0.034008
-0.000246142
-0.0480273
0.000155438
0.0011452
-0.0706077
0.000738795
-0.226917
-0.262211
-0.097926
-0.00471352
-0.000117511
-0.263787
-0.00292094
-0.00791256
-0.00170426
-0.0579745
-0.198844
-0.00170178
0.000998146
-0.25088
-0.250797
6.71757e-05
-0.0851693
-0.101678
0.000779197
-0.260618
0.000965537
-0.115491
0.00056073
-0.0709457
-0.000333691
-0.0570514
-0.20397
0.000851865
-0.255398
-0.104408
0.000461957
-0.262571
0.00124301
-0.052508
-0.0969372
-0.254923
-0.000263979
-0.0303863
-0.178352
0.00245478
-0.0894562
0.000898531
0.00217953
0.00327581
-0.0051625
-0.0763856
-0.000324436
0.000489144
-0.138773
-0.00344314
0.00112123
0.00187731
0.000111978
0.000999997
0.00170231
-0.0772912
-0.217314
-0.0807301
0.000971499
-0.00463629
0.000605297
-0.000337985
-0.00395117
0.000254742
-0.258509
-0.000829856
-0.0864357
-0.258185
-0.000329185
0.000518094
-0.0100802
-0.0295701
-0.0943148
-0.180888
-0.0101069
0.00141604
-0.00418014
-0.00145449
0.00106495
0.000879116
-3.32754e-06
0.000251225
0.000803823
-0.0922288
-0.261207
0.00031739
-2.19957e-05
0.00212997
-0.213694
0.000787443
-0.00515774
-0.00139856
0.00128159
0.00195494
-0.00307607
-0.0248151
-0.025562
-0.00182764
0.000248414
-0.00513534
-0.243339
-0.254222
-0.000221915
0.00753662
-0.0240647
-0.000453344
0.000248701
0.000139247
0.000397291
-0.0047348
-0.00304399
-0.261642
-0.000478129
-0.245482
0.000691184
0.00140394
-0.193415
-0.00401906
-0.0877704
-0.0027712
-0.00990918
-0.0154858
-0.0064696
-0.00284902
-0.0712297
0.00252267
0.00107195
0.00145297
-0.00172897
-0.253005
-0.00450064
-0.000918796
-0.00446284
-0.0562693
-0.253413
-0.0109184
0.00180374
-0.215471
0.000862384
-0.000165088
-0.0293842
-0.20325
-0.2602
-0.263512
-0.00226833
0.000398775
-0.0225104
-0.000301709
-0.21479
-0.0642618
0.00155393
-0.00850794
-0.144969
0.000245293
-0.216217
-0.0090425
-0.0398692
-0.00298644
-0.131701
-0.0809358
0.000911071
0.0011413
-0.261054
0.00280342
-0.000411188
-0.0946886
0.00154777
-0.00857371
-0.0939383
-0.044567
-0.256427
0.000182973
-1.93782e-05
0.00187522
-0.259776
0.000970081
-0.00172683
-0.00200504
-0.258408
0.000974873
-0.00106973
-0.0012389
-0.259868
-0.0477126
0.000411591
-0.00498218
0.000236889
0.000861417
0.00255944
-0.236271
-0.0190062
8.66123e-05
0.00122475
-0.155693
-0.0415814
-0.000806164
-0.0147822
0.000315955
0.000886939
-0.258279
0.00240178
-0.0290664
0.000411427
-0.0166733
-0.256718
-0.260426
-0.257096
-0.23384
-0.208983
0.000220845
-0.0888928
0.00141935
-0.000206036
0.00139605
-0.205934
0.00109414
-0.24498
-0.265598
0.00114499
0.000669384
-0.243917
-0.263373
-0.0782217
-0.234677
-0.101676
-0.205013
0.000382637
-0.0975672
-0.268101
0.00132593
-0.245666
0.00065784
0.000458567
-0.174739
-0.265401
-0.260484
-0.189073
-0.15573
-0.000378061
-0.26997
0.000617112
-0.108664
0.00062718
-0.216389
-0.0725622
-0.00186839
-0.165007
0.000485714
-0.000611916
-0.000377678
-0.268445
-0.245909
-0.256528
-0.258842
0.000483026
-0.151167
0.000884443
0.00299698
-0.000361527
-0.0439211
-0.260158
0.000893511
-0.00190939
-0.186501
-0.243866
-0.00956943
0.000477423
-0.252828
0.00130967
0.00105102
0.000318849
-0.000226973
0.00110768
-2.85459e-05
0.00144781
-0.24421
0.00100707
0.00224098
0.000104771
-0.0355289
-0.253558
-0.0961048
0.000145907
-0.255535
-0.0674262
-0.0504843
0.000268947
-0.264686
-0.00514725
-0.269443
-0.256941
-0.25781
0.00313006
0.000998946
-0.192857
-0.161647
-0.000432035
0.000527731
-0.151001
-0.172797
-0.214248
-0.0127259
-0.266246
0.00366894
-0.254184
-0.00185835
-0.255121
0.000894919
0.00134058
-0.0029252
0.001441
-0.261177
-0.00148318
-0.252508
-0.256227
-0.00667627
-0.0166494
-0.10465
-0.266389
-0.158932
0.000460835
-0.0712592
-0.0672763
-0.191926
-0.000539451
-0.252786
-0.13574
-0.251998
-0.258434
5.94531e-05
0.000540993
-0.0492837
-0.251904
-0.00624235
-0.173699
0.00184838
0.00182532
0.00119415
-0.000862679
-0.262914
0.000458008
0.000425053
-0.214278
-0.0320415
-0.206599
-0.179869
-0.264433
-0.253185
-0.173448
-0.240744
-0.248095
-0.0775601
-0.0105516
-0.264673
-0.000378118
-0.250821
0.000924264
-0.261924
-0.264484
0.00138417
-0.000631496
-0.000858555
0.00227856
0.000464651
-0.0001707
-0.00336663
-0.000226333
-0.164936
-0.13644
0.00064817
-0.073703
-0.0477528
-0.246236
-0.26381
-0.253038
-0.255647
-0.256975
-0.193593
-0.267432
-0.0220968
0.000109879
-0.264558
-2.62433e-05
-0.244604
-0.0769414
-0.00532199
-0.260752
-0.0573994
-0.000812301
-0.254104
0.000578214
-0.222899
-0.12023
-0.0259467
-0.242571
0.00307856
-0.149777
-0.00240789
0.00104694
-0.20905
-0.278839
-0.00164376
-0.00296502
-0.0026103
-0.00708877
0.00139232
-0.250024
-0.00364029
-0.00169594
-0.19123
0.000222558
-0.259778
-0.0244236
0.00216497
-0.0404366
-0.256044
-0.262831
-0.259285
-0.260499
-0.235999
0.000482153
-0.24106
1.1644e-05
0.000269916
-0.250824
0.000297876
-0.256362
-0.205386
-0.21722
-0.257804
-0.00697224
-0.242634
0.0014683
0.00129842
0.00030288
-0.00423325
-0.253309
0.00132235
0.000962442
-0.00423574
-0.248218
0.000156001
-0.240923
-0.255933
-0.00146334
-0.265129
-0.258186
-0.203593
0.000538271
-0.256926
-0.0012768
-0.000118114
0.00157076
-0.259678
0.00137163
0.00184063
0.000883034
-0.102081
-0.00012887
-0.252234
0.00108463
-0.000638322
-0.0163974
0.000296356
-0.214356
-0.000464385
-0.000628753
-0.16091
0.000735855
0.000127398
0.000523505
-0.26051
-0.0282512
0.00106299
-0.268469
-0.197793
-0.201899
0.00102362
-0.000732152
-0.249311
-0.198874
-0.241833
-0.179565
-0.246845
-0.243407
0.00323101
-0.251273
-0.224213
-0.000500676
-0.257031
0.000119216
-0.262485
-0.261961
-0.260224
-0.0357994
-0.225122
-0.279741
-0.000829787
0.000383618
0.000483696
-0.247888
-0.251543
-0.244994
-0.270739
-0.221161
-0.00692782
0.00106129
-0.21658
-0.26176
-0.252363
-0.00878395
-0.145055
0.000504802
-0.254364
-0.26679
-0.257819
-0.26024
-0.26009
-0.25363
0.000367684
-0.24558
-0.254662
-0.273895
-0.233916
-0.257323
-0.0148257
-0.253183
-0.261601
-0.000914786
-0.244575
-0.238546
0.00259034
-0.251826
-0.00829949
-0.274834
-0.247972
-0.194415
-0.204305
-0.251301
-0.0155088
-0.201607
-0.253228
0.000703333
-0.222578
-0.000304364
-0.000190047
-0.0759669
0.00223222
-0.00050192
-0.0675292
0.000597545
0.000847678
0.000225491
-0.00053904
-0.211083
0.00136224
-0.0934599
-0.273178
-0.2596
5.45165e-05
-0.0171243
-0.000653033
-0.247632
-0.000397834
-0.25454
-0.233264
-0.0233906
-0.243112
-0.257395
-0.247286
-0.065306
-0.00191969
-0.232624
-0.233252
-0.260066
0.000597448
0.000333435
-2.96349e-05
-0.0151315
-0.211432
-0.000405449
-0.000143445
-0.000137083
-0.260843
0.000328974
-0.0229713
-0.00718609
-0.00274581
-0.261246
-0.00731929
-0.00202927
0.00041626
-0.218318
-0.000199697
-0.249647
0.000594817
-0.0117085
0.00118435
-0.0337001
-0.26088
-0.262918
-0.25357
-0.272038
-0.0194297
-0.0232309
-0.243586
-0.00017693
-0.261537
-0.00535915
-0.000500983
-7.0338e-05
-0.14821
-0.238609
0.000462467
-0.161174
-0.274114
-0.254559
-0.2579
-0.225989
-0.00226952
-0.260499
-0.263741
0.000762739
-0.052778
-0.234107
-0.160203
0.000123771
-0.254327
-7.44177e-05
-0.226245
-0.158734
-0.245986
0.000302379
-0.00386044
-0.244906
-0.00106236
-0.0449344
0.00372137
-0.220202
0.000538125
-0.254311
-0.000269624
-0.244119
0.00232358
0.00154453
0.000620944
-0.00928781
-0.23351
-0.249921
-0.0017585
0.000232767
-0.000158918
-0.00015087
-0.0242718
-0.00076974
-0.240476
-0.266477
-0.243353
0.000368983
-0.00110944
-0.255777
-0.24861
-0.240469
-0.264868
-0.235154
0.000441321
-0.229698
-0.234511
-7.72661e-05
-0.238809
-0.0349694
-0.061342
0.00136326
-0.22574
-0.000450856
-0.25327
0.000569963
-0.260402
-0.251089
-0.00151346
-0.243
0.000938571
-0.261778
-0.215179
-0.0042006
-0.000275443
-0.244412
-0.26017
-0.00247525
-0.274628
-0.198085
-0.00159214
-0.263319
0.000771356
-0.262108
0.00146744
-0.00216719
-0.00431984
-0.23252
0.000205041
-0.255653
-0.0309495
0.000657434
-0.000765099
0.00094289
0.000410064
-0.000423543
-0.261445
-0.14348
-0.0138143
-0.12996
-0.0132188
0.000485807
0.000550993
0.00231829
-0.23287
-0.132242
0.00048682
-0.00863922
-0.0219023
0.000551045
-0.258022
-0.0674846
0.000933796
-0.0031356
-0.253898
0.000259265
0.000359367
-0.257899
-0.228155
-0.00103581
0.000960248
-0.258909
-0.240192
-0.264343
-0.00015869
-0.00182452
-0.26192
-0.00115889
-0.000261181
-0.00125258
-0.204695
-0.190284
-0.253709
0.000995035
-0.235572
-0.244041
-0.252224
-0.242668
0.00108832
-0.0798572
0.00308122
-0.261186
0.00073801
-0.000954294
-0.0318605
-0.0667197
-0.00388667
-0.0206992
0.000536561
0.000423145
-0.00183718
-0.255381
-0.00403686
-0.240955
-0.271985
-0.1789
-0.000428267
-0.231711
-0.139321
-0.259707
-0.253888
-0.00821721
-0.0805436
0.00245564
-0.0698348
-0.219444
0.00115271
-0.25873
0.000634384
-0.0020256
0.00426758
0.000277369
-0.253443
-0.000442756
0.000808193
-0.250603
-0.251903
-0.00182318
-0.252806
-0.245224
-0.247177
-0.249615
-0.276158
-0.26004
0.000565314
-0.222021
-0.0736492
0.000665746
-0.00651681
0.00130174
0.00104353
4.17761e-05
-0.195769
-0.260966
-0.236032
0.00139922
-0.261207
0.00138735
0.00211715
0.000594604
-0.234191
-0.276652
-0.00784856
0.00045725
-0.258146
-0.25965
-0.271488
-0.241158
-0.147812
-0.205901
-0.00167519
0.00199648
0.00241343
-0.00138265
-0.253213
-0.000831018
-0.109168
-0.201826
-0.276467
-0.237968
0.000314726
0.000843581
-0.23127
-0.254051
-0.257613
-0.0256769
-0.0695709
-0.263229
-0.255926
-0.23952
-0.262379
-0.234464
-0.263114
-2.29338e-05
-0.00414276
-0.00392399
-0.261358
9.77939e-05
-0.0010599
8.52747e-05
-0.190703
-0.0601382
-0.245696
-0.258436
-0.250942
-0.000660198
-0.209242
-0.228011
-0.27328
-0.00131165
-0.256581
-0.210668
-0.269436
-0.000226526
-0.212639
-0.244618
-0.274149
0.000691361
-0.0721333
-0.00534482
8.55285e-05
0.00136891
-0.266016
-0.0204518
-0.252737
-0.247636
-0.269662
0.000418876
-0.25461
0.000218451
-0.25512
-0.0113784
-0.182871
-0.000300198
0.000191954
-0.235467
-0.261867
0.0022114
-0.232424
-0.135959
-0.0183707
-0.00197709
0.00174705
-0.253733
-0.278054
-0.000485097
0.000504416
-0.000616509
-0.147235
0.000408014
-9.20444e-05
-0.0291668
-0.0093138
-0.247873
-0.00157619
-0.267928
9.33925e-05
-0.270694
-0.254958
-0.125035
-0.236509
-0.263773
0.000185236
2.14127e-05
0.00153817
0.000689809
-0.278766
0.00111234
0.00189533
-0.23275
-0.262237
-0.251769
-0.165063
-0.273691
-0.0021958
0.00134028
0.00136855
-0.260368
-0.260096
-0.000357794
-0.254799
0.000223757
-0.246213
-0.244295
-0.268761
0.000871501
-0.235186
-0.0017381
0.000254708
-0.26926
-0.262878
-0.00104841
5.64235e-05
-0.257512
-0.248915
0.00137384
-0.00159144
-0.240875
-0.259105
0.000611846
0.000570694
-0.262212
0.000943941
-0.220471
0.000499513
-0.26028
-0.242777
0.000395258
-0.233311
-0.255862
-0.0739387
-0.239588
-0.238584
-0.183492
-0.234301
-0.0346953
-0.00126817
-0.00354489
3.81036e-05
0.000205556
-0.254686
-0.00387067
-0.258848
-0.240155
-0.000121017
0.000928889
0.000128194
0.000691932
0.00100236
-0.00172448
-0.00241977
-0.0012633
0.00119578
-0.00296783
0.00237204
-0.00283027
0.00379399
-0.00075191
-0.0387871
-0.0781589
-0.249331
-0.262321
-0.256123
-0.256391
-0.00191752
-0.266822
-2.24255e-05
-0.270009
-0.0020624
-0.0211885
-0.226973
-0.251509
-0.00129126
0.000741888
0.00232247
-0.276911
-0.074377
-0.254985
0.000531077
0.000222419
0.00231391
-0.190282
-0.255206
-0.0490941
-0.00258295
0.000881309
-0.00150114
-0.00200118
-0.130075
-0.0513343
-0.00258365
0.000565132
0.000555157
-0.00103628
-0.179465
-0.251226
-0.265581
-0.0725926
-0.265259
-0.179809
-0.261528
-0.0955756
-0.246377
-0.249436
-0.265957
-0.00134387
-0.25653
-0.207318
-0.256941
-0.267738
-0.240373
-0.00192554
-0.25806
-0.00162412
-0.266518
-0.240842
-0.260087
-0.00193191
-0.0152627
-0.231248
-0.255373
5.06973e-05
-0.263135
-0.251835
0.0013753
0.00217877
0.00101182
-0.000722405
-0.00355082
0.00041157
0.000650815
-0.250965
0.000488542
-0.22347
-0.234345
-0.259899
0.000141821
-0.246826
-0.241915
-0.275521
-0.00948874
-0.251973
0.000324603
-0.256465
-0.184272
-0.241838
-0.000707931
-0.0019155
-0.00227077
-0.264904
-0.255784
-0.0398237
0.00126188
-0.261365
-0.176781
0.000118084
-0.00151363
-0.00967474
-0.254362
-0.000660351
-0.000382061
-0.256113
-0.252758
0.00156995
-0.253182
-0.197263
-0.254137
-0.0185478
-0.273568
-0.255612
-0.00155937
-0.0490137
-0.260138
-0.250845
-0.00244754
-0.271321
-0.235197
-0.255993
-0.257031
-0.256557
-0.230719
-0.000245737
-0.259244
-0.000266255
-0.000729718
0.00190155
-0.0589556
8.03975e-05
-0.270194
-0.240183
-0.260865
-0.155746
-0.000307273
-0.240978
0.00039281
-0.0235274
-0.273369
-0.243642
0.000234694
-0.000173553
-0.233961
-0.00129314
-0.250919
0.000828577
-0.256811
0.000870962
-0.258971
-0.00238373
-0.25428
-0.0202072
-0.0476228
-0.247869
-0.273417
-0.244804
-1.83883e-05
-0.270987
-0.136358
-0.255688
-0.227415
-0.0370265
-0.0966852
-0.0621977
0.000429226
-0.184625
-0.214262
-0.0180965
-0.227506
-0.250979
-0.00244905
-0.253327
-0.00178141
-0.22763
0.000670692
0.000286544
8.07193e-05
-0.0500316
-0.260231
-0.260756
-0.0164203
-0.103049
-0.000963769
-4.52904e-05
-0.0023622
-0.000505416
0.000164612
0.000546285
0.00105566
-0.000851738
0.0017281
-0.238954
-0.237523
-0.00308645
-0.00431831
-0.235073
-0.260207
-0.055459
0.00206191
-0.00185317
-0.262702
-0.0406623
0.00100401
0.000344804
-0.264651
-0.0315405
-0.00141915
-0.00115622
-0.0677479
-0.263486
-0.243112
-0.0545001
-0.270734
-0.263556
0.000882355
-0.229367
-0.258856
0.000513059
-0.249812
-0.00743334
0.000456151
-0.000556538
-0.26595
-0.00177968
-0.241966
-0.208998
6.35082e-05
-0.0330551
-0.270762
-0.000269748
-0.254351
0.00060179
-0.225646
-0.2393
0.000799024
-0.255312
-0.244284
0.000489987
-0.000426846
-0.252907
0.000509352
-0.24334
-0.267287
-0.260118
-0.0101612
-0.00529373
-0.00197698
-0.257561
-0.000307719
0.00253253
-0.00132961
-0.0576587
0.000819706
0.000300337
-0.00604705
7.5421e-05
-0.235566
-0.258857
-0.0297477
-0.000142097
-0.23943
0.00211998
-0.00090244
-0.00674948
-0.235215
0.00105472
0.000188737
-0.255532
0.00248821
0.00151685
-0.000445995
-0.21664
0.000650671
-0.138701
-0.26033
0.00142722
-0.260367
-0.0274661
0.000593322
-0.258089
-0.247589
-0.266433
0.00109179
-0.100744
-0.0032259
-0.26939
-0.249105
-0.000558199
-0.0810936
5.94703e-05
-0.260212
0.000552637
2.03175e-06
-0.000703221
0.00184378
-0.00150563
-6.35138e-05
-0.244156
-0.00518343
0.000547805
-0.000610438
-0.00017794
-0.259092
-0.241126
-0.281165
-0.0113869
0.000458941
-0.254129
0.00283872
-0.000272395
-0.000120732
0.000293462
0.000910599
-0.0460029
2.05476e-05
-5.03213e-05
-0.112251
-0.259584
-0.263646
-0.281143
-0.22959
-0.00154493
-0.245653
-0.262268
-0.0708602
-0.242362
-0.275549
-0.243538
-0.159816
-0.0030912
-0.252556
-0.000719547
-0.24956
-0.000581411
-0.160611
0.00196917
-0.000959683
-0.249397
-0.223157
-0.238354
-0.000470519
-0.0347616
-0.0387121
-0.0451939
6.70308e-06
0.000614067
-0.0201231
-0.258779
-0.0108104
-0.256256
-0.024896
-0.00166223
-0.256094
-0.0013303
-0.00206482
-0.0363779
-0.000653774
-0.199555
-0.275925
0.000419911
0.00173936
-0.233984
-0.00968801
-0.23484
-0.254352
-0.138408
-0.0048941