/*--------------------------------*- C++ -*----------------------------------*\
  =========                 |
  \\      /  F ield         | OpenFOAM: The Open Source CFD Toolbox
   \\    /   O peration     | Website:  https://openfoam.org
    \\  /    A nd           | Version:  10
     \\/     M anipulation  |
\*---------------------------------------------------------------------------*/
FoamFile
{
    format      ascii;
    class       surfaceScalarField;
    location    "900";
    object      phi;
}
// * * * * * * * * * * * * * * * * * * * * * * * * * * * * * * * * * * * * * //

dimensions      [0 3 -1 0 0 0 0];

internalField   nonuniform List<scalar> 
38623
(
0.216985
-0.213918
0.0787929
-0.0818596
-0.059545
0.0768523
0.122919
-0.140226
-0.00693337
0.0134515
0.0331646
-0.0396827
0.0043057
-0.00236381
-0.0224669
0.020525
0.015255
0.0265563
-0.0333447
-0.00846657
-0.126448
-0.254494
0.238569
0.142372
0.084714
-0.0709477
0.0821119
-0.0958782
-0.00863851
0.00852816
-0.00640307
0.00651342
0.0199047
0.0203287
-0.244239
-0.0360085
0.0794009
-0.320409
0.277016
0.110159
0.124568
-0.111371
-0.123356
-0.220096
0.194732
-0.00538612
0.0307494
0.461753
-0.0464121
-0.468519
0.0531782
-0.229946
0.208998
-0.0104635
0.0314123
0.0376701
0.0465017
-0.0521341
-0.0320377
0.0440978
-0.293482
-0.0478139
0.297198
-0.0149936
0.386688
-0.000208963
-0.371486
-0.00876324
0.264957
-0.00924193
-0.246952
0.00615641
-0.0272259
0.411868
-0.390798
0.402688
-0.282847
0.239572
-0.359412
0.182844
0.138352
-0.0436277
-0.277568
0.108635
0.0806703
-0.0791468
0.317215
-0.271684
-0.00171452
-0.0438157
-0.221825
0.29195
-0.265926
0.195802
0.0429982
0.251774
-0.0438831
-0.250889
-0.0378362
0.577464
-0.550423
0.0107957
0.0306072
-0.178207
-0.0555123
0.203112
0.223297
-0.178831
-0.491763
0.447297
-0.00919524
-0.000764088
0.00139815
0.00856118
-0.27375
0.292941
0.383496
-0.0149431
-0.0205942
0.0195364
0.0160009
0.00564375
-0.00154181
0.000774046
-0.00487598
0.0286388
-0.03203
-0.03316
0.0365512
0.292993
-0.0245934
-0.277163
-0.0102825
-0.0111536
-0.23715
0.258586
-0.341268
-0.173122
0.145844
0.368546
-0.000609235
0.000144272
-0.00719315
0.00765811
0.00535685
-0.235735
-0.147765
0.166801
0.00339827
-0.0224344
-0.0566977
0.0719561
0.319231
-0.334489
0.0663905
0.413189
-0.429924
-0.0496553
0.271598
0.184519
-0.254068
-0.202049
0.331498
-0.185433
0.332953
-0.479017
-0.416034
0.203618
0.336903
-0.124487
0.600232
0.241953
-0.515211
-0.326974
-0.0301814
0.0738434
-0.429951
0.386289
-0.0137084
0.0267307
-0.00125939
-0.0117629
-0.261089
0.193482
0.15536
-0.0877541
-0.000913677
0.00187823
0.0010013
-0.00196585
0.00753203
-0.000498989
-0.00768094
0.000647894
-0.00497162
-0.00135526
0.00146621
0.00486068
-0.0108878
0.0288208
-0.0231038
0.00517084
-0.0018769
0.000704485
-0.00171301
0.00288542
-0.382097
-0.109317
0.295099
0.196315
-0.00101334
0.000439963
0.00621713
-0.0209011
-0.396514
0.402422
0.0396862
-0.0229546
-0.0546688
0.0379371
-0.00436859
-0.00809441
0.00853297
0.00393003
-0.141146
0.185176
0.138814
0.00202129
-0.00726414
0.00573643
-0.000493582
-0.00917829
0.00361131
-0.00319477
0.00876175
-0.341648
-0.10952
0.0351337
-0.337547
0.32634
0.0840399
-0.0728334
-0.00572584
-0.00746723
0.00879091
0.00440216
-0.247606
-0.323119
0.3489
-0.501846
0.352895
-0.23012
0.379071
-0.168348
0.144072
-0.024969
0.0492453
-0.53716
0.423342
0.175466
-0.0616482
0.121944
0.540078
-0.06179
-0.390397
-0.0651011
0.0645154
0.390983
0.00888278
-0.0030937
-0.00896773
0.00317865
0.0144526
-0.00767527
-0.0137107
-0.0501827
-0.0190625
-0.51636
0.585605
0.0606205
-0.0612015
0.0382511
0.401981
-0.380652
-0.268935
0.0410927
-0.0609651
0.0587627
-0.0388902
0.0219228
-0.1816
0.175675
-0.0159975
0.113865
0.189819
-0.194461
-0.109223
-0.0117654
0.00534763
-0.00521851
0.0116363
0.0374701
-0.029515
0.342037
-0.349992
-0.109831
0.225051
-0.207384
0.0921642
0.0447093
-0.0560222
-0.0882289
0.0995417
0.0708095
-0.0906684
-0.0106055
0.00847256
-0.0004194
0.00255233
-0.0178655
0.0424154
-0.0249801
0.000430279
-0.235993
0.246778
-0.0219386
-0.0580081
0.0918734
-0.0989089
0.0650435
-0.00141791
0.000361228
0.000307135
0.000749548
-0.290015
-0.102657
0.136692
0.25598
0.362233
-0.365009
0.0402457
-0.00687873
-0.000321041
0.00656862
0.000631158
-0.423889
0.0720464
0.402736
-0.0508934
0.00394996
-0.00744032
-0.00223548
-0.333327
-0.187546
0.20159
0.319283
-0.00685604
-0.0032588
0.00526982
0.00484503
-0.00740844
0.000109927
-5.56958e-05
0.00735421
0.494941
-0.112976
-0.392498
0.0105319
0.0755183
-0.103672
-0.232934
-0.280249
-0.0295517
0.0675171
0.242283
0.00736414
-0.00122179
0.00911264
0.348152
0.0639668
-0.0958721
-0.316246
-0.0384398
-0.10304
-0.0268677
-0.0580231
0.0223054
-0.124456
0.160173
-0.00672706
8.18209e-06
0.00672136
-2.48283e-06
0.00128205
0.00749753
-0.00829299
-0.000486594
4.29698e-05
0.00198664
-0.0126351
0.271748
-0.107682
-0.290513
0.22619
0.417744
-0.144669
0.149625
-0.043396
0.354293
-0.316208
-0.127145
0.0890595
-0.113607
0.154256
0.0904402
-0.131089
-0.274397
0.0796737
0.20008
0.0567596
-0.0403036
-0.0343216
-0.00523581
0.287699
-0.000751711
-0.281712
-0.139587
-0.331237
0.129556
-0.307098
-0.053708
0.0584807
0.302325
-0.18375
0.370736
-0.554133
0.367147
0.0540422
-0.283174
-0.0560383
0.28517
-0.000149186
0.000310627
-0.00935668
0.00532129
-0.0077304
-0.00421952
0.00662863
-0.120007
0.0233753
0.210497
-0.000179504
0.00578152
0.00022879
-0.0058308
-0.0420893
-0.382548
0.0403037
0.384333
-0.00546038
0.00387903
0.00687166
-0.0052903
-0.0925887
0.0851206
-0.0955723
-0.0795247
-0.673106
0.552787
0.199845
-0.00893126
0.00242942
-0.00267644
0.00794266
-0.000136519
-0.000274106
-0.00117463
-0.0100578
-0.00463989
0.0158723
0.0170764
-0.0106632
-0.0157653
0.00935207
0.00810452
0.00900998
-0.00678885
-0.0103256
0.028853
0.163166
-0.148409
-0.04361
0.132394
-0.00059396
-0.018658
-0.113142
-0.212095
0.201738
0.0567854
-0.0464275
0.420909
0.0875686
-0.197014
-0.311464
-0.0982759
0.215476
-0.175223
8.63871e-05
0.00636744
-0.00643709
-1.67353e-05
0.04219
0.174465
0.0514128
-0.120343
-0.169363
0.238294
-0.1092
0.151253
0.00863124
-0.00866497
-0.000115455
0.166567
-0.182887
-0.256263
0.272582
-0.141913
-0.24024
0.219266
0.162887
0.0816499
0.301555
-0.113091
-0.270114
0.363319
0.013603
-0.0383575
-0.338564
0.473997
-0.193899
0.0741944
0.288202
-0.0542043
-0.283265
0.0492671
-0.0675191
0.0390322
-0.0192342
0.0477212
-0.00352979
0.0026987
0.0067323
-0.00590121
0.0238896
-0.371654
0.388724
-0.0409594
0.0466428
-0.00317552
-0.0391486
-0.00431867
0.270162
-0.119939
-0.462618
0.312395
0.0695767
-0.0886847
-0.0568226
0.0759306
-0.0504744
0.433086
0.146912
-0.529524
0.0347486
-0.0327562
0.0215966
-0.023589
-0.0642527
0.0490264
0.292622
-0.277396
0.0154057
0.0804057
-0.0735059
-0.274609
0.157034
0.234679
-0.117105
-0.00992209
0.0107833
-0.00622913
0.00536795
0.00229637
0.0102905
-0.00845149
-0.00413542
0.0554735
0.380393
-0.382192
-0.0536743
0.0806849
0.0292751
-0.0447085
-0.0652514
0.00251119
-0.00938745
-0.00133607
0.00821233
-0.163062
0.164996
0.462319
-2.8748e-05
-0.411552
-0.0507386
0.000246197
0.366637
-0.342994
-0.189289
0.188524
-0.0672381
0.0680024
-0.00622747
-0.00168678
0.00704726
0.000866989
-0.229746
0.403868
0.206194
-0.380316
0.280443
0.128545
-0.242421
-0.177563
0.031293
0.184243
-0.0379725
0.0193444
0.00487542
-0.0199142
-0.234689
-0.314121
0.225691
0.0020782
-0.00711941
-0.000419175
0.285981
-0.547529
0.337395
-0.0758469
-0.0134317
0.000222767
0.0104088
0.00280018
0.33499
0.0523821
-0.335447
-0.0519244
0.0520862
0.244559
-0.0546795
-0.241965
-0.26509
-0.0291218
0.276269
0.0179436
-0.202077
0.170504
-0.12815
0.159723
0.00911603
0.00599539
-0.0121593
-0.00295211
0.0212962
-0.00471032
-0.0074699
0.075541
0.0354716
-0.0699199
-0.0969332
-0.131827
0.0771814
0.151579
-0.0423712
0.0910484
-0.399503
0.350825
0.420887
-0.408665
-0.0331239
-0.194747
0.0821568
-0.00461896
0.00506612
0.00802541
-0.00741513
-0.00078424
0.00562871
0.00257066
0.286688
-0.197977
-0.00269122
0.00453255
0.00690506
-0.00874638
-0.392477
0.0722057
0.0414513
0.27882
-0.301842
0.361593
-0.116448
-0.295426
0.142701
-0.181089
0.333814
-0.0521416
-0.324263
0.059839
0.316566
0.153029
-0.203872
-0.294895
0.345738
0.000369468
3.58851e-06
-0.0074906
0.00711754
-0.000534672
0.00712224
-0.00927879
0.00210332
-0.00624857
-0.000528775
0.00467403
0.162096
-0.131946
-0.143758
0.320019
-0.0245627
-0.29521
-0.261918
-0.326252
0.2793
0.308871
-0.00446581
0.00675637
-0.00582035
0.0134298
-0.123953
-0.0332426
0.143765
0.00952552
-0.00709353
-0.0110705
0.00276139
-0.00956232
0.00931212
-0.0300123
0.016207
0.0228723
-0.00906689
-0.0648001
-0.196997
0.0804141
0.181383
0.193968
-0.00363445
-0.0600032
-0.130331
-0.0946246
0.233498
0.0657277
-0.204601
0.307834
-0.0379067
-0.299443
-0.00803519
-0.000741968
0.00816792
0.35606
-0.345215
-0.053216
-0.44397
0.247414
-0.0331903
-0.00317401
-0.00119618
0.00249329
-0.00450105
0.00113281
0.00926927
-0.00590103
0.112118
-0.0096033
-0.0890853
0.0392837
-0.299281
-0.000186719
0.00725327
-0.0012313
-0.00583525
-0.011933
-0.00958281
0.00755498
0.0139609
0.0810497
-0.0529823
-0.514034
0.485967
-0.0395675
0.0392229
-0.00698084
0.00033169
6.70393e-05
0.00658211
0.314847
-0.0756691
-0.303431
-0.099036
0.308795
0.018267
0.0299591
-0.0138234
-0.0344027
-0.0001565
0.00703052
-0.00737301
-0.310653
0.0712051
-0.244056
0.0635942
-0.00446987
0.184932
0.402886
0.0485086
-0.401775
-0.0496197
-0.200312
0.23915
-0.281494
0.242656
-0.00241918
8.75922e-05
-0.00142119
-0.062323
-0.210653
-0.579762
0.602101
-0.0601749
0.0501163
-0.0399394
0.0163794
0.0108561
0.000372264
-0.00676741
-0.00446095
-0.248342
-0.366999
0.0281806
-0.00852216
0.00256195
-0.0222203
0.0615032
-0.470402
0.525068
-0.116169
-0.0116997
-0.00671671
0.0113229
0.00709348
-0.00141587
0.00236416
0.000929941
-0.308188
0.0443096
-0.0522801
0.316158
0.00127167
-0.0122296
0.0110009
0.0123476
-0.000242598
0.0380114
-0.00110961
-0.0061312
-0.121836
-0.320855
0.105145
-0.0871004
0.254493
0.104356
0.0376923
-0.492628
-0.0602751
-0.0112245
0.00253202
-0.000694941
0.0785035
0.0229609
-0.0207796
0.121428
0.460119
-0.429734
-0.151813
0.0764084
-0.225289
0.310136
-0.161255
-0.00500184
-0.00127161
0.00172984
0.00454361
-0.487752
0.487735
-0.0467154
0.0467325
0.100611
-0.0134139
-0.0579218
0.00469523
-0.00766103
0.00185619
0.00668893
-0.00583345
0.0044068
-0.000676283
-0.0067738
0.00304328
-0.0903716
-0.338157
0.0912989
0.33723
-0.304066
-0.213927
0.000662569
0.000699967
-0.0533889
0.0827944
-0.30858
0.279174
0.000606295
-0.00858856
-0.000948999
-0.113701
0.171024
0.0326874
0.261854
-0.245515
0.0563912
-0.362808
0.378373
-0.00998542
-0.00905842
0.0056121
0.00872777
0.00550466
-0.00926155
-0.00497088
-0.0338692
0.00668911
0.0089785
0.0182016
0.00889077
0.016926
0.178883
-0.253856
-0.119488
0.00537404
0.0188464
-0.00487602
0.000405064
0.000677413
0.00272687
-0.00380934
0.0939253
-0.221275
0.292765
-0.165415
0.109616
-0.151003
-0.247158
0.0392415
0.000461369
0.00726308
-0.0073837
-0.00034075
0.0576183
-0.0840942
-0.284177
0.00664293
0.000841085
-0.000714603
-0.00676941
0.274549
-0.317368
0.0866793
-0.0438601
0.00768009
-0.0150421
0.00934869
0.0836711
-0.0499055
-0.277822
7.58675e-05
-0.000440683
-0.00460681
-0.0713502
-0.33154
0.0850649
0.317825
0.23667
0.0386425
-0.235989
-0.0393235
0.00721309
0.00535731
-0.00295836
-0.00961205
0.00596681
-0.00365212
-0.00559016
0.00327546
0.090674
-0.363822
0.551598
-0.27845
0.00825058
-0.00875217
0.00326298
-0.0486019
0.0473621
0.0359883
0.00320129
-0.0142031
-0.00264883
-0.00197962
0.00321258
0.00433796
-0.00836617
-0.00343902
0.00327188
-0.00459597
0.0057309
-0.0108052
0.00377489
-0.011957
-0.225199
0.00569538
-0.00517412
0.0046083
-0.00512955
-0.357974
0.30791
0.0124374
-0.0085859
-0.239845
0.00899602
0.000458784
-0.00898375
-0.000471052
0.00467627
-0.0076537
-0.00913859
0.012116
-0.0301774
-0.0320011
0.0175011
0.0446774
0.00947439
0.00169233
-0.0271996
0.0200707
-0.0141467
0.0212756
-0.122677
-0.394024
-0.0207649
-0.0149569
0.00717984
-0.00154553
0.0031566
-0.0041242
0.37651
0.0525088
-0.0808674
-5.49014e-06
-0.00688896
0.00172973
-0.0034715
0.0549847
0.0475997
-0.0330077
-0.396646
0.0634937
-0.0607755
0.393928
0.136642
-0.201522
-0.112683
-0.0109404
-0.00139933
0.00777978
0.00455997
0.00834551
-0.000478351
0.00608464
0.00546641
0.10066
-0.0424594
-0.0798244
0.0216235
-0.00334328
0.00635173
-0.0374137
0.00703218
0.51005
-0.479668
0.00233307
-0.00862933
0.00662795
-0.00179217
0.000804248
-0.00187679
-0.00503768
0.00109149
0.00582298
-0.367119
-0.285528
0.208676
0.0636565
-0.0337548
-0.228766
0.0207412
0.213816
-0.0057911
0.0126487
0.0125466
-0.0141582
-0.0110371
0.00125441
-0.00602717
0.0218492
0.00433514
0.00698345
-0.00487453
-0.00644406
0.208664
-0.0964648
-0.206824
-0.0802054
-0.021315
0.058194
0.0433265
0.00705031
-0.21567
-0.173963
0.382582
-0.007704
0.00128663
-0.284721
-0.015948
0.24728
0.0073744
0.00425865
-0.0072979
0.00346783
-0.0233728
-0.0103366
-0.00223439
0.000423265
0.0121477
-0.163038
-0.258391
0.0658197
0.355609
-0.273231
0.315801
0.153756
-0.196326
-0.00913269
0.00884104
-0.00969377
0.00540542
0.0147334
-0.0152634
0.00651729
-0.102874
0.0804203
0.588068
-0.608264
-0.0593286
0.489621
-0.656364
0.225849
-0.059106
-0.00154805
-0.00724482
0.0014255
0.00736737
-0.104783
-0.175384
0.205303
0.0748638
-0.0004664
-0.00824944
-0.0322241
0.0203136
0.0113962
-0.00538508
-0.0163477
-0.00469725
0.00540539
0.0111886
-0.0118967
0.00713845
-0.000203635
-0.00746949
-0.000218736
-0.00601905
0.000384551
-0.000848897
0.00282851
0.0498304
0.247358
0.0644043
-0.186411
0.303894
0.226792
-0.344276
0.36846
-0.604963
0.355514
-0.119011
-0.0627255
0.051966
-0.0134563
0.0103594
0.0114322
0.141973
-0.389542
0.234292
0.0132768
-0.0484765
0.0284912
0.334833
-0.0145796
-0.313203
0.00289026
-0.00135409
-0.0089513
-0.210246
0.0658931
-0.0599507
0.204303
-0.00353826
0.00341859
0.00710312
-0.270061
0.213673
-0.276939
1.15984e-05
0.0431303
0.47301
0.0613242
0.15644
-0.228183
0.00649904
-0.00519576
-0.00209474
0.00339238
0.00389812
-0.0479417
-0.143742
0.162527
0.0291563
-0.392127
0.00137294
-0.00576209
-0.00177545
-0.00361098
-0.005554
0.00504561
-0.0214919
0.297962
-0.20393
-0.0154336
0.00441278
0.00353228
0.0074885
0.0634644
-0.0603495
0.0605416
-0.0228748
-0.300561
0.0148561
0.212537
-0.404338
0.269516
-0.0777156
0.479671
0.0697941
-0.0598437
0.0679595
-0.0596539
0.13855
-0.205355
0.252067
0.192438
0.0062844
0.00790427
0.259768
0.0520857
-0.0522479
-0.259606
-0.00365972
-0.0112907
0.0147352
0.173472
-0.136794
-0.0387149
0.239481
0.00207406
0.00638783
0.00670243
0.00116457
-0.00288495
0.00958072
-0.00645108
0.000256102
-0.00338574
0.0141844
0.221689
-0.203186
-0.558217
-0.446704
0.122697
0.0134722
-0.321068
-0.00669616
0.00306243
0.0238151
0.0214291
-0.0318268
-0.0134173
0.00739947
0.00366794
-0.00281683
0.00842416
-0.00697728
0.00395854
0.00619197
0.0261536
-0.0387897
0.00644414
-0.0443192
0.0709668
0.0488934
-0.166678
-0.0794371
0.134572
0.111543
0.0046846
-0.00754728
-0.000146815
-0.0096917
-0.00296835
0.00389131
-0.00865335
-0.0467505
0.705603
-0.0603723
0.10992
-0.0154758
-0.0589726
-0.00436728
0.00570079
0.00604088
0.071938
0.078251
-0.0573978
-0.0927912
-0.0142796
-0.00777285
0.0111646
0.00427185
-0.032226
-0.00591502
0.139118
0.0571824
-0.119119
-0.219243
-0.0373384
0.0677956
0.188785
-0.0574452
0.255174
0.0484981
-0.246227
-0.00335655
0.00558899
0.0069284
-0.00916084
0.309756
-0.202036
0.196902
-0.304621
-0.21809
-0.0714799
0.130007
0.159562
0.0118594
-0.00900662
0.00906294
-0.00934201
0.000885365
-0.236663
0.17237
-0.00539161
0.0112235
0.00309507
-0.00892695
-0.0183104
-0.00546238
0.0088297
0.00175016
0.00629485
-0.000549942
0.00917175
-0.177523
-0.201466
0.38039
-0.332946
-0.0278945
-0.0195497
-0.00515845
-0.00235348
0.00575696
0.00175498
-0.134088
0.176091
-0.20504
-0.333156
0.353688
-0.179495
0.158963
-0.527096
-0.0617141
0.50113
0.0876801
-0.113068
0.1668
-0.101674
-0.0341305
0.0258039
0.429214
0.00225699
0.00861555
-0.00441683
0.00246379
-0.00169908
0.0512626
-0.0368192
-0.0022658
0.000954045
-0.0020448
-0.00333847
-0.00529635
0.00850751
-0.0130606
0.0153249
-0.00982023
0.00532834
-0.461924
-0.196838
0.291643
0.0118985
-0.0382132
-0.00451409
0.0308288
-0.318288
-0.0428668
0.00467388
0.00724595
-0.00444494
0.0270985
0.484399
-0.561971
-0.00109887
-0.00252907
-0.00176368
0.188273
-0.0734138
-0.219643
-0.154197
0.322641
-0.00524869
0.00836162
0.00215522
0.00605804
0.00787584
-0.102975
0.004067
-0.00933926
-0.265803
-0.378212
0.0750815
0.145097
-0.0767115
-0.143467
0.0197402
0.00922131
5.34179e-06
-0.000126073
-0.00693212
0.00705286
-0.00987466
0.016005
-0.00686866
0.000738345
-0.319162
-0.00902072
0.0592971
0.268886
-0.0554163
0.195463
-0.249271
0.267681
-0.306687
0.00161828
-0.619519
0.0699325
-0.0586774
-0.010637
-0.0354105
-0.209008
-0.175764
0.0579086
0.326863
-0.0670215
0.19672
-0.194499
0.0202636
-0.0214439
0.0226093
0.00852401
-0.00650863
0.00472647
0.0063147
0.0105165
0.0376299
-0.0327406
0.533525
-0.563042
-0.273419
0.302935
-0.00630007
0.139563
-0.428142
0.511876
-0.0139387
-0.330926
0.34394
0.000924623
-0.0243081
0.025687
-0.0205386
0.0191597
0.0503508
0.000656781
-0.0391091
-0.0160442
0.0058812
-0.0106019
-0.138913
0.0316565
0.151712
-0.0444554
0.214383
-0.0588931
0.0439666
-0.199457
-0.0734612
0.0493847
0.0631087
-0.198544
-0.117635
0.0100316
-0.262027
0.0553305
0.196665
0.0417262
0.0198752
-0.0264529
-0.0351485
0.000678743
-0.00163546
0.00764565
-0.0464621
0.365275
0.0184502
0.00331179
-0.0116373
-0.0101247
-0.00653531
0.00504822
-0.00461404
-0.0427118
0.00911261
0.00967169
0.00539934
-0.00554551
0.0214172
-0.0259895
-0.015366
0.0199383
-0.113506
-0.53842
0.12483
0.011636
-0.0104098
0.00453927
-0.00576548
0.412027
-0.160978
0.12722
0.222032
0.0823295
0.0601725
-0.077065
-0.0654371
-0.000307615
-0.00854596
-0.000462126
0.0093157
4.95531e-05
-0.00105256
0.00773531
0.0204299
-0.0233208
0.00908219
-0.00910221
0.00795097
-0.00793095
-0.0132003
-0.00204208
0.00301276
0.0787795
0.163572
-0.0907731
-0.44053
-0.0436759
0.0312114
0.452994
-0.485944
0.0370514
0.00748466
-0.0209642
-0.0173401
0.0233474
-0.00297764
0.00403736
-0.000209369
-0.000113068
-0.00744991
0.00777234
-0.0167448
0.319018
-0.747509
0.186123
-0.0581331
0.0355225
0.0191002
0.0322927
0.00659414
-0.010248
0.0245348
-0.0211785
0.0169573
-0.153368
-0.309132
0.044796
0.417703
0.000115412
-0.00506248
0.000446016
0.29122
0.207846
-0.359502
-0.0993818
0.0744888
0.00483553
0.00364941
-0.633044
-0.0566518
-0.0578132
0.11769
-0.0241322
-0.0927878
-0.000770106
0.0371553
0.0864164
-0.00495231
-0.00673044
-0.0217209
0.32504
-0.0907815
0.00664532
0.00245224
0.000483167
0.0038289
-0.0101375
0.0185482
0.00974708
-0.0170717
0.00800419
-0.0560554
0.0164515
0.0315998
0.262775
0.0212356
-0.243689
-0.0403216
-0.392286
0.37944
0.0258696
-0.0130238
-0.0413724
-0.433288
-0.0775988
-0.367887
0.179683
-0.00661127
0.013269
-0.016462
0.0098043
-0.0133948
-0.00502391
-0.0068312
-0.365137
0.264234
0.0566188
-0.0463039
-0.0415091
-0.0456144
-0.355625
-0.06029
0.344565
0.296839
-0.0490435
0.0448942
-0.131605
-0.0522025
0.580127
-0.0785771
-0.170052
-0.336737
0.248842
-0.331508
0.283147
0.289137
-0.240776
-0.033386
0.131888
0.334584
-0.00363735
-0.00409119
0.0011276
0.00660094
-0.362825
-0.170974
0.502758
0.0310409
-0.00571105
-0.000849449
0.011434
-0.00487351
0.0723876
-0.124308
-0.0489913
0.100912
-0.273061
0.179983
0.396972
0.00772552
-0.0022608
-0.264746
-0.0260028
-0.362735
0.102009
0.286728
0.00842207
0.00129177
-0.0192953
-0.00383296
0.0141216
0.0119535
-0.0126397
-0.00918849
-0.384406
-0.157361
0.0798421
0.234688
-0.0722547
0.00105539
-0.000214404
0.00586144
0.00580177
-0.00223518
-0.541671
0.00421016
0.00724224
-0.00856213
0.0412752
-0.482623
-0.0464049
-0.59692
0.54061
-0.0571961
0.177135
0.0255171
-0.0398943
-0.394287
0.150186
0.0223387
-0.341512
-0.0467291
0.365902
0.00870168
0.00781026
-0.00492867
0.00628538
-0.00489497
-0.0168919
0.00397199
0.0183253
-0.00723072
-0.000371716
-0.0127249
0.0134777
-0.00224392
-0.546673
0.604707
-0.0557905
0.0130946
-0.363653
0.0669643
-0.0589364
0.0298685
0.0340596
0.00429709
-0.155174
0.285439
0.0965281
0.0397616
0.476945
-0.477288
-0.0394185
0.548346
-0.523491
-0.000708587
-0.0052346
-0.231065
0.22617
-0.23078
0.255634
0.0130222
-0.0378768
-0.00419272
0.02752
0.0233155
-0.0282476
0.259298
-0.00468935
-0.226361
0.0649144
0.152983
-0.00828942
-0.000212116
0.00844584
0.0436602
-0.259391
-0.564356
-0.0332895
-0.0587181
-0.0971321
0.0232149
0.281975
-0.01524
-0.00177796
-0.0568617
0.169315
-0.172413
0.0599603
-0.0244299
0.0217863
-0.292995
0.203672
0.0101058
-0.00726721
0.00147487
-0.00431348
-0.0488867
0.0571281
0.00868121
0.216852
0.0359062
-0.20976
-0.00437617
-0.00892316
0.00630411
0.0455103
0.0763591
0.0705545
0.298329
-0.0762617
0.0277729
0.00723369
-0.0145767
0.0102566
-0.0625066
0.124188
0.0315448
-0.0251146
0.0451969
-0.0516271
0.0113148
-0.00623447
-0.00456919
0.00480998
0.00405631
0.109489
-0.0286823
0.0913352
-0.172142
-0.0155413
0.0355637
0.00723445
-0.0272568
0.088265
-0.372678
0.396618
-0.306787
0.244375
-0.423675
-0.00469169
0.0148682
-0.0104999
0.00673736
0.00605895
0.0208568
-0.22146
-0.0664419
0.187743
0.10016
0.0845864
-0.0905458
-0.0273853
0.169889
-0.075004
0.0701455
-0.16503
0.386218
-0.39773
0.0609087
-0.0493969
0.251122
-0.136102
0.184173
-0.299193
0.416267
-0.422588
0.0563536
-0.0500333
0.453374
-0.375274
-0.0557612
0.452594
-0.0210227
-0.338741
-0.0467144
0.506883
-0.0353732
0.000526099
0.0302331
-0.167204
-0.37615
0.341989
0.201365
-0.0250342
-0.0414769
-0.100873
0.152964
-0.0259967
-0.320751
-0.517192
0.0259537
-0.0554345
0.177201
-0.030836
-0.13218
-0.0229868
0.0145087
-0.00218515
0.0721427
0.245736
-0.0581107
-0.370121
0.0273315
-0.0421233
0.475263
-0.460471
0.209063
-0.0903541
0.0139896
-0.0312261
-0.185286
0.202523
-0.0412508
0.27833
-0.265327
-0.0467763
0.488099
-0.0387257
0.226313
0.0292646
0.0195595
-0.0156919
-0.327536
0.315776
-0.127826
-0.244095
0.0780061
0.242497
-0.0156425
0.0278337
-0.0277326
-0.000949587
-0.0137276
-0.00906754
0.0278128
0.0164926
-0.0257573
0.00261876
-0.00343261
-0.00216379
0.25771
-0.0446615
0.00551375
-0.00745589
0.0308561
-0.0411088
0.1833
-0.173047
-0.37268
0.191247
0.253575
0.379837
-0.0173213
0.000301938
-0.362818
0.321289
0.0350012
-0.0484561
-0.0481442
0.355748
-0.0444285
0.0390039
-0.350324
-0.110494
0.771467
-0.0562659
0.406885
0.0595312
-0.0501494
-0.001623
0.0136633
0.0259711
-0.0149953
-0.032035
0.0255864
0.013955
-0.00239169
-0.212721
0.201158
0.337588
0.170878
-0.0550923
0.21468
-0.180622
0.0219003
-0.0559582
0.246305
-0.19791
0.161998
-0.197087
0.0853498
-0.0502604
0.167306
0.117055
-0.0696813
0.0695694
-0.00245807
0.0139223
-0.0810336
0.17422
-0.0760872
0.0717559
0.0380645
-0.0162808
0.01378
0.240112
0.10766
-0.101466
0.360095
-0.0163949
0.00706871
-0.350769
0.153841
-0.141561
0.122064
-0.134343
0.22373
-0.237062
-0.0662267
0.0795595
0.303217
-0.519361
-0.0929879
0.172076
-0.0690209
0.0957578
-0.198813
0.359695
0.0227532
-0.0223531
0.172724
-0.170506
0.0336882
0.0201698
0.415491
-0.410989
-0.0246717
0.279675
-0.315906
0.0149537
0.0212771
-0.0418707
0.191815
-0.135955
-0.0404179
0.235505
0.226484
-0.206341
0.143948
-0.164092
0.270652
-0.185718
0.201754
0.0524777
-0.0595163
0.169036
0.00714227
0.1453
-0.136574
-0.0158678
-0.0233287
0.123011
-0.109143
0.00945997
0.0926419
-0.0488017
-0.0697464
0.0259063
0.0581974
0.0155812
-0.00420913
0.164354
-0.0720522
0.035086
-0.0285486
0.0315271
0.0772912
0.21669
-0.119761
0.169906
-0.148011
0.203068
-0.0550663
0.0757282
0.238613
0.100918
-0.0994187
0.0902079
-0.0522197
0.0137861
-0.023775
0.318948
-0.308959
0.332645
-0.024063
0.0177435
-0.326325
0.237626
0.0294224
0.0126266
0.244743
-0.123757
0.130137
0.297119
-0.206737
-0.0633046
0.0647719
-0.409188
0.407721
0.38711
-0.37622
-0.00841254
-0.00247798
0.0272163
0.0230858
0.289477
-0.496313
0.233866
0.248417
-0.211632
0.387318
0.0166073
-0.0172365
0.234858
0.145552
-0.135668
-0.325488
-0.123767
0.158743
-0.092645
0.0837726
0.172445
-0.188913
-0.276403
0.201791
0.263525
0.162737
-0.14967
-0.00592495
0.129451
-0.121123
0.21038
-0.197097
0.0640075
-0.00446383
0.315007
-0.346135
0.0355918
0.416586
-0.0327556
0.00327946
-0.120213
-0.318483
0.100539
0.227213
-0.442703
0.306538
-0.0436722
0.347582
0.0433063
-0.347217
0.0306332
-0.0287013
-0.0175743
0.125189
0.325823
-0.145237
0.055342
0.154809
-0.0623856
0.314008
-0.312642
0.0610199
-0.00591605
0.301677
-0.322092
-0.168243
0.06115
-0.428331
-0.0609572
0.428138
0.0538204
-0.0762691
-0.081683
0.104132
-0.0813048
0.193035
0.26866
-0.00796051
0.00735528
-0.00370823
0.301529
-0.405028
-0.253108
0.484458
-0.253183
-0.407165
0.17589
0.274598
0.417966
-0.333925
-0.0558567
-0.0281847
-0.000575023
0.00144707
-0.00944545
-0.00134364
0.258807
-0.359907
0.0294351
-0.0178822
0.191773
-0.11795
0.344143
0.362155
0.190474
-0.357726
-0.194904
-0.263986
0.267585
-0.376277
-0.00803822
-0.0587157
0.462014
-0.114001
0.0474979
-0.0604558
0.0167022
0.0312677
-0.00538327
-0.180757
0.173733
-0.134537
0.0957313
-0.123736
-0.0736232
0.0754697
0.0519739
-0.116336
0.056937
0.116902
-0.0575029
-0.048566
0.0747934
0.00885864
-0.304454
0.155396
-0.0671286
-0.033693
0.202113
0.00878073
0.0238151
0.158753
0.148219
0.0995605
-0.0310894
-0.0905863
0.0821929
-0.32882
0.337213
-0.193775
0.0539595
-0.0456333
0.0780066
-0.157236
0.170918
0.223944
-0.26919
0.160467
0.171237
-0.0625145
-0.0516733
0.0362475
-0.0848004
0.0611059
-0.0174795
0.0189514
-0.00713192
0.102665
-0.0989908
0.234939
-0.374013
0.37829
0.0990023
-0.103279
0.0378853
0.0487567
0.0384684
0.262637
-0.25576
-0.0453458
-0.0716425
0.325113
-0.334775
0.249689
-0.0763274
-0.140218
0.0366507
-0.00513049
0.000922186
0.00293669
-0.426128
0.0135541
-0.196184
0.0987651
0.200084
-0.317515
0.299294
0.163515
-0.145293
0.0213391
-0.462427
0.473839
-0.0327509
-0.13569
0.327725
0.211096
-0.336839
-0.111667
0.141771
-0.17476
0.220706
0.285461
-0.141718
-0.329461
0.33254
-0.0236702
-0.259254
0.284155
-0.0608497
0.0409328
-0.318136
-0.259568
0.344668
0.233036
0.00544792
0.00738683
-0.0209874
0.00815267
-0.0728785
0.0233635
-0.229357
0.278872
0.448192
0.27046
-0.436218
-0.282434
-0.214855
0.201716
0.206174
0.249496
-0.152913
0.0875903
-0.284708
0.200438
-0.0352063
-0.0168182
0.00345846
-0.299599
-0.0935789
0.171717
-0.212991
0.0294236
0.222125
-0.0385579
-0.233654
0.185559
0.239343
-0.470563
-0.030217
0.149072
-0.0386281
0.00335955
-0.00861043
0.421837
-0.434468
0.0153882
0.273189
0.14589
-0.047154
0.0242876
-0.101589
0.227357
-0.180901
-0.0549076
0.0519448
-0.0818376
0.0113449
0.369708
-0.0587962
-0.322257
0.241342
0.177869
-0.258744
-0.136566
-0.090139
0.218671
0.00803329
-0.00737239
-0.0063263
0.032809
0.410216
-0.0494201
0.334309
-0.0514603
0.503825
-0.498653
-0.0519482
-0.449542
0.456436
-0.0505698
0.346274
0.0625468
-0.052761
-0.43588
-0.050012
-0.433181
0.427106
0.0560339
-0.0499588
0.49043
-0.538873
0.103385
-0.054942
0.378363
0.0571336
-0.0492786
-0.516139
0.538809
0.0306574
-0.0533274
0.499137
0.0140507
-0.0508684
0.514862
0.0534879
-0.515748
-0.0526019
-0.573125
0.684094
-0.0570633
-0.0539059
-0.482327
0.05015
0.487786
-0.0556093
0.4428
0.0595553
-0.452927
-0.0494282
-0.049642
0.061012
0.396186
-0.0503128
-0.432978
0.440497
0.0426925
-0.0502119
0.0900974
0.302229
-0.0547381
-0.0658663
0.180762
-0.267425
0.25979
-0.167125
0.0125804
-0.00853755
0.00377475
0.0685606
-0.0565184
0.151402
-0.224991
0.215563
0.312639
-0.207175
0.31224
-0.0394035
0.324041
-0.270683
-0.0113715
0.00135069
0.133032
-0.202013
-0.0365043
0.0265043
0.1553
-0.0266776
0.331572
-0.338191
0.358997
0.0291522
-0.0499583
0.442224
0.017312
-0.0493196
0.360123
0.0244779
-0.0502921
-0.435595
0.367379
-0.0536199
0.179533
-0.0454859
-0.222579
0.336883
-0.393009
0.402807
-0.161421
-0.0094287
-0.0130797
-0.363718
0.386227
0.0501261
-0.055306
0.167707
0.0548043
0.0256082
-0.212165
-0.256843
0.0921387
-0.10988
0.274584
0.257027
-0.420506
0.0159317
-0.0376706
-0.0134673
0.237769
-0.258105
-0.252695
0.273031
-0.242266
-0.157296
0.114854
-0.344125
0.35705
0.0394802
-0.0524052
-0.381558
0.421965
-0.0498354
-0.317991
0.325623
-0.0561093
-0.345575
-0.0556962
-0.356008
0.360547
0.0457578
-0.0502971
0.31644
-0.318842
0.0578297
-0.055428
-0.577292
0.46626
0.160403
-0.0493709
-0.384476
0.402039
0.031791
-0.0493546
-0.535137
-0.0638443
0.650066
-0.0510852
0.476508
0.169118
-0.593508
-0.0521188
0.475553
-0.453531
0.0312559
-0.0532783
0.504794
-0.491644
0.0407306
-0.0538814
0.0601457
-0.39202
-0.010446
0.00818825
0.317265
0.204039
0.236541
-0.269343
0.214992
0.160104
-0.147739
0.339936
-0.230963
0.367033
-0.247116
-0.024186
-0.288624
0.0592534
0.105874
-0.108191
-0.360762
0.0552688
-0.050515
-0.0557546
0.0290583
-0.0500692
0.0789267
0.449915
-0.0523334
0.0547457
-0.0525965
0.506721
0.0522428
-0.0541692
-0.332778
0.0431393
-0.0559361
0.0432282
-0.0493406
-0.0535042
-0.324553
0.0604094
-0.0546984
-0.455724
-0.0720912
-0.0494774
0.0149139
-0.0509139
-0.124559
-0.380779
0.257203
-0.293804
-0.0447617
0.0545045
-0.162603
-0.0284675
-0.270406
0.288022
-0.161342
0.021539
0.173907
-0.390598
0.274324
-0.235605
0.228423
0.216957
-0.187911
0.00262528
0.000315567
0.00174375
-0.107234
0.102208
-0.239069
-0.161837
-0.00784567
0.0170176
0.141894
0.300344
0.223391
-0.0440065
-0.342668
0.0531036
-0.278902
-0.0416267
0.0586193
-0.0478227
0.0397197
-0.0505163
-0.000378821
0.00491203
-0.266541
0.225216
-0.458689
0.132504
-0.0298699
-0.00169935
0.194356
0.054399
-0.0474648
0.437438
0.0515827
-0.0528595
0.525467
-0.0324747
-0.0653506
-0.427642
0.0591748
-0.0495561
0.235666
-0.349907
0.0834666
-0.335393
0.00965985
0.0266021
0.0372542
0.260829
-0.27486
0.1919
-0.0490107
-0.299338
-0.10612
0.383366
-0.367832
-0.0794706
0.0852643
-0.00201899
-0.309327
0.0830067
0.0613252
-0.186666
-0.00415397
0.228167
-0.107323
-0.00286133
0.381111
-0.371181
0.185026
-0.103918
0.133884
-0.0111127
0.00333727
0.0406734
-0.0491881
0.0758561
0.0255999
0.105065
-0.0499943
-0.422647
-0.0927608
0.281754
0.0097598
0.14494
-0.157092
0.0419571
-0.0514598
-0.0439896
0.261282
0.302664
-0.202771
-0.280299
0.180407
0.166293
-0.0608989
0.348951
-0.14693
-0.242725
0.0711718
-0.292461