/*--------------------------------*- C++ -*----------------------------------*\
  =========                 |
  \\      /  F ield         | OpenFOAM: The Open Source CFD Toolbox
   \\    /   O peration     | Website:  https://openfoam.org
    \\  /    A nd           | Version:  10
     \\/     M anipulation  |
\*---------------------------------------------------------------------------*/
FoamFile
{
    format      ascii;
    class       volVectorField;
    location    "900";
    object      U;
}
// * * * * * * * * * * * * * * * * * * * * * * * * * * * * * * * * * * * * * //

dimensions      [0 1 -1 0 0 0 0];

internalField   nonuniform List<vector> 
23845
(
(0.711749 -0.106871 1.18386e-20)
(0.475101 0.0967361 -5.20773e-21)
(0.239242 -0.0115858 2.74813e-20)
(-0.136482 0.0167086 7.29206e-22)
(0.0756509 0.05842 5.39681e-21)
(0.811068 -0.00720378 -2.61731e-25)
(0.916212 -0.0286133 -1.2869e-20)
(-0.0756358 0.0664036 -2.67184e-22)
(0.935408 -0.00786333 6.19614e-24)
(0.852904 0.0965142 -5.82907e-21)
(0.448221 -0.0478756 -5.43164e-21)
(0.751486 -0.000816949 3.653e-24)
(0.927922 0.0154764 1.96601e-23)
(0.89092 -0.00847986 1.54829e-24)
(0.713941 0.0337703 -2.16376e-20)
(0.934129 0.0733642 -1.03683e-21)
(0.809152 0.0205735 1.32867e-23)
(0.599773 -0.0161718 -1.18889e-23)
(0.948726 -0.0257455 -1.76178e-22)
(0.776209 0.00842449 2.85441e-22)
(0.889082 0.0979049 1.9139e-20)
(0.400959 -0.0361941 -9.67668e-21)
(1.05641 -0.051697 -3.20125e-21)
(0.941849 -0.0082968 6.96837e-24)
(0.760264 0.0871283 -1.01687e-21)
(0.993073 0.00733996 -1.11443e-23)
(0.937488 0.0521514 1.06959e-20)
(0.805742 -0.00871673 4.34356e-22)
(-0.0526774 -0.117593 7.81977e-21)
(0.801941 0.00958667 -1.71422e-22)
(-0.148746 -0.00885101 3.22818e-20)
(-0.0310947 0.0859374 4.17821e-22)
(0.414985 -0.0196668 1.01189e-20)
(0.649149 -0.0216768 4.1547e-24)
(0.748337 0.000581889 -1.48715e-23)
(0.741473 0.0042614 2.22131e-22)
(-0.0437019 0.116806 -7.17451e-21)
(0.750321 -0.000797596 -3.63222e-24)
(0.778804 -0.00419548 -1.79498e-23)
(0.919794 0.00917991 8.43992e-24)
(0.977042 -0.0320799 1.36315e-22)
(0.735779 -0.0159443 3.84591e-22)
(0.949162 -0.0137791 -1.72442e-22)
(0.683037 0.0134036 -2.09959e-22)
(1.01128 -0.00738549 -5.0062e-23)
(0.885641 0.016182 6.54025e-23)
(-0.0704921 -0.0250107 -1.85605e-21)
(0.891965 -0.0704152 -4.64216e-21)
(-0.0235669 0.00957148 1.56691e-21)
(-0.0595712 -0.115617 3.44022e-21)
(-0.0491624 -0.044212 7.17554e-22)
(0.154816 -0.0150491 -4.01885e-21)
(-0.0220499 -0.0408 -3.65427e-21)
(0.858242 -0.0090651 -1.57563e-22)
(-0.0342888 0.0958071 7.6177e-21)
(0.866312 0.02065 2.37492e-23)
(0.210541 0.0703768 2.71374e-20)
(-0.0907784 -0.0367985 1.878e-20)
(0.782606 0.104218 -3.71702e-20)
(0.0100198 0.0259103 -1.73493e-20)
(-0.0428848 0.102908 2.55452e-21)
(0.696732 0.0151839 7.07419e-23)
(0.922598 0.0625413 -1.14775e-21)
(-0.0377107 -0.0966824 3.35928e-21)
(0.961175 -0.00840308 9.59627e-25)
(0.910093 0.0149591 -8.32605e-23)
(0.978457 0.0345664 1.10114e-20)
(1.01968 0.00686318 9.2456e-23)
(1.01801 -0.00735253 -1.75931e-22)
(0.937957 -0.0328547 5.59331e-23)
(-0.0606261 0.0873686 2.72608e-22)
(0.146289 0.00582528 1.6763e-20)
(0.983845 0.00958242 8.25977e-24)
(0.795288 0.031524 1.24657e-20)
(0.981326 -0.00814101 -2.80108e-22)
(0.657009 0.0325984 -7.76533e-23)
(0.756847 -0.00195073 -5.24036e-24)
(0.775871 -0.00457563 2.4585e-23)
(-0.118734 -0.0226707 3.8249e-21)
(0.788442 0.0304671 -4.45098e-24)
(0.96797 0.0695645 -2.58627e-21)
(0.680596 -0.038384 -3.80472e-20)
(0.324992 0.0851807 -4.5863e-21)
(-0.0851198 -0.0533831 -7.93239e-22)
(0.242791 -0.00278608 -7.885e-21)
(0.749697 0.00181428 -3.53461e-23)
(0.60873 0.058099 1.44931e-20)
(-0.0176799 -0.0135104 1.70386e-20)
(0.961414 -0.00788518 9.43798e-23)
(0.855171 0.0296251 -1.1459e-22)
(-0.0478266 -0.0817378 -1.26922e-20)
(0.972326 0.0414426 -6.47345e-22)
(-0.0482249 -0.10627 1.13368e-20)
(0.750508 -0.00494989 -1.75145e-22)
(-0.0878206 -0.0249947 2.81395e-21)
(-0.0535777 -0.0919925 -3.55788e-20)
(0.844705 -0.0197447 1.47694e-23)
(0.873384 -0.0729853 -3.60654e-22)
(0.980058 -0.00810433 2.10162e-23)
(-0.010813 0.0380138 -8.20968e-21)
(0.849774 -0.0235091 5.00962e-23)
(0.974825 0.0310775 3.77445e-21)
(0.405659 -0.0981495 1.49966e-20)
(-0.0689641 -0.0877602 -1.59185e-20)
(-0.0541356 -0.0939734 -2.96134e-20)
(-0.0934683 -0.0453175 5.23343e-21)
(0.830907 -0.0081545 8.23306e-24)
(0.993178 -0.00806487 1.6354e-22)
(1.03503 0.0260561 -1.70078e-21)
(0.711267 0.0139956 2.04309e-22)
(0.496601 -0.043724 -1.59289e-21)
(0.75531 -0.00214778 -7.38545e-24)
(0.357482 0.011793 1.60769e-20)
(0.846469 -0.0887881 -2.2093e-21)
(0.745246 0.00480935 -1.11589e-22)
(0.954399 -0.0889223 -2.73557e-21)
(0.978315 -0.00777712 -1.22925e-22)
(0.940078 0.0833049 -5.91047e-21)
(-0.0525082 -0.119084 5.74438e-21)
(-0.022388 0.0840865 -1.5901e-20)
(0.76824 -0.00352359 -2.36926e-23)
(-0.0394808 -0.0936705 -1.97272e-21)
(0.938463 0.0325064 6.38031e-23)
(0.0226049 0.0437844 3.49897e-20)
(0.958986 0.0296987 -3.64984e-21)
(0.987852 0.007734 -1.78072e-23)
(-0.0458582 0.0994552 2.15071e-21)
(-0.0606419 -0.111009 -1.29967e-20)
(0.124979 0.0227189 1.05633e-21)
(-0.0584109 -0.0340101 1.26651e-20)
(0.128815 0.0275387 1.85788e-20)
(0.470552 0.0848494 5.94644e-22)
(0.316906 -0.0511591 2.69808e-22)
(0.85902 -0.00812796 1.62629e-24)
(0.825225 -0.0289786 2.26201e-23)
(0.573029 -0.10708 4.33833e-21)
(-0.0658729 0.0939823 3.33043e-20)
(0.752832 -0.000966085 1.02731e-23)
(1.02639 -0.0302382 6.47591e-23)
(0.783647 -0.0049626 1.72376e-23)
(-0.0551157 -0.123875 -1.57173e-20)
(0.726833 -0.0138899 -1.33353e-22)
(0.768086 0.00534763 5.14952e-23)
(0.659413 0.0127882 3.54834e-22)
(0.928525 -0.0542136 -2.37106e-21)
(0.69961 0.0121352 -2.30992e-22)
(0.953692 -0.0877957 -3.17502e-22)
(0.388029 0.0217533 4.29286e-20)
(0.00886834 0.0734125 -1.29938e-20)
(0.868073 0.0395542 2.18721e-22)
(0.437299 0.0174126 -1.6869e-20)
(0.951777 0.0108893 -3.31593e-23)
(0.443557 -0.0645624 1.54969e-20)
(0.905141 -0.0111507 9.44866e-23)
(0.31993 -0.00531689 -5.84559e-21)
(0.72893 0.0506492 -8.51157e-22)
(0.232583 -0.0832944 -5.18772e-21)
(0.751518 -0.00305901 -7.48549e-23)
(0.154692 0.0206441 1.29949e-21)
(-0.0537918 -0.107352 3.74663e-21)
(0.927117 0.0409644 2.89329e-22)
(0.658845 -0.0310121 -1.81853e-21)
(-0.0830652 0.012393 -1.0311e-21)
(0.953514 -0.00808873 1.7181e-23)
(0.993838 -0.0157259 -2.0563e-23)
(0.789416 0.0391884 1.77797e-22)
(0.829431 -0.00740151 -2.71591e-23)
(-0.0448138 0.101156 -5.66144e-21)
(0.797491 -0.00830763 -3.13583e-23)
(0.697063 -0.0112739 2.96869e-22)
(0.842555 0.00827348 2.43361e-23)
(-0.117962 0.0214762 5.21616e-21)
(0.947776 -0.00876223 1.49429e-23)
(-0.0118385 0.0454178 -7.37903e-21)
(0.958753 0.00865093 2.82414e-22)
(-0.106919 -0.00164957 -4.4826e-21)
(0.975641 0.0495419 6.3292e-22)
(0.672514 0.0610815 1.53103e-21)
(0.993646 -0.00733403 -1.07958e-23)
(0.75612 -0.00338677 2.63427e-23)
(0.00675727 -0.0415479 6.93075e-21)
(-0.0416057 -0.0248484 8.32117e-22)
(0.761344 0.0349536 1.1007e-20)
(0.482673 -0.0359177 -6.5278e-22)
(0.925292 -0.0629814 -3.06094e-21)
(0.917125 0.0201709 9.74703e-24)
(0.725267 0.0155614 -6.41544e-23)
(-0.0774804 -0.0605737 2.75224e-21)
(-0.0552788 0.117354 1.84568e-21)
(0.763235 -0.0164821 -5.66067e-23)
(-0.0467001 0.102168 2.94723e-20)
(0.889035 -0.00834154 2.61212e-23)
(0.895022 0.00876049 8.30057e-24)
(0.84732 0.0084791 -1.70759e-23)
(0.936583 0.0503806 -8.52923e-22)
(0.90978 -0.00838289 -6.94947e-23)
(-0.0648594 -0.0927061 -2.73942e-21)
(-0.0556753 0.108423 1.94574e-21)
(-0.0789165 -0.0703909 -1.00662e-20)
(0.563365 -0.0519678 2.62446e-22)
(0.701238 0.0380298 -7.50702e-23)
(0.898238 -0.00923415 -3.20902e-22)
(0.00239839 0.074583 -6.85558e-21)
(0.349901 0.0682326 1.2056e-21)
(-0.0820407 0.0588864 1.16327e-20)
(-0.0839274 0.0260396 7.34473e-22)
(0.216994 0.0019093 -3.83361e-20)
(0.805837 -0.00610707 -1.59346e-23)
(0.737702 -0.0904191 -1.14502e-20)
(0.61102 0.0200286 -1.87606e-22)
(0.720025 0.0286401 -5.55413e-23)
(-0.0483736 0.11447 1.06325e-20)
(0.976234 -0.0579561 9.59478e-23)
(0.829396 -0.0106506 4.34872e-23)
(-0.0342667 -0.0362367 2.51345e-21)
(-0.0396123 -0.10703 -6.00222e-21)
(0.247873 0.0480459 -3.74493e-21)
(0.702327 0.0163818 -5.6778e-23)
(-0.052549 0.11834 1.56491e-20)
(0.148834 0.0271996 -1.8748e-22)
(0.979081 -0.0104439 -3.22961e-23)
(0.729946 0.0330296 -6.5108e-21)
(-0.066819 0.0907694 -2.08215e-20)
(0.815786 0.0514957 -1.02058e-21)
(0.671957 0.010603 -1.15808e-22)
(0.457186 -0.0209826 2.14796e-20)
(-0.0594465 -0.112465 -7.49449e-21)
(0.88669 -0.00819454 5.82802e-23)
(0.81064 0.00817007 3.49466e-24)
(0.976747 0.0323712 5.49438e-22)
(0.770912 -0.00537893 1.22919e-22)
(-0.0282593 -0.00647211 -9.50312e-21)
(0.754694 -0.00222767 5.85832e-24)
(1.01464 0.00675751 -2.50412e-23)
(0.117071 0.0634085 8.43052e-21)
(-0.0497663 -0.112661 -1.06425e-20)
(0.967628 -0.00874742 6.4777e-23)
(-0.153584 0.00793585 8.82083e-21)
(0.955837 0.00845237 9.60384e-23)
(-0.0795911 -0.0263684 2.2032e-20)
(-0.0222345 0.0247768 8.73962e-21)
(0.941088 -0.0869054 6.63038e-21)
(-0.0969664 -0.0431695 -1.28535e-20)
(0.123347 0.0660852 -1.39731e-20)
(-0.0424946 0.092117 3.15764e-21)
(0.913339 0.0652271 -2.434e-22)
(0.839345 -0.00814463 3.00877e-24)
(1.01821 -0.00675263 2.87466e-22)
(-0.0963515 0.0113036 2.12209e-21)
(0.608639 -0.0301889 5.23079e-21)
(0.853386 -0.0150042 -4.77565e-23)
(0.748727 0.00280932 -1.01865e-23)
(-0.0511742 0.0538398 -4.40875e-21)
(0.965797 0.0147128 3.6242e-25)
(0.788135 -0.0296198 -8.01847e-21)
(-0.0508187 0.0872339 2.18356e-21)
(-0.00488479 0.0733935 4.22498e-20)
(-0.0615509 0.0613799 7.53745e-22)
(0.744184 -0.00468056 2.07092e-23)
(0.933174 -0.00881385 -1.17682e-22)
(-0.0134938 0.000478778 -2.11387e-20)
(0.744674 -0.00212334 -2.03588e-23)
(-0.0501184 0.0952054 -3.48073e-21)
(0.544579 -0.0455461 1.91907e-21)
(0.63743 0.0462522 -2.65531e-23)
(0.944849 0.00809137 -2.53888e-23)
(-0.116173 -0.00455805 -3.1118e-21)
(0.0557916 0.0448859 -1.41717e-21)
(-0.140324 -0.00153329 5.53221e-21)
(-0.147768 0.00963785 -1.55639e-20)
(0.768412 -0.00388711 1.10846e-23)
(-0.11425 0.0270109 -3.11621e-21)
(-0.0438181 -0.0146227 -5.11331e-22)
(0.882525 0.00893322 -7.15495e-23)
(0.437528 -0.0319381 -1.10863e-21)
(0.902428 0.0089706 1.04598e-23)
(-0.0589809 -0.0692051 6.93665e-21)
(0.877696 -0.00814512 -3.04605e-23)
(-0.0653877 -0.0720173 3.71297e-21)
(1.05862 0.0552724 1.82983e-20)
(-0.0836837 -0.0474568 1.89094e-20)
(0.815161 0.00826206 -1.80561e-23)
(-0.0604051 -0.0341615 1.01264e-20)
(0.877127 -0.0490313 6.07647e-23)
(0.745711 0.000164113 -1.52268e-23)
(-0.0205615 -0.0881318 -1.29374e-20)
(-0.0265865 0.0354184 -3.957e-21)
(0.912485 -0.00818116 -3.97589e-23)
(-0.0850967 0.0380793 -3.89499e-22)
(0.426882 -0.0193918 1.00442e-20)
(-0.108549 0.0100734 2.57026e-21)
(-0.0363958 0.0295196 -1.06084e-20)
(-0.0351843 -0.0981873 2.60569e-20)
(-0.0603856 0.0724587 -5.23319e-21)
(-0.0963599 0.0234653 3.37332e-22)
(0.749187 -0.00102333 -5.79233e-24)
(-0.01144 0.0829483 1.67435e-20)
(0.853993 -0.00854034 -9.06944e-23)
(0.74823 0.00160513 -5.30629e-24)
(-0.0527785 -0.117825 -6.92549e-21)
(0.144149 0.0169582 3.13529e-20)
(0.45655 -0.0179506 1.49718e-20)
(-0.047453 -0.111443 1.91419e-20)
(-0.155937 -0.00105665 8.12261e-20)
(0.861487 0.00853333 2.58991e-23)
(-0.160721 0.00181543 -4.72722e-20)
(-0.0395697 -0.0926881 -1.30447e-20)
(-0.0460492 -0.0291252 -3.16283e-21)
(0.859173 -0.0227219 1.81545e-24)
(-0.0646826 0.0977683 4.49444e-21)
(-0.0415446 0.000106544 -1.28299e-20)
(0.325367 -0.0605173 3.17443e-20)
(0.919134 -0.0208419 1.11203e-23)
(0.838461 0.00842345 9.23632e-23)
(0.052833 0.00153639 3.09325e-20)
(-0.056431 -0.122176 1.45477e-20)
(-0.0172026 -0.0856713 1.80322e-21)
(0.322031 0.0501708 -1.42034e-20)
(-0.0513564 0.0956296 5.63772e-21)
(0.975252 -0.0114739 1.31775e-23)
(-0.0556187 0.0876511 8.81089e-21)
(-0.0467192 0.108583 -8.09704e-21)
(0.0219631 0.0638811 -2.30163e-20)
(0.814486 -0.00915766 -1.6713e-22)
(0.532661 -0.0281097 -1.24902e-20)
(0.801421 0.00732298 -1.77162e-23)
(-0.136433 -0.0076606 -1.94532e-20)
(-0.0781716 -0.0262648 1.16191e-20)
(-0.00209993 -0.0705991 -6.12761e-22)
(0.570787 0.0160349 4.78264e-22)
(0.339933 -0.0296731 5.22894e-20)
(0.8194 -0.0467206 -1.87829e-22)
(-0.0498306 -0.0671486 9.67262e-21)
(0.739667 -0.00029745 1.71301e-23)
(-0.00055471 -0.0750497 -4.67291e-21)
(-0.139864 0.0131725 -2.27142e-21)
(-0.0716043 -0.0149342 -1.20824e-20)
(0.588946 0.0137762 -2.39373e-22)
(0.72321 0.0111571 2.35546e-22)
(-0.123107 -0.00966125 1.07733e-20)
(-0.0896039 0.0233089 -1.32765e-21)
(0.0151423 0.0698662 -1.32667e-20)
(0.450044 -0.0403191 6.65219e-21)
(1.01258 0.00744001 -4.33182e-23)
(1.01326 -0.00730491 1.7296e-23)
(-0.0698306 0.0671753 -4.8492e-21)
(0.741617 0.0019282 -3.7891e-23)
(-0.0556479 -0.0813301 6.06956e-21)
(-0.12807 -0.0148759 9.19947e-21)
(0.366078 -0.0158858 -4.18387e-21)
(-0.0963771 -0.0114042 1.64236e-20)
(0.122122 -0.0298244 -6.97442e-21)
(-0.0618498 0.109557 2.0642e-20)
(-0.0561556 -0.0535707 -1.08007e-20)
(-0.0210591 0.0418285 2.15863e-20)
(0.893244 0.00871936 5.35374e-23)
(0.686176 -0.00958088 -2.20139e-23)
(0.970189 0.00914961 -3.02362e-23)
(0.476977 0.0262826 -7.52065e-21)
(-0.0966275 -0.0393797 3.61015e-21)
(0.0664527 0.0357439 -1.22467e-20)
(0.966381 0.00768548 -4.39914e-23)
(0.947508 -0.0888493 -7.08127e-21)
(0.886889 -0.0438413 -8.74098e-22)
(-0.0538645 0.119018 1.06952e-20)
(0.839514 -0.00771069 1.73702e-24)
(0.0253854 -0.0569816 -3.12582e-21)
(0.76105 -0.00652642 7.14884e-23)
(-0.0526679 -0.119382 6.73426e-21)
(0.992904 0.00823572 3.34528e-23)
(0.702254 -0.0126948 -5.18096e-23)
(-0.0470209 -0.0933456 1.91401e-20)
(-0.0305737 0.0667691 -1.38194e-20)
(0.752486 0.00210029 8.12487e-24)
(0.755581 -0.00409295 4.04351e-23)
(-0.051805 0.077353 -3.47196e-21)
(0.0495189 -0.00787169 -2.20058e-20)
(-0.117813 0.0162197 -3.68035e-21)
(0.719003 -0.012766 -1.31297e-22)
(-0.0858081 0.0361684 6.89845e-21)
(0.652038 -0.0362877 -1.2242e-20)
(0.74394 -0.00254812 -1.16187e-23)
(1.02629 -0.064359 1.50772e-20)
(1.01564 -0.00727977 3.8059e-23)
(1.01418 0.00712165 -1.25768e-24)
(0.762156 -0.00317514 -1.24093e-23)
(0.786952 -0.00600671 -2.27876e-22)
(-0.11629 -0.0174673 -6.37621e-21)
(0.614953 0.0312145 -1.19067e-23)
(-0.0979468 -0.0256057 -1.34947e-20)
(0.94168 -0.0398891 -2.72422e-21)
(0.68998 0.0109905 7.74602e-23)
(-0.0360679 -0.0839811 3.08275e-20)
(-0.0528413 -0.0852015 7.56893e-21)
(-0.0386696 0.0148577 9.5091e-21)
(-0.0533661 0.113209 6.65798e-21)
(0.551933 0.0396042 -8.78118e-22)
(1.00009 -0.00768507 -7.90817e-24)
(0.933418 -0.0336665 -2.6546e-22)
(0.737907 -0.00060686 6.41273e-23)
(-0.0251836 -0.0089824 -1.80269e-20)
(-0.159857 0.000621533 4.8361e-20)
(-0.0744892 0.0446285 2.65637e-22)
(-0.0532196 0.021544 -7.72522e-21)
(0.123506 0.048126 1.94952e-20)
(0.692659 0.0367302 1.16219e-20)
(0.801092 -0.00592056 1.25924e-24)
(-0.0350658 0.0770199 1.96477e-20)
(-0.0539194 -0.101406 9.80656e-22)
(-0.0297235 0.0811774 -1.6207e-20)
(0.548822 -0.0233346 -1.04948e-20)
(1.01596 0.00647455 2.26226e-23)
(0.853101 0.0312901 9.81979e-21)
(0.0281016 -0.0641618 1.14544e-20)
(0.332039 0.0937731 -1.54469e-20)
(0.0794352 -0.0031248 -1.64012e-20)
(-0.135982 -0.00496422 1.74646e-20)
(0.438927 -0.0266213 -4.39647e-22)
(0.786044 0.00650917 5.66455e-23)
(0.960888 0.0919883 1.37969e-21)
(0.141329 -0.00808783 6.92326e-21)
(0.746582 0.0102665 9.1459e-23)
(0.923764 -0.00812935 6.1886e-24)
(-0.130162 -0.00195602 6.21892e-21)
(-0.0462237 0.087014 6.57598e-21)
(0.65137 0.100843 5.96059e-20)
(0.109482 0.0132049 -6.41124e-21)
(-0.138044 -0.00699937 1.45771e-20)
(0.0107989 0.0328388 1.15926e-20)
(0.0526299 0.0309271 -2.58739e-20)
(0.898761 -0.00825988 5.14193e-24)
(0.639584 0.0184711 4.36468e-23)
(0.0123813 -0.0700977 -2.51652e-20)
(0.56119 0.00731232 3.64186e-22)
(0.854917 0.0126446 6.81008e-23)
(0.987658 -0.00909098 6.1822e-23)
(0.750375 0.00135288 3.16182e-23)
(0.9182 0.0194703 -5.45122e-26)
(-0.0463329 -0.110232 4.30882e-21)
(-0.0218586 0.0265849 4.20434e-21)
(0.572926 0.0305308 -4.94068e-22)
(0.0514404 -0.0224596 -1.55939e-20)
(-0.0564144 0.0966423 -2.12214e-20)
(0.114831 0.029924 -5.00762e-21)
(-0.149372 -0.00281528 -8.26577e-21)
(-0.0173414 -0.0839813 -6.68826e-21)
(0.788655 -0.00912713 3.50052e-22)
(-0.162737 0.00381516 -2.32347e-20)
(0.780238 0.00646606 -3.52722e-23)
(-0.091574 0.0305946 -6.04105e-21)
(-0.122077 0.00241684 3.04053e-21)
(0.944824 -0.0108344 -5.44654e-23)
(0.0219558 0.0354592 -1.60802e-20)
(0.743718 0.00311088 -2.21464e-22)
(1.00988 0.00689978 -1.1488e-22)
(0.0132971 -0.0693556 -1.63306e-21)
(0.00357551 0.0301894 4.92917e-21)
(0.343955 0.0692384 2.29432e-21)
(-0.068226 0.0634686 1.29783e-20)
(0.873653 -0.00920949 1.92732e-22)
(0.774615 -0.0897882 -6.69585e-21)
(-0.14846 0.00435402 -5.25511e-20)
(-0.062676 -0.102341 2.26752e-20)
(-0.0386863 -0.0285811 -7.23818e-21)
(0.779715 0.00652945 5.82456e-23)
(0.787736 -0.0056433 -1.45546e-23)
(0.836697 0.00873273 3.13914e-23)
(-0.0313985 -0.0212987 3.50099e-21)
(1.01125 0.0077015 -1.5227e-23)
(0.338906 -0.0109569 -4.05316e-21)
(0.810065 0.00859499 -4.58626e-23)
(0.819026 -0.00688287 -1.35239e-23)
(-0.168311 -0.00109013 -3.84991e-21)
(-0.0393633 0.0907393 7.89101e-21)
(-0.0318793 0.0908349 -2.22504e-20)
(0.102254 -0.061236 7.3604e-21)
(0.958309 -0.00997597 -5.23604e-23)
(-0.0411793 0.0810154 -6.16743e-21)
(0.842848 -0.00923761 -2.80094e-22)
(0.88817 0.0337167 9.35598e-23)
(-0.135293 0.00967601 2.23792e-21)
(-0.162404 -6.90023e-05 -2.10456e-20)
(-0.163006 0.00273471 -8.41829e-21)
(0.383626 0.0307195 -3.05622e-21)
(0.562576 0.0276234 -3.26549e-25)
(0.531495 0.0338325 -1.0767e-20)
(0.762077 -0.00343001 1.89125e-23)
(0.755921 0.00350039 -2.44524e-23)
(0.27694 0.0239547 -3.68981e-21)
(0.0218534 0.0614597 -9.62799e-21)
(0.989993 0.00811377 -1.80597e-23)
(0.163416 -0.0131643 2.27424e-20)
(-0.0557398 0.0877359 6.93798e-21)
(-0.15637 0.00348341 -1.66779e-20)
(-0.0721426 0.0656117 -7.47725e-21)
(-0.107147 0.0161517 6.76612e-20)
(0.98442 -0.00971299 -2.59615e-22)
(0.0718062 0.00631133 -7.40051e-21)
(0.973743 -0.00785439 4.91991e-24)
(0.749319 0.00348176 1.09977e-22)
(0.460742 -0.0544976 1.86466e-20)
(-0.0526178 0.124513 -1.37036e-20)
(0.0411394 0.0597261 2.10146e-21)
(-0.12955 0.00236806 -1.52948e-20)
(-0.0948571 0.0461057 1.20038e-20)
(-0.108027 -0.0342014 1.3089e-20)
(0.520368 -0.0382426 1.65892e-21)
(0.96089 0.01764 3.04282e-23)
(0.771806 -0.00769655 -7.14247e-23)
(0.0308107 0.062125 -2.36791e-20)
(-0.16384 -0.00257865 1.11298e-20)
(0.0551982 -0.0532093 -1.81418e-20)
(-0.0451147 -0.117594 3.08921e-20)
(-0.167994 0.000218341 1.04167e-20)
(0.872003 0.00900463 -4.75359e-23)
(1.00984 0.00782125 1.36557e-24)
(-0.165953 -0.00118446 4.78229e-21)
(0.316679 -0.00704146 -9.74069e-21)
(0.284713 -0.00112885 5.2619e-21)
(0.748245 0.0118788 1.79169e-22)
(-0.0334108 -0.100657 2.5788e-20)
(0.878131 -0.00975017 6.35228e-24)
(0.600615 0.017657 -4.71531e-23)
(-0.0174925 -0.0800244 1.16808e-20)
(1.00765 0.00747916 -2.43303e-23)
(0.850334 -0.0370614 5.72328e-21)
(0.745346 -0.0333414 -5.93105e-21)
(-0.0302592 0.0948193 -2.46897e-20)
(0.980823 -0.0725572 1.18935e-22)
(-0.0528182 0.116969 -3.57592e-21)
(-0.0513632 -0.111395 1.01939e-21)
(0.210694 -0.00501455 -5.37927e-21)
(0.115245 -0.0486396 2.41564e-20)
(1.07442 0.0441098 -1.49279e-20)
(0.900716 0.025658 1.12728e-24)
(0.959971 0.0183476 1.43043e-23)
(0.851462 -0.00952934 1.32318e-22)
(0.00281598 -0.0755414 1.81585e-20)
(-0.0747644 0.00200026 -8.55083e-20)
(-0.11932 -0.0265811 -1.58637e-20)
(0.25034 0.00317961 6.37946e-21)
(0.882972 -0.00905573 -9.39971e-23)
(1.05502 0.0618561 1.578e-20)
(1.05161 -0.0587728 -2.61729e-21)
(0.93412 -0.0458012 7.12447e-23)
(1.04512 -0.0674199 -7.14114e-21)
(0.354459 0.0282588 1.0237e-21)
(0.936477 -0.0139315 4.63168e-22)
(0.824957 -0.00964582 7.49747e-23)
(0.926866 0.0125832 6.50515e-23)
(0.90977 -0.0113544 5.18203e-23)
(0.74701 0.000292269 3.12595e-23)
(0.0199846 -0.045018 -2.80113e-21)
(0.90043 -0.0129887 -1.70676e-22)
(-0.0861551 0.0519003 -4.25039e-21)
(0.508567 0.0796773 -1.63631e-20)
(0.714257 -0.0107219 -6.25082e-22)
(0.0529551 0.0548799 -1.2398e-20)
(0.739807 0.00152336 -1.22721e-23)
(0.783863 0.00763369 -2.83766e-22)
(-0.094803 -0.00121561 1.79153e-21)
(-0.134721 0.00553762 -2.16871e-21)
(0.0389037 -0.0386236 -9.82467e-21)
(0.771572 -0.00827863 2.20806e-23)
(0.708641 0.0128904 -3.71203e-24)
(-0.0514812 -0.0768899 -5.35921e-23)
(-0.0483629 0.096715 5.35256e-22)
(0.984306 0.00751856 6.45683e-23)
(-0.0487164 0.113119 -2.22637e-20)
(0.964143 0.0153912 -1.39443e-23)
(1.00967 -0.00787976 3.83571e-23)
(0.814854 -0.0418221 2.53506e-21)
(0.916294 0.0210821 -7.07263e-24)
(0.828173 0.00837111 1.6177e-22)
(0.917885 -0.0779941 6.92226e-21)
(0.0154182 -0.0377857 -1.75897e-21)
(0.0058275 -0.0578878 -4.56074e-20)
(0.210012 -0.0132488 8.46038e-21)
(-0.0651555 -0.0571707 8.40582e-21)
(-0.0546772 0.0198 1.42798e-20)
(1.0071 -0.00845158 3.17835e-23)
(0.755725 -0.00207276 -1.00671e-24)
(0.929757 -0.0480513 5.40278e-22)
(0.328419 0.0208212 8.58315e-21)
(-0.00930127 0.0776698 1.10536e-20)
(0.669982 -0.0058246 3.46655e-22)
(0.985715 0.00936231 1.08264e-24)
(0.979195 -0.00947366 1.08709e-23)
(-0.0656178 -0.0423775 -1.17026e-20)
(0.976423 -0.00938898 3.16081e-22)
(1.08217 -0.0376755 -6.72404e-21)
(0.425256 0.0218772 1.20465e-21)
(0.654249 -0.10025 -3.99691e-21)
(0.469117 -0.0291613 -8.27028e-22)
(-0.0587142 -0.0898879 -3.96413e-21)
(0.670572 -0.0071691 2.7271e-22)
(1.01049 -0.00722103 -5.60293e-23)
(0.872689 -0.00860074 2.98674e-22)
(0.604108 -0.0149404 4.12052e-23)
(0.760791 0.00390045 1.97483e-23)
(0.144662 -0.0100694 8.58075e-21)
(0.851914 -0.0118474 -1.79683e-22)
(-0.0233606 0.00626891 -3.59836e-21)
(0.599537 0.0352343 -9.26663e-21)
(-0.0597787 0.0298888 -1.08037e-21)
(0.634396 0.0859174 -4.26778e-22)
(-0.0627238 0.0493767 -1.08946e-21)
(-0.0414729 0.0157241 -2.21352e-20)
(0.847723 -0.0323272 -1.93617e-21)
(0.743979 0.0495526 1.10203e-21)
(-0.132477 -0.00607608 7.5428e-20)
(0.382825 0.0905156 -1.03291e-20)
(0.209365 -0.0664965 -1.8658e-20)
(0.02585 0.0370105 -5.15054e-21)
(-0.00442863 0.0709802 3.06087e-20)
(0.594982 0.104577 2.44647e-20)
(0.118644 0.0228878 -2.4984e-20)
(0.258805 0.0781699 1.86587e-20)
(0.809766 0.0109614 -1.96527e-22)
(0.863757 -0.0107077 -3.02506e-23)
(-0.0208235 -0.0171164 2.22426e-20)
(-0.0549615 -0.101863 -2.94661e-21)
(-0.0825292 -0.0140498 4.03702e-20)
(0.713965 0.0426901 1.48597e-23)
(0.21079 0.0781798 -3.16594e-20)
(0.481554 0.0122166 7.89706e-23)
(0.980082 -0.0283589 -3.47248e-23)
(0.613133 0.00715612 8.27017e-22)
(0.989638 -0.0187384 1.07947e-23)
(0.978023 -0.0718319 2.68029e-21)
(0.929735 0.0146388 3.48791e-23)
(0.899622 -0.0127399 -1.0971e-22)
(-0.140659 0.0131452 2.53936e-20)
(0.808191 -0.00909254 2.23123e-23)
(0.751345 0.00211795 5.45638e-23)
(0.402181 -0.0148467 3.06929e-20)
(0.48511 0.103375 6.94298e-21)
(0.929683 -0.0808912 2.37956e-21)
(1.0066 -0.00906325 2.1307e-23)
(0.489344 0.0284867 -4.16401e-22)
(0.0358562 -0.0505754 -5.58023e-21)
(0.604059 0.0272543 -3.23954e-22)
(0.767467 -0.0064141 -1.20052e-22)
(0.962524 0.0165229 -6.41567e-24)
(0.740134 -0.106705 -1.44679e-20)
(0.517832 0.0731076 2.01076e-21)
(0.837991 -0.0986688 -4.4576e-21)
(0.967392 0.0140419 -8.95403e-24)
(0.642682 0.0828339 -3.41314e-23)
(0.177222 0.0150203 -1.88638e-21)
(0.731495 0.00319115 7.12816e-23)
(0.744591 0.00130238 -4.1006e-23)
(0.0809141 0.00665651 -8.50426e-21)
(-0.103826 -0.0370093 9.18656e-21)
(-0.0363097 -0.100476 -3.26971e-20)
(0.321847 -0.0188033 9.56095e-21)
(0.0460767 -0.0546234 -9.89721e-23)
(0.764546 0.0840189 9.79559e-22)
(-0.0141332 0.0706793 2.07726e-20)
(0.480091 0.0453335 -4.33033e-22)
(0.675346 0.0324717 -6.79055e-23)
(0.904983 0.0288301 1.14944e-22)
(0.711163 0.026702 -3.47951e-24)
(0.266106 0.0916672 1.2605e-20)
(0.777265 -0.0270602 2.89457e-24)
(1.00417 -0.00784475 -8.42055e-23)
(0.990828 -0.0177652 -2.28557e-23)
(0.115997 0.0615465 1.75924e-20)
(-0.171069 0.000860429 3.10614e-20)
(0.545016 -0.0730739 -1.1337e-21)
(0.979295 -0.069928 -6.17937e-22)
(0.451848 0.0137426 -3.44128e-22)
(0.624957 -0.0530392 4.07553e-22)
(0.413094 0.0106151 -2.72568e-22)
(0.456771 0.0087922 4.49139e-22)
(0.188622 0.0132346 1.19089e-20)
(0.484672 0.00772078 -2.3046e-22)
(0.12562 0.0140292 1.6857e-20)
(0.669173 -0.0528816 1.20277e-21)
(0.773886 0.0281381 -4.0883e-23)
(0.578035 -0.0575232 -4.55888e-21)
(0.520248 0.00351806 -1.22648e-22)
(0.77274 0.0143813 3.7028e-22)
(0.544517 0.00565391 1.48038e-22)
(0.773522 0.0272046 3.24433e-25)
(0.502004 0.0792512 -4.69825e-21)
(0.868781 0.0192113 2.36504e-23)
(0.567968 0.0025104 -6.77292e-22)
(0.387815 0.0573189 -6.9744e-21)
(0.648365 0.0803403 1.40862e-21)
(0.596161 0.00547451 -6.34173e-22)
(0.790092 -0.0167814 8.08869e-23)
(0.422992 0.00463425 6.09343e-22)
(0.377613 0.000245207 3.10987e-22)
(0.333473 -0.00236972 5.34538e-22)
(0.269754 0.00653139 -5.66737e-21)
(0.213357 0.00985548 -6.90593e-21)
(0.464721 0.00241033 -2.89783e-22)
(0.143426 0.00167137 -1.4217e-20)
(0.491532 0.00214773 4.07728e-23)
(0.636487 -0.0577983 7.9347e-22)
(0.52982 0.000294135 -6.62095e-24)
(0.701362 -0.0523498 -1.61214e-22)
(0.548698 0.00229332 9.82867e-23)
(0.659213 -0.0199154 -3.97899e-23)
(0.715946 -0.0247172 -1.47582e-23)
(0.577434 0.00129119 -3.94675e-23)
(0.611734 0.00428487 -6.97713e-22)
(0.599243 0.00106261 3.152e-22)
(0.955623 -0.020852 -1.10199e-22)
(0.815298 0.0187199 -9.57879e-24)
(-0.163207 -0.000162686 -2.70307e-20)
(0.953921 -0.00905691 -6.05612e-23)
(0.818411 -0.0174034 -2.10571e-22)
(0.810079 0.0202601 9.40468e-23)
(0.614823 0.00107222 6.42618e-22)
(0.820336 -0.00789118 2.51503e-22)
(0.555849 -0.0398803 1.92649e-21)
(0.626219 0.00260571 3.40886e-23)
(0.39097 0.0155314 1.32978e-21)
(0.342401 0.0138589 4.13445e-22)
(0.509513 0.0120862 2.30791e-22)
(0.634655 -0.000824523 -3.03838e-22)
(0.812973 0.0180998 2.94971e-24)
(0.735949 -0.00425279 -5.9027e-23)
(0.837764 -0.0689357 -1.48439e-21)
(0.858868 -0.054671 -8.90849e-22)
(0.0804334 -0.0199923 3.10027e-20)
(0.944088 -0.0117412 -1.85764e-22)
(0.430654 -0.0181604 -3.08747e-22)
(0.651063 0.000613133 -2.82209e-22)
(0.608905 -0.0140167 -5.80565e-23)
(0.753622 -0.00625299 -1.91381e-22)
(0.819773 0.0177721 1.51619e-23)
(0.268708 0.0319605 -1.04988e-22)
(0.655018 0.0193984 -5.12366e-22)
(0.00408605 0.00386863 -4.76404e-21)
(0.643324 0.00592994 1.19979e-22)
(0.89873 -0.00885965 -7.17502e-23)
(0.833101 0.012026 7.87151e-23)
(1.00139 -0.00737268 -1.31826e-22)
(0.662927 0.00179781 -7.55225e-23)
(0.698984 0.0358978 8.8743e-23)
(-0.054216 0.0831272 -1.53572e-20)
(0.976119 -0.00894017 1.91352e-22)
(0.660044 0.0060256 -7.09776e-24)
(0.108288 -0.0050131 8.8695e-21)
(0.665678 0.00114573 3.76872e-22)
(0.815536 0.0120621 -1.7363e-23)
(0.783186 0.00996451 1.3806e-22)
(0.388175 -0.0252975 -4.05123e-20)
(0.78812 0.0126198 9.38681e-23)
(1.01549 -0.00715913 -3.51056e-23)
(0.514229 0.0758852 2.45082e-21)
(0.813262 0.019041 -3.85128e-23)
(0.0134091 0.0579438 4.76812e-21)
(0.654419 -0.0646587 -3.85612e-21)
(0.694666 -0.0562704 -3.90489e-21)
(0.242843 0.0110357 -3.67937e-21)
(0.2954 0.00397181 -6.53381e-21)
(0.166687 -0.0179861 3.51554e-20)
(0.76157 0.0147995 -2.06779e-22)
(0.476665 -0.00166775 6.65845e-22)
(0.491192 0.0268319 -2.57446e-22)
(0.406244 0.0314073 2.06454e-21)
(0.503211 -0.000325238 1.68856e-22)
(0.844842 0.0465954 -3.83113e-22)
(0.558581 0.00086183 2.03462e-22)
(0.346748 0.0896886 -3.55131e-20)
(0.585285 0.00446949 -3.98176e-25)
(0.68099 0.000932167 1.61884e-22)
(0.223191 -0.00176219 -5.17095e-21)
(0.279429 -0.00673477 3.1867e-21)
(0.30921 0.0455654 8.65285e-21)
(-0.10404 -0.0163475 -1.69418e-20)
(0.72981 -0.0503489 1.93128e-21)
(0.806736 0.0120846 4.71187e-23)
(0.224203 0.0783217 1.77835e-20)
(0.696724 0.0568895 -6.45857e-22)
(0.716025 0.0239185 -3.0906e-22)
(0.606677 -0.00138817 5.69234e-23)
(0.553478 -0.00250472 -1.89883e-23)
(-0.0450519 0.0455894 3.32398e-21)
(0.90213 0.00924557 3.18701e-23)
(0.656683 -0.0463075 -1.33883e-21)
(0.676711 0.00414751 8.67647e-23)
(0.920886 0.017306 -5.69084e-24)
(0.651673 0.0113446 -3.47117e-22)
(0.680082 0.00624989 -2.33787e-22)
(0.678214 0.00249292 -3.23409e-22)
(0.622497 -0.00203173 -6.65263e-22)
(0.830727 -0.0185025 -2.38089e-23)
(0.720475 -0.023491 5.15842e-23)
(0.748597 -0.0141447 1.44229e-22)
(0.657126 0.00194038 2.27123e-22)
(0.822811 -0.0166862 -1.2328e-22)
(0.00555387 0.0461874 1.7289e-20)
(0.545896 0.0167926 7.22127e-23)
(0.804307 -0.0107145 -3.22361e-22)
(0.618107 0.0142069 1.78834e-22)
(0.637598 0.010854 4.17356e-22)
(0.852837 -0.0172174 1.16551e-22)
(0.167983 -0.028128 -1.52367e-20)
(0.676751 0.0446323 2.35774e-22)
(0.587294 0.0535762 -4.86082e-22)
(0.743862 0.0356767 1.37914e-22)
(0.760169 0.0154418 2.85343e-22)
(0.820558 0.0126744 -3.36164e-22)
(0.810993 0.0177773 1.42124e-23)
(0.775052 -0.0154795 -5.19949e-23)
(0.378087 -0.0940055 -5.58148e-21)
(0.73794 -0.068036 8.28258e-21)
(0.280435 -0.0230496 -1.93746e-21)
(0.821599 -0.0330637 1.3398e-22)
(0.686348 0.00372486 2.03685e-22)
(0.511065 -0.0120941 1.53477e-22)
(-0.0435005 0.105049 8.77437e-21)
(0.648255 0.0452208 -4.09504e-22)
(0.978 0.0307553 -2.50583e-22)
(0.974137 0.0470472 3.61913e-22)
(0.997327 0.0128064 4.67911e-24)
(0.992153 0.016413 -2.93271e-23)
(0.976657 -0.0553062 -2.35017e-21)
(0.988455 -0.0196748 7.56622e-23)
(0.988758 0.0193008 2.14872e-25)
(1.0052 0.0100607 1.73571e-23)
(0.981805 -0.0268597 8.0661e-23)
(1.00118 0.0115423 -3.53094e-23)
(0.993317 -0.0149815 -5.55074e-23)
(0.998948 0.0121739 2.51377e-23)
(0.999951 0.00961224 1.45247e-22)
(1.00752 0.00932162 -2.24661e-24)
(0.985375 0.0205947 -3.00803e-23)
(0.978844 -0.0302752 9.0761e-23)
(0.992464 -0.0168231 -4.06092e-23)
(0.990555 0.0179354 -3.67305e-23)
(0.981916 -0.0667364 1.7076e-21)
(0.666204 0.00940243 1.48858e-22)
(0.631597 -0.00770416 1.24809e-22)
(0.113152 0.00631936 -2.54485e-20)
(0.185212 -0.0135293 -1.06271e-20)
(1.00649 -0.00801358 1.42051e-22)
(0.951289 0.00832462 4.98966e-23)
(0.729283 0.0125522 -9.04641e-22)
(0.682353 -0.0733437 1.11192e-21)
(0.349465 -0.000558342 1.7827e-22)
(0.572041 0.0552581 -3.29345e-22)
(0.393039 -0.00128141 -3.71385e-22)
(0.704964 0.0251454 -2.3901e-23)
(0.980536 0.0268983 -4.63412e-22)
(0.977849 0.0293489 -4.37878e-23)
(0.977914 0.044484 -7.05007e-22)