/*--------------------------------*- C++ -*----------------------------------*\
  =========                 |
  \\      /  F ield         | OpenFOAM: The Open Source CFD Toolbox
   \\    /   O peration     | Website:  https://openfoam.org
    \\  /    A nd           | Version:  10
     \\/     M anipulation  |
\*---------------------------------------------------------------------------*/
FoamFile
{
    format      ascii;
    class       volScalarField;
    location    "1950";
    object      epsilon;
}
// * * * * * * * * * * * * * * * * * * * * * * * * * * * * * * * * * * * * * //

dimensions      [0 2 -3 0 0 0 0];

internalField   nonuniform List<scalar> 
10435
(
1.00006
1.37193
0.982868
1.02065
1.17763
1.36307
0.887949
0.668381
0.594071
1.28986
1.32295
0.870227
1.29967
0.535833
0.629506
0.76162
0.446837
1.46094
0.568687
1.01566
0.715388
0.981801
0.828311
0.682918
1.14366
0.062549
0.104921
1.1383
0.0969616
1.38253
0.9167
1.29568
0.638309
0.105648
0.678704
1.31372
0.718961
0.116052
0.0413094
0.602867
1.48237
0.888675
0.256873
1.05873
0.77047
0.64236
1.40373
0.172031
0.573136
0.947995
0.683722
1.08095
0.0402372
0.0750048
0.0460603
0.0856073
0.710369
0.126018
0.259499
0.664412
0.0456522
1.37862
0.124103
1.07251
0.796232
1.04028
0.190086
0.180626
0.701216
0.723584
0.0726619
0.0869512
0.193285
0.959628
0.71725
0.377054
0.764863
0.837688
0.614336
0.685355
0.896271
0.921059
0.0394227
0.077923
0.864575
1.11231
1.08288
1.1337
0.877604
1.12343
1.11685
1.09429
0.951452
0.952674
1.14148
1.22888
1.04013
0.725669
0.338921
1.05207
0.787789
1.32948
1.02423
1.1405
1.33533
1.04485
0.968937
0.925062
0.821772
0.761002
0.963977
1.329
0.879061
0.82542
1.10573
1.00267
1.0049
1.18505
1.23716
0.952959
0.960651
0.405738
1.23178
1.00178
1.37933
0.0543946
0.991903
0.575248
1.08008
0.101861
0.793973
1.40407
0.715282
0.600437
0.0988921
0.0413915
1.36032
0.986022
1.24779
1.01381
1.01793
0.845603
0.151245
0.923021
0.955796
0.635131
1.21696
1.18034
0.445701
0.851478
0.12537
0.757027
1.04854
0.860172
1.18776
0.08721
1.3569
1.25037
1.23944
1.46975
0.815808
0.510926
1.17911
0.86587
0.801549
1.00962
0.633223
0.917283
0.805491
0.985234
1.10995
0.111878
0.0945981
0.721081
0.811821
1.49959
1.36274
0.282384
0.97282
0.112001
1.35319
1.33376
0.866235
0.0510522
0.813388
0.173264
0.280075
0.793704
1.18541
0.985285
0.912853
0.0394452
0.0955384
1.455
1.33733
0.74269
0.409709
1.01811
0.232141
0.737437
0.832111
0.120921
1.21273
0.130662
1.11316
1.1593
1.21509
0.950456
0.132041
0.926432
0.10364
0.878256
0.92316
0.841982
0.104847
0.537754
0.870031
0.0555201
0.0635898
0.423211
0.102321
0.317221
0.164774
0.775614
0.0743478
0.694991
0.0513949
0.902496
0.955532
0.515779
0.242374
0.661171
0.0570524
0.758511
0.11067
0.363578
0.715236
0.071909
0.745919
0.995199
1.06418
0.0638554
0.064669
0.0832339
1.17674
0.606836
1.10669
0.71547
0.0729849
1.51297
0.0706676
0.905398
1.32228
0.896518
0.759376
1.09553
0.0641851
0.799537
0.0801597
0.131569
0.841612
1.0558
0.0621249
0.813059
0.926865
0.266075
1.06424
0.877767
0.046872
1.12029
0.88941
0.662383
0.718341
1.11611
0.0706087
0.919936
0.106385
1.21709
0.760925
0.637676
1.27334
0.325138
0.951539
0.78947
0.966922
0.0478523
1.1769
0.0462793
0.0808403
0.108679
0.94877
1.4348
0.133916
0.687767
0.042205
0.0706901
0.518081
0.970504
1.24773
0.997037
0.20732
0.771928
1.01371
0.0803414
1.27321
0.636149
0.370284
0.769153
1.01301
0.0829737
0.975461
0.103302
1.50289
1.18963
0.622977
0.072908
0.0554577
0.89266
0.201049
0.888951
1.34577
0.110743
1.01562
0.0397543
0.61538
1.2025
0.077939
1.0749
0.208
0.115682
0.627148
0.12477
0.0840548
0.962182
0.808277
0.140146
0.076105
0.0747959
0.0949372
0.0912142
0.0841387
0.0868044
0.0451285
0.0940921
0.0895426
0.106695
0.154697
0.111247
0.0404186
0.598021
0.0872085
1.14754
0.10105
1.13784
0.597019
0.55867
1.31269
0.908469
0.0794545
0.0930328
0.0758283
0.0557693
0.0883929
0.0469207
0.102683
0.089808
0.153868
0.82712
0.0880112
0.586702
0.0506629
0.095964
1.36705
0.544924
0.0516532
0.103353
0.116544
0.10814
0.0898815
0.0698038
0.120214
0.0484148
0.628457
0.164412
0.683423
0.583047
1.20008
1.26073
0.571204
1.07705
0.647775
0.680518
0.116287
0.0915824
0.0752958
1.02288
0.0847275
1.36759
0.115574
0.113725
0.100092
0.132028
0.0635759
0.830465
0.111704
0.654148
0.784181
0.0797396
0.0761925
0.109034
0.554869
0.10879
0.0818641
0.0718488
0.0873237
0.164585
0.0995177
1.05145
0.0728369
0.0786992
0.0994644
0.117109
1.47578
0.0636978
0.0466767
0.529993
0.0926767
0.000624604
0.000610229
0.000581622
0.000543362
0.000498661
0.000448999
0.000395937
0.000340831
0.000285116
0.000705123
0.000683488
0.000648809
0.000605385
0.000555867
0.000502281
0.000446123
0.000389117
0.000333325
0.000800643
0.000772567
0.000731662
0.000682452
0.000627918
0.00057011
0.00051063
0.0004512
0.000393764
0.000918386
0.00088379
0.00083576
0.000780038
0.000719933
0.000657442
0.00059414
0.000531527
0.000471137
0.00106681
0.00102481
0.000968267
0.000904976
0.00083844
0.000770593
0.000702813
0.000636164
0.000571362
0.00125598
0.00120497
0.00113807
0.00106576
0.000991623
0.000917543
0.000844588
0.000773328
0.000703754
0.00149813
0.00143583
0.00135602
0.00127272
0.00118945
0.00110805
0.00102921
0.000953167
0.000879626
0.00180863
0.00173105
0.00163481
0.00153797
0.00144363
0.0013535
0.0012679
0.00118678
0.00110995
0.00220587
0.00210495
0.00198828
0.00187496
0.0017673
0.00166673
0.00157308
0.00148582
0.00140435
0.00270179
0.00257053
0.00243081
0.00229825
0.00217481
0.00206172
0.0019584
0.0018636
0.00177524
0.00329811
0.00314077
0.00297844
0.00282399
0.00268176
0.00255345
0.00243843
0.00233487
0.00223954
0.00399125
0.00383502
0.00365121
0.00347082
0.00330534
0.00315805
0.00302886
0.0029156
0.00281531
0.00485069
0.00468848
0.00447405
0.00425939
0.0040637
0.0038922
0.00374566
0.00362219
0.00351908
0.00595205
0.00573853
0.00547171
0.00520951
0.0049743
0.00477197
0.00460399
0.00446907
0.00436468
0.00734609
0.00701125
0.00666302
0.00633764
0.00605278
0.0058127
0.00561913
0.00547072
0.00536301
0.00903383
0.00851189
0.00805794
0.00765638
0.0073133
0.00702979
0.0068079
0.00664749
0.00654719
0.0109029
0.0102259
0.00966223
0.00917876
0.00877241
0.00844209
0.00819082
0.00802106
0.00793937
0.0129498
0.0121581
0.0114926
0.0109268
0.0104552
0.0100764
0.00979502
0.0096163
0.00954877
0.0152062
0.0143348
0.0135811
0.0129367
0.0124001
0.0119726
0.0116608
0.0114731
0.0114203
0.0177246
0.016801
0.0159741
0.0152586
0.0146617
0.0141896
0.0138513
0.0136587
0.0136301
0.0205677
0.0196154
0.0187295
0.0179545
0.0173094
0.0168052
0.0164532
0.0162674
0.0162634
0.0238126
0.0228497
0.0219147
0.0210967
0.0204265
0.0199168
0.0195796
0.0194298
0.0194774
0.0275956
0.0265883
0.0256004
0.0247628
0.0241082
0.0236427
0.0233761
0.0233246
0.0234955
0.0321319
0.0309106
0.0298456
0.0290285
0.0284602
0.0281235
0.0280245
0.0281866
0.0286068
0.0376367
0.0358238
0.0346792
0.0339596
0.0335917
0.0335113
0.0337205
0.0342724
0.0350584
0.00212448
0.00207021
0.00202306
0.00198289
0.00194968
0.00192331
0.00190366
0.00189051
0.00188365
0.00188272
0.00188738
0.0018972
0.00191163
0.00193014
0.001952
0.00197651
0.00200287
0.00203022
0.00205766
0.00208427
0.00210902
0.00213086
0.00214859
0.00216068
0.00216477
0.00215971
0.00214493
0.00212168
0.00208973
0.0020473
0.00199536
0.00193564
0.00186846
0.00179511
0.0017169
0.00163506
0.00155077
0.00146519
0.00137944
0.00129461
0.00121173
0.00113173
0.00105544
0.000983574
0.000916734
0.000855384
0.000799851
0.000750375
0.000707028
0.000669827
0.000638684
0.000613443
0.000593944
0.000579972
0.000571358
0.000567918
0.000569521
0.000576058
0.00058737
0.00211339
0.0020633
0.00201973
0.00198265
0.00195193
0.00192749
0.0019092
0.00189693
0.00189046
0.00188954
0.00189384
0.00190295
0.0019164
0.00193363
0.00195401
0.00197684
0.00200134
0.00202667
0.00205193
0.00207619
0.0020985
0.00211785
0.00213322
0.00214348
0.00214734
0.00214335
0.00213016
0.00210697
0.00207363
0.00203067
0.00197923
0.00192035
0.00185478
0.00178338
0.00170709
0.00162697
0.00154412
0.0014597
0.00137484
0.00129067
0.00120823
0.0011285
0.00105236
0.000980534
0.000913653
0.00085219
0.000796478
0.000746723
0.000703001
0.000665287
0.000633511
0.000607558
0.000587251
0.00057239
0.000562777
0.000558226
0.000558582
0.000563736
0.000573483
0.00206465
0.00201716
0.0019759
0.00194084
0.0019119
0.00188899
0.00187198
0.00186072
0.001855
0.00185454
0.00185904
0.0018681
0.00188127
0.00189803
0.00191777
0.00193982
0.00196344
0.00198781
0.00201208
0.00203534
0.00205665
0.002075
0.00208933
0.00209848
0.00210121
0.00209629
0.00208269
0.00205977
0.00202734
0.0019857
0.00193559
0.00187794
0.00181363
0.00174357
0.00166874
0.00159017
0.00150891
0.00142608
0.00134279
0.00126012
0.00117911
0.00110073
0.00102583
0.000955162
0.000889325
0.000828796
0.0007739
0.000724837
0.000681681
0.000644407
0.000612911
0.00058704
0.000566608
0.000551421
0.000541287
0.000536037
0.000535526
0.000539662
0.000548256
0.00198104
0.00193642
0.00189777
0.00186504
0.00183814
0.00181696
0.00180139
0.00179125
0.00178634
0.0017864
0.00179113
0.00180016
0.00181307
0.00182935
0.00184845
0.00186971
0.00189242
0.00191581
0.00193903
0.00196119
0.00198135
0.00199852
0.00201162
0.00201958
0.00202128
0.00201566
0.00200184
0.00197923
0.00194766
0.00190735
0.0018589
0.00180306
0.00174072
0.00167279
0.00160025
0.00152409
0.00144537
0.00136516
0.00128453
0.00120453
0.00112617
0.00105036
0.000977944
0.000909624
0.000845983
0.000787462
0.000734374
0.000686897
0.000645097
0.000608945
0.00057834
0.000553129
0.000533128
0.000518144
0.000507992
0.00050251
0.00050155
0.000505025
0.000512758
0.00187518
0.00183394
0.0017983
0.00176822
0.00174362
0.00172441
0.00171046
0.00170161
0.00169767
0.00169839
0.00170349
0.00171261
0.00172535
0.00174123
0.00175972
0.0017802
0.00180197
0.0018243
0.00184635
0.00186725
0.00188609
0.00190187
0.00191361
0.00192026
0.00192086
0.00191449
0.00190043
0.0018782
0.00184764
0.00180891
0.00176244
0.00170887
0.00164902
0.00158376
0.00151403
0.00144085
0.00136521
0.00128818
0.0012108
0.00113408
0.00105899
0.000986401
0.000917109
0.00085178
0.00079096
0.000735062
0.000684368
0.00063904
0.000599133
0.000564606
0.000535355
0.000511221
0.000492022
0.000477566
0.000467668
0.000462165
0.000460918
0.000463839
0.000470759
0.00174865
0.0017107
0.00167803
0.00165058
0.0016283
0.00161108
0.00159882
0.00159136
0.00158851
0.00159003
0.00159563
0.00160499
0.0016177
0.00163331
0.00165131
0.00167108
0.00169196
0.00171323
0.00173409
0.0017537
0.00177117
0.00178557
0.00179597
0.00180142
0.00180106
0.00179409
0.00177992
0.00175815
0.00172865
0.00169153
0.00164715
0.00159607
0.00153904
0.00147688
0.00141049
0.00134084
0.0012689
0.00119567
0.00112217
0.00104937
0.000978192
0.000909465
0.000843927
0.000782207
0.000724811
0.000672116
0.000624379
0.000581741
0.00054424
0.000511829
0.000484391
0.000461768
0.000443773
0.000430215
0.000420907
0.000415688
0.000414426
0.000417023
0.000423326
0.00160507
0.00157049
0.00154082
0.00151604
0.0014961
0.00148094
0.00147044
0.00146446
0.00146283
0.00146529
0.00147158
0.00148136
0.00149424
0.00150977
0.00152744
0.00154669
0.00156685
0.00158723
0.00160704
0.00162549
0.00164173
0.00165488
0.00166409
0.00166853
0.00166738
0.00165999
0.00164585
0.00162465
0.00159626
0.00156076
0.0015185
0.00146997
0.00141589
0.00135707
0.00129432
0.00122857
0.00116072
0.00109172
0.00102258
0.000954194
0.000887422
0.000823034
0.000761712
0.000704048
0.000650511
0.000601445
0.000557082
0.000517541
0.00048284
0.000452917
0.000427648
0.00040687
0.000390392
0.000378021
0.000369572
0.000364878
0.000363807
0.000366264
0.000372104
0.00144452
0.00141294
0.00138599
0.00136369
0.00134602
0.00133294
0.00132433
0.00132007
0.00131996
0.00132374
0.00133113
0.00134174
0.00135517
0.00137096
0.00138863
0.00140768
0.00142752
0.00144739
0.00146658
0.00148424
0.00149955
0.00151168
0.00151995
0.00152367
0.00152201
0.00151447
0.00150058
0.00148014
0.00145293
0.00141903
0.00137881
0.00133275
0.00128166
0.00122632
0.00116738
0.00110576
0.00104233
0.000977921
0.00091358
0.000850062
0.000788143
0.000728524
0.000671825
0.000618596
0.000569298
0.000524222
0.000483619
0.000447557
0.000416021
0.000388918
0.000366114
0.000347452
0.000332746
0.000321814
0.000314478
0.000310573
0.00030996
0.000312539
0.000318163
0.00126607
0.00123692
0.00121232
0.00119242
0.00117729
0.00116681
0.00116072
0.00115865
0.00116067
0.00116684
0.00117634
0.00118865
0.00120322
0.00121952
0.00123738
0.00125631
0.00127615
0.00129655
0.00131609
0.00133349
0.0013481
0.00135934
0.00136685
0.00137
0.00136817
0.00136081
0.00134762
0.00132831
0.00130244
0.00126991
0.00123145
0.00118772
0.00113952
0.00108773
0.00103294
0.000975314
0.000916016
0.000856892
0.000798067
0.000739825
0.00068315
0.000628727
0.000577046
0.000528529
0.000483557
0.000442661
0.000406012
0.000373896
0.00034609
0.000322159
0.000301917
0.000285343
0.000272396
0.00026292
0.000256732
0.00025373
0.000253796
0.000256792
0.000262592
0.0722646
0.0649989
0.0583781
0.052198
0.0464016
0.0409539
0.0358632
0.0311495
0.0268249
0.0229003
0.019435
0.01645
0.0139182
0.0117798
0.00993996
0.00837004
0.00706469
0.00599768
0.00512905
0.0044197
0.00383647
0.00335172
0.00294264
0.00259045
0.00227876
0.0693184
0.0637878
0.0578139
0.0518678
0.0461311
0.0406793
0.0355606
0.0308153
0.0264749
0.0225696
0.0191251
0.0161396
0.0135876
0.0114285
0.00961257
0.00809743
0.00684639
0.00582292
0.00498958
0.00431007
0.00375216
0.00328891
0.00289862
0.00256389
0.00227056
0.0698208
0.0637822
0.0576239
0.0515592
0.0457165
0.0401728
0.0349873
0.030208
0.0258702
0.0219962
0.0185907
0.0156397
0.0131166
0.0109868
0.00921013
0.00774412
0.00654523
0.00557072
0.00478048
0.00413807
0.00361172
0.00317509
0.00280701
0.00249087
0.00221405
0.0711627
0.0642299
0.0575471
0.0511592
0.0451134
0.0394488
0.0342035
0.0294118
0.0250974
0.0212688
0.0179177
0.0150225
0.012554
0.0104779
0.00875581
0.00734475
0.00619918
0.00527411
0.00452795
0.00392382
0.00343033
0.00302168
0.00267738
0.00238155
0.00212192
0.0727516
0.0649078
0.057588
0.0507729
0.0444547
0.0386333
0.0333155
0.0285108
0.0242225
0.0204432
0.0171534
0.0143248
0.0119244
0.00991568
0.00825863
0.00690914
0.00582059
0.00494705
0.00424631
0.00368144
0.00322148
0.00284137
0.00252142
0.00224664
0.00200594
0.074298
0.065578
0.0575923
0.0503153
0.0437038
0.0377178
0.0323276
0.0275136
0.0232565
0.0195327
0.0163124
0.0135606
0.0112394
0.00930863
0.00772545
0.00644383
0.00541623
0.00459645
0.00394232
0.00341735
0.00299134
0.0026401
0.00234487
0.00209152
0.00186955
0.0758378
0.0661865
0.0574905
0.0497354
0.0428332
0.0366917
0.0312383
0.026423
0.0222049
0.0185449
0.0154033
0.0127384
0.0105068
0.00866341
0.00716177
0.00595378
0.00499101
0.00422735
0.00362123
0.00313694
0.00274519
0.00242285
0.00215204
0.0019195
0.00171587
0.0775077
0.0666753
0.0571948
0.0489667
0.0418023
0.035533
0.0300373
0.0252345
0.0210671
0.0174817
0.0144292
0.0118623
0.00973178
0.00798504
0.00657236
0.00544343
0.00454903
0.00384369
0.00328695
0.00284412
0.00248697
0.00219348
0.00194657
0.0017335
0.00154638
0.0791496
0.0668708
0.0565825
0.0479387
0.0405757
0.0342254
0.0287199
0.0239457
0.0198415
0.0163439
0.0133911
0.0109344
0.00891874
0.00727856
0.00596215
0.00491759
0.00409449
0.00344914
0.0029432
0.00254288
0.00222063
0.00195654
0.00173288
0.00153515
0.00136077
1.44841
1.41688
2.41119
3.68801
0.00233214
0.00351496
0.0478177
0.0013901
2.38854
0.000396897
2.14088
0.00737826
0.252355
0.00638396
0.0754919
0.000955961
2.12066
3.74509
0.000214251
0.0603891
0.0342866
0.000765552
2.55267
0.148263
0.00286393
0.00219443
0.00252276
0.0428708
1.6962
2.18098
0.000392983
0.00201418
3.12863
0.20834
2.17968
0.00101639
0.237055
0.0763614
0.288151
0.0113341
3.82355
0.00192608
0.00104181
0.217982
0.0506577
0.000837511
3.14304
4.09621
1.99461
2.26315
2.90317
3.67132
0.0607929
4.01938
0.0478465
2.46072
0.00570834
0.0425533
0.00349201
3.7571
0.00127941
2.53433
0.00244927
0.000911852
0.00132815
0.131715
0.00381772
1.42389
0.283036
2.1273
2.64761
0.000837867
0.00152398
0.058668
0.00535808
0.0340581
0.0550187
3.94308
0.00593533
4.06474
0.178332
0.00162397
0.00128385
2.08266
0.00169448
0.00148321
0.00114071
3.93712
3.17595
0.0135674
0.0642317
0.00561174
0.000300216
0.00772092
0.00180195
2.16202
0.002353
2.3532
0.00472618
3.7327
0.0148488
3.80551
0.0172013
0.000814514
0.0031401
0.0230583
2.7653
0.153463
0.00309672
2.19552
0.000841047
0.00398805
2.91455
0.000781438
0.0541531
1.96595
3.19257
0.00902645
0.12246
0.00875474
0.000335161
0.00495258
0.165909
0.00310781
3.24943
0.00113506
3.67318
0.0486226
0.00433445
4.08391
0.00141904
0.0576824
2.14678
0.283014
0.053412
0.00121144
0.0577563
0.00942947
0.00102486
0.0642478
0.000569357
0.281184
3.77534
0.000446466
1.79289
0.00104165
3.3311
0.0429345
0.000957145
2.08055
0.0267395
0.0038157
3.46796
0.0512519
0.00688801
2.03454
0.001905
0.00908052
0.0539366
0.00199991
0.000961815
2.56844
0.000865766
2.49991
0.000496776
2.47956
0.00642093
0.00253049
0.00109851
0.00201638
0.00588711
0.000926759
1.36615
2.24225
0.00290592
0.0283352
0.0682151
1.90223
2.55495
0.00059229
0.139139
0.0020417
0.0717579
0.0995933
0.0868959
0.00274653
2.66788
0.00195269
2.46517
0.000943288
4.01566
3.74975
1.84517
0.289452
0.0595303
2.65941
0.00509476
0.00077218
1.87547
1.56262
0.403676
0.00117915
0.00153505
0.000974751
0.0121176
0.00098842
0.00448781
0.0170844
2.07121
0.00680413
0.00326089
0.00439293
0.161415
0.0112417
0.0513607
3.89069
0.00247906
0.00217392
0.00107265
0.0163495
0.0133135
0.00224304
0.00729111
2.61728
3.31563
3.40194
0.0234374
2.13944
0.00345932
0.00160774
1.90551
0.000987623
0.00228441
0.00300302
0.278561
0.0005454
0.0531422
0.0231101
0.106291
0.0517009
0.000705902
0.00135051
0.000560594
0.0737253
0.0013864
0.000948292
0.00183513
0.0425143
0.000942449
0.000774196
0.00313419
0.0311858
0.00188494
1.9633
0.00381832
0.00250028
2.73036
0.05433
0.0537043
0.000222646
1.00431
0.00411283
0.000864962
0.00624929
0.0570337
0.00342897
0.00075543
3.15673
0.0462692
0.00232414
0.0404747
1.83403
0.00477744
0.00241841
0.000208629
3.0649
0.0059255
2.24233
0.00579902
3.83726
0.157717
0.031811
1.27263
0.00083362
2.60781
0.00106316
0.0251916
4.12176
3.00298
4.05212
0.0522702
0.000868489
0.00172016
3.15103
0.481494
3.8815
3.67865
0.00419012
0.00220673
3.20815
3.77234
0.00089335
0.0354626
0.00100564
3.57723
0.000577505
0.0330323
0.00191193
0.0641423
0.0014354
0.000836503
0.00044198
2.7899
0.00463173
0.00512952
0.344514
3.51306
0.00210962
0.00271437
0.525771
0.0545088
0.00108778
0.0494272
0.000387412
0.00113144
0.0032873
3.12388
0.147432
0.00374507
0.0439359
0.000489222
0.0622632
0.0106843
0.000429899
3.90678
0.00155367
0.000870325
0.00130937
1.93842e-05
1.11604
0.00402127
0.0091567
3.47791
0.000417835
0.0560271
0.00258641
0.00537237
0.00319854
0.00134427
2.9273
1.96882
0.000313369
0.00481586
0.0538543
3.2099
2.98945
0.67284
0.245173
0.000599635
3.15279
2.08876
2.19942
0.00105021
3.32388
0.00147022
0.00126063
0.00101683
3.73704
0.000848308
2.367
0.00059995
0.0511823
1.68646
3.27037
0.24785
0.00442072
0.00799867
0.000391231
0.00278342
0.00054072
3.66747
0.000910084
3.22844
0.26564
0.261249
0.56631
0.000473136
0.0595799
1.98955
4.02467
0.0309571
0.000934579
0.0226177
2.92491
0.117622
0.000280706
0.000603812
3.06706
0.00920574
1.71365
0.00126916
0.000973998
0.00179748
1.93695
0.00939806
3.23593e-06
0.0601052
0.025773
0.516537
0.000730619
2.11097
0.00086354
3.21902
0.00101995
0.00119117
1.39726
2.09777
2.92923
0.00641519
0.00581367
0.000481424
0.00270786
0.0170986
0.0204088
0.00103217
3.92196
1.97859e-05
0.0474366
0.00135199
0.0018298
0.000950763
0.00237994
0.0127416
0.00628115
0.051144
0.000987779
0.000829125
0.00117077
0.00297341
0.485088
0.00163224
0.051645
3.2358
0.409291
0.299507
3.08073
0.0280436
2.5188
0.00352684
0.00586102
3.23847
0.000952314
0.00086141
2.98037
0.00043187
2.0657
2.95955
0.00130145
0.0835208
0.0483962
0.000869836
0.0787392
2.01966
0.157201
3.85281
0.00118903
0.00256003
2.65904
0.00147268
2.02576
0.0354087
0.00131852
2.18168
0.594054
0.00297961
0.223131
0.00957549
0.00170976
0.0443199
0.0424222
0.0453126
0.227152
0.000206982
0.00800962
2.02468
0.00168067
0.00137275
0.000957345
1.83769
0.000651934
0.0591417
0.000870377
0.0072623
2.80435
0.000845471
0.0032901
0.0613979
0.000994289
0.00038821
2.33563
0.000991737
0.0519481
0.000910929
0.056938
0.06971
0.192124
0.000967734
0.000929804
0.056626
0.00203251
0.000641419
0.162521
0.00300207
0.00895153
0.00303445
3.7002
3.58993
2.17976
0.0049036
0.0226368
0.000279401
4.04091
0.0611044
4.18768
0.233762
0.000954962
3.89688
3.77438
0.00114657
0.000986345
0.0299455
0.000677997
2.8622
2.91515
0.00888497
0.559545
0.000941033
2.66621
1.93409
0.000882904
0.513073
2.12355
0.000755407
3.02591
0.00612302
2.52097
0.000857151
0.010885
0.000972333
2.23169
0.225236
0.193839
0.00440354
1.99559
2.13854
3.65952
0.00667257
0.000379177
0.195053
2.23154
0.00153019
0.246294
0.000934744
0.231992
2.06745
0.000299877
0.0231861
0.0038573
0.0019156
1.15392
2.92548
0.00103163
0.104045
0.00278649
0.00280819
2.9048
3.18872
2.28186
0.0127609
1.17061
0.0641938
0.0733357
0.00115913
0.000287467
0.00157109
3.04284
0.000728423
0.00371718
0.69993
0.00109663
0.00555558
0.00217159
0.000897758
0.0516788
0.000441247
0.00378405
0.213327
2.22445
0.00186904
0.00181479
3.49104
0.0441131
0.00175832
0.0509316
0.0474182
0.00366902
0.00111299
0.00137099
3.88788
0.00106022
0.000952766
0.250013
0.000946027
0.00107031
0.019348
0.0501158
0.00594697
0.00508261
2.61594
0.000942741
0.00128389
0.00106838
0.000369164
0.00500822
0.0101352
3.70126
3.59627
0.0360106
2.90213
0.00895882
0.00250027
0.00143487
0.00305699
0.00103728
0.00856178
0.0482463
0.0254859
0.00771309
0.00366033
0.0535159
0.0227602
0.00928523
0.133171
0.000774549
0.00304765
0.00159798
0.119092
0.534154
3.67049
0.0520107
0.0536874
0.00914905
0.000359161
0.00411303
0.000992156
0.00112642
3.21652
0.000222589
0.0332207
0.00112554
2.4296
4.28353
2.07376
0.000316569
0.00135009
0.00176516
3.74343
2.61402
0.0885612
0.0635856
0.0100424
0.000216495
0.00177703
3.74304
0.000852412
0.00130736
0.235298
0.000990162
0.000634456
0.000786528
0.00470376
0.0543297
0.0745053
0.00145875
0.000835953
0.0119438
0.000403441
1.81562
3.21491
0.0019214
0.0663046
0.00793304
2.09751
0.00159185
0.000394056
0.000775546
0.0025165
0.761247
0.00100299
0.000610806
0.00340197
1.22573
0.00350714
0.000968253
0.000756211
3.88931
0.0634932
0.0309142
4.061
0.0667703
1.90454
2.19266
0.000206853
0.00177803
0.00125798
1.18326e-05
0.000862038
0.161986
0.00102681
0.000943147
0.21216
0.000254074
0.00099262
0.152349
0.000843928
0.00190571
0.00106855
0.0365081
0.145254
3.76079
0.00022502
2.67285
0.0403461
1.86349
0.0341076
3.82984
2.97267
2.92464
0.00276631
0.000947609
0.000422205
1.06077
0.000861094
0.504854
1.7282
0.000351531
0.0559353
0.435405
0.00569294
0.00114278
0.000903497
3.43263
2.56493
0.000892344
0.0442329
0.0515832
0.0946231
2.85382
8.40352e-08
0.000821584
0.107295
0.000552722
1.6102
0.542539
2.35696
0.0516033
0.00254105
0.0514453
0.00882517
8.53507e-05
0.07965
0.00486747
0.0112636
0.00217494
0.0010393
1.40558
0.000959419
0.0034176
0.000931888
0.000859528
1.59955
0.011915
3.74465
0.0707894
0.000706603
1.99194
0.000929676
0.063024
0.00222667
0.00030598
0.000596311
0.0429119
0.0460464
0.000643336
0.000704204
2.97636
2.59262
0.0496908
0.00106684
0.0450682
0.452647
0.0528175
2.97212
0.227535
0.0089794
0.000460111
2.58737
0.00469691
0.00131064
0.0529934
2.6489
2.37779
0.00254702
0.00118048
2.2963
0.00149302
2.50276
2.33847
0.000652719
0.00247434
2.27099
1.72303
1.61078
0.000519956
0.00195032
0.00281445
0.0444211
0.215278
0.00083663
0.00139438
0.00359189
0.0494559
0.140876
0.565856
1.74141
0.000219366
0.000873694
3.53075
0.00023408
0.0510939
0.00279635
0.0402327
0.00327881
0.00808372
0.470954
0.000813621
0.000369553
0.000417564
0.0345844
0.0480146
3.9301
0.00169369
0.00139208
0.000853027
0.0934395
0.0637521
2.51443
0.00849258
0.344877
0.0712762
6.96689e-06
0.0041419
0.00494666
1.92984
0.00531883
0.0596061
0.000985906
3.93378e-05
0.0796883
0.000930823
4.4887
2.7291
0.0417199
3.77007
3.85977
3.39929
0.000243187
2.77224
0.118119
0.000535819
0.0502806
0.000925348
0.00508927
0.0513263
0.000980221
0.0154872
0.0349854
2.68926
0.121243
0.0286902
2.75134
0.00706468
0.00102572
0.0549549
1.80811
0.599037
0.000313519
0.0937076
4.07227
2.31749
0.459599
0.0550855
2.16796
0.00555568
0.0026229
0.0278419
2.41952
0.00379239
2.37592
0.00415238
2.30821
0.00101383
0.0572425
1.54617
0.000853012
0.00397623
0.000321063
3.06671
0.769142
2.70736
1.89037
0.00108522
0.0559125
0.020947
0.0231438
1.68255
0.0394954
0.00101759
0.000983451
0.000930725
0.0085535
0.0469442
2.15709
0.000108542
2.99248
0.000668543
0.0527701
0.000259741
0.00102266
0.00158518
2.96123
2.43974
0.0392024
0.0415671
0.00220534
0.00426251
0.0533048
0.00116072
0.61419
0.319463
3.39738
0.00382375
1.49498
0.0518495
0.000978149
0.00109279
0.00158667
3.44339
0.00660491
0.0125846
0.0523846
0.061965
0.00268623
0.0323013
0.00164927
0.000766204
0.00310614
0.00330872
0.0441101
0.00214273
0.172535
2.76791
0.0616883
2.98338
0.000869546
0.20891
0.0410908
0.0264004
1.77289
0.00301727
0.00675918
3.10706
0.000989795
0.634047
0.00546393
0.00232414
2.02974
0.000627628
1.77873
0.00354941
0.0431607
0.0454978
3.15709
0.0070694
0.0511227
0.00216069
1.56335
0.000950278
3.32911
0.125122
0.812491
2.14177
0.0907181
3.00932
0.000877653
1.92075
0.00278779
0.00127112
0.00685988
0.0582064
0.0714157
0.0084902
0.000308152
0.0536951
0.00171704
0.000349628
0.00748619
0.00364175
0.000890225
4.05488
0.00106081
0.000851091
0.0515125
0.0354201
3.38254
0.00647525
0.000420561
0.00285809
2.39828
0.00114938
0.00474469
3.73055
2.6812
0.213712
0.00233079
0.0294347
0.0292659
3.10604
0.000513526
0.000279451
0.00830245
0.00112359
0.00435204
2.33537
3.99164
4.56136
0.0363069
0.00227922
0.0528288
3.4265
0.0262858
0.0487403
0.000988424
1.84404
2.09111
3.17333
0.000972832
0.000950416
0.0187768
2.61831
0.00111302
2.53163
0.0284374
0.954582
2.00403
0.00742066
0.0148653
0.00661303
0.000351537
0.000362138
1.15125
1.75266
0.000212493
2.76997
0.00329958
0.00235183
0.00205932
0.000701567
0.0628588
0.0837577
0.0624367
0.0749898
0.00164701
0.00101117
1.88697
2.0086
0.00116432
0.00735558
0.000778857
2.49159
4.30045
0.0226469
3.80071
0.00227696
0.000255318
0.133411
0.000926447
0.0117745
0.0552543
0.00121564
0.00120411
0.000746316
0.00867551
0.103354
2.63668
0.0509018
0.000250063
0.0212754
0.000874972
3.59528
3.73965
0.000610336
0.00026989
0.0558188
0.00414764
0.00323036
1.51406
1.73819
0.758343
0.000399064
0.0240868
0.0740035
1.77038
0.0106685
0.153899
1.63327
2.87918
4.39166e-05
0.00196027
0.0100574
0.000683683
1.38779
0.0946971
0.000836042
0.0526223
0.000983188
0.000501941
0.00109167
0.0507549
0.00297286
3.03215
1.95699
3.40027
1.59374
0.556368
5.00301
0.00195071
3.50624
0.0664774
0.00142595
0.969983
0.000189161
0.0172435
0.000911789
0.000889885
0.00850595
2.61418
0.00395418
0.0325299
0.053973
0.00696726
0.134491
1.4843
3.1545
0.00489779
3.24726
2.35725
0.0063143
0.00310013
0.0735447
0.990547
0.042794
0.0506566
2.63587
0.000531621
0.00781631
0.00415184
0.0679065
3.67833
0.00102143
0.0122073
0.0024384
0.00113716
0.00205026
0.0485463
0.000301551
0.00832646
0.0144242
2.05584
0.000367801
0.253144
2.15236
0.000918323
0.0537628
0.146821
2.76736
0.249671
1.96854
0.137251
0.000872837
3.66584
2.57336
0.00124204
0.0393896
0.0764537
0.000595403
0.00157676
0.000564779
0.10505
0.00204047
0.229592
0.000291405
0.0548001
2.14818
0.0497635
1.98058
0.991935
0.00149392
0.0534165
0.0502258
0.00616959
0.000917985
0.252605
2.11947
0.000567708
0.364386
0.0159979
0.000956548
0.0267014
0.0521945
0.00186633
0.00124667
2.86686
0.0527111
0.000717223
0.000884067
0.000497633
0.00107308
0.000924248
1.68374
0.000792232
0.567171
2.61613
0.0428033
0.000119942
0.0521566
1.67258
0.0629734
1.90553
0.0108469
0.374484
3.43533
3.63446
0.00193905
2.3538
0.0005382
2.39281
4.39462
0.000224187
0.258125
0.0675449
3.98393
0.175963
0.027385
0.000896433
0.0442298
2.36134
2.86986
3.50652
0.00102701
0.0624018
0.000261442
2.50386
0.0129912
0.0029382
0.000903573
0.0544906
0.00875916
0.00527
0.0659645
0.0010217
1.94494
0.00667617
0.00064363
0.718949
0.0416419
0.0115846
0.0805352
0.0627864
0.0010828
0.0576691
3.09936
0.000330178
0.0399123
0.00842821
1.99304
0.366123
0.00311527
3.86172
0.000291718
0.0397141
3.10997
0.000471254
0.00328454
0.0352259
0.0476429
0.0535761
0.00408096
3.98125
0.0115814
0.060868
3.9086
0.0229995
0.000970246
0.545134
0.000903282
0.00126471
0.000392705
0.052805
2.46918
0.00106213
3.03634
0.206091
0.000918665
0.346124
0.00084755
0.00545789
0.310047
0.000692908
0.000833898
2.76627
0.00535031
0.000651821
0.000754639
2.09042
2.36541
0.0205274
0.000449514
0.00334728
0.304577
3.93686
0.000916898
0.00392896
0.0238103
3.21386
0.00375502
0.427932
0.321369
0.00121395
0.0569714
3.5652
0.000883512
0.0183979
0.000746845
3.28473
0.00114103
0.00163373
0.0079924
0.0606801
2.40928
0.00641594
3.0167
0.0079414
2.25304
0.000572392
0.0893557
0.0348837
0.0630505
2.00749
0.0071424
0.189825
0.00111649
0.000888175
0.00102926
2.41841
2.7637
0.000317857
0.000529761
1.66488
0.000867124
0.00641353
0.0058398
3.83844
3.62702
0.0492176
3.24137
0.00092617
0.00113053
0.295013
0.241175
1.93948
0.00340502
0.00177966
0.00281278
0.00499019
0.000962571
0.0035794
0.00118309
0.0327176
3.67072
2.51294
0.000242448
0.0805346
0.0414223
2.77097
0.000837712
3.53844
1.75892
3.72835
0.000678302
0.0504398
0.00160515
0.000862802
0.00053024
0.00183381
0.000230915
1.61925
3.42603
0.000627075
0.0292645
0.0657614
0.285227
2.20596
4.11698
0.00368288
0.0045655
0.00731674
0.022237
0.200763
0.00572382
2.1467
0.186422
0.000376657
0.00961539
0.00101355
0.072715
0.00106795
0.00345392
0.000339872
0.00130468
0.0183822
0.07048
0.000736124
3.34927
0.001016
0.000867254
1.01803
0.00855327
0.0013437
3.03211
2.26388
0.000865827
2.46423
0.000291753
0.0516638
0.000731634
0.00104415
0.00086534
0.00107921
2.58222
0.0109368
0.00096809
2.45068
1.61889
0.000868438
0.000441214
0.0013311
0.000923973
0.0497409
5.00266e-05
0.000879028
3.24916
0.00112917
0.00025691
0.000782875
2.62838
0.00103898
2.53495
1.91759
0.291174
2.65274
0.000891327
0.0033254
3.76656
2.43707
0.000211011
0.000216802
0.0667279
0.00863758
0.00111142
0.00702543
0.0826684