/*--------------------------------*- C++ -*----------------------------------*\
  =========                 |
  \\      /  F ield         | OpenFOAM: The Open Source CFD Toolbox
   \\    /   O peration     | Website:  https://openfoam.org
    \\  /    A nd           | Version:  10
     \\/     M anipulation  |
\*---------------------------------------------------------------------------*/
FoamFile
{
    format      ascii;
    class       volScalarField;
    location    "1950";
    object      k;
}
// * * * * * * * * * * * * * * * * * * * * * * * * * * * * * * * * * * * * * //

dimensions      [0 2 -2 0 0 0 0];

internalField   nonuniform List<scalar> 
10435
(
2.46922
2.90692
2.67368
2.51677
2.78251
3.19796
2.51583
2.15327
2.12757
3.13915
2.87898
2.35294
3.16514
1.86282
1.9823
2.28206
1.73689
3.38773
2.16155
2.50005
2.21331
2.49407
2.39615
2.20559
2.91147
0.790205
1.02107
2.92243
0.946926
3.27634
2.50412
2.85906
2.12558
0.974138
2.15675
2.74952
2.19284
1.06863
0.629952
2.17218
3.40176
2.51714
1.24356
2.54418
2.26573
2.18566
3.28666
1.11353
2.12472
2.4774
2.16814
2.74371
0.610966
0.859801
0.669075
0.880914
2.17927
1.09829
1.39453
2.15498
0.65464
2.89638
1.07788
2.70389
2.3252
2.76733
1.22411
1.22988
2.19799
2.24513
0.850831
0.937177
0.95075
2.62855
2.08667
1.34818
2.27808
2.42892
2.11131
2.08179
2.42379
2.39551
0.593055
0.871011
2.38721
2.46993
2.48399
2.62065
2.16998
2.55645
2.61321
2.59683
2.44076
2.27932
2.60108
2.60308
2.53986
2.0158
1.55641
2.56845
2.07389
3.01879
2.38879
2.62088
3.05734
2.53759
2.47211
2.4555
2.34397
2.18184
2.48948
2.98776
2.33804
2.26648
2.62844
2.51148
2.51647
2.59279
2.74735
2.44588
2.46532
1.28398
2.68102
2.19281
2.97984
0.723162
2.48829
1.52289
2.63322
1.04922
1.86089
2.99539
2.20703
1.96919
1.00046
0.556328
2.7638
2.48295
2.75028
2.51781
2.51696
2.38832
1.11896
2.45659
2.46912
1.78768
2.52986
2.88469
1.68301
2.34115
0.983921
2.23367
2.49153
2.36412
2.94222
0.869433
2.97062
2.73185
3.04836
3.04863
2.31318
1.84211
2.70866
2.36611
2.19375
2.5464
2.12226
2.40996
2.29092
2.54083
2.84571
0.778718
0.93245
1.9156
2.28678
3.06684
2.84586
1.41923
2.49468
1.0142
2.89861
3.12545
2.34962
0.689131
2.32317
1.02688
1.17394
2.35184
2.81865
2.57557
2.40425
0.581264
1.00866
2.92695
2.97133
2.26585
1.5313
2.32071
1.27966
2.22958
2.1664
1.05309
3.03754
1.0987
2.88283
2.7076
2.73593
2.44634
1.09638
2.43847
0.873735
2.4885
2.43061
2.32938
1.00213
1.79328
2.28327
0.67151
0.800596
1.70529
0.97421
1.51303
1.17684
1.92538
0.840063
2.17414
0.709229
2.15377
2.55836
1.52596
1.36539
2.14237
0.751594
2.23099
1.09147
1.60029
2.19753
0.844987
2.23264
2.65156
2.54437
0.770755
0.699725
0.882658
2.71608
2.11369
2.40443
2.22547
0.752858
3.06745
0.782474
2.2741
3.19776
2.40384
2.30012
2.69646
0.689354
2.36767
0.801908
1.05357
2.43908
2.73917
0.775811
2.31742
2.35926
1.42037
2.52666
2.46416
0.638644
2.66977
2.52008
2.15407
2.2342
2.88624
0.854284
2.40952
1.04996
2.80828
2.2878
2.12689
3.12275
1.44179
2.62265
2.0074
2.36232
0.614907
2.83348
0.668029
0.881086
0.994304
2.15966
3.01947
1.09414
2.1889
0.641023
0.836626
1.64283
2.42252
2.82802
2.66614
1.27178
2.26217
2.72337
0.813479
2.84473
1.90955
1.58027
2.24075
2.70872
0.886326
2.49082
0.984176
3.02396
2.87525
2.12679
0.834107
0.7047
2.43526
1.28076
2.37679
3.10763
1.01529
2.43625
0.571065
2.10969
3.02153
0.913073
2.82213
1.28982
1.08284
2.1426
1.04237
0.886276
2.63911
2.28779
1.13167
0.83507
0.784266
0.922371
0.900916
0.954877
0.906219
0.639749
0.933689
0.896851
0.955518
1.16759
1.1075
0.562794
2.10574
0.894939
2.93575
0.997176
2.92309
2.10339
2.12625
3.17764
2.53099
0.875124
0.931115
0.806771
0.740754
0.880456
0.624045
0.978913
0.986664
1.15845
2.30527
0.964177
2.11085
0.703877
1.02353
3.24455
2.13996
0.621074
1.02365
1.06253
1.06345
0.921975
0.843964
1.20185
0.682733
2.11853
1.18775
2.17714
2.10546
3.01986
3.10959
2.11258
2.82444
2.13697
1.75482
0.864514
0.927546
0.851968
2.73658
0.900673
3.24782
1.16235
1.02397
1.04447
1.07819
0.735401
2.409
1.06322
2.14102
2.26103
0.743297
0.892463
1.10211
2.14535
1.11583
0.92977
0.802008
0.880746
1.15335
0.955272
2.78351
0.848025
0.896386
0.955451
1.0001
3.37279
0.639883
0.575679
2.1474
0.92419
0.179142
0.17741
0.173156
0.167166
0.159984
0.151884
0.143189
0.134197
0.125248
0.179397
0.176906
0.172397
0.166413
0.159354
0.151561
0.143333
0.135021
0.127044
0.179427
0.176482
0.171811
0.165857
0.159
0.151563
0.143847
0.136195
0.128987
0.179625
0.176393
0.171598
0.165714
0.159103
0.152058
0.144864
0.13782
0.13123
0.180301
0.176865
0.171969
0.166185
0.159845
0.153209
0.146527
0.140036
0.133929
0.181716
0.178112
0.173136
0.16747
0.161408
0.155184
0.149001
0.14303
0.137383
0.18412
0.180363
0.175308
0.169761
0.163975
0.158155
0.152458
0.147006
0.141865
0.187817
0.183853
0.178691
0.173247
0.16772
0.162284
0.157051
0.152107
0.147497
0.193147
0.188756
0.183454
0.178091
0.172802
0.16772
0.162913
0.158423
0.154263
0.200053
0.195126
0.189723
0.184442
0.179369
0.174599
0.170163
0.166059
0.16223
0.208131
0.203001
0.197649
0.192465
0.187574
0.183054
0.178916
0.175121
0.171567
0.216959
0.21261
0.207477
0.202372
0.19759
0.193229
0.189297
0.185738
0.182461
0.228287
0.224582
0.219544
0.214394
0.209585
0.205249
0.201409
0.198008
0.194956
0.243537
0.239478
0.234128
0.228692
0.223666
0.219189
0.215294
0.211934
0.209017
0.263197
0.257502
0.251318
0.245312
0.23986
0.235065
0.230959
0.227489
0.224517
0.286672
0.278394
0.27099
0.26418
0.258119
0.252849
0.248396
0.244712
0.241686
0.311627
0.301552
0.292911
0.28519
0.278394
0.272527
0.267618
0.263636
0.260546
0.337808
0.326716
0.316996
0.308334
0.300714
0.294147
0.288675
0.284286
0.280943
0.365509
0.353944
0.343341
0.333741
0.325226
0.317858
0.311703
0.306775
0.30304
0.395223
0.383505
0.372165
0.361641
0.352183
0.343939
0.33701
0.331432
0.327213
0.42749
0.41578
0.403753
0.392307
0.381893
0.372748
0.365012
0.358746
0.353923
0.46296
0.451233
0.438416
0.426017
0.414672
0.404671
0.396171
0.389256
0.383856
0.502871
0.490389
0.476403
0.462981
0.450803
0.440104
0.431016
0.423636
0.417899
0.54925
0.533618
0.517719
0.503255
0.4905
0.479445
0.470135
0.462685
0.456983
0.604394
0.580395
0.561939
0.546698
0.533869
0.523019
0.514013
0.507
0.50105
0.281239
0.281057
0.281343
0.282091
0.283315
0.285013
0.287187
0.289821
0.292909
0.29642
0.30033
0.304606
0.309196
0.314057
0.319119
0.324316
0.329572
0.334804
0.339924
0.344845
0.349462
0.353672
0.35736
0.360378
0.362505
0.363623
0.363668
0.362737
0.360798
0.357674
0.353436
0.348233
0.342081
0.335092
0.327383
0.31907
0.31027
0.3011
0.29168
0.282132
0.272574
0.263128
0.253898
0.244984
0.236478
0.228457
0.220982
0.214109
0.207867
0.202279
0.197354
0.193083
0.189461
0.186463
0.184074
0.182266
0.181019
0.180308
0.180111
0.279545
0.279694
0.280262
0.281256
0.282679
0.284533
0.286816
0.289524
0.292645
0.296161
0.300046
0.304267
0.308783
0.313543
0.318489
0.323554
0.328664
0.333737
0.338687
0.343421
0.347845
0.35186
0.355363
0.358242
0.360369
0.361604
0.36181
0.360902
0.358849
0.355685
0.351501
0.346382
0.340388
0.333589
0.326071
0.317931
0.309276
0.300225
0.290896
0.281415
0.271904
0.262483
0.253263
0.244348
0.23583
0.227787
0.220281
0.213361
0.207057
0.201385
0.196356
0.191971
0.188218
0.18508
0.182533
0.180553
0.179114
0.178196
0.177763
0.274828
0.275022
0.275629
0.276659
0.278114
0.279995
0.2823
0.285021
0.288145
0.291652
0.295517
0.299708
0.304185
0.308897
0.313789
0.318796
0.323845
0.328856
0.333745
0.338421
0.342789
0.346749
0.350193
0.353005
0.355062
0.356238
0.356428
0.355558
0.353595
0.350552
0.346483
0.341461
0.33556
0.328856
0.321437
0.313399
0.304847
0.295893
0.286657
0.277261
0.267826
0.258472
0.249312
0.240449
0.231975
0.22397
0.216497
0.209602
0.203318
0.197662
0.19264
0.188246
0.184469
0.181291
0.178692
0.17665
0.175145
0.174158
0.173659
0.266922
0.267132
0.267753
0.268793
0.270254
0.272135
0.274433
0.277139
0.280239
0.283715
0.287541
0.291686
0.29611
0.300765
0.305597
0.310542
0.315528
0.320478
0.325306
0.329921
0.334227
0.338121
0.341495
0.344237
0.346233
0.34737
0.347553
0.346715
0.344822
0.341881
0.33793
0.333031
0.327253
0.320676
0.313389
0.305487
0.297075
0.288264
0.279171
0.269918
0.260624
0.251407
0.24238
0.233643
0.22529
0.217396
0.210024
0.20322
0.197016
0.19143
0.186467
0.182123
0.178386
0.17524
0.172665
0.170642
0.169147
0.168164
0.167664
0.256795
0.257025
0.257661
0.25871
0.260174
0.262052
0.26434
0.267031
0.27011
0.273557
0.277349
0.281453
0.285831
0.290436
0.295213
0.3001
0.305027
0.309914
0.314677
0.319224
0.323458
0.327276
0.330572
0.333238
0.335167
0.336261
0.336437
0.335634
0.333821
0.330995
0.327183
0.322434
0.316813
0.310397
0.303272
0.295535
0.28729
0.278647
0.269726
0.260645
0.251524
0.242479
0.23362
0.225049
0.216854
0.209113
0.201884
0.195215
0.189136
0.183664
0.178805
0.174555
0.1709
0.167825
0.165309
0.163333
0.161875
0.160919
0.160435
0.24462
0.244835
0.245456
0.246488
0.247935
0.249796
0.252066
0.254736
0.257793
0.261216
0.26498
0.269053
0.273396
0.277963
0.282697
0.287537
0.292411
0.297242
0.301942
0.306422
0.310586
0.314331
0.317555
0.320155
0.322031
0.323094
0.32327
0.322504
0.320766
0.318051
0.314377
0.309785
0.304335
0.298101
0.291167
0.283627
0.275583
0.267145
0.25843
0.249557
0.240644
0.231807
0.223154
0.214784
0.206786
0.199234
0.192188
0.185694
0.179782
0.174468
0.169758
0.165647
0.162121
0.159163
0.156754
0.154872
0.153497
0.152609
0.152181
0.23075
0.23093
0.231517
0.232516
0.233933
0.235766
0.238013
0.240663
0.243703
0.247111
0.250861
0.254919
0.259245
0.263792
0.268502
0.273314
0.278156
0.282948
0.287604
0.292034
0.296141
0.299828
0.302995
0.305547
0.307386
0.308432
0.308618
0.307896
0.306235
0.303625
0.300084
0.295645
0.290371
0.284331
0.277604
0.270283
0.262465
0.254257
0.245779
0.237148
0.228477
0.219879
0.21146
0.20332
0.195547
0.188215
0.181384
0.175098
0.169387
0.164267
0.159742
0.155807
0.152448
0.149647
0.147383
0.145632
0.144373
0.143588
0.143248
0.215273
0.215364
0.215868
0.216797
0.218157
0.219949
0.222169
0.224807
0.227848
0.231266
0.235034
0.239112
0.243455
0.248012
0.252729
0.257545
0.262392
0.267183
0.271835
0.276249
0.28033
0.283979
0.287112
0.289643
0.291468
0.292519
0.292732
0.292069
0.290486
0.287973
0.28455
0.28025
0.275143
0.269302
0.262788
0.255699
0.248129
0.240175
0.231969
0.223612
0.215216
0.206889
0.198733
0.190849
0.183329
0.176243
0.169659
0.163617
0.158144
0.153252
0.148946
0.145222
0.142065
0.139459
0.137381
0.135809
0.134718
0.134086
0.133883
0.19823
0.198148
0.198507
0.19933
0.200628
0.202398
0.204623
0.20727
0.210349
0.213867
0.217737
0.221909
0.226322
0.230911
0.235649
0.240475
0.245356
0.250245
0.254983
0.259431
0.263505
0.267125
0.27024
0.272762
0.274601
0.275686
0.275965
0.275393
0.2739
0.271457
0.268121
0.26394
0.258984
0.253342
0.24707
0.240187
0.232824
0.225196
0.217341
0.2093
0.201218
0.193207
0.185354
0.17775
0.170479
0.163653
0.157331
0.151597
0.146447
0.141837
0.137762
0.134242
0.131288
0.128887
0.127012
0.125647
0.12477
0.124352
0.124363
0.882933
0.826539
0.776369
0.728756
0.682511
0.637203
0.593007
0.550353
0.509693
0.471534
0.436953
0.406705
0.380975
0.359412
0.340943
0.325371
0.312905
0.303421
0.296461
0.291487
0.288011
0.285595
0.283825
0.282297
0.28054
0.842332
0.809096
0.76797
0.723997
0.679073
0.634099
0.589766
0.546765
0.50578
0.467557
0.432854
0.402156
0.375641
0.353219
0.33459
0.319466
0.307574
0.29858
0.292063
0.287545
0.28455
0.282647
0.281459
0.280656
0.279919
0.835991
0.801519
0.761363
0.718052
0.673209
0.627927
0.583136
0.539708
0.49846
0.460139
0.425337
0.394435
0.367622
0.344923
0.326212
0.311251
0.299686
0.291084
0.284972
0.28086
0.27827
0.276762
0.275948
0.275491
0.275107
0.837288
0.797994
0.755539
0.710949
0.665235
0.619298
0.574016
0.53026
0.488839
0.450445
0.415596
0.38463
0.357741
0.334992
0.316311
0.301473
0.290106
0.281745
0.275884
0.272015
0.269652
0.268353
0.267727
0.267436
0.267178
0.840385
0.7963
0.750616
0.703828
0.656593
0.60961
0.563637
0.519452
0.477785
0.439255
0.40433
0.373326
0.346434
0.323722
0.30512
0.290399
0.279179
0.270977
0.265268
0.261529
0.259266
0.258037
0.257456
0.2572
0.257011
0.843041
0.794634
0.745572
0.696288
0.647272
0.599062
0.552271
0.507564
0.465576
0.426857
0.391833
0.360805
0.33395
0.311323
0.292836
0.278241
0.267141
0.259043
0.253409
0.249706
0.247439
0.246168
0.245516
0.245178
0.244904
0.845241
0.792571
0.74005
0.688178
0.637304
0.587794
0.540104
0.494796
0.452419
0.41346
0.378315
0.34727
0.320484
0.297978
0.279636
0.26518
0.254194
0.246174
0.240571
0.236845
0.234497
0.233087
0.232244
0.231671
0.23116
0.847229
0.789807
0.733717
0.679297
0.626622
0.575827
0.527216
0.481253
0.438441
0.399205
0.36392
0.332868
0.306189
0.283842
0.265679
0.251387
0.240523
0.232571
0.226981
0.223204
0.220729
0.219112
0.217966
0.216979
0.215983
0.848454
0.785838
0.726266
0.669504
0.615204
0.56321
0.513708
0.467045
0.423755
0.38422
0.348761
0.317713
0.291207
0.269069
0.251131
0.237041
0.226311
0.218428
0.212863
0.20905
0.206441
0.204618
0.203089
0.201372
0.199491
3.33481
3.2989
3.26773
5.03873
0.164555
0.187817
1.36326
0.136879
3.23949
0.12731
2.60794
0.193148
1.61695
0.194713
1.60824
0.192706
2.79835
5.12971
0.116256
1.13579
0.948484
0.194414
3.0422
0.664569
0.124199
0.179637
0.122505
0.525757
3.31841
2.79985
0.123319
0.18618
4.51124
1.64144
2.77938
0.146997
1.63822
1.61252
1.83487
0.27466
4.29605
0.0596952
0.186354
1.22332
0.481863
0.223515
3.29122
3.97978
3.35893
4.05718
3.12159
4.14921
1.04796
5.343
1.33243
3.32774
0.184974
0.970566
0.14293
4.03721
0.165539
3.38398
0.164555
0.205996
0.139095
1.00387
0.195607
2.64732
1.69746
3.73553
3.52583
0.214723
0.134407
1.16026
0.145183
0.941626
1.22572
4.03393
0.177322
5.41133
1.53473
0.189096
0.154301
2.47596
0.159616
0.168901
0.129695
4.06825
4.5139
0.300084
0.485422
0.222549
0.134328
0.198669
0.142398
2.63554
0.182075
2.73375
0.127625
4.03751
0.338488
4.32603
0.363906
0.216513
0.136303
0.455142
3.22424
1.45899
0.0755114
2.82309
0.199529
0.105276
3.42808
0.212427
1.01865
3.35623
4.17647
0.255879
1.25205
0.152896
0.0193362
0.117965
0.691897
0.127613
4.53907
0.186659
4.16506
1.08242
0.154349
3.97995
0.153681
1.16206
3.70263
2.0048
0.640715
0.129691
0.491657
0.269484
0.165166
1.14572
0.183129
1.67386
4.03427
0.024355
3.32996
0.206372
4.7277
1.09656
0.191109
2.70121
0.555135
0.189774
4.83212
1.5462
0.148941
2.45162
0.125293
0.257166
1.30271
0.174489
0.18096
3.42581
0.184288
2.845
0.153395
2.76874
0.195151
0.118013
0.222881
0.128786
0.187693
0.212184
2.57325
2.59686
0.181797
0.494504
1.26677
3.5144
3.56067
0.185915
1.63295
0.182413
1.0872
1.52083
0.870484
0.124985
2.89829
0.0575767
4.1998
0.181036
4.03208
4.0377
3.45519
1.62495
1.56247
4.31798
0.139664
0.192444
3.34664
3.31908
1.96587
0.247977
0.182854
0.182991
0.485255
0.155886
0.204651
0.358138
3.44102
0.236402
0.136542
0.138523
1.68421
0.466249
0.651503
4.23035
0.149946
0.133126
0.249126
0.339813
0.29243
0.0688413
0.149914
3.51259
4.67259
4.21818
0.343647
2.83112
0.0796105
0.138405
2.351
0.148939
0.182418
0.157711
1.77991
0.136628
1.35738
0.38174
1.56496
1.58011
0.132708
0.165057
0.155732
0.762145
0.131699
0.132747
0.189087
0.517756
0.191451
0.157452
0.0732828
0.524944
0.164712
3.38369
0.171846
0.117688
3.25554
1.23839
1.31834
0.116495
2.04895
0.152617
0.165093
0.143
1.17489
0.131146
0.152596
4.5181
1.35355
0.118054
1.01343
3.44619
0.136659
0.130078
0.118375
4.43835
0.222264
3.03988
0.186448
4.06752
1.11101
0.571533
2.42112
0.22299
3.58103
0.17385
0.475589
5.45573
3.28754
4.03055
1.5664
0.188783
0.0481591
3.3713
2.18536
4.2699
4.20268
0.203035
0.178284
3.87357
4.06367
0.178373
0.356086
0.186802
4.22699
0.151382
0.942107
0.162297
1.14326
0.186534
0.21612
0.165758
4.35916
0.158034
0.134992
1.67998
3.56472
0.170185
0.126018
2.20219
1.31044
0.17832
0.389896
0.122657
0.131493
0.133103
4.14197
1.45654
0.196572
0.982662
0.151566
1.57154
0.26046
0.130063
4.13393
0.173845
0.149991
0.161198
0.0031669
2.2078
0.130365
0.22182
3.96669
0.161415
1.1774
0.150611
0.21145
0.158459
0.128757
3.08442
3.60613
0.135266
0.0997347
1.32859
3.42715
4.35521
2.24166
1.27593
0.157622
3.22422
3.48276
2.75453
0.158624
4.18832
0.0526037
0.12713
0.214421
3.76262
0.161945
4.15686
0.190876
1.5364
3.35807
4.12764
1.60848
0.135162
0.150143
0.149007
0.180543
0.134791
4.23598
0.204234
4.53727
1.35438
1.32412
2.21898
0.153303
1.13415
2.52442
4.03197
1.03577
0.155582
0.393544
4.36145
1.54865
0.120043
0.153232
4.4949
0.257563
3.33328
0.13399
0.18681
0.159736
3.83524
0.225765
0.00196612
1.45063
0.41275
1.80263
0.133457
3.76333
0.162228
3.87147
0.162487
0.17318
2.54743
3.37628
3.08958
0.22371
0.223774
0.155232
0.182193
0.320928
0.391142
0.219793
4.0597
0.00267535
0.413443
0.150167
0.184214
0.179092
0.118338
0.298501
0.182938
1.52424
0.209587
0.19902
0.0331733
0.159377
1.18988
0.169049
1.57843
3.47793
1.62086
1.74531
4.01014
0.42448
3.94794
0.139675
0.175354
4.12335
0.173727
0.181818
3.76124
0.163909
3.71228
3.0913
0.168795
0.535633
1.1185
0.191218
0.840091
3.68192
1.64146
4.06787
0.124979
0.138531
3.51381
0.16598
2.57049
0.486523
0.12474
2.74691
1.37792
0.129605
1.61755
0.273166
0.121865
1.12091
1.08331
0.663279
1.85308
0.017388
0.203748
2.4372
0.149825
0.186756
0.230216
3.64157
0.192849
1.54027
0.186738
0.145431
4.30045
0.159194
0.155136
1.54176
0.173091
0.140274
4.11051
0.183918
1.54024
0.162487
0.653709
1.25541
1.64684
0.180494
0.180474
1.43755
0.18947
0.173393
1.53789
0.183046
0.264411
0.123033
3.73891
4.32152
3.40516
0.135567
0.810153
0.135421
4.03103
1.13856
5.0483
1.69512
0.235101
4.06008
4.43543
0.159261
0.224288
0.503385
0.198469
4.19866
3.99981
0.15118
1.89557
0.186291
3.62781
3.37828
0.190826
2.20537
2.7706
0.189934
3.43156
0.118711
3.47122
0.167509
0.261256
0.173382
3.01674
1.70685
1.80204
0.155281
3.41496
3.39639
3.68405
0.144851
0.154715
1.45991
3.5238
0.154449
1.94576
0.18688
1.59547
2.70493
0.120991
0.793128
0.146334
0.186759
2.28419
4.40144
0.244116
1.6737
0.144944
0.167255
3.43544
3.27211
3.56479
0.288383
2.31696
1.16962
1.08825
0.244372
0.13693
0.144147
4.48252
0.184289
0.189543
2.21418
0.238672
0.231179
0.180302
0.202987
1.49892
0.165604
0.147832
1.60764
3.42371
0.153135
0.177993
3.97595
0.525145
0.0612377
0.414837
1.07577
0.173487
0.175207
0.152266
5.25584
0.175879
0.184376
1.81989
0.132815
0.219188
0.409388
1.01642
0.172331
0.20852
3.57133
0.216382
0.124523
0.176535
0.152459
0.23587
0.237402
4.03323
3.52285
0.483448
4.42958
0.221432
0.117292
0.122533
0.10643
0.207208
0.152251
1.03537
0.353884
0.151358
0.176337
1.44043
0.764182
0.23163
1.00001
0.188385
0.178712
0.142367
0.615952
1.85247
4.02809
1.50706
1.338
0.154115
0.125707
0.088139
0.240033
0.145931
3.29577
0.118339
0.958348
0.167488
3.62726
5.5911
2.5375
0.0164295
0.123257
0.142642
4.42012
4.00522
0.828378
1.05456
0.236129
0.120608
0.156447
4.05207
0.0384987
0.17447
1.9348
0.144013
0.195959
0.143214
0.134132
1.03147
0.456123
0.162701
0.154749
0.261248
0.148953
3.35856
3.61049
0.188019
1.49857
0.233507
2.6184
0.148273
0.157419
0.158579
0.174195
2.27984
0.169434
0.172966
0.142224
2.3631
0.17697
0.232765
0.208531
4.0233
1.52387
0.498333
4.01013
1.58281
3.72755
2.77974
0.117578
0.124308
0.124058
0.00408365
0.182519
1.11467
0.19901
0.143443
1.51153
0.129662
0.141116
0.772342
0.166401
0.162193
0.132722
0.503027
1.49334
4.35067
0.120291
3.64621
1.27769
3.47686
0.969059
4.40385
3.25429
4.25481
0.130117
0.187609
0.023454
2.11443
0.177229
2.1592
3.61042
0.149563
1.29597
1.66985
0.16458
0.134511
0.159942
3.40451
3.57058
0.14739
1.36859
1.5221
1.18273
3.82505
0.000232944
0.157708
0.714667
0.0308505
3.52078
1.85089
2.89108
1.52043
0.119501
1.52344
0.152546
0.0114128
0.807056
0.21852
0.294523
0.17573
0.186376
2.72497
0.187584
0.154079
0.181912
0.179462
2.93555
0.277149
4.07162
1.58372
0.185332
3.62499
0.210993
1.15555
0.178503
0.140337
0.19026
1.06424
0.597496
0.0351136
0.201618
3.13133
3.62169
1.24954
0.166936
1.12911
2.13055
1.45262
3.88407
1.91602
0.227571
0.168595
3.05702
0.119
0.131439
0.464656
4.32706
3.2453
0.18694
0.148071
4.04564
0.120987
3.45755
3.92092
0.194288
0.183671
3.06881
3.45767
3.50394
0.151899
0.169582
0.0972865
1.11189
1.65097
0.169397
0.123658
0.162007
1.24547
0.526331
1.41508
3.68395
0.119997
0.167747
4.41493
0.122323
1.07374
0.0841988
1.03521
0.195621
0.152395
2.1376
0.210327
0.152751
0.141634
0.562805
1.06419
4.10388
0.13872
0.165632
0.174709
1.64818
1.15149
3.44008
0.152644
1.87871
1.60199
8.23918e-05
0.135639
0.185881
2.36136
0.221035
1.20231
0.20298
0.00457873
1.51709
0.184013
5.21847
4.0248
1.07712
4.05364
4.02296
3.39729
0.123064
4.37949
1.70012
0.180989
1.34721
0.145615
0.1869
1.13384
0.168398
0.328845
0.980727
3.66466
0.470117
0.24968
4.38519
0.204564
0.1881
1.45215
3.52147
2.21502
0.142347
0.567553
4.00773
2.86273
2.18048
1.07141
4.03865
0.246968
0.126466
0.889752
3.50149
0.195604
3.88479
0.206427
3.88048
0.207584
1.12456
3.43651
0.0303943
0.17356
0.143815
3.79837
2.26257
3.7219
3.33956
0.244709
0.593542
0.767796
0.367494
3.57277
0.954175
0.158358
0.179463
0.169286
0.151969
1.15871
2.66852
0.0153868
3.77618
0.200862
1.36903
0.131024
0.142089
0.136509
4.03063
3.66781
0.49758
1.03188
0.1889
0.163445
1.55768
0.145707
2.21341
2.05862
4.38963
0.0992402
2.73659
1.55454
0.191199
0.232882
0.181008
4.4161
0.229712
0.30936
1.37123
1.48517
0.139585
0.395595
0.156842
0.206135
0.148614
0.163631
1.00357
0.14606
0.728555
3.66
1.1457
4.09875
0.18566
0.792903
0.909049
0.248194
3.32122
0.1734
0.2202
3.63757
0.200579
1.51074
0.232539
0.117229
3.41204
0.14049
3.11735
0.127024
1.32267
1.39848
4.20655
0.146439
1.28637
0.189753
2.8558
0.194914
3.94568
1.63322
1.74987
2.79601
0.411683
3.15962
0.165772
3.39692
0.200114
0.127315
0.232775
1.17137
1.60016
0.144808
0.141167
1.1468
0.165087
0.148847
0.14834
0.120619
0.194492
3.98286
0.219388
0.178285
1.50507
0.547747
3.38269
0.130811
0.162063
0.183545
3.73226
0.236988
0.186697
4.48559
4.03133
1.20379
0.173354
0.3917
0.989002
3.83327
0.15025
0.134932
0.250836
0.232412
0.198121
3.84974
4.03256
5.70125
0.997612
0.186232
1.56746
4.46631
0.465822
1.13533
0.194654
3.53237
2.66782
3.25124
0.161129
0.165209
0.405999
3.70143
0.247357
3.50537
0.366036
2.00999
3.70485
0.200206
0.298824
0.231798
0.128421
0.122629
2.21425
3.52458
0.118428
4.38236
0.195524
0.186254
0.14384
0.139247
1.07273
0.386354
1.16433
1.31698
0.152086
0.217337
3.37489
2.47123
0.159811
0.223823
0.209347
4.05194
5.58617
0.443994
4.06482
0.176862
0.125541
1.29695
0.15755
0.459265
1.57468
0.167134
0.12765
0.0383619
0.232955
1.51275
3.69865
1.2718
0.127455
0.422278
0.138084
4.36934
4.35313
0.159532
0.125108
1.30788
0.207294
0.149673
3.17572
3.43452
1.6471
0.13366
0.212725
0.734581
3.67863
0.244497
0.543813
3.57327
3.72811
0.00796114
0.176823
0.236486
0.203002
2.6331
1.17305
0.168091
1.42591
0.166167
0.175665
0.143396
1.02832
0.17962
3.34827
3.64157
4.32974
3.53424
2.20573
5.80737
0.188498
4.21714
1.11287
0.149507
1.9741
0.0212131
0.382536
0.171258
0.154134
0.152682
4.06594
0.131836
0.512612
1.5612
0.221529
0.652374
2.75479
3.23475
0.110452
3.49911
2.75411
0.222899
0.164592
0.517799
2.01918
0.430162
1.29184
3.64173
0.180399
0.149492
0.205663
1.42123
4.34616
0.202367
0.284061
0.120939
0.158599
0.182771
0.591181
0.126251
0.251215
0.283379
3.49421
0.141482
0.868227
2.90034
0.183686
0.502625
0.671675
4.05707
0.869027
3.36816
1.29218
0.185172
4.56732
3.57971
0.148225
0.942518
1.59894
0.154381
0.191873
0.185556
1.67003
0.189715
1.60174
0.137132
1.5685
4.00176
1.09316
3.47181
2.00646
0.175353
1.15927
1.26813
0.240402
0.222756
0.751261
2.6705
0.185953
1.05754
0.198286
0.234326
0.881445
0.306942
0.135891
0.159785
3.80614
1.13536
0.137095
0.228666
0.126438
0.172909
0.174283
3.39239
0.217115
1.89629
4.3235
1.05894
0.0119604
1.28194
3.36534
1.14643
3.63097
0.248527
2.08639
4.1618
4.02485
0.0721857
3.48757
0.150076
3.22844
5.6585
0.122489
1.66283
1.54482
4.04079
1.65159
0.470145
0.176739
1.33879
3.87314
4.35248
4.18041
0.235748
1.14396
0.130211
3.61245
0.482198
0.134871
0.176912
1.12028
0.155753
0.253014
1.14739
0.165973
3.3391
0.149085
0.171138
2.2621
1.30791
0.282649
1.1294
1.58092
0.24161
1.11223
4.61764
0.145511
0.587748
0.213483
3.85106
1.94682
0.128623
4.37257
0.137709
0.979127
4.61019
0.170626
0.17343
0.945908
1.03255
1.40191
0.165249
4.03456
0.255692
1.11419
4.15348
0.515194
0.229231
2.21779
0.210116
0.184691
0.0218102
1.36017
3.97638
0.161274
4.41044
0.783717
0.177172
1.61304
0.197075
0.159176
1.79283
0.20413
0.160285
4.19261
0.125844
0.178841
0.21272
3.984
3.65996
0.342878
0.138443
0.173425
1.81566
4.06612
0.154732
0.151715
0.451624
4.39976
0.152384
1.6521
1.79882
0.129193
1.06807
4.23491
0.151211
0.353971
0.151621
4.81331
0.141906
0.188789
0.268655
0.659564
3.81118
0.131972
4.2325
0.157557
2.67568
0.166484
1.55822
0.548214
1.17013
3.45841
0.237986
1.05853
0.236945
0.215821
0.214649
3.54106
3.66764
0.142943
0.155445
3.01543
0.217741
0.176128
0.149482
4.22854
4.02685
1.11491
4.27915
0.228754
0.12661
1.84425
0.824016
3.43989
0.119696
0.193558
0.132407
0.212723
0.158396
0.192439
0.162319
0.464512
4.53083
3.64535
0.1268
0.545382
1.07141
3.64928
0.170662
4.38767
3.64783
4.03768
0.19544
1.12125
0.160387
0.225016
0.176591
0.190931
0.117016
3.30173
4.51545
0.194737
0.474608
1.14495
0.926143
3.71906
3.9652
0.193531
0.157947
0.240716
0.42764
1.70651
0.155961
3.51687
1.18116
0.149748
0.262288
0.228286
0.766626
0.235614
0.177096
0.140868
0.142748
0.324186
1.16118
0.210147
4.28849
0.198852
0.188113
2.04738
0.244036
0.177293
4.12239
3.76587
0.182834
3.75722
0.123664
1.29108
0.20147
0.239339
0.150851
0.127003
3.61379
0.268689
0.220093
3.87046
3.27103
0.13758
0.136304
0.163672
0.225336
1.48702
0.00996407
0.179001
4.42721
0.163262
0.122694
0.206675
4.29756
0.171923
3.72202
3.56439
0.826278
3.74712
0.218272
0.12007
4.45899
4.0008
0.118715
0.0130161
1.08087
0.260724
0.246128
0.157521
1.60423
2.82495
0.199203
0.160571
3.709
0.150896
3.5236
2.14579
0.181609
0.964581
4.07654
0.123296
1.70488
0.143685
0.202197
0.229434
0.15969
4.02532
3.52259
0.17648
0.131196
4.03107
0.193119
0.235759
0.522898
1.44882
1.67603
0.12606
0.152217
0.128633
0.178778
0.122944
0.00484079
0.224747
0.224159
3.46929
1.12746
0.15617
2.1808
0.256501
1.21011
4.04936
1.18889
3.95881
2.78673
0.00843413
1.11547
0.230456
0.166395
3.38316
0.194073
4.32766
3.60881
1.33803
0.188003
3.52848
0.123918
3.93367
0.180539
0.233668
3.90775
0.552762
1.22077
0.190923
0.206626
0.160606
0.206895
1.54991
2.11142
0.151308
3.5179
0.673128
3.66462
0.193469
4.45804
0.18592
0.187279
0.990684
0.132608
1.00073
4.01835
1.08035
0.128396
3.84551
1.4197
4.51502
1.14354
0.747817
0.0867877
1.00248
4.00518
0.150864
0.172106
0.169727
4.19571
0.221711
0.248799
1.39111
1.08495
0.394697
4.33985
1.54644
0.456294
0.432914
1.38893
0.255431
1.04138
0.158019
0.146383
0.159362
3.64743
0.192631
1.54455
3.70816
0.121645
1.0805
3.16868
0.146794
2.58393
0.160371
1.01276
0.230011
0.134454
0.202672
0.135215
0.132651
0.267499
0.273751
0.204282
0.973068
3.65985
1.08117
0.176509
0.998598
0.145708
0.166934
0.188331
0.168051
0.19937
1.5798
0.205105
2.33766
3.82314
1.57595
1.23138
4.10915
0.215953
3.32872
0.168325
2.43958
0.188956
0.166392
0.369564
2.75762
0.325199
0.171726
0.143752
0.387852
0.257535
1.555
0.810651
2.10522
3.60856
0.165051
0.148152
4.47374
0.176473
0.188437
0.151446
0.302708
0.156403
0.130955
0.19998
0.231979
1.25071
3.8654
2.1989
0.266446
0.143508
1.08794
4.03726
3.5016
0.126017
0.178004
1.32063
0.158981
0.126729
0.246589
3.84197
0.948022
0.145626
0.181707
0.20464
0.132402
3.71072
0.241785
0.179127
0.180411
0.214007
3.56462
0.137754
1.55114
2.5003
0.22793
0.226008
0.153908
3.89065
0.511397
0.182141
4.26489
1.12667
1.14376
0.135886
0.186557
1.41857
4.48387
4.31502
0.097974
1.12535
0.140811
0.121062
3.4562
3.51214
0.124839
0.00308531
1.20112
1.49067
0.148127
0.120581
3.69908
0.156442
4.0643
0.438793
0.277028
4.41885
0.135985
0.153901
0.292941
3.57875
0.156125
0.126013
0.158848
0.171114
0.377295
0.240491
0.976114
0.939586
0.898308
0.172702
0.158665
0.146315
0.724876
0.190093
0.162804
1.06492
0.237134
0.213913
4.31199
3.98299
0.182357
0.14257
0.286747
3.52664
0.172312
1.18098
0.122009
0.126216
0.0355924
0.190615
0.138745
4.0711
0.18989
0.13416
3.66143
0.155506
1.42949
0.171486
0.15894
4.26492
4.08056
0.124733
3.63662
0.152476
1.26012
4.51459e-05
3.99043
0.16378
2.2386
0.171475
3.88267
0.816208
1.57783
2.90253
3.79981
0.167696
4.24745
0.153968
0.155584
0.0722694
3.89904
0.684141
0.13203
1.05731
2.45305
3.55847
0.237921
4.40021
0.2154
0.226713
0.147763
0.668588
0.468092
1.60309
0.170772
0.237087
0.137107
0.263001
0.230546
3.93418
0.162086
0.126599
3.98819
0.786752
0.120441
0.343423
4.01705
0.166814
0.162471
4.10424
0.241521
4.01485
1.39837
0.167969
0.640777
1.11198
0.0314185
0.224627
0.160572
0.128457
0.236693
0.304393
3.92952
0.125169
1.70046
0.38008
0.189752
3.84758
2.23564
0.189435
0.184377
0.118382
0.174106
0.121745
2.03419
3.3607
0.160916
0.185007
0.186041
1.45059
0.245018
1.03891
0.20166
0.174429
0.180068
0.200638
2.24554
0.235772
1.1647
1.3415
0.000918485
1.52333
0.160261
1.17477
0.702789
0.164665
0.178385
0.267292
0.167825
0.215307
1.47866
4.00951
4.31736
3.56589
1.07419
0.0300039
0.122109
1.50453
0.128358
1.456
4.07992
0.135957
2.5518
1.1502
2.42035
0.300507
0.127067
0.170416
0.149127
3.87826
0.161352
3.80688
1.95126
1.71345
0.14787
3.0248
1.3835
0.177481
0.193185
4.70498
0.214111
0.184308
0.919175
1.12539
0.170937
0.15695
2.77832
0.162826
1.30182
0.175504
0.183024
0.230166
3.50526
0.0316929
0.043697
0.159762
0.158632
0.380362
0.173184
4.03721
0.516901
0.0490525
0.188607
0.15276
1.09014
0.367528
0.11722
1.58096
3.95948
0.206612
1.21764
0.176296
3.62298
1.01143
0.47009
0.32965
0.186331
0.162333
0.131528
1.27592
0.723143
0.1272
0.421266
1.67247
3.9067
2.21406
1.22261
0.286994
0.144999
2.90727
0.226714
0.156628
0.155825
0.236719
1.17787
4.30972
0.222342
1.17251
0.156353
1.0681
3.13692
3.96513
4.17798
3.90954
4.19838
0.281409
0.63963
0.203107
0.988729
1.57114
0.156755
0.866421
0.126161
3.06423
0.160039
1.49416
4.19854
4.03604
0.190178
1.36759
0.584234
4.41929
3.97681
0.122287
0.146253
0.185055
0.131139
0.180913
1.54301
0.296217
0.0159509
1.30197
0.131023
0.17556
0.908598
0.218285
0.172041
1.20638
4.50227
0.601732
1.41059
0.162005
0.22088
0.18936
3.91699
1.28844
3.76362
0.183058
0.17006
0.221362
3.74
0.626884
0.846987
0.177683
4.21125
0.167447