/*--------------------------------*- C++ -*----------------------------------*\
  =========                 |
  \\      /  F ield         | OpenFOAM: The Open Source CFD Toolbox
   \\    /   O peration     | Website:  https://openfoam.org
    \\  /    A nd           | Version:  10
     \\/     M anipulation  |
\*---------------------------------------------------------------------------*/
FoamFile
{
    format      ascii;
    class       volScalarField;
    location    "1950";
    object      nut;
}
// * * * * * * * * * * * * * * * * * * * * * * * * * * * * * * * * * * * * * //

dimensions      [0 2 -1 0 0 0 0];

internalField   nonuniform List<scalar> 
10435
(
0.548703
0.554341
0.654587
0.558534
0.591709
0.675259
0.641528
0.624332
0.68576
0.687582
0.563868
0.572572
0.693737
0.582848
0.561798
0.615401
0.607626
0.707013
0.739433
0.553851
0.616292
0.57021
0.623843
0.641095
0.667069
0.898466
0.894322
0.67526
0.83229
0.698787
0.615636
0.567794
0.637039
0.808394
0.616823
0.517909
0.601935
0.885613
0.864587
0.704392
0.702574
0.641675
0.541821
0.55024
0.599655
0.669316
0.692575
0.648689
0.708907
0.58268
0.618785
0.626776
0.834928
0.887052
0.874711
0.815828
0.601702
0.861471
0.674468
0.629059
0.844862
0.547659
0.842557
0.613508
0.611114
0.662541
0.709467
0.753677
0.620072
0.626957
0.896649
0.909096
0.420899
0.647994
0.54636
0.433845
0.610658
0.633851
0.653044
0.569115
0.589922
0.560726
0.802946
0.876242
0.593229
0.493613
0.512817
0.54521
0.482896
0.523568
0.550297
0.554623
0.563517
0.490806
0.533435
0.496258
0.558177
0.503961
0.643265
0.56434
0.491365
0.616917
0.501423
0.542054
0.630002
0.554668
0.567652
0.586614
0.601722
0.562995
0.578618
0.604521
0.559666
0.560108
0.562328
0.566168
0.567158
0.510555
0.549094
0.564988
0.56941
0.365691
0.525181
0.431985
0.579376
0.865282
0.561792
0.362849
0.577776
0.972665
0.392533
0.575126
0.612891
0.581231
0.910913
0.672964
0.505379
0.562719
0.545575
0.562772
0.560119
0.607104
0.745061
0.588431
0.574066
0.452854
0.473326
0.634503
0.571972
0.579332
0.694974
0.593156
0.532834
0.584787
0.65594
0.780097
0.585314
0.537179
0.674757
0.569128
0.590302
0.597745
0.560013
0.581918
0.540365
0.578013
0.640154
0.569846
0.58641
0.589732
0.656627
0.48782
0.827201
0.458004
0.579736
0.564484
0.53488
0.641959
0.57576
0.826543
0.558808
0.65916
0.57359
0.837204
0.597182
0.547744
0.44285
0.627188
0.603191
0.605936
0.569904
0.770895
0.95842
0.529922
0.594163
0.622154
0.515093
0.476091
0.634862
0.606685
0.507618
0.825407
0.684737
0.831481
0.671931
0.569135
0.554427
0.566688
0.81933
0.577647
0.662939
0.634595
0.575967
0.579988
0.862049
0.538213
0.539289
0.730966
0.907155
0.61842
0.834801
0.649491
0.756464
0.430161
0.854276
0.612125
0.880837
0.462589
0.616484
0.406316
0.692262
0.624767
0.891118
0.590575
0.968799
0.633934
0.60766
0.893634
0.601437
0.635823
0.547507
0.837294
0.681399
0.842416
0.56422
0.662602
0.470153
0.623011
0.698933
0.559712
0.779762
0.514071
0.696002
0.580088
0.627027
0.597318
0.666335
0.631026
0.721997
0.759303
0.636185
0.639584
0.871943
0.59447
0.540477
0.682399
0.539879
0.62259
0.783152
0.57261
0.642641
0.630452
0.625396
0.671738
0.930227
0.567995
0.932625
0.583179
0.619067
0.638458
0.689243
0.575413
0.650574
0.459383
0.519434
0.711145
0.613968
0.867854
0.864274
0.818719
0.442437
0.571888
0.804558
0.62698
0.876244
0.891142
0.468847
0.544229
0.576883
0.641649
0.702145
0.596645
0.658478
0.741303
0.572038
0.515874
0.606977
0.587511
0.651863
0.852097
0.572424
0.84388
0.547606
0.625434
0.65346
0.858837
0.805915
0.597927
0.734311
0.571935
0.645848
0.837736
0.52596
0.738294
0.650935
0.683299
0.962716
0.666849
0.719845
0.912222
0.658802
0.783739
0.841043
0.651479
0.582791
0.822439
0.82466
0.740102
0.806524
0.800846
0.975308
0.851466
0.816228
0.833861
0.808451
0.770152
0.793125
0.992287
0.705278
0.667321
0.826553
0.675948
0.885627
0.675847
0.666954
0.728312
0.692294
0.634621
0.867487
0.838713
0.772523
0.885515
0.789296
0.746983
0.839908
0.975587
0.784957
0.578255
0.950643
0.683504
0.88013
0.982514
0.693053
0.756338
0.672097
0.912483
0.871831
0.941225
0.851159
0.918357
1.08141
0.866495
0.642739
0.772259
0.624201
0.684278
0.683917
0.690279
0.703201
0.666607
0.634474
0.407256
0.578438
0.845475
0.867597
0.658923
0.861694
0.694176
1.0521
0.829782
0.980912
0.792438
0.765593
0.628917
0.910791
0.630681
0.586733
0.623582
0.94083
1.0026
0.746531
1.03004
0.950386
0.805714
0.799488
0.727397
0.82527
0.663189
0.888604
0.918888
0.826023
0.768665
0.693741
0.578521
0.639002
0.783068
0.829458
4.62417
4.642
4.63955
4.62857
4.61943
4.62405
4.6605
4.75544
4.95182
4.10777
4.12096
4.12271
4.11705
4.11147
4.11595
4.14455
4.21665
4.35793
3.61891
3.62833
3.63106
3.62775
3.62354
3.62634
3.64703
3.69995
3.80276
3.16191
3.16853
3.17093
3.16844
3.1645
3.16522
3.17888
3.21621
3.28973
2.74253
2.74716
2.74884
2.74656
2.74263
2.74148
2.7494
2.77429
2.82543
2.36617
2.36948
2.37055
2.3684
2.36454
2.36217
2.36578
2.38086
2.41373
2.03654
2.03909
2.03977
2.03791
2.03447
2.03166
2.03253
2.04052
2.0592
1.75535
1.75743
1.75785
1.75641
1.7537
1.7512
1.75083
1.75457
1.76402
1.52209
1.52336
1.52342
1.52243
1.52065
1.51896
1.51845
1.52024
1.52507
1.33315
1.33306
1.3327
1.33219
1.33142
1.33075
1.33067
1.33172
1.33429
1.1821
1.18088
1.18044
1.18054
1.18078
1.18107
1.18149
1.18211
1.18291
1.06142
1.06082
1.06107
1.06197
1.06306
1.06406
1.06476
1.06492
1.06428
0.966942
0.968189
0.969585
0.971222
0.972838
0.974116
0.9747
0.974175
0.97205
0.896825
0.899443
0.901624
0.903542
0.905131
0.906116
0.906092
0.90454
0.90085
0.848687
0.851154
0.85314
0.854581
0.855467
0.855541
0.854367
0.851368
0.845927
0.818732
0.819476
0.820208
0.820388
0.819915
0.818505
0.815679
0.810764
0.802951
0.801623
0.800323
0.799162
0.797495
0.795138
0.79179
0.786948
0.779865
0.769529
0.793085
0.790167
0.786926
0.783052
0.778428
0.772799
0.765697
0.756392
0.74393
0.79071
0.78654
0.781197
0.774885
0.767692
0.759485
0.749889
0.738248
0.723711
0.79314
0.787861
0.780364
0.771407
0.761368
0.750301
0.737968
0.723805
0.706975
0.799666
0.793182
0.783336
0.771476
0.758305
0.744097
0.728795
0.712029
0.693182
0.810071
0.80198
0.789369
0.774251
0.757633
0.739991
0.721447
0.70185
0.680843
0.824739
0.814019
0.797893
0.779054
0.758667
0.73732
0.715249
0.69249
0.66896
0.84498
0.829081
0.80826
0.785224
0.760821
0.735616
0.709823
0.683552
0.657012
0.873518
0.846286
0.819503
0.792091
0.763625
0.734659
0.705177
0.675017
0.644484
3.35074
3.43412
3.52131
3.61178
3.70526
3.80123
3.89927
3.99874
4.09927
4.20021
4.30111
4.40155
4.50098
4.5991
4.69535
4.78939
4.88079
4.96913
5.05397
5.13494
5.21148
5.28312
5.34937
5.40965
5.46334
5.50998
5.5493
5.58144
5.60636
5.62386
5.63432
5.63842
5.6366
5.62963
5.61836
5.60379
5.58696
5.56892
5.55077
5.53358
5.51833
5.50596
5.49701
5.49175
5.49011
5.4915
5.49475
5.49838
5.50016
5.49773
5.48842
5.46961
5.43923
5.39539
5.33728
5.26464
5.17825
5.07933
4.97061
3.32785
3.41229
3.50006
3.59087
3.68439
3.78021
3.87792
3.97706
4.07716
4.17774
4.27834
4.3785
4.47778
4.57576
4.67201
4.76611
4.85764
4.94617
5.03126
5.11245
5.18927
5.26122
5.32782
5.38858
5.44299
5.49054
5.53085
5.56368
5.58901
5.60706
5.61825
5.62308
5.62209
5.61595
5.60545
5.5915
5.57513
5.55741
5.53945
5.52235
5.50713
5.49467
5.48559
5.48022
5.47848
5.47979
5.48307
5.48671
5.48864
5.48641
5.47744
5.45916
5.42929
5.38603
5.32831
5.25582
5.16912
5.06945
4.95913
3.29244
3.37471
3.46041
3.54929
3.64102
3.7352
3.83144
3.92929
4.02828
4.12796
4.22786
4.32754
4.42656
4.52447
4.62085
4.71527
4.80727
4.89643
4.98227
5.06431
5.14206
5.215
5.28263
5.34442
5.39985
5.44845
5.48987
5.52388
5.55045
5.56972
5.58203
5.58784
5.58771
5.58231
5.57243
5.55898
5.54297
5.52546
5.50758
5.49045
5.47511
5.46247
5.4532
5.44767
5.44584
5.44723
5.45079
5.45497
5.45774
5.45671
5.44927
5.43284
5.40513
5.36428
5.30914
5.23934
5.15535
5.05832
4.95052
3.23682
3.3166
3.39991
3.48651
3.57609
3.6683
3.76276
3.85905
3.95672
4.05535
4.15448
4.25366
4.35246
4.45042
4.5471
4.64204
4.7348
4.82489
4.91183
4.99509
5.07415
5.14848
5.21753
5.28077
5.33766
5.38776
5.43071
5.46628
5.49441
5.5152
5.52894
5.53604
5.53706
5.53265
5.52362
5.51085
5.49535
5.47822
5.4606
5.44362
5.42835
5.41575
5.40655
5.40117
5.39964
5.40151
5.40583
5.41109
5.4153
5.41608
5.41082
5.39692
5.37198
5.33409
5.28197
5.21516
5.134
5.03958
4.93411
3.16499
3.24197
3.3226
3.40669
3.49395
3.58407
3.6767
3.77143
3.86784
3.96552
4.06403
4.16291
4.26171
4.35999
4.45728
4.5531
4.64697
4.73837
4.82679
4.91167
4.99247
5.0686
5.13951
5.20463
5.26344
5.31548
5.36041
5.39799
5.42813
5.4509
5.46653
5.4754
5.47802
5.47505
5.46727
5.4556
5.44104
5.42469
5.40774
5.39134
5.37662
5.36458
5.35602
5.35141
5.35087
5.354
5.35991
5.36711
5.37364
5.37708
5.3748
5.36409
5.34247
5.30789
5.25896
5.1951
5.11658
5.02444
4.92085
3.0798
3.15366
3.2314
3.31282
3.3977
3.48574
3.5766
3.66991
3.76525
3.86222
3.96038
4.05927
4.15844
4.25741
4.3557
4.4528
4.5482
4.64136
4.73171
4.81869
4.90168
4.98011
5.05338
5.12091
5.18216
5.23668
5.28412
5.32423
5.3569
5.38216
5.40022
5.41141
5.41624
5.41534
5.40949
5.39959
5.38667
5.37186
5.35635
5.34136
5.32807
5.31754
5.31063
5.30792
5.30957
5.31526
5.32412
5.33469
5.34496
5.35244
5.35437
5.3479
5.33038
5.29961
5.25405
5.19302
5.11674
5.02623
4.9237
2.98559
3.05611
3.1308
3.20951
3.29203
3.37807
3.46734
3.55945
3.65401
3.7506
3.84878
3.94808
4.04804
4.14814
4.24789
4.34676
4.44418
4.53959
4.63239
4.72197
4.80772
4.889
4.96521
5.03575
5.10006
5.1577
5.20829
5.2516
5.28748
5.31595
5.33719
5.35152
5.35942
5.36152
5.3586
5.35156
5.34145
5.32939
5.31665
5.3045
5.29416
5.28679
5.28334
5.28448
5.29045
5.30098
5.31522
5.33163
5.3481
5.36198
5.37027
5.36986
5.35782
5.33169
5.28978
5.23128
5.1564
5.06623
4.96314
2.88736
2.95437
3.02594
3.10195
3.18222
3.26647
3.35439
3.44561
3.53973
3.63633
3.73494
3.83509
3.93628
4.03798
4.13966
4.24077
4.34072
4.4389
4.53468
4.62743
4.71651
4.80127
4.8811
4.95537
5.02348
5.085
5.13955
5.18692
5.22693
5.25961
5.28512
5.30376
5.31602
5.32253
5.32403
5.32155
5.31609
5.30877
5.30097
5.29399
5.28917
5.28777
5.29085
5.29924
5.31329
5.33273
5.35665
5.38333
5.41042
5.43498
5.45363
5.46275
5.45889
5.43913
5.40142
5.34485
5.26968
5.17729
5.0704
2.79334
2.8568
2.92535
2.99886
3.0771
3.15977
3.24657
3.33706
3.43097
3.52791
3.62725
3.72856
3.83133
3.93497
4.03898
4.14269
4.24555
4.34694
4.44611
4.54251
4.63551
4.7244
4.80864
4.88753
4.96028
5.0266
5.08611
5.13866
5.18407
5.22242
5.25394
5.27884
5.29745
5.31049
5.31871
5.32352
5.32591
5.32646
5.32703
5.32906
5.3341
5.34352
5.35843
5.38015
5.40926
5.44524
5.487
5.53187
5.57717
5.62021
5.65738
5.68399
5.69502
5.68639
5.65522
5.59982
5.52053
5.41956
5.3008
0.970897
0.94594
0.929242
0.915699
0.9035
0.892283
0.882499
0.875132
0.871608
0.873833
0.884157
0.904972
0.938539
0.98694
1.0525
1.13834
1.24731
1.3815
1.5422
1.73016
1.94594
2.19016
2.46381
2.76874
3.10838
0.921214
0.923644
0.918119
0.909532
0.899667
0.889576
0.880304
0.873126
0.869625
0.871742
0.881703
0.901862
0.93464
0.982525
1.04816
1.13434
1.2436
1.37791
1.53862
1.72651
1.94213
2.18614
2.4597
2.76497
3.10581
0.900866
0.906507
0.905365
0.900012
0.892215
0.883342
0.874726
0.867838
0.864379
0.866307
0.875815
0.895293
0.92731
0.974574
1.03987
1.12588
1.23495
1.36889
1.52889
1.71564
1.92957
2.17119
2.44149
2.74225
3.0765
0.886625
0.892285
0.892756
0.889192
0.882852
0.875
0.867002
0.860397
0.856933
0.858586
0.867564
0.886308
0.917481
0.96391
1.02843
1.11368
1.22186
1.35458
1.51284
1.69714
1.90772
2.1449
2.40945
2.70285
3.0277
0.873688
0.879223
0.880533
0.878099
0.872804
0.865737
0.858213
0.851773
0.848181
0.849431
0.857757
0.875648
0.905831
0.951184
1.01456
1.09852
1.20515
1.33587
1.49143
1.67211
1.87793
2.10901
2.36593
2.65003
2.96366
0.86092
0.8666
0.868674
0.867202
0.862774
0.856329
0.849128
0.842708
0.838842
0.839544
0.847082
0.863987
0.893024
0.937087
0.999007
1.08128
1.18584
1.31391
1.46601
1.64215
1.8421
2.06578
2.31358
2.5867
2.88733
0.847848
0.854179
0.85737
0.856995
0.853407
0.847471
0.840446
0.833896
0.829614
0.82963
0.836252
0.852046
0.879799
0.922407
0.982668
1.06299
1.16516
1.2902
1.43837
1.60941
1.80278
2.01815
2.25569
2.51651
2.80275
0.833488
0.842014
0.847116
0.848126
0.845384
0.839837
0.832836
0.826026
0.821224
0.820451
0.826061
0.840653
0.867019
0.908071
0.966578
1.04486
1.14456
1.2665
1.41068
1.57652
1.76316
1.96989
2.19659
2.4443
2.71497
0.818559
0.831137
0.83898
0.841515
0.839487
0.834131
0.826976
0.819846
0.814515
0.812915
0.817488
0.830841
0.855744
0.895209
0.952006
1.02835
1.12578
1.24494
1.38555
1.54673
1.72726
1.92593
2.14213
2.37733
2.63212
0.691025
0.69127
0.398568
0.619574
1.04499
0.903221
3.49792
1.21302
0.395423
3.67527
0.285921
0.45506
0.932445
0.534495
3.0835
3.49616
0.332335
0.632361
5.67739
1.92256
2.36145
4.44348
0.326306
0.268095
0.484746
1.32347
0.535393
0.580298
0.584286
0.323489
3.48283
1.54886
0.585437
1.16391
0.318966
1.91337
1.01892
3.06464
1.05155
0.599027
0.434424
0.166513
3.00007
0.617875
0.412519
5.36865
0.310175
0.347999
0.509081
0.654604
0.302079
0.422038
1.62585
0.639225
3.33949
0.405022
0.539454
1.99232
0.526515
0.390438
1.92766
0.406662
0.995012
4.18827
1.31105
0.688595
0.902004
0.442976
0.916221
0.590361
0.422582
4.9525
1.06686
2.06514
0.354048
2.34304
2.45762
0.371419
0.476784
0.648363
1.18871
1.98167
1.66903
0.264919
1.35319
1.73104
1.32713
0.378337
0.577397
0.597354
0.330166
0.794322
5.40931
0.460081
1.01276
0.28915
1.268
0.285827
0.310172
0.393048
0.694443
0.442597
0.692883
5.17981
0.532488
0.808554
0.338341
1.24837
0.165716
0.326704
4.26024
0.250117
0.362888
5.19716
1.72451
0.515672
0.491724
0.652823
1.15209
0.240321
0.100399
0.25288
0.25969
0.471606
0.570649
2.76261
0.425052
2.16869
0.494673
0.349077
1.49791
2.10696
0.574746
1.27814
0.691725
1.24957
0.376675
0.693139
2.39561
1.83883
5.30118
0.89679
0.387987
0.119572
0.55663
3.6798
0.603885
2.52061
3.4342
0.315631
1.03726
0.849453
0.605959
4.19821
0.289854
0.265877
0.741653
0.655479
2.83176
1.37015
3.06419
0.411244
3.53049
0.291395
4.26289
0.278248
0.533811
0.495333
4.06994
0.740296
0.538561
4.3722
0.436224
0.270679
1.0236
0.776704
2.11718
0.58436
0.446605
5.25215
1.72481
1.46678
1.48249
2.09012
0.78481
0.511885
0.283374
0.152793
0.64395
3.12699
0.364371
0.391299
0.582305
0.821009
3.69084
0.630986
0.344578
4.31651
0.537467
0.634491
0.861631
4.6935
1.96034
3.09177
1.74891
2.21265
0.839912
0.675683
0.514511
0.739217
0.514562
0.393123
1.58158
1.74038
0.74378
0.41397
0.816255
0.733714
5.20743
0.635647
0.578088
0.190153
0.277415
0.424275
0.592642
0.470725
0.453481
0.337177
0.164889
1.07234
0.261058
2.02147
1.311
0.745434
1.02357
3.08037
3.12039
0.567512
2.07372
4.34629
2.24539
1.81556
3.89359
0.709089
1.12596
1.67243
1.75348
0.567489
3.50025
2.88197
0.154213
0.795265
1.29539
0.524852
0.696062
0.498561
0.349356
2.5405
2.91264
5.48578
0.376215
0.509692
2.83598
0.2945
2.17824
0.451427
2.77417
0.581992
3.56369
0.539688
2.28375
0.582793
0.35182
0.629685
6.04484
0.578454
0.750338
0.370898
0.539518
0.388044
0.704365
0.924162
0.414545
5.36843
0.442571
2.55852
0.808071
0.649929
0.323916
0.360819
4.22467
3.69322
0.121347
0.324628
0.892684
0.422744
0.432122
0.885439
1.29633
0.420932
0.393975
3.20537
0.321797
3.12292
0.449529
3.57139
2.41827
1.23991
1.83395
2.18164
5.02533
5.59484
0.612998
0.485288
0.319728
0.737302
0.325542
1.23561
0.526548
0.830147
2.83537
2.63088
0.276804
3.49507
1.37535
0.485042
0.494269
1.29508
0.928594
1.97803
4.22608
3.56995
0.571451
3.54149
0.393686
1.75069
2.32645
1.78608
0.0465653
0.393083
0.380367
0.483621
0.407175
5.61214
2.22687
0.789328
0.749017
0.706516
1.10993
0.292498
0.594456
5.25488
0.185892
2.94987
0.32932
0.571043
0.672156
0.597617
3.72899
0.296754
0.522638
0.310476
2.15628
0.474983
0.169392
1.15385
4.06939
0.340954
2.78244
0.657015
5.4655
4.15077
0.601792
0.468867
0.939477
0.371926
0.253649
5.10763
1.05396
3.02406
0.440335
4.12495
0.573903
0.62148
0.604013
0.782517
4.47054
1.94306
0.288278
0.363535
3.11895
2.33101
0.616283
0.585318
1.8351
4.62022
3.49976
0.59287
0.648562
0.583532
1.27312
3.22467
1.27756
0.683455
0.48811
0.107513
3.15096
0.59491
0.566179
2.19399
0.603815
2.74291
0.419055
2.3297
2.26602
0.417994
0.489059
0.293284
0.702111
0.775192
4.50485
1.10326
0.542119
0.674671
4.21229
0.378205
0.0325572
0.32431
1.50113
1.6691
3.03615
0.529575
0.629376
0.479523
4.08841
4.0023
4.29948
0.0845959
0.768844
0.26268
1.57574
4.34177
0.336437
0.577698
0.91534
0.469796
0.578261
0.556917
0.497846
0.472171
0.472502
2.85233
3.45388
0.427203
5.59878
0.600422
0.290601
1.97031
0.309159
2.32648
3.78323
0.806685
0.604104
1.54258
0.386544
1.18229
0.674672
0.417901
1.68362
0.293552
0.601644
1.0621
0.311273
0.287651
0.507375
1.05536
0.701349
0.781751
2.55142
2.48974
0.873808
1.36055
0.131465
0.466464
0.264039
1.20207
2.28664
4.9825
0.649453
5.13423
3.61028
3.6058
0.262108
0.593524
2.69772
0.658354
3.48436
2.71192
4.56175
0.651075
3.0697
4.1101
2.60852
0.675475
2.03479
1.27047
3.02978
3.15269
3.28453
1.58961
4.21857
1.30973
1.00449
0.702917
0.448961
0.340022
0.468199
0.47875
0.337317
2.60952
5.90724
0.361906
1.90933
0.547721
1.10629
5.20914
0.380709
0.469102
1.99094
4.59014
0.761572
5.22878
0.554325
0.493925
0.231513
0.577947
3.31912
0.444259
0.531075
3.71199
0.853149
0.325333
4.29799
0.350244
0.207137
0.430169
2.9462
0.564346
2.78251
0.367015
1.16412
1.50776
0.492807
0.525949
0.485468
0.333787
0.283005
5.68151
0.983428
0.500796
1.40303
1.38346
3.3626
0.987523
0.318506
4.39342
2.44175
0.49963
1.6387
0.406941
0.595985
5.19886
2.42312
0.67856
0.896547
0.365671
0.302192
0.501212
0.586545
0.412735
1.91797
1.4534
4.63676
5.87016
1.19029
0.594303
4.1962
0.869852
0.630396
4.67505
0.865788
1.34731
4.13066
3.9128
5.59372
0.519787
1.09038
0.474257
1.1292
1.57117
0.407538
0.562644
0.191948
0.304095
2.19654
0.738288
2.48228
1.522
0.63946
2.62589
3.21118
1.19225
1.67815
4.03984
0.779609
1.85529
0.449441
0.769928
0.438807
4.46985
1.08696
2.62528
5.66667
0.999779
0.500469
0.395548
0.310584
0.584132
0.608485
0.492574
0.495212
0.941759
0.333484
3.72529
0.243667
1.99974
0.442247
0.267315
0.764552
3.48932
2.30919
0.520045
0.675836
4.12368
0.943154
1.14154
0.286718
0.5782
0.397848
3.93017
3.00113
0.233645
3.95981
0.169988
5.22641
1.70152
0.303927
5.66228
2.48817
2.24312
0.487378
0.656802
0.279446
0.0767398
1.01275
1.03742
0.469722
0.552315
0.697358
1.57408
0.499691
6.04705
1.2396
0.394795
0.15649
2.0955
1.43185
1.88512
5.44717
2.34694
0.34424
1.76244
0.251315
1.63322
2.57819
0.514288
4.94948
0.559143
0.364927
1.65588
3.04826
0.618588
0.294178
1.24297
5.65975
2.91827
1.08522
0.614504
2.57602
4.40821
0.535127
0.410025
0.803695
5.03602
5.17536
0.374572
3.29165
0.722978
0.35639
3.37689
0.656599
0.317161
6.01498
0.782171
1.10107
0.126841
3.47801
0.690332
3.47137
1.96345
0.9692
5.95536
1.80555
0.352389
2.95291
1.24237
1.48366
0.623785
1.38176
0.452978
5.78744
0.447662
3.64159
0.583834
2.47795
0.45575
0.320633
0.557095
0.550819
3.34287
0.117261
0.379323
3.28293
0.831117
0.678837
5.727
2.7024
0.576372
0.428214
1.42494
2.54826
0.303895
0.447346
2.19102
3.81103
4.04221
1.3305
0.461414
0.0581146
2.72456
0.428421
0.154975
0.692851
0.568293
0.319162
4.03181
0.50579
4.06019
0.237312
0.137346
0.735976
0.882922
0.693116
1.27788
3.00803
0.475456
3.30086
0.625187
3.19596
3.37232
0.48487
0.580195
0.398443
3.18883
4.3749
0.59372
4.30972
1.90685
1.28788
5.79283
5.4634
2.37544
0.697776
0.172487
5.19521
0.296493
0.45533
2.82791
2.35096
2.54593
0.902542
3.59556
0.456825
1.45209
0.519073
5.55997
0.325072
0.271348
1.18633
0.366677
0.636154
0.398638
1.23485
1.67156
0.641489
0.88238
0.429892
0.591679
5.20482
1.22705
0.373222
0.624475
0.68599
3.99377
1.32708
0.302659
2.50481
1.13952
3.08687
0.986972
0.657635
2.82288
0.17698
0.318494
0.701406
5.90768
2.89864
0.496849
5.75295
2.03081
0.228172
2.3973
1.05041
0.258567
0.873206
4.89341
5.68246
4.32371
0.824287
2.1228
0.385681
1.02255
1.77365
3.22042
2.61651
1.87185
0.423584
0.246925
0.921081
3.24054
8.76944e-05
0.399771
0.628641
0.260044
0.826705
2.18267
3.76108
0.0479648
2.5994
3.27397
0.546021
0.53421
2.50279
0.392268
0.377375
0.305577
5.60484
0.622672
2.20233
5.50208
3.24874
2.06229
0.617737
2.25428
2.60372
0.628426
2.4743
0.449447
0.164058
0.195559
0.629035
0.533098
3.10448
3.45351
0.617256
0.737132
5.81665
0.309371
0.354979
0.318262
0.93104
1.87548
0.677117
0.988065
0.548797
2.55907
0.456056
0.907998
0.571672
0.923589
0.587133
3.82528
1.98833
0.687419
0.0974699
0.681824
5.79773
0.423415
0.599019
0.460494
0.530977
4.96619
0.567069
2.53287
0.52518
0.682788
2.07469
2.21793
2.94741
2.77117
0.243001
2.574
0.29711
0.196309
0.428861
5.43138
3.19653
5.94843
1.77677
1.058
0.49376
0.496262
0.568401
2.30544
1.45622
0.564054
4.09667
1.64616
0.717899
1.19391
0.510451
0.231808
0.450844
4.19469
3.36365
4.46664
1.85846
0.509723
0.71902
0.684432
3.2304
3.20366
0.652794
0.436037
1.34238
4.99114
0.639945
0.728309
2.05496
0.896061
0.27688
0.435566
1.91507
0.5068
3.56767
0.270846
1.80997
0.209997
0.559958
0.89686
0.645628
0.38328
3.6582
0.323968
0.890695
0.532168
0.516215
2.83029
0.491705
0.409127
3.64801
3.86867
0.504438
0.273007
2.91315
1.49978
0.469506
3.59815
0.42088
1.91864
0.339183
0.328508
0.168141
0.298569
2.81799
0.540685
1.29282
1.14767
0.710884
2.12157
3.22683
0.222284
5.8203
2.20438
1.42852
5.70318
0.264544
0.359553
3.82424
0.352091
4.0835
3.3612
3.95771
0.762347
0.304455
0.237833
5.62059
1.06084
0.522742
4.39774
0.661166
0.485409
0.545518
0.610264
1.1604
0.469127
3.00798
0.42577
3.95646
5.86359
0.682049
4.32665
0.811732
0.571147
0.366652
0.641339
2.46704
1.36951
4.18566
0.52395
0.742954
2.3801
3.45006
0.608983
0.306323
0.299796
2.40189
2.58463
0.790079
0.470933
4.94752
0.436827
0.424033
0.380906
0.616425
0.486131
0.54063
0.731246
4.22224
3.73724
0.383288
0.63791
5.94029
0.623997
1.04276
1.32754
0.904224
2.4874
1.64761
0.160394
1.95413
2.0816
1.26393
4.20421
0.543248
0.273637
1.97418
0.612964
5.06429
0.593051
0.653067
0.783407
0.391255
1.23639
5.55565
1.13475
2.41134
1.61223
4.03887
2.06809
1.21791
0.177468
0.562977
1.99273
0.466952
2.85986
5.84663
0.75433
1.96126
0.477905
0.456053
3.75291
5.21949
2.75802
0.932429
0.624132
0.599491
0.610768
0.321971
4.02907
0.169084
0.65625
0.687934
0.504298
0.172943
0.703585
0.434462
0.129886
1.43551
0.500459
5.42486
0.449628
1.30779
3.04162
3.4774
2.52752
5.533
1.69522
1.87509
0.976739
0.332761
0.609864
0.496194
0.705374
0.787018
0.606695
1.63932
0.456496
1.67672
1.41078
0.36159
0.214101
0.76377
2.89501
2.40273
0.246659
0.569152
0.3956
0.727004
4.06428
0.633931
0.284801
0.460149
0.298534
0.224176
0.339344
0.289601
0.708167
0.786468
0.328105
0.37044
0.389156
2.96498
0.452831
5.50947
0.257322
0.916887
2.67707
0.462173
3.60837
0.594901
0.539842
1.99077
1.46639
0.647928
4.75721
0.682138
0.501054
0.534502
4.89813
0.268004
0.351743
3.30674
0.42291
0.27655
0.535306
0.272234
0.518661
1.09489
3.53557
0.512144
0.448164
1.59203
2.02974
3.00959
3.60262
2.10137
5.48672
2.38944
1.5875
1.0057
5.80794
4.04045
0.670924
2.16124
0.547723
0.365274
1.85243
2.26432
2.88168
0.843064
4.86482
0.201086
0.302832
5.48182
0.276233
0.221188
5.16626
2.61878
0.162454
0.890503
1.84317
0.454784
2.20092
2.35846
5.32305
2.89128
2.50752
2.95778
0.615144
5.35515
0.570608
0.643065
2.35782
0.10734
2.83573
0.609414
1.87837
0.622691
0.512486
1.04617
0.453771
0.401145
0.241856
0.46507
3.76636
0.392032
0.655729
6.02321
0.96407
3.17985
0.368862
1.39517
0.726428
3.13608
3.64713
0.571756
0.594092
0.448542
4.87038
1.88743
5.83666
0.469068
1.6108
0.55718
3.1174
2.07289
0.249261
1.09325
1.7962
2.42657
0.515936
0.299627
4.09543
0.640573
3.69715
0.620663
1.42544
3.58259
4.85202
1.93059
0.619173
5.77148
0.778965
0.48667
0.669713
0.931675
0.477954
0.445589
5.85068
2.17258
0.615071
5.56007
0.824169
2.28601
2.01404
3.30151
0.602226
0.367972
0.508062
1.83559
0.397234
1.03864
4.87423
0.812043
4.39882
2.42742
0.109017
3.15323
0.576323
2.2039
0.576576
0.268227
3.0752
0.676548
4.1242
0.417807
0.933026
5.41228
2.77279
0.571895
0.266398
4.41621
5.39661
0.683357
0.50967
0.515451
3.83744
0.808674
0.974129
0.377966
2.35007
0.527257
0.770961
0.542091
0.55656
0.574041
0.906181
1.23743
1.80212
0.452738
2.32914
0.612928
2.77033
0.634791
1.58835
1.96343
0.812748
0.645224
0.542593
0.244314
0.534448
0.281331
0.285985
4.35808
2.44555
0.775391
1.95445
0.536218
0.713678
0.531246
4.52563
4.71987
4.02879
0.466636
0.438053
5.78545
4.10503
0.491539
4.92085
0.435311
0.344366
0.419245
0.402368
2.27303
0.508427
5.08498
1.27614
1.03763
0.253386
0.549094
0.378689
1.89465
0.560952
0.816124
2.34583
0.931143
2.0043
0.593548
0.503322
0.475926
5.96843
0.3324
2.49412
0.432538
3.12913
0.489663
0.680872
0.393541
5.0681
2.24323
1.44234
5.28153
5.29305
1.78912
5.33683
0.605913
0.535615
5.4428
0.692742
1.7941
0.270649
0.564301
0.343711
0.915288
0.491786
0.712746
0.740155
1.3055
0.382461
0.518543
0.673544
5.35819
0.643922
4.62762
0.727421
4.67835
0.81724
5.25474
1.40564
0.514557
1.72178
5.39933
0.494198
3.50277
3.67226
0.370574
0.626641
2.10534
0.504424
0.563793
3.47478
0.51558
4.71753
2.90377
4.99309
4.93749
2.36675
1.34514
0.455172
0.594091
4.5034
0.550148
0.594831
1.96162
3.78973
1.81126
4.94589
4.00096
0.178614
3.28058
0.542915
2.12449
5.27363
4.91051
0.632408
2.56038
0.491847
0.596289
0.211029
0.476369
4.81065
0.390185
0.475083
0.59111
6.01107
0.0703302
1.57573
0.70829
4.90556
0.317866
2.80178
0.332951
0.748548
0.783423
0.430538
5.71997
0.589006
0.9145
4.11722
2.60275
0.380666
3.43985
1.19515
5.15451
3.78301
5.13852
2.61054
0.565121
0.451228
4.11565
3.96754
0.461832
4.06473
4.59211
0.227063
0.593692
0.686489
1.17298
1.07397
4.50965
2.48106
1.02134
0.0874817
0.612941
5.31371
0.376459
1.47112
1.41928
0.806229
0.807283
2.72786
0.37135
2.11966
0.410794
0.439674
0.0980262
1.60346
5.22852
4.01694
0.508749
3.61614
0.48037
0.512307
1.0666
5.11956
0.311195
0.928415
0.433655
0.810627
0.524311
0.543943
0.743812
2.75721
3.7998
0.697157
0.48279
5.12367
3.69415
0.575506
5.15675
0.702967
0.801387
0.538243
0.483126
0.480838
4.06222
1.17056
0.276554
5.76288
2.00165
0.399784
2.4174
1.04553
0.693175
3.48352
0.597128
1.85058
1.09973
0.26062
2.45204
0.411999
1.47817
0.622097
0.852344
0.522669
0.48132
0.252597
3.34504
2.15515
0.532924
0.442033
1.46442
0.392931
0.691775
3.32926
0.668201
2.45676
0.640834
4.88202
2.73125
0.386404
1.28447
0.582791
0.520269
0.418183
3.20391
0.368904
5.33526
0.280288
2.47765
2.4681
4.52008
0.440876
3.57477
3.41899
0.213943
0.626242
0.572784
0.724983
0.232907
0.594019
2.30466
2.95132
2.45476
1.24722
2.70639
1.23788
4.16651
3.6723
4.11472
0.246361
0.597989
0.57665
3.94126
2.42268
0.562241
4.8393
0.330032
2.74749
0.441937
3.98824
0.385809
0.460642
0.279451
0.4855
1.5532
1.50484
0.750702
0.549821
3.89637
2.57483
0.586574
0.659819
2.93364
2.13355
0.602707
1.05623
1.4182
0.248579
0.671933
1.38529
2.39679
5.07037
0.252913
3.0554
0.554211
0.827306
0.633002
2.50231
2.12057
0.396567
0.469554
0.962298
3.35627
0.593484
2.26691
1.02444
0.61641
0.42061
2.6655
2.1626
2.41115
4.20717
0.523062
0.535548
0.501062
4.22646
2.14642
0.7999
0.472375
4.65755
4.20629
0.406527
0.690968
0.492733
1.01887
0.431181
1.25622
0.977745
0.460873
2.46814
0.554343
0.763256
2.52926
3.28235
0.497509
0.436485
0.26475
2.14973
4.12011
6.06721
0.373099
0.458444
0.406453
0.123613
2.95193
4.05286
2.03851
0.871803
0.443941
2.57319
0.54568
0.359043
0.593273
0.589523
4.34338
3.82063
0.508953
0.703198
1.47148
1.27025
0.952137
5.55739
1.54477
0.82358
2.05908
1.68096
2.75576
5.19773
5.17377
1.61037
0.196393
3.87605
2.52532
2.25627
0.73169
0.920359
0.587637
0.607745
1.05202
0.389576
0.496869
0.34549
1.46545
2.66261
0.2176
5.78029
0.125105
4.02664
4.99199
0.381474
4.56352
1.00208
0.548283
1.65061
3.54844
2.88824
2.55773
0.630466
0.578558
0.951617
0.459905
2.59116
2.86457
0.0148235
0.680193
0.622531
0.594364
3.00073
0.457525
0.651142
2.26345
0.284842
0.332072
0.616542
0.498234
0.247216
0.359572
0.292043
0.442017
0.24475
0.68968
2.39621
0.268798
0.633532
5.1469
0.485445
0.490126
4.43967
1.83445
2.02896
0.265484
4.42645
3.33434
0.718521
3.48452
0.20399
4.83351
0.682675
2.15813
5.38116
0.354018
2.26791
0.825991
0.547975
0.405583
5.28209
3.90624
0.452548
4.80285
0.504994
3.21934
2.57524
0.810632
2.08213
0.165215
4.83118
1.67092
0.974244
4.82751
0.543647
0.583852
1.18101
1.43008
0.526002
0.596717
0.436127
0.57367
0.542071
1.23426
0.430343
0.782835
0.936883
0.849913
0.650137
2.2751
2.80068
3.59737
2.71408
0.738849
1.6336
1.36761
0.591825
5.50506
5.42787
0.588483
0.661771
1.63536
3.0814
0.0348909
3.42829
5.58052
2.62398
2.17853
2.72323
2.55864
0.827905
0.746433
4.56712
2.90569
0.458469
0.619524
0.458745
2.34823
0.0986637
0.916859
2.6602
1.44737
3.99421
0.381117
4.57012
0.272984
2.5814
0.262135
0.524347
1.31588
3.11939
1.88834
0.685338
1.89252
0.526017
0.359244
0.330217
0.463294
0.293547
3.11974
2.87864
0.209265
0.603673
4.58445
2.66578
2.82981
2.48494
0.753235
0.258535
0.286628
1.9381
2.99306
5.53502
3.45919
5.26612
0.507599
0.118528
0.168357
2.19291
1.85875
0.559264
0.723682
0.406013
0.709293
0.158434
4.41572
0.24316
2.43085
0.563607
0.533423
4.04174
0.42323
0.602978
2.71758
1.40915
0.437977
2.46219
0.320316
0.549752
2.66166
0.557455
0.938846
1.18146
0.929938
3.14749
0.481547
2.44792
0.576319
0.762637
2.39891
0.884319
5.76556
0.316499
0.603354
2.52611
1.08076
4.43735
2.01876
0.435262
4.70799
2.54076
5.65844
2.45558
0.382988
0.411983
0.561337
0.417895
0.578528
0.538959
0.224402
0.63402
2.44424
3.81216
0.661582
2.30633
1.02295
0.29987
3.94086
2.43393
0.524897
0.400592
0.589265
3.14724
0.549981
0.60487
0.430716
0.425442
0.377044
1.05655
4.52823
1.08318
2.9224
0.41989
0.0934285
2.94842
0.996221
0.622464
0.671545
4.28642
5.54414
2.71591
0.493511
0.547026
3.17311
1.29119
0.82723
1.32686
0.447444
2.83277
0.500811
2.49886
2.37398
4.74199
0.437174
0.560972
2.38409
3.17659
0.415017
0.623735
0.479084
1.20325
0.132971
0.226714
0.687415
0.581004
3.07933
5.49326
0.443215
4.02157
2.06169
0.289145
1.81017
2.77339
3.10962
0.468401
4.12906
4.98971
0.275799
5.93079
1.75998
3.28423
0.244587
2.19617
4.11754
3.29851
0.861636
5.88682
2.47064
0.526239
2.49987
5.26702
0.477158
3.71063
0.249356
3.84087
0.507907
2.47728
0.381512
0.601683
5.66246
0.63711
3.2946
2.81997
2.07441
0.587
0.273444
0.725369
2.65042
0.296074
0.291664
2.10986
0.250658
0.823563
0.39235
0.467786
0.640538
0.795704
4.94362
1.33484
0.724304