/*--------------------------------*- C++ -*----------------------------------*\
  =========                 |
  \\      /  F ield         | OpenFOAM: The Open Source CFD Toolbox
   \\    /   O peration     | Website:  https://openfoam.org
    \\  /    A nd           | Version:  10
     \\/     M anipulation  |
\*---------------------------------------------------------------------------*/
FoamFile
{
    format      ascii;
    class       volScalarField;
    location    "1950";
    object      p;
}
// * * * * * * * * * * * * * * * * * * * * * * * * * * * * * * * * * * * * * //

dimensions      [0 2 -2 0 0 0 0];

internalField   nonuniform List<scalar> 
10435
(
-0.00100343
-3.40799
-11.7385
-4.91698
-10.1739
-12.5493
-11.6286
-11.8965
-12.3776
-11.3403
-5.79504
-8.58087
-11.1492
3.80439
3.55436
-11.629
3.92416
-11.113
-12.3755
-0.790274
-11.3292
-4.17978
-11.3141
-9.95108
-12.1701
3.97419
4.02424
-11.2323
3.56547
-12.1238
-11.6662
-6.84799
-11.8958
3.86755
-11.38
0.0229007
-11.2688
2.97024
4.39875
-11.4031
-12.9954
-10.7072
4.36789
-3.04248
-11.3324
-10.8116
-12.0883
4.12307
-12.5086
-3.90066
-11.6995
-11.6775
3.97684
3.33119
4.60616
3.34383
-10.9325
3.71125
3.93499
-11.0643
4.10427
-2.23813
3.88229
-11.0476
-11.4485
-11.5117
3.94606
3.87859
-11.5895
-9.08003
3.79935
3.43432
4.8362
-11.4078
3.1741
4.34433
-8.06197
-11.4732
-12.2535
3.21139
-5.61281
0.862065
4.08538
3.61304
-6.46055
1.04309
0.306888
-3.5969
2.6333
-0.654379
-4.60566
-5.74494
0.123343
1.92613
-1.60646
1.04853
-6.48921
3.39977
4.20102
-8.05486
2.62069
-11.593
1.17771
-2.59069
-11.7765
-3.99712
-0.632301
-4.7062
-7.25635
2.77344
-3.08394
-10.8966
1.58757
2.16299
-7.27106
-3.31917
-8.56644
0.0964196
-4.16417
-7.76246
-8.77185
4.69077
-0.933961
3.08527
-8.55105
4.06707
-7.16683
4.33179
-9.63805
3.08339
3.85978
-7.43249
-11.6417
3.54668
3.58742
4.46143
1.26822
-5.66913
-3.06511
-2.45457
-1.61731
-11.4518
4.00975
-10.7036
-4.95824
3.82734
2.31418
-11.6983
4.06044
-9.77624
4.01761
-10.8994
-0.338351
-10.5253
-11.846
3.99614
-9.49083
-1.97862
-11.78
-5.00255
-10.9035
3.80465
-6.33135
-7.35347
2.74679
-9.80067
-11.9221
-7.12613
-9.04841
-10.6367
-11.3778
4.03213
3.23148
3.47297
-9.58432
-3.68918
-1.09602
3.98396
-2.21712
3.85773
-4.59769
-11.8437
-9.6302
3.87708
-10.6915
4.52734
3.79084
-11.3944
-11.1787
-11.0349
-8.9168
4.13088
3.90222
0.152369
-10.2997
-11.509
4.31984
1.89214
4.08383
-11.4283
3.01861
4.39159
-11.2584
3.76876
-11.4296
-8.20051
-5.32066
-6.43442
3.72199
-5.76019
4.41407
-11.8237
-9.59899
-8.24562
4.26895
3.90565
2.08356
4.12557
2.66672
3.97806
3.81213
3.75868
4.08208
3.305
3.77871
-11.4738
2.91977
2.61617
-11.363
4.02574
4.02054
-11.6769
2.81562
-10.5364
3.20531
4.10432
-10.3817
3.30469
-9.76095
-11.5822
-2.12888
4.01252
4.0906
3.31396
-7.60912
-12.2892
2.03681
-11.5894
2.04442
-2.3844
1.78091
1.99718
-11.6712
-6.55838
-11.4806
-10.8381
1.25102
-11.3469
3.95586
3.86795
-10.8009
-11.7132
3.53606
-8.18236
1.51657
4.28684
-1.21906
-11.2251
4.39788
-8.86994
-11.1731
-11.4872
-11.0195
-10.8903
2.50593
-8.18512
3.7719
-9.67168
-11.1753
-11.8551
-12.0241
3.95941
-11.2843
2.83743
1.34405
4.55187
-11.04
3.22046
3.68545
3.6232
2.97446
-6.28214
3.59547
-11.5467
3.54631
1.1395
4.02782
0.785201
-8.82891
-11.8843
4.0025
-9.06149
-11.1767
1.81751
-8.0278
3.65165
4.31052
-10.0319
-11.8825
3.7273
-1.43582
3.47919
-1.09967
-11.9308
-11.8549
1.12036
4.18127
-10.8706
3.97119
-7.80716
-12.299
3.25019
0.545598
4.25508
-12.2808
-11.597
2.0502
-11.0438
4.09452
3.67077
-11.4916
3.66921
3.73039
-11.5516
-10.1605
3.76476
3.46723
2.99012
3.91875
3.1998
1.4954
4.0037
4.31093
1.74878
1.05501
3.38027
3.82209
4.46099
4.37223
-12.3791
3.82375
-12.1995
1.69009
-10.9876
-12.4688
-13.4071
-10.9886
-11.1923
3.32733
3.79147
3.0219
4.32104
3.21845
3.94776
3.50055
1.18044
3.66564
-9.07133
3.8264
-12.4768
4.2812
0.904414
-10.6879
-13.7347
4.46072
0.38672
3.29384
3.55459
3.7661
3.72479
-0.513575
3.38481
-11.8699
3.91146
-11.6476
-13.0262
-10.8534
-10.7946
-13.2135
-11.0763
-11.5834
3.75018
4.13881
3.60503
3.89706
-11.6562
3.63957
-11.688
0.78327
3.63508
-0.278941
4.13689
3.89079
-12.0287
3.10586
-11.7675
-9.51321
4.28292
3.61589
1.73807
-12.3941
1.59283
3.82191
3.55201
3.24442
4.11827
3.90387
-11.4132
1.95996
3.25494
3.58381
4.25465
-12.0976
4.34538
4.6237
-13.3188
3.95163
17.8967
10.6906
12.5587
10.8096
11.387
10.7953
10.8516
10.7018
10.161
15.8181
9.81542
11.2976
10.0797
10.4145
10.0464
10.0682
9.95586
9.8738
13.8851
8.86909
10.2333
9.44082
9.65031
9.43062
9.43167
9.35825
9.26862
12.4223
8.25624
9.36453
8.84623
8.99526
8.87475
8.88163
8.85009
8.779
11.1196
7.80105
8.63666
8.31971
8.44039
8.39204
8.41841
8.43217
8.38386
9.9613
7.4353
8.03203
7.87002
7.9768
7.98014
8.02521
8.06676
8.06434
8.99691
7.17475
7.54122
7.49443
7.59377
7.63549
7.69982
7.76827
7.81312
8.23452
7.01074
7.15033
7.18251
7.27722
7.3458
7.42469
7.51248
7.52964
7.61588
6.79201
6.81978
6.91576
7.01294
7.10069
7.19068
7.28496
7.35769
7.04444
6.43887
6.52406
6.68202
6.78955
6.89125
6.99085
7.09389
7.17825
6.60029
6.13512
6.30052
6.48831
6.60267
6.71019
6.81499
6.92154
7.03173
6.41846
6.00585
6.18461
6.34061
6.44764
6.5492
6.64942
6.74574
6.88368
6.33163
5.98516
6.13024
6.22437
6.31635
6.40781
6.50553
6.61162
6.72149
6.2009
5.9825
6.0909
6.12023
6.19461
6.2716
6.35992
6.45913
6.53705
6.11458
5.96771
6.04577
6.01607
6.07564
6.14083
6.2248
6.32238
6.42045
6.0146
5.88968
5.9691
5.89881
5.94948
6.00519
6.0829
6.17189
6.27394
5.80354
5.68648
5.82614
5.75718
5.81036
5.86215
5.93478
6.01317
6.12384
5.57919
5.41906
5.6472
5.59983
5.66205
5.71617
5.79083
5.87486
5.99359
5.41294
5.18957
5.46584
5.43795
5.50635
5.56111
5.63217
5.71229
5.80026
5.26272
5.00818
5.28955
5.27701
5.34681
5.40032
5.46497
5.53633
5.61269
5.08092
4.85404
5.11546
5.12003
5.18784
5.24093
5.30376
5.37822
5.44616
4.825
4.72269
4.93793
4.96469
5.02491
5.07269
5.12722
5.19231
5.19387
4.45951
4.67308
4.77659
4.82847
4.87733
4.9171
4.96493
5.01461
4.99708
4.04049
4.70289
4.56981
4.63197
4.66692
4.70085
4.75885
4.80668
4.77972
3.86379
4.99975
4.72529
4.78096
4.77863
4.73936
4.78355
4.83069
4.48052
13.6603
13.9568
14.4756
15.0283
15.621
16.2605
16.933
17.6374
18.366
19.1062
19.8501
20.5882
21.304
21.9944
22.6495
23.2559
23.8114
24.3072
24.7331
25.0857
25.3605
25.5739
25.8113
25.9821
25.8379
25.5241
25.3698
25.5648
26.0618
26.5847
27.0899
27.5775
27.8635
27.9736
28.0117
27.9767
27.8601
27.6867
27.4579
27.1926
26.896
26.5736
26.2231
25.8503
25.4562
25.0287
24.5751
24.0973
23.5856
23.0579
22.5233
21.9884
21.468
20.9697
20.4943
20.0678
19.6754
19.3127
19.126
5.46782
5.31532
5.28656
5.24202
5.17798
5.10896
5.05559
5.02282
5.01301
5.02875
5.07193
5.1429
5.24088
5.36405
5.51054
5.67859
5.86668
6.07559
6.30852
6.57158
6.87528
7.23353
7.66836
8.17627
8.78142
9.41305
9.83109
9.91879
9.66141
9.16758
8.70113
8.36976
8.12013
7.92428
7.7758
7.65829
7.55901
7.47143
7.39088
7.31572
7.24562
7.18183
7.12757
7.08692
7.06483
7.06805
7.10289
7.17841
7.28787
7.40576
7.53512
7.70191
7.9101
8.14897
8.40885
8.69024
8.98529
9.29226
9.76115
8.92901
9.1728
9.40724
9.65276
9.90779
10.172
10.4452
10.7286
11.0194
11.3146
11.6141
11.9156
12.2171
12.5162
12.8112
13.1009
13.3842
13.6613
13.9334
14.2019
14.4698
14.7389
15.0106
15.2763
15.5182
15.7222
15.868
15.9654
16.0107
15.9876
15.9313
15.8708
15.8011
15.7268
15.6526
15.579
15.5048
15.4301
15.3543
15.2773
15.1994
15.1202
15.0405
14.9603
14.8799
14.7999
14.7206
14.6417
14.5634
14.4854
14.4076
14.3257
14.237
14.1396
14.0294
13.907
13.7822
13.6772
13.5413
6.46141
6.46377
6.53463
6.60465
6.67998
6.76429
6.85819
6.96369
7.08234
7.21539
7.36429
7.53008
7.71302
7.91346
8.13067
8.36376
8.61139
8.87158
9.14277
9.42262
9.70889
9.99817
10.2859
10.565
10.8243
11.0496
11.2227
11.3331
11.3787
11.3665
11.3145
11.2373
11.1423
11.0348
10.9182
10.7951
10.6669
10.5356
10.4037
10.2742
10.1505
10.0359
9.93415
9.84834
9.7816
9.73587
9.71229
9.71124
9.73142
9.77121
9.82947
9.90472
9.99498
10.0944
10.2083
10.3334
10.4514
10.5809
10.7608
7.46529
7.61453
7.7793
7.94984
8.12679
8.30967
8.49738
8.68951
8.88522
9.08363
9.28432
9.48685
9.6904
9.8951
10.1003
10.3059
10.5118
10.717
10.9218
11.1253
11.3268
11.5243
11.7152
11.8962
12.0617
12.2075
12.3279
12.4209
12.4851
12.5216
12.535
12.5293
12.5087
12.4772
12.4368
12.3912
12.3421
12.2901
12.2391
12.1907
12.1463
12.1074
12.075
12.0496
12.0317
12.0202
12.0145
12.0133
12.0144
12.0165
12.0179
12.0167
12.0123
12.004
11.9958
11.9872
11.977
11.9843
11.9753
6.59057
6.63742
6.72658
6.82036
6.92164
7.03215
7.15236
7.28258
7.42327
7.57414
7.73627
7.90937
8.09355
8.28835
8.49273
8.70549
8.92516
9.14751
9.37304
9.59922
9.82431
10.0439
10.2541
10.4531
10.6317
10.7899
10.9204
11.0242
11.099
11.1452
11.1672
11.1636
11.1406
11.1028
11.0478
10.9846
10.9125
10.8271
10.7411
10.655
10.5725
10.4967
10.4304
10.3761
10.3371
10.3111
10.3009
10.304
10.3203
10.3492
10.3894
10.4389
10.4959
10.559
10.6236
10.6984
10.782
10.8719
10.9728
6.7578
6.84839
6.9637
7.08598
7.21537
7.35237
7.49505
7.64483
7.80095
7.96084
8.12556
8.29382
8.4673
8.64451
8.82403
9.00632
9.19409
9.37534
9.55955
9.74094
9.92344
10.0988
10.265
10.4299
10.5703
10.7032
10.8109
10.9061
10.982
11.0362
11.0805
11.0969
11.0999
11.0989
11.0731
11.0519
11.0261
10.9733
10.9364
10.898
10.8638
10.8351
10.8121
10.7966
10.7967
10.7979
10.8133
10.8325
10.8583
10.8887
10.9213
10.9554
10.9886
11.0216
11.0538
11.0883
11.1223
11.172
11.2158
6.50253
6.5412
6.61058
6.69367
6.77755
6.88081
6.98231
7.11322
7.24802
7.36194
7.51041
7.65712
7.82055
7.99908
8.17843
8.37769
8.59051
8.74483
8.92356
9.10631
9.30702
9.48979
9.65335
9.84709
9.97087
10.1142
10.2041
10.3011
10.3787
10.4335
10.4991
10.5043
10.5101
10.5366
10.4844
10.4956
10.5294
10.4108
10.3522
10.291
10.2391
10.1928
10.1509
10.1168
10.1541
10.1401
10.1917
10.2114
10.2184
10.2445
10.2944
10.3693
10.4314
10.4984
10.5774
10.668
10.7596
10.8848
10.9728
6.27512
6.36716
6.43916
6.56084
6.67284
6.81068
6.91109
6.99559
7.1475
7.37087
7.43419
7.58368
7.77408
7.91602
8.11813
8.20239
8.42583
8.59479
8.78396
8.91035
9.0978
9.24315
9.37723
9.56749
9.65132
9.79379
9.85585
9.95257
10.0733
10.0465
10.2102
10.2123
10.1722
10.2484
10.1864
10.257
10.1758
10.0353
10.1436
10.1004
10.0741
10.086
10.0294
10.0177
10.0326
9.99466
10.0069
9.98334
10.09
10.1585
10.1848
10.215
10.2601
10.3554
10.446
10.5055
10.5713
10.4379
10.6133
1.04247
0.879274
0.962895
1.12258
1.36998
1.69325
2.0125
2.32083
2.61369
2.84078
3.0458
3.28788
3.50733
3.73057
4.09021
4.56964
5.07854
5.62435
6.25216
6.98943
7.84381
8.83082
9.99901
11.4733
12.7952
4.12586
4.17551
4.1132
4.01395
3.92248
3.92587
4.01822
4.15943
4.2982
4.35106
4.29225
4.17757
4.06448
3.99927
4.04688
4.18359
4.28435
4.34748
4.46209
4.65038
4.88965
5.16354
5.47527
5.86308
6.13353
3.42801
3.44614
3.4704
3.49422
3.53998
3.62896
3.74678
3.87027
3.97724
4.03303
4.03921
4.02129
4.00188
4.00692
4.07607
4.20943
4.37672
4.58029
4.84257
5.17419
5.57859
6.06126
6.63158
7.3023
8.11742
3.68972
3.68653
3.71751
3.74146
3.77674
3.8299
3.89787
3.96973
4.03464
4.07919
4.10236
4.11398
4.12626
4.15198
4.20589
4.29119
4.4025
4.54327
4.72255
4.94457
5.20891
5.51064
5.84035
6.17344
6.52109
3.72404
3.712
3.74069
3.7674
3.80684
3.85599
3.91415
3.97262
4.02636
4.0689
4.09988
4.12505
4.15227
4.18942
4.24614
4.32793
4.4372
4.57901
4.76013
4.98515
5.25887
5.58455
5.96943
6.4129
6.97494
3.79144
3.78304
3.81103
3.83398
3.87052
3.91094
3.95952
4.00651
4.05178
4.09123
4.12382
4.15364
4.18653
4.22626
4.27991
4.35272
4.44879
4.5731
4.73049
4.92301
5.15441
5.42263
5.72911
6.05544
6.44495
3.86865
3.82984
3.86198
3.8782
3.91312
3.94624
3.99073
4.03038
4.07126
4.10932
4.14142
4.17227
4.20805
4.24844
4.30032
4.36903
4.45893
4.57566
4.72389
4.90397
5.12413
5.38199
5.68926
6.02571
6.45776
3.93572
3.86077
3.90811
3.91693
3.95349
3.9796
4.0244
4.05697
4.09403
4.13119
4.16033
4.18902
4.22766
4.26772
4.31698
4.38168
4.46511
4.57277
4.70837
4.87004
5.07418
5.30941
5.60173
5.93787
6.33524
3.93337
3.88757
3.96212
3.95498
3.9926
3.99944
4.04991
4.06972
4.11663
4.15272
4.18243
4.20433
4.24016
4.275
4.32202
4.3806
4.45608
4.55465
4.70134
4.85489
5.03502
5.26454
5.50238
5.63484
5.87609
-13.7397
-12.5921
-1.74108
8.4054
4.40755
4.35526
-1.43547
5.2099
-3.18694
9.81877
-11.1659
5.75053
-16.8153
3.61637
-6.85622
7.16282
-8.81105
8.23996
9.81752
-18.3954
-17.7241
8.14112
-10.8972
8.9632
5.17195
6.86618
5.13647
3.98233
-11.1356
-10.139
9.01789
8.26718
-12.7591
-13.0568
-10.3698
4.82161
-2.65669
-6.28754
-4.73928
9.30309
-11.5957
9.37778
7.76379
3.99372
5.94881
9.36111
-10.9815
-9.81271
-10.4482
-12.6708
-10.9786
-11.4167
-16.9489
8.58147
-1.38006
-2.98498
3.5777
-17.7728
4.27931
-9.10815
5.01733
-0.969694
4.4338
7.22599
5.15473
4.11208
7.85923
7.6791
-15.489
-11.8084
-3.45372
8.46301
4.55386
-16.3437
4.90309
-18.363
-14.3712
-10.8382
4.03773
9.12159
-12.9926
5.21624
5.6546
-8.97117
4.60003
5.05932
4.4149
-11.0132
-12.8556
6.66225
7.45798
7.02244
10.163
5.82112
4.43586
-11.0179
6.71723
-10.6963
9.16402
-9.18263
4.16696
-12.0959
4.172
8.0372
4.34903
4.20695
-10.9579
-13.7985
6.73001
-9.85061
7.16743
6.17575
-10.3403
8.10528
-17.35
-10.3235
-12.2443
9.52389
-16.5449
6.2432
7.59038
6.08915
9.28692
5.32095
-12.6686
7.77919
-11.5669
-18.3237
3.64192
-10.0484
5.95338
-16.4604
-11.3148
-9.32525
3.94452
4.46861
5.9781
4.26605
5.46468
-17.525
7.45789
-3.20643
-9.67853
7.65846
-10.7412
6.68358
6.6512
-14.9657
5.77868
-10.5839
1.91586
3.17547
6.30175
-7.23638
5.33789
-9.77905
4.48137
9.55582
-12.1421
10.41
8.38739
-3.54702
6.33265
-10.7176
9.62731
-8.88678
3.52914
4.91111
8.06842
4.53563
3.62882
7.40532
7.31689
-9.11359
7.2366
4.04906
-12.3333
-11.2935
-9.908
9.00358
-10.8088
8.75685
-16.6075
-10.0238
4.44424
10.4726
-9.17485
6.67023
-13.1344
6.28909
-9.73843
-9.89427
-6.41386
-2.17495
-6.95819
-12.827
4.92343
8.1038
-10.4364
-10.8957
-15.3104
7.80129
5.38836
6.00851
2.23138
9.86466
8.1457
4.23196
-10.8846
9.58248
4.37312
5.99293
-10.9236
2.14753
1.6784
-11.2399
4.31818
10.7553
9.98796
5.64851
4.12139
9.47606
5.45569
-0.2391
11.0839
-12.0594
7.62084
-8.58568
6.70002
4.51127
-9.54679
4.9836
8.56605
6.09877
-4.18659
9.69831
-11.5625
3.98932
-10.1406
-6.28865
8.66487
4.8743
9.62862
4.06542
4.56352
4.86643
7.66363
4.38937
6.75704
9.96826
6.81315
4.12264
8.62198
-10.8933
7.37352
4.72712
-10.1293
-13.8918
-12.1157
10.8017
6.85889
3.60173
5.72427
5.19966
-15.9841
5.44708
10.3856
5.68386
-1.99166
4.91997
-15.4742
-7.01963
8.88523
10.8173
10.1576
5.37711
8.14964
-4.72366
3.46048
-11.2104
4.29483
1.84018
8.58225
9.1426
-9.61259
5.93469
4.12434
10.3053
-11.301
-9.63483
-3.92159
6.50134
8.76195
-11.3211
-11.9958
-11.3822
-10.8176
7.09699
10.2376
-10.174
-10.5571
8.13051
10.4974
6.16408
-10.6379
10.0191
-18.1768
7.78118
-17.8781
5.38044
7.86854
9.25005
-12.9171
3.76013
8.78423
-1.96892
-10.9756
8.7338
5.18863
-9.10129
-12.4855
6.67998
10.5467
9.06084
4.62936
5.47035
-12.533
-13.8053
7.2717
-17.1004
9.4819
-7.19554
4.12785
9.66412
-11.3832
4.98554
5.29196
5.99864
6.73097
7.32875
6.02295
5.6352
-10.0335
8.66496
-15.85
4.35188
4.28426
9.06252
4.66917
-9.92686
-1.29129
10.1934
8.05796
-12.1449
-11.3391
11.1194
-7.99626
3.62785
9.58068
-9.01202
-11.0176
-10.9362
10.458
-12.3306
9.57347
4.51541
7.30202
-11.3386
5.51491
-12.8593
9.53529
-7.60694
-11.0621
-7.63833
-15.7604
5.70103
5.92351
9.90798
10.6013
9.3934
-10.7341
6.54258
-12.4773
3.81898
3.86573
-10.3189
9.77979
-18.2915
-11.4264
-9.55937
0.716894
10.1355
5.33631
-11.1889
-10.3811
10.3183
9.82761
-12.603
9.79603
-10.7201
5.12368
7.6676
4.49163
-12.7496
5.51657
10.5429
-2.60719
5.32867
1.46068
8.35104
-10.4615
5.39366
-9.97746
5.28042
6.57104
11.0766
-10.3298
-9.74213
10.463
7.15988
9.20041
10.3758
6.58113
4.11462
8.38232
-10.7166
6.7876
10.0697
7.78514
8.25251
5.34098
4.71821
6.4553
4.10069
-2.5772
7.60092
6.88353
8.69696
9.01915
10.9759
10.3662
-6.2397
-11.5584
2.58793
-15.4718
3.33062
4.07977
-6.66025
4.35566
4.01445
-7.77713
8.85021
6.08707
-10.2474
9.64393
-11.8388
-8.80163
5.30706
7.56267
-16.1572
6.28816
3.80237
-10.6263
-11.2713
-10.7578
4.6741
4.36158
-0.166547
10.3577
-10.9964
4.17824
4.62737
-10.8121
11.0223
5.34965
-14.3542
6.16191
4.56978
-14.4166
-14.62
1.55118
-5.76944
10.0186
5.6589
-9.4492
4.54302
5.25308
8.94766
-12.2736
8.19148
-8.37218
6.72132
5.77528
-11.1234
5.48388
4.26503
-7.63713
5.38605
10.2644
-12.9442
7.9522
-3.37383
5.64923
4.06023
-12.9556
-12.5725
6.58998
6.20079
-2.51891
7.21033
8.67758
-11.9221
7.38684
6.49481
10.5306
-11.3352
-10.9919
-10.0875
5.66585
1.20682
9.66205
-9.93305
-18.2846
6.53262
-12.9871
9.21442
-10.8952
-12.1763
9.85424
8.12985
4.12937
8.12201
4.08533
-4.65574
6.23292
1.97628
6.86684
-10.3144
-10.4713
6.48051
-9.75168
-9.88906
7.45242
-11.1401
8.04942
0.628033
6.22279
4.09922
5.37632
-5.11991
-4.1353
-6.03713
3.6678
-10.7865
-10.1911
-10.8439
5.33391
9.59987
-16.2406
-11.4266
7.38668
-10.0664
6.815
-14.9962
-9.99892
10.003
1.3665
4.2296
8.50146
5.75807
-13.018
9.55516
-7.13991
4.37906
4.35305
-10.1594
-10.0174
-11.1664
4.08214
5.7963
-16.3389
-17.5389
7.55746
9.73841
5.3901
-12.5365
8.31631
4.35286
-4.69979
8.81705
4.3793
4.52519
7.20494
-8.57167
9.63222
4.19657
-13.8237
-10.4675
4.38905
9.00053
-9.886
3.99954
9.72291
10.3288
-17.7681
7.68232
5.56743
8.60409
10.6245
8.72321
8.35037
-4.70762
4.98719
8.06333
4.17776
-16.3733
10.9357
4.26902
1.33412
7.49345
4.78769
6.33681
9.30258
2.9659
5.16471
-9.35363
-9.12827
3.95029
-12.3909
4.81741
4.83286
4.58348
10.2623
6.86928
6.27065
-15.2821
7.32261
5.598
3.24121
-9.61189
1.16039
3.74089
4.11
7.89949
4.45699
10.4555
7.23742
2.31854
-9.52702
-8.3288
-12.0725
10.9189
9.81904
7.94168
9.44286
8.65447
-10.0249
11.3403
-18.1297
9.69057
-11.1163
9.70874
-10.9375
7.80021
4.67111
5.38753
-11.7406
-6.72562
4.06094
-17.3642
5.10603
10.2423
4.70526
-10.5158
9.86221
6.44807
-8.80328
4.90514
9.55617
9.46826
8.96805
-15.9209
10.519
5.87683
10.445
3.69009
9.71565
-10.5026
-11.2304
7.81836
-3.26226
10.4444
-11.1349
5.71498
9.73218
9.76601
6.56222
-4.6654
6.46929
8.82054
4.32885
8.08425
7.29164
8.27856
9.172
-9.09246
-8.62284
2.0664
-10.3047
-4.95707
-12.2951
-10.4614
10.6184
4.49717
4.70391
10.5342
6.30132
3.81737
6.96002
5.07891
-15.9687
9.0211
8.0525
4.80137
9.23429
7.57744
5.02694
2.19526
-12.9643
-11.5098
9.93418
-10.5478
-0.267086
-11.4183
-17.5652
-11.7535
-11.5103
4.60242
10.8144
6.68594
9.86337
8.75355
6.07196
-12.2839
-12.1729
8.98141
-12.8895
2.54509
10.9333
5.06488
5.54036
-8.93915
1.23672
5.17933
-0.938668
-8.36868
-15.6173
-11.1913
10.5513
10.3861
4.92055
10.0427
-11.0155
0.980175
-11.1155
-7.82464
4.61194
-8.49978
6.51091
10.6983
4.30627
4.35192
4.30313
10.5478
7.04836
3.58707
6.17727
6.08875
8.05234
5.89877
5.50341
9.84519
-10.6499
-4.99606
8.26619
-0.574508
7.09982
-16.9573
4.66656
10.6147
8.77082
-14.74
1.85341
10.1685
7.25041
-10.2953
1.26838
-13.2187
5.79709
-14.2435
-12.8585
-10.2451
2.90466
-8.94178
3.27282
9.24997
-11.1614
9.11942
5.11096
6.46216
-13.2612
-1.90746
8.19541
4.55109
-12.4065
4.6451
0.303226
-9.72916
9.05247
8.5418
-4.64768
-11.4019
-13.1223
9.93943
10.6213
10.1737
-14.4185
-3.66941
9.13408
4.86174
4.31712
-12.3227
11.054
5.08713
-12.4953
10.2538
5.87373
4.57985
9.98996
-14.1063
6.27977
-15.2291
9.65483
5.73386
-12.8139
8.25292
9.52518
9.95432
4.09512
-14.9115
-11.0943
10.5269
9.95723
5.89196
-7.83217
-16.9494
-0.681166
6.39055
-13.9596
-6.19075
6.89888
4.64839
4.21621
-9.68529
9.88896
-14.9163
7.03442
6.90805
-9.47896
6.62578
6.07082
2.48648
-15.6301
-10.4748
-9.31885
-9.44849
9.76694
-12.5378
-7.98944
9.05811
-1.5364
4.72644
4.26478
-16.4854
5.74023
5.85615
-17.162
1.5901
11.1685
11.1462
-13.0556
3.37533
6.83418
-9.70142
-11.1846
-10.4461
9.2452
6.43432
-9.92669
-10.7467
-11.6852
-14.9887
-12.6819
2.91103
10.395
0.95566
-9.99223
8.47844
8.04226
3.10936
-9.08931
7.10733
-0.179079
-12.6225
7.91233
4.30374
9.57928
-9.39687
-3.25609
-10.7627
-10.3206
9.16788
3.97429
1.48145
6.15609
-11.5553
-17.4577
10.2167
5.94995
5.72874
10.8789
-13.7733
-11.2179
6.40396
-10.3513
8.38003
-11.3932
9.39635
4.78612
5.31121
-5.26877
-11.2918
3.86566
-14.9445
7.21701
7.46789
-3.81125
7.83329
-7.77444
-9.47323
-9.88831
6.23351
8.43773
-3.15517
6.57499
7.84714
5.06241
-10.342
7.68421
4.09407
-11.3338
-3.20617
4.34908
6.55491
7.89083
8.06972
4.32834
8.78006
-16.1103
10.0511
6.33233
-10.1759
-17.426
-6.0864
6.44851
6.83472
0.533903
11.0944
-10.4216
4.36619
4.23378
-10.2827
6.56567
5.57928
2.94494
4.83079
-10.8536
9.76342
8.81235
9.85346
-1.54851
-1.46721
-12.206
5.45812
-12.9808
7.4938
6.93858
6.77304
-10.2369
-10.43
8.27899
-9.40638
11.0747
-10.086
6.11897
-10.6564
4.58727
4.85793
8.34071
-0.516307
-5.63679
6.33666
9.46039
-16.4964
10.545
9.14754
5.58939
9.80509
6.16845
-10.2188
7.24567
6.3545
-8.90546
4.13425
-9.50782
10.894
8.32718
8.18438
11.1641
7.99907
4.27861
-12.0248
10.9193
3.72453
10.5169
6.11025
0.879251
-10.1656
9.38015
9.60843
7.05985
7.8477
10.6408
7.68882
-9.88107
9.05124
-16.7042
7.0576
-4.04039
-10.7672
4.10127
-15.7925
6.79977
-11.7534
-10.8619
-9.64498
5.3642
5.71174
4.01743
-11.0299
8.22575
0.586334
8.04497
4.96951
-11.0259
4.29669
9.22815
4.25603
10.0384
9.23373
11.1939
-11.4836
10.647
-13.311
9.58889
8.39467
10.0234
9.46275
-15.6093
11.094
-16.5342
-11.9603
4.60064
7.71797
-10.7212
-10.4996
10.5168
10.5074
8.66201
7.27787
9.00522
4.11362
-10.8776
6.37214
10.3193
-15.7146
5.27332
2.23539
-5.06237
9.67496
4.5004
10.0957
4.11551
-11.3369
2.20101
-13.3595
9.06336
4.14448
8.2222
-12.3041
-12.5113
9.44923
10.2955
-12.8881
9.67632
4.31592
-10.4895
-11.2105
10.9149
9.93293
11.0941
4.02
-12.1023
5.3232
11.1647
-12.3139
-10.2304
10.6738
8.99751
4.94861
10.2963
5.77952
-16.3131
5.40006
-10.6418
5.48061
9.26426
4.80509
-15.5503
8.31744
-11.355
-10.5418
-9.7109
-12.3422
-11.553
8.54865
7.72286
-11.9809
-14.9977
5.66437
9.63773
6.38188
4.14686
8.86711
5.19315
6.07135
-8.58135
4.67023
4.08944
-4.65283
4.2457
6.41202
6.42828
-9.70973
10.8735
-11.4728
-10.8819
4.24282
8.85076
6.45465
8.05393
6.49924
-12.2828
1.64185
9.29269
5.76677
9.04654
-10.3136
-12.2175
7.21369
7.0049
4.64184
10.4469
4.57843
4.04656
9.92753
4.23718
3.15409
-11.0119
9.88388
7.56145
-6.66455
6.20515
5.34217
7.78022
3.16248
6.32266
8.44261
-16.4535
6.73353
5.47045
-10.4814
4.52333
0.573725
-5.14616
9.92078
5.56612
9.24984
-8.02132
7.3048
-14.5721
9.84943
-4.59219
-12.7674
-17.9514
-11.1168
10.7554
5.05609
-15.9215
-12.4635
4.19289
8.01334
11.1223
-11.0762
9.20686
7.43186
11.0503
8.89629
0.682878
11.1369
4.38043
10.4679
-10.9035
-16.634
9.24503
9.72314
8.81679
8.95572
5.84685
-11.4262
9.60074
1.69728
-13.0726
-16.8656
10.0991
-12.7385
-10.7993
-17.4898
-11.5475
3.23075
-12.0331
-11.6595
-9.77267
10.6467
-10.3846
10.427
-3.97037
10.1056
9.62755
-14.2632
-8.42607
-10.6267
-12.0551
4.12732
8.47732
-1.25752
-12.0147
10.2323
-12.2335
8.08994
-17.6014
9.63845
-10.8687
2.14868
4.36044
6.06247
-17.7962
5.93256
2.92068
-17.2502
9.55049
-10.5206
6.55301
8.55694
-7.78526
-0.818536
6.77338
-16.0214
-6.62052
9.46046
-14.0589
9.80036
9.54765
4.12212
4.74509
-12.3405
-13.7603
10.8365
-12.5271
8.76562
-16.4659
9.91872
9.22364
8.34256
-17.4135
0.203202
-10.0944
7.66897
-10.0619
5.29867
-14.1854
-11.8297
1.95167
8.42399
-11.581
7.70732
7.04906
9.68795
-11.4795
-12.1595
5.10169
-12.7182
7.23487
6.09192
-1.81288
7.19425
5.9564
-14.4881
9.19197
10.0628
10.7368
6.08965
8.45034
9.86562
-12.8553
-11.2472
6.53236
9.97861
6.76167
-13.5989
-10.8693
5.32158
3.53861
4.19849
-12.9746
3.4886
-0.197088
-14.8559
5.00159
-14.9295
-11.9385
5.17948
5.75082
10.0866
9.44046
4.69699
7.38886
4.28128
4.08401
-11.8296
8.17443
-12.4246
5.49025
-11.468
9.0191
-9.56235
1.96057
-16.0211
-10.9348
4.32146
2.21689
7.43082
7.73969
7.29735
-10.6366
-10.2731
9.59334
10.0093
6.0795
8.07297
5.94733
6.72868
-11.9511
-10.1105
-16.0061
-12.3072
8.86958
4.75496
-13.0848
9.40575
-11.061
10.0776
5.14817
4.34773
7.32907
5.31048
7.40173
5.10687
2.28894
-12.0631
-11.1398
10.2769
5.98515
-14.5465
-4.08261
5.97755
-10.5514
-12.1023
-9.7522
8.01408
-16.9357
5.88294
9.0669
9.40787
4.9387
10.2976
-10.7201
-11.3487
8.89251
4.13318
-17.2663
6.89192
-12.1081
-9.46434
7.56257
3.80641
9.17864
4.19518
-12.1183
4.81871
-10.9988
4.30534
9.39874
4.19428
8.89317
3.99079
8.60598
7.67336
9.68613
4.59942
6.94347
-14.0841
9.41497
-8.7799
6.56558
6.94982
8.77561
4.22427
6.23675
-6.07296
-11.8295
6.54912
-11.529
9.94814
-12.3933
8.44154
8.43649
5.21944
4.7002
-10.6357
8.14264
7.25105
-4.21982
-9.83893
8.19338
9.95894
10.0921
8.16334
-2.58262
6.40483
6.42391
-13.1153
5.30978
9.82913
7.51383
-12.4905
6.62482
-11.2912
-11.3903
11.19
2.18833
8.13425
10.0892
-12.3933
6.80859
9.59368
8.96766
-15.982
4.19377
8.25512
5.21765
-5.12519
-9.16597
4.26521
6.18425
-10.1159
9.64433
-1.67288
-12.0135
8.02576
0.554866
-10.9309
9.35536
-12.6419
9.81435
6.86521
8.95608
5.33771
-7.94205
-9.85734
8.47918
9.9252
-11.5399
7.7518
8.21085
10.6185
3.58167
-2.20624
4.89767
4.48347
10.0245
6.79586
4.67749
7.37288
4.213
9.0077
-9.3267
-15.5701
4.56402
-12.5593
4.25565
-13.5532
-10.7461
-14.9593
-9.94063
11.0792
9.71137
-15.2664
8.60232
9.07942
-10.4585
6.68422
3.33741
-11.3148
-16.281
8.33804
-9.5903
4.53719
-10.8129
4.31744
10.6008
-4.41316
4.10101
-13.3208
7.02507
10.5468
3.84089
7.17202
-7.02609
1.66013
8.92163
-11.8336
4.07296
-11.6627
4.25608
-12.3224
7.86001
9.92082
6.21702
10.1011
-16.3251
-9.39465
-14.528
4.42489
-12.6855
-10.5081
10.4611
-17.4354
1.20994
10.6808
-16.1836
-10.5013
7.95029
4.27909
4.37605
-12.3363
5.76007
11.035
-11.0122
-14.3986
3.84464
-11.9161
-11.8574
6.16454
4.14436
-2.02277
4.21963
-15.5167
4.29465
9.8072
5.4539
-9.86091
4.59944
-0.172096
-11.5549
5.09727
0.281076
-7.38917
9.72504
-10.9448
9.90324
-16.5202
7.90767
5.58865
6.75349
9.68699
6.38495
7.10047
9.99168
4.31062
11.0594
-11.9487
-14.4196
6.00517
-17.1741
4.60944
5.60161
7.93698
8.76118
6.84334
-5.84136
11.0632
-3.44343
-11.9909
-4.75168
-14.5535
10.6455
7.97051
-11.5171
9.28914
3.91199
7.59754
5.78845
6.58244
-9.78498
9.45515
10.0097
4.81482
4.17676
4.07033
-4.10346
1.00371
-1.38328
-12.5725
5.9091
5.30688
4.88006
7.64659
4.82116
6.07862
4.16433
5.66813
8.62754
8.52526
11.0649
-1.05287
-11.9388
-11.7303
4.24097
9.35354
-0.227921
-9.77123
-10.6222
4.50034
6.0469
3.51978
10.1582
4.99675
4.22749
-10.2722
0.521854
5.13111
6.67627
7.13225
4.44932
-11.5205
5.10964
8.21768
5.46506
7.43401
-10.8881
10.0716
-7.03182
11.1502
4.28912
4.63902
9.80819
-10.6979
1.94592
8.11128
-12.0568
-13.9617
2.90005
10.7716
7.28528
-9.99643
-12.5104
-12.15
6.17916
-16.9948
9.81685
10.803
-9.6864
-10.5955
5.25109
6.51522
-0.567419
-2.99845
9.32892
4.69907
-10.521
5.35366
11.0107
7.86307
9.44497
4.93289
10.2743
10.1036
10.0469
-12.1191
8.56904
4.79262
4.38491
9.16533
2.55246
4.29605
-16.5683
0.485151
0.840707
9.42085
9.15883
8.02197
11.1478
7.50508
5.3715
-14.6123
9.86155
4.31988
10.2861
0.0403143
6.9097
4.69625
10.2278
-11.5394
4.76522
-13.8305
8.16658
10.8646
9.39086
7.75809
9.84289
-10.8059
8.31215
4.36472
8.50507
9.02061
-10.3125
5.93672
9.8795
-12.538
-12.403
4.91598
-10.8064
10.1334
-12.4305
10.566
-12.7648
10.8184
-2.53544
5.90152
-11.1364
4.11563
-9.54059
-9.56478
-10.027
3.29942
-12.3582
5.92059
4.93391
6.22979
-11.0518
10.0006
4.44378
-16.539
-10.2673
-11.5238
8.87456
-12.3211
4.70439
7.29182
5.07792
1.54562
10.3437
-4.72238
8.60037
7.154
9.79543
11.0999
8.17722
-13.1741
9.98142
9.97484
-10.3626
1.20996
4.63127
6.29648
-10.1061
8.92059
9.33404
-11.5783
8.37219
-4.69553
-2.19668
9.33363
4.20813
-18.062
6.54956
8.17286
10.5031
5.05868
8.47961
7.03824
-12.2157
4.74011
-11.3216
3.78152
4.22336
-10.6118
1.35131
3.38406
9.86993
4.89645
6.87819
4.76573
-14.1952
-11.2472
10.1024
8.00831
6.30221
-10.0153
4.26972
0.101618
4.68852
4.23752
9.05534
9.57532
-1.75364
4.2389
-14.2743
-11.261
10.2545
-8.47201
10.3517
-13.7083
1.55195
5.18309
8.58634
4.26358
8.50776
7.24913
-9.57711
-7.32571
-12.5125
-10.5887
-16.6341
8.93859
4.80629
-3.30791
4.86198
-1.60641
-12.0425
9.73743
-10.0465
-14.5678
-9.43611
9.78205
4.64302
5.96042
9.24217
-12.4502
10.4928
-11.722
9.33554
10.8968
4.34826
-10.2884
-10.725
6.19868
11.0638
10.5986
8.19918
7.98821
0.856447
-15.3196
8.24458
5.7495
-10.9764
10.0476
-11.939
9.34864
6.30511
9.07686
-10.7858
9.22521
6.53625
10.1099
10.3364
3.97003
7.19531
-10.3997
4.13713
6.60926
7.82752
6.03367
-15.8652
5.9743
4.73113
-5.66332
-10.9901
4.20936
-13.1136
9.95138
-10.4005
-16.5115
9.63067
4.00839
7.70968
6.89144
4.4497
-15.3349
1.36287
8.49357
5.87409
-6.71848
-8.36916
-8.69621
-14.5089
2.7333
9.66647
-10.9365
4.21949
5.36767
5.81996
8.51726
-15.9692
-11.842
7.60854
-13.4092
8.91719
-14.8837
-4.04197
-10.2219
-12.3711
-10.1521
2.79804
3.9957
10.5226
4.22464
-16.6739
-4.55701
10.8212
0.929573
4.52587
-10.9477
9.67453
-3.29149
-7.36577
-10.112
4.21172
-10.9835
3.72138
-12.4108
-10.9114
10.5425
4.78922
7.90955
10.1439
6.87437
-3.91643
10.4549
7.28878
-11.8629
4.48639
3.26115
4.14598
7.52318
9.6358
-13.3635
-12.3918
3.72981
-10.2581
5.99197
9.53948
7.84967
-11.1449
-12.8497
-11.5218
7.22901
9.3523
8.07627
-10.5133
3.7856
1.0148
6.37628
-11.8962
7.07481
3.78753
-16.7615
9.59944
11.0551
4.26938
3.49457
5.98406
10.0362
-5.46358
6.9253
9.64241
-11.2824
7.29394
-9.5655
-10.0347
3.9071
-5.26209
9.89307
-9.94689
9.9497
-10.3997
5.53875
9.24072
10.2702
10.0559
8.58505
2.88389
10.2685
-15.7686
7.57244
9.66404
8.06373
-12.2728
9.21403
9.61926
6.96245
-12.6216
6.32538
-9.67337
-10.5057
9.84802
8.82442
-1.12503
-12.6366
-15.8168
-1.61991
10.9675
4.2811
-13.3431
-11.051
-10.4015
-9.72775
9.76022
8.08859
6.54004
4.03146
10.5831
10.2133
8.39484
4.59347
9.97198
-15.9376
8.5571
-13.149
8.6825
6.66295
-7.14018
6.8814
-15.713
4.17421
5.05706
6.37275
6.09031
11.0416
5.01449
-4.02199
2.35534
7.04786
-1.872
-12.1117
-10.0324
11.0817
2.39828
-10.2908
-12.385
-11.9074
-12.2109
-9.55652
10.61
8.508
7.22377
5.40721
-14.0897
-11.939
4.4823
10.8772
4.085
10.0133
-9.63196
6.89151
-14.1589
5.71165
4.80221
6.71475
-10.6925
6.99599
-17.9652
-10.6692
3.71341
3.98425
6.89193
9.88784
4.27382
5.61527
-3.21945
9.89506
10.2732
7.09386
10.2287
3.91416
-11.3131
0.158014
-6.18078
-8.13292
-12.3832
-11.7828
4.18581
8.58757
-10.184
10.429
5.99824
-16.8647
9.73298
10.0879
8.24258
-5.57813
-11.7501
7.84253
8.87159
9.09603
-11.928
7.11892
-13.6324
-12.5343
-17.5555
-13.267
-9.86042
-11.5884
-12.5534
-9.12955
-6.65683