/*--------------------------------*- C++ -*----------------------------------*\
  =========                 |
  \\      /  F ield         | OpenFOAM: The Open Source CFD Toolbox
   \\    /   O peration     | Website:  https://openfoam.org
    \\  /    A nd           | Version:  10
     \\/     M anipulation  |
\*---------------------------------------------------------------------------*/
FoamFile
{
    format      ascii;
    class       surfaceScalarField;
    location    "1950";
    object      phi;
}
// * * * * * * * * * * * * * * * * * * * * * * * * * * * * * * * * * * * * * //

dimensions      [0 3 -1 0 0 0 0];

internalField   nonuniform List<scalar> 
16133
(
3.59476
1.72032
-2.10868
-3.20633
-2.8053
2.8459
-3.1039
3.06331
-0.784107
-3.06818
2.4162
1.43609
0.899093
-1.25327
-5.29355
5.64773
-1.22137
0.545331
4.93041
-4.25437
3.73252
1.31231
-4.92772
-0.117102
-3.53481
1.11443
2.09965
0.320734
0.0260368
-3.97902
0.945902
3.00708
-2.3117
3.7591
2.42853
-3.87592
0.489682
3.10572
6.45513e-06
-3.5954
3.5094
-3.32361
2.63496
-2.82074
5.06121
-2.34122
2.32924
-5.04922
-0.205977
-3.25888
1.96473
1.50013
1.46835
-1.18249
1.3537
-1.63956
1.69494
1.60137
-1.82796
-1.83389
1.41199
-4.16169
4.5836
-1.35192
1.13237
-0.962943
-4.0266
0.920902
2.9089
0.196796
-6.59628
5.364
-1.07942
1.50797
3.98655
-1.89975
-0.794441
3.24168
-2.7139
0.266659
0.631481
-5.16927
5.4369
-4.32201
4.22363
-1.73551
8.66157
-7.03477
-0.445013
-1.18178
-3.82712
4.55987
-0.243068
-0.003496
0.00381631
-0.100345
0.100025
0.0563238
-0.00515866
-0.0353511
-0.0158139
-0.170836
-2.0336
1.82661
0.37783
-0.0270716
0.0512493
-0.00354899
-0.0206286
-3.17763
2.25674
3.36251
-0.984385
-5.08204
2.70391
-2.52227
2.57713
3.45454
1.35859
-3.69975
2.3672
-0.0668019
0.147925
0.0239857
-0.105109
-3.76603
-3.65552
3.68417
3.73738
-1.86065
3.22022
2.07719
-3.43675
-2.90421
-5.39603
4.53421
-0.0792386
0.118668
-0.136726
0.0972967
0.057918
0.123773
-0.0314502
-0.150241
-6.42012
0.986186
-1.16234
-3.26972
0.0920978
-3.49641
-0.822507
-1.65528
-0.775702
0.280572
2.15041
-1.99522
4.80499
1.596
-4.40577
4.84522
-2.10217
-5.64727
3.45461
-1.21316
0.453307
0.00950096
-0.679636
-0.668699
1.04246
0.305873
2.98826
1.59784
-0.827008
5.35456
-5.00162
0.278545
-2.03574
-2.73772
-4.53552
4.63431
-3.61076
3.51197
0.16969
0.0556287
-0.1674
-0.0225643
0.0362126
0.0346127
-0.048261
-0.0225374
0.0693408
0.0769695
-0.00838553
-0.0147596
-0.00392636
5.4585
-2.7634
-8.09114
-0.110248
-0.11253
0.173188
0.0495906
-0.557656
0.922663
-0.908032
0.543025
5.2576
0.104034
0.0222967
0.0433585
2.93813
-2.40691
-3.33651
0.127596
0.0150647
-0.0245964
-0.118064
2.10067
-4.20163
3.90589
-1.80493
2.36253
-1.83931
-3.72728
2.33965
-1.68056
-0.498021
-0.392323
0.332688
-0.0649279
0.43897
0.00526973
-0.379311
1.21346
2.97412
-6.13454
0.194074
-1.09431
0.0201508
0.00134646
-0.0440616
0.151628
-0.0461725
0.0167647
-0.12222
-1.72407
0.9217
3.049
-2.24663
2.09376
-3.16092
-2.66012
1.68355
-2.43037
2.44178
-1.76107
-2.0219
2.32616
1.45682
-7.06008
1.87579
-0.95025
-2.21779
1.40374
1.92848
-2.41736
2.35254
1.4234
2.03285
-1.75289
1.4036
5.89887
-5.59134
-0.044077
-0.263434
3.13983
-2.73209
-1.86676
1.45903
0.0723402
0.168223
-0.184935
0.0471047
0.0412607
-0.0521529
6.56138
-0.144566
-0.517932
-3.27161
2.87091
2.45477
-2.05406
3.16236
-2.82972
-2.94658
2.61395
4.60892
-4.18649
-2.41764
1.99996
-0.941196
1.37142
-2.43017
3.487
-2.83974
2.51511
5.08303
1.90358
-2.37768
6.42791
-2.59814
3.50757
1.35258
2.47109
-2.64335
2.17224
3.86061
-2.58551
2.2119
-3.6018
-1.53046
0.722882
5.34698
0.358072
1.1138
-1.89351
-1.65065
1.0339
-0.868835
0.757599
-4.68423
5.06407
-0.188733
-0.191097
2.45947
-2.28685
3.4257
-3.4821
1.08587
-1.02947
2.51229
-2.43353
2.10767
0.68844
3.48671
-0.749448
1.41503
3.81591
1.19964
-0.226589
-0.0101741
-1.21154
8.52336
-0.750428
2.18278
-1.63632
1.48639
-0.953192
-4.59603
0.547613
-3.39739
-1.30609
-2.41893
-1.82174
1.50858
-1.76338
1.52723
-0.201884
-3.75945
-4.70743
-0.334627
4.79547
0.603236
2.72841
-3.76722
-2.71631
4.06589
-5.15104
0.106918
4.70951
2.14274
3.07574
-0.423
1.22396
-0.251393
-2.73364
3.00223
-3.11354
-1.76307
0.995985
4.32984
-3.56275
-2.92532
3.01744
2.23613
-2.32825
-0.0723154
0.165954
0.0102702
-0.103909
0.00721064
1.64239
2.68674
-3.10517
5.96625
-4.81767
-0.087774
0.0696596
-0.0167861
0.0349005
3.24606
-3.36673
-2.81011
-2.63748
-3.33765
-1.4368
1.28529
-0.0195279
0.165585
0.00557022
-0.070304
0.215334
0.121196
-0.266226
-1.1106
1.24941
-3.7406
0.415231
5.59059
-3.35485
-4.27428
1.16286
-1.69714
1.40942
-3.96885
5.2292
-0.163143
-0.153196
-0.181682
-0.765696
2.93932
-5.66422
3.4906
5.62555
1.89793
-1.91085
1.93005
-1.91712
3.56775
-3.68236
0.851439
-3.28628
-1.75954
1.24478
-0.837169
3.82952
2.04837
-6.64358
-0.851117
0.24489
-0.0734086
-1.95489
-6.45578
3.68309
-3.27666
4.40212
2.36671
3.87373
2.07289
-0.264547
0.065526
0.434696
-0.235675
3.19858
1.79455
-1.97569
0.731637
-2.43382
2.9766
2.68091
-3.22368
6.90813
1.96918
-3.2587
-5.61861
-1.21645
1.13334
-4.32317
4.30217
5.99243
-6.03949
-1.16446
-1.5868
2.39228
4.54659
3.56241
-3.43235
2.74933
-3.01673
-5.43047
0.43525
5.10216
-4.38006
3.56785
-2.66806
3.48027
-4.50232
-5.36352
-0.229842
-2.86564
0.888401
-0.832091
-1.78038
-0.00758307
0.0248871
-0.0172044
-9.95566e-05
-1.18093
1.18535
5.12544
-5.10826
2.0312
-2.09386
-3.44386
-3.44326
-1.16636
1.08825
-0.0539169
0.132033
-4.21426
0.781089
0.00798818
0.098878
-0.0556168
-3.79475
-0.281535
-3.95379
2.37143
0.138522
-0.106803
-1.40227
-1.66086
3.0326
-3.58953
2.82019
3.19608
3.78572
3.90952
-3.175
0.205252
0.0708309
-0.203743
-0.0965673
-0.0107346
1.56911
-3.75645
1.43708
-1.63588
2.81181
-3.2592
-0.857914
1.42453
-1.44947
-3.24793
0.156672
2.73504
2.2441
0.252427
-0.0293724
-0.302294
-2.45555
2.07874
0.260847
-0.973172
1.27923
-2.78002
4.09887
-1.52073
0.167331
0.136327
0.0249719
-0.0337024
5.74881
-0.35534
-0.0257586
-0.470019
2.82098
2.91678
5.40489
0.0572602
-0.00851942
-1.94334
1.54857
-1.91604
2.54495
0.184304
-0.194611
-0.236095
0.246403
-0.0809367
0.0774407
0.949832
0.103736
-0.040009
-0.0557389
1.04794
-0.156175
0.196482
0.245679
-0.246183
-0.162639
2.04354
-0.181611
-3.04285
-0.0345165
-0.131676
0.225555
-0.0593625
3.08156
0.0789008
-0.0852516
0.00635087
-0.942041
-2.93759
3.35907
-4.92914
2.42966
1.71391
0.755983
-0.722882
-0.0870168
-3.08851
-0.00203598
1.84343
-6.33002
-0.098519
0.0852218
0.0466271
-0.0333299
-0.783836
-6.69272
-0.132182
-0.0248687
0.122534
-5.36093
-1.13771
-2.56632
5.04038
-3.99524
-0.0375888
-0.198909
0.104821
0.381945
-0.458162
0.260521
-0.0196336
-0.0218724
0.0331205
-2.23731
2.7605
-1.21064
2.4214
1.47541
-1.08501
-0.00928797
0.00370517
0.00558279
-1.82946
-3.60091
0.00782815
-0.0180525
0.0102244
2.5003
-3.03681
0.698833
1.3441
-0.63473
1.01908
0.00367333
0.00415484
0.486892
-0.237942
-0.309472
0.524989
0.225105
-2.15703
2.88025
-0.308224
-0.730177
4.12006
0.242143
-0.0837176
0.0468271
-0.909902
0.198816
-1.16034
1.54057
-2.84185
-0.59128
1.87751
-0.630651
3.31301
0.0716085
0.00583222
1.11152
-3.72718
1.59106
-0.906788
-2.74843
1.09743
1.42452
0.321532
-2.16498
2.85556
-0.241328
-0.0376078
0.0843249
4.9036
-0.107789
0.0520799
0.0512948
-0.05627
-0.0723903
0.109324
-2.94994
0.0890032
0.146202
-0.139239
0.0155806
0.022006
-0.0375865
-2.19285
-3.45336
4.06714
-0.631138
0.0827204
0.235474
-1.86403
0.00386431
-0.0131523
-1.87354
-5.59419
0.275566
0.0514869
0.0613765
-0.0607836
1.01107
-0.244909
-0.0518149
-3.70361
-0.187618
-4.47975
-2.4129
-0.00247194
0.181755
0.454868
-0.102915
-0.495655
-0.0396392
0.0610533
-0.00634934
0.0676738
0.226876
-0.223719
-0.330296
-3.09651
-2.72989
0.0674623
0.00414623
0.179388
-1.80108
0.069988
1.76403
-0.0928869
0.0876156
0.0602769
0.0562177
-0.0650076
0.571956
0.229852
-0.0812599
0.0104412
-0.0198503
0.000163637
0.00721489
-0.129909
0.22808
-0.0741852
0.0209561
0.00779522
0.0706526
-0.00319038
0.0132518
-0.0304562
0.260094
0.0547552
0.00991209
-0.0180401
-0.243958
2.40099
-1.71005
1.6616
-0.000395597
-0.0692363
-0.0356149
0.250902
-0.458509
-0.679195
1.18844
0.468274
-1.11444
-0.800859
-0.0211809
0.0339213
-0.0603004
0.0492866
-0.0921108
0.0147587
0.0117803
0.0254163
-0.00245546
0.0731081
-0.199724
-0.082258
2.64829
-0.0164192
0.0623736
-1.29449
0.405969
-2.31851
-0.790439
-0.158503
0.00341511
-0.03903
-0.0769933
0.0228192
-0.0490146
0.0809882
-0.0291179
0.694084
-0.952741
-1.32375
0.684884
-0.0775868
-1.34566
-0.539633
-0.0261673
-0.0208805
-1.36966
-0.595223
-0.047158
-0.0282658
0.0455874
0.190216
-0.74913
0.0585551
0.0265794
-0.0804879
2.21848
-0.0268933
0.0180472
0.0308472
0.134013
2.12495
0.188729
-0.252406
-1.32881
-0.289712
-0.931413
-0.00384612
0.110614
-0.106768
-0.00873884
0.114184
-0.109291
-0.0135666
0.123968
-0.11914
-0.0188883
0.132177
-0.126856
-0.0243397
0.141138
-0.135687
-0.0301019
0.149238
-0.143476
-0.0359768
0.157315
-0.15144
-0.0419838
0.164867
-0.15886
0.172005
-0.166221
-0.0477684
-0.00358939
0.114203
-0.00797114
0.118566
-0.0124425
0.128439
-0.0173675
0.137102
-0.0223679
0.146139
-0.0276286
0.154499
-0.0329727
0.162659
-0.0383913
0.170286
0.177434
-0.0438196
-0.00355124
0.117755
-0.00736982
0.122384
-0.0114313
0.132501
-0.0158703
0.141541
-0.0204197
0.150688
-0.0251567
0.159236
-0.029966
0.167468
-0.0348337
0.175153
0.182317
-0.0397169
-0.00333184
0.121086
-0.00677751
0.12583
-0.0104597
0.136183
-0.0144369
0.145518
-0.0185406
0.154792
-0.0227956
0.163491
-0.027122
0.171795
-0.0315222
0.179554
0.186808
-0.0360128
-0.00304129
0.124128
-0.00618816
0.128977
-0.009527
0.139522
-0.0130985
0.14909
-0.0167933
0.158486
-0.0206252
0.167323
-0.0245543
0.175724
-0.0285969
0.183596
0.19099
-0.0327793
-0.00273405
0.126862
-0.00562668
0.131869
-0.00866825
0.142563
-0.0118929
0.152315
-0.0152382
0.161832
-0.0187218
0.170807
-0.0223205
0.179322
-0.026059
0.187335
0.1949
-0.0299695
-0.00236704
0.129229
-0.00508259
0.134585
-0.00789767
0.145378
-0.0108607
0.155278
-0.0139309
0.164902
-0.0171427
0.174018
-0.020511
0.182691
-0.0240622
0.190886
0.198683
-0.0278447
-0.00189151
0.13112
-0.00459304
0.137286
-0.00726691
0.148052
-0.010032
0.158043
-0.0129033
0.167773
-0.0159381
0.177053
-0.0191623
0.185915
-0.0226257
0.194349
0.20237
-0.0263126
-0.00156908
0.132689
-0.00431106
0.140028
-0.00685181
0.150593
-0.00945919
0.16065
-0.0121922
0.170506
-0.015121
0.179982
-0.0182977
0.189092
-0.0217521
0.197804
0.206157
-0.0255388
-0.00174008
0.134429
-0.0043713
0.14266
-0.00668627
0.152908
-0.00912507
0.163089
-0.0117603
0.173141
-0.0146771
0.182899
-0.0179138
0.192328
-0.0215172
0.201407
0.210119
-0.0254801
-0.00219065
0.13662
-0.00452148
0.14499
-0.00658787
0.154974
-0.00890519
0.165406
-0.0115161
0.175752
-0.014503
0.185886
-0.017893
0.195718
-0.021739
0.205254
0.214467
-0.0260864
-0.00228968
0.13891
-0.00431479
0.147015
-0.00630308
0.156963
-0.00862006
0.167723
-0.0113217
0.178454
-0.0144482
0.189012
-0.0180463
0.199317
-0.0221173
0.209325
0.219131
-0.0267815
-0.00179376
0.140703
-0.00366239
0.148884
-0.00573332
0.159034
-0.00818828
0.170178
-0.0110748
0.18134
-0.014448
0.192385
-0.0183518
0.20322
-0.0228376
0.213811
0.224186
-0.0278927
-0.0010167
0.14172
-0.00275487
0.150622
-0.0049587
0.161237
-0.00759765
0.172817
-0.010709
0.184452
-0.0143527
0.196029
-0.0185699
0.207438
-0.0234128
0.218654
0.229665
-0.0288917
-0.000238386
0.141958
-0.00182111
0.152205
-0.00411855
0.163535
-0.0069194
0.175618
-0.0102396
0.187772
-0.0141324
0.199922
-0.0186695
0.211975
-0.0239303
0.223914
0.235679
-0.0299442
6.01068e-05
0.141898
-0.00118174
0.153447
-0.00342284
0.165776
-0.00624889
0.178444
-0.00965651
0.19118
-0.013697
0.203963
-0.0184426
0.216721
-0.0239688
0.229441
0.24204
-0.0303297
-0.000284653
0.142183
-0.00108261
0.154245
-0.00300786
0.167701
-0.00564426
0.18108
-0.0089648
0.1945
-0.0130029
0.208001
-0.0178329
0.221551
-0.0235053
0.235113
0.248679
-0.0301444
-0.000730708
0.142914
-0.00123321
0.154747
-0.00273305
0.169201
-0.00502388
0.183371
-0.00810513
0.197582
-0.0120195
0.211915
-0.0168483
0.22638
-0.0226871
0.240952
0.255631
-0.029639
-0.000903029
0.143817
-0.00123285
0.155077
-0.00233728
0.170305
-0.00420974
0.185244
-0.00691836
0.20029
-0.010529
0.215526
-0.0151349
0.230986
-0.0208375
0.246655
0.262557
-0.0277635
-0.000787714
0.144604
-0.000931672
0.155221
-0.00165464
0.171028
-0.00305972
0.186649
-0.00529469
0.202525
-0.00845029
0.218682
-0.0126209
0.235156
-0.0178994
0.251933
0.269021
-0.0243643
-0.000534619
0.145139
-0.000352719
0.155039
-0.000635671
0.171311
-0.00151557
0.187529
-0.00319068
0.2042
-0.00579214
0.221283
-0.0094476
0.238812
-0.014326
0.256811
0.275264
-0.0205683
-0.000173339
0.145312
0.000498563
0.154367
0.000746806
0.171063
0.000459297
0.187816
-0.000554825
0.205214
-0.00244564
0.223174
-0.00535666
0.241723
-0.00953272
0.260987
0.280887
-0.0151561
0.000569363
0.144743
0.00173271
0.153204
0.00251536
0.17028
0.00283418
0.187497
0.0025396
0.205509
0.00147233
0.224241
-0.000486361
0.243681
-0.00372986
0.264231
0.285899
-0.00874185
0.00197028
0.142773
0.00343886
0.151735
0.0046398
0.169079
0.0055524
0.186585
0.00599907
0.205062
0.00579569
0.224445
0.00494539
0.244532
0.00283646
0.26634
0.29022
-0.00148462
0.00353342
0.00502779
0.00670682
0.00835667
0.00967646
0.010402
0.0109759
0.0110904
0.0115981
-0.0866095
-0.00120961
0.0878191
-0.0852613
-0.00134817
-0.0837673
-0.00149403
-0.0821155
-0.00165182
-0.0803001
-0.00181536
-0.0783137
-0.0019864
-0.07615
-0.00216372
-0.0738068
-0.00234318
-0.0712783
-0.00252851
-0.0685654
-0.00271286
-0.0656671
-0.00289833
-0.0625846
-0.00308252
-0.0593204
-0.00326418
-0.0558741
-0.00344621
-0.0522503
-0.00362387
-0.0484499
-0.00380032
-0.0444799
-0.00397005
-0.0403465
-0.00413338
-0.0360622
-0.00428425
-0.0316441
-0.00441803
-0.0271185
-0.00452561
-0.0225249
-0.00459361
-0.0179189
-0.00460597
-0.0133717
-0.0045472
-0.00895187
-0.00441977
-0.00467534
-0.00427651
-0.000457619
-0.0042177
0.00382826
-0.00428586
0.0083155
-0.00448723
0.0130814
-0.00476585
0.0180665
-0.00498516
0.0231649
-0.00509836
0.0283044
-0.00513944
0.0334269
-0.00512251
0.0384817
-0.00505477
0.0434292
-0.00494753
0.0482377
-0.00480844
0.0528808
-0.00464308
0.057341
-0.00446026
0.0616046
-0.0042636
0.0656653
-0.00406064
0.0695211
-0.00385582
0.0731713
-0.00365012
0.0766196
-0.00344832
0.0798671
-0.00324745
0.0829201
-0.003053
0.0857792
-0.00285916
0.0884499
-0.00267062
0.0909322
-0.0024823
0.093228
-0.00229586
0.0953442
-0.00211613
0.0972851
-0.00194093
0.0990629
-0.00177776
0.100684
-0.00162061
0.102157
-0.00147311
0.103493
-0.00133598
0.104699
-0.00120634
0.10579
-0.0010909
-0.000977927
-0.086504
-0.00244943
0.0877439
-0.0851703
-0.00268194
-0.0837333
-0.00293097
-0.0821838
-0.00320129
-0.0805159
-0.00348331
-0.078716
-0.00378625
-0.0767777
-0.00410201
-0.0746873
-0.0044336
-0.0724363
-0.00477946
-0.0700148
-0.00513438
-0.0674131
-0.00550001
-0.0646239
-0.00587175
-0.061638
-0.00625007
-0.0584552
-0.00662907
-0.0550718
-0.0070072
-0.0514883
-0.00738378
-0.0477079
-0.00775047
-0.0437375
-0.00810375
-0.0395837
-0.00843804
-0.0352589
-0.00874287
-0.0307751
-0.0090094
-0.0261404
-0.00922828
-0.0213554
-0.00939097
-0.0164011
-0.00950147
-0.0112459
-0.00957493
-0.00588167
-0.00964076
-0.000366834
-0.00973253
0.00520786
-0.00986055
0.0107446
-0.010024
0.0161863
-0.0102076
0.0215578
-0.0103566
0.0268903
-0.0104308
0.032175
-0.0104241
0.0373916
-0.0103392
0.0425128
-0.0101759
0.0475109
-0.00994562
0.0523581
-0.00965565
0.0570347
-0.00931964
0.0615201
-0.00894565
0.065801
-0.00854456
0.0698656
-0.00812519
0.073703
-0.00769319
0.0773121
-0.0072593
0.0806897
-0.0068259
0.0838378
-0.00639553
0.0867609
-0.00597603
0.0894677
-0.005566
0.0919631
-0.00516598
0.0942626
-0.0047818
0.0963793
-0.0044126
0.0983282
-0.00406504
0.100122
-0.00373486
0.101771
-0.00342673
0.103291
-0.00314049
0.104689
-0.00287096
0.10598
-0.00262677
0.10717
-0.00239633
0.108269
-0.0021902
-0.00200003
-0.0945898
-0.00383716
0.0959776
-0.0930947
-0.00417707
-0.0914844
-0.00454121
-0.0897563
-0.00492944
-0.0878952
-0.00534444
-0.0858942
-0.00578722
-0.0837429
-0.0062533
-0.0814344
-0.00674207
-0.0789575
-0.00725635
-0.0763021
-0.00778979
-0.0734594
-0.00834273
-0.0704221
-0.00890909
-0.0671843
-0.0094878
-0.0637401
-0.0100733
-0.0600848
-0.0106625
-0.0562211
-0.0112474
-0.0521453
-0.0118263
-0.0478618
-0.0123872
-0.0433745
-0.0129253
-0.0386877
-0.0134298
-0.0338035
-0.0138936
-0.0287253
-0.0143064
-0.0234516
-0.0146647
-0.0179833
-0.0149697
-0.012332
-0.0152262
-0.00652354
-0.0154493
-0.000601866
-0.0156542
0.00538654
-0.015849
0.0113919
-0.0160293
0.0173627
-0.0161784
0.0232734
-0.0162673
0.0291144
-0.0162718
0.0348714
-0.0161812
0.0405236
-0.0159913
0.0460531
-0.0157054
0.0514382
-0.0153307
0.0566577
-0.0148752
0.0616929
-0.0143548
0.0665277
-0.0137805
0.0711453
-0.0131621
0.0755364
-0.0125163
0.0796936
-0.0118504
0.0836121
-0.0111777
0.0872882
-0.0105021
0.0907298
-0.00983705
0.0939363
-0.00918258
0.0969176
-0.00854731
0.0996848
-0.00793319
0.102249
-0.00734579
0.104622
-0.0067853
0.106813
-0.00625666
0.108835
-0.00575694
0.110701
-0.00529232
0.112417
-0.00485717
0.113997
-0.00445074
0.115447
-0.00407679
0.116784
-0.00373348
0.118012
-0.00341768
-0.00312814
-0.101149
-0.00526737
0.102579
-0.0996078
-0.00571831
-0.0979427
-0.00620638
-0.0961455
-0.00672663
-0.0942095
-0.00728044
-0.0921252
-0.00787148
-0.0898833
-0.00849515
-0.0874695
-0.00915594
-0.0848777
-0.00984809
-0.0820973
-0.0105703
-0.0791198
-0.0113202
-0.0759311
-0.0120978
-0.0725269
-0.012892
-0.0688959
-0.0137044
-0.0650364
-0.014522
-0.0609398
-0.015344
-0.0566073
-0.0161588
-0.0520382
-0.0169562
-0.0472346
-0.0177289
-0.0421993
-0.0184651
-0.0369361
-0.0191569
-0.0314483
-0.0197942
-0.0257416
-0.0203713
-0.0198289
-0.0208824
-0.0137262
-0.021329
-0.00745985
-0.0217156
-0.00107177
-0.0220423
0.00538979
-0.0223105
0.0118743
-0.0225138
0.0183365
-0.0226406
0.0247434
-0.0226743
0.0310721
-0.0226005
0.0373005
-0.0224096
0.0434087
-0.0220995
0.0493726
-0.0216693
0.055173
-0.0211311
0.0607903
-0.0204925
0.0661993
-0.0197638
0.071383
-0.0189642
0.0763292
-0.0181084
0.0810258
-0.0172128
0.0854647
-0.0162894
0.0896413
-0.0153543
0.0935557
-0.0144165
0.0972066
-0.0134879
0.100606
-0.0125818
0.103757
-0.011698
0.106674
-0.010851
0.109365
-0.0100363
0.111846
-0.00926697
0.11413
-0.00854046
0.116231
-0.00785777
0.118157
-0.00721838
0.119928
-0.00662768
0.121555
-0.00607818
0.123052
-0.00557352
0.124427
-0.00510865
0.12569
-0.00468076
-0.00429378
-0.10968
-0.00683052
0.111243
-0.107984
-0.00741364
-0.106154
-0.00803686
-0.104179
-0.00870168
-0.10205
-0.00940937
-0.0997596
-0.0101617
-0.0972946
-0.0109601
-0.0946505
-0.0118001
-0.091815
-0.0126836
-0.0887783
-0.013607
-0.0855307
-0.0145678
-0.0820638
-0.0155646
-0.0783685
-0.0165873
-0.0744396
-0.0176332
-0.070267
-0.0186947
-0.0658483
-0.0197627
-0.0611805
-0.0208267
-0.0562601
-0.0218766
-0.051091
-0.0228981
-0.0456724
-0.0238837
-0.0400125
-0.0248167
-0.0341174
-0.0256893
-0.0279987
-0.0264901
-0.0216704
-0.0272107
-0.0151552
-0.0278441
-0.00848457
-0.0283862
-0.00169431
-0.0288326
0.00517522
-0.02918
0.0120811
-0.0294197
0.0189822
-0.0295416
0.0258422
-0.0295343
0.0326287
-0.029387
0.0393121
-0.0290929
0.0458671
-0.0286544
0.0522695
-0.0280717
0.0584909
-0.0273526
0.064509
-0.0265106
0.0703042
-0.025559
0.0758571
-0.0245171
0.0811554
-0.0234067
0.0861834
-0.0222409
0.0909391
-0.021045
0.0954154
-0.0198306
0.0996155
-0.0186166
0.103544
-0.0174159
0.107202
-0.0162402
0.110604
-0.0151004
0.113757
-0.014004
0.116674
-0.0129535
0.119366
-0.0119589
0.121848
-0.0110216
0.124131
-0.0101416
0.126235
-0.00932153
0.128164
-0.00855708
0.129937
-0.00785166
0.131565
-0.00720139
0.133059
-0.00660276
0.134432
-0.00605296
-0.00554894
-0.117613
-0.00847302
0.119256
-0.115833
-0.00919378
-0.11391
-0.00995962
-0.111832
-0.0107798
-0.109586
-0.0116555
-0.107167
-0.012581
-0.104562
-0.0135649
-0.10176
-0.0146021
-0.0987496
-0.0156941
-0.0955228
-0.0168338
-0.0920677
-0.018023
-0.0883759
-0.0192564
-0.0844358
-0.0205275
-0.0802389
-0.0218302
-0.0757797
-0.0231538
-0.0710528
-0.0244895
-0.0660542
-0.0258253
-0.0607878
-0.027143
-0.0552519
-0.0284339
-0.0494529
-0.0296827
-0.0433945
-0.0308751
-0.0370893
-0.0319946
-0.0305496
-0.0330298
-0.0237951
-0.0339653
-0.0168518
-0.0347874
-0.00975092
-0.0354871
-0.00252896
-0.0360545
0.00477661
-0.0364856
0.0121258
-0.036769
0.0194785
-0.0368943
0.026798
-0.0368538
0.0340464
-0.0366354
0.0411913
-0.0362378
0.0482037
-0.0356669
0.0550517
-0.0349197
0.0617106
-0.0340114
0.0681541
-0.0329542
0.0743514
-0.0317562
0.0802866
-0.0304523
0.0859417
-0.0290618
0.0913086
-0.0276078
0.096376
-0.0261125
0.101145
-0.0245995
0.105612
-0.023084
0.109785
-0.0215882
0.113667
-0.0201228
0.117268
-0.018701
0.120597
-0.0173333
0.12367
-0.0160268
0.1265
-0.0147886
0.129103
-0.0136249
0.131493
-0.012531
0.133684
-0.0115128
0.135694
-0.0105666
0.137537
-0.00969501
0.139223
-0.00888708
0.140766
-0.00814571
0.142182
-0.00746907
-0.00684357
-0.126384
-0.0102324
0.128144
-0.124476
-0.0111023
-0.122409
-0.0120266
-0.120174
-0.0130148
-0.117761
-0.0140682
-0.115157
-0.0151853
-0.112352
-0.0163699
-0.109333
-0.017621
-0.106095
-0.0189324
-0.102621
-0.0203076
-0.0989056
-0.0217382
-0.0949395
-0.0232224
-0.0907103
-0.0247567
-0.0862103
-0.0263302
-0.0814332
-0.0279309
-0.0763742
-0.0295486
-0.0710262
-0.0311733
-0.0653996
-0.0327696
-0.0594916
-0.0343419
-0.053311
-0.0358633
-0.0468595
-0.0373266
-0.0401523
-0.0387018
-0.0332049
-0.0399773
-0.0260325
-0.0411377
-0.0186703
-0.0421496
-0.0111485
-0.0430089
-0.00350644
-0.0436966
0.0042238
-0.0442159
0.0120045
-0.0445497
0.0197948
-0.0446845
0.0275607
-0.0446198
0.0352555
-0.0443301
0.0428453
-0.0438277
0.0503015
-0.0431232
0.057585
-0.0422032
0.064674
-0.0411004
0.0715394
-0.0398196
0.0781348
-0.0383517
0.0844512
-0.0367687
0.090469
-0.0350795
0.0961809
-0.0333197
0.101574
-0.0315056
0.106648
-0.0296732
0.111399
-0.0278351
0.115837
-0.0260264
0.119966
-0.0242513
0.123794
-0.0225297
0.127331
-0.0208697
0.130591
-0.019287
0.13359
-0.0177878
0.13634
-0.0163746
0.138865
-0.0150566
0.141177
-0.0138241
0.143292
-0.012682
0.145225
-0.0116283
0.146994
-0.0106559
0.148612
-0.00976347
0.15009
-0.00894694
-0.00819361
-0.135062
-0.012101
0.13693
-0.133043
-0.0131208
-0.130862
-0.014208
-0.128497
-0.015379
-0.125945
-0.0166203
-0.123186
-0.0179451
-0.120217
-0.0193389
-0.117014
-0.0208236
-0.113562
-0.0223843
-0.109873
-0.023997
-0.105923
-0.0256883
-0.101703
-0.0274424
-0.0972052
-0.0292543
-0.0924166
-0.0311188
-0.087333
-0.0330145
-0.0819422
-0.0349395
-0.076237
-0.0368784
-0.0702475
-0.0387591
-0.0639709
-0.0406186
-0.0574092
-0.042425
-0.0505593
-0.0441765
-0.0434468
-0.0458142
-0.0360916
-0.0473325
-0.0284808
-0.0487485
-0.0206873
-0.0499431
-0.0127285
-0.0509676
-0.0046621
-0.0517631
0.00350418
-0.0523821
0.0117276
-0.0527731
0.0199615
-0.0529184
0.028187
-0.0528453
0.0363287
-0.0524719
0.0443585
-0.0518574
0.0522733
-0.051038
0.0599889
-0.0499188
0.0675149
-0.0486263
0.0748381
-0.0471428
0.081836
-0.0453495
0.0885371
-0.0434699
0.0949245
-0.0414669
0.100984
-0.0393796
0.106714
-0.0372349
0.112085
-0.0350446
0.117109
-0.0328592
0.121816
-0.0307337
0.126174
-0.0286088
0.130222
-0.0265782
0.133956
-0.0246031
0.137371
-0.0227025
0.140497
-0.0209138
0.143355
-0.0192325
0.145967
-0.0176686
0.148351
-0.0162075
0.150524
-0.0148554
0.152506
-0.0136101
0.154316
-0.0124662
0.155966
-0.0114134
0.157477
-0.0104583
-0.00957607
-0.144255
0.14624
-0.0140855
-0.142106
-0.0152703
-0.139789
-0.0165244
-0.137274
-0.0178945
-0.134557
-0.0193367
-0.131605
-0.0208972
-0.128416
-0.0225281
-0.125021
-0.0242185
-0.121376
-0.0260292
-0.117395
-0.0279784
-0.113178
-0.0299048
-0.108675
-0.031945
-0.10384
-0.0340896
-0.0987451
-0.0362138
-0.0933108
-0.0384488
-0.0876252
-0.0406251
-0.0816276
-0.042876
-0.075286
-0.0451007
-0.0685849
-0.0473197
-0.0616202
-0.0493897
-0.0543547
-0.051442
-0.0468725
-0.0532964
-0.0391377
-0.0550673
-0.0310846
-0.0568016
-0.022854
-0.0581737
-0.0144711
-0.0593504
-0.00601033
-0.0602239
0.0026033
-0.0609958
0.011311
-0.0614808
0.0199624
-0.0615699
0.0286545
-0.0615373
0.0372611
-0.0610786
0.0456965
-0.0602927
0.0540816
-0.0594231
0.0622802
-0.0581174
0.0702611
-0.0566073
0.0779221
-0.0548038
0.0852426
-0.05267
0.092384
-0.0506113
0.0991455
-0.0482283
0.10556
-0.0457943
0.111665
-0.0433394
0.117377
-0.0407567
0.122726
-0.0382085
0.127712
-0.0357196
0.132317
-0.0332132
0.136554
-0.030816
0.140423
-0.0284715
0.144042
-0.0263216
0.147355
-0.0242274
0.15036
-0.0222368
0.153081
-0.0203902
0.15554
-0.018666
0.157794
-0.01711
0.159843
-0.0156591
0.161695
-0.0143176
0.163375
-0.0130936
0.164838
-0.011921
-0.0109591
-0.0492611
0.0116745
-0.0599251
0.010664
-0.0695844
0.00965931
-0.0780526
0.00846819
-0.0853612
0.00730857
-0.0918943
0.00653302
-0.0979949
0.00610062
-0.103821
0.00582617
-0.1094
0.00557854
-0.114362
0.00496257
-0.118085
0.00372293
-0.120244
0.00215876
-0.120958
0.000714141
-0.120686
-0.000271854
-0.119963
-0.000723405
-0.118902
-0.0010611
-0.117256
-0.00164597
-0.114914
-0.00234173
-0.112025
-0.00288836
-0.108735
-0.00329023
-0.105111
-0.00362431
-0.101186
-0.00392448
-0.0969912
-0.00419519
-0.0926039
-0.00438732
-0.00478481
-0.0537938
0.0214067
-0.0634905
0.0203606
-0.072698
0.0188668
-0.0813851
0.0171553
-0.0895678
0.0154913
-0.0971763
0.0141414
-0.104133
0.0130569
-0.110345
0.0120382
-0.115605
0.0108388
-0.119771
0.00912883
-0.122938
0.00688986
-0.125176
0.00439667
-0.126449
0.00198746
-0.126676
-4.55591e-05
-0.125854
-0.00154503
-0.12419
-0.00272466
-0.121968
-0.0038685
-0.119309
-0.0050007
-0.116188
-0.00600898
-0.112594
-0.0068846
-0.108553
-0.00766463
-0.104079
-0.00839865
-0.0991586
-0.00911592
-0.0936885
-0.00985738
-0.0107295
-0.0591251
0.0322708
-0.0695365
0.030772
-0.0794787
0.0288089
-0.0889253
0.0266019
-0.0977869
0.0243529
-0.105883
0.0222375
-0.113052
0.020226
-0.119183
0.0181693
-0.124211
0.0158662
-0.128222
0.0131401
-0.131343
0.0100116
-0.133642
0.00669508
-0.135128
0.00347311
-0.135743
0.000569902
-0.135395
-0.00189308
-0.134112
-0.0040076
-0.132059
-0.00592179
-0.129367
-0.00769261
-0.126084
-0.00929172
-0.122238
-0.0107305
-0.117867
-0.0120355
-0.113011
-0.0132546
-0.107713
-0.0144136
-0.102015
-0.0155562
-0.0167666
-0.064236
0.044354
-0.0755722
0.0421082
-0.0862795
0.0395162
-0.0963641
0.0366865
-0.105741
0.03373
-0.114254
0.0307501
-0.121753
0.0277247
-0.128147
0.0245634
-0.133417
0.0211369
-0.137645
0.0173679
-0.140941
0.0133076
-0.143371
0.00912538
-0.144936
0.00503814
-0.145604
0.00123771
-0.145315
-0.00218188
-0.14409
-0.00523249
-0.142017
-0.00799492
-0.139196
-0.0105143
-0.135678
-0.0128095
-0.131517
-0.0148916
-0.126747
-0.0168055
-0.121415
-0.0185866
-0.115559
-0.0202696
-0.109233
-0.0218818
-0.0234205
-0.0693847
0.0574686
-0.081696
0.0544195
-0.0932403
0.0510605
-0.104019
0.0474647
-0.11395
0.0436619
-0.122922
0.0397218
-0.130818
0.0356207
-0.137576
0.0313216
-0.143193
0.0267536
-0.147726
0.0219012
-0.151259
0.0168404
-0.153847
0.0117132
-0.155493
0.0066842
-0.156183
0.00192729
-0.155905
-0.00245961
-0.154667
-0.00647074
-0.152528
-0.0101334
-0.149572
-0.0134702
-0.145863
-0.0165183
-0.141461
-0.0192943
-0.136422
-0.0218441
-0.130809
-0.0241999
-0.124691
-0.0263874
-0.118152
-0.028421
-0.0303294
-0.0747209
0.0714058
-0.0879729
0.0676714
-0.100351
0.0634381
-0.111843
0.0589571
-0.122372
0.0541912
-0.131863
0.0492124
-0.140216
0.0439732
-0.147395
0.0385008
-0.153399
0.0327577
-0.158261
0.0267635
-0.162049
0.0206281
-0.164797
0.0144616
-0.166521
0.00840816
-0.167226
0.0026315
-0.166904
-0.00278113
-0.165592
-0.00778272
-0.163345
-0.0123801
-0.16022
-0.0165959
-0.156291
-0.0204468
-0.151618
-0.0239679
-0.146267
-0.0271948
-0.140295
-0.0301719
-0.133758
-0.0329242
-0.126715
-0.0354635
-0.0377891
-0.0801177
0.0865158
-0.0944094
0.0819631
-0.107644
0.0766729
-0.119881
0.0711939
-0.131052
0.0653617
-0.141113
0.0592739
-0.149957
0.0528169
-0.157585
0.0461286
-0.163982
0.0391548
-0.169175
0.0319564
-0.173217
0.0246703
-0.176141
0.0173861
-0.177948
0.0102149
-0.178652
0.00333536
-0.17829
-0.00314269
-0.176892
-0.00918108
-0.174509
-0.0147627
-0.17121
-0.0198958
-0.167058
-0.0245981
-0.162138
-0.0288881
-0.156509
-0.0328241
-0.150242
-0.0364382
-0.14338
-0.0397863
-0.13599
-0.0428532
-0.0456357
-0.0857666
0.103046
-0.101111
0.0973079
-0.115163
0.090725
-0.128156
0.0841869
-0.139996
0.0772015
-0.150668
0.0699453
-0.160023
0.0621726
-0.168106
0.0542115
-0.174914
0.0459628
-0.180431
0.0374734
-0.184712
0.0289512
-0.18782
0.0204939
-0.189704
0.0120992
-0.19041
0.00404145
-0.189993
-0.00355977
-0.188486
-0.0106889
-0.185951
-0.0172968
-0.182454
-0.0233934
-0.178064
-0.0289885
-0.172869
-0.0340829
-0.166936
-0.0387569
-0.160352
-0.0430224
-0.153121
-0.047017
-0.145298
-0.050676
-0.0540037
-0.0919774
0.120838
-0.108115
0.113445
-0.122866
0.105476
-0.136638
0.0979589
-0.149189
0.0897524
-0.160539
0.0812962
-0.170406
0.0720394
-0.178943
0.0627485
-0.186171
0.0531904
-0.192038
0.0433411
-0.196522
0.0334343
-0.199799
0.023771
-0.201785
0.0140859
-0.202466
0.00472183
-0.201984
-0.00404113
-0.200359
-0.0123141
-0.197648
-0.0200078
-0.193959
-0.0270826
-0.1893
-0.0336473
-0.183753
-0.0396306
-0.177474
-0.0450355
-0.170507
-0.0499896
-0.162843
-0.0546811
-0.15478
-0.0587391
-0.0625437
0.878588
4.51352
-0.424494
-4.08902
3.87876
-1.7554
-2.12335
0.260793
-0.359914
0.099121
0.322652
-0.391105
0.0684529
-1.06436
-0.538669
1.60302
-0.649055
0.86612
-0.217065
3.26308
-4.6148
1.35173
-0.049651
-0.166063
0.215714
5.49519
-3.74838
-1.74681
-0.962254
2.19852
-1.23626
-1.37966
0.395096
0.984561
1.49556
-2.51389
1.01834
-1.89435
0.690992
1.20336
0.105181
-0.103319
-0.00186126
5.77997
-5.69568
-0.0842944
1.25461
2.62415
0.11932
-0.0200197
-0.0993006
-0.278169
-0.267853
0.484153
0.362578
-0.846731
-0.324357
0.190009
0.134348
3.26747
2.38835
-5.65583
-1.51537
1.43588
0.0794881
1.6006
-1.4663
-0.134295
-1.2429
0.630576
0.612328
1.52707
0.073528
-1.31979
0.870147
0.449643
-0.249616
0.014969
0.234647
5.81479
-3.08317
-2.73162
-0.0378046
-0.124408
0.162212
-0.180741
0.774941
-0.5942
-2.66565
1.52263
1.14301
1.4
1.06685
-2.46686
3.39575
-5.91635
2.5206
-0.287864
-0.0642779
0.352142
-0.498748
2.76581
-2.26706
-1.14352
-0.750835
-4.69282