/*--------------------------------*- C++ -*----------------------------------*\
  =========                 |
  \\      /  F ield         | OpenFOAM: The Open Source CFD Toolbox
   \\    /   O peration     | Website:  https://openfoam.org
    \\  /    A nd           | Version:  10
     \\/     M anipulation  |
\*---------------------------------------------------------------------------*/
FoamFile
{
    format      ascii;
    class       volVectorField;
    location    "1950";
    object      U;
}
// * * * * * * * * * * * * * * * * * * * * * * * * * * * * * * * * * * * * * //

dimensions      [0 1 -1 0 0 0 0];

internalField   nonuniform List<vector> 
10435
(
(3.42646 1.6422 8.90161e-22)
(3.29268 2.16692 -5.37119e-20)
(4.19862 -0.343356 -2.86258e-20)
(4.3107 1.0683 9.87441e-20)
(3.56644 0.604515 -3.45574e-20)
(2.82523 -0.134564 2.22926e-19)
(4.4606 -0.316233 -9.88536e-20)
(5.18442 -0.272728 7.26462e-20)
(5.23378 -0.285847 2.63308e-19)
(3.21278 -0.317852 -6.0521e-20)
(3.43409 1.78103 -1.05335e-19)
(4.82043 0.175079 1.85823e-19)
(3.08228 -0.361451 6.36749e-20)
(1.47511 1.34958 -3.53069e-20)
(1.75357 1.51743 -3.75018e-20)
(4.93417 -0.310198 -7.27383e-21)
(1.21805 1.15853 1.15455e-20)
(2.63624 -0.302205 2.17515e-19)
(5.08135 -0.298196 -1.06519e-19)
(3.64734 1.53536 -1.64229e-20)
(5.05707 -0.292083 4.86731e-20)
(4.3621 0.880371 -1.49349e-19)
(4.72272 -0.314395 3.18889e-19)
(5.15261 -0.362328 -1.22806e-19)
(3.66157 -0.282175 7.18434e-20)
(0.331891 0.550509 -1.55256e-21)
(0.033081 0.250635 -3.80925e-21)
(3.66836 -0.336043 5.25777e-20)
(0.171801 0.08231 7.4742e-22)
(2.8716 -0.315456 3.27301e-19)
(4.45426 -0.253191 1.41813e-19)
(3.46689 1.55801 -6.81999e-21)
(5.25045 -0.265255 -1.56647e-19)
(0.426666 0.112586 8.03209e-21)
(5.24437 -0.341028 8.34365e-20)
(2.95037 2.51806 2.34449e-20)
(5.1556 -0.325999 1.20586e-19)
(0.183283 0.492485 1.39227e-20)
(0.509745 0.514216 -1.15754e-21)
(5.14248 -0.353749 3.30981e-20)
(2.63603 -0.304659 -3.24187e-19)
(4.46407 -0.309674 -8.02491e-20)
(1.04749 1.3436 -5.36456e-20)
(4.01669 1.45151 -1.50753e-19)
(4.96094 -0.30224 -2.49994e-19)
(5.16377 -0.389663 1.94813e-19)
(2.7382 -0.220146 -2.43596e-19)
(0.659505 0.969092 -1.66355e-19)
(5.2063 -0.246674 8.73043e-20)
(4.31827 0.648276 -4.94795e-20)
(5.16972 -0.296049 -1.14533e-20)
(3.79887 -0.106286 1.11549e-18)
(0.565516 0.550482 -3.90365e-21)
(0.252556 -0.0473489 8.1418e-22)
(0.455296 0.522952 6.87017e-22)
(0.117275 0.0313251 -2.12499e-21)
(5.22653 -0.328152 -3.66416e-19)
(0.174786 0.411306 8.22126e-21)
(0.775392 0.584895 -9.06946e-21)
(5.26621 -0.360254 2.5112e-19)
(0.511926 0.565768 2.62828e-21)
(3.1886 2.31671 4.7984e-20)
(0.167242 0.29291 -7.17998e-21)
(3.87628 0.033111 -9.41539e-20)
(4.83234 -0.304088 -4.53771e-19)
(4.01662 -0.337285 2.07463e-19)
(0.633963 0.378766 1.85901e-20)
(0.399127 0.551535 2.9831e-20)
(5.08138 -0.273634 -8.90477e-20)
(5.07588 -0.308419 9.54143e-21)
(0.202043 -0.0804033 -3.0764e-21)
(0.250117 0.556657 1.22941e-21)
(1.27771 1.62277 1.89665e-19)
(4.25622 -0.325997 -2.7359e-19)
(2.05783 1.67054 -1.44251e-20)
(1.4814 1.85735 1.53881e-20)
(5.00115 -0.232405 5.39238e-19)
(4.59591 -0.306361 2.5056e-19)
(5.26688 -0.234538 2.18958e-20)
(1.99415 1.39937 9.3001e-20)
(4.61835 0.256424 6.23893e-20)
(3.09883 1.47074 -2.44907e-22)
(0.620412 0.590598 5.27126e-21)
(0.295421 -0.0203312 -6.47573e-22)
(4.74202 0.0865342 -1.21096e-19)
(2.9485 2.39048 5.42763e-20)
(3.22367 2.15278 -1.30123e-22)
(3.89468 1.65485 3.05104e-20)
(2.54023 2.16048 -9.0576e-21)
(3.41749 2.07509 1.0463e-20)
(4.02211 1.46812 -2.65605e-20)
(4.13035 1.25824 -2.56614e-20)
(3.34345 1.39788 4.11506e-21)
(2.77069 2.19981 3.44841e-20)
(3.59189 1.96185 1.39986e-20)
(2.80903 2.55775 3.09733e-20)
(4.28156 1.01897 3.03286e-19)
(2.11642 1.90671 2.18171e-20)
(0.971067 0.784027 -1.48792e-20)
(4.19845 0.816534 -2.61314e-19)
(2.33147 2.05187 3.94634e-20)
(2.92944 0.484646 -1.36135e-19)
(3.00386 2.19571 -1.84798e-20)
(3.75215 1.81924 -1.55804e-20)
(2.89119 0.282766 -6.88467e-21)
(4.1709 1.27157 9.18468e-21)
(3.57164 1.28679 6.09294e-21)
(4.4767 0.441762 7.19045e-20)
(4.86768 -0.0547357 -1.50342e-19)
(2.27632 1.47321 -2.46256e-20)
(4.15643 0.824794 -1.98753e-20)
(2.98266 0.684126 -7.70016e-20)
(2.83473 1.50389 -2.64588e-20)
(2.55938 1.50915 -2.02195e-20)
(4.04737 1.03405 -1.62102e-19)
(4.2072 1.07078 3.9984e-20)
(4.32006 0.599827 -1.36978e-19)
(3.12689 2.34746 -1.68792e-20)
(3.67554 1.83036 -1.68637e-19)
(4.54447 0.554391 -3.85592e-20)
(4.44883 0.416749 -4.17557e-19)
(1.62393 2.0775 1.58067e-20)
(3.28396 2.26611 4.07447e-20)
(2.33035 2.61483 -1.25802e-19)
(3.05171 1.43571 2.97723e-20)
(0.431931 0.567825 1.51214e-21)
(4.43154 0.766423 2.73742e-19)
(1.90496 2.32204 -3.11364e-20)
(3.99043 0.59432 -2.56342e-19)
(0.0980427 0.46857 -1.20678e-21)
(2.14571 2.49819 5.46215e-20)
(3.05936 1.66905 -1.71883e-19)
(5.08862 -0.312121 -1.26694e-19)
(1.71368 1.28228 7.28717e-20)
(0.209101 0.527109 2.09006e-22)
(0.830025 0.791949 5.26772e-22)
(2.60752 2.68666 3.77625e-20)
(4.45036 0.848752 -1.82503e-20)
(3.5601 2.00192 4.33082e-20)
(4.03501 1.24294 3.57941e-20)
(3.84859 1.40103 4.95712e-21)
(4.67964 -0.289086 -5.10369e-19)
(0.534039 0.252365 5.12759e-20)
(4.45159 -0.00268851 1.1586e-18)
(4.50694 0.679353 2.49938e-20)
(1.92802 2.0485 1.33825e-19)
(2.48109 2.68088 -1.43046e-20)
(3.46487 -0.0180094 -3.16306e-19)
(1.26734 1.38818 6.35536e-20)
(4.75877 -0.0155309 7.13866e-20)
(0.556619 0.859285 -6.17989e-22)
(5.06104 -0.282546 2.23666e-19)
(3.46184 1.86208 2.37349e-21)
(4.69052 -0.0953766 4.95832e-19)
(3.45218 -0.177348 -2.76714e-19)
(0.4595 0.713323 4.96137e-21)
(3.02704 1.17576 2.30994e-19)
(3.42774 2.14844 -4.14541e-21)
(3.26225 -0.244012 -2.1818e-19)
(3.03123 2.13177 -2.30317e-20)
(4.82835 -0.20172 -9.30728e-20)
(1.45289 1.13647 -1.51492e-20)
(3.8566 1.3961 1.87488e-19)
(4.87554 0.154973 1.36313e-19)
(2.34548 1.75273 4.17068e-20)
(4.20568 0.372721 9.47384e-19)
(5.2778 -0.292333 -2.43049e-19)
(4.69695 0.438192 -1.26089e-19)
(5.04618 -0.124985 1.85235e-19)
(4.21367 0.139828 -1.64502e-18)
(3.74762 -0.237588 2.50068e-19)
(1.06642 1.35178 -6.00374e-20)
(0.00314256 0.155898 1.87309e-21)
(2.14562 2.1374 -3.29901e-21)
(4.96395 -0.0858292 -2.69369e-19)
(2.97874 2.31821 -2.91798e-20)
(3.07652 2.43511 -2.84827e-20)
(0.804933 0.987442 2.30439e-20)
(3.97821 0.993101 1.16577e-20)
(0.236687 0.141584 -1.03561e-21)
(3.37737 1.98662 6.49992e-20)
(2.88035 -0.0163243 -3.89751e-20)
(4.76705 0.0942836 -6.44711e-19)
(0.495614 0.596814 1.09271e-21)
(4.79628 -0.259468 7.15265e-20)
(0.912379 1.23022 7.73083e-20)
(1.35199 1.72438 -1.75101e-19)
(4.75768 -0.306642 -2.01137e-19)
(3.47758 0.434055 9.63532e-20)
(4.18591 -0.0642614 -7.56525e-19)
(4.63099 0.291682 1.01919e-19)
(0.673249 0.636839 5.39327e-21)
(0.14082 0.505306 2.06448e-21)
(2.71946 2.6579 -1.06734e-20)
(3.00294 0.926133 1.04356e-19)
(4.94869 -0.293497 1.25762e-20)
(1.33947 1.60889 1.69813e-19)
(2.74855 2.39252 -2.39984e-20)
(0.746468 1.01922 1.68015e-19)
(5.05022 -0.321527 1.80862e-19)
(2.45632 1.96987 -4.75373e-20)
(0.27918 0.584279 1.25634e-20)
(3.40069 -0.34115 -1.51303e-20)
(0.246344 0.524463 1.28248e-20)
(3.7807 -0.335657 -5.94449e-20)
(3.8097 1.04045 -1.30746e-21)
(3.76332 1.63335 1.88166e-19)
(4.58488 0.630857 -8.97575e-20)
(0.2333 0.27878 -7.29816e-21)
(4.64464 0.481934 -6.3929e-20)
(0.661353 0.912717 -2.74535e-20)
(4.52919 -0.306149 -4.12099e-19)
(4.50714 0.201476 9.36702e-19)
(4.95559 0.0575883 6.83394e-20)
(0.0609202 0.231824 2.27263e-21)
(1.54601 1.59888 -1.63448e-19)
(2.64118 1.76071 1.16093e-20)
(0.653662 0.747288 -4.25446e-21)
(0.314114 0.524547 1.45045e-21)
(1.20947 0.96643 1.57286e-20)
(0.278233 0.0934773 -7.10545e-22)
(0.840824 0.906826 4.87118e-20)
(0.451297 0.316644 -2.94691e-20)
(2.24734 2.36167 -2.05632e-19)
(0.369753 0.616273 9.64679e-22)
(5.18093 -0.326308 -5.94796e-20)
(0.391343 0.516029 -3.28885e-21)
(2.52892 2.3444 2.34136e-20)
(4.2469 -0.172442 8.16781e-19)
(1.78367 2.12221 -1.39826e-19)
(0.613665 0.722769 -1.68551e-19)
(5.24623 -0.314096 2.63545e-19)
(0.356796 0.522729 -4.58785e-21)
(5.08962 -0.266034 2.67104e-19)
(0.0664469 0.390508 9.59348e-21)
(0.977388 0.971818 -8.16091e-20)
(5.21053 -0.329308 -3.42365e-19)
(0.320211 0.576763 -2.017e-21)
(5.16157 -0.282794 -2.21284e-20)
(4.14379 -0.240409 5.06349e-21)
(3.84872 1.61217 4.71244e-20)
(0.440874 0.626859 4.5596e-22)
(0.717646 0.842364 5.96573e-22)
(0.163755 0.00198723 -1.93209e-22)
(3.82341 1.24092 -3.4318e-19)
(5.27361 -0.259437 8.58948e-20)
(2.64754 2.55498 -1.04155e-19)
(4.98677 -0.263073 7.07497e-20)
(0.0243567 0.0291014 5.66345e-22)
(2.9008 2.46593 2.07557e-20)
(0.0790252 -0.0372416 -6.06968e-22)
(2.73104 1.98232 -3.40943e-20)
(3.08545 -0.331703 -1.10963e-19)
(4.76725 0.30261 -1.1926e-19)
(4.83656 -0.288619 -1.70244e-19)
(3.86316 0.27294 3.77792e-19)
(0.0392514 -0.00775112 -1.74114e-21)
(4.70445 -0.286574 2.38362e-19)
(0.579707 0.789614 2.04682e-21)
(0.410242 0.691698 -4.56396e-20)
(4.55464 -0.301542 1.17499e-20)
(3.9011 -0.202685 2.47527e-21)
(0.392226 0.584827 5.03078e-22)
(4.98621 -0.106983 -2.86642e-19)
(2.91575 1.75063 8.80717e-21)
(0.704409 0.673572 9.34759e-20)
(3.66422 1.75114 8.00622e-21)
(4.53021 -0.302736 2.56938e-19)
(0.608639 0.650027 -1.42001e-21)
(3.89956 0.836233 5.23715e-20)
(4.42242 -0.321934 -1.87727e-22)
(5.12228 -0.225375 -3.64304e-20)
(4.94619 -0.256554 -2.54636e-20)
(3.74311 -0.308928 -2.65059e-19)
(0.265225 0.532564 -1.40265e-21)
(4.63321 0.391856 -1.7717e-19)
(0.144255 0.474477 -8.44301e-21)
(3.48493 0.86417 3.93323e-20)
(4.90744 -0.314258 6.93993e-20)
(5.19192 -0.206123 1.46693e-20)
(3.32708 -0.336626 1.31897e-19)
(1.04991 1.29352 -2.43036e-19)
(4.24902 -0.326196 -6.9057e-21)
(2.34292 2.25486 -1.56141e-20)
(2.98606 1.97703 -1.38958e-20)
(0.723165 0.756272 -2.08401e-21)
(3.47074 0.251921 5.77092e-20)
(0.432573 0.498457 -1.18028e-21)
(0.34265 0.00694722 -3.48848e-21)
(0.348948 0.116824 1.98328e-21)
(2.44808 2.49184 1.60319e-19)
(3.05926 1.91065 1.91611e-19)
(0.295866 0.232679 4.01126e-21)
(5.04629 -0.234987 6.96376e-20)
(0.48958 0.476502 -1.63256e-22)
(0.154474 -0.0800929 6.91914e-22)
(1.66116 1.86897 -3.93316e-21)
(3.18205 1.71421 3.82609e-21)
(3.46217 1.10862 -4.9879e-21)
(4.16227 -0.295816 1.6387e-19)
(0.545533 0.757754 2.61223e-19)
(5.10216 -0.227569 -9.90782e-20)
(4.05541 -0.321277 -2.41163e-21)
(0.0135136 0.0676233 4.38313e-22)
(3.46322 1.34513 -8.83673e-20)
(1.82313 1.77579 8.60141e-20)
(1.0243 1.16303 8.93132e-20)
(5.10173 -0.228399 -2.15253e-20)
(4.09909 -0.311671 -2.20957e-21)
(0.388782 0.0271918 1.34614e-21)
(3.77989 1.15202 1.0716e-20)
(0.298876 0.59786 6.09888e-21)
(2.81949 2.57991 -8.90982e-21)
(3.43155 0.113653 -1.67196e-19)
(5.28099 -0.319816 -4.61929e-20)
(0.117234 -0.0593286 2.29914e-22)
(0.526768 0.646789 -2.06838e-21)
(4.52059 -0.143968 -9.18378e-19)
(0.472076 0.521048 2.51384e-21)
(4.77858 0.287484 1.48615e-19)
(2.83138 0.125045 -5.89924e-20)
(0.134551 0.205452 5.69229e-21)
(3.23552 1.93784 -2.40379e-21)
(0.728049 0.689925 2.45066e-21)
(5.24761 -0.197761 -9.32354e-21)
(3.48627 -0.33128 -5.71142e-20)
(0.227418 0.537775 -2.61526e-22)
(3.86542 -0.324079 -3.04298e-22)
(0.549288 0.470784 -1.18953e-21)
(0.114842 0.396625 -1.17725e-20)
(5.26031 -0.351365 1.55805e-21)
(0.443639 0.177912 -4.39723e-21)
(0.429141 0.0435008 1.82516e-21)
(4.24062 -0.332715 8.65302e-21)
(4.93504 -0.158021 2.3101e-19)
(0.240008 0.40787 -2.29678e-20)
(0.114098 -0.0395653 5.55454e-22)
(0.0363039 0.0125414 2.04141e-22)
(0.48456 0.0894707 1.14319e-21)
(0.029041 0.125246 4.31515e-22)
(0.197146 0.529729 7.88079e-22)
(0.33551 0.619866 5.43668e-21)
(0.562689 0.600332 -4.78043e-22)
(0.00255572 0.159693 -9.02092e-22)
(0.0059997 0.112421 3.27112e-22)
(0.430757 0.717307 -6.18561e-21)
(0.302779 0.395918 6.58891e-21)
(0.00725398 0.340065 -1.49905e-22)
(0.776339 0.738675 -4.22577e-21)
(5.27638 -0.216799 -5.62917e-20)
(0.461183 0.0625489 4.13311e-21)
(3.69851 -0.33596 6.73553e-21)
(0.00853242 0.212932 1.70844e-22)
(3.65145 -0.333063 -1.27887e-21)
(5.26441 -0.191225 2.48894e-20)
(5.16421 -0.203854 -2.07968e-20)
(3.00938 -0.394251 -2.68621e-21)
(4.43728 -0.328292 -1.74412e-19)
(0.208023 -0.0233729 2.34299e-21)
(0.364908 0.0598253 -7.51417e-21)
(0.0739227 -0.00924638 -6.01565e-22)
(0.374725 0.541403 4.3472e-21)
(0.0518652 0.0921521 -9.88914e-24)
(0.668577 0.701267 2.16841e-21)
(0.0824163 0.192001 -2.48249e-21)
(0.168148 0.513528 4.97961e-22)
(0.329698 0.55289 -6.52923e-20)
(4.966 -0.017298 -2.03621e-20)
(0.178578 0.525545 -4.45458e-21)
(5.26461 -0.231777 6.31199e-20)
(0.408218 0.529266 -8.8105e-22)
(0.137567 0.489976 -6.80702e-22)
(2.82116 -0.438035 -2.55647e-20)
(5.06356 -0.211319 -6.86882e-20)
(0.779739 0.829422 1.91321e-20)
(0.00430375 0.270339 -2.05752e-23)
(0.117513 0.301903 2.50162e-21)
(0.0214616 0.304429 6.42349e-23)
(0.309314 0.0398549 2.19306e-21)
(0.279725 0.551193 -5.08823e-22)
(-0.00124234 0.322908 2.08011e-22)
(0.462487 0.545016 -1.29893e-21)
(5.24262 -0.230341 -1.60482e-20)
(0.368387 0.36151 -1.09599e-20)
(5.09614 -0.253939 8.36612e-21)
(5.26136 -0.187654 8.61568e-20)
(3.42039 -0.345186 -4.52328e-22)
(3.19389 -0.36838 5.23073e-20)
(5.23379 -0.198752 -3.85039e-20)
(3.87042 -0.322129 -1.74102e-20)
(5.27319 -0.332821 -5.62594e-20)
(2.0527 2.33029 6.18105e-21)
(0.854022 1.09714 -3.50689e-20)
(0.213443 0.0426122 3.05087e-21)
(0.154035 -0.0558767 -2.09991e-21)
(4.04915 -0.320717 2.54173e-20)
(0.254163 0.00715214 -6.58736e-21)
(2.83749 -0.384253 -1.24623e-19)
(0.00825385 0.351587 2.13384e-22)
(0.18144 0.180763 -7.08441e-22)
(0.101271 0.453826 -7.46701e-23)
(0.367403 0.208212 -2.69471e-21)
(0.564653 0.713334 4.99613e-21)
(4.67782 -0.30812 3.74374e-19)
(0.0775131 0.315267 -7.66494e-22)
(5.1829 -0.24316 3.55178e-21)
(5.08043 -0.184833 -1.09328e-19)
(0.796462 0.963363 -2.75187e-21)
(0.236713 0.542438 5.06587e-22)
(0.0508628 0.389339 -6.68205e-24)
(5.08022 -0.24285 9.36999e-20)
(0.077663 0.425324 1.13299e-21)
(0.205505 0.533481 2.23809e-22)
(0.463442 0.671159 -6.30021e-21)
(0.0836027 0.0633895 4.6212e-22)
(0.462989 0.732281 2.48982e-20)
(0.101683 0.144978 3.15772e-22)
(3.97344 -0.327409 1.43447e-19)
(0.14236 -0.083405 8.40779e-23)
(0.265431 0.554151 1.75394e-21)
(0.133129 0.121154 -1.26009e-21)
(0.53379 0.15956 -2.50483e-20)
(2.57142 -0.327856 -1.03356e-19)
(0.938614 1.04119 2.79644e-20)
(0.864569 0.863396 -5.39063e-20)
(4.91453 -0.208987 -1.44457e-19)
(0.415004 0.0707056 -1.94664e-21)
(0.407145 -0.358497 1.68484e-21)
(0.428696 -0.340458 3.67185e-23)
(0.47909 -0.340585 -1.34148e-21)
(0.514786 -0.340059 7.00424e-22)
(0.55434 -0.340871 -8.72203e-22)
(0.586219 -0.340972 -2.73362e-21)
(0.617283 -0.34105 6.91451e-22)
(0.643389 -0.341183 8.66021e-22)
(0.668255 -0.339885 9.6503e-22)
(0.440383 -0.345633 -1.34026e-21)
(0.461403 -0.335085 -2.15372e-22)
(0.509437 -0.333606 1.22024e-21)
(0.545668 -0.333893 -2.63438e-21)
(0.583229 -0.334248 2.16934e-21)
(0.614625 -0.334615 3.96386e-21)
(0.643979 -0.334637 -2.50469e-21)
(0.668995 -0.334518 2.99198e-21)
(0.690766 -0.333383 -1.38945e-21)
(0.475038 -0.329766 3.64188e-21)
(0.493506 -0.323276 1.24959e-21)
(0.539862 -0.32186 -2.95482e-21)
(0.575739 -0.322946 1.50872e-21)
(0.611693 -0.323315 -4.27235e-21)
(0.642255 -0.323858 -7.63103e-22)
(0.670138 -0.323955 2.28715e-23)
(0.693833 -0.323812 -1.41591e-21)
(0.714079 -0.322864 -2.80916e-21)
(0.506904 -0.312372 -2.01318e-21)
(0.523885 -0.307157 1.75992e-21)
(0.569239 -0.305987 2.55297e-21)
(0.604855 -0.307653 7.373e-23)
(0.639538 -0.308125 1.92264e-21)
(0.669292 -0.308766 6.49155e-21)
(0.695966 -0.308848 -4.05193e-21)
(0.718612 -0.30859 7.52438e-22)
(0.737976 -0.307465 1.7898e-21)
(0.536612 -0.29254 1.52622e-23)
(0.552855 -0.287422 -6.44474e-22)
(0.597339 -0.28635 2.75474e-22)
(0.632776 -0.28811 -1.61314e-21)
(0.666515 -0.288599 6.85659e-22)
(0.695628 -0.289172 -1.44496e-21)
(0.721462 -0.289103 8.17728e-22)
(0.743483 -0.288608 3.25976e-21)
(0.762584 -0.286937 8.46224e-22)
(0.564353 -0.269673 3.78212e-22)
(0.580322 -0.264182 -4.02353e-21)
(0.623971 -0.263056 2.60425e-22)
(0.659349 -0.264419 3.84594e-21)
(0.692439 -0.264721 -1.28166e-21)
(0.721142 -0.265012 -1.91427e-21)
(0.746488 -0.264639 -6.1002e-22)
(0.768248 -0.26379 -5.90727e-21)
(0.787194 -0.261946 3.54624e-21)
(0.58954 -0.244488 4.50836e-22)
(0.606089 -0.237771 2.93551e-21)
(0.649019 -0.236278 5.1701e-22)
(0.684481 -0.236687 -1.92009e-21)
(0.717177 -0.236499 4.20364e-22)
(0.74572 -0.236222 -1.01203e-21)
(0.77092 -0.235292 1.57e-21)
(0.792731 -0.233813 -1.55024e-21)
(0.811832 -0.231364 -1.06413e-21)
(0.611183 -0.217939 -1.37425e-21)
(0.630477 -0.208459 2.63636e-21)
(0.672622 -0.206055 -6.17022e-22)
(0.708148 -0.204973 1.25009e-21)
(0.740605 -0.203967 -9.3466e-22)
(0.769213 -0.202832 2.80627e-21)
(0.794581 -0.201084 4.00676e-21)
(0.81676 -0.198825 -5.62901e-21)
(0.836463 -0.195017 1.72834e-21)
(0.629754 -0.187361 -3.7675e-22)
(0.65419 -0.175397 5.51891e-22)
(0.694939 -0.171825 3.74164e-22)
(0.730227 -0.169194 -1.33092e-21)
(0.762517 -0.16718 -3.70056e-22)
(0.791392 -0.164926 -1.21927e-21)
(0.817201 -0.162065 -6.92517e-22)
(0.840064 -0.158594 5.64029e-21)
(0.860391 -0.154132 -6.53354e-22)
(0.64733 -0.149665 7.1729e-22)
(0.676763 -0.137408 -2.0361e-21)
(0.715251 -0.133167 -1.1565e-21)
(0.750181 -0.129489 3.13617e-22)
(0.78254 -0.126404 -4.18622e-22)
(0.811972 -0.122788 1.87674e-21)
(0.838535 -0.118444 2.70357e-22)
(0.862304 -0.113329 3.79011e-21)
(0.88351 -0.106977 -1.64305e-22)
(0.665872 -0.107124 -7.32115e-22)
(0.696504 -0.0961718 -1.99635e-22)
(0.732241 -0.0914651 8.02354e-22)
(0.767316 -0.0868628 1.2896e-21)
(0.800273 -0.082388 -3.8768e-22)
(0.830677 -0.0770495 -4.43071e-22)
(0.858377 -0.0708397 -1.16114e-21)
(0.883463 -0.0636766 -4.30839e-21)
(0.90598 -0.0553124 -6.60277e-22)
(0.683747 -0.0646503 1.3129e-21)
(0.711334 -0.0556919 1.93903e-21)
(0.745661 -0.049123 -1.5313e-21)
(0.781579 -0.0428084 8.10895e-22)
(0.815632 -0.0361312 -1.48356e-22)
(0.847306 -0.0285125 2.54836e-21)
(0.876326 -0.0200086 2.47204e-22)
(0.902764 -0.0105166 -2.12693e-21)
(0.926789 -0.000990676 -1.56791e-21)
(0.696616 -0.024938 3.16851e-22)
(0.722449 -0.0167912 -4.12257e-22)
(0.756623 -0.00711264 7.59788e-23)
(0.793614 0.00194925 5.23214e-22)
(0.828918 0.0117409 -3.55129e-22)
(0.861955 0.0223111 -4.58314e-22)
(0.892369 0.0337571 -8.58249e-22)
(0.920169 0.0460433 1.61185e-21)
(0.945737 0.0592418 -9.80986e-22)
(0.703925 0.0140114 -4.43527e-22)
(0.730968 0.0220766 -1.68443e-23)
(0.765858 0.0352203 -2.90552e-22)
(0.803917 0.0475832 8.2278e-22)
(0.840368 0.0610257 -1.50752e-22)
(0.874678 0.0749431 -8.82161e-23)
(0.906438 0.0896208 -5.95023e-22)
(0.935641 0.104901 7.49867e-23)
(0.962322 0.121384 5.6686e-22)
(0.705359 0.0543723 1.40399e-21)
(0.736844 0.0623566 -2.132e-22)
(0.77335 0.0791007 1.62536e-21)
(0.812472 0.0947718 -2.34744e-21)
(0.849898 0.111948 2.65492e-22)
(0.88533 0.129357 8.56252e-22)
(0.918341 0.147495 6.09476e-22)
(0.948955 0.1663 8.84751e-22)
(0.977174 0.186304 -3.15937e-21)
(0.699652 0.099417 6.57098e-22)
(0.739187 0.106254 -6.23764e-22)
(0.778359 0.126013 -2.34436e-21)
(0.818639 0.144311 3.12514e-21)
(0.856999 0.164741 1.07262e-21)
(0.893513 0.185365 -5.67549e-22)
(0.927782 0.206779 -6.43099e-23)
(0.959761 0.228922 2.39727e-21)
(0.989064 0.251747 -1.05348e-21)
(0.690632 0.149073 2.8681e-21)
(0.735266 0.155091 -1.97166e-21)
(0.778922 0.176549 2.27073e-21)
(0.821035 0.196481 -1.55139e-21)
(0.860658 0.219369 -1.65701e-21)
(0.898413 0.242763 6.66889e-21)
(0.933993 0.267197 -4.42769e-21)
(0.967359 0.292591 -1.81052e-21)
(0.998666 0.318092 4.49375e-22)
(0.681139 0.199135 -3.83839e-21)
(0.726024 0.205527 2.77275e-21)
(0.773768 0.228881 -1.29047e-21)
(0.818449 0.250149 2.01659e-21)
(0.859947 0.275084 4.6077e-22)
(0.899379 0.301036 -5.47644e-21)
(0.936585 0.328521 5.06285e-22)
(0.971507 0.357421 -2.66522e-21)
(1.00432 0.387329 -3.45827e-21)
(0.67007 0.246922 -8.26122e-22)
(0.712468 0.254478 -6.39003e-22)
(0.76317 0.280452 -1.48043e-21)
(0.810579 0.303547 -5.91954e-21)
(0.8544 0.330565 1.44582e-21)
(0.895986 0.358995 2.51175e-21)
(0.935326 0.389352 2.89225e-21)
(0.972463 0.421357 3.6422e-21)
(1.00726 0.455142 -1.71744e-21)
(0.656393 0.292428 6.54205e-22)
(0.695433 0.301068 1.59463e-22)
(0.747909 0.329829 5.1911e-21)
(0.797625 0.355312 -4.44219e-22)
(0.843836 0.384639 2.55006e-21)
(0.887745 0.415642 -1.75226e-21)
(0.929374 0.448815 -1.22818e-20)
(0.968883 0.483804 -1.89975e-21)
(1.00668 0.520427 -2.70806e-22)
(0.638767 0.336375 1.57523e-21)
(0.674648 0.345297 -7.25954e-21)
(0.728367 0.376373 4.46144e-21)
(0.779854 0.404568 -5.23681e-21)
(0.828329 0.436457 3.99119e-21)
(0.874571 0.470324 -9.50063e-22)
(0.918521 0.506633 3.66848e-21)
(0.960246 0.545052 3.3038e-21)
(0.999231 0.586116 -1.17882e-21)
(0.617119 0.378225 3.72196e-21)
(0.64947 0.386668 6.74436e-21)
(0.704616 0.419344 -1.22689e-20)
(0.757415 0.450527 1.43578e-21)
(0.807944 0.485152 -1.10348e-20)
(0.856448 0.522066 3.18711e-21)
(0.902908 0.561557 1.25576e-21)
(0.947684 0.603386 -1.87435e-21)
(0.989169 0.649781 -9.23181e-22)
(0.592803 0.41431 -2.47843e-21)
(0.620389 0.424003 -5.75001e-21)
(0.677367 0.458059 6.83854e-21)
(0.730903 0.492879 7.16474e-21)
(0.78308 0.530491 7.78321e-21)
(0.833456 0.57066 -5.21246e-22)
(0.88212 0.613287 -2.63586e-21)
(0.929838 0.658692 7.73363e-21)
(0.974083 0.709464 -2.06905e-20)
(0.565974 0.440804 8.51479e-22)
(0.588199 0.455825 3.08185e-21)
(0.646084 0.491283 -2.01088e-21)
(0.699169 0.53013 3.8275e-21)
(0.7522 0.57085 -7.34651e-21)
(0.803861 0.614614 -2.00571e-21)
(0.854238 0.660391 1.11348e-20)
(0.905297 0.709707 -1.1698e-20)
(0.954145 0.768357 1.30317e-20)
(0.534755 0.460676 1.63918e-21)
(0.556581 0.488207 5.01661e-22)
(0.615836 0.527339 2.05991e-21)
(0.668446 0.568969 -4.44138e-21)
(0.721921 0.612185 1.22813e-21)
(0.773468 0.65871 -6.25097e-21)
(0.82418 0.706534 4.29124e-21)
(0.879915 0.757931 -4.09424e-21)
(0.931649 0.818646 -5.314e-22)
(0.326903 0.287404 -3.30599e-22)
(0.32011 0.285597 -4.03435e-22)
(0.312914 0.283325 -1.28268e-21)
(0.304968 0.28068 1.80918e-21)
(0.296274 0.277639 -1.36501e-21)
(0.286816 0.274151 1.03803e-21)
(0.27659 0.270155 4.02058e-22)
(0.265609 0.265593 -1.15434e-22)
(0.253904 0.260392 -7.52813e-22)
(0.241527 0.254479 -3.06966e-22)
(0.228551 0.247778 3.44141e-22)
(0.215067 0.240207 -3.75584e-22)
(0.201189 0.231688 1.04955e-21)
(0.187046 0.222147 -2.66445e-21)
(0.172768 0.211508 4.62379e-21)
(0.1585 0.199713 -5.228e-21)
(0.144388 0.186721 4.64899e-21)
(0.130571 0.172509 -2.1145e-21)
(0.117184 0.157092 -6.97818e-22)
(0.104345 0.140527 7.24351e-22)
(0.0921408 0.122926 -2.49728e-22)
(0.0806034 0.104469 5.51762e-22)
(0.0696192 0.085355 2.92601e-23)
(0.0590358 0.0661027 -7.6917e-22)
(0.0486762 0.0470331 6.02925e-22)
(0.0395384 0.0280721 -3.18877e-22)
(0.0337181 0.00895919 4.2825e-22)
(0.0321645 -0.0108153 3.30573e-22)
(0.0349976 -0.0313553 -4.05986e-22)
(0.0409337 -0.0529307 1.07542e-23)
(0.0475452 -0.0755939 -3.55405e-22)
(0.0543312 -0.0986571 3.2818e-22)
(0.0620248 -0.121711 6.2491e-22)
(0.0709195 -0.14453 -5.21333e-22)
(0.0810527 -0.166699 7.5252e-22)
(0.0924122 -0.18797 -1.2363e-21)
(0.104905 -0.208134 1.06858e-22)
(0.118389 -0.227027 2.64315e-22)
(0.13271 -0.244537 -4.1102e-22)
(0.1477 -0.260589 9.22531e-22)
(0.163201 -0.275153 -5.18062e-22)
(0.179059 -0.288236 -2.22928e-21)
(0.195117 -0.299866 4.59435e-21)
(0.211228 -0.310101 -4.88896e-21)
(0.227251 -0.319025 4.23937e-21)
(0.243042 -0.326732 -2.49973e-21)
(0.258463 -0.33332 1.28374e-21)
(0.273388 -0.338905 -4.58794e-22)
(0.287694 -0.343592 4.07772e-22)
(0.301276 -0.347478 -4.59145e-22)
(0.314088 -0.350653 -6.12935e-22)
(0.326113 -0.353197 -1.61945e-22)
(0.337344 -0.355192 3.56608e-22)
(0.347782 -0.356721 8.4119e-22)
(0.357436 -0.357854 -1.28409e-21)
(0.36633 -0.358656 1.67356e-21)
(0.374496 -0.359182 -1.14795e-21)
(0.381962 -0.359469 -4.01112e-22)
(0.388824 -0.359616 -2.88108e-22)
(0.343494 0.258319 -1.68736e-23)
(0.337264 0.256669 4.56145e-23)
(0.330563 0.254944 -1.38326e-22)
(0.323286 0.253056 3.16298e-22)
(0.315431 0.250974 5.19354e-23)
(0.306996 0.248611 -7.99385e-22)
(0.297966 0.24591 1.45285e-22)
(0.288325 0.242804 -5.81554e-23)
(0.278064 0.239215 5.99486e-22)
(0.267193 0.235056 -8.05446e-23)
(0.255739 0.23023 -1.74059e-22)
(0.24375 0.224635 -3.16898e-22)
(0.231294 0.21817 7.20893e-22)
(0.218455 0.210735 -7.34859e-22)
(0.205343 0.202244 7.64563e-22)
(0.192074 0.192621 -2.24522e-22)
(0.178776 0.181812 -4.69336e-22)
(0.165582 0.169787 4.40936e-22)
(0.152619 0.156538 2.28528e-22)
(0.140004 0.142083 2.16379e-23)
(0.127837 0.126457 7.28587e-24)
(0.116206 0.109704 -5.91271e-22)
(0.105204 0.091832 4.60153e-22)
(0.0950707 0.0727822 -1.27591e-22)
(0.0862614 0.0522845 5.34131e-22)
(0.0793039 0.0302243 -2.29938e-22)
(0.0747444 0.00678654 -3.23329e-23)
(0.0727489 -0.0174869 1.22895e-22)
(0.0734413 -0.0419018 5.14617e-24)
(0.0768269 -0.0658285 -8.53271e-24)
(0.0821945 -0.0890638 -9.68999e-23)
(0.088971 -0.111753 5.8885e-23)
(0.0971169 -0.133901 -5.0313e-23)
(0.106545 -0.155397 -1.60632e-22)
(0.117137 -0.176086 5.50326e-23)
(0.128804 -0.195811 4.18636e-23)
(0.141441 -0.214425 2.939e-22)
(0.15492 -0.2318 -5.23659e-22)
(0.169096 -0.24784 1.9383e-24)
(0.183815 -0.262479 -8.48934e-23)
(0.198916 -0.275682 1.16174e-22)
(0.21424 -0.287438 4.17772e-22)
(0.229628 -0.297767 -8.03765e-22)
(0.244927 -0.306715 -4.83838e-22)
(0.259988 -0.314351 1.00776e-21)
(0.274672 -0.320767 -8.94317e-22)
(0.28886 -0.326077 6.77182e-22)
(0.302446 -0.330409 -1.5415e-22)
(0.315346 -0.333896 -2.87995e-22)
(0.327544 -0.336646 1.47092e-23)
(0.339094 -0.338742 6.30753e-22)
(0.350013 -0.340263 -1.54833e-22)
(0.360292 -0.341303 1.7996e-22)
(0.369949 -0.341944 -8.53011e-22)
(0.379006 -0.342253 1.30117e-22)
(0.387505 -0.342286 3.24506e-22)
(0.39546 -0.3421 -2.1132e-22)
(0.402886 -0.341745 6.44054e-23)
(0.409856 -0.341354 -3.09123e-23)
(0.397306 0.248294 -4.77857e-22)
(0.390951 0.246732 9.29881e-23)
(0.384148 0.244986 -4.1436e-22)
(0.37688 0.243024 -1.01776e-22)
(0.36913 0.240792 1.42864e-21)
(0.360876 0.238249 -4.46833e-22)
(0.352097 0.235348 -8.61404e-22)
(0.342782 0.232038 -1.19344e-23)
(0.332929 0.228255 5.13962e-22)
(0.322537 0.223928 -1.35433e-22)
(0.311627 0.218983 1.39547e-21)
(0.300231 0.213335 -1.6315e-21)
(0.288399 0.206898 1.47297e-21)
(0.276201 0.199587 -1.91792e-22)
(0.26372 0.191319 -1.27283e-21)
(0.251057 0.182023 3.72461e-22)
(0.238323 0.171636 1.49721e-21)
(0.225636 0.160109 -6.12226e-22)
(0.213121 0.147408 -1.34616e-22)
(0.200902 0.133509 2.54062e-23)
(0.18911 0.118393 -4.12258e-22)
(0.177885 0.102038 1.10329e-22)
(0.167397 0.084411 -9.93565e-22)
(0.157886 0.0654685 1.1875e-21)
(0.149673 0.0452046 -4.62901e-22)
(0.143188 0.0236983 -1.81503e-24)
(0.138906 0.00116809 6.28696e-23)
(0.137134 -0.0220404 -3.02081e-22)
(0.137942 -0.0455315 1.83126e-22)
(0.141139 -0.0688698 1.00804e-22)
(0.146302 -0.0917291 2.36907e-22)
(0.153058 -0.113982 -2.3528e-22)
(0.161196 -0.135547 1.10371e-22)
(0.170566 -0.156316 1.62889e-22)
(0.181034 -0.176189 -4.95921e-22)
(0.192482 -0.195067 1.41514e-21)
(0.204792 -0.212852 -9.16383e-22)
(0.217836 -0.229457 -2.20061e-22)
(0.231477 -0.244815 -2.14398e-22)
(0.245573 -0.258878 -7.41843e-23)
(0.259975 -0.27162 -3.71011e-22)
(0.274534 -0.283042 -5.99796e-22)
(0.289107 -0.293168 1.49926e-21)
(0.303556 -0.302042 7.02602e-22)
(0.317755 -0.309731 -1.43949e-21)
(0.331594 -0.316315 -4.58562e-22)
(0.344985 -0.321886 1.48337e-21)
(0.357863 -0.326544 -1.72642e-21)
(0.370188 -0.330386 1.21731e-21)
(0.381942 -0.333507 -4.99522e-23)
(0.393102 -0.336002 4.75927e-22)
(0.403643 -0.337956 8.08325e-23)
(0.413562 -0.339447 -8.52638e-22)
(0.422874 -0.340542 -4.13033e-22)
(0.431603 -0.341295 1.35021e-21)
(0.439776 -0.341752 -4.28734e-23)
(0.447422 -0.341954 -3.9972e-22)
(0.454583 -0.341946 1.18976e-22)
(0.461297 -0.341762 -4.53024e-22)
(0.434333 0.242541 -1.39499e-22)
(0.427966 0.241396 6.58416e-22)
(0.421185 0.24008 -3.19113e-22)
(0.413927 0.238512 2.44987e-22)
(0.406187 0.236666 -2.74221e-22)
(0.39795 0.234501 -2.13068e-23)
(0.389207 0.231965 -1.80472e-22)
(0.379949 0.229004 -4.82908e-22)
(0.370179 0.225554 3.25746e-22)
(0.359903 0.221544 4.12414e-22)
(0.34914 0.216897 3.27399e-22)
(0.337919 0.211529 -1.19207e-21)
(0.326286 0.205355 1.09584e-21)
(0.3143 0.198287 -2.19916e-22)
(0.302037 0.19024 1.54739e-22)
(0.28959 0.181136 -6.58147e-22)
(0.277065 0.170902 6.42549e-22)
(0.264585 0.159478 -2.63337e-22)
(0.252283 0.146815 -3.6893e-22)
(0.240309 0.132874 2.10783e-22)
(0.228821 0.117625 -1.13726e-22)
(0.217998 0.10105 -5.92629e-22)
(0.208045 0.0831391 3.93517e-22)
(0.199204 0.0639044 3.91031e-22)
(0.19175 0.0433994 -3.24145e-22)
(0.185974 0.0217459 3.6511e-23)
(0.182143 -0.000838327 3.74832e-22)
(0.180437 -0.0240449 -4.44649e-22)
(0.180923 -0.0475218 1.48575e-22)
(0.18354 -0.070917 -4.03487e-23)
(0.188106 -0.0939431 1.90122e-22)
(0.1944 -0.116405 -4.51265e-22)
(0.202228 -0.138157 3.46008e-22)
(0.211409 -0.159077 -8.13543e-24)
(0.221775 -0.179056 -4.50265e-22)
(0.233167 -0.197995 1.87698e-22)
(0.245433 -0.215805 5.0419e-22)
(0.258416 -0.23241 -2.54771e-22)
(0.271964 -0.247748 -1.96701e-22)
(0.285924 -0.261778 3.6599e-22)
(0.300143 -0.274482 -1.30783e-22)
(0.314473 -0.285863 -1.45939e-22)
(0.328774 -0.295948 8.51322e-22)
(0.342915 -0.304781 -7.97268e-22)
(0.356782 -0.312427 3.38067e-22)
(0.370279 -0.318965 -7.71001e-23)
(0.383324 -0.32448 1.10661e-21)
(0.395858 -0.329067 -1.04836e-21)
(0.407838 -0.332818 4.20692e-22)
(0.419238 -0.335825 3.49831e-22)
(0.430044 -0.338174 3.46737e-22)
(0.440258 -0.339949 -5.14046e-22)
(0.44989 -0.341226 -1.19988e-22)
(0.45896 -0.342072 -1.48417e-22)
(0.467487 -0.342562 -2.42664e-22)
(0.475477 -0.342753 1.78854e-22)
(0.482991 -0.342667 -3.21126e-22)
(0.490074 -0.342339 6.55888e-22)
(0.496753 -0.341846 -1.86254e-22)
(0.480563 0.239268 -8.40318e-22)
(0.474226 0.237988 8.25637e-23)
(0.467418 0.236529 8.17837e-22)
(0.460113 0.23484 -5.8648e-22)
(0.452305 0.232882 1.5474e-22)
(0.443988 0.230608 5.04502e-22)
(0.435159 0.227966 -6.51932e-22)
(0.425819 0.224899 2.4269e-22)
(0.415976 0.221346 7.71427e-22)
(0.405647 0.217239 -2.73374e-22)
(0.394854 0.212504 -8.03083e-22)
(0.383633 0.207064 -2.58599e-22)
(0.372029 0.200838 6.75298e-22)
(0.360103 0.193744 5.94497e-22)
(0.347928 0.185698 -1.42074e-22)
(0.335593 0.176622 -8.26355e-22)