/*--------------------------------*- C++ -*----------------------------------*\
  =========                 |
  \\      /  F ield         | OpenFOAM: The Open Source CFD Toolbox
   \\    /   O peration     | Website:  https://openfoam.org
    \\  /    A nd           | Version:  10
     \\/     M anipulation  |
\*---------------------------------------------------------------------------*/
FoamFile
{
    format      ascii;
    class       volScalarField;
    location    "2000";
    object      epsilon;
}
// * * * * * * * * * * * * * * * * * * * * * * * * * * * * * * * * * * * * * //

dimensions      [0 2 -3 0 0 0 0];

internalField   nonuniform List<scalar> 
10435
(
1.03412
1.39016
1.02618
1.03118
1.20288
1.40439
0.92823
0.690144
0.6035
1.33519
1.33474
0.878314
1.34277
0.602891
0.697831
0.790103
0.509062
1.50269
0.576733
1.04209
0.74074
0.991752
0.862157
0.693388
1.18725
0.07072
0.119804
1.18354
0.10976
1.42555
0.949713
1.30846
0.656323
0.119798
0.692876
1.35911
0.734998
0.13345
0.0461672
0.610865
1.5241
0.928738
0.297688
1.077
0.791672
0.651603
1.44653
0.200302
0.581596
0.96113
0.705399
1.11623
0.0449848
0.0834908
0.051633
0.0964523
0.722029
0.145114
0.300344
0.675113
0.0512014
1.40103
0.142518
1.10505
0.824355
1.08431
0.219476
0.20993
0.726831
0.734094
0.0807108
0.0992001
0.232518
1.00101
0.782979
0.435804
0.773646
0.875316
0.629974
0.754761
0.905449
0.96675
0.0441378
0.086957
0.872972
1.16636
1.12516
1.15259
0.937286
1.15824
1.13071
1.10594
0.990111
1.00794
1.16777
1.28704
1.05096
0.789865
0.391046
1.06535
0.849947
1.36087
1.07357
1.16329
1.36974
1.05822
1.0005
0.935663
0.832082
0.826392
0.980767
1.35822
0.931928
0.885069
1.11873
1.0159
1.0188
1.2298
1.2539
0.962555
0.975067
0.479036
1.26684
1.08978
1.39695
0.0612806
1.00185
0.662259
1.09965
0.116454
0.885244
1.41818
0.739201
0.670798
0.113205
0.0472832
1.42129
0.994498
1.26948
1.03215
1.03982
0.873523
0.173802
0.946149
0.963255
0.704047
1.29218
1.21701
0.506016
0.8662
0.14501
0.772819
1.08197
0.878704
1.22889
0.0997887
1.37816
1.27574
1.28271
1.48034
0.835453
0.578324
1.19172
0.870241
0.862281
1.02882
0.64836
0.923515
0.810969
1.00872
1.15211
0.133651
0.10763
0.787634
0.821742
1.5136
1.39586
0.327178
0.994703
0.127566
1.36618
1.37371
0.877922
0.0574554
0.836237
0.202731
0.326557
0.82811
1.213
1.0156
0.924744
0.0442899
0.109114
1.49953
1.36224
0.772919
0.465219
1.07947
0.269959
0.759342
0.890849
0.139434
1.25734
0.150829
1.15809
1.17466
1.22773
0.957469
0.151749
0.932167
0.119747
0.915817
0.940468
0.847208
0.119701
0.602058
0.924649
0.0630231
0.0719548
0.484444
0.115901
0.366543
0.190152
0.850161
0.0845528
0.713841
0.0578158
0.9684
0.988185
0.587989
0.281974
0.678383
0.0643674
0.771553
0.126681
0.417839
0.723623
0.0816306
0.753834
1.03359
1.08638
0.0723279
0.073974
0.0934134
1.18946
0.619554
1.17555
0.744262
0.0824008
1.53182
0.0789601
0.958152
1.36545
0.901162
0.792399
1.12333
0.0720078
0.835547
0.0917974
0.152147
0.880162
1.09426
0.0702512
0.818535
0.974655
0.30878
1.08971
0.911762
0.0527832
1.13734
0.930232
0.686625
0.748157
1.16123
0.0800905
0.929677
0.121888
1.23812
0.79076
0.658893
1.31837
0.373031
0.994536
0.85526
1.01338
0.0543309
1.20887
0.0519206
0.0904312
0.123408
1.02522
1.44619
0.153684
0.714783
0.0471974
0.0784205
0.584048
1.01129
1.2657
1.03652
0.241441
0.77881
1.05818
0.0909908
1.28825
0.702909
0.424714
0.778388
1.05483
0.0929921
1.00035
0.118583
1.53285
1.22388
0.634023
0.0811714
0.0626269
0.919193
0.233622
0.895301
1.38348
0.126516
1.05549
0.0448232
0.633162
1.2474
0.0885465
1.12024
0.241216
0.132777
0.636775
0.142457
0.0943122
1.00516
0.821523
0.161842
0.0851308
0.0842133
0.107169
0.103606
0.0957463
0.099163
0.0506659
0.107037
0.101634
0.122742
0.178926
0.127129
0.045837
0.611809
0.0980543
1.19258
0.115161
1.18336
0.611506
0.566002
1.35566
0.946515
0.0888003
0.104854
0.0851534
0.0628598
0.100173
0.0530112
0.117038
0.102371
0.178439
0.834346
0.100327
0.597895
0.0569507
0.109554
1.40864
0.551424
0.0590576
0.11794
0.13365
0.12357
0.101106
0.079138
0.137228
0.0543608
0.646914
0.190114
0.708801
0.594713
1.24515
1.30484
0.580538
1.12221
0.660752
0.760241
0.135686
0.103213
0.0839369
1.06721
0.09501
1.40895
0.132006
0.129856
0.114375
0.151218
0.0722183
0.866108
0.127909
0.676167
0.791682
0.0921041
0.0865424
0.124631
0.562043
0.124352
0.0931417
0.0817414
0.0987038
0.191262
0.11318
1.09599
0.0809576
0.0895144
0.112936
0.133349
1.5146
0.0745008
0.053813
0.537253
0.104465
0.000686954
0.000671848
0.000641185
0.000599977
0.000551674
0.000497923
0.000440399
0.000380536
0.000319793
0.000777803
0.000755004
0.000717997
0.000671392
0.000618044
0.000560165
0.000499351
0.000437425
0.000376556
0.000885451
0.000855896
0.000812431
0.000759825
0.000701299
0.000639068
0.000574831
0.000510401
0.000447821
0.00101778
0.000981441
0.000930622
0.000871337
0.000807162
0.000740234
0.000672207
0.000604633
0.000539092
0.00118394
0.00113996
0.00108041
0.00101346
0.000942892
0.000870764
0.000798489
0.000727108
0.000657248
0.00139477
0.00134155
0.00127145
0.00119548
0.00111753
0.00103956
0.000962641
0.00088722
0.000813062
0.00166322
0.00159862
0.00151549
0.00142865
0.001342
0.00125743
0.00117558
0.00109648
0.00101958
0.00200543
0.0019258
0.00182617
0.00172605
0.00162903
0.00153686
0.0014497
0.00136733
0.00128926
0.00244134
0.00233851
0.00221833
0.00210214
0.00199282
0.00189181
0.00179871
0.00171266
0.00163269
0.00298406
0.00285063
0.00270735
0.00257255
0.00244887
0.0023375
0.00223755
0.00214727
0.00206387
0.00363588
0.00347634
0.0033107
0.00315483
0.00301416
0.00289036
0.0027824
0.00268779
0.00260236
0.00439354
0.00423747
0.00405068
0.00386959
0.00370768
0.00356827
0.00345087
0.00335254
0.00326942
0.00533816
0.00517386
0.00495512
0.00473975
0.0045496
0.00438993
0.00426116
0.0041607
0.00408502
0.00655148
0.00632646
0.00605117
0.00578711
0.00555925
0.00537329
0.0052305
0.00512905
0.00506583
0.00808875
0.0077233
0.00735915
0.00702956
0.0067538
0.0065355
0.0063763
0.00627447
0.00622496
0.0099491
0.00936919
0.00888952
0.00848072
0.00814876
0.00789357
0.00771748
0.00762091
0.00760272
0.0119996
0.0112479
0.0106491
0.0101553
0.00976268
0.00946861
0.00927718
0.00919294
0.00922479
0.0142493
0.0133692
0.012659
0.0120798
0.0116246
0.011291
0.0110858
0.0110172
0.0110976
0.0167381
0.0157668
0.014959
0.0142973
0.0137796
0.0134065
0.0131881
0.013137
0.0132704
0.019528
0.0184945
0.0176047
0.0168677
0.0162917
0.0158833
0.0156562
0.0156282
0.0158281
0.0226922
0.0216218
0.0206653
0.0198649
0.0192429
0.0188123
0.0185908
0.0185997
0.0188657
0.0263185
0.0252337
0.0242216
0.0233757
0.0227321
0.022308
0.0221231
0.0222021
0.0225664
0.0305636
0.0294317
0.0283602
0.027494
0.0268732
0.0265097
0.0264232
0.0266432
0.0271894
0.0356838
0.0343144
0.0331554
0.0323131
0.0317937
0.0315852
0.0317066
0.0322006
0.0330755
0.0419423
0.0398983
0.0386462
0.0379137
0.0376246
0.0377146
0.0382022
0.0391715
0.040524
0.00222511
0.00216771
0.0021176
0.00207462
0.00203878
0.00200994
0.001988
0.00197271
0.0019639
0.00196118
0.00196421
0.00197257
0.0019857
0.00200305
0.00202392
0.00204756
0.0020732
0.00209995
0.00212691
0.00215315
0.00217762
0.00219926
0.0022169
0.00222901
0.00223333
0.00222862
0.00221386
0.00219049
0.00215842
0.00211607
0.00206379
0.00200356
0.00193577
0.00186165
0.00178257
0.00169976
0.00161444
0.00152777
0.0014409
0.00135493
0.0012709
0.00118977
0.00111238
0.00103947
0.000971644
0.000909394
0.000853058
0.000802894
0.000758989
0.000721378
0.000689991
0.00066469
0.000645334
0.000631725
0.00062371
0.000621121
0.000623839
0.00063177
0.000644759
0.00221215
0.00215907
0.00211268
0.00207292
0.00203967
0.00201285
0.00199235
0.00197801
0.00196965
0.001967
0.00196972
0.00197741
0.00198959
0.00200571
0.00202514
0.00204715
0.00207096
0.00209572
0.00212053
0.00214446
0.00216651
0.0021857
0.00220096
0.00221119
0.0022151
0.00221125
0.00219823
0.00217516
0.00214182
0.00209868
0.00204685
0.00198743
0.00192123
0.00184909
0.00177197
0.00169094
0.00160712
0.00152166
0.00143573
0.00135047
0.00126693
0.00118613
0.00110893
0.0010361
0.00096827
0.000905938
0.00084945
0.000799024
0.000754755
0.000716634
0.000684595
0.000658546
0.000638332
0.00062377
0.00061468
0.000610893
0.000612267
0.000618712
0.000630027
0.00216002
0.00210968
0.00206571
0.00202808
0.00199673
0.00197156
0.00195245
0.00193924
0.00193172
0.00192962
0.00193263
0.00194035
0.00195234
0.00196806
0.00198691
0.00200821
0.0020312
0.00205507
0.00207895
0.00210192
0.00212302
0.00214124
0.00215552
0.00216468
0.00216749
0.0021627
0.00214922
0.00212637
0.0020939
0.00205208
0.00200162
0.00194346
0.00187852
0.00180772
0.00173205
0.00165255
0.00157031
0.00148645
0.00140208
0.00131832
0.00123622
0.00115676
0.00108082
0.00100915
0.000942375
0.000880982
0.000825312
0.000775577
0.000731867
0.000694173
0.000662407
0.000636431
0.000616078
0.000601168
0.000591528
0.000587004
0.000587466
0.000592838
0.000602936
0.00207186
0.00202454
0.00198333
0.00194818
0.001919
0.0018957
0.00187815
0.00186618
0.00185958
0.00185812
0.00186147
0.00186927
0.00188109
0.00189643
0.00191473
0.00193532
0.00195748
0.00198045
0.00200335
0.00202529
0.00204532
0.00206242
0.00207553
0.00208355
0.00208535
0.00207985
0.00206612
0.00204356
0.00201192
0.00197142
0.00192261
0.00186627
0.0018033
0.00173461
0.0016612
0.0015841
0.00150437
0.00142309
0.00134137
0.00126026
0.00118079
0.00110389
0.00103042
0.000961094
0.000896511
0.000837124
0.000783258
0.000735105
0.000692745
0.000656163
0.000625273
0.000599939
0.000579995
0.000565263
0.000555575
0.000550781
0.000550759
0.000555424
0.000564616
0.00196069
0.00191692
0.00187888
0.00184653
0.00181981
0.00179862
0.00178283
0.00177229
0.0017668
0.00176612
0.00176997
0.00177798
0.00178975
0.00180481
0.00182261
0.00184252
0.00186386
0.00188585
0.00190768
0.00192846
0.00194724
0.00196305
0.00197485
0.00198161
0.00198233
0.00197608
0.0019621
0.00193988
0.00190923
0.00187028
0.00182344
0.00176937
0.00170887
0.00164283
0.00157223
0.00149807
0.00142139
0.00134326
0.00126475
0.00118688
0.00111065
0.00103695
0.000966573
0.000900216
0.000838434
0.000781651
0.000730162
0.000684142
0.000643657
0.000608683
0.000579127
0.000554848
0.00053568
0.000521446
0.000511978
0.000507128
0.000506772
0.000510838
0.000519165
0.00182832
0.00178801
0.0017531
0.00172355
0.0016993
0.00168027
0.00166632
0.00165732
0.00165307
0.00165334
0.00165783
0.00166622
0.0016781
0.00169303
0.00171046
0.0017298
0.00175037
0.00177143
0.00179218
0.00181177
0.00182928
0.00184379
0.00185432
0.00185993
0.00185972
0.00185288
0.00183877
0.00181699
0.00178737
0.00174999
0.00170522
0.00165361
0.0015959
0.00153294
0.00146564
0.00139498
0.00132195
0.00124758
0.0011729
0.00109891
0.00102654
0.000956655
0.000889993
0.000827205
0.00076881
0.000715196
0.000666633
0.000623274
0.000585168
0.000552283
0.000524515
0.000501722
0.00048373
0.000470363
0.00046145
0.000456846
0.000456433
0.000460128
0.000467788
0.00167859
0.00164181
0.00161008
0.00158337
0.00156164
0.00154482
0.0015328
0.00152544
0.00152258
0.00152396
0.0015293
0.00153827
0.00155048
0.00156548
0.00158275
0.00160171
0.00162171
0.00164201
0.00166185
0.00168039
0.00169678
0.00171012
0.00171953
0.00172418
0.00172322
0.00171597
0.00170189
0.00168065
0.0016521
0.00161632
0.00157362
0.00152451
0.00146972
0.00141005
0.00134633
0.00127951
0.00121052
0.00114032
0.00106994
0.0010003
0.000932281
0.00086667
0.000804166
0.000745377
0.000690787
0.000640752
0.000595517
0.000555212
0.000519867
0.000489433
0.000463801
0.000442817
0.000426309
0.000414097
0.000406007
0.000401889
0.000401621
0.000405126
0.000412265
0.00151181
0.0014782
0.00144934
0.00142527
0.00140597
0.0013914
0.00138145
0.001376
0.00137484
0.00137771
0.00138435
0.00139434
0.00140729
0.00142273
0.00144017
0.0014591
0.00147893
0.00149889
0.00151824
0.00153611
0.00155168
0.00156409
0.00157264
0.00157662
0.00157517
0.00156777
0.00155393
0.00153344
0.00150603
0.00147179
0.00143108
0.00138438
0.00133249
0.00127624
0.00121626
0.0011535
0.00108885
0.00102316
0.000957506
0.000892659
0.000829416
0.000768498
0.000710542
0.000656113
0.00060569
0.000559577
0.000518038
0.000481154
0.000448921
0.000421255
0.000398037
0.000379122
0.000364339
0.000353519
0.000346499
0.000343125
0.000343271
0.00034685
0.00035372
0.00132721
0.00129615
0.00126977
0.00124827
0.00123169
0.00121991
0.00121268
0.00120962
0.00121081
0.00121631
0.00122528
0.00123719
0.00125149
0.00126763
0.00128543
0.00130442
0.00132442
0.00134506
0.00136491
0.00138266
0.00139763
0.00140922
0.00141707
0.00142051
0.00141892
0.00141171
0.00139854
0.00137914
0.00135302
0.00132008
0.00128105
0.00123658
0.0011875
0.0011347
0.00107878
0.00101991
0.00095929
0.000898803
0.000838583
0.000778923
0.000720835
0.000665025
0.000611998
0.00056219
0.000515996
0.000473971
0.000436303
0.000403298
0.000374741
0.000350185
0.000329452
0.000312542
0.000299436
0.000289997
0.000284053
0.000281518
0.000282288
0.000286235
0.000293241
0.0799295
0.0716439
0.0641219
0.0571381
0.0506259
0.0445421
0.0388891
0.0336821
0.0289282
0.024634
0.0208576
0.0176154
0.0148732
0.0125628
0.0105801
0.00889352
0.00749453
0.00635267
0.0054239
0.00466609
0.00404365
0.00352699
0.00309175
0.00271789
0.00238801
0.0767264
0.07034
0.0635198
0.0567854
0.0503338
0.0442429
0.0385588
0.033318
0.0285482
0.024276
0.020523
0.0172815
0.0145194
0.0121888
0.0102335
0.00860573
0.00726416
0.0061682
0.0052767
0.00455036
0.00395449
0.00346032
0.00304466
0.00268898
0.00237821
0.0774006
0.0704071
0.0633545
0.0564715
0.0498929
0.0436956
0.0379358
0.0326574
0.0278913
0.0236544
0.0199452
0.0167428
0.0140139
0.0117169
0.00980521
0.00823089
0.00694534
0.00590156
0.00505584
0.00436875
0.00380622
0.00334006
0.0029477
0.00261149
0.00231796
0.0790374
0.0710011
0.0633324
0.0560694
0.0492527
0.0429142
0.0370848
0.0317916
0.0270513
0.0228651
0.0192169
0.0160772
0.0134093
0.0111721
0.00932071
0.0078064
0.00657855
0.00558785
0.00478919
0.00414282
0.0036151
0.00317851
0.00281122
0.00249636
0.00222087
0.0809572
0.0718568
0.0634452
0.0556852
0.0485526
0.0420328
0.0361195
0.0308108
0.0260997
0.021969
0.0183897
0.0153247
0.0127328
0.0105703
0.00879045
0.00734337
0.0061773
0.00524207
0.00449204
0.00388752
0.00339542
0.00298904
0.00264744
0.00235474
0.0020991
0.0828283
0.0727034
0.0635161
0.0552207
0.0477494
0.0410401
0.0350437
0.0297243
0.0250488
0.0209811
0.0174802
0.0145013
0.0119976
0.0099212
0.00822242
0.00684928
0.0057492
0.00487185
0.00417175
0.0036098
0.00315378
0.002778
0.00246252
0.00219236
0.00195639
0.0846891
0.0734775
0.0634642
0.0546162
0.0468102
0.0399228
0.033855
0.0285352
0.0239049
0.01991
0.0164983
0.0136169
0.0112128
0.00923264
0.00762302
0.00632988
0.00529983
0.0044828
0.00383408
0.00331549
0.0028959
0.00255072
0.00226105
0.00201281
0.00179606
0.0867015
0.074114
0.0631909
0.0537956
0.0456883
0.0386559
0.0325418
0.0272385
0.0226677
0.0187588
0.0154483
0.0126767
0.0103846
0.00851057
0.00699787
0.00579029
0.00483386
0.00407933
0.00348333
0.00300888
0.00262601
0.00231141
0.00204698
0.0018193
0.0016199
0.0886877
0.0744133
0.0625521
0.0526768
0.0443428
0.0372205
0.0310988
0.0258321
0.0213364
0.0175291
0.014332
0.0116838
0.00951837
0.0077609
0.00635263
0.00523595
0.00435597
0.00366552
0.00312358
0.00269426
0.00234838
0.00206486
0.00182499
0.00161362
0.00142779
1.48761
1.45698
2.35489
3.56313
0.00251209
0.00376924
0.0498193
0.00172605
2.35982
0.00046467
2.1079
0.00805882
0.28192
0.00700463
0.083128
0.00100144
2.09147
3.63112
0.000240742
0.05961
0.0395748
0.000831806
2.51461
0.214744
0.00373373
0.00273179
0.00328562
0.04665
1.72927
2.15271
0.000454386
0.0024622
3.15697
0.236217
2.15065
0.00109898
0.265311
0.0840693
0.319179
0.0152876
3.81243
0.00227709
0.00120798
0.250999
0.0669014
0.000879163
3.08
4.02759
2.02511
2.2914
2.84658
3.6807
0.0753336
3.90861
0.0501033
2.43681
0.00635802
0.051849
0.00426295
3.7599
0.00136169
2.46029
0.00264038
0.000965953
0.00163852
0.150359
0.00485102
1.59263
0.311699
2.15151
2.63438
0.000887711
0.00169565
0.058124
0.00689896
0.0396212
0.0550339
3.89207
0.0075834
3.97472
0.205111
0.0017164
0.00156329
2.04976
0.00182072
0.00158012
0.00128128
3.89057
3.20307
0.0172451
0.0907753
0.00682475
0.000333527
0.00841885
0.00197696
2.12884
0.00292688
2.31281
0.0056313
3.73885
0.0158598
3.79755
0.0184026
0.000859778
0.00383291
0.02487
2.72431
0.178603
0.00370148
2.16758
0.000908132
0.00460746
2.87669
0.00082604
0.0670785
1.99608
3.22117
0.0120738
0.14776
0.0106345
0.000438511
0.00582661
0.240113
0.00404532
3.27371
0.00133084
3.68208
0.0489718
0.00562567
4.01752
0.00175037
0.0572522
2.17146
0.312962
0.0589048
0.00136131
0.0778574
0.0100436
0.00108719
0.0631567
0.000608825
0.313529
3.77335
0.000632099
1.82379
0.00108707
3.2226
0.0456134
0.00100282
2.05355
0.0276577
0.00429855
3.34721
0.0519694
0.00877
2.00282
0.00225441
0.0121451
0.0538493
0.0025114
0.00111644
2.55083
0.000940092
2.45546
0.000561265
2.43403
0.00702461
0.00327588
0.00114405
0.00235061
0.00652446
0.000979704
1.53127
2.20437
0.00345781
0.0306872
0.0786974
1.92842
2.59285
0.000633272
0.159684
0.00249747
0.0889929
0.114181
0.0978658
0.00359781
2.61586
0.00234952
2.49665
0.000991195
3.97505
3.75206
1.85977
0.323658
0.0634313
2.69276
0.00658101
0.000843878
1.90526
1.59935
0.424641
0.001227
0.0016247
0.00102302
0.0122806
0.00120768
0.00572668
0.0182598
2.10049
0.00901301
0.00402455
0.00471151
0.184572
0.0113903
0.0555408
3.85576
0.00271563
0.00293773
0.00112002
0.0198346
0.014141
0.00263114
0.0092575
2.53891
3.57132
3.42553
0.0322583
2.11174
0.00417837
0.00177271
1.87755
0.00106551
0.00279798
0.00380028
0.309247
0.000649083
0.0533374
0.0246858
0.1217
0.0524225
0.000832994
0.0014394
0.00064
0.0823868
0.00155146
0.00107032
0.00224027
0.0507023
0.000988165
0.000914322
0.00381876
0.0338662
0.00236168
1.99248
0.00467747
0.00320382
2.69347
0.0544693
0.0536731
0.000250903
1.16492
0.0053144
0.000921888
0.00799848
0.0567057
0.00444712
0.00090228
3.05569
0.0479415
0.00300474
0.046461
1.85141
0.00578443
0.0033331
0.000232024
2.97617
0.00767397
2.20569
0.00641503
3.82316
0.181216
0.033261
1.45066
0.000875351
2.64629
0.0011215
0.0272187
4.2237
2.94967
4.00475
0.0535462
0.000936855
0.0013479
3.09327
0.501371
3.85032
3.64647
0.00502674
0.0027837
3.24615
3.76966
0.00103166
0.0538422
0.00105412
3.55438
0.000669732
0.0377196
0.00230738
0.0630531
0.00151452
0.000884903
0.00047238
2.82229
0.00602914
0.00614321
0.383352
3.4429
0.00266387
0.00353352
0.553027
0.0545365
0.00126786
0.0774347
0.000449447
0.00126201
0.00425478
3.1537
0.17179
0.00444805
0.0533585
0.000554459
0.0668824
0.0113753
0.000505145
3.87618
0.00165224
0.000980139
0.0015904
2.63756e-05
1.28161
0.00430689
0.0101612
3.50638
0.000447087
0.0558292
0.00283745
0.00574306
0.00392217
0.00152197
2.86701
1.97508
0.000349456
0.00526081
0.0539815
3.15163
3.24949
0.694001
0.282276
0.000687217
3.08427
2.11714
2.16853
0.00127249
3.35028
0.00169384
0.00143728
0.00106247
3.66787
0.000910137
2.39855
0.000635398
0.0518713
1.71902
3.26473
0.27744
0.0056914
0.0100269
0.000431892
0.00355755
0.000644255
3.63868
0.000963237
3.25322
0.306341
0.300875
0.584148
0.000530844
0.0588751
1.96186
3.98329
0.0315983
0.00113582
0.0272036
2.95335
0.135508
0.000321907
0.000700658
3.09624
0.0123178
1.74599
0.00155623
0.00111228
0.00193344
1.96656
0.0105215
3.65652e-06
0.0644468
0.0312042
0.572576
0.00086697
2.14136
0.000923562
3.25714
0.00108446
0.00141329
1.62716
2.12995
2.86895
0.00850868
0.00716537
0.00053839
0.00344976
0.0222738
0.0218743
0.00107822
3.89122
2.18713e-05
0.0705644
0.00160682
0.00223101
0.000999596
0.00302325
0.0158726
0.00799532
0.052506
0.00103367
0.000896189
0.000904067
0.0036485
0.627182
0.00203043
0.0523179
3.17943
0.464811
0.327514
2.95735
0.0301094
2.54298
0.00440083
0.00751765
3.23544
0.00111745
0.000934762
3.02013
0.000461637
2.08979
2.89714
0.00138269
0.118299
0.0491096
0.000938279
0.0882832
2.04911
0.180332
3.83498
0.00139829
0.002943
2.57283
0.00182236
1.99757
0.0417979
0.00153579
2.15141
0.748078
0.00387115
0.251967
0.0115723
0.00205131
0.0473188
0.0461199
0.0484663
0.253468
0.000224911
0.008818
1.99329
0.00182098
0.00144694
0.00100578
1.87295
0.00069663
0.0631343
0.000925507
0.00918989
2.83468
0.000911135
0.00366361
0.0660673
0.0010484
0.000440258
2.36495
0.00114897
0.0534131
0.000969916
0.0628986
0.0809563
0.218887
0.00101665
0.000977704
0.0602555
0.00249097
0.000714033
0.187609
0.00360877
0.010899
0.00394834
3.63144
3.5745
2.21306
0.00630167
0.0231509
0.000304438
3.99435
0.0602639
4.00589
0.262338
0.00100103
3.87131
3.768
0.0014129
0.00103578
0.032469
0.000720751
2.79977
2.92671
0.0106856
0.622462
0.00106565
2.70453
1.96318
0.000935567
0.539665
2.09534
0.000828366
2.98026
0.00690212
2.46385
0.00094606
0.0115933
0.001025
2.1969
0.251518
0.217273
0.00573753
2.02424
2.17105
3.58849
0.00851409
0.000407756
0.224692
2.26207
0.00181174
0.27473
0.00105835
0.261347
2.04004
0.000345416
0.023814
0.00480911
0.002339
1.30602
2.95661
0.00107858
0.117162
0.00314783
0.00302869
2.86815
3.12102
2.31243
0.0135606
1.31813
0.0631656
0.0911429
0.00120669
0.000313139
0.00197066
3.07227
0.000805555
0.00398609
0.732416
0.00114435
0.00593627
0.00231825
0.000954759
0.0528495
0.000471936
0.00463662
0.241796
2.25825
0.00202272
0.00221515
3.51878
0.0479482
0.0020181
0.0771159
0.0479029
0.00448841
0.00117419
0.00168881
4.02884
0.00125466
0.00109608
0.278398
0.00107616
0.00111562
0.0207995
0.0611088
0.0088816
0.00543649
2.54303
0.00099431
0.00155505
0.00124254
0.000396839
0.00522771
0.0117246
3.71153
3.51533
0.0389537
2.93433
0.0108148
0.00322111
0.00170587
0.00367065
0.0010825
0.0104375
0.0574501
0.0350952
0.00976136
0.00425079
0.0561264
0.0234027
0.00994272
0.151975
0.000855687
0.00327286
0.00202062
0.167603
0.597002
3.68395
0.0533934
0.0538009
0.0110075
0.000417746
0.00447019
0.00103844
0.00137616
3.14818
0.000249054
0.036354
0.00135275
2.46212
4.23883
2.0421
0.000467172
0.00159826
0.00223728
3.72746
2.6383
0.0996351
0.0790587
0.0117158
0.000240067
0.00191578
3.74526
0.000942786
0.00157002
0.262931
0.00107662
0.000670705
0.000956849
0.00567676
0.0666455
0.117352
0.00179272
0.00100433
0.0126826
0.000447701
1.84549
3.16858
0.00234751
0.0717878
0.0106799
2.06706
0.00199422
0.000422837
0.000914011
0.00315369
0.789061
0.00106013
0.000675586
0.00411939
1.40093
0.00429541
0.00101612
0.000801059
3.86786
0.0689528
0.0324399
4.00158
0.0721746
1.94057
2.16297
0.000230498
0.0021002
0.00150238
1.36058e-05
0.000917042
0.186089
0.00107296
0.0010289
0.241949
0.000278142
0.00117537
0.19255
0.000988474
0.00228071
0.00127057
0.0388975
0.168731
3.73861
0.000251433
2.71079
0.0410561
1.89057
0.0373588
3.8171
2.91959
2.84991
0.00390151
0.000993831
0.000460137
1.23975
0.000940779
0.518994
1.76
0.000378621
0.0557259
0.492387
0.0086638
0.0013772
0.000965087
3.35506
2.52296
0.00101425
0.0450902
0.0521039
0.115434
2.88972
1.06227e-07
0.00097572
0.13231
0.000604627
1.64627
0.598196
2.32326
0.0526509
0.00323235
0.052367
0.0105171
9.75311e-05
0.0893633
0.00520335
0.0120041
0.00274244
0.00119974
1.50669
0.00100582
0.0043181
0.00107476
0.000911523
1.73194
0.0161181
3.74641
0.0770871
0.000775887
2.00237
0.000982127
0.0620531
0.00238003
0.000331679
0.000631987
0.0481121
0.049588
0.000703007
0.000748034
2.91525
2.55688
0.0514859
0.00113062
0.0486975
0.47282
0.0531222
2.85982
0.254896
0.00952565
0.000490758
2.54813
0.00548435
0.00161427
0.0727976
2.68282
2.3336
0.00312213
0.00127399
2.32339
0.00180407
2.45734
2.36842
0.000695739
0.00303127
2.22735
1.75332
1.65016
0.000593856
0.0024499
0.00331035
0.0484242
0.241053
0.000973979
0.00171727
0.00395516
0.0515394
0.221346
0.677188
1.77715
0.000244448
0.0009718
3.37707
0.000261158
0.0601737
0.00312878
0.0449436
0.00422736
0.0101945
0.488621
0.000864915
0.000397201
0.000476635
0.0376602
0.0560137
3.8915
0.00216177
0.00172768
0.000930591
0.104699
0.0627134
2.45484
0.0102587
0.370858
0.0778266
4.10698e-06
0.00536599
0.0053544
1.90093
0.00697292
0.058951
0.00103096
2.25583e-05
0.0895972
0.000977744
4.29405
2.69518
0.0445094
3.7676
3.84273
3.32393
0.00027215
2.80652
0.133708
0.00056897
0.0530157
0.00100625
0.00552169
0.0516278
0.00103679
0.0189708
0.0379702
2.60776
0.185764
0.0453801
2.78566
0.00760977
0.00107489
0.0581224
1.83593
0.614419
0.000339454
0.129338
4.01238
2.28472
0.482503
0.0660144
2.2006
0.00572063
0.00340997
0.028748
2.4559
0.00484354
2.50542
0.00452469
2.33727
0.0010588
0.0618691
1.58629
0.000753747
0.00430545
0.000347475
3.10631
0.802695
2.74368
1.9204
0.00113341
0.0613676
0.0214068
0.0297656
1.71596
0.04789
0.00123103
0.00103357
0.000984251
0.0103652
0.0509191
2.12522
0.00011117
3.032
0.000705761
0.0530693
0.000283881
0.00111486
0.00199806
2.97226
2.47131
0.0425113
0.0473726
0.00271823
0.00523307
0.0550898
0.00137229
0.640285
0.350225
3.40231
0.00440287
1.67157
0.0530987
0.0010242
0.00113957
0.00168205
3.44692
0.00855113
0.0134158
0.0528574
0.0665595
0.00310187
0.0435453
0.00199309
0.000815377
0.0035278
0.00405321
0.0525914
0.00267058
0.233286
2.80726
0.0608115
2.99688
0.000949952
0.283997
0.0435649
0.0402975
1.80438
0.00324691
0.00720993
3.0708
0.00103482
0.755191
0.00566098
0.00298896
2.0591
0.000752575
1.95189
0.00436415
0.0442528
0.0464099
3.18568
0.00899961
0.0522362
0.00265471
1.71767
0.000995745
3.36286
0.143264
0.981401
2.11437
0.152759
2.94745
0.000933319
1.94918
0.0029676
0.00155203
0.00899051
0.0629634
0.0779229
0.0101171
0.000334455
0.0537135
0.00214476
0.000376662
0.0095021
0.00442138
0.000942535
3.9913
0.0011062
0.000908945
0.0520164
0.0385898
3.30751
0.00776661
0.000450141
0.00350009
2.66621
0.00119602
0.00510727
3.72212
2.9574
0.245831
0.00295604
0.0388484
0.0299015
3.14489
0.00058822
0.000305423
0.0104422
0.00116985
0.00569262
2.45983
3.95276
4.45187
0.0394954
0.00282107
0.0543258
3.43457
0.0283974
0.0495391
0.00103409
1.87098
2.06253
3.10509
0.00103577
0.0010082
0.0201811
2.65325
0.00116125
2.49468
0.0395621
1.08719
2.0356
0.00935094
0.0202624
0.0070574
0.000406119
0.000416605
1.36577
1.78196
0.000237062
2.80354
0.00425878
0.00288147
0.00257621
0.000848682
0.0770804
0.142242
0.0615324
0.0865579
0.00177978
0.00105757
1.91595
1.97849
0.00142184
0.0099361
0.00082634
2.59276
4.22816
0.0244118
3.79338
0.00284482
0.000285299
0.159383
0.000991082
0.0118993
0.0575751
0.00146927
0.00136733
0.000817726
0.00930106
0.11883
2.58982
0.0520367
0.000276363
0.0228924
0.00103041
3.60671
3.73913
0.000697625
0.000304465
0.0556372
0.00538715
0.00368496
1.54076
1.76828
0.928022
0.000462428
0.0452228
0.0825162
1.80246
0.0122775
0.22882
1.67194
2.91851
5.04592e-05
0.00239756
0.0119318
0.000721487
1.52557
0.115919
0.000896463
0.052891
0.00104189
0.000534171
0.00118612
0.061491
0.00363787
2.98077
1.9875
3.40072
1.63275
0.570635
4.83139
0.00238526
3.52586
0.0805002
0.0017648
1.15219
0.00019659
0.0184999
0.00106882
0.000958092
0.0105121
2.64149
0.00512903
0.0353245
0.0559717
0.00743246
0.184944
1.63524
3.08669
0.00575417
3.19136
2.31745
0.00673756
0.00379768
0.101945
1.16276
0.0587216
0.0525359
2.57093
0.000565118
0.00988379
0.00540471
0.0757888
3.68372
0.00106682
0.0157577
0.00306406
0.00138551
0.00218386
0.0532435
0.000343976
0.00886611
0.0151109
2.08323
0.000412104
0.343649
2.11894
0.000965374
0.0699881
0.20643
2.72185
0.331179
2.12969
0.164124
0.000958234
3.50286
2.61105
0.00134092
0.0416462
0.083956
0.000687597
0.00166358
0.000599095
0.118507
0.00250585
0.258787
0.000318285
0.0570264
2.17721
0.0500254
2.00749
1.17712
0.00158602
0.0535257
0.0519032
0.00659184
0.000968171
0.357418
2.08965
0.000601883
0.479546
0.0292282
0.00100311
0.0274888
0.09405
0.00208773
0.00152916
2.90353
0.0528144
0.000867682
0.0009276
0.000586227
0.00127622
0.000974557
1.71428
0.000833767
0.625887
2.65136
0.0440995
0.000131521
0.0528282
1.7054
0.0619863
1.93116
0.0113979
0.40215
3.45958
3.65147
0.00223173
2.38887
0.000620694
2.3671
4.48038
0.0002481
0.287236
0.0739491
3.93924
0.201243
0.0296004
0.00103895
0.0454691
2.38708
3.03448
3.52748
0.00107554
0.0614578
0.00028794
2.53882
0.0131469
0.00356402
0.000952583
0.0542889
0.0108431
0.00545315
0.0647637
0.00122101
1.97535
0.00817964
0.000720736
0.737367
0.0423948
0.0146862
0.0990705
0.0674342
0.00113099
0.068274
3.22226
0.000356553
0.0436596
0.0102559
2.02058
0.391131
0.00444762
3.84197
0.000316812
0.0468974
3.24751
0.000503004
0.00401778
0.0413649
0.0509285
0.0565178
0.00500471
3.94335
0.0133803
0.072672
3.87847
0.0235818
0.00101944
0.563054
0.000958786
0.00150089
0.000425501
0.0531455
2.49582
0.0011308
3.06607
0.282145
0.000967634
0.386052
0.000919183
0.00587737
0.337649
0.000731455
0.000986949
2.97658
0.00632012
0.000717978
0.000794311
2.12416
2.39533
0.0268873
0.000522576
0.00415069
0.332432
3.90211
0.00098441
0.0050807
0.0256853
3.24014
0.00479922
0.473207
0.348365
0.00147443
0.0688596
3.58071
0.000955688
0.0225108
0.000893249
3.37529
0.00124258
0.0019824
0.00853953
0.0671132
2.43659
0.00749628
3.04606
0.00998792
2.21618
0.000637026
0.101095
0.0367794
0.0620967
2.03506
0.00761645
0.216089
0.00116351
0.000941063
0.00107461
2.45343
2.8028
0.00034485
0.000600455
1.80217
0.000917284
0.00692936
0.00720283
3.80284
3.64454
0.049743
3.26802
0.000973546
0.00133947
0.323413
0.341184
1.96686
0.00416963
0.0018815
0.00342586
0.00614601
0.00102776
0.00434627
0.00126028
0.0347272
3.66964
2.54699
0.000267106
0.109941
0.0446024
2.76207
0.000898908
3.53297
1.79024
3.73437
0.000724945
0.0508004
0.00199503
0.000906754
0.000569266
0.00194202
0.000260456
1.64799
3.4377
0.000663809
0.0316495
0.0645653
0.377386
2.23109
4.04486
0.00452904
0.00583658
0.0097119
0.0239368
0.22772
0.00732118
2.17539
0.214814
0.000412128
0.0102248
0.00106224
0.0812635
0.00111589
0.00422908
0.00037669
0.00142014
0.0243917
0.0843329
0.00077561
3.35054
0.00106177
0.000949346
1.19754
0.00910013
0.00161568
3.04465
2.28928
0.000918367
2.49387
0.000333622
0.0525376
0.00078061
0.00109243
0.000939804
0.00124689
2.61908
0.0146135
0.00101818
2.46817
1.64436
0.00103697
0.000514282
0.00165123
0.000973091
0.0510569
5.11544e-05
0.000969053
3.27444
0.00120108
0.000290052
0.000833978
2.66381
0.00109683
2.56733
1.94319
0.400322
2.61304
0.000942819
0.00409741
3.76049
2.53422
0.000234868
0.000113334
0.0822039
0.00920594
0.00115962
0.00890124
0.0913677
2.12947
0.00510765
0.00374024
2.91549
0.0003857
1.90509
0.474339
0.000801211
0.0334264
3.89563
0.000464813
0.24685
0.000399609
0.00101794
0.000968646
0.000941305
2.60706