/*--------------------------------*- C++ -*----------------------------------*\
  =========                 |
  \\      /  F ield         | OpenFOAM: The Open Source CFD Toolbox
   \\    /   O peration     | Website:  https://openfoam.org
    \\  /    A nd           | Version:  10
     \\/     M anipulation  |
\*---------------------------------------------------------------------------*/
FoamFile
{
    format      ascii;
    class       volScalarField;
    location    "2000";
    object      k;
}
// * * * * * * * * * * * * * * * * * * * * * * * * * * * * * * * * * * * * * //

dimensions      [0 2 -2 0 0 0 0];

internalField   nonuniform List<scalar> 
10435
(
2.53451
2.96317
2.77318
2.5561
2.85197
3.29515
2.60905
2.19813
2.12991
3.24165
2.92732
2.38652
3.26295
1.95729
2.0756
2.35174
1.82958
3.48067
2.15204
2.5581
2.27392
2.5267
2.47847
2.20854
3.01337
0.814495
1.05864
3.02466
0.977147
3.37447
2.58728
2.90861
2.15585
1.0057
2.18423
2.84717
2.23275
1.11162
0.645935
2.16343
3.49724
2.61057
1.30724
2.59369
2.32476
2.18103
3.38545
1.16838
2.12197
2.5085
2.21548
2.83379
0.626446
0.880988
0.686938
0.907225
2.20761
1.14347
1.46713
2.1714
0.672099
2.9627
1.12056
2.78779
2.39657
2.86903
1.28044
1.28934
2.25642
2.25152
0.871177
0.970487
1.0106
2.72646
2.17758
1.42297
2.28734
2.51623
2.13223
2.17876
2.44486
2.46963
0.608322
0.893222
2.40474
2.57469
2.5698
2.67485
2.26939
2.63369
2.66227
2.64233
2.50744
2.3764
2.66923
2.71716
2.5831
2.10347
1.64223
2.61724
2.16666
3.09969
2.48148
2.67885
3.14337
2.58144
2.53091
2.48088
2.35824
2.2748
2.52738
3.06313
2.4192
2.35411
2.67722
2.5502
2.5659
2.68673
2.80261
2.48519
2.51464
1.3949
2.76246
2.34712
3.0363
0.743992
2.52902
1.6646
2.69326
1.08812
2.01551
3.04651
2.26251
2.06788
1.03801
0.574711
2.88332
2.51826
2.80932
2.56182
2.56549
2.46164
1.16478
2.522
2.49705
1.89041
2.66936
2.97513
1.76893
2.38863
1.02711
2.27884
2.56148
2.41962
3.03993
0.901457
3.03374
2.80137
3.14975
3.09561
2.3702
1.9405
2.7572
2.38549
2.28183
2.60574
2.14569
2.43958
2.30923
2.60844
2.94547
0.820647
0.965032
2.02001
2.32282
3.11979
2.92675
1.49491
2.53756
1.04958
2.95065
3.22015
2.39037
0.708517
2.38594
1.07871
1.24135
2.43244
2.89446
2.6551
2.44705
0.596811
1.04536
3.02501
3.03912
2.33647
1.608
2.43234
1.34632
2.28454
2.25679
1.09711
3.13856
1.14555
2.98512
2.7609
2.78656
2.47822
1.14025
2.46232
0.910453
2.57843
2.48527
2.35204
1.03883
1.88011
2.36724
0.692669
0.825612
1.79968
1.00539
1.59485
1.22815
2.04809
0.868219
2.2153
0.729373
2.26529
2.64296
1.63814
1.43746
2.17419
0.773951
2.26774
1.13286
1.68683
2.21214
0.872639
2.24725
2.74412
2.59758
0.794856
0.724357
0.907428
2.76525
2.12765
2.53188
2.29033
0.77626
3.12811
0.803053
2.36043
3.29584
2.42479
2.37575
2.77124
0.708704
2.45035
0.831322
1.09983
2.52775
2.83348
0.799577
2.32971
2.43826
1.49589
2.58935
2.54919
0.656561
2.72575
2.61382
2.20376
2.30101
2.99014
0.882056
2.44814
1.09007
2.87082
2.36004
2.16622
3.22485
1.51514
2.72064
2.11442
2.44447
0.634049
2.9154
0.6862
0.904307
1.02728
2.29369
3.06688
1.13705
2.24713
0.657552
0.856234
1.72713
2.49506
2.88581
2.76197
1.33697
2.27697
2.82414
0.840043
2.89761
1.99576
1.66395
2.26886
2.80843
0.910287
2.54019
1.02254
3.10165
2.962
2.13839
0.85482
0.725522
2.50701
1.344
2.40619
3.19798
1.05259
2.51284
0.587198
2.13704
3.12341
0.94358
2.92442
1.35293
1.12543
2.14984
1.08021
0.910602
2.73744
2.3297
1.18031
0.857415
0.807586
0.950121
0.931569
0.987675
0.9389
0.656973
0.966301
0.927139
0.99399
1.21928
1.14866
0.579876
2.12006
0.920254
3.03883
1.03294
3.02559
2.12013
2.12138
3.27473
2.6229
0.898112
0.958582
0.829746
0.762386
0.909343
0.642316
1.01385
1.02153
1.21166
2.33329
0.998181
2.11763
0.723561
1.06061
3.33886
2.13201
0.64216
1.06107
1.10385
1.10298
0.948466
0.871123
1.24594
0.701383
2.14884
1.24063
2.23204
2.11401
3.12135
3.20902
2.11425
2.92658
2.15713
1.8818
0.904871
0.955156
0.873548
2.83735
0.925458
3.34205
1.20525
1.06118
1.08296
1.11926
0.759158
2.49349
1.1038
2.1843
2.28493
0.773302
0.922122
1.14313
2.13684
1.15726
0.961557
0.828854
0.908453
1.20862
0.988187
2.88494
0.868545
0.926765
0.987479
1.03483
3.46138
0.667855
0.59684
2.14076
0.951439
0.184336
0.182647
0.178375
0.172322
0.165037
0.156806
0.147954
0.138786
0.129638
0.184746
0.182297
0.177783
0.171752
0.164608
0.1567
0.148333
0.139864
0.131712
0.184947
0.182048
0.177389
0.171405
0.164484
0.156954
0.149122
0.141336
0.133979
0.185335
0.182159
0.177392
0.171497
0.164846
0.157736
0.150454
0.143306
0.136595
0.18622
0.182852
0.178002
0.172231
0.165878
0.159209
0.152475
0.145913
0.139717
0.18786
0.184337
0.179427
0.1738
0.167761
0.161542
0.155348
0.149348
0.143647
0.19049
0.186836
0.181872
0.176396
0.17067
0.1649
0.15924
0.153808
0.148662
0.194393
0.190576
0.185536
0.180197
0.174773
0.169437
0.164295
0.159427
0.154868
0.199919
0.195726
0.190576
0.185356
0.180216
0.175287
0.170629
0.166274
0.162221
0.207014
0.202325
0.197106
0.192007
0.187133
0.182572
0.178345
0.174436
0.17077
0.215269
0.210404
0.205269
0.200308
0.195667
0.191414
0.187545
0.184006
0.18067
0.224243
0.220206
0.21532
0.210474
0.205988
0.201947
0.198346
0.195105
0.192111
0.235841
0.232393
0.227605
0.222734
0.21826
0.214297
0.210847
0.207832
0.205136
0.251454
0.247522
0.242394
0.237246
0.232586
0.228529
0.225086
0.222185
0.219705
0.271539
0.265776
0.259762
0.254041
0.248982
0.244654
0.241066
0.238133
0.235686
0.295432
0.286859
0.279564
0.273034
0.267393
0.26264
0.258775
0.255719
0.253331
0.32058
0.310144
0.301567
0.294122
0.287775
0.282478
0.278236
0.274984
0.272673
0.346922
0.335427
0.325726
0.31733
0.310181
0.304237
0.299511
0.295961
0.293528
0.374823
0.362823
0.352192
0.342836
0.334801
0.328094
0.322753
0.318763
0.31607
0.404838
0.392654
0.381237
0.370925
0.361939
0.354376
0.348311
0.343751
0.340691
0.437552
0.425349
0.413201
0.401928
0.391961
0.383501
0.376664
0.371487
0.367912
0.473644
0.461427
0.44845
0.436179
0.425245
0.415916
0.408336
0.40257
0.398511
0.51442
0.501481
0.487293
0.473945
0.462132
0.452079
0.443919
0.437744
0.433446
0.562087
0.545959
0.529789
0.515337
0.502899
0.492463
0.484091
0.477922
0.473787
0.619168
0.594368
0.575521
0.560231
0.547687
0.537439
0.529383
0.523726
0.519529
0.285895
0.285701
0.285966
0.286685
0.287872
0.289524
0.291645
0.294218
0.297238
0.300676
0.304507
0.3087
0.313204
0.317978
0.32295
0.328059
0.333229
0.338379
0.343421
0.34827
0.352824
0.356981
0.360628
0.363623
0.365759
0.366914
0.366983
0.366081
0.36419
0.361152
0.356985
0.351855
0.345787
0.338882
0.331262
0.323042
0.314337
0.305263
0.295939
0.286486
0.277021
0.267664
0.258517
0.249681
0.241245
0.233286
0.225864
0.219036
0.212829
0.20727
0.202365
0.198111
0.194502
0.191516
0.189138
0.187344
0.186115
0.185425
0.185255
0.284126
0.284264
0.284812
0.285778
0.287165
0.288974
0.291207
0.293856
0.296913
0.300358
0.304168
0.308311
0.312745
0.317423
0.322286
0.327269
0.332299
0.337296
0.342175
0.346845
0.351212
0.355178
0.358643
0.361497
0.363618
0.364867
0.365108
0.364248
0.362255
0.359155
0.355034
0.349983
0.344064
0.337346
0.329915
0.321867
0.313308
0.304354
0.295124
0.285741
0.276327
0.266999
0.257868
0.249036
0.240593
0.232618
0.225171
0.218301
0.212038
0.2064
0.201396
0.197029
0.19329
0.190162
0.187625
0.185655
0.18423
0.18333
0.182921
0.279342
0.279524
0.280111
0.281113
0.282533
0.284372
0.286628
0.289294
0.292356
0.295797
0.299592
0.303709
0.308109
0.312744
0.317558
0.322488
0.327462
0.332403
0.337225
0.341841
0.346156
0.350072
0.353483
0.356275
0.358328
0.359518
0.359736
0.358908
0.356998
0.354014
0.350008
0.345053
0.339222
0.332595
0.325258
0.317307
0.308845
0.299984
0.290843
0.281541
0.2722
0.262938
0.253865
0.245084
0.236687
0.22875
0.221335
0.214491
0.20825
0.202628
0.197632
0.19326
0.189499
0.186335
0.18375
0.181723
0.180235
0.179268
0.178794
0.27138
0.271577
0.272179
0.273192
0.274619
0.27646
0.278712
0.281365
0.284408
0.287822
0.291582
0.295657
0.30001
0.304593
0.309353
0.314226
0.319144
0.324029
0.328796
0.333357
0.337615
0.341471
0.344817
0.347543
0.349536
0.350685
0.350895
0.350094
0.348249
0.345361
0.341468
0.33663
0.330918
0.324412
0.317199
0.309376
0.301045
0.292319
0.283312
0.274146
0.26494
0.255808
0.246863
0.238205
0.229924
0.222095
0.214781
0.208026
0.201864
0.196311
0.191374
0.187052
0.183333
0.180202
0.177642
0.175634
0.174159
0.173199
0.172727
0.261207
0.261424
0.26204
0.263062
0.264494
0.266333
0.268578
0.271219
0.274244
0.277634
0.281364
0.285405
0.289717
0.294256
0.298967
0.30379
0.308655
0.313484
0.318194
0.322693
0.326887
0.330673
0.333947
0.336601
0.33853
0.339636
0.339834
0.339064
0.337291
0.334512
0.330752
0.326059
0.320497
0.314143
0.307083
0.299415
0.291242
0.282674
0.273829
0.264825
0.255782
0.246813
0.238028
0.229527
0.221398
0.213715
0.206539
0.199914
0.193873
0.188431
0.183597
0.179365
0.175727
0.172667
0.170167
0.168208
0.16677
0.165839
0.165386
0.249005
0.249206
0.249807
0.250814
0.25223
0.254055
0.256284
0.258908
0.261915
0.265285
0.268993
0.273008
0.277292
0.281799
0.286475
0.291259
0.296079
0.300859
0.305515
0.309956
0.314086
0.317806
0.321013
0.323605
0.325483
0.326557
0.326753
0.326015
0.324312
0.321636
0.318006
0.313461
0.308061
0.30188
0.295001
0.287519
0.279535
0.271158
0.262507
0.253699
0.244851
0.236078
0.227487
0.219177
0.211234
0.203732
0.19673
0.190273
0.184392
0.179103
0.174413
0.170317
0.166805
0.163861
0.161466
0.1596
0.158246
0.157386
0.156992
0.235135
0.235302
0.235869
0.236844
0.238232
0.240032
0.24224
0.244848
0.247842
0.251202
0.254902
0.258908
0.263183
0.267677
0.272337
0.277101
0.281898
0.286648
0.291267
0.295666
0.299748
0.303415
0.306571
0.309119
0.310961
0.312018
0.312222
0.311523
0.30989
0.307312
0.303806
0.299405
0.294169
0.28817
0.281486
0.274209
0.266437
0.258276
0.249847
0.241265
0.232644
0.224096
0.215725
0.207631
0.1999
0.192606
0.185808
0.179549
0.17386
0.168757
0.164246
0.160322
0.156972
0.154181
0.151929
0.150194
0.148957
0.1482
0.147895
0.219704
0.21978
0.220266
0.221173
0.222505
0.224266
0.226451
0.229052
0.232051
0.235426
0.23915
0.243182
0.24748
0.251993
0.256667
0.261443
0.266253
0.271011
0.275634
0.280024
0.284086
0.287723
0.290849
0.293378
0.295207
0.296268
0.296496
0.295851
0.294289
0.291799
0.288402
0.284128
0.279047
0.273234
0.266747
0.259686
0.252146
0.244222
0.236048
0.227723
0.219359
0.211064
0.202939
0.195084
0.18759
0.180527
0.173963
0.167936
0.162473
0.157589
0.153287
0.149566
0.146412
0.143811
0.141743
0.140185
0.139114
0.13851
0.138345
0.202766
0.202671
0.203012
0.203814
0.205087
0.206829
0.209023
0.211635
0.214678
0.218157
0.221988
0.226121
0.230494
0.235046
0.239749
0.244541
0.249393
0.254255
0.258969
0.263399
0.267461
0.271073
0.274184
0.276706
0.278549
0.279642
0.279931
0.27937
0.27789
0.275461
0.272139
0.267971
0.263027
0.257397
0.251135
0.244264
0.236911
0.229295
0.22145
0.213421
0.205351
0.197352
0.189511
0.181917
0.174654
0.167832
0.161513
0.155778
0.150625
0.14601
0.141928
0.1384
0.135441
0.133037
0.131165
0.129811
0.128954
0.128564
0.128615
0.902648
0.843976
0.791854
0.742544
0.694821
0.648231
0.602929
0.559327
0.517864
0.479041
0.443927
0.413254
0.387186
0.365344
0.346631
0.330866
0.318249
0.308637
0.301557
0.296474
0.292901
0.290402
0.288562
0.286979
0.285181
0.861363
0.826297
0.783373
0.73775
0.691359
0.645103
0.599663
0.555716
0.513934
0.475053
0.439817
0.408692
0.381835
0.359137
0.34028
0.324966
0.312915
0.303784
0.297144
0.292513
0.289416
0.287422
0.286158
0.285294
0.284517
0.85528
0.818806
0.776779
0.731777
0.685439
0.638857
0.592949
0.548574
0.506535
0.467565
0.432239
0.400919
0.373774
0.350809
0.33188
0.316735
0.305012
0.296269
0.290029
0.2858
0.283101
0.281497
0.2806
0.280076
0.279642
0.857102
0.815527
0.771037
0.724656
0.677386
0.630114
0.5837
0.538996
0.496792
0.457763
0.422405
0.391038
0.363832
0.340832
0.321946
0.306933
0.295412
0.28691
0.280919
0.276928
0.274453
0.273052
0.272337
0.271973
0.27166
0.86079
0.814137
0.766223
0.717517
0.668648
0.620288
0.573164
0.52803
0.485592
0.446446
0.411033
0.379649
0.352461
0.329515
0.310721
0.295836
0.284467
0.276127
0.270288
0.266424
0.264046
0.262711
0.262035
0.261701
0.26145
0.864018
0.812771
0.76128
0.709943
0.659211
0.609579
0.561622
0.51597
0.473228
0.433914
0.39843
0.367047
0.339919
0.317078
0.298414
0.283664
0.272423
0.26419
0.258426
0.254599
0.252213
0.250833
0.250083
0.249661
0.249319
0.866766
0.810983
0.755831
0.701772
0.649103
0.598132
0.549267
0.503024
0.459917
0.420393
0.384819
0.35345
0.326416
0.303715
0.28521
0.27061
0.259489
0.251337
0.245605
0.241755
0.239288
0.237767
0.236823
0.236163
0.235577
0.869315
0.808464
0.749529
0.692794
0.638254
0.585971
0.536185
0.489309
0.445798
0.406036
0.370359
0.339015
0.312114
0.289592
0.27128
0.256852
0.245857
0.237776
0.23206
0.228159
0.225566
0.223838
0.222591
0.221518
0.220446
0.871103
0.804682
0.742049
0.682857
0.626641
0.573146
0.522485
0.474941
0.430998
0.390982
0.355176
0.323873
0.29717
0.274873
0.256796
0.242576
0.231717
0.223706
0.218015
0.21408
0.211355
0.209423
0.207796
0.206002
0.204058
3.42455
3.3904
3.23615
4.94995
0.170583
0.193855
1.3669
0.148107
3.23624
0.132923
2.6023
0.198022
1.70341
0.201142
1.64096
0.197348
2.79477
5.05393
0.120335
1.14711
0.989785
0.200684
3.03725
0.785299
0.137494
0.193805
0.135278
0.534108
3.38779
2.79746
0.128539
0.199014
4.56502
1.729
2.77685
0.152816
1.65474
1.64439
1.85793
0.299814
4.31772
0.0645915
0.195885
1.2847
0.523066
0.227735
3.27675
3.97317
3.41348
4.1169
3.10853
4.18551
1.12173
5.27567
1.33646
3.32841
0.191956
1.0278
0.152192
4.07262
0.170733
3.34092
0.170692
0.21141
0.150134
1.04186
0.209826
2.907
1.77656
3.78629
3.53962
0.219852
0.141606
1.17093
0.157215
0.984324
1.23524
4.03349
0.195716
5.36618
1.62547
0.193978
0.165547
2.46828
0.165285
0.174138
0.136858
4.07111
4.56549
0.320347
0.549344
0.235907
0.138881
0.203713
0.149233
2.62999
0.196399
2.72521
0.137816
4.07501
0.344084
4.34929
0.369564
0.22127
0.145613
0.462929
3.21909
1.54991
0.0827558
2.821
0.205828
0.110564
3.42624
0.217196
1.08783
3.41123
4.22187
0.278585
1.3488
0.169872
0.022544
0.125213
0.824457
0.141459
4.58923
0.19685
4.20063
1.09766
0.169599
3.97342
0.165586
1.17285
3.75253
2.06429
0.653677
0.136932
0.540148
0.275135
0.17027
1.1568
0.187881
1.69161
4.06675
0.0299576
3.39236
0.21079
4.64291
1.12164
0.195748
2.69863
0.534953
0.188717
4.74071
1.54772
0.163929
2.44483
0.134467
0.279578
1.30848
0.186081
0.190117
3.43451
0.190885
2.83533
0.15954
2.75748
0.201072
0.129794
0.227198
0.137719
0.1947
0.217479
2.82838
2.5878
0.192291
0.502726
1.32211
3.57069
3.61591
0.190749
1.70769
0.194953
1.16819
1.58336
0.895625
0.135855
2.88525
0.0635613
4.26059
0.185791
4.04087
4.07278
3.50414
1.64512
1.58187
4.37871
0.151515
0.198973
3.40459
3.3991
2.00684
0.25224
0.187803
0.187668
0.476713
0.164808
0.219773
0.36357
3.49322
0.256272
0.145882
0.141243
1.76252
0.458284
0.635799
4.23627
0.157165
0.143241
0.253419
0.357397
0.297508
0.0744604
0.166051
3.46431
4.97148
4.26054
0.378604
2.82876
0.0885981
0.145317
2.34535
0.154686
0.195019
0.171982
1.80047
0.143262
1.36283
0.386638
1.62842
1.58029
0.139356
0.170309
0.162471
0.781732
0.13897
0.139995
0.202169
0.542218
0.19615
0.1659
0.0830506
0.533972
0.175682
3.43822
0.184428
0.128378
3.25282
1.24786
1.32388
0.120642
2.30022
0.166362
0.170513
0.157216
1.1854
0.145507
0.160638
4.43709
1.35595
0.129802
1.05617
3.49958
0.148124
0.140656
0.122342
4.36691
0.239656
3.02867
0.19267
4.09141
1.1576
0.550911
2.6944
0.227246
3.63667
0.178709
0.483697
5.59801
3.27721
4.03551
1.56837
0.195093
0.0437038
3.3597
2.19981
4.2785
4.21017
0.214885
0.190294
3.92948
4.09465
0.187099
0.402361
0.191407
4.24183
0.158404
0.980851
0.172047
1.1544
0.191349
0.221126
0.169925
4.41629
0.17462
0.146219
1.70738
3.54987
0.181883
0.139367
2.21223
1.31695
0.188242
0.452365
0.127911
0.138425
0.147416
4.1883
1.54615
0.207709
1.04008
0.157712
1.59406
0.266162
0.135928
4.14578
0.179005
0.157564
0.172663
0.00574855
2.46485
0.133053
0.229197
4.01766
0.165524
1.1881
0.157975
0.217564
0.169286
0.13637
3.0694
3.64862
0.139964
0.100461
1.3348
3.41574
4.66676
2.24862
1.34384
0.164672
3.20686
3.53414
2.75104
0.168336
4.23243
0.0564291
0.134869
0.218978
3.75057
0.167657
4.22026
0.195118
1.53813
3.42814
4.15611
1.69578
0.150606
0.168334
0.154005
0.192969
0.141362
4.24589
0.209592
4.58836
1.42701
1.39555
2.2183
0.15916
1.14559
2.52072
4.04026
1.0337
0.164331
0.412477
4.42382
1.61992
0.124745
0.160451
4.55149
0.279748
3.4012
0.144455
0.195675
0.165491
3.9038
0.23416
0.00208962
1.46277
0.433266
1.8934
0.140291
3.83708
0.167784
3.92766
0.167685
0.183901
2.87543
3.43027
3.07459
0.241037
0.237964
0.161073
0.194727
0.34525
0.396776
0.224343
4.0736
0.00466126
0.467906
0.158555
0.196688
0.183861
0.128713
0.316735
0.201679
1.52631
0.214239
0.205325
0.0346601
0.170182
1.44853
0.179943
1.57842
3.4677
1.71368
1.8199
3.92953
0.429955
4.01073
0.149132
0.194035
4.15395
0.183038
0.188354
3.81797
0.168032
3.76456
3.07543
0.173914
0.611638
1.13393
0.197545
0.862705
3.75533
1.7218
4.08946
0.133556
0.147432
3.46258
0.176538
2.56673
0.507771
0.133148
2.74366
1.64879
0.143485
1.70604
0.288083
0.131195
1.14697
1.11374
0.643678
1.88981
0.0180944
0.209582
2.4303
0.155933
0.191532
0.234991
3.72326
0.197878
1.56113
0.192262
0.163401
4.36623
0.165077
0.163412
1.56593
0.177955
0.145714
4.17054
0.193174
1.54302
0.167805
0.667368
1.31377
1.73336
0.185216
0.185275
1.44754
0.202905
0.179948
1.62607
0.193988
0.279489
0.13409
3.72667
4.3422
3.45904
0.151548
0.806836
0.139483
4.03649
1.14974
4.92819
1.77991
0.239581
4.07723
4.45895
0.168752
0.229177
0.511688
0.203291
4.15118
4.04436
0.166151
1.99462
0.194789
3.68304
3.43367
0.196183
2.21599
2.76748
0.196515
3.42575
0.12408
3.4375
0.174632
0.266996
0.178246
3.00818
1.72764
1.84035
0.17094
3.46833
3.45007
3.67024
0.160266
0.158874
1.55611
3.57474
0.163071
2.01037
0.195334
1.68447
2.70235
0.125849
0.788374
0.156271
0.199567
2.52401
4.45564
0.248485
1.72123
0.153503
0.173594
3.43438
3.25545
3.61522
0.293531
2.55083
1.18034
1.17088
0.248673
0.141028
0.156414
4.54039
0.191039
0.195639
2.24463
0.243143
0.237162
0.185718
0.208616
1.50497
0.169807
0.157265
1.69673
3.47752
0.15927
0.190018
4.02637
0.533299
0.0654871
0.473886
1.09161
0.185769
0.180059
0.161635
5.43808
0.185808
0.193289
1.84797
0.140339
0.223565
0.416372
1.07891
0.187238
0.214644
3.52526
0.221539
0.134085
0.1863
0.156542
0.230159
0.250032
4.07315
3.50314
0.490285
4.49219
0.238057
0.128518
0.131543
0.114123
0.211632
0.169306
1.09078
0.390078
0.16853
0.177292
1.45662
0.758227
0.237001
1.0381
0.195313
0.18475
0.152196
0.711265
1.95191
4.07
1.51415
1.3438
0.164135
0.13105
0.0888626
0.244425
0.154508
3.27901
0.122411
0.989146
0.177726
3.67807
5.5955
2.53182
0.0238966
0.132127
0.155449
4.4384
4.06777
0.852477
1.13107
0.249787
0.124601
0.162321
4.08622
0.0403411
0.185916
1.99479
0.150038
0.200178
0.151045
0.14523
1.09827
0.543639
0.174922
0.163186
0.265794
0.154139
3.41936
3.60572
0.201033
1.51509
0.252127
2.614
0.160741
0.161556
0.167038
0.188646
2.31005
0.174396
0.179184
0.151452
2.63247
0.189818
0.237451
0.213379
4.04345
1.55242
0.480415
4.00847
1.60427
3.80912
2.77692
0.121552
0.133391
0.133136
0.00435854
0.18803
1.16215
0.20348
0.149597
1.6053
0.133677
0.148627
0.84222
0.175147
0.171689
0.141861
0.490004
1.58011
4.36374
0.124424
3.70097
1.27587
3.535
1.00016
4.42359
3.24383
4.19558
0.141433
0.192294
0.0243939
2.39117
0.184038
2.16377
3.68375
0.153646
1.30251
1.7642
0.17925
0.144266
0.165392
3.38511
3.54652
0.155259
1.36749
1.52387
1.27131
3.8771
0.000266245
0.16644
0.762513
0.0321462
3.60178
1.94025
2.88719
1.52501
0.129764
1.52713
0.16716
0.0121804
0.829112
0.224474
0.300101
0.187528
0.195812
2.89927
0.192236
0.16824
0.190777
0.184776
3.14859
0.301787
4.10516
1.60742
0.191747
3.67654
0.216253
1.1662
0.184
0.144392
0.194548
1.10226
0.582293
0.0365245
0.206483
3.11634
3.60718
1.26619
0.171989
1.15811
2.15445
1.45623
3.81212
1.97979
0.230544
0.172722
3.05159
0.127842
0.141972
0.515156
4.38961
3.22408
0.200062
0.153814
4.10218
0.130409
3.43677
3.99249
0.199179
0.196402
3.05099
3.52542
3.59496
0.158372
0.180859
0.103665
1.14313
1.66897
0.178014
0.133791
0.16992
1.26372
0.69843
1.59918
3.76603
0.124065
0.175224
4.31495
0.126502
1.12788
0.0868723
1.07166
0.210117
0.17031
2.15436
0.215614
0.156836
0.147351
0.572903
1.11429
4.11169
0.148434
0.175938
0.181409
1.69177
1.16234
3.40588
0.168806
1.9396
1.62968
0.000388305
0.146269
0.193118
2.35526
0.23861
1.21102
0.20755
0.00205429
1.56411
0.188778
5.0956
4.00644
1.10322
4.08492
4.04584
3.37856
0.127339
4.44551
1.75437
0.185159
1.35281
0.151668
0.194305
1.1474
0.173399
0.346888
1.01021
3.61256
0.62511
0.301849
4.44799
0.208563
0.192685
1.47114
3.58387
2.21094
0.146418
0.641915
4.00552
2.85909
2.20249
1.13246
4.10829
0.239949
0.137032
0.885575
3.55601
0.210076
4.0894
0.203485
3.9511
0.212075
1.12206
3.52962
0.0325797
0.180632
0.147912
3.85524
2.30744
3.7748
3.39704
0.249168
0.604922
0.764218
0.393231
3.64899
1.00829
0.167903
0.184191
0.174309
0.162301
1.18867
2.66376
0.0155398
3.83261
0.205086
1.37454
0.13504
0.148205
0.148498
4.07508
3.71779
0.505015
1.07339
0.202828
0.17577
1.56259
0.153579
2.22126
2.10928
4.42744
0.10405
3.00594
1.55618
0.195786
0.237317
0.186027
4.4521
0.247644
0.314846
1.37748
1.49916
0.148616
0.43177
0.166206
0.211329
0.157415
0.174781
1.05687
0.156094
0.839746
3.7162
1.15662
4.14708
0.192569
0.926039
0.898786
0.292852
3.38505
0.179623
0.226252
3.63848
0.205119
1.70984
0.226161
0.128518
3.46509
0.147607
3.37923
0.137432
1.32265
1.39767
4.25202
0.162935
1.29848
0.203439
3.09646
0.199591
3.99853
1.70156
2.01418
2.79364
0.55192
3.1445
0.171079
3.45246
0.205443
0.137283
0.251924
1.17153
1.6267
0.157519
0.145281
1.15912
0.175957
0.152921
0.165761
0.130383
0.199824
3.97763
0.223803
0.183963
1.50724
0.557209
3.36397
0.139133
0.166206
0.196306
4.06721
0.24126
0.193486
4.50891
4.36623
1.26394
0.185078
0.42337
0.986824
3.8894
0.156711
0.139061
0.26772
0.236726
0.212446
4.04883
4.04219
5.63742
1.02768
0.20038
1.57084
4.50634
0.47321
1.15061
0.199202
3.59244
2.66481
3.23417
0.166402
0.170347
0.413048
3.75335
0.251757
3.49069
0.405724
2.22557
3.78077
0.220089
0.327501
0.237783
0.133716
0.127645
2.53418
3.59139
0.122459
4.44317
0.210124
0.199245
0.153781
0.146628
1.14501
0.522244
1.17466
1.3751
0.158036
0.221971
3.43201
2.46571
0.169727
0.241352
0.214381
4.2228
5.55938
0.451422
4.09296
0.191182
0.129882
1.39385
0.163033
0.449226
1.58313
0.17766
0.135216
0.0399697
0.239467
1.5785
3.67249
1.28445
0.131615
0.429137
0.145178
4.40377
4.38053
0.166601
0.129652
1.31425
0.223127
0.158574
3.24652
3.50082
1.93173
0.139324
0.274394
0.753095
3.75258
0.257183
0.715739
3.66177
3.78415
0.00853296
0.188858
0.252538
0.207254
2.8541
1.26289
0.17386
1.42984
0.171245
0.179845
0.149395
1.08958
0.191945
3.33921
3.71642
4.36349
3.6236
2.20212
5.69884
0.201638
4.25747
1.18369
0.161356
2.26257
0.0215427
0.389118
0.180355
0.159883
0.170244
4.13243
0.142292
0.520893
1.56742
0.227603
0.749198
2.99158
3.21775
0.116636
3.48924
2.74601
0.228898
0.175723
0.582302
2.28624
0.475093
1.30782
3.59888
0.184636
0.167453
0.221796
1.463
4.37717
0.206829
0.305054
0.130918
0.168561
0.188048
0.601977
0.131113
0.256917
0.28395
3.54569
0.146615
1.02289
2.89315
0.188503
0.54183
0.782331
4.0264
1.01094
3.61359
1.39065
0.19231
4.45981
3.63464
0.153994
0.934858
1.62648
0.161505
0.196676
0.189777
1.72011
0.203353
1.69048
0.141312
1.57621
4.06566
1.10783
3.52492
2.30181
0.180436
1.17142
1.28367
0.246435
0.227782
0.966158
2.66695
0.19014
1.24706
0.237214
0.23887
0.877765
0.40956
0.14361
0.169918
3.85898
1.14829
0.144414
0.233015
0.132382
0.182926
0.179195
3.46875
0.221505
1.98978
4.38979
1.07837
0.0124791
1.29205
3.43655
1.15736
3.68926
0.249841
2.13434
4.20558
4.06886
0.0756623
3.54128
0.156777
3.22736
5.78151
0.126508
1.74672
1.57685
4.04636
1.73576
0.477455
0.185573
1.33942
3.92167
4.57957
4.22227
0.240406
1.15495
0.134384
3.66495
0.471399
0.144169
0.181848
1.13297
0.172666
0.246815
1.15902
0.175779
3.39486
0.163699
0.177873
2.27259
1.30629
0.301777
1.21313
1.60286
0.246112
1.17136
4.79904
0.149581
0.598544
0.230147
3.91469
2.00049
0.141063
4.3884
0.141748
1.02775
4.80523
0.174856
0.185262
0.990944
1.02699
1.42091
0.177332
4.0448
0.269874
1.1775
4.16535
0.495275
0.23407
2.21961
0.215626
0.195734
0.0226653
1.36619
4.02524
0.16651
4.46138
0.91803
0.182051
1.64732
0.203608
0.162385
1.864
0.208457
0.169108
4.46514
0.133625
0.185116
0.21697
4.05754
3.70928
0.369456
0.14449
0.187309
1.8871
4.07721
0.160351
0.164119
0.459048
4.44538
0.162773
1.71657
1.86721
0.139038
1.13257
4.27267
0.157128
0.372985
0.15958
4.95983
0.148002
0.201406
0.274805
0.673788
3.85914
0.142602
4.27955
0.173554
2.66851
0.172696
1.61022
0.529013
1.18041
3.511
0.243893
1.10873
0.241328
0.221132
0.219146
3.59422
3.72352
0.147096
0.161861
3.23473
0.222847
0.179996
0.163862
4.23378
4.07094
1.12978
4.32319
0.233474
0.135434
1.91687
0.995924
3.49442
0.129385
0.198452
0.141762
0.226337
0.163782
0.204306
0.167556
0.453096
4.55977
3.69704
0.130866
0.608783
1.09958
3.66918
0.176498
4.41517
3.72026
4.07511
0.200577
1.13538
0.173156
0.229494
0.181375
0.195905
0.121204
3.37532
4.55775
0.199055
0.48172
1.15651
1.0836
3.76809
3.95612
0.206024
0.173007
0.261391
0.434415
1.79063
0.168487
3.56755
1.23543
0.154446
0.267737
0.233048
0.786254
0.240175
0.189784
0.145631
0.148889
0.351203
1.23055
0.214447
4.32334
0.203336
0.195129
2.32668
0.249707
0.188926
4.16924
3.81444
0.188186
3.80586
0.128464
1.30186
0.206704
0.243915
0.156943
0.134999
3.66779
0.292611
0.225084
3.9216
3.33919
0.144943
0.142291
0.173781
0.230246
1.48862
0.0100851
0.186266
4.47227
0.168448
0.127151
0.211993
4.36714
0.176822
3.77208
3.62055
1.04694
3.72675
0.223459
0.129871
4.48288
4.16673
0.122713
0.00720669
1.15682
0.26651
0.250544
0.171329
1.63367
2.82246
0.205427
0.174814
3.76563
0.154997
3.5689
2.17048
0.188479
0.961028
4.0882
0.128735
1.78967
0.14858
0.206826
0.234082
0.16526
4.09116
3.57751
0.183273
0.136796
4.07965
0.200056
0.240242
0.645717
1.5308
1.70947
0.135493
0.1585
0.13374
0.189252
0.132148
0.0030183
0.230906
0.228577
3.47142
1.20882
0.161842
2.1781
0.262608
1.22978
4.05564
1.19789
4.01076
3.12195
0.00915462
1.18997
0.234965
0.173178
3.43687
0.198815
4.23012
3.65842
1.43663
0.193071
3.50876
0.132644
3.98635
0.186878
0.253019
3.96148
0.562294
1.24246
0.197676
0.22199
0.176836
0.211849
1.56891
2.20498
0.156262
3.6024
0.687228
3.71343
0.212812
4.48599
0.192957
0.200651
1.15037
0.136846
1.05654
4.06239
1.11629
0.136246
3.91974
1.42407
4.76
1.1546
0.728523
0.0917792
1.03488
4.05391
0.159542
0.180104
0.176144
4.24233
0.228246
0.280183
1.39708
1.13384
0.399321
4.35948
1.63022
0.500545
0.439248
1.39578
0.261035
1.07318
0.166399
0.151614
0.165432
3.64939
0.198019
1.60002
3.75684
0.134633
1.07861
3.17142
0.15151
2.57741
0.169735
1.0414
0.234601
0.149143
0.207114
0.141465
0.143016
0.287017
0.297733
0.210471
1.2134
3.7125
1.12317
0.181325
1.02456
0.151905
0.17204
0.201753
0.174608
0.203965
1.58815
0.233881
2.37506
3.87203
1.58674
1.24018
4.39817
0.221182
3.31937
0.177584
2.62147
0.196157
0.172272
0.40226
2.74695
0.357404
0.182874
0.149779
0.394339
0.263401
1.56422
0.807039
2.1675
3.6924
0.1709
0.156516
4.42127
0.187478
0.193713
0.169094
0.308093
0.169038
0.137525
0.205088
0.261268
1.25369
3.9134
2.20056
0.271815
0.151184
1.08481
4.07698
3.5548
0.134383
0.183899
1.39232
0.168581
0.137357
0.252249
3.89865
0.94466
0.151932
0.192643
0.210307
0.141792
3.75913
0.257034
0.185754
0.185302
0.228425
3.61709
0.143034
1.55324
2.84403
0.233857
0.246595
0.164344
3.94482
0.494175
0.194815
4.30259
1.16145
1.20262
0.14598
0.197398
1.44034
4.51576
4.33434
0.101827
1.13834
0.1467
0.125041
3.45737
3.5663
0.138584
0.00315494
1.20283
1.49122
0.156711
0.130385
3.75405
0.162335
4.41347
0.493079
0.302241
4.36148
0.141482
0.160686
0.319651
3.66262
0.16602
0.134462
0.165237
0.175275
0.369905
0.246549
1.02998
0.92877
0.895467
0.177648
0.163624
0.154636
0.929895
0.197485
0.168043
1.10896
0.256597
0.219796
4.55367
3.99623
0.196578
0.153939
0.312728
3.51806
0.177695
1.20406
0.12835
0.130416
0.0372318
0.197717
0.143736
4.08618
0.19596
0.141575
3.88964
0.165248
1.43398
0.17648
0.168056
4.33546
4.13024
0.13541
3.68999
0.160678
1.28012
6.47157e-05
4.05856
0.175885
2.28899
0.179005
3.93438
0.840459
1.63537
2.88975
3.78423
0.172068
4.29138
0.171644
0.168223
0.0742352
3.95191
0.830421
0.141114
1.07789
2.44689
3.62241
0.24243
4.43459
0.233682
0.231317
0.153511
0.660142
0.55073
1.60225
0.178957
0.253017
0.143403
0.312159
0.235346
4.01174
0.172142
0.131069
3.98372
0.780119
0.129962
0.367136
4.06334
0.171627
0.169361
4.15049
0.246001
4.06324
1.40682
0.177567
0.653502
1.12512
0.0303383
0.229609
0.170939
0.139713
0.241313
0.329109
3.97868
0.133394
1.78246
0.384371
0.19736
3.90202
2.32414
0.19488
0.197227
0.129958
0.187704
0.13149
2.0623
3.44081
0.170682
0.195006
0.191762
1.49235
0.250987
1.03065
0.206896
0.182725
0.18435
0.204933
2.30276
0.241569
1.23806
1.36265
0.000978397
1.54825
0.164363
1.20248
0.695917
0.169936
0.188614
0.273413
0.179289
0.220616
1.51587
4.03668
4.38562
3.61971
1.0926
0.0244851
0.132315
1.52417
0.136174
1.45566
4.08282
0.141259
2.54434
1.17079
2.41346
0.328586
0.134792
0.176478
0.157981
3.9474
0.171408
3.85506
2.23573
2.00022
0.159083
3.01148
1.4081
0.182248
0.233946
4.96156
0.219504
0.194627
0.916629
1.1441
0.182687
0.174563
2.76901
0.17266
1.3201
0.179717
0.189964
0.234617
3.55629
0.0303251
0.0424664
0.169567
0.168737
0.385174
0.186084
4.08141
0.525191
0.0504649
0.194958
0.168298
1.10985
0.390062
0.128009
1.59112
4.01175
0.213469
1.24389
0.18811
3.679
1.0381
0.535029
0.334421
0.19678
0.175231
0.139414
1.37111
0.703923
0.132665
0.451853
1.71463
3.97471
2.21945
1.23181
0.275597
0.14906
2.90247
0.232938
0.162361
0.169577
0.24103
1.18775
4.31968
0.227392
1.20589
0.160554
1.10087
3.13143
4.0168
4.22711
3.96436
4.17219
0.286684
0.79852
0.209647
1.02256
1.58389
0.168205
0.860139
0.13436
3.0519
0.166826
1.51365
4.25001
4.07787
0.197888
1.38912
0.595562
4.48184
4.02809
0.133623
0.15808
0.198122
0.136319
0.195318
1.56449
0.32543
0.0163513
1.32495
0.138745
0.178469
0.939317
0.223006
0.176181
1.22996
4.53133
0.613818
1.43561
0.175472
0.238643
0.202976
3.96904
1.29758
3.81295
0.193776
0.180185
0.226461
3.79558
0.640469
0.841341
0.185343
4.21585
0.18018
0.179082
1.29876