/*--------------------------------*- C++ -*----------------------------------*\
  =========                 |
  \\      /  F ield         | OpenFOAM: The Open Source CFD Toolbox
   \\    /   O peration     | Website:  https://openfoam.org
    \\  /    A nd           | Version:  10
     \\/     M anipulation  |
\*---------------------------------------------------------------------------*/
FoamFile
{
    format      ascii;
    class       volScalarField;
    location    "2000";
    object      nut;
}
// * * * * * * * * * * * * * * * * * * * * * * * * * * * * * * * * * * * * * //

dimensions      [0 2 -1 0 0 0 0];

internalField   nonuniform List<scalar> 
10435
(
0.559064
0.568448
0.674493
0.570246
0.608567
0.695831
0.660014
0.630097
0.676529
0.708324
0.577809
0.583612
0.71361
0.571891
0.555619
0.629993
0.591802
0.725604
0.722715
0.565163
0.628241
0.57936
0.641243
0.633108
0.688345
0.844261
0.841907
0.695687
0.782924
0.718903
0.63436
0.581906
0.637326
0.759852
0.619703
0.536806
0.61043
0.833368
0.813368
0.689578
0.722239
0.660421
0.516648
0.562164
0.614404
0.657024
0.713096
0.613373
0.696786
0.589236
0.626246
0.647475
0.785136
0.836651
0.822529
0.767998
0.607482
0.810931
0.645005
0.628559
0.794012
0.563859
0.792949
0.632969
0.627058
0.683219
0.672321
0.712694
0.630447
0.6215
0.846298
0.854496
0.395315
0.668349
0.545057
0.418161
0.608643
0.650996
0.649512
0.566046
0.594135
0.567795
0.754569
0.825767
0.59618
0.511515
0.528237
0.558688
0.494526
0.538979
0.564152
0.568179
0.571504
0.504255
0.54911
0.516273
0.571397
0.504151
0.620699
0.578682
0.497088
0.63542
0.516217
0.555205
0.649227
0.566748
0.576206
0.592019
0.601524
0.563563
0.586162
0.621733
0.565204
0.563535
0.576616
0.576159
0.581612
0.52827
0.563773
0.577478
0.583657
0.365563
0.542142
0.454961
0.593953
0.812935
0.57457
0.376561
0.593671
0.915043
0.413001
0.589001
0.623247
0.57372
0.856597
0.628688
0.526437
0.573906
0.559524
0.572262
0.569672
0.624336
0.702554
0.605025
0.582582
0.456827
0.496288
0.654575
0.556541
0.592819
0.654748
0.604775
0.545769
0.599644
0.676797
0.732911
0.601036
0.553635
0.696095
0.582602
0.605187
0.585999
0.574123
0.588515
0.543449
0.593972
0.639086
0.579999
0.591796
0.607064
0.677734
0.453507
0.778739
0.466257
0.590933
0.578737
0.552294
0.614732
0.582615
0.777207
0.573547
0.679359
0.585756
0.786344
0.612678
0.516568
0.424691
0.643042
0.621607
0.624712
0.582782
0.723787
0.901358
0.549215
0.610217
0.635666
0.500218
0.493265
0.60428
0.618587
0.514543
0.776919
0.705101
0.783041
0.69251
0.584027
0.569215
0.577293
0.771111
0.58538
0.623005
0.65335
0.591081
0.58768
0.811392
0.528407
0.545446
0.685165
0.85258
0.601711
0.784921
0.624537
0.713915
0.444059
0.802368
0.618739
0.828124
0.47691
0.636188
0.410746
0.659516
0.627136
0.837535
0.59988
0.911759
0.612882
0.608634
0.839574
0.602936
0.655691
0.558982
0.786165
0.638364
0.793336
0.57858
0.657605
0.490782
0.634326
0.658152
0.574908
0.73506
0.523348
0.715977
0.587205
0.641061
0.615294
0.627759
0.646736
0.677564
0.71553
0.653352
0.660331
0.819049
0.596774
0.548973
0.652214
0.553751
0.641451
0.735016
0.587929
0.661004
0.636577
0.636924
0.692957
0.874287
0.580207
0.87739
0.599092
0.633925
0.640962
0.709946
0.553867
0.669831
0.470463
0.530688
0.66595
0.632794
0.816215
0.813872
0.769628
0.461845
0.585343
0.757134
0.635807
0.824489
0.841392
0.459667
0.554025
0.59217
0.662375
0.666311
0.599136
0.67835
0.697989
0.586572
0.509988
0.586713
0.595196
0.672956
0.80196
0.580529
0.793563
0.564844
0.64517
0.6491
0.810193
0.756454
0.615386
0.695871
0.582013
0.665308
0.788168
0.538415
0.692324
0.649162
0.70387
0.904957
0.687085
0.682944
0.858539
0.653234
0.737184
0.791283
0.67096
0.594596
0.774723
0.77721
0.69701
0.758111
0.753857
0.916956
0.800076
0.766692
0.785117
0.761193
0.724458
0.747789
0.934077
0.660232
0.661182
0.777304
0.696897
0.833853
0.69622
0.661555
0.715588
0.711941
0.654153
0.817502
0.788711
0.727664
0.832184
0.742928
0.700443
0.790424
0.917421
0.74048
0.587267
0.893805
0.67502
0.827358
0.924119
0.712263
0.741884
0.628425
0.859153
0.820536
0.886063
0.800776
0.863012
1.0181
0.814455
0.642396
0.728645
0.632592
0.676315
0.704215
0.710281
0.692989
0.686891
0.633806
0.419218
0.543102
0.795527
0.818206
0.67892
0.811309
0.713467
0.990388
0.780478
0.922853
0.745592
0.718223
0.64608
0.857273
0.635058
0.593521
0.584335
0.884281
0.943634
0.731169
0.969275
0.893406
0.756408
0.752513
0.68737
0.776517
0.683458
0.838628
0.863552
0.77708
0.722757
0.71194
0.538822
0.59576
0.767716
0.779892
4.45182
4.46886
4.46607
4.45441
4.4435
4.44431
4.4735
4.5555
4.72974
3.94934
3.96144
3.96188
3.95432
3.9457
3.94518
3.96564
4.02485
4.14632
3.47673
3.48494
3.48586
3.47997
3.47204
3.46928
3.48167
3.52236
3.60756
3.03741
3.04283
3.04324
3.03788
3.02999
3.02505
3.03074
3.05687
3.11495
2.63613
2.63969
2.6394
2.63427
2.62639
2.61986
2.62042
2.63532
2.67308
2.27725
2.2796
2.27886
2.27406
2.26654
2.25923
2.25625
2.26261
2.28408
1.96352
1.96525
1.96437
1.96016
1.95346
1.94626
1.94132
1.94178
1.95084
1.69588
1.69734
1.69651
1.6931
1.68757
1.68122
1.67576
1.67299
1.67428
1.47341
1.47434
1.47351
1.47093
1.46676
1.46171
1.45675
1.45285
1.45063
1.29251
1.29241
1.29151
1.28977
1.28699
1.28339
1.27936
1.27535
1.27169
1.14709
1.14612
1.14544
1.14463
1.14317
1.14087
1.13772
1.13374
1.12888
1.03007
1.0299
1.03011
1.03032
1.02996
1.02863
1.02603
1.02189
1.01596
0.937753
0.939447
0.940914
0.942023
0.942363
0.94149
0.938966
0.934334
0.927113
0.868601
0.871588
0.873867
0.875344
0.875778
0.874749
0.871755
0.866233
0.857576
0.820401
0.823134
0.825212
0.826268
0.826094
0.824269
0.820246
0.813401
0.803107
0.789537
0.790454
0.791272
0.79112
0.78968
0.786486
0.780931
0.772257
0.759713
0.770815
0.769656
0.768595
0.766662
0.763447
0.75845
0.751021
0.74029
0.725388
0.760172
0.757411
0.754305
0.750249
0.744898
0.73779
0.728286
0.715552
0.698737
0.755424
0.751431
0.746272
0.73988
0.732116
0.72264
0.710888
0.696117
0.677527
0.755349
0.750273
0.743025
0.734108
0.723681
0.711593
0.697411
0.68049
0.659988
0.759322
0.753081
0.743574
0.731899
0.718552
0.703613
0.686836
0.667766
0.645741
0.76716
0.759394
0.747253
0.732498
0.715947
0.6979
0.678315
0.656949
0.633374
0.779245
0.769018
0.753554
0.735295
0.715246
0.693852
0.67122
0.647287
0.621889
0.796855
0.781785
0.761892
0.739686
0.715917
0.691045
0.665192
0.638399
0.610805
0.822635
0.796892
0.771362
0.745042
0.71752
0.689274
0.660228
0.630204
0.599446
3.30601
3.38894
3.47559
3.56545
3.65824
3.75345
3.85067
3.94928
4.04887
4.1488
4.24864
4.34794
4.44616
4.543
4.6379
4.73052
4.82045
4.90726
4.99054
5.06993
5.1449
5.21501
5.27978
5.33868
5.39112
5.43668
5.47499
5.50626
5.53047
5.54745
5.55746
5.5612
5.55912
5.55191
5.54038
5.52549
5.5082
5.48948
5.47032
5.4517
5.43448
5.41948
5.40713
5.39761
5.39078
5.38601
5.38217
5.37791
5.37115
5.35983
5.34161
5.31423
5.27601
5.22545
5.16202
5.08567
4.99727
4.89804
4.79055
3.28436
3.36836
3.45562
3.54584
3.6387
3.7338
3.83072
3.92901
4.0282
4.12779
4.22734
4.32637
4.42446
4.52116
4.61605
4.70873
4.79877
4.88577
4.96929
5.04889
5.12412
5.19452
5.25962
5.31896
5.37205
5.41843
5.45772
5.48967
5.51427
5.53171
5.54239
5.54681
5.5455
5.53907
5.52828
5.514
5.49716
5.47876
5.45982
5.44133
5.42419
5.40917
5.39677
5.38723
5.38038
5.37563
5.37193
5.36776
5.36122
5.35015
5.33227
5.30539
5.26761
5.21752
5.15434
5.07799
4.98912
4.88899
4.77978
3.25131
3.33322
3.41849
3.50686
3.598
3.69153
3.78704
3.88409
3.98221
4.08093
4.1798
4.27837
4.37619
4.47282
4.56783
4.6608
4.75129
4.83888
4.92311
5.00352
5.07965
5.15099
5.21707
5.27739
5.33145
5.37882
5.41913
5.45219
5.47794
5.49653
5.50827
5.51362
5.5131
5.50737
5.49716
5.48334
5.46684
5.44865
5.42982
5.41134
5.39415
5.37903
5.36654
5.35695
5.35015
5.34559
5.34227
5.33872
5.33309
5.32321
5.30681
5.28169
5.24591
5.19801
5.13714
5.06316
4.97665
4.87879
4.77174
3.19918
3.27871
3.36169
3.44787
3.53696
3.6286
3.7224
3.81795
3.9148
4.01251
4.11063
4.20871
4.3063
4.40296
4.49825
4.59172
4.68293
4.7714
4.85667
4.93825
5.01563
5.08829
5.15572
5.21742
5.27287
5.32164
5.3634
5.39792
5.42514
5.44515
5.45823
5.46479
5.46534
5.46053
5.4511
5.43791
5.4219
5.40408
5.38551
5.3672
5.35014
5.33514
5.32281
5.31348
5.30707
5.30311
5.30063
5.29821
5.29402
5.2859
5.27157
5.24878
5.21552
5.17024
5.11201
5.04059
4.95648
4.86081
4.75567
3.13186
3.2087
3.28912
3.3729
3.45977
3.54941
3.64145
3.73551
3.83115
3.92795
4.02546
4.12324
4.22083
4.31779
4.41364
4.50794
4.60019
4.68992
4.7766
4.85972
4.93875
5.01313
5.08233
5.14581
5.20307
5.25368
5.29731
5.33371
5.36282
5.38469
5.39955
5.40775
5.4098
5.40633
5.39808
5.38591
5.37078
5.3537
5.33577
5.31805
5.30156
5.28715
5.27551
5.267
5.26163
5.25896
5.25807
5.25756
5.25559
5.24999
5.2384
5.2185
5.18817
5.14578
5.09026
5.0213
4.93933
4.84544
4.74173
3.05215
3.12601
3.20367
3.28491
3.36951
3.45716
3.54752
3.64022
3.73483
3.83095
3.92812
4.0259
4.12382
4.22142
4.31822
4.41372
4.50743
4.59881
4.68732
4.77242
4.85354
4.9301
5.00154
5.0673
5.12687
5.17982
5.22581
5.2646
5.29608
5.3203
5.33743
5.34782
5.35194
5.3504
5.34395
5.33344
5.31985
5.30421
5.28766
5.27129
5.25617
5.24324
5.23323
5.22659
5.22337
5.22318
5.22513
5.22781
5.22932
5.22743
5.21965
5.20352
5.17676
5.13759
5.08485
5.01811
4.9378
4.845
4.74185
2.96437
3.03507
3.10983
3.1885
3.27086
3.35662
3.44547
3.53703
3.63089
3.72663
3.82381
3.92195
4.0206
4.11925
4.2174
4.31455
4.41015
4.50364
4.59446
4.68202
4.76572
4.84498
4.9192
4.98781
5.05027
5.10616
5.15512
5.19692
5.23143
5.25866
5.27878
5.29211
5.29911
5.30039
5.29668
5.28886
5.27789
5.26485
5.25092
5.23724
5.22494
5.21503
5.20833
5.20536
5.20625
5.21065
5.21765
5.22576
5.23299
5.2369
5.23481
5.22399
5.20192
5.1666
5.11671
5.05177
4.9722
4.87917
4.77498
2.87357
2.94096
3.01279
3.08894
3.16918
3.25326
3.34085
3.43156
3.52498
3.62069
3.71823
3.81712
3.91687
4.01697
4.11689
4.2161
4.31403
4.41009
4.50368
4.59419
4.68101
4.76353
4.84115
4.91328
4.97931
5.03884
5.09153
5.13715
5.17554
5.20673
5.23087
5.24826
5.25935
5.26477
5.26522
5.26167
5.25509
5.2465
5.23721
5.22842
5.22134
5.21708
5.21655
5.22043
5.22893
5.24167
5.25767
5.27526
5.29219
5.30576
5.3129
5.31041
5.29532
5.26521
5.21847
5.15455
5.07395
4.97813
4.86977
2.788
2.85214
2.92119
2.99504
3.07341
3.15601
3.24251
3.33248
3.42563
3.52156
3.61965
3.71951
3.82062
3.92243
4.02444
4.12599
4.22655
4.32551
4.42217
4.51603
4.60648
4.69284
4.77458
4.85102
4.9214
4.98543
5.04276
5.09324
5.1367
5.17323
5.20303
5.22632
5.24338
5.25494
5.26169
5.265
5.2658
5.2646
5.26318
5.26286
5.26505
5.27096
5.28154
5.29792
5.32048
5.3486
5.38109
5.41537
5.44888
5.47912
5.50284
5.51582
5.51363
5.49283
5.45107
5.38716
5.30172
5.19703
5.0769
0.91743
0.894795
0.880089
0.868483
0.858253
0.849047
0.841293
0.835938
0.834358
0.838405
0.850356
0.872534
0.907142
0.956224
1.02209
1.10783
1.21628
1.34953
1.50893
1.69536
1.90947
2.15197
2.42391
2.72717
3.06511
0.870302
0.873599
0.869502
0.862629
0.854653
0.846557
0.839332
0.834198
0.832681
0.836659
0.848291
0.869866
0.903743
0.952361
1.01833
1.10441
1.21314
1.34652
1.50596
1.69234
1.90632
2.14865
2.42056
2.72422
3.06344
0.850581
0.857013
0.857157
0.853437
0.847503
0.840644
0.83412
0.829336
0.827928
0.83179
0.843048
0.864025
0.897227
0.945305
1.01099
1.09696
1.20554
1.33859
1.49738
1.68271
1.8951
2.13518
2.404
2.70337
3.03627
0.836518
0.843051
0.844826
0.842908
0.838467
0.832683
0.826848
0.822432
0.821114
0.824804
0.835639
0.855993
0.888463
0.935811
1.00083
1.08612
1.1939
1.32583
1.483
1.66602
1.87524
2.11111
2.37445
2.66679
2.99069
0.823723
0.830176
0.832826
0.832085
0.828752
0.823835
0.818575
0.814436
0.813112
0.816525
0.826842
0.846479
0.878093
0.924498
0.988491
1.07263
1.17899
1.30905
1.4637
1.6433
1.84803
2.0781
2.33419
2.61764
2.93081
0.811165
0.817757
0.821197
0.821463
0.819074
0.814882
0.810066
0.806083
0.804631
0.80765
0.817335
0.836142
0.866765
0.912032
0.974724
1.05732
1.16178
1.28938
1.44078
1.61611
1.81529
2.03835
2.28577
2.55878
2.85956
0.798396
0.805586
0.810144
0.811547
0.810084
0.806519
0.802022
0.798069
0.796371
0.79888
0.807826
0.825697
0.855205
0.899184
0.960383
1.0412
1.14345
1.26825
1.41598
1.58652
1.77951
1.99473
2.23245
2.4938
2.78092
0.784459
0.793712
0.800139
0.802979
0.802463
0.799427
0.795118
0.791087
0.789063
0.790982
0.799112
0.81597
0.844271
0.886865
0.946482
1.02543
1.12542
1.24735
1.39138
1.55709
1.74378
1.9509
2.17844
2.42748
2.69997
0.770049
0.783142
0.792257
0.796679
0.796998
0.794312
0.790035
0.785893
0.783558
0.784869
0.792178
0.807997
0.835009
0.876184
0.934255
1.01144
1.10936
1.22875
1.3695
1.53092
1.71198
1.91162
2.1294
2.36693
2.62473
0.709511
0.710054
0.400247
0.618889
1.04251
0.897308
3.37535
1.14377
0.399435
3.42216
0.28914
0.437925
0.926305
0.519832
2.91535
3.50011
0.336112
0.633083
5.41347
1.9867
2.22795
4.3576
0.330166
0.258459
0.455689
1.23745
0.501281
0.550363
0.597327
0.327178
3.27255
1.44772
0.594098
1.139
0.322684
1.91246
0.928846
2.89477
0.973344
0.529185
0.440098
0.164897
2.85883
0.5918
0.368061
5.30925
0.313746
0.352755
0.517832
0.665706
0.305513
0.428361
1.50326
0.640877
3.20839
0.409161
0.521584
1.83365
0.48901
0.397021
1.92662
0.408309
0.993124
4.16425
1.23808
0.649723
0.816822
0.477548
0.911316
0.59969
0.428034
4.90039
1.06431
2.12299
0.322439
2.20085
2.49526
0.376205
0.454601
0.652029
1.15934
1.97302
1.57778
0.267503
1.35041
1.72719
1.31565
0.383402
0.585668
0.535573
0.299202
0.733901
5.20472
0.443638
1.01386
0.29242
1.18608
0.289003
0.303554
0.399725
0.671849
0.448308
0.667948
5.12509
0.497866
0.775523
0.342335
1.21051
0.166519
0.330425
4.19858
0.238788
0.367269
5.13976
1.58775
0.524673
0.498011
0.578514
1.10811
0.244213
0.10431
0.242174
0.254778
0.445196
0.579004
2.62051
0.431298
2.21426
0.460166
0.353683
1.40981
2.16238
0.583633
1.22544
0.652857
1.23964
0.337263
0.678337
2.40003
1.90696
5.21813
0.821419
0.394467
0.127782
0.5679
3.6786
0.602028
2.48231
3.43886
0.31917
0.93123
0.745659
0.604291
4.14839
0.275775
0.268595
0.721841
0.579223
2.86153
1.24088
2.91373
0.41619
3.48831
0.294657
4.08143
0.281151
0.51799
0.462835
4.06076
0.726192
0.522912
4.34492
0.470183
0.273412
0.962404
0.741222
1.99903
0.59504
0.453836
5.17102
1.64362
1.36963
1.38011
1.97611
0.737674
0.461699
0.286413
0.154757
0.654369
3.13426
0.369701
0.397883
0.59422
0.752578
3.55042
0.640823
0.313952
4.22233
0.547543
0.65017
0.853585
4.66687
1.95376
3.09839
1.66547
2.02418
0.75908
0.65151
0.522846
0.655804
0.475914
0.381078
1.51475
1.6595
0.655044
0.41889
0.818624
0.628583
5.16055
0.579591
0.563323
0.189648
0.268061
0.425429
0.622851
0.476917
0.399919
0.341033
0.169077
1.07211
0.263674
2.02109
1.22336
0.700478
0.943429
2.84578
3.13396
0.54501
1.96104
4.28743
2.09823
1.81357
3.71205
0.667575
1.12033
1.64799
1.64199
0.521871
3.50421
2.70916
0.162557
0.757729
1.17619
0.533969
0.654462
0.462973
0.353551
2.5729
2.93889
5.22074
0.408778
0.468704
2.83844
0.278118
2.2302
0.42848
2.57393
0.579869
3.4516
0.50466
2.16083
0.595347
0.341378
0.53421
5.80583
0.576677
0.673595
0.374285
0.520804
0.394063
0.665522
0.821238
0.450403
5.30949
0.449793
2.56291
0.773609
0.667755
0.3277
0.365986
4.1344
3.65641
0.127533
0.328416
0.868665
0.427887
0.437491
0.826741
1.17076
0.428099
0.40029
3.05383
0.270615
3.12802
0.4556
3.3719
2.29552
1.15456
1.90215
2.17581
4.97308
5.5013
0.621949
0.45517
0.313223
0.684389
0.329415
1.11767
0.494712
0.796447
2.86216
2.51538
0.237839
3.27629
1.3665
0.459682
0.500609
1.2524
0.872941
1.82462
4.03742
3.41933
0.560496
3.29186
0.399072
1.74543
2.27966
1.68709
0.11276
0.426649
0.369936
0.46528
0.414314
5.51536
2.27555
0.79157
0.741777
0.657594
1.09971
0.295746
0.606617
5.04522
0.172658
2.97052
0.33318
0.603196
0.655712
0.575786
3.5513
0.30009
0.53096
0.314102
2.0042
0.481217
0.169191
1.13901
4.06188
0.345161
2.7796
0.6683
5.39253
4.10488
0.61529
0.476179
0.932849
0.358679
0.254341
4.94236
0.942029
2.79158
0.4459
4.10449
0.58243
0.598261
0.582566
0.75816
4.29479
2.00618
0.291492
0.368823
3.04344
2.1398
0.56288
0.596378
1.74288
4.35067
3.30691
0.602165
0.5718
0.596302
1.2068
3.09813
1.27486
0.697443
0.469021
0.107475
2.98809
0.541426
0.563498
2.04314
0.618804
2.74334
0.42626
2.33356
2.15368
0.457317
0.497197
0.296548
0.614535
0.711257
4.33701
0.989254
0.481632
0.647737
4.20109
0.383808
0.0894076
0.279238
1.4081
1.56063
3.04366
0.493192
0.568837
0.457853
3.99318
3.99628
4.23378
0.119592
0.71442
0.301095
1.43524
4.28584
0.34039
0.568627
0.910143
0.469918
0.552568
0.569308
0.454834
0.450735
0.479991
2.69835
3.4158
0.434391
5.50459
0.610335
0.293822
1.96874
0.284611
2.35642
3.74319
0.758733
0.619404
1.47956
0.392474
1.14809
0.664717
0.419403
1.53917
0.296826
0.555167
1.03892
0.314906
0.32706
0.478646
1.03962
0.645447
0.755168
2.50215
2.42061
0.769379
1.26811
0.131015
0.448314
0.266681
1.20174
2.2818
4.94131
0.666135
5.05865
3.47419
3.59458
0.261483
0.605274
2.69173
0.655994
3.34042
2.71852
4.34045
0.661919
2.92302
4.0118
2.61287
0.637283
1.91881
1.23538
3.03688
3.15988
3.12973
1.48752
4.08149
1.26843
0.938497
0.645039
0.409846
0.344195
0.47473
0.486587
0.32801
2.53073
5.7516
0.367116
1.97416
0.545655
1.08687
5.16059
0.386469
0.474894
1.81397
4.56369
0.725746
5.16051
0.55394
0.502993
0.232515
0.575239
3.20445
0.451404
0.540507
3.70247
0.818942
0.32897
4.19577
0.354403
0.200754
0.431633
2.90116
0.553409
2.78971
0.370716
1.06802
1.40294
0.458356
0.534835
0.493433
0.337846
0.27151
5.57122
0.96992
0.508422
1.32099
1.324
3.24466
0.977133
0.322171
4.12664
2.34895
0.45702
1.53246
0.439012
0.604322
5.15216
2.27578
0.6737
0.895485
0.370115
0.305611
0.508678
0.571836
0.44427
1.98506
1.35376
4.61217
5.71632
1.11733
0.603904
4.0775
0.864182
0.61912
4.64951
0.852742
1.33902
4.10246
3.85706
5.4988
0.48007
1.07156
0.48196
1.12869
1.46699
0.414645
0.533841
0.191254
0.262087
2.23882
0.691983
2.48504
1.3923
0.660623
2.47652
3.06773
1.10399
1.64711
4.03212
0.750156
1.71438
0.355253
0.762714
0.439818
4.44245
1.04054
2.51396
5.5576
0.911987
0.479885
0.402301
0.314189
0.555381
0.618941
0.471613
0.461495
0.912914
0.319335
3.72373
0.247167
1.86393
0.390209
0.26187
0.665507
3.40228
2.21093
0.508438
0.63819
4.01225
0.938613
1.03173
0.271659
0.574364
0.404686
3.8645
3.02081
0.220271
3.70001
0.158984
5.17792
1.56125
0.307375
5.41492
2.42221
2.10148
0.494508
0.664776
0.282508
0.110011
0.983051
0.972072
0.475645
0.564458
0.656442
1.45638
0.479303
5.82042
1.23779
0.40124
0.155355
1.98139
1.36205
1.88185
5.37702
2.14592
0.334392
1.62888
0.22666
1.53609
2.38636
0.50133
4.77617
0.570191
0.369286
1.54942
2.87787
0.53569
0.29751
1.16606
5.55543
2.74741
1.01559
0.608661
2.582
4.27721
0.501141
0.445197
0.754944
4.99396
5.11543
0.380432
3.14564
0.64032
0.361384
3.20934
0.672919
0.320863
5.76903
0.762485
1.06183
0.125661
3.46981
0.653206
3.47297
1.95756
0.958591
5.78217
1.69147
0.331551
2.79308
1.16321
1.4255
0.555546
1.33174
0.458406
5.54152
0.454757
3.56846
0.594879
2.40983
0.46138
0.324367
0.555897
0.461434
3.34858
0.116391
0.415075
3.24017
0.811897
0.693922
5.61151
2.74
0.568893
0.333772
1.3601
2.55097
0.307388
0.448679
2.139
3.73257
4.01112
1.26012
0.468168
0.0600578
2.55526
0.395498
0.153821
0.709211
0.566391
0.32292
3.97542
0.468851
4.00808
0.239117
0.136907
0.692325
0.871551
0.675225
1.15408
2.87632
0.502105
3.30669
0.589938
3.04777
3.37106
0.515158
0.508544
0.404844
3.01661
4.26483
0.607542
4.28549
1.97255
1.28026
5.65732
5.38996
2.27278
0.615388
0.170786
5.12969
0.299816
0.458002
2.80252
2.35465
2.47875
0.883528
3.59273
0.457337
1.38395
0.502177
5.47105
0.328907
0.268202
1.12376
0.328097
0.646404
0.400894
1.15378
1.67137
0.651854
0.848407
0.432591
0.60572
5.13197
1.14527
0.376127
0.637972
0.704864
3.8012
1.20164
0.292169
2.4287
1.03999
2.92819
0.938121
0.657005
2.78873
0.198343
0.339882
0.718267
5.66702
2.84351
0.496198
5.5149
1.90266
0.217085
2.29977
0.939929
0.256069
0.854884
4.83752
5.57343
4.09983
0.784371
1.99502
0.39099
0.917275
1.6125
3.18273
2.46025
1.93888
0.425284
0.249992
0.912976
3.07128
0.0033042
0.358837
0.626866
0.262635
0.734863
2.23901
3.76049
0.0168368
2.45742
3.28035
0.544211
0.53601
2.46103
0.398607
0.383372
0.309068
5.36239
0.63375
2.07172
5.42305
3.10678
2.05741
0.615371
2.29502
2.61001
0.570868
2.41894
0.450408
0.189319
0.180699
0.639207
0.514455
3.10866
3.35127
0.629639
0.716028
5.68396
0.286729
0.35988
0.322007
0.904837
1.74844
0.690277
0.905809
0.495606
2.4552
0.463402
0.820037
0.600733
0.823605
0.601132
3.82303
1.83147
0.706828
0.126739
0.682046
5.66664
0.430626
0.596969
0.467407
0.54082
4.9299
0.536664
2.45542
0.467545
0.698363
1.91058
2.06105
2.95422
2.77828
0.228723
2.49738
0.300489
0.1955
0.436015
5.36362
3.20418
5.78134
1.77315
0.993289
0.502836
0.503369
0.539942
2.18891
1.36211
0.531346
3.98899
1.54688
0.693536
1.14331
0.518529
0.221304
0.486495
4.10469
3.36839
4.44794
1.85165
0.517537
0.645465
0.664998
3.23079
3.03898
0.640844
0.385306
1.24741
4.92947
0.632165
0.678314
1.91148
0.821129
0.272051
0.442748
1.97989
0.516484
3.51329
0.271761
1.66885
0.19154
0.571538
0.894328
0.638994
0.387998
3.65922
0.348415
0.813181
0.497335
0.524799
2.6056
0.526528
0.389512
3.55786
3.78827
0.510775
0.265489
2.90498
1.40311
0.50238
3.60063
0.427893
1.81886
0.372044
0.332202
0.179468
0.301926
2.82232
0.550363
1.28003
1.09289
0.635327
1.96183
3.05626
0.220725
5.67968
2.25122
1.2992
5.5876
0.260249
0.34604
3.81276
0.356761
4.07512
3.35092
3.93069
0.724112
0.307926
0.224323
5.52314
0.990903
0.558396
4.38001
0.659712
0.49158
0.580157
0.584867
1.04289
0.41525
2.93108
0.432914
3.75751
5.69838
0.617752
4.31129
0.713558
0.599785
0.372028
0.642483
2.40663
1.28097
4.08792
0.53213
0.709695
2.40521
3.45362
0.620803
0.309865
0.303176
2.40601
2.59041
0.760852
0.477861
4.91222
0.439593
0.374475
0.410035
0.63199
0.466213
0.476407
0.721039
3.9624
3.51986
0.423196
0.65143
5.69329
0.633754
0.933054
1.23995
0.826164
2.27998
1.53079
0.172569
2.0182
1.9661
1.26296
4.193
0.553294
0.276563
1.82345
0.527631
5.00559
0.618987
0.657876
0.75129
0.397458
1.15633
5.32161
1.09706
2.4137
1.52633
3.91779
1.93339
1.20345
0.175832
0.554885
1.88715
0.4687
2.85343
5.6412
0.724011
1.84092
0.483927
0.461876
3.58077
4.96891
2.79405
0.831737
0.614148
0.615663
0.623783
0.36189
3.77791
0.149842
0.61859
0.703131
0.48486
0.201492
0.721778
0.441588
0.129868
1.33888
0.48105
5.35823
0.48056
1.23827
3.03465
3.47884
2.53312
5.44953
1.69349
1.73759
0.911488
0.336668
0.625439
0.503895
0.723775
0.764834
0.604982
1.5341
0.46268
1.56648
1.32775
0.399872
0.212462
0.736606
2.73901
2.40128
0.248142
0.581843
0.355276
0.691296
3.95045
0.627286
0.273146
0.492565
0.301893
0.212778
0.343342
0.292844
0.69988
0.731781
0.299346
0.404571
0.34594
2.93008
0.453404
5.42921
0.255332
0.819174
2.54173
0.468105
3.60889
0.5315
0.503438
1.84564
1.45733
0.612541
4.49788
0.67003
0.480216
0.543132
4.69453
0.274024
0.35552
3.31272
0.377524
0.26684
0.53606
0.277732
0.551828
1.06048
3.47355
0.511038
0.455355
1.59166
1.88868
2.83589
3.41412
2.09267
5.41044
2.24703
1.48522
0.993852
5.64658
3.92097
0.683288
2.208
0.55704
0.4051
1.84749
2.30732
2.8573
0.829167
4.82314
0.235051
0.306338
5.40604
0.291867
0.173269
5.11937
2.52258
0.160516
0.889077
1.69929
0.461596
2.24693
2.16323
5.26804
2.6905
2.35977
2.96543
0.631695
5.29621
0.569321
0.654125
2.37324
0.106564
2.84404
0.623249
1.94483
0.634311
0.492883
1.01948
0.460119
0.408056
0.230866
0.472467
3.56393
0.396025
0.671446
5.80564
0.955986
3.02615
0.374075
1.34742
0.693121
2.98316
3.55108
0.579854
0.622025
0.454851
4.83624
1.9534
5.64464
0.476153
1.52124
0.524862
3.12434
2.12798
0.247457
1.00539
1.86677
2.27749
0.525101
0.294851
3.95083
0.630378
3.62253
0.558091
1.33694
3.42891
4.82002
1.80869
0.643266
5.64771
0.738509
0.464815
0.682592
0.920854
0.402661
0.451128
5.70787
2.02707
0.639912
5.47054
0.768828
2.13653
1.86385
3.21505
0.565505
0.373397
0.489891
1.71712
0.40261
0.936178
4.83696
0.787493
4.36439
2.29734
0.108659
3.16079
0.584269
2.20668
0.584251
0.268834
3.08261
0.632638
4.05911
0.403788
0.926126
5.34675
2.6078
0.602832
0.25427
4.29557
5.33396
0.697559
0.516959
0.456899
3.59559
0.760743
0.964116
0.383415
2.35078
0.477129
0.73837
0.548903
0.496861
0.56042
0.900727
1.18001
1.67652
0.458852
2.32506
0.556205
2.56583
0.655941
1.58655
1.8416
0.795901
0.608809
0.550098
0.244147
0.541129
0.271416
0.289185
4.21357
2.30825
0.684812
2.0195
0.545165
0.702895
0.511988
4.50496
4.67657
4.02216
0.47389
0.445202
5.64694
3.92689
0.522543
4.87251
0.420799
0.335501
0.424219
0.409251
2.30938
0.514715
5.03923
1.23244
1.02251
0.261641
0.558753
0.361336
1.88386
0.527953
0.750173
2.349
0.864344
2.0049
0.532051
0.509923
0.482975
5.77047
0.303395
2.43971
0.438679
3.11893
0.496591
0.695791
0.400224
4.9946
2.28378
1.3526
5.22754
5.20095
1.77861
5.07625
0.622181
0.543846
5.37214
0.659878
1.8644
0.280022
0.572753
0.34824
0.843473
0.461543
0.633167
0.709554
1.26722
0.348976
0.526556
0.639464
5.20912
0.630963
4.60163
0.684657
4.65236
0.766508
5.06715
1.40487
0.455112
1.61601
5.33626
0.502073
3.50462
3.60964
0.406841
0.616677
1.98824
0.513829
0.572013
3.47055
0.522727
4.45196
2.90336
4.92612
4.90148
2.35879
1.31545
0.462277
0.527313
4.47823
0.560782
0.610281
1.82335
3.54318
1.64603
4.90312
3.9062
0.178947
3.22228
0.549745
2.1262
5.01658
4.84989
0.644367
2.56551
0.498796
0.607123
0.246422
0.478362
4.7666
0.370473
0.480964
0.616581
5.77031
0.0412432
1.46514
0.694385
4.87187
0.296792
2.62894
0.336688
0.743593
0.735353
0.43773
5.6058
0.601721
0.89385
3.99045
2.48671
0.386125
3.20893
1.16776
4.97199
3.78207
5.09112
2.61126
0.577809
0.458528
3.98006
3.71216
0.468309
3.97475
4.56927
0.219781
0.577419
0.643419
1.12403
1.07406
4.25203
2.36155
0.984584
0.0325007
0.606127
5.25825
0.381143
1.37874
1.41735
0.785504
0.792039
2.69552
0.376574
2.17785
0.417907
0.478505
0.114967
1.49863
5.17805
3.86258
0.517306
3.61818
0.480243
0.519811
1.03878
5.03774
0.314805
0.906802
0.440516
0.80813
0.443989
0.554821
0.705774
2.70967
3.7429
0.605089
0.455154
5.06267
3.55923
0.577204
5.00213
0.720128
0.757121
0.546149
0.462457
0.486764
3.94262
1.0502
0.288295
5.57602
1.85549
0.406705
2.32272
1.03465
0.708231
3.47842
0.625205
1.9181
0.978338
0.246963
2.37528
0.418955
1.37828
0.619588
0.851476
0.529212
0.464351
0.229286
3.33874
2.03099
0.510596
0.447623
1.40742
0.349684
0.661504
3.18544
0.655742
2.38313
0.637341
4.6962
2.72033
0.391224
1.2734
0.560975
0.527627
0.393266
3.1268
0.373346
5.17464
0.283351
2.32
2.41732
4.49924
0.420167
3.57506
3.17466
0.210044
0.561551
0.500042
0.719592
0.269532
0.603976
2.19099
2.95899
2.427
1.24709
2.71286
1.15772
4.01876
3.67341
4.00591
0.220142
0.59816
0.585075
3.80976
2.46505
0.594306
4.79154
0.333898
2.59191
0.468964
3.87566
0.364306
0.406722
0.282441
0.424866
1.40658
1.50398
0.723162
0.539143
3.76537
2.49168
0.5843
0.6771
2.92608
2.071
0.602793
0.979498
1.40771
0.251266
0.653428
1.29938
2.22747
5.00223
0.229117
2.91728
0.56185
0.804667
0.619722
2.29256
1.96677
0.403328
0.476928
0.946418
3.34018
0.573853
2.113
0.968855
0.606326
0.427832
2.55834
2.1518
2.28639
4.17514
0.484613
0.543206
0.482069
4.09899
2.14265
0.730452
0.479576
4.43076
4.15037
0.446349
0.682216
0.474901
0.939137
0.438147
1.1528
0.913823
0.466956
2.37585
0.535218
0.653862
2.39416
3.18009
0.503594
0.44207
0.251764
2.19932
3.88864
5.84618
0.377694
0.465755
0.384532
0.126723
2.81552
3.96575
1.85603
0.832237
0.450996
2.56795
0.581012
0.320539
0.522821
0.588877
4.10182
3.63223
0.440325
0.720491
1.34
1.23412
0.952174
5.47004
1.46627
0.81011
1.90519
1.53708
2.67096
5.09595
5.04163
1.49691
0.229815
3.76894
2.53019
2.13715
0.647781
0.909058
0.61651
0.615148
0.985959
0.35121
0.427195
0.349567
1.45934
2.61747
0.212908
5.56334
0.118474
3.92188
4.78248
0.387134
4.46967
0.999566
0.57955
1.49668
3.53704
2.89562
2.39499
0.642783
0.586364
0.899328
0.466961
2.38934
2.81575
0.0229274
0.693457
0.518388
0.593015
2.94137
0.464222
0.61391
2.1366
0.287932
0.336144
0.560417
0.504488
0.24691
0.329333
0.288034
0.448836
0.244666
0.675202
2.40203
0.271603
0.646433
5.10177
0.491456
0.469673
4.42144
1.83424
1.92907
0.23827
4.3621
3.17775
0.653004
3.24131
0.188274
4.79882
0.697794
2.01487
5.14282
0.358573
2.16183
0.793658
0.488784
0.412526
5.17294
3.74283
0.458972
4.77283
0.514632
3.06662
2.42335
0.767252
2.13625
0.161457
4.79256
1.53322
0.917016
4.79554
0.482159
0.592168
1.15392
1.37887
0.504689
0.592635
0.44308
0.577213
0.522439
1.10972
0.400149
0.736945
0.895501
0.839124
0.666108
2.12517
2.65462
3.58111
2.5754
0.72653
1.48515
1.35411
0.585382
5.42402
5.36038
0.589246
0.652347
1.53624
3.00344
0.0340802
3.28814
5.48296
2.55515
2.08257
2.72818
2.41181
0.810851
0.695886
4.53183
2.76298
0.465677
0.63138
0.465933
2.36771
0.0856949
0.870788
2.48706
1.41738
3.91209
0.386081
4.33429
0.275863
2.56078
0.264751
0.457751
1.29369
3.10307
1.71751
0.699309
1.74248
0.533208
0.396504
0.370087
0.421103
0.296824
3.01706
2.88554
0.16578
0.63151
4.54558
2.52011
2.74893
2.4857
0.703252
0.256295
0.289816
1.76941
2.94162
5.45082
3.40716
5.21405
0.515433
0.102843
0.15835
2.0442
1.717
0.537301
0.681098
0.412855
0.673835
0.150804
4.31401
0.240797
2.43452
0.505723
0.49791
3.9222
0.430187
0.598554
2.64692
1.27143
0.44518
2.42679
0.284684
0.532064
2.5186
0.527953
0.933484
1.13736
0.819663
2.96559
0.428619
2.29304
0.589784
0.734873
2.44133
0.811517
5.6416
0.320222
0.596395
2.52433
1.01087
4.41889
2.08079
0.440502
4.6736
2.44856
5.54916
2.3755
0.38673
0.419056
0.56857
0.425037
0.579917
0.525851
0.230418
0.630275
2.35773
3.66999
0.554244
2.18778
1.00667
0.303282
3.7727
2.26366
0.534793
0.407377
0.584476
3.0603
0.520406
0.615407
0.437551
0.387811
0.341589
0.988218
4.27705
1.01471
2.74831
0.354117
0.0912814
2.87284
0.990179
0.570835
0.633166
4.27226
5.45822
2.66149
0.499716
0.517714
3.06241
1.2081
0.735824
1.24124
0.454175
2.84611
0.507768
2.37122
2.2291
4.7046
0.444245
0.530574
2.27469
3.1077
0.419988
0.588487
0.452522
1.14826
0.131987
0.263389
0.681289
0.581583
3.0406
5.41452
0.449993
4.01461
1.9258
0.292396
1.69565
2.62752
2.98534
0.446214
4.01829
4.73741
0.278726
5.72319
1.67493
3.28287
0.242591
2.01419
3.87845
3.14008
0.789132
5.74087
2.41293
0.495951
2.34695
5.16357
0.483237
3.54716
0.25895
3.837
0.514096
2.36642
0.387713
0.618149
5.39987
0.637769
3.17596
2.76312
2.13417
0.589615
0.25215
0.722257
2.68592
0.299439
0.294911
1.99314
0.248973
0.769559
0.424856
0.447829
0.666092
0.723946
4.90494
1.33446
0.639943
2.12285
0.808176
0.628747