/*--------------------------------*- C++ -*----------------------------------*\
  =========                 |
  \\      /  F ield         | OpenFOAM: The Open Source CFD Toolbox
   \\    /   O peration     | Website:  https://openfoam.org
    \\  /    A nd           | Version:  10
     \\/     M anipulation  |
\*---------------------------------------------------------------------------*/
FoamFile
{
    format      ascii;
    class       volScalarField;
    location    "2000";
    object      p;
}
// * * * * * * * * * * * * * * * * * * * * * * * * * * * * * * * * * * * * * //

dimensions      [0 2 -2 0 0 0 0];

internalField   nonuniform List<scalar> 
10435
(
-0.00180275
-3.46143
-11.5489
-4.9684
-10.0885
-12.3783
-11.4271
-11.6911
-12.1657
-11.1562
-5.83355
-8.54915
-10.9594
4.01309
3.74099
-11.4459
4.14765
-10.9242
-12.1643
-0.810959
-11.081
-4.22136
-11.1177
-9.8408
-12.0077
4.20278
4.26693
-11.0389
3.82759
-11.9452
-11.5503
-6.86709
-11.6473
4.12453
-11.2476
0.000747734
-11.1359
3.21462
4.63601
-11.2842
-12.8277
-10.4639
4.61137
-3.10141
-11.1887
-10.6135
-11.9067
4.3596
-12.3261
-3.92863
-11.483
-11.5325
4.21669
3.60564
4.83137
3.61316
-10.7595
3.95531
4.17815
-10.9171
4.33949
-2.28874
4.12954
-10.9171
-11.274
-11.3149
4.19975
4.11841
-11.3446
-9.00833
4.04751
3.66585
5.07905
-11.2175
3.33252
4.58726
-7.99425
-11.2489
-12.004
3.37448
-5.61196
0.902383
4.32425
3.87541
-6.44126
1.0499
0.295978
-3.66054
2.71745
-0.689374
-4.66435
-5.80087
0.137649
1.98223
-1.65574
1.05183
-6.50873
3.55121
4.43938
-8.05673
2.73343
-11.4673
1.19714
-2.65075
-11.6297
-4.05606
-0.638555
-4.72273
-7.19835
2.90871
-3.11716
-10.7897
1.65919
2.2646
-7.30348
-3.36628
-8.55273
0.074823
-4.2241
-7.76195
-8.74861
4.9045
-0.975904
3.16177
-8.52846
4.30176
-7.18493
4.49343
-9.60113
3.32048
3.98014
-7.43706
-11.4476
3.73545
3.82116
4.68195
1.26494
-5.70428
-3.12554
-2.49969
-1.65411
-11.3098
4.25307
-10.6369
-4.98845
3.98404
2.34579
-11.5495
4.28679
-9.66506
4.25322
-10.7618
-0.359673
-10.4309
-11.6821
4.22439
-9.4389
-2.03242
-11.6065
-5.04896
-10.7858
4.01556
-6.36303
-7.319
2.86926
-9.73024
-11.6982
-7.1312
-8.96675
-10.5282
-11.199
4.28343
3.50183
3.61968
-9.50125
-3.74717
-1.13717
4.21416
-2.24815
4.10583
-4.64711
-11.6677
-9.57366
4.10561
-10.5216
4.7712
4.02449
-11.1618
-11.0879
-10.9129
-8.8797
4.3664
4.13456
0.123373
-10.2196
-11.2754
4.54729
1.93292
4.31556
-11.2546
3.13114
4.62805
-11.0719
4.00119
-11.2377
-8.18354
-5.3724
-6.45857
3.974
-5.77471
4.65824
-11.6349
-9.53402
-8.23714
4.51289
4.11122
2.1735
4.34858
2.91134
4.20567
4.07194
3.98365
4.32666
3.43517
4.00948
-11.2769
3.17664
2.68849
-11.213
4.21209
4.25634
-11.4809
3.06311
-10.4199
3.45017
4.34804
-10.2218
3.54548
-9.68342
-11.4213
-2.18145
4.23954
4.31287
3.58384
-7.62311
-12.0401
2.07147
-11.3428
2.36929
-2.44333
2.11914
2.06736
-11.4818
-6.55503
-11.2251
-10.7638
1.61821
-11.0924
4.18663
4.10233
-10.5367
-11.5494
3.76787
-8.14064
1.57368
4.52974
-1.25769
-11.0423
4.64018
-8.84414
-10.941
-11.1289
-10.6911
-10.6928
2.75109
-8.15872
3.99979
-9.61892
-10.9438
-11.5225
-11.8426
4.18754
-11.074
2.95012
1.37853
4.80201
-10.9015
3.48662
3.94683
3.88623
3.03949
-6.31185
3.85378
-11.2181
3.82326
1.53037
4.22188
0.811043
-8.8023
-11.7303
4.23725
-8.97454
-10.9698
2.14378
-8.02601
3.82893
4.55031
-9.94068
-11.7228
3.98815
-1.45913
3.70671
-1.14805
-11.8133
-11.7272
1.51906
4.39918
-10.7436
4.21273
-7.79517
-12.14
3.51975
0.550163
4.48784
-12.0086
-11.4116
2.29678
-10.8397
4.34064
3.91404
-11.3222
3.93482
3.99021
-11.3562
-10.0603
4.00843
3.71504
3.27363
4.16351
3.48122
1.74557
4.23527
4.55219
2.05698
1.37289
3.59968
4.06624
4.67738
4.60995
-12.1278
4.07732
-12.0287
1.99462
-10.7873
-12.1133
-13.104
-10.7942
-11.0042
3.59951
4.04847
3.30362
4.54729
3.4908
4.17625
3.7671
1.43463
3.90487
-9.03981
4.05617
-12.2462
4.51357
1.16688
-10.5009
-13.4135
4.71148
0.70507
3.55327
3.79421
4.02502
3.9551
-0.172426
3.63887
-11.5818
4.15611
-11.3896
-12.7075
-10.6543
-10.5956
-12.8879
-10.8716
-11.4257
3.89629
4.37604
3.86603
4.13157
-11.4675
3.89952
-11.5072
1.08834
3.89192
0.000503417
4.38417
4.12736
-11.8524
3.36791
-11.5037
-9.41791
4.51962
3.84108
2.01509
-12.3255
1.86921
4.05085
3.78384
3.51258
4.35485
4.15672
-11.2156
2.29814
3.48799
3.84473
4.50501
-11.9306
4.59327
4.86941
-13.1997
4.20257
17.8915
10.8982
12.7002
11.0009
11.558
10.986
11.0393
10.9022
10.3721
15.8888
10.0581
11.4865
10.2972
10.619
10.2625
10.2834
10.1799
10.1056
14.0299
9.14016
10.4592
9.68173
9.88281
9.66975
9.67188
9.60551
9.52343
12.6302
8.54846
9.62001
9.10764
9.25105
9.13437
9.14298
9.11709
9.05214
11.3873
8.10518
8.9158
8.59796
8.71539
8.66926
8.69772
8.71619
8.67337
10.2823
7.73916
8.32727
8.1599
8.26589
8.2708
8.31835
8.36423
8.36641
9.35953
7.46321
7.84443
7.79071
7.892
7.93538
8.00279
8.07571
8.12544
8.62484
7.28395
7.45664
7.48154
7.58051
7.65111
7.73369
7.82615
7.8485
8.02159
7.06065
7.12776
7.21557
7.31826
7.40846
7.50278
7.60222
7.68049
7.45101
6.70529
6.8311
6.98085
7.09454
7.19916
7.3038
7.41276
7.50376
7.00373
6.40434
6.60569
6.785
6.90564
7.01648
7.12685
7.23992
7.35732
6.82421
6.2777
6.48781
6.63424
6.74732
6.85249
6.95863
7.06177
7.20668
6.72994
6.25331
6.42799
6.51348
6.61175
6.70741
6.8118
6.9259
7.04451
6.58622
6.24383
6.38163
6.40392
6.4849
6.5665
6.66166
6.7687
6.85494
6.49368
6.22165
6.32927
6.29406
6.36063
6.43099
6.52234
6.62855
6.73639
6.38458
6.1347
6.24498
6.17096
6.22901
6.29027
6.3755
6.47318
6.58486
6.16044
5.92295
6.09426
6.02374
6.08457
6.14212
6.22221
6.30913
6.42864
5.92757
5.6526
5.91033
5.86196
5.93157
5.99147
6.07362
6.16643
6.29489
5.75426
5.42469
5.72585
5.69659
5.77163
5.83182
5.90994
5.99833
6.09549
5.59393
5.24523
5.54703
5.53256
5.60809
5.66636
5.73725
5.81565
5.89963
5.40274
5.09227
5.37069
5.37274
5.44545
5.5028
5.57153
5.65269
5.72905
5.13812
4.95835
5.19031
5.21427
5.27868
5.33004
5.38981
5.46047
5.4712
4.76577
4.90198
5.02517
5.07477
5.12736
5.17016
5.22281
5.27699
5.26849
4.34034
4.92881
4.81557
4.87507
4.91254
4.9485
5.01074
5.06172
5.04545
4.15149
5.22567
4.96792
5.02217
5.02222
4.98511
5.03558
5.08755
4.76352
13.7192
14.017
14.5346
15.0849
15.6742
16.3094
16.9769
17.6756
18.398
19.1317
19.8689
20.6004
21.3099
21.9944
22.6445
23.2468
23.7995
24.2938
24.7199
25.0742
25.352
25.5671
25.7934
25.9608
25.8568
25.5641
25.3764
25.5222
25.9857
26.514
27.0175
27.4944
27.7935
27.9154
27.9606
27.9356
27.8294
27.6651
27.4439
27.1841
26.8904
26.5681
26.2149
25.8367
25.4347
24.9977
24.5336
24.045
23.5231
22.986
22.4434
21.9033
21.3801
20.8809
20.4063
19.9807
19.5924
19.2412
19.0663
5.69917
5.55455
5.533
5.49524
5.43787
5.37583
5.32928
5.30271
5.2984
5.31898
5.36628
5.44064
5.54123
5.66622
5.81366
5.98174
6.16878
6.37533
6.60428
6.86126
7.15629
7.50269
7.92149
8.41222
8.99454
9.62473
10.0719
10.1905
9.97552
9.50242
9.02873
8.69072
8.43746
8.23895
8.08812
7.96942
7.86965
7.78187
7.70128
7.62602
7.55576
7.49173
7.43718
7.39612
7.37347
7.37579
7.40903
7.481
7.59094
7.71487
7.8453
8.00777
8.21128
8.44454
8.6999
8.97195
9.24505
9.52728
9.98176
9.08974
9.33483
9.57187
9.8192
10.0758
10.3405
10.6139
10.8985
11.1901
11.485
11.7841
12.0849
12.3855
12.6834
12.977
13.265
13.5463
13.8211
14.0904
14.3558
14.6199
14.885
15.1523
15.4148
15.6562
15.8642
16.0137
16.1142
16.1653
16.1509
16.0976
16.039
15.9717
15.8995
15.8272
15.7553
15.6828
15.6093
15.5342
15.4572
15.3784
15.2974
15.2149
15.1308
15.0455
14.9597
14.8737
14.7875
14.7016
14.6157
14.5298
14.4409
14.3468
14.2459
14.138
14.0221
13.9031
13.8012
13.6642
6.67031
6.67807
6.75382
6.8282
6.90759
6.99565
7.09283
7.20127
7.32256
7.45776
7.60831
7.77523
7.95875
8.15919
8.37581
8.60771
8.85355
9.11139
9.37969
9.65616
9.93872
10.2241
10.5081
10.7841
11.0417
11.2676
11.4435
11.5582
11.609
11.6017
11.5532
11.4789
11.3866
11.2817
11.1679
11.0476
10.9223
10.7939
10.665
10.5382
10.4168
10.3041
10.2037
10.1184
10.0513
10.0043
9.97827
9.97379
9.98961
10.0243
10.0763
10.1445
10.2271
10.3216
10.424
10.5386
10.659
10.7854
10.9555
7.65352
7.80545
7.97334
8.14638
8.32555
8.51038
8.69978
8.89341
9.09037
9.28977
9.49119
9.6942
9.89796
10.1026
10.3075
10.5125
10.7175
10.9217
11.1251
11.3272
11.5271
11.7231
11.9127
12.0929
12.2581
12.4045
12.5262
12.621
12.6876
12.7268
12.7428
12.7396
12.7215
12.6926
12.6546
12.6114
12.5645
12.5146
12.4654
12.4182
12.3744
12.3354
12.3021
12.2749
12.254
12.2387
12.2282
12.2213
12.2161
12.2116
12.2063
12.1988
12.1887
12.1762
12.1615
12.1474
12.1364
12.1424
12.1317
6.79431
6.84534
6.93846
7.03569
7.1401
7.25344
7.37613
7.50849
7.65096
7.80323
7.96637
8.14006
8.32443
8.51903
8.72282
8.93463
9.15304
9.37388
9.59768
9.82199
10.0452
10.2629
10.4715
10.6693
10.8473
11.0055
11.1367
11.2418
11.3184
11.3668
11.3912
11.3902
11.37
11.3351
11.2832
11.2231
11.1542
11.072
10.9891
10.9056
10.8254
10.7514
10.6861
10.6319
10.5921
10.5642
10.5511
10.5503
10.5619
10.5853
10.6196
10.663
10.7141
10.772
10.8303
10.8945
10.9721
11.0642
11.163
6.95577
7.04986
7.16846
7.29351
7.42539
7.56461
7.70923
7.86067
8.01816
8.17917
8.3447
8.51349
8.68718
8.86436
9.04359
9.22539
9.41241
9.59285
9.77604
9.95631
10.1377
10.312
10.4774
10.6415
10.7819
10.9149
11.0233
11.1194
11.1968
11.2528
11.2992
11.3179
11.3236
11.3252
11.3024
11.284
11.261
11.2111
11.1766
11.1402
11.1076
11.0798
11.0568
11.0405
11.0387
11.0371
11.0486
11.0631
11.0834
11.1077
11.134
11.1619
11.189
11.2167
11.2444
11.2749
11.3047
11.351
11.3928
6.69888
6.74201
6.81591
6.90274
6.99001
7.09619
7.20035
7.3333
7.46971
7.58522
7.73463
7.88185
8.04533
8.22363
8.40251
8.60099
8.81263
8.96644
9.14417
9.32567
9.52497
9.70668
9.86932
10.0621
10.1861
10.3294
10.4202
10.5182
10.5973
10.6539
10.7215
10.7295
10.7382
10.7673
10.719
10.7328
10.769
10.6551
10.5997
10.5416
10.4923
10.448
10.4074
10.3736
10.4094
10.394
10.4422
10.4585
10.4617
10.483
10.5274
10.5963
10.6529
10.7149
10.789
10.8755
10.9626
11.0825
11.1675
6.46898
6.56389
6.63953
6.76447
6.87959
7.0199
7.12233
7.20852
7.36259
7.58734
7.65171
7.80202
7.99208
8.13439
8.33548
8.42074
8.64362
8.81282
9.00077
9.12652
9.31289
9.45817
9.59122
9.78134
9.86596
10.009
10.0721
10.1698
10.2915
10.2674
10.4322
10.4371
10.4013
10.4798
10.4225
10.4944
10.4188
10.2842
10.3931
10.3533
10.3291
10.3427
10.2878
10.2759
10.2899
10.2512
10.2606
10.2342
10.3348
10.3975
10.4175
10.4418
10.4803
10.568
10.6519
10.7076
10.7635
10.6246
10.7991
1.43882
1.27792
1.35251
1.49914
1.72774
2.02901
2.32881
2.6195
2.89468
3.1065
3.29845
3.52719
3.73438
3.94884
4.30008
4.76796
5.26483
5.80008
6.41718
7.14271
7.98378
8.95527
10.1043
11.5561
12.8612
4.36081
4.40855
4.34758
4.2514
4.16175
4.16113
4.24638
4.38032
4.51268
4.5631
4.50708
4.39795
4.28998
4.22755
4.27397
4.40484
4.49854
4.55888
4.67333
4.85973
5.09573
5.36647
5.67684
6.06777
6.34528
3.69796
3.71564
3.73717
3.7576
3.79817
3.87957
3.98919
4.10515
4.20587
4.25787
4.26281
4.24492
4.22575
4.23051
4.298
4.42768
4.59027
4.78953
5.04756
5.37427
5.77313
6.24988
6.81412
7.47922
8.28697
3.9478
3.9448
3.97285
3.99368
4.02483
4.07283
4.13526
4.2019
4.26238
4.30376
4.32504
4.33557
4.34701
4.37173
4.42413
4.50723
4.61593
4.75415
4.93091
5.1503
5.41208
5.71167
6.04013
6.37359
6.72183
3.98273
3.97053
3.99617
4.01945
4.05453
4.09877
4.15181
4.20551
4.25509
4.29432
4.32286
4.34616
4.37182
4.40749
4.4626
4.54249
4.6496
4.7891
4.96776
5.19015
5.46115
5.78412
6.16644
6.60753
7.16508
4.04885
4.03965
4.06438
4.08395
4.11621
4.15211
4.19601
4.23864
4.28002
4.31619
4.34615
4.37382
4.40486
4.44295
4.49501
4.56616
4.66045
4.78287
4.93827
5.12874
5.35815
5.62452
5.92976
6.25526
6.64323
4.12384
4.08598
4.11432
4.12725
4.15781
4.18663
4.22652
4.262
4.29906
4.33377
4.36311
4.39164
4.4254
4.46404
4.5143
4.58141
4.66967
4.78464
4.93099
5.10913
5.32738
5.58329
5.88935
6.22364
6.65291
4.1878
4.11648
4.15943
4.16523
4.19722
4.21917
4.25929
4.28784
4.32114
4.35489
4.38126
4.40759
4.44403
4.48227
4.52989
4.593
4.67483
4.78081
4.91459
5.07436
5.27657
5.50941
5.8003
6.13577
6.53029
4.18865
4.14535
4.21279
4.20284
4.23571
4.239
4.28451
4.30049
4.34307
4.37568
4.40248
4.42202
4.45579
4.48885
4.53412
4.59117
4.66511
4.76203
4.90665
5.05823
5.23664
5.46332
5.69967
5.83157
6.0713
-13.6095
-12.4381
-1.77599
8.51249
4.60951
4.56214
-1.27396
5.43656
-3.18175
10.137
-10.9406
6.04157
-16.8512
3.83237
-6.75129
7.38202
-8.64951
8.34893
10.0983
-18.6091
-17.8101
8.42266
-10.6681
9.36504
5.4044
7.16022
5.36308
4.221
-10.9559
-9.93695
9.30556
8.61724
-12.4961
-13.1135
-10.1578
5.01741
-2.4996
-6.16259
-4.56522
9.74259
-11.3505
9.75185
8.08557
4.23782
6.26739
9.60774
-10.7697
-9.63769
-10.281
-12.4501
-10.7674
-11.201
-17.0485
8.71385
-1.22627
-2.99028
3.79292
-17.8607
4.50688
-8.94491
5.21206
-1.02353
4.63682
7.45154
5.38378
4.36393
8.264
7.89103
-15.517
-11.6079
-3.44165
8.71232
4.75894
-16.4445
5.14741
-18.4559
-14.3921
-10.6161
4.26394
9.27731
-13.0663
5.41264
5.89134
-8.82062
4.80063
5.25671
4.60981
-10.7909
-12.5939
7.01955
7.83292
7.39363
10.4931
6.11398
4.63956
-10.7922
7.01155
-10.4864
9.54646
-9.0167
4.38972
-11.8526
4.39706
8.29452
4.57414
4.43354
-10.7295
-13.8744
7.05951
-9.65489
7.41897
6.48411
-10.1292
8.3755
-17.4448
-10.1528
-12.0194
9.94993
-16.6506
6.54201
7.94598
6.39407
9.68044
5.56031
-12.4105
8.10293
-11.3469
-18.4928
3.85489
-9.86896
6.20062
-16.5607
-11.112
-9.22989
4.19531
4.66553
6.30858
4.48184
5.66549
-17.6978
7.7626
-3.02618
-9.50904
8.01137
-10.5629
6.90741
6.71617
-14.9399
5.99623
-10.3726
2.10639
3.39855
6.3682
-7.12552
5.59032
-9.60652
4.69253
9.99823
-12.1217
10.8294
8.73698
-3.53127
6.56736
-10.5071
10.0144
-8.73901
3.74507
5.13454
8.28248
4.75391
3.84766
7.6391
7.52323
-8.96061
7.59302
4.28553
-12.3147
-11.1047
-9.74473
9.29518
-10.7589
9.11175
-16.7123
-9.96548
4.69276
10.8904
-9.02041
7.00005
-12.9027
6.5002
-9.57055
-9.72699
-6.39673
-2.03005
-6.83256
-12.5756
5.16595
8.39706
-10.2617
-10.7035
-15.2437
8.02696
5.58278
6.21618
2.43575
10.2681
8.54542
4.45667
-10.7058
10.0202
4.60116
6.29518
-10.8999
2.35675
1.85649
-10.9895
4.52002
11.1812
10.2104
5.95252
4.34359
9.85742
5.71349
-0.292931
11.4263
-11.8324
8.03176
-8.42949
7.02579
4.71455
-9.3782
5.17953
8.92668
6.37502
-4.02781
10.0576
-11.5178
4.21996
-10.0672
-6.15943
8.99568
5.06806
10.0082
4.30881
4.76984
5.07511
7.98302
4.66392
6.96857
10.3778
7.15
4.35944
9.01475
-10.7216
7.69897
4.94998
-9.91761
-13.9008
-12.0891
11.0269
7.07505
3.81319
5.92
5.44511
-16.0616
5.69409
10.7771
5.72083
-1.82217
5.14091
-15.5062
-6.98803
9.26778
11.2408
10.4284
5.40234
8.5595
-4.68778
3.67219
-11.0177
4.55215
2.01935
8.83356
9.39323
-9.44841
6.13308
4.35497
10.5723
-11.0659
-9.46638
-3.78318
6.72903
9.20036
-11.0882
-11.9014
-11.1321
-10.5725
7.44995
10.6644
-10.0076
-10.3671
8.47867
10.9532
6.37602
-10.4124
10.4044
-18.2859
8.14315
-18.0595
5.57058
8.10536
9.53711
-12.6675
3.97967
9.16173
-1.84335
-10.7647
9.13627
5.417
-8.99558
-12.459
6.96983
10.9968
9.35373
4.8217
5.71142
-12.3161
-13.8889
7.62005
-17.1961
9.87458
-7.09142
4.3473
9.99585
-11.1595
5.18059
5.50105
6.25664
7.05977
7.54944
6.32652
5.92138
-9.87156
8.96187
-15.9179
4.55448
4.4935
9.44541
4.87878
-9.7512
-1.31927
10.5184
8.42765
-12.1094
-11.1056
11.467
-7.89466
3.86376
9.97102
-8.86001
-10.8361
-10.7102
10.8641
-12.1087
9.95539
4.72114
7.51549
-11.1209
5.71518
-12.6255
9.80137
-7.49949
-10.8742
-7.48667
-15.8176
5.96591
6.20663
10.2613
11.0303
9.73562
-10.4926
6.7747
-12.2172
4.0523
4.09742
-10.2366
10.1631
-18.4909
-11.1951
-9.3962
0.894362
10.5287
5.62866
-10.973
-10.3327
10.6135
10.2268
-12.3484
10.2414
-10.5327
5.3498
7.96124
4.68942
-12.5459
5.79948
10.9557
-2.46017
5.62299
1.57556
8.691
-10.3234
5.59606
-9.81423
5.47866
6.84117
11.4366
-10.1696
-9.56722
10.9034
7.5311
9.57856
10.8119
6.94028
4.34304
8.5945
-10.5196
7.12951
10.5294
8.13372
8.60794
5.54577
4.942
6.81762
4.32877
-2.4402
7.82104
7.1641
9.11825
9.41013
11.3137
10.7884
-6.10965
-11.3206
2.75745
-15.4777
3.25889
4.31238
-6.58733
4.58872
4.24099
-7.6335
9.22081
6.31673
-10.0908
9.92668
-11.6403
-8.65504
5.49633
7.95211
-16.214
6.52319
4.07036
-10.4927
-11.2479
-10.5609
4.87852
4.5729
-0.225371
10.7754
-10.7688
4.44394
4.83298
-10.5872
11.3669
5.5837
-14.4155
6.4959
4.78354
-14.3788
-14.5902
1.72942
-5.61566
10.4177
5.94772
-9.28576
4.74641
5.45062
9.17889
-12.0757
8.47791
-8.26944
6.94063
6.04906
-10.913
5.69133
4.47261
-7.51878
5.59469
10.6218
-12.7214
8.28426
-3.23603
5.84899
4.30528
-12.9548
-12.5992
6.7999
6.40569
-2.37663
7.53188
9.02536
-11.9507
7.74919
6.8424
10.9471
-11.1154
-10.7685
-9.92478
5.93254
1.40274
9.95263
-9.75921
-18.4846
6.53646
-13.0474
9.44757
-10.7003
-11.9185
10.2684
8.34072
4.36305
8.40409
4.08097
-4.60612
6.53402
2.1037
7.16223
-10.1478
-10.2953
6.69489
-9.60189
-9.69765
7.75544
-10.9056
8.41876
0.557927
6.45686
4.31911
5.57723
-5.07392
-3.94092
-5.86212
3.88123
-10.6087
-10.0237
-10.6331
5.58452
9.89217
-16.2964
-11.2494
7.73076
-9.9509
7.12683
-15.0481
-9.79463
10.2994
1.55607
4.4622
8.85117
5.91799
-12.7674
9.77884
-7.02211
4.58965
4.55729
-9.95382
-9.83726
-10.9815
4.3029
5.95095
-16.4598
-17.6327
7.7813
10.0409
5.62192
-12.2827
8.63808
4.55888
-4.65166
9.04056
4.59071
4.72507
7.42566
-8.46331
9.92999
4.42735
-13.8936
-10.3094
4.58715
9.36728
-9.71565
4.23484
10.1125
10.7791
-17.9211
8.02394
5.75946
8.97879
10.9085
9.08968
8.68885
-4.55516
5.19577
8.28785
4.40452
-16.4438
11.3674
4.47782
1.25393
7.71418
5.00093
6.62041
9.5861
3.18592
5.43311
-9.19254
-8.97518
4.18738
-12.1423
5.07134
5.0558
4.79261
10.6694
7.09436
6.57319
-15.3295
7.73046
5.86315
3.46002
-9.50049
1.3535
3.95947
4.36049
8.20361
4.66285
10.8773
7.60155
2.46284
-9.36429
-8.22454
-12.0332
11.346
10.1494
8.3177
9.66771
9.02432
-9.84305
11.5298
-18.2505
10.0788
-10.9298
9.90286
-10.7236
8.16011
4.88494
5.62125
-11.491
-6.64511
4.31428
-17.4638
5.37356
10.4894
4.90624
-10.3328
10.2559
6.72395
-8.69097
5.10351
9.83117
9.83875
9.34801
-16.0098
10.9489
6.13014
10.8455
3.90858
10.0696
-10.3191
-10.9953
8.1598
-3.11735
10.8917
-10.9039
5.95693
10.0329
10.166
6.84332
-4.62406
6.65844
9.16013
4.55813
8.32285
7.6277
8.49623
9.40721
-8.93262
-8.50613
2.25056
-10.1195
-4.82592
-12.0821
-10.2477
10.8679
4.71083
4.91566
10.9461
6.51223
4.07397
7.18191
5.27975
-16.0249
9.30453
8.38838
5.09076
9.61055
7.94209
5.25278
2.37814
-12.9975
-11.2581
10.2227
-10.3785
-0.0999662
-11.2328
-17.6553
-11.4947
-11.275
4.61135
11.2434
6.89881
10.2573
9.00865
6.2995
-12.2254
-11.9828
9.28109
-12.8856
2.70781
11.3647
5.28339
5.74252
-8.78932
1.17138
5.39705
-0.7727
-8.27663
-15.7349
-10.9981
10.9659
10.7915
5.18511
10.4414
-10.8149
1.07253
-10.8886
-7.71696
4.83309
-8.38242
6.8225
11.1177
4.5511
4.5619
4.52111
10.9719
7.34334
3.67421
6.39516
6.35842
8.39288
6.10554
5.63862
10.2947
-10.458
-4.87603
8.57959
-0.593617
7.32631
-17.0975
4.86846
10.8688
9.05705
-14.7284
2.03095
10.5697
7.54791
-10.1083
1.20919
-13.1557
5.99338
-14.2084
-12.7639
-10.1815
2.82394
-8.83164
3.48056
9.54364
-10.93
9.50491
5.33475
6.81416
-13.0162
-1.93254
8.5449
4.74774
-12.1839
4.85935
0.25207
-9.58535
9.32894
8.9026
-4.62162
-11.2098
-12.9375
10.3226
11.0422
10.5803
-14.374
-3.49612
9.49745
5.07907
4.52421
-12.2538
11.4183
5.29415
-12.2963
10.5232
6.108
4.52671
10.288
-14.1304
6.59179
-15.2309
10.083
6.00792
-12.7393
8.51001
9.82124
10.3233
4.33282
-14.9363
-10.8726
10.9525
10.3698
6.1339
-7.72081
-17.098
-0.729554
6.69854
-13.9665
-6.08097
7.2179
4.88591
4.42446
-9.51969
10.3232
-14.9754
7.25583
7.24189
-9.38596
6.84203
6.06588
2.46048
-15.6185
-10.2908
-9.15747
-9.28506
10.0657
-12.2858
-7.88227
9.34571
-1.37797
4.91613
4.47537
-16.5622
5.93483
6.18231
-17.2478
1.52636
11.556
11.5601
-12.8019
3.58649
7.04447
-9.60388
-10.9919
-10.284
9.54237
6.76925
-9.74715
-10.524
-11.603
-15.0428
-12.4547
3.12583
10.8115
1.14099
-9.82969
8.88452
8.2225
3.33101
-8.9585
7.32643
-0.0176105
-12.4361
8.27362
4.51107
9.88157
-9.22842
-3.22811
-10.5747
-10.1508
9.38835
4.21259
1.67459
6.48991
-11.3597
-17.5442
10.6258
6.15709
5.92645
11.3071
-13.7172
-10.9864
6.7234
-10.1899
8.66803
-11.3399
9.67197
4.98048
5.54144
-5.20792
-11.1033
4.10451
-14.9527
7.53037
7.80226
-3.67943
8.17117
-7.65417
-9.34335
-9.68777
6.54418
8.66286
-3.00922
6.78535
8.06559
5.25864
-10.1337
8.09809
4.31452
-11.273
-3.06879
4.5603
6.91037
8.25129
8.32993
4.5406
9.15576
-16.1782
10.4636
6.6518
-10.0175
-17.5911
-6.00128
6.69498
7.17707
0.71318
11.5111
-10.2429
4.57058
4.44569
-10.0755
6.78892
5.79392
3.15878
5.05188
-10.6796
10.128
9.04076
10.2525
-1.37772
-1.30377
-11.9757
5.71491
-12.9102
7.81634
7.12431
6.99032
-10.0507
-10.3701
8.54467
-9.22273
11.4532
-9.89979
6.32669
-10.4759
4.79252
5.07301
8.75673
-0.371045
-5.50713
6.64339
9.76387
-16.5845
10.9693
9.44126
5.85445
10.2053
6.38986
-10.034
7.46393
6.57753
-8.81128
4.37104
-9.34576
11.3202
8.64432
8.53289
11.5298
8.22066
4.48762
-11.7671
11.2474
3.95963
10.9488
6.45213
1.06132
-9.99702
9.78203
9.91106
7.43393
8.06297
11.0737
7.85949
-9.70689
9.20675
-16.7485
7.36203
-3.89118
-10.5479
4.33453
-15.8286
7.02397
-11.5648
-10.6346
-9.4751
5.56034
5.9102
4.24724
-10.8411
8.46061
0.526193
8.45635
5.12927
-10.859
4.53211
9.67114
4.46789
10.3646
9.51607
11.5688
-11.2928
10.8768
-13.0629
10.0099
8.74523
10.4351
9.82222
-15.6952
11.4694
-16.6546
-11.9236
4.79998
7.92458
-10.5449
-10.2985
10.9309
10.9573
8.91738
7.42956
9.16984
4.34406
-10.6893
6.65407
10.6224
-15.8227
5.46992
2.44349
-4.93695
10.0702
4.69733
10.495
4.33355
-11.3068
2.13768
-13.2971
9.39391
4.37352
8.55194
-12.0596
-12.2691
9.84781
10.6004
-12.8781
10.1197
4.52958
-10.3875
-11.019
11.246
10.2818
11.4903
4.26881
-11.9031
5.5973
11.5505
-12.1191
-10.062
11.0922
9.37129
5.209
10.5431
5.94168
-16.413
5.61672
-10.5789
5.68875
9.54645
5.00059
-15.6303
8.67599
-11.1169
-10.3892
-9.52495
-12.1568
-11.4182
8.63016
8.06517
-11.7539
-15.0734
5.90436
9.91628
6.70066
4.3724
9.24381
5.39452
6.36112
-8.45455
4.90446
4.32692
-4.51215
4.45781
6.74402
6.6055
-9.54057
11.2994
-11.2338
-10.665
4.45452
9.2277
6.80646
8.30587
6.85947
-12.2027
1.57318
9.57908
6.04248
9.48382
-10.2345
-11.9719
7.43061
7.38169
4.86776
10.8607
4.77877
4.28981
10.2512
4.45192
3.36082
-10.8265
10.2465
7.9094
-6.56881
6.41672
5.64992
8.15713
3.14672
6.63369
8.65121
-16.5327
6.97804
5.43047
-10.321
4.72308
0.746931
-5.01228
10.3168
5.76058
9.54054
-7.91373
7.61703
-14.6399
10.1614
-4.47764
-12.5512
-18.1096
-10.9345
11.072
5.25224
-15.9872
-12.3884
4.40437
8.24634
11.4839
-10.845
9.48654
7.75419
11.4615
9.13244
0.876796
11.5231
4.58304
10.8823
-10.7092
-16.7252
9.59749
9.96145
9.13784
9.32888
6.05308
-11.2831
9.84623
1.8098
-12.8207
-16.9424
10.4977
-12.6944
-10.6068
-17.6592
-11.3519
3.43892
-11.9537
-11.4386
-9.6038
11.0662
-10.2175
10.8077
-3.95454
10.3511
9.92306
-14.311
-8.33054
-10.43
-12.0545
4.36083
8.83783
-1.09407
-11.8069
10.5027
-12.0195
8.31808
-17.7754
9.93583
-10.689
2.35217
4.58457
6.26987
-17.9586
6.22127
3.13997
-17.4165
9.93667
-10.3576
6.87134
8.91579
-7.71157
-0.643228
7.13256
-16.1252
-6.49739
9.67351
-14.0897
10.0412
9.84529
4.36127
4.9952
-12.1349
-13.7508
11.2597
-12.2743
9.06605
-16.5301
10.1701
9.51752
8.70182
-17.496
0.37191
-9.98674
8.01413
-9.883
5.57107
-14.2289
-11.6022
2.13638
8.65273
-11.4199
7.9403
7.35354
10.0736
-11.4278
-11.9423
5.29908
-12.4642
7.56611
6.30044
-1.6829
7.44918
6.2552
-14.5107
9.46096
10.4601
11.0458
6.39518
8.77229
10.1142
-12.6333
-11.0537
6.89073
10.3403
7.06473
-13.6235
-10.6672
5.52059
3.74933
4.42759
-12.7271
3.6981
-0.121297
-14.8641
5.22552
-14.9946
-11.709
5.38137
6.05747
10.4716
9.6616
4.89224
7.70483
4.49625
4.33103
-11.6272
8.54118
-12.1903
5.7546
-11.2445
9.37096
-9.48499
2.14258
-16.1319
-10.7539
4.53438
2.38903
7.65141
7.98114
7.52025
-10.4633
-10.11
9.90417
10.3868
6.24164
8.31586
6.24417
7.04538
-11.6974
-9.93873
-16.0771
-12.0701
9.10249
4.96355
-13.1172
9.78518
-10.8812
10.4814
5.34615
4.57207
7.69992
5.5087
7.75883
5.29941
2.47411
-11.8071
-10.9579
10.5834
6.31127
-14.5299
-4.05079
6.19664
-10.3326
-11.9055
-9.58585
8.30456
-17.0195
6.13937
9.3089
9.70707
5.13841
10.5288
-10.6067
-11.113
9.17502
4.36762
-17.4313
7.20378
-11.9141
-9.30323
7.9384
4.0277
9.61842
4.42341
-12.1411
5.06562
-10.8116
4.54615
9.74245
4.41089
9.09989
4.24778
8.82311
7.99912
10.0347
4.79461
7.31727
-14.1394
9.6784
-8.60102
6.78636
7.18664
9.02259
4.43945
6.52047
-5.9751
-11.627
6.76862
-11.3311
10.2472
-12.347
8.71471
8.65775
5.42145
4.90305
-10.4628
8.56437
7.47881
-4.19881
-9.75002
8.53588
10.3076
10.4863
8.40306
-2.41884
6.72558
6.66339
-12.8672
5.50483
10.1241
7.78547
-12.2433
6.82029
-11.0981
-11.1996
11.5778
2.13287
8.37089
10.4992
-12.134
6.9489
9.87713
9.30871
-16.0788
4.40872
8.4721
5.47261
-4.99683
-8.99779
4.47432
6.45831
-9.96091
9.94621
-1.71026
-11.9695
8.36488
0.733726
-10.724
9.65828
-12.6789
10.1731
7.08425
9.19349
5.53934
-7.83288
-9.69673
8.82309
10.2619
-11.332
8.03993
8.41882
11.0302
3.79454
-2.08612
5.11564
4.68332
10.3424
7.06968
4.89038
7.74502
4.4267
9.25779
-9.14451
-15.6697
4.76506
-12.4124
4.46905
-13.4991
-10.545
-15.0227
-9.77023
11.4322
10.1026
-15.3563
8.84854
9.44932
-10.2851
6.89814
3.26709
-11.1273
-16.3654
8.63326
-9.42826
4.74759
-10.6214
4.52429
11.0523
-4.38852
4.34079
-13.2585
7.25658
10.9929
4.06063
7.43314
-6.91787
1.75322
9.29865
-11.6398
4.31952
-11.4721
4.48963
-12.0646
8.17946
10.3409
6.5034
10.4109
-16.3968
-9.23324
-14.5095
4.62345
-12.4779
-10.4394
10.7509
-17.6105
1.3874
11.1005
-16.2185
-10.3217
8.30693
4.49036
4.58054
-12.1062
6.05069
11.4597
-10.9428
-14.4075
4.07427
-11.6641
-11.8796
6.5031
4.37589
-1.87512
4.43458
-15.526
4.50454
10.1736
5.65752
-9.66052
4.80325
-0.0829604
-11.3618
5.32438
0.465074
-7.27825
10.0778
-10.7316
10.3144
-16.5659
8.12863
5.84181
6.97316
10.0359
6.69522
7.47684
10.4455
4.52012
11.4111
-11.7533
-14.4128
6.21029
-17.2647
4.80625
5.8056
8.27587
9.12464
7.06008
-5.71154
11.4842
-3.43673
-11.7886
-4.6163
-14.5762
10.9524
8.21318
-11.279
9.67301
4.01442
7.91174
6.08255
6.94122
-9.60979
9.91032
10.424
5.0154
4.40249
4.29124
-3.98097
1.20718
-1.35584
-12.3705
6.11245
5.5255
4.91282
8.02053
5.02274
6.37017
4.38511
5.92243
8.95878
8.80106
11.4893
-0.894721
-11.7345
-11.6349
4.45825
9.73432
-0.0597395
-9.60339
-10.4525
4.70499
6.26261
3.72885
10.5646
5.21675
4.44314
-10.1209
0.704724
5.32853
6.96238
7.35797
4.68037
-11.3229
5.37591
8.55164
5.65508
7.81931
-10.7128
10.4067
-6.92019
11.5146
4.50108
4.88627
10.2158
-10.5167
2.14098
8.45913
-11.8228
-13.9236
3.09692
11.2034
7.6035
-9.90041
-12.2541
-11.9032
6.48883
-17.1134
10.189
11.0493
-9.49653
-10.4367
5.48338
6.84046
-0.403515
-2.82074
9.71188
4.91339
-10.3477
5.55652
11.3456
8.26665
9.89317
4.9498
10.6208
10.4912
10.5047
-11.9265
8.95831
5.00539
4.58653
9.46364
2.77024
4.50845
-16.6421
0.659303
1.03492
9.72846
9.5072
8.37637
11.5261
7.80689
5.57175
-14.6178
10.3006
4.52917
10.5635
0.0243287
7.2119
4.93589
10.6861
-11.2991
4.96247
-13.7835
8.53517
11.1463
9.76462
8.05313
10.1911
-10.6048
8.60255
4.56182
8.71171
9.41292
-10.2372
6.1425
10.2805
-12.3014
-12.1807
5.13444
-10.6302
10.5412
-12.3553
10.9809
-12.5472
11.2587
-2.51464
6.13707
-10.9395
4.36545
-9.45686
-9.39606
-9.84762
3.51213
-12.1263
6.20684
5.18241
6.54229
-10.8626
10.3989
4.65615
-16.5981
-10.0782
-11.3297
9.10764
-12.0711
4.95587
7.51947
5.28465
1.73934
10.7872
-4.59623
8.98841
7.52589
10.1533
11.5176
8.40051
-12.9546
10.3847
10.2845
-10.1726
1.39505
4.84568
6.62888
-9.93143
9.25444
9.70457
-11.366
8.58299
-4.64831
-2.04413
9.7215
4.44422
-18.2307
6.87503
8.40372
10.9243
5.28256
8.70711
7.41255
-12.006
4.9548
-11.3143
4.00903
4.43619
-10.4298
1.43934
3.59839
10.2966
5.1201
7.18412
4.98205
-14.1411
-11.0531
10.5057
8.34276
6.51756
-9.92221
4.48298
0.273797
4.89246
4.45242
9.35102
9.84815
-1.73349
4.45232
-14.348
-11.1725
10.6573
-8.37724
10.6034
-13.6581
1.74394
5.38156
8.9481
4.47737
8.87537
7.49335
-9.47187
-7.20475
-12.2806
-10.4187
-16.7061
9.34256
5.02304
-3.15816
5.0736
-1.44459
-11.8139
10.1089
-9.86053
-14.5447
-9.27536
10.2342
4.84843
6.17399
9.62357
-12.2393
10.9072
-11.5222
9.59985
11.2287
4.58418
-10.0963
-10.6317
6.39914
11.4715
10.901
8.43455
8.32769
1.05013
-15.3223
8.60364
6.02747
-10.766
10.4607
-11.8622
9.64056
6.53443
9.31655
-10.6009
9.59567
6.86072
10.5178
10.7548
4.20019
7.52089
-10.22
4.37365
6.93727
8.13182
6.32698
-15.8942
6.31185
4.95173
-5.55099
-10.8114
4.42155
-13.0497
10.3712
-10.2516
-16.5633
10.0766
4.23496
8.04551
7.20568
4.65255
-15.4413
1.54502
8.78621
6.20235
-6.59259
-8.26181
-8.5754
-14.5307
2.93551
9.94644
-10.7062
4.43356
5.57108
6.07437
8.73501
-16.0681
-11.5894
7.83911
-13.3583
9.2333
-14.871
-4.01712
-10.0472
-12.1388
-9.98322
2.79221
4.21855
10.9076
4.43442
-16.7213
-4.44389
11.256
1.11002
4.73266
-10.7343
10.0563
-3.14025
-7.24285
-9.93773
4.42528
-10.8811
3.9594
-12.1683
-10.7215
10.9623
5.03271
8.24915
10.4732
7.17226
-3.77314
10.915
7.6495
-11.777
4.69137
3.4725
4.39655
7.7386
9.91064
-13.2992
-12.1328
3.96108
-10.1473
6.25226
9.97546
8.1809
-10.9507
-12.8097
-11.3275
7.54071
9.73565
8.31163
-10.344
4.02439
1.1989
6.61567
-11.6465
7.39785
4.00438
-16.8498
9.98321
11.4031
4.48024
3.4993
6.19269
10.2938
-5.39843
7.1429
10.0395
-11.0572
7.6089
-9.48225
-9.94264
4.12779
-5.14177
10.213
-9.76609
10.2497
-10.355
5.73332
9.62555
10.6717
10.4069
8.97694
3.09266
10.5313
-15.7819
7.91417
10.0683
8.41016
-12.034
9.58876
9.99364
7.18556
-12.3649
6.58167
-9.50679
-10.4046
10.1261
8.9634
-0.961442
-12.5607
-15.9041
-1.6131
11.3947
4.48964
-13.3356
-10.8314
-10.21
-9.65315
10.1666
8.43861
6.73041
4.25678
10.8689
10.6311
8.62233
4.79251
10.4167
-16.0301
8.97155
-12.8952
9.02526
6.96246
-7.04137
7.20387
-15.7238
4.40614
5.32031
6.69163
6.35449
11.4533
5.27626
-3.87282
2.53181
7.35681
-1.71066
-11.8779
-9.95701
11.4835
2.58277
-10.1114
-12.1405
-11.7096
-11.9941
-9.39367
11.041
8.82675
7.46105
5.56434
-14.0504
-11.7104
4.67812
11.3089
4.30882
10.3126
-9.5614
7.15181
-14.1243
5.92918
5.05039
7.03058
-10.5087
7.31339
-18.1375
-10.4626
3.94606
4.22862
7.24251
10.2217
4.48646
5.88477
-3.07867
10.2538
10.736
7.4535
10.6466
4.13841
-11.1202
0.339614
-6.1786
-8.03557
-12.1513
-11.5863
4.41655
8.89654
-10.0057
10.7111
6.21235
-16.9371
10.0913
10.516
8.59635
-5.51472
-11.527
8.18165
9.20386
9.48757
-11.6789
7.43056
-13.384
-12.2999
-17.7277
-13.0476
-9.70235
-11.493
-12.2914
-9.04446
-6.51186