/*--------------------------------*- C++ -*----------------------------------*\
  =========                 |
  \\      /  F ield         | OpenFOAM: The Open Source CFD Toolbox
   \\    /   O peration     | Website:  https://openfoam.org
    \\  /    A nd           | Version:  10
     \\/     M anipulation  |
\*---------------------------------------------------------------------------*/
FoamFile
{
    format      ascii;
    class       surfaceScalarField;
    location    "2000";
    object      phi;
}
// * * * * * * * * * * * * * * * * * * * * * * * * * * * * * * * * * * * * * //

dimensions      [0 3 -1 0 0 0 0];

internalField   nonuniform List<scalar> 
16133
(
3.66414
1.76314
-2.14699
-3.28044
-2.79104
2.84112
-3.0887
3.03863
-0.762742
-3.00025
2.36348
1.39952
0.916402
-1.26138
-5.30834
5.65333
-1.20038
0.55086
4.80513
-4.15562
3.59023
1.27985
-4.74924
-0.120832
-3.46693
1.09775
2.05821
0.310969
0.0399736
-3.96697
0.930162
2.99684
-2.32224
3.8185
2.43549
-3.93175
0.483259
2.99701
-0.00250522
-3.47776
3.45942
-3.28687
2.61679
-2.78932
5.0215
-2.3401
2.34457
-5.02596
-0.19851
-3.14697
1.89849
1.44699
1.53962
-1.24027
1.43509
-1.73444
1.77249
1.68953
-1.9224
-1.82413
1.4109
-4.11412
4.52734
-1.43656
1.20561
-1.00933
-3.86835
0.890388
2.79076
0.187201
-6.72819
5.47879
-1.07284
1.54294
4.05067
-1.92945
-0.780902
3.2172
-2.69009
0.253797
0.657208
-5.21232
5.47153
-4.25597
4.14665
-1.71481
8.79129
-7.12841
-0.49022
-1.17265
-3.72368
4.4347
-0.22776
-0.00366585
0.00398362
-0.105207
0.104889
0.0591095
-0.00527148
-0.0370806
-0.0167573
-0.167229
-1.97712
1.77519
0.369159
-0.0272299
0.0518026
-0.00185951
-0.022713
-3.05696
2.18562
3.31729
-0.956301
-4.99709
2.6361
-2.48746
2.55207
3.39481
1.36961
-3.69757
2.36793
-0.0696516
0.148005
0.0265746
-0.104928
-3.77444
-3.64998
3.66526
3.75916
-1.86865
3.24487
2.07903
-3.45524
-2.89931
-5.36876
4.49363
-0.0836835
0.124858
-0.143601
0.102426
0.060372
0.129646
-0.0328326
-0.157186
-6.53729
0.97132
-1.16222
-3.14272
0.0832556
-3.42867
-0.801003
-1.76436
-0.828066
0.301824
2.29061
-2.00705
4.83007
1.61722
-4.44022
4.78273
-2.09012
-5.59193
3.45915
-1.20515
0.444902
0.0026118
-0.72129
-0.714653
1.10936
0.326588
3.03579
1.59782
-0.815113
5.41403
-5.06683
0.31002
-2.03058
-2.71729
-4.42144
4.49928
-3.521
3.44316
0.177787
0.0578408
-0.175256
-0.0225978
0.0363297
0.0339671
-0.047699
-0.0235709
0.0726454
0.0805718
-0.00736496
-0.0146131
-0.00525173
5.4973
-2.77261
-8.09345
-0.116663
-0.118078
0.182038
0.0527039
-0.567856
0.950398
-0.963072
0.580532
5.30647
0.109044
0.0231458
0.0455977
2.94142
-2.40168
-3.33077
0.134022
0.0171655
-0.0272991
-0.123887
2.03992
-4.10258
3.831
-1.76834
2.35188
-1.82511
-3.63651
2.27736
-1.6411
-0.506974
-0.416992
0.356111
-0.0722925
0.464189
0.00881001
-0.400704
1.19356
2.9538
-6.21612
0.168669
-1.08096
0.0197978
0.00115111
-0.0435467
0.15927
-0.0485051
0.0175349
-0.1283
-1.83695
0.985631
3.24223
-2.39091
2.06016
-3.09316
-2.60351
1.7667
-2.53858
2.54439
-1.85594
-2.1458
2.4645
1.53725
-7.14876
1.86199
-0.929355
-2.1769
1.38146
1.89318
-2.42031
2.37328
1.41665
2.11602
-1.82754
1.47822
5.94675
-5.64384
-0.0712552
-0.231619
3.2253
-2.81636
-1.91938
1.51044
0.0751856
0.17645
-0.193795
0.0474022
0.0404613
-0.0515337
6.60834
-0.174418
-0.487154
-3.30957
2.91507
2.48034
-2.08582
3.20024
-2.87648
-2.97957
2.65584
4.60744
-4.19618
-2.41829
2.05576
-0.974359
1.41321
-2.49458
3.51555
-2.86153
2.54624
5.06825
1.91271
-2.37352
6.39618
-2.58929
3.59117
1.39728
2.52519
-2.69709
2.22768
3.8803
-2.59778
2.23306
-3.63485
-1.54337
0.707488
5.31861
0.3701
1.15919
-1.96998
-1.72777
1.07301
-0.93157
0.808963
-4.6347
5.01008
-0.175916
-0.199446
2.54829
-2.36345
3.30712
-3.3672
1.06744
-1.00736
2.56379
-2.43935
2.12348
0.678345
3.3629
-0.73413
1.43445
3.89511
1.239
-0.251865
0.0220655
-1.24602
8.57733
-0.722958
2.26572
-1.70726
1.55758
-0.979469
-4.66645
0.579099
-3.29143
-1.27616
-2.50245
-1.88117
1.56726
-1.83015
1.59343
-0.206587
-3.72062
-4.75734
-0.319252
4.74663
0.582719
2.74564
-3.75621
-2.70465
4.04259
-5.12088
0.122118
4.67954
2.10356
3.05302
-0.409932
1.27988
-0.268366
-2.86746
3.0108
-3.12668
-1.79506
1.00115
4.41701
-3.62309
-2.85562
2.93736
2.20034
-2.28209
-0.0760339
0.174127
0.0108194
-0.108913
0.0218209
1.69379
2.79912
-3.21303
5.87221
-4.73862
-0.0919771
0.0730455
-0.0175954
0.036527
3.34692
-3.44817
-2.75206
-2.59102
-3.30977
-1.49782
1.3598
-0.020556
0.173909
0.00591721
-0.072181
0.227214
0.125596
-0.280629
-1.11033
1.24481
-3.76931
0.433766
5.58968
-3.35444
-4.33071
1.1906
-1.72103
1.44101
-3.91117
5.13835
-0.175052
-0.155073
-0.176849
-0.741929
2.90726
-5.58369
3.41836
5.65345
1.97807
-2.00799
2.02079
-1.99086
3.61668
-3.72586
0.811818
-3.19334
-1.86757
1.31404
-0.883026
3.78299
2.05064
-6.57555
-0.904319
0.260174
-0.077145
-1.95245
-6.4121
3.73416
-3.3349
4.33253
2.35772
3.75174
2.02739
-0.28013
0.0691812
0.459236
-0.248287
3.10609
1.76394
-1.93267
0.718878
-2.39961
2.95289
2.63462
-3.1879
6.81992
1.97265
-3.23356
-5.55902
-1.26635
1.20363
-4.28586
4.24866
5.99127
-6.05201
-1.18526
-1.64347
2.48063
4.49175
3.48401
-3.45333
2.77722
-3.02145
-5.42426
0.456978
5.08943
-4.37829
3.59159
-2.6868
3.47351
-4.41978
-5.26648
-0.216026
-2.78877
0.950446
-0.881777
-1.90562
-0.00825418
0.0263301
-0.0180733
-2.58001e-06
-1.22021
1.22832
5.08437
-5.07798
2.04426
-2.07066
-3.41764
-3.44933
-1.24118
1.15622
-0.0508448
0.135817
-4.28974
0.813893
0.0113649
0.0997402
-0.0593022
-3.6578
-0.279615
-3.9327
2.37866
0.1452
-0.11219
-1.49338
-1.63085
2.98991
-3.53595
2.76367
3.10891
3.72836
3.86073
-3.14781
0.21561
0.0733597
-0.213784
-0.101242
-0.0112916
1.56044
-3.77087
1.41314
-1.59848
2.78503
-3.22232
-0.910864
1.50779
-1.48172
-3.30117
0.17
2.73139
2.31804
0.266546
-0.0315608
-0.318668
-2.38048
2.01474
0.274741
-0.948237
1.24848
-2.73861
4.03453
-1.5025
0.187246
0.143701
0.0235419
-0.0332216
5.76945
-0.375193
-0.0293235
-0.499803
2.77814
2.94972
5.38612
0.0603696
-0.00951414
-2.04976
1.62937
-1.97632
2.62682
0.193403
-0.205685
-0.248261
0.260543
-0.0848398
0.0811739
1.01227
0.106404
-0.0386244
-0.0564144
1.10605
-0.152156
0.202328
0.249033
-0.260352
-0.163732
2.10706
-0.184793
-3.14246
-0.0362279
-0.138445
0.237262
-0.0625887
3.08687
0.0826942
-0.0893249
0.0066307
-0.971926
-3.00437
3.2734
-4.82733
2.54996
1.78641
0.801571
-0.766998
-0.0854155
-3.08375
-0.00214555
1.8644
-6.30385
-0.103354
0.0893173
0.0489079
-0.034871
-0.834859
-6.71927
-0.138752
-0.0260827
0.128607
-5.39426
-1.15633
-2.51201
4.93209
-4.03776
-0.0393589
-0.209227
0.110141
0.404785
-0.484758
0.273377
-0.0195967
-0.0210558
0.0332877
-2.21057
2.79239
-1.22785
2.39142
1.4626
-1.06899
-0.0101532
0.00463086
0.0055224
-1.81463
-3.5868
0.00739209
-0.0175469
0.0101549
2.56941
-2.93581
0.679226
1.32047
-0.622128
0.981198
0.00319388
0.00419826
0.476603
-0.250538
-0.327278
0.555891
0.21866
-2.21365
2.95931
-0.313655
-0.728823
4.04206
0.254757
-0.0874061
0.0482589
-0.903534
0.192728
-1.14696
1.52311
-2.8236
-0.581699
1.81866
-0.606091
3.22213
0.0750599
0.006114
1.1218
-3.64601
1.55882
-0.895554
-2.74096
1.06846
1.51556
0.31251
-2.11772
2.91956
-0.254323
-0.0386851
0.0873231
4.76845
-0.112896
0.0526171
0.0503763
-0.0555913
-0.071341
0.108093
-2.90676
0.0888749
0.154567
-0.145728
0.0152611
0.0217742
-0.0370354
-2.2405
-3.38457
3.9755
-0.66929
0.0593352
0.228251
-1.81944
0.00388636
-0.0140396
-1.88307
-5.57711
0.276256
0.052085
0.0605851
-0.0600532
1.04638
-0.257938
-0.0548132
-3.70352
-0.193226
-4.51447
-2.43873
-0.00228573
0.19073
0.481614
-0.10284
-0.488124
-0.0411953
0.0643132
-0.00595221
0.0697689
0.238687
-0.235096
-0.31871
-3.10166
-2.64949
0.0707098
0.00435012
0.173422
-1.75445
0.0736649
1.76332
-0.0989276
0.0918593
0.0605835
0.055728
-0.0642266
0.556732
0.241965
-0.087226
0.00980399
-0.0192457
0.000610811
0.00721397
-0.130368
0.230254
-0.0733118
0.0224042
0.00781235
0.0740412
-0.00333147
0.0140422
-0.0321154
0.274317
0.0573766
0.0104072
-0.0188758
-0.256735
2.40746
-1.71072
1.67653
-0.0013741
-0.0684101
-0.0373869
0.242735
-0.452709
-0.669401
1.1866
0.452379
-1.07703
-0.771434
-0.0211917
0.0341031
-0.0613301
0.0505742
-0.0965328
0.0161171
0.0118096
0.0269867
-0.0025391
0.0765803
-0.213189
-0.0862458
2.67949
-0.0172567
0.0652888
-1.24642
0.392437
-2.36479
-0.784445
-0.170221
0.00349387
-0.0408807
-0.0806974
0.0237898
-0.0495782
0.0849202
-0.0304736
0.682912
-0.938792
-1.32364
0.66294
-0.0743602
-1.31093
-0.572261
-0.0249861
-0.0206396
-1.33707
-0.570863
-0.0493493
-0.0282105
0.0476934
0.200735
-0.798684
0.0613876
0.0278828
-0.0842203
2.29888
-0.0281897
0.0180794
0.0328441
0.145265
2.03842
0.181484
-0.261205
-1.41925
-0.305829
-0.907248
-0.00385824
0.11002
-0.106161
-0.00879181
0.113511
-0.108578
-0.0136602
0.12321
-0.118341
-0.0190297
0.131323
-0.125953
-0.0245307
0.1402
-0.134699
-0.0303434
0.148218
-0.142405
-0.0362702
0.156215
-0.150288
-0.0423325
0.163695
-0.157632
0.170762
-0.164926
-0.0481684
-0.00361461
0.113634
-0.00804563
0.117942
-0.0125751
0.127739
-0.0175673
0.136315
-0.0226386
0.145271
-0.0279731
0.153552
-0.0333943
0.161636
-0.0388913
0.169192
0.176269
-0.0443981
-0.00359089
0.117225
-0.00747358
0.121825
-0.0116129
0.131879
-0.016142
0.140844
-0.0207874
0.149917
-0.0256259
0.158391
-0.0305411
0.166552
-0.0355173
0.174168
0.181261
-0.0405096
-0.00338769
0.120613
-0.00692074
0.125358
-0.0107068
0.135665
-0.0148016
0.144939
-0.0190312
0.154146
-0.02342
0.16278
-0.0278868
0.171018
-0.0324324
0.178714
0.185901
-0.0370726
-0.00311961
0.123732
-0.00638486
0.128623
-0.00985895
0.139139
-0.0135805
0.14866
-0.0174362
0.158002
-0.0214399
0.166783
-0.0255508
0.175129
-0.0297843
0.182947
0.190283
-0.034166
-0.00284951
0.126582
-0.00589585
0.13167
-0.00910747
0.14235
-0.0125184
0.152071
-0.0160644
0.161548
-0.0197635
0.170482
-0.023592
0.178958
-0.0275738
0.186929
0.194449
-0.0317394
-0.00254414
0.129126
-0.00544594
0.134571
-0.00846685
0.145371
-0.0116552
0.15526
-0.0149703
0.164863
-0.0184472
0.173959
-0.0221008
0.182611
-0.025957
0.190785
0.198556
-0.030064
-0.00213343
0.131259
-0.00506154
0.137499
-0.00798158
0.148291
-0.0110154
0.158293
-0.0141807
0.168028
-0.0175354
0.177314
-0.0211059
0.186182
-0.0249422
0.194622
0.20264
-0.0290262
-0.00186021
0.13312
-0.00488344
0.140523
-0.00771781
0.151126
-0.0106429
0.161219
-0.0137237
0.171109
-0.0170326
0.180623
-0.020622
0.189772
-0.0245218
0.198521
0.206906
-0.0287873
-0.00208544
0.135205
-0.00504776
0.143485
-0.00770305
0.153781
-0.0105114
0.164027
-0.0135522
0.17415
-0.0169133
0.183984
-0.0206344
0.193493
-0.0247634
0.202651
0.211434
-0.0292915
-0.00258892
0.137794
-0.00528777
0.146184
-0.00774257
0.156236
-0.010485
0.166769
-0.0135624
0.177227
-0.0170602
0.187482
-0.0210076
0.19744
-0.0254596
0.207103
0.216438
-0.0304642
-0.00270326
0.140497
-0.00513899
0.148619
-0.00757351
0.15867
-0.0103751
0.169571
-0.0136058
0.180458
-0.0173096
0.191185
-0.0215365
0.201667
-0.026288
0.211854
0.221837
-0.0316868
-0.00220256
0.1427
-0.00453231
0.150949
-0.00710242
0.16124
-0.0100984
0.172567
-0.0135742
0.183934
-0.0175909
0.195202
-0.0221977
0.206274
-0.0274506
0.217107
0.227723
-0.0333362
-0.00143113
0.144131
-0.00366511
0.153183
-0.0064107
0.163986
-0.00963864
0.175795
-0.0133924
0.187687
-0.0177383
0.199548
-0.0227231
0.211259
-0.0284035
0.222788
0.234111
-0.0347915
-0.00066235
0.144793
-0.00276431
0.155285
-0.00563592
0.166857
-0.00906366
0.179222
-0.0130707
0.191694
-0.0177181
0.204196
-0.0230859
0.216627
-0.0292616
0.228964
0.24113
-0.0362804
-0.000397564
0.14519
-0.00215884
0.157046
-0.00498906
0.169688
-0.00846475
0.182698
-0.0125902
0.19582
-0.017425
0.209031
-0.0230505
0.222253
-0.029551
0.235464
0.248567
-0.0369885
-0.000788654
0.145979
-0.00209542
0.158353
-0.00460324
0.172195
-0.00789472
0.185989
-0.0119489
0.199874
-0.0168068
0.213889
-0.022552
0.227998
-0.0292445
0.242157
0.256343
-0.0370203
-0.00124634
0.147225
-0.00225035
0.159357
-0.00432092
0.174266
-0.00726106
0.188929
-0.0110789
0.203692
-0.0158267
0.218636
-0.0215982
0.23377
-0.0285043
0.249063
0.264501
-0.036663
-0.0013958
0.148621
-0.00221282
0.160174
-0.00387069
0.175924
-0.00637619
0.191435
-0.00980942
0.207125
-0.0142474
0.223075
-0.0197972
0.23932
-0.0265784
0.255844
0.272666
-0.0347428
-0.00123536
0.149857
-0.0018392
0.160778
-0.00308724
0.177172
-0.00509572
0.193443
-0.00802659
0.210056
-0.011982
0.22703
-0.0170676
0.244405
-0.0233896
0.262166
0.280316
-0.0310399
-0.000927659
0.150784
-0.00116216
0.161012
-0.00192687
0.177936
-0.00336527
0.194882
-0.00569212
0.212383
-0.00905128
0.230389
-0.013583
0.248937
-0.019474
0.268057
0.287721
-0.0268789
-0.000519926
0.151304
-0.000198074
0.16069
-0.000368406
0.178107
-0.00115135
0.195665
-0.0027543
0.213986
-0.00533939
0.232974
-0.00906075
0.252659
-0.014185
0.273181
0.294455
-0.0209191
0.00027401
0.15103
0.00116984
0.159795
0.00161116
0.177665
0.00151058
0.195765
0.000704213
0.214793
-0.00097751
0.234656
-0.00365705
0.255338
-0.00775445
0.277279
0.300493
-0.0137924
0.0017924
0.149238
0.00306077
0.158526
0.00399093
0.176735
0.00456362
0.195193
0.00458295
0.214773
0.00385255
0.235386
0.00238314
0.256808
-0.000472988
0.280135
0.305704
-0.00568397
0.00350917
0.00484953
0.00632823
0.00772563
0.0087144
0.00900468
0.00907749
0.00858392
0.00845864
-0.0866637
-0.0012022
0.087866
-0.0853239
-0.00133986
-0.0838392
-0.0014847
-0.0821978
-0.00164139
-0.080394
-0.00180378
-0.0784204
-0.00197364
-0.0762706
-0.00214973
-0.0739427
-0.00232795
-0.0714306
-0.00251206
-0.0687354
-0.0026952
-0.0658559
-0.00287949
-0.0627933
-0.00306256
-0.0595501
-0.0032432
-0.0561258
-0.00342432
-0.0525246
-0.00360122
-0.0487474
-0.00377714
-0.0448007
-0.00394662
-0.0406906
-0.00411012
-0.0364289
-0.00426172
-0.0320318
-0.00439704
-0.0275245
-0.00450728
-0.022945
-0.00457946
-0.0183467
-0.00459824
-0.0137989
-0.00454782
-0.00937064
-0.0044282
-0.00509073
-0.00427989
-0.000885349
-0.00420535
0.00337336
-0.00425869
0.00781558
-0.00444219
0.0125306
-0.00471502
0.0174749
-0.00494426
0.0225408
-0.00506584
0.0276534
-0.00511262
0.032754
-0.00510059
0.0377913
-0.00503723
0.0427251
-0.00493384
0.0475235
-0.00479839
0.0521601
-0.00463659
0.0566174
-0.00445722
0.0608813
-0.0042639
0.0649453
-0.00406399
0.0688072
-0.00386185
0.0724655
-0.00365835
0.0759237
-0.00345816
0.079182
-0.00325832
0.0822464
-0.00306434
0.0851169
-0.00287051
0.0877986
-0.00268163
0.0902914
-0.00249281
0.0925967
-0.00230533
0.0947207
-0.00212401
0.0966679
-0.00194716
0.0984503
-0.00178238
0.100074
-0.00162374
0.101549
-0.00147488
0.102885
-0.00133651
0.104092
-0.00120619
0.105183
-0.00109099
-0.000978727
-0.0865844
-0.00243505
0.0878172
-0.0852583
-0.00266594
-0.0838298
-0.00291322
-0.0822895
-0.00318167
-0.0806315
-0.00346173
-0.0788425
-0.00376263
-0.0769161
-0.0040762
-0.0748384
-0.00440556
-0.0726013
-0.00474922
-0.0701945
-0.00510192
-0.0676086
-0.00546538
-0.0648362
-0.00583503
-0.061868
-0.00621139
-0.0587036
-0.00658863
-0.0553396
-0.00696526
-0.051776
-0.00734068
-0.048016
-0.00770668
-0.0440662
-0.00805983
-0.0399332
-0.00839473
-0.0356292
-0.00870104
-0.0311664
-0.00897004
-0.0265535
-0.00919236
-0.0217926
-0.00935909
-0.0168676
-0.00947283
-0.0117494
-0.00954643
-0.00642214
-0.00960711
-0.000935887
-0.00969159
0.00461738
-0.00981195
0.0101428
-0.00996763
0.0155737
-0.0101459
0.0209265
-0.0102971
0.0262372
-0.0103765
0.0315001
-0.0103756
0.0366964
-0.0102969
0.0417992
-0.01014
0.0467814
-0.00991597
0.0516151
-0.00963208
0.0562804
-0.00930193
0.0607567
-0.00893354
0.0650306
-0.00853771
0.0690897
-0.00812313
0.0729233
-0.0076954
0.07653
-0.00726509
0.0799064
-0.00683457
0.0830545
-0.00640639
0.0859786
-0.00598839
0.0886873
-0.00557928
0.0911854
-0.00517972
0.0934882
-0.00479559
0.0956086
-0.00442568
0.0975617
-0.00407705
0.0993604
-0.00374592
0.101015
-0.00343689
0.102541
-0.0031498
0.103946
-0.00287947
0.105244
-0.0026344
0.106441
-0.00240366
0.107548
-0.00219795
-0.00200843
-0.0946676
-0.00381494
0.0960475
-0.0931809
-0.00415257
-0.0915799
-0.00451427
-0.0898617
-0.00489989
-0.0880113
-0.00531212
-0.0860219
-0.00575199
-0.0838831
-0.00621498
-0.0815882
-0.00670052
-0.0791258
-0.00721157
-0.076486
-0.00774176
-0.0736599
-0.00829146
-0.0706402
-0.0088547
-0.0674212
-0.00943042
-0.0639966
-0.0100132
-0.060362
-0.0105999
-0.0565199
-0.0111827
-0.0524666
-0.01176
-0.0482064
-0.0123199
-0.0437434
-0.0128578
-0.0390819
-0.0133626
-0.0342244
-0.0138275
-0.0291749
-0.0142419
-0.0239321
-0.0146018
-0.018497
-0.0149079
-0.0128796
-0.0151639
-0.00710265
-0.015384
-0.00120981
-0.0155844
0.00475243
-0.0157742
0.0107351
-0.0159503
0.0166868
-0.0160975
0.0225779
-0.0161882
0.0283984
-0.016197
0.0341351
-0.0161123
0.0397676
-0.0159294
0.0452785
-0.0156509
0.0506466
-0.015284
0.0558508
-0.0148363
0.0608725
-0.0143236
0.0656958
-0.0137568
0.0703035
-0.0131454
0.0746864
-0.012506
0.078837
-0.011846
0.0827503
-0.0111784
0.0864227
-0.010507
0.0898617
-0.00984538
0.0930669
-0.0091936
0.0960479
-0.0085603
0.0988157
-0.00794754
0.101381
-0.00736094
0.103756
-0.00680082
0.105952
-0.00627242
0.107979
-0.00577289
0.10985
-0.00530838
0.111574
-0.00487334
0.113161
-0.00446719
0.114621
-0.00409376
0.115968
-0.0037507
0.117205
-0.00343479
-0.00314515
-0.101221
-0.0052371
0.102643
-0.0996888
-0.00568508
-0.0980332
-0.00616993
-0.0962463
-0.00668674
-0.0943215
-0.0072369
-0.0922494
-0.00782409
-0.0900207
-0.00844373
-0.0876209
-0.00910031
-0.0850443
-0.00978813
-0.0822802
-0.0105059
-0.0793202
-0.0112515
-0.0761502
-0.0120247
-0.0727659
-0.0128147
-0.0691561
-0.013623
-0.065319
-0.0144369
-0.0612462
-0.0152556
-0.0569386
-0.0160676
-0.0523959
-0.0168627
-0.04762
-0.0176337
-0.0426138
-0.0183687
-0.0373813
-0.01906
-0.0319259
-0.0196973
-0.0262532
-0.0202744
-0.0203759
-0.0207853
-0.0143088
-0.0212309
-0.00807693
-0.0216159
-0.00172092
-0.0219404
0.00471153
-0.0222066
0.01117
-0.0224087
0.0176084
-0.022536
0.0239925
-0.0225723
0.0302986
-0.0225032
0.0365049
-0.0223186
0.0425916
-0.022016
0.048535
-0.0215942
0.054316
-0.0210651
0.0599153
-0.0204356
0.0653079
-0.0197162
0.0704767
-0.0189256
0.0754097
-0.0180785
0.0800947
-0.017191
0.0845237
-0.016275
0.0886919
-0.0153466
0.0925998
-0.0144148
0.0962457
-0.0134913
0.0996415
-0.0125895
0.102791
-0.0117093
0.105708
-0.0108652
0.1084
-0.0100529
0.110885
-0.00928545
0.113173
-0.00856042
0.115279
-0.00787889
0.117211
-0.00724039
0.118988
-0.00665031
0.120622
-0.00610151
0.122126
-0.00559783
0.123509
-0.00513337
0.12478
-0.00470561
-0.00431877
-0.109725
-0.0067912
0.111279
-0.10804
-0.00737053
-0.10622
-0.00798967
-0.104256
-0.00865012
-0.10214
-0.00935317
-0.0998637
-0.0101006
-0.0974136
-0.0108938
-0.0947854
-0.0117285
-0.0919671
-0.0126064
-0.0889489
-0.0135241
-0.0857211
-0.0144793
-0.0822754
-0.0154703
-0.0786027
-0.0164874
-0.0746979
-0.0175278
-0.0705508
-0.0185841
-0.0661591
-0.0196473
-0.0615198
-0.0207069
-0.0566293
-0.0217531
-0.0514916
-0.0227714
-0.0461058
-0.0237545
-0.0404802
-0.0246857
-0.0346206
-0.0255569
-0.0285383
-0.0263567
-0.0222471
-0.0270765
-0.015769
-0.0277091
-0.00913446
-0.0282504
-0.00237878
-0.0286961
0.00445813
-0.0290435
0.0113335
-0.0292841
0.0182059
-0.0294084
0.0250387
-0.0294051
0.0317992
-0.0292637
0.0384576
-0.0289769
0.0449886
-0.028547
0.0513683
-0.0279739
0.0575683
-0.0272651
0.0635665
-0.0264338
0.0693434
-0.025493
0.0748797
-0.0244619
0.0801631
-0.0233619
0.0851781
-0.022206
0.0899226
-0.0210194
0.0943895
-0.0198136
0.098582
-0.0186073
0.102504
-0.0174135
0.106159
-0.0162439
0.109559
-0.0151093
0.112711
-0.0140174
0.115629
-0.0129707
0.118323
-0.0119794
0.120807
-0.0110448
0.123095
-0.010167
0.125203
-0.00934872
0.127139
-0.00858573
0.128919
-0.00788145
0.130553
-0.00723236
0.132055
-0.006635
0.133435
-0.0060861
-0.00558245
-0.117627
-0.00842407
0.11926
-0.115858
-0.00914013
-0.113946
-0.00990091
-0.111881
-0.0107156
-0.109649
-0.0115855
-0.107244
-0.012505
-0.104656
-0.0134824
-0.101871
-0.0145128
-0.0988799
-0.0155978
-0.0956737
-0.0167303
-0.0922408
-0.0179122
-0.0885729
-0.0191382
-0.0846584
-0.0204019
-0.0804888
-0.0216974
-0.0760586
-0.0230142
-0.0713624
-0.0243435
-0.066396
-0.0256733
-0.0611634
-0.0269856
-0.0556628
-0.028272
-0.0499005
-0.0295169
-0.04388
-0.0307061
-0.0376137
-0.0318233
-0.0311136
-0.0328567
-0.024399
-0.0337911
-0.0174954
-0.0346127
-0.0104334
-0.0353124
-0.00324911
-0.0358804
0.00402042
-0.0363131
0.0113353
-0.0365991
0.0186554
-0.0367284
0.0259439
-0.0366936
0.0331627
-0.0364825
0.0402794
-0.0360936
0.047265
-0.0355327
0.0540877
-0.0347966
0.0607227
-0.0339001
0.067144
-0.0328552
0.0733209
-0.0316699
0.0792375
-0.0303785
0.084876
-0.0290003
0.0902281
-0.0275582
0.0952828
-0.0260742
0.100041
-0.0245717
0.1045
-0.0230659
0.108665
-0.021579
0.112543
-0.0201216
0.11614
-0.0187068
0.119468
-0.0173454
0.122542
-0.0160442
0.125373
-0.0148107
0.127979
-0.0136509
0.130372
-0.0125604
0.132569
-0.011545
0.134584
-0.010601
0.136434
-0.00973139
0.138127
-0.0089253
0.139678
-0.0081858
0.141102
-0.00751035
-0.00688552
-0.126354
-0.0101732
0.128104
-0.124457
-0.0110373
-0.122403
-0.0119553
-0.120182
-0.0129367
-0.117784
-0.0139829
-0.115197
-0.0150924
-0.11241
-0.016269
-0.109412
-0.0175116
-0.106195
-0.0188143
-0.102745
-0.0201805
-0.0990552
-0.0216019
-0.0951167
-0.0230767
-0.0909169
-0.0246018
-0.0864482
-0.0261661
-0.0817044
-0.027758
-0.0766803
-0.0293675
-0.071369
-0.0309846
-0.0657805
-0.0325742
-0.059912
-0.0341405
-0.0537721
-0.0356568
-0.0473623
-0.0371159
-0.0406976
-0.038488
-0.0337931
-0.0397613
-0.0266637
-0.0409205
-0.0193441
-0.0419323
-0.0118641
-0.0427924
-0.00426267
-0.0434819
0.00342828
-0.044004
0.0111713
-0.0443421
0.0189254
-0.0444825
0.0266569
-0.0444251
0.0343188
-0.0441443
0.0418774
-0.0436522
0.049304
-0.0429594
0.0565596
-0.0420522
0.0636224
-0.0409629
0.0704636
-0.0396963
0.0770367
-0.0382431
0.0833329
-0.0366746
0.0893324
-0.0349999
0.0950283
-0.033254
0.100407
-0.0314534
0.105469
-0.0296336
0.110211
-0.0278073
0.114641
-0.0260096
0.118764
-0.0242445
0.122589
-0.0225319
0.126124
-0.0208799
0.129384
-0.0193043
0.132385
-0.0178113
0.135137
-0.0164034
0.137667
-0.0150898
0.139983
-0.0138612
0.142104
-0.0127224
0.144044
-0.0116714
0.14582
-0.0107013
0.147445
-0.00981068
0.14893
-0.00899559
-0.00824354
-0.134985
-0.0120312
0.136843
-0.132978
-0.0130438
-0.13081
-0.0141234
-0.128461
-0.0152862
-0.125925
-0.0165186
-0.123184
-0.0178338
-0.120235
-0.0192176
-0.117055
-0.0206917
-0.113628
-0.0222414
-0.109965
-0.023843
-0.106044
-0.0255228
-0.101856
-0.0272652
-0.0973921
-0.0290655
-0.0926395
-0.0309187
-0.087594
-0.0328036
-0.0822429
-0.0347186
-0.0765794
-0.0366482
-0.0706326
-0.0385209
-0.0644
-0.0403732
-0.0578833
-0.0421735
-0.0510793
-0.0439199
-0.0440132
-0.0455541
-0.0367046
-0.0470699
-0.0291402
-0.0484849
-0.0213924
-0.0496801
-0.0134785
-0.0507063
-0.00545565
-0.0515047
0.00266828
-0.052128
0.0108509
-0.0525246
0.0190456
-0.0526773
0.0272335
-0.0526131
0.0353395
-0.0522503
0.0433352
-0.0516479
0.0512178
-0.0508419
0.0589031
-0.0497375
0.0664005
-0.0484603
0.0736972
-0.046993
0.0806709
-0.0452167
0.0873499
-0.0433537
0.0937173
-0.0413673
0.0997595
-0.0392961
0.105473
-0.0371672
0.110832
-0.034992
0.115845
-0.0328205
0.120543
-0.0307081
0.124894
-0.0285954
0.128938
-0.026576
0.132669
-0.024611
0.136085
-0.0227195
0.139212
-0.0209385
0.142072
-0.0192638
0.144688
-0.0177058
0.147077
-0.0162496
0.149256
-0.0149017
0.151244
-0.0136599
0.153062
-0.012519
0.15472
-0.0114688
0.156241
-0.010516
-0.00963544
-0.144118
0.146093
-0.0140063
-0.14198
-0.0151817
-0.139678
-0.0164258
-0.137179
-0.0177854
-0.134481
-0.0192164
-0.13155
-0.0207648
-0.128385
-0.0223828
-0.125017
-0.0240597
-0.121401
-0.0258573
-0.117451
-0.0277929
-0.113269
-0.0297051
-0.108803
-0.0317312
-0.104007
-0.0338615
-0.0989528
-0.0359725
-0.0935624
-0.038194
-0.0879219
-0.040359
-0.0819708
-0.0425994
-0.0756769
-0.0448148
-0.069025
-0.047025
-0.0621101
-0.0490884
-0.0548948
-0.0511352
-0.0474625
-0.0529863
-0.0397778
-0.0547546
-0.0317744
-0.0564883
-0.0235926
-0.0578619
-0.0152571
-0.0590418
-0.00684266
-0.0599191
0.00172598
-0.0606966
0.0103901
-0.0611888
0.0190001
-0.0612873
0.0276523
-0.0612652
0.0362203
-0.0608183
0.0446195
-0.0600471
0.0529697
-0.059192
0.0611356
-0.0579034
0.0690858
-0.0564105
0.0767189
-0.0546261
0.0840138
-0.0525117
0.0911311
-0.050471
0.0978711
-0.0481073
0.104266
-0.0456914
0.110354
-0.0432548
0.116052
-0.0406897
0.121389
-0.0381577
0.126365
-0.0356845
0.130963
-0.0331929
0.135196
-0.030809
0.139062
-0.0284767
0.14268
-0.026338
0.145996
-0.024254
0.149003
-0.0222715
0.15173
-0.0204322
0.154194
-0.0187139
0.156456
-0.0171632
0.158512
-0.0157168
0.160372
-0.014379
0.162062
-0.0131584
0.163533
-0.0119873
-0.011028
-0.0487771
0.0117417
-0.0594885
0.0107114
-0.0691792
0.00969058
-0.0776701
0.00849088
-0.0849947
0.00732462
-0.0915352
0.00654046
-0.097641
0.00610571
-0.103478
0.00583739
-0.109076
0.00559743
-0.114061
0.00498502
-0.11781
0.00374894
-0.120003
0.00219289
-0.120759
0.000756167
-0.120534
-0.000224545
-0.119856
-0.000678422
-0.118825
-0.00103107
-0.117191
-0.00163421
-0.114855
-0.00233513
-0.111978
-0.00287778
-0.108699
-0.00327826
-0.105086
-0.00361324
-0.101172
-0.00391402
-0.0969896
-0.00418244
-0.0926221
-0.00436752
-0.00475615
-0.0533237
0.0215186
-0.0630584
0.0204461
-0.0722966
0.0189287
-0.0810063
0.0172006
-0.0892066
0.0155249
-0.0968333
0.0141671
-0.10381
0.0130824
-0.110043
0.01207
-0.115323
0.0108775
-0.11951
0.00917222
-0.1227
0.00693903
-0.12496
0.00445313
-0.126254
0.00204998
-0.126498
1.98424e-05
-0.125695
-0.00148204
-0.124053
-0.00267314
-0.121855
-0.00383153
-0.119219
-0.0049712
-0.116117
-0.00598026
-0.11254
-0.0068552
-0.108519
-0.00763414
-0.104067
-0.00836558
-0.0991724
-0.00907734
-0.0937304
-0.00980947
-0.0106693
-0.0586329
0.0324526
-0.06909
0.0309032
-0.0790642
0.0289028
-0.0885349
0.0266714
-0.0974178
0.0244078
-0.105536
0.0222853
-0.112728
0.0202741
-0.11888
0.0182225
-0.123928
0.0159254
-0.12796
0.0132044
-0.131102
0.0100813
-0.13342
0.00677057
-0.134923
0.0035529
-0.135554
0.000650817
-0.13522
-0.00181568
-0.133954
-0.00393915
-0.131922
-0.00586387
-0.129252
-0.00764119
-0.12599
-0.00924201
-0.122165
-0.0106797
-0.117818
-0.0119818
-0.112988
-0.0131954
-0.107719
-0.014346
-0.102052
-0.015477
-0.0166735
-0.0637113
0.0446302
-0.0751069
0.0422989
-0.0858537
0.0396496
-0.095967
0.0367846
-0.105368
0.0338089
-0.113904
0.0308209
-0.121425
0.0277952
-0.12784
0.024638
-0.133132
0.0212166
-0.137379
0.0174521
-0.140694
0.013396
-0.143141
0.00921742
-0.14472
0.00513229
-0.145401
0.00133139
-0.145124
-0.00209193
-0.143914
-0.00514931
-0.141859
-0.00791899
-0.139057
-0.0104428
-0.135561
-0.0127386
-0.131423
-0.014818
-0.126678
-0.0167262
-0.121375
-0.0184987
-0.115551
-0.02017
-0.10926
-0.0217677
-0.0232902
-0.0688233
0.0578621
-0.0812091
0.0546846
-0.0928021
0.0512425
-0.103615
0.047597
-0.113573
0.0437677
-0.122569
0.0398163
-0.130487
0.0357133
-0.137266
0.0314171
-0.142902
0.026853
-0.147454
0.022004
-0.151004
0.0169457
-0.153606
0.0118199
-0.155265
0.00679076
-0.155965
0.00203182
-0.155698
-0.00235908
-0.154472
-0.00637552
-0.152348
-0.010043
-0.149409
-0.0133818
-0.145719
-0.0164283
-0.141338
-0.0191991
-0.136324
-0.02174
-0.130739
-0.0240837
-0.124653
-0.0262561
-0.118149
-0.0282717
-0.0301601
-0.0741253
0.071934
-0.0874651
0.0680243
-0.0999005
0.0636779
-0.111433
0.0591296
-0.121993
0.0543273
-0.131509
0.0493321
-0.139883
0.044088
-0.147083
0.0386167
-0.153106
0.0328759
-0.157985
0.0268833
-0.161788
0.0207484
-0.164549
0.0145807
-0.166283
0.00852459
-0.166995
0.00274414
-0.166681
-0.00267294
-0.165378
-0.00767892
-0.163141
-0.0122792
-0.160029
-0.0164946
-0.156116
-0.0203411
-0.151461
-0.0238536
-0.146133
-0.0270678
-0.140189
-0.0300282
-0.133684
-0.032761
-0.126678
-0.035278
-0.0375775
-0.0794899
0.0871972
-0.0938822
0.0824166
-0.107184
0.0769794
-0.119467
0.0714131
-0.130672
0.0655323
-0.140761
0.0594211
-0.149628
0.0529546
-0.157276
0.0462647
-0.163691
0.0392909
-0.168899
0.0320916
-0.172954
0.0248032
-0.175889
0.017515
-0.177702
0.0103381
-0.178411
0.00345267
-0.178053
-0.00303063
-0.176659
-0.009073
-0.174282
-0.014656
-0.17099
-0.0197865
-0.16685
-0.0244815
-0.161944
-0.0287591
-0.156334
-0.0326777
-0.150093
-0.0362694
-0.143263
-0.0395914
-0.135909
-0.0426318
-0.0453828
-0.0851113
0.103898
-0.100567
0.0978723
-0.114695
0.0911076
-0.127743
0.0844606
-0.139622
0.0774119
-0.150324
0.0701231
-0.159704
0.0623343
-0.167807
0.0543681
-0.174632
0.0461159
-0.180163
0.0376223
-0.184454
0.0290944
-0.187569
0.0206298
-0.189457
0.0122258
-0.190164
0.00415937
-0.189746
-0.00344813
-0.188238
-0.0105813
-0.185704
-0.0171896
-0.182209
-0.0232817
-0.177824
-0.0288665
-0.172638
-0.0339446
-0.16672
-0.0385966
-0.160155
-0.0428336
-0.152953
-0.0467932
-0.145168
-0.0504173
-0.053708
-0.0912802
0.121867
-0.107544
0.114136
-0.122389
0.105952
-0.136228
0.0982994
-0.148826
0.0900098
-0.160211
0.0815087
-0.170103
0.0722263
-0.178661
0.062926
-0.185906
0.0533604
-0.191786
0.0435022
-0.196276
0.0335847
-0.199558
0.0239116
-0.201545
0.0142125
-0.202221
0.00483601
-0.201735
-0.00393402
-0.200105
-0.0122117
-0.197389
-0.0199054
-0.193697
-0.0269739
-0.189038
-0.0335251
-0.183494
-0.0394884
-0.177225
-0.0448663
-0.170272
-0.0497867
-0.162628
-0.0544367
-0.154597
-0.0584482
-0.0622118
0.842081
4.59067
-0.45142
-4.13925
4.05462
-1.88678
-2.16785
0.261259
-0.36036
0.0991013
0.322958
-0.391357
0.0683988
-1.10617
-0.546555
1.65272
-0.673004
0.88102
-0.208016
3.28204
-4.67311
1.39107
-0.051676
-0.163256
0.214932
5.5058
-3.75615
-1.74965
-0.968327
2.22105
-1.25273
-1.43829
0.408092
1.03019
1.53197
-2.57376
1.04179
-1.96539
0.723581
1.24181
0.105078
-0.102922
-0.002156
5.80648
-5.72426
-0.082218
1.36439
2.69024
0.118219
-0.0194656
-0.0987534
-0.291141
-0.278466
0.500721
0.377413
-0.878134
-0.323773
0.186498
0.137274
3.27726
2.39916
-5.67642
-1.6123
1.48537
0.126926
1.63713
-1.51948
-0.117639
-1.28253
0.668878
0.613652
1.5759
0.0612229
-1.33241
0.881457
0.450951
-0.218187
0.00896096
0.209226
5.83713
-3.09234
-2.7448
-0.0392201
-0.122812
0.162033
-0.228343
0.813652
-0.58531
-2.74355
1.5779
1.16565
1.46818
1.11627
-2.58445
3.40911
-5.93663
2.52752
-0.289294
-0.0635184
0.352812
-0.551048
2.88795
-2.3369
-1.17763
-0.787765
-4.86988
2.82405
2.04582
-0.124072