/*--------------------------------*- C++ -*----------------------------------*\
  =========                 |
  \\      /  F ield         | OpenFOAM: The Open Source CFD Toolbox
   \\    /   O peration     | Website:  https://openfoam.org
    \\  /    A nd           | Version:  10
     \\/     M anipulation  |
\*---------------------------------------------------------------------------*/
FoamFile
{
    format      ascii;
    class       volVectorField;
    location    "2000";
    object      U;
}
// * * * * * * * * * * * * * * * * * * * * * * * * * * * * * * * * * * * * * //

dimensions      [0 1 -1 0 0 0 0];

internalField   nonuniform List<vector> 
10435
(
(3.49903 1.67749 9.0515e-22)
(3.27369 2.15981 -5.37906e-20)
(4.10488 -0.329931 -2.77994e-20)
(4.32042 1.07844 9.85621e-20)
(3.48252 0.598737 -3.38518e-20)
(2.72144 -0.123856 2.17365e-19)
(4.37445 -0.303416 -9.53929e-20)
(5.16511 -0.252188 7.08915e-20)
(5.29661 -0.265414 2.60702e-19)
(3.10703 -0.30274 -5.87396e-20)
(3.39305 1.76555 -1.04912e-19)
(4.79971 0.190477 1.83453e-19)
(2.97634 -0.34911 6.17404e-20)
(1.55109 1.42954 -3.73261e-20)
(1.83966 1.5987 -3.92252e-20)
(4.87705 -0.290689 -6.97757e-21)
(1.28056 1.23214 1.22971e-20)
(2.52994 -0.287619 2.11589e-19)
(5.18611 -0.283713 -1.05672e-19)
(3.71231 1.56464 -1.65206e-20)
(5.01385 -0.272242 4.71414e-20)
(4.39768 0.898724 -1.48793e-19)
(4.65027 -0.295972 3.09653e-19)
(5.2163 -0.342499 -1.21393e-19)
(3.55997 -0.266788 6.96637e-20)
(0.34799 0.577282 -1.74696e-21)
(0.0337483 0.263361 -4.30397e-21)
(3.56574 -0.323747 5.06301e-20)
(0.171828 0.0896647 8.55185e-22)
(2.76556 -0.300419 3.20177e-19)
(4.37523 -0.235926 1.38559e-19)
(3.41463 1.54081 -6.74629e-21)
(5.2523 -0.244321 -1.5332e-19)
(0.428087 0.121161 9.12242e-21)
(5.24686 -0.321308 8.17161e-20)
(2.96227 2.53424 2.35414e-20)
(5.13031 -0.305275 1.18608e-19)
(0.192216 0.51836 1.58348e-20)
(0.532969 0.538974 -1.29276e-21)
(5.23171 -0.341493 3.29496e-20)
(2.53105 -0.289992 -3.15142e-19)
(4.37811 -0.29467 -7.75651e-20)
(1.11501 1.43368 -5.79059e-20)
(4.044 1.46502 -1.51194e-19)
(4.91114 -0.281962 -2.44535e-19)
(5.23892 -0.372229 1.92838e-19)
(2.63309 -0.206925 -2.36805e-19)
(0.699998 1.03282 -1.83437e-19)
(5.28091 -0.219484 8.68749e-20)
(4.37671 0.673697 -4.91051e-20)
(5.14691 -0.274488 -1.12113e-20)
(3.703 -0.09442 1.093e-18)
(0.590967 0.578019 -4.38641e-21)
(0.251323 -0.0445759 9.22675e-22)
(0.47651 0.548036 7.77375e-22)
(0.116264 0.0365532 -2.43702e-21)
(5.22456 -0.305529 -3.59608e-19)
(0.182151 0.433551 9.28678e-21)
(0.799309 0.622858 -1.00189e-20)
(5.2932 -0.34428 2.4678e-19)
(0.535674 0.594008 2.94806e-21)
(3.18003 2.31591 4.82127e-20)
(0.171916 0.309612 -8.1666e-21)
(3.78664 0.0421518 -9.20727e-20)
(4.7696 -0.283681 -4.42003e-19)
(3.91879 -0.322635 2.01118e-19)
(0.645725 0.402501 2.07351e-20)
(0.416892 0.586335 3.34958e-20)
(5.04147 -0.254395 -8.64582e-20)
(5.13275 -0.289831 9.43831e-21)
(0.200618 -0.0781739 -3.47088e-21)
(0.262874 0.584503 1.38685e-21)
(1.35876 1.73315 2.03495e-19)
(4.16408 -0.310621 -2.65503e-19)
(2.15031 1.74883 -1.48632e-20)
(1.5714 1.96396 1.60323e-20)
(5.05202 -0.211094 5.34822e-19)
(4.51535 -0.293633 2.41844e-19)
(5.28866 -0.211439 2.14574e-20)
(2.0818 1.47019 9.69703e-20)
(4.66797 0.282302 6.17663e-20)
(3.18986 1.51717 -2.65745e-22)
(0.648142 0.621461 5.91087e-21)
(0.294428 -0.0169285 -7.35925e-22)
(4.78827 0.112328 -1.20123e-19)
(2.98634 2.42188 5.34878e-20)
(3.2688 2.18161 -3.12504e-22)
(3.89946 1.65987 3.04678e-20)
(2.617 2.22133 -9.24803e-21)
(3.45146 2.09544 1.07328e-20)
(4.01688 1.47045 -2.6632e-20)
(4.11346 1.25905 -2.55991e-20)
(3.4299 1.43789 4.10549e-21)
(2.83792 2.25001 3.45468e-20)
(3.61567 1.97549 1.39767e-20)
(2.83132 2.58401 3.07033e-20)
(4.25932 1.02076 3.00787e-19)
(2.20851 1.98862 2.24696e-20)
(1.00867 0.835491 -1.60967e-20)
(4.15275 0.81573 -2.58254e-19)
(2.4185 2.1254 4.01236e-20)
(2.83264 0.478711 -1.32943e-19)
(3.0604 2.23474 -1.84726e-20)
(3.76658 1.82793 -1.57857e-20)
(2.79136 0.281245 -6.66807e-21)
(4.18911 1.28277 9.5663e-21)
(3.65298 1.32158 6.22219e-21)
(4.53031 0.467468 7.1401e-20)
(4.91308 -0.0307675 -1.48929e-19)
(2.36948 1.5398 -2.56078e-20)
(4.22044 0.850975 -1.98469e-20)
(2.88954 0.672502 -7.57104e-20)
(2.92894 1.55755 -2.71644e-20)
(2.65443 1.57003 -2.08945e-20)
(4.00466 1.03017 -1.60817e-19)
(4.24961 1.09002 3.97408e-20)
(4.27239 0.602622 -1.35089e-19)
(3.15348 2.36895 -1.70305e-20)
(3.66101 1.82685 -1.68642e-19)
(4.5177 0.562381 -3.8082e-20)
(4.40112 0.422929 -4.10995e-19)
(1.71015 2.18377 1.58727e-20)
(3.29978 2.27916 4.15892e-20)
(2.3664 2.6655 -1.24225e-19)
(2.97778 1.41178 2.97157e-20)
(0.452686 0.595984 1.71336e-21)
(4.40767 0.771359 2.70892e-19)
(1.97749 2.41066 -3.13101e-20)
(3.92186 0.592936 -2.51941e-19)
(0.102894 0.490824 -1.38509e-21)
(2.19898 2.56553 5.40626e-20)
(2.99488 1.64452 -1.70511e-19)
(5.05013 -0.291613 -1.23341e-19)
(1.79235 1.35358 7.67414e-20)
(0.219907 0.553764 2.34346e-22)
(0.868915 0.841278 5.87119e-22)
(2.61828 2.71052 3.65612e-20)
(4.4545 0.860102 -1.80997e-20)
(3.55587 2.00249 4.3199e-20)
(4.08508 1.26434 3.58262e-20)
(3.90606 1.42569 5.01831e-21)
(4.60976 -0.271242 -4.98823e-19)
(0.540988 0.268726 5.74916e-20)
(4.384 0.00970698 1.13809e-18)
(4.53698 0.698064 2.4997e-20)
(2.01669 2.13981 1.37042e-19)
(2.50269 2.71632 -1.37324e-20)
(3.36585 -0.00907033 -3.0902e-19)
(1.34031 1.47479 6.75354e-20)
(4.71132 0.000286049 7.00788e-20)
(0.588973 0.913146 -7.52922e-22)
(5.0252 -0.262871 2.18886e-19)
(3.51597 1.89027 2.40129e-21)
(4.63349 -0.0804801 4.87042e-19)
(3.34967 -0.164441 -2.70279e-19)
(0.484414 0.753653 5.58615e-21)
(2.94515 1.15449 2.27518e-19)
(3.43336 2.15443 -4.49842e-21)
(3.15791 -0.229969 -2.12004e-19)
(2.98914 2.1129 -2.29257e-20)
(4.77469 -0.182976 -9.14852e-20)
(1.51949 1.20453 -1.60373e-20)
(3.81939 1.38823 1.85725e-19)
(4.89131 0.175482 1.34931e-19)
(2.43909 1.82353 4.2923e-20)
(4.13826 0.376321 9.34751e-19)
(5.29737 -0.269294 -2.3911e-19)
(4.69341 0.452366 -1.24661e-19)
(5.05436 -0.102429 1.8276e-19)
(4.13809 0.149043 -1.62128e-18)
(3.64754 -0.221978 2.4255e-19)
(1.13149 1.44637 -6.60719e-20)
(0.00224525 0.164863 2.15197e-21)
(2.22964 2.21963 -3.42715e-21)
(4.93693 -0.0667729 -2.6485e-19)
(2.94809 2.30506 -2.92945e-20)
(3.0783 2.44225 -2.90652e-20)
(0.850851 1.05389 2.52181e-20)
(4.04798 1.02102 1.15631e-20)
(0.238496 0.151778 -1.17378e-21)
(3.34755 1.97469 6.48284e-20)
(2.77689 -0.00862144 -3.80379e-20)
(4.72861 0.110527 -6.35474e-19)
(0.519255 0.627219 1.22896e-21)
(4.73565 -0.24143 6.98304e-20)
(0.970999 1.31388 8.4281e-20)
(1.43661 1.83286 -1.87326e-19)
(4.68591 -0.292881 -1.94664e-19)
(3.38786 0.431772 9.49266e-20)
(4.10226 -0.0517731 -7.42112e-19)
(4.59223 0.301808 1.0086e-19)
(0.703601 0.671667 6.05136e-21)
(0.147939 0.529642 2.34135e-21)
(2.72034 2.67135 -9.8253e-21)
(2.91462 0.909248 1.02255e-19)
(4.89147 -0.277446 1.22176e-20)
(1.4226 1.70754 1.80172e-19)
(2.79843 2.43551 -2.3617e-20)
(0.79173 1.0877 1.8405e-19)
(5.00647 -0.30078 1.76838e-19)
(2.54407 2.03732 -4.85565e-20)
(0.293816 0.616943 1.40959e-20)
(3.29584 -0.328608 -1.46005e-20)
(0.258299 0.55391 1.43832e-20)
(3.67918 -0.322163 -5.74189e-20)
(3.75035 1.03206 -1.24878e-21)
(3.73777 1.62678 1.87773e-19)
(4.58529 0.643494 -8.89682e-20)
(0.238603 0.295719 -8.26486e-21)
(4.6704 0.501089 -6.31909e-20)
(0.699574 0.970378 -3.06049e-20)
(4.44642 -0.289511 -4.00666e-19)
(4.45073 0.21195 9.227e-19)
(4.95601 0.0775981 6.75689e-20)
(0.0621129 0.244108 2.54354e-21)
(1.63154 1.68973 -1.71883e-19)
(2.7328 1.82234 1.18493e-20)
(0.686195 0.790637 -4.77486e-21)
(0.329305 0.549821 1.66554e-21)
(1.26193 1.0277 1.68857e-20)
(0.27893 0.101306 -8.03863e-22)
(0.882973 0.967317 5.31943e-20)
(0.460222 0.337357 -3.30077e-20)
(2.31696 2.43227 -2.06738e-19)
(0.388564 0.648141 1.10827e-21)
(5.15948 -0.305081 -5.84554e-20)
(0.410025 0.540833 -3.77275e-21)
(2.59316 2.40084 2.3715e-20)
(4.16178 -0.156079 7.99837e-19)
(1.8718 2.21951 -1.43261e-19)
(0.643622 0.770824 -1.86013e-19)
(5.24473 -0.292084 2.58326e-19)
(0.373979 0.547946 -5.2698e-21)
(5.06657 -0.246426 2.6185e-19)
(0.0694803 0.409433 1.08994e-20)
(1.02475 1.03567 -8.81596e-20)
(5.22866 -0.306548 -3.36114e-19)
(0.336074 0.605538 -2.28921e-21)
(5.18065 -0.263501 -2.17798e-20)
(4.05277 -0.222993 5.00194e-21)
(3.8847 1.62912 4.7313e-20)
(0.462775 0.659318 5.13881e-22)
(0.755313 0.893962 6.61225e-22)
(0.162511 0.00621255 -2.16951e-22)
(3.7743 1.23116 -3.40778e-19)
(5.31241 -0.236245 8.44942e-20)
(2.68171 2.59318 -1.02605e-19)
(4.93314 -0.247031 6.85238e-20)
(0.0227559 0.0331221 6.90544e-22)
(2.88115 2.46038 2.0839e-20)
(0.0769657 -0.0347826 -6.13568e-22)
(2.81313 2.0397 -3.45851e-20)
(2.97969 -0.317978 -1.07599e-19)
(4.78795 0.322658 -1.17536e-19)
(4.77024 -0.276622 -1.64454e-19)
(3.77997 0.276702 3.70398e-19)
(0.0378567 -0.00475234 -2.18026e-21)
(4.62985 -0.27482 2.30121e-19)
(0.610972 0.836168 2.28702e-21)
(0.432969 0.732955 -5.09098e-20)
(4.47268 -0.290299 1.13183e-20)
(3.80505 -0.187018 2.47858e-21)
(0.411466 0.614003 5.70891e-22)
(5.02351 -0.0840296 -2.83538e-19)
(3.00271 1.8026 8.98801e-21)
(0.733407 0.718396 1.02704e-19)
(3.70895 1.7729 8.04519e-21)
(4.45079 -0.2846 2.49491e-19)
(0.637332 0.685175 -1.59737e-21)
(3.83602 0.830627 5.15656e-20)
(4.33496 -0.311075 -1.93049e-22)
(5.09186 -0.207091 -3.51975e-20)
(4.88934 -0.242553 -2.45412e-20)
(3.64099 -0.293608 -2.57415e-19)
(0.278014 0.558233 -1.63723e-21)
(4.6042 0.402001 -1.74444e-19)
(0.151384 0.498094 -9.58327e-21)
(3.40643 0.852672 3.86686e-20)
(4.84671 -0.297039 6.73955e-20)
(5.17981 -0.184573 1.41932e-20)
(3.22245 -0.321601 1.28062e-19)
(1.11541 1.37849 -2.61641e-19)
(4.15637 -0.315232 -6.66364e-21)
(2.4201 2.32562 -1.55441e-20)
(3.06 2.02355 -1.40049e-20)
(0.7578 0.801346 -2.34112e-21)
(3.37604 0.254473 5.65093e-20)
(0.453019 0.522302 -1.32191e-21)
(0.341978 0.0110447 -3.96102e-21)
(0.350445 0.125844 2.25224e-21)
(2.49826 2.54474 1.59192e-19)
(3.00586 1.88753 1.90687e-19)
(0.300507 0.247759 4.55017e-21)
(5.00261 -0.219113 6.72859e-20)
(0.512239 0.499302 -1.83866e-22)
(0.152734 -0.0777284 1.00922e-21)
(1.75325 1.96808 -4.04436e-21)
(3.26225 1.75724 3.86113e-21)
(3.39063 1.09303 -4.81937e-21)
(4.07038 -0.278836 1.59032e-19)
(0.574992 0.807195 2.89207e-19)
(5.12277 -0.20415 -9.77733e-20)
(3.95849 -0.310044 -2.3323e-21)
(0.0128267 0.073088 5.49545e-22)
(3.40059 1.32768 -8.74194e-20)
(1.91412 1.86468 8.96969e-20)
(1.08233 1.23902 9.6196e-20)
(5.09065 -0.208402 -2.12864e-20)
(4.00412 -0.295872 -2.14359e-21)
(0.388462 0.0318629 1.52936e-21)
(3.8555 1.18265 1.07465e-20)
(0.314861 0.629928 6.78877e-21)
(2.81063 2.58336 -9.20879e-21)
(3.33505 0.118902 -1.6333e-19)
(5.32356 -0.299434 -4.57059e-20)
(0.115228 -0.0568926 3.07412e-22)
(0.55242 0.681111 -2.31486e-21)
(4.4485 -0.128009 -8.98663e-19)
(0.489999 0.554878 2.80451e-21)
(4.76897 0.302275 1.4682e-19)
(2.72961 0.128918 -5.74095e-20)
(0.136993 0.217804 6.51372e-21)
(3.29965 1.97437 -2.40223e-21)
(0.761317 0.72955 2.73213e-21)
(5.25726 -0.175184 -9.1399e-21)
(3.38174 -0.317398 -5.53421e-20)
(0.238379 0.563682 -3.2367e-22)
(3.76547 -0.312802 -2.93097e-22)
(0.565247 0.501403 -1.28104e-21)
(0.119734 0.416754 -1.33846e-20)
(5.30898 -0.336002 1.46424e-21)
(0.446946 0.189747 -4.98749e-21)
(0.429039 0.0485741 2.0697e-21)
(4.14759 -0.320318 8.34928e-21)
(4.8966 -0.139489 2.26772e-19)
(0.249357 0.43152 -2.59119e-20)
(0.112417 -0.0365764 7.05106e-22)
(0.034507 0.0166013 2.73478e-22)
(0.48536 0.0962814 1.29356e-21)
(0.0285455 0.133345 4.95614e-22)
(0.206712 0.555159 9.63659e-22)
(0.353158 0.652577 6.11889e-21)
(0.588685 0.631462 -5.41257e-22)
(0.00164798 0.168661 -1.08881e-21)
(0.00520136 0.119626 4.54294e-22)
(0.45462 0.758756 -6.92531e-21)
(0.313039 0.420194 7.42642e-21)
(0.00740652 0.356385 -1.88385e-22)
(0.812214 0.782854 -4.74244e-21)
(5.30684 -0.192088 -5.53948e-20)
(0.461421 0.0682245 4.67914e-21)
(3.59609 -0.321286 6.5235e-21)
(0.00805006 0.224035 2.17878e-22)
(3.54873 -0.321628 -1.23688e-21)
(5.28893 -0.166434 2.4426e-20)
(5.24554 -0.174593 -2.04662e-20)
(2.90315 -0.382851 -2.56452e-21)
(4.3526 -0.311523 -1.68887e-19)
(0.206762 -0.0199984 2.66346e-21)
(0.365188 0.0660369 -8.53726e-21)
(0.072329 -0.00546659 -6.80739e-22)
(0.392703 0.567667 4.89103e-21)
(0.0511786 0.0993147 -1.01149e-23)
(0.700369 0.74103 2.43569e-21)
(0.083565 0.203057 -2.8497e-21)
(0.176421 0.537971 6.07038e-22)
(0.34568 0.585992 -7.32705e-20)
(4.95189 0.000896403 -2.00552e-20)
(0.187506 0.550912 -5.03687e-21)
(5.31363 -0.205511 6.22362e-20)
(0.427501 0.554774 -9.69442e-22)
(0.144386 0.513001 -8.31831e-22)
(2.71606 -0.426348 -2.46864e-20)
(5.16612 -0.179586 -6.80764e-20)
(0.818418 0.880844 2.14732e-20)
(0.00381174 0.283726 6.03691e-23)
(0.121293 0.318044 2.87843e-21)
(0.0218439 0.319311 6.33643e-23)
(0.309094 0.0453281 2.49594e-21)
(0.293325 0.578024 -5.68132e-22)
(-0.00183296 0.338162 1.22981e-22)
(0.484131 0.57162 -1.47197e-21)
(5.24605 -0.208636 -1.57133e-20)
(0.378352 0.384619 -1.23079e-20)
(5.05849 -0.236006 8.1128e-21)
(5.30359 -0.161127 8.46373e-20)
(3.31557 -0.333609 -4.28639e-22)
(3.08795 -0.35682 5.05764e-20)
(5.2942 -0.171387 -3.79087e-20)
(3.77049 -0.310098 -1.67341e-20)
(5.29595 -0.31439 -5.54727e-20)
(2.12596 2.41067 6.25478e-21)
(0.905873 1.17084 -3.88455e-20)
(0.212916 0.0483659 3.48673e-21)
(0.152477 -0.0532687 -2.37724e-21)
(3.95217 -0.308593 2.44733e-20)
(0.253341 0.011527 -7.48869e-21)
(2.73171 -0.372223 -1.20552e-19)
(0.00846004 0.36784 2.48601e-22)
(0.183796 0.192581 -8.04403e-22)
(0.10622 0.474793 -6.7862e-23)
(0.371309 0.221925 -3.03319e-21)
(0.593209 0.753105 5.61927e-21)
(4.60246 -0.292261 3.63534e-19)
(0.0801146 0.331189 -8.9614e-22)
(5.16447 -0.223401 3.44549e-21)
(5.07538 -0.162839 -1.07629e-19)
(0.8408 1.02598 -3.05477e-21)
(0.248225 0.568691 5.71886e-22)
(0.0529805 0.40753 -3.63499e-23)
(5.18576 -0.218198 9.38475e-20)
(0.0811456 0.444974 1.35099e-21)
(0.215574 0.559212 2.46547e-22)
(0.48722 0.707472 -7.10998e-21)
(0.0827771 0.0696069 5.31286e-22)
(0.48885 0.77817 2.77629e-20)
(0.102397 0.154478 3.585e-22)
(3.87508 -0.314351 1.38405e-19)
(0.140654 -0.0811177 1.00685e-22)
(0.278595 0.58145 1.99186e-21)
(0.133575 0.129939 -1.43702e-21)
(0.536575 0.169666 -2.81892e-20)
(2.46654 -0.31469 -1.00721e-19)
(0.98919 1.11197 3.12799e-20)
(0.906677 0.918883 -6.06293e-20)
(5.04342 -0.180385 -1.4547e-19)
(0.415404 0.0771182 -2.20548e-21)
(0.404943 -0.356454 1.74386e-21)
(0.426412 -0.337946 4.29651e-23)
(0.47674 -0.337637 -1.41237e-21)
(0.512309 -0.336651 7.37902e-22)
(0.551815 -0.337071 -9.23992e-22)
(0.583627 -0.336821 -2.89589e-21)
(0.614633 -0.336578 7.35291e-22)
(0.640687 -0.336444 9.20584e-22)
(0.665574 -0.33486 1.02923e-21)
(0.438224 -0.343668 -1.40916e-21)
(0.459192 -0.33277 -2.33085e-22)
(0.507241 -0.330772 1.29151e-21)
(0.54341 -0.330571 -2.80403e-21)
(0.580972 -0.330459 2.30039e-21)
(0.612344 -0.330413 4.21794e-21)
(0.641689 -0.330052 -2.6664e-21)
(0.666703 -0.329599 3.2095e-21)
(0.688462 -0.328151 -1.48925e-21)
(0.472965 -0.327949 3.81514e-21)
(0.491477 -0.321143 1.32519e-21)
(0.537926 -0.319133 -3.14464e-21)
(0.573817 -0.319671 1.60514e-21)
(0.609823 -0.319493 -4.56981e-21)
(0.640414 -0.319544 -8.21874e-22)
(0.668337 -0.319182 2.96436e-23)
(0.692066 -0.318628 -1.51641e-21)
(0.712336 -0.317292 -3.04177e-21)
(0.504964 -0.310743 -2.12763e-21)
(0.522146 -0.305181 1.90471e-21)
(0.567709 -0.303315 2.72797e-21)
(0.603426 -0.30435 7.57498e-23)
(0.638223 -0.304181 2.05712e-21)
(0.668062 -0.304236 6.98969e-21)
(0.694826 -0.303767 -4.37448e-21)
(0.717548 -0.303008 8.1841e-22)
(0.736976 -0.301399 1.94764e-21)
(0.534914 -0.291103 1.16564e-24)
(0.551568 -0.285568 -6.92399e-22)
(0.596387 -0.283651 2.98745e-22)
(0.632014 -0.284674 -1.7425e-21)
(0.665929 -0.284406 7.38435e-22)
(0.695189 -0.284285 -1.55439e-21)
(0.72117 -0.283554 8.88987e-22)
(0.743319 -0.282448 3.54748e-21)
(0.76254 -0.280172 9.28305e-22)
(0.56309 -0.26834 4.01472e-22)
(0.579691 -0.262374 -4.34978e-21)
(0.623791 -0.260208 2.77691e-22)
(0.659436 -0.260714 4.15067e-21)
(0.692767 -0.260129 -1.38557e-21)
(0.721682 -0.2596 -2.07478e-21)
(0.747237 -0.25844 -6.60881e-22)
(0.769186 -0.25685 -6.43685e-21)
(0.788308 -0.254278 3.89101e-21)
(0.589038 -0.24306 4.88783e-22)
(0.606311 -0.235879 3.16963e-21)
(0.649796 -0.233121 5.56261e-22)
(0.685591 -0.232554 -2.07072e-21)
(0.718597 -0.231335 4.54134e-22)
(0.747424 -0.2301 -1.10453e-21)
(0.772903 -0.228237 1.70407e-21)
(0.794974 -0.225866 -1.68879e-21)
(0.814317 -0.222531 -1.16368e-21)
(0.611764 -0.216466 -1.48589e-21)
(0.631714 -0.206387 2.8398e-21)
(0.674505 -0.202456 -6.67549e-22)
(0.710435 -0.200259 1.35464e-21)
(0.743279 -0.198065 -1.01081e-21)
(0.772251 -0.195815 3.03858e-21)
(0.79798 -0.192972 4.35564e-21)
(0.820498 -0.18966 -6.15069e-21)
(0.84052 -0.184775 1.89708e-21)
(0.631602 -0.186007 -4.13651e-22)
(0.656629 -0.173118 5.94785e-22)
(0.698075 -0.167702 4.06642e-22)
(0.733835 -0.163777 -1.43703e-21)
(0.766596 -0.160386 -3.99192e-22)
(0.795922 -0.15684 -1.32321e-21)
(0.822179 -0.152702 -7.54251e-22)
(0.84547 -0.14799 6.15189e-21)
(0.866197 -0.142292 -7.16836e-22)
(0.650652 -0.148272 7.82634e-22)
(0.680633 -0.134826 -2.18523e-21)
(0.719793 -0.128438 -1.24714e-21)
(0.755252 -0.123262 3.35495e-22)
(0.788166 -0.118591 -4.51303e-22)
(0.818142 -0.113479 2.0319e-21)
(0.845245 -0.107653 2.92921e-22)
(0.869533 -0.101086 4.13311e-21)
(0.891217 -0.0932705 -1.77875e-22)
(0.671034 -0.105536 -8.03529e-22)
(0.702007 -0.0932369 -2.19868e-22)
(0.738316 -0.0860921 8.67703e-22)
(0.773986 -0.0797531 1.38969e-21)
(0.807582 -0.0734524 -4.17838e-22)
(0.838624 -0.066393 -4.80201e-22)
(0.866961 -0.0584785 -1.25966e-21)
(0.892667 -0.049641 -4.69541e-21)
(0.915758 -0.0395956 -7.22494e-22)
(0.69091 -0.0629194 1.43747e-21)
(0.718497 -0.0524846 2.08764e-21)
(0.753425 -0.0430915 -1.6532e-21)
(0.790001 -0.0347603 8.73848e-22)
(0.824764 -0.0259839 -1.60023e-22)
(0.857158 -0.0163981 2.75671e-21)
(0.8869 -0.00595399 2.68344e-22)
(0.914039 0.00543879 -2.31841e-21)
(0.938727 0.0168142 -1.71903e-21)
(0.705607 -0.0230361 3.46497e-22)
(0.731547 -0.013167 -4.44833e-22)
(0.766287 -0.000313487 8.15921e-23)
(0.80396 0.0110434 5.6414e-22)
(0.840017 0.0232097 -3.83511e-22)
(0.87384 0.0360047 -4.95684e-22)
(0.905055 0.049649 -9.32302e-22)
(0.933637 0.0640978 1.7586e-21)
(0.959941 0.0794798 -1.07817e-21)
(0.714858 0.0164514 -4.85548e-22)
(0.742171 0.0263875 -1.75115e-23)
(0.777572 0.042974 -3.1361e-22)
(0.816323 0.0578711 8.88063e-22)
(0.853553 0.0739399 -1.62975e-22)
(0.888705 0.0903261 -9.558e-23)
(0.921339 0.107447 -6.47172e-22)
(0.951409 0.125128 8.19317e-23)
(0.978899 0.144024 6.23689e-22)
(0.718216 0.0577182 1.53579e-21)
(0.750235 0.0676206 -2.35312e-22)
(0.787206 0.0880321 1.75773e-21)
(0.827026 0.106428 -2.53844e-21)
(0.865251 0.12645 2.87588e-22)
(0.901577 0.14656 9.29844e-22)
(0.935535 0.167395 6.64519e-22)
(0.967106 0.188884 9.6977e-22)
(0.996242 0.211621 -3.4871e-21)
(0.714305 0.104198 7.30621e-22)
(0.754741 0.112844 -6.66808e-22)
(0.794368 0.136392 -2.54145e-21)
(0.835366 0.15753 3.38738e-21)
(0.874556 0.180977 1.16492e-21)
(0.912031 0.204506 -6.17743e-22)
(0.947339 0.228848 -6.99017e-23)
(0.98039 0.253935 2.63611e-21)
(1.01071 0.27975 -1.16547e-21)
(0.70723 0.155658 3.15719e-21)
(0.752749 0.163395 -2.14401e-21)
(0.79696 0.188622 2.46536e-21)
(0.839866 0.211446 -1.68672e-21)
(0.880389 0.237474 -1.80539e-21)
(0.919195 0.263948 7.28464e-21)
(0.955921 0.291528 -4.85523e-21)
(0.990482 0.320119 -1.99842e-21)
(1.02297 0.348862 4.97917e-22)
(0.699778 0.207582 -4.24161e-21)
(0.745317 0.215636 3.0217e-21)
(0.793662 0.242762 -1.4087e-21)
(0.839262 0.266972 2.2011e-21)
(0.881772 0.295156 5.03955e-22)
(0.922381 0.324359 -6.00303e-21)
(0.960872 0.35522 5.56639e-22)
(0.997142 0.387616 -2.95128e-21)
(1.0313 0.421161 -3.86038e-21)
(0.690538 0.257261 -9.20294e-22)
(0.733408 0.266431 -6.97226e-22)
(0.784764 0.296177 -1.62151e-21)
(0.833231 0.322282 -6.48536e-21)
(0.878211 0.352654 1.58506e-21)
(0.921138 0.384495 2.76461e-21)
(0.961952 0.418439 3.19478e-21)
(1.00066 0.454196 4.04547e-21)
(1.03703 0.491952 -1.92684e-21)
(0.678422 0.304753 7.27192e-22)
(0.717823 0.314947 1.72403e-22)
(0.771023 0.347435 5.70975e-21)
(0.821941 0.375992 -4.88862e-22)
(0.869475 0.408767 2.80926e-21)
(0.914906 0.443324 -1.93466e-21)
(0.958209 0.480261 -1.36121e-20)
(0.999539 0.519207 -2.11571e-21)
(1.0393 0.559993 -3.01671e-22)
(0.661942 0.350815 1.75699e-21)
(0.698203 0.361194 -8.02041e-21)
(0.75276 0.395905 4.93112e-21)
(0.805609 0.427217 -5.78534e-21)
(0.855589 0.462636 4.41594e-21)
(0.903544 0.500202 -1.05686e-21)
(0.949365 0.540468 4.07621e-21)
(0.9931 0.583088 3.68916e-21)
(1.03413 0.628623 -1.33034e-21)
(0.64091 0.394969 4.17361e-21)
(0.673773 0.40466 7.4505e-21)
(0.72996 0.44082 -1.36031e-20)
(0.784315 0.475134 1.58785e-21)
(0.836564 0.513353 -1.22443e-20)
(0.887 0.554105 3.54067e-21)
(0.935558 0.597735 1.40095e-21)
(0.982617 0.644004 -2.10381e-21)
(1.02646 0.695224 -1.04499e-21)
(0.616856 0.433407 -2.75705e-21)
(0.644964 0.444024 -6.36311e-21)
(0.703296 0.48139 7.60521e-21)
(0.758622 0.51938 7.96685e-21)
(0.812767 0.560665 8.66205e-21)
(0.865302 0.604828 -5.78416e-22)
(0.916286 0.651765 -2.95056e-21)
(0.966549 0.701839 8.68614e-21)
(1.01345 0.757705 -2.33751e-20)
(0.59016 0.461644 9.5991e-22)
(0.612693 0.477538 3.40362e-21)
(0.672233 0.516181 -2.24353e-21)
(0.727293 0.558309 4.27483e-21)
(0.782526 0.60281 -8.20245e-21)
(0.836549 0.650758 -2.24012e-21)
(0.88942 0.701014 1.24792e-20)
(0.943257 0.755256 -1.31582e-20)
(0.995147 0.81945 1.46851e-20)
(0.558692 0.482632 1.87092e-21)
(0.580855 0.511623 5.58301e-22)
(0.642169 0.553998 2.28942e-21)
(0.696933 0.599043 -4.96128e-21)
(0.752876 0.646176 1.37731e-21)
(0.806962 0.697102 -7.00009e-21)
(0.860313 0.749593 4.81234e-21)
(0.919198 0.806229 -4.6238e-21)
(0.973992 0.872425 -6.26158e-22)
(0.326933 0.287727 -3.36717e-22)
(0.320158 0.285953 -4.10504e-22)
(0.312978 0.283723 -1.30485e-21)
(0.30505 0.281124 1.83955e-21)
(0.296376 0.278134 -1.38702e-21)
(0.286941 0.2747 1.05463e-21)
(0.276739 0.270765 4.08015e-22)
(0.265785 0.266268 -1.17639e-22)
(0.25411 0.261138 -7.63809e-22)
(0.241762 0.255302 -3.10406e-22)
(0.228816 0.248683 3.48325e-22)
(0.215363 0.2412 -3.79636e-22)
(0.201514 0.232775 1.0622e-21)
(0.187398 0.223334 -2.69771e-21)
(0.173145 0.212799 4.68041e-21)
(0.158898 0.201113 -5.2916e-21)
(0.144804 0.188233 4.70436e-21)
(0.131001 0.174134 -2.14049e-21)
(0.117625 0.158828 -7.07172e-22)
(0.104796 0.142368 7.33117e-22)
(0.0926042 0.12486 -2.52755e-22)
(0.0810881 0.106475 5.59077e-22)
(0.0701528 0.0874132 2.89899e-23)
(0.0596554 0.0681549 -7.78816e-22)
(0.0494135 0.0490253 6.10022e-22)
(0.0401507 0.0300698 -3.22928e-22)
(0.0339453 0.0110323 4.34433e-22)
(0.0320322 -0.00861125 3.34212e-22)
(0.0344412 -0.0289781 -4.10842e-22)
(0.0402318 -0.0503176 1.08726e-23)
(0.046946 -0.072749 -3.59032e-22)
(0.053748 -0.0956634 3.31835e-22)
(0.0613929 -0.118587 6.32138e-22)
(0.0702103 -0.141298 -5.28202e-22)
(0.0802522 -0.163394 7.6314e-22)
(0.0915118 -0.184612 -1.25256e-21)
(0.103904 -0.204743 1.08864e-22)
(0.117294 -0.223624 2.67589e-22)
(0.131528 -0.241138 -4.16972e-22)
(0.14644 -0.257211 9.36303e-22)
(0.161873 -0.271811 -5.25126e-22)
(0.17767 -0.284943 -2.26393e-21)
(0.193675 -0.296635 4.66981e-21)
(0.209737 -0.306941 -4.97122e-21)
(0.225714 -0.315945 4.31378e-21)
(0.241461 -0.323736 -2.54549e-21)
(0.256838 -0.330412 1.30899e-21)
(0.271721 -0.336086 -4.68835e-22)
(0.285985 -0.340862 4.16807e-22)
(0.299527 -0.344836 -4.70241e-22)
(0.312291 -0.348097 -6.27333e-22)
(0.324263 -0.350724 -1.66051e-22)
(0.33544 -0.352797 3.66183e-22)
(0.345822 -0.354397 8.64722e-22)
(0.355423 -0.355592 -1.32224e-21)
(0.364265 -0.356448 1.72508e-21)
(0.372384 -0.357019 -1.18437e-21)
(0.379813 -0.357341 -4.1473e-22)
(0.386653 -0.357514 -2.98749e-22)
(0.343497 0.258843 -1.73657e-23)
(0.337271 0.257232 4.88731e-23)
(0.330577 0.255548 -1.47034e-22)
(0.323308 0.253703 3.35754e-22)
(0.315463 0.251667 5.71767e-23)
(0.30704 0.249351 -8.50672e-22)
(0.298023 0.246701 1.54799e-22)
(0.288398 0.243649 -6.4441e-23)
(0.278154 0.240118 6.39694e-22)
(0.267301 0.23602 -8.34995e-23)
(0.255866 0.231259 -1.88395e-22)
(0.243896 0.225734 -3.35293e-22)
(0.231459 0.219342 7.68666e-22)
(0.21864 0.211986 -7.87629e-22)
(0.205546 0.203576 8.19308e-22)
(0.192295 0.194038 -2.44034e-22)
(0.179013 0.183317 -5.04036e-22)
(0.165834 0.171381 4.67415e-22)
(0.152886 0.158221 2.39275e-22)
(0.140287 0.143855 2.10548e-23)
(0.128139 0.128319 7.37469e-24)
(0.116532 0.111656 -6.19576e-22)
(0.105554 0.0938833 4.80477e-22)
(0.095426 0.0749537 -1.30875e-22)
(0.0865643 0.0546357 5.51039e-22)
(0.0794711 0.0327811 -2.37677e-22)
(0.0747588 0.00952108 -3.37641e-23)
(0.0725941 -0.0146254 1.27708e-22)
(0.0730967 -0.0389696 4.42306e-24)
(0.0762881 -0.0628697 -8.95803e-24)
(0.081561 -0.086057 -1.00631e-22)
(0.0882726 -0.108664 6.24801e-23)
(0.0963427 -0.130728 -5.27437e-23)
(0.105692 -0.152144 -1.71003e-22)
(0.116201 -0.172763 6.41847e-23)
(0.127781 -0.192431 4.15923e-23)
(0.14033 -0.211 3.13066e-22)
(0.153722 -0.228343 -5.54233e-22)
(0.167815 -0.244362 1.8115e-24)
(0.182455 -0.258991 -8.8564e-23)
(0.19748 -0.27219 1.25482e-22)
(0.212731 -0.283952 4.44057e-22)
(0.22805 -0.294295 -8.48604e-22)
(0.24328 -0.303264 -5.10531e-22)
(0.258273 -0.310928 1.06858e-21)
(0.272892 -0.31738 -9.49795e-22)
(0.287016 -0.32273 7.22932e-22)
(0.30054 -0.327108 -1.67192e-22)
(0.313386 -0.330645 -3.05654e-22)
(0.32552 -0.333455 1.38674e-23)
(0.336997 -0.33562 6.74425e-22)
(0.347851 -0.337216 -1.65764e-22)
(0.35807 -0.338333 1.91839e-22)
(0.367671 -0.339054 -9.12935e-22)
(0.376677 -0.339448 1.39126e-22)
(0.385125 -0.33957 3.47531e-22)
(0.393051 -0.339456 -2.2433e-22)
(0.40049 -0.33914 6.8925e-23)
(0.407494 -0.33877 -3.22496e-23)
(0.397101 0.248992 -4.92522e-22)
(0.390749 0.24747 9.58222e-23)
(0.383951 0.245768 -4.26707e-22)
(0.376688 0.24385 -1.04752e-22)
(0.368942 0.241665 1.47045e-21)
(0.360695 0.239172 -4.59823e-22)
(0.351922 0.236325 -8.85401e-22)
(0.342614 0.233071 -1.25944e-23)
(0.332771 0.229346 5.27826e-22)
(0.322391 0.225081 -1.39288e-22)
(0.311493 0.2202 1.4325e-21)
(0.300111 0.21462 -1.67311e-21)
(0.288293 0.208254 1.51023e-21)
(0.27611 0.201017 -1.9596e-22)
(0.263646 0.192828 -1.30327e-21)
(0.250998 0.183613 3.80366e-22)
(0.23828 0.17331 1.5323e-21)
(0.22561 0.161871 -6.27045e-22)
(0.213112 0.149262 -1.37115e-22)
(0.200911 0.135459 2.59114e-23)
(0.189135 0.120445 -4.22324e-22)
(0.177923 0.104203 1.13574e-22)
(0.16744 0.086701 -1.01548e-21)
(0.157914 0.0679014 1.21307e-21)
(0.149653 0.0477957 -4.73058e-22)
(0.143068 0.0264483 -2.31519e-24)
(0.138638 0.00406224 6.41351e-23)
(0.136697 -0.0190216 -3.09149e-22)
(0.137331 -0.0424121 1.87019e-22)
(0.140379 -0.0656796 1.03181e-22)
(0.145432 -0.0884805 2.42893e-22)
(0.152101 -0.11067 -2.40709e-22)
(0.160161 -0.132169 1.13256e-22)
(0.169454 -0.152875 1.67681e-22)
(0.179847 -0.172688 -5.08035e-22)
(0.191219 -0.191512 1.45152e-21)
(0.203452 -0.209251 -9.39602e-22)
(0.21642 -0.225819 -2.26528e-22)
(0.229986 -0.241147 -2.19439e-22)
(0.244009 -0.255187 -7.62656e-23)
(0.258339 -0.267916 -3.81839e-22)
(0.272828 -0.279332 -6.16222e-22)
(0.287332 -0.289459 1.5418e-21)
(0.301711 -0.298342 7.23831e-22)
(0.315841 -0.306048 -1.48248e-21)
(0.329612 -0.312655 -4.72994e-22)
(0.342936 -0.318258 1.52953e-21)
(0.355748 -0.322953 -1.78218e-21)
(0.368007 -0.32684 1.25737e-21)
(0.379696 -0.330011 -5.14825e-23)
(0.390803 -0.332558 4.92243e-22)
(0.4013 -0.334565 8.40531e-23)
(0.411187 -0.336108 -8.85498e-22)
(0.420479 -0.337254 -4.29453e-22)
(0.429196 -0.338058 1.40621e-21)
(0.437365 -0.338565 -4.41852e-23)
(0.445022 -0.338815 -4.17449e-22)
(0.452194 -0.338854 1.24566e-22)
(0.458917 -0.338711 -4.74106e-22)
(0.433994 0.243325 -1.46121e-22)
(0.427629 0.242219 6.8785e-22)
(0.420851 0.240945 -3.33404e-22)
(0.413596 0.239421 2.55872e-22)
(0.40586 0.237622 -2.86544e-22)
(0.397629 0.235505 -2.2736e-23)
(0.388892 0.233022 -1.88407e-22)
(0.379641 0.230116 -5.0472e-22)
(0.369878 0.226725 3.40672e-22)
(0.359611 0.222776 4.30525e-22)
(0.348858 0.218193 3.42478e-22)
(0.337649 0.212893 -1.24309e-21)
(0.326028 0.206791 1.14295e-21)
(0.314055 0.199799 -2.28138e-22)
(0.301805 0.191833 1.61746e-22)
(0.289371 0.182814 -6.8564e-22)
(0.27686 0.17267 6.68955e-22)
(0.264392 0.161342 -2.7365e-22)
(0.252102 0.14878 -3.81854e-22)
(0.240135 0.134947 2.19195e-22)
(0.228651 0.119815 -1.18444e-22)
(0.217824 0.103365 -6.11537e-22)
(0.207856 0.0855913 4.07039e-22)
(0.198981 0.0665035 4.02953e-22)
(0.191469 0.0461525 -3.3442e-22)
(0.185606 0.0246524 3.76095e-23)
(0.181665 0.00221033 3.86957e-22)
(0.179834 -0.0208717 -4.59287e-22)
(0.180187 -0.0442446 1.53545e-22)
(0.182675 -0.0675553 -4.17131e-23)
(0.187126 -0.0905088 1.96619e-22)
(0.193317 -0.112902 -4.66949e-22)
(0.20105 -0.134588 3.58262e-22)
(0.210141 -0.155445 -8.28443e-24)
(0.220419 -0.175364 -4.67014e-22)
(0.231727 -0.194247 1.95473e-22)
(0.243909 -0.212008 5.23326e-22)
(0.25681 -0.228568 -2.65898e-22)
(0.270279 -0.243868 -2.0394e-22)
(0.28416 -0.257867 3.80039e-22)
(0.298301 -0.270546 -1.37076e-22)
(0.312555 -0.281911 -1.5229e-22)
(0.326781 -0.291985 8.87291e-22)
(0.34085 -0.300817 -8.31756e-22)
(0.354647 -0.308469 3.52712e-22)
(0.368075 -0.31502 -8.17479e-23)
(0.381056 -0.320556 1.15954e-21)
(0.39353 -0.32517 -1.10043e-21)
(0.405456 -0.328956 4.41197e-22)
(0.416808 -0.332002 3.6785e-22)
(0.427574 -0.334395 3.64154e-22)
(0.437754 -0.336216 -5.41852e-22)
(0.447359 -0.337539 -1.26873e-22)
(0.456408 -0.338434 -1.56289e-22)
(0.464924 -0.338959 -2.56033e-22)
(0.472928 -0.339179 1.89033e-22)
(0.480449 -0.339124 -3.39211e-22)
(0.48753 -0.338831 6.93081e-22)
(0.494223 -0.338369 -1.9698e-22)
(0.479983 0.240105 -8.70716e-22)
(0.473647 0.238867 8.54249e-23)
(0.466841 0.237453 8.46719e-22)
(0.459539 0.235812 -6.07043e-22)
(0.451735 0.233903 1.6014e-22)
(0.443422 0.231681 5.21232e-22)
(0.434599 0.229095 -6.7413e-22)
(0.425266 0.226087 2.50718e-22)
(0.415432 0.222595 7.96528e-22)
(0.405112 0.218552 -2.82692e-22)
(0.39433 0.213886 -8.29336e-22)
(0.383121 0.208518 -2.66615e-22)
(0.37153 0.202369 6.96559e-22)
(0.359617 0.195355 6.12558e-22)
(0.347456 0.187396 -1.46624e-22)
(0.335135 0.178411 -8.51852e-22)
(0.322758 0.168327 -2.43649e-22)
(0.310446 0.157081 -7.02074e-22)