/*--------------------------------*- C++ -*----------------------------------*\
  =========                 |
  \\      /  F ield         | OpenFOAM: The Open Source CFD Toolbox
   \\    /   O peration     | Website:  https://openfoam.org
    \\  /    A nd           | Version:  10
     \\/     M anipulation  |
\*---------------------------------------------------------------------------*/
FoamFile
{
    format      ascii;
    class       volScalarField;
    location    "750";
    object      epsilon;
}
// * * * * * * * * * * * * * * * * * * * * * * * * * * * * * * * * * * * * * //

dimensions      [0 2 -3 0 0 0 0];

internalField   nonuniform List<scalar> 
23845
(
0.0422079
0.05971
0.0580497
0.0140681
0.0414718
0.00241058
0.0761376
0.0109595
0.00177622
0.0256602
0.0239135
0.00205783
0.00340815
0.0021097
0.121794
0.0122751
0.00638127
0.00877344
0.00443917
0.0031297
0.033542
0.0210479
0.0276724
0.00178375
0.0260081
0.00123708
0.0516045
0.00285
0.0105786
0.00309259
0.0156577
0.0248681
0.135777
0.00931858
0.0020729
0.00255983
0.0209701
0.00208318
0.00217416
0.00198766
0.0040671
0.00606774
0.00284369
0.00591255
0.000891548
0.00406571
0.02861
0.0140764
0.0230108
0.0110927
0.0146966
0.0473313
0.0280309
0.00250954
0.024122
0.00557487
0.0553332
0.0112874
0.042695
0.0359601
0.0107143
0.00633158
0.0106371
0.0129378
0.00158464
0.00348055
0.0545916
0.000755828
0.000781367
0.00556886
0.0107001
0.0425158
0.00160538
0.105439
0.00135128
0.118187
0.00206206
0.00220399
0.0115382
0.00953148
0.0392662
0.0962141
0.0601651
0.0113494
0.0654023
0.00208742
0.080759
0.0294308
0.00154528
0.00793301
0.0143582
0.00530735
0.0112487
0.00256859
0.0116066
0.0126511
0.00560938
0.0158842
0.00131974
0.0328359
0.00659814
0.0592652
0.0508574
0.0139139
0.013155
0.0117064
0.00242416
0.00117872
0.0469297
0.00576871
0.0213265
0.00211249
0.0903088
0.021252
0.00267803
0.0237416
0.0014685
0.0151829
0.0107213
0.0130944
0.00215248
0.0178055
0.00569483
0.0218502
0.0630425
0.00136157
0.0106467
0.0109738
0.0406667
0.0315034
0.0574032
0.0386863
0.0277854
0.00223776
0.00843052
0.0484065
0.0131138
0.00203726
0.0454688
0.00221435
0.0120336
0.00568355
0.00220787
0.0063776
0.00882484
0.00539975
0.0186508
0.0863448
0.0193117
0.00929629
0.128321
0.00235583
0.0696886
0.00276378
0.0836378
0.0166824
0.0473285
0.00227397
0.0773054
0.0115847
0.00721405
0.118735
0.0119663
0.00164235
0.00214772
0.0119362
0.00227494
0.0162547
0.00298794
0.0053157
0.00228815
0.0152538
0.00174437
0.018365
0.00166949
0.0113372
0.0061151
0.0220723
0.0011349
0.00224171
0.0328904
0.0288862
0.103077
0.0188378
0.0108755
0.00447255
0.00604694
0.0112436
0.0106905
0.0058246
0.0119973
0.00219197
0.002177
0.00238494
0.00789864
0.00209954
0.0125534
0.0109131
0.0217844
0.0227252
0.0136289
0.00230414
0.0171152
0.0344209
0.0111456
0.0117734
0.0551046
0.00230284
0.0507074
0.00986979
0.0102952
0.0147962
0.00755873
0.00302532
0.018918
0.0224271
0.0292618
0.00666185
0.0179088
0.0535437
0.00184407
0.113159
0.0126206
0.0137079
0.00551872
0.126897
0.0138347
0.00221776
0.00241514
0.00423728
0.00241039
0.0204607
0.00214449
0.000880138
0.0424071
0.0104741
0.00151911
0.0142163
0.00179594
0.0169538
0.0268269
0.0170509
0.0113121
0.0405368
0.0167346
0.0117067
0.00238072
0.000760574
0.0114981
0.115797
0.00426758
0.00221734
0.0144864
0.0026481
0.101114
0.0139378
0.0156983
0.0127266
0.00272965
0.00192124
0.0335929
0.00229698
0.0106239
0.0206335
0.0180278
0.00173845
0.011334
0.0262739
0.0202201
0.0134259
0.00220239
0.0139583
0.0159583
0.0022776
0.0187481
0.00215533
0.0125168
0.00230514
0.0206743
0.0263513
0.0124194
0.00245351
0.0133502
0.0105362
0.00213261
0.0137245
0.0189688
0.00224363
0.0115227
0.0957722
0.011326
0.0183599
0.0122991
0.0125305
0.0114148
0.00211105
0.016932
0.00240384
0.00211673
0.0113712
0.0824901
0.118012
0.0104692
0.013359
0.0023867
0.014123
0.0141301
0.0155005
0.0062325
0.0115983
0.0164561
0.0635728
0.00452858
0.00231139
0.0332385
0.0115816
0.015323
0.0297118
0.0137491
0.00206043
0.0146685
0.015517
0.0271187
0.00310367
0.109419
0.0023058
0.0119597
0.0296474
0.0159015
0.00933896
0.0694339
0.0123163
0.0141189
0.00227509
0.0163691
0.0151296
0.0204992
0.00839981
0.00514278
0.0114759
0.0172609
0.0225738
0.0214244
0.00095244
0.000924945
0.0240246
0.00225084
0.0126418
0.0117444
0.111969
0.0196138
0.0563143
0.0109796
0.0133945
0.0285586
0.00215575
0.00484753
0.00170141
0.0990202
0.0111706
0.0286319
0.0014983
0.0179094
0.00910084
0.0106827
0.00229237
0.0210555
0.00269597
0.0110152
0.00120246
0.00576617
0.0144517
0.0256618
0.00205391
0.00235538
0.0138891
0.0310483
0.0167606
0.00528329
0.0145374
0.105811
0.00235427
0.0268997
0.000873508
0.00091194
0.00214457
0.00242986
0.0113809
0.0130822
0.011318
0.0607079
0.00508554
0.0170792
0.0155092
0.01724
0.0120671
0.0176026
0.00111415
0.00594101
0.00232061
0.025231
0.0178799
0.0119812
0.0202213
0.0470314
0.108702
0.00226024
0.0201906
0.0116865
0.0125262
0.125765
0.00082127
0.0850322
0.0227725
0.0508762
0.0367389
0.0216248
0.0167083
0.00228215
0.0217728
0.0960989
0.00388973
0.00189606
0.0116144
0.0110901
0.0528524
0.0837543
0.0174213
0.0226109
0.0274487
0.00218878
0.00856422
0.0236969
0.00802312
0.00375312
0.00141564
0.00204499
0.00432347
0.0106357
0.0212519
0.116101
0.0665129
0.0124845
0.038707
0.0175891
0.0169156
0.00321462
0.0199953
0.00229203
0.0154741
0.0114104
0.00224874
0.0544655
0.00228647
0.000918747
0.0213014
0.0365175
0.0367386
0.0118887
0.0024868
0.0534246
0.0127967
0.0130064
0.0335319
0.00243163
0.00227538
0.00244334
0.0195767
0.000999792
0.112491
0.00298268
0.00231948
0.0162992
0.0112817
0.0148445
0.0393009
0.00193022
0.0169572
0.00278158
0.00751725
0.0237228
0.0199596
0.0150055
0.0199695
0.0132106
0.093613
0.00219469
0.0021092
0.0618165
0.0202267
0.00123261
0.0803697
0.0126136
0.0212139
0.0112414
0.0256639
0.00149705
0.0335328
0.00140566
0.00228636
0.0745251
0.0129486
0.0263333
0.0238708
0.0115915
0.0115949
0.0185532
0.00312882
0.00282464
0.0225463
0.0147702
0.0356153
0.0201649
0.0154179
0.00229512
0.00103624
0.0187323
0.120805
0.0914623
0.00490793
0.0268011
0.00258248
0.00920978
0.0191693
0.00113885
0.0806862
0.105611
0.0134604
0.0303116
0.0117775
0.0106389
0.112475
0.0322085
0.0266246
0.00575376
0.00323383
0.00262937
0.0178523
0.0260044
0.0119073
0.0622121
0.0024329
0.0241624
0.0249952
0.00754841
0.0238445
0.0202431
0.00295536
0.00291701
0.00282415
0.00270128
0.00210273
0.0212836
0.00311021
0.0111467
0.0666523
0.00490135
0.031881
0.00227969
0.00267865
0.0115513
0.0118357
0.0414402
0.00328507
0.00484592
0.0188302
0.0130755
0.00147925
0.0105865
0.00275381
0.00108032
0.0816663
0.00461582
0.00241225
0.0145068
0.031738
0.0180446
0.0841466
0.012221
0.0279314
0.0012139
0.00208276
0.00807216
0.0739761
0.0196979
0.00451413
0.00163639
0.00170638
0.0126319
0.00164753
0.0279117
0.121712
0.0508186
0.0165928
0.0115349
0.00484415
0.00101913
0.00255898
0.00838548
0.00208157
0.0438458
0.00291993
0.026404
0.10728
0.0179613
0.032405
0.0129329
0.0272018
0.0879558
0.0156599
0.0238801
0.0503847
0.0561508
0.0316117
0.0244484
0.0511479
0.0269052
0.0484592
0.00322325
0.00277109
0.0273415
0.0107607
0.0262474
0.0150008
0.0514295
0.0114578
0.0036977
0.00634172
0.00248023
0.0104918
0.00327274
0.00353365
0.023158
0.00270991
0.00207276
0.10098
0.0514849
0.0146824
0.001256
0.016094
0.0404791
0.0122372
0.00288644
0.00293748
0.0382515
0.0316093
0.0368811
0.00254885
0.0307331
0.0538623
0.00262106
0.00217514
0.0252869
0.0121401
0.0115627
0.135428
0.0366112
0.0246073
0.0147147
0.0220629
0.012441
0.00614482
0.00988179
0.0520977
0.00881523
0.00126998
0.00238234
0.0379508
0.0168322
0.0298373
0.0093628
0.0126764
0.0211487
0.0137181
0.011834
0.0229003
0.0107889
0.0250726
0.0195771
0.00905934
0.0245475
0.00918598
0.00502085
0.00843749
0.00875035
0.0350052
0.00521437
0.00738003
0.0294194
0.0292549
0.00657083
0.00556408
0.0129289
0.0147144
0.0167091
0.0195953
0.021792
0.0112207
0.0237763
0.0102157
0.0229157
0.00873724
0.0179042
0.00808421
0.00858247
0.00903731
0.00701474
0.00598935
0.00626305
0.00360423
0.00574929
0.017977
0.00178832
0.00528188
0.00617164
0.00571747
0.00246866
0.0179211
0.0054073
0.0154952
0.0175004
0.0104743
0.00508548
0.00559943
0.00275642
0.0163693
0.0123066
0.0265333
0.00218002
0.0147444
0.0045949
0.00802105
0.00291428
0.00504158
0.0232322
0.0083646
0.0261846
0.00522539
0.00240651
0.00358078
0.00104413
0.00433032
0.0130008
0.010951
0.00168689
0.00475898
0.0249951
0.00414941
0.00379621
0.00328294
0.0807813
0.00485202
0.000858093
0.0333132
0.00594496
0.0188523
0.0240473
0.0207844
0.0207561
0.0183076
0.0240631
0.00518228
0.0108017
0.0151565
0.0194148
0.00973453
0.0115945
0.00768857
0.0582149
0.00688449
0.00373712
0.0209122
0.0190896
0.0268283
0.0176228
0.0164502
0.00343374
0.0445544
0.0197124
0.00867911
0.00604342
0.00796817
0.0157796
0.00217256
0.0174265
0.00401804
0.00383762
0.00597771
0.00423075
0.00386062
0.00560114
0.00536536
0.00869983
0.00519013
0.00448115
0.00502577
0.037765
0.0104287
0.00364926
0.00756614
0.00647412
0.00484585
0.026426
0.0161549
0.0219894
0.0117691
0.00538936
0.00351274
0.00543305
0.00491741
0.0530008
0.0215511
0.020948
0.00946942
0.00372162
0.0107978
0.0114431
0.0171126
0.00405228
0.00589742
0.0018215
0.0022604
0.0071407
0.00258485
0.00263141
0.00133739
0.00351905
0.00158151
0.00209985
0.00170872
0.00155322
0.00123769
0.00288438
0.00385976
0.00228036
0.00243326
0.00858536
0.00517115
0.00598111
0.0382212
0.0227307
0.00116047
0.00166605
0.00467593
0.0255452
0.0160296
0.0230818
0.014134
0.00946975
0.00370712
0.00391827
0.00522876
0.00801959
0.00842063
0.00334803
0.00557887
0.00323558
0.00650898
0.00203041
0.101236
0.00213937
0.0183685
0.00620138
0.0277713
0.00344216
0.00459899
0.00645519
0.00456276
0.0131577
0.010348
0.00489252
0.0150388
0.00288194
0.00325643
0.00192335
0.00188446
0.00155988
0.00145772
0.00475928
0.00489646
0.00367869
0.0182888
0.00371124
0.017679
0.0190904
0.0185723
0.00512835
0.0140232
0.00472331
0.00176675
0.00674512
0.00140729
0.011006
0.0033813
0.00150953
0.0162271
0.00313863
0.00203224
0.0150067
0.00332666
0.00914992
0.0179774
0.0113032
0.00531296
0.0097641
0.00356033
0.00782555
0.00359127
0.018503
0.0319794
0.00220238
0.0097574
0.0135986
0.0146632
0.0309218
0.0169644
0.00436858
0.0085548
0.00736133
0.00629908
0.135286
0.017737
0.00573487
0.00499648
0.0028925
0.0228376
0.00505275
0.127254
0.00475086
0.00161726
0.00434749
0.00276371
0.00552269
0.00448204
0.00450628
0.0383538
0.00374715
0.0254031
0.00829498
0.0255901
0.00454658
0.0114667
0.0112816
0.0140463
0.0146988
0.00777145
0.0158261
0.0086643
0.0162862
0.017892
0.0210177
0.00786096
0.0195626
0.0188382
0.0106992
0.0296537
0.0236464
0.0167158
0.0234203
0.00357973
0.00695973
0.00835316
0.00608142
0.00278912
0.0055187
0.0138822
0.00602043
0.00343362
0.0164035
0.0134848
0.0171769
0.00671916
0.0323673
0.00331127
0.00505032
0.00541305
0.00491231
0.00932769
0.00205443
0.0167507
0.0315952
0.054413
0.00307641
0.00454535
0.0202593
0.0234362
0.00321833
0.0178815
0.012272
0.0113158
0.0157315
0.0170945
0.00606404
0.0186251
0.0238876
0.0210677
0.0276627
0.0282331
0.0299807
0.00315138
0.00832335
0.00821375
0.00450083
0.0127956
0.0155219
0.00479555
0.0247801
0.00320868
0.101547
0.00331773
0.00323464
0.0110495
0.00311651
0.000840473
0.00218507
0.00161051
0.00480185
0.00389316
0.00428347
0.00523975
0.0261209
0.0109788
0.00354505
0.0113288
0.00776707
0.0252197
0.0223744
0.0506438
0.0198257
0.00357097
0.00600763
0.00506915
0.00310435
0.00115413
0.00271158
0.0327307
0.0262977
0.00871208
0.0129515
0.0101946
0.0145673
0.0166191
0.0219292
0.00434214
0.0302854
0.0215615
0.0260675
0.0201524
0.0168043
0.017469
0.00905537
0.0153441
0.00531031
0.0136133
0.0105367
0.00588927
0.00930476
0.00821259
0.00748216
0.00474811
0.00463413
0.0122184
0.0222499
0.0251133
0.00340837
0.0182439
0.00341829
0.00228264
0.00702599
0.00205053
0.0123318
0.00671391
0.00582315
0.00570738
0.00555504
0.00504926
0.0296564
0.00251081
0.00316294
0.0247768
0.00646577
0.0012087
0.011879
0.0275123
0.0118293
0.0115882
0.0514328
0.00467271
0.0152933
0.0179907
0.0203091
0.0097261
0.00333438
0.0173385
0.014559
0.0152998
0.0132295
0.0114018
0.0103753
0.0311017
0.00899848
0.0208517
0.00388956
0.00711023
0.0342341
0.0061011
0.00844436
0.0458897
0.00637335
0.00110757
0.00244575
0.00561411
0.00293727
0.00423191
0.00350252
0.00329527
0.0274957
0.00517068
0.00464169
0.0296194
0.00300517
0.00325632
0.00327926
0.0466686
0.00481682
0.00414031
0.027519
0.002238
0.00135435
0.0036794
0.00420255
0.00403848
0.0186732
0.00233855
0.00409292
0.0128111
0.0226703
0.0265365
0.0186957
0.0145743
0.00349344
0.0077277
0.0053595
0.00614496
0.00353837
0.0275033
0.00826324
0.00308849
0.0030863
0.00960396
0.00837
0.0265404
0.0121453
0.00355643
0.00468867
0.00321668
0.0249063
0.00754076
0.00168743
0.0229486
0.00379745
0.012264
0.00337272
0.00232427
0.00292547
0.0105847
0.00477826
0.00384403
0.0209264
0.00337739
0.0257846
0.00794907
0.0026344
0.0167457
0.00443022
0.0137383
0.0146168
0.00972985
0.0186887
0.010754
0.00327245
0.0121588
0.0115941
0.00271213
0.00644844
0.00421359
0.00367188
0.00863068
0.00128054
0.00175405
0.0107861
0.00152158
0.00302822
0.0137662
0.00143002
0.00252781
0.0177715
0.00235092
0.00189084
0.0155041
0.0349546
0.0305009
0.00215092
0.00324059
0.0210633
0.00226167
0.00244666
0.0370552
0.0206148
0.0367468
0.0079016
0.031939
0.0044835
0.00675567
0.0131563
0.0181964
0.00348313
0.0159206
0.0426719
0.0347884
0.00335707
0.00447652
0.0030639
0.00216388
0.00288108
0.00538326
0.0040062
0.130569
0.00891083
0.00484227
0.0246243
0.00757125
0.0206923
0.0031692
0.0273077
0.00492149
0.00757628
0.0384602
0.00414898
0.0101705
0.00278925
0.00351355
0.0543292
0.00279005
0.0468395
0.0159134
0.0241426
0.016557
0.0121886
0.0321107
0.00392246
0.00340496
0.0265282
0.00409526
0.0042739
0.00421495
0.0377812
0.00274624
0.0030645
0.00394731
0.0446631
0.00377344
0.00714309
0.00659885
0.00300202
0.0170006
0.00987746
0.0122885
0.0431673
0.00202338
0.0164066
0.00381237
0.0123647
0.00271169
0.0479466
0.0082051
0.00753001
0.0034066
0.010988
0.015498
0.00678705
0.019923
0.0236072
0.00297406
0.00694516
0.00272131
0.0215863
0.019882
0.00232173
0.0103418
0.00804025
0.0114712
0.011608
0.0163444
0.00660596
0.0150924
0.0163117
0.040836
0.0102614
0.0331578
0.00222239
0.0123343
0.00343323
0.0032332
0.0652383
0.0383933
0.0221259
0.00230267
0.0356815
0.00772799
0.00626745
0.0410722
0.00659231
0.0469144
0.0104888
0.0472231
0.0155454
0.00229553
0.107234
0.014378
0.0136195
0.0115432
0.0401048
0.0465704
0.00291074
0.00427639
0.142839
0.0338368
0.00328069
0.0462934
0.0487688
0.00447459
0.033669
0.00443783
0.0404971
0.00769059
0.0116401
0.00164058
0.0357404
0.0367596
0.0021317
0.121635
0.0429216
0.00200639
0.0124193
0.00358314
0.0215881
0.033432
0.0113084
0.00289455
0.0315869
0.0315046
0.00772323
0.0450194
0.00712657
0.00418687
0.0118551
0.0116354
0.0394716
0.00289401
0.00244609
0.0262526
0.00866323
0.00441236
0.00722989
0.0028481
0.0138668
0.0126778
0.0338663
0.0628992
0.0449223
0.0029913
0.0138766
0.00304601
0.0108333
0.0152001
0.00617476
0.0107699
0.00205122
0.0432823
0.0186486
0.00312023
0.00293156
0.0141522
0.0284794
0.0463107
0.0519198
0.0177263
0.0068986
0.0129779
0.00232582
0.00307317
0.00401923
0.00099489
0.00253501
0.00456665
0.0355032
0.126764
0.00565079
0.00374176
0.0097207
0.0395939
0.00456393
0.0152064
0.0078966
0.0111773
0.00576982
0.0117183
0.0274476
0.0283638
0.0151312
0.00279622
0.0161403
0.0818221
0.0116058
0.00393005
0.0111746
0.0266865
0.0151152
0.0026863
0.00303886
0.00742703
0.012404
0.013848
0.0126345
0.00202253
0.0137927
0.00403777
0.00269339
0.0578033
0.0128739
0.03403
0.0144741
0.0176997
0.020827
0.00965344
0.00292928
0.0371745
0.00298521
0.00796892
0.0075123
0.0112216
0.0113058
0.0157118
0.00790862
0.0144425
0.0299948
0.0116014
0.0200594
0.0026764
0.0512814
0.00279044
0.00265119
0.0268876
0.0252397
0.0107278
0.0471594
0.0126781
0.00320217
0.0250176
0.00282516
0.0295448
0.0384917
0.00282792
0.0189762
0.0505646
0.00575199
0.0423241
0.0191409
0.0333581
0.00794588
0.0467537
0.0434459
0.00289709
0.0097029
0.0437825
0.002902
0.00256087
0.0366533
0.0024015
0.0126395
0.0415605
0.0295082
0.0858002
0.0013348
0.00213387
0.00226511
0.0546489
0.00264133
0.00304218
0.00785634
0.0150551
0.00383346
0.00250081
0.00268432
0.0133216
0.0128872
0.00261043
0.0111609
0.00232723
0.00242882
0.00209665
0.0755786
0.0236229
0.00254561
0.00293421
0.020729
0.0319972
0.00334299
0.0164047
0.00250259
0.00236568
0.0333246
0.00297517
0.0278094
0.00223232
0.0174122
0.0109786
0.142879
0.0141832
0.0985242
0.0663281
0.00255222
0.0461814
0.00314945
0.00278473
0.00667098
0.0235262
0.00291768
0.0140238
0.0235217
0.00419529
0.00395706
0.0159084
0.0499156
0.0124151
0.0771805
0.0276839
0.0304728
0.00265458
0.0425138
0.0286929
0.00215263
0.0193854
0.00233161
0.00248779
0.0530757
0.0105885
0.0106285
0.0615975
0.0563158
0.00323482
0.0111241
0.00439544
0.0268239
0.0025795
0.0399842
0.0417388
0.0022067
0.0340521
0.00274846
0.00242121
0.00230415
0.0114252
0.0152022
0.104432
0.0353725
0.00367732
0.0592798
0.00251229
0.00245836
0.00214794
0.0326587
0.0114297
0.00233183
0.00707384
0.0625658
0.0149893
0.0167401
0.00272882
0.0113096
0.00366522
0.00409063
0.00539536
0.00113684
0.0051888
0.00181129
0.00237447
0.114051
0.00424023
0.00734762
0.00260887
0.0111787
0.0123686
0.034893
0.00113618
0.0120231
0.0313926
0.00964708
0.00276237
0.0335196
0.00203825
0.027851
0.0130812
0.0117403
0.0075092
0.00387483
0.0612132
0.048987
0.00253922
0.00384809
0.0548415
0.0424457
0.0217137
0.00538578
0.0316796
0.00438234
0.0119301
0.0075923
0.0127285
0.00243766
0.00370099
0.00707077
0.0141383
0.0112734
0.00252385
0.0120817
0.0145374
0.0132184
0.0127661
0.0197652
0.0310323
0.0269227
0.00264216
0.0387834
0.0405998
0.0345274
0.00103647
0.0159191
0.0188348
0.0124666
0.0419997
0.00193066
0.00277456
0.0319119
0.108812
0.0165841
0.0597969
0.00170842
0.002422
0.00490984
0.00374861
0.0133869
0.00359183
0.00242697
0.0246532
0.0270347
0.0675914
0.0601085
0.100715
0.0505361
0.0533784
0.0212182
0.0142434
0.03694
0.00651633
0.0336057
0.00159843
0.0194962
0.00211383
0.0610347
0.0111473
0.00685462
0.0122958
0.00210572
0.00723729
0.00708445
0.00270588
0.0128001
0.00261617
0.0510669
0.040881
0.00355687
0.0306078
0.0317766
0.0162314
0.0333484
0.147758
0.0110987
0.0112888
0.0641423
0.010946
0.0240188
0.00127785
0.0613268
0.00135331
0.0145951
0.0121965
0.00429145
0.0391728
0.0300154
0.00162098
0.0118092
0.00371735
0.0728013
0.0306721
0.00707756
0.0973002
0.00649265
0.026844
0.00317388
0.00731348
0.0593446
0.0177443
0.00829345
0.00227751
0.0030015
0.0145903
0.00420892
0.0807225
0.0143087
0.00802484
0.0630962
0.00207853
0.010875
0.00994813
0.00264518
0.0271932
0.0638363
0.0361607
0.02327
0.0140242
0.0599456
0.00268473
0.016226
0.00231251
0.00251582
0.0128387
0.00203672
0.0482129
0.0629107
0.0633252
0.0162538
0.0183862
0.0293629
0.0104849
0.00269645
0.0089391
0.00298642
0.0137252
0.00686993
0.00444203
0.00903348
0.125274
0.00235789
0.0823732
0.0456535
0.0125387
0.0117603
0.0430498
0.0333488
0.00216441
0.141848
0.00345376
0.00228555
0.00234987
0.133769
0.00364523
0.00232436
0.00300145
0.0352564
0.00435925
0.0113484
0.00724983
0.011168
0.00845041
0.00283833
0.0265119
0.00421285
0.00433525
0.031112
0.00196167
0.010549
0.00371018
0.0414824
0.0133425
0.00217905
0.0221063
0.0339138
0.0645391
0.0042113
0.0025917
0.0867789
0.064785
0.0814586
0.0579385
0.0709666
0.0546466
0.00222544
0.0238612
0.056818
0.00591248
0.0122739
0.00204858
0.010801
0.0260055
0.010865
0.0161396
0.0751649
0.0193831
0.00170222
0.00202224
0.00217282
0.012622
0.0113706
0.0167937
0.0273258
0.0583133
0.00787734
0.00256649
0.0572582
0.105905
0.0115498
0.00481508
0.0203495
0.00407298
0.0113977
0.0270064
0.0126276
0.0109016
0.0105273
0.0143067
0.00461901
0.0979886
0.0128532
0.0605551
0.0407729
0.010903
0.0117011
0.0113151
0.0328519
0.00452567
0.0142597
0.0223864
0.00550094
0.0118956
0.00656018
0.0287906
0.0127518
0.028773
0.0559526
0.0511615
0.00595847
0.049482
0.104515
0.00212809
0.050868
0.00284931
0.0112266
0.0425592
0.00230369
0.00391693
0.0329207
0.00258005
0.00423799
0.00247716
0.00185561
0.0491792
0.00225081
0.040799
0.0131823
0.0285744
0.00242873
0.00566671
0.00343056
0.012815
0.00210577
0.0845401
0.0823578
0.0264461
0.0312996
0.0146815
0.0133441
0.0323986
0.00545382
0.0723497
0.0712482
0.0280742
0.00741835
0.002147
0.00226719
0.0258863
0.0316646
0.00394995
0.00249466
0.00410918
0.0144363
0.00237765
0.00674434
0.010046
0.0141362
0.0170269
0.00688967
0.00520842
0.00287558
0.0610871
0.00592608
0.0120224
0.00818448
0.0103319
0.00974121
0.00783445
0.0105874
0.0115492
0.047659
0.0273868
0.0185596
0.00989291
0.0445914
0.00227539
0.0104892
0.00928905
0.00196007
0.0041854
0.0337291
0.0702512
0.00197171
0.0427397
0.0136218
0.0874147
0.0136805
0.0571674
0.00337383
0.0114762
0.0625431
0.0100952
0.0232752
0.0761699
0.0520193
0.00201986
0.0200758
0.00214632
0.041073
0.0285005
0.0184686
0.00241443
0.00555673
0.0439746
0.00400112
0.00918308
0.00697412
0.0335058
0.00231383
0.024642
0.00192592
0.0738494
0.00202227
0.00158135
0.00703082
0.00766475
0.0624099
0.0281386
0.00389515
0.00675869
0.00941324
0.0020453
0.0149989
0.00614014
0.0201573
0.0113897
0.0948205
0.00211395
0.00223562
0.0464433
0.0626683
0.0193203
0.144975
0.0549433
0.00389781
0.0263272
0.0788344
0.00251983
0.0636221
0.0238504
0.0362072
0.00690666
0.070954
0.00207852
0.0496908
0.00211462
0.0469033
0.0115818
0.00223852
0.0903612
0.00277785
0.0438613
0.0381406
0.00599014
0.00281924
0.0988363
0.126239
0.00772891
0.0282538
0.0612872
0.00174079
0.0151071
0.00663246
0.0120789
0.00365537
0.00199626
0.0127905
0.0710912
0.00467617
0.0424655
0.0269718
0.00246939
0.0021164
0.00215463
0.00238115
0.00721596
0.0159266
0.0192749
0.005684
0.0515706
0.0110112
0.00342916
0.00381824
0.00238977
0.0807291
0.0490388
0.00222775
0.00920175
0.0256289
0.00851385
0.0646437
0.0385909
0.00219656
0.00333068
0.0112283
0.00174335
0.00400474
0.0337914
0.055058
0.00215673
0.00219041
0.0135859
0.0679088
0.0856956
0.00233741
0.00146939
0.108843
0.0142044
0.00156438
0.00219595
0.0529124
0.0470489
0.10348
0.00715461
0.060688
0.0158613
0.116558
0.0644268
0.00239721
0.0376601
0.00236389
0.0171924
0.00261891
0.0029347
0.0103672
0.0151333
0.00889131
0.0253558
0.00135729
0.00720954
0.0138416
0.0404259
0.00595636
0.0859728
0.0273273
0.0400563
0.00261485
0.0940483
0.0229363
0.0107951
0.0118699
0.0119639
0.0423465
0.00137294
0.0306223
0.049726
0.00142663
0.0195083
0.0110604
0.0026156
0.00259138
0.00220311
0.0114897
0.00575122
0.00289089
0.0538426
0.14037
0.00153018
0.0541621
0.0609498
0.0916328
0.0221942
0.0303864
0.0689657
0.00228344
0.0221361
0.016186
0.0020462
0.00414004
0.00246901
0.0015445
0.00378868
0.0254432
0.0105488
0.0721219
0.00188686
0.0117101
0.00235307
0.00258889
0.00207819
0.0650066
0.0299772
0.00462503
0.00245575
0.0286054
0.0106001
0.0389789
0.0373368
0.0420302
0.0294051
0.00226642
0.00224786
0.0117302
0.00223026
0.0113248
0.00257909
0.0201796
0.0472258
0.015307
0.0691272
0.00284393
0.00209563
0.0218708
0.0290476
0.017524
0.0141543
0.0114733
0.0124034
0.127852
0.0903141
0.0328003
0.0743185
0.0138963
0.00184715
0.0106959
0.0076671
0.0388163
0.00221597
0.00218747
0.00738068
0.0360762
0.0143495
0.0194484
0.0108731
0.0122093
0.0022911
0.066827
0.0260065
0.0272717
0.00225415
0.139367
0.0674036
0.0339649
0.00129613
0.0715081
0.0170534
0.0144802
0.00202121
0.0159959
0.00651687
0.00258398
0.0134362
0.0155622
0.0234787
0.0202054
0.115803
0.056786
0.00246372
0.0504016
0.00219391
0.0110948
0.00623897
0.0404707
0.00252244
0.00218817
0.0756234
0.0105297
0.0022509
0.0729221
0.0258628
0.024237
0.00226696
0.00223037
0.0113599
0.0339525
0.00197143
0.00231196
0.00224909
0.0546029
0.00243646
0.00255102
0.00747662
0.00471065
0.058129
0.00358893
0.0293935
0.00203226
0.0115146
0.0662582
0.0174788
0.0241073
0.012114
0.00227486
0.00170687
0.00170277
0.0025619
0.0326938
0.00444937
0.00300626
0.0529596
0.0113055
0.0116879
0.0474842
0.0142765
0.00273801
0.00247797
0.00311987
0.0124583
0.0161671
0.00151164
0.0418861
0.00974866
0.0855785
0.0738538
0.0135396
0.00463299
0.0717343
0.0025175
0.00204568
0.0133442
0.106066
0.00399374
0.00220737
0.0132176
0.0161297
0.00219588
0.00225373
0.0199563
0.0120195
0.00200557
0.00220084
0.0108896
0.00683496
0.0407959
0.00200098
0.123058
0.0662555
0.00199667
0.0748192
0.0111454
0.0397113
0.0412938
0.0640677
0.0609803
0.0766294
0.0159385
0.00924612
0.00726838
0.00209545
0.00264007
0.0111028
0.00890223
0.0375727
0.071236
0.00226242
0.00173063
0.00222627
0.00207138
0.00214315
0.0022211
0.011771
0.00505082
0.00179606
0.0107382
0.0020223
0.00236291
0.00334303
0.00229467
0.0314897
0.0316434
0.0175195
0.0170735
0.0110691
0.0337052
0.0064878
0.0106493
0.00180917
0.0130997
0.00216949
0.0139379
0.0715377
0.0147166
0.00445753
0.00197107
0.00650132
0.0395704
0.0385874
0.0112482
0.00255472
0.00796382
0.00222218
0.0583549
0.0110908
0.016486
0.00325514
0.00348616
0.0120456
0.00799214
0.0342524
0.0188682
0.00486402
0.00198116
0.00237293
0.00391846
0.0491252
0.0223184
0.0841509
0.0226736
0.010924
0.0454354
0.0248257
0.0258772
0.0179751
0.0486806
0.0112962
0.00293825
0.0672067
0.0633476
0.0114936
0.0110772
0.0174987
0.00235412
0.0117582
0.00732233
0.0145345
0.0876628
0.0178403
0.00509985
0.00779959
0.0474619
0.0777048
0.00194981
0.0129984
0.0131037
0.00483687
0.00224241
0.00228404
0.0011309
0.0045176
0.00278084
0.00221603
0.130872
0.0114163
0.0516498
0.0558706
0.0132254
0.00216171
0.0220179
0.0228485
0.0169444
0.00975518
0.0128385
0.00224477
0.100237
0.0374909
0.0684468
0.00101902
0.00197745
0.00209727
0.0151469
0.0170568
0.0117983
0.00192259
0.0110423
0.0426238
0.00224541
0.00134774
0.00504092
0.0775926
0.00172113
0.00625604
0.0110225
0.0131275
0.00335809
0.0870964
0.037017
0.0995122
0.0131
0.0210484
0.0264948
0.00240562
0.0258004
0.133562
0.012677
0.00697894
0.0129576
0.0546115
0.0197534
0.0148156
0.0111779
0.0290532
0.00225256
0.0346924
0.00116411
0.00235701
0.00227835
0.0374521
0.0116923
0.0408779
0.0898182
0.0121446
0.0220487
0.00173073
0.0194782
0.00223548
0.00918441
0.0278158
0.0251139
0.00188002
0.00233988
0.0485565
0.00114997
0.0573235
0.00158784
0.0563699
0.00258478
0.0281812
0.00189135
0.0515671
0.0122052
0.0344162
0.0568119
0.0238438
0.0260958
0.0011402
0.0495496
0.0300038
0.0237965
0.0198595
0.0117905
0.0247057
0.0292874
0.00227031
0.0309173
0.0478392
0.00621533
0.0517405
0.0932418
0.00200389
0.0115388
0.0030616
0.0662476
0.0024633
0.00238015
0.00227409
0.0366443
0.127878
0.0267916
0.0123373
0.0190777
0.00201928
0.00928338
0.0031032
0.00585785
0.00237313
0.0109077
0.0100821
0.00953043
0.00220649
0.0752422
0.0732749
0.00178476
0.0055503
0.0329624
0.0377169
0.0275128
0.00213518
0.00220371
0.0104455
0.034857
0.0025862
0.0020054
0.0853548
0.0253554
0.00178058
0.00594172
0.0213618
0.0213819
0.0367335
0.0345434
0.0275209
0.0107322
0.0104842
0.047288
0.0556686
0.00292267
0.012047
0.010708
0.00224222
0.00286408
0.0107221
0.00258157
0.0269026
0.050791
0.00329119
0.0330943
0.09777
0.00309796
0.0152173
0.00381973
0.0333852
0.0203037
0.00944994
0.0115102
0.0892392
0.010278
0.00583206
0.0112793
0.00621839
0.0826802
0.0403475
0.0434182
0.00915245
0.00613537
0.00352808
0.010852
0.00152487
0.00128133
0.00953678
0.0198698
0.00389237
0.00875971
0.00924657
0.00235066
0.0434466
0.0109232
0.0112478
0.00201008
0.129639
0.00388814
0.0021761
0.00440707
0.0287886
0.00308603
0.00314202
0.0129846
0.00263478
0.003598
0.00982888
0.0508767
0.00373913
0.047701
0.0106387
0.00589867
0.0384379
0.0165015
0.0035963
0.113102
0.0123695
0.068373
0.00414048
0.0257673
0.00354724
0.0279789
0.134261
0.00323916
0.0172052
0.00970627
0.0113838
0.00220207
0.00223469
0.00446437
0.00217353
0.00288499
0.00350871
0.017329
0.0104517
0.00256631
0.00213456
0.00323925
0.0183405
0.0326898
0.0344234
0.0146354
0.00913582
0.135517
0.00256493
0.00236398
0.00405303
0.00243985
0.00244788
0.0201061
0.0036304
0.00504098
0.0282977
0.0108809
0.0104785
0.0390707
0.043138
0.0025407
0.063014
0.0124492
0.0224715
0.026198
0.0174084
0.0166002
0.0383344
0.00288869
0.0146605
0.00204066
0.0120546
0.00148468
0.0390612
0.00661714
0.00341613
0.0130921
0.0302899
0.0269695
0.00233512
0.0217475
0.0297744
0.0172675
0.00119927
0.00532012
0.00641219
0.019822
0.00709206
0.125506
0.0229615
0.00638799
0.0109168
0.00141222
0.00213439
0.00805995
0.00210357
0.04106
0.0147939
0.00215154
0.00470457
0.033068
0.00675213
0.0489473
0.0220354
0.0236766
0.00594981
0.00164915
0.0237179
0.0746128
0.00248471
0.00154096
0.0108792
0.00166879
0.00268173
0.024019
0.006898
0.0434054
0.0262615
0.0552799
0.00698128
0.0234391
0.00175142
0.00192327
0.002631
0.0320738
0.00103137
0.000882932
0.00125752
0.0125873
0.0107056
0.0013978
0.0285594
0.0642005
0.0377397
0.00223443
0.0230095
0.096682
0.0320635
0.00266762
0.0141747
0.00302969
0.0576002
0.00157042
0.0114466
0.0279773
0.0314779
0.00215968
0.00324711
0.0131848
0.0361197
0.0473316
0.00426268
0.0474233
0.00127736
0.00248605
0.0287301
0.01349
0.00257801
0.0435317
0.0126977
0.00234119
0.0108791
0.0271932
0.0112816
0.00166104
0.00226672
0.0271283
0.00968011
0.00218597
0.0263354
0.0630394
0.0373243
0.0129267
0.00153155
0.00243489
0.0144353
0.0501399
0.0146436
0.0546701
0.0804503
0.068932
0.00215261
0.00218583
0.00458241
0.00213988
0.00219552
0.0296897
0.0383845
0.00229957
0.00238429
0.0022723
0.00127288
0.0213697
0.0161252
0.0131463
0.00113558
0.00100525
0.00111831
0.01424
0.0287018
0.0109795
0.00234259
0.0419788
0.00406407
0.00424247
0.040033
0.00406252
0.01769
0.0291862
0.00199876
0.0128507
0.00205765
0.0125656
0.0114176
0.00896991
0.0656414
0.00226987
0.0251404
0.0315432
0.0136786
0.00400372
0.0758935
0.0877991
0.00235768
0.00182043
0.0111516
0.0128882
0.00601765
0.0348377
0.0730168
0.0135727
0.019263
0.0844235
0.0277596
0.0107532
0.0466248
0.0404143
0.0732575
0.0433629
0.011854
0.0526564
0.000990941
0.00294319
0.00180136
0.0136589
0.00175014
0.0653678
0.023363
0.00221923
0.00193891
0.000795678
0.000886039
0.00188634
0.0143861
0.0218652
0.0113996
0.026269
0.0267678
0.0152225
0.00172415
0.00209431
0.0130659
0.00437936
0.00235926
0.00223128
0.00287789
0.0166203
0.0021916
0.0107077
0.00211927
0.00401289
0.0232866
0.00132102
0.0116545
0.013848
0.0510172
0.0980506
0.00616286