/*--------------------------------*- C++ -*----------------------------------*\
  =========                 |
  \\      /  F ield         | OpenFOAM: The Open Source CFD Toolbox
   \\    /   O peration     | Website:  https://openfoam.org
    \\  /    A nd           | Version:  10
     \\/     M anipulation  |
\*---------------------------------------------------------------------------*/
FoamFile
{
    format      ascii;
    class       volScalarField;
    location    "750";
    object      k;
}
// * * * * * * * * * * * * * * * * * * * * * * * * * * * * * * * * * * * * * //

dimensions      [0 2 -2 0 0 0 0];

internalField   nonuniform List<scalar> 
23845
(
0.0799061
0.096048
0.0707387
0.0470211
0.0916057
0.0244565
0.0823328
0.0348493
0.019806
0.0636302
0.0766854
0.0229955
0.0270083
0.0221665
0.0911482
0.0466865
0.038815
0.0477258
0.0298089
0.0280344
0.066989
0.0732316
0.0631203
0.0197196
0.0692628
0.0158059
0.0752889
0.0265385
0.0202743
0.0276749
0.0508632
0.0187962
0.0867178
0.0485813
0.0230898
0.025665
0.0160636
0.023137
0.0234924
0.0211343
0.0281952
0.0388709
0.0243443
0.0389561
0.0133502
0.0301926
0.0785137
0.0506071
0.0239163
0.0155446
0.0305022
0.0727158
0.0199797
0.0245139
0.0182109
0.0353429
0.0945611
0.0371909
0.0766543
0.074606
0.0274065
0.0400934
0.0444544
0.0249434
0.0183318
0.0276636
0.0768409
0.0123002
0.0124695
0.0332411
0.0314493
0.0622173
0.0180464
0.0883793
0.016683
0.0914911
0.0229964
0.0236712
0.0410721
0.046925
0.0694972
0.0892549
0.097497
0.0378778
0.0687049
0.0231697
0.087755
0.0196773
0.0181344
0.041575
0.0273365
0.032028
0.0217117
0.0256155
0.037022
0.0278014
0.0358403
0.053461
0.0165193
0.0842115
0.0384035
0.0783916
0.0978883
0.0113724
0.0208376
0.03953
0.0244162
0.0154778
0.0755936
0.0382073
0.0725824
0.023275
0.0806
0.0600498
0.02623
0.0589545
0.0173992
0.0505358
0.0209577
0.0323128
0.0234302
0.0224601
0.0337353
0.0453764
0.0796852
0.0166162
0.0286684
0.0154505
0.0553811
0.0792443
0.0553509
0.0916677
0.082871
0.0232002
0.0433868
0.0912186
0.0103378
0.0228793
0.0745218
0.023677
0.0175402
0.0377502
0.0237358
0.0406139
0.0407997
0.0371578
0.0540159
0.082232
0.0350761
0.0439766
0.0885075
0.0222406
0.0895158
0.0248687
0.0767568
0.0610881
0.0977514
0.0241421
0.0615186
0.025788
0.0377117
0.0907458
0.0366291
0.0187779
0.0206555
0.0515781
0.0236828
0.0231685
0.0272471
0.0369383
0.0236477
0.0479367
0.0194256
0.044157
0.0188673
0.0392787
0.0341311
0.069989
0.0152051
0.0239548
0.085181
0.0806028
0.0893204
0.0690546
0.0445285
0.0308314
0.038888
0.0367598
0.0186079
0.0378766
0.0226172
0.0226008
0.0224387
0.024065
0.0389634
0.021839
0.0165869
0.0189104
0.0135371
0.0735686
0.0569756
0.0229701
0.0349389
0.0896159
0.0367764
0.0366019
0.0674677
0.0239767
0.0809174
0.0503889
0.0500512
0.0216298
0.0373113
0.0272275
0.0264389
0.0174669
0.0847761
0.0410323
0.0105155
0.0571228
0.0193552
0.0905059
0.016092
0.0534739
0.0377573
0.0893566
0.0107426
0.0227399
0.0245163
0.0288061
0.0247373
0.0257405
0.0234445
0.0132476
0.0938438
0.0242724
0.0178627
0.0484271
0.0195282
0.048391
0.0218423
0.0524584
0.0388198
0.0936246
0.0240035
0.0464879
0.0241127
0.0123576
0.0381298
0.0909014
0.0313294
0.0238646
0.0303216
0.0232828
0.0881658
0.0272966
0.03538
0.0319555
0.0264132
0.0205668
0.0177645
0.0242888
0.0298329
0.070792
0.0656018
0.0194766
0.0403484
0.0455232
0.0593806
0.0465643
0.0236873
0.0453721
0.0301636
0.0231083
0.0693815
0.0222285
0.0311073
0.0232601
0.0210629
0.062684
0.0402776
0.0246692
0.0330344
0.0456925
0.0234194
0.029832
0.0471774
0.0224546
0.0365209
0.0841586
0.0394419
0.0276475
0.0258111
0.030974
0.0380537
0.0232909
0.0310099
0.0240437
0.0233312
0.0225337
0.0615593
0.0876085
0.0239615
0.0469721
0.0239028
0.0487322
0.0247872
0.0302695
0.0372194
0.0154791
0.0297913
0.0903236
0.0308394
0.023787
0.06363
0.0168221
0.0297976
0.0851978
0.0262862
0.020455
0.0211953
0.0224723
0.0374357
0.0275951
0.0890999
0.0240422
0.0431465
0.0758487
0.0358831
0.0494599
0.0794567
0.0509542
0.0292213
0.0241951
0.034682
0.0492378
0.0538545
0.0469324
0.0360924
0.0412748
0.0494964
0.0358856
0.0733793
0.0137865
0.0135754
0.0196043
0.0240679
0.0294063
0.0421739
0.0829815
0.0542687
0.0545375
0.0149944
0.0314934
0.0202202
0.0223557
0.0354437
0.0188197
0.0865644
0.038123
0.0488184
0.0177601
0.0533217
0.0427734
0.0196613
0.0236846
0.040672
0.0261581
0.0216502
0.0155992
0.0383335
0.025677
0.0295848
0.0229775
0.0245384
0.0286937
0.0598084
0.0507037
0.0365762
0.0443656
0.0900148
0.0245804
0.0619752
0.013207
0.0134951
0.0234122
0.0247516
0.0404813
0.0571894
0.0382157
0.0785894
0.0361569
0.0261237
0.0221509
0.0289302
0.0239488
0.0661717
0.0149497
0.0343017
0.0244363
0.0580475
0.0563281
0.034861
0.0516147
0.0841608
0.0904978
0.0238043
0.0275276
0.0200808
0.0332206
0.0911543
0.0128038
0.0851865
0.0391771
0.0986349
0.0649462
0.0621315
0.0658929
0.0240113
0.0574037
0.0625488
0.0313773
0.0205985
0.0420473
0.0318371
0.086259
0.0569581
0.0534691
0.0489229
0.0508746
0.0224329
0.0468892
0.0353909
0.0461611
0.0296865
0.0169786
0.0229338
0.0303387
0.0232655
0.050471
0.0911433
0.0485794
0.0197486
0.0528195
0.0546793
0.0296616
0.0282148
0.0622315
0.0240939
0.0464653
0.0410259
0.0218553
0.0426235
0.0242509
0.0135842
0.035421
0.0771421
0.0917553
0.0330639
0.0241756
0.0792272
0.0454735
0.0103894
0.0773926
0.0247951
0.0239698
0.0244643
0.0262624
0.0141342
0.0815971
0.0271194
0.0239837
0.0536726
0.0308271
0.0267517
0.0921393
0.0201465
0.0250725
0.0259431
0.0395803
0.0700664
0.0619285
0.0505967
0.0717743
0.0581212
0.0878926
0.0236878
0.0232632
0.076908
0.0393951
0.0158509
0.0634145
0.0286774
0.065121
0.0361268
0.074112
0.0174791
0.0603424
0.0171353
0.024226
0.0875676
0.0190111
0.0404617
0.0713874
0.0392523
0.0404171
0.0679495
0.0252707
0.0266514
0.0394241
0.0502067
0.0431801
0.0160482
0.0517946
0.0233116
0.0143803
0.0590868
0.0816083
0.0750494
0.0349698
0.0154677
0.0245457
0.0488579
0.0301034
0.0150352
0.0840424
0.0891361
0.0270808
0.0637724
0.0230405
0.0249481
0.0700919
0.0874496
0.0641788
0.0348755
0.0256804
0.0251377
0.0341862
0.0770889
0.0418839
0.0692156
0.0237552
0.0606345
0.0608457
0.0380919
0.0592786
0.0724319
0.0249937
0.0267253
0.0247796
0.0245614
0.023255
0.0447187
0.0263719
0.0365702
0.0909945
0.0353906
0.042472
0.0242237
0.0259424
0.0380038
0.0428068
0.0831452
0.0286879
0.0351935
0.024002
0.0222094
0.0173643
0.022445
0.0237384
0.0146741
0.0848029
0.0312944
0.0244076
0.0499431
0.0846957
0.0400535
0.0677498
0.0328865
0.0793514
0.0155257
0.0231121
0.0392966
0.0781236
0.0315754
0.0343117
0.0182088
0.0186501
0.0336298
0.0183962
0.0659094
0.0874239
0.0855539
0.0654075
0.0294473
0.0354914
0.0142354
0.0244588
0.0466888
0.0230943
0.0676702
0.0264578
0.0794844
0.0901672
0.0483025
0.0809504
0.0328401
0.0794218
0.0857965
0.0590908
0.0706306
0.0989147
0.0933973
0.085193
0.0333987
0.0911939
0.0819687
0.0993683
0.0282206
0.0255887
0.0803045
0.0276439
0.0768001
0.0589617
0.0974253
0.0551848
0.0269431
0.0408131
0.0221979
0.0428555
0.0264278
0.0279232
0.0671931
0.0259786
0.0230812
0.0833654
0.0950447
0.0499671
0.0157923
0.0643285
0.0866217
0.0556188
0.0269893
0.0245032
0.0768857
0.084663
0.0709084
0.0228247
0.0793636
0.0617616
0.0259951
0.0236559
0.0799042
0.0412741
0.0262646
0.0808203
0.0423097
0.067917
0.0361077
0.0737762
0.0552702
0.0358086
0.0492479
0.099792
0.0454615
0.0158767
0.0217655
0.0922772
0.0551012
0.0818206
0.0409156
0.0580471
0.0702849
0.0604556
0.0561628
0.0772254
0.0536426
0.0799269
0.0670745
0.0462542
0.0755608
0.049469
0.0352056
0.0473406
0.0455176
0.0880235
0.0342417
0.0442718
0.0843709
0.0779651
0.0416517
0.0367636
0.0587778
0.0627256
0.0666914
0.0720749
0.0757045
0.0547567
0.0784226
0.0522384
0.0721677
0.0482526
0.063685
0.0463978
0.0466552
0.0470952
0.0431822
0.0396961
0.0406793
0.0269731
0.0369066
0.0568548
0.0194991
0.0354186
0.0382183
0.0388357
0.0247189
0.0664889
0.0377266
0.0640688
0.0680407
0.0527185
0.0365307
0.0365137
0.0265888
0.0556556
0.0492581
0.0814493
0.0215987
0.06234
0.0347037
0.0456796
0.0272104
0.0346598
0.077334
0.0460957
0.0799959
0.0369695
0.0234183
0.0293437
0.0144762
0.0336216
0.0556944
0.032703
0.018601
0.0352811
0.0798566
0.0329128
0.0304495
0.0286731
0.0825799
0.0345109
0.0130795
0.0863017
0.0374988
0.0402182
0.0726642
0.0679314
0.0740002
0.069736
0.0787665
0.035938
0.0537504
0.0625737
0.0707055
0.0510376
0.0489661
0.045216
0.0996248
0.0426914
0.0312102
0.0743923
0.0711469
0.081981
0.051241
0.0606551
0.0291656
0.0977397
0.0662664
0.0463466
0.0399509
0.046042
0.0293507
0.0223013
0.0642925
0.0323361
0.0286825
0.0394289
0.0331614
0.0316981
0.0383776
0.0354151
0.0462261
0.0359618
0.0342256
0.034567
0.0844981
0.0522645
0.0299309
0.0444318
0.0410958
0.0333775
0.081761
0.0618446
0.0723305
0.0526725
0.0364972
0.0292773
0.0360409
0.0347367
0.0985814
0.0665022
0.0741047
0.0456439
0.0310936
0.053465
0.0236177
0.0639924
0.0282087
0.0335388
0.0190503
0.0211992
0.036401
0.0226598
0.0228281
0.0163613
0.0263051
0.0177534
0.0204267
0.0184629
0.0175788
0.0157315
0.0238692
0.027505
0.0212927
0.0219759
0.0394327
0.0366714
0.0395343
0.061501
0.0770112
0.0152013
0.01898
0.034407
0.0726105
0.0653687
0.0740861
0.0614864
0.0483458
0.0269028
0.0277276
0.0317814
0.0384914
0.0473637
0.028711
0.0373351
0.026467
0.0356653
0.0228495
0.0888191
0.0234475
0.0594695
0.039087
0.0833212
0.0299333
0.0320943
0.0348045
0.0297049
0.0470466
0.0426805
0.0307001
0.0496404
0.023908
0.0253234
0.0195489
0.0193154
0.017581
0.0170067
0.0316514
0.0358482
0.030972
0.0605372
0.0303413
0.0608298
0.0603481
0.0700221
0.031377
0.048256
0.0302042
0.0186981
0.0354856
0.0167215
0.0437292
0.0257892
0.0173044
0.0511387
0.0248561
0.0200844
0.0630227
0.0281987
0.0482916
0.0576647
0.0546076
0.0360934
0.0509579
0.0289174
0.0454978
0.030588
0.0666553
0.0357707
0.0238079
0.0509743
0.0599894
0.0623869
0.0852899
0.066953
0.0334622
0.0403321
0.0440349
0.040486
0.0903171
0.0225172
0.0388294
0.0361833
0.0261005
0.0649049
0.0350182
0.0919919
0.0350552
0.0179605
0.0297634
0.0233833
0.0369784
0.0342111
0.031589
0.0929057
0.0311397
0.060275
0.0404072
0.0805841
0.0342428
0.0476562
0.0545697
0.0605253
0.0621349
0.0415651
0.0558367
0.0478132
0.0656266
0.0688701
0.0742063
0.0454029
0.0688314
0.0699908
0.0487215
0.0839744
0.0755105
0.0661239
0.066753
0.0304879
0.0428199
0.0444274
0.0399189
0.0267854
0.0380067
0.0539245
0.0395876
0.029869
0.064767
0.0543512
0.0649421
0.0406604
0.0687094
0.0293319
0.0337307
0.037513
0.0357909
0.046725
0.0205333
0.0664592
0.0864607
0.0969038
0.0263791
0.0343624
0.0726946
0.0778624
0.0288736
0.0563106
0.0562634
0.0539026
0.0629533
0.0554233
0.0356902
0.069284
0.0781476
0.0721921
0.0761119
0.0824572
0.0827429
0.0260182
0.0451936
0.0453427
0.034177
0.0529897
0.0568097
0.0329823
0.0218769
0.0271802
0.0736727
0.027023
0.0280589
0.0155983
0.0284026
0.0129525
0.023654
0.0178583
0.0348675
0.0318671
0.032537
0.0353716
0.0812475
0.0266919
0.0303822
0.0543054
0.0402246
0.0738506
0.0678365
0.0949701
0.0717483
0.0304358
0.0384485
0.0363261
0.0273044
0.0152494
0.0255972
0.0852606
0.080702
0.0398239
0.0470573
0.042585
0.0494053
0.0521347
0.0758821
0.0336727
0.0859146
0.0678714
0.0747641
0.0730432
0.0596642
0.0680992
0.0473623
0.0640177
0.0373246
0.0603199
0.0530472
0.0394214
0.0497397
0.0467445
0.0444767
0.0352709
0.0339951
0.0565745
0.0586781
0.0801502
0.0297307
0.0539562
0.0297185
0.0219861
0.0424561
0.0229486
0.0570554
0.041934
0.0379466
0.038491
0.0345392
0.0340931
0.0832747
0.0226915
0.0285647
0.0626252
0.0399979
0.0156319
0.0563516
0.0829893
0.0509163
0.0239188
0.0697978
0.0329697
0.0567636
0.0609916
0.0728277
0.0496098
0.0294006
0.0676274
0.05673
0.0636952
0.0593893
0.055016
0.052399
0.0303574
0.0488663
0.0627764
0.0317635
0.0433543
0.0826838
0.0356321
0.0444782
0.0474205
0.0408704
0.0148596
0.0223907
0.0383402
0.0273504
0.0332342
0.0300884
0.0277382
0.0828693
0.0367738
0.0348031
0.0651504
0.0278901
0.0290465
0.0289666
0.0861725
0.0327798
0.0319962
0.0823695
0.0213106
0.0167663
0.0309446
0.0304653
0.028713
0.0440306
0.0217879
0.0325287
0.0515894
0.0757811
0.0810876
0.0695311
0.061796
0.0290442
0.0448021
0.037223
0.0396579
0.0299273
0.0828628
0.0457361
0.0273029
0.0282695
0.0503327
0.0453175
0.0610665
0.0380066
0.0298053
0.0338005
0.0278132
0.0742853
0.0420387
0.0182766
0.0752583
0.0314612
0.0441694
0.0293656
0.0241149
0.0275324
0.0490974
0.0344766
0.0278583
0.0706147
0.0291492
0.0734116
0.0440169
0.0239124
0.06458
0.0331034
0.0556556
0.0584221
0.0467514
0.0646099
0.0516079
0.029057
0.0546705
0.0555783
0.0232043
0.0412857
0.0292381
0.0269103
0.0396858
0.0160015
0.0187049
0.0436111
0.0174227
0.0244351
0.048249
0.0169184
0.0223829
0.0535279
0.0216068
0.0194116
0.0506726
0.0905855
0.0793707
0.0218648
0.0273381
0.0595872
0.0238626
0.0251288
0.0909128
0.0631145
0.0898416
0.0431007
0.0736239
0.0331015
0.0416903
0.0480981
0.0691485
0.0293459
0.0649395
0.0936712
0.0305973
0.0287314
0.0340701
0.0281244
0.0235584
0.0272852
0.0374866
0.032337
0.0908871
0.0486073
0.0355331
0.0794305
0.0411063
0.0735775
0.0286494
0.0618576
0.0333546
0.0409952
0.0866158
0.0297612
0.0513454
0.0268346
0.0282314
0.0550552
0.0268654
0.0906257
0.0625921
0.078113
0.0434631
0.0431412
0.0878233
0.0304784
0.0276188
0.0738712
0.0311747
0.0318592
0.0316373
0.0741284
0.0262571
0.0266313
0.0290625
0.0967416
0.0277292
0.0396933
0.0415936
0.0277128
0.0268481
0.0470963
0.0525375
0.0906587
0.0228126
0.0129901
0.0296185
0.0252319
0.0264523
0.0973055
0.0439312
0.0424182
0.0294076
0.0507633
0.0613798
0.0399014
0.0689539
0.0699608
0.024579
0.0402706
0.0264764
0.0666683
0.0638961
0.0238753
0.0495719
0.0443608
0.0517757
0.0490008
0.0631759
0.0418395
0.0577332
0.0617464
0.082935
0.0507557
0.0822421
0.0229366
0.057441
0.0296972
0.0268479
0.0690605
0.0864588
0.0652803
0.0236115
0.0875891
0.0434442
0.0380764
0.0890298
0.0391494
0.0813245
0.0264023
0.0991053
0.0612601
0.0238292
0.0790925
0.0582229
0.0562745
0.0514529
0.0908249
0.0886448
0.02728
0.0322913
0.0913323
0.0660716
0.0279104
0.0976779
0.0970823
0.0319675
0.0438519
0.0335376
0.0784091
0.0440418
0.0447843
0.0185908
0.0848587
0.0686567
0.0233853
0.0894808
0.0832471
0.021306
0.0334137
0.0284911
0.0612567
0.0724343
0.0396578
0.0265439
0.0832092
0.064975
0.0445332
0.0918919
0.0416092
0.0330232
0.054331
0.0512205
0.0859169
0.0273103
0.0230559
0.0782277
0.0434723
0.0331323
0.0433082
0.0253393
0.0598225
0.0553722
0.076494
0.0828478
0.0959137
0.027751
0.0583362
0.0275783
0.0508145
0.0613585
0.0395341
0.0293668
0.0207117
0.0900746
0.014507
0.0270508
0.0263574
0.0557324
0.0810357
0.0939051
0.0936146
0.0676468
0.0426579
0.0587029
0.0233205
0.027836
0.0308706
0.014087
0.0255598
0.0339931
0.0773173
0.0806663
0.0353319
0.0285238
0.0470524
0.0703405
0.0335325
0.0591363
0.0444985
0.0532313
0.0385399
0.0534439
0.0811079
0.0803759
0.0617122
0.0267714
0.0638515
0.0870632
0.0309275
0.0319422
0.0520219
0.077575
0.0611919
0.0242324
0.028026
0.0425413
0.0523339
0.0586489
0.0182783
0.0209319
0.032907
0.0320567
0.0263651
0.0822335
0.0551965
0.0892891
0.0597397
0.0629329
0.0680323
0.0446929
0.0261411
0.0838643
0.0276183
0.0448663
0.0440976
0.0516064
0.0397253
0.0626732
0.0417287
0.061325
0.0753835
0.0324363
0.0705319
0.0242957
0.0890724
0.0268376
0.0259956
0.0815769
0.0707208
0.0260467
0.0448123
0.0576628
0.0286365
0.0747575
0.0257841
0.072503
0.0908317
0.0269656
0.0673061
0.09799
0.0358496
0.0801434
0.0689196
0.0880925
0.0419763
0.0830806
0.0966528
0.0259044
0.047006
0.0589688
0.0258524
0.0240384
0.0789119
0.0248289
0.0512473
0.0959837
0.0734444
0.0693068
0.0164831
0.022309
0.0233696
0.0517915
0.0242916
0.0244879
0.0410744
0.0432744
0.0307063
0.0225579
0.0246832
0.0405485
0.0475385
0.0259531
0.0499107
0.0244736
0.0248938
0.0209108
0.0872246
0.0765267
0.0256249
0.0274727
0.0570388
0.0867874
0.0261024
0.0582826
0.0254028
0.0246037
0.0522018
0.0259401
0.082059
0.0239615
0.0599244
0.0356787
0.090075
0.0206749
0.0878468
0.0922959
0.0241568
0.096825
0.0283103
0.0256298
0.0413202
0.0686608
0.0274309
0.0329245
0.0321482
0.0327507
0.0319166
0.0522228
0.00340043
0.0459704
0.0843392
0.0817185
0.0669668
0.0261557
0.0957938
0.00233371
0.0234617
0.0556795
0.0241743
0.0250567
0.0961802
0.0195324
0.0307354
0.0972475
0.097615
0.0255682
0.0150732
0.0322534
0.0641362
0.0256408
0.0712732
0.0949858
0.0216242
0.0844322
0.0262611
0.0229682
0.0239482
0.0186116
0.0504559
0.0868973
0.0547028
0.0306631
0.0976723
0.0250184
0.0243957
0.02349
0.0834492
0.035509
0.0240704
0.0397433
0.0953626
0.0310023
0.0659107
0.0256294
0.0392707
0.0295978
0.0325804
0.0348113
0.0150538
0.034277
0.0199697
0.0247205
0.0890425
0.0327309
0.0429838
0.0259139
0.0448002
0.0431435
0.0895459
0.0152226
0.0413182
0.0742388
0.0416092
0.0256401
0.0381035
0.020073
0.00227702
0.0423346
0.0386757
0.0431269
0.0316363
0.0862745
0.0802056
0.0240012
0.0310667
0.0939493
0.0903482
0.0653554
0.0320946
0.00252075
0.0333334
0.0308828
0.0437165
0.02631
0.0250444
0.0304541
0.0428244
0.0598352
0.0225287
0.0250948
0.0431702
0.021205
0.0585942
0.0498775
0.0553707
0.00276603
0.0773099
0.0255091
0.0935249
0.093496
0.0669715
0.014366
0.0484752
0.0541503
0.0442767
0.00389817
0.0204606
0.0261687
0.0798703
0.0883271
0.0653307
0.0915522
0.0191994
0.0226864
0.0318512
0.0311407
0.0317536
0.0289383
0.0246708
0.0681551
0.0737774
0.0884529
0.0941187
0.0774864
0.0666193
0.0969859
0.0227334
0.0486277
0.0925014
0.035893
0.00303816
0.0180087
0.0529562
0.0232505
0.0529648
0.0250175
0.0423652
0.0564398
0.0204714
0.0422658
0.0427014
0.0259124
0.0581438
0.0255549
0.0830668
0.0925965
0.0276017
0.0859855
0.0874679
0.051521
0.00241189
0.0897275
0.0371674
0.026632
0.0947577
0.0193104
0.0775193
0.0160801
0.0508258
0.0163947
0.0319926
0.0459033
0.0289386
0.00354615
0.08591
0.0186488
0.0415752
0.0308976
0.0880443
0.066879
0.0364349
0.0861891
0.0406193
0.0613067
0.0250062
0.0434289
0.0912481
0.0126639
0.041562
0.0215702
0.024614
0.0599981
0.0326648
0.0679153
0.0608077
0.0407383
0.0916403
0.0230985
0.0334503
0.0428366
0.0256136
0.0732152
0.0637509
0.00328323
0.0485602
0.0403489
0.0876433
0.0255107
0.0533559
0.0242255
0.0251749
0.0455133
0.0215276
0.0611011
0.0942731
0.0901423
0.0455082
0.0675284
0.0654588
0.0517079
0.0239431
0.0476042
0.0251869
0.0457917
0.0419944
0.0316994
0.0427432
0.0917747
0.0245227
0.0834752
0.00439937
0.0571704
0.0161477
0.00408574
0.0675232
0.0235926
0.0843435
0.0265207
0.0238513
0.0245661
0.0887067
0.0304438
0.0231278
0.0270101
0.0745297
0.0320734
0.0387775
0.0419574
0.0538872
0.0401082
0.0264034
0.0701985
0.0309492
0.0294874
0.0812777
0.02076
0.052477
0.0282095
0.0036809
0.0496288
0.0221468
0.0289699
0.0795446
0.093452
0.0322908
0.025235
0.0839876
0.0910161
0.0872007
0.0867269
0.0838399
0.0790487
0.0222941
0.0561175
0.077295
0.0353336
0.0409415
0.0214336
0.0277353
0.0356119
0.025028
0.0542791
0.0830388
0.0154552
0.0192421
0.0228072
0.0236271
0.0346517
0.0405095
0.0264031
0.00240817
0.0776638
0.0404891
0.0252785
0.0902413
0.0731476
0.0415804
0.0306026
0.0557579
0.0321336
0.0330574
0.0310816
0.0406083
0.0327369
0.0280735
0.045917
0.032969
0.0888723
0.0431563
0.0491381
0.0769797
0.0308716
0.047915
0.0378183
0.0396783
0.030189
0.032671
0.060778
0.0342198
0.0345937
0.0357416
0.00249625
0.0348431
0.0753142
0.0920578
0.00527719
0.0335987
0.0896236
0.0808869
0.0207483
0.084938
0.0241424
0.0527675
0.0955703
0.0238504
0.0315837
0.0888384
0.0249496
0.030922
0.0248942
0.0194265
0.0739591
0.0239759
0.0832063
0.0108714
0.0537517
0.0246484
0.033035
0.0263039
0.0349881
0.0216518
0.0728434
0.0869807
0.0795816
0.0657203
0.0442385
0.0331142
0.0885186
0.0340732
0.0889151
0.00848703
0.0449448
0.0432279
0.0234978
0.023393
0.0780183
0.0686254
0.0300621
0.0248461
0.0306304
0.0405619
0.0237214
0.03566
0.0454941
0.0601246
0.0406837
0.0369124
0.0321643
0.0242233
0.080312
0.0362489
0.0366245
0.0465066
0.0451666
0.0504265
0.0378794
0.0301342
0.0297433
0.00488539
0.00232998
0.0617759
0.0430306
0.0709841
0.023903
0.0265505
0.0450224
0.0197531
0.0298693
0.0850212
0.0812539
0.0209839
0.0920207
0.0106429
0.0758203
0.0205857
0.0824131
0.0257063
0.0342577
0.0535303
0.0505852
0.0647187
0.0069504
0.0975165
0.0228002
0.0518959
0.0223446
0.0811021
0.0625628
0.0537833
0.0239795
0.0334865
0.0729126
0.0315692
0.040726
0.0418443
0.0749809
0.0242949
0.0557179
0.0197935
0.0817839
0.0214795
0.0182469
0.0382038
0.0388404
0.0848476
0.0612039
0.030731
0.0391383
0.0480683
0.0229234
0.0536909
0.0386664
0.0244609
0.0154371
0.0882007
0.0232632
0.0226351
0.00446413
0.00519713
0.0260884
0.0876097
0.0771288
0.0287894
0.0667265
0.0873159
0.0254441
0.0798804
0.0782867
0.0844808
0.0416196
0.0848582
0.0230787
0.00474935
0.0232305
0.0515365
0.0376468
0.0226854
0.0868136
0.0236623
0.0450379
0.0805706
0.034556
0.024497
0.0889475
0.0799218
0.0400578
0.00270014
0.0952576
0.0192848
0.031045
0.0406357
0.0340807
0.0290349
0.0205908
0.0566736
0.00530317
0.03361
0.0631747
0.0800446
0.0244947
0.0232498
0.0233971
0.0244564
0.0410696
0.0409281
0.0552875
0.032895
0.0930801
0.0466184
0.0293635
0.0312977
0.0243753
0.0859719
0.0979841
0.0237901
0.0427652
0.0795653
0.047416
0.0614844
0.093347
0.0211897
0.0276519
0.0374696
0.0188045
0.0298398
0.0563283
0.0844736
0.0234218
0.0235328
0.0197664
0.00534282
0.0630592
0.023644
0.0173074
0.0714692
0.0578699
0.0181714
0.0235744
0.0765067
0.0911355
0.0819626
0.0424147
0.079499
0.0520604
0.0884619
0.00563249
0.0224035
0.0931248
0.0232625
0.0132129
0.0257729
0.0255421
0.0431371
0.0502719
0.0434377
0.0778555
0.0165975
0.0401446
0.0591416
0.064859
0.035422
0.0874909
0.00246388
0.0716861
0.0242547
0.00520727
0.0582782
0.0268777
0.0286909
0.0508304
0.0957417
0.016856
0.0739896
0.0738688
0.0173304
0.0469065
0.0524775
0.0236411
0.0242158
0.0237463
0.0340313
0.0370244
0.0270148
0.00514193
0.0912332
0.0178813
0.0786609
0.00568305
0.0883257
0.0569529
0.00281603
0.0633815
0.0240461
0.0646136
0.0517465
0.0229156
0.02865
0.0251603
0.017781
0.028412
0.0718297
0.0281146
0.00636309
0.0199434
0.034846
0.0243052
0.0252545
0.0230649
0.0800281
0.00271842
0.0300199
0.0251574
0.0544291
0.0309722
0.0358251
0.0700955
0.0925521
0.064797
0.0237154
0.0234919
0.0499228
0.023687
0.0363223
0.0253298
0.0556491
0.074539
0.0120834
0.00593638
0.0266424
0.0212198
0.062246
0.0589769
0.0462487
0.0516622
0.0447456
0.0295216
0.0866225
0.0882224
0.045002
0.00638541
0.0315261
0.0200266
0.0516536
0.0402612
0.0450516
0.0229415
0.0208555
0.0412566
0.06781
0.0494916
0.0561322
0.0341569
0.0350486
0.0233742
0.0855266
0.0671254
0.00257848
0.0237382
0.0873794
0.0880812
0.0342811
0.0160473
0.0912741
0.0535193
0.0171178
0.0227969
0.0512987
0.035888
0.0254789
0.058012
0.0105731
0.0722533
0.0174281
0.0899441
0.0463377
0.0250486
0.0553436
0.0237159
0.0349555
0.0346594
0.070989
0.0252771
0.0237003
0.00544882
0.0280505
0.0236136
0.00442854
0.060916
0.0760141
0.0236151
0.0232699
0.0356322
0.00280596
0.0208892
0.0235396
0.021706
0.0953485
0.0234761
0.0250866
0.0373259
0.0301415
0.0054828
0.0270329
0.00256518
0.0215258
0.0159162
0.0578483
0.0526362
0.0631447
0.0169912
0.0240487
0.0186184
0.018808
0.0244559
0.00335291
0.030965
0.0274538
0.0779362
0.031385
0.0360103
0.0943812
0.0176997
0.0240887
0.0242486
0.0282089
0.0377564
0.0434415
0.0178787
0.0599918
0.0479613
0.0855658
0.0823271
0.0101563
0.0324212
0.0821854
0.0247215
0.0229382
0.0104495
0.0700993
0.030247
0.0220274
0.0427852
0.050513
0.0229421
0.0233977
0.0574749
0.0381866
0.0227222
0.0237881
0.0219888
0.0406689
0.0709667
0.022701
0.074779
0.00474406
0.0201395
0.00589068
0.0350708
0.0938771
0.0722563
0.0796773
0.0908198
0.0849687
0.0541837
0.0466073
0.0403848
0.0231508
0.0257659
0.0365008
0.0431239
0.0491849
0.00513955
0.0239023
0.019364
0.0225517
0.0219529
0.022504
0.0230728
0.055246
0.0326575
0.019468
0.0508996
0.0203953
0.0231102
0.0271712
0.0219827
0.0859637
0.0871041
0.021502
0.0404179
0.0327675
0.058791
0.0365267
0.0187079
0.0199894
0.0101113
0.0226419
0.0518726
0.0883006
0.0479432
0.0300156
0.020929
0.0394404
0.0337275
0.0939826
0.0385103
0.0245148
0.043194
0.0236227
0.0848379
0.0335168
0.0537011
0.025274
0.0283678
0.0552043
0.0415234
0.069332
0.0573739
0.0310972
0.0212924
0.0235636
0.0290952
0.078694
0.0168009
0.0598381
0.0607276
0.0225702
0.0752646
0.0457245
0.0620789
0.0532806
0.0710493
0.0161054
0.0266455
0.0673653
0.0865185
0.0278189
0.0151207
0.0551212
0.0227158
0.0382908
0.0395216
0.0112159
0.0880612
0.0136132
0.0329405
0.0387307
0.0766529
0.0723087
0.0208392
0.0327385
0.0453228
0.0338491
0.0236517
0.0238209
0.0151135
0.0300222
0.0265568
0.023852
0.0906631
0.0539005
0.0752546
0.0781781
0.0192587
0.0224527
0.0577474
0.0599487
0.0192665
0.0439837
0.0442032
0.0240209
0.0704488
0.0685665
0.0836304
0.0142813
0.0207998
0.0220917
0.0119146
0.0470634
0.045731
0.0204233
0.0319987
0.0719007
0.0230451
0.016692
0.0312537
0.0771957
0.0186911
0.0374038
0.0322078
0.0449634
0.0293333
0.0830226
0.0820585
0.0816854
0.0504207
0.0239976
0.0545839
0.0238359
0.0696676
0.0922904
0.0447383
0.0413723
0.0101741
0.0774974
0.0152973
0.04563
0.037636
0.068634
0.0231508
0.0493422
0.0152441
0.0242613
0.02247
0.0926256
0.0537736
0.0396075
0.0874638
0.035988
0.0574867
0.0191781
0.0573565
0.023985
0.0412925
0.00238884
0.0609826
0.0205691
0.0238466
0.0766244
0.0152078
0.0678472
0.0180011
0.0622441
0.0255767
0.0505592
0.0206477
0.0697487
0.0478467
0.0892905
0.0759519
0.0267366
0.0168571
0.0152018
0.0420408
0.0656084
0.0538314
0.0608647
0.0459404
0.0611675
0.0722949
0.0233452
0.0785264
0.07387
0.0342347
0.0756992
0.0703615
0.0214247
0.0348284
0.0252246
0.0805747
0.0251036
0.0242675
0.0238384
0.0905625
0.0909272
0.0433457
0.0490836
0.0547542
0.0214743
0.045856
0.0247095
0.0350891
0.0245121
0.0527299
0.0513328
0.0456073
0.0212153
0.0826461
0.00469723
0.0198826
0.0333237
0.0709803
0.0478702
0.0706636
0.0214157
0.0236089
0.0249646
0.0885274
0.0257684
0.0227256
0.0602042
0.0797387
0.0193347
0.0364018
0.0597279
0.00727223
0.0668247
0.0901917
0.00227913
0.0208035
0.0516277
0.0756144
0.0603389
0.0269587
0.0363622
0.0469622
0.0237564
0.0242055
0.0210963
0.0234854
0.0640733
0.0758608
0.0288744
0.0876046
0.0710811
0.024982
0.0218272
0.0301837
0.0731725
0.0592186
0.0495859
0.0398092
0.0851414
0.0503501
0.0345222
0.0393715
0.0368968
0.0839833
0.0392195
0.0527913
0.042478
0.0355979
0.0297602
0.0321593
0.0178734
0.0162549
0.0454979
0.0583936
0.0311869
0.0481482
0.0435375
0.0240694
0.0763217
0.0346547
0.0453185
0.0214404
0.0904747
0.0295188
0.0208056
0.0293521
0.0197859
0.0281407
0.026256
0.0241298
0.0234375
0.0301146
0.049159
0.075064
0.0307071
0.084454
0.0289427
0.0367945
0.0575606
0.0562981
0.0304809
0.0872882
0.0350098
0.054096
0.0289573
0.0630042
0.0263262
0.00246035
0.0921734
0.0287893
0.052883
0.0495767
0.0351545
0.023613
0.0237684
0.0322991
0.0213477
0.0249352
0.0299477
0.0258234
0.047398
0.0243693
0.0233318
0.0268695
0.0140318
0.0688582
0.00450421
0.0552565
0.0487013
0.0900249
0.0254927
0.0242339
0.0294163
0.0250506
0.0250315
0.0602639
0.0274271
0.0331846
0.0647758
0.0336726
0.0236847
0.00219384
0.0750892
0.0250391
0.00443558
0.0178448
0.0609649
0.0180483
0.0191129
0.0276627
0.0710564
0.024904
0.0239684
0.0201557
0.0359327
0.0176913
0.088306
0.0394833
0.0268743
0.0340956
0.0723318
0.01989
0.0239777
0.0754547
0.085185
0.0556446
0.015478
0.0342271
0.0348547
0.0492627
0.0369958
0.0828839
0.0766424
0.0399155
0.0343912
0.0172213
0.0206955
0.0383536
0.0206613
0.0846811
0.0112761
0.022437
0.0335002
0.0701761
0.036164
0.0764364
0.0522062
0.0591492
0.034877
0.0189047
0.0611335
0.0818344
0.0241103
0.0181499
0.0291837
0.0190472
0.0248432
0.0623507
0.0401089
0.0444818
0.07732
0.0782109
0.0396294
0.0776046
0.0188579
0.0207267
0.0252563
0.0667428
0.0144062
0.0133021
0.016109
0.0429905
0.0322538
0.0171192
0.0702296
0.079445
0.0700596
0.0222573
0.0508226
0.0872437
0.0366971
0.0261328
0.0296466
0.0248735
0.0780197
0.0183329
0.0402124
0.029793
0.045563
0.0234409
0.0288822
0.0404217
0.00633227
0.00561714
0.0298862
0.0445741
0.0162207
0.0245195
0.0468672
0.0440389
0.0234427
0.0741
0.0493501
0.0241237
0.0261945
0.0278358
0.0389915
0.0187214
0.0235069
0.0719825
0.045029
0.0227549
0.0740471
0.0743713
0.0586202
0.0379775
0.018058
0.0223524
0.0362623
0.0744946
0.0428715
0.0986465
0.0847821
0.0821415
0.0234333
0.0235964
0.030198
0.0215724
0.0219894
0.0184947
0.0698201
0.0242389
0.0247772
0.0241383
0.0162007
0.0630941
0.012537
0.0362067
0.0152065
0.0142104
0.0150955
0.0103691
0.0629633
0.0355404
0.0243849
0.0755275
0.031976
0.0293245
0.0734392
0.0313625
0.0239981
0.0739141
0.0209264
0.0348866
0.0217558
0.0277975
0.0308719
0.04098
0.080136
0.0237454
0.0675954
0.0382131
0.0469307
0.0289034
0.0824134
0.0849342
0.0243337
0.020144
0.0299645
0.0105582
0.0360528
0.0674758
0.0845789
0.0484734
0.0150488
0.0847316
0.0179387
0.0298028
0.0555115
0.0524306
0.0867043
0.0754563
0.0338761
0.080152
0.0141124
0.0255626
0.0199595
0.0424935
0.0196063
0.0802689
0.0175113
0.0229622
0.0209416
0.0126013
0.0133526
0.0205405
0.0384929
0.0572462
0.0404338
0.0650257
0.0550199
0.0403198
0.0194295
0.021163
0.0372885
0.029766
0.0240404
0.0236905
0.024652
0.0128102
0.0235992
0.0188187
0.0232645
0.0314156
0.0236687
0.0164863
0.0416714
0.0367504
0.0765536
0.0865615
0.0383572
0.0240299
0.0355699
0.0354786
0.069129
0.0290644
0.0287122
0.0319089
0.0267237
0.0797182
0.0297275
0.0237283
0.0236693
0.0206647
0.0300605
0.0361187
0.0747999
0.0774319
0.0142343
0.0306257
0.0736456
0.0362399
0.0712584
0.0795664
0.0383399
0.0731278
0.0726734
0.0667995
0.0419996
0.0191557
0.0126252
0.0131307
0.0409759
0.0678864
0.0237677
0.0538602
0.0726263
0.0670002
0.0127584
0.0243902
0.0334044
0.0170513
0.0237296
0.0708308
0.0260928
0.0275803
0.0705573
0.0132705
0.0809455
0.0741987
0.0292879
0.0166896
0.0296415
0.0573845
0.0720358
0.012204
0.0119798
0.0144815
0.08843
0.121944
0.136248
0.141023
0.14015
0.135384
0.128113
0.11935
0.109834
0.100133
0.0906176
0.0815441
0.0730767
0.0653013
0.058247
0.0519034
0.046235
0.0411922
0.0367176
0.0327572
0.0877281
0.120991
0.135317
0.140179
0.139442
0.134823
0.127697
0.119067
0.109668
0.100053
0.0906037
0.0815787
0.0731435
0.0653874
0.0583428
0.0520026
0.0463338
0.0412886
0.0368112
0.0328476
0.0869947
0.120022
0.134352
0.139311
0.138708
0.134241
0.127265
0.118772
0.109493
0.0999691
0.0905908
0.0816168
0.0732159
0.0654804
0.0584466
0.0521103
0.0464414
0.0413937
0.0369125
0.0329443
0.086233
0.119029
0.133358