/*--------------------------------*- C++ -*----------------------------------*\
  =========                 |
  \\      /  F ield         | OpenFOAM: The Open Source CFD Toolbox
   \\    /   O peration     | Website:  https://openfoam.org
    \\  /    A nd           | Version:  10
     \\/     M anipulation  |
\*---------------------------------------------------------------------------*/
FoamFile
{
    format      ascii;
    class       volScalarField;
    location    "750";
    object      nut;
}
// * * * * * * * * * * * * * * * * * * * * * * * * * * * * * * * * * * * * * //

dimensions      [0 2 -1 0 0 0 0];

internalField   nonuniform List<scalar> 
23845
(
0.0136147
0.013905
0.00775813
0.0141447
0.018211
0.022331
0.00801289
0.00997333
0.0198765
0.0142007
0.0221323
0.023127
0.0192628
0.0209613
0.00613921
0.0159809
0.0212488
0.0233657
0.0180149
0.0226007
0.012041
0.0229314
0.0129579
0.0196203
0.016601
0.0181754
0.0098859
0.0222407
0.0034971
0.0222891
0.0148704
0.00127862
0.00498461
0.0227946
0.0231476
0.0231587
0.00110746
0.0231274
0.0228458
0.0202244
0.0175917
0.0224112
0.0187567
0.0231003
0.0179918
0.0201794
0.0193917
0.0163747
0.00223717
0.00196049
0.00569757
0.0100543
0.00128169
0.0215513
0.00123735
0.0201657
0.0145439
0.0110286
0.0123862
0.0139306
0.00630937
0.0228495
0.0167205
0.00432804
0.0190864
0.0197884
0.00973422
0.0180153
0.0179095
0.0178578
0.0083191
0.00819437
0.0182578
0.00666719
0.0185374
0.00637426
0.0230813
0.0228809
0.0131582
0.0207917
0.0110703
0.00745192
0.0142194
0.0113772
0.00649568
0.023146
0.00858214
0.00118405
0.0191533
0.0196096
0.00468411
0.017395
0.00377161
0.0229908
0.0106282
0.00549854
0.0206097
0.0161939
0.0186097
0.0194373
0.020117
0.00933215
0.016957
0.000836556
0.00297062
0.0120135
0.0221328
0.0182917
0.0109589
0.0227749
0.0222324
0.0230797
0.00647414
0.015271
0.0231219
0.0131755
0.0185535
0.0151386
0.00368706
0.0071764
0.0229539
0.00254982
0.0179858
0.00848103
0.00906493
0.0182501
0.0069476
0.00195781
0.00678777
0.0179399
0.00480348
0.0195487
0.0222449
0.0216478
0.0200957
0.0154705
0.000733453
0.0231248
0.0109925
0.0227851
0.00230101
0.0225663
0.0229655
0.0232774
0.0169766
0.0230128
0.0140795
0.00704837
0.00573383
0.0187231
0.00549419
0.018897
0.0103486
0.0201394
0.00633977
0.0201325
0.0181705
0.0230678
0.00440601
0.00516642
0.0177425
0.00624189
0.010091
0.0193228
0.0178788
0.0200589
0.022189
0.00297209
0.0223621
0.0231012
0.0219956
0.0135582
0.0194694
0.00955544
0.0191901
0.0122476
0.0171451
0.0199736
0.0183344
0.0230382
0.0198545
0.0202419
0.00696596
0.0227823
0.0164086
0.0191282
0.0225081
0.0108164
0.002915
0.0221676
0.00383739
0.0209727
0.0208153
0.0218542
0.0172983
0.0204449
0.00197247
0.00294915
0.00075709
0.0214349
0.0214367
0.0206092
0.00641917
0.0209986
0.0109214
0.0102411
0.00743441
0.0224676
0.0116213
0.0231528
0.0218998
0.00284576
0.0165758
0.022054
0.00332547
0.00122433
0.0221049
0.0227456
0.000555698
0.0054847
0.0182836
0.00651491
0.00184663
0.0187739
0.0232491
0.00566299
0.000750738
0.0209848
0.022398
0.0176248
0.0228485
0.00291445
0.0230676
0.0179459
0.0186902
0.00506232
0.0189038
0.0148468
0.0191107
0.012431
0.00160055
0.0145253
0.0119896
0.0194614
0.00309867
0.0166146
0.0219799
0.0180705
0.0113801
0.0064222
0.0206998
0.0231164
0.00571197
0.0184237
0.0069188
0.00481133
0.00717637
0.00722139
0.0230027
0.0198149
0.000845476
0.0231152
0.00753962
0.0218594
0.0214847
0.0196385
0.0129274
0.00709878
0.0156945
0.0145346
0.0229288
0.0132736
0.00513125
0.0211009
0.0231085
0.0206323
0.00695785
0.0211235
0.00193129
0.0134201
0.0117563
0.0223236
0.00735682
0.017834
0.0231463
0.00583597
0.0105602
0.0202256
0.0104177
0.0066558
0.0123618
0.00374702
0.00487511
0.00689081
0.0114175
0.0231269
0.00511133
0.0216442
0.0231447
0.00401882
0.00413455
0.00585342
0.00493578
0.0148644
0.0215449
0.0151337
0.00391339
0.00531997
0.0200041
0.00185925
0.00485394
0.0115498
0.0189013
0.0220317
0.0109629
0.00219906
0.00521508
0.0219872
0.00452295
0.0182762
0.00275635
0.00292907
0.00465099
0.0220816
0.00652989
0.0225616
0.0140092
0.0174644
0.0072876
0.0235749
0.00818337
0.0189724
0.00544301
0.0231578
0.00661343
0.0144215
0.0127336
0.0236004
0.0227969
0.0133606
0.012774
0.00513427
0.0226194
0.0179602
0.0179322
0.00143976
0.0231618
0.00615623
0.0136301
0.00553486
0.0135139
0.0047535
0.00184295
0.00666431
0.00128848
0.0208652
0.0233238
0.0187352
0.00681078
0.0117096
0.00749135
0.0189468
0.0142879
0.0180929
0.00325677
0.0220237
0.0070708
0.0228424
0.00382977
0.0182129
0.0229358
0.00410593
0.00306968
0.0231349
0.0230076
0.00533507
0.0103688
0.0138049
0.0227895
0.0121856
0.0068919
0.0230975
0.0128508
0.0179715
0.0179734
0.0230031
0.0226917
0.0129591
0.0225005
0.0116133
0.00915642
0.023136
0.00359621
0.00284732
0.00436926
0.00427768
0.0223877
0.0180536
0.0178244
0.0231585
0.0120192
0.0159708
0.00912896
0.0118572
0.0135542
0.00678077
0.0225631
0.00337776
0.00310542
0.00792936
0.00594615
0.0179652
0.0076807
0.00606591
0.0172103
0.010333
0.0160663
0.0233876
0.0227369
0.0136209
0.00366405
0.02278
0.0201401
0.0137
0.00822574
0.0126703
0.00348615
0.0147696
0.00952681
0.0084864
0.0206924
0.0231047
0.004757
0.023903
0.0211334
0.0183272
0.0231474
0.0191603
0.00458035
0.0107877
0.00643956
0.00319331
0.00281153
0.00648696
0.0152984
0.00468105
0.0222878
0.0174315
0.0227948
0.0125572
0.0132758
0.0191168
0.00300206
0.023149
0.0180765
0.00530099
0.0146664
0.0206244
0.00827589
0.0211523
0.0105743
0.0145433
0.000746907
0.0160762
0.0227549
0.0227257
0.0220458
0.00317082
0.0179835
0.00532689
0.022192
0.0223195
0.0159068
0.00758117
0.0043389
0.0194415
0.0189249
0.00333645
0.0217768
0.0187561
0.018625
0.017293
0.0153545
0.0232173
0.0230137
0.00742696
0.0230102
0.0230921
0.00861155
0.0069056
0.0183452
0.00450326
0.00586789
0.0179914
0.0104491
0.0192618
0.0183671
0.00977279
0.0187994
0.0231026
0.00926032
0.00251209
0.00559531
0.0192141
0.0119628
0.0126796
0.0223973
0.0183695
0.0226318
0.00620427
0.0153596
0.00471166
0.00114947
0.0156599
0.0213099
0.0179604
0.0167739
0.00496164
0.00554236
0.0224249
0.00080342
0.020997
0.0233272
0.00425469
0.0178646
0.00787844
0.00677083
0.0049035
0.0120753
0.00405669
0.0052653
0.00393115
0.0213691
0.0139233
0.0190253
0.018354
0.0216292
0.00589184
0.0205674
0.0132594
0.00693066
0.0208754
0.0136944
0.0133304
0.0173003
0.0132632
0.0233252
0.0190237
0.0220368
0.0195678
0.0200992
0.0231468
0.0084562
0.020125
0.0107982
0.0111804
0.0229987
0.00509233
0.0231658
0.0226124
0.011253
0.013934
0.0150139
0.0225473
0.0230034
0.00275348
0.00339514
0.0183449
0.00428279
0.0184166
0.0179388
0.0079254
0.0190953
0.0222265
0.0154747
0.0203416
0.00800161
0.00490932
0.00796473
0.0202889
0.0178715
0.0230824
0.0172172
0.00742533
0.00455535
0.0234722
0.0182355
0.0183454
0.00805793
0.0184869
0.0140071
0.00565157
0.0129628
0.0232048
0.00676581
0.023403
0.0178959
0.02104
0.0233959
0.0230602
0.00939958
0.0215763
0.0215346
0.0068206
0.0116908
0.0181999
0.00750509
0.0208701
0.00753213
0.0200674
0.0188015
0.017477
0.0139815
0.0206634
0.00410631
0.0146334
0.0224752
0.0183384
0.0222372
0.021266
0.0212276
0.00639144
0.0202246
0.0208578
0.0166102
0.023921
0.0176688
0.0236393
0.0178802
0.0157545
0.0192067
0.0198586
0.0175465
0.022414
0.0231318
0.00619409
0.0157913
0.0153043
0.0178709
0.0231412
0.0166827
0.0227511
0.0227124
0.0183955
0.0139086
0.0204087
0.0122697
0.0183954
0.018445
0.00637374
0.0232032
0.0231545
0.0227241
0.0126292
0.00536939
0.00434085
0.00440056
0.0168708
0.00797424
0.022203
0.0220988
0.0187805
0.0220893
0.0172034
0.0211007
0.0178635
0.0178968
0.0201934
0.0162339
0.0201934
0.0160921
0.0239226
0.0210225
0.0239784
0.0239887
0.0234381
0.024004
0.0229313
0.0206827
0.0212544
0.0209328
0.0239764
0.0222172
0.0239054
0.0213097
0.0199209
0.0202372
0.0239023
0.0217768
0.0187002
0.0237623
0.0218618
0.0240495
0.0240652
0.0239569
0.0238593
0.0236695
0.024049
0.0232798
0.024041
0.0204548
0.0239834
0.0203874
0.0239663
0.022826
0.022088
0.0239244
0.0236787
0.0237796
0.0181674
0.0213224
0.016183
0.019135
0.0213755
0.0213003
0.0237411
0.0222762
0.0222012
0.0236896
0.0238419
0.0238085
0.0238806
0.023617
0.0214295
0.0230831
0.0170306
0.0177443
0.0225023
0.0192591
0.0237219
0.0235895
0.0234129
0.0228656
0.0214452
0.0231682
0.0228622
0.0219954
0.0235403
0.02051
0.0216418
0.0180633
0.0234941
0.0214732
0.00878945
0.0184599
0.0235403
0.022962
0.0234956
0.0219812
0.0225386
0.00759766
0.0220918
0.0179427
0.0201217
0.0212877
0.00772186
0.0197614
0.0199824
0.0237444
0.023907
0.0232046
0.02243
0.0240721
0.0232501
0.0231749
0.0240829
0.0186115
0.0239321
0.0153442
0.023826
0.0234584
0.0238177
0.0238648
0.0225463
0.0134092
0.0201283
0.0222955
0.0192972
0.0200488
0.0222742
0.0237691
0.0239438
0.00491342
0.0206031
0.0213478
0.0234209
0.0192936
0.0234066
0.0233932
0.0234235
0.0236659
0.0210388
0.0221058
0.0224258
0.0235264
0.0213975
0.0170156
0.0235736
0.0220942
0.0234831
0.0234778
0.0206909
0.0227668
0.0213079
0.0214128
0.0212163
0.0222446
0.0219614
0.0215174
0.0220842
0.0165025
0.0184691
0.0235934
0.0198009
0.0233804
0.0238258
0.00438706
0.0215369
0.017673
0.0171662
0.0179316
0.0178936
0.0167004
0.0178779
0.0178235
0.0180144
0.0176969
0.0179364
0.0178834
0.0179545
0.0179056
0.0179958
0.0177774
0.0176403
0.0178937
0.0178627
0.0163003
0.0234051
0.0235185
0.00890642
0.0234822
0.0179214
0.0194602
0.0227859
0.0185751
0.0239916
0.0214016
0.0240732
0.0222137
0.0175711
0.0176592
0.0173856
0.0166271
0.0239767
0.0221589
0.022487
0.019485
0.0175882
0.0231425
0.00701325
0.0231286
0.0173284
0.0221727
0.0224987
0.0234272
0.0201575
0.016889
0.0174048
0.0151397
0.0158432
0.0173377
0.0147468
0.0178502
0.0177233
0.0178825
0.0178181
0.0178337
0.0178569
0.0189447
0.0236209
0.0234687
0.0180344
0.022325
0.0188372
0.0171694
0.02376
0.0172778
0.014945
0.0173832
0.01781
0.0168019
0.0178816
0.0156371
0.0177025
0.0178532
0.0145044
0.0177161
0.0178643
0.0238205
0.0215125
0.0229387
0.016647
0.0237437
0.0220679
0.023935
0.0211383
0.0238072
0.0234475
0.0216107
0.00360103
0.0231629
0.0239669
0.0238175
0.0238892
0.0211726
0.0237817
0.0230681
0.0171133
0.0237072
0.0234193
0.00542662
0.00257271
0.0236614
0.0235827
0.0211966
0.0166015
0.0218425
0.0059851
0.0232796
0.0179515
0.0183387
0.0178058
0.0222838
0.0235018
0.0199294
0.0202544
0.0232901
0.0128715
0.0177151
0.0228386
0.0232111
0.0178256
0.0237562
0.0234723
0.0236392
0.0200077
0.01773
0.0237467
0.0238003
0.0238586
0.0235797
0.0236012
0.0217966
0.0234037
0.0199679
0.0214022
0.0217016
0.0235414
0.0171235
0.0233694
0.0237105
0.0212663
0.0235828
0.023151
0.0235573
0.0188519
0.023428
0.0233846
0.0230151
0.0197159
0.0220979
0.0221448
0.0131271
0.0233845
0.0202757
0.0233972
0.0234694
0.0210653
0.01847
0.0237312
0.0212941
0.0155318
0.0203571
0.0233799
0.0234759
0.0232815
0.0233139
0.0159595
0.0232156
0.0231088
0.022673
0.0161723
0.018905
0.0231958
0.0230092
0.0222641
0.0188475
0.0216741
0.0205524
0.0193329
0.022085
0.0225277
0.023357
0.0197499
0.0187129
0.0204158
0.00173825
0.0207215
0.00481049
0.0198093
0.0219058
0.00198177
0.0232966
0.017965
0.0230455
0.017822
0.0227865
0.0234761
0.0222435
0.0214902
0.0227444
0.00584045
0.0234347
0.0234286
0.0187486
0.0194631
0.0185105
0.0160284
0.0233689
0.0233467
0.0221461
0.0234285
0.0216141
0.018134
0.0217473
0.0199887
0.0222892
0.0163836
0.0153878
0.0160097
0.0150804
0.0147193
0.0236319
0.0235014
0.0219352
0.0192281
0.0192988
0.0238274
0.0190656
0.0238923
0.0222947
0.0240382
0.0236109
0.0240546
0.024036
0.023749
0.02393
0.0239455
0.0237947
0.0235806
0.0224443
0.0235761
0.0139273
0.0230223
0.0233403
0.0143617
0.0232534
0.019059
0.0230895
0.0231147
0.023758
0.0235722
0.0222551
0.0233628
0.0193277
0.020718
0.0210451
0.0184568
0.0232172
0.0142461
0.0222688
0.0181947
0.024059
0.0225299
0.0197242
0.00444329
0.00852483
0.0209365
0.018962
0.0186095
0.0235041
0.022774
0.0233313
0.0237398
0.0198946
0.0238655
0.0239946
0.0238917
0.023817
0.00266678
0.0238832
0.0170096
0.0233453
0.0237916
0.0179732
0.0187292
0.0210848
0.0044102
0.023588
0.0179427
0.0184487
0.0235651
0.0229206
0.0234896
0.0232628
0.021014
0.0224784
0.0235381
0.0234857
0.0128973
0.0232956
0.0233187
0.0230282
0.0143204
0.0200769
0.0222539
0.0221892
0.018263
0.0186805
0.0234226
0.0198765
0.0183731
0.00934401
0.0182695
0.0232672
0.0186973
0.0227985
0.0223002
0.0232734
0.0235817
0.0217324
0.023377
0.023267
0.0230347
0.0227812
0.0224687
0.022783
0.0217227
0.0233045
0.0237407
0.0220826
0.0126456
0.0107041
0.022481
0.0219301
0.021644
0.0199406
0.0210925
0.0178158
0.0222124
0.0234585
0.0143171
0.0230113
0.0225179
0.0233204
0.0204966
0.0223883
0.0181704
0.0214456
0.022642
0.018811
0.0219364
0.0195347
0.0224148
0.0222619
0.0202921
0.0210158
0.0202174
0.020103
0.0222897
0.0232205
0.0221238
0.0239783
0.0178677
0.0237896
0.0182595
0.0177498
0.0164236
0.0179957
0.017952
0.0158698
0.0179547
0.0177454
0.0152196
0.0180144
0.0178373
0.0145104
0.0178725
0.0179353
0.0149053
0.0211279
0.0185888
0.0200038
0.0207565
0.0151712
0.0226595
0.023228
0.0200744
0.0173909
0.0197687
0.0211591
0.0152742
0.0219948
0.023155
0.0158258
0.0236495
0.0222519
0.0238398
0.018506
0.002422
0.0221308
0.0233373
0.0232346
0.0230834
0.0232564
0.0234937
0.0234915
0.00569386
0.0238631
0.0234671
0.0230597
0.0200859
0.0235464
0.023309
0.0126108
0.020345
0.0199643
0.017556
0.0192133
0.0233294
0.0232351
0.0204155
0.00502118
0.0232817
0.015781
0.0221574
0.022746
0.0102684
0.0137428
0.0216178
0.0213141
0.0201623
0.0185134
0.0213583
0.0213741
0.0213722
0.0130899
0.0225943
0.020829
0.0192578
0.0188591
0.0183391
0.0198514
0.0235954
0.0230245
0.00381597
0.0202102
0.0202155
0.0171359
0.0231481
0.000925655
0.0207097
0.00463406
0.0232236
0.017773
0.0211692
0.0215056
0.0228476
0.0211069
0.0218784
0.0211124
0.0214786
0.0186598
0.0182819
0.0210153
0.0231837
0.0185312
0.0184813
0.0220968
0.0213854
0.0220279
0.0210322
0.0186162
0.0219774
0.0238495
0.0198763
0.0210361
0.0151591
0.0225947
0.0183588
0.021305
0.0240754
0.0231191
0.0200646
0.00657959
0.0175229
0.0173343
0.02179
0.0193509
0.0219806
0.0208191
0.0173686
0.0209245
0.0126876
0.00598137
0.018719
0.0217268
0.0222628
0.00525027
0.0212193
0.0209268
0.0206411
0.0185121
0.0151859
0.0230106
0.021945
0.00525585
0.0116114
0.0213703
0.0185488
0.0173933
0.0205546
0.0051403
0.0228106
0.0136631
0.0226993
0.0155073
0.0189603
0.0181333
0.0115408
0.0230889
0.0059244
0.0145313
0.0203625
0.00809091
0.0203891
0.0156435
0.0141244
0.0125169
0.0219075
0.0197278
0.0120604
0.0231106
0.016881
0.0218646
0.0234418
0.0224095
0.0202931
0.0168312
0.023195
0.0195585
0.0209793
0.0196331
0.0223911
0.0233481
0.0202898
0.0232271
0.0217662
0.0155499
0.00982108
0.0184307
0.0231708
0.0220717
0.0224723
0.0214514
0.0222918
0.0227806
0.00720687
0.0188218
0.0168708
0.00101567
0.0211065
0.0213279
0.0197531
0.0207522
0.0171372
0.0151914
0.0232337
0.0237399
0.0238979
0.0210447
0.0226918
0.0213397
0.0179517
0.023194
0.0227733
0.015154
0.00461987
0.0198823
0.0195696
0.0204979
0.0112467
0.0221736
0.0206979
0.022568
0.022816
0.0231687
0.0219369
0.0215707
0.0204989
0.0226522
0.0230682
0.0227338
0.00833761
0.00741751
0.0233655
0.0217963
0.0202952
0.0222955
0.0196734
0.0232623
0.0219305
0.0198723
0.022355
0.00237989
0.0194968
0.00706594
0.0229054
0.0232274
0.010529
0.0212987
0.0210852
0.022191
0.0201387
0.0200008
0.0186225
0.0209956
0.0170275
0.0229966
0.0227344
0.023297
0.0213596
0.0125624
0.0224999
0.0198158
0.0234356
0.017051
0.00816192
0.0223201
0.0198495
0.0139242
0.0232305
0.0229404
0.0222753
0.0178342
0.00569164
0.00383239
0.0236036
0.0230483
0.0201051
0.0211789
0.016013
0.0192908
0.0231417
0.0214853
0.0170907
0.0201091
0.0136581
0.022334
0.0209372
0.0199576
0.0132869
0.0193519
0.0208463
0.020495
0.00714803
0.0207275
0.0203079
0.0152902
0.0231033
0.0187006
0.0199506
0.0164519
0.00503856
0.018319
0.0209911
0.0216999
0.00441752
0.0201063
0.0177403
0.019327
0.0111949
0.0221364
0.018313
0.0204272
0.011108
0.0157824
0.0232224
0.0200877
0.0231632
0.022963
0.0187698
0.00905985
0.0223119
0.0232153
0.0231502
0.0141255
0.0211857
0.0183429
0.018636
0.0232069
0.0230295
0.00735949
0.0203551
0.0217924
0.0231481
0.0185608
0.0104355
0.00511071
0.00271241
0.0070494
0.0115587
0.020578
0.0182705
0.0229032
0.02123
0.0230344
0.0180347
0.0232105
0.0069569
0.00395446
0.0230103
0.0231688
0.0154289
2.08485e-05
0.0153197
0.00829457
0.0217098
0.013245
0.0231942
0.0194262
1.70829e-05
0.0230139
0.0143933
0.0225577
0.0227131
0.0156862
0.00324278
0.00799924
0.0138177
0.0152281
0.0181883
0.00183816
0.0213006
0.0138016
0.0229387
0.0114342
0.0194545
0.0190712
0.0188415
0.0225828
0.0196094
0.0224015
0.00272866
0.0150717
0.00650763
0.0076137
0.0230115
0.0144837
0.0224229
0.0217884
0.0231199
0.0191906
0.00992852
0.0223621
0.0200962
0.0130816
0.00577098
0.023356
0.0216644
0.0122724
0.021511
0.0233541
0.0202144
0.0179406
0.0203789
0.0198153
0.0231627
0.0062566
0.0227389
0.0226311
0.0231662
0.0161588
0.0135442
0.0206821
0.0183559
0.0127793
0.0158007
0.016152
0.021419
0.00389829
0.0177914
1.67546e-05
0.0123306
0.0114667
0.0222918
0.0232468
0.0109437
0.0118187
0.0204178
0.0225729
0.014485
0.0173081
0.017704
0.017213
1.80518e-05
0.0228189
0.00719505
0.0226548
0.00489451
0.0231574
0.0225536
0.023343
0.0227908
0.0040519
0.0224567
0.0138829
0.00278377
0.0233762
0.0175386
0.0139605
2.21892e-05
0.0199799
0.0221653
0.0202979
0.0193778
0.0116912
0.0179208
0.013285
0.0140115
0.0141529
3.25625e-05
0.0195153
0.0222133
0.0179913
0.00645285
0.0231625
0.0126154
0.0194188
0.0191248
0.0185963
0.0232826
0.00677871
0.0209833
0.0225706
0.0169577
0.0181204
0.0104178
0.0132635
0.00536534
0.0079039
0.0158597
0.0021921
0.0149416
0.020847
0.0177934
2.47202e-05
0.0182605
0.0129458
0.0230165
0.00413657
0.00505313
0.0235655
0.0233161
0.0179118
0.0222149
0.0231644
0.0223331
0.0237703
0.022466
0.0121607
0.018876
0.0192774
0.0217401
0.0216687
0.0147183
1.56994e-05
0.00490391
0.011202
0.00565458
0.0125987
0.00306597
0.0225171
0.0182112
0.00379106
0.0178752
0.00631153
0.0155487
0.0175628
2.88917e-05
0.0221302
0.0193092
0.0131732
0.0231132
0.00958311
0.0131244
0.0168809
0.00687121
0.0228711
0.0126012
0.0177316
0.0232101
0.0126272
0.000813426
0.0187456
0.0183861
0.0181664
0.0222051
0.0228156
0.0051426
0.0232574
0.0186128
0.0119788
0.0231022
0.00926008
0.0166008
0.0223218
0.0177413
0.00572991
2.68293e-05
0.00912025
0.0104479
0.0115325
0.0218165
0.0157905
0.0228404
0.0226725
0.014521
0.0204787
0.00696911
0.0127143
0.0115484
0.0114674
0.0223215
0.0131335
0.0229506
0.0191342
0.022816
0.019118
0.0137498
0.0231032
0.0203593
0.0182021
0.00605099
0.0229539
0.00761327
3.81549e-05
0.0234602
0.00199546
3.48991e-05
0.0123046
0.0231447
0.00451359
0.0183283
0.0224014
0.0231138
0.00529418
0.0228831
0.0207112
0.0218757
0.0141796
0.0212383
0.0119252
0.021854
0.0234013
0.0171329
0.0221054
0.0167285
0.0204628
0.018051
0.0191099
0.019773
0.0234947
0.0193036
2.93959e-05
0.0166139
0.020258
0.00341681
0.0167914
0.0121786
0.0222835
0.0221138
0.00731574
0.0115081
0.00840128
0.0116838
0.00891436
0.0102913
0.0201004
0.0118781
0.00946368
0.0190041
0.012291
0.0201827
0.00640978
0.00438903
0.00518877
0.0164292
0.00825637
0.00110909
0.0195763
0.0231501
0.0231228
0.00856176
0.0129889
0.00373599
1.91005e-05
0.0093092
0.0187301
0.0224082
0.0128002
0.00454701
0.0134724
0.0175048
0.0137499
0.0228165
0.00862907
0.00321945
0.011753
0.00884765
0.00673777
0.0132632
0.021179
0.00725437
0.0130412
0.00358863
0.0130804
0.0078671
0.0176588
0.011376
0.00431308
0.0181241
0.00673683
0.0148508
0.0191585
0.00905424
0.0175256
1.9479e-05
0.00856848
0.0177423
0.0136315
4.89897e-05
0.0170511
0.0146096
0.00563406
0.0182061
0.0127644
0.0184105
0.0223217
0.019315
0.0222233
0.0229204
0.0215762
0.021714
0.0203057
0.0225157
0.0183039
0.0100102
0.0229855
0.0152723
0.000806906
0.00910016
0.0225134
0.0173325
0.0181517
0.00859731
0.0200363
0.00564885
0.00826768
0.0215529
0.0124195
0.0119971
0.00739575
0.0217664
0.0191588
0.00983461
9.09873e-05
0.00647582
0.0226706
0.0231454
0.0217234
0.0211624
0.0133856
0.0205916
0.0222713
0.0205491
0.0102571
0.0212999
0.0169694
0.0185421
0.0230152
0.00874878
0.0177987
0.0178766
0.0183647
0.00950286
0.0199557
0.0100414
0.0237838
0.0177704
0.0234935
0.0164832
0.00771921
0.00689394
4.50709e-05
1.78405e-05
0.018506
0.0168451
0.0101698
0.0225992
0.00604846
0.0196394
0.0179161
0.0191847
0.0192882
0.00845818
0.0200989
0.0178313
0.000748393
0.00591873
0.00278788
0.0106927
0.0176278
0.00920364
0.00412346
0.0228127
0.016196
5.70793e-05
0.0164526
0.0231632
0.0120735
0.0209359
0.0144129
0.0123601
0.0140962
0.0214342
0.018162
0.0108804
0.0224175
0.0162554
0.0225956
0.0151017
0.0229583
0.0113385
0.0183084
0.00815139
0.0205328
0.0189493
0.0186832
0.0177138
0.0103817
0.0119811
0.0218208
0.0203978
0.0220913
0.023123
0.0172975
0.0219145
0.0026715
0.00188305
0.00738388
0.0230403
0.0206258
3.86184e-05
3.87902e-05
0.00317047
0.0047649
0.00974453
0.0191376
0.0152207
0.00870389
0.0231231
0.00902641
0.0231272
0.0177404
0.022572
0.00913384
0.0230627
4.08539e-05
0.0229683
0.00509647
0.0110135
0.0206907
0.00750647
0.0181403
0.00416215
0.0153182
0.0179412
0.0191574
0.00720432
0.00455386
0.0186852
2.32241e-05
0.0133251
0.0192276
0.00574175
0.022407
0.00865432
0.0207564
0.0191149
0.0226005
3.56039e-05
0.0217414
0.00845849
0.0213795
0.0218674
0.022987
0.0228661
0.0226069
0.0210373
0.00946591
0.0142727
0.0171336
0.0151201
0.0177632
0.0226293
0.023089
0.0223761
0.00823996
0.0176203
0.0228649
0.0178876
0.022231
0.0237666
0.00526316
0.0203216
0.018397
0.0206615
0.0112535
0.018255
0.0200106
0.00845066
0.0116645
0.0228922
0.0227544
0.00258826
3.78319e-05
0.00417619
0.0215254
0.0183472
0.00422359
0.021219
0.0189967
0.0227771
0.00995598
0.015888
0.00584273
0.0226303
0.00937266
0.0153787
0.00604247
4.43177e-05
0.0188438
0.0207248
0.0206029
0.000913905
0.0228269
0.0200074
0.0161542
0.01503
0.019099
0.0215152
0.0182664
0.0201182
0.0227427
0.00936534
0.0189587
0.00801323
1.99934e-05
0.0115463
0.0202483
2.59485e-05
0.013327
0.00602283
0.00624139
0.0194365
0.0194817
0.0186253
0.0160896
0.00987598
0.0189474
0.0101505
0.0224087
0.0192311
0.0203662
0.0230356
0.00907176
0.0214516
0.0227203
4.41946e-05
0.00533672
0.0188061
0.0102817
4.76907e-05
0.00766242
0.0131533
2.34875e-05
0.00524246
0.0227899
0.0169742
0.0148889
0.0230971
0.0178438
0.0230755
0.0184232
0.019176
0.0182507
0.00674379
5.05256e-05
0.0189713
0.0093323
0.0225946
0.0221721
0.0230389
0.00886686
2.21863e-05
0.0175366
0.0231948
0.00932087
0.00814469
0.00296338
0.0118436
0.0183423
0.0128508
0.0223338
0.0220958
0.0191221
0.0226415
0.0104848
0.0223892
0.0138117
0.0105884
0.000858481
4.58814e-05
0.0224632
0.0193379
0.0159441
0.010777
0.0109852
0.0169707
0.0157056
0.00632388
0.00528198
0.00775613
0.00555683
4.93769e-05
0.00643697
0.0195413
0.0224506
0.0190276
0.00470597
0.0213758
0.0178955
0.0207555
0.0114712
0.0153627
0.0145809
0.00965705
0.00905508
0.0214621
0.00985128
0.0155932
2.19411e-05
0.0224987
0.00493061
0.0103592
0.00311401
0.0178813
0.0104853
0.0151165
0.00182122
0.023141
0.0148062
0.017787
0.0226107
0.0225425
0.000646512
0.0200117
0.00135292
0.00628738
0.00340307
0.0229201
0.00546932
0.0230729
0.00991186
0.0173289
0.0112069
0.0227969
0.0231029
3.53339e-05
0.00672523
0.0222952
2.42049e-05
0.0129131
0.0214561
0.0221401
0.0218501
0.010059
2.08704e-05
0.0199208
0.0215704
0.0188537
0.0149849
0.0203581
0.022203
0.0167709
0.0173577
4.65431e-05
0.0183258
2.01478e-05
0.0205201
0.00198003
0.00454552
0.014266
0.0148856
0.00214487
0.0228808
0.0182778
0.018697
0.0210111
3.09472e-05
0.0193948
0.0225643
0.0103223
0.00784143
0.00998529
0.0168836
0.00197492
0.0190738
0.021356
0.0229551
0.0102982
0.0105056
0.0190312
0.00773314
0.0212363
0.00769978
0.00825953
0.000685652
0.0204192
0.00847432
0.0218485
0.0231484
0.000736451
0.00416959
0.0206171
0.019783
0.0124645
0.0142371
0.0215725
0.0218619
0.0148976
0.0109189
0.0231689
0.0231406
0.00399606
0.0217787
0.0111105
0.0231789
0.00408969
3.05718e-05
0.0182824
4.17408e-05
0.00993207
0.0199732
0.0113791
0.0089181
0.0121735
0.00847939
0.016578
0.0211442
0.0201949
0.0230195
0.0226317
0.0107998
0.0188009
0.00579473
3.33729e-05
0.0227273
0.0194997
0.0205601
0.0209395
0.0212673
0.0215712
0.0233363
0.019004
0.0189916
0.0217139
0.0185122
0.0203425
0.0198756
0.0189533
0.0211205
0.0215792
0.00237508
0.00861124
0.0087301
0.00922927
0.0185082
0.00295783
0.0198776
0.000702414
0.0212673
0.0173748
0.00980923
0.0140569
0.0181905
0.0200002
0.021534
0.00258727
0.0206012
0.0118662
0.0211717
0.0210847
0.0226006
0.0111006
0.00911602
0.0157432
0.0176613
0.0207753
0.0227699
0.0194162
0.0126305
0.0157015
0.0178933
0.0205954
0.0210592
0.0194433
0.0113454
0.00113827
0.00382948
0.0146384
0.00419694
0.0112209
0.00757947
0.0134033
0.0142138
0.00933266
0.00206658
0.0217471
0.00607718
0.0106348
0.00605993
0.00185762
0.015627
0.0197274
0.0112226
0.0191983
0.000778948
0.00796152
0.000934893
0.019149
0.0173093
0.0111418
0.00605586
0.0200453
0.00742113
0.0141085
0.0213193
0.0224519
0.0223593
0.0181781
0.0179565
0.0228254
0.0231056
0.00565273
0.0229034
0.00986824
0.00984531
0.00252399
0.0209885
0.0136311
0.0141561
0.00197161
0.017848
0.0136973
0.0231339
0.00445619
0.011286
0.00919639
0.0180134
0.0196905
0.0209434
0.000843487
0.0116872
0.0159531
0.0195258
0.00834542
0.0109158
0.0212865
0.0186061
0.0174396
0.00691208
0.0182683
0.0201268
0.00847004
0.0138605
0.0230606
0.00712254
0.0163715
0.00603469
0.0174659
0.0024624
0.0101207
0.021256
0.0169308
0.00573949
0.0142098
0.0220736
0.00071897
0.00989766
0.00106618
0.0126481
0.0114048
0.0145924
0.021414
0.00631603
0.017966
0.0224755
0.0199447
0.0206171
0.0222576
0.0034539
0.0076654
0.00959786
0.0134895
0.0191261
0.0152006
0.0231606
0.0167084
1.84639e-05
0.0133272
0.020254
0.0218727
0.0108825
0.0181004
0.00722725
0.0183667
0.00618575
0.0227776
0.00816364
0.0202867
0.00849066
0.0168812
0.0208492
0.0091386
0.00269823
0.000980021
0.018241
0.00321029
0.0129117
0.0109598
0.0167882
0.0161101
0.0136297
0.0160612
0.021605
0.0179503
0.0102658
0.0169711
0.0099677
0.00477861
0.0206157
0.00946127
0.0187043
0.00882002
0.0230249
0.0222684
0.0224899
0.0201434
0.00581881
0.00631156
0.0175749
0.0141433
0.0205535
0.0203858
0.0177077
0.0189168
0.0227868
0.0229417
0.0235225
0.0196426
0.0183586
0.00817006
2.71001e-05
0.0199346
0.0180067
0.0137563
0.00546812
0.0163342
0.0193319
0.0227635
0.00536989
0.0202352
0.0231077
0.0231778
0.00382181
0.0225689
0.0188954
0.0200714
0.01503
0.000222602
0.0109409
0.0211939
1.69871e-05
0.00362933
0.022881
0.0108818
0.00588609
0.02238
0.00987786
0.0185366
0.0226529
0.0184113
0.00373572
0.0192289
0.0137341
0.0101974
0.022799
0.020871
0.00465099
0.018131
0.00281774
0.0214662
0.0144339
0.0155448
0.023417
0.0123916
0.00731087
0.0221991
0.0183915
0.0123687
0.0197034
0.00767763
0.00343107
0.0057769
0.0177433
0.0185888
0.022593
0.00857719
0.0188548
0.0185587
0.0195355
0.0154447
0.0224891
0.0238184
0.0184497
0.022181
0.0120665
0.00989502
0.0164333
0.0205823
0.00568277
0.0201696
0.0179028
0.0175943
0.00122386
0.0230947
0.0197465
0.00403572
0.0187638
0.0226848
0.0221281
0.0099675
0.022696
0.0134572
0.0070865
0.0206564
0.00775771
0.0172864
0.023251
0.00606295
0.00891803
0.00385202
0.0182266
0.0138647
0.0175844
1.94717e-05
0.00569513
0.0230288
0.014629
0.0227901
0.00977045
0.0227884
0.0227523
0.0210312
0.0188704
0.0193965
0.0230049
0.00346335
0.0193452
0.0208266
0.0229526
0.0200593
0.000966173
0.0130539
5.30427e-05
0.0187761
0.0233655
0.00538238
0.0228034
0.0223587
0.019215
0.0231482
0.0230371
0.0162566
0.0186487
0.0196607
0.0133449
0.00937848
0.00481815
1.10867e-05
0.0117635
0.0222088
2.81e-05
0.00230212
0.0148858
0.00111905
0.00188858
0.00414876
0.0118539
0.0193233
0.00352674
0.0179171
0.00963984
0.0189728
0.017967
0.0212031
0.0190276
0.00799154
0.0155455
0.0013202
0.0221589
0.0235616
0.0219344
0.0161383
0.0179786
0.0198181
0.0170513
0.0110187
0.017369
0.00492629
0.023024
0.0224472
0.0097508
0.0189003
0.0180601
0.0164257
0.0182643
0.015718
0.00077353
0.0210583
0.0214693
0.0134034
0.0174323
0.0107427
0.0111318
0.0132991
0.0184
0.019504
0.0141816
0.00807796
0.0210558
0.0192398
0.00704569
0.019566
0.0207129
0.014567
0.0209894
0.00410264
0.0204884
0.00995885
0.0202461
0.0231247
0.0182743
0.0201031
0.0218204
0.0124997
0.0181103
0.0180366
0.0185723
0.0132146
0.00874568
0.0188696
0.0155429
0.00884784
0.0117052
0.0199535
0.0101029
0.00708541
0.00378003
0.0230404
0.00558055
0.0183789
0.00951102
0.0192615
0.0127141
0.00285539
0.00593557
0.0228982
0.023121
0.0111531
9.9912e-05
5.99959e-05
0.0188583
0.00377065
0.0185383
0.0217647
0.00688086
0.0129391
0.0191854
0.011352
0.017262
0.0223713
0.00567634
0.00256442
0.0121286
0.0189905
0.0219399
0.0171899
0.0188515
0.0213182
0.0187378
0.00789662
0.00828602
0.0100417
0.0191623
0.0184676
0.0081984
0.00996113
0.0112962
0.0160197
0.00804124
0.00880942
0.0229586
0.0229254
0.0179104
0.0195727
0.0198213
0.00103689
0.01143
0.0229943
0.0231733
0.0230776
0.0185576
0.0167657
0.000877252
0.00897466
0.0183266
0.0180791
0.0183389
0.000679539
0.0124311
0.0103539
0.0228449
0.0122299
0.0226428
0.0182426
0.012125
0.0217906
0.00293001
0.0168469
0.0197184
0.00852375
0.0207023
0.00553442
0.00751267
0.0168499
0.00880482
0.0223563
0.0163571
0.00416641
0.0144916
0.0187792
0.00805441
0.00739465
0.0226034
0.0200614
0.00724635
0.000778442
0.0194399
0.0117622
0.00881746
0.0155806
0.00105809
0.00765367
0.0010433
0.00743394
0.00594829
0.00612177
0.00923574
0.0118172
0.00871298
0.0109804
0.0180883
0.0199817
0.019904
0.011898
0.0197678
0.00887101
0.00118127
0.021383
0.0203566
0.0179613
0.01811
0.0201301
0.00926957
0.013489
0.0129075
0.0144867
0.0101781
0.00961157
0.0197056
0.0192467
0.00957753
0.0182085
0.0220472
0.022638
0.0190052
0.000888621
0.0228705
0.00297663
0.0229849
0.0221349
0.00216513
0.0185176
0.0134099
0.00877769
0.0103385
0.00687768
0.0214859
0.0229513
0.0186043
0.0179154
0.0157587
0.00700816
0.00620551
0.019083
0.00362928
0.00880467
0.00677376
0.0228497
0.021811
0.0202261
0.0180808
0.0103432
0.0160621
0.00953127
0.0179892
0.00730193
0.0125773
0.0178545
0.0115451
0.00974967
0.0181102
0.0112698
0.0115054
0.0130028
0.0169485
0.00125294
0.0179034
0.018167
0.0170758
0.011877
0.0222186
0.00652434
0.0130694
0.00566481
0.018067
0.0227418
0.00928237
0.0185242
0.0225136
0.0132556
0.00481565
0.0203667
0.0132337
0.0180453
0.00868754
0.0123994