/*--------------------------------*- C++ -*----------------------------------*\
  =========                 |
  \\      /  F ield         | OpenFOAM: The Open Source CFD Toolbox
   \\    /   O peration     | Website:  https://openfoam.org
    \\  /    A nd           | Version:  10
     \\/     M anipulation  |
\*---------------------------------------------------------------------------*/
FoamFile
{
    format      ascii;
    class       volScalarField;
    location    "750";
    object      p;
}
// * * * * * * * * * * * * * * * * * * * * * * * * * * * * * * * * * * * * * //

dimensions      [0 2 -2 0 0 0 0];

internalField   nonuniform List<scalar> 
23845
(
-0.126798
-0.169178
-0.254729
-0.25166
-0.146551
2.03695e-05
-0.239149
-0.257159
-0.000846638
-0.0854866
-0.0158454
0.00022287
0.000355073
-0.000305825
-0.246564
-0.0414202
0.000831585
0.000332779
-0.0012307
0.000419251
-0.145854
-0.0145626
-0.191434
-0.000339864
-0.0480542
-0.000166752
-0.215761
0.0029751
-0.264905
0.000273395
-0.24739
-0.243807
-0.257178
2.16376e-05
0.000335918
0.000636052
-0.254053
8.12189e-05
0.00104649
0.000227091
-0.00506871
0.00115521
4.05757e-06
-0.000132674
0.000134542
0.000859858
-0.164249
-0.0317756
-0.236724
-0.267652
-0.244744
-0.247069
-0.236796
0.000919304
-0.24639
0.000348705
-0.194094
-0.254328
-0.149154
-0.231083
-0.263228
0.00226303
-0.0269818
-0.265492
-0.000156602
-0.00151813
-0.227763
-0.000762397
-0.00172425
-0.0035097
-0.25967
-0.259257
-0.000623818
-0.246068
-0.0012174
-0.247675
0.00026947
-0.000379802
-0.253888
-0.000794998
-0.198316
-0.239471
-0.180313
-0.257955
-0.250805
0.000421456
-0.233893
-0.234255
-0.000601721
-0.00132326
-0.249225
-0.0120806
-0.267068
0.00177567
-0.251341
-0.253612
-0.00181756
-0.0369031
-0.000295793
-0.147339
6.80081e-05
-0.242213
-0.109395
-0.275247
-0.269699
-0.25693
-0.000309856
-0.00100182
-0.229276
0.00128229
-0.0124027
-0.00035304
-0.25513
-0.0614538
0.000475545
-0.127096
-0.00047073
-0.065683
-0.263763
-0.263223
0.000287121
-0.247932
-0.00405169
-0.261644
-0.233575
0.00120915
-0.262338
-0.268918
-0.257518
-0.185977
-0.259251
-0.0584003
-0.037588
-0.000368078
0.00114849
-0.116986
-0.273127
0.000255818
-0.224253
5.37075e-05
-0.263713
0.000622988
0.000522202
0.000275009
-0.016486
0.000881574
-0.0983227
-0.24602
-0.26277
-0.00477306
-0.242138
0.000597632
-0.223537
-0.00101677
-0.254876
-0.00824845
-0.11826
0.000358888
-0.260004
-0.258429
-0.00780545
-0.250264
-0.25008
-0.000244054
-0.00189802
-0.00316767
-0.000538792
-0.250854
-0.00106066
0.000587409
-0.000871663
-0.252874
0.000152933
-0.261369
-0.000469686
-0.252881
-0.0173697
-0.0168156
0.000681639
0.00056175
-0.141074
-0.144076
-0.243878
-0.00945248
-0.0247097
-0.000451924
0.00193526
-0.257394
-0.266044
0.000591526
-0.267537
-0.00174822
-0.000259735
3.74376e-06
-0.0142434
-0.000550423
-0.272674
-0.267719
-0.282626
-0.0153144
-0.00182911
-0.00111802
-0.262885
-0.0504315
-0.257552
-0.251177
-0.256504
6.9767e-05
-0.171903
0.000640069
-0.00224058
-0.255464
-0.0274997
-0.0019707
-0.240204
-0.250856
-0.0458108
0.00127693
-0.265384
-0.258642
0.000298388
-0.247914
-0.272897
-0.00935566
0.00143117
-0.248167
-0.268381
0.00127359
-0.000238091
-0.00598272
0.000819554
-0.237633
0.000553276
-7.19599e-05
-0.132232
-0.263052
-0.000255803
-0.248461
0.00231539
-0.25647
-0.23597
-0.079005
-0.255859
-0.123321
-0.248717
-0.0323264
-2.0224e-05
0.00210741
-0.251662
-0.241677
0.00131015
0.000652687
-0.245781
-0.000238901
-0.237244
-0.251522
-0.262793
-0.251594
0.000187418
-0.00039411
-0.2326
-8.81764e-05
-0.261621
-0.00999989
-0.00702394
0.0014034
-0.252125
-0.263024
-0.233694
-0.250545
0.000355915
-0.254784
-0.242188
0.00089319
-0.0107671
-0.000363773
-0.251107
0.00211368
-0.278636
-0.192548
-0.257594
0.000475254
-0.247004
-0.0102598
0.000466157
-0.26381
-0.258974
-2.37862e-05
-0.252488
-0.251662
-0.252581
-0.240433
-0.265068
-0.251774
-0.252493
0.000339978
-0.263972
-0.000362625
0.000266203
-0.260944
-0.262879
-0.244873
-0.263733
-0.249484
-0.000276985
-0.248352
-0.267432
-0.243198
-0.000940856
-0.271666
-0.241433
-0.219684
-0.000275371
0.00356573
-0.254367
-0.265128
-0.263793
-0.0346499
-0.252672
-7.44025e-05
-0.270566
-0.253292
-0.262556
0.000884582
-0.250649
0.000303509
-0.252522
-0.19551
-0.263632
0.00128138
-0.248699
-0.0119433
-0.24742
-1.08715e-07
-0.260279
-0.249291
-0.250886
-9.84905e-05
0.000795419
-0.252698
-0.254118
-0.262652
-0.0148671
0.000626787
0.000423106
-0.282639
0.000281627
-0.252148
-0.253089
-0.246459
-0.247548
-0.263545
-0.269209
-0.249395
-0.236734
0.00231327
0.000657787
-0.00129908
-0.250906
-0.253924
-0.25984
0.00259506
-0.0920471
-0.00833593
-0.265127
-4.27502e-07
-0.260736
-0.000961219
-0.262512
0.000337684
0.0011409
-0.25098
-0.272011
0.000112103
-0.000519616
-0.249748
-0.252731
-0.249955
0.00100879
-0.257156
-0.24808
0.000648115
-0.179047
-0.000510278
-4.55566e-05
0.000592096
0.000737527
-0.252114
-0.0013954
-0.25243
-0.230692
0.00167424
-0.267932
-0.271227
-0.240861
-0.2586
-0.00620621
0.000136591
-0.0041003
0.000237222
-0.253154
-0.237425
-0.250608
-0.255505
-0.222729
-0.246375
-0.000160265
-0.269216
-0.268318
-0.26292
-0.251049
0.00104534
-0.234586
-0.263161
-0.120047
-0.253802
-0.23108
-0.00794661
0.000694694
-0.120839
-0.264505
0.000460019
0.000359882
-0.253204
-0.26215
-0.156947
-0.272998
-0.245268
-0.260867
-0.260601
-0.000469285
0.000141074
-0.262634
0.000480748
0.000280265
0.000228061
0.00084926
-0.000253979
-0.264846
-0.26075
-0.249322
-0.268843
-0.270084
-0.26294
-0.241826
-0.264329
0.000870184
-0.219264
0.00125352
-0.255264
-0.254815
0.00143087
-0.276068
0.0007532
-0.000729744
-0.261185
-0.220277
-0.0563858
-0.250884
-0.00252491
-0.193202
-0.252678
-0.271074
-0.208535
0.00144104
-0.000124433
0.000295115
-0.238738
-0.000201708
-0.255629
0.00158698
-0.000417178
-0.240494
-0.262735
-0.266267
-0.12214
-0.00100155
-0.246583
-0.000610584
-0.00425254
-0.194468
-0.221915
-0.246035
-0.0155173
-0.001287
-0.244324
-8.55736e-05
0.000346742
-0.249038
-0.262077
-0.000372245
-0.262801
-0.252051
-0.210754
-0.259158
-0.175788
-0.000879358
-0.255369
-8.36086e-05
0.000451754
-0.233263
-0.260963
-0.261715
-0.185673
-0.256975
-0.255563
-0.00826158
-0.000787761
-7.56721e-05
-0.261924
-0.246195
-0.262786
-0.255012
-0.243652
0.00133024
0.000193012
-0.229913
-0.255492
-0.254759
0.00649083
-0.247509
-0.000179995
0.000479108
-0.265232
-0.00108464
-0.248193
-0.253446
-0.265037
-0.176533
-0.259843
-0.261498
-0.269789
-0.0921919
-0.189479
6.5825e-05
-0.000795646
-0.00105938
-0.263945
-0.14718
-0.254367
-0.259282
0.00315167
-0.178
-0.178672
-0.0114448
-0.17683
-0.0174877
0.0034337
-0.000296259
0.00080091
-0.00167319
0.000354312
-0.261122
-0.0012409
-0.2555
-0.205769
0.00129566
-0.261521
-7.04236e-05
0.00212594
-0.251443
-0.253114
-0.204929
-0.000504257
0.00268582
-0.272103
-0.269133
-0.00108335
-0.265053
-0.000221483
-0.000580868
-0.244151
-0.000874115
0.000909373
-0.05012
-0.12372
-0.263148
-0.249828
-0.251557
-0.146406
-0.000216194
0.000304026
-0.011951
-0.24971
-0.264267
0.00180925
0.000653808
0.000685214
-0.24987
-0.00153671
-0.199585
-0.250743
-0.152198
-0.00720075
-0.255905
-0.000920999
-0.000831841
0.00328221
0.000576666
0.000339279
-0.252965
-0.000354081
-0.120075
-0.247543
-0.257725
-0.0456061
-0.24935
-0.133576
-0.24132
-0.00728857
-0.192569
-0.122359
-0.20149
-0.121636
-0.263996
-0.121092
-0.0655224
-0.101831
0.000245756
-0.000856358
-0.124386
-0.25984
-0.157432
-0.00279856
-0.148728
-0.000936818
-0.00402979
0.000709035
-0.00146837
-0.0535832
0.000403682
0.000621583
-0.211482
-0.000370127
0.000339976
-0.255005
-0.112412
-0.0588031
-0.000627189
-0.00762123
-0.183242
-0.00235881
0.00150959
-0.000735939
-0.114637
-0.0362715
-0.143733
-0.000203244
-0.0410038
-0.255527
0.000347153
0.000552338
-0.0717436
-0.256406
-0.264513
-0.267261
-0.262389
-0.0426174
-0.262534
-0.014363
-0.00376073
-0.00120969
-0.000498065
-0.145336
-0.000560962
-0.00153437
-0.00127198
-0.114006
-0.237337
-0.0276656
-0.0434417
-0.00270142
-0.010925
-0.00689408
-0.00338002
-0.0434552
-0.00115489
-0.0604854
-0.0123462
-0.000316825
-0.0183222
0.000982383
0.00282495
0.000390454
0.00025692
-0.0424678
0.000252692
0.00146611
-0.0360772
-0.0368086
0.00177565
0.000327612
-0.00462013
-0.00861504
-0.0136146
-0.0213011
-0.0369028
-0.00158901
-0.0533645
-0.00108005
-0.0179803
0.0004212
-0.00918297
0.000503948
0.000560385
-5.80182e-05
-9.71683e-05
0.00102406
0.000571539
-0.00130766
-9.07893e-05
-0.235065
0.0017742
0.000463569
0.000130495
0.000746366
0.000231995
-0.00666575
0.00148222
-0.00869862
-0.0147999
-0.000527293
0.0018557
-0.000470383
0.000404178
-0.0257041
-0.0108163
-0.0797187
0.00191442
-0.00670442
0.000660222
0.000681045
0.000735047
5.67664e-05
-0.030515
0.00190105
-0.105822
0.00147012
-0.000256848
-0.000825731
-0.000818683
0.00106141
0.000255363
-0.261291
0.00100597
-0.00128986
-0.0660504
0.00073308
0.000694869
0.000860172
-0.235817
-0.00369993
-0.000239372
-0.0397267
0.00130823
-0.26147
-0.0205656
-0.0139079
-0.0274469
-0.0175096
-0.0509037
-0.00445508
-0.00173676
-0.00481547
-0.013503
0.000138513
-0.00754814
0.00124653
-0.160214
-0.000497573
0.000462248
-0.0373193
-0.0224962
-0.0294548
-0.252682
-0.00815818
-0.00326639
-0.102762
-0.0127657
0.00152149
0.000648397
-3.09399e-05
-0.245634
0.00239604
-0.0066796
0.00173385
-0.000216728
0.0012451
0.00241751
0.000802622
0.000963751
-0.000442558
0.000191858
0.000854069
0.00138742
0.000981702
-0.182755
0.00130339
0.00118725
0.0018903
0.00270085
0.000386288
-0.0586546
-0.00252213
-0.0139449
-0.00127834
0.00318033
0.00149522
0.000326555
0.00407754
-0.126707
-0.0269217
-0.0247695
0.000856158
0.000307015
-0.00315186
-0.265534
-0.00815586
-0.00540466
-0.0150442
-0.000703862
-0.00128674
-0.0253692
-0.00186093
-0.00208041
-0.000541806
-0.00378218
-0.00138515
-0.000473399
-0.00104555
-0.00133318
-0.000450636
-0.00161247
-0.00466343
-0.00105182
-0.00171683
-0.0401799
0.00115557
-0.00161502
-0.256563
-0.0427378
0.000265486
6.77459e-06
0.000519179
-0.0234868
-0.0121702
-0.015274
-0.00723751
0.000349335
-0.00868509
-0.00525893
-0.00852856
-0.0303599
2.90166e-05
0.00176085
-0.000561297
-0.00124142
-0.00643328
0.000338689
-0.247116
0.000514463
-0.0264113
0.00319006
-0.0628604
0.000641049
-0.00121308
-0.0210621
-0.00792892
-0.0866283
-0.0575744
-0.0100725
-0.104798
-0.00170393
-0.00329932
-2.16385e-05
-0.000205809
-0.000609595
-0.00031794
-0.000696746
0.000796226
-0.000974192
-0.0239689
0.000668432
-0.0232909
-0.0301615
-0.0173174
-0.0113336
-0.0956203
-0.0090742
-0.000604556
-0.0237298
-0.00036472
-0.0640974
-0.00367129
-0.000635796
-0.114154
-0.00382904
-0.000614845
-0.00764234
0.0008172
0.000688099
-0.232341
-0.000817324
0.000699126
-0.00164921
0.000542266
0.00115844
0.000359806
-0.00778278
-0.269111
0.000523452
4.11198e-05
-0.00354789
-0.0062365
-0.108891
-0.0125942
0.00142176
-0.0134021
0.000130022
0.00315014
-0.257525
-0.272965
0.00101063
-0.00026681
0.00303644
-0.222498
0.000133666
-0.250991
0.00175793
-0.000325876
-0.00313415
-0.00215715
0.000714247
0.00060805
0.00102833
-0.0989021
0.000308486
-0.138525
-0.0103964
-0.040095
-0.000411567
-0.0098027
-0.00106422
-0.005817
-0.00153635
-0.00063469
-0.0192186
0.000449683
-0.0108738
-0.016283
-0.0246464
0.00328091
-0.00965636
-0.0132251
0.000207253
-0.029941
-0.0167254
-0.00709284
-0.0382077
0.000221613
0.00129268
0.000768037
0.00125979
0.00132538
0.000237613
-0.00927683
0.000221065
0.000812693
-0.00579681
-0.00514241
-0.00556536
-0.000215126
-0.21102
0.00116717
-5.53465e-05
0.00132663
0.000812463
-0.00105064
-0.00229162
-0.0115544
-0.0958639
-0.133205
6.19076e-05
-0.00187405
-0.0196871
-0.0389891
0.00156057
-0.0445817
-0.00109483
-0.00310939
-0.00920296
-0.0397306
-0.00121153
-0.0118669
-0.0259593
-0.0127407
-0.0307427
-0.0224713
-0.0282334
0.00132369
0.00145293
0.00202467
0.000958018
-0.00714812
-0.0127723
3.59297e-05
-0.281798
0.000491957
-0.256538
4.32466e-05
0.000386076
-0.269974
0.000844902
-0.00133274
0.00011453
-0.000440103
-0.00211143
0.000641314
0.00133762
0.00103651
-0.0436169
-0.264192
0.000630246
-0.00104749
-0.00467127
-0.178406
-0.203297
-0.126084
-0.0160081
0.000491442
-0.00172326
0.00236251
0.00033995
-0.000447673
0.00268684
-0.133484
-0.0922234
-0.0371899
-0.0839382
-0.0555922
-0.102547
-0.123296
-0.0375386
0.00126936
-0.0708013
-0.0203998
-0.0283777
-0.0265197
-0.00926564
-0.0154671
0.0005959
-0.0111693
0.00189717
-0.0067138
-0.00098964
6.42216e-05
0.00124365
0.000196092
0.00121654
0.000290431
-0.000142943
-0.00243433
-0.164821
-0.0596812
0.000626943
-0.0895141
0.000540198
-0.00234075
0.00361811
0.000337568
0.00085576
0.00282252
-0.000246259
0.00164747
-0.00320663
-0.000668558
-0.117157
-0.00173255
0.00106518
-0.0809062
-0.000739637
-0.000751151
-0.00340611
-0.04788
-0.00122142
-0.259453
-0.25476
0.000316079
-0.00840367
-0.011397
-0.0209815
0.000266384
0.00134259
-0.0122488
-0.00488402
-0.00843659
-0.00498455
-0.00195219
0.000976394
-0.276089
0.000703055
-0.0337262
0.000833364
0.000918189
-0.0524018
-0.000388265
-3.54591e-05
-0.263887
0.00129599
-0.00020452
-0.000318453
0.00137726
0.00192647
0.000756905
0.00106333
0.001034
-0.0696345
0.00188216
0.00165773
-0.191219
0.000397481
0.00157715
0.00151113
-0.215455
0.000116177
0.00016061
-0.0836465
0.000109143
-0.0014961
0.00102119
-0.000517587
-0.000332732
-0.26145
-0.00124792
0.00167614
-0.00879049
-0.0201701
-0.0908084
-0.0136978
-0.00524015
-0.000708848
0.00121887
0.000931463
-0.0018004
0.00120206
-0.0584408
0.00112613
0.000755402
-0.000582785
-0.000274736
0.00073582
-0.246861
-0.259961
0.00110787
-0.000588546
6.71347e-05
-0.169298
0.000483252
-0.000892839
-0.0160739
0.000464027
-0.251448
0.000506349
0.00211568
0.000420437
-0.00143921
-0.000430018
-0.00283858
-0.0113913
-8.11254e-05
-0.0263979
-0.00208827
0.000760219
-0.00331875
0.00216451
-0.00179143
-0.0105342
-0.0046026
-0.0111153
0.000761647
0.00121238
-0.000173649
-0.00222822
-0.00241132
0.00166407
-0.00415255
-0.00326879
-0.0392079
-0.000701356
-0.000898133
-0.0620129
-0.000117016
-0.00262322
-0.0935597
-0.000198372
-0.00210647
-0.134091
-0.00144409
-0.000716273
-0.110969
-0.0559332
-0.175249
-0.0010051
0.00373832
-0.063252
-0.00032576
0.000477272
-0.110759
-0.0290423
-0.0503205
0.000646607
-0.0762765
0.000378297
-0.00233293
-0.0477121
-0.0157417
-0.000490316
-0.0135455
-0.0733607
-0.279829
-0.00028966
0.000155506
0.000144616
0.000716575
0.00145101
0.00173562
0.00151205
-0.247762
0.000506875
-0.00157331
-0.0510116
-0.000123442
-0.0248706
-0.000172989
-0.157794
-0.000428935
-0.00125579
-0.179755
-0.000884538
0.00267472
9.80698e-05
-0.00210606
-0.263114
0.000785694
-0.102747
-0.00296308
-0.0249407
-0.260184
-0.253145
-0.0549687
0.00121507
0.000317585
-0.18545
0.00164897
0.00306066
6.43231e-06
-0.127229
0.000877465
0.000467619
-0.000558543
-0.109023
-0.00155861
0.000979303
-0.000882055
-0.00187557
-0.267508
-0.00352865
-0.00451568
-0.0953213
0.00019934
-0.262074
2.51816e-05
-0.257166
0.00106356
-0.111239
-0.000943293
0.00142388
0.000521243
-0.000140036
-0.00377386
-0.00443522
-0.00963413
-0.0246525
0.000227076
0.000853556
0.000871387
-0.0238428
-0.0215633
-0.000202207
0.00055892
0.000614303
-0.000767277
-0.00484763
-0.00494668
0.00276299
-0.00789817
-0.00629086
-0.0882327
-0.00109826
-0.171193
-0.00150033
-0.00355556
0.00134764
0.00193227
-0.255122
-0.0648624
-0.0332216
-0.000195516
-0.046976
-1.22518e-05
0.000939197
-0.0694148
0.000545773
-0.226618
-0.262668
-0.0966281
-0.00453039
-8.60404e-05
-0.264209
-0.002791
-0.00776262
-0.00167779
-0.056821
-0.198146
-0.0018069
0.000747389
-0.251213
-0.250906
-0.000110028
-0.0838878
-0.100423
0.000531263
-0.260993
0.000718863
-0.114367
0.00039006
-0.0700805
-0.000389609
-0.0560338
-0.203708
0.000856674
-0.255698
-0.103199
0.000505339
-0.263002
0.000997019
-0.0515852
-0.0957996
-0.255269
-0.000372488
-0.0294771
-0.177738
0.00228239
-0.0882379
0.000705497
0.00192322
0.00326624
-0.00508648
-0.0752221
-0.000482051
0.000277422
-0.137547
-0.00346325
0.000870956
0.00170249
-8.87897e-05
0.0011816
0.00172136
-0.0761543
-0.21693
-0.079453
0.000796104
-0.00452184
0.000465589
-0.000371797
-0.00377847
4.11691e-05
-0.258929
-0.00103551
-0.0852443
-0.258564
-0.000482118
0.000379922
-0.00982639
-0.0287748
-0.0931057
-0.179996
-0.00965534
0.00125815
-0.00393817
-0.0013892
0.000899465
0.000625182
-0.000133793
0.000161981
0.000554667
-0.0910995
-0.261552
0.000125926
-0.000257622
0.00206128
-0.213474
0.000542062
-0.00496223
-0.00155828
0.00126221
0.00172663
-0.00306926
-0.0240201
-0.0247781
-0.00163316
0.000127728
-0.00488118
-0.243371
-0.254604
-0.00045454
0.00746476
-0.0233581
-0.000298559
3.80678e-05
-4.33731e-05
0.000218247
-0.00460334
-0.00293736
-0.262096
-0.000555269
-0.245762
0.000454532
0.00125618
-0.192868
-0.00394799
-0.0864558
-0.0026425
-0.00955918
-0.0149943
-0.00633666
-0.00292746
-0.0700708
0.00234642
0.000909574
0.00129192
-0.00172691
-0.253331
-0.00428962
-0.00100493
-0.00421696
-0.0552445
-0.253783
-0.0104653
0.00156073
-0.214985
0.00071112
-0.000232669
-0.0284715
-0.202632
-0.260636
-0.263871
-0.00210796
0.000218387
-0.021865
-0.000427398
-0.214324
-0.0631547
0.00139625
-0.00815532
-0.143772
4.43171e-05
-0.215781
-0.00864045
-0.0388235
-0.00305427
-0.130634
-0.0796537
0.000751291
0.00107606
-0.261408
0.00260961
-0.000545767
-0.0935466
0.00149275
-0.00831434
-0.0926396
-0.0435836
-0.256722
0.000105752
1.83149e-05
0.00186867
-0.260143
0.000767028
-0.00185165
-0.00205012
-0.258769
0.000752703
-0.00129359
-0.00137515
-0.260259
-0.0469088
0.00029799
-0.00491866
0.000214652
0.000830005
0.00232778
-0.236171
-0.0183327
-1.1977e-05
0.00105986
-0.154975
-0.0406294
-0.00101068
-0.0143482
0.00022796
0.000867927
-0.258595
0.00216794
-0.0282434
0.000402274
-0.0161929
-0.257099
-0.260778
-0.257464
-0.234034
-0.208479
0.000113745
-0.0875818
0.00123851
-0.000320956
0.00119863
-0.205346
0.000919607
-0.245252
-0.266034
0.000897902
0.000431062
-0.243975
-0.263791
-0.0773269
-0.234736
-0.10032
-0.204816
0.000264671
-0.0962653
-0.268542
0.00132149
-0.24575
0.00068525
0.000446321
-0.17378
-0.265859
-0.260866
-0.188258
-0.154649
-0.000574629
-0.270399
0.000373376
-0.107517
0.000557815
-0.216312
-0.071303
-0.00203768
-0.163959
0.000406226
-0.000738266
-0.000343953
-0.268856
-0.246015
-0.256817
-0.259133
0.000262708
-0.150085
0.000877677
0.002969
-0.000329004
-0.042975
-0.260528
0.000919251
-0.00202897
-0.185672
-0.244121
-0.00917864
0.000390456
-0.253146
0.00107976
0.000801203
0.000101291
-0.000455836
0.000876604
2.08491e-05
0.00139
-0.24452
0.000761569
0.00204829
2.87543e-06
-0.0348534
-0.253838
-0.0947509
0.000155564
-0.25585
-0.0663327
-0.0497218
0.000164739
-0.265056
-0.00533688
-0.269891
-0.2573
-0.258155
0.00292805
0.000764549
-0.192213
-0.160726
-0.00054993
0.000308698
-0.149937
-0.171818
-0.213778
-0.012488
-0.266678
0.00339504
-0.254527
-0.00201713
-0.255471
0.000808666
0.00111743
-0.00307895
0.00157109
-0.261562
-0.00145864
-0.252787
-0.25664
-0.00652345
-0.0162385
-0.10368
-0.266891
-0.157834
0.000431726
-0.0700376
-0.06611
-0.191388
-0.000683945
-0.253036
-0.1349
-0.252268
-0.258876
4.05888e-05
0.000459404
-0.0482892
-0.252144
-0.00590008
-0.172767
0.00185145
0.00159374
0.00103556
-0.00107873
-0.263344
0.000226257
0.00043932
-0.213812
-0.0312002
-0.206111
-0.179018
-0.264841
-0.253377
-0.1725
-0.240963
-0.248272
-0.076275
-0.0104288
-0.265164
-0.000597822
-0.250972
0.000923242
-0.262272
-0.264873
0.00121323
-0.000545759
-0.00109684
0.00207408
0.000285731
-0.00021959
-0.00316767
-0.000247261
-0.16405
-0.135197
0.000397565
-0.0724049
-0.0466516
-0.24633
-0.26423
-0.253376
-0.256024
-0.257339
-0.192863
-0.267905
-0.0213676
2.10141e-05
-0.264927
-0.000251287
-0.244867
-0.0760398
-0.00528962
-0.261213
-0.0562363
-0.000763717
-0.254407
0.000354707
-0.222657
-0.119142
-0.0254592
-0.242878
0.00285835
-0.148976
-0.0025094
0.000875285
-0.208493
-0.279443
-0.00162252
-0.00318763
-0.00278661
-0.00694769
0.00114714
-0.250254
-0.00343896
-0.00168124
-0.190496
0.000231492
-0.260152
-0.0239138
0.00210157
-0.0395587
-0.256353
-0.26331
-0.25962
-0.260851
-0.23581
0.000415523
-0.241063
3.87798e-05
0.00026374
-0.251061
0.000355218
-0.256626
-0.204789
-0.2168
-0.258101
-0.00661998
-0.242614
0.00141405
0.001055
0.000190994
-0.00440233
-0.253579
0.00113417
0.00071575
-0.0041218
-0.248465
0.000156847
-0.241221
-0.256352
-0.001341
-0.265541
-0.258568
-0.203356
0.000538474
-0.257284
-0.00146716
-8.62212e-05
0.00152577
-0.260062
0.00114432
0.00180562
0.000748565
-0.100926
-0.000354107
-0.252562
0.000891396
-0.000598995
-0.0160301
0.000198659
-0.213876
-0.000688411
-0.000759923
-0.159813
0.000709841
0.000140544
0.000277562
-0.260909
-0.0276166
0.000981471
-0.268941
-0.197088
-0.20126
0.00077813
-0.000717859
-0.249578
-0.198231
-0.241875
-0.178756
-0.246879
-0.243376
0.00316122
-0.251416
-0.224208
-0.000620243
-0.257356
0.000165186
-0.262915
-0.262348
-0.260609
-0.0350524
-0.225128
-0.28024
-0.000786615
0.000378767
0.000486473
-0.248192
-0.251846
-0.245256
-0.271261
-0.221047
-0.00687317
0.0010408
-0.216133
-0.262162
-0.252661
-0.00866184
-0.144291
0.00027571
-0.254706
-0.267234
-0.258151
-0.260661
-0.260523
-0.25391
0.000125444
-0.245764
-0.254949
-0.274457
-0.233721
-0.257731
-0.014445
-0.253509
-0.261943
-0.00101447
-0.24484
-0.238437
0.00241705
-0.252174
-0.00814924
-0.275309
-0.248274
-0.193689
-0.203663
-0.251671
-0.0152013
-0.200938
-0.253506
0.000450403
-0.222211
-0.000544112
-0.000218205
-0.0747684
0.00223695
-0.000715848
-0.0662373
0.000568007
0.000598348
0.000229831
-0.000777477
-0.210711
0.00135301
-0.092286
-0.273715
-0.259916
7.4162e-05
-0.0168486
-0.000836539
-0.247927
-0.000382186
-0.254839
-0.233217
-0.0226737
-0.243095
-0.257721
-0.247571
-0.0641091
-0.00205286
-0.232435
-0.233386
-0.260396
0.000417431
0.000339569
7.35954e-06
-0.0144411
-0.21133
-0.000636227
-0.000124839
-0.00037308
-0.261239
0.000344258
-0.0225313
-0.00702455
-0.00258317
-0.26163
-0.00719201
-0.00207065
0.000177066
-0.218032
-0.000375662
-0.249957
0.000509464
-0.0114101
0.0011436
-0.0331016
-0.261312
-0.2633
-0.253964
-0.272498
-0.0188968
-0.0227283
-0.243587
-0.000145393
-0.261918
-0.00533708
-0.000751173
-0.000291938
-0.14703
-0.238887
0.000486857
-0.160088
-0.274579
-0.254819
-0.258327
-0.225714
-0.00237752
-0.260918
-0.264155
0.00069465
-0.0518279
-0.234248
-0.159118
0.000120308
-0.254565
-3.30649e-05
-0.225908
-0.158069
-0.24606
0.000314623
-0.00387951
-0.244883
-0.0012612
-0.0442195
0.00349883
-0.219782
0.00053723
-0.254536
-0.000487625
-0.244347
0.00234359
0.00150103
0.000552608
-0.00909325
-0.233352
-0.250013
-0.00194395
6.33631e-05
-0.000259118
-0.000149799
-0.023701
-0.000969436
-0.240694
-0.266895
-0.243507
0.000378318
-0.00111008
-0.256139
-0.248951
-0.240689
-0.265246
-0.235197
0.00021321
-0.229446
-0.234437
-0.000151498
-0.239021
-0.0339661
-0.0602538
0.00116095
-0.225582
-0.000445797
-0.25361
0.000554618
-0.260738
-0.251413
-0.00148418
-0.243174
0.000709066
-0.262124
-0.2147
-0.00416766
-0.00052207
-0.244582
-0.260557
-0.00246596
-0.275187
-0.19737
-0.00155918
-0.263689
0.00056454
-0.262488
0.00120972
-0.00225288
-0.00425809
-0.232646
-2.98796e-05
-0.255881
-0.030216
0.000665574
-0.000756218
0.000917914
0.00043261
-0.000585438
-0.261845
-0.142687
-0.0135473
-0.128799
-0.0128805
0.000292226
0.000320952
0.00232286
-0.232869
-0.13099
0.000516429
-0.00843823
-0.0211172
0.000476157
-0.258367
-0.0663145
0.000678708
-0.00328006
-0.25423
4.47011e-05
0.000116025
-0.25816
-0.22789
-0.00102433
0.000932575
-0.259289
-0.240429
-0.26477
-9.94648e-05
-0.00196401
-0.262271
-0.00103872
-0.000232011
-0.00123908
-0.204262
-0.189482
-0.253972
0.000804394
-0.23582
-0.244108
-0.25249
-0.2429
0.000845376
-0.078529
0.00297367
-0.261644
0.000671935
-0.00114574
-0.0312261
-0.0658043
-0.00385744
-0.0200397
0.000429479
0.000287924
-0.00171418
-0.255584
-0.00410927
-0.241018
-0.272517
-0.178091
-0.000549192
-0.23183
-0.138311
-0.260086
-0.254228
-0.0080501
-0.0792256
0.00243185
-0.0687849
-0.219196
0.00117703
-0.259064
0.000591669
-0.00225037
0.00406746
0.000283142
-0.253808
-0.000665915
0.000683381
-0.250917
-0.252222
-0.00185359
-0.252886
-0.245483
-0.2473
-0.249718
-0.276735
-0.260376
0.000581121
-0.221669
-0.072686
0.000651526
-0.0065326
0.00122717
0.000868438
-0.000184379
-0.19505
-0.261346
-0.236215
0.0012827
-0.261582
0.00139712
0.00207476
0.000579626
-0.23418
-0.277137
-0.00775396
0.00039387
-0.258411
-0.26007
-0.271913
-0.241116
-0.146623
-0.205525
-0.00166757
0.00195467
0.00250097
-0.001369
-0.253544
-0.000823698
-0.108181
-0.201204
-0.277044
-0.238176
0.000219362
0.000677911
-0.23109
-0.254218
-0.257945
-0.0251011
-0.0686951
-0.263658
-0.256227
-0.239592
-0.262777
-0.234626
-0.263487
1.01936e-05
-0.00417712
-0.00393562
-0.261699
0.000133264
-0.00128999
-7.01197e-05
-0.190285
-0.0592421
-0.245753
-0.258803
-0.251277
-0.000593408
-0.208862
-0.227781
-0.273824
-0.00130692
-0.256933
-0.210247
-0.269919
-0.00044981
-0.212189
-0.244673
-0.274611
0.000677728
-0.0712062
-0.00526425
6.22446e-05
0.00144283
-0.26644
-0.0198574
-0.253118
-0.247902
-0.270077
0.00039539
-0.254888
0.000227202
-0.255495
-0.0111356
-0.182214
-0.000316491
0.000203978
-0.235621
-0.262309
0.00216377
-0.232554
-0.135029
-0.0177656
-0.00196463
0.00170962
-0.254095
-0.278651
-0.000485675
0.000559206
-0.000856938
-0.146184
0.0003167
-8.32016e-05
-0.0286267
-0.00920354
-0.24816
-0.00175361
-0.268438
0.000135873
-0.271201
-0.255233
-0.124157
-0.236394
-0.264181
0.000201684
-0.000221473
0.00142956
0.000604571
-0.279264
0.00087944
0.00173715
-0.232966
-0.262672
-0.252111
-0.163993
-0.27423
-0.00239272
0.00133741
0.00119018
-0.260731
-0.260429
-0.000323836
-0.255035
0.000145558
-0.246339
-0.244443
-0.2692
0.000627328
-0.235339
-0.00168927
0.000264338
-0.269766
-0.263287
-0.00126824
-4.82085e-05
-0.257818
-0.249092
0.00134302
-0.0015882
-0.240869
-0.259459
0.000600383
0.000557523
-0.262604
0.000743153
-0.220236
0.000490511
-0.260648
-0.243047
0.000161505
-0.233455
-0.25621
-0.0727847
-0.239513
-0.238746
-0.1827
-0.234243
-0.0339726
-0.00134847
-0.00362932
4.2285e-05
0.000154017
-0.255055
-0.00380755
-0.259191
-0.240359
-8.39153e-05
0.000945011
0.000151346
0.000669867
0.000976621
-0.00172034
-0.00235448
-0.00141668
0.00107715
-0.00300138
0.00209324
-0.00287208
0.0034957
-0.000979176
-0.0378465
-0.0768434
-0.24968
-0.262684
-0.256477
-0.256636
-0.00196228
-0.26723
4.06743e-05
-0.270454
-0.00205913
-0.0206728
-0.226697
-0.251739
-0.00140312
0.00074652
0.00210233
-0.277474
-0.0731132
-0.255318
0.000461833
7.99736e-05
0.0022618
-0.189574
-0.25559
-0.0482361
-0.00270141
0.000644898
-0.00147029
-0.00204046
-0.129072
-0.0504375
-0.00263114
0.00054463
0.000555122
-0.00124658
-0.178649
-0.251546
-0.265961
-0.0715907
-0.265711
-0.179116
-0.261906
-0.0945619
-0.246498
-0.249552
-0.266435
-0.00145176
-0.256817
-0.206787
-0.257351
-0.268162
-0.240352
-0.00201495
-0.25845
-0.00168347
-0.267014
-0.240876
-0.260478
-0.00208955
-0.0149606
-0.231423
-0.255665
0.000127514
-0.263569
-0.252086
0.00112449
0.00213154
0.000991691
-0.000730428
-0.00361409
0.000312304
0.000642843
-0.251226
0.000491085
-0.223387
-0.234521
-0.260342
0.000188708
-0.246912
-0.241875
-0.276083
-0.00925514
-0.252264
0.000311424
-0.256774
-0.183724
-0.241823
-0.000702371
-0.00194798
-0.00226878
-0.26539
-0.256062
-0.039079
0.00118154
-0.261796
-0.176133
0.000169167
-0.00150388
-0.00952294
-0.254582
-0.000852292
-0.000557953
-0.256508
-0.25301
0.00135237
-0.253399
-0.196541
-0.254417
-0.0180809
-0.274016
-0.255828
-0.00153434
-0.0480825
-0.260467
-0.251088
-0.00262664
-0.271771
-0.235325
-0.256356
-0.257345
-0.2569
-0.230486
-0.000196261
-0.259596
-0.000502916
-0.000673475
0.0017472
-0.0577482
7.36949e-05
-0.270704
-0.240309
-0.261289
-0.155065
-0.000387803
-0.240954
0.000370555
-0.0230361
-0.273835
-0.243652
0.000214608
-0.000118833
-0.234105
-0.00132192
-0.251114
0.00062664
-0.257128
0.000823598
-0.259293
-0.00239612
-0.254478
-0.0197119
-0.0465548
-0.247949
-0.273954
-0.2451
-1.03745e-05
-0.271489
-0.13528
-0.255906
-0.227186
-0.0363212
-0.0956617
-0.0611554
0.000462333
-0.183777
-0.213895
-0.0177402
-0.227497
-0.251226
-0.00244982
-0.25366
-0.00198614
-0.227581
0.000610882
0.000321822
8.69299e-05
-0.048919
-0.260498
-0.261133
-0.0159985
-0.102021
-0.000910136
-0.000104543
-0.00249411
-0.00062878
0.000179224
0.000525134
0.00104329
-0.000859915
0.00146955
-0.239086
-0.237699
-0.0030977
-0.0043171
-0.234902
-0.260541
-0.0544648
0.00186929
-0.00181713
-0.263096
-0.0396201
0.000910818
0.00033805
-0.265081
-0.0307038
-0.00146223
-0.00133397
-0.0667536
-0.2639
-0.243106
-0.0533478
-0.271188
-0.263956
0.000835283
-0.229466
-0.259166
0.000396315
-0.250129
-0.00724219
0.000456256
-0.000781566
-0.266357
-0.00196582
-0.241926
-0.208533
-0.000106867
-0.0320143
-0.27119
-0.00047271
-0.254741
0.000365907
-0.225332
-0.239247
0.000735045
-0.255638
-0.244548
0.000418944
-0.000508375
-0.253238
0.00035744
-0.243564
-0.26768
-0.260452
-0.00990462
-0.00532075
-0.00215155
-0.257923
-0.00030256
0.00258878
-0.00132514
-0.0567144
0.000591985
0.000240109
-0.00592988
0.000113485
-0.235429
-0.259269
-0.0291176
-0.000117169
-0.239713
0.00185466
-0.00110926
-0.00668593
-0.235386
0.000873103
-5.95999e-05
-0.255935
0.00221138
0.00130231
-0.000528624
-0.216628
0.000432548
-0.137636
-0.260711
0.00120694
-0.260705
-0.026837
0.000368028
-0.258369
-0.247875
-0.266884
0.000927066
-0.0996428
-0.00331091
-0.269907
-0.249388
-0.000729511
-0.0801126
-2.14904e-05
-0.260616
0.000546318
2.44198e-05
-0.00093441
0.0016122
-0.00173437
-0.000262827
-0.24444
-0.00509449
0.000452057
-0.000596691
-0.000420319
-0.259535
-0.241054
-0.28168
-0.011042
0.000381393
-0.254446
0.00275709
-0.000226713
-0.000346796
0.000242578
0.000868501
-0.0451516
-0.000201642
-0.000254984
-0.111175
-0.259999
-0.264041
-0.281769
-0.229699
-0.00151737
-0.245957
-0.262665
-0.0698349
-0.242628
-0.276017
-0.243787
-0.158922
-0.0033185
-0.252931
-0.000963429
-0.249879
-0.00053082
-0.159517
0.00175441
-0.00117387
-0.249704
-0.222812
-0.238569
-0.000414254
-0.0338396
-0.0376583
-0.0443644
-0.000240244
0.000409596
-0.0197288
-0.259104
-0.010588
-0.256594
-0.0240869
-0.00184798
-0.256485
-0.00135211
-0.00225589
-0.035739
-0.000883216
-0.198861
-0.276402
0.000429747
0.00148244