/*--------------------------------*- C++ -*----------------------------------*\
  =========                 |
  \\      /  F ield         | OpenFOAM: The Open Source CFD Toolbox
   \\    /   O peration     | Website:  https://openfoam.org
    \\  /    A nd           | Version:  10
     \\/     M anipulation  |
\*---------------------------------------------------------------------------*/
FoamFile
{
    format      ascii;
    class       surfaceScalarField;
    location    "750";
    object      phi;
}
// * * * * * * * * * * * * * * * * * * * * * * * * * * * * * * * * * * * * * //

dimensions      [0 3 -1 0 0 0 0];

internalField   nonuniform List<scalar> 
38623
(
0.217997
-0.215023
0.0794034
-0.0823778
-0.0601561
0.0773532
0.124329
-0.141527
-0.00691168
0.0134263
0.0335837
-0.0400984
0.00427578
-0.00234231
-0.0225214
0.0205879
0.0155568
0.0276706
-0.0339835
-0.00924388
-0.126572
-0.254911
0.238876
0.142607
0.0850535
-0.0711906
0.0822062
-0.0960692
-0.00866827
0.00855184
-0.00642098
0.00653741
0.0197791
0.0203862
-0.243699
-0.0362524
0.0798118
-0.321318
0.277759
0.111301
0.125875
-0.112809
-0.124366
-0.220782
0.195325
-0.00546082
0.0309175
0.461667
-0.0461561
-0.468475
0.0529648
-0.229693
0.20875
-0.0103784
0.0313219
0.0377915
0.0468508
-0.0524652
-0.0321771
0.0441888
-0.293756
-0.0479087
0.297476
-0.0148387
0.387621
-0.000394809
-0.372387
-0.00876562
0.266913
-0.00934509
-0.248802
0.00612149
-0.0271814
0.411703
-0.390643
0.40368
-0.28318
0.240025
-0.360524
0.183717
0.138554
-0.0439355
-0.278335
0.109959
0.0816143
-0.080272
0.317533
-0.271907
-0.00133727
-0.0442892
-0.221183
0.291334
-0.265469
0.195318
0.0431683
0.252816
-0.0440259
-0.251958
-0.0370968
0.576158
-0.549338
0.0102769
0.0302593
-0.178735
-0.0554762
0.203952
0.22364
-0.179328
-0.492613
0.448301
-0.00922155
-0.000775693
0.00141651
0.00858073
-0.27386
0.293469
0.38407
-0.0149683
-0.020606
0.0195906
0.0159837
0.00567569
-0.00155139
0.000779263
-0.00490356
0.0288821
-0.0322325
-0.0333948
0.0367452
0.294812
-0.0246594
-0.278918
-0.0103929
-0.0110798
-0.23791
0.259383
-0.342322
-0.173928
0.146542
0.369708
-0.000610845
0.000144599
-0.00723192
0.00769816
0.00530865
-0.236484
-0.148106
0.167177
0.00338917
-0.0224607
-0.0568999
0.0721517
0.318663
-0.333915
0.0663418
0.412842
-0.429587
-0.0495968
0.272717
0.185372
-0.255293
-0.202796
0.331242
-0.185389
0.332631
-0.478485
-0.418042
0.204735
0.338652
-0.125346
0.598795
0.241067
-0.513687
-0.326175
-0.0299654
0.0737205
-0.430231
0.386476
-0.013162
0.0263917
-0.00160106
-0.0116288
-0.261493
0.193868
0.155475
-0.0878501
-0.000917237
0.00188706
0.00101095
-0.00198078
0.00755111
-0.000505692
-0.00770341
0.000657987
-0.0050028
-0.00136506
0.00147577
0.00489209
-0.0110135
0.029153
-0.0235
0.00536041
-0.00189036
0.000710096
-0.00172714
0.00290741
-0.382097
-0.109462
0.2952
0.196359
-0.00101929
0.000442908
0.00625207
-0.0207352
-0.397048
0.402944
0.0402898
-0.0234604
-0.0555555
0.0387261
-0.00439129
-0.00813475
0.00857457
0.00395147
-0.141737
0.186277
0.139176
0.00259463
-0.00748587
0.00571638
-0.000825152
-0.00919485
0.0036385
-0.00321841
0.00877476
-0.343244
-0.110282
0.0354838
-0.337925
0.326653
0.0841389
-0.0728672
-0.00574875
-0.00745096
0.00877041
0.00442929
-0.246809
-0.322452
0.348078
-0.50164
0.352839
-0.230391
0.379191
-0.168713
0.144351
-0.0252565
0.0496189
-0.536666
0.422475
0.174807
-0.0606162
0.121384
0.538555
-0.0611448
-0.390404
-0.0650433
0.0644973
0.39095
0.00890933
-0.00309596
-0.0089973
0.00318394
0.0147167
-0.00772675
-0.0139016
-0.0505373
-0.0185811
-0.515554
0.584673
0.0609941
-0.0615272
0.0383246
0.400982
-0.37983
-0.26796
0.0412536
-0.061399
0.0592489
-0.0391034
0.0220418
-0.182139
0.176182
-0.0160851
0.11419
0.190235
-0.194934
-0.109491
-0.011815
0.00537412
-0.00524458
0.0116854
0.0377074
-0.0297931
0.343121
-0.351035
-0.110333
0.225332
-0.207704
0.0927052
0.0447032
-0.0562345
-0.0887136
0.100245
0.0719362
-0.0918026
-0.010629
0.00849108
-0.000419485
0.00255737
-0.0182324
0.0430091
-0.0253261
0.000549524
-0.236725
0.247543
-0.0218986
-0.0583724
0.0927855
-0.0997204
0.0653073
-0.00142892
0.000362245
0.000309584
0.000757093
-0.289323
-0.102236
0.136239
0.255321
0.362914
-0.365631
0.0404244
-0.00691892
-0.000320879
0.00660606
0.000633739
-0.423927
0.0719986
0.402743
-0.0508147
0.0039426
-0.00744246
-0.00224888
-0.334489
-0.18819
0.202205
0.320474
-0.00689337
-0.00327826
0.00529896
0.00487267
-0.00744684
0.000107872
-5.21298e-05
0.00739109
0.495742
-0.113024
-0.393222
0.0105039
0.0757223
-0.103837
-0.233378
-0.279459
-0.0293167
0.0671951
0.24158
0.0074942
-0.00035216
0.00841473
0.348727
0.0640615
-0.095943
-0.316845
-0.0387403
-0.103214
-0.0267593
-0.0585335
0.022474
-0.125769
0.161829
-0.00673854
7.29891e-06
0.00673052
7.01326e-07
0.00130158
0.00748571
-0.0082912
-0.000496097
4.75896e-05
0.00198518
-0.0126617
0.271947
-0.107698
-0.290822
0.225353
0.416696
-0.144886
0.149771
-0.0436244
0.35587
-0.317508
-0.127934
0.0895725
-0.114447
0.155712
0.0912305
-0.132495
-0.275234
0.0798525
0.20069
0.0572459
-0.0407958
-0.0346827
-0.00534928
0.288485
-0.000720495
-0.282415
-0.140264
-0.332213
0.130155
-0.307535
-0.0540847
0.0588956
0.302724
-0.183509
0.370054
-0.552782
0.366237
0.0542347
-0.283455
-0.0562273
0.285448
-0.000158666
0.000325801
-0.00938867
0.00535879
-0.00771804
-0.00425146
0.00661069
-0.120316
0.0234668
0.211039
-0.000178954
0.00581648
0.000229414
-0.00586694
-0.0419864
-0.382713
0.0402236
0.384476
-0.00537413
0.00376669
0.00698681
-0.00537936
-0.0927652
0.0854791
-0.0959276
-0.0787517
-0.671938
0.551804
0.198886
-0.00895027
0.00245265
-0.00269724
0.0079584
-0.000127461
-0.000279831
-0.0010857
-0.0101978
-0.00475945
0.016043
0.0166956
-0.0109286
-0.0151924
0.00942528
0.00812978
0.00915526
-0.00681817
-0.0104669
0.0290287
0.164793
-0.149947
-0.043874
0.134299
-0.000819111
-0.0187076
-0.114772
-0.212062
0.201672
0.0567443
-0.0463546
0.421844
0.0877655
-0.197304
-0.312306
-0.0989286
0.216877
-0.176482
9.07125e-05
0.00638007
-0.00645237
-1.84154e-05
0.0423817
0.174985
0.0517049
-0.120458
-0.169739
0.238491
-0.10943
0.15156
0.00866329
-0.00870047
-0.000121478
0.167374
-0.18361
-0.257531
0.273767
-0.142019
-0.24096
0.219695
0.163284
0.0822289
0.30327
-0.113901
-0.271597
0.363469
0.0136019
-0.0383718
-0.338699
0.476236
-0.195087
0.0747215
0.288526
-0.0545069
-0.283588
0.0495688
-0.0682943
0.0392877
-0.0193291
0.0483357
-0.0034827
0.00264678
0.00677385
-0.00593792
0.0238092
-0.372308
0.389388
-0.0408892
0.047106
-0.00312154
-0.0395523
-0.00443214
0.269747
-0.11951
-0.462365
0.312129
0.0703784
-0.089518
-0.0572014
0.0763409
-0.0503148
0.432918
0.146865
-0.529468
0.0349498
-0.0330771
0.0218728
-0.0237456
-0.0643538
0.0491369
0.293902
-0.278685
0.0154836
0.0816741
-0.0746836
-0.275529
0.157484
0.23548
-0.117434
-0.0100029
0.0109292
-0.00631483
0.0053886
0.00231358
0.0103341
-0.00848707
-0.00416065
0.0554418
0.38066
-0.382495
-0.0536069
0.0811414
0.0293104
-0.0448687
-0.065583
0.00251734
-0.00944093
-0.00133901
0.00826259
-0.1625
0.164511
0.461618
-6.59465e-05
-0.410934
-0.050618
8.5868e-05
0.367817
-0.344094
-0.189427
0.188623
-0.0672383
0.0680426
-0.00625981
-0.00169486
0.00708312
0.000871552
-0.230148
0.404675
0.20678
-0.381306
0.281877
0.12927
-0.243773
-0.17758
0.0314922
0.184201
-0.0381124
0.0193773
0.00482959
-0.0199311
-0.23401
-0.31357
0.225128
0.00215732
-0.00706052
-0.000470928
0.285416
-0.546441
0.337119
-0.0760941
-0.0135006
0.000216379
0.010466
0.00281823
0.334991
0.0523559
-0.335455
-0.0518918
0.0522905
0.245915
-0.0548184
-0.243387
-0.264213
-0.0292355
0.275447
0.0180012
-0.202722
0.171064
-0.128512
0.16017
0.00879938
0.00693169
-0.0121993
-0.00353183
0.0207336
-0.00416842
-0.00776585
0.0760365
0.0355389
-0.0703217
-0.0976768
-0.133278
0.0778859
0.153069
-0.0424401
0.091186
-0.399764
0.351019
0.421049
-0.408844
-0.0329402
-0.195343
0.0825695
-0.00462404
0.00507534
0.00803978
-0.00743482
-0.000792979
0.00564359
0.00258421
0.287675
-0.198569
-0.00271149
0.00455682
0.00690432
-0.00874964
-0.39214
0.072224
0.0413624
0.278554
-0.301389
0.361117
-0.116628
-0.29522
0.142876
-0.181327
0.333671
-0.0521089
-0.324479
0.0598344
0.316754
0.152774
-0.203451
-0.294595
0.345271
0.00037838
4.0325e-07
-0.0074945
0.0071157
-0.000543546
0.00713255
-0.00930049
0.00210617
-0.00625389
-0.000532115
0.00467984
0.163354
-0.132743
-0.145058
0.321592
-0.0248698
-0.296637
-0.261908
-0.325811
0.279075
0.308643
-0.00442208
0.00679779
-0.00585842
0.0133873
-0.125664
-0.0334431
0.145719
0.00954328
-0.00711462
-0.0110969
0.0027683
-0.00961473
0.00936378
-0.0305008
0.0163195
0.0232878
-0.00910656
-0.0648741
-0.197299
0.0805466
0.181627
0.195008
-0.00384264
-0.0601658
-0.131
-0.0954322
0.235084
0.0662621
-0.205914
0.309225
-0.0382485
-0.300769
-0.00807488
-0.000742867
0.0082069
0.355926
-0.345102
-0.053264
-0.44472
0.247726
-0.0331541
-0.00319548
-0.00120602
0.00251114
-0.00453023
0.00114008
0.00932573
-0.00593558
0.114178
-0.0100392
-0.0907517
0.0396087
-0.300623
-0.000187623
0.00728408
-0.00123236
-0.00586412
-0.0121055
-0.00964449
0.00769297
0.014057
0.0808532
-0.0527926
-0.513172
0.485111
-0.0397406
0.0393356
-0.00698919
0.000339738
6.3449e-05
0.00658601
0.315704
-0.0757288
-0.304329
-0.0997469
0.310465
0.0184286
0.0301012
-0.0138847
-0.0346451
-0.000159237
0.00705478
-0.00740124
-0.310468
0.0711027
-0.244202
0.0637722
-0.00464892
0.185079
0.402808
0.0484084
-0.401715
-0.0495022
-0.200876
0.239731
-0.282237
0.243382
-0.00243662
9.04559e-05
-0.00136549
-0.0625654
-0.211303
-0.578705
0.600876
-0.0592679
0.0516702
-0.0405554
0.0165559
0.0108864
0.000361843
-0.00678868
-0.00445953
-0.247844
-0.365997
0.0282692
-0.00852483
0.0025373
-0.0222817
0.0619557
-0.469645
0.524078
-0.116389
-0.0116385
-0.00668565
0.0112332
0.00709093
-0.00142715
0.00237652
0.000937697
-0.308544
0.0445745
-0.0525316
0.316501
0.0012803
-0.0122702
0.0110375
0.0123906
7.92234e-05
0.0392004
-0.00111576
-0.00616334
-0.12192
-0.321319
0.105315
-0.0870721
0.254605
0.104414
0.0373717
-0.491372
-0.0596869
-0.0112856
0.00253764
-0.000693015
0.0790121
0.0229399
-0.0208106
0.12155
0.460837
-0.430226
-0.152162
0.0765322
-0.226048
0.311086
-0.16157
-0.0050313
-0.00127546
0.00174106
0.0045657
-0.487453
0.487397
-0.0464383
0.0464937
0.101026
-0.0135558
-0.0581594
0.00471822
-0.00769889
0.00186492
0.00672899
-0.00579227
0.00442698
-0.000683124
-0.00680526
0.00306141
-0.09072
-0.339469
0.0917234
0.338466
-0.303641
-0.213379
0.000666439
0.000706771
-0.0534931
0.0830074
-0.309679
0.280165
0.000622417
-0.00861074
-0.00096195
-0.114404
0.172439
0.0327654
0.263483
-0.247112
0.056711
-0.36209
0.377531
-0.0100335
-0.00910957
0.00564252
0.00890892
0.00548625
-0.0092887
-0.00510647
-0.0338091
0.00673718
0.00889323
0.0181787
0.00894002
0.0169869
0.179415
-0.254535
-0.119814
0.00533665
0.0188976
-0.00485704
0.000409489
0.000679311
0.00274587
-0.00383467
0.094013
-0.221403
0.292396
-0.165006
0.110798
-0.152845
-0.246851
0.039475
0.000462791
0.00730164
-0.00742346
-0.000340966
0.0575228
-0.0839749
-0.284016
0.00661909
0.000851664
-0.000716971
-0.00675379
0.274568
-0.317381
0.0871636
-0.04435
0.00767494
-0.0150445
0.00935478
0.0839213
-0.0501535
-0.27797
7.66881e-05
-0.000444447
-0.00463504
-0.0713808
-0.332054
0.085186
0.318249
0.237447
0.038694
-0.236787
-0.0393542
0.00717366
0.00541325
-0.00299337
-0.00959354
0.00586238
-0.00354097
-0.00554185
0.00322043
0.0905306
-0.363582
0.551005
-0.277954
0.00829417
-0.00879755
0.00327168
-0.0490024
0.0475941
0.036358
0.00320861
-0.0142778
-0.00266232
-0.00199442
0.00322958
0.00436904
-0.00835679
-0.00346321
0.00328986
-0.00461872
0.00575584
-0.0108623
0.00378525
-0.0119182
-0.225931
0.00573015
-0.00520482
0.00457745
-0.00510278
-0.358109
0.307935
0.0123811
-0.00850229
-0.240603
0.00903056
0.000469957
-0.00902068
-0.000479846
0.00476925
-0.00772476
-0.00926203
0.0122175
-0.0303564
-0.0322715
0.0176653
0.0449626
0.00949054
0.00172163
-0.0272944
0.0201322
-0.0141894
0.0213516
-0.122904
-0.393718
-0.0208284
-0.0149908
0.00715571
-0.0015691
0.0031838
-0.00415105
0.377056
0.0525702
-0.0808995
2.65613e-06
-0.00690113
0.00173781
-0.00349511
0.0553719
0.0482783
-0.0332718
-0.396716
0.0634904
-0.0607181
0.393944
0.136485
-0.201545
-0.11252
-0.0113621
-0.00132673
0.00815369
0.00453516
0.00837308
-0.000485483
0.00603839
0.00550431
0.102144
-0.0433734
-0.0807906
0.0220202
-0.00335895
0.00638231
-0.0372768
0.00696757
0.509253
-0.478944
0.00235276
-0.00863496
0.00662195
-0.00179939
0.000807625
-0.00182122
-0.00507005
0.00103612
0.00585515
-0.367975
-0.285909
0.209164
0.063915
-0.0339053
-0.229008
0.0209203
0.214021
-0.00593316
0.0127035
0.0126007
-0.0142218
-0.0110824
0.00138575
-0.00626779
0.0215777
0.00423561
0.00706181
-0.00491566
-0.00638176
0.210277
-0.0973562
-0.208353
-0.0809455
-0.0214086
0.0584915
0.0438625
0.00712778
-0.216169
-0.174552
0.383594
-0.00774972
0.00129359
-0.285754
-0.0159047
0.248165
0.00737129
0.00418749
-0.00732316
0.00342859
-0.0234126
-0.0102248
-0.0022435
0.000471938
0.0119963
-0.164428
-0.260219
0.0664122
0.358235
-0.274666
0.317063
0.154488
-0.196884
-0.00917464
0.00888381
-0.0097427
0.0053352
0.014719
-0.0152247
0.00655569
-0.103751
0.0812145
0.587077
-0.607287
-0.0585423
0.488542
-0.65491
0.225028
-0.0586609
-0.00153338
-0.00724073
0.00142329
0.00735083
-0.105059
-0.175994
0.206028
0.0750256
-0.000466076
-0.00828612
-0.03246
0.0205322
0.0113663
-0.00532525
-0.0162659
-0.00467296
0.0053951
0.011411
-0.0121332
0.00715451
-0.000208756
-0.0074893
-0.000219476
-0.00605447
0.000388514
-0.000856303
0.00284432
0.0500177
0.247036
0.0640632
-0.187363
0.305497
0.228133
-0.346267
0.368128
-0.603803
0.354904
-0.11923
-0.0633294
0.052281
-0.013514
0.010403
0.0115899
0.141408
-0.388768
0.233783
0.0135769
-0.0487445
0.028727
0.335236
-0.014557
-0.313552
0.00290822
-0.00136512
-0.00897793
-0.210349
0.0659087
-0.0599232
0.204364
-0.003421
0.00328576
0.00719707
-0.270914
0.214303
-0.277878
3.73353e-06
0.0437021
0.471943
0.0605134
0.157289
-0.229448
0.00653497
-0.0051684
-0.00210627
0.00341086
0.00386383
-0.0481361
-0.144165
0.162981
0.0293195
-0.393397
0.00138147
-0.0057905
-0.00167741
-0.00388596
-0.00579879
0.00498296
-0.0214855
0.299306
-0.204792
-0.0154251
0.00438476
0.00355206
0.00748825
0.0639136
-0.0607351
0.0607364
-0.0228737
-0.301653
0.0148474
0.212875
-0.404832
0.269478
-0.0775211
0.47854
0.0693527
-0.0593501
0.0671797
-0.0588068
0.138952
-0.205771
0.252576
0.192926
0.00631561
0.00794233
0.261514
0.0525741
-0.0527864
-0.261302
-0.00367989
-0.0113482
0.014969
0.17383
-0.137094
-0.0390724
0.240642
0.00210762
0.00634966
0.00668035
0.00118374
-0.00290528
0.00962111
-0.00647933
0.000253703
-0.00339549
0.0141799
0.22349
-0.204904
-0.556763
-0.446794
0.122732
0.0136397
-0.322267
-0.00641024
0.00284001
0.0237874
0.0214593
-0.0317889
-0.0134578
0.00744126
0.00367872
-0.00282581
0.00836201
-0.00688593
0.0038591
0.00635511
0.026861
-0.0397187
0.00650265
-0.0445474
0.0715255
0.0490584
-0.166953
-0.0795457
0.134793
0.111706
0.0047016
-0.00751725
-0.0001567
-0.00970361
-0.00299686
0.00392576
-0.00864694
-0.047039
0.703968
-0.0593903
0.110443
-0.0156589
-0.059245
-0.00445392
0.00562792
0.00619731
0.0728581
0.0793776
-0.0580039
-0.0942316
-0.0146075
-0.00788355
0.0114775
0.00431735
-0.0321151
-0.00601135
0.140665
0.0577738
-0.120553
-0.219639
-0.0372376
0.0677947
0.189082
-0.0577964
0.255409
0.0488348
-0.246447
-0.00334953
0.00561871
0.00710143
-0.00937061
0.310752
-0.202969
0.197683
-0.305466
-0.217568
-0.071445
0.129775
0.159238
0.0119135
-0.00905549
0.0090729
-0.00935722
0.000906727
-0.238171
0.173788
-0.00545375
0.0113178
0.00318787
-0.00905196
-0.0182825
-0.00548315
0.00879737
0.00162227
0.00639741
-0.000682227
0.00929128
-0.177429
-0.201141
0.382719
-0.334985
-0.0282478
-0.0194861
-0.00518555
-0.00225922
0.00576843
0.00167635
-0.135262
0.177496
-0.206662
-0.333283
0.353946
-0.17991
0.159248
-0.526018
-0.0613798
0.500055
0.0873434
-0.113347
0.167283
-0.102072
-0.0339417
0.0256382
0.429352
0.00228343
0.00862361
-0.00435679
0.00243734
-0.00162155
0.0517667
-0.0370652
-0.00229045
0.00113575
-0.00219483
-0.003329
-0.0053033
0.00854487
-0.0132565
0.0153572
-0.00985224
0.00528213
-0.463295
-0.197223
0.292543
0.0118775
-0.0380879
-0.00453627
0.0307467
-0.318899
-0.0427584
0.00463057
0.00727639
-0.00447243
0.0271557
0.483774
-0.561245
-0.00113931
-0.00246712
-0.00184731
0.188946
-0.0737455
-0.22026
-0.154397
0.321699
-0.00514682
0.00839192
0.00265672
0.00629306
0.00779461
-0.104429
0.00408186
-0.0093837
-0.265905
-0.3781
0.0751525
0.145952
-0.0769741
-0.144131
0.0198303
0.00924183
9.36378e-06
-0.00012732
-0.00695299
0.00707094
-0.0101981
0.0157366
-0.00648817
0.000949713
-0.319665
-0.00927403
0.0595802
0.269359
-0.0555208
0.195837
-0.249807
0.267667
-0.30665
0.00163031
-0.618565
0.0692056
-0.0579271
-0.010647
-0.0356977
-0.209152
-0.176258
0.058133
0.327277
-0.0670558
0.196906
-0.194724
0.0202989
-0.0214686
0.022629
0.00852868
-0.00649638
0.00475519
0.00629801
0.010486
0.0387192
-0.0337215
0.532684
-0.561984
-0.273161
0.302461
-0.00633327
0.139677
-0.428396
0.512359
-0.0140799
-0.331347
0.344385
0.00104218
-0.0240456
0.0255473
-0.0203846
0.0188829
0.0502895
0.000586415
-0.0389984
-0.0160719
0.00588053
-0.010637
-0.140799
0.0319988
0.153635
-0.0448339
0.216082
-0.0595237
0.0444263
-0.200985
-0.0741348
0.049639
0.0637835
-0.199112
-0.117988
0.00996782
-0.262768
0.0556113
0.197189
0.0421621
0.0202985
-0.0267636
-0.0356969
0.000598125
-0.00154949
0.00768036
-0.0468369
0.364383
0.0186639
0.00347802
-0.0118652
-0.0102768
-0.00656547
0.00507144
-0.00466463
-0.0424819
0.0090586
0.00968525
0.00541088
-0.00555285
0.021221
-0.0254674
-0.0153105
0.019557
-0.113071
-0.537393
0.124446
0.0117489
-0.0106795
0.0047692
-0.00583871
0.41093
-0.161303
0.127506
0.222743
0.0827718
0.0608705
-0.077777
-0.0658653
-0.000303307
-0.00858295
-0.000467438
0.0093537
0.000130846
-0.00113911
0.0077821
0.0202317
-0.0230563
0.00909345
-0.00913257
0.00798304
-0.00794392
-0.0132441
-0.00205592
0.00302981
0.0794159
0.165032
-0.091379
-0.440383
-0.0434528
0.0310149
0.452821
-0.487436
0.0371937
0.00752676
-0.021014
-0.0173801
0.0234033
-0.00310249
0.00419796
-0.000208333
-0.000114658
-0.00749392
0.00781689
-0.016787
0.318644
-0.746329
0.185196
-0.0574322
0.0355139
0.019093
0.032487
0.00669393
-0.0102988
0.0246885
-0.0213147
0.0171585
-0.154166
-0.310003
0.0450729
0.419096
0.000117225
-0.00509626
0.000448815
0.291214
0.207822
-0.359359
-0.100243
0.0751077
0.00478716
0.00367877
-0.632016
-0.0571564
-0.0571562
0.118131
-0.0241167
-0.0930711
-0.000943472
0.0372018
0.0867637
-0.00497961
-0.00672159
-0.0220279
0.325518
-0.0906152
0.00667215
0.00246835
0.00048062
0.00385217
-0.0101709
0.0186784
0.00987772
-0.0172383
0.00795957
-0.0575591
0.0170573
0.0325423
0.263205
0.0215504
-0.243927
-0.0408278
-0.392624
0.379751
0.0257557
-0.0128822
-0.0411548
-0.433169
-0.0775414
-0.368153
0.17979
-0.00648208
0.0128965
-0.0158842
0.0094697
-0.0134397
-0.00504891
-0.00682082
-0.36511
0.264268
0.0570792
-0.0467789
-0.0412167
-0.046082
-0.355723
-0.0602814
0.344624
0.296941
-0.0494907
0.0454722
-0.13355
-0.0527213
0.579819
-0.0784842
-0.170092
-0.337065
0.249127
-0.331035
0.283086
0.288939
-0.240991
-0.0332634
0.131801
0.33438
-0.00352031
-0.00415828
0.000973088
0.00670549
-0.36283
-0.171089
0.50282
0.0310988
-0.00573113
-0.000847528
0.0114794
-0.00490074
0.0728063
-0.125458
-0.04939
0.102042
-0.274264
0.180943
0.398818
0.00776832
-0.00235175
-0.265644
-0.0262489
-0.363403
0.102459
0.287193
0.00847072
0.00130223
-0.0193721
-0.00386774
0.0141844
0.0123928
-0.0129584
-0.00963239
-0.385702
-0.157751
0.0801582
0.235704
-0.0728076
0.00107329
-0.000223561
0.00583061
0.00582279
-0.00224747
-0.540777
0.00423419
0.00725483
-0.00858081
0.0410455
-0.482349
-0.0461496
-0.595659
0.53946
-0.0568723
0.177804
0.025361
-0.0397182
-0.394487
0.150112
0.0221759
-0.341893
-0.0467548
0.366472
0.00888281
0.00853487
-0.00481273
0.006362
-0.00497028
-0.0171633
0.00395932
0.0185991
-0.00726981
-0.000373123
-0.0120298
0.0130419
-0.00236429
-0.545528
0.603419
-0.0555269
0.0130901
-0.363789
0.0670026
-0.0589365
0.0300812
0.034574
0.00426258
-0.156086
0.287077
0.0971423
0.0393592
0.476254
-0.476658
-0.0389556
0.547306
-0.522515
-0.000712557
-0.00526523
-0.230393
0.225684
-0.230948
0.256023
0.0132816
-0.0383563
-0.00418251
0.0276892
0.0235993
-0.0286053
0.260797
-0.00452485
-0.227667
0.0655287
0.154552
-0.00832761
-0.000207516
0.008483
0.0439656
-0.260962
-0.563097
-0.0335081
-0.0583046
-0.0970546
0.0231582
0.284035
-0.0153851
-0.00173658
-0.0570945
0.169723
-0.172821
0.0601921
-0.0248233
0.0219647
-0.293162
0.203824
0.00920502
-0.0072205
0.00103235
-0.00301682
-0.0492132
0.0574093
0.00863579
0.218257
0.0360745
-0.211163
-0.0043953
-0.0088943
0.00606948
0.0457505
0.0765049
0.0707489
0.299537
-0.0763837
0.0275792
0.00712074
-0.0144682
0.010334
-0.0631255
0.12565
0.0321299
-0.0255099
0.0457388
-0.0523588
0.0124795
-0.00730944
-0.00460356
0.00477238
0.00409377
0.110452
-0.0289051
0.0918273
-0.173375
-0.0162664
0.0367028
0.00756964
-0.028006
0.0897908
-0.373529
0.397252
-0.306902
0.244439
-0.423708
-0.00406793
0.0139831
-0.0105339
0.00676028
0.00608722
0.0204682
-0.222616
-0.0665967
0.18862
0.100592
0.0861163
-0.0919177
-0.028182
0.171587
-0.0758367
0.0709107
-0.166661
0.385853
-0.397376
0.0608506
-0.0493282
0.252849
-0.137157
0.185506
-0.301198
0.415711
-0.422043
0.0562615
-0.0499295
0.45332
-0.375253
-0.0558918
0.452456
-0.020755
-0.338716
-0.0466833
0.50695
-0.0351319
0.000391249
0.0300761
-0.167364
-0.376984
0.342541
0.201807
-0.0251733
-0.041809
-0.101897
0.154345
-0.0261668
-0.321076
-0.516131
0.0257949
-0.0551916
0.178934
-0.0312312
-0.133522
-0.0234332
0.0152243
-0.00271982
0.0727532
0.247462
-0.0587013
-0.371376
0.027126
-0.0418874
0.475026
-0.460265
0.209913
-0.090844
0.0139713
-0.0313335
-0.186958
0.20432
-0.0416371
0.279231
-0.266199
-0.0464867
0.487728
-0.038857
0.227742
0.0293716
0.0197172
-0.0159318
-0.328689
0.316909
-0.128485
-0.244934
0.0781702
0.243296
-0.016276
0.0289724
-0.0289627
-0.000960454
-0.0137572
-0.00906673
0.0279809
0.0166578
-0.0259603
0.00256515
-0.00343639
-0.00223125
0.258747
-0.0447878
0.00555399
-0.00742051
0.0310555
-0.0413166
0.185104
-0.174843
-0.374551
0.192324
0.254979
0.380174
-0.0174883
0.000430504
-0.363116
0.322785
0.0353018
-0.0488627
-0.0486707
0.356937
-0.0444786
0.0390915
-0.351549
-0.110424
0.76983
-0.055987
0.40632
0.0594325
-0.0500415
-0.00144497
0.013813
0.0268324
-0.0150286
-0.0320554
0.0256154
0.0141778
-0.00256807
-0.214371
0.202761
0.337477
0.171049
-0.0552063
0.216998
-0.182613
0.0222574
-0.0566421
0.247874
-0.198924
0.163939
-0.199493
0.0864462
-0.0508926
0.169096
0.118369
-0.0704674
0.0711367
-0.00248318
0.0143499
-0.0830033
0.175953
-0.0768984
0.0725324
0.0392425
-0.0168719
0.0143322
0.241427
0.108228
-0.101781
0.361303
-0.0166223
0.00724696
-0.351928
0.154966
-0.14239
0.122934
-0.135511
0.225768
-0.239256
-0.0668572
0.0803452
0.304061
-0.521048
-0.0930171
0.17354
-0.0696587
0.0966282
-0.200509
0.360874
0.0226828
-0.0222534
0.174319
-0.172148
0.0339037
0.0200219
0.415981
-0.411502
-0.0245012
0.281917
-0.318537
0.0151934
0.021426
-0.0426821
0.194239
-0.137585
-0.0405418
0.236951
0.228124
-0.207798
0.145061
-0.165387
0.271401
-0.186145
0.202419
0.0531473
-0.0602163
0.171008
0.00728097
0.147201
-0.138433
-0.0160491
-0.0236502
0.124813
-0.110802
0.00963899
0.094279
-0.0496378
-0.0710342
0.0263932
0.0594244
0.0159959
-0.00428364
0.166078
-0.0728181
0.036132
-0.0293502
0.0324608
0.0781025
0.218815
-0.120964
0.170943
-0.14872
0.204881
-0.0555658
0.0764534
0.239774
0.10137
-0.0997176
0.0909642
-0.0526861
0.0138281
-0.0238397
0.320859
-0.310848
0.33421
-0.0240896
0.0177725
-0.327893
0.239514
0.0297113
0.0126916
0.246443
-0.12471
0.131116
0.299286
-0.20832
-0.0632087
0.0647201
-0.40895
0.407439
0.387969
-0.37707
-0.00824328
-0.00265565
0.0272225
0.0229118
0.288882
-0.495303
0.234343
0.249056
-0.211998
0.388234
0.0164676
-0.0170807
0.23648
0.146635
-0.136672
-0.325981
-0.12382
0.158978
-0.0931895
0.0843809
0.17384
-0.190271
-0.278217
0.203226
0.265262
0.164802
-0.151636
-0.00588511
0.1313
-0.122951
0.212335
-0.198919
0.0646869
-0.00438504
0.317092
-0.348494
0.0357871
0.417519
-0.0330269
0.00347622
-0.120713
-0.319783
0.101028
0.227918
-0.443905
0.307173
-0.043694
0.348191
0.0433492
-0.347846
0.0318207
-0.0302557
-0.017841
0.125102
0.325409
-0.146984
0.0559527
0.15656
-0.0626811
0.31597
-0.314637
0.0613476
-0.00598232
0.303845
-0.323289
-0.1688
0.0611038
-0.429236
-0.0608357
0.428968
0.0547247
-0.0773868
-0.0832255
0.105888
-0.0815611
0.194101
0.270178
-0.00811317
0.00859729
-0.00350086
0.303411
-0.407543
-0.252814
0.485008
-0.253883
-0.407432
0.176307
0.273867
0.420426
-0.335951
-0.0560417
-0.0284327
-0.000383974
0.00144006
-0.00946528
-0.00133201
0.260327
-0.362081
0.0304482
-0.0183477
0.193012
-0.118725
0.346139
0.3627
0.190956
-0.358122
-0.195534
-0.264197
0.268113
-0.377445
-0.00827592
-0.0592433
0.463169
-0.114035
0.0470923
-0.0599242
0.0167325
0.031186
-0.0052842
-0.181604
0.174719
-0.135504
0.0962229
-0.124203
-0.0751376
0.076886
0.0529764
-0.118314
0.0578867
0.118779
-0.0583513
-0.0497256
0.0766084
0.00924921
-0.305456
0.156979
-0.0678
-0.0341506
0.204077
0.00900676
0.0240269
0.160663
0.149628
0.100562
-0.0313748
-0.0906335
0.0823146
-0.32962
0.337938
-0.195433
0.0543923
-0.0463671
0.0787788
-0.158389
0.17227
0.225634
-0.270652
0.161424
0.172144
-0.062916
-0.0527486
0.0370354
-0.0862165
0.0621816
-0.0179251
0.0189262
-0.00708791
0.103077
-0.0992595
0.235957
-0.374529
0.378942
0.0993293
-0.103742
0.0386162
0.0497296
0.0385577
0.263972
-0.257116
-0.0454142
-0.0717561
0.326532
-0.336337
0.251478
-0.076902
-0.141427
0.0369573
-0.00515815
0.000930341
0.00295235
-0.4257
0.0138425
-0.197468
0.0992874
0.201258
-0.319192
0.300913
0.164508
-0.146229
0.0211548
-0.462502
0.473884
-0.0325368
-0.136674
0.329662
0.212279
-0.338459
-0.112385
0.142646
-0.175994
0.222203
0.285987
-0.141884
-0.330247
0.334071
-0.0237007
-0.260148
0.285189
-0.0610941
0.0411134
-0.318681
-0.260302
0.345525
0.233458
0.00629402
0.00690769
-0.0215854
0.00838371
-0.0736404
0.023703
-0.231264
0.281201
0.449127
0.271225
-0.437068
-0.283284
-0.216503
0.20305
0.207554
0.251041
-0.153723
0.0881885
-0.285013
0.200676
-0.0360884
-0.0173663
0.00372915
-0.301377
-0.0938638
0.172626
-0.214611
0.029518
0.223751
-0.0386583
-0.234307
0.186299
0.240333
-0.47223
-0.0301101
0.149486
-0.0390069
0.00317141
-0.00842998
0.422778
-0.435867
0.0153974
0.274144
0.146325
-0.0476077
0.0245351
-0.102696
0.228236
-0.181922
-0.0559667
0.0528735
-0.0831232
0.0114133
0.37068
-0.0590687
-0.323025
0.242561
0.178886
-0.260023
-0.137869
-0.0910333
0.220743
0.00815938
-0.0073763
-0.00635297
0.0328547
0.410118
-0.0492962
0.334299
-0.0514169
0.503304
-0.498158
-0.0516328
-0.449231
0.456098
-0.0503197
0.346125
0.0626019
-0.052801
-0.435341
-0.0499109
-0.432955
0.426861
0.0558387
-0.0497448
0.489847
-0.538254
0.102896
-0.0544888
0.377987
0.0570751
-0.0492086
-0.515556
0.538167
0.0303379
-0.0529487
0.498362
0.0139998
-0.0507445
0.514312
0.0531544
-0.515207
-0.0522589
-0.572417
0.683268
-0.0573562
-0.0534947
-0.481723
0.0496964
0.487135
-0.0551084
0.442581
0.0593747
-0.45272
-0.0492352
-0.0495773
0.0609088
0.395614
-0.0502025
-0.432713
0.440209
0.0424848
-0.0499802
0.0901903
0.302118
-0.0548315
-0.0663516
0.181729
-0.269239
0.261528
-0.168283
0.0126481
-0.00861096
0.00403116
0.0700941
-0.0562225
0.151303
-0.224824
0.214929
0.313859
-0.208271
0.313508
-0.039504
0.325807
-0.272125
-0.0114976
0.00140496
0.134906
-0.203637
-0.0369335
0.0268845
0.15725
-0.0269769
0.33314
-0.338194
0.358923
0.0290724
-0.0498015
0.442102
0.0172042
-0.0491884
0.360116
0.0244386
-0.0502551
-0.435677
0.367419
-0.0536622
0.181102
-0.0458802
-0.222685
0.337429
-0.394337
0.402617
-0.161514
-0.0094176
-0.0131209
-0.363743
0.386282
0.0503437
-0.055539
0.168176
0.0552733
0.0256356
-0.212872
-0.257702
0.0924181
-0.110092
0.275376
0.257878
-0.422035
0.0162684
-0.0387825
-0.0135743
0.238945
-0.259533
-0.253914
0.274502
-0.242458
-0.157516
0.114961
-0.343962
0.356874
0.0395043
-0.0524158
-0.381282
0.421658
-0.049793
-0.318046
0.325668
-0.0563673
-0.345566
-0.0558538
-0.355769
0.360293
0.04574
-0.0502639
0.316514
-0.31893
0.0581565
-0.0557411
-0.576662
0.465707
0.160238
-0.0492832
-0.384077
0.401612
0.0317417
-0.0492766
-0.534287
-0.0638037
0.649043
-0.050952
0.475737
0.168821
-0.59259
-0.0519681
0.474687
-0.452728
0.0311418
-0.0531013
0.503831
-0.490729
0.0405855
-0.0536876
0.060149
-0.392145
-0.0104358
0.00820283
0.319325
0.205216
0.237785
-0.270857
0.215639
0.160669
-0.148072
0.340589
-0.231772
0.368395
-0.248017
-0.0241544
-0.289541
0.0602147
0.107515
-0.109843
-0.360534
0.0552545
-0.0504896
-0.056038
0.0290427
-0.0500318
0.0787465
0.449166
-0.0521753
0.0547851
-0.0526223
0.505732
0.0520659
-0.0539665
-0.332784
0.0433357
-0.0561176
0.0431756
-0.0492659
-0.0533186
-0.324662
0.0607728
-0.0550409
-0.455219
-0.0720514
-0.0493923
0.0148616
-0.0507866
-0.126144
-0.380923
0.257567
-0.295549
-0.0447513
0.0550176
-0.164212
-0.028674
-0.271394
0.290702
-0.162849
0.0217741
0.174243
-0.390719
0.276539
-0.237531
0.229593
0.218183
-0.189287
0.00264495
0.000365803
0.00169086
-0.107485
0.102466
-0.239914
-0.163616
-0.00780655
0.0181794
0.143829
0.301668
0.22447
-0.0440146
-0.345181
0.0534763
-0.280834
-0.0418819
0.0588436
-0.0480388
0.0399695
-0.0507743
-0.000386248
0.00490193
-0.268256
0.226623
-0.458893
0.132577
-0.029723
-0.00180564
0.194847
0.0548774
-0.0477672
0.439875
0.0512579
-0.0525024
0.525499
-0.0323031
-0.0655429
-0.427653
0.0589835
-0.0493575
0.237121
-0.352094
0.0835273
-0.33569
0.00970426
0.0271664
0.0382822
0.262025
-0.276047
0.192908
-0.0494076
-0.299764
-0.10611
0.383723
-0.368246
-0.080982
0.0868506
-0.00183751
-0.311026
0.0831395
0.0619823
-0.188369
-0.00405742
0.230392
-0.108402
-0.00271663
0.381883
-0.37192
0.185552
-0.104093
0.13418
-0.011148
0.00334122
0.0412997
-0.0499069
0.0771552
0.0258933
0.106455
-0.0507337
-0.423998
-0.092822
0.282513
0.00971741
0.146487
-0.158773
0.0424321
-0.052187
-0.0440954
0.2623
0.304265
-0.203792
-0.281741
0.181268
0.167522
-0.0608995
0.350018
-0.147588
-0.243735
0.0715394