/*--------------------------------*- C++ -*----------------------------------*\
  =========                 |
  \\      /  F ield         | OpenFOAM: The Open Source CFD Toolbox
   \\    /   O peration     | Website:  https://openfoam.org
    \\  /    A nd           | Version:  10
     \\/     M anipulation  |
\*---------------------------------------------------------------------------*/
FoamFile
{
    format      ascii;
    class       volVectorField;
    location    "750";
    object      U;
}
// * * * * * * * * * * * * * * * * * * * * * * * * * * * * * * * * * * * * * //

dimensions      [0 1 -1 0 0 0 0];

internalField   nonuniform List<vector> 
23845
(
(0.715296 -0.107908 1.16936e-20)
(0.479762 0.098057 -5.1427e-21)
(0.241827 -0.0124991 2.73825e-20)
(-0.136868 0.0165208 7.27317e-22)
(0.0790598 0.059299 5.33566e-21)
(0.812233 -0.00717378 -4.06406e-24)
(0.918497 -0.0297627 -1.28447e-20)
(-0.0759063 0.0665905 -2.66467e-22)
(0.933252 -0.00742468 6.34239e-24)
(0.855368 0.0971887 -5.72838e-21)
(0.452942 -0.047965 -5.20463e-21)
(0.75379 -0.00107141 3.81421e-24)
(0.927797 0.0150296 8.28931e-24)
(0.889917 -0.00818738 1.51061e-24)
(0.717911 0.0348113 -2.15571e-20)
(0.93502 0.0735682 -1.01323e-21)
(0.811063 0.0202459 2.07662e-23)
(0.604248 -0.0161794 -9.67026e-24)
(0.948365 -0.0256637 -1.82153e-22)
(0.778079 0.00798427 2.08471e-22)
(0.891678 0.0990608 1.89341e-20)
(0.405813 -0.0362611 -9.24605e-21)
(1.05715 -0.0531937 -3.18529e-21)
(0.939773 -0.00788316 7.87038e-24)
(0.763435 0.0874068 -9.92186e-22)
(0.991171 0.00624714 -6.28892e-24)
(0.94019 0.0535998 1.06458e-20)
(0.807366 -0.00868286 3.91837e-22)
(-0.0526721 -0.118014 7.79713e-21)
(0.803278 0.00908252 -1.28417e-22)
(-0.148939 -0.00871204 3.22001e-20)
(-0.0312836 0.0864224 4.15919e-22)
(0.417699 -0.0203669 1.00949e-20)
(0.653242 -0.0216546 -3.32732e-24)
(0.750658 0.00028504 -1.49776e-23)
(0.743979 0.00389406 1.9089e-22)
(-0.0439173 0.117431 -7.14435e-21)
(0.752662 -0.00105102 -3.8173e-24)
(0.780584 -0.00430847 -1.78408e-23)
(0.918184 0.00819998 8.53919e-24)
(0.97625 -0.0320134 1.35111e-22)
(0.738995 -0.0159394 3.21546e-22)
(0.948331 -0.0136919 -2.15726e-22)
(0.686576 0.0131584 -1.59083e-22)
(1.0085 -0.00677543 -6.2109e-23)
(0.886142 0.0157411 4.85433e-23)
(-0.0686143 -0.0253498 -1.85138e-21)
(0.893171 -0.0705918 -4.52318e-21)
(-0.0237363 0.00957913 1.55961e-21)
(-0.0596462 -0.116022 3.42926e-21)
(-0.0494719 -0.044501 7.14298e-22)
(0.157093 -0.0160151 -3.99821e-21)
(-0.0222145 -0.0411216 -3.63368e-21)
(0.858451 -0.00892273 -1.55115e-22)
(-0.0344898 0.0963483 7.58155e-21)
(0.867392 0.0202983 1.32367e-23)
(0.214406 0.0716801 2.68385e-20)
(-0.0912368 -0.0369687 1.87231e-20)
(0.786227 0.105332 -3.67667e-20)
(0.0120634 0.0268654 -1.72386e-20)
(-0.0427626 0.103221 2.54838e-21)
(0.700094 0.0149305 6.04682e-23)
(0.92351 0.0625393 -1.11779e-21)
(-0.037349 -0.0968004 3.35241e-21)
(0.958754 -0.00793074 -1.00869e-23)
(0.910128 0.0144822 -1.64352e-22)
(0.980706 0.0359918 1.09595e-20)
(1.0179 0.00551474 9.79284e-23)
(1.01526 -0.00664435 -1.70345e-22)
(0.937925 -0.0327597 5.55335e-23)
(-0.0607432 0.0876626 2.7192e-22)
(0.148326 0.00507141 1.67059e-20)
(0.982445 0.00883095 1.58376e-23)
(0.798881 0.0326199 1.24202e-20)
(0.978664 -0.00762658 -2.66236e-22)
(0.661257 0.0336654 -7.69551e-23)
(0.759064 -0.00216543 -5.2285e-24)
(0.777757 -0.00468481 2.21506e-23)
(-0.119255 -0.0227359 3.81411e-21)
(0.790824 0.0301963 -7.26195e-25)
(0.97016 0.0710144 -2.58474e-21)
(0.684156 -0.0395466 -3.79495e-20)
(0.329406 0.086554 -4.55502e-21)
(-0.0853175 -0.0535038 -7.91166e-22)
(0.24614 -0.00187643 -7.82933e-21)
(0.751922 0.0014723 -3.56869e-23)
(0.613418 0.0594821 1.44034e-20)
(-0.0178162 -0.013654 1.69421e-20)
(0.958856 -0.00736658 8.67711e-23)
(0.856665 0.0293602 -1.19666e-22)
(-0.0480873 -0.0822235 -1.26415e-20)
(0.972299 0.0412664 -6.33144e-22)
(-0.0480457 -0.106513 1.13094e-20)
(0.753161 -0.00505893 -1.67359e-22)
(-0.0883126 -0.0251386 2.80513e-21)
(-0.0538185 -0.0924933 -3.54553e-20)
(0.846201 -0.0196684 3.32356e-23)
(0.874911 -0.073223 -3.5022e-22)
(0.977216 -0.00750422 1.88822e-23)
(-0.00797197 0.0386134 -8.13929e-21)
(0.851264 -0.0234355 6.82178e-23)
(0.977096 0.0324775 3.75994e-21)
(0.409803 -0.0990119 1.47705e-20)
(-0.069044 -0.0879234 -1.58737e-20)
(-0.053938 -0.0940441 -2.95425e-20)
(-0.093686 -0.0453793 5.22166e-21)
(0.831615 -0.00806104 1.0565e-23)
(0.990361 -0.00749632 1.60249e-22)
(1.03665 0.0275022 -1.6938e-21)
(0.714442 0.0137273 1.76248e-22)
(0.501283 -0.0437693 -1.52225e-21)
(0.757594 -0.00235592 -7.81959e-24)
(0.361435 0.0128149 1.59735e-20)
(0.84856 -0.0892302 -2.16245e-21)
(0.747683 0.0044395 -9.25149e-23)
(0.955651 -0.0900464 -2.70498e-21)
(0.975996 -0.00743043 -1.32689e-22)
(0.94112 0.0837695 -5.80112e-21)
(-0.0525374 -0.119559 5.72714e-21)
(-0.0219806 0.0841996 -1.58656e-20)
(0.770272 -0.0036738 -2.44545e-23)
(-0.0397085 -0.0942588 -1.96373e-21)
(0.938808 0.0322537 6.33222e-23)
(0.0235825 0.0434527 3.4915e-20)
(0.961385 0.0310447 -3.63491e-21)
(0.986079 0.00674381 -1.03452e-23)
(-0.0457732 0.0997646 2.14535e-21)
(-0.0606897 -0.111338 -1.29585e-20)
(0.126759 0.0221505 1.05286e-21)
(-0.0567225 -0.0345953 1.25934e-20)
(0.130378 0.02713 1.851e-20)
(0.475232 0.0852884 5.80772e-22)
(0.321538 -0.0513333 2.61652e-22)
(0.858823 -0.00792768 1.41693e-24)
(0.827198 -0.0289074 2.78059e-23)
(0.577079 -0.10796 4.27853e-21)
(-0.0659713 0.0942206 3.32172e-20)
(0.755099 -0.001218 1.02341e-23)
(1.0278 -0.0316074 6.48979e-23)
(0.785333 -0.00504746 1.6825e-23)
(-0.0552502 -0.124426 -1.56645e-20)
(0.730173 -0.0138992 -9.41898e-23)
(0.769736 0.0048712 5.06535e-23)
(0.663218 0.0125714 3.40862e-22)
(0.928911 -0.0542328 -2.30827e-21)
(0.702939 0.0118781 -1.84605e-22)
(0.954609 -0.0886574 -3.15213e-22)
(0.392169 0.0228587 4.26837e-20)
(0.00959146 0.0733858 -1.2965e-20)
(0.869517 0.0393138 2.13398e-22)
(0.441368 0.0183757 -1.67931e-20)
(0.950921 0.010296 -9.65728e-24)
(0.447299 -0.0659064 1.54066e-20)
(0.904843 -0.0110059 7.58121e-23)
(0.322708 -0.00612528 -5.8212e-21)
(0.732131 0.0504986 -8.17002e-22)
(0.236348 -0.0840711 -5.10615e-21)
(0.753992 -0.00322528 -7.31336e-23)
(0.156362 0.0202199 1.29401e-21)
(-0.0539534 -0.107878 3.73435e-21)
(0.927741 0.0407621 2.82683e-22)
(0.66209 -0.0319286 -1.81482e-21)
(-0.0835564 0.012399 -1.02769e-21)
(0.951149 -0.00762219 1.50146e-23)
(0.992357 -0.0156296 -1.95384e-23)
(0.791884 0.0389635 1.71299e-22)
(0.829962 -0.00729617 -2.56437e-23)
(-0.045041 0.101679 -5.63842e-21)
(0.799361 -0.00830628 -5.68801e-23)
(0.700782 -0.0113126 2.19292e-22)
(0.842262 0.00748776 2.3424e-23)
(-0.118144 0.0212217 5.205e-21)
(0.945674 -0.00835279 2.72917e-24)
(-0.0111578 0.0451373 -7.36406e-21)
(0.956889 0.00763954 2.86283e-22)
(-0.107499 -0.00170462 -4.46906e-21)
(0.975644 0.0494633 6.16977e-22)
(0.676251 0.0610541 1.47826e-21)
(0.99073 -0.00671053 -1.25815e-23)
(0.758483 -0.00354699 2.63339e-23)
(0.00944133 -0.0420189 6.85416e-21)
(-0.0392395 -0.0251315 8.24003e-22)
(0.765254 0.0360756 1.09647e-20)
(0.487436 -0.035946 -6.23569e-22)
(0.925871 -0.0631325 -2.98859e-21)
(0.917433 0.0198005 1.26127e-23)
(0.728263 0.0152801 -8.48356e-23)
(-0.0776111 -0.0607192 2.74595e-21)
(-0.0553073 0.11774 1.84054e-21)
(0.766063 -0.0164612 -3.38717e-23)
(-0.0465427 0.10239 2.9403e-20)
(0.888226 -0.00810672 2.4054e-23)
(0.893829 0.00788696 9.60277e-24)
(0.847106 0.0077475 -1.37886e-23)
(0.93715 0.0502498 -8.29495e-22)
(0.908553 -0.00809569 -6.97493e-23)
(-0.0648192 -0.0927795 -2.73074e-21)
(-0.05564 0.108703 1.94035e-21)
(-0.0789368 -0.0704524 -1.00447e-20)
(0.567754 -0.0520191 2.58745e-22)
(0.704635 0.037835 -7.14086e-23)
(0.897541 -0.00900379 -3.18314e-22)
(0.00306724 0.0745775 -6.84144e-21)
(0.35468 0.0685633 1.17014e-21)
(-0.0822961 0.0589895 1.16031e-20)
(-0.0844085 0.0261028 7.32012e-22)
(0.220237 0.00287492 -3.81247e-20)
(0.807012 -0.00611218 -1.54278e-23)
(0.741303 -0.0917897 -1.13603e-20)
(0.615192 0.0198647 -1.84154e-22)
(0.723183 0.0283989 -5.72719e-23)
(-0.048579 0.115037 1.05924e-20)
(0.975843 -0.0581313 9.30031e-23)
(0.830622 -0.0105734 5.3529e-23)
(-0.0345011 -0.0365052 2.50123e-21)
(-0.0398306 -0.10771 -5.97401e-21)
(0.25255 0.0483343 -3.63336e-21)
(0.705623 0.0161243 -5.84645e-23)
(-0.0527473 0.118879 1.56003e-20)
(0.150617 0.0267419 -1.863e-22)
(0.977367 -0.0102757 -1.43798e-23)
(0.733913 0.0341077 -6.48527e-21)
(-0.066809 0.0908925 -2.07728e-20)
(0.818036 0.0513268 -9.85443e-22)
(0.675639 0.0103805 -1.0866e-22)
(0.460145 -0.0217691 2.14278e-20)
(-0.0596253 -0.112918 -7.47014e-21)
(0.88599 -0.00798129 6.22298e-23)
(0.811262 0.0075373 4.35239e-24)
(0.976562 0.0321336 5.42999e-22)
(0.773058 -0.00545871 1.22178e-22)
(-0.0284599 -0.00656308 -9.45527e-21)
(0.757009 -0.0024301 6.22205e-24)
(1.01294 0.00556492 -1.75189e-23)
(0.12084 0.0642334 8.30655e-21)
(-0.0497381 -0.113093 -1.06159e-20)
(0.965207 -0.00829174 6.09903e-23)
(-0.154042 0.00778943 8.797e-21)
(0.95435 0.00759813 9.57481e-23)
(-0.0792093 -0.0260545 2.19964e-20)
(-0.0223944 0.024882 8.69252e-21)
(0.941979 -0.0875977 6.52704e-21)
(-0.0973121 -0.0432827 -1.28207e-20)
(0.12722 0.0668275 -1.37386e-20)
(-0.0427235 0.0925977 3.14407e-21)
(0.914423 0.0652587 -2.38279e-22)
(0.839799 -0.0080258 -3.37641e-24)
(1.01556 -0.00612866 2.93006e-22)
(-0.0968952 0.0112952 2.11536e-21)
(0.611991 -0.0311312 5.2199e-21)
(0.854544 -0.014932 -2.64362e-23)
(0.750982 0.00244241 -1.04297e-23)
(-0.0514825 0.0540885 -4.39125e-21)
(0.965186 0.0142603 -1.76216e-24)
(0.791084 -0.0306591 -8.00292e-21)
(-0.0510766 0.087661 2.17517e-21)
(-0.00427657 0.0733888 4.21615e-20)
(-0.0618883 0.0616463 7.51085e-22)
(0.747009 -0.0047965 -2.53881e-24)
(0.931449 -0.00844943 -1.06144e-22)
(-0.0136012 0.000428001 -2.1017e-20)
(0.747278 -0.00231695 -1.86758e-23)
(-0.0500855 0.0955026 -3.47187e-21)
(0.549089 -0.0455744 1.83388e-21)
(0.641384 0.0461369 -2.58094e-23)
(0.942896 0.00705404 -2.69367e-23)
(-0.116771 -0.00461852 -3.10255e-21)
(0.0569998 0.0445614 -1.41269e-21)
(-0.140162 -0.0019009 5.5143e-21)
(-0.148274 0.00950493 -1.55222e-20)
(0.770475 -0.00402586 9.64444e-24)
(-0.114502 0.0268199 -3.10894e-21)
(-0.0441132 -0.0147537 -5.09261e-22)
(0.881637 0.00809491 -7.21287e-23)
(0.442407 -0.031974 -1.06392e-21)
(0.901168 0.00807106 1.05763e-23)
(-0.0592852 -0.0695883 6.91207e-21)
(0.877268 -0.00794615 -3.21335e-23)
(-0.065113 -0.0718806 3.70413e-21)
(1.05962 0.0567648 1.8181e-20)
(-0.0837123 -0.0474501 1.8872e-20)
(0.815725 0.00762976 -1.90678e-23)
(-0.0607776 -0.034382 1.00881e-20)
(0.878399 -0.0489843 5.8997e-23)
(0.748127 -0.000115902 -1.52926e-23)
(-0.0199851 -0.0881927 -1.29114e-20)
(-0.0259673 0.035061 -3.95202e-21)
(0.911561 -0.00795516 -3.22454e-23)
(-0.0855569 0.0381855 -3.88291e-22)
(0.430057 -0.0203338 1.00072e-20)
(-0.109131 0.0100485 2.5625e-21)
(-0.0366391 0.0296461 -1.05572e-20)
(-0.0348167 -0.0983414 2.60023e-20)
(-0.0606951 0.0727826 -5.21513e-21)
(-0.0968867 0.0234987 3.36299e-22)
(0.751566 -0.00126902 -5.796e-24)
(-0.0109178 0.0830038 1.6705e-20)
(0.854162 -0.00838765 -8.8144e-23)
(0.750507 0.00127143 -5.25297e-24)
(-0.0528962 -0.11836 -6.90363e-21)
(0.145737 0.0165321 3.12478e-20)
(0.45959 -0.0187552 1.49251e-20)
(-0.0473599 -0.11182 1.90906e-20)
(-0.156464 -0.00110621 8.10028e-20)
(0.861045 0.00777112 2.31648e-23)
(-0.161202 0.00173183 -4.71399e-20)
(-0.0391947 -0.0927459 -1.30177e-20)
(-0.0463528 -0.0293364 -3.14946e-21)
(0.860478 -0.0226514 1.86392e-24)
(-0.0647006 0.0979558 4.48279e-21)
(-0.0418261 5.9217e-05 -1.27734e-20)
(0.328797 -0.0618173 3.15372e-20)
(0.919232 -0.0207597 1.3472e-23)
(0.838287 0.00766234 9.20956e-23)
(0.0548716 0.00242343 3.07976e-20)
(-0.0565441 -0.122678 1.45006e-20)
(-0.0165567 -0.0856771 1.79935e-21)
(0.326834 0.0504392 -1.37467e-20)
(-0.0515985 0.0960984 5.61689e-21)
(0.973722 -0.0113342 2.38172e-23)
(-0.0554687 0.0877379 8.79005e-21)
(-0.0469369 0.109133 -8.06574e-21)
(0.022789 0.0637671 -2.29632e-20)
(0.816057 -0.0091304 -1.39949e-22)
(0.535989 -0.0290612 -1.24564e-20)
(0.802157 0.00670736 -1.86692e-23)
(-0.137021 -0.00770905 -1.9399e-20)
(-0.0767858 -0.0268231 1.15544e-20)
(-0.00122759 -0.0705064 -6.12414e-22)
(0.575266 0.0158996 4.63072e-22)
(0.343067 -0.030746 5.20635e-20)
(0.821549 -0.0466257 -1.89997e-22)
(-0.0501176 -0.0675543 9.63357e-21)
(0.742299 -0.000547002 1.51589e-23)
(0.000323159 -0.0749819 -4.66618e-21)
(-0.140178 0.0129481 -2.26589e-21)
(-0.0709207 -0.0144558 -1.20601e-20)
(0.59333 0.0136291 -2.22438e-22)
(0.726214 0.010891 2.45253e-22)
(-0.123699 -0.00972318 1.07424e-20)
(-0.0894822 0.0229653 -1.32485e-21)
(0.0159153 0.0698013 -1.3237e-20)
(0.454823 -0.0403804 6.37905e-21)
(1.01097 0.00638685 -4.10416e-23)
(1.01075 -0.00683862 3.9604e-23)
(-0.0696917 0.0671259 -4.84681e-21)
(0.744119 0.00160408 -3.62233e-23)
(-0.0559187 -0.0817786 6.04872e-21)
(-0.128629 -0.0149255 9.1737e-21)
(0.368818 -0.0166237 -4.16962e-21)
(-0.0959006 -0.0109735 1.6394e-20)
(0.124393 -0.0292151 -6.93804e-21)
(-0.0619101 0.109876 2.05816e-20)
(-0.056485 -0.0538934 -1.07603e-20)
(-0.0212108 0.0420442 2.14689e-20)
(0.89202 0.00781655 5.49256e-23)
(0.690018 -0.00964108 -2.31457e-23)
(0.968692 0.00832316 -3.12497e-23)
(0.481323 0.0274033 -7.47762e-21)
(-0.0970577 -0.0395262 3.60019e-21)
(0.0677959 0.0353145 -1.22138e-20)
(0.964194 0.0065422 -4.54637e-23)
(0.948407 -0.0896128 -6.97862e-21)
(0.887939 -0.0437637 -8.50997e-22)
(-0.0539018 0.119433 1.0665e-20)
(0.839831 -0.00758488 1.90391e-24)
(0.0266443 -0.0567034 -3.11919e-21)
(0.763542 -0.00658823 7.39046e-23)
(-0.0527419 -0.119893 6.71496e-21)
(0.990916 0.00709064 2.93935e-23)
(0.705901 -0.0127234 -4.14875e-23)
(-0.0472624 -0.0938919 1.90659e-20)
(-0.0301385 0.0666881 -1.37958e-20)
(0.754603 0.00173966 8.27193e-24)
(0.758021 -0.00422252 3.82049e-23)
(-0.0520833 0.0777267 -3.45904e-21)
(0.0514536 -0.0070771 -2.19058e-20)
(-0.117885 0.0159063 -3.6715e-21)
(0.72245 -0.0127875 -9.73158e-23)
(-0.0858122 0.0359656 6.88368e-21)
(0.655495 -0.0373389 -1.22148e-20)
(0.746588 -0.00272344 -1.14111e-23)
(1.02719 -0.0658004 1.49951e-20)
(1.01309 -0.00675619 2.88706e-23)
(1.01254 0.00599989 2.61726e-24)
(0.76432 -0.00334447 -1.23981e-23)
(0.788734 -0.00604964 -2.26028e-22)
(-0.116851 -0.0175429 -6.35798e-21)
(0.619063 0.0310464 -7.15636e-24)
(-0.0984614 -0.025735 -1.34541e-20)
(0.943909 -0.0412142 -2.71646e-21)
(0.693454 0.0107352 6.88576e-23)
(-0.0355856 -0.0839217 3.07617e-20)
(-0.052563 -0.0851634 7.55275e-21)
(-0.0389318 0.0148968 9.4666e-21)
(-0.053532 0.113723 6.6368e-21)
(0.556414 0.0395223 -8.31989e-22)
(0.997328 -0.00713882 -9.38281e-24)
(0.933501 -0.0336006 -2.62511e-22)
(0.740594 -0.000843169 6.11407e-23)
(-0.023944 -0.00833607 -1.80059e-20)
(-0.159801 0.000811313 4.82081e-20)
(-0.0749035 0.0447874 2.64744e-22)
(-0.05273 0.0210878 -7.71444e-21)
(0.126566 0.0493501 1.9342e-20)
(0.696887 0.0378618 1.15729e-20)
(0.802341 -0.00593646 2.3104e-24)
(-0.0347017 0.0770187 1.9609e-20)
(-0.0537706 -0.101575 9.78219e-22)
(-0.0293858 0.0812831 -1.61712e-20)
(0.552003 -0.0241835 -1.04722e-20)
(1.01422 0.00520603 2.3125e-23)
(0.856449 0.0325226 9.77835e-21)
(0.0293571 -0.0639371 1.14205e-20)
(0.336607 0.0947792 -1.51552e-20)
(0.0811597 -0.00395834 -1.63278e-20)
(-0.135642 -0.00535328 1.73998e-20)
(0.443844 -0.0266449 -4.15691e-22)
(0.787194 0.00595599 5.76698e-23)
(0.962223 0.092945 1.35647e-21)
(0.143871 -0.00734933 6.89415e-21)
(0.749165 0.00990903 6.30493e-23)
(0.921974 -0.00775029 1.0338e-24)
(-0.130774 -0.00201394 6.20094e-21)
(-0.0461022 0.0872202 6.56012e-21)
(0.655767 0.102094 5.89476e-20)
(0.110827 0.0127701 -6.39297e-21)
(-0.137985 -0.00675434 1.45389e-20)
(0.0117517 0.0324018 1.15686e-20)
(0.0539163 0.0304409 -2.57976e-20)
(0.897848 -0.00798275 3.97432e-24)
(0.643532 0.0182793 4.24061e-23)
(0.0134607 -0.069909 -2.51213e-20)
(0.565799 0.00720496 3.38874e-22)
(0.855683 0.0121871 -4.67558e-24)
(0.985432 -0.00874821 8.32962e-23)
(0.752589 0.00102229 3.12031e-23)
(0.91846 0.0190929 -2.52472e-23)
(-0.0461898 -0.110559 4.29779e-21)
(-0.0211413 0.0261254 4.19825e-21)
(0.577281 0.0315998 -4.91041e-22)
(0.0532188 -0.0218256 -1.55217e-20)
(-0.0563075 0.0968109 -2.11763e-20)
(0.116491 0.0294426 -4.98964e-21)
(-0.149335 -0.00258536 -8.24285e-21)
(-0.0166696 -0.0839506 -6.67657e-21)
(0.790779 -0.00912252 2.93993e-22)
(-0.16236 0.00389538 -2.31421e-20)
(0.78157 0.0059371 -3.61058e-23)
(-0.0915712 0.030339 -6.03038e-21)
(-0.122688 0.00236443 3.03167e-21)
(0.94363 -0.0106594 -6.2652e-23)
(0.0227923 0.0351634 -1.60478e-20)
(0.746144 0.00275016 -2.13854e-22)
(1.00796 0.00562854 -1.27386e-22)
(0.0143727 -0.0691655 -1.63024e-21)
(0.0056972 0.031142 4.89457e-21)
(0.348708 0.0696243 2.23487e-21)
(-0.0685737 0.0637244 1.29353e-20)
(0.873557 -0.00904402 1.86424e-22)
(0.778074 -0.0911694 -6.65329e-21)
(-0.149023 0.00426721 -5.24036e-20)
(-0.0628238 -0.102656 2.26031e-20)
(-0.037186 -0.0293337 -7.20464e-21)
(0.781159 0.00601933 5.67578e-23)
(0.789373 -0.00570124 -1.55221e-23)
(0.836785 0.00803003 3.19093e-23)
(-0.0316192 -0.0214792 3.48352e-21)
(1.00968 0.00669365 -1.97786e-23)
(0.341489 -0.0116441 -4.04234e-21)
(0.811182 0.00808376 -3.52835e-23)
(0.81988 -0.00683323 -1.17404e-23)
(-0.168528 -0.00103391 -3.83813e-21)
(-0.0391659 0.0909532 7.87229e-21)
(-0.0315497 0.0909543 -2.22003e-20)
(0.105529 -0.0618427 7.25244e-21)
(0.956724 -0.00975051 -4.28581e-23)
(-0.0414143 0.0814367 -6.141e-21)
(0.843636 -0.00914298 -2.52969e-22)
(0.889247 0.0334406 9.26381e-23)
(-0.134125 0.00990872 2.25857e-21)
(-0.162092 -0.000202389 -2.09674e-20)
(-0.163408 0.0026286 -8.39066e-21)
(0.388563 0.0307687 -2.92529e-21)
(0.567036 0.0274993 5.22518e-24)
(0.536003 0.0350364 -1.07146e-20)
(0.764281 -0.0035886 2.12681e-23)
(0.757923 0.00309404 -2.45371e-23)
(0.28067 0.0251427 -3.66897e-21)
(0.02273 0.0613237 -9.61004e-21)
(0.987909 0.00694532 -1.6646e-23)
(0.166063 -0.0124392 2.26088e-20)
(-0.0559985 0.0881441 6.91395e-21)
(-0.155698 0.00355191 -1.6595e-20)
(-0.0722713 0.0657175 -7.45952e-21)
(-0.105453 0.0164696 6.72484e-20)
(0.982294 -0.00938668 -3.04671e-22)
(0.0734012 0.00558652 -7.36995e-21)
(0.971088 -0.00732942 8.18116e-24)
(0.751573 0.00309944 1.06464e-22)
(0.464437 -0.0558113 1.85523e-20)
(-0.0527704 0.125068 -1.36585e-20)
(0.0421527 0.0595682 2.09364e-21)
(-0.128232 0.00245164 -1.51987e-20)
(-0.0951702 0.0461147 1.19737e-20)
(-0.10842 -0.0342682 1.30557e-20)
(0.525017 -0.0382535 1.58473e-21)
(0.960505 0.0172409 4.05026e-23)
(0.774137 -0.0077219 -6.90617e-23)
(0.0317521 0.0619913 -2.36139e-20)
(-0.164235 -0.00259224 1.11023e-20)
(0.0567977 -0.0528348 -1.80615e-20)
(-0.0453565 -0.118291 3.07584e-20)
(-0.168341 0.00017492 1.03867e-20)
(0.871259 0.00818122 -4.92721e-23)
(1.0083 0.00687827 -2.27823e-24)
(-0.165883 -0.00127432 4.7617e-21)
(0.319096 -0.00767774 -9.71398e-21)
(0.287152 -0.00179575 5.2447e-21)
(0.750872 0.0115725 1.6388e-22)
(-0.0336186 -0.101335 2.56613e-20)
(0.878079 -0.00957854 -5.10536e-24)
(0.604883 0.0174993 -4.05382e-23)
(-0.0167849 -0.0799352 1.16562e-20)
(1.00616 0.00659386 -3.26795e-23)
(0.853213 -0.0382693 5.70825e-21)
(0.748496 -0.034352 -5.92096e-21)
(-0.0299363 0.0949838 -2.46336e-20)
(0.982206 -0.0739935 1.18142e-22)
(-0.0529549 0.117486 -3.56462e-21)
(-0.0513915 -0.111858 1.01662e-21)
(0.212557 -0.00556599 -5.36469e-21)
(0.118924 -0.0489799 2.36928e-20)
(1.07541 0.0456194 -1.48302e-20)
(0.90144 0.0253292 3.67751e-24)
(0.959629 0.0179578 1.41417e-23)
(0.851939 -0.00940079 1.33739e-22)
(0.00373364 -0.075452 1.81236e-20)
(-0.0725426 0.0020911 -8.48652e-20)
(-0.119761 -0.0266141 -1.58226e-20)
(0.253761 0.00415246 6.34495e-21)
(0.882702 -0.00887364 -9.08342e-23)
(1.05592 0.0632916 1.56552e-20)
(1.05227 -0.0602121 -2.59876e-21)
(0.934333 -0.0457863 7.05844e-23)
(1.04574 -0.0688127 -7.09008e-21)
(0.359401 0.0283204 9.82013e-22)
(0.935872 -0.0138457 3.76481e-22)
(0.826208 -0.00957694 1.24844e-22)
(0.926434 0.0120333 1.21555e-22)
(0.909311 -0.0111896 6.07274e-23)
(0.749379 5.29168e-06 3.1635e-23)
(0.0212775 -0.0446399 -2.79692e-21)
(0.900394 -0.012875 -2.12665e-22)
(-0.0865402 0.0520276 -4.23812e-21)
(0.513283 0.0811272 -1.62123e-20)
(0.717758 -0.0107667 -5.86878e-22)
(0.0540409 0.0546802 -1.23499e-20)
(0.742373 0.00121291 -1.20325e-23)
(0.785357 0.00712364 -2.68331e-22)
(-0.0953449 -0.00126924 1.78579e-21)
(-0.13533 0.00547068 -2.16396e-21)
(0.0409473 -0.0395653 -9.74408e-21)
(0.774044 -0.00830512 3.2474e-23)
(0.711862 0.0125825 1.65677e-23)
(-0.0511079 -0.0767622 -5.21025e-23)
(-0.0481873 0.0968849 5.33824e-22)
(0.982629 0.00657369 5.49622e-23)
(-0.0486626 0.113476 -2.22066e-20)
(0.963585 0.0149493 -1.56265e-23)
(1.00736 -0.0075627 3.8699e-23)
(0.817976 -0.043045 2.52817e-21)
(0.916644 0.0207156 -5.72177e-24)
(0.828388 0.00768584 1.64907e-22)
(0.918837 -0.0783953 6.7771e-21)
(0.0182981 -0.0381833 -1.72532e-21)
(0.00686233 -0.0576635 -4.55349e-20)
(0.212995 -0.0124999 8.41678e-21)
(-0.0655036 -0.0574839 8.37714e-21)
(-0.0521939 0.0201251 1.41626e-20)
(1.00493 -0.00821823 4.05144e-23)
(0.757978 -0.00228473 -9.20842e-25)
(0.930073 -0.0480479 5.2483e-22)
(0.332328 0.0219359 8.53511e-21)
(-0.00874838 0.0776746 1.10285e-20)
(0.673984 -0.00592445 2.94955e-22)
(0.984407 0.00865844 -2.50894e-24)
(0.977353 -0.00926802 7.25358e-24)
(-0.066001 -0.0426282 -1.16608e-20)
(0.974477 -0.00912357 3.37091e-22)
(1.08286 -0.0391203 -6.69623e-21)
(0.429311 0.0228648 1.1992e-21)
(0.658062 -0.101474 -3.96619e-21)
(0.473971 -0.0291728 -7.85195e-22)
(-0.0589338 -0.0903357 -3.95232e-21)
(0.674577 -0.00725572 3.31429e-22)
(1.00804 -0.00680247 -9.09042e-23)
(0.872719 -0.00845099 2.86382e-22)
(0.608567 -0.0149519 3.49054e-23)
(0.762613 0.00345613 1.93922e-23)
(0.146821 -0.010976 8.54228e-21)
(0.852607 -0.0117074 -2.00687e-22)
(-0.0204526 0.00640614 -3.56507e-21)
(0.603962 0.0363817 -9.22349e-21)
(-0.059433 0.029533 -1.07879e-21)
(0.638507 0.0862142 -4.14261e-22)
(-0.0630877 0.0495834 -1.08554e-21)
(-0.0387848 0.0159789 -2.19457e-20)
(0.850489 -0.0334434 -1.93164e-21)
(0.747018 0.0493764 1.05658e-21)
(-0.131349 -0.00618351 7.50203e-20)
(0.387447 0.0914016 -1.01667e-20)
(0.212457 -0.067722 -1.84747e-20)
(0.0291581 0.0374673 -5.0709e-21)
(-0.0038174 0.0709322 3.05364e-20)
(0.599489 0.105587 2.41463e-20)
(0.122751 0.0231193 -2.43453e-20)
(0.263262 0.0790057 1.83716e-20)
(0.811016 0.0104461 -1.14496e-22)
(0.86412 -0.0105529 -3.55384e-23)
(-0.0180379 -0.0172345 2.20131e-20)
(-0.0550524 -0.10231 -2.93813e-21)
(-0.0805573 -0.0141932 4.00913e-20)
(0.717271 0.0425137 1.89849e-23)
(0.214924 0.0792685 -3.11896e-20)
(0.48644 0.0121526 6.01533e-23)
(0.979182 -0.0282985 -3.50918e-23)
(0.617436 0.00700108 7.22908e-22)
(0.988334 -0.0186495 9.98193e-24)
(0.977892 -0.0722397 2.62777e-21)
(0.929547 0.0141822 2.81294e-23)
(0.899773 -0.0126853 -9.91776e-23)
(-0.139779 0.0134994 2.52746e-20)
(0.809686 -0.00902953 1.80965e-23)
(0.753506 0.00176362 5.51046e-23)
(0.405187 -0.0156937 3.05923e-20)
(0.489752 0.104395 6.83499e-21)
(0.930512 -0.0813585 2.3344e-21)
(1.00449 -0.00884878 3.76251e-23)
(0.494114 0.0284303 -3.89798e-22)
(0.0381384 -0.0514526 -5.52973e-21)
(0.608258 0.027097 -3.16983e-22)
(0.769901 -0.00647476 -9.81466e-23)
(0.962053 0.0161024 -7.45447e-24)
(0.743487 -0.107633 -1.42734e-20)
(0.522413 0.0733324 1.9493e-21)
(0.840703 -0.0998585 -4.41362e-21)
(0.966728 0.0135784 3.01981e-24)
(0.646728 0.0830746 -3.09577e-23)
(0.179303 0.0143899 -1.87721e-21)
(0.734275 0.00287572 5.67144e-23)
(0.746998 0.000986912 -4.03931e-23)
(0.0847667 0.00679259 -8.30796e-21)
(-0.104083 -0.0370245 9.16522e-21)
(-0.035985 -0.100684 -3.26251e-20)
(0.324178 -0.0194444 9.53922e-21)
(0.0475937 -0.0542596 -9.84749e-23)
(0.767639 0.0842369 9.56029e-22)
(-0.0136016 0.0706608 2.07295e-20)
(0.484822 0.0453583 -4.15978e-22)
(0.67897 0.0322696 -6.89397e-23)
(0.905714 0.0285269 1.23742e-22)
(0.714407 0.026464 -9.1293e-24)
(0.270468 0.0927095 1.24433e-20)
(0.779941 -0.0269917 3.36893e-25)
(1.00199 -0.00761019 -1.27236e-22)
(0.989475 -0.0176761 -2.88125e-23)
(0.11992 0.0622024 1.73056e-20)
(-0.171263 0.000807997 3.09559e-20)
(0.549382 -0.0732487 -1.09884e-21)
(0.979054 -0.0702671 -6.06852e-22)
(0.456801 0.0136849 -3.11007e-22)
(0.629014 -0.0530653 3.94425e-22)
(0.418111 0.0105894 -2.69992e-22)
(0.461734 0.00873982 4.15581e-22)
(0.19312 0.0133732 1.15682e-20)
(0.489575 0.00766303 -2.22464e-22)
(0.129787 0.0141903 1.64173e-20)
(0.672933 -0.0528729 1.15741e-21)
(0.776414 0.0278573 -5.78841e-23)
(0.582317 -0.0576067 -4.39573e-21)
(0.525062 0.00344894 -1.24894e-22)
(0.775015 0.0140418 3.32287e-22)
(0.549229 0.00556596 1.32144e-22)
(0.77604 0.0269174 5.754e-24)
(0.506639 0.0795694 -4.56959e-21)
(0.869765 0.0188471 6.85897e-24)
(0.572586 0.00241195 -6.2452e-22)
(0.392647 0.0575133 -6.73882e-21)
(0.652357 0.0805272 1.37292e-21)
(0.600605 0.00533227 -5.96184e-22)
(0.792492 -0.0167488 5.34251e-23)
(0.428017 0.00461223 5.72264e-22)
(0.382652 0.000227842 2.95719e-22)
(0.338463 -0.00237295 5.09699e-22)
(0.274597 0.00657774 -5.43545e-21)
(0.217986 0.00995357 -6.69991e-21)
(0.469684 0.00237241 -2.59809e-22)
(0.147673 0.00175783 -1.38365e-20)
(0.496442 0.00209821 4.3142e-23)
(0.640462 -0.0578553 7.56106e-22)
(0.534619 0.000229861 -7.97956e-24)
(0.70487 -0.0523077 -1.56577e-22)
(0.553416 0.00221289 8.77941e-23)
(0.663241 -0.0199007 -3.41781e-23)
(0.719384 -0.0246672 2.93518e-24)
(0.582012 0.00119131 -9.12875e-23)
(0.616093 0.00414762 -5.65028e-22)
(0.603694 0.000946219 2.69242e-22)
(0.954999 -0.0207616 -1.21708e-22)
(0.817059 0.0183714 -2.97728e-24)
(-0.16327 -0.000357343 -2.69405e-20)
(0.952021 -0.0087205 -5.59306e-23)
(0.820321 -0.0173483 -1.22645e-22)
(0.811953 0.0199247 6.65803e-23)
(0.619196 0.000946467 5.23118e-22)
(0.821348 -0.00783118 2.48956e-22)
(0.560353 -0.0398681 1.83121e-21)
(0.630496 0.00246253 9.02232e-24)
(0.395977 0.0155127 1.25955e-21)
(0.347382 0.0138874 3.96039e-22)
(0.514316 0.0120056 2.09398e-22)
(0.638898 -0.000951653 -2.7032e-22)
(0.814745 0.0177483 -1.26349e-23)
(0.738929 -0.00438285 -3.66821e-23)
(0.839785 -0.0690469 -1.44568e-21)
(0.86046 -0.0546502 -8.62737e-22)
(0.0841507 -0.0200793 3.03025e-20)
(0.942854 -0.0115164 -1.66237e-22)
(0.435634 -0.0181793 -2.92094e-22)
(0.655153 0.000462394 -2.27609e-22)
(0.613344 -0.0140331 -4.93984e-23)
(0.756334 -0.0063265 -1.6173e-22)
(0.821368 0.0173742 4.064e-23)
(0.273535 0.0321288 -1.03159e-22)
(0.658831 0.0191871 -4.73873e-22)
(0.00726649 0.00398676 -4.69403e-21)
(0.647392 0.005759 1.03659e-22)
(0.898172 -0.00866475 -6.76895e-23)
(0.83412 0.0115425 3.28551e-23)
(0.998513 -0.0067356 -1.21347e-22)
(0.666877 0.00161747 -3.95248e-23)
(0.702387 0.0356924 8.1832e-23)
(-0.0541885 0.0833302 -1.53221e-20)
(0.974259 -0.00872783 1.65313e-22)
(0.663948 0.00582127 -2.21409e-24)
(0.112267 -0.00497562 8.6505e-21)
(0.669603 0.000965666 2.97333e-22)
(0.816913 0.0116175 -1.72174e-23)
(0.784967 0.00950637 1.20975e-22)
(0.391439 -0.0263363 -4.03419e-20)
(0.790152 0.012285 1.04901e-22)
(1.01287 -0.00659633 -4.05875e-23)
(0.518827 0.0761572 2.38325e-21)
(0.815071 0.0186992 -3.23485e-23)
(0.0142377 0.057773 4.75978e-21)
(0.658284 -0.0647292 -3.74324e-21)
(0.698222 -0.0563042 -3.76715e-21)
(0.247614 0.0111156 -3.52847e-21)
(0.300313 0.00399485 -6.23714e-21)
(0.171012 -0.0180027 3.41931e-20)
(0.764025 0.0144686 -2.21949e-22)
(0.481613 -0.00170502 6.16009e-22)
(0.495971 0.0267623 -2.40193e-22)
(0.411166 0.0314413 1.9727e-21)
(0.508097 -0.000375938 1.48259e-22)
(0.84668 0.0464003 -3.70549e-22)
(0.56327 0.000779798 1.9623e-22)
(0.3513 0.0908983 -3.50456e-20)
(0.589806 0.00434847 3.98812e-23)
(0.684776 0.000746824 1.40145e-22)
(0.227873 -0.00172457 -5.00833e-21)
(0.284292 -0.00673092 3.05358e-21)
(0.314032 0.0457646 8.36027e-21)
(-0.103783 -0.0160027 -1.69061e-20)
(0.733056 -0.0502967 1.85949e-21)
(0.808135 0.0115862 5.69818e-23)
(0.228588 0.0790729 1.74336e-20)
(0.700247 0.0568054 -6.21512e-22)
(0.7192 0.0236651 -2.78096e-22)
(0.611131 -0.00148857 6.04009e-23)
(0.558209 -0.00256988 -1.3128e-23)
(-0.0453374 0.0458016 3.31033e-21)
(0.900934 0.0083549 3.10372e-23)
(0.660555 -0.0462689 -1.2857e-21)
(0.680491 0.00392613 7.6911e-23)
(0.920974 0.0168916 -1.10814e-23)
(0.655578 0.0111311 -2.87415e-22)
(0.683762 0.00601405 -1.92959e-22)
(0.681997 0.0022862 -2.344e-22)
(0.626861 -0.00214316 -5.2271e-22)
(0.832437 -0.018434 -2.89105e-23)
(0.723868 -0.0234509 3.59134e-23)
(0.751631 -0.0141404 1.0341e-22)
(0.661138 0.00177008 1.84773e-22)
(0.824622 -0.0166246 -9.47197e-23)
(0.00818337 0.0470804 1.71301e-20)
(0.550506 0.0166789 6.56072e-23)
(0.806242 -0.010695 -2.52558e-22)
(0.622281 0.0140307 1.78085e-22)
(0.641636 0.0106685 3.81834e-22)
(0.854095 -0.0171444 1.30811e-22)
(0.172214 -0.0282234 -1.48583e-20)
(0.680394 0.0444638 2.30198e-22)
(0.591565 0.053551 -4.65146e-22)
(0.746801 0.0354283 1.34432e-22)
(0.76266 0.0151217 2.44314e-22)
(0.821747 0.0121661 -3.07377e-22)
(0.812769 0.0174175 1.84281e-23)
(0.777665 -0.0154383 -4.31033e-23)
(0.382138 -0.094984 -5.50603e-21)
(0.741121 -0.0681189 8.05225e-21)
(0.285206 -0.0230951 -1.86469e-21)
(0.823646 -0.0329915 1.35476e-22)
(0.690003 0.00349994 1.21668e-22)
(0.515932 -0.0121114 1.46731e-22)
(-0.0433393 0.105307 8.75368e-21)
(0.652122 0.0450791 -3.88829e-22)
(0.977777 0.0305079 -2.48648e-22)
(0.974145 0.0469442 3.5297e-22)
(0.996393 0.012322 2.0287e-24)
(0.991418 0.0160022 -3.49472e-23)
(0.976221 -0.055459 -2.29481e-21)
(0.987196 -0.0195847 8.34776e-23)
(0.988162 0.0189369 -1.09622e-25)
(1.00397 0.00940689 3.23559e-23)
(0.980853 -0.0267996 8.14421e-23)
(1.0001 0.010978 -4.607e-23)
(0.991819 -0.0148854 -6.74408e-23)
(0.997943 0.0116548 3.38114e-23)
(0.998818 0.00902398 1.8019e-22)
(1.00624 0.00861099 -1.46825e-24)
(0.984869 0.0202527 -3.12896e-23)
(0.977994 -0.0302114 9.04224e-23)
(0.991062 -0.0167358 -4.92869e-23)
(0.989888 0.0175453 -4.44834e-23)
(0.981557 -0.0670157 1.67132e-21)
(0.66998 0.00917888 1.16157e-22)
(0.63592 -0.00777523 1.45291e-22)
(0.115012 0.00557416 -2.53516e-20)
(0.189641 -0.0135406 -1.0331e-20)
(1.00423 -0.00773817 1.8225e-22)
(0.949167 0.00722354 5.64595e-23)
(0.732189 0.0122296 -8.20033e-22)
(0.685992 -0.073492 1.07948e-21)
(0.354476 -0.000564919 1.69943e-22)
(0.576392 0.0552619 -3.16988e-22)
(0.398078 -0.00131075 -3.51123e-22)
(0.708267 0.0249074 -1.51595e-23)
(0.980232 0.0266051 -4.6035e-22)
(0.977609 0.0290925 -4.36501e-23)