/*--------------------------------*- C++ -*----------------------------------*\
  =========                 |
  \\      /  F ield         | OpenFOAM: The Open Source CFD Toolbox
   \\    /   O peration     | Website:  https://openfoam.org
    \\  /    A nd           | Version:  10
     \\/     M anipulation  |
\*---------------------------------------------------------------------------*/
FoamFile
{
    format      ascii;
    class       volScalarField;
    location    "1300";
    object      epsilon;
}
// * * * * * * * * * * * * * * * * * * * * * * * * * * * * * * * * * * * * * //

dimensions      [0 2 -3 0 0 0 0];

internalField   nonuniform List<scalar> 
10435
(
0.223357
0.644464
0.522558
0.570303
0.935748
0.831845
0.480606
0.360304
0.257108
0.6906
0.848743
0.589952
0.646016
0.0582031
0.0659633
0.456007
0.0526729
0.751595
0.196345
0.271282
0.407018
0.439847
0.498037
0.258894
0.640948
0.0185659
0.0303045
0.565238
0.0288385
0.735514
0.604504
0.924144
0.328857
0.0294439
0.374527
0.284178
0.429071
0.0303836
0.0129324
0.220589
0.808818
0.493421
0.0343632
0.462451
0.49603
0.238498
0.800944
0.0307741
0.22754
0.313156
0.381001
0.731797
0.0125263
0.0242573
0.0142373
0.0264671
0.390806
0.0325909
0.0435124
0.32552
0.0139825
0.523219
0.0330073
0.7685
0.501006
0.556907
0.0388257
0.0373596
0.38764
0.261896
0.0238191
0.0243227
0.0228315
0.543878
0.0774696
0.037732
0.280913
0.454292
0.296441
0.0719811
0.309385
0.147494
0.0121369
0.0247556
0.301642
0.190596
0.238448
0.558345
0.107774
0.312917
0.632669
0.698942
0.178132
0.135323
0.395406
0.194673
0.70482
0.0761957
0.0473834
0.794979
0.0892322
1.02509
0.178544
0.47863
0.975644
0.523494
0.210461
0.313629
0.296007
0.0840547
0.296553
1.06684
0.121165
0.100168
0.813109
0.409593
0.770229
0.264131
0.652005
0.680772
0.73621
0.0303774
0.356109
0.0772566
1.12075
0.0163222
0.696065
0.0377036
0.853077
0.0287757
0.0526443
1.07798
0.414889
0.0629268
0.0270343
0.0113021
0.194153
0.584183
0.559592
0.367134
0.320131
0.557525
0.0352437
0.691839
0.449066
0.059799
0.122626
0.79665
0.0505881
0.619248
0.0265356
0.481014
0.268052
0.627958
0.732622
0.0223355
1.12289
0.45838
0.716498
0.884171
0.567061
0.0562656
0.799475
0.442474
0.0936219
0.793948
0.321748
0.569094
0.418675
0.755637
0.659841
0.0180691
0.0280074
0.0705417
0.534114
0.752353
0.397504
0.0418273
0.272237
0.0313801
0.753524
0.864761
0.625713
0.015288
0.55323
0.0271904
0.0302303
0.4394
0.933175
0.705637
0.678034
0.0119191
0.0270063
0.303398
1.10446
0.413409
0.0448416
0.1381
0.0365225
0.449312
0.101381
0.02965
0.600011
0.0319417
0.56758
0.890305
0.736472
0.578912
0.0341093
0.444551
0.0224992
0.507596
0.714011
0.476611
0.0301619
0.0563973
0.114702
0.0152719
0.0188754
0.0513436
0.0296795
0.0456691
0.0372481
0.0718932
0.020827
0.401297
0.0156823
0.103576
0.656894
0.0439755
0.0413009
0.360843
0.0171759
0.469134
0.0311008
0.0484866
0.360318
0.0207206
0.357043
0.62418
0.398333
0.0183127
0.0164114
0.0261125
0.863403
0.284325
0.13281
0.387913
0.0225955
0.60136
0.0228883
0.126621
0.667475
0.438919
0.412331
0.831621
0.0205475
0.430714
0.0199615
0.0294514
0.449625
0.672504
0.0182446
0.341795
0.142924
0.0438433
0.33229
0.552873
0.0138498
0.881517
0.470153
0.346817
0.387188
0.608556
0.0207277
0.661218
0.0292429
0.98448
0.440821
0.324317
0.652585
0.0419036
0.490516
0.0840048
0.162069
0.0133083
0.877498
0.0142856
0.0251858
0.0304094
0.091611
0.996568
0.0343415
0.365651
0.013209
0.0233964
0.0511341
0.179471
0.994243
0.598453
0.0375382
0.367844
0.510123
0.024491
0.978564
0.0647849
0.0469983
0.455886
0.577836
0.0253824
0.243093
0.026642
0.443695
0.854319
0.294492
0.0238859
0.0160888
0.638932
0.0397087
0.567317
0.932655
0.0311273
0.209777
0.0117081
0.299112
0.607069
0.0227279
0.530733
0.0406305
0.0314421
0.287123
0.0323732
0.0253524
0.502931
0.550199
0.0343301
0.0243965
0.0234429
0.0271136
0.0272377
0.0243653
0.0234404
0.0136698
0.0279777
0.0269722
0.0256001
0.0361119
0.0319049
0.0115095
0.272111
0.0257873
0.601621
0.0297526
0.554993
0.273861
0.206605
0.643254
0.539905
0.0253262
0.0275136
0.0239787
0.0168106
0.0266764
0.0135053
0.0297558
0.0258017
0.0343693
0.515305
0.0251171
0.254422
0.0154743
0.0273965
0.679134
0.177333
0.0136092
0.0301489
0.0319219
0.0310684
0.0272057
0.0204589
0.034906
0.0148096
0.314327
0.0373144
0.366206
0.252427
0.582769
0.613789
0.232333
0.538813
0.335878
0.0549632
0.0217209
0.0278193
0.0243974
0.520355
0.0263567
0.687124
0.0333347
0.031664
0.0285248
0.0337993
0.0174052
0.469829
0.0313275
0.341211
0.443964
0.0179227
0.0221686
0.0311705
0.186142
0.0310211
0.0236302
0.0196616
0.0266474
0.0332067
0.0291435
0.538695
0.0238993
0.0225578
0.0292236
0.0306342
0.762241
0.0140469
0.0119132
0.144466
0.0271324
0.000122141
0.000117286
0.000109923
0.00010117
9.16419e-05
8.14795e-05
7.08403e-05
5.99459e-05
4.90943e-05
0.000133178
0.000126463
0.000117479
0.000107382
9.66908e-05
8.56568e-05
7.44719e-05
6.34331e-05
5.29603e-05
0.000146906
0.000138389
0.000127662
0.000116016
0.000104019
9.19394e-05
8.00075e-05
6.85251e-05
5.78837e-05
0.000165032
0.000154553
0.000141742
0.000128227
0.000114612
0.000101171
8.8141e-05
7.57886e-05
6.44264e-05
0.000189771
0.000176908
0.00016146
0.000145561
0.00012983
0.000114542
9.99118e-05
8.61423e-05
7.34197e-05
0.000224143
0.000208174
0.000189255
0.000170207
0.000151627
0.000133796
0.000116889
0.000101048
8.6375e-05
0.000272492
0.000252212
0.000228585
0.000205282
0.000182829
0.000161492
0.000141401
0.000122671
0.000105397
0.000341271
0.000314371
0.000284258
0.000255194
0.000227484
0.000201339
0.000176837
0.000154085
0.000133242
0.000438857
0.000401521
0.00036272
0.000326006
0.000291273
0.000258612
0.000228044
0.000199649
0.000173596
0.000573206
0.000521654
0.000472162
0.000425691
0.000381807
0.000340498
0.00030175
0.000265577
0.000232005
0.000749295
0.000683425
0.000622326
0.000564037
0.000508617
0.00045616
0.000406727
0.000360294
0.000316774
0.000969151
0.000896525
0.000824154
0.000752097
0.000682567
0.000616205
0.000553331
0.000493957
0.000438019
0.00124306
0.00117375
0.0010895
0.00100123
0.00091468
0.000831452
0.000752237
0.00067716
0.000606351
0.00160599
0.00153162
0.00143018
0.00132168
0.00121462
0.00111132
0.00101276
0.000919179
0.000830874
0.00208269
0.00198281
0.00185483
0.0017208
0.00158933
0.00146268
0.00134176
0.00122671
0.00111729
0.00267983
0.00253045
0.0023665
0.002202
0.00204262
0.00188972
0.00174392
0.00160535
0.00147376
0.00337226
0.00316612
0.0029626
0.00276527
0.00257589
0.00239479
0.00222226
0.00205856
0.00190419
0.00412391
0.00387716
0.00363846
0.00340949
0.00319009
0.00298022
0.00277997
0.00258953
0.00240945
0.00493008
0.004659
0.00439261
0.00413556
0.00388801
0.00365037
0.0034227
0.00320507
0.0029977
0.00579888
0.00551644
0.00522918
0.00494826
0.00467579
0.00441294
0.00415978
0.00391639
0.00368344
0.00674667
0.00646104
0.00615705
0.00585607
0.00556292
0.00527906
0.00500406
0.00473736
0.00447913
0.0077973
0.00750818
0.00718754
0.00686961
0.00656143
0.00626313
0.00597276
0.00568848
0.00540965
0.00898684
0.00867465
0.00833168
0.00799983
0.00768467
0.00738191
0.00708669
0.00679521
0.00650684
0.0103601
0.00997232
0.00959569
0.00925533
0.0089456
0.00865323
0.00836876
0.00808521
0.00780155
0.0119568
0.011393
0.0109783
0.0106428
0.0103582
0.0100968
0.00984453
0.00959259
0.00930448
0.00106005
0.0010383
0.00102138
0.00100921
0.00100179
0.000998981
0.00100068
0.00100668
0.00101679
0.00103069
0.00104805
0.00106848
0.00109149
0.00111657
0.00114308
0.0011704
0.00119783
0.00122463
0.00125004
0.00127332
0.00129362
0.00131004
0.00132136
0.00132555
0.00132157
0.0013102
0.00129218
0.00126721
0.0012336
0.00119336
0.00114765
0.00109691
0.00104163
0.000982869
0.000921577
0.000858686
0.000795089
0.000731636
0.000669127
0.0006083
0.000549808
0.000494227
0.000442028
0.00039359
0.000349203
0.000309056
0.000273235
0.000241744
0.000214487
0.000191296
0.000171912
0.000156018
0.000143293
0.000133406
0.000126062
0.000121001
0.000118016
0.000116953
0.00011767
0.00107197
0.00105287
0.00103824
0.00102806
0.00102224
0.00102064
0.00102302
0.00102923
0.00103907
0.00105229
0.00106857
0.00108755
0.0011088
0.00113181
0.00115604
0.00118087
0.00120564
0.00122968
0.00125228
0.00127272
0.00129025
0.00130411
0.00131346
0.00131728
0.00131441
0.00130399
0.00128561
0.00125937
0.00122591
0.00118631
0.00114137
0.00109164
0.0010377
0.000980283
0.000920182
0.000858249
0.000795348
0.000732327
0.000670001
0.000609126
0.000550395
0.000494421
0.000441731
0.000392763
0.000347854
0.000307238
0.000271033
0.000239247
0.000211782
0.000188441
0.000168945
0.000152965
0.000140143
0.000130142
0.000122651
0.000117402
0.000114176
0.000112814
0.00011316
0.00106231
0.00104458
0.00103094
0.00102138
0.00101584
0.00101424
0.00101644
0.00102228
0.00103155
0.00104399
0.00105931
0.00107715
0.0010971
0.0011187
0.00114141
0.00116468
0.00118788
0.00121038
0.00123148
0.00125048
0.00126665
0.00127918
0.00128721
0.00128981
0.00128608
0.00127537
0.00125735
0.00123201
0.00119976
0.00116132
0.00111746
0.00106886
0.00101618
0.000960142
0.000901505
0.000841064
0.000779626
0.000717996
0.00065695
0.000597226
0.000539503
0.000484398
0.00043245
0.000384113
0.000339745
0.000299598
0.000263807
0.000232389
0.000205245
0.000182171
0.000162885
0.000147059
0.00013434
0.000124383
0.000116877
0.00011155
0.000108183
0.000106613
0.000106684
0.00102871
0.00101218
0.00099952
0.000990687
0.000985612
0.000984197
0.000986311
0.000991794
0.00100045
0.00101204
0.00102629
0.00104286
0.00106139
0.00108145
0.00110254
0.00112415
0.00114568
0.00116653
0.00118603
0.00120348
0.00121815
0.00122927
0.00123604
0.00123765
0.00123335
0.00122258
0.001205
0.00118063
0.00114977
0.00111298
0.00107091
0.00102425
0.000973675
0.000919907
0.000863677
0.00080573
0.000746823
0.000687706
0.00062911
0.000571735
0.000516234
0.000463205
0.000413177
0.000366603
0.000323842
0.000285145
0.000250652
0.000220381
0.000194231
0.000172005
0.000153427
0.00013818
0.000125909
0.000116277
0.000108983
0.000103763
0.000100402
9.87404e-05
9.86269e-05
0.000980505
0.000965395
0.000953866
0.000945876
0.000941359
0.000940221
0.000942338
0.000947556
0.000955688
0.00096651
0.000979759
0.00099513
0.00101227
0.00103078
0.00105022
0.00107007
0.00108981
0.00110882
0.0011265
0.00114216
0.00115512
0.00116465
0.00117003
0.00117056
0.00116563
0.00115476
0.00113771
0.00111445
0.00108521
0.0010504
0.00101058
0.000966361
0.000918416
0.000867433
0.000814119
0.000759189
0.000703354
0.000647325
0.000591797
0.000537435
0.000484859
0.000434639
0.000387281
0.000343213
0.000302775
0.000266205
0.000233626
0.000205052
0.000180383
0.000159425
0.000141912
0.00012753
0.000115947
0.000106841
9.9922e-05
9.49363e-05
9.16772e-05
8.99903e-05
8.97293e-05
0.000917266
0.000903366
0.0008928
0.000885527
0.000881481
0.000880572
0.000882675
0.000887639
0.00089528
0.00090538
0.000917685
0.000931906
0.000947707
0.000964711
0.000982495
0.00100059
0.00101848
0.00103561
0.00105139
0.00106522
0.00107643
0.00108439
0.00108845
0.00108802
0.00108256
0.00107171
0.00105524
0.00103316
0.00100562
0.000972976
0.00093568
0.00089429
0.000849432
0.00080176
0.000751934
0.000700633
0.000648519
0.000596255
0.000544505
0.000493894
0.000445
0.000398354
0.00035442
0.000313594
0.000276185
0.000242401
0.000212349
0.000186028
0.000163335
0.000144081
0.000128008
0.00011482
0.000104204
9.5861e-05
8.95144e-05
8.49274e-05
8.19051e-05
8.03021e-05
7.99821e-05
0.000840959
0.000828252
0.000818607
0.000811992
0.000808358
0.000807619
0.000809663
0.000814343
0.000821483
0.000830868
0.000842251
0.000855353
0.000869855
0.000885396
0.000901577
0.000917964
0.000934076
0.000949387
0.00096336
0.000975426
0.000985004
0.000991503
0.000994383
0.000993137
0.0009873
0.000976575
0.000960798
0.000939978
0.000914239
0.000883856
0.000849244
0.000810896
0.000769415
0.00072542
0.000679505
0.000632312
0.000584441
0.000536503
0.000489141
0.000442917
0.000398352
0.000355919
0.000316033
0.000279047
0.000245233
0.000214764
0.000187726
0.0001641
0.000143779
0.000126577
0.00011225
0.000100519
9.10961e-05
8.37022e-05
7.80842e-05
7.40241e-05
7.1344e-05
6.99096e-05
6.95969e-05
0.000749805
0.00073798
0.000728977
0.000722798
0.000719413
0.000718755
0.000720714
0.000725153
0.000731886
0.000740684
0.000751327
0.000763504
0.000776901
0.000791166
0.00080594
0.00082086
0.000835498
0.000849321
0.000861848
0.000872499
0.000880743
0.000886045
0.000888012
0.000886263
0.000880308
0.000869968
0.0008551
0.000835753
0.000811949
0.000783922
0.000752094
0.000716919
0.000679047
0.000639074
0.000597443
0.000554789
0.000511664
0.000468589
0.000426226
0.000385008
0.000345389
0.000307772
0.000272509
0.000239907
0.000210207
0.000183533
0.000159966
0.000139456
0.000121882
0.000107057
9.47507e-05
8.47114e-05
7.66789e-05
7.04062e-05
6.56689e-05
6.22724e-05
6.0057e-05
5.89016e-05
5.86949e-05
0.000641204
0.000629854
0.000621189
0.00061531
0.000612234
0.000611863
0.000614009
0.000618374
0.000624989
0.00063388
0.000644397
0.000656206
0.000668906
0.000682075
0.00069564
0.000709235
0.000722786
0.000736112
0.000748131
0.000757943
0.000765177
0.000769512
0.000770862
0.00076886
0.000763204
0.000753646
0.000740149
0.000722678
0.000701045
0.000675339
0.000646254
0.000614344
0.000580254
0.000544612
0.000507779
0.000469822
0.000431514
0.000394085
0.000357498
0.000321848
0.000287714
0.000255455
0.00022532
0.000197515
0.00017222
0.000149669
0.000129881
0.000112891
9.84691e-05
8.62958e-05
7.61615e-05
6.79054e-05
6.13467e-05
5.6276e-05
5.24922e-05
4.98449e-05
4.82004e-05
4.74451e-05
4.74787e-05
0.0240856
0.0218422
0.0197667
0.0177943
0.0159054
0.0140998
0.0123902
0.0107905
0.00931081
0.00795662
0.00675592
0.00573294
0.0048848
0.00418769
0.00359701
0.00309025
0.00266856
0.00232801
0.00205673
0.00183748
0.0016564
0.00150266
0.00136746
0.00124343
0.0011237
0.0229666
0.0213413
0.0195161
0.0176378
0.0157767
0.01397
0.0122477
0.0106338
0.00914636
0.00780211
0.00661718
0.00559846
0.0047407
0.00402882
0.00344124
0.00295821
0.00256474
0.00224756
0.0019935
0.00178899
0.0016214
0.00148009
0.00135649
0.00124361
0.00113536
0.022904
0.0211988
0.0193591
0.0174692
0.0155868
0.0137555
0.0120123
0.0103863
0.00889944
0.0075676
0.00639925
0.00539447
0.00454647
0.00384305
0.00326812
0.002804
0.00243289
0.00213784
0.00190352
0.00171616
0.00156357
0.00143537
0.00132312
0.00122009
0.00112111
0.0230386
0.0211454
0.0192015
0.0172472
0.0153227
0.0134648
0.0117077
0.0100798
0.00860166
0.00728614
0.00613736
0.0051523
0.00432299
0.00363778
0.00308189
0.00263808
0.00228778
0.00201281
0.00179681
0.00162558
0.001487
0.00137094
0.00126915
0.00117516
0.00108382
0.023214
0.021141
0.0190672
0.0170218
0.015037
0.0131437
0.0113704
0.00974095
0.00827235
0.00697346
0.00584537
0.00488298
0.00407707
0.00341529
0.00288246
0.00246098
0.00213188
0.00187651
0.00167808
0.00152216
0.00139674
0.00129193
0.00119982
0.00111439
0.00103116
0.0233523
0.0211196
0.018913
0.0167696
0.01472
0.0127893
0.0109996
0.0093695
0.00791127
0.00663021
0.00552492
0.00458848
0.00381007
0.00317592
0.00266963
0.00227275
0.00196585
0.00173016
0.00154884
0.00140756
0.00129456
0.00120034
0.00111741
0.00104009
0.000964126
0.0234745
0.0210727
0.0187239
0.0164788
0.0143642
0.0123974
0.0105926
0.00896269
0.00751603
0.00625467
0.00517499
0.00426828
0.00352172
0.0029193
0.00244295
0.00207308
0.0017898
0.00157434
0.00141012
0.00128316
0.00118206
0.00109779
0.00102328
0.000953248
0.000884056
0.0236073
0.0209834
0.0184762
0.0161303
0.0139568
0.0119594
0.0101429
0.00851504
0.00708191
0.00584298
0.00479245
0.00392
0.00321062
0.00264462
0.00220197
0.00186182
0.00160376
0.00140932
0.00126248
0.00114973
0.00106014
0.000985223
0.000918223
0.000854065
0.000790125
0.023699
0.0208071
0.0181386
0.0157045
0.0134863
0.0114679
0.00964634
0.00802186
0.00660367
0.00539074
0.00437294
0.00354024
0.00287546
0.0023514
0.00194666
0.00163931
0.00140809
0.00123547
0.00110652
0.00100829
0.000929964
0.000864179
0.000803652
0.000742446
0.000680034
0.74203
0.716666
4.72219
2.38054
0.00065423
0.000990058
0.0353444
0.000142718
3.51808
6.01152e-05
2.74202
0.000941195
0.00741528
0.00268658
0.0306497
0.000470487
2.72096
2.05628
3.95398e-05
0.0860452
0.00801078
0.0002603
3.14761
0.0035768
0.000170519
0.000214048
0.000154038
0.0136017
1.02185
2.67863
5.11731e-05
0.00025687
2.68283
0.0114095
2.66406
0.000339908
0.03042
0.0309241
0.0349945
0.00068043
3.94551
0.000177692
0.00022305
0.0350343
0.00662872
0.000377891
4.28558
5.20824
1.5191
1.62764
3.9346
3.47145
0.00495685
1.90695
0.0331069
3.45366
0.00230032
0.0053882
0.00048065
3.51607
0.000512708
5.24565
0.000669076
0.000386442
0.000144483
0.030357
0.000353015
0.021364
0.00907884
1.58138
3.21916
0.000349302
0.000320678
0.0784126
0.000189171
0.00732186
0.0624759
4.74157
0.000177758
1.60737
0.00956523
0.000712182
0.000160453
2.71017
0.00054263
0.000572212
0.000238964
4.62936
2.74076
0.00227495
0.00368973
0.000896983
8.33495e-05
0.00100729
0.000419672
2.76459
0.000225559
3.09881
0.000362014
3.44578
0.00514188
3.88438
0.00603755
0.000348462
0.00037283
0.00765122
3.38468
0.00893807
0.000311794
2.68092
0.000297398
0.000765365
3.4028
0.00032876
0.0049235
1.47446
2.80751
0.000576169
0.00474048
0.000525486
4.54983e-05
0.000757815
0.00360255
0.000188618
2.8546
0.000223394
3.48577
0.0528388
0.000403498
5.18632
0.000157867
0.0751324
1.63063
0.0291186
0.016703
0.000247668
0.00622872
0.00309705
0.000437126
0.0963267
0.000216413
0.033459
3.61423
6.31321e-05
1.17908
0.000543976
2.59298
0.0261523
0.000471237
2.58776
0.00898197
0.00137819
2.64276
0.0441426
0.000318121
2.63611
0.000230996
0.00053634
0.0576252
0.000177471
0.000211781
3.23865
0.000290506
3.3149
0.000135051
3.34982
0.00272461
0.000144884
0.000584286
0.000278006
0.00238309
0.000400782
0.021049
2.96497
0.000387329
0.00957337
0.0151927
1.31282
2.10953
0.000225881
0.0183456
0.000255084
0.00476458
0.0196035
0.0247861
0.000197948
3.6622
0.00026828
1.85694
0.000449153
4.58377
3.52454
1.65039
0.0330877
0.035947
2.08149
0.000183711
0.000252219
1.31958
0.850224
0.027632
0.000623493
0.000660737
0.000474219
0.00639668
0.000117821
0.000429371
0.00608456
1.62701
0.000426883
0.000352915
0.00100773
0.0179802
0.00593493
0.0115355
4.40112
0.000564564
0.000159338
0.000528431
0.0037123
0.0052725
0.000203538
0.000375289
5.39866
0.0783879
3.07488
0.00188555
2.7347
0.000299806
0.000365639
2.4358
0.00034156
0.000268928
0.000201741
0.0342413
7.72687e-05
0.0526329
0.00867654
0.0203298
0.0458796
7.44944e-05
0.000524875
0.000140544
0.0211401
0.000283507
0.00020637
0.000241503
0.00958781
0.000457276
0.000140182
0.000254467
0.0104442
0.0001596
1.46857
0.000319013
0.000147379
3.23353
0.0596183
0.056234
3.98011e-05
0.0148935
0.000508589
0.000344989
0.000270243
0.0720686
0.000210036
0.000116017
2.96814
0.0360796
0.000140728
0.0103398
1.67052
0.000374968
0.000161777
4.22138e-05
2.92431
0.000554673
3.44001
0.00237534
3.9165
0.0345599
0.00958811
0.0162902
0.000374257
2.14842
0.000488259
0.00839309
0.432204
3.90793
4.75855
0.0460591
0.000309364
0.000107016
4.14527
0.0789127
4.31025
4.03273
0.000634221
0.000187465
2.64484
3.65597
0.000205462
0.00124997
0.000499871
3.7433
0.000122949
0.00855301
0.000198479
0.0963628
0.000654325
0.000353046
0.000160144
2.2341
0.0003244
0.000395523
0.0370923
4.75914
0.000173431
0.000168053
0.0857257
0.0579177
0.000206994
0.00147614
5.02741e-05
0.000254667
0.000203324
2.72919
0.00947825
0.000571155
0.00570862
0.000129124
0.0346798
0.00424833
6.53105e-05
4.32695
0.000614147
0.000205215
0.000169447
7.65031e-06
0.0158059
0.00104034
0.000867383
2.94978
0.000146227
0.0686684
0.00058544
0.00155727
0.000303644
0.000248765
4.063
0.914643
8.57724e-05
0.000389434
0.0553865
4.20192
0.0533375
0.157566
0.0344801
0.000146082
4.45728
1.64258
2.71917
0.000142728
2.96969
0.000134519
0.000224056
0.000511662
4.92158
0.000314948
1.74036
0.000241238
0.0439892
1.00945
3.17607
0.00737292
0.000269168
0.000484227
0.000123238
0.000216518
7.31759e-05
3.96061
0.000388984
2.83063
0.0391046
0.0366051
0.130224
0.000135548
0.0836529
2.49484
4.60926
0.0258522
0.000118409
0.00537911
2.52205
0.0176854
4.77519e-05
0.000128659
2.62133
0.000531241
1.04993
0.000143654
0.000227057
0.000555738
1.24443
0.000782285
1.21199e-07
0.032599
0.00592199
0.0505241
7.54779e-05
1.83837
0.000332128
2.64411
0.000422721
0.00019388
0.00725122
1.65761
4.06143
0.000388594
0.000860386
0.000141547
0.000213336
0.00252925
0.00730358
0.000519253
4.30674
3.96756e-06
0.00162321
0.000141442
0.000246163
0.000450556
0.000155229
0.00240464
0.000165165
0.0444942
0.000486716
0.000290699
6.77627e-05
0.000289545
0.00304627
0.000159201
0.0458406
4.17243
0.041926
0.0105946
5.73478
0.0100745
2.46869
0.000356373
0.000181276
3.1205
0.000195374
0.000290236
2.44162
0.000153801
1.49315
4.1544
0.00053528
0.00390601
0.0482095
0.000309952
0.0233073
1.76923
0.0164425
4.00065
0.000172179
0.000429011
5.58487
0.000151945
2.53871
0.00858917
0.000195439
2.69197
0.00343291
0.0001848
0.00921896
0.00198052
0.000187707
0.0259223
0.0202634
0.0114983
0.0302854
1.51086e-05
0.00088231
2.62131
0.000468784
0.000638053
0.000437365
1.38234
0.000250669
0.0348552
0.000355133
0.00043413
2.39495
0.000299989
0.000754123
0.0333948
0.000456971
9.70002e-05
1.70801
0.000218335
0.0446388
0.00036992
0.0174501
0.0139393
0.0130603
0.000464545
0.000437618
0.0337438
0.000249372
0.000192303
0.0112605
0.00038036
0.00173902
0.000204746
4.877
3.65572
1.75448
0.000298367
0.0163761
8.06107e-05
4.72743
0.0880265
4.72608
0.0118994
0.000444213
4.18287
3.81043
0.000124936
0.000458599
0.010157
0.000269961
3.16737
2.95028
0.000571252
0.0566048
0.00023009
2.21263
1.41781
0.000373485
0.0838873
2.65589
0.00024227
3.70083
0.000482838
4.80164
0.000246191
0.004403
0.000447218
3.3719
0.0304907
0.028555
0.00038444
1.51612
1.70962
4.90141
0.000323306
0.000129844
0.00561191
1.83153
0.000167569
0.0263635
0.000230468
0.00782569
2.61062
4.92246e-05
0.0150837
0.000402163
0.000251462
0.0203577
2.3973
0.00049837
0.0264604
0.000543152
0.000739939
3.36043
4.45108
1.88878
0.00496224
0.0224384
0.0932807
0.00455834
0.000609512
8.50521e-05
0.000147721
2.59936
0.000223133
0.0010361
0.112612
0.00055455
0.00165416
0.000750392
0.000365827
0.0422857
0.000160404
0.000537195
0.0095427
1.80627
0.000514497
0.00023862
2.97409
0.0135384
0.000158271
0.00163448
0.0495124
0.000328946
0.000511533
0.000122621
0.289714
0.000202603
0.000219502
0.0319595
0.000193667
0.000561336
0.0064266
0.00584389
0.000293518
0.00145236
5.14055
0.00041739
0.000149552
0.000205573
0.000120138
0.00221394
0.000555915
3.35968
5.10692
0.012125
2.4351
0.000295894
0.000143056
0.000177115
0.000226492
0.000540244
0.000496048
0.00772921
0.0021348
0.000433513
0.00122234
0.036645
0.0139235
0.00403016
0.0301102
0.000236186
0.000853901
0.000160189
0.00462262
0.0537
3.29134
0.0415952
0.0547854
0.000268886
5.77515e-05
0.000333325
0.000470977
0.000104006
4.48762
4.02516e-05
0.0133188
0.00018223
2.04751
1.17433
2.66124
4.94079e-05
0.000176371
0.000148651
3.86871
2.52333
0.0238351
0.00473067
0.000495183
4.76503e-05
0.000529139
3.54038
7.44864e-05
0.000192869
0.0272556
0.000311667
0.000260081
8.86181e-05
0.00036327
0.00556761
0.00186795
0.000169922
0.000120415
0.00504148
0.000123205
1.21537
3.87419
0.000249694
0.0320733
0.000452384
2.64324
0.000151577
0.000136344
0.000145096
0.000211444
0.141108
0.000446983
0.000190893
0.000487693
0.0163743
0.000308564
0.000447174
0.000311869
4.06926
0.0312171
0.00864384
4.97717
0.034542
1.41384
2.68892
4.11325e-05
0.000217767
0.000160507
5.00939e-07
0.00034994
0.0343916
0.000530088
0.000289332
0.00615579
6.36123e-05
0.000102553
0.0143584
0.00017438
0.000207355
0.00015365
0.00895982
0.0112465
4.00491
4.91455e-05
2.23118
0.0367604
1.26248
0.0137404
3.96345
3.88198
3.22521
0.000164145
0.000460888
3.33815e-05
0.0126841
0.000272692
0.102892
1.01295
0.000113746
0.062751
0.043919
0.000269574
0.000149127
0.000353918
4.89944
4.45249
0.000194038
0.0401445
0.0447991
0.00528992
2.43788
5.33069e-09
0.000140068
0.014751
4.66798e-05
0.885313
0.0537748
2.89593
0.0428186
0.000160933
0.0432174
0.000481644
3.3528e-06
0.0225527
0.00143705
0.00378764
0.000186583
0.000223644
0.0659109
0.000470615
0.00021601
0.000213899
0.000359863
0.0401747
0.000648099
3.57125
0.0330224
0.000226706
0.779465
0.000405387
0.0919213
0.000745027
8.79071e-05
0.000238883
0.0146061
0.010601
5.5758e-05
0.000282695
4.11633
4.28425
0.0391051
0.000460638
0.0233707
0.0605002
0.0484837
5.7203
0.0258482
0.00377912
0.000167722
3.20756
0.00036741
0.00014158
0.00488866
2.07737
4.22866
0.000285023
0.000388432
1.67916
0.000161744
4.42449
2.07309
0.00025494
0.000280717
3.95346
1.05023
1.0021
0.000128545
0.000175218
0.00021762
0.0208841
0.0294468
0.000182759
0.000141963
0.000895862
0.0369183
0.00144407
0.0191287
1.03922
4.79992e-05
0.000235431
5.62062
5.38382e-05
0.00931794
0.000702149
0.0140489
0.000237293
0.000486371
0.0732023
0.000329029
0.000121583
9.92579e-05
0.0114824
0.0100634
4.47163
0.000162207
0.000141241
0.000272693
0.0273524
0.0943288
4.85149
0.000455118
0.0173739
0.0325198
9.10752e-07
0.000174851
0.00150489
2.47869
0.000342935
0.0781445
0.000494644
4.22912e-06
0.0242887
0.000443068
5.13253
3.29304
0.024112
3.64185
3.95667
4.81417
5.57464e-05
2.28145
0.0250303
0.000207418
0.0322978
0.000295195
0.00157881
0.0567637
0.000432538
0.00333334
0.0156532
5.19938
0.000458481
0.000287886
2.20138
0.00303764
0.000513274
0.0350451
1.15629
0.162212
9.61336e-05
0.00616875
5.01605
2.84473
0.0641475
0.0076692
1.51503
0.00254715
0.000200313
0.0180129
1.99674
0.000332071
0.0785028
0.00164425
2.08625
0.000518462
0.0206542
0.939529
6.95573e-05
0.00107845
0.00010075
2.50744
0.12172
2.29408
1.34552
0.00053716
0.015596
0.0148422
0.00393252
0.959298
0.00539729
0.000138791
0.000471005
0.000409621
0.000250954
0.0235414
2.72263
0.000309857
2.46223
0.00027884
0.0510446
6.7007e-05
0.000309344
0.000142289
2.91057
2.05543
0.0126566
0.0116045
0.000245062
0.000343781
0.0437736
0.000122602
0.117332
0.0339303
3.18609
0.000731295
0.0209328
0.0459238
0.000488591
0.00056119
0.000661413
3.25625
0.000658493
0.00432439
0.0493627
0.0333487
0.000450305
0.00386409
0.000163824
0.000305856
0.000633029
0.000317971
0.00712722
0.000213416
0.00779962
2.27713
0.0891259
2.84993
0.000276707
0.00669175
0.0161718
0.000297117
1.14396
0.000813014
0.00221624
3.52378
0.000500326
0.0171944
0.00251055
0.000140657
1.56994
8.45198e-05
0.028101
0.000273602
0.0369763
0.0412062
2.75616
0.000375986
0.0452069
0.000251942
0.0288445
0.000464026
2.81395
0.0203056
0.0102472
2.66572
0.00113025
4.16053
0.000359426
1.39094
0.000986053
0.000143407
0.00058953
0.0218552
0.0327702
0.000573817
9.51869e-05
0.0634909
0.000163831
0.000110302
0.00042912
0.000277384
0.000379454
5.09367
0.000551266
0.000331754
0.0448886
0.0118718
4.7945
0.000207367
0.00014914
0.000301063
0.0245246
0.000613418
0.00139256
3.75486
0.0339828
0.0338201
0.000193697
0.00421195
0.0237305
2.56226
0.000122974
8.13385e-05
0.00124866
0.000594923
0.000292014
0.0796363
4.52376
1.9699
0.016184
0.00023649
0.0451271
3.1938
0.00901874
0.0476619
0.000498907
1.20923
2.58814
4.45758
0.000396651
0.000404222
0.00618139
2.22129
0.000559701
4.2797
0.00193753
0.0232179
1.68028
0.000160834
0.000861043
0.0019928
6.45704e-05
4.94409e-05
0.00508122
1.07418
4.44321e-05
2.21859
0.000238179
0.000275009
0.000204313
8.08126e-05
0.00572919
0.00094499
0.0893637
0.015778
0.00048207
0.000499635
1.33605
2.57307
0.000141391
0.000423597
0.000318653
0.127063
1.44813
0.00759046
3.76116
0.000208942
6.14913e-05
0.00517531
0.000357092
0.00594388
0.0420396
0.000184605
0.00022449
6.57009e-05
0.00345732
0.0184979
4.39409
0.0450347
6.51045e-05
0.0072266
9.26214e-05
3.40005
3.71084
0.000152759
6.02323e-05
0.0618272
0.000283167
0.000666805
1.28298
1.07692
0.00455182
7.59458e-05
0.000380168
0.0206579
1.05667
0.000617408
0.000513481
0.939825
2.37866
1.72483e-06
0.000245041
0.000401031
0.000286831
0.030872
0.00492898
0.000311494
0.0490477
0.000424202
0.000190179
0.000336874
0.00637661
0.000307468
3.87559
1.6784
3.23585
0.888698
0.145032
3.33291
0.000249475
3.22018
0.00693516
0.000153022
0.0101282
0.000420029
0.00572691
0.000188536
0.00031918
0.000515474
2.36866
0.000170255
0.0110913
0.0430059
0.00233444
0.00663854
0.0279399
4.43369
0.000171992
4.16946
3.08414
0.00192319
0.000304551
0.00527782
0.0128164
0.00416444
0.0392357
4.87304
0.000205637
0.00046635
0.000291537
0.0240249
3.56469
0.000527512
0.00174233
0.00017823
0.000146135
0.000750433
0.0154269
6.16482e-05
0.00271614
0.00520913
1.58762
0.000101918
0.00618068
3.06914
0.000431369
0.00750787
0.00467564
3.37685
0.00842101
0.0383505
0.00471121
0.000266319
5.34676
2.13511
0.000400653
0.0173171
0.0315194
0.000133733
0.000714539
0.000222799
0.0257818
0.000243643
0.00820369
8.7399e-05
0.0422794
1.4876
0.055527
1.47059
0.00689456
0.000611598
0.0615375
0.0403536
0.00183758
0.000402916
0.00155847
2.63738
0.000224292
0.00720014
0.000411589
0.000443434
0.0180977
0.000749591
0.000358168
0.000145523
2.43903
0.0612415
7.71039e-05
0.000402517
5.77209e-05
0.000195863
0.000420665
1.39555
0.000345625
0.0572648
2.0529
0.0352896
8.12285e-06
0.0501694
0.98953
0.0928019
1.26712
0.00431644
0.0353846
3.10218
3.22226
0.000124899
1.94658
0.000120665
3.31773
0.552182
5.2089e-05
0.00901267
0.0301167
4.63355
0.0148343
0.00945283
0.000201584
0.037101
1.87173
0.0892421
3.20536
0.00049097
0.0914213
7.13963e-05
2.11019
0.00646184
0.000370562
0.000409942
0.0684886
0.000604814
0.00233393
0.100214
0.000174365
1.44023
0.000362135
0.000186326
0.189189
0.0379305
0.00188051
0.0051429
0.0351168
0.000537162
0.00935639
0.168982
0.000103176
0.0131661
0.000258489
1.31631
0.0231387
0.000164956
4.09111
8.23124e-05
0.00730277
0.151241
0.000175341
0.000323427
0.00689268
0.0190668
0.0350696
0.000350392
4.49445
0.000640395
0.00845693
4.32186
0.00817087
0.00044474
0.11933
0.000374063
0.000215296
3.1148e-05
0.051175
1.96617
0.000432068
2.54455
0.0060686
0.000422846
0.0356778
0.000288893
0.00100429
0.0127292
0.000290432
0.000151484
0.055618
0.000760568
0.000207263
0.000327519
1.43802
1.97098
0.00302358
8.66895e-05
0.000257056
0.0141683
4.40355
0.000339047
0.000566552
0.0080491
2.79338
0.000686778
0.0394369
0.012639
0.000144469
0.00691196
3.3273
0.000301037
0.00404751
0.000112688
0.276226
0.000337142
0.000231611
0.00241977
0.0179959
1.97338
0.000481022
2.56817
0.000427542
2.92711
0.000173391
0.023524