/*--------------------------------*- C++ -*----------------------------------*\
  =========                 |
  \\      /  F ield         | OpenFOAM: The Open Source CFD Toolbox
   \\    /   O peration     | Website:  https://openfoam.org
    \\  /    A nd           | Version:  10
     \\/     M anipulation  |
\*---------------------------------------------------------------------------*/
FoamFile
{
    format      ascii;
    class       volScalarField;
    location    "1300";
    object      k;
}
// * * * * * * * * * * * * * * * * * * * * * * * * * * * * * * * * * * * * * //

dimensions      [0 2 -2 0 0 0 0];

internalField   nonuniform List<scalar> 
10435
(
1.40965
1.60018
1.78594
1.94861
2.07502
1.96895
1.7813
1.79009
1.67537
1.86334
1.87015
2.07578
1.83235
0.938325
0.970209
1.86167
0.913193
1.93909
1.54716
1.51672
1.82704
1.8864
1.85958
1.75783
1.83507
0.585659
0.748196
1.77819
0.699115
1.9039
1.90823
1.97722
1.76255
0.707547
1.86806
1.17051
1.91027
0.763006
0.471491
1.64037
1.97935
1.80066
0.724012
1.76661
1.92845
1.70692
1.95651
0.711507
1.59016
1.75345
1.82318
1.9157
0.458015
0.639943
0.499556
0.655653
1.9107
0.780909
0.856854
1.83502
0.489575
1.45192
0.773172
1.96315
1.89599
1.79611
0.811869
0.813295
1.79965
1.77391
0.634463
0.684066
0.564963
1.81621
1.01206
0.715754
1.81259
1.78087
1.71381
1.00527
1.82266
1.25796
0.444962
0.64658
1.83338
1.14479
1.30539
1.76045
1.04355
1.4185
1.85976
1.94224
1.34698
1.11128
1.53676
1.05811
2.00767
0.974346
0.886594
2.03875
1.00458
2.15481
1.20062
1.6531
2.10869
1.86474
1.43892
1.79612
1.83943
1.05172
1.6899
2.19435
1.17758
1.10877
2.00835
1.8121
2.05862
1.25075
1.73346
2.0821
2.07004
0.620554
1.36538
0.782777
2.20209
0.538354
2.05927
0.658213
2.04025
0.765357
0.71843
2.12789
1.852
0.967683
0.724546
0.411658
0.961938
2.01185
1.615
1.72234
1.62258
1.91711
0.775024
2.00734
1.93916
0.864125
0.86132
1.94754
0.879741
2.0453
0.667538
1.95533
1.43249
2.01586
1.89346
0.624685
2.22941
1.48855
1.87489
1.84254
1.98609
0.937126
1.92886
1.9979
1.06781
2.03793
1.77181
2.06602
1.9731
2.00587
1.85801
0.509531
0.687504
0.906713
2.03467
1.65678
1.29874
0.830551
1.6148
0.73833
1.74101
2.00139
2.06608
0.513965
1.95711
0.644788
0.647716
1.79423
2.06567
1.95676
2.08036
0.435892
0.736665
1.09334
2.22036
1.79947
0.808392
1.05397
0.773816
1.8929
1.06207
0.739058
1.79685
0.768898
1.78678
2.03466
1.8405
2.05071
0.780302
1.96973
0.603437
1.82558
2.05639
2.02728
0.733997
0.90247
1.13497
0.496473
0.5924
0.911415
0.71451
0.870393
0.80476
0.862993
0.615907
1.86681
0.52785
0.985127
1.91759
0.740837
0.840512
1.82604
0.558123
1.97083
0.794056
0.890805
1.89564
0.622505
1.89541
1.87209
1.66012
0.569563
0.50913
0.65737
1.98988
1.7078
0.96557
1.77699
0.560718
1.45644
0.586832
1.13601
1.85178
1.98388
1.77577
2.01254
0.517559
1.77336
0.575793
0.721142
1.7711
1.88243
0.574919
1.90027
1.214
0.86307
1.54672
1.88004
0.477138
2.04408
1.76814
1.75221
1.76951
1.81621
0.63031
2.08639
0.760285
2.10225
1.83145
1.73487
1.83964
0.807296
1.763
0.945885
1.2219
0.45639
2.0224
0.497832
0.65201
0.723021
0.891902
2.00411
0.777568
1.76093
0.478741
0.625524
0.830712
1.30674
2.10037
1.84967
0.803334
1.91457
1.75961
0.603621
2.056
0.934799
0.865981
1.98086
1.82381
0.653729
1.53045
0.702829
1.26413
1.99266
1.75194
0.624885
0.523717
1.96948
0.833298
2.07189
2.06561
0.739839
1.32249
0.427348
1.70595
1.80524
0.672734
1.76098
0.837623
0.780622
1.75948
0.744478
0.651921
1.77244
2.01786
0.79156
0.624109
0.58566
0.672885
0.666118
0.702289
0.657092
0.47871
0.688508
0.663477
0.671395
0.804604
0.809756
0.419387
1.66863
0.656328
1.8041
0.733913
1.76848
1.6686
1.52973
1.8308
1.84764
0.651795
0.684018
0.603013
0.550852
0.652768
0.465155
0.718881
0.723842
0.787007
2.04075
0.706567
1.6426
0.524483
0.749079
1.86337
1.4448
0.456933
0.751596
0.767987
0.777997
0.680601
0.623355
0.881524
0.509534
1.73213
0.811834
1.7726
1.63079
1.78284
1.80514
1.59134
1.7687
1.81762
0.783924
0.576378
0.686719
0.636039
1.76718
0.668202
1.87118
0.851181
0.744433
0.763459
0.766358
0.540637
1.81406
0.773045
1.75832
1.98555
0.525346
0.65767
0.805545
1.48182
0.815311
0.683604
0.586793
0.654421
0.759928
0.70344
1.77694
0.633471
0.658618
0.704003
0.716952
1.95023
0.454296
0.420706
1.33096
0.677233
0.119365
0.117052
0.113076
0.108179
0.102779
0.0970088
0.0910052
0.0849395
0.0790164
0.119093
0.116223
0.112022
0.107078
0.101704
0.0960808
0.0903576
0.084741
0.0794924
0.118484
0.115241
0.110869
0.10589
0.100588
0.0951348
0.0896962
0.0844745
0.0797119
0.117819
0.114316
0.109796
0.1048
0.0995821
0.0943018
0.0891202
0.0842168
0.0797842
0.117335
0.113633
0.108976
0.103968
0.0988283
0.0937024
0.0887346
0.0840708
0.0798425
0.11725
0.113374
0.10858
0.103553
0.09847
0.0934667
0.0886648
0.0841789
0.0801008
0.117818
0.113751
0.1088
0.103725
0.0986658
0.0937448
0.0890624
0.0847109
0.0807656
0.119412
0.115008
0.109844
0.10468
0.0996038
0.0947193
0.0901067
0.0858451
0.0820057
0.122394
0.117382
0.111948
0.106648
0.101511
0.0966126
0.0920151
0.0877828
0.0839776
0.126801
0.121057
0.115359
0.109898
0.104661
0.0996987
0.0950585
0.0907872
0.0869207
0.132332
0.126168
0.120337
0.114727
0.109367
0.104296
0.0995596
0.0951919
0.0912079
0.138648
0.132908
0.127161
0.121452
0.115955
0.110741
0.105865
0.101361
0.0972442
0.146272
0.14171
0.136176
0.130389
0.124733
0.119338
0.114283
0.109606
0.105341
0.15718
0.153251
0.147754
0.141811
0.135933
0.130299
0.125009
0.120115
0.115661
0.172264
0.167956
0.162124
0.155856
0.149653
0.143701
0.138105
0.132921
0.128167
0.19138
0.185767
0.179243
0.17248
0.165842
0.159488
0.153522
0.148003
0.142953
0.213201
0.206153
0.198822
0.191477
0.18433
0.177512
0.17112
0.165226
0.159886
0.236315
0.228475
0.220489
0.212583
0.20491
0.197597
0.190741
0.184421
0.178699
0.260534
0.252413
0.243981
0.235588
0.227415
0.219611
0.212282
0.205508
0.199349
0.286033
0.277943
0.269206
0.260393
0.251761
0.243496
0.235715
0.228506
0.221944
0.313162
0.305216
0.296194
0.286981
0.277932
0.269256
0.261065
0.253444
0.246468
0.342432
0.334458
0.325015
0.315364
0.305942
0.296929
0.288412
0.280451
0.273117
0.374637
0.365901
0.355693
0.345526
0.335793
0.326565
0.317856
0.309686
0.302148
0.410816
0.3996
0.388081
0.377344
0.367429
0.35818
0.349477
0.341261
0.333642
0.452154
0.435003
0.421768
0.41061
0.40078
0.391801
0.383379
0.37537
0.367108
0.209935
0.209967
0.210619
0.21189
0.213791
0.216314
0.219453
0.223183
0.227484
0.232309
0.237616
0.243349
0.249436
0.255805
0.262362
0.269014
0.275659
0.282188
0.288489
0.294449
0.299943
0.304837
0.308955
0.312021
0.313877
0.314592
0.314229
0.312722
0.309817
0.305747
0.300638
0.294522
0.28744
0.279519
0.27088
0.261651
0.251964
0.241953
0.231753
0.2215
0.211324
0.201354
0.191702
0.182472
0.173755
0.165629
0.158153
0.151376
0.145325
0.140012
0.135428
0.13154
0.128312
0.125695
0.123641
0.122101
0.121035
0.120404
0.120179
0.209969
0.210335
0.211275
0.212797
0.214903
0.217583
0.220816
0.224584
0.228862
0.233618
0.238806
0.244374
0.250259
0.256388
0.262679
0.269043
0.275382
0.281594
0.287572
0.293207
0.298387
0.302994
0.306899
0.309951
0.311981
0.312848
0.312472
0.310831
0.307979
0.304026
0.299051
0.293104
0.28624
0.278541
0.270105
0.261045
0.251485
0.241553
0.231386
0.221117
0.21088
0.200804
0.191012
0.181619
0.172728
0.164428
0.156792
0.149871
0.143696
0.138278
0.1336
0.12963
0.126318
0.123614
0.121465
0.119819
0.118632
0.117865
0.11748
0.207015
0.207446
0.20842
0.209943
0.21202
0.214647
0.217812
0.221497
0.225674
0.23031
0.235362
0.240779
0.2465
0.252455
0.258566
0.26475
0.270911
0.276953
0.282772
0.288259
0.2933
0.297776
0.301552
0.304486
0.306441
0.307303
0.307001
0.305503
0.302829
0.299045
0.294223
0.288431
0.281735
0.274216
0.265968
0.257093
0.247708
0.237934
0.2279
0.217736
0.207573
0.197541
0.187767
0.178368
0.169454
0.161121
0.153446
0.146487
0.140274
0.134817
0.130098
0.126086
0.122733
0.119988
0.117794
0.116103
0.114868
0.114052
0.113619
0.200638
0.20108
0.202047
0.203546
0.205578
0.208138
0.211214
0.214788
0.218834
0.22332
0.228205
0.23344
0.238969
0.244727
0.250639
0.256625
0.262595
0.268453
0.274097
0.279418
0.284304
0.288634
0.292282
0.29512
0.297027
0.297898
0.297664
0.296293
0.293793
0.290208
0.285596
0.280024
0.273565
0.266298
0.258314
0.249711
0.240596
0.231086
0.221302
0.211369
0.201416
0.191571
0.18196
0.172704
0.163917
0.155695
0.148119
0.141248
0.135113
0.129723
0.125063
0.121102
0.117791
0.115074
0.112901
0.111222
0.109992
0.109177
0.108738
0.191937
0.192387
0.193343
0.19481
0.196791
0.199278
0.202262
0.205725
0.209641
0.213978
0.218699
0.223757
0.229096
0.234655
0.240363
0.246142
0.251905
0.257559
0.263005
0.268135
0.27284
0.277003
0.280507
0.283235
0.28508
0.285952
0.285788
0.284554
0.282247
0.278893
0.274537
0.26924
0.26307
0.256107
0.248437
0.240155
0.231365
0.222178
0.21271
0.203086
0.193431
0.18387
0.17453
0.165532
0.156985
0.148988
0.141621
0.13494
0.128977
0.123741
0.119216
0.115368
0.112151
0.109513
0.107402
0.105769
0.104572
0.103774
0.103339
0.180948
0.181359
0.182263
0.183665
0.185566
0.187962
0.19084
0.194182
0.197964
0.202154
0.206714
0.211598
0.216753
0.222119
0.227626
0.233198
0.238753
0.244198
0.249438
0.254371
0.25889
0.262887
0.266251
0.268877
0.270669
0.271545
0.271448
0.270344
0.268226
0.265109
0.261027
0.256033
0.250193
0.243582
0.236281
0.228384
0.219987
0.211196
0.202127
0.1929
0.183637
0.174461
0.165495
0.156857
0.148655
0.140984
0.133921
0.127521
0.121816
0.116811
0.112492
0.108825
0.105765
0.103263
0.101267
0.099729
0.0986073
0.0978674
0.0974738
0.167948
0.168294
0.16912
0.170432
0.172234
0.174519
0.177278
0.180492
0.184137
0.188181
0.192586
0.197306
0.202287
0.207471
0.212789
0.218169
0.223529
0.228779
0.233828
0.238577
0.242925
0.246768
0.250008
0.252547
0.254296
0.255184
0.255158
0.254186
0.252256
0.249375
0.245574
0.240897
0.23541
0.229186
0.2223
0.214841
0.206898
0.198574
0.189984
0.181242
0.172463
0.163766
0.155266
0.147078
0.139309
0.132048
0.125369
0.119325
0.113945
0.109235
0.105179
0.101745
0.098891
0.0965673
0.0947245
0.0933159
0.0923007
0.0916454
0.0913156
0.152779
0.152991
0.153677
0.15485
0.156514
0.158665
0.161294
0.164382
0.167903
0.171822
0.176101
0.180689
0.185531
0.190565
0.195728
0.200954
0.206165
0.21127
0.216179
0.22079
0.225006
0.228726
0.23187
0.234358
0.23609
0.237013
0.237075
0.236251
0.234513
0.231865
0.22834
0.223979
0.21886
0.213056
0.20662
0.199647
0.192223
0.184433
0.176408
0.168239
0.160036
0.151906
0.143959
0.136305
0.129049
0.122273
0.116054
0.110437
0.105447
0.101087
0.0973446
0.0941898
0.0915826
0.0894783
0.0878304
0.086594
0.0857289
0.0852019
0.0849786
0.13515
0.135121
0.135584
0.136564
0.138072
0.140102
0.142628
0.145609
0.149048
0.152947
0.157201
0.161749
0.16652
0.171439
0.176482
0.181578
0.186702
0.191805
0.196707
0.201258
0.205382
0.209004
0.212086
0.214547
0.216309
0.217311
0.217514
0.216884
0.215358
0.212919
0.209647
0.205599
0.200853
0.195498
0.189579
0.1831
0.176185
0.169059
0.161733
0.154231
0.146696
0.139234
0.13193
0.124882
0.118181
0.111944
0.106238
0.10114
0.096643
0.092697
0.0892879
0.0864155
0.0840632
0.0821924
0.0807551
0.079717
0.0790415
0.0786916
0.0786332
0.658409
0.614369
0.574786
0.537054
0.500284
0.46432
0.429402
0.395911
0.364227
0.334678
0.308128
0.285458
0.266942
0.252234
0.2402
0.230213
0.222449
0.216985
0.213584
0.211687
0.210804
0.210528
0.210476
0.210261
0.209412
0.626997
0.600431
0.56783
0.532837
0.497007
0.461163
0.425988
0.392103
0.360075
0.3305
0.304017
0.281096
0.261906
0.246317
0.233947
0.224395
0.217358
0.212552
0.209655
0.208271
0.207971
0.208353
0.209052
0.209723
0.209994
0.621383
0.594232
0.562374
0.527822
0.491931
0.455712
0.420044
0.385704
0.353381
0.323699
0.297164
0.274103
0.254657
0.23879
0.226311
0.216927
0.210273
0.205946
0.203537
0.202639
0.20283
0.203707
0.204893
0.206039
0.20682
0.621182
0.59079
0.557371
0.521878
0.485274
0.448456
0.412288
0.37757
0.345014
0.315214
0.288611
0.265479
0.24595
0.230023
0.217564
0.20831
0.201884
0.197844
0.195739
0.195135
0.195602
0.196733
0.198147
0.19949
0.200416
0.622186
0.588667
0.553027
0.51592
0.478115
0.440402
0.403577
0.368397
0.335537
0.305547
0.278828
0.255633
0.236084
0.22018
0.207793
0.198655
0.192382
0.188515
0.186578
0.186117
0.186689
0.187887
0.189334
0.190697
0.191684
0.622755
0.586497
0.54854
0.509597
0.470387
0.431626
0.394031
0.358301
0.325061
0.294822
0.267958
0.244708
0.225179
0.20935
0.19707
0.188049
0.181886
0.178107
0.176226
0.175774
0.176304
0.177415
0.17874
0.179964
0.180807
0.622975
0.584001
0.543637
0.502754
0.46205
0.422154
0.383698
0.347329
0.313633
0.283089
0.25606
0.232769
0.213301
0.197593
0.185455
0.176562
0.170487
0.166746
0.164844
0.1643
0.164669
0.165549
0.166583
0.167475
0.167999
0.622994
0.580914
0.53801
0.495172
0.452973
0.411918
0.372545
0.335454
0.301232
0.270339
0.243127
0.219818
0.200474
0.184949
0.173001
0.164263
0.158273
0.154539
0.152563
0.151858
0.151967
0.152489
0.153052
0.153349
0.153236
0.622283
0.576794
0.531358
0.486663
0.443064
0.400875
0.36057
0.32266
0.287824
0.256544
0.229119
0.205826
0.186721
0.171463
0.159776
0.15124
0.14534
0.141593
0.139523
0.138631
0.13842
0.138514
0.138434
0.137724
0.136354
1.92523
1.89898
4.66225
3.21919
0.0888555
0.104493
1.28533
0.0501723
3.89681
0.0771984
2.72916
0.103822
0.629808
0.157137
1.35818
0.127504
2.98127
2.90036
0.0735915
0.927819
0.589383
0.121768
3.10528
0.216689
0.0414672
0.0685078
0.0408199
0.414262
2.14952
2.87738
0.074622
0.0820074
3.65492
0.737484
2.83991
0.0792589
1.18358
1.36433
1.24216
0.114668
3.96703
0.0183649
0.0981645
0.761637
0.303277
0.164673
3.54293
4.04902
2.55446
2.90864
3.3552
3.60388
0.578906
2.73383
1.23955
3.89467
0.144873
0.569749
0.0571421
3.36081
0.0994054
4.99575
0.0876256
0.134377
0.0519161
0.701884
0.093005
0.379115
0.647966
2.78841
3.75419
0.146988
0.0608186
0.975327
0.0446272
0.579569
1.08023
3.99943
0.0435273
2.41846
0.705301
0.123614
0.061172
2.63668
0.0896907
0.101985
0.0584121
3.98118
3.68877
0.176956
0.225255
0.119384
0.0886505
0.108222
0.0678255
2.75473
0.0693038
2.90304
0.0412872
3.33512
0.228409
3.97924
0.251725
0.152124
0.0515011
0.311518
3.27371
0.698286
0.0316678
2.89214
0.123706
0.0801961
3.38567
0.148513
0.573247
2.5269
3.56202
0.108939
0.588184
0.0526148
0.00730077
0.0802375
0.215324
0.0424742
3.73991
0.0954473
3.63689
0.850951
0.062525
4.04671
0.0586653
0.980058
2.81257
1.10768
0.481619
0.0579281
0.292911
0.168362
0.0989672
0.928815
0.125047
1.18974
3.40797
0.00941441
2.29438
0.143322
3.45645
0.831115
0.125987
2.79697
0.54075
0.139112
3.48295
1.54765
0.0527476
2.59744
0.0462231
0.106895
1.197
0.0802939
0.0980994
3.73468
0.10654
3.02975
0.0958247
2.99041
0.166079
0.0396524
0.160477
0.048887
0.142952
0.141271
0.381682
2.78107
0.0933351
0.350257
0.849374
2.49312
2.8509
0.126653
0.987917
0.079763
0.579938
1.02997
0.634361
0.0451402
3.14932
0.0296378
3.11352
0.115287
3.80938
3.37479
2.76444
1.16329
1.44173
3.2928
0.0437398
0.118682
2.41409
1.99604
0.787292
0.185533
0.11723
0.117828
0.388035
0.0835107
0.0974456
0.250253
2.67758
0.100736
0.0507996
0.104667
0.964145
0.366045
0.634351
4.10364
0.0698283
0.0531213
0.186926
0.22498
0.216507
0.0213913
0.0558824
5.19913
0.364158
3.65057
0.165743
3.00268
0.0290077
0.0649939
2.47772
0.0812377
0.0779028
0.0510922
1.23007
0.0802049
1.26943
0.303492
1.05725
1.60941
0.074815
0.098544
0.0939947
0.563397
0.058867
0.0604779
0.0832035
0.369232
0.125772
0.0844891
0.0245763
0.372827
0.0813271
2.5436
0.0629361
0.0395035
3.24627
1.09846
1.2175
0.0736381
0.360245
0.070449
0.0961033
0.04918
1.00162
0.0433637
0.0845931
3.80567
1.28429
0.0396686
0.651238
2.8022
0.0466356
0.0506202
0.0750968
3.7883
0.104941
3.70701
0.155311
3.602
0.75903
0.565064
0.349328
0.16359
2.85928
0.108399
0.328846
0.964095
3.44919
3.8808
1.57975
0.112361
0.0119459
3.55606
1.16647
4.10291
3.98744
0.106364
0.081717
3.06533
3.48627
0.0985675
0.131522
0.122239
3.87897
0.0891931
0.589119
0.0822741
0.925416
0.121817
0.149356
0.114661
3.40062
0.0568635
0.0447357
1.17304
3.80922
0.0828065
0.0418176
1.35213
1.20364
0.0855171
0.138172
0.0740636
0.0608402
0.0434014
3.51746
0.7159
0.103061
0.578143
0.0945246
1.42357
0.187019
0.0784325
3.9084
0.107008
0.0718205
0.0654343
0.00330297
0.359366
0.105727
0.0995653
3.14226
0.110872
1.00641
0.069559
0.119033
0.06206
0.0553699
3.36258
1.76815
0.088983
0.0278528
1.22955
3.6033
0.308556
1.57465
0.760432
0.0934552
3.54329
2.71445
2.82527
0.0770636
3.60237
0.0161711
0.0539606
0.149423
3.94559
0.0915996
3.01115
0.135467
1.53078
2.15692
3.57612
0.629268
0.0449231
0.0557348
0.0987341
0.0787407
0.0788337
3.97948
0.132985
3.72008
0.807511
0.78229
1.43226
0.097366
0.927247
2.61613
3.81605
0.939155
0.0837849
0.273467
3.41815
0.970653
0.0751009
0.0892613
3.59987
0.106146
2.18255
0.0504331
0.0997899
0.0887897
2.51132
0.0939315
0.000370822
1.30995
0.287721
0.938881
0.0746444
2.96729
0.0928506
3.04848
0.0960818
0.0777269
0.153941
2.62836
3.36661
0.0927434
0.118007
0.0987455
0.0803888
0.186643
0.280537
0.15467
3.76426
0.0020654
0.150898
0.0790994
0.0829354
0.11334
0.0399672
0.18131
0.0428308
1.51735
0.143782
0.123518
0.00829752
0.0629715
0.147894
0.0798547
1.60657
3.62636
0.844499
0.663141
5.60736
0.336329
3.50308
0.0514868
0.0437766
3.55436
0.0927577
0.104601
2.97668
0.113039
2.71094
3.38872
0.102879
0.2309
0.907694
0.11457
0.61471
2.90953
0.919664
3.64388
0.0499733
0.0554566
5.24802
0.0788371
2.66262
0.349781
0.0499244
2.81537
0.149769
0.0426963
0.675281
0.164634
0.0443875
0.857637
0.786414
0.643092
1.23889
0.00471643
0.100265
2.58501
0.0783518
0.122305
0.163532
2.55873
0.130574
1.40458
0.115214
0.053649
3.33506
0.088285
0.0707119
1.37778
0.107265
0.089896
2.9821
0.098971
1.53559
0.0947576
0.493008
0.820132
0.794258
0.115053
0.114398
1.31847
0.081155
0.106882
0.760891
0.0929566
0.155368
0.04251
3.92558
3.89333
2.68261
0.0461892
0.690298
0.0894862
3.87384
0.930679
5.03134
0.73086
0.171552
3.70838
4.05716
0.0833736
0.156107
0.360627
0.13655
4.03766
3.70239
0.0552851
0.942255
0.100186
2.91924
2.50498
0.120144
1.329
2.89824
0.116961
3.47832
0.0342329
4.95149
0.0886256
0.191167
0.107424
3.61683
1.21435
1.23966
0.0618073
2.59595
2.66587
3.90333
0.0523396
0.105613
0.605084
2.8311
0.0808853
1.1059
0.101382
0.640757
2.82734
0.0752227
0.676896
0.05445
0.0830613
0.397468
3.50139
0.181186
1.26513
0.0613466
0.0872422
3.37409
3.5708
2.8848
0.208669
0.412078
0.960125
0.575607
0.181538
0.0909404
0.0516665
3.57381
0.112556
0.104725
1.46097
0.173985
0.137513
0.108835
0.130092
1.46002
0.114522
0.060529
0.687715
2.71295
0.080257
0.0795936
3.16073
0.41763
0.0189553
0.149232
0.839614
0.0658922
0.110004
0.0781641
0.746252
0.0913096
0.100555
1.23812
0.0593285
0.156099
0.276309
0.589585
0.0676686
0.116836
5.17804
0.14635
0.0470056
0.0844991
0.103
0.192428
0.0779697
3.29873
3.86737
0.382324
3.46145
0.0568561
0.0393956
0.0464661
0.0339371
0.144003
0.0497424
0.627254
0.174915
0.0586557
0.12722
1.32046
0.652299
0.194102
0.697186
0.113763
0.0982654
0.0597451
0.248858
0.923624
3.27366
1.4659
1.24258
0.0317725
0.0771884
0.0245837
0.177139
0.0767593
3.59453
0.0747406
0.627339
0.0826134
2.97732
1.92397
2.66302
0.00762478
0.0476195
0.049408
4.05678
3.5125
0.60569
0.575272
0.0732119
0.0770943
0.0851649
3.41845
0.011506
0.0760144
1.15253
0.0755881
0.140073
0.0794446
0.0450593
0.587835
0.152429
0.0639457
0.0837853
0.224899
0.097824
2.3404
3.62633
0.0828933
1.32749
0.0952014
2.7162
0.0535453
0.107748
0.0854054
0.0623426
1.52423
0.103376
0.108448
0.0571865
0.3537
0.0662024
0.166769
0.144513
3.58923
1.32069
0.513157
3.98512
1.41988
2.59957
2.84297
0.0745615
0.0461881
0.047898
0.000814378
0.111338
0.755562
0.1356
0.0742968
0.613484
0.0837517
0.0767549
0.442548
0.0900479
0.0828639
0.0533559
0.51354
0.768699
4.06463
0.0771789
2.95168
1.22118
2.43514
0.639716
4.0827
3.42197
4.06617
0.049412
0.1222
0.00664217
0.326337
0.0989094
1.20159
2.24026
0.100903
1.17679
0.8607
0.0638425
0.052702
0.0917988
3.75172
4.85478
0.0685056
1.32866
1.49872
0.599586
3.17957
5.64205e-05
0.0828643
0.455432
0.00896116
2.09653
0.96921
2.95101
1.49691
0.0401462
1.50476
0.0433846
0.0023261
0.591652
0.12835
0.189808
0.0794174
0.0967673
0.594804
0.122477
0.048777
0.0998406
0.109678
0.458634
0.111954
3.4694
1.39007
0.115251
1.58014
0.140313
0.952193
0.106217
0.0925017
0.134551
0.72703
0.59209
0.0104654
0.138699
3.40473
4.79116
1.078
0.101028
0.851775
1.03109
1.3869
5.55175
1.12694
0.22063
0.117004
3.12948
0.0374598
0.0487716
0.258782
3.28649
4.39149
0.0780965
0.0805473
2.95192
0.0444683
4.73577
3.14184
0.13274
0.0772845
4.02418
2.2367
2.17663
0.0928706
0.076143
0.0307535
0.817999
1.1955
0.0930969
0.0451402
0.0773145
1.06319
0.115197
0.462365
2.26172
0.0768927
0.0870661
5.58551
0.0789253
0.667334
0.0730659
0.700029
0.0889963
0.0605105
1.07581
0.141952
0.103435
0.0895672
0.400086
0.67474
3.9359
0.0573816
0.083552
0.0972144
1.28808
0.941324
4.91499
0.0441804
0.72609
1.39364
0.000347101
0.042541
0.101199
2.49484
0.0953898
1.03959
0.13819
0.0016758
1.15815
0.118064
5.2856
4.1856
0.800114
3.46287
3.54262
3.73052
0.0794468
3.36603
1.22119
0.127504
1.24137
0.0765516
0.103052
0.936241
0.102127
0.212975
0.659113
5.26131
0.051649
0.0425086
3.3663
0.192207
0.123785
1.31448
2.35718
1.53277
0.0950221
0.288972
3.9927
2.92236
1.12799
0.637625
2.78971
0.212179
0.046463
0.777318
2.80352
0.09211
0.512523
0.156936
3.16776
0.143508
0.97777
2.10416
0.009768
0.0881454
0.0964659
2.9925
1.42234
3.06656
2.42748
0.180188
0.460993
0.644898
0.232162
2.18011
0.564671
0.077944
0.114066
0.102533
0.0316257
0.882911
2.76917
0.0395974
3.00284
0.144302
1.28554
0.0849655
0.0735604
0.048142
3.62106
3.01438
0.395516
0.675706
0.0772573
0.0591
1.54504
0.0782515
1.47553
1.14257
3.69888
0.0757228
0.370066
1.56416
0.126618
0.168695
0.11481
3.75131
0.110255
0.204098
1.28777
1.34106
0.0559826
0.230285
0.0801497
0.139552
0.064278
0.0645348
0.606403
0.0586815
0.320226
2.91589
0.941561
3.56928
0.106089
0.293011
0.808744
0.0424792
2.25937
0.0923909
0.130889
3.52477
0.136188
0.430804
0.208663
0.0395011
2.62518
0.0809813
0.39035
0.043071
1.26434
1.36459
3.57045
0.0550632
1.15113
0.0795269
0.411513
0.129322
3.18069
1.0582
0.313584
2.91367
0.104112
3.43374
0.0974252
2.49858
0.126035
0.0477197
0.107564
1.01616
1.39607
0.0538857
0.0944522
0.958079
0.0745028
0.0998844
0.0573904
0.0394696
0.123757
4.02528
0.155838
0.106368
1.47401
0.397705
3.71698
0.0283499
0.111573
0.0748725
0.22958
0.174748
0.100218
4.05671
0.257798
0.748434
0.0762821
0.240444
0.885858
3.04825
0.0917511
0.0894617
0.136081
0.169732
0.0836761
0.521974
3.79503
2.76914
0.678802
0.0736633
1.57143
3.7568
0.331897
0.932956
0.130379
2.40845
2.74197
3.5603
0.094245
0.0983874
0.27199
3.05722
0.183353
4.69353
0.168176
0.45153
2.82745
0.0434268
0.123788
0.135072
0.0800712
0.07498
0.134512
2.282
0.0755311
3.384
0.0891375
0.0792988
0.0579022
0.0783066
0.598809
0.0937753
0.969245
0.879418
0.0813897
0.151441
2.44427
2.59565
0.0767083
0.0913635
0.143558
0.605414
2.23611
0.305521
3.53014
0.0655721
0.0815043
0.598808
0.0897337
0.376537
1.5416
0.0803789
0.0551343
0.0115308
0.162918
0.994648
4.89493
1.12927
0.083332
0.291666
0.0764699
3.87443
3.95318
0.0946807
0.0805186
1.19121
0.0916088
0.0653961
2.42086
2.25212
0.167984
0.0829928
0.0608291
0.547886
2.29414
0.0824092
0.0534634
2.13653
2.98319
0.00159427
0.0775183
0.0656523
0.145853
0.440697
0.590208
0.0965258
1.35515
0.0997551
0.122927
0.0752769
0.602144
0.0728294
3.47693
2.8284
3.6882
2.08204
1.43992
3.95753
0.0823833
3.67148
0.631936
0.0561263
0.291497
0.0495984
0.255591
0.092028
0.0851207
0.055093
3.33603
0.0419405
0.375071
1.53955
0.133494
0.297277
0.413724
3.54396
0.0246415
3.63776
2.9136
0.128894
0.0654552
0.268016
0.334578
0.239039
1.13619
5.11052
0.126637
0.058209
0.0921991
1.1032
3.90119
0.138883
0.157227
0.0411357
0.075203
0.112858
0.451727
0.080228
0.154008
0.281699
2.68898
0.0923536
0.278573
3.33561
0.117314
0.323334
0.248735
4.23059
0.326908
0.424501
0.588126
0.104431
5.42972
2.87894
0.0804186
0.834279
1.36658
0.0906714
0.127002
0.131099
1.24508
0.0800286
0.649347
0.0914118
1.5383
2.77259
0.869167
2.59762
0.204614
0.109109
0.977752
1.10848
0.143508
0.15439
0.10771
2.74892
0.13168
0.292822
0.0686444
0.170025
0.766881
0.085793
0.0585411
0.0749938
3.14786
0.939427
0.0764864
0.167384
0.073876
0.0885939
0.107771
2.55162
0.156493
0.965109
3.25044
0.804327
0.00311819
1.15521
2.14194
0.93728
2.49307
0.249475
0.988711
3.58379
3.2582
0.0212152
2.80154
0.0901981
3.72134
1.13171
0.0787689
0.652681
1.31258
3.8881
0.858218
0.338967
0.0970542
1.27997
3.03795
0.437546
3.61754
0.16949
0.93559
0.0856571
2.95878
0.402629
0.051115
0.10999
0.912775
0.066216
0.199699
0.913807
0.0838459
2.49179
0.0423462
0.104428
1.64726
1.25675
0.162033
0.592462
1.43701
0.176602
0.681777
0.591413
0.0974675
0.427484
0.0534362
2.58826
0.778215
0.0465916
4.10286
0.0904858
0.598595
0.548
0.118572
0.0690052
0.578066
0.908699
1.25311
0.0616911
3.79004
0.0836999
0.664697
3.9324
0.504306
0.161793
1.37871
0.137961
0.0873933
0.00622078
1.27328
3.1323
0.0949891
3.5821
0.279435
0.110685
1.12564
0.119862
0.105956
0.687132
0.145947
0.0846526
0.335971
0.0819889
0.111959
0.154481
2.70202
2.9835
0.203586
0.0851434
0.0604591
0.714399
3.82271
0.0865218
0.0762306
0.314231
3.69034
0.0855002
1.03544
0.681329
0.0491332
0.622013
3.71648
0.0817033
0.235493
0.0846493
0.760681
0.0734531
0.0850842
0.16361
0.49977
3.06937
0.040253
3.52272
0.0603487
2.82078
0.104166
1.1529
0.554152
0.971071
2.62624
0.1407
0.680076
0.17326
0.145583
0.150293
2.8722
2.93591
0.0960731
0.0956475
0.449938
0.149612
0.108668
0.0450934
4.09505
3.2663
0.903972
3.64742
0.162996
0.0503709
0.76293
0.229189
2.53796
0.0393638
0.127495
0.0490254
0.109632
0.0912077
0.0975712
0.0961855
0.478801
4.02021
2.99934
0.0825929
0.302426
0.782364
3.65691
0.0984527
3.84014
2.28243
3.34037
0.131702
0.915547
0.0604255
0.162546
0.119885
0.124107
0.0738192
2.52147
3.79166
0.138062
0.349915
0.913108
0.311141
2.88086
4.08054
0.0966294
0.0565767
0.103499
0.29902
0.843665
0.0457206
2.77658
0.777661
0.100531
0.16883
0.161057
0.565458
0.170079
0.0672294
0.0933963
0.0735268
0.18061
0.675925
0.151517
3.63895
0.135239
0.107893
0.316015
0.155312
0.0776963
3.53725
2.94311
0.112632
3.08034
0.0780805
1.1641
0.135538
0.173808
0.0803232
0.0533809
2.93782
0.124841
0.151189
3.66905
2.56235
0.0752736
0.0836041
0.0835355
0.157897
1.46796
0.0283598
0.0981088
3.72236
0.0972365
0.078621
0.138828
3.24397
0.106232
3.07776
2.51378
0.0636989
4.80978
0.149018
0.0396528
4.06569
0.61111
0.0756381
0.00140417
0.591857
0.159449
0.18194
0.053081
1.33925
2.9551
0.109525
0.0527417
2.94068
0.102203
1.72731
1.05679
0.110257
0.853406
3.82776
0.073985
0.78349
0.0951312
0.136838
0.164457
0.0907352
3.37774
2.81769
0.107548
0.0810407
3.41412
0.1153
0.171021
0.1597
0.807666
1.15782
0.0483166
0.0783278
0.0812747
0.0836777
0.0467061
0.00379832
0.139838
0.162469
3.34723
0.600465
0.0871289
1.34419
0.154157
1.00949
3.88596
1.0195
3.14357
0.163563
0.00251445
0.619171
0.16703
0.101004
2.59959
0.127917
5.83966
2.91643
0.594551
0.126588
3.87217
0.0478133
3.22794
0.0957322
0.0939172
3.7273
0.405121
1.01065
0.111986
0.0856838
0.0521732
0.142229
1.43117
1.04853
0.100614
2.0739
0.49158
2.91056
0.0428604
4.02062
0.111737
0.0870867
0.34965
0.0877119
0.596545
3.24104
0.755706
0.0539732
2.48613
1.35353
0.417013
0.929059
0.701379
0.0250122
0.676542
3.23992
0.0786449
0.0881474
0.0880485
3.51352
0.112505
0.0438414
1.31484
0.700798
0.327689
4.03339
0.831702
0.270325
0.313874
1.2857
0.159201
0.727239
0.0735741
0.0956991
0.0873122
3.51148
0.119041
1.01984
3.01556
0.0411462
0.989106
3.20175
0.098218
2.72249
0.0813059
0.703626
0.164316
0.0438297
0.139482
0.0811155
0.0558593
0.144492
0.11013
0.113647
0.13269
2.66547
0.728052
0.110561
0.694184
0.0749403
0.0999265
0.0776676
0.103363
0.134437
1.55475
0.0393523
1.51387
2.96114
1.52258
1.08876
0.305363
0.146826
3.46607
0.0888879
0.592302
0.112127
0.08944
0.212647
2.96708
0.130046
0.0839187
0.0751939
0.26219
0.194091
1.50335
0.691079
1.24379
2.45788
0.0934071
0.0669936
3.28103
0.0880785
0.117503
0.0524488
0.200337
0.0581702
0.074192
0.135436
0.0417818
1.1394
3.09157
1.3169
0.174805
0.0805701
0.953991
3.31434
2.82422
0.0502846
0.104813
0.769796
0.0782715
0.0458523
0.159801
3.02186
0.836856
0.0749944
0.0846513
0.131505
0.0481239
2.97614
0.0709547
0.110143
0.115384
0.108246
2.90511
0.0885909
1.55353
0.136819
0.133866
0.0506176
0.0631347
3.1587
0.476673
0.0730531
3.74755
0.816973
0.686028
0.0546403
0.0907449
1.25301
3.97993
4.01581
0.0832212
0.922858
0.0879906
0.0772686
3.35235
2.82354
0.0424442
0.00454637
1.08761
1.47884
0.0797252
0.0436125
2.99638
0.0860064
0.254659
0.195103
0.113957
3.53648
0.0859711
0.0924231
0.115835
2.14009
0.0792143
0.0511444
0.0814987
0.11914
0.285094
0.142675
0.581997
0.835491
0.783507
0.116037
0.105873
0.0771828
0.0590761
0.110844
0.0957017
0.701052
0.0996523
0.126342
0.402324
2.46379
0.0676914
0.0432071
0.113138
3.63726
0.102989
0.951861
0.0359051
0.0822845
0.010298
0.113414
0.0907531
3.76222
0.120437
0.0593443
0.45746
0.0800758
1.36783
0.104636
0.0815274
3.21261
3.22881
0.0446273
2.97332
0.0842214
1.07086
3.13499e-05
2.7184
0.0663523
1.37318
0.0900629
3.23702
0.596293
1.12077
3.14682
4.0495
0.133704
3.63431
0.0599547
0.047275
0.0901091
3.21598
0.199908
0.0503154
0.797663
2.58825
2.3459
0.173617
3.89459
0.0505572
0.16091
0.080344
0.567194
0.159443
1.64876
0.0962825
0.125355
0.0825791
0.0435315
0.163245
2.65725
0.0785016
0.0821155
4.01775
0.679187
0.0436773
0.212965
3.24488
0.112537
0.0977295
3.5028
0.176693
3.72291
1.27927
0.0867372
0.465179
0.899257
0.0340592
0.15629
0.073907
0.0454738
0.17068
0.166246
3.0552
0.0511371
0.904247
0.318932
0.108718
3.13177
1.11514
0.166393
0.0859654
0.0396709
0.0614795
0.0446535
0.877809
2.01967
0.0792288
0.096187
0.113319
1.13429
0.14508
0.90964
0.128912
0.0935381
0.126079
0.143321
1.32879
0.142814
0.659035
1.16403
0.000232253
1.3509
0.109636
0.916127
0.593159
0.0968
0.0915968
0.163511
0.0663095
0.14447
1.19998
3.51282
3.29711
2.89045
0.830802
0.0072816
0.0440104
1.27982
0.0549734
1.43633
3.99371
0.0869466
2.70792
0.926519
2.56797
0.119947
0.0543636
0.096945
0.0791143
2.558
0.0773477
3.11019
0.297999
0.184204
0.0469409
3.27105
1.19004
0.111929
0.0642559
0.426918
0.142927
0.0945784
0.806834
0.903027
0.0671688
0.0654248
2.95935
0.0832632
1.13436
0.122669
0.103496
0.167474