/*--------------------------------*- C++ -*----------------------------------*\
  =========                 |
  \\      /  F ield         | OpenFOAM: The Open Source CFD Toolbox
   \\    /   O peration     | Website:  https://openfoam.org
    \\  /    A nd           | Version:  10
     \\/     M anipulation  |
\*---------------------------------------------------------------------------*/
FoamFile
{
    format      ascii;
    class       volScalarField;
    location    "1300";
    object      nut;
}
// * * * * * * * * * * * * * * * * * * * * * * * * * * * * * * * * * * * * * //

dimensions      [0 2 -1 0 0 0 0];

internalField   nonuniform List<scalar> 
10435
(
0.800687
0.357589
0.549338
0.59922
0.414122
0.419439
0.59419
0.80043
0.982534
0.452479
0.370866
0.657337
0.467753
1.36145
1.28431
0.684031
1.42489
0.450252
1.09722
0.763191
0.738115
0.728128
0.624899
1.07417
0.472851
1.66271
1.66251
0.503461
1.52534
0.443549
0.542135
0.380727
0.850196
1.53024
0.838575
0.433914
0.765426
1.72449
1.54707
1.09785
0.435952
0.591409
1.3729
0.607374
0.674765
1.09947
0.430133
1.48052
1.00015
0.883625
0.785194
0.451345
1.50723
1.51943
1.57755
1.46179
0.840747
1.68402
1.5186
0.930994
1.54276
0.362614
1.62999
0.451341
0.645759
0.521348
1.5279
1.59344
0.751949
1.08137
1.521
1.73152
1.2582
0.545852
1.18994
1.22197
1.05261
0.628307
0.891727
1.26355
0.966398
0.965618
1.46818
1.51989
1.0029
0.618846
0.643176
0.499562
0.90939
0.578721
0.492018
0.485745
0.916696
0.821326
0.537541
0.517607
0.514693
1.12134
1.49302
0.47056
1.01787
0.407661
0.726618
0.513853
0.410183
0.597816
0.885411
0.925757
1.02875
1.18436
0.866683
0.406214
1.03002
1.10458
0.446452
0.721527
0.495196
0.533045
0.414784
0.573118
0.523837
1.14091
0.471156
0.71381
0.389408
1.59808
0.5483
1.03417
0.439158
1.83208
0.882388
0.378036
0.744034
1.33929
1.74767
1.34945
0.428936
0.623571
0.419487
0.727204
0.740161
0.593296
1.53388
0.524176
0.753633
1.12383
0.54449
0.428498
1.3769
0.607984
1.51135
0.715362
0.68898
0.582413
0.440429
1.57242
0.398371
0.435053
0.441549
0.345575
0.626054
1.40474
0.41883
0.811898
1.0961
0.47079
0.87814
0.675039
0.836885
0.479221
0.470869
1.29315
1.51887
1.0489
0.697585
0.328361
0.381896
1.48428
0.862054
1.56347
0.362034
0.416878
0.613987
1.5551
0.623113
1.37613
1.24902
0.659385
0.411532
0.488356
0.574471
1.43469
1.80849
0.354599
0.401732
0.70494
1.31161
0.723946
1.47556
0.71771
1.00136
1.65796
0.484294
1.6658
0.506244
0.418491
0.41396
0.65379
1.60655
0.785477
1.4566
0.590916
0.533025
0.776081
1.60758
1.29972
1.01073
1.45258
1.67331
1.45609
1.54811
1.49297
1.56485
0.93233
1.63926
0.78159
1.59902
0.843273
0.503801
1.12325
1.53947
0.831662
1.63224
0.745148
1.82462
1.47295
0.897567
1.68316
0.905586
0.505344
0.622696
1.59431
1.42152
1.48941
0.412745
0.923214
0.6318
0.732617
1.2523
0.317462
1.35412
0.917281
0.462368
0.80703
0.688284
0.438334
1.17328
0.657122
1.4948
1.5892
0.627884
0.474225
1.6305
0.950837
0.928051
1.52909
0.647962
0.575373
1.4794
0.426588
0.598464
0.796732
0.727825
0.487838
1.72504
0.592502
1.77899
0.404019
0.684809
0.835236
0.466734
1.39977
0.570287
0.958551
0.82912
1.40861
0.4195
1.56138
1.51913
1.54716
0.7815
0.362726
1.58453
0.763239
1.56162
1.50516
1.2146
0.856307
0.399337
0.514519
1.54725
0.89685
0.546261
1.33895
0.388776
1.21396
1.43607
0.774629
0.51808
1.51532
0.86718
1.66868
0.324146
0.418299
0.938014
1.4713
1.53431
0.546372
1.57383
0.681003
0.411734
1.58262
0.750357
1.40385
0.875675
0.483143
1.79213
0.525864
1.55413
1.74427
0.970379
1.54085
1.50874
0.562182
0.66605
1.64261
1.43693
1.31681
1.50292
1.46613
1.82181
1.65779
1.50878
1.52492
1.46885
1.58474
1.61345
1.84967
1.37535
0.920907
1.50341
0.486903
1.62932
0.507171
0.914991
1.01936
0.468967
0.569065
1.50972
1.53049
1.36481
1.62454
1.43759
1.4419
1.56309
1.8276
1.62192
0.727372
1.78888
0.954448
1.5999
1.84333
0.460135
1.05942
1.38075
1.68632
1.66288
1.75339
1.53239
1.70935
2.0036
1.57778
0.859056
1.58964
0.772215
0.948205
0.490873
0.4778
0.980978
0.522531
0.885252
1.00628
1.37651
1.52565
1.49234
0.540137
1.52464
0.458603
1.95609
1.57517
1.83904
1.56386
1.51138
0.630388
1.71682
0.815486
0.799205
1.3859
1.75598
1.87361
1.06166
1.92855
1.77985
1.57613
1.44645
1.56517
1.52811
0.527526
1.51116
1.73066
1.52636
1.51014
0.44908
1.32233
1.33713
1.10359
1.52136
10.4987
10.5138
10.4687
10.4107
10.3743
10.3948
10.5219
10.8319
11.4458
9.58484
9.61308
9.61365
9.60973
9.62798
9.6996
9.86689
10.1886
10.7385
8.60045
8.63676
8.66568
8.69827
8.75421
8.85972
9.05023
9.37225
9.87944
7.57013
7.60996
7.65455
7.70882
7.78712
7.91093
8.10992
8.4224
8.89227
6.52934
6.56905
6.61967
6.68339
6.77067
6.8989
7.0927
7.38443
7.81444
5.52008
5.55701
5.60656
5.67006
5.75536
5.87641
6.05303
6.31135
6.68541
4.58469
4.61725
4.66067
4.71688
4.79216
4.89764
5.04869
5.26478
5.57015
3.76046
3.78664
3.82018
3.86453
3.92503
4.01043
4.13222
4.3044
4.54245
3.07213
3.08844
3.10957
3.13993
3.18397
3.24834
3.34151
3.47372
3.6562
2.52453
2.52836
2.53662
2.55343
2.58208
2.62728
2.69511
2.7932
2.93084
2.10339
2.09628
2.09421
2.10024
2.11651
2.14614
2.19334
2.26353
2.36352
1.78515
1.77329
1.76582
1.76515
1.77287
1.79115
1.82291
1.87195
1.94302
1.54908
1.53982
1.53184
1.52825
1.53087
1.54157
1.5626
1.59669
1.64708
1.38451
1.38006
1.37383
1.36941
1.36915
1.37494
1.38874
1.41267
1.44905
1.28235
1.28042
1.27536
1.27046
1.26823
1.2706
1.27935
1.29625
1.32321
1.23007
1.22739
1.22185
1.21591
1.21183
1.21144
1.21635
1.22804
1.24797
1.21311
1.20808
1.20088
1.19327
1.18716
1.18422
1.18591
1.19354
1.20825
1.21875
1.21173
1.20254
1.19291
1.18459
1.17911
1.17786
1.18207
1.19281
1.23914
1.23076
1.21964
1.20786
1.19716
1.18908
1.18495
1.18594
1.19311
1.26979
1.26036
1.24732
1.23324
1.22002
1.2092
1.20212
1.19992
1.20359
1.30825
1.29764
1.2824
1.26573
1.24973
1.23599
1.2258
1.22031
1.22059
1.35346
1.34089
1.32272
1.30297
1.28387
1.26694
1.25342
1.2444
1.24099
1.40558
1.38905
1.36666
1.34315
1.32056
1.30021
1.2831
1.27023
1.26273
1.46614
1.44111
1.41258
1.3846
1.35825
1.33434
1.31346
1.29636
1.28417
1.53886
1.49482
1.45833
1.42576
1.39563
1.36832
1.34371
1.32198
1.30358
3.74184
3.82142
3.90889
4.00388
4.10624
4.21554
4.33142
4.45321
4.58048
4.71245
4.84854
4.9881
5.13027
5.27443
5.41959
5.5649
5.70944
5.85217
5.99205
6.12811
6.25914
6.38401
6.5015
6.6102
6.70921
6.79828
6.87721
6.94561
7.0029
7.0501
7.08796
7.11717
7.13876
7.15433
7.16579
7.17552
7.1863
7.20126
7.22409
7.25889
7.31021
7.38308
7.4825
7.61359
7.78108
7.98878
8.23879
8.53109
8.86174
9.22293
9.60183
9.98116
10.3408
10.6586
10.9139
11.089
11.1718
11.1562
11.0467
3.70142
3.78174
3.86936
3.9642
4.06607
4.17467
4.28964
4.41051
4.53678
4.66788
4.80317
4.94197
5.08355
5.22712
5.37182
5.51677
5.66101
5.80355
5.94336
6.07938
6.21053
6.3357
6.45381
6.56375
6.66448
6.75515
6.83525
6.90461
6.96347
7.01237
7.05192
7.08282
7.10609
7.12311
7.13567
7.14596
7.15663
7.17074
7.19186
7.22402
7.27173
7.3399
7.43373
7.55849
7.71917
7.91992
8.16331
8.44946
8.77496
9.1321
9.5084
9.88688
10.2471
10.5672
10.8261
11.0057
11.0935
11.0828
10.9767
3.63073
3.70778
3.79215
3.88382
3.98265
4.0884
4.20074
4.31924
4.44342
4.57269
4.70644
4.84397
4.98456
5.12739
5.27162
5.41635
5.56061
5.7034
5.84369
5.98039
6.11241
6.23862
6.35793
6.46923
6.57153
6.66407
6.74631
6.81802
6.87928
6.93046
6.97211
7.00496
7.02997
7.04846
7.06207
7.07286
7.0833
7.09634
7.11538
7.14436
7.1877
7.2503
7.33741
7.45444
7.60662
7.79842
8.03284
8.31043
8.62835
8.97947
9.35193
9.72934
10.0917
10.4172
10.6847
10.8757
10.9769
10.981
10.8903
3.5219
3.59518
3.67582
3.76384
3.85914
3.96155
4.07076
4.18641
4.30802
4.43506
4.56692
4.7029
4.84229
4.98426
5.12798
5.27251
5.41688
5.56009
5.70105
5.83869
5.97186
6.09946
6.22037
6.33351
6.43793
6.53285
6.61771
6.69222
6.75636
6.81039
6.85476
6.89016
6.91751
6.93802
6.95324
6.96511
6.97594
6.98856
7.00624
7.03281
7.07265
7.13061
7.21202
7.3224
7.46717
7.65111
7.87758
8.14763
8.45897
8.80511
9.1748
9.55219
9.91761
10.2495
10.5264
10.7295
10.8449
10.8645
10.7897
3.38152
3.45056
3.52704
3.61104
3.7025
3.80131
3.9072
4.01985
4.13882
4.2636
4.39357
4.52808
4.66639
4.80768
4.95108
5.09566
5.24044
5.38437
5.52636
5.66529
5.80004
5.92946
6.05246
6.16795
6.27502
6.3729
6.461
6.53898
6.60673
6.6644
6.71236
6.75121
6.78182
6.80531
6.82316
6.83718
6.84959
6.8631
6.88092
6.9068
6.94508
7.00062
7.07879
7.18522
7.32551
7.50467
7.72637
7.99206
8.29992
8.64396
9.01344
9.39293
9.76315
10.1026
10.3897
10.6054
10.7351
10.7702
10.7112
3.21258
3.27685
3.34875
3.42841
3.51583
3.61092
3.71346
3.82317
3.93962
4.06234
4.19071
4.32408
4.46169
4.60273
4.7463
4.89145
5.03717
5.1824
5.32601
5.46688
5.60386
5.7358
5.8616
5.9802
6.09068
6.19228
6.28439
6.36665
6.43887
6.50112
6.5537
6.59716
6.6323
6.6602
6.68222
6.70012
6.71603
6.73256
6.75288
6.78068
6.82029
6.87658
6.95498
7.06124
7.20111
7.37981
7.60132
7.8674
8.17659
8.52329
8.8971
9.28285
9.6614
10.0112
10.3106
10.5399
10.6844
10.7348
10.6912
3.01867
3.07763
3.14452
3.21954
3.30274
3.39408
3.49339
3.6004
3.71473
3.83587
3.96324
4.09615
4.23382
4.37541
4.52001
4.66663
4.81424
4.96173
5.10796
5.25177
5.39199
5.52747
5.65711
5.77989
5.89486
6.00129
6.09856
6.18627
6.2642
6.33238
6.39109
6.44082
6.48235
6.51674
6.54527
6.56967
6.59198
6.61476
6.64114
6.67478
6.71998
6.78166
6.86533
6.9769
7.12232
7.30704
7.53526
7.80902
8.12711
8.48411
8.86973
9.26873
9.66175
10.0269
10.342
10.5872
10.7472
10.8125
10.7831
2.80168
2.85448
2.91574
2.98572
3.06457
3.15228
3.24873
3.35366
3.46668
3.58728
3.71482
3.84854
3.98759
4.13107
4.27806
4.42757
4.57855
4.72984
4.88023
5.02849
5.17345
5.31396
5.44896
5.57748
5.69853
5.81143
5.91555
6.01051
6.09605
6.1722
6.23928
6.2978
6.34856
6.3926
6.43117
6.46606
6.49929
6.53324
6.5711
6.61648
6.67372
6.74783
6.84446
6.96986
7.13028
7.3314
7.57766
7.87107
8.21049
8.59056
9.00085
9.42559
9.84448
10.2345
10.5724
10.8373
11.0137
11.0921
11.0729
2.56377
2.60885
2.66338
2.72784
2.80245
2.88719
2.98181
3.0858
3.19907
3.32137
3.45144
3.58829
3.73086
3.8782
4.02956
4.1839
4.34043
4.49799
4.65482
4.80965
4.96142
5.10901
5.25158
5.38814
5.51762
5.63948
5.75306
5.85803
5.95415
6.04159
6.1209
6.19257
6.25721
6.31597
6.37015
6.42223
6.4742
6.52725
6.58513
6.6517
6.73161
6.82994
6.95236
7.10626
7.2988
7.53548
7.82089
8.1551
8.53656
8.96156
9.4209
9.89741
10.3672
10.804
11.1812
11.4742
11.6655
11.7465
11.7208
1.61986
1.55526
1.50425
1.45881
1.41623
1.37614
1.33934
1.30737
1.28233
1.26697
1.26479
1.27923
1.3129
1.36734
1.44361
1.54351
1.66888
1.82019
1.9962
2.19486
2.41456
2.65463
2.91563
3.19992
3.51235
1.54055
1.52037
1.48692
1.44872
1.40913
1.37011
1.33347
1.30123
1.27579
1.26001
1.25709
1.27023
1.30224
1.35536
1.43141
1.53194
1.65787
1.8091
1.98443
2.18219
2.40082
2.63969
2.89957
3.18309
3.49562
1.51722
1.49914
1.47031
1.43531
1.39731
1.35877
1.32192
1.28911
1.26289
1.24614
1.24195
1.25349
1.28374
1.33536
1.41045
1.5104
1.63564
1.78555
1.95871
2.15343
2.36804
2.6019
2.85561
3.13148
3.43383
1.50738
1.48557
1.45611
1.42122
1.38319
1.34426
1.30668
1.27288
1.24547
1.22732
1.22148
1.23112
1.25937
1.30903
1.38229
1.48039
1.60337
1.75018
1.91908
2.10818
2.31568
2.54087
2.78423
3.04782
3.33543
1.50083
1.47522
1.4436
1.40735
1.36819
1.32808
1.2892
1.25393
1.22488
1.2049
1.19703
1.20446
1.23034
1.27753
1.34815
1.44322
1.56247
1.70444
1.86703
2.0481
2.24576
2.45922
2.68895
2.93695
3.20691
1.49467
1.46584
1.43185
1.39371
1.35284
1.31103
1.27036
1.23317
1.20206
1.17987
1.16964
1.17455
1.19775
1.242
1.30928
1.40034
1.51457
1.65014
1.80458
1.97553
2.16095
2.36002
2.5732
2.80249
3.05167
1.48795
1.45663
1.42057
1.38048
1.33763
1.29376
1.25089
1.21139
1.17787
1.15315
1.14029
1.14246
1.16271
1.20367
1.26708
1.35338
1.46158
1.58949
1.73432
1.89338
2.06456
2.24687
2.44068
2.64811
2.87326
1.47967
1.44741
1.40997
1.36808
1.32313
1.27689
1.23151
1.18938
1.15317
1.12571
1.11007
1.10939
1.12659
1.16408
1.2233
1.30432
1.40578
1.52513
1.65927
1.80518
1.96056
2.12413
2.29599
2.47808
2.67465
1.47058
1.43904
1.40092
1.3573
1.31004
1.26118
1.21299
1.16804
1.12905
1.0988
1.08041
1.07699
1.09124
1.12527
1.18025
1.25579
1.35016
1.46048
1.58334
1.71545
1.85428
1.99813
2.14616
2.2993
2.46062
0.44956
0.452862
0.414276
0.391797
1.08613
0.992563
4.20681
1.58742
0.388468
8.92225
0.244472
1.03072
4.81428
0.827178
5.41663
3.10988
0.293983
0.368183
12.3272
0.900414
3.90268
5.12663
0.275717
1.18147
0.907565
1.97338
0.97355
1.13553
0.406946
0.278179
9.79341
2.35632
0.448131
4.29025
0.272463
1.66333
4.14455
5.4173
3.96823
1.73917
0.35898
0.170824
3.88821
1.4902
1.2488
6.45836
0.263607
0.283303
0.386593
0.467805
0.257501
0.336723
6.0849
0.352733
4.1769
0.39528
0.821166
5.42208
0.6114
0.289116
1.73457
0.428198
1.03283
4.2054
1.67892
1.46054
2.20527
0.605482
4.16214
0.442506
0.394033
5.56683
1.03811
1.09184
0.947517
4.12887
1.68099
0.303611
0.959261
0.327493
4.68055
1.93103
2.09894
0.230867
1.33424
1.63589
1.28504
0.308137
0.446822
1.2388
1.23764
1.43004
8.48598
1.04645
0.986547
0.247042
1.91645
0.244767
0.423789
0.290522
0.913159
0.366877
0.944574
5.97695
0.640272
1.14151
0.284974
4.90981
0.289474
0.2808
4.63113
0.756277
0.303175
6.03795
6.00691
0.389749
0.406737
1.85378
6.56821
0.474131
0.105435
0.7646
1.15829
0.860812
0.440982
3.67027
0.341511
1.23339
0.871984
0.284175
1.96206
1.15059
0.436611
3.79229
1.24984
1.21942
1.2397
0.823723
2.0166
0.806036
6.50283
3.80743
0.289213
0.126351
0.401817
3.39851
0.414671
2.37714
3.03148
0.272077
2.92997
1.26375
0.413123
4.88346
0.787146
0.23034
0.832447
1.91742
2.23777
3.26949
4.08968
0.387602
3.51651
0.249222
6.11926
0.240261
0.911099
0.9767
3.96685
0.773703
0.771763
4.48165
0.622894
0.234772
2.0242
1.15332
4.27371
0.426112
0.346752
6.39134
4.78798
2.24471
6.35304
4.8703
1.46119
0.926443
0.243745
0.294678
0.469838
2.66321
0.284923
0.290825
0.416746
3.6809
5.20409
0.468813
0.937263
5.02612
0.397477
0.421743
2.01884
4.9688
1.87192
2.63486
2.11851
5.32727
1.99037
0.926345
0.396584
2.13946
0.658102
0.978401
4.65299
2.03187
3.13955
0.344364
0.777307
1.59389
5.95105
1.22712
0.800145
0.202335
0.748904
0.450629
0.152256
0.390063
1.31122
0.296723
0.252598
1.03976
0.226832
1.73896
2.03101
1.16455
3.97696
7.49274
2.75551
0.955408
4.94837
5.08106
6.76232
1.66513
5.65766
1.35134
1.10008
1.5951
2.57991
1.27974
3.11337
4.583
0.213622
1.19779
3.72976
0.396502
1.11747
0.952972
0.293315
1.8215
2.37235
12.2618
0.784225
0.878264
2.40943
0.805499
1.25285
0.805752
5.55124
0.439158
4.1144
1.00637
3.69156
0.423049
0.522016
1.42552
12.0235
0.44168
1.7869
0.359526
0.91394
0.298148
1.50034
2.99712
0.674194
6.43557
0.342481
2.16591
1.15959
0.19355
0.273987
0.284847
4.87643
3.67289
0.120013
0.274554
1.55184
0.351499
0.35484
1.60544
3.20588
0.319742
0.2992
4.25577
1.2455
2.69034
0.361761
5.82344
3.65199
3.06941
0.799847
2.04109
5.68662
7.38864
0.465861
0.897077
0.455385
3.33877
0.274402
3.55832
0.936515
1.91941
2.25126
3.17973
1.164
9.81993
1.30813
0.833802
0.408005
4.86653
1.6737
5.26965
6.22768
5.25922
0.740963
8.47717
0.31773
1.67804
2.26219
2.27416
0.128343
0.735356
0.967026
1.0286
0.301257
7.56585
1.3275
0.74382
0.818871
1.14157
1.10918
0.250461
0.30763
8.30824
0.179286
2.45659
0.278096
0.160649
1.41627
1.50937
5.38088
0.253504
0.403719
0.264195
3.74482
0.393286
0.17496
1.1696
3.92732
0.284683
2.39767
0.468886
6.84643
4.79429
0.414786
0.36239
4.83364
0.674775
0.57736
7.11922
2.57719
7.64361
0.359861
4.09181
0.440011
1.50076
1.50465
1.41773
6.29454
0.925022
0.246898
0.284341
3.07057
5.33569
1.25125
0.416937
4.79465
10.6302
5.57351
0.444932
1.9088
0.408329
1.59351
3.94713
1.27673
0.456118
1.01508
0.102111
4.73752
1.25811
1.57024
6.64381
0.431053
2.33618
0.316321
1.96549
2.80448
0.29413
0.375086
0.251159
1.9921
1.45669
6.19977
2.72628
1.23957
0.969811
4.14642
0.29611
0.0967667
1.26251
3.98116
2.51478
2.56604
0.926141
1.23037
0.999626
4.65707
3.82273
4.72344
0.0914425
1.23258
0.646216
3.60493
5.06745
0.283657
1.53094
3.73569
0.493449
1.01053
0.447379
0.669469
0.95145
0.364369
3.96346
3.39281
0.32661
7.47722
0.442975
0.248775
1.77956
1.22845
1.53811
3.81148
1.45912
0.430628
4.6295
0.298704
1.30538
0.645179
0.443834
3.68145
0.251332
1.28199
1.14777
0.264999
0.588066
0.887812
4.45174
1.23169
0.944678
2.55374
2.74684
3.23709
4.56116
0.132509
1.02545
0.229429
1.1786
2.10994
5.50305
0.426261
6.12149
5.09409
3.36405
0.596685
0.417978
2.33836
0.596741
5.11591
2.26606
7.49809
0.468594
4.03771
4.75422
2.18455
1.25358
4.3428
4.34722
2.56456
2.69144
4.6365
2.37698
5.34648
4.62734
2.0446
1.24928
0.794349
0.284379
0.373175
0.369156
0.643534
2.61881
8.9405
0.285694
0.885583
0.482068
4.04004
5.96269
0.295895
0.388788
5.00742
4.78252
1.15238
6.21616
0.463237
0.418162
0.481538
1.41165
3.92609
0.346636
0.39832
3.47835
1.89494
0.284644
5.08191
0.294228
0.218439
0.459542
2.87137
0.747001
2.32236
0.349159
4.35277
4.84353
0.894322
0.400038
0.374128
0.279764
0.762589
7.73137
5.87169
0.393859
3.51389
4.17514
4.01375
4.72179
0.275585
10.3457
2.73387
0.663494
2.46927
0.698424
0.460258
5.92841
5.44395
0.623594
0.925763
0.304903
0.257815
0.396547
0.789737
0.681097
0.889418
6.54166
4.86625
8.75127
1.62637
0.442221
5.10995
0.952681
1.70585
4.91277
1.02885
1.42067
4.16356
4.53695
7.35873
0.613815
4.46055
0.366726
1.12675
2.38942
0.302318
1.15947
0.204315
1.22627
1.28141
1.18792
2.12903
4.48426
0.172999
3.70365
4.14582
4.31687
1.63573
3.90678
1.06918
5.35344
1.40405
0.845902
0.469422
4.61836
1.32969
3.12593
7.94758
1.50527
0.984205
0.2915
0.263582
1.08498
0.442834
0.98324
0.976411
1.09713
0.457655
3.45459
0.448925
4.58136
1.28986
0.714268
1.19168
4.28231
2.75034
0.841359
1.45287
4.93167
1.01774
2.00546
1.20575
1.42975
0.293046
4.64952
2.53645
0.337893
9.28504
0.163181
5.99613
5.09852
0.259126
12.4903
2.65939
3.37072
0.389644
0.283691
0.239832
0.105901
1.15714
1.47798
0.38286
0.440049
1.38524
6.29602
0.974183
11.2259
1.23366
0.297065
0.15996
2.69633
4.38624
1.6499
6.78955
6.40987
0.503015
5.58579
1.11946
2.16579
5.24683
0.902944
6.99045
0.405617
0.30549
2.4767
4.94492
1.80311
0.251205
1.70236
7.66345
4.52437
1.65431
1.48181
2.15174
5.54493
0.603508
0.687621
1.27833
5.59754
6.02675
0.284924
5.02864
2.7418
0.287172
5.25285
0.430177
0.270526
12.1643
0.881676
1.28642
0.119154
3.18815
1.49393
3.12188
1.71706
5.50256
9.92404
5.17018
1.2276
4.18498
2.98029
1.66754
2.64906
4.72865
0.371271
10.9083
0.351437
3.65106
0.422734
2.68051
0.378497
0.271483
0.461376
1.33869
2.91604
0.118948
0.755641
3.22884
1.26291
0.445914
8.05591
1.98617
1.51808
1.36077
1.67625
2.14296
0.258558
0.476408
2.17674
3.95773
4.51244
6.1164
0.373221
0.0537444
4.41202
1.26552
0.154825
0.446835
1.57217
0.270642
4.70982
0.901335
4.71538
0.351711
0.145242
1.39693
1.03171
0.856061
3.04229
3.76828
0.483095
2.8687
0.991286
4.19419
3.00845
0.471218
1.74051
0.30334
5.26633
5.27311
0.288293
4.37089
0.887721
1.36289
8.76028
6.82074
3.25696
2.97626
0.176787
6.12452
0.253453
0.482224
2.67453
1.9942
2.79396
1.58152
3.57057
0.484935
4.42192
1.15927
7.34605
0.274797
0.343733
1.51208
1.23288
0.467945
0.410452
1.92587
1.50325
0.467045
1.10031
0.456207
0.42854
6.22029
1.91496
0.368655
0.428722
0.425505
6.03871
2.97799
0.391141
2.88358
4.36823
4.26809
1.29179
0.600514
2.75562
0.827062
1.00583
0.443009
11.0861
2.89786
0.499555
10.4132
4.30139
0.684295
3.1393
3.00401
0.677542
1.42295
5.5118
7.91956
7.27403
1.25463
4.07167
0.311792
1.82692
4.44832
3.11911
5.45925
0.845427
0.448138
0.385992
2.73103
5.37524
0.0119057
0.931514
0.612473
0.225998
2.388
1.24471
3.47461
0.0597638
4.9701
2.83146
0.48989
0.478808
2.38953
0.296342
0.285471
0.260171
10.1901
0.446961
5.36223
7.05409
4.29414
1.78666
0.60538
1.38979
2.17018
1.22467
2.49782
0.479158
0.523653
0.564906
0.463289
1.09457
2.68678
4.43735
0.432474
1.3035
8.45311
1.21831
0.286032
0.270189
1.78516
4.77115
0.462316
1.59071
0.969948
3.01895
0.354265
2.29945
0.301151
1.34809
0.432892
3.57503
4.16589
0.424121
0.123456
0.648396
8.31275
0.321424
1.49585
0.368924
0.394152
5.43992
1.22636
2.52189
1.23354
0.445909
5.3169
3.93955
2.48618
2.30986
0.358698
2.98019
0.253485
0.455423
0.329593
6.72098
2.91384
9.69634
1.57431
1.46595
0.405448
0.397864
1.11238
3.54104
2.19203
0.914397
4.90806
4.49499
1.67004
3.46272
0.386477
0.705673
0.588808
4.79476
2.95316
4.56392
1.79362
0.388947
1.66147
0.866957
3.02359
4.85355
0.626386
1.23517
3.52913
5.73059
0.587413
1.17881
4.64349
1.45217
1.18327
0.336045
0.895231
0.402318
3.66071
1.1547
3.64004
0.546599
0.401612
0.944937
0.695719
0.317319
3.33634
0.971439
1.56086
0.998392
0.395073
6.98318
0.48801
0.61023
3.8909
4.0671
0.416278
0.725763
2.63808
2.25928
0.528382
3.24375
0.32357
4.96321
0.863663
0.286621
0.863119
0.255052
2.37671
0.403942
1.44986
1.42912
1.76633
4.25218
5.35278
0.455424
8.43509
1.30117
3.04925
8.14057
0.690785
0.50546
3.63264
0.286288
3.96488
3.06936
4.3562
1.19908
0.259346
0.348823
7.51214
1.67583
0.193422
4.48034
0.649111
0.394454
0.176011
1.49065
2.70374
1.23535
2.97621
0.326377
6.16101
8.85566
1.33474
4.35821
2.15795
0.307914
0.286533
0.350337
2.56237
2.06506
4.92488
0.397714
1.09927
1.64359
3.06645
0.431726
0.261445
0.255927
2.01535
2.15527
1.07712
0.378696
5.40584
0.463263
1.31378
0.7903
0.428204
1.05531
1.60167
0.823969
8.93639
10.234
0.320476
0.436313
11.5557
0.464544
3.00234
2.05792
1.47685
6.82905
5.63281
0.837515
0.946124
4.41146
1.23672
4.1312
0.402458
0.235658
3.74545
1.77352
5.82079
0.259614
0.310757
1.10677
0.298199
1.85206
9.72278
6.23564
2.02943
2.14679
5.08774
3.14979
1.21868
0.182135
0.690943
4.81349
0.490757
2.54854
9.59965
1.05945
5.68214
0.397349
0.379021
5.28152
9.68736
2.06556
2.66732
0.577228
0.411111
0.423878
0.557947
8.16244
0.87597
1.30779
0.448273
0.989968
0.500993
0.437131
0.336723
0.132623
2.20705
0.967307
6.67493
0.566186
6.36057
2.69203
3.36978
2.11125
7.15112
1.5139
5.11745
1.55259
0.280735
0.42897
0.378341
0.439
1.28663
0.422929
2.44847
0.376741
5.18241
1.85277
0.755052
0.527106
1.02663
4.04286
2.04304
0.529943
0.422863
0.929843
1.14153
4.9602
0.687043
1.1981
0.551366
0.254949
0.317737
0.285648
0.247725
0.777474
1.26611
1.22493
0.786088
1.23488
2.96116
0.482361
7.01877
0.653898
2.62423
4.55918
0.384251
3.29084
1.27693
0.854474
3.48303
1.52756
1.19046
9.39666
0.785919
1.37103
0.409894
7.53184
1.13002
0.32627
2.8714
1.25323
1.1909
0.477015
1.14217
0.422891
6.6077
3.68555
0.496257
0.349371
1.45274
3.61734
5.33255
5.53281
2.0316
6.94269
5.41155
2.3658
4.6258
8.60479
5.03727
0.465081
1.22446
0.412955
0.546523
1.75186
1.39817
2.74043
1.00867
5.32433
0.669976
0.257867
6.95771
1.07179
1.03036
5.86728
2.92465
0.883735
0.861147
3.47826
0.365642
1.29695
6.82864
6.26448
8.50975
3.6066
2.48491
0.419884
6.3772
1.46389
0.46319
1.64991
0.107731
2.39401
0.417281
0.85197
0.441462
1.29769
2.48638
0.372615
0.296508
0.324323
0.36288
6.06813
0.375664
0.208752
10.7203
4.25394
5.14858
0.293632
4.4686
1.09394
4.20547
3.97427
0.443775
0.193073
0.367446
5.26597
0.86172
9.24897
0.373376
2.25786
0.634567
2.65598
1.09484
0.652448
1.53782
0.749932
3.62866
0.388001
0.445658
5.26752
1.29083
3.74761
1.25653
6.14265
5.29231
5.2255
4.47115
0.186288
8.28673
1.24918
0.994196
0.458034
2.35561
1.18438
0.370318
8.95237
4.41591
0.178704
7.21646
1.32504
4.36324
3.89767
4.02985
0.977538
0.287643
0.984565
4.70194
0.322024
2.80131
5.29733
1.43364
4.5794
3.19274
0.111815
2.85124
0.449107
1.87948
0.453843
1.15802
2.60757
3.19629
4.47575
1.00609
3.33826
6.6007
4.25752
0.182655
0.795454
5.44306
6.55774
0.456934
0.406455
1.23373
7.52624
1.27979
3.24194
0.298663
1.98717
0.923127
1.10406
0.438779
0.957987
2.44673
3.30555
1.5039
5.0378
0.373606
1.99573
1.23314
5.72284
0.188531
1.44029
2.81307
0.995614
1.24914
0.429667
0.303161
0.434886
0.766655
0.244649
5.63205
5.08524
2.90834
0.942868
0.407932
0.807548
1.97476
4.66757
5.12061
3.87141
0.367578
0.33983
8.26685
5.8413
0.45441
5.47779
1.02617
0.5335
0.348993
0.298602
1.42982
0.419741
5.71546
1.43201
3.25738
1.10053
0.410674
0.547483
1.90258
0.656865
1.57262
1.97371
1.85542
1.76192
2.49189
0.405097
0.380878
9.83437
1.22845
2.53683
0.386737
2.80989
0.382896
0.447201
0.291392
5.98481
1.37207
1.97566
6.16144
6.5721
1.8111
12.3037
0.417622
0.408903
6.73227
1.08169
0.750691
1.11997
0.433994
0.281149
1.91014
0.773514
2.01622
1.05452
4.2594
0.971874
0.404047
1.49866
7.32911
0.765185
4.83467
1.36573
4.91556
1.30327
7.79719
1.31382
1.25317
4.8563
6.54921
0.375822
3.15235
3.86145
0.771077
0.721834
2.7509
0.393561
0.436456
3.15147
0.413639
9.84276
2.55899
5.78951
5.3879
2.05037
1.39415
0.359018
1.5176
4.6478
0.467373
0.416332
5.88263
7.77609
4.63055
5.46103
4.4832
0.362468
3.34901
0.438919
1.83837
10.1499
5.58817
0.444941
2.15363
0.396668
0.432336
0.446817
0.493246
5.26444
0.574463
0.392591
0.262521
11.6326
0.0243773
5.89204
0.830587
5.32649
0.845827
5.33982
0.291249
0.795541
1.22214
0.330179
7.96286
0.306082
1.64725
5.08768
3.27631
0.301456
9.52477
4.09783
7.51317
3.50195
5.82388
2.21166
0.429996
0.350007
5.18568
8.47829
0.378341
4.63192
4.77126
1.05108
1.51653
3.1186
1.40075
1.07178
8.96752
3.08573
1.21841
0.103118
0.67711
6.24593
0.312497
5.9151
1.36728
1.22031
0.9733
2.60527
0.295775
1.16662
0.30685
0.264415
0.116159
5.43264
6.0192
5.29383
0.388695
3.26751
0.498847
0.405615
6.3659
6.15868
0.264095
1.03011
0.342708
0.846735
1.5955
0.467082
1.19313
2.81405
3.97361
1.92218
0.818398
5.94783
5.14056
1.27704
7.03633
0.445792
1.34001
0.421462
1.04532
0.398267
4.93363
3.30442
1.11217
8.92292
4.89766
0.294071
3.12709
1.05734
0.453256
3.4472
0.165628
0.818886
3.46048
0.374806
2.7941
0.311694
4.01321
0.582162
0.875095
0.427586
1.0726
0.510161
3.25044
3.94571
1.03544
0.367137
4.65351
1.23752
1.03115
4.42027
0.776887
2.76376
0.582343
7.11717
2.40437
0.31898
1.41511
2.75255
0.414486
0.876405
3.18488
0.320108
7.45908
0.240637
3.93715
2.43803
4.64651
0.766169
3.25786
7.79823
0.47829
1.3135
1.72599
0.770005
0.673829
0.438077
3.52467
2.47834
2.14351
1.20247
2.25596
1.92265
5.40575
3.34924
5.17771
0.578599
1.30031
0.443295
5.12506
1.60783
0.181889
5.34485
0.278685
3.93446
0.604616
4.75789
0.949857
1.237
0.240585
1.52237
4.01043
1.3847
1.01927
0.753214
4.97904
2.66303
1.69008
0.42586
2.58338
2.20428
0.411771
2.37746
1.51481
0.503166
0.847458
1.89173
7.26795
5.93231
0.515294
4.03387
0.436656
1.33743
0.76424
6.52092
4.01127
0.293421
0.368096
1.01632
3.10924
1.51887
3.80374
1.36596
0.720077
0.317745
3.15497
1.89599
3.10081
4.29743
0.679977
0.422463
0.962968
5.24725
1.96954
1.61669
0.374155
7.79837
4.93151
0.26247
0.762091
0.987414
1.62516
0.337453
2.68096
1.55217
0.381888
3.14893
1.67029
1.68009
3.35541
4.23103
0.409888
0.361949
0.78784
1.21323
7.3105
11.2647
0.310194
0.357525
0.824789
0.116841
3.91234
4.45599
5.77292
1.14683
0.348803
2.21687
0.175863
1.2687
1.75278
0.429255
7.93073
5.74352
1.58633
0.443583
4.33944
1.37949
0.965743
7.26267
1.78744
0.978749
4.98068
3.78517
2.85154
6.49001
6.76691
4.59083
0.455371
4.54999
2.11077
3.66426
2.12434
1.07399
0.186299
0.36389
1.63599
0.960687
1.56291
0.290829
1.47548
2.65696
0.241255
9.7283
0.119129
4.72901
7.83291
0.2991
5.38506
0.97818
0.355726
4.86513
3.60108
2.41874
4.1411
0.439442
0.452676
1.3016
0.365107
5.65417
2.97429
0.0457893
0.462366
1.66474
1.51366
3.04158
0.370714
1.35796
5.07387
0.244698
0.277586
1.08921
0.412392
0.5921
0.938245
0.802593
0.352748
1.09395
0.706477
1.77379
0.232253
0.438091
5.81535
0.403164
1.00575
4.51133
1.60864
2.64045
1.15102
5.10141
4.48437
1.40307
7.59634
0.533782
5.21234
0.450161
3.41197
9.48699
0.287746
2.88462
1.04992
1.22986
0.30227
6.7158
5.29624
0.370111
5.13637
0.428247
4.51271
3.7516
1.31799
1.10525
0.383616
5.2438
3.27607
1.35306
5.18332
1.27132
0.449878
1.25829
4.4515
1.03679
0.599073
0.343399
1.16444
0.992864
3.37183
0.94123
1.24509
1.20183
1.59783
0.428896
3.64649
3.76762
3.39437
4.6826
0.852997
4.05108
1.52487
0.57089
6.98769
6.67168
1.42527
0.739466
5.05879
3.627
0.048181
5.01098
7.61901
2.92055
2.62793
2.28318
3.60662
1.01865
1.20712
4.82396
4.79483
0.359646
0.435362
0.360735
1.61577
0.0924609
1.23242
5.03096
1.46745
4.28563
0.311325
7.98197
0.235469
2.28195
0.22785
1.61438
1.33327
2.84574
5.50758
0.45792
3.76617
0.421172
0.777948
0.583504
0.805627
0.251132
4.04735
2.41803
0.994945
0.154814
4.88097
3.65057
2.85936
1.95704
1.21691
0.696109
0.245387
4.61226
3.17795
7.12941
3.50945
6.10959
0.396979
0.10573
0.434368
3.60483
3.37038
0.963273
1.15725
0.304831
1.13694
0.36463
5.24712
0.643609
1.85032
1.23687
0.975593
5.19156
0.32777
0.635371
3.06667
3.7836
0.337952
2.24265
1.26407
0.887997
3.59977
0.897984
0.92963
6.12768
3.39069
8.94079
1.24713
5.45272
0.437424
1.68501
1.57771
1.89353
8.35193
0.268233
0.67582
2.15219
1.58174
4.53505
1.02673
0.360928
5.02063
3.22766
7.62414
2.88035
0.371259
0.309282
0.447494
0.316342
0.438304
0.817893
1.01505
0.651968
2.94651
5.1169
1.70367
3.15693
1.07151
0.255643
5.42989
5.02026
0.394737
0.297751
0.598505
3.83763
1.24948
0.438026
0.339806
0.771566
0.96929
1.66462
8.60124
1.67316
5.12534
1.41466
0.124471
3.42319
0.987769
1.1588
1.41367
4.26235
7.25507
2.84247
0.405068
1.29395
4.24306
1.83886
2.39278
2.0402
0.360105
2.35107
0.404429
3.21647
3.48729
5.09814
0.341078
1.26976
3.01327
3.31687
0.345781
1.0034
0.899141
6.73057
0.135597
0.641743
0.732236
0.435984
2.96887
7.06168
0.370373
3.85224
3.17967
0.247145
2.63052
4.94855
4.43677
0.926003
5.14405
9.3473
0.237744
9.93735
4.85636
2.90994
0.290059
5.00016
7.60294
4.47908
1.65509
8.91065
2.54051
0.855117
3.76895
6.63178
0.396694
5.05158
1.08155
3.62152
0.417489
2.97658
0.287009
0.408801
11.6408
0.364094
3.90887
3.01137
1.09925
1.28234
0.477105
0.747122
1.94133
0.252585
0.249652
5.11871
1.11705
1.32275
0.737133
0.970966
0.158082
1.31949
5.41827
1.26857
2.09476
1.08558
2.39206
0.457915
7.1018
1.1122
0.323607
0.425598
2.89093
1.0334
0.971977
0.514182
2.09181
1.01542
0.973519
4.89253
2.0302
1.4145
4.24655
0.376989
3.73587
0.923483
2.39377
0.305931
0.415383
0.447721
0.461954
0.296209
1.85969
0.0900858
4.54312
0.707913
2.44922
0.357755
1.2888
1.62595
0.814438
9.5011
5.04121
4.59599
3.25778
2.92091
0.983925
0.371993
0.31507
1.04841
1.04658
0.238192
1.35492
1.27777
1.26399
8.60132
0.564843
0.76349
4.93642
7.36303
1.44217
1.19538
1.11057
0.887845
0.383898
4.02212
0.385608
0.442609
0.436838
0.44301
1.14844
9.20037
0.291221
0.170819
2.7589
1.81567
7.39175
1.1348
3.78766
0.350089
0.340427
1.30083
8.26954
4.29201
0.329351
1.77004
0.450662
0.444672
0.775782
0.464132
0.288091
3.41222
0.421925