/*--------------------------------*- C++ -*----------------------------------*\
  =========                 |
  \\      /  F ield         | OpenFOAM: The Open Source CFD Toolbox
   \\    /   O peration     | Website:  https://openfoam.org
    \\  /    A nd           | Version:  10
     \\/     M anipulation  |
\*---------------------------------------------------------------------------*/
FoamFile
{
    format      ascii;
    class       volScalarField;
    location    "1300";
    object      p;
}
// * * * * * * * * * * * * * * * * * * * * * * * * * * * * * * * * * * * * * //

dimensions      [0 2 -2 0 0 0 0];

internalField   nonuniform List<scalar> 
10435
(
0.000297965
-0.908984
-11.9941
-2.95486
-8.05197
-12.0209
-12.0819
-11.9971
-11.9557
-11.5221
-2.64094
-7.20368
-11.6031
1.27861
1.27257
-11.5854
1.20957
-11.512
-12.0196
-0.399867
-12.2254
-2.93188
-11.637
-9.56923
-11.6748
0.639286
0.502185
-11.8875
0.00704179
-11.8826
-10.6292
-3.62641
-12.3153
0.628962
-11.0743
0.734259
-10.951
-0.773819
1.15979
-10.6488
-12.5002
-12.0829
1.51623
-1.47006
-10.8079
-10.6351
-11.9678
1.02141
-12.0647
-3.23732
-11.9701
-10.8075
0.709563
-0.19398
1.49761
-0.267211
-10.4534
0.204859
0.839485
-10.655
0.859251
-0.234599
0.437893
-9.97411
-11.2674
-11.8993
0.724197
0.622732
-12.3204
-8.96216
0.5354
0.0048587
1.89266
-11.6414
1.14111
1.73222
-7.66259
-12.3189
-12.515
1.076
-5.05948
0.164923
0.883765
0.258361
-6.02662
0.886441
0.483995
-1.46492
1.26017
0.123199
-2.21668
-3.04005
-0.198875
0.986694
-0.312503
1.05114
-4.17021
1.42781
1.33292
-5.41703
0.958317
-9.8363
0.775686
-0.843561
-10.5459
-2.16669
-0.619042
-4.0965
-7.22268
0.958368
-2.44775
-8.80136
0.490161
0.698735
-4.17462
-2.1503
-6.20454
0.589056
-1.56997
-5.77341
-6.72068
1.86282
0.209471
1.70002
-5.28182
0.767186
-4.93699
1.88057
-7.05325
-0.456488
1.88313
-4.04215
-11.6514
1.16604
0.190644
1.77824
1.39144
-3.82327
-0.863661
-1.47489
-0.898171
-10.7639
0.973449
-8.96532
-3.77042
1.61422
1.63959
-10.8063
1.38353
-9.05523
0.927457
-10.4196
0.0392244
-9.37911
-11.3935
0.857648
-6.53644
-0.270085
-11.557
-1.82618
-9.96042
1.20475
-3.39084
-6.52924
1.11271
-7.99174
-12.0187
-5.59615
-8.39813
-9.25124
-11.4024
1.30253
-0.716407
1.52978
-8.75122
-0.853178
0.31015
1.07065
-1.73483
0.551662
-1.71182
-11.5096
-8.07153
0.669124
-10.7203
1.57045
1.33129
-12.2228
-9.03601
-9.9996
-7.28377
1.02583
0.636495
1.06126
-7.72617
-12.2974
1.58771
1.11639
1.13048
-11.3613
1.31573
1.23314
-11.7849
0.484519
-11.916
-5.38197
-2.43376
-4.69082
0.231674
-4.68827
1.31573
-11.726
-8.06009
-7.19661
0.800261
1.41775
0.804952
1.20605
-1.06992
1.18667
0.426864
0.865162
0.949952
1.55171
0.49059
-11.5433
-0.744516
1.27711
-10.6738
1.64117
0.956592
-11.7371
-0.833131
-9.98114
-0.468969
1.17214
-10.2885
-0.252697
-9.35627
-11.1971
-0.884757
0.817656
1.22249
-0.2054
-4.54511
-12.3212
1.32686
-12.487
-2.66839
-0.0541038
-2.92452
0.887743
-11.9491
-5.61078
-12.6421
-8.66216
-4.05141
-12.6774
0.846959
0.614276
-12.6283
-11.1901
0.165708
-7.60499
0.636473
1.29929
-0.379926
-11.3561
1.20099
-6.18633
-12.3884
-13.5114
-13.241
-11.4805
-1.40993
-6.58821
0.538425
-6.96741
-12.0721
-13.3997
-12.0679
1.226
-12.2592
1.14843
0.69431
1.36551
-9.86149
-0.450032
0.374519
0.201415
1.62997
-2.89926
0.0636062
-13.2965
-0.132966
-3.96055
1.55695
0.343669
-5.8065
-11.3643
0.906403
-8.6112
-12.1712
-3.28325
-4.77632
1.3988
1.55016
-9.41985
-11.52
0.445255
-1.14634
0.13844
0.566555
-10.2707
-11.3378
-4.42687
1.19265
-10.0976
0.785104
-6.43122
-11.3462
-0.635451
0.398482
1.2521
-13.0387
-11.8722
-2.1707
-12.0537
0.963236
0.127398
-11.4352
0.22621
0.483878
-12.0572
-9.34783
0.338787
0.300343
-1.01382
0.847623
-0.837675
-2.98093
0.754566
1.06123
-2.80913
-3.98205
0.19279
0.466533
1.50192
1.37835
-12.5884
0.653509
-11.8534
-2.88183
-11.9311
-13.6845
-13.5808
-11.7618
-11.5227
-0.1969
0.525631
-0.891011
1.09816
-0.510518
0.922736
-0.428061
-3.41948
0.260996
-7.99342
0.558371
-12.465
1.03465
-3.89594
-11.388
-13.9096
1.32847
-4.90071
-0.584186
-0.0619293
0.455022
0.343112
-6.5262
-0.157217
-12.9265
0.651713
-12.5955
-13.4987
-11.7982
-11.6694
-13.6975
-11.9844
-11.2936
1.71311
1.16713
0.162457
0.911541
-12.1046
0.27089
-11.9423
-4.47973
0.0807684
-5.7085
0.988349
0.669076
-11.9098
-0.933607
-12.6817
-9.14031
1.33205
0.362245
-2.82049
-11.2006
-3.01947
0.585631
0.249713
-0.405444
0.97777
0.40175
-11.9741
-2.37647
-0.235123
-0.0242159
1.21049
-11.9186
1.49527
1.67483
-12.2254
0.808768
26.3024
10.3685
15.0707
11.3392
12.4299
11.1076
11.0354
10.4898
9.05917
21.9687
8.64651
12.3042
9.78177
10.4723
9.64376
9.5563
9.12361
8.74587
17.6689
6.80019
10.0309
8.40833
8.86945
8.34768
8.24481
7.91405
7.52783
14.126
5.42027
8.0588
7.06596
7.40825
7.11891
7.05398
6.84437
6.55027
10.869
4.42549
6.42465
5.89194
6.15967
6.02793
6.01285
5.91912
5.7061
7.95315
3.79971
5.13625
4.93836
5.14296
5.1127
5.13368
5.10749
5.01422
5.59856
3.6331
4.2035
4.21938
4.36059
4.39178
4.43812
4.46188
4.45249
3.89421
3.71481
3.56281
3.70029
3.78635
3.85196
3.91308
3.97068
3.91296
2.73129
3.58953
3.08402
3.31766
3.37739
3.46381
3.5331
3.59866
3.63337
1.94666
3.17818
2.71419
3.03337
3.09418
3.19393
3.26936
3.34251
3.38533
1.44883
2.75649
2.47753
2.83797
2.90679
3.01008
3.08749
3.16212
3.23818
1.29938
2.58214
2.40046
2.7245
2.78861
2.88198
2.95194
3.01372
3.13543
1.42668
2.62164
2.44399
2.66841
2.71405
2.78947
2.85021
2.91383
2.9795
1.53824
2.70418
2.50939
2.63039
2.6559
2.71231
2.7645
2.82734
2.86776
1.58678
2.75879
2.55372
2.58717
2.59682
2.63699
2.68225
2.73829
2.79015
1.63487
2.75051
2.55656
2.52508
2.52658
2.55591
2.59697
2.64681
2.71152
1.58453
2.59895
2.48231
2.43088
2.43767
2.46405
2.50408
2.54753
2.63945
1.44897
2.31834
2.33582
2.30621
2.33035
2.36198
2.40585
2.45273
2.53801
1.3492
2.03576
2.16723
2.16746
2.21014
2.24923
2.29586
2.34525
2.40566
1.29523
1.81515
2.00096
2.02672
2.08367
2.13098
2.18144
2.23546
2.3012
1.20067
1.64556
1.83742
1.88892
1.95437
2.00868
2.0618
2.12213
2.16482
1.01736
1.53879
1.67665
1.75553
1.82272
1.88183
1.93658
2.00466
1.97513
0.690977
1.53427
1.53374
1.6408
1.70418
1.76401
1.81826
1.88519
1.83465
0.281096
1.57153
1.32531
1.45655
1.52194
1.59215
1.66885
1.76021
1.69228
0.157838
1.90911
1.51977
1.63272
1.65943
1.65019
1.68819
1.76848
1.16941
12.7207
12.8477
13.2392
13.7506
14.3287
14.9874
15.7135
16.505
17.3538
18.2442
19.1642
20.0981
21.0225
21.9262
22.7914
23.5943
24.3258
24.9696
25.512
25.948
26.3013
26.7106
27.0414
26.8737
26.4697
26.3924
26.823
27.5779
28.2194
28.8176
29.5287
30.0537
30.2538
30.2747
30.2019
30.042
29.8074
29.5483
29.2795
29.044
28.8648
28.7643
28.7503
28.8342
29.0206
29.2825
29.5755
29.8483
30.1014
30.3784
30.6213
30.7223
30.7104
30.612
30.3855
30.072
29.6546
29.1531
28.8827
2.35016
1.98562
1.74739
1.51883
1.32391
1.14056
0.930798
0.727181
0.566424
0.448749
0.377169
0.354631
0.382162
0.459534
0.586128
0.761466
0.98538
1.2609
1.59488
1.99803
2.48698
3.08846
3.79421
4.64277
5.45793
5.92144
5.97359
5.55571
4.89084
4.32001
3.91439
3.62835
3.41214
3.24627
3.12055
3.02168
2.94323
2.88345
2.84041
2.81187
2.79491
2.78511
2.78027
2.77812
2.77897
2.79231
2.82354
2.86768
2.9421
3.094
3.3763
3.78829
4.25848
4.80112
5.44948
6.15901
6.88343
7.62005
8.59374
6.56469
6.72849
6.86496
7.03559
7.22795
7.43908
7.66969
7.92221
8.19606
8.48906
8.80002
9.12642
9.46617
9.81571
10.1729
10.5352
10.9008
11.2686
11.6393
12.0134
12.3921
12.7744
13.1462
13.4809
13.7481
13.9425
14.0756
14.1329
14.0911
14.0205
13.9508
13.8794
13.8006
13.7211
13.6459
13.5783
13.522
13.4815
13.4607
13.4632
13.4928
13.551
13.6416
13.7652
13.9242
14.1195
14.3512
14.6155
14.913
15.2406
15.5505
15.8352
16.1244
16.3992
16.6379
16.8209
16.9432
17.0515
17.0074
3.45934
3.33646
3.28515
3.25016
3.23093
3.23068
3.24911
3.28844
3.35062
3.43761
3.55153
3.69411
3.86626
4.06893
4.30176
4.56396
4.854
5.16919
5.50686
5.86272
6.23171
6.60614
6.97453
7.32097
7.62246
7.85635
8.00985
8.08031
8.07798
8.02744
7.94556
7.84095
7.71873
7.58291
7.4359
7.28038
7.11857
6.95356
6.7899
6.63251
6.48786
6.3628
6.26618
6.20674
6.19474
6.23903
6.34755
6.52581
6.77383
7.08667
7.49313
7.96304
8.4213
8.86765
9.33507
9.8063
10.2462
10.6738
11.1486
4.71402
4.78353
4.85978
4.9586
5.07325
5.20277
5.34615
5.50282
5.67191
5.8523
6.04351
6.24485
6.45526
6.67461
6.90188
7.13647
7.3776
7.6236
7.87365
8.12562
8.37681
8.623
8.85841
9.07665
9.26921
9.43063
9.55617
9.64486
9.69767
9.72052
9.71978
9.6989
9.66281
9.61611
9.56121
9.5036
9.4462
9.39139
9.34628
9.31504
9.30295
9.31539
9.35825
9.43675
9.55667
9.72095
9.93226
10.1898
10.4882
10.8173
11.2033
11.6266
12.0168
12.3573
12.6641
12.9345
13.1557
13.3613
13.4766
3.63505
3.58842
3.58388
3.59831
3.62877
3.677
3.74379
3.82945
3.93452
4.05862
4.20303
4.3673
4.55151
4.75488
4.97602
5.21313
5.46413
5.72343
5.99103
6.26289
6.53551
6.80198
7.05606
7.29354
7.50211
7.68123
7.8227
7.92897
7.9989
8.03449
8.04164
8.01805
7.97109
7.90626
7.81996
7.7242
7.61778
7.4959
7.37669
7.26246
7.16106
7.08001
7.02732
7.0116
7.04276
7.12263
7.25979
7.45328
7.70349
8.00604
8.355
8.73713
9.13937
9.54549
9.93634
10.3032
10.6396
10.9642
11.2813
3.89216
3.90614
3.94208
3.99851
4.06992
4.15667
4.25691
4.37202
4.50092
4.64072
4.79274
4.9553
5.12993
5.31443
5.50687
5.70707
5.91784
6.12463
6.33842
6.55172
6.7678
6.97587
7.17295
7.3662
7.52802
7.67821
7.79581
7.89608
7.97154
8.01957
8.05481
8.055
8.03832
8.01697
7.96467
7.92053
7.87196
7.7911
7.73682
7.68776
7.65467
7.64231
7.65567
7.70203
7.79752
7.92557
8.10941
8.33473
8.60569
8.91528
9.25409
9.6089
9.96851
10.3225
10.6468
10.9315
11.1764
11.407
11.5916
3.6201
3.57649
3.56227
3.57548
3.59753
3.64719
3.70261
3.79684
3.90351
3.99396
4.12909
4.27036
4.43622
4.62351
4.81648
5.03527
5.27249
5.44485
5.65056
5.86506
6.10148
6.31643
6.50984
6.73509
6.87464
7.03546
7.1307
7.23247
7.30876
7.35573
7.41318
7.394
7.37288
7.37706
7.28052
7.26787
7.28228
7.09908
6.99949
6.90107
6.82278
6.7617
6.72167
6.71304
6.82724
6.89401
7.08925
7.26731
7.46271
7.71999
8.04107
8.41756
8.77565
9.13675
9.50343
9.86486
10.1905
10.5413
10.812
3.49178
3.52516
3.53345
3.59684
3.6554
3.74717
3.81466
3.87299
3.99212
4.19121
4.23799
4.37962
4.57307
4.71227
4.92854
5.0057
5.24403
5.4249
5.63143
5.77358
5.98315
6.14064
6.29716
6.50679
6.59312
6.74593
6.80516
6.90175
7.02598
6.9689
7.14085
7.11271
7.02566
7.08296
6.96217
7.01983
6.87092
6.64711
6.7568
6.67121
6.62132
6.62448
6.55644
6.56521
6.64319
6.66389
6.7906
6.89791
7.21768
7.50491
7.76748
8.0526
8.36053
8.75707
9.11938
9.40266
9.69231
9.52408
9.9153
-4.02331
-4.03539
-3.70632
-3.25286
-2.6829
-2.08493
-1.57057
-1.09064
-0.609317
-0.20704
0.118302
0.446797
0.738843
1.00117
1.40476
1.99578
2.64493
3.32109
4.08168
4.96001
5.96348
7.10974
8.47149
10.2015
11.7711
1.07546
1.15191
1.04344
0.899973
0.852724
0.964166
1.16058
1.38492
1.59129
1.65877
1.55846
1.39629
1.24751
1.16166
1.23193
1.45768
1.67012
1.75174
1.82444
2.01786
2.29537
2.60608
2.92966
3.2826
3.41333
-0.00160926
0.0533166
0.135025
0.229589
0.379019
0.585251
0.807147
1.01556
1.18855
1.28052
1.28942
1.26062
1.22777
1.22381
1.3017
1.47374
1.69679
1.94281
2.23889
2.61247
3.06237
3.58778
4.19373
4.88559
5.74623
0.421618
0.450378
0.535971
0.618215
0.725478
0.855981
0.995894
1.1283
1.24008
1.3146
1.35168
1.3692
1.38512
1.41648
1.48299
1.59068
1.7291
1.89103
2.08449
2.31659
2.58273
2.87148
3.16603
3.4294
3.7043
0.478338
0.500903
0.590297
0.678496
0.786701
0.904583
1.02628
1.13854
1.23478
1.30753
1.35732
1.39412
1.42959
1.47454
1.54183
1.63861
1.76567
1.92367
2.11739
2.35008
2.62373
2.93886
3.30174
3.70907
4.25952
0.585807
0.620212
0.710406
0.791451
0.890749
0.990877
1.09505
1.18922
1.27245
1.34067
1.39306
1.4366
1.47991
1.52838
1.59141
1.67501
1.78248
1.91636
2.079
2.26977
2.48925
2.73218
2.99715
3.26331
3.60539
0.714343
0.700227
0.798859
0.869098
0.963683
1.05072
1.14669
1.22969
1.3058
1.37183
1.42339
1.46802
1.51467
1.56343
1.62372
1.70111
1.79959
1.92329
2.07452
2.25072
2.4578
2.69047
2.9575
3.25562
3.66271
0.83753
0.759897
0.88007
0.937023
1.03193
1.10766
1.20241
1.27546
1.34457
1.40885
1.45583
1.49706
1.54728
1.59557
1.65279
1.72524
1.81592
1.92918
2.06649
2.22365
2.41545
2.62684
2.88894
3.18112
3.53799
0.83044
0.795191
0.968614
1.0021
1.09519
1.14222
1.24038
1.29799
1.38127
1.44354
1.4918
1.52328
1.56554
1.60562
1.66204
1.72712
1.80921
1.91379
2.06708
2.21902
2.38875
2.59773
2.81505
2.93179
3.14718
-12.7045
-12.2775
1.36364
5.95779
1.84631
1.76489
-2.76431
2.37524
0.00637815
6.44638
-12.1731
2.41668
-14.2684
1.08725
-7.33395
3.86253
-7.75587
5.91388
6.7688
-14.6439
-16.3122
4.3666
-11.7164
3.94857
2.32954
3.26063
2.29439
1.25175
-11.025
-10.1509
6.36252
3.90454
-14.2812
-11.4895
-10.6503
2.17544
-4.04882
-7.09479
-5.99363
4.47458
-13.0578
4.51872
3.75311
1.12936
2.37528
5.83975
-11.7623
-9.9529
-10.2591
-13.5002
-11.7492
-12.2536
-15.5885
5.97928
-2.59456
0.253622
1.06689
-16.2554
1.57992
-8.9685
2.38711
2.22215
1.86234
3.92117
2.32773
1.11386
3.57387
3.99845
-12.3102
-12.2468
-0.380768
4.9439
1.95702
-13.9085
1.94863
-17.0577
-13.0085
-11.8181
1.27198
6.12504
-11.5134
2.5863
2.66739
-8.76923
2.01866
2.44351
1.92366
-12.0085
-14.4095
2.85343
3.22751
2.91916
5.93424
2.47075
1.85694
-12.0348
3.14655
-11.459
4.42202
-9.08846
1.53119
-13.537
1.50473
4.41331
1.65016
1.50552
-11.7424
-12.9182
3.06675
-9.66309
3.74052
2.73323
-10.5804
4.34096
-16.1324
-10.1697
-13.2986
4.77739
-14.4155
2.90689
3.53751
2.6474
4.1493
2.4366
-14.1002
3.76699
-12.4778
-15.414
0.967373
-10.246
2.82301
-14.0522
-11.8067
-9.03051
1.03304
1.94046
2.42665
1.6462
2.67428
-14.0845
3.15068
-4.82596
-9.64422
3.57166
-10.6651
3.42163
5.2921
-14.6047
2.6172
-10.8008
-0.367654
0.593828
5.12443
-7.45431
2.28525
-9.92448
1.84575
4.61365
-11.1336
5.25854
4.02794
-0.409894
3.10658
-11.4909
4.62787
-8.64711
1.01569
2.11885
4.85318
1.84333
1.084
4.04911
3.72894
-8.94755
3.18729
1.25403
-13.1266
-11.4458
-9.64305
5.03624
-10.7873
4.30977
-15.077
-10.6758
1.58227
5.059
-9.02854
3.01783
-14.2022
3.14817
-9.71772
-9.81996
-3.23935
-3.81801
-7.69123
-14.2025
1.9692
4.25397
-10.3341
-11.0355
-12.718
4.53184
2.75614
2.93402
-0.0818462
5.11493
3.93303
1.57394
-10.9275
4.64344
1.64173
2.56126
-10.8157
-0.230542
-0.488107
-12.7976
1.76904
5.23874
6.8755
2.32513
1.49629
4.57224
2.3701
2.49353
6.26252
-13.1397
3.27187
-7.44365
3.05195
1.92137
-9.62321
2.30928
4.11312
2.89097
-5.48458
5.52073
-10.9098
1.30688
-10.941
-6.93512
5.28711
2.28327
4.72377
1.21737
1.94676
2.1807
3.72022
1.59912
3.57184
4.77527
3.11011
1.31221
4.28591
-10.8001
3.52751
1.94389
-10.4267
-12.6905
-11.1363
9.09572
3.28782
0.96559
2.8349
2.19134
-13.8714
2.52254
5.55606
4.90081
-3.53862
2.14137
-15.2072
-3.82674
4.25221
5.26124
7.30395
4.80096
3.73468
-1.54407
0.988055
-11.5764
1.22569
-0.306698
4.33184
5.51617
-9.33102
3.07129
1.38536
6.25653
-12.4763
-9.65204
-4.98582
3.30436
4.21039
-12.479
-10.7927
-12.9258
-11.9406
3.17894
5.08141
-10.0027
-10.8621
3.79332
4.95379
3.06224
-11.1664
5.1506
-16.6255
3.74716
-14.2775
2.78095
4.4187
5.14222
-14.3396
1.12888
4.21979
-3.50445
-11.7415
4.32893
2.35216
-8.87193
-11.6317
3.12621
4.9423
6.28947
2.10846
2.54509
-13.4347
-12.8735
3.40561
-15.7997
4.42441
-7.82775
1.5033
5.98943
-12.3906
2.39827
2.48539
2.79513
2.98176
3.67311
2.56571
2.32945
-9.84511
4.32065
-13.8808
1.79283
1.69457
4.3722
2.0252
-10.1075
0.670385
6.0444
3.81721
-11.4158
-12.5118
6.23233
-8.2068
0.794795
4.6436
-8.82736
-11.1261
-11.6689
5.22712
-13.3147
4.61959
1.919
4.10538
-12.2209
2.63958
-13.8895
5.75144
-7.8087
-11.1152
-6.29765
-12.8361
2.68773
2.73354
5.15462
5.25357
5.56765
-11.7829
3.22795
-13.8577
0.984051
1.14428
-9.61229
4.85781
-14.666
-12.507
-9.4798
-1.10165
5.39966
2.10097
-11.1101
-10.8691
7.4338
4.76037
-13.8503
4.70725
-10.7299
2.30822
3.91015
1.94348
-13.0711
2.2504
5.09794
-3.62279
2.08563
-0.132118
4.47439
-8.33912
2.50523
-9.74251
2.50236
3.18112
5.93984
-9.99573
-9.92505
5.13724
3.18764
4.32497
5.05381
2.82322
1.43371
5.14489
-11.1936
3.02083
4.66558
3.78551
3.91236
2.36239
1.92623
2.45446
1.30131
-3.52379
4.32221
3.21486
4.1688
4.30546
5.49414
5.16516
-6.87726
-12.7749
0.447835
-12.8988
4.73055
1.38891
-3.93085
1.5926
1.24153
-6.27655
4.20988
2.93351
-9.91334
5.69971
-12.2492
-8.54229
2.70024
3.22038
-14.4901
3.05942
0.601822
-8.41089
-10.9268
-11.2231
2.06707
1.74737
2.85719
5.15842
-12.0158
1.29661
2.0168
-11.4957
5.58612
2.46491
-12.5995
2.55208
1.90684
-14.4046
-14.5025
-0.591412
-6.58474
4.84754
2.33827
-9.45517
1.95236
2.54059
5.62689
-11.8385
4.24424
-9.25065
3.51684
2.64666
-10.879
2.56048
1.68965
-8.35397
2.48399
5.80429
-13.8109
3.8068
-4.40854
2.76721
1.22102
-13.7946
-11.3537
3.43385
3.12516
-3.40617
3.33705
4.25735
-11.0597
3.38467
2.67247
5.09757
-12.2632
-11.4748
-9.77825
2.65118
-0.928469
5.89228
-10.0142
-14.6263
5.55954
-11.2531
5.90158
-11.3148
-13.8051
4.91218
4.99005
1.37558
4.17222
4.25601
-1.87536
2.86573
0.238776
3.19028
-10.1408
-10.4403
3.34335
-9.899
-9.55337
3.51125
-12.0935
3.82152
3.1972
3.05124
1.48608
2.5251
-2.033
-5.434
-6.76955
1.00185
-10.7857
-9.96692
-11.6147
2.29699
5.49555
-13.4893
-11.5133
3.34181
-9.7871
3.03099
-12.8983
-10.1302
6.98155
-0.73172
1.49309
4.13008
2.91229
-14.4358
6.38305
-7.81176
1.76045
1.78188
-10.2224
-10.2703
-11.3576
1.44919
2.98083
-13.4825
-16.3283
4.29807
5.68186
2.50978
-13.6801
4.19734
1.77416
-5.18067
5.58892
1.74943
1.9516
3.99024
-8.91804
5.52408
1.48953
-11.9831
-10.1123
1.85503
4.33794
-9.80447
1.3293
4.70108
4.85388
-15.0695
3.66645
2.83273
4.46557
6.2967
4.14032
4.13786
-5.83125
2.26023
4.75357
1.46095
-15.6391
5.33709
1.69387
3.74128
4.26351
2.1069
2.88465
5.31154
0.455895
2.02316
-9.16854
-8.94846
1.22621
-13.3634
1.81867
2.04047
1.96138
4.97235
3.57974
2.93437
-14.9586
3.05615
2.47318
0.666778
-10.3431
-0.957372
1.18231
1.13492
3.97429
1.86764
5.07356
3.11652
0.444065
-9.35186
-8.76494
-11.3755
5.27013
6.09989
3.75386
6.19848
4.58264
-10.3151
10.9606
-16.23
4.71497
-11.3403
6.23405
-11.7566
3.65164
2.01912
2.49074
-13.0511
-4.08507
1.09832
-16.1843
1.98738
7.59031
2.12611
-10.6971
4.77129
3.04287
-9.04307
2.23993
5.75311
5.32435
4.32164
-14.8871
4.91035
2.75014
5.54195
1.12264
5.01946
-10.5385
-12.1922
3.61377
-4.23122
5.07914
-12.192
2.67601
5.62058
4.67706
3.13146
-5.16561
3.62644
4.43331
1.60806
3.96394
3.44352
5.0345
5.786
-8.93979
-9.63489
-0.187454
-10.5867
-5.76175
-12.249
-10.8006
8.37778
1.86034
2.06652
5.0947
3.19571
0.60681
3.69777
2.34241
-13.2598
5.12906
4.32982
1.68277
4.43367
3.36138
2.23773
-0.0563136
-12.3492
-12.865
6.48603
-10.4329
-1.83767
-11.507
-16.0899
-13.4189
-12.6802
4.44812
5.22449
3.4872
4.77178
4.30021
2.93272
-10.4667
-12.2371
4.66742
-11.6695
0.562196
5.31232
2.29117
2.65184
-8.72621
3.44588
2.35411
-2.36977
-8.1393
-14.1595
-11.5389
5.10137
5.2175
1.88083
4.85948
-11.4146
-0.438374
-11.8281
-8.01052
1.86171
-9.17299
3.03985
5.16794
1.44566
1.72162
1.66967
5.28258
3.38807
2.19674
2.9749
2.8912
3.82842
2.85582
3.13708
4.73005
-10.9865
-5.50412
4.20051
1.02366
3.82547
-13.9292
2.08272
7.44486
4.68192
-14.845
-0.321539
4.92379
3.12372
-10.6595
3.26068
-13.529
3.01359
-14.3887
-11.2845
-9.66948
4.63281
-8.98597
0.832624
5.09938
-12.0422
4.3847
2.302
2.65686
-14.5172
1.20524
3.915
1.95819
-13.2473
1.99351
2.8427
-7.85877
5.24967
4.11076
-1.39568
-11.4742
-12.8156
5.03242
5.31766
4.91639
-14.6944
-5.13192
4.45068
2.15341
1.73036
-12.4098
5.368
2.20428
-12.7058
7.21896
2.76127
5.00552
6.34061
-13.9235
2.7884
-14.9982
4.73825
2.57394
-11.0118
4.67678
5.3948
5.29395
1.26501
-15.0814
-12.0675
5.09235
5.02337
2.67179
-8.25608
-13.8178
2.02899
2.98308
-11.1321
-6.66858
3.09694
1.76749
1.64413
-9.73286
4.87323
-12.8818
3.74567
3.09788
-10.5069
3.40337
5.3915
3.48547
-15.3579
-10.6777
-9.17935
-9.44609
6.02891
-13.5372
-8.59507
4.95104
-2.80402
2.13469
1.67319
-14.505
2.89063
2.24087
-15.7163
3.60568
5.55117
5.45315
-14.4204
0.913885
3.71454
-10.5581
-11.408
-10.372
5.04815
2.71581
-10.1363
-11.3507
-10.6283
-14.6107
-13.5545
0.474015
5.00588
-1.02486
-9.6953
4.05218
4.92743
0.550336
-6.97268
3.8646
-1.67096
-12.4296
3.71757
1.72301
5.3804
-9.21458
-3.88223
-10.984
-10.171
5.9688
1.28161
-0.621639
2.58045
-11.8386
-15.5933
5.00937
2.90618
2.82593
5.24332
-14.1972
-12.2864
2.78351
-10.094
4.26081
-10.8716
5.77984
2.17314
2.43519
-2.5745
-11.5646
1.10555
-14.7116
3.39918
3.56458
-4.81096
3.99822
-8.14897
-9.3578
-9.61261
2.75532
4.38339
-4.07546
3.40058
4.62478
2.44907
-10.322
3.37066
1.45287
-11.0113
-3.98243
1.73825
2.75813
3.82657
4.43693
1.71186
4.22294
-15.3867
4.86558
2.59146
-9.86312
-14.1871
-3.59032
3.16812
2.96309
-1.26955
5.39993
-10.3763
1.78515
1.63327
-10.3963
3.27631
2.60348
0.475268
2.05328
-10.8098
5.67136
4.77966
4.76474
-3.1843
-2.95063
-13.3371
2.39078
-13.0196
3.54695
3.76707
3.53426
-10.4253
-10.5195
3.81411
-8.92971
5.36117
-10.4528
3.07209
-10.6777
1.9632
2.15838
3.92661
-1.74687
-6.45706
2.92238
5.24205
-14.3661
5.22308
4.98259
2.48077
4.73129
2.98876
-10.5204
3.99345
3.16175
-8.89746
1.34386
-9.47027
5.26061
3.67406
3.93371
6.14725
4.75678
1.68488
-13.4776
6.15004
0.90302
5.15247
2.4938
-0.99748
-10.0443
4.24012
5.44675
3.08945
4.64653
5.2836
4.72333
-9.97774
6.083
-15.7168
3.33563
-5.124
-10.9639
1.35398
-14.4208
3.50921
-11.871
-11.6768
-9.74355
2.58874
2.85811
1.29174
-11.2857
4.85119
3.02661
3.63056
2.51652
-9.55351
1.45675
4.35248
1.65493
6.29838
6.69994
5.92272
-11.6094
8.44645
-14.6324
4.80509
4.04888
4.82372
5.49431
-14.5228
5.40437
-13.7244
-12.7885
2.03682
4.57554
-10.6861
-11.1128
5.24619
5.07229
5.0753
4.69611
6.06972
1.37097
-11.1701
3.00764
6.69642
-13.9497
2.49816
-0.105142
-5.90198
4.64704
1.98737
4.88692
1.50212
-11.693
3.88352
-13.3859
4.43733
1.42246
4.66512
-13.7431
-13.913
4.48848
6.76498
-11.6711
4.62598
1.69802
-8.02258
-11.3493
5.58459
5.74311
5.43128
1.13365
-12.3243
2.13768
5.57644
-12.4391
-10.0929
5.15643
4.33262
1.89417
6.8704
3.15812
-15.1851
2.3906
-10.1551
2.59318
5.22293
2.20498
-14.5702
3.98709
-12.5415
-8.87042
-9.17085
-12.294
-10.8121
6.14686
3.56591
-13.0534
-14.4359
2.65242
4.76026
2.7816
1.45114
4.16434
2.39242
2.81503
-6.47475
1.79956
1.30793
-5.97615
1.65318
2.65253
3.39517
-9.78507
5.24799
-12.7062
-11.7635
1.63642
4.25814
2.71232
3.85065
2.66446
-12.6195
3.53193
5.2551
2.60778
4.22339
-11.2536
-13.657
3.97761
3.03663
1.84989
5.14682
1.99752
1.2387
6.05098
1.61974
0.741412
-11.1606
5.2138
3.22024
-4.29989
3.07182
2.24234
3.41182
3.78205
2.66171
4.76941
-14.0859
3.40822
5.48361
-10.2036
1.90768
-1.20604
-6.00006
4.88058
2.9324
5.21536
-8.34425
3.49241
-12.1751
5.69337
-5.5188
-13.4305
-15.1363
-11.1982
5.56258
2.43801
-14.077
-12.5757
1.57791
4.61425
5.52501
-12.0306
5.24267
3.20577
5.34764
5.49985
-1.4105
5.41158
1.82683
5.17977
-11.2635
-14.4739
5.44235
6.38376
5.40568
4.25238
2.8256
-9.63596
6.17153
0.252228
-14.3232
-15.1643
4.88469
-12.2327
-10.964
-14.1556
-11.8499
0.803997
-10.7508
-12.58
-9.70053
5.14488
-10.2017
5.61112
-0.768551
6.25798
5.83395
-11.6181
-9.13829
-11.1181
-11.2749
1.38346
3.99083
-2.71981
-12.6416
6.08386
-13.0698
4.7516
-14.2089
5.67134
-10.9609
-0.185531
1.664
2.99535
-14.8167
2.66445
0.448364
-13.8514
4.6004
-10.2568
3.08845
3.99315
-7.84744
-2.4319
2.97983
-14.9784
-7.40406
6.30292
-13.9353
6.0394
5.41165
1.28949
1.77834
-12.8131
-11.2317
5.26255
-14.0639
4.46625
-15.7543
6.0726
5.04566
4.01212
-16.0719
-1.44899
-10.7646
3.6556
-10.221
2.12753
-14.0244
-12.9031
-0.217773
5.09539
-11.0624
4.36287
3.3171
4.67855
-10.945
-12.9547
2.38683
-14.2353
3.06623
3.00006
-3.65619
3.72895
2.54453
-11.8837
5.3998
4.96512
6.1683
2.67578
4.25328
6.42098
-13.5375
-11.5957
2.71731
5.58027
3.21517
-11.1224
-11.4505
2.52014
0.89854
1.4708
-14.4236
0.862813
-1.68447
-12.0301
2.22433
-14.3764
-13.0703
2.38448
2.49777
5.42747
5.99554
2.1136
3.52164
1.61988
1.25636
-12.3682
3.89129
-13.6244
2.35883
-12.4363
4.49677
-10.1669
-0.246061
-13.3432
-11.0084
1.71149
0.0762139
4.17028
4.28313
3.9981
-10.593
-10.0351
5.35911
5.05903
3.45114
4.61551
2.55716
3.15902
-13.4401
-10.0713
-14.1701
-13.5693
5.49337
2.1083
-11.0294
4.31847
-11.1192
4.87874
2.52513
1.65892
3.32376
2.5217
3.52313
2.46371
0.0416351
-13.4834
-11.2842
6.46123
2.45363
-14.2345
-1.0928
2.85328
-10.8464
-12.2068
-9.65711
4.03398
-14.9179
2.73234
5.61953
5.35694
2.31284
8.55965
-8.44133
-11.9819
4.89487
1.39945
-13.8659
3.04018
-12.5
-9.37973
3.53043
1.11614
4.38409
1.49007
-11.1897
1.86351
-11.1995
1.48989
4.77897
1.57136
5.74945
0.962368
5.41131
3.7044
5.02007
2.04879
2.97629
-13.806
5.71982
-8.00075
3.32014
3.692
4.25446
1.61001
2.82354
-3.73307
-12.3381
3.32359
-11.9794
6.62151
-12.0519
4.69085
5.21066
2.41789
2.09321
-10.5926
3.68332
3.92982
-1.39635
-7.2503
4.36935
5.86586
5.4677
4.74175
-3.97743
2.76191
3.20029
-14.5677
2.60365
6.32137
3.75366
-13.3019
3.71903
-11.6462
-11.6288
5.6624
3.66727
4.74941
4.86128
-14.0164
4.44027
6.13423
4.2897
-15.0535
1.58906
5.05743
2.16102
-5.58011
-8.26233
1.66795
2.93342
-9.73398
5.48179
0.491103
-10.1893
3.72939
-1.30281
-11.5892
6.39661
-11.2987
5.11539
3.62182
5.58714
2.49407
-5.6005
-9.52829
4.0949
6.04404
-12.2103
3.99375
5.07652
4.99212
1.04096
-4.06406
2.17556
1.93406
6.34636
3.32561
2.01524
3.39172
1.60782
5.50966
-8.78801
-14.3707
1.9784
-11.5103
1.63109
-13.6515
-11.304
-12.8302
-9.86517
5.99274
4.69358
-14.7016
5.09557
4.38811
-10.3749
3.49188
4.52469
-11.5604
-14.03
4.30215
-9.55149
1.92814
-11.1096
1.73129
5.11477
-1.58226
1.27869
-13.67
3.78822
5.10075
1.14966
3.41116
-7.61317
0.355784
3.85669
-11.9986
1.17018
-11.9882
1.42962
-13.9677
3.77989
5.06189
2.69643
6.10572
-15.7481
-9.20415
-14.5947
1.89822
-13.1228
-10.1633
6.17493
-14.0148
-0.832994
5.16634
-15.3694
-10.6104
3.92149
1.67234
1.80232
-13.4435
2.43546
5.35425
-10.7803
-14.5219
1.19191
-13.4649
-11.5103
2.52609
1.42895
-3.09889
1.61992
-15.1587
1.70293
5.04767
2.57622
-9.78864
2.003
-1.78421
-11.9285
2.25064
-1.59416
-5.2951
5.06653
-11.7493
4.67858
-15.5512
4.64073
2.59291
3.50184
5.66966
2.91717
3.15803
4.75447
1.72031
5.50016
-12.2799
-14.5712
2.95333
-15.5895
2.06178
2.66408
3.79168
4.14934
3.62069
-6.58515
5.38393
-3.67901
-12.5422
-5.58093
-13.0998
6.1335
4.49414
-12.7076
4.43599
2.28704
3.60239
2.44775
2.81599
-9.97231
4.36503
5.11329
2.18732
1.48718
1.44675
-4.92762
-1.25874
-2.19728
-12.3265
2.94148
2.45896
4.49025
3.52941
2.21991
2.82564
1.51315
2.58237
5.11795
4.74532
5.36759
-2.38407
-12.5517
-10.6629
1.62147
4.91297
-1.68488
-9.70177
-10.5127
1.91732
2.95025
1.01958
4.95402
2.24319
1.61941
-9.86566
-1.36379
2.40983
3.15831
3.86181
1.67797
-11.951
1.99534
3.96428
2.80464
3.32625
-10.8997
5.86498
-7.35872
5.93615
1.69148
1.70619
4.72842
-10.8302
-0.352609
3.89374
-13.2692
-14.2916
0.578923
5.22575
3.39781
-10.7903
-14.1384
-13.6088
2.71639
-14.5291
5.13707
8.39343
-9.35592
-10.2948
2.37506
2.82713
-2.0262
-4.61802
5.02738
2.02195
-10.4821
2.50718
6.13549
3.40174
4.43138
4.62214
6.05199
5.16285
4.78051
-12.2551
4.23642
2.12056
1.82675
4.94639
0.15098
1.6584
-15.4155
-1.32473
-1.23949
5.30288
4.54547
3.99677
5.60904
3.65666
2.52557
-14.7397
4.83122
1.70165
6.09149
1.64696
3.26629
1.79265
4.8656
-12.766
2.20361
-13.9557
3.88202
7.64194
4.52234
3.93581
5.31886
-11.3504
4.43592
1.84716
4.94636
4.64818
-10.12
2.90989
4.76108
-13.0926
-13.3236
2.18322
-10.8323
5.19443
-12.8184
5.10811
-13.4662
5.22976
-3.17259
2.80263
-11.5662
1.24451
-10.4332
-9.64803
-10.2629
0.783459
-13.52
2.69428
1.95243
2.71398
-11.3331
4.5783
1.80352
-15.0466
-10.6794
-11.7005
5.53889
-13.8536
1.74388
3.98007
2.32771
-0.59792
4.81842
-5.43793
3.92352
3.2274
5.54178
5.41574
4.91318
-13.7049
4.8225
6.10913
-10.7415
-0.811609
1.959
2.67875
-10.1194
4.44717
4.5126
-12.3362
5.21332
-1.97465
-3.36473
4.4272
1.41379
-14.998
2.90659
4.83245
5.17794
2.26947
5.19877
3.1483
-12.9033
2.06299
-10.829
1.1412
1.61894
-10.7414
0.192247
0.89204
4.88887
2.0721
3.26107
2.07823
-11.6379
-11.3385
4.9353
3.84969
3.17265
-11.1751
1.64264
-1.63307
2.07465
1.62223
4.90564
5.80062
-2.45926
1.63165
-13.8964
-11.9863
4.96116
-9.17212
6.93301
-14.068
-0.589663
2.33978
4.07231
1.62804
4.08669
3.78963
-10.6955
-5.4248
-12.9897
-10.4835
-14.9355
4.29439
2.09803
-4.30634
2.16979
-2.90186
-13.1053
4.98382
-10.4096
-14.2364
-9.40181
4.63077
2.04505
2.90928
5.01924
-12.9849
5.23715
-12.2273
4.5582
5.56466
1.54543
-10.7521
-11.6911
3.19558
5.38577
6.2186
4.80368
3.77489
-1.22554
-14.4393
3.95772
2.53993
-11.7367
5.07245
-12.4231
5.25239
3.16515
5.68068
-10.9348
4.43281
2.91483
4.8855
5.02368
1.29655
3.42464
-10.5052
1.3685
2.96883
3.86833
2.72246
-14.7061
2.18599
1.96594
-6.23085
-11.0927
1.61251
-13.6415
5.01662
-9.93403
-15.373
4.41424
1.35771
3.57931
3.26638
1.88117
-13.5728
-0.763356
5.61763
2.29173
-7.08542
-5.94926
-8.94218
-13.0455
0.371571
5.89744
-11.8301
1.61939
2.50306
2.72653
5.30974
-13.4526
-13.3403
4.26404
-13.9292
4.44693
-14.8549
-0.880946
-10.2079
-13.5145
-10.0401
3.48161
1.37001
4.90751
1.6404
-15.8815
-5.12982
5.27488
-0.999674
1.93961
-11.7611
4.82151
-4.08024
-5.36098
-10.1266
1.61581
-11.8519
0.986115
-13.2137
-11.2041
5.08749
1.85226
3.79642
6.22031
3.29618
-4.8238
4.9792
3.37789
-12.5956
1.90526
0.766324
1.22592
4.30844
5.76201
-13.7341
-14.0269
1.0835
-11.2707
2.8135
4.63225
3.78191
-11.5188
-12.3455
-11.9189
3.41977
4.48519
4.67713
-10.3987
1.05744
-0.909632
3.16477
-13.3575
3.35359
1.09809
-15.0422
4.6353
5.51221
1.66563
3.84761
3.01645
6.42775
-2.75503
3.69401
4.58713
-12.2885
3.44025
-10.3604
-10.9669
1.17262
-5.92746
5.97869
-10.2247
6.08251
-10.6529
2.66518
4.45731
5.44035
5.79322
3.82134
0.470789
6.88142
-15.2193
3.60227
4.53748
3.35638
-13.5977
4.47889
4.35313
3.70153
-14.232
3.07781
-9.60943
-8.21154
6.82002
6.08042
-2.59757
-13.1064
-13.4643
-1.94373
5.30272
1.68706
-12.1927
-11.9752
-10.8456
-10.003
4.44796
3.88876
3.22248
1.25955
6.25317
4.94294
5.10495
2.02239
4.81737
-13.5159
4.08069
-14.467
4.92521
3.15277
-4.81876
3.22785
-15.3498
1.37338
1.9785
2.75153
2.857
5.38479
1.94812
-5.10093
0.229515
3.37576
-3.2881
-13.3401
-9.75817
5.40996
0.131327
-10.3807
-13.8009
-12.2547
-12.9459
-9.38567
5.10816
4.04385
3.87752
2.80659
-14.0041
-13.0604
1.94371
5.29388
1.44186
6.21286
-10.1074
3.42574
-14.5747
2.62983
1.84068
3.15252
-10.8758
3.32716
-14.8242
-11.3811
1.08005
1.08994
3.14683
5.76297
1.66519
2.43529
-3.96705
5.28334