/*--------------------------------*- C++ -*----------------------------------*\
  =========                 |
  \\      /  F ield         | OpenFOAM: The Open Source CFD Toolbox
   \\    /   O peration     | Website:  https://openfoam.org
    \\  /    A nd           | Version:  10
     \\/     M anipulation  |
\*---------------------------------------------------------------------------*/
FoamFile
{
    format      ascii;
    class       surfaceScalarField;
    location    "1300";
    object      phi;
}
// * * * * * * * * * * * * * * * * * * * * * * * * * * * * * * * * * * * * * //

dimensions      [0 3 -1 0 0 0 0];

internalField   nonuniform List<scalar> 
16133
(
2.06312
0.663553
-0.955252
-1.77154
-2.11107
2.04815
-2.43861
2.50151
-0.833282
-3.29146
2.53704
1.58772
0.284518
-0.704131
-3.7617
4.18128
-1.41627
0.412538
5.87274
-4.86893
5.54276
1.70087
-7.13452
-0.10909
-3.49576
1.05807
2.09203
0.345683
-0.0814936
-3.04608
0.823047
2.30453
-1.63711
2.36027
1.73455
-2.45771
0.536689
4.28743
0.00307461
-4.82718
3.30387
-2.91894
2.16728
-2.55217
4.33904
-1.81841
1.61485
-4.13547
-0.256209
-4.43456
2.63518
2.05557
0.863226
-0.74721
0.679743
-0.795767
0.950448
0.766415
-0.853646
-1.53291
1.09763
-3.56172
3.99703
-0.689296
0.591652
-0.649573
-5.95243
1.27941
4.36976
0.303196
-3.99733
3.22795
-0.867724
0.534728
2.38997
-0.861586
-0.692669
2.62875
-2.23084
0.294767
-0.0335794
-3.52496
3.843
-3.99194
4.07653
-1.61747
5.52541
-4.53206
-0.113542
-0.87981
-4.59812
5.50062
-0.365793
-0.00244168
0.00279076
-0.0737303
0.0733807
0.0363446
-0.00578313
-0.0230492
-0.00751269
-0.209588
-2.4085
2.18385
0.434242
-0.029548
0.0532418
-0.0233257
-0.000368329
-4.67071
3.00572
3.20587
-1.02767
-5.15197
2.97378
-2.43662
2.27559
3.46496
0.91693
-2.73524
1.73682
-0.0456279
0.158688
0.00131475
-0.114376
-2.77251
-2.70966
2.86382
2.61837
-1.03698
1.81594
1.28319
-2.06216
-2.29143
-4.209
3.72792
-0.0485204
0.0847796
-0.0994569
0.0631975
0.0434385
0.091263
-0.0234948
-0.111207
-3.96658
0.800846
-0.831593
-4.89098
0.223347
-3.47582
-0.853219
-0.905539
-0.353212
0.116247
1.1425
-1.15141
3.24021
0.723473
-2.8123
4.31093
-1.80677
-4.79558
2.43131
-0.87247
0.572487
0.0792853
-0.430471
-0.352316
0.617575
0.165208
1.88473
1.18306
-0.707524
3.66483
-3.36259
-0.335861
-1.57277
-2.16597
-5.49641
5.78412
-4.12701
3.83933
0.124095
0.0421469
-0.122803
-0.0234605
0.0368939
0.0466501
-0.0600836
-0.0167417
0.0511596
0.0568451
-0.0223579
-0.0190258
0.0118357
3.77967
-2.05216
-5.93651
-0.0663272
-0.0813549
0.122738
0.0249436
-0.516585
0.767226
-0.569863
0.319214
3.50133
0.0757749
0.0170501
0.0312697
1.96246
-1.6499
-2.42364
0.0874361
-0.00640675
0.00068424
-0.0817139
2.58067
-4.72918
4.25753
-2.10897
1.94311
-1.6241
-4.07298
2.69554
-1.91401
-0.465466
-0.242397
0.191273
-0.0047386
0.290565
-0.029804
-0.256024
1.06858
2.38322
-3.94209
0.294687
-0.884674
0.0272978
0.00473695
-0.0554955
0.10802
-0.0309954
0.0116129
-0.0886375
-0.936585
0.445235
1.52435
-1.03301
2.0542
-3.37324
-2.75391
0.762683
-1.10966
1.29742
-0.79024
-0.99507
1.08716
0.698147
-4.56381
1.47731
-0.855613
-2.10293
1.30573
1.85527
-1.76099
1.57435
1.10357
1.20452
-1.08627
0.644417
4.10771
-3.87555
0.392915
-0.625136
1.81167
-1.55887
-0.751357
0.498545
0.0547799
0.121425
-0.134058
0.046238
0.055041
-0.0643852
4.57358
0.273051
-0.738959
-1.69831
1.41421
1.2948
-1.0107
1.73214
-1.45558
-1.5467
1.27013
3.31744
-2.82422
-1.64467
0.952268
-0.455306
0.610101
-1.10706
2.04843
-1.59896
1.28266
3.89372
1.14104
-1.71731
5.17003
-1.98047
2.07474
0.400474
1.21203
-1.24076
0.981004
2.43196
-1.55584
1.17229
-1.95825
-0.77703
0.783695
4.37564
0.0106697
0.574923
-0.848844
-0.835738
0.776717
-0.441735
0.43224
-4.23095
4.60893
-0.346669
-0.0312851
1.14619
-1.02657
4.77203
-4.679
1.27625
-1.36924
1.17066
-1.55762
1.16535
0.825651
4.97454
-1.02815
0.619546
2.3338
0.275668
0.289088
-0.499838
-0.570959
5.96267
-0.81815
1.26289
-0.701059
0.642682
-0.186023
-3.00567
-0.170924
-4.38765
-1.70758
-1.37919
-0.745554
0.565864
-0.73313
0.616822
-0.0817327
-3.36551
-3.09144
-0.476267
4.34957
0.73563
1.56403
-2.77802
-2.09178
3.22512
-4.29258
-0.158524
3.97481
2.17156
2.67087
-0.492857
0.575986
-0.176072
-1.19016
1.88087
-1.91581
-0.811504
0.494999
1.9979
-1.6814
-3.23077
3.5288
2.29067
-2.5886
-0.0519149
0.120602
0.00745483
-0.0761419
-0.26363
0.739337
1.17609
-1.33944
6.03943
-4.89124
-0.0630551
0.0512819
-0.0125006
0.0242739
1.42571
-1.49788
-2.91448
-2.75286
-2.70599
-0.946087
0.626232
-0.0150957
0.115546
0.00756968
-0.0573161
0.144008
0.0930379
-0.179729
-0.608335
0.769822
-2.11974
-0.0676985
4.25961
-2.28749
-2.68608
0.3181
-0.764006
0.467883
-3.69636
5.09548
-0.0854952
-0.149944
-0.230029
-0.831031
2.7403
-5.59499
3.68576
4.06436
0.882876
-0.911187
0.874225
-0.845917
1.77368
-1.88702
1.25367
-4.16938
-0.868945
0.704182
-0.52454
3.5085
1.59101
-5.93053
-0.521072
0.14757
-0.0569708
-1.57872
-5.26902
2.10025
-1.77285
4.25309
1.99572
5.09198
2.39301
-0.170173
0.0420998
0.291765
-0.163692
3.93856
1.92124
-2.33092
0.837296
-2.20649
2.50921
2.60207
-2.90475
6.30275
1.54854
-2.91258
-4.93871
-0.851991
0.585643
-3.67509
3.97023
4.56586
-4.50628
-0.63056
-0.65448
1.25084
4.32319
3.88783
-2.39788
1.82877
-2.16612
-4.22655
0.00655662
4.06144
-3.29878
2.48743
-1.85572
2.66706
-4.59053
-5.73362
-0.350647
-3.41017
0.472293
-0.509846
-0.899035
-0.000258961
0.0123369
-0.0103752
-0.001703
-0.515792
0.549825
4.33468
-4.19608
1.4524
-1.76179
-2.88331
-2.28251
-0.678192
0.642493
-0.0934579
0.129152
-2.66724
-0.0203502
-0.0257842
0.10541
-0.0263844
-5.49835
-0.382481
-3.36248
1.771
0.100425
-0.0765653
-0.812621
-1.51623
2.70957
-3.29626
3.19192
3.95709
3.81628
3.62982
-2.77735
0.145538
0.0546341
-0.145393
-0.0700531
-0.0080976
1.08242
-2.37476
1.59147
-2.0405
2.34959
-2.79724
-0.50221
0.720418
-0.680995
-1.57046
0.0556298
2.10931
1.10181
0.166944
-0.00788784
-0.207577
-3.09455
2.62875
0.185396
-1.15378
1.44082
-2.69966
4.07644
-1.45847
-0.230598
0.0879682
0.0453499
-0.0458824
4.22667
-0.239541
0.00344761
-0.284978
2.65492
1.89992
4.28079
0.033137
0.00294828
-0.906747
0.815159
-0.826367
1.34408
0.130093
-0.129574
-0.164559
0.164039
-0.0598042
0.0573625
0.516377
0.0880364
-0.0590076
-0.0548133
0.67128
-0.203925
0.175132
0.244488
-0.158889
-0.171096
0.916204
-0.0754886
-1.35651
-0.0255958
-0.0934023
0.159331
-0.0403329
2.26715
0.058222
-0.0629474
0.00472531
-0.439461
-1.34859
3.84414
-5.15678
1.09752
0.776717
0.477068
-0.454446
-0.116083
-2.29671
-0.00158226
1.28835
-5.00884
-0.0673712
0.0618377
0.0307017
-0.0251683
-0.42003
-4.76171
-0.0956323
-0.0183541
0.0883903
-3.737
-0.730034
-2.82698
5.45013
-2.41096
-0.0277601
-0.140512
0.0748695
0.244786
-0.298404
0.183711
-0.0225017
-0.0349589
0.0351029
-2.09492
1.80233
-0.573813
2.0788
1.21211
-0.941315
0.000741327
-0.00874189
0.00800017
-1.40409
-2.78134
0.015611
-0.0280578
0.0124471
1.25644
-4.04155
0.886395
1.24288
-0.584462
1.34613
0.0113268
0.00428416
0.472913
-0.164928
-0.205222
0.344903
0.229358
-0.946929
1.54545
-0.296722
-0.655881
4.12728
0.170132
-0.0619094
0.0373152
-0.846052
0.208586
-0.971032
1.29235
-2.25869
-0.525926
2.3645
-0.811123
3.94726
0.0530268
0.00433533
0.704597
-4.12349
1.49456
-0.76457
-2.08824
1.32868
0.769437
0.347728
-2.25875
1.48017
-0.164493
-0.0305339
0.0654534
6.12889
-0.0796892
0.0487624
0.0663199
-0.0688445
-0.0893573
0.131765
-2.86456
0.104144
0.0892331
-0.103184
0.0221982
0.0275999
-0.0497982
-0.97745
-3.66071
4.42847
-0.403555
0.227735
0.265443
-2.03539
0.00508566
-0.00434453
-1.39169
-4.34719
0.244105
0.0475988
0.0747479
-0.0735843
0.134434
-0.170435
-0.0295722
-2.60418
-0.149453
-3.02066
-1.60318
-0.00585962
0.130045
0.29463
-0.12015
-0.673264
-0.0310387
0.0375733
-0.0129417
0.0537148
0.157777
-0.156858
-0.342795
-2.23989
-3.36193
0.0498083
0.00321838
0.207206
-2.05137
0.0436802
1.28152
-0.049902
0.0586448
0.0603764
0.0651582
-0.0779358
0.623976
0.15935
-0.0359272
0.0208042
-0.0308588
-0.00606258
0.00864744
-0.132657
0.220998
-0.0870264
0.00734942
0.010073
0.052005
-0.00219672
0.00604753
-0.0164231
0.174895
0.0369731
0.00627048
-0.012542
-0.168094
1.72223
-1.2579
1.11002
0.00990244
-0.0821833
-0.0222063
0.297162
-0.387425
-0.582807
0.901251
0.617066
-1.46567
-1.13779
-0.0229162
0.0346073
-0.0539244
0.0393149
-0.0678578
0.000888214
0.0144612
0.0121712
-0.00169601
0.0537011
-0.106555
-0.0601362
1.72749
-0.0119729
0.0456036
-1.84025
0.525796
-1.41736
-0.641831
-0.0889436
0.00373071
-0.0259371
-0.0538221
0.0176546
-0.0466121
0.0593619
-0.0196666
0.600492
-0.816781
-0.98392
0.859011
-0.0947442
-1.52238
-0.33688
-0.0430362
-0.0264772
-1.50616
-0.922476
-0.0322086
-0.0346936
0.0331029
0.129156
-0.438148
0.0429396
0.0196406
-0.0573768
1.10307
-0.0193934
0.0213713
0.0136906
0.0496134
3.21778
0.229479
-0.195983
-0.752012
-0.191888
-0.901171
-0.00399437
0.118026
-0.114031
-0.00847611
0.123012
-0.11853
-0.0129198
0.134197
-0.129753
-0.0177434
0.143642
-0.138818
-0.0227234
0.153444
-0.148464
-0.0280225
0.162315
-0.157016
-0.0334796
0.171033
-0.165576
-0.0391364
0.179259
-0.173602
0.187153
-0.181616
-0.0446734
-0.00358921
0.121616
-0.00760089
0.127024
-0.0115639
0.13816
-0.0158642
0.147942
-0.0202468
0.157827
-0.0248945
0.166963
-0.0296817
0.17582
-0.0346201
0.184197
0.192216
-0.0396835
-0.00340904
0.125025
-0.00679481
0.13041
-0.0102228
0.141588
-0.0139071
0.151626
-0.0176878
0.161608
-0.0216632
0.170938
-0.0257596
0.179917
-0.0299849
0.188423
0.196561
-0.0343298
-0.00307543
0.1281
-0.0059299
0.133264
-0.00881497
0.144473
-0.0118759
0.154687
-0.0150373
0.164769
-0.0183513
0.174252
-0.0217738
0.183339
-0.0253254
0.191974
0.200272
-0.0290362
-0.00263601
0.130737
-0.00496847
0.135597
-0.00730244
0.146807
-0.00975673
0.157142
-0.0122972
0.16731
-0.0149636
0.176919
-0.017744
0.18612
-0.0206648
0.194895
0.203361
-0.0237537
-0.00207272
0.132809
-0.00388643
0.137411
-0.00568201
0.148602
-0.00755073
0.15901
-0.00948577
0.169245
-0.0115247
0.178958
-0.0136637
0.188259
-0.0159346
0.197166
0.205803
-0.018376
-0.00126656
0.134076
-0.00263564
0.13878
-0.0039455
0.149912
-0.00528297
0.160348
-0.00664139
0.170603
-0.0080675
0.180384
-0.009586
0.189777
-0.0112237
0.198804
0.207603
-0.0130237
-0.000244375
0.13432
-0.00129113
0.139826
-0.00217351
0.150794
-0.00300954
0.161184
-0.00382242
0.171416
-0.00467403
0.181235
-0.00559403
0.190697
-0.00662388
0.199834
0.208729
-0.00775019
0.000613508
0.133707
-9.35984e-05
0.140533
-0.000519025
0.15122
-0.000856562
0.161521
-0.00114065
0.1717
-0.0014376
0.181532
-0.00179862
0.191058
-0.00224982
0.200285
0.20931
-0.00283067
0.000984681
0.132722
0.000747184
0.140771
0.000878192
0.151089
0.00107888
0.16132
0.00131952
0.171459
0.00152267
0.181329
0.00165646
0.190924
0.00168195
0.200259
0.20939
0.00160208
0.000958956
0.131763
0.00130805
0.140422
0.00204448
0.150352
0.00277261
0.160592
0.0034898
0.170742
0.00412725
0.180691
0.0046683
0.190383
0.00507158
0.199856
0.209148
0.00531337
0.00091785
0.130845
0.00189046
0.139449
0.00312427
0.149118
0.00428055
0.159436
0.00535961
0.169663
0.00634349
0.179707
0.00720048
0.189526
0.00792936
0.199127
0.208652
0.00842545
0.0012931
0.129552
0.00274969
0.137992
0.00424702
0.147621
0.00564081
0.158042
0.00693963
0.168364
0.00812304
0.178524
0.00917887
0.18847
0.010084
0.198222
0.207879
0.0108566
0.00199537
0.127557
0.0037529
0.136234
0.00534825
0.146025
0.00683318
0.156557
0.00821532
0.166981
0.00947228
0.177267
0.010595
0.187347
0.0115577
0.197259
0.207065
0.0123711
0.00268979
0.124867
0.00466307
0.134261
0.0062905
0.144398
0.00777833
0.155069
0.00915746
0.165602
0.0104209
0.176003
0.0115447
0.186223
0.012499
0.196305
0.206266
0.0132987
0.0030559
0.121812
0.00523909
0.132078
0.00689745
0.142739
0.00838902
0.153577
0.00976199
0.164229
0.011013
0.174752
0.0121203
0.185116
0.0130609
0.195364
0.205482
0.0138445
0.00283399
0.118978
0.0052543
0.129658
0.00704266
0.140951
0.00861965
0.152
0.0100438
0.162805
0.0113249
0.173471
0.0124379
0.184003
0.0133815
0.19442
0.204759
0.0141046
0.002258
0.11672
0.0047919
0.127124
0.00679129
0.138951
0.00853619
0.150255
0.0100806
0.16126
0.0114425
0.172109
0.0126122
0.182833
0.013579
0.193453
0.204018
0.0143191
0.00177109
0.114949
0.00424524
0.124649
0.0063944
0.136802
0.00831664
0.148333
0.0100235
0.159553
0.0115268
0.170605
0.0128193
0.181541
0.0139025
0.19237
0.203139
0.0147819
0.00150156
0.113447
0.00385547
0.122295
0.00607459
0.134583
0.00814525
0.146262
0.01002
0.157679
0.0116944
0.168931
0.0131551
0.18008
0.014391
0.191134
0.20214
0.0153898
0.00138692
0.11206
0.00367707
0.120005
0.00594406
0.132316
0.00814131
0.144065
0.0101897
0.15563
0.0120621
0.167058
0.0137331
0.178409
0.0151615
0.189706
0.201013
0.0162883
0.00145395
0.110606
0.00374427
0.117715
0.00606371
0.129996
0.00837414
0.141754
0.0106044
0.1534
0.0127093
0.164953
0.0146476
0.17647
0.0163452
0.188008
0.199584
0.0177743
0.00180212
0.108804
0.00408405
0.115433
0.00644342
0.127637
0.00885481
0.139343
0.0112781
0.150976
0.0136547
0.162577
0.015941
0.174184
0.0179832
0.185966
0.197968
0.0195986
0.00243654
0.106367
0.00466316
0.113206
0.00703401
0.125266
0.00955697
0.13682
0.0121891
0.148344
0.0148563
0.15991
0.0175631
0.171477
0.0200222
0.183506
0.196508
0.021482
0.00318328
0.00518284
0.0076457
0.0104077
0.0133595
0.0164113
0.0197941
0.0235712
0.0281907
-0.0899813
-0.00128877
0.09127
-0.0885317
-0.00144952
-0.086908
-0.00162375
-0.0850935
-0.00181447
-0.083079
-0.00201456
-0.0808556
-0.00222343
-0.0784161
-0.00243945
-0.0757571
-0.00265902
-0.0728721
-0.002885
-0.069763
-0.00310904
-0.0664311
-0.00333187
-0.0628815
-0.00354958
-0.059122
-0.00375945
-0.0551589
-0.00396311
-0.0510042
-0.00415454
-0.0466683
-0.00433591
-0.0421676
-0.00450061
-0.0375197
-0.00464783
-0.0327497
-0.00476991
-0.0278895
-0.00486013
-0.0229833
-0.0049061
-0.0180948
-0.00488845
-0.0133008
-0.00479392
-0.00867076
-0.00463004
-0.00418199
-0.00448865
0.000284469
-0.00446641
0.00486222
-0.00457763
0.00970298
-0.00484067
0.0148632
-0.00516014
0.0202449
-0.0053816
0.0257328
-0.0054878
0.0312471
-0.00551416
0.0367324
-0.00548515
0.0421375
-0.00540505
0.0474157
-0.00527808
0.0525277
-0.00511189
0.0574385
-0.00491077
0.0621178
-0.00467923
0.0665452
-0.0044273
0.0707061
-0.00416089
0.0745981
-0.00389183
0.0782273
-0.0036293
0.0816064
-0.00337893
0.0847564
-0.00315
0.0876985
-0.00294201
0.0904602
-0.00276162
0.0930617
-0.00260134
0.0955269
-0.00246526
0.0978679
-0.00234084
0.100085
-0.00221753
0.102176
-0.00209084
0.104131
-0.00195461
0.105951
-0.00181942
0.107631
-0.00168068
0.109174
-0.00154246
0.110581
-0.00140684
0.111854
-0.00127286
0.113004
-0.00114993
-0.00102761
-0.0888508
-0.00266783
0.0902298
-0.0873602
-0.00294006
-0.0857496
-0.00323437
-0.0840088
-0.00355525
-0.0821322
-0.00389116
-0.0801063
-0.0042494
-0.0779235
-0.00462221
-0.0755691
-0.0050134
-0.0730343
-0.00541983
-0.0703086
-0.00583479
-0.0673825
-0.006258
-0.0642491
-0.00668296
-0.0609005
-0.00710809
-0.0573383
-0.00752533
-0.0535614
-0.00793142
-0.0495734
-0.00832397
-0.0453811
-0.00869292
-0.0409951
-0.00903384
-0.0364251
-0.00933988
-0.0316845
-0.00960072
-0.0267822
-0.00980835
-0.0217125
-0.00995807
-0.0164506
-0.0100558
-0.0109526
-0.0101279
-0.00523088
-0.0102104
0.00063358
-0.0103308
0.00655053
-0.0104945
0.0124103
-0.0107004
0.0181773
-0.0109271
0.0238984
-0.0111026
0.0295985
-0.0111879
0.0352641
-0.0111797
0.0408617
-0.0110827
0.0463607
-0.010904
0.0517274
-0.0106447
0.0569329
-0.0103174
0.0619511
-0.00992886
0.0667657
-0.00949387
0.0713607
-0.00902219
0.0757278
-0.00852795
0.0798601
-0.00802418
0.0837511
-0.00752032
0.087404
-0.0070318
0.0908172
-0.00656314
0.0939933
-0.00611818
0.0969359
-0.00570416
0.0996512
-0.00531659
0.102137
-0.00495159
0.104406
-0.00460922
0.106469
-0.00428101
0.108346
-0.00396717
0.110052
-0.00366134
0.111605
-0.00337182
0.113023
-0.00309904
0.114317
-0.00283665
0.115505
-0.00259482
0.116595
-0.00236271
0.117598
-0.00215331
-0.001959
-0.0968649
-0.0042057
0.0984028
-0.0952062
-0.00459877
-0.0934191
-0.00502146
-0.0915011
-0.00547325
-0.0894358
-0.00595645
-0.0872136
-0.00647162
-0.0848218
-0.00701404
-0.0822531
-0.00758211
-0.0794958
-0.00817706
-0.0765398
-0.0087908
-0.0733761
-0.0094217
-0.0699978
-0.0100613
-0.0663997
-0.0107063
-0.0625762
-0.0113488
-0.0585241
-0.0119835
-0.0542476
-0.0126005
-0.049744
-0.0131966
-0.045019
-0.0137589
-0.0400765
-0.0142824
-0.0349196
-0.0147576
-0.0295477
-0.0151803
-0.02396
-0.0155457
-0.018157
-0.0158589
-0.0121531
-0.0161318
-0.00598386
-0.0163796
0.000304687
-0.0166194
0.00666485
-0.0168547
0.0130439
-0.0170795
0.0193873
-0.0172706
0.0256776
-0.0173929
0.0319093
-0.0174196
0.0380674
-0.0173379
0.0441301
-0.0171454
0.0500689
-0.0168428
0.0558616
-0.0164375
0.0614836
-0.0159395
0.0669133
-0.0153586
0.0721337
-0.0147142
0.0771316
-0.0140201
0.081893
-0.0132894
0.0864121
-0.0125433
0.0906841
-0.0117923
0.0947051
-0.0110528
0.0984712
-0.0103293
0.101989
-0.00963591
0.105255
-0.00896988
0.108275
-0.00833695
0.111058
-0.00773456
0.113613
-0.00716396
0.115953
-0.00662092
0.118089
-0.00610356
0.120038
-0.00561065
0.12182
-0.00515385
0.123448
-0.00472633
0.124937
-0.00432608
0.126299
-0.00395678
0.127552
-0.00361606
0.1287
-0.00330108
-0.00301149
-0.10347
-0.00578516
0.105049
-0.101765
-0.00630329
-0.0999217
-0.00686515
-0.0979297
-0.00746529
-0.0957814
-0.00810473
-0.0934665
-0.00878652
-0.0909755
-0.00950507
-0.0882937
-0.0102639
-0.0854151
-0.0110557
-0.0823287
-0.0118772
-0.0790261
-0.0127243
-0.0754931
-0.0135943
-0.0717253
-0.0144741
-0.0677113
-0.0153628
-0.0634499
-0.016245
-0.0589326
-0.0171179
-0.0541606
-0.0179686
-0.0491336
-0.0187858
-0.0438535
-0.0195626
-0.038323
-0.0202882
-0.0325455
-0.0209578
-0.0265262
-0.0215651
-0.0202751
-0.02211
-0.013814
-0.0225929
-0.00717424
-0.0230195
-0.000399309
-0.0233943
0.00645849
-0.0237126
0.0133469
-0.0239679
0.0202208
-0.0241445
0.0270498
-0.0242219
0.0338119
-0.0241817
0.0404868
-0.0240128
0.0470511
-0.0237096
0.0534825
-0.0232743
0.0597543
-0.0227093
0.065846
-0.0220312
0.0717375
-0.0212502
0.0774031
-0.0203797
0.0828261
-0.0194432
0.0879956
-0.0184589
0.0928984
-0.0174462
0.0975256
-0.0164195
0.10187
-0.0153973
0.10593
-0.0143888
0.109699
-0.0134055
0.113189
-0.0124596
0.1164
-0.0115481
0.119349
-0.0106833
0.122042
-0.00985737
0.124503
-0.00908182
0.126747
-0.00834774
0.128792
-0.00765556
0.130648
-0.00700994
0.132339
-0.00641751
0.133881
-0.00586798
0.135289
-0.00536435
0.136573
-0.00489991
0.137744
-0.00447199
-0.00408569
-0.112512
-0.00750914
0.114236
-0.110639
-0.00817613
-0.108614
-0.0088903
-0.106427
-0.00965291
-0.104067
-0.0104648
-0.101526
-0.0113271
-0.0987909
-0.0122401
-0.0958566
-0.0131982
-0.0927108
-0.0142016
-0.0893431
-0.0152449
-0.0857441
-0.0163233
-0.0819051
-0.0174333
-0.0778171
-0.0185621
-0.0734752
-0.0197047
-0.0688695
-0.0208507
-0.0639981
-0.0219894
-0.0588584
-0.0231082
-0.0534477
-0.0241965
-0.0477706
-0.0252397
-0.0418274
-0.0262314
-0.0356284
-0.0271569
-0.0291826
-0.0280108
-0.0225067
-0.028786
-0.0156223
-0.0294773
-0.00856167
-0.0300801
-0.00136484
-0.0305912
0.00592582
-0.0310033
0.0132667
-0.0313088
0.0206162
-0.031494
0.0279382
-0.0315439
0.0352017
-0.0314452
0.042377
-0.0311882
0.0494349
-0.0307676
0.0563502
-0.0301896
0.0630983
-0.0294574
0.0696488
-0.0285817
0.0759789
-0.0275802
0.0820682
-0.0264691
0.0878964
-0.0252714
0.0934502
-0.0240127
0.0987119
-0.0227078
0.103678
-0.0213856
0.108339
-0.0200583
0.112696
-0.0187459
0.116752
-0.0174612
0.120507
-0.016215
0.123976
-0.015017
0.127166
-0.013873
0.130092
-0.0127834
0.132767
-0.0117573
0.135214
-0.0107943
0.137451
-0.00989281
0.139497
-0.00905612
0.141359
-0.00827901
0.143056
-0.00756524
0.144601
-0.00690999
0.14601
-0.00630856
0.147296
-0.00575775
-0.00525406
-0.121039
-0.00931667
0.122846
-0.119077
-0.0101383
-0.116954
-0.0110132
-0.114656
-0.0119504
-0.11217
-0.0129506
-0.109491
-0.014007
-0.106603
-0.0151274
-0.103497
-0.0163049
-0.100159
-0.0175396
-0.0965812
-0.0188223
-0.0927522
-0.0201523
-0.0886633
-0.0215222
-0.084303
-0.0229225
-0.0796633
-0.0243444
-0.0747396
-0.0257744
-0.0695273
-0.0272016
-0.0640236
-0.0286119
-0.0582341
-0.0299861
-0.0521584
-0.0313154
-0.0458047
-0.0325851
-0.0391793
-0.0337822
-0.0322983
-0.0348919
-0.0251789
-0.0359054
-0.0178468
-0.0368095
-0.0103347
-0.0375922
-0.00268049
-0.0382453
0.00507487
-0.0387586
0.0128914
-0.0391254
0.020729
-0.0393317
0.0285496
-0.0393645
0.0363192
-0.0392148
0.0440013
-0.0388703
0.0515647
-0.0383309
0.0589807
-0.0376056
0.0662163
-0.0366931
0.0732468
-0.0356121
0.0800444
-0.0343778
0.0865762
-0.033001
0.0928252
-0.0315204
0.0987708
-0.0299583
0.104403
-0.0283401
0.109708
-0.0266902
0.114684
-0.0250342
0.119326
-0.0233881
0.12364
-0.0217752
0.127631
-0.0202057
0.131307
-0.0186929
0.134681
-0.0172471
0.137772
-0.0158744
0.140596
-0.0145811
0.143174
-0.0133726
0.145524
-0.0122426
0.147664
-0.0111958
0.149612
-0.0102275
0.151387
-0.0093402
0.152999
-0.00852187
0.154465
-0.0077743
0.155802
-0.00709471
-0.00646805
-0.130735
-0.0112506
0.132669
-0.128633
-0.0122409
-0.126351
-0.0132949
-0.12388
-0.0144218
-0.121208
-0.0156225
-0.118321
-0.0168943
-0.115208
-0.0182402
-0.111856
-0.019657
-0.108259
-0.0211366
-0.104401
-0.0226804
-0.100275
-0.0242775
-0.0958739
-0.0259237
-0.0911842
-0.0276123
-0.0861997
-0.0293289
-0.0809153
-0.0310588
-0.0753285
-0.0327884
-0.069434
-0.0345064
-0.0632449
-0.0361752
-0.0567599
-0.0378004
-0.0499899
-0.0393552
-0.0429395
-0.0408327
-0.0356272
-0.0422041
-0.0280726
-0.04346
-0.0202964
-0.0445857
-0.0123392
-0.0455494
-0.00423553
-0.0463491
0.00397163
-0.0469658
0.0122485
-0.0474023
0.0205569
-0.0476401
0.0288563
-0.0476639
0.0371139
-0.0474725
0.0452834
-0.0470398
0.0533314
-0.046379
0.061229
-0.0455032
0.0689366
-0.0444007
0.0764324
-0.0431079
0.0836854
-0.0416308
0.0906462
-0.0399618
0.0973051
-0.0381793
0.103639
-0.0362928
0.10964
-0.0343411
0.115292
-0.0323416
0.120591
-0.0303337
0.125534
-0.0283308
0.130129
-0.0263701
0.13438
-0.0244564
0.138297
-0.0226103
0.14189
-0.0208407
0.14518
-0.0191643
0.148186
-0.0175865
0.150922
-0.0161089
0.153419
-0.0147395
0.155689
-0.0134662
0.157755
-0.0122932
0.159632
-0.0112166
0.161338
-0.0102281
0.162889
-0.00932541
0.164297
-0.00850306
-0.0077467
-0.140506
-0.0132998
0.142555
-0.138286
-0.0144603
-0.135882
-0.0156994
-0.13327
-0.017034
-0.130443
-0.0184488
-0.127381
-0.0199566
-0.124081
-0.0215401
-0.120517
-0.023221
-0.116673
-0.0249806
-0.112564
-0.0267898
-0.108164
-0.0286769
-0.103466
-0.0306222
-0.0984614
-0.0326166
-0.0931394
-0.0346509
-0.0874986
-0.0366996
-0.0815295
-0.0387575
-0.0752282
-0.0408077
-0.0686309
-0.0427725
-0.0617347
-0.0446967
-0.0545436
-0.0465462
-0.0470565
-0.0483197
-0.039304
-0.0499567
-0.0313084
-0.0514556
-0.0230611
-0.0528329
-0.0146421
-0.0539684
-0.00607134
-0.0549198
0.00259107
-0.0556282
0.0113367
-0.0561479
0.0201216
-0.056425
0.0288999
-0.0564422
0.0376541
-0.0562267
0.0463074
-0.0556931
0.0548313
-0.0549029
0.0632242
-0.0538961
0.0713979
-0.0525745
0.0793659
-0.0510759
0.0871125
-0.0493774
0.0945075
-0.0473569
0.101582
-0.0452542
0.108318
-0.0430286
0.114698
-0.0407209
0.120716
-0.0383598
0.126342
-0.0359593
0.131586
-0.033575
0.136479
-0.0312634
0.140985
-0.0289618
0.145147
-0.0267723
0.148959
-0.0246529
0.152422
-0.0226277
0.155572
-0.020736
0.158433
-0.0189705
0.161033
-0.0173388
0.163391
-0.0158241
0.165529
-0.0144311
0.167468
-0.0131556
0.169229
-0.0119893
0.170824
-0.0109207
0.172278
-0.00995705
-0.00907056
-0.151179
0.153334
-0.0154543
-0.148824
-0.0168157
-0.146268
-0.0182554
-0.143478
-0.0198241
-0.140453
-0.0214735
-0.137157
-0.0232524
-0.133585
-0.0251123
-0.129769
-0.0270373
-0.125673
-0.029076
-0.121208
-0.0312551
-0.116479
-0.0334056
-0.111435
-0.0356662
-0.106027
-0.0380248
-0.10034
-0.0403379
-0.0942842
-0.0427557
-0.0879664
-0.0450753
-0.0813198
-0.0474543
-0.0743138
-0.0497786
-0.0669364
-0.052074
-0.0592951
-0.0541875
-0.0513516
-0.0562633
-0.0431972
-0.0581111
-0.0347898
-0.059863
-0.026068
-0.0615548
-0.0171816
-0.0628548
-0.00815868
-0.0639427
0.000925351
-0.0647123
0.0101464
-0.0653689
0.0194432
-0.0657218
0.0286621
-0.0656612
0.037911
-0.0654756
0.047059
-0.0648411
0.0560161
-0.06386
0.0649118
-0.0627918
0.0735979
-0.0612606
0.0820502
-0.0595281
0.0901556
-0.0574828
0.0978956
-0.0550969
0.105444
-0.0528028
0.112583
-0.0501672
0.119351
-0.0474889
0.125779
-0.0447882
0.13178
-0.0419604
0.137384
-0.0391793
0.142592
-0.0364709
0.147381
-0.0337509
0.15177
-0.0311617
0.15576
-0.0286429
0.159471
-0.0263384
0.162841
-0.0241058
0.165878
-0.0220082
0.168616
-0.020076
0.171076
-0.0182842
0.173324
-0.016679
0.175356
-0.015188
0.177185
-0.0138184
0.178838
-0.0125732
0.18027
-0.0113892
-0.0104167
-0.0608221
0.0110235
-0.0707225
0.00990038
-0.0795153
0.00879269
-0.0870391
0.00752383
-0.0935292
0.00649008
-0.0994438
0.00591468
-0.105018
0.00557422
-0.110315
0.00529745
-0.115344
0.00502903
-0.119762
0.00441797
-0.122966
0.00320344
-0.124665
0.00169931
-0.124989
0.000323761
-0.12436
-0.000628954
-0.123351
-0.00100869
-0.1222
-0.00115148
-0.120688
-0.00151121
-0.118493
-0.00219572
-0.115637
-0.00285542
-0.112349
-0.00328803
-0.108747
-0.00360216
-0.104862
-0.00388487
-0.100688
-0.00417374
-0.0962451
-0.00444331
-0.00497503
-0.0647802
0.0203082
-0.0739156
0.0190356
-0.0824943
0.0173713
-0.0905521
0.0155815
-0.0980889
0.0140268
-0.105015
0.0128411
-0.111299
0.0118583
-0.116896
0.0108941
-0.121627
0.00976022
-0.125357
0.00814783
-0.128161
0.00600702
-0.130089
0.00362767
-0.131109
0.00134321
-0.131166
-0.000571693
-0.130234
-0.00194038
-0.128456
-0.00292914
-0.126086
-0.0038818
-0.123329
-0.00495295
-0.120185
-0.00599862
-0.116559
-0.00691469
-0.112429
-0.00773211
-0.107784
-0.00852973
-0.102592
-0.00936573
-0.0967303
-0.0103049
-0.0114755
-0.0704158
0.0306402
-0.0802873
0.028907
-0.0896556
0.0267395
-0.0985101
0.024436
-0.106715
0.0222319
-0.114107
0.0202331
-0.120592
0.0183432
-0.126108
0.0164094
-0.130602
0.0142542
-0.134157
0.0117031
-0.136909
0.00875924
-0.138918
0.00563671
-0.140187
0.00261182
-0.140658
-0.000100809
-0.140223
-0.00237494
-0.138858
-0.00429466
-0.136693
-0.00604656
-0.133895
-0.00775074
-0.130524
-0.00936952
-0.126568
-0.0108712
-0.122024
-0.0122756
-0.116907
-0.0136469
-0.111241
-0.0150316
-0.105054
-0.0164918
-0.0181268
-0.0758013
0.0420562
-0.0865358
0.0396413
-0.0966651
0.0368687
-0.106159
0.0339298
-0.114901
0.0309735
-0.122746
0.028078
-0.129591
0.0251888
-0.135388
0.0222066
-0.140139
0.019005
-0.143933
0.0154964
-0.146886
0.0117126
-0.14906
0.00781089
-0.150445
0.00399631
-0.150995
0.000449482
-0.150628
-0.00274166
-0.149328
-0.0055948
-0.147158
-0.00821646
-0.144226
-0.0106834
-0.140581
-0.0130138
-0.136252
-0.0152009
-0.13124
-0.0172871
-0.12557
-0.0193168
-0.119265
-0.021337
-0.112372
-0.0233842
-0.0254499
-0.0811929
0.0544045
-0.0928464
0.0512948
-0.10378
0.0478026
-0.113953
0.0441024
-0.12326
0.040281
-0.131597
0.0364143
-0.138879
0.0324704
-0.145074
0.0284023
-0.150202
0.024133
-0.154333
0.0196271
-0.157556
0.0149354
-0.159923
0.0101782
-0.161426
0.00549916
-0.162031
0.00105488
-0.161704
-0.00306959
-0.160419
-0.00687983
-0.158214
-0.0104206
-0.155166
-0.0137313
-0.15133
-0.0168506
-0.146743
-0.0197876
-0.141444
-0.0225861
-0.135478
-0.0252829
-0.128906
-0.0279087
-0.121808
-0.030482
-0.0330221
-0.0866865
0.0675066
-0.0992287
0.063837
-0.110965
0.0595392
-0.121842
0.0549786
-0.13176
0.0501995
-0.140648
0.0453021
-0.148428
0.0402499
-0.155086
0.0350606
-0.160644
0.0296915
-0.16515
0.0241326
-0.168677
0.0184622
-0.171257
0.0127581
-0.172892
0.00713448
-0.173566
0.00172831
-0.173243
-0.00339241
-0.171932
-0.00819107
-0.169665
-0.0126873
-0.166483
-0.0169132
-0.162448
-0.0208859
-0.157598
-0.0246369
-0.151986
-0.0281984
-0.145653
-0.0316159
-0.138646
-0.0349154
-0.131016
-0.0381124
-0.0411918
-0.0921375
0.0817083
-0.10568
0.0773793
-0.118255
0.0721145
-0.129874
0.0665974
-0.140452
0.060778
-0.149945
0.0547947
-0.15826
0.048565
-0.165414
0.0422139
-0.171416
0.0356941
-0.176309
0.029025
-0.180152
0.0223053
-0.182975
0.0155815
-0.184766
0.00892476
-0.185512
0.00247489
-0.185221
-0.00368359
-0.183893
-0.00951904
-0.181557
-0.0150237
-0.178259
-0.0202107
-0.174049
-0.0250964
-0.168989
-0.0296963
-0.163126
-0.0340617
-0.156518
-0.038224
-0.149198
-0.0422354
-0.141226
-0.0460843
-0.0497485
-0.0977312
0.0972563
-0.112309
0.0919571
-0.125697
0.0855022
-0.138078
0.0789788
-0.149349
0.0720491
-0.159489
0.0649344
-0.168365
0.0574409
-0.176023
0.0498718
-0.182494
0.0421651
-0.187775
0.0343064
-0.191931
0.0264613
-0.195018
0.0186685
-0.196973
0.0108802
-0.197815
0.00331607
-0.197558
-0.00394068
-0.196209
-0.0108682
-0.193806
-0.0174261
-0.19039
-0.023627
-0.18601
-0.0294759
-0.180737
-0.0349699
-0.174621
-0.0401777
-0.167732
-0.0451129
-0.160066
-0.049901
-0.151661
-0.0544893
-0.058855
-0.103853
0.114083
-0.119211
0.107315
-0.133278
0.0995696
-0.146434
0.0921345
-0.158437
0.0840518
-0.169293
0.0757911
-0.178736
0.0668834
-0.186904
0.0580397
-0.193855
0.049116
-0.199557
0.0400088
-0.204002
0.030906
-0.207339
0.0220058
-0.209496
0.0130368
-0.21042
0.00424049
-0.210197
-0.00416418
-0.208833
-0.0122324
-0.206353
-0.0199057
-0.202837
-0.0271428
-0.198272
-0.0340407
-0.192722
-0.0405203
-0.186332
-0.046568
-0.17913
-0.0523146
-0.1711
-0.0579313
-0.162515
-0.0630737
-0.0680364
1.35724
2.77476
0.0796038
-2.85434
1.1495
-0.0724052
-1.07712
0.267566
-0.366415
0.098849
0.331332
-0.399645
0.0683136
-0.596274
-0.504975
1.10125
-0.476479
0.765006
-0.288526
2.69503
-3.2175
0.522473
-0.0368887
-0.194821
0.23171
5.20007
-3.53728
-1.66279
-0.879877
1.88936
-1.00948
-0.804769
0.260799
0.543971
1.23829
-2.00221
0.763922
-1.30175
0.367697
0.934051
0.110928
-0.11207
0.00114181
5.07398
-4.9345
-0.13947
-0.0647317
1.21426
0.132046
-0.025753
-0.106293
-0.119544
-0.131722
0.375556
0.23468
-0.610236
-0.336924
0.219576
0.117348
3.04754
2.11708
-5.16462
-0.621892
0.893007
-0.271116
1.3135
-1.07434
-0.239161
-0.984366
0.371295
0.613071
1.16327
0.150229
-1.19185
0.798972
0.392882
-0.740419
0.104235
0.636185
5.23248
-2.84076
-2.39171
-0.0285821
-0.141452
0.170034
0.143991
0.525084
-0.669075
-1.27927
0.447117
0.832137
0.853301
0.681985
-1.53529
3.03942
-5.38689
2.34748
-0.285232
-0.0724068
0.357639
0.0281459
1.59131
-1.61945
-0.905543
-0.396204