/*--------------------------------*- C++ -*----------------------------------*\
  =========                 |
  \\      /  F ield         | OpenFOAM: The Open Source CFD Toolbox
   \\    /   O peration     | Website:  https://openfoam.org
    \\  /    A nd           | Version:  10
     \\/     M anipulation  |
\*---------------------------------------------------------------------------*/
FoamFile
{
    format      ascii;
    class       volVectorField;
    location    "1300";
    object      U;
}
// * * * * * * * * * * * * * * * * * * * * * * * * * * * * * * * * * * * * * //

dimensions      [0 1 -1 0 0 0 0];

internalField   nonuniform List<vector> 
10435
(
(1.86932 0.711234 2.65138e-22)
(2.55973 1.63479 -2.08885e-20)
(4.44957 -0.394105 -3.10296e-20)
(3.07439 0.554309 6.39852e-20)
(4.12429 0.620374 -3.46075e-20)
(4.13154 -0.238452 2.49486e-19)
(4.41991 -0.357844 -1.10812e-19)
(3.98588 -0.349475 6.47368e-20)
(3.3991 -0.348016 2.17141e-19)
(4.31434 -0.453669 -7.25555e-20)
(3.09491 1.53397 -6.29975e-20)
(3.92548 -0.041165 1.59457e-19)
(4.19158 -0.450159 7.92573e-20)
(0.861322 0.669626 -6.11719e-21)
(0.96307 0.723196 -7.33507e-21)
(4.27218 -0.380732 -8.34164e-21)
(0.768852 0.601555 1.99022e-21)
(3.97344 -0.474971 2.6742e-19)
(3.0805 -0.33904 -8.69028e-20)
(2.06986 0.658463 -7.78995e-21)
(4.15231 -0.361814 4.74404e-20)
(2.93166 0.299296 -9.98806e-20)
(4.38979 -0.393117 3.3263e-19)
(3.35467 -0.342723 -9.50157e-20)
(4.45513 -0.424295 8.47234e-20)
(0.243167 0.404351 -1.29263e-22)
(0.0388565 0.155136 -1.21345e-22)
(4.38295 -0.404969 6.76424e-20)
(0.198666 0.0116276 -2.78151e-23)
(4.11768 -0.475174 3.57877e-19)
(4.48487 -0.354849 1.3915e-19)
(3.3407 1.42797 -6.34516e-21)
(3.84542 -0.348857 -1.3665e-19)
(0.445267 0.0418952 5.21198e-22)
(3.87256 -0.366852 7.61242e-20)
(1.72172 1.46766 1.61997e-21)
(4.06002 -0.370385 1.11214e-19)
(0.145618 0.334204 -5.60882e-22)
(0.378099 0.377622 -1.92227e-22)
(3.19228 -0.328304 2.63746e-20)
(3.98401 -0.483448 -3.92289e-19)
(4.43158 -0.380382 -9.04781e-20)
(0.581617 0.689238 -7.32626e-21)
(2.57766 0.752885 -8.21857e-20)
(4.2681 -0.36687 -2.38428e-19)
(3.28873 -0.334844 1.56785e-19)
(4.08189 -0.368977 -2.89946e-19)
(0.421852 0.555943 -2.10269e-20)
(3.33511 -0.377613 6.94656e-20)
(2.79344 0.0607228 -3.42861e-20)
(4.01696 -0.361605 -1.00464e-20)
(4.49694 -0.206653 1.12583e-18)
(0.418509 0.397994 -4.28273e-22)
(0.28786 -0.0932594 4.53946e-23)
(0.336959 0.385249 3.76014e-23)
(0.148386 -0.028868 6.66224e-23)
(3.87302 -0.352491 -3.29904e-19)
(0.148793 0.269435 3.04123e-22)
(0.648357 0.352705 -7.15182e-22)
(3.63973 -0.34337 2.11758e-19)
(0.376744 0.409628 3.54302e-22)
(2.27456 1.61887 7.89987e-21)
(0.160254 0.176431 1.17877e-22)
(4.44202 -0.0372498 -9.47648e-20)
(4.3492 -0.389741 -4.56173e-19)
(4.46829 -0.424857 2.3954e-19)
(0.588262 0.236233 1.93104e-21)
(0.318603 0.333945 7.96064e-22)
(4.1203 -0.349786 -8.56532e-20)
(3.32377 -0.331474 7.19842e-21)
(0.238731 -0.123113 -2.68104e-22)
(0.183619 0.396162 7.47394e-23)
(0.684617 0.775175 3.25862e-20)
(4.48088 -0.410184 -3.04183e-19)
(1.07467 0.768546 -3.20727e-21)
(0.731162 0.847257 3.30537e-21)
(3.31134 -0.324104 3.90467e-19)
(4.3833 -0.338452 2.70828e-19)
(3.71958 -0.351849 1.93908e-20)
(1.14712 0.656997 1.746e-20)
(3.08017 -0.14962 4.18992e-20)
(1.70141 0.585191 4.47765e-22)
(0.45753 0.418136 7.4404e-22)
(0.329084 -0.0695713 -4.56491e-23)
(3.18629 -0.226775 -8.3074e-20)
(1.49238 1.20884 4.31064e-20)
(1.68915 1.08327 3.94067e-21)
(2.68176 1.03291 1.7396e-20)
(1.18796 0.978244 -2.16188e-21)
(1.91415 1.10718 -1.31753e-21)
(2.95135 0.960454 -1.28511e-20)
(3.24875 0.855836 -1.60771e-20)
(1.87098 0.526981 2.74401e-21)
(1.32391 1.01501 1.4639e-20)
(2.1582 1.10759 6.81652e-21)
(1.48853 1.36142 1.9801e-20)
(3.47129 0.686428 2.09295e-19)
(1.02327 0.860527 5.00454e-21)
(0.739632 0.450374 -2.33328e-21)
(3.82495 0.62366 -2.04088e-19)
(1.09888 0.91578 1.03416e-20)
(3.99706 0.578416 -1.34552e-19)
(1.48941 1.04999 -9.72985e-21)
(2.41481 1.08165 -4.03726e-21)
(4.06791 0.347465 -8.74395e-21)
(2.82712 0.667129 -2.47971e-22)
(2.05242 0.448635 1.76858e-21)
(2.95219 -0.0568854 4.62091e-20)
(3.26995 -0.266827 -1.1147e-19)
(1.26603 0.663045 -4.89906e-21)
(2.61972 0.164729 -1.28961e-20)
(3.90998 0.826067 -6.30837e-20)
(1.54359 0.62326 -6.14707e-21)
(1.39971 0.651879 -4.31996e-21)
(3.64007 0.821797 -1.15719e-19)
(2.71987 0.411658 2.76815e-20)
(3.96548 0.424348 -1.16548e-19)
(1.70808 1.276 -2.46777e-21)
(2.78893 1.32177 -8.6534e-20)
(3.7999 0.287681 -3.01465e-20)
(4.06445 0.252879 -3.60432e-19)
(0.770896 0.909452 3.47156e-21)
(1.95499 1.33207 -9.81372e-21)
(1.0892 1.21071 -5.9732e-20)
(3.43955 1.51178 1.52827e-20)
(0.315913 0.412806 6.66013e-23)
(3.64905 0.468726 2.02736e-19)
(0.854912 1.00366 -6.92708e-21)
(4.12038 0.510601 -2.31201e-19)
(0.0754743 0.335894 1.34228e-22)
(0.957811 1.10344 1.82373e-20)
(3.23683 1.65739 -1.17263e-19)
(4.13173 -0.369204 -1.19429e-19)
(1.03687 0.63344 1.23093e-20)
(0.156441 0.368731 2.6357e-23)
(0.591176 0.500665 1.1846e-22)
(1.46587 1.48217 5.86344e-20)
(3.28969 0.399756 -1.00571e-20)
(2.50573 1.3591 2.39155e-20)
(2.49883 0.505882 2.1628e-20)
(2.28025 0.589385 1.91349e-21)
(4.42357 -0.364548 -5.01694e-19)
(0.519099 0.148501 6.53881e-21)
(4.38598 -0.104657 1.04821e-18)
(3.12392 0.17028 1.54173e-20)
(0.893514 0.914851 3.08857e-20)
(1.25976 1.34517 -1.76474e-20)
(4.3969 -0.095865 -3.3247e-19)
(0.725133 0.687285 1.12013e-20)
(4.24127 -0.152531 6.41872e-20)
(0.37371 0.523406 7.02001e-22)
(4.15966 -0.347431 2.08241e-19)
(1.88411 0.89675 7.28829e-22)
(4.33767 -0.192101 4.5743e-19)
(4.42507 -0.29861 -2.92823e-19)
(0.32147 0.474049 2.82456e-22)
(3.61499 1.30482 1.88408e-19)
(2.22508 1.36185 8.09273e-21)
(4.35379 -0.374998 -2.53561e-19)
(2.78745 1.84485 -1.60236e-20)
(4.32774 -0.298368 -8.45575e-20)
(0.938297 0.591446 -2.57724e-21)
(3.3619 1.12688 1.39219e-19)
(3.56123 -0.115059 1.04501e-19)
(1.20251 0.785712 1.02999e-20)
(4.24156 0.279606 8.31905e-19)
(3.74855 -0.357258 -2.12347e-19)
(3.62437 0.10871 -9.57736e-20)
(3.71834 -0.271541 1.52902e-19)
(4.39417 0.0332562 -1.49563e-18)
(4.48579 -0.384393 2.89721e-19)
(0.644639 0.694597 -1.01262e-20)
(0.0180255 0.0783915 -1.97439e-22)
(0.982897 0.952342 1.54041e-22)
(4.06954 -0.229651 -2.37507e-19)
(2.53825 1.86943 -8.41344e-21)
(1.98889 1.5591 1.92459e-20)
(0.522119 0.538345 3.56047e-21)
(2.43483 0.263121 8.03222e-21)
(0.253739 0.0579835 -5.21084e-23)
(2.83527 1.60318 3.46933e-20)
(4.15692 -0.0817411 -4.15254e-20)
(4.13505 -0.0894407 -5.58619e-19)
(0.361092 0.4275 1.10763e-22)
(4.37068 -0.33598 7.09938e-20)
(0.53584 0.655469 1.18387e-20)
(0.690165 0.812531 -2.89072e-20)
(4.33115 -0.336881 -2.14074e-19)
(4.21378 0.438976 8.25901e-20)
(4.49777 -0.159704 -7.37089e-19)
(4.05237 0.104794 8.09894e-20)
(0.492475 0.439745 7.82164e-22)
(0.104692 0.364088 6.49681e-24)
(1.71604 1.62653 -4.51751e-20)
(3.77529 1.07303 9.9001e-20)
(4.23321 -0.336015 1.24705e-20)
(0.700342 0.766237 2.92797e-20)
(1.31158 1.14062 -1.56557e-20)
(0.469099 0.561674 2.26117e-20)
(4.18829 -0.378812 1.72314e-19)
(1.18889 0.880543 -1.23343e-20)
(0.209713 0.385908 1.285e-21)
(4.3161 -0.424824 -1.96582e-20)
(0.194751 0.343112 1.16281e-21)
(4.41963 -0.421385 -7.38588e-20)
(3.76389 0.920498 -2.19885e-21)
(3.067 1.25091 1.09672e-19)
(3.47279 0.244254 -6.16224e-20)
(0.227579 0.161244 -2.75509e-22)
(3.28695 0.0479494 -4.8895e-20)
(0.437246 0.552795 -3.61766e-21)
(4.43837 -0.39151 -4.32967e-19)
(4.23667 0.0527155 8.48611e-19)
(3.72951 -0.155274 6.3341e-20)
(0.0674063 0.138053 2.66932e-22)
(0.816481 0.758168 -3.10322e-20)
(1.35602 0.775206 3.33082e-21)
(0.461101 0.493797 -5.48127e-22)
(0.231157 0.388966 -1.47673e-22)
(0.845042 0.529092 2.29956e-21)
(0.302536 0.0223825 -7.26286e-23)
(0.583594 0.50196 6.15321e-21)
(0.427272 0.184327 -3.30637e-21)
(1.01349 1.04963 -5.9148e-20)
(0.266594 0.434198 -1.07162e-22)
(4.02491 -0.370416 -5.39658e-20)
(0.288847 0.380785 2.05138e-22)
(1.16332 1.07147 6.34159e-21)
(4.51701 -0.301363 8.20914e-19)
(0.821548 0.937183 -3.0664e-20)
(0.452195 0.417201 -1.93525e-20)
(3.88338 -0.358973 2.37253e-19)
(0.262442 0.386406 4.6881e-22)
(4.06312 -0.318585 2.45406e-19)
(0.0567535 0.268693 -1.82325e-22)
(0.673881 0.53117 -1.03859e-20)
(3.73304 -0.344136 -2.93759e-19)
(0.233686 0.415487 -1.5871e-23)
(3.67052 -0.328235 -1.85909e-20)
(4.51847 -0.385407 4.63593e-21)
(2.33632 0.81955 2.38218e-20)
(0.317986 0.443383 3.36232e-23)
(0.491763 0.531588 1.19023e-22)
(0.199224 -0.0520896 -3.8653e-23)
(3.57259 1.06681 -2.45877e-19)
(3.60236 -0.357689 7.44986e-20)
(1.29328 1.25357 -6.69955e-20)
(4.2018 -0.324597 7.09654e-20)
(0.0552826 -0.0229395 -3.67181e-22)
(2.27033 1.83557 3.64202e-21)
(0.120669 -0.0809472 -6.57401e-22)
(1.33726 0.889744 -1.11836e-20)
(4.19979 -0.459716 -1.38089e-19)
(3.42779 -0.0552381 -9.28838e-20)
(4.27867 -0.309083 -1.84798e-19)
(4.33062 0.217338 3.63848e-19)
(0.0682463 -0.0531883 1.53569e-21)
(4.32964 -0.317373 2.62877e-19)
(0.399366 0.510396 2.81866e-22)
(0.292126 0.439481 -5.35097e-21)
(4.37788 -0.325391 1.34326e-20)
(4.50814 -0.344278 7.18158e-22)
(0.285229 0.422876 6.60035e-24)
(3.44423 -0.274466 -2.26941e-19)
(1.50873 0.76342 2.34436e-21)
(0.547845 0.391915 1.17591e-20)
(2.10385 0.868137 3.54819e-21)
(4.46603 -0.396984 2.71285e-19)
(0.440472 0.45081 -1.78161e-22)
(3.9335 0.741441 4.38477e-20)
(4.40734 -0.335502 1.68272e-23)
(4.04409 -0.323575 -3.76412e-20)
(4.21576 -0.311624 -2.69046e-20)
(4.46172 -0.443194 -3.08164e-19)
(0.196744 0.394677 4.46218e-22)
(3.90558 0.159266 -1.49097e-19)
(0.113738 0.331214 1.1314e-22)
(3.93286 0.896431 3.40333e-20)
(4.27793 -0.360885 6.90848e-20)
(3.92862 -0.336954 1.50541e-20)
(4.31457 -0.471635 1.58403e-19)
(0.602541 0.661185 -3.77618e-20)
(4.42108 -0.349799 -8.14245e-21)
(1.07066 1.00667 -5.01004e-21)
(1.49345 0.900023 -5.61454e-21)
(0.515066 0.492763 -3.0943e-22)
(4.31844 0.217133 5.59585e-20)
(0.320056 0.367925 -2.12178e-22)
(0.373925 -0.0455639 -2.42468e-22)
(0.368485 0.0418408 1.21248e-22)
(1.12397 1.14639 6.3984e-20)
(3.01928 1.77646 1.17808e-19)
(0.296856 0.126011 9.29828e-23)
(4.12777 -0.314706 7.25982e-20)
(0.363135 0.351712 -7.81324e-23)
(0.196168 -0.126403 -1.58427e-21)
(0.803106 0.851123 -6.2132e-22)
(1.68154 0.744509 1.50673e-21)
(3.74647 1.12261 -6.36799e-21)
(4.50846 -0.409187 1.81061e-19)
(0.386449 0.44369 2.86161e-20)
(3.63573 -0.324212 -7.60584e-20)
(4.41599 -0.361025 -2.78856e-21)
(0.0328858 0.0087324 -4.47485e-22)
(3.55293 1.30606 -6.69713e-20)
(0.912391 0.817472 1.7576e-20)
(0.637096 0.608822 1.48533e-20)
(3.95404 -0.306888 -1.65102e-20)
(4.49341 -0.416021 -2.37524e-21)
(0.41744 -0.0275789 7.09455e-23)
(2.24036 0.360857 5.69598e-21)
(0.21777 0.40609 1.14878e-21)
(1.99015 1.75212 1.36524e-20)
(4.3401 0.0752144 -1.71271e-19)
(3.56112 -0.345145 -3.63336e-20)
(0.159631 -0.105881 -3.509e-22)
(0.379526 0.452139 -3.0796e-22)
(4.45355 -0.252687 -9.07669e-19)
(0.39244 0.310159 2.4775e-22)
(3.76299 0.016759 1.17901e-19)
(4.09437 0.11391 -6.58577e-20)
(0.140611 0.109283 -3.53247e-22)
(1.67873 0.904782 -1.29201e-21)
(0.527597 0.462469 5.62379e-22)
(3.79194 -0.338862 -8.50152e-21)
(4.35686 -0.444281 -6.90156e-20)
(0.170122 0.396892 2.81363e-22)
(4.39925 -0.372489 -3.76873e-22)
(0.480879 0.28257 -6.11182e-22)
(0.0989027 0.268055 3.64519e-22)
(3.49259 -0.34018 1.75872e-21)
(0.451241 0.0928609 -2.71893e-22)
(0.455696 -0.0123601 1.56857e-22)
(4.43376 -0.37129 9.85295e-21)
(4.19185 -0.258376 2.15019e-19)
(0.207231 0.255892 -8.771e-22)
(0.151863 -0.0876241 -5.58812e-22)
(0.0678037 -0.0428781 -3.19206e-22)
(0.504534 0.0284642 1.21751e-22)
(0.04505 0.0504134 -4.38779e-23)
(0.146913 0.389596 -7.00835e-22)
(0.241182 0.429281 4.15392e-22)
(0.412237 0.42659 -2.49622e-23)
(0.0172101 0.0812411 5.01442e-22)
(0.0223749 0.0427268 -6.99211e-22)
(0.301506 0.466668 -6.40316e-22)
(0.268451 0.239925 3.40511e-22)
(0.00887575 0.229442 1.66473e-22)
(0.558138 0.481847 -6.9746e-22)
(3.65562 -0.357267 -4.79497e-20)
(0.484998 0.00501651 4.23715e-22)
(4.43218 -0.451318 8.3277e-21)
(0.0198115 0.123595 -1.96643e-22)
(4.36625 -0.386728 -1.53044e-21)
(3.6891 -0.350377 2.16718e-20)
(3.27269 -0.366906 -1.81144e-20)
(4.14048 -0.443445 -4.30466e-21)
(4.46705 -0.403254 -1.93814e-19)
(0.243973 -0.072363 1.06505e-22)
(0.39097 -0.0020948 -4.94363e-22)
(0.107301 -0.0629266 -4.68628e-23)
(0.275395 0.398333 3.88064e-22)
(0.074162 0.0226276 -1.0251e-23)
(0.479606 0.472148 3.11669e-22)
(0.0927433 0.102354 2.42924e-22)
(0.124328 0.377292 -4.11457e-22)
(0.257201 0.347568 -4.01571e-21)
(3.92492 -0.190498 -1.77097e-20)
(0.131254 0.381903 -1.7082e-22)
(3.5212 -0.363647 5.39122e-20)
(0.301495 0.390073 -2.45453e-22)
(0.102558 0.358992 5.87095e-22)
(4.02448 -0.477754 -3.49778e-20)
(3.08951 -0.386605 -5.57218e-20)
(0.545148 0.522537 3.09423e-21)
(0.0142539 0.17111 -7.35279e-22)
(0.110333 0.189531 -3.27504e-22)
(0.0254759 0.199245 8.43668e-23)
(0.33874 -0.0194437 8.26227e-23)
(0.20559 0.403792 -8.16121e-23)
(0.00695786 0.215226 9.87945e-22)
(0.341106 0.398983 -4.8292e-23)
(3.83465 -0.343769 -1.41402e-20)
(0.338216 0.213209 -8.87086e-22)
(4.09749 -0.329401 8.18479e-21)
(3.56126 -0.352737 7.51372e-20)
(4.30941 -0.40373 -7.99806e-22)
(4.23035 -0.426812 6.80659e-20)
(3.43489 -0.356189 -3.35762e-20)
(4.41011 -0.386676 -2.21994e-20)
(3.71966 -0.352771 -4.77864e-20)
(0.920094 1.02168 1.70008e-21)
(0.53189 0.619158 -5.02374e-21)
(0.245047 -0.0191454 1.04763e-23)
(0.191666 -0.100825 -1.51331e-22)
(4.42591 -0.377523 3.06791e-20)
(0.287438 -0.0471313 -3.193e-22)
(4.05124 -0.462073 -1.62808e-19)
(0.0106385 0.238542 -6.16291e-23)
(0.192286 0.0877198 -1.90407e-23)
(0.0765172 0.330042 -1.55891e-22)
(0.373089 0.110909 -3.18155e-22)
(0.399428 0.482488 5.04048e-22)
(4.37477 -0.365325 3.76155e-19)
(0.0735258 0.205207 2.31422e-22)
(3.97478 -0.335208 3.43823e-21)
(3.85981 -0.299663 -9.08863e-20)
(0.527302 0.573577 -4.14606e-22)
(0.174828 0.397545 3.02611e-23)
(0.0465658 0.270396 2.6248e-22)
(3.07654 -0.372896 7.16553e-20)
(0.0641925 0.304257 -5.82479e-22)
(0.151571 0.390263 7.37194e-23)
(0.329799 0.461075 -3.72446e-22)
(0.110764 -0.0016718 -3.41983e-23)
(0.326954 0.44543 1.5605e-21)
(0.11876 0.0625794 1.01451e-23)
(4.43239 -0.397229 1.73398e-19)
(0.181546 -0.1281 -3.06939e-23)
(0.195459 0.400299 -1.42371e-23)
(0.155059 0.0427153 2.79633e-24)
(0.540971 0.0864112 -3.37957e-21)
(3.8736 -0.456036 -1.23814e-19)
(0.620579 0.5908 4.70983e-21)
(0.604022 0.528609 -9.39951e-21)
(2.84418 -0.367715 -9.99775e-20)
(0.439408 0.0088983 -1.87416e-22)
(0.43603 -0.381319 1.11552e-21)
(0.459964 -0.371389 -3.21001e-23)
(0.513254 -0.377074 -6.79969e-22)
(0.550704 -0.382215 3.544e-22)
(0.590419 -0.386845 -3.96525e-22)
(0.622667 -0.389997 -1.24015e-21)
(0.653637 -0.392414 2.88276e-22)
(0.680138 -0.39438 3.74574e-22)
(0.70573 -0.394857 3.90953e-22)
(0.46939 -0.368872 -7.34246e-22)
(0.492952 -0.363287 -5.60475e-23)
(0.543244 -0.367827 5.69513e-22)
(0.580689 -0.373715 -1.07681e-21)
(0.618306 -0.378454 9.63913e-22)
(0.649781 -0.382378 1.65512e-21)
(0.679076 -0.385292 -1.04883e-21)
(0.704573 -0.387554 1.10186e-21)
(0.727399 -0.388642 -5.38493e-22)
(0.504031 -0.352179 2.08164e-21)
(0.524431 -0.349226 5.48844e-22)
(0.57217 -0.353947 -1.21704e-21)
(0.608867 -0.360739 6.24255e-22)
(0.644768 -0.366022 -1.58649e-21)
(0.67536 -0.370677 -2.40428e-22)
(0.703292 -0.374247 -3.19898e-23)
(0.727623 -0.377086 -5.48708e-22)
(0.749199 -0.379025 -8.87479e-22)
(0.536029 -0.333028 -9.91966e-22)
(0.553494 -0.331113 4.02061e-22)
(0.599159 -0.336377 9.49894e-22)
(0.635072 -0.344022 5.32351e-23)
(0.669563 -0.349989 7.0983e-22)
(0.699283 -0.355333 2.08266e-21)
(0.726091 -0.359526 -1.25998e-21)
(0.749504 -0.362889 2.01258e-22)
(0.770366 -0.365335 4.91983e-22)
(0.565247 -0.311157 1.44301e-22)
(0.579908 -0.309587 -1.98387e-22)
(0.623611 -0.315619 5.63417e-23)
(0.65882 -0.323902 -4.28078e-22)
(0.692208 -0.330591 2.09569e-22)
(0.72123 -0.336581 -4.74995e-22)
(0.747242 -0.341373 2.04036e-22)
(0.770086 -0.345243 8.50918e-22)
(0.790697 -0.347944 1.87541e-22)
(0.591153 -0.286705 1.62369e-22)
(0.603261 -0.285127 -9.00017e-22)
(0.645136 -0.292177 1.03695e-22)
(0.679837 -0.300789 1.02547e-21)
(0.712416 -0.308129 -3.37258e-22)
(0.740939 -0.314678 -4.86188e-22)
(0.76643 -0.320049 -1.68478e-22)
(0.788964 -0.324456 -1.46458e-21)
(0.809339 -0.327856 7.67737e-22)
(0.612198 -0.261199 1.24481e-22)
(0.623262 -0.2585 6.78743e-22)
(0.663584 -0.266587 1.42168e-22)
(0.698024 -0.275034 -5.11258e-22)
(0.730029 -0.28283 1.09772e-22)
(0.758233 -0.289782 -1.80385e-22)
(0.783427 -0.295639 3.99523e-22)
(0.805815 -0.300518 -3.75861e-22)
(0.826139 -0.304482 -2.56049e-22)
(0.626975 -0.234694 -3.24924e-22)
(0.6404 -0.229975 6.33057e-22)
(0.679295 -0.238908 -1.28051e-22)
(0.713494 -0.246725 2.58546e-22)
(0.745009 -0.25476 -2.23787e-22)
(0.773017 -0.261944 6.90747e-22)
(0.798094 -0.268159 9.27025e-22)
(0.820506 -0.273468 -1.1932e-21)
(0.841039 -0.277457 3.53935e-22)
(0.636325 -0.203731 -3.54847e-23)
(0.65539 -0.198313 1.28577e-22)
(0.692601 -0.208241 6.59113e-23)
(0.726291 -0.215531 -3.08253e-22)
(0.757294 -0.223769 -9.29035e-23)
(0.785191 -0.231071 -2.63594e-22)
(0.810304 -0.237498 -1.45422e-22)
(0.832926 -0.242982 1.25879e-21)
(0.853585 -0.247506 -1.31324e-22)
(0.642429 -0.16625 1.03085e-22)
(0.667756 -0.162269 -5.41438e-22)
(0.702957 -0.173718 -2.70104e-22)
(0.736026 -0.181146 1.00297e-22)
(0.766649 -0.189705 -1.07723e-22)
(0.794611 -0.197042 4.44799e-22)
(0.819967 -0.203468 6.88592e-23)
(0.842965 -0.208854 8.52817e-22)
(0.864036 -0.213091 -5.01149e-23)
(0.646569 -0.124118 -7.2648e-23)
(0.676014 -0.12267 -8.53184e-24)
(0.709202 -0.135896 1.70926e-22)
(0.742054 -0.143927 3.23916e-22)
(0.772744 -0.152742 -1.01185e-22)
(0.801111 -0.159918 -1.01484e-22)
(0.827024 -0.166052 -2.85667e-22)
(0.850725 -0.170974 -1.0335e-21)
(0.872503 -0.174719 -1.63709e-22)
(0.649115 -0.0809928 1.58346e-22)
(0.678998 -0.0825661 4.95806e-22)
(0.710748 -0.0967664 -3.62313e-22)
(0.744104 -0.104963 2.12029e-22)
(0.775439 -0.113438 -3.90829e-23)
(0.804577 -0.119996 6.68555e-22)
(0.831309 -0.125432 6.72174e-23)
(0.855877 -0.129547 -5.40315e-22)
(0.878617 -0.133229 -3.89001e-22)
(0.648125 -0.0406879 4.93726e-23)
(0.676246 -0.0447854 -1.05731e-22)
(0.708287 -0.0580331 2.25339e-23)
(0.742662 -0.0652596 1.43679e-22)
(0.774992 -0.0723736 -9.65368e-23)
(0.805094 -0.0776033 -1.26793e-22)
(0.832755 -0.0817202 -2.33743e-22)
(0.858208 -0.084686 4.33617e-22)
(0.882077 -0.0868166 -2.51083e-22)
(0.640993 -0.00372934 -7.67889e-23)
(0.669793 -0.00868542 -9.1136e-24)
(0.703081 -0.0196925 -8.09553e-23)
(0.738513 -0.024956 2.33911e-22)
(0.771835 -0.0298114 -4.27506e-23)
(0.802874 -0.0330498 -2.49202e-23)
(0.831443 -0.0352784 -1.69071e-22)
(0.85778 -0.0365382 2.02253e-23)
(0.882253 -0.0365482 1.555e-22)
(0.62869 0.0322223 2.77645e-22)
(0.660348 0.0272592 -2.8548e-23)
(0.695603 0.0191614 4.61632e-22)
(0.732036 0.0163572 -6.78163e-22)
(0.766178 0.014237 7.63806e-23)
(0.797994 0.0133727 2.48193e-22)
(0.827358 0.0133556 1.74741e-22)
(0.854547 0.0141827 2.5127e-22)
(0.879858 0.0160056 -8.86854e-22)
(0.610768 0.0693269 7.01052e-23)
(0.64789 0.0644515 -2.34129e-22)
(0.68573 0.0595933 -6.69009e-22)
(0.723097 0.0592017 9.04755e-22)
(0.75787 0.0597994 3.08291e-22)
(0.790277 0.061342 -1.63538e-22)
(0.820267 0.0635933 -2.27384e-23)
(0.848068 0.0665827 6.83363e-22)
(0.873744 0.0700406 -2.91951e-22)
(0.589011 0.108933 5.52637e-22)
(0.631182 0.104239 -5.34682e-22)
(0.672522 0.10227 6.56083e-22)
(0.710995 0.103771 -4.40686e-22)
(0.746399 0.106659 -4.75796e-22)
(0.779333 0.110373 1.88431e-21)
(0.809865 0.114756 -1.25258e-21)
(0.838194 0.11988 -5.10733e-22)
(0.864694 0.124821 1.20796e-22)
(0.566941 0.148943 -7.05394e-22)
(0.610203 0.145333 7.3382e-22)
(0.654979 0.146158 -3.43598e-22)
(0.694909 0.14924 5.37413e-22)
(0.731175 0.154038 1.25119e-22)
(0.764752 0.159686 -1.49565e-21)
(0.795859 0.166066 1.35015e-22)
(0.824677 0.173152 -7.15079e-22)
(0.851625 0.18033 -9.17182e-22)
(0.545531 0.186543 -1.18878e-22)
(0.586446 0.184745 -1.62624e-22)
(0.633322 0.188972 -3.56732e-22)
(0.674697 0.193963 -1.53648e-21)
(0.711985 0.200665 3.86722e-22)
(0.746338 0.208178 6.42264e-22)
(0.77811 0.216435 7.49374e-22)
(0.80754 0.225274 9.3718e-22)
(0.835022 0.23445 -4.32039e-22)
(0.523797 0.221157 1.11845e-22)
(0.560992 0.221156 5.08159e-23)
(0.608585 0.229085 1.24014e-21)
(0.650881 0.236528 -1.03271e-22)
(0.689061 0.245357 6.19844e-22)
(0.724161 0.254842 -4.19298e-22)
(0.756575 0.265006 -3.02015e-21)
(0.786542 0.275656 -4.69398e-22)
(0.814444 0.286521 -4.81068e-23)
(0.501103 0.253308 2.41377e-22)
(0.534153 0.254555 -1.48826e-21)
(0.581599 0.265839 9.28353e-22)
(0.624122 0.276086 -1.17629e-21)
(0.662873 0.287233 8.91497e-22)
(0.698556 0.298827 -1.86573e-22)
(0.73155 0.310966 8.50553e-22)
(0.762105 0.323425 7.72203e-22)
(0.790357 0.336596 -2.47539e-22)
(0.477417 0.282427 4.50763e-22)
(0.505888 0.284805 1.42076e-21)
(0.552884 0.298856 -2.49533e-21)
(0.594968 0.312139 3.49004e-22)
(0.633865 0.325695 -2.38378e-21)
(0.66985 0.339481 7.01834e-22)
(0.703283 0.353609 2.73828e-22)
(0.734559 0.367812 -3.90826e-22)
(0.762886 0.383859 -2.12403e-22)
(0.452708 0.306652 -5.24283e-22)
(0.476527 0.311802 -1.18954e-21)
(0.523081 0.32818 1.30087e-21)
(0.564094 0.344686 1.41255e-21)
(0.602649 0.360609 1.60473e-21)
(0.638546 0.376541 -1.21204e-22)
(0.67214 0.392521 -5.19665e-22)
(0.703994 0.408499 1.58368e-21)
(0.73265 0.42672 -4.1797e-21)
(0.426433 0.32539 9.4338e-24)
(0.446011 0.335202 7.02562e-22)
(0.491545 0.353446 -3.50839e-22)
(0.530824 0.373032 6.58537e-22)
(0.568533 0.391139 -1.3488e-21)
(0.604036 0.409223 -4.10983e-22)
(0.637626 0.427008 2.18444e-21)
(0.670444 0.444854 -2.26454e-21)
(0.700132 0.467468 2.81242e-21)
(0.398778 0.34017 -5.10569e-23)
(0.416929 0.358649 9.09054e-23)
(0.46154 0.37977 4.44082e-22)
(0.49915 0.401051 -7.55561e-22)
(0.53559 0.42044 1.93005e-22)
(0.569723 0.43958 -1.1195e-21)
(0.602404 0.45792 8.18847e-22)
(0.636859 0.475439 -6.71992e-22)
(0.668454 0.499741 -4.87138e-23)
(0.339738 0.298648 -2.77602e-22)
(0.332782 0.296395 -3.38544e-22)
(0.325483 0.293433 -1.05596e-21)
(0.317397 0.289991 1.4948e-21)
(0.308487 0.286002 -1.13353e-21)
(0.298714 0.281426 8.60227e-22)
(0.288064 0.276223 3.38661e-22)
(0.276542 0.270326 -8.9013e-23)
(0.264171 0.263663 -6.31889e-22)
(0.250999 0.256163 -2.72739e-22)
(0.237106 0.247753 2.99106e-22)
(0.222596 0.238358 -3.36011e-22)
(0.2076 0.22791 9.1717e-22)
(0.192274 0.216349 -2.31439e-21)
(0.17678 0.203617 4.02721e-21)
(0.161293 0.18968 -4.55574e-21)
(0.145991 0.174532 4.06564e-21)
(0.131035 0.158188 -1.83284e-21)
(0.116569 0.140718 -5.96344e-22)
(0.102704 0.122253 6.29755e-22)
(0.0894762 0.102995 -2.17543e-22)
(0.076743 0.0831608 4.72426e-22)
(0.0643158 0.0633362 3.17104e-23)
(0.0520854 0.0439085 -6.56184e-22)
(0.0418029 0.0243923 5.17099e-22)
(0.0356833 0.00432956 -2.79119e-22)
(0.0339776 -0.0167277 3.61463e-22)
(0.0370457 -0.0389111 2.88091e-22)
(0.042671 -0.0624884 -3.48055e-22)
(0.0483733 -0.0872416 9.30911e-24)
(0.0544005 -0.112388 -3.11109e-22)
(0.0614983 -0.137472 2.8284e-22)
(0.0700255 -0.162235 5.34945e-22)
(0.080004 -0.186362 -4.3491e-22)
(0.091338 -0.209506 6.18803e-22)
(0.103892 -0.231451 -1.02929e-21)
(0.117472 -0.251992 8.10741e-23)
(0.131871 -0.270973 2.22405e-22)
(0.146888 -0.288284 -3.35403e-22)
(0.162343 -0.303854 7.49638e-22)
(0.178094 -0.317664 -4.27869e-22)
(0.194032 -0.329735 -1.8143e-21)
(0.210073 -0.340119 3.69703e-21)
(0.226162 -0.348899 -3.94062e-21)
(0.242263 -0.356202 3.40731e-21)
(0.258326 -0.362171 -2.00068e-21)
(0.274278 -0.366937 1.02103e-21)
(0.29013 -0.370632 -3.52106e-22)
(0.305741 -0.373454 3.23227e-22)
(0.320801 -0.37566 -3.47276e-22)
(0.335069 -0.377439 -4.83451e-22)
(0.348473 -0.378856 -1.34254e-22)
(0.360991 -0.379954 2.60315e-22)
(0.372581 -0.380792 6.23996e-22)
(0.383239 -0.381415 -9.27721e-22)
(0.392974 -0.381863 1.18929e-21)
(0.401813 -0.382161 -8.01494e-22)
(0.409797 -0.382317 -2.75064e-22)
(0.417035 -0.382399 -1.93196e-22)
(0.355323 0.263237 -1.44405e-23)
(0.349077 0.260666 5.35847e-24)
(0.342373 0.257942 -3.86375e-23)
(0.335089 0.254979 8.20262e-23)
(0.327169 0.251788 -1.45762e-23)
(0.318554 0.248368 -1.7226e-22)
(0.30924 0.244622 3.03843e-23)
(0.299254 0.240417 2.60162e-23)
(0.288589 0.235699 8.33791e-23)
(0.27724 0.230376 -4.56347e-23)
(0.265224 0.224357 1.51401e-23)
(0.252586 0.217537 -7.42329e-23)
(0.239393 0.209814 8.42332e-23)
(0.225736 0.201088 -2.75546e-23)
(0.211734 0.191267 3.02186e-23)
(0.197518 0.180278 3.9471e-23)
(0.183229 0.16807 -5.75725e-24)
(0.169015 0.154614 9.09378e-23)
(0.155014 0.139909 8.97653e-23)
(0.14135 0.123974 3.08995e-23)
(0.128134 0.106829 6.86464e-24)
(0.115489 0.0884539 -2.30365e-22)
(0.103722 0.0687335 2.01775e-22)
(0.0934141 0.0472608 -8.58548e-23)
(0.0852606 0.0239489 3.15276e-22)
(0.0796417 -0.000871909 -1.28659e-22)
(0.0767442 -0.0265874 -1.312e-23)
(0.0767515 -0.0524703 5.98409e-23)
(0.0796636 -0.0778785 1.52254e-23)
(0.0844718 -0.102723 -3.24323e-24)
(0.0906477 -0.127174 -5.06791e-23)
(0.0982138 -0.151218 1.41698e-23)
(0.107239 -0.174665 -1.99696e-23)
(0.117613 -0.197318 -3.08694e-23)
(0.129196 -0.218987 -5.9361e-23)
(0.141852 -0.239508 4.51812e-23)
(0.155423 -0.258745 5.58143e-23)
(0.169746 -0.276602 -1.4429e-22)
(0.184665 -0.293011 2.79527e-24)
(0.200039 -0.307932 -4.0904e-23)
(0.215745 -0.321345 4.08469e-24)
(0.23168 -0.333242 1.06538e-22)
(0.24775 -0.343628 -2.76376e-22)
(0.263862 -0.352518 -1.75031e-22)
(0.279916 -0.359944 3.08881e-22)
(0.295801 -0.365957 -2.62039e-22)
(0.311394 -0.370637 1.57568e-22)
(0.326541 -0.374087 -5.55148e-24)
(0.341072 -0.376448 -9.16007e-23)
(0.354838 -0.377898 2.26224e-23)
(0.367756 -0.378633 1.64736e-22)
(0.379722 -0.378856 -3.80763e-23)
(0.390796 -0.37867 6.09356e-23)
(0.40107 -0.378164 -2.53644e-22)
(0.410523 -0.377456 3.76437e-23)
(0.419213 -0.376627 1.01189e-22)
(0.427204 -0.375725 -8.32577e-23)
(0.434564 -0.374776 2.10264e-23)
(0.441408 -0.373858 -1.81092e-23)
(0.412535 0.249067 -3.17992e-22)
(0.406241 0.246577 6.37609e-23)
(0.399488 0.243858 -2.74653e-22)
(0.392256 0.240905 -6.54072e-23)
(0.384506 0.237676 9.50368e-22)
(0.376213 0.234119 -2.97001e-22)
(0.367357 0.230167 -5.79255e-22)
(0.35792 0.225773 -3.48823e-24)
(0.347878 0.220886 3.48406e-22)
(0.337223 0.215443 -8.87708e-23)
(0.325962 0.209372 9.46255e-22)
(0.314116 0.202591 -1.12444e-21)
(0.301731 0.195013 1.01698e-21)
(0.288873 0.186548 -1.39438e-22)
(0.275629 0.17711 -9.00287e-22)
(0.262105 0.166616 2.75017e-22)
(0.248426 0.154992 1.06855e-21)
(0.234727 0.142177 -4.26788e-22)
(0.221155 0.128118 -1.03273e-22)
(0.207868 0.112765 2.03818e-23)
(0.195043 0.0960657 -2.87518e-22)
(0.182895 0.0779497 6.9649e-23)
(0.171722 0.0583421 -7.24163e-22)
(0.161921 0.0372122 8.71155e-22)
(0.154012 0.0146568 -3.3609e-22)
(0.148502 -0.00907389 5.35068e-24)
(0.145674 -0.0336241 4.72582e-23)
(0.145589 -0.0585736 -2.13285e-22)
(0.148 -0.083439 1.3408e-22)
(0.152433 -0.107893 7.10796e-23)
(0.158524 -0.131833 1.62459e-22)
(0.166079 -0.155184 -1.67314e-22)
(0.174976 -0.177822 7.43601e-23)
(0.185098 -0.199609 1.03146e-22)
(0.19632 -0.220417 -3.44852e-22)
(0.208514 -0.240134 9.62375e-22)
(0.221545 -0.258658 -6.2679e-22)
(0.23528 -0.275911 -1.39855e-22)
(0.249589 -0.291835 -1.53584e-22)
(0.264353 -0.306389 -5.02531e-23)
(0.279459 -0.319547 -2.43145e-22)
(0.294798 -0.331297 -4.11003e-22)
(0.310264 -0.341642 1.00053e-21)
(0.325741 -0.350601 4.6209e-22)
(0.341111 -0.358212 -9.51738e-22)
(0.356241 -0.364535 -3.03055e-22)
(0.370999 -0.369653 9.76822e-22)
(0.385256 -0.373675 -1.12569e-21)
(0.39889 -0.376731 7.86962e-22)
(0.411814 -0.378971 -3.13666e-23)
(0.423918 -0.380553 3.10192e-22)
(0.435248 -0.381559 5.47757e-23)
(0.445841 -0.382069 -5.1203e-22)
(0.45569 -0.382213 -2.51962e-22)
(0.464836 -0.382072 7.98428e-22)
(0.473325 -0.38171 -1.86305e-23)
(0.481205 -0.381174 -2.26896e-22)
(0.488528 -0.380517 6.96538e-23)
(0.495339 -0.379768 -2.59099e-22)
(0.451778 0.241115 -6.09457e-23)
(0.445496 0.239094 3.16975e-22)
(0.438789 0.23686 -1.51521e-22)
(0.43159 0.234344 1.14475e-22)
(0.423879 0.231518 -1.25361e-22)
(0.415634 0.228346 -2.92876e-24)
(0.406834 0.224783 -8.18789e-23)
(0.397468 0.22078 -2.0944e-22)
(0.387526 0.216279 1.39084e-22)
(0.377006 0.211214 1.83977e-22)
(0.365919 0.20551 1.35377e-22)
(0.354289 0.199082 -5.41649e-22)
(0.342153 0.191842 4.92516e-22)
(0.329571 0.183694 -1.14869e-22)
(0.316621 0.174544 6.44375e-23)
(0.303402 0.1643 -3.04599e-22)
(0.290034 0.152873 3.02685e-22)
(0.276658 0.140185 -1.30731e-22)
(0.26344 0.126164 -2.04149e-22)
(0.250563 0.110749 1.02691e-22)
(0.238241 0.0938883 -5.28787e-23)
(0.226718 0.0755429 -3.53073e-22)
(0.216285 0.0557006 2.20826e-22)
(0.207271 0.0343989 2.39798e-22)
(0.200017 0.0117647 -1.92961e-22)
(0.194818 -0.0119654 2.24706e-23)
(0.191873 -0.0364652 2.20382e-22)
(0.191258 -0.0613623 -2.58012e-22)
(0.19291 -0.0862871 8.52618e-23)
(0.196628 -0.110946 -2.30735e-23)
(0.202189 -0.135143 1.08167e-22)
(0.209404 -0.158732 -2.5347e-22)
(0.218106 -0.181577 1.91344e-22)
(0.228134 -0.203552 -6.19095e-24)
(0.239332 -0.224542 -2.39662e-22)
(0.251547 -0.244442 8.96058e-23)
(0.264627 -0.263161 2.64537e-22)
(0.278423 -0.280619 -1.14828e-22)
(0.292794 -0.296755 -1.068e-22)
(0.307603 -0.311521 1.91913e-22)
(0.322718 -0.324886 -5.24894e-23)
(0.338009 -0.336832 -6.85793e-23)
(0.353348 -0.347359 4.14572e-22)
(0.368605 -0.356487 -3.82477e-22)
(0.383654 -0.364254 1.63611e-22)
(0.398374 -0.370723 -2.19176e-23)
(0.412648 -0.375979 4.9861e-22)
(0.42638 -0.380126 -4.55918e-22)
(0.439491 -0.383281 1.93888e-22)
(0.451919 -0.38557 1.58978e-22)
(0.463538 -0.387217 1.72731e-22)
(0.47434 -0.388325 -2.20808e-22)
(0.484476 -0.388886 -4.81254e-23)
(0.494012 -0.388968 -6.94457e-23)
(0.502926 -0.388689 -1.11655e-22)
(0.51121 -0.388144 7.91418e-23)
(0.518911 -0.387391 -1.50387e-22)
(0.526073 -0.386472 3.06576e-22)
(0.532765 -0.38545 -8.57361e-23)
(0.502273 0.236668 -4.94242e-22)
(0.496082 0.234457 5.1397e-23)
(0.489392 0.232033 4.81501e-22)
(0.48218 0.229361 -3.4553e-22)
(0.474424 0.226399 9.0364e-23)
(0.46611 0.223106 3.03832e-22)
(0.457229 0.219435 -3.83844e-22)
(0.447774 0.215335 1.44915e-22)
(0.437746 0.210746 4.63875e-22)
(0.427154 0.205602 -1.57505e-22)
(0.416017 0.199831 -4.76467e-22)
(0.404364 0.193352 -1.59045e-22)
(0.392237 0.18608 4.09499e-22)