/*--------------------------------*- C++ -*----------------------------------*\
  =========                 |
  \\      /  F ield         | OpenFOAM: The Open Source CFD Toolbox
   \\    /   O peration     | Website:  https://openfoam.org
    \\  /    A nd           | Version:  10
     \\/     M anipulation  |
\*---------------------------------------------------------------------------*/
FoamFile
{
    format      ascii;
    class       volScalarField;
    location    "200";
    object      epsilon;
}
// * * * * * * * * * * * * * * * * * * * * * * * * * * * * * * * * * * * * * //

dimensions      [0 2 -3 0 0 0 0];

internalField   nonuniform List<scalar> 
23845
(
0.0103569
0.0197149
0.0567178
0.0176991
0.029333
0.00243591
0.0264626
0.0105182
0.00327432
0.00909341
0.00507049
0.00258261
0.00187584
0.0030113
0.0552876
0.00601018
0.00146083
0.00156541
0.00278273
0.00112942
0.0129194
0.00500665
0.0138169
0.00328049
0.00708732
0.00422327
0.0206566
0.00155728
0.00895536
0.00142833
0.0205406
0.0215762
0.0935075
0.00160708
0.00252689
0.00142063
0.0163254
0.00251169
0.00266567
0.00366195
0.00345304
0.00112987
0.00233066
0.000974436
0.00389571
0.00146576
0.0290221
0.00475886
0.0218672
0.00876738
0.0145379
0.0452892
0.0262877
0.00234522
0.0203333
0.00173459
0.0338753
0.0117953
0.0133892
0.041476
0.0099038
0.00105815
0.00505453
0.0130334
0.00343171
0.00165307
0.0239517
0.00411768
0.00391518
0.0029401
0.00975732
0.0530168
0.00391107
0.0445496
0.00362176
0.0552636
0.00262948
0.00257342
0.0129404
0.00221521
0.0170754
0.029275
0.0264616
0.0121035
0.0689758
0.00255008
0.0319456
0.0276509
0.00344606
0.00249282
0.0135646
0.00433483
0.0103281
0.00143943
0.0121088
0.011788
0.00158042
0.00498921
0.00358181
0.0276371
0.00186857
0.0256521
0.0125226
0.0116737
0.0128213
0.0129167
0.00247973
0.00372952
0.023749
0.000948998
0.00420012
0.00251013
0.0741798
0.00625547
0.00131494
0.0097168
0.00348132
0.00725213
0.00906705
0.0144818
0.00259317
0.0162117
0.00341312
0.0306887
0.027736
0.00419489
0.00977371
0.00881113
0.0574141
0.0328644
0.0758676
0.0103464
0.00776499
0.0028698
0.00210384
0.0104686
0.00979704
0.00263354
0.0194802
0.0026389
0.00972089
0.00104701
0.00268572
0.00106744
0.00390884
0.000871656
0.00783778
0.0625047
0.0261117
0.00322823
0.0913974
0.00274533
0.0236383
0.00205178
0.070912
0.00370693
0.0169247
0.00204544
0.0906212
0.0103844
0.00378923
0.0451195
0.012323
0.00338323
0.00318656
0.0029508
0.00278152
0.0139103
0.00134096
0.000939015
0.0032214
0.0196422
0.00328718
0.0240154
0.00390825
0.0121174
0.00481959
0.00480353
0.00369284
0.00221024
0.024408
0.025208
0.0420842
0.00383923
0.00448558
0.00209667
0.00102598
0.0117357
0.00869454
0.00118319
0.0118262
0.00290308
0.00349762
0.00314869
0.00437544
0.0029901
0.0113892
0.00944566
0.0205463
0.004213
0.00276708
0.00266123
0.0221414
0.0104869
0.0111272
0.0120224
0.0594559
0.00265247
0.0133603
0.00182484
0.00201584
0.0121597
0.00462447
0.00152306
0.0183215
0.0194327
0.0108715
0.00114091
0.0124193
0.0717845
0.00302999
0.0492543
0.0114212
0.0038217
0.000900777
0.0762988
0.0100848
0.00283535
0.00287001
0.00398384
0.00202359
0.019752
0.00243451
0.00436924
0.0261462
0.00921145
0.00345293
0.0181327
0.003723
0.0219634
0.0247473
0.00694766
0.0122363
0.0235087
0.0146883
0.0052353
0.0025961
0.0040129
0.0120537
0.0445434
0.00144703
0.00226849
0.0138334
0.00244154
0.0332343
0.0124909
0.0194238
0.0121322
0.00112628
0.00314009
0.0311456
0.00188733
0.00972443
0.00386085
0.00366237
0.00381847
0.0123702
0.0387417
0.0287974
0.016593
0.0024865
0.0170757
0.0158457
0.00337781
0.00420042
0.00352093
0.0121909
0.00272784
0.0212177
0.0154253
0.0139871
0.00283241
0.013451
0.00338724
0.00235024
0.0145527
0.025049
0.0026696
0.0116292
0.0573072
0.0120748
0.0175761
0.0122187
0.0116724
0.0118625
0.0024354
0.0213061
0.00257864
0.00245765
0.00976774
0.0951984
0.0675762
0.0092911
0.0164621
0.00319436
0.0178889
0.0146628
0.0153811
0.00186813
0.00980515
0.016261
0.0256989
0.0021876
0.00319225
0.0409072
0.00925289
0.01692
0.00928654
0.0120412
0.00285875
0.0152477
0.0129934
0.0382126
0.00133674
0.0489445
0.00295916
0.013849
0.0343727
0.0181242
0.00181416
0.0451371
0.00297176
0.0136575
0.001885
0.0188728
0.0198402
0.0278735
0.00158217
0.000837761
0.0128074
0.0228451
0.0314968
0.00458531
0.00450301
0.00401528
0.0238424
0.00203232
0.0120517
0.0134126
0.0835598
0.0265106
0.0682681
0.00852927
0.0132763
0.0262247
0.00349503
0.000848979
0.00379611
0.0625602
0.0118696
0.0420998
0.00393108
0.00738658
0.00312022
0.00871764
0.00277349
0.0264738
0.00137738
0.00936104
0.00418777
0.00101533
0.0133513
0.0309916
0.00268936
0.00191335
0.0127302
0.0393859
0.0225948
0.000969233
0.0176062
0.0359893
0.00175315
0.0128081
0.00402242
0.00444886
0.00253512
0.00217267
0.0125476
0.00249749
0.0119993
0.0208672
0.000815449
0.0187511
0.0160413
0.0168176
0.0100702
0.0036437
0.00381162
0.00297098
0.00173754
0.0334273
0.0241246
0.01183
0.027511
0.0409488
0.0460938
0.00269805
0.0240293
0.0107524
0.013352
0.060135
0.00428353
0.0338186
0.0287271
0.0196446
0.0438595
0.0308162
0.0037929
0.00283218
0.010389
0.0990518
0.000674622
0.00318959
0.0131114
0.0106882
0.0155622
0.0935573
0.0235314
0.031756
0.0396399
0.00286625
0.00153122
0.0293182
0.00158142
0.0012427
0.0035168
0.00264731
0.00204211
0.00953653
0.0291647
0.062439
0.0732134
0.0120082
0.0559106
0.023734
0.0191469
0.00110651
0.0266531
0.00272453
0.0194388
0.0125788
0.00258383
0.0632501
0.00200573
0.00419027
0.0262364
0.0410992
0.0115456
0.011328
0.00237323
0.0147017
0.015384
0.00971866
0.0368955
0.00243474
0.00255227
0.00300257
0.0189855
0.00453289
0.0907942
0.00172499
0.00267944
0.0215626
0.0110616
0.0169762
0.0209272
0.00286812
0.0151935
0.00186524
0.0029412
0.0286031
0.0274401
0.0196132
0.00544081
0.00262541
0.0495734
0.00241247
0.00265844
0.0527278
0.028144
0.00412597
0.0899832
0.0112907
0.0275297
0.0111697
0.0280555
0.00340674
0.0445963
0.00354701
0.00213599
0.0271353
0.0101694
0.0385472
0.027796
0.0122604
0.0129471
0.0035513
0.00248273
0.00132947
0.0322644
0.0189389
0.0454832
0.0169594
0.0201827
0.00333501
0.00454198
0.0259042
0.0991932
0.084685
0.000842944
0.0232863
0.00220095
0.0017087
0.0222736
0.00451844
0.0247629
0.0345203
0.0148707
0.012541
0.00970762
0.00938713
0.110266
0.0160089
0.0163888
0.00245831
0.00252309
0.00215413
0.0208726
0.0244086
0.0136682
0.0650367
0.0023972
0.014357
0.0128453
0.0035979
0.0118501
0.0058737
0.0021985
0.00159207
0.00211373
0.00216935
0.00243888
0.027092
0.00183904
0.011095
0.0243376
0.00089903
0.0467694
0.0019129
0.00199832
0.0121531
0.0135247
0.0358152
0.000968623
0.00077058
0.020383
0.0133349
0.00413833
0.00924518
0.00241687
0.00391733
0.0241221
0.00215774
0.00300651
0.00560463
0.0223458
0.0216799
0.0892683
0.0121551
0.0249955
0.00379974
0.00258082
0.00368238
0.0601026
0.0256002
0.000777169
0.0038273
0.00317606
0.0127387
0.00323359
0.0153046
0.0902409
0.0124094
0.00352313
0.0108239
0.000833909
0.00398725
0.00224831
0.00149107
0.00279666
0.0487543
0.00175804
0.0203402
0.05301
0.0235754
0.007735
0.0125872
0.0228487
0.0278536
0.00354912
0.0292756
0.0174312
0.0268954
0.0223367
0.0325346
0.0139733
0.0137475
0.0203056
0.00132828
0.0019528
0.0211915
0.00977722
0.0258693
0.00320965
0.0271305
0.00262846
0.00339288
0.00111802
0.00317007
0.00544045
0.00189977
0.00179465
0.0298011
0.00178113
0.00262766
0.068402
0.0154694
0.0058853
0.00376549
0.00360727
0.0318352
0.0023307
0.00120146
0.00242808
0.00950292
0.00749845
0.0112086
0.00248496
0.00723816
0.0692282
0.00114704
0.00224999
0.0140758
0.0138892
0.0111761
0.108906
0.0463116
0.00668805
0.0174352
0.00507662
0.00242603
0.00271858
0.00189034
0.0239519
0.00182278
0.00375245
0.00317274
0.0215024
0.0225801
0.00573078
0.00522467
0.00309255
0.00387308
0.00362907
0.0028686
0.00974705
0.00245891
0.0124559
0.00359118
0.00197493
0.00458468
0.00195463
0.000934139
0.00171137
0.0018879
0.00868362
0.00162237
0.00143236
0.00813605
0.00679401
0.00119321
0.00124761
0.00333446
0.00413591
0.00509453
0.00685451
0.00873366
0.00266228
0.0111201
0.00230106
0.00421703
0.00182155
0.00336626
0.00162755
0.00147496
0.00162941
0.00133636
0.00105485
0.00113529
0.00261929
0.00130128
0.0249226
0.00317573
0.00133869
0.00139507
0.00100486
0.00233596
0.00330547
0.00093289
0.00426253
0.00528939
0.00228026
0.000871484
0.00123817
0.000995621
0.00448814
0.00362103
0.0144684
0.00262685
0.00352062
0.000772072
0.00142
0.00104547
0.00113181
0.00814125
0.00146961
0.0182849
0.000880199
0.00247213
0.00117791
0.00377202
0.000715772
0.00260035
0.0104316
0.00316295
0.00078097
0.0127655
0.000690538
0.000994065
0.00103383
0.0456343
0.000936208
0.00400896
0.00804962
0.00135237
0.0254646
0.00452673
0.00391291
0.00769815
0.00606194
0.0104463
0.000912189
0.00249135
0.00339183
0.00505789
0.00213417
0.0036192
0.00151436
0.0230596
0.00129428
0.000637815
0.00816545
0.00647965
0.00843541
0.0237101
0.00319937
0.00109953
0.0200008
0.00430653
0.00162536
0.00108056
0.00157681
0.0151314
0.00349713
0.00314628
0.000662478
0.0018658
0.000998332
0.000689676
0.000646082
0.000978891
0.00143345
0.00157147
0.00102786
0.000746598
0.00131916
0.0363828
0.00211467
0.0011202
0.00134346
0.00111046
0.00149339
0.0112401
0.00329717
0.00464829
0.00249178
0.00097422
0.00112846
0.00118089
0.00107816
0.0139681
0.00451127
0.00681239
0.00235841
0.00062197
0.0022649
0.0110304
0.00344427
0.00391789
0.00471483
0.00328806
0.00312371
0.00450361
0.00316886
0.00325184
0.00415996
0.00337419
0.00367586
0.00317543
0.0034462
0.00379933
0.00438349
0.00333998
0.00342647
0.00319211
0.00317164
0.0050605
0.000843845
0.00103866
0.0489014
0.00948498
0.00381902
0.00384048
0.000767636
0.00510352
0.00475393
0.00496662
0.00384184
0.00177736
0.00369036
0.00384532
0.00468798
0.00545427
0.00171797
0.00125216
0.000977366
0.00197199
0.00327512
0.00271661
0.0411838
0.00235589
0.00540585
0.00116876
0.0120529
0.000600914
0.00165004
0.00428089
0.00366088
0.00690729
0.00568218
0.00379618
0.0077904
0.00313885
0.00331963
0.00321211
0.0031959
0.00346171
0.00355
0.00219185
0.00083426
0.000645949
0.0042211
0.00087646
0.00378398
0.0047891
0.00576235
0.00386157
0.007315
0.00373059
0.0032971
0.00439354
0.00359682
0.00593364
0.00334821
0.00350084
0.00833076
0.00314391
0.00318076
0.00379168
0.00147791
0.00164883
0.0240831
0.00236919
0.00117774
0.00205509
0.00133219
0.00148192
0.000619075
0.00333888
0.0412355
0.00213619
0.00211473
0.00334851
0.00393008
0.0202329
0.00493033
0.000703465
0.00378463
0.00136575
0.00108923
0.0560784
0.0193334
0.000990373
0.000836882
0.00182994
0.0321295
0.00114921
0.0650288
0.000767918
0.00357087
0.00276302
0.00328803
0.00109745
0.000760741
0.00173197
0.0197722
0.00061951
0.0104243
0.00392238
0.00910711
0.000728942
0.00349111
0.00244794
0.00313543
0.00359071
0.00225393
0.00400994
0.00170034
0.00458874
0.00566659
0.00732429
0.0014686
0.00357356
0.00491859
0.00275628
0.00648062
0.00460538
0.00406747
0.00632621
0.000661151
0.00126595
0.00183531
0.00104856
0.000879646
0.000932188
0.00326738
0.00103136
0.000618682
0.00327424
0.00332627
0.00309567
0.00126501
0.0166307
0.00058998
0.00157125
0.000927702
0.000811275
0.00208774
0.00307385
0.00458772
0.0188201
0.0175864
0.00183433
0.000732846
0.00636685
0.00882026
0.000595354
0.00639287
0.00245543
0.00215664
0.00322063
0.00608774
0.00261552
0.00470369
0.00748999
0.00472845
0.00635706
0.00746606
0.00693532
0.00190199
0.00160667
0.00146811
0.000791801
0.00321393
0.00413227
0.00146337
0.0252051
0.00168212
0.0977901
0.00171772
0.00135344
0.00908387
0.000589032
0.00404187
0.00257244
0.00342358
0.000909371
0.000671202
0.00101965
0.00114917
0.00984332
0.0103491
0.000627043
0.00228652
0.00256342
0.0281476
0.0281948
0.014263
0.00542111
0.000602381
0.00112499
0.000868961
0.00155632
0.00377708
0.00196325
0.0250742
0.0165259
0.00563339
0.00786494
0.00654539
0.00879208
0.00997791
0.00861579
0.000735582
0.013843
0.00421144
0.00495495
0.00725395
0.00357871
0.0054363
0.00168351
0.00444068
0.000916977
0.00355598
0.00233677
0.00103976
0.00194085
0.00163883
0.00140766
0.000803315
0.000818242
0.00262461
0.0133557
0.0117836
0.000585892
0.00860986
0.000589223
0.00258051
0.00119748
0.00275356
0.00280325
0.00118452
0.00105734
0.000982886
0.00222051
0.00150453
0.0202176
0.00251162
0.00064355
0.00751044
0.00117303
0.00372549
0.00286021
0.00995067
0.00266648
0.0101622
0.052154
0.00138421
0.00339963
0.00397097
0.00609878
0.00176686
0.000623635
0.00494472
0.00342625
0.00405629
0.00329075
0.00250062
0.00215054
0.0345261
0.00181699
0.0051262
0.000639533
0.00132565
0.00830651
0.00238012
0.00177362
0.0625843
0.00111708
0.00455384
0.00252639
0.000971729
0.00091428
0.000730219
0.000672788
0.00155902
0.0130909
0.00088452
0.000790396
0.0165383
0.000599516
0.000575647
0.000736598
0.0406532
0.00168494
0.00100819
0.0158313
0.00276684
0.00358139
0.000663907
0.00174485
0.00271852
0.023098
0.00270045
0.000665559
0.0031628
0.00565064
0.0160227
0.00454926
0.00326741
0.00130504
0.00135536
0.000929187
0.00105778
0.000812153
0.0124111
0.00141982
0.00169041
0.000592226
0.00196126
0.00152316
0.03517
0.0131016
0.00094382
0.000967059
0.00160046
0.0261024
0.00164805
0.00336669
0.00546922
0.000669127
0.0144138
0.000743308
0.00257571
0.000626063
0.00255409
0.000988214
0.00260208
0.00436386
0.000893891
0.00593025
0.00157373
0.00240773
0.00340693
0.00102782
0.00276459
0.0030713
0.00250218
0.00408963
0.00187663
0.000653877
0.0021512
0.00266555
0.00315519
0.00117325
0.00255158
0.00379329
0.00586427
0.00428988
0.00335873
0.00682889
0.00378976
0.00339173
0.00830413
0.00394425
0.00321143
0.010679
0.00314042
0.00322025
0.00934437
0.0133067
0.0311295
0.00283755
0.00164239
0.00751131
0.00263925
0.00136442
0.0191878
0.0056769
0.00946647
0.00167229
0.00748483
0.000922051
0.00114328
0.00519425
0.00523119
0.00106487
0.00434195
0.00939868
0.0388394
0.00119332
0.000809584
0.000641473
0.00236584
0.000676068
0.000924954
0.000680258
0.0640565
0.00182263
0.000828893
0.0109534
0.00216971
0.00682082
0.00057576
0.0131463
0.00151444
0.00202755
0.0342185
0.00201091
0.00194733
0.000766558
0.00165931
0.0670924
0.00072233
0.0126538
0.00314839
0.00692734
0.020009
0.0142769
0.0121831
0.00129756
0.00160771
0.0305131
0.00128175
0.00125778
0.00108333
0.012269
0.0015499
0.00188756
0.00190162
0.0158974
0.00270206
0.00199397
0.0011675
0.000827486
0.0198675
0.00223806
0.00255472
0.0117391
0.00265051
0.0117279
0.00133363
0.0105288
0.000866971
0.0125016
0.00171165
0.0016062
0.000832931
0.00237019
0.003053
0.00160199
0.00410762
0.0055478
0.00253993
0.00166688
0.00104721
0.00523314
0.0049661
0.00271411
0.00196678
0.00148475
0.0022192
0.0030919
0.00291751
0.00122414
0.00307023
0.00298866
0.00916676
0.00188817
0.0305204
0.00340057
0.00308645
0.00070029
0.00180731
0.0689141
0.00969648
0.00598894
0.00276581
0.00705968
0.00144864
0.00158128
0.0107232
0.00158194
0.042445
0.00948461
0.0170541
0.0027682
0.00273625
0.0972893
0.00265453
0.00256297
0.00234008
0.00828721
0.0321237
0.00115732
0.000920725
0.0820856
0.0418795
0.00147743
0.0138987
0.0150066
0.00155329
0.0436878
0.000734102
0.0120273
0.00133007
0.00621476
0.00395279
0.00696902
0.0179332
0.00257591
0.0433931
0.011741
0.00363099
0.0128484
0.00162976
0.00600896
0.00861128
0.0123519
0.00205364
0.00606547
0.0150002
0.00134273
0.0125772
0.00138965
0.0007344
0.00222773
0.00278871
0.00816156
0.000743865
0.00273522
0.0228916
0.00229569
0.000801345
0.00126868
0.00212666
0.00298579
0.00227915
0.00918445
0.0208965
0.0104793
0.000693557
0.00244017
0.00115258
0.00203088
0.00270404
0.00108324
0.00998767
0.00327275
0.00900946
0.0140192
0.00164939
0.00204213
0.00296424
0.00551131
0.0101069
0.0252627
0.00437945
0.0012586
0.0030563
0.00269802
0.000996705
0.00111568
0.0039974
0.00125565
0.000893168
0.00817381
0.104393
0.00184672
0.00189468
0.00214761
0.0190061
0.00106894
0.00286385
0.00141382
0.002099
0.00099724
0.00228449
0.00682384
0.00637969
0.00303806
0.00122633
0.00305896
0.0428427
0.0111326
0.000719958
0.00222254
0.00587848
0.00295951
0.00222127
0.000647249
0.0014162
0.00308366
0.00266668
0.010357
0.00293451
0.013925
0.000670326
0.000905641
0.0184359
0.00242197
0.0174727
0.00257034
0.00388969
0.00454158
0.00333852
0.00183455
0.00743996
0.00101361
0.00137265
0.00130169
0.00211566
0.012244
0.00286931
0.00236401
0.00304551
0.00634974
0.0113666
0.00441314
0.00232524
0.0335038
0.000815766
0.00161811
0.00712034
0.0310613
0.00957511
0.0618904
0.00266349
0.000757815
0.00545447
0.00227997
0.0367514
0.00814008
0.000989602
0.00387483
0.019548
0.0018016
0.0375001
0.00412136
0.00954838
0.00207272
0.011389
0.015082
0.00209426
0.00235327
0.0537737
0.00185944
0.00272133
0.00991418
0.00163154
0.00371145
0.0178898
0.00654114
0.0915442
0.00360207
0.00298206
0.00329852
0.0667247
0.00249646
0.00325949
0.00264059
0.0180087
0.00103964
0.0026225
0.00250899
0.0151384
0.00627897
0.00103185
0.00247232
0.00177197
0.00178632
0.00318691
0.0360482
0.00591379
0.00115834
0.000822492
0.0124194
0.00876096
0.00256959
0.00431519
0.00127554
0.00212806
0.0441049
0.00186542
0.00616544
0.00213985
0.0045125
0.0111973
0.0755863
0.0114468
0.0309519
0.0201372
0.00283667
0.0117247
0.000815796
0.00238962
0.00113565
0.0307922
0.000698028
0.0141641
0.0281182
0.000681219
0.000645097
0.0208994
0.0328701
0.00654332
0.0280092
0.0180774
0.0178346
0.000987245
0.0146576
0.0171761
0.00272139
0.026596
0.00290345
0.00236889
0.030925
0.00897852
0.00969493
0.0201091
0.0151894
0.00263635
0.00891728
0.00110656
0.0096306
0.00176163
0.0174878
0.0110251
0.00313741
0.0286496
0.00187809
0.00242102
0.00306369
0.0102077
0.0200778
0.0362348
0.0503653
0.000625007
0.0147358
0.00216925
0.00244129
0.00248806
0.00631988
0.011386
0.00305163
0.00206001
0.0227726
0.0146375
0.00403527
0.00249364
0.0119699
0.00131857
0.000733182
0.00167399
0.00453785
0.00161927
0.00325858
0.00158098
0.0508136
0.00072396
0.00129203
0.00111592
0.00467088
0.014292
0.0171296
0.00366851
0.0133458
0.00854989
0.00629253
0.00244438
0.0448298
0.00313922
0.0172891
0.0153717
0.0123205
0.00143526
0.000725528
0.0191651
0.0152203
0.00280296
0.000858235
0.0173585
0.0287882
0.029378
0.0039265
0.0194153
0.000851249
0.0109691
0.0013317
0.011021
0.0014364
0.000913461
0.0012116
0.00279203
0.00924363
0.0025558
0.0139173
0.012607
0.00280639
0.00378656
0.00968973
0.0205106
0.0261855
0.00199973
0.0139727
0.0113812
0.0159895
0.00397263
0.0206522
0.00960165
0.0148169
0.0307071
0.00306498
0.00216527
0.00631497
0.0711793
0.00384058
0.0180302
0.00386483
0.00242619
0.00241154
0.000704578
0.0142278
0.00149312
0.0026758
0.0334858
0.00546688
0.0221464
0.0157231
0.0942424
0.0563922
0.0218371
0.0191039
0.018017
0.015612
0.00300106
0.0225146
0.00389084
0.0267657
0.00259204
0.0788566
0.0106585
0.0012199
0.00236454
0.00312006
0.00134277
0.00121095
0.00224124
0.00284889
0.00188882
0.0130266
0.0227415
0.00185525
0.0151079
0.00912426
0.0220369
0.0193187
0.103124
0.0116268
0.0097043
0.0176072
0.00960093
0.00640432
0.00423324
0.0763383
0.0036654
0.01449
0.00747725
0.00348312
0.0276741
0.0107519
0.0033963
0.0131405
0.000734821
0.0209763
0.0109725
0.00517223
0.0418798
0.00111773
0.0111378
0.00328629
0.0012557
0.0347301
0.016258
0.00307869
0.00273595
0.00261617
0.00282697
0.000838719
0.0873287
0.00284778
0.00276992
0.0207139
0.0027204
0.0103074
0.00431843
0.00239272
0.00569233
0.0740367
0.0248018
0.0300483
0.0160088
0.0405758
0.00256182
0.0217783
0.00261693
0.00198903
0.015494
0.00305465
0.0625598
0.022263
0.0328721
0.0204162
0.00387264
0.0381006
0.00194388
0.00226198
0.00153886
0.00218778
0.0170376
0.00116989
0.00142965
0.00302069
0.0740223
0.00230404
0.0359187
0.0345392
0.00250453
0.00891732
0.0285737
0.0157265
0.0022489
0.114138
0.00262173
0.00271122
0.00192225
0.093208
0.00077139
0.00328515
0.00177757
0.0103055
0.00130104
0.0120897
0.00148066
0.00212494
0.00449003
0.0021036
0.033937
0.00155373
0.00273043
0.0293131
0.00368116
0.00201713
0.00185047
0.0267635
0.00540384
0.00346081
0.0253978
0.0376805
0.0263339
0.000814375
0.00214237
0.0304813
0.0167167
0.0317459
0.0175558
0.0476546
0.0420572
0.00336372
0.0328068
0.0195484
0.0025325
0.0135856
0.00297662
0.0101444
0.0323262
0.00919594
0.00581895
0.0219132
0.0182772
0.00333977
0.00268095
0.00226406
0.0128661
0.0123748
0.0154639
0.0190234
0.0181045
0.00264583
0.00242928
0.0289814
0.104852
0.0128527
0.00419696
0.0103235
0.00082929
0.0107507
0.031591
0.013973
0.0106763
0.00963212
0.0178723
0.00115831
0.0448333
0.0149484
0.06921
0.0387645
0.0103311
0.00426397
0.0116218
0.0459766
0.00315084
0.0143284
0.0323659
0.00239381
0.0120555
0.00337004
0.021905
0.0130368
0.0334856
0.0366789
0.0415634
0.00408495
0.0385239
0.0899469
0.00282788
0.0361706
0.00241479
0.00195532
0.0128824
0.00314454
0.000791006
0.0129098
0.00285813
0.00144231
0.00261263
0.00338961
0.0159548
0.00248511
0.0109338
0.01051
0.0372008
0.00230926
0.00437304
0.00262657
0.013101
0.00291229
0.0856477
0.029996
0.00625296
0.0394003
0.0179303
0.0131709
0.0116834
0.00216233
0.0396985
0.0634716
0.0419694
0.00129109
0.00235718
0.00282466
0.00502062
0.0189189
0.00133042
0.00279056
0.00132835
0.0165734
0.00321535
0.00505255
0.00344612
0.00267309
0.020344
0.00370538
0.00291895
0.00253838
0.0173398
0.00185557
0.0124483
0.00155676
0.00402024
0.0018119
0.00477348
0.00996891
0.0115846
0.0375149
0.0186025
0.00472961
0.00489823
0.0477306
0.00298625
0.00917688
0.00268825
0.00317481
0.0019932
0.0263906
0.0318887
0.00368148
0.0265749
0.0108164
0.0787274
0.0117093
0.0420127
0.00359521
0.0116463
0.0733006
0.00175056
0.00586312
0.0685552
0.0206218
0.0027576
0.0267551
0.00349006
0.0372377
0.0118823
0.0258007
0.0025429
0.00319914
0.0475355
0.000943125
0.00606579
0.00122151
0.0387513
0.00211321
0.0325359
0.00294297
0.0273029
0.00306936
0.00397493
0.00255079
0.00386461
0.0325103
0.0375038
0.00118077
0.00188035
0.00168893
0.00279731
0.00495008
0.00127466
0.0186309
0.00859213
0.0288698
0.0027688
0.00341172
0.0317933
0.0525874
0.0182195
0.0981105
0.0210976
0.0020432
0.0354478
0.0236394
0.00134568
0.0250349
0.00822778
0.00894545
0.00123234
0.0193228
0.00284025
0.0353829
0.00266492
0.0661468
0.0121618
0.00344199
0.0348359
0.00273912
0.0597929
0.0405343
0.00347959
0.00214279
0.038925
0.111499
0.00303316
0.0221906
0.0296291
0.00330958
0.0182003
0.00121361
0.0124624
0.00137907
0.00293164
0.00225297
0.0675019
0.0011587
0.0500798
0.005393
0.00299455
0.00288508
0.00268475
0.00274723
0.00162382
0.0186839
0.01148
0.00399679
0.0115281
0.00412846
0.000883675
0.000630786
0.00293853
0.0288541
0.018252
0.00279456
0.00321944
0.00582838
0.00163328
0.0749699
0.0125665
0.00279939
0.00162499
0.0114057
0.00311833
0.00171405
0.0474291
0.0340321
0.00293136
0.00270878
0.0107968
0.0598805
0.0929882
0.00268889
0.00412618
0.106296
0.00292722
0.00395245
0.00298072
0.0156668
0.0370276
0.0783765
0.00125698
0.0289726
0.0213031
0.0804508
0.0525478
0.00256936
0.0140045
0.00324352
0.0134028
0.00156915
0.00200283
0.00482512
0.00618111
0.00261048
0.00575889
0.00358467
0.00211344
0.00252182
0.0477727
0.00224979
0.026825
0.0197564
0.0125559
0.00221021
0.0861366
0.0110788
0.00932115
0.0105146
0.00276975
0.0128231
0.00355476
0.00684004
0.0165785
0.00387173
0.0246934
0.00208024
0.00246362
0.00218744
0.00234297
0.0114996
0.001359
0.00145959
0.0398136
0.0872019
0.00403277
0.0468024
0.0476291
0.0352048
0.0310398
0.0251907
0.0829304
0.00245295
0.0295877
0.00766099
0.00264897
0.00350473
0.00151695
0.00397926
0.00202915
0.0315918
0.00933149
0.065959
0.00304748
0.0118049
0.0028273
0.00261388
0.00265311
0.0246939
0.0241473
0.00412478
0.00147619
0.0401099
0.010034
0.0471422
0.0429564
0.0245392
0.0146286
0.00314706
0.00280866
0.00288593
0.00303418
0.0112897
0.00203625
0.00839759
0.0169922
0.0135202
0.0622624
0.00180101
0.00330038
0.0298605
0.0400151
0.0219259
0.00424606
0.00713433
0.0126383
0.0887872
0.0368598
0.0426088
0.0681586
0.0160019
0.00314354
0.00199734
0.00279916
0.055499
0.00289411
0.00311507
0.00184067
0.0142915
0.00689592
0.0277133
0.0103317
0.012466
0.00277446
0.017353
0.0347784
0.0204751
0.00308934
0.105305
0.018393
0.0394616
0.00372086
0.0291829
0.0236003
0.0139078
0.00265265
0.00653908
0.00315139
0.00220975
0.00238204
0.0108931
0.00510333
0.0173747
0.0390639
0.0691604
0.00214816
0.063604
0.002292
0.0111968
0.00436636
0.0134307
0.00182919
0.00238755
0.0661973
0.0097002
0.00277794
0.0671746
0.0119117
0.00533572
0.00320786
0.00284815
0.0116153
0.0291988
0.00368578
0.00328468
0.00295595
0.0127346
0.00235217
0.00219283
0.00531024
0.00353207
0.0442806
0.00266815
0.0193995
0.00359172
0.00985953
0.0827437
0.00893812
0.0333169
0.00919461
0.00236215
0.00370396
0.00321667
0.00289637
0.0275245
0.00196918
0.00140208
0.0266218
0.0111171
0.01204
0.0326544
0.0137126
0.00227012
0.00304732
0.000891422
0.0132068
0.019968
0.00389248
0.0546269
0.0019229
0.0523307
0.0304513
0.00931182
0.00143566
0.028345
0.00234307
0.00259947
0.00978151
0.106037
0.00149823
0.00327929
0.015388
0.0213082
0.00289823
0.00327663
0.0274156
0.0126067
0.00266732
0.00213756
0.00894786
0.00137495
0.0167937
0.00269129
0.114779
0.0571939
0.00289392
0.0690652
0.0107948
0.0105893
0.0418886
0.0239801
0.0149611
0.0211022
0.00559443
0.0018736
0.00189697
0.00263258
0.00173824
0.011481
0.00313163
0.0490306
0.0600551
0.00289448
0.00385037
0.00278893
0.0030296
0.00295907
0.0033513
0.00224194
0.00218909
0.00372262
0.00214067
0.00296903
0.00322028
0.00183358
0.00296829
0.00697122
0.0144861
0.0155676
0.0214633
0.0103026
0.0425692
0.00255673
0.00890317
0.00375815
0.00916643
0.00342758
0.00475572
0.0291921
0.0188357
0.00306055
0.00368828
0.00138554
0.0430144
0.0123292
0.0116534
0.00295451
0.00181822
0.00273173
0.014779
0.0109494
0.00547627
0.00352903
0.00146618
0.00212601
0.00229481
0.010438
0.00673306
0.00291086
0.00310619
0.00257438
0.00191875
0.0158234
0.0177865
0.0961003
0.00697125
0.00990419
0.0134855
0.0322158
0.0101659
0.024289
0.0492805
0.00893986
0.00198456
0.075228
0.0160571
0.0105461
0.00844433
0.0243051
0.00252102
0.0126953
0.00230627
0.0106778
0.0395705
0.0130989
0.00223324
0.00428104
0.0251017
0.0779221
0.00312897
0.0136528
0.0159615
0.001138
0.00275349
0.00311226
0.00409601
0.00283948
0.0015311
0.00215958
0.0683354
0.002017
0.021546
0.0264731
0.0110503
0.00294639
0.0302805
0.0329683
0.0170267
0.00330361
0.0154502
0.00201501
0.100454
0.0138613
0.0364381
0.00373453
0.00367374
0.00350442
0.0113652
0.0217451
0.00497839
0.00361406
0.0107973
0.0158676
0.00338315
0.00397074
0.00427459
0.0634019
0.00315121
0.00189598
0.0106636
0.0158061
0.000620779
0.0502043
0.035182
0.0821179
0.00457773
0.0235757
0.0375963
0.00318466
0.0057935
0.0803842
0.0151059
0.00132896
0.00928599
0.0221538
0.0150689
0.0185049
0.0113503
0.0390646
0.00284185
0.0454665
0.00450427
0.00252501
0.00253717
0.0101279
0.00204708
0.048481
0.0338098
0.0127633
0.0110864
0.00386045
0.0278517
0.00201586
0.00418263
0.019852
0.0343486
0.00318602
0.00268978
0.0217969
0.00379184
0.0613589
0.00394102
0.0668378
0.00197865
0.0373447
0.00364592
0.0536366
0.00409845
0.0081362
0.0459171
0.0264414
0.0232305
0.00400814
0.0562916
0.0115031
0.0330055
0.0266353
0.00577547
0.00831373
0.00800411
0.00332051
0.0335858
0.0184804
0.00417678
0.0224949
0.0947204
0.00357873
0.0112525
0.00232722
0.0242337
0.00165042
0.00254556
0.0030555
0.00815353
0.0526199
0.0348723
0.0044152
0.00912009
0.0030865
0.002107
0.00346921
0.0023317
0.00252864
0.00191872
0.00191167
0.00246129
0.00272793
0.0246506
0.0623655
0.00370935
0.00332665
0.0384019
0.055434
0.00752415
0.00320847
0.00269153
0.00907221
0.00704812
0.00124563
0.002722
0.0916087
0.00668654
0.00319885
0.00186245
0.00655498
0.0139238
0.043152
0.00963379
0.0178452
0.00877012
0.00182908
0.0206911
0.0728286
0.00174935
0.0124651
0.00353727
0.0029923
0.00249463
0.0093779
0.00230377
0.0360814
0.0183522
0.000817496
0.00749562
0.0983568
0.00266566
0.013416
0.00111097
0.0384233
0.0279405
0.00172281
0.0122916
0.0372446
0.00181205
0.00257543
0.0121897
0.00215688
0.0340129
0.0512621
0.0615793
0.00397536
0.00247008
0.000865974
0.00997113
0.00400589
0.00401435
0.00276611
0.00710443
0.00078376
0.00171843
0.00289786
0.00263898
0.043663
0.0109503
0.00555171
0.003096
0.0536385
0.00148082
0.00320315
0.00405985
0.027093
0.000731977
0.0019533
0.0115428
0.00235709
0.000769192
0.00174987
0.0184242
0.000701833
0.0139145
0.00941693
0.00158932
0.0478739
0.0051689
0.000603042
0.0638474
0.0123823
0.0773893
0.00269179
0.00798677
0.00364899
0.0188709
0.0691885
0.000701268
0.00811355
0.00167756
0.011643
0.00293856
0.0029262
0.00118727
0.00262129
0.00204994
0.00063559
0.0165169
0.00261939
0.00285983
0.00264137
0.00174713
0.0146463
0.0391219
0.0296701
0.00396764
0.001642
0.0725756
0.00168126
0.00300514
0.00194793
0.00169268
0.00189628
0.00546749
0.00232094
0.0018694
0.00895796
0.0107545
0.0091245
0.03416
0.020525
0.00273618
0.0527915
0.00961216
0.00797353
0.02373
0.0177348
0.0155752
0.0119046
0.00217772
0.01321
0.00313223
0.0124182
0.00348539
0.0318767
0.00152942
0.00211235
0.013132
0.0388952
0.0251293
0.00314684
0.0077324
0.00843781
0.00520784
0.00445679
0.00185157
0.00494182
0.0256587
0.00352747
0.104129
0.00640011
0.00120103
0.0108912
0.00386883
0.00291674
0.00491452
0.00283109
0.0393599
0.0124164
0.00346459
0.00126657
0.0399727
0.00345288
0.0247943
0.0287614
0.0120385
0.00300799
0.00336023
0.032499
0.0536981
0.00308339
0.00382279
0.00960553
0.00377337
0.00210677
0.00849333
0.00160067
0.0535037
0.00489891
0.023276
0.00186752
0.00710127
0.00358036
0.00317735
0.0026837
0.0121822
0.00394899
0.003755
0.0035893
0.0148755
0.0103122
0.00351348
0.00696126
0.0227953
0.0138972
0.00326536
0.0298756
0.0394521
0.038999
0.00125578
0.0133091
0.00245377
0.0478628
0.00383331
0.0123278
0.0334732
0.0469144
0.00289003
0.000639724
0.0147176
0.0311823
0.0420858
0.00220054
0.056657
0.00393796
0.00297877
0.0380748
0.0163546
0.00230264
0.0223703
0.00395221
0.00261434
0.0102082
0.0314571
0.0118309
0.00332385
0.00281882
0.0346341
0.00276394
0.00293377
0.0307859
0.0576555
0.0464869
0.014098
0.00343899
0.0026108
0.0159758
0.0175918
0.0174045
0.0149728
0.0301063
0.0241358
0.0028252
0.00280084
0.00289208
0.0032911
0.00269354
0.0267861
0.0147554
0.0024023
0.00161678
0.00228004
0.00392155
0.00535191
0.012297
0.0141453
0.00394732
0.00371486
0.00365934
0.00979156
0.0140319
0.0111712
0.00221236
0.0395801
0.000735848
0.00290707
0.0191683
0.000979225
0.0164484
0.0351922
0.00359548
0.0130677
0.00354941