/*--------------------------------*- C++ -*----------------------------------*\
  =========                 |
  \\      /  F ield         | OpenFOAM: The Open Source CFD Toolbox
   \\    /   O peration     | Website:  https://openfoam.org
    \\  /    A nd           | Version:  10
     \\/     M anipulation  |
\*---------------------------------------------------------------------------*/
FoamFile
{
    format      ascii;
    class       volScalarField;
    location    "200";
    object      k;
}
// * * * * * * * * * * * * * * * * * * * * * * * * * * * * * * * * * * * * * //

dimensions      [0 2 -2 0 0 0 0];

internalField   nonuniform List<scalar> 
23845
(
0.0404936
0.0488031
0.0569226
0.0425973
0.0640967
0.0412758
0.0490694
0.0285604
0.045187
0.0418997
0.0275659
0.0440282
0.0252379
0.044607
0.0582
0.0398267
0.0186658
0.0154504
0.0301223
0.0224608
0.0468325
0.026927
0.0503648
0.0445971
0.0371474
0.0496454
0.0511322
0.0287251
0.0163803
0.0261002
0.0488366
0.0161968
0.0615868
0.0165935
0.0433039
0.0294183
0.0126486
0.0433366
0.0447157
0.0471104
0.0340899
0.0155402
0.0290295
0.0126315
0.0466362
0.0211134
0.0640262
0.033565
0.0222303
0.0122569
0.0278329
0.0556807
0.0186192
0.0377474
0.0153033
0.0218725
0.0607658
0.0325658
0.0455372
0.0665467
0.0222064
0.0135537
0.0374454
0.0221368
0.0449784
0.023595
0.0533717
0.0482858
0.0465779
0.0300558
0.0252248
0.055799
0.045374
0.0560733
0.0456097
0.058395
0.0445412
0.0438159
0.0361438
0.0228984
0.0510622
0.0470589
0.0543529
0.0327179
0.062124
0.043247
0.0511494
0.0183979
0.0454115
0.0261003
0.0243329
0.0387256
0.0184514
0.0299153
0.0326762
0.0241207
0.020871
0.0336286
0.0457755
0.0637287
0.0223436
0.0536937
0.0414728
0.0097186
0.0186133
0.0345268
0.0410413
0.0461509
0.0557367
0.012938
0.0254198
0.0433954
0.0643994
0.0358193
0.0274945
0.0436254
0.0434916
0.0418217
0.0169158
0.0281179
0.0441421
0.0199479
0.033451
0.0433237
0.0539805
0.0491738
0.0230509
0.0123721
0.0551297
0.0653695
0.0564624
0.0396967
0.033398
0.0444865
0.022892
0.0396445
0.00810045
0.0445146
0.0507373
0.044364
0.0138818
0.0148694
0.0434238
0.0129521
0.0328828
0.0121608
0.0409431
0.0615005
0.0343819
0.029854
0.0672249
0.0348287
0.0448326
0.0286216
0.0601013
0.0278231
0.0470764
0.0383458
0.0593335
0.0216243
0.0342633
0.0509426
0.0323109
0.0451078
0.0353174
0.0263779
0.0446181
0.0192171
0.0249274
0.0134682
0.0453564
0.0434585
0.0441727
0.0402371
0.0481837
0.0342642
0.0404086
0.0301384
0.0460468
0.0401805
0.0584112
0.0606498
0.0551231
0.0240304
0.0341446
0.0256559
0.0137965
0.031502
0.0144603
0.0165566
0.0195217
0.0433071
0.0463851
0.044821
0.0366059
0.0429865
0.014521
0.0154314
0.0124391
0.0262814
0.0235491
0.0392033
0.0330491
0.0394574
0.0302404
0.0319108
0.0601767
0.0439476
0.043308
0.0170228
0.0202311
0.0172872
0.037096
0.0258021
0.0245327
0.0152536
0.039993
0.0142888
0.00729695
0.0576509
0.0363846
0.0567597
0.0139511
0.0303897
0.0119208
0.0595044
0.0080159
0.042565
0.0434732
0.0380211
0.0375522
0.0239896
0.0426123
0.0502644
0.0608301
0.0198677
0.0446416
0.0447745
0.0458931
0.0455005
0.0201999
0.0392413
0.0337994
0.0583185
0.0202991
0.0373906
0.0420934
0.0471483
0.0332643
0.050944
0.0209005
0.0401862
0.0267124
0.0304343
0.0489766
0.0229448
0.03238
0.0274582
0.0245714
0.0432746
0.0166706
0.0364869
0.0238876
0.0248775
0.0257853
0.047787
0.0352017
0.0456696
0.0576275
0.0422504
0.0430384
0.0401707
0.0278321
0.0457887
0.0247186
0.0464721
0.0274922
0.0416472
0.0199881
0.0537027
0.0353954
0.0430192
0.0298736
0.0294523
0.0415535
0.0266045
0.0427495
0.038019
0.0313234
0.055506
0.0341926
0.0252852
0.0225547
0.0262135
0.0328683
0.0425656
0.0296204
0.0411085
0.0423725
0.0184234
0.0592094
0.0573704
0.0197
0.0431974
0.0448471
0.04539
0.0224895
0.0278387
0.0226405
0.0128407
0.0274979
0.0462493
0.0263711
0.0452263
0.0581503
0.013218
0.0273335
0.0370034
0.0217573
0.0344418
0.0193777
0.018309
0.0387395
0.0231398
0.0521741
0.0445301
0.0383743
0.0657634
0.032576
0.0162363
0.0522944
0.0262866
0.0262764
0.0364319
0.0319024
0.0455896
0.0521469
0.0151873
0.0123167
0.0362101
0.0450178
0.0363407
0.0261269
0.0509448
0.0466895
0.0180362
0.0379061
0.0257907
0.0373281
0.0614589
0.0526538
0.055082
0.0116624
0.0283664
0.0184748
0.0463423
0.0125644
0.0456404
0.0611114
0.0332291
0.0485159
0.0480816
0.0400813
0.0287713
0.0152151
0.0441957
0.038872
0.0283569
0.017546
0.0494785
0.01411
0.0225759
0.0292909
0.0444158
0.0366426
0.024519
0.0555135
0.0470052
0.0142001
0.0387702
0.0485692
0.0347752
0.0485339
0.0470412
0.0507184
0.043615
0.038883
0.0354554
0.0205883
0.0335014
0.0482611
0.011577
0.0246507
0.02056
0.0266229
0.0189111
0.0242595
0.0463341
0.0299744
0.0346229
0.0553351
0.05551
0.0300995
0.0472141
0.0642161
0.0559585
0.0445858
0.0267513
0.0172861
0.0282337
0.0551086
0.0496802
0.053757
0.0383019
0.0513529
0.0550767
0.0605452
0.0233328
0.0439997
0.0461497
0.0587824
0.0120467
0.0448248
0.0369416
0.0258987
0.0461334
0.053965
0.0521893
0.0460562
0.0491974
0.0420812
0.0157725
0.0349463
0.0148093
0.0196947
0.042411
0.044254
0.0253753
0.0193075
0.0465483
0.0608666
0.0474132
0.0172246
0.0537028
0.0536193
0.0278274
0.0199605
0.0609489
0.043271
0.0413131
0.0357276
0.0333414
0.0415309
0.037402
0.0491845
0.0344345
0.0682077
0.041379
0.0279475
0.0371407
0.0442345
0.0409883
0.00804863
0.064438
0.0404504
0.0433301
0.0438581
0.0244551
0.0509916
0.0629582
0.0299109
0.0438298
0.0520693
0.0253728
0.0247085
0.053136
0.0363988
0.0216622
0.0312728
0.0292729
0.0648761
0.0608791
0.0478459
0.0281136
0.0202748
0.0572397
0.0423139
0.0438328
0.0598835
0.0383351
0.0491336
0.0617923
0.0237462
0.0628333
0.0295069
0.0647866
0.0412256
0.0545035
0.0455477
0.038605
0.0456682
0.0144471
0.0417381
0.0643346
0.0328303
0.0355139
0.0234588
0.0297585
0.0267734
0.0395008
0.0475421
0.0440378
0.0134151
0.049521
0.0456718
0.050812
0.0581522
0.0645925
0.063082
0.0129525
0.0135224
0.0338458
0.0161342
0.0289128
0.0503791
0.047029
0.0485942
0.0243019
0.047072
0.0179846
0.0204778
0.0614878
0.0477691
0.0552411
0.0273518
0.0298926
0.0353119
0.0319786
0.0609999
0.0371683
0.061661
0.0365109
0.0529307
0.0495739
0.0321949
0.0482746
0.0290944
0.0278785
0.0277128
0.0288391
0.0301282
0.0424449
0.0421787
0.0257449
0.0305288
0.0494472
0.0136108
0.0446913
0.0365871
0.0351869
0.0333806
0.037655
0.0593826
0.0176805
0.0116286
0.0229614
0.0196945
0.0485644
0.0179855
0.030007
0.0448103
0.0463837
0.0259935
0.0441229
0.0362293
0.0562489
0.0369453
0.0641194
0.0291489
0.061638
0.0430446
0.0440827
0.0322976
0.0611471
0.0311282
0.0116023
0.0441323
0.0382693
0.0301184
0.0395145
0.0522536
0.0672885
0.0419024
0.0226924
0.0252109
0.0120483
0.0462735
0.0348927
0.0150749
0.0448346
0.0556744
0.0284184
0.0557829
0.0581502
0.0436044
0.0365583
0.0287118
0.0590676
0.0482827
0.0276269
0.0648533
0.049108
0.0504862
0.0579657
0.0338473
0.0450179
0.045212
0.0534851
0.0239701
0.0309757
0.0564439
0.0230193
0.0621996
0.0256103
0.0591453
0.0190677
0.0342307
0.0126995
0.034665
0.0382589
0.0257309
0.0243754
0.0647864
0.032359
0.043896
0.0585842
0.0464282
0.0370943
0.0425166
0.0231975
0.060653
0.0195471
0.0244846
0.0296846
0.0397493
0.0345714
0.043142
0.03099
0.0356118
0.0597697
0.0254721
0.0403342
0.0458581
0.0365484
0.0225033
0.0631117
0.043188
0.0364295
0.0320899
0.0280099
0.0213264
0.0287811
0.0193314
0.0562642
0.0203295
0.0430003
0.034853
0.0561611
0.0536363
0.0304137
0.038032
0.0206694
0.0260018
0.0223535
0.0197848
0.0376263
0.0183391
0.0429284
0.0256592
0.0212059
0.0275817
0.0163339
0.0141183
0.015306
0.0207012
0.0369185
0.0212238
0.0139984
0.0348423
0.0347074
0.0129916
0.01761
0.0213334
0.0238584
0.0266185
0.0311782
0.0355098
0.0190008
0.0404006
0.017658
0.027296
0.0157555
0.0254088
0.014903
0.0160195
0.0180175
0.0135392
0.012294
0.0126604
0.030011
0.0176873
0.0555152
0.0415174
0.0188834
0.0182323
0.0120614
0.0397061
0.0229966
0.0117355
0.0244324
0.0272773
0.0177686
0.0114489
0.0171819
0.0222425
0.0315699
0.0296803
0.0462221
0.0339639
0.0222053
0.0109273
0.0147302
0.0219786
0.016631
0.0342064
0.0157353
0.0528563
0.0114821
0.0361311
0.0198395
0.0462573
0.0106238
0.0228064
0.0264183
0.0383701
0.0109532
0.04345
0.0106037
0.0170882
0.0201787
0.0524908
0.0145107
0.0471233
0.0357318
0.0180237
0.0380687
0.0284913
0.0271609
0.0331698
0.0292161
0.0389035
0.0136366
0.0183597
0.0223984
0.0271861
0.0170214
0.0305532
0.0143819
0.0530274
0.0133851
0.010586
0.0341875
0.0302111
0.0351555
0.0494371
0.0253348
0.0201691
0.0534206
0.0290974
0.0178785
0.0124538
0.0146888
0.0262793
0.0462555
0.0238756
0.0105314
0.0245339
0.012339
0.0106612
0.0105334
0.0120711
0.0197466
0.017786
0.0152935
0.0107918
0.0189317
0.0691837
0.0174388
0.0183612
0.0142293
0.0129224
0.0207465
0.0403205
0.025344
0.0281741
0.0232939
0.0141205
0.0198716
0.0167505
0.0163442
0.0428583
0.0297425
0.0310595
0.0239469
0.0104705
0.0177674
0.0199444
0.0251858
0.0378341
0.0402101
0.0377584
0.0352293
0.0368612
0.0344928
0.0353906
0.0458814
0.0343448
0.0414922
0.035385
0.0393433
0.0427619
0.0480036
0.0356595
0.0341828
0.035134
0.0351557
0.038041
0.0114542
0.0126758
0.055128
0.0369737
0.0437615
0.0476716
0.0119023
0.0305247
0.0256813
0.0288992
0.0229686
0.0185373
0.0370725
0.0376034
0.0404386
0.0412147
0.0152857
0.0223336
0.0139021
0.0259695
0.0311883
0.0447201
0.0501467
0.0417458
0.0346602
0.0155655
0.0418016
0.010603
0.0223009
0.0363477
0.0347671
0.0412785
0.0390072
0.0351967
0.0427803
0.0338624
0.034371
0.035875
0.0362695
0.0389593
0.0400159
0.0261703
0.0112814
0.0108552
0.0298251
0.0158359
0.0279879
0.0316656
0.0284237
0.0353528
0.0419895
0.0350126
0.0372218
0.0366593
0.040585
0.0394893
0.0343904
0.0394459
0.0436078
0.0336947
0.0355993
0.0229573
0.0242831
0.0165066
0.0566691
0.0182487
0.0170629
0.0168145
0.0212362
0.0144345
0.0105503
0.0240701
0.0363577
0.0391886
0.0170229
0.0216279
0.0234182
0.0552467
0.0263387
0.0110617
0.0324921
0.0139497
0.0131161
0.0532854
0.0212487
0.0120194
0.0112303
0.0283369
0.062982
0.0170813
0.0605702
0.010993
0.0404802
0.0304962
0.035471
0.0158118
0.0110978
0.0230155
0.0536938
0.0105569
0.0445739
0.0341516
0.0360844
0.0110047
0.0294919
0.0185688
0.0213252
0.0225877
0.0244708
0.0299208
0.0154761
0.0253931
0.0282312
0.0323374
0.0145372
0.0244125
0.0263635
0.0260316
0.0311468
0.0268273
0.0240047
0.0357397
0.0116343
0.0134687
0.0205847
0.0123988
0.0199453
0.0118138
0.0271631
0.0129798
0.0110747
0.0221321
0.0276833
0.0226707
0.0160937
0.0524741
0.0108081
0.0209207
0.0124917
0.0111047
0.0219882
0.0372929
0.0253067
0.0529795
0.0481079
0.0265668
0.0108027
0.0301565
0.0357155
0.0113434
0.0380704
0.0193143
0.0183924
0.022605
0.0375167
0.0281626
0.0262358
0.033049
0.0271368
0.0338957
0.0334405
0.0334643
0.0258518
0.0181488
0.0162502
0.0121222
0.027458
0.030887
0.0202102
0.0207315
0.0253295
0.0658626
0.024409
0.0221561
0.0127782
0.0115421
0.0476493
0.042742
0.038488
0.0140873
0.0108858
0.0163497
0.0166204
0.0379046
0.0224596
0.0108864
0.0183634
0.026482
0.0641995
0.0639998
0.0452352
0.0277028
0.0104986
0.0153374
0.0119772
0.0248066
0.0459842
0.0330145
0.0610726
0.0501758
0.0415162
0.0452079
0.0434018
0.0464732
0.0480098
0.0351587
0.0110314
0.0453038
0.0284521
0.0295443
0.0320605
0.0273464
0.0275467
0.017979
0.0247749
0.0117479
0.0220988
0.0178625
0.0123695
0.0163131
0.0149763
0.0140762
0.0111048
0.0131756
0.0194513
0.052016
0.0415363
0.0106154
0.0436941
0.0109175
0.0331239
0.0140079
0.0447789
0.0198893
0.0131558
0.0146749
0.0127543
0.0257655
0.0206736
0.0541781
0.0316509
0.0125725
0.0381911
0.0153731
0.0451368
0.0197387
0.0377649
0.024639
0.019815
0.0559767
0.019941
0.0271748
0.0286385
0.0293358
0.0173773
0.0115193
0.0262668
0.0276496
0.0237022
0.0212695
0.0185854
0.0173218
0.0297735
0.01586
0.0322233
0.0105349
0.0136305
0.0375642
0.0263557
0.0202055
0.0494716
0.0130678
0.0503306
0.0315485
0.0122705
0.0195997
0.0111384
0.0121265
0.0245802
0.0437323
0.0118613
0.01135
0.0538688
0.0122991
0.0108637
0.0140121
0.0658207
0.0224562
0.0163437
0.0488402
0.0331941
0.0457567
0.0113858
0.0234357
0.0303922
0.040595
0.032487
0.010688
0.0271645
0.0284892
0.048842
0.0254684
0.0215298
0.0206739
0.0144828
0.0129174
0.0136643
0.0145509
0.0428086
0.0158547
0.0279297
0.0122604
0.0166522
0.017658
0.0583248
0.0328648
0.0163956
0.0152117
0.0262193
0.0630187
0.0198397
0.0379061
0.0288912
0.0111083
0.0394889
0.0138457
0.043233
0.0136773
0.024669
0.0153325
0.0296629
0.0274919
0.0162868
0.0332618
0.0182922
0.0319653
0.0236087
0.0163235
0.0241839
0.0250349
0.0249718
0.0286168
0.0185967
0.0124539
0.0198921
0.0191171
0.0342136
0.0129794
0.0289761
0.0373714
0.0423039
0.0470673
0.0384854
0.0438457
0.0424753
0.0358428
0.0457955
0.0440347
0.0352764
0.0488892
0.035137
0.0370442
0.0472304
0.044377
0.0670237
0.0396347
0.024149
0.0398571
0.0441357
0.0293422
0.0514748
0.0347269
0.0382468
0.019788
0.0365279
0.0149396
0.0136387
0.0354453
0.0270741
0.0181169
0.0245124
0.0374244
0.0294262
0.0199301
0.0127519
0.0139304
0.0418824
0.0149297
0.0120894
0.0107263
0.0595044
0.0158961
0.0116247
0.0400924
0.0239997
0.0312286
0.0112467
0.0493767
0.0205393
0.0229375
0.068435
0.0255099
0.0171998
0.0177788
0.023764
0.0557852
0.0167779
0.0437183
0.0235507
0.0318998
0.0394396
0.0386279
0.0424066
0.0197779
0.0234418
0.0665573
0.0194645
0.0190752
0.0173175
0.0447904
0.029832
0.0284662
0.0246837
0.0462303
0.0304908
0.0229577
0.0132139
0.0172967
0.025429
0.0228178
0.0235847
0.0422965
0.0445409
0.00946531
0.0204034
0.0202252
0.0202763
0.0414701
0.0198814
0.0191048
0.0152217
0.0230701
0.0238663
0.019695
0.0268616
0.0328804
0.030221
0.0201201
0.023447
0.032596
0.0323047
0.0436995
0.0203306
0.0176221
0.021655
0.0272041
0.0224697
0.0130607
0.0253287
0.0238015
0.0384215
0.0182704
0.0633342
0.0459238
0.0204958
0.0128559
0.0253032
0.0599741
0.0397216
0.0351439
0.0436303
0.0335398
0.017586
0.0203056
0.0410823
0.0200543
0.0630752
0.0217805
0.0493672
0.0224307
0.0442986
0.0680442
0.0227378
0.0228174
0.0225743
0.0358823
0.0569072
0.0240855
0.0152796
0.0632494
0.0605781
0.0227821
0.0450075
0.0461373
0.0216096
0.0446328
0.0119096
0.0438422
0.0157037
0.0400119
0.0481296
0.0340422
0.052951
0.043128
0.0510417
0.0431525
0.0469083
0.0287723
0.0231737
0.0349798
0.0390243
0.0346952
0.0333447
0.0313559
0.050847
0.0148421
0.0435073
0.0176113
0.0116362
0.0200191
0.0256228
0.0364933
0.0163194
0.0355956
0.0589807
0.0241851
0.0133208
0.0139152
0.0301729
0.0210971
0.0207933
0.0403129
0.0484746
0.0390264
0.0145496
0.0211418
0.0221191
0.0204507
0.0211654
0.0145935
0.024631
0.0401338
0.0376016
0.0108396
0.0249182
0.0315811
0.0252691
0.0295924
0.0389086
0.0513192
0.0253118
0.0135011
0.0205634
0.0409795
0.0196307
0.0179554
0.0459955
0.0274591
0.0141921
0.0374023
0.0635587
0.0229885
0.0250668
0.0222428
0.0532695
0.0166647
0.0238424
0.0160924
0.0187082
0.0134245
0.0212825
0.0322633
0.0325153
0.0221197
0.0256884
0.0216872
0.05516
0.0267365
0.0119848
0.0212484
0.0317834
0.0225322
0.0297986
0.0131528
0.0175568
0.02696
0.0215313
0.0146293
0.0393398
0.0299385
0.0114932
0.0211606
0.0478727
0.0220023
0.0507567
0.0211551
0.0281829
0.0296124
0.0302343
0.0277585
0.0354332
0.0216331
0.015771
0.0143782
0.0209168
0.0347036
0.0213467
0.0252004
0.0209663
0.0336784
0.028246
0.0262968
0.0314846
0.0555681
0.0190763
0.0313417
0.0320429
0.0663841
0.021512
0.0461676
0.0194734
0.0146869
0.031199
0.0342126
0.0641942
0.0351759
0.021912
0.026302
0.0488918
0.0223038
0.0573168
0.0255207
0.0378119
0.0229953
0.0411931
0.046852
0.0310278
0.0238628
0.0563009
0.0274031
0.0373489
0.041262
0.0331365
0.0304252
0.0510167
0.034405
0.062707
0.0438113
0.0443077
0.0455674
0.0525026
0.0340187
0.0343059
0.0271697
0.0390066
0.0171725
0.0316851
0.034987
0.035765
0.0403032
0.023728
0.0237658
0.0348355
0.0348947
0.0391193
0.0530096
0.0298151
0.026015
0.0185557
0.0510118
0.0363203
0.0300694
0.0312529
0.0279245
0.0380981
0.0512871
0.0265653
0.030241
0.0389708
0.0316087
0.0306374
0.0572393
0.0162172
0.0478297
0.0439591
0.0395478
0.0407753
0.0159851
0.0357689
0.0141429
0.0648433
0.0158951
0.0300168
0.0317132
0.0111979
0.0107835
0.0503948
0.00224102
0.0405932
0.0515576
0.0516508
0.0557296
0.0226853
0.0449354
0.00139505
0.0439903
0.0547265
0.0441214
0.0395929
0.0606675
0.0158555
0.0245781
0.0456059
0.0433105
0.0305203
0.0120254
0.0172835
0.0427397
0.0333505
0.0505169
0.0396288
0.0395174
0.062134
0.0334765
0.0325959
0.0449445
0.0155729
0.0474972
0.0499055
0.0534838
0.0113331
0.0425965
0.0381605
0.039822
0.0423494
0.0322431
0.0289941
0.0447546
0.0235332
0.0499854
0.0279276
0.024256
0.0379113
0.0337619
0.0204583
0.0119292
0.0215105
0.0499386
0.0215379
0.0448568
0.0325503
0.0572418
0.0122483
0.0153814
0.0250174
0.0347605
0.0375931
0.0491099
0.0459412
0.0352315
0.039441
0.0429993
0.0368736
0.039218
0.0357091
0.00141038
0.037872
0.032119
0.0171496
0.0123091
0.0476616
0.046183
0.0386382
0.0147308
0.0474508
0.0585103
0.0633463
0.0354698
0.00154531
0.013848
0.0257009
0.0154059
0.021436
0.0304993
0.0157266
0.0137483
0.0212132
0.0174518
0.0407973
0.0378591
0.017854
0.0203903
0.0301758
0.0453749
0.00182976
0.0630365
0.0347723
0.0453515
0.0413124
0.0511815
0.0455113
0.045773
0.045499
0.0399533
0.00285875
0.0413683
0.035629
0.0329694
0.063716
0.0238594
0.0473133
0.0480416
0.0313674
0.0273757
0.0121629
0.0280249
0.0221644
0.0422277
0.0646023
0.0313951
0.0486194
0.0427897
0.0676993
0.0597489
0.0490044
0.0201318
0.0456667
0.0480172
0.0298985
0.00203876
0.0449028
0.0488976
0.0441879
0.0540743
0.0208411
0.0135061
0.0187441
0.0356352
0.0164138
0.0141822
0.0369263
0.019965
0.034649
0.0427049
0.0546949
0.0248366
0.0473875
0.0362238
0.0486545
0.00140182
0.067167
0.0320951
0.0211368
0.0434826
0.0161669
0.0308173
0.0496442
0.0511252
0.0413135
0.0290226
0.0447156
0.0340142
0.00251209
0.039252
0.0454036
0.0357317
0.0128835
0.0442732
0.0444046
0.0409799
0.0559685
0.014323
0.0455136
0.0343377
0.0143087
0.057067
0.0115527
0.0296618
0.0339025
0.0306802
0.0223465
0.0138846
0.0644419
0.0205033
0.0273068
0.0482603
0.0444251
0.0269913
0.0339925
0.0385761
0.0322527
0.0617658
0.00225699
0.0457628
0.0345133
0.0586973
0.0390054
0.0513822
0.0423976
0.0365402
0.0414254
0.0438524
0.0580192
0.0455944
0.0538548
0.0403129
0.0249098
0.0618591
0.0179198
0.029369
0.0162981
0.0281452
0.0422403
0.0141286
0.0202743
0.0282676
0.0637624
0.0397321
0.0554932
0.00333913
0.0190697
0.0120093
0.00272043
0.0508805
0.0405284
0.0684437
0.0303011
0.0444309
0.0361483
0.0664948
0.0136842
0.0445293
0.0298092
0.0424456
0.0194559
0.0339543
0.0180428
0.0177002
0.0368152
0.0344329
0.0672449
0.0219424
0.029914
0.0654941
0.0468809
0.0171544
0.0245683
0.00238136
0.036974
0.0453817
0.0282714
0.0701717
0.0512716
0.0139148
0.0365114
0.0497355
0.043077
0.0469688
0.0470923
0.0581416
0.0541011
0.0443311
0.0512053
0.0482194
0.0277263
0.0346946
0.0421697
0.0231996
0.0355897
0.0196021
0.0370157
0.0459924
0.0140282
0.0452133
0.0446283
0.0408014
0.0310746
0.0350923
0.0231605
0.00167337
0.0463063
0.0267518
0.0396017
0.0496435
0.0665883
0.0361695
0.03854
0.046492
0.013912
0.0274946
0.0309164
0.034282
0.0274887
0.023243
0.0424213
0.0174552
0.0553946
0.0374058
0.0487739
0.0570685
0.0261438
0.0336513
0.0322608
0.04147
0.0326919
0.0297563
0.0584337
0.0269621
0.0306217
0.0316378
0.00188944
0.0313375
0.0683543
0.0609028
0.00430145
0.0357933
0.0646402
0.0671146
0.0338356
0.0546322
0.0297807
0.018833
0.0435334
0.0451488
0.0135456
0.0429807
0.0419149
0.0206152
0.0414947
0.0400335
0.0465398
0.0417628
0.0423397
0.00893221
0.0510652
0.0401201
0.0386166
0.0302636
0.0314679
0.0409794
0.0659465
0.0508776
0.0312583
0.0567637
0.0402835
0.0293695
0.0408917
0.0253643
0.0560598
0.00758604
0.045976
0.0156417
0.0413932
0.0441375
0.0280754
0.0566113
0.0201907
0.0424667
0.019878
0.0359941
0.0447511
0.0408176
0.0305416
0.0201492
0.037116
0.0341008
0.0302598
0.0303305
0.0450328
0.0228082
0.0325132
0.01482
0.0333646
0.016346
0.0374842
0.0250827
0.0248657
0.00385847
0.00157625
0.031963
0.0373793
0.0602502
0.0448009
0.0209783
0.0264761
0.0364858
0.0251432
0.060028
0.0555431
0.0472063
0.0572163
0.00875653
0.0619904
0.0170472
0.0583375
0.0367199
0.0290409
0.0535734
0.0170654
0.0340263
0.0062758
0.0489815
0.0449048
0.0494896
0.0462557
0.0592334
0.0463898
0.0507928
0.0399301
0.0322434
0.0620036
0.0156936
0.0426337
0.0150511
0.0636542
0.038959
0.0528428
0.0354821
0.0500158
0.0442261
0.0484008
0.0267786
0.0343124
0.0484978
0.0548448
0.0187054
0.0222117
0.0182299
0.0449527
0.0345789
0.017257
0.0219326
0.011521
0.0470653
0.0445069
0.0454968
0.00306662
0.00437507
0.0236577
0.0615043
0.0497892
0.0259643
0.0614657
0.0448932
0.0289186
0.0506164
0.0342671
0.0386158
0.0157448
0.0446685
0.0449893
0.00339423
0.0448163
0.0537655
0.0331812
0.0458931
0.0535305
0.0315868
0.0468622
0.069351
0.0336325
0.028418
0.0540737
0.0682648
0.0297033
0.00211342
0.0552607
0.0437624
0.0286655
0.0159059
0.0284008
0.0210681
0.037984
0.0192501
0.00505097
0.0176143
0.0575624
0.0288009
0.0435413
0.0450132
0.0448901
0.0429335
0.0198688
0.036794
0.0498923
0.0355929
0.0407194
0.0333941
0.0172994
0.0109797
0.0439602
0.051019
0.0481343
0.0440431
0.0292294
0.029257
0.0151857
0.060195
0.0431152
0.0345453
0.0238656
0.031595
0.0372921
0.0234277
0.0535589
0.0508256
0.0450277
0.0449515
0.015246
0.00472717
0.0606112
0.0421695
0.0481582
0.0625347
0.0243246
0.0483633
0.0450481
0.0453509
0.0671144
0.0612812
0.0156654
0.0558939
0.049663
0.06559
0.00461057
0.0328569
0.0445625
0.0438641
0.0102849
0.0311517
0.027622
0.035631
0.0378156
0.0258417
0.0303926
0.0432684
0.0237927
0.0199003
0.0586546
0.0257713
0.0460403
0.00177653
0.0445254
0.0312048
0.0047849
0.0469798
0.0212296
0.0233951
0.0252489
0.0423004
0.0448322
0.0350981
0.0469601
0.0474064
0.043508
0.0192388
0.0322245
0.031474
0.0416029
0.0297487
0.0186432
0.028143
0.00381622
0.0651937
0.0488666
0.0599453
0.0044573
0.0483269
0.0529975
0.00232617
0.0609296
0.0424232
0.0635851
0.0423679
0.0447194
0.0351886
0.0314439
0.0464909
0.0259314
0.0653851
0.0223034
0.00583784
0.0392396
0.0286424
0.0435736
0.0405424
0.0447598
0.0516211
0.00217807
0.0383935
0.0307385
0.0510163
0.0258862
0.0357166
0.0615474
0.0559301
0.0508784
0.0452154
0.0447189
0.0260093
0.0450895
0.0306978
0.0362989
0.0418094
0.0486441
0.0107365
0.00536444
0.0320433
0.041591
0.0617039
0.0539208
0.0425586
0.0316296
0.044272
0.0256737
0.0617847
0.0529769
0.0456033
0.00587474
0.0282068
0.0425245
0.0190044
0.0283144
0.0475522
0.0441677
0.0353768
0.021411
0.0479952
0.0413099
0.0538343
0.0276952
0.0312268
0.0430041
0.044107
0.0654931
0.00192987
0.0451464
0.0680376
0.0434957
0.0342182
0.0419505
0.0512486
0.0513029
0.0154097
0.0446991
0.0385074
0.0304707
0.0377062
0.0198177
0.00724238
0.0306575
0.0149054
0.0501352
0.0462095
0.0378106
0.0560244
0.0411022
0.0302244
0.0379551
0.0458012
0.0348266
0.0413328
0.00478562
0.0232438
0.0448118
0.00409283
0.0472515
0.0296163
0.0453304
0.04465
0.0311892
0.00240589
0.0470837
0.0455045
0.0367899
0.0416158
0.0341751
0.0376716
0.0411503
0.0340639
0.00419205
0.0304653
0.00169288
0.0466448
0.0134062
0.0577703
0.0445324
0.0626762
0.0126882
0.0415958
0.0429417
0.0408833
0.0411223
0.00280838
0.0248162
0.0266192
0.0564089
0.026505
0.0318161
0.0654499
0.0160765
0.0293685
0.0433084
0.0189129
0.0314396
0.0383199
0.0477457
0.0557463
0.0203981
0.0585121
0.0538892
0.00721629
0.0201332
0.0530153
0.0386109
0.0440272
0.00792303
0.0643731
0.0216823
0.042542
0.0369304
0.0484984
0.0446261
0.0455013
0.0568087
0.0316417
0.0447255
0.0393728
0.0169782
0.0177657
0.0498855
0.0447782
0.06611
0.00410929
0.0348949
0.00545478
0.0291719
0.0389601
0.0555801
0.0496695
0.0427432
0.0452567
0.0364988
0.020389
0.0221738
0.044575
0.0328829
0.0316848
0.0296061
0.0497989
0.00434836
0.0444401
0.047988
0.0408878
0.04474
0.0446542
0.0457098
0.0182438
0.0258917
0.0455724
0.0210446
0.0360659
0.0431415
0.0249413
0.0371454
0.0322911
0.0455633
0.018848
0.0366341
0.0268308
0.0549235
0.027267
0.0149064
0.0474218
0.00740888
0.0459457
0.0343986
0.0505769
0.045111
0.0322281
0.0471932
0.0182669
0.0327957
0.04187
0.0323976
0.0419766
0.0207763
0.0449586
0.0432755
0.0288371
0.0349432
0.0364611
0.0225106
0.0185512
0.024619
0.0423674
0.0386617
0.0305022
0.0448615
0.039391
0.0250092
0.0469384
0.0135512
0.0573916
0.0373676
0.0189552
0.0444301
0.0441025
0.0438477
0.0518344
0.0592855
0.012626
0.0321479
0.0611814
0.0434691
0.023578
0.011512
0.0533713
0.0340627
0.0331349
0.0251378
0.00835752
0.053721
0.00984529
0.0261944
0.0364334
0.056997
0.0646889
0.0438041
0.0285644
0.041463
0.0169664
0.0449129
0.0451459
0.0487088
0.0303705
0.0296577
0.0396783
0.0567533
0.0179911
0.0521229
0.055275
0.0156524
0.0438829
0.0566164
0.0569663
0.0180069
0.029436
0.0401065
0.0380188
0.062129
0.0469987
0.0491063
0.0460228
0.046652
0.0461971
0.00896569
0.0437693
0.0355547
0.0455783
0.0268813
0.048494
0.0458962
0.0480267
0.0386903
0.0584601
0.0377706
0.0226955
0.0275162
0.0398985
0.0121771
0.0532299
0.0630887
0.0659113
0.0341608
0.0230518
0.0510584
0.0443555
0.0330949
0.0645459
0.0398465
0.0165759
0.00768236
0.0504766
0.0117451
0.0420768
0.0312884
0.0665606
0.0436674
0.0493237
0.0494184
0.042536
0.0349352
0.0381851
0.0192868
0.0399266
0.0526028
0.0308715
0.0474476
0.0473227
0.0555751
0.0379151
0.0338317
0.00169723
0.0557585
0.0450088
0.0429442
0.0519615
0.0458443
0.0578721
0.045904
0.0602479
0.0355841
0.0489003
0.0466344
0.0600114
0.0317653
0.0346082
0.053881
0.0260698
0.0150581
0.0479727
0.0416923
0.0453578
0.0496075
0.0600748
0.0393659
0.0401234
0.0386427
0.0456515
0.0684956
0.0503732
0.0360516
0.0529451
0.0626166
0.0464385
0.0295019
0.028774
0.050843
0.0330767
0.0422353
0.0450514
0.0349216
0.0528706
0.042941
0.0339174
0.044514
0.0445317
0.022318
0.0362185
0.0261958
0.0414706
0.0175598
0.0167028
0.0245475
0.0336245
0.0483305
0.00401198
0.0468424
0.0330695
0.059337
0.0502189
0.0378908
0.0403734
0.0448076
0.0197015
0.0330626
0.0271688
0.0448434
0.0577392
0.0310186
0.0412846
0.0226445
0.036604
0.00509075
0.0556953
0.037246
0.00147314
0.0160575
0.0172616
0.0512762
0.0597429
0.0308188
0.0323514
0.0306132
0.0449756
0.0300784
0.0170496
0.0301046
0.0579859
0.0487179
0.0169351
0.033441
0.06266
0.0309286
0.0186478
0.0183299
0.0612729
0.0588787
0.0160651
0.0336073
0.0550008
0.0185088
0.0277189
0.0344228
0.0246945
0.0541831
0.0398991
0.0541659
0.0338211
0.0269615
0.0165015
0.0260063
0.0486964
0.0483646
0.0268703
0.0392643
0.0140538
0.0155027
0.0275132
0.0430432
0.0633749
0.0293785
0.0388117
0.0447543
0.0530347
0.0214349
0.0353344
0.0382602
0.0184943
0.0160708
0.0263528
0.0204281
0.0298711
0.0145177
0.018391
0.0483701
0.0129558
0.0451591
0.0230196
0.0207213
0.0545918
0.0346537
0.010669
0.0564891
0.0307293
0.0533319
0.0297905
0.0391513
0.0369054
0.00165724
0.0612853
0.0147898
0.04299
0.0168535
0.0298788
0.0449393
0.0447344
0.0180396
0.0331966
0.0278052
0.0120472
0.0235438
0.0251606
0.0403059
0.0446011
0.025033
0.0111715
0.0581185
0.00386467
0.0305915
0.0157839
0.0569969
0.0329434
0.0444118
0.0249215
0.0331905
0.035379
0.0335934
0.0280815
0.0237305
0.0407627
0.0283867
0.0188134
0.00191359
0.0525807
0.0417691
0.00372906
0.0133678
0.0404839
0.016353
0.0177213
0.0245791
0.0439125
0.0292632
0.0208052
0.0359633
0.0319643
0.0455777
0.0664646
0.0191373
0.0269726
0.0304155
0.0687951
0.018449
0.0450506
0.0331498
0.0348643
0.0337676
0.0487964
0.023284
0.0406749
0.04615
0.0321328
0.068276
0.030202
0.0161136
0.029376
0.0473168
0.0336732
0.0378573
0.0340443
0.0688466
0.00967937
0.0460994
0.018751
0.0637346
0.031948
0.0560651
0.0491247
0.0486204
0.0308033
0.0453659
0.060068
0.0594843
0.0431115
0.0471971
0.0233445
0.0470629
0.0314039
0.0411566
0.0199453
0.0453467
0.0286503
0.051301
0.0220943
0.0318775
0.0417509
0.0444694
0.0403449
0.0457368
0.0471777
0.045901
0.045785
0.0386239
0.0271597
0.0456502
0.0359021
0.0489736
0.0472671
0.0429188
0.0477967
0.0549042
0.0370363
0.0268019
0.0257606
0.0297046
0.0591079
0.0473658
0.0342839
0.029471
0.0472999
0.0449157
0.0131834
0.0342057
0.00544851
0.00498451
0.0266874
0.0450559
0.0476722
0.0432096
0.0463053
0.0400087
0.0298748
0.0555509
0.0310058
0.043243
0.0214846
0.0271667
0.0331734
0.0430726
0.0445218
0.0656569
0.0264515
0.0445048
0.0653028
0.0608542
0.0550818
0.033014
0.0455216
0.031242
0.0321591
0.0479658
0.0371396
0.0437145
0.0524065
0.0500653
0.0446256
0.0443091
0.0305947
0.0420739
0.037093
0.0166723
0.0481603
0.0408224
0.032795
0.0399473
0.047467
0.0327677
0.00957295
0.0314714
0.0473969
0.0459355
0.0458893
0.00716066
0.050218
0.0303311
0.0398389
0.0557871
0.0128971
0.0314828
0.0522303
0.0163664
0.0216236
0.0683034
0.0459295
0.0312649
0.0463944
0.02428
0.0253015
0.0333967
0.0462112
0.0447261
0.0659598
0.0386857
0.0435271
0.0271844
0.054729
0.0490005
0.0417747
0.0468527
0.0242277
0.00840005
0.0245296
0.0488976
0.0493855
0.0408109
0.0123013
0.0474249
0.0158137
0.0248808
0.0555701
0.0537057
0.0495421
0.057381
0.0288657
0.047305
0.0482748
0.0275876
0.0450883
0.0365248
0.0472
0.0548416
0.0144382
0.0458241
0.0466684
0.0457749
0.0468325
0.0469902
0.0340617
0.0426978
0.0347816
0.059448
0.0518681
0.0352528
0.0470882
0.0361303
0.0314748
0.0318405
0.044897
0.0448506
0.0288504
0.0113515
0.0446987
0.0153854
0.0448788
0.0151223
0.0225387
0.0487279
0.0360757
0.0317264
0.0450891
0.0492318
0.0184616
0.0408227
0.0296868
0.0337142
0.063854
0.0243339
0.024485
0.0262379
0.024625
0.0483181
0.0254485
0.04443
0.0454107
0.0449267
0.0333338
0.0308134
0.0691712
0.0497496
0.0461839
0.0260483
0.0531983
0.0338858
0.0543756
0.0492045
0.028825
0.0506868
0.0550704
0.0415702
0.0372124
0.0175898
0.046058
0.0471551
0.0370363
0.0495973
0.0452289
0.0534974
0.0577998
0.062185
0.0462561
0.0408126
0.02834
0.0445255
0.0448445
0.0573971
0.0223791
0.0239952
0.0530109
0.0460233
0.0521239
0.0576067
0.014963
0.0147663
0.0143869
0.0558573
0.0533921
0.0461746
0.0456537
0.0475003
0.0876827
0.118843
0.130042
0.132332
0.129518
0.123815
0.116644
0.108952
0.101348
0.0942152
0.0877689
0.0821056
0.0772401
0.0731332
0.0697138
0.0668936
0.0645755
0.0626584
0.0610399
0.0596107
0.0860256
0.116837
0.128162
0.130594
0.127951
0.122411
0.115391
0.107833
0.100347
0.0933186
0.0869646
0.081385
0.0765961
0.0725601
0.0692068
0.0664483
0.0641878
0.0623254
0.060761
0.0593943
0.08434
0.114847
0.126299
0.128895
0.126431
0.121062
0.114199
0.10678
0.0994143
0.0924883
0.0862234
0.0807222
0.076003
0.0720299
0.0687341
0.0660281
0.063816
0.0619984
0.0604766
0.0591546
0.0826314
0.112865
0.124455
0.127229