/*--------------------------------*- C++ -*----------------------------------*\
  =========                 |
  \\      /  F ield         | OpenFOAM: The Open Source CFD Toolbox
   \\    /   O peration     | Website:  https://openfoam.org
    \\  /    A nd           | Version:  10
     \\/     M anipulation  |
\*---------------------------------------------------------------------------*/
FoamFile
{
    format      ascii;
    class       volScalarField;
    location    "200";
    object      nut;
}
// * * * * * * * * * * * * * * * * * * * * * * * * * * * * * * * * * * * * * //

dimensions      [0 2 -1 0 0 0 0];

internalField   nonuniform List<scalar> 
23845
(
0.0142491
0.0108729
0.00514153
0.00922691
0.0126055
0.0629465
0.008189
0.00697954
0.056124
0.0173756
0.0134876
0.067553
0.03056
0.0594696
0.00551393
0.0237522
0.0214652
0.0137243
0.0293459
0.0402009
0.015279
0.0130338
0.0165228
0.0545653
0.0175234
0.0525232
0.0113913
0.0476866
0.00269653
0.042924
0.0104501
0.00109427
0.00365067
0.0154199
0.06679
0.0548273
0.000881993
0.0672955
0.0675082
0.0545461
0.0302894
0.0192366
0.0325418
0.0147367
0.0502461
0.0273712
0.0127125
0.0213065
0.00203395
0.00154218
0.00479575
0.00616109
0.0011869
0.0546807
0.00103659
0.0248223
0.00981018
0.00809198
0.0139387
0.00960944
0.00448122
0.0156246
0.0249666
0.00338387
0.0530568
0.0303104
0.0107035
0.0509599
0.0498713
0.0276527
0.00586906
0.00528545
0.0473762
0.00635202
0.0516937
0.00555335
0.0679041
0.0671422
0.00908581
0.0213029
0.0137427
0.00680816
0.0100478
0.00795982
0.00503575
0.0660088
0.00737075
0.00110172
0.0538581
0.0245947
0.00392848
0.0311363
0.00296675
0.0559552
0.00793605
0.00444206
0.0248059
0.0203999
0.052651
0.0132257
0.0240457
0.010115
0.0123616
0.000728181
0.00243196
0.00830625
0.0611337
0.0513984
0.0117728
0.015875
0.013846
0.0675201
0.00503176
0.0184593
0.0517402
0.0176278
0.0489001
0.021706
0.00284027
0.00491346
0.0676264
0.00220906
0.029506
0.00550447
0.00945526
0.0518788
0.00489283
0.0015635
0.00476426
0.0117022
0.00378185
0.0137076
0.0129283
0.0620652
0.0224181
0.0135119
0.00060279
0.0677184
0.0118933
0.0671247
0.00178415
0.0190054
0.0631884
0.0141443
0.0248962
0.0152693
0.0192491
0.00544613
0.00407442
0.0248475
0.00445009
0.039767
0.00765268
0.0359334
0.00458448
0.0187948
0.0117849
0.0646982
0.00349633
0.0040527
0.0278837
0.00517655
0.00762475
0.0541271
0.0352289
0.0212219
0.0644143
0.00238935
0.0417043
0.0173857
0.0574745
0.0086537
0.0534228
0.00606746
0.053464
0.00871998
0.0304916
0.0170186
0.0516749
0.0657407
0.0125807
0.0131329
0.00649816
0.0135369
0.023392
0.0282544
0.0166971
0.00761043
0.00216448
0.0208511
0.00290023
0.0581437
0.0553639
0.0574216
0.0275628
0.0556188
0.00166627
0.00226893
0.000677774
0.0147553
0.0180372
0.0519763
0.00443973
0.0133614
0.0073966
0.00762301
0.00548157
0.0655334
0.0126346
0.0142916
0.0182738
0.00221193
0.0267816
0.0393403
0.00295647
0.0010776
0.013241
0.0161059
0.000385859
0.00416701
0.0393221
0.00588679
0.00153372
0.021749
0.0141983
0.0041766
0.000573431
0.0575098
0.0592654
0.0326581
0.0627176
0.00262227
0.0671275
0.0520423
0.0127371
0.00385664
0.0519439
0.00995044
0.0509149
0.00848352
0.00148394
0.0199476
0.00840249
0.0130205
0.00252479
0.0240339
0.0614257
0.0498559
0.00826184
0.0052438
0.0271692
0.0640707
0.00464236
0.0341433
0.00649581
0.00379329
0.00485803
0.00559301
0.0482455
0.0536743
0.000803065
0.0634846
0.00528111
0.0144269
0.016339
0.0538237
0.00901561
0.00484527
0.0103788
0.00968235
0.0670448
0.00850516
0.00439968
0.055863
0.0130917
0.0552038
0.0055799
0.0572262
0.00169468
0.0168268
0.00806134
0.0588044
0.00597121
0.0230482
0.0661218
0.00437735
0.0065662
0.0487301
0.00759331
0.00483853
0.00871423
0.0032738
0.00374708
0.00529823
0.00819631
0.066956
0.00370614
0.0589813
0.0657492
0.00312744
0.00331432
0.00438353
0.0037593
0.0102017
0.0566665
0.0103652
0.00310447
0.00453474
0.0246951
0.00151344
0.00418498
0.00749096
0.0286109
0.057667
0.00743956
0.00169941
0.00397404
0.01327
0.00353822
0.0373456
0.00221637
0.00232193
0.00353464
0.0360506
0.00500551
0.0603091
0.00956981
0.0113239
0.00526962
0.0130779
0.0054528
0.0209265
0.00454993
0.0633713
0.00485346
0.0094282
0.00878027
0.0131205
0.0162971
0.00921383
0.00798397
0.00377366
0.0133983
0.0518729
0.0488614
0.00122795
0.0636309
0.00496731
0.00934979
0.00406832
0.00941201
0.00399986
0.00143517
0.00545473
0.00117136
0.0553027
0.0167352
0.0493857
0.00537266
0.00837224
0.00503187
0.0529283
0.0195742
0.0238767
0.00238998
0.0633834
0.00513689
0.0525419
0.00295987
0.0526129
0.0176477
0.00343563
0.00249151
0.0660188
0.0631569
0.00425024
0.00704204
0.00880085
0.018724
0.00768372
0.00589917
0.0620817
0.0165519
0.0495122
0.0520385
0.067533
0.0626278
0.00901666
0.0152749
0.00841805
0.0100455
0.0147924
0.0029166
0.00237165
0.00379307
0.00319624
0.0145367
0.0506915
0.0272173
0.0620918
0.0082441
0.0114954
0.00689252
0.00729257
0.00906335
0.0061141
0.066311
0.00268035
0.00250109
0.00537316
0.0045452
0.0518569
0.00769056
0.00459613
0.0120817
0.00622466
0.0107059
0.0129183
0.0615208
0.0184504
0.0031396
0.0193607
0.056695
0.00936753
0.00564803
0.0123084
0.00280149
0.0104174
0.00601162
0.00549535
0.0556038
0.014622
0.00374893
0.0124814
0.0280913
0.0460312
0.06658
0.0283783
0.00351807
0.00668641
0.00534004
0.00276344
0.00222363
0.00464239
0.0109022
0.0036399
0.0324062
0.0125437
0.0618507
0.00790221
0.00913294
0.0387209
0.00245428
0.0627711
0.0519586
0.00406748
0.0101877
0.0133471
0.00620546
0.0523123
0.0119784
0.00982862
0.000599901
0.0101287
0.0604834
0.0662058
0.0576567
0.00283503
0.0516255
0.00392907
0.0466782
0.0645263
0.0113163
0.00523793
0.00323663
0.0121425
0.0415738
0.00277965
0.0471893
0.026221
0.0132434
0.0121561
0.0105047
0.0130741
0.0140916
0.00594824
0.0667953
0.0650451
0.00612093
0.00469947
0.0526591
0.00381901
0.00449477
0.0129069
0.00701535
0.0134646
0.044899
0.00599505
0.0526398
0.062796
0.00691729
0.00184716
0.00406737
0.0134014
0.00791202
0.00876731
0.0139466
0.0321021
0.0485258
0.00435242
0.010741
0.00383746
0.000955041
0.0109356
0.0562913
0.05116
0.0117491
0.00378551
0.00422909
0.0179122
0.000706725
0.0468428
0.0137111
0.0033778
0.0505538
0.00803846
0.00615655
0.0035743
0.0159014
0.00299868
0.00402045
0.00308586
0.0128285
0.0167579
0.0273891
0.0318741
0.052097
0.00440943
0.0137201
0.00909657
0.00526144
0.0500477
0.0175628
0.0172189
0.0259279
0.0176993
0.0129703
0.0318167
0.0434149
0.0354125
0.0376582
0.0664821
0.00590999
0.0324363
0.00756023
0.00904169
0.0185454
0.0038435
0.0629806
0.0557623
0.00825169
0.00943534
0.00886122
0.0290453
0.0157936
0.00232793
0.00261784
0.0512924
0.00314899
0.0335302
0.0461327
0.00802707
0.028182
0.0582784
0.0210774
0.0127431
0.00566637
0.004145
0.00629114
0.0136798
0.043886
0.0677673
0.025495
0.00559888
0.00340649
0.0155889
0.0457997
0.0415006
0.00640885
0.0434582
0.0160565
0.00451565
0.0127342
0.0131545
0.00528487
0.0156666
0.048332
0.0487366
0.0137167
0.0646889
0.00572189
0.0413442
0.0137685
0.00574099
0.00725845
0.0155508
0.00589432
0.013743
0.00753257
0.0193547
0.0129301
0.0124515
0.00852923
0.0135384
0.00316918
0.0130532
0.0133821
0.0126792
0.0389307
0.0442211
0.0135305
0.00487765
0.0134597
0.0183913
0.0116045
0.0124491
0.0310817
0.0129827
0.0341159
0.0242143
0.0313655
0.0297965
0.0126759
0.0529099
0.0659967
0.0045158
0.012541
0.021042
0.0432053
0.013426
0.0104001
0.0147544
0.0449073
0.0326619
0.0149639
0.0143452
0.0149449
0.034783
0.0157689
0.00464431
0.0509087
0.0650743
0.0134462
0.00865567
0.00407798
0.00329162
0.00362475
0.0178587
0.00531559
0.0139089
0.0168725
0.027423
0.0177921
0.0118951
0.0204061
0.0443477
0.0344579
0.0132016
0.0114666
0.0145267
0.0249162
0.0124331
0.0157106
0.0123919
0.012281
0.0130723
0.01231
0.0133155
0.0165003
0.0204928
0.014934
0.0122845
0.0192042
0.0123203
0.0204294
0.0141263
0.0249885
0.0123125
0.013429
0.0159574
0.0127307
0.022371
0.0122839
0.0123866
0.0125172
0.0127634
0.012994
0.0122048
0.0132102
0.0121954
0.0159013
0.012265
0.0172608
0.0122816
0.0156588
0.0179309
0.0123454
0.0128954
0.0127066
0.0309471
0.0216368
0.0111294
0.0488493
0.023973
0.0214451
0.0130296
0.0607425
0.0143991
0.0132866
0.012604
0.0126601
0.0124614
0.0135366
0.0214588
0.0447215
0.0199858
0.0218951
0.0132899
0.0395224
0.0126048
0.013919
0.0137521
0.0415845
0.0219941
0.012935
0.0151632
0.0137512
0.0134803
0.0475263
0.0300739
0.051054
0.0141914
0.0180021
0.00602145
0.0418924
0.0138258
0.0133102
0.0146546
0.0264375
0.0354469
0.00543398
0.0202416
0.049852
0.014275
0.021619
0.00512202
0.0161393
0.016968
0.012863
0.0126729
0.0130394
0.0183471
0.0121769
0.0133119
0.0131512
0.0122182
0.0232137
0.0122927
0.0109747
0.0124583
0.0158129
0.0128824
0.0126772
0.0131863
0.00927715
0.0180557
0.0332972
0.0128414
0.0176939
0.0176994
0.0129181
0.012315
0.00410765
0.0550627
0.0163063
0.0150677
0.0290343
0.0137255
0.0148322
0.0154559
0.0133969
0.0244817
0.0181172
0.0204796
0.0140393
0.0244525
0.0118401
0.0129429
0.0270861
0.0135639
0.0135341
0.0259392
0.0130174
0.0175328
0.0153691
0.0195982
0.0184199
0.0314934
0.021384
0.0222991
0.0118352
0.0176482
0.0127448
0.0218837
0.0158639
0.0125442
0.00324558
0.0165752
0.0328818
0.0308637
0.0390238
0.0357585
0.0271532
0.0337906
0.0346649
0.0455434
0.0314626
0.0421518
0.0354878
0.0404243
0.043316
0.0473119
0.0342649
0.030691
0.0348032
0.0350711
0.0257367
0.0139929
0.0139226
0.00559326
0.0129715
0.045131
0.0532569
0.0166093
0.0164315
0.012486
0.0151339
0.0123587
0.0174005
0.0335179
0.0330952
0.0313941
0.0280291
0.0122404
0.0358511
0.017797
0.0307799
0.0267299
0.0662554
0.00549542
0.0665751
0.0200005
0.0186571
0.0130478
0.0168379
0.0271266
0.0277756
0.0297164
0.0222015
0.0241
0.0293697
0.0211432
0.0328781
0.0320285
0.0360608
0.0370453
0.0394615
0.0405956
0.0281221
0.0137299
0.016418
0.0189662
0.025751
0.0186309
0.0188436
0.0126184
0.029129
0.0216925
0.0295743
0.0378186
0.0275294
0.0412151
0.0236526
0.031791
0.0400013
0.0205441
0.0325009
0.0358586
0.0125099
0.0359089
0.0148725
0.0120012
0.0126505
0.0222484
0.0123816
0.030467
0.0126538
0.016182
0.0156169
0.00288512
0.0647028
0.0123326
0.0125725
0.0125588
0.0135768
0.0126636
0.0156548
0.0251059
0.0128234
0.0142145
0.00455684
0.00210184
0.0131284
0.0135631
0.039492
0.0111115
0.0228499
0.00507755
0.0141631
0.0413003
0.0302936
0.0344393
0.0205033
0.0145707
0.0275261
0.0131231
0.0161907
0.0171537
0.0267617
0.0128677
0.0149522
0.0224226
0.0126768
0.0130537
0.0127881
0.023911
0.0200933
0.0126775
0.0126468
0.0126584
0.0128495
0.0129509
0.0150095
0.0127177
0.0221269
0.0134727
0.0140647
0.01275
0.0181719
0.0184257
0.0128966
0.0207789
0.013195
0.0407019
0.0134747
0.0203237
0.0147016
0.0178418
0.0134641
0.0207358
0.0149423
0.0184274
0.0149012
0.0178198
0.0250699
0.0151383
0.0136801
0.0208423
0.0407204
0.0125637
0.0134226
0.011844
0.0346294
0.0143317
0.0128552
0.0130159
0.0194515
0.0204043
0.0136732
0.014117
0.0142795
0.0208083
0.0272917
0.0131702
0.0131244
0.0140165
0.0162658
0.0134802
0.0145324
0.031624
0.0184508
0.0161882
0.0167029
0.0211127
0.0207781
0.0251205
0.00153466
0.0343274
0.00399232
0.031217
0.0326428
0.00161774
0.020355
0.0505561
0.0639156
0.0389414
0.0196406
0.0158894
0.0235944
0.0216343
0.0131367
0.00438676
0.0170103
0.0132732
0.0246222
0.0131784
0.0130747
0.0129117
0.0127409
0.0164677
0.0188191
0.0148576
0.0355861
0.0503853
0.0499662
0.0133878
0.0137109
0.0275364
0.0233871
0.0259014
0.0221083
0.0207904
0.0129126
0.0148892
0.0133438
0.0172998
0.0158544
0.0127529
0.0188069
0.0125625
0.0172806
0.0124399
0.0135457
0.0123601
0.0122888
0.0132439
0.0123402
0.0123173
0.0126682
0.013816
0.0190943
0.0129741
0.0182327
0.0131772
0.0173099
0.0199568
0.0182058
0.0382666
0.0147476
0.0655381
0.0127004
0.0131504
0.0183306
0.0148954
0.0269071
0.0255667
0.0130666
0.0358974
0.0221056
0.0174784
0.0181323
0.0492177
0.0122597
0.0128993
0.0204903
0.00347732
0.00540716
0.0258544
0.0195498
0.0185887
0.0126998
0.0153818
0.0191499
0.0125579
0.0200817
0.012465
0.0123727
0.012432
0.0125569
0.00231076
0.0124593
0.01823
0.0156186
0.0126136
0.0152888
0.0262659
0.0207166
0.00351957
0.0137582
0.0500645
0.0354568
0.013945
0.0378149
0.0152911
0.0196713
0.0348787
0.0131485
0.0143152
0.0146687
0.0157916
0.0227086
0.0184518
0.0239894
0.00959119
0.0269357
0.0238451
0.0135607
0.0358411
0.0526139
0.0175736
0.0283295
0.0305798
0.00642116
0.0351744
0.0154472
0.0209978
0.0129272
0.0133997
0.0128324
0.0127679
0.0294756
0.0139281
0.0161617
0.0158863
0.023463
0.013289
0.0159339
0.0415321
0.0228438
0.0127248
0.0184238
0.00870518
0.00741956
0.0256334
0.021535
0.0386579
0.0136931
0.0214954
0.0384112
0.0137356
0.0165969
0.00973676
0.0232114
0.0653097
0.0268921
0.0214442
0.0214101
0.0304332
0.0155877
0.0267071
0.0167904
0.0191357
0.0381938
0.014724
0.0233321
0.0190399
0.0183659
0.0224298
0.0180219
0.0165857
0.021348
0.0165548
0.0123396
0.0333898
0.0129229
0.029615
0.0331364
0.0274657
0.0464767
0.0396881
0.0253365
0.0428453
0.0340898
0.0227297
0.0442455
0.034875
0.0201437
0.035382
0.0383524
0.021485
0.0133195
0.0129876
0.0498254
0.0319568
0.0190344
0.0664269
0.0567913
0.0124282
0.0191189
0.0139073
0.0210733
0.0160439
0.0217855
0.0146432
0.021769
0.012611
0.0277405
0.0124546
0.0134118
0.0020065
0.0299575
0.0180771
0.0272265
0.0667297
0.0296726
0.0142211
0.0152218
0.00497481
0.0124775
0.0146727
0.0132074
0.023892
0.012868
0.019772
0.0166911
0.0250705
0.0233541
0.0123179
0.0291251
0.0136726
0.037111
0.0306304
0.00417452
0.0350738
0.013594
0.0158549
0.0132206
0.00699652
0.00940615
0.0132847
0.0271315
0.0307623
0.0130661
0.0266027
0.0260363
0.0249143
0.0147165
0.0516776
0.0386369
0.0288364
0.0120995
0.0309661
0.0237893
0.0134601
0.0325393
0.00292925
0.0209372
0.0195957
0.0137157
0.0673645
0.000687531
0.028094
0.00349663
0.0426789
0.0123808
0.0207836
0.0204517
0.0250356
0.0202096
0.0167913
0.021792
0.0158094
0.0175386
0.0323622
0.0218574
0.0472481
0.018273
0.0189129
0.063324
0.0189142
0.0188237
0.0190179
0.021542
0.015575
0.0125412
0.018806
0.0170598
0.0144936
0.015911
0.0118285
0.055817
0.0122493
0.0212407
0.0318831
0.00469745
0.0146448
0.0185606
0.0619435
0.014341
0.0192138
0.0234674
0.0141653
0.0228805
0.00843592
0.00450153
0.0128615
0.0163579
0.0645456
0.00428311
0.0175289
0.0182824
0.0195993
0.0139828
0.00907301
0.0451129
0.0228211
0.0043862
0.00788628
0.0316173
0.0131171
0.0127663
0.0270571
0.00410384
0.0173894
0.0143833
0.0166868
0.0231844
0.0527428
0.014966
0.0140713
0.0649877
0.00540346
0.0142741
0.0545402
0.00579886
0.0296558
0.0183265
0.0159164
0.00877096
0.0487271
0.0145886
0.0155123
0.0147654
0.0135451
0.0200872
0.0165933
0.0161907
0.0211881
0.0146857
0.0322223
0.041691
0.0136768
0.0229312
0.0199291
0.0137362
0.0385283
0.0134162
0.0170733
0.015925
0.0101204
0.0130806
0.0274703
0.0164856
0.0382039
0.0185342
0.0149102
0.0176944
0.00546693
0.0442946
0.0141239
0.000754297
0.0338808
0.0439555
0.019387
0.0143004
0.0134809
0.00938258
0.0131664
0.0130344
0.0124519
0.0560183
0.0347974
0.0260072
0.0476316
0.054044
0.0202956
0.0154033
0.00348273
0.0257552
0.0298472
0.0207332
0.0134371
0.0233821
0.0178645
0.0164851
0.015007
0.0162644
0.0178443
0.0137288
0.0149148
0.0144946
0.0484292
0.0138381
0.00639167
0.00577902
0.0179555
0.0182829
0.015466
0.0154393
0.0359778
0.0240551
0.019589
0.0212136
0.0156463
0.00185976
0.0474649
0.00579304
0.0177352
0.0444981
0.0111881
0.0179892
0.0132699
0.0156704
0.018378
0.0173773
0.0246428
0.0378013
0.0151877
0.0415535
0.016308
0.0142936
0.0186118
0.00885256
0.014293
0.0241773
0.0129905
0.0160764
0.00631721
0.0141027
0.0383682
0.00829468
0.0401479
0.0546361
0.012978
0.0127688
0.00434971
0.00309951
0.0128138
0.0256177
0.016061
0.0462045
0.0100916
0.0136805
0.0436665
0.0160682
0.0110056
0.0248509
0.0078845
0.0142229
0.0134763
0.0229604
0.0134093
0.013099
0.0413728
0.0217777
0.00530521
0.0363462
0.0461336
0.0154556
0.0605699
0.0224475
0.0130937
0.0162867
0.00386584
0.0479581
0.0592494
0.0566543
0.00371807
0.0417208
0.0324959
0.0251601
0.00760388
0.0255283
0.0344539
0.0439095
0.00760467
0.0232827
0.049108
0.0205608
0.0616355
0.0613484
0.043217
0.00701565
0.0135285
0.0525841
0.0376762
0.0188574
0.0135516
0.0316686
0.0203716
0.0550196
0.0613852
0.0053675
0.0340483
0.0133497
0.063876
0.0199269
0.00754453
0.00390111
0.0020678
0.00665198
0.00863656
0.0496225
0.0127624
0.0281899
0.0481865
0.0158517
0.0122895
0.0325759
0.00572509
0.0032191
0.0165663
0.0162231
0.0109365
1.3751e-05
0.0226648
0.00854136
0.0132819
0.015673
0.0469143
0.0123981
1.01976e-05
0.0639977
0.010135
0.060343
0.0595569
0.0107114
0.00251998
0.00560782
0.00930877
0.0111145
0.0317994
0.00145953
0.0242958
0.0170708
0.056824
0.0131335
0.0128199
0.044797
0.0121278
0.053704
0.0394975
0.0593404
0.00213823
0.0101126
0.00618605
0.00511158
0.018495
0.011082
0.0604175
0.0584612
0.0648747
0.0148049
0.00664496
0.0590726
0.0241955
0.00987454
0.0047956
0.0131222
0.0518735
0.00857046
0.0285678
0.0174684
0.0248766
0.0494614
0.0257827
0.0555739
0.0603152
0.0058035
0.0186502
0.0164802
0.050477
0.0232818
0.00889954
0.0126716
0.0517793
0.00837069
0.0163749
0.0264448
0.0500616
0.00308778
0.0365576
1.03548e-05
0.00839765
0.00753597
0.0184425
0.0187948
0.0106676
0.012612
0.0479357
0.0227556
0.0116739
0.0107027
0.0122931
0.0288373
1.10695e-05
0.0202749
0.00541959
0.0160402
0.00375241
0.0582837
0.0243681
0.0140405
0.0145055
0.00296539
0.0586109
0.0092689
0.00227563
0.0133335
0.0216429
0.0191232
1.4691e-05
0.0136573
0.0544175
0.0132478
0.0134963
0.0147446
0.046925
0.00913053
0.0194044
0.00969595
2.39529e-05
0.0502515
0.052764
0.0154914
0.00513317
0.0133402
0.011174
0.053746
0.0364984
0.0279692
0.0188968
0.00496813
0.0296114
0.0599769
0.011217
0.0162266
0.00960636
0.0104805
0.00437687
0.00569749
0.00989732
0.00190934
0.0104174
0.0132916
0.0268082
1.66155e-05
0.0466386
0.00803969
0.0677965
0.00333723
0.00366764
0.013458
0.0133729
0.0366301
0.0180576
0.0149486
0.0547551
0.0125923
0.0572051
0.0125999
0.0118391
0.0299243
0.0133772
0.0129429
0.00966803
9.1548e-06
0.00393727
0.0079737
0.0041434
0.00966456
0.0024501
0.0133462
0.052397
0.00308155
0.0419087
0.00523173
0.0240669
0.0298947
2.0523e-05
0.0128967
0.0546281
0.00874461
0.0203296
0.00840996
0.0161731
0.0292218
0.00673172
0.0165187
0.0167389
0.0322908
0.0146743
0.0084393
0.000738821
0.02572
0.0378092
0.0323812
0.015898
0.0206869
0.00427978
0.0132856
0.024228
0.0101196
0.0652931
0.00636121
0.0240815
0.055974
0.016447
0.00463758
1.84849e-05
0.0062726
0.00669664
0.00764208
0.0534496
0.0109105
0.0618206
0.0604149
0.0099681
0.0566588
0.00484273
0.00840393
0.0079408
0.00716399
0.0144203
0.00903893
0.0148675
0.0343187
0.0155352
0.0325873
0.00942517
0.0153566
0.0258764
0.0238075
0.00494321
0.0616645
0.00771616
2.90534e-05
0.0130679
0.00145561
2.33105e-05
0.0148154
0.0657342
0.00369386
0.031519
0.0655313
0.0611796
0.00426938
0.0218477
0.0543223
0.04499
0.0157341
0.0261851
0.00858261
0.0197877
0.0132694
0.0271674
0.0507257
0.0119919
0.0278892
0.0294958
0.01317
0.0537339
0.0131298
0.029357
1.907e-05
0.0227684
0.0535582
0.00283232
0.0117612
0.00898424
0.0213979
0.0560022
0.00730369
0.00999037
0.00625422
0.011369
0.00638428
0.00626346
0.0525824
0.00719298
0.0107047
0.0273197
0.00797421
0.0537677
0.00477501
0.00352645
0.00376056
0.0211919
0.00868776
0.000969025
0.0550881
0.0668611
0.0661767
0.00675469
0.00895628
0.0031219
1.32477e-05
0.0106595
0.0243437
0.0581023
0.00765327
0.00380595
0.00916078
0.0318515
0.0188441
0.0210045
0.00632848
0.00272307
0.00756982
0.00636986
0.00504785
0.00906213
0.0236736
0.00615995
0.00842414
0.00309348
0.00756139
0.00595434
0.023902
0.00805971
0.00336646
0.030528
0.00556165
0.00949471
0.0273313
0.0070003
0.0267312
1.46677e-05
0.00677957
0.0125579
0.00910125
4.00646e-05
0.0282267
0.00976153
0.00450702
0.0364358
0.00742651
0.0330546
0.0163255
0.0132401
0.0583416
0.0208767
0.0128786
0.055322
0.0265191
0.059313
0.042554
0.012218
0.0631649
0.014756
0.000683215
0.00630872
0.0627327
0.0306906
0.0313829
0.00680256
0.0518966
0.00456994
0.00776662
0.0140633
0.0073601
0.00814536
0.00589414
0.0128808
0.0267772
0.00712478
8.16007e-05
0.00453285
0.017055
0.0654196
0.0620715
0.0141299
0.0152458
0.0275776
0.058163
0.0267717
0.00703545
0.0560561
0.0296776
0.0243611
0.0136692
0.00609439
0.0282449
0.0282325
0.0326171
0.0105259
0.0252317
0.00764278
0.0126974
0.0249209
0.0132718
0.0264914
0.00567992
0.00480353
3.57165e-05
1.20204e-05
0.0194408
0.0256724
0.00684483
0.0604908
0.00431606
0.0234683
0.0377375
0.0285452
0.0122886
0.00870693
0.0544777
0.0110869
0.000638007
0.00439304
0.00223366
0.0072905
0.0337537
0.00651739
0.00352398
0.0149726
0.0177723
5.17059e-05
0.0104708
0.0658108
0.00823883
0.0551747
0.00847996
0.0162999
0.00899945
0.0564305
0.0292475
0.00727878
0.0235027
0.0269688
0.0166911
0.00941046
0.0646423
0.00772416
0.0385014
0.00824609
0.0573526
0.0530418
0.0253014
0.0274183
0.00651128
0.00721837
0.0266693
0.0236139
0.0177092
0.065015
0.0217396
0.0210269
0.00232375
0.00139035
0.00690558
0.0643881
0.0546048
2.66212e-05
3.2759e-05
0.00276471
0.00347007
0.010575
0.0296951
0.00959223
0.00767302
0.0559312
0.00921042
0.0128444
0.0150027
0.0181044
0.00929342
0.0641364
2.93042e-05
0.0678315
0.00393315
0.00814757
0.0550716
0.00740319
0.0327826
0.00330551
0.0106789
0.0292572
0.0339197
0.00676061
0.00376154
0.0261792
1.81152e-05
0.00927593
0.0520799
0.00406332
0.018762
0.00582512
0.0289673
0.0442928
0.0148031
3.40155e-05
0.0240992
0.00595466
0.0138428
0.0569789
0.0632069
0.0675524
0.0603864
0.02188
0.0065212
0.019515
0.028527
0.0129445
0.0243105
0.0304798
0.0172004
0.0591877
0.00811894
0.0114246
0.0624721
0.0238837
0.0132176
0.0127072
0.00434987
0.0133133
0.0383668
0.0315454
0.00787692
0.0401379
0.028819
0.00544329
0.00683154
0.062249
0.0671364
0.00193758
3.35861e-05
0.00355567
0.0595204
0.0505864
0.00331106
0.0181919
0.0532607
0.0612738
0.011815
0.0109483
0.00431232
0.0175711
0.00970475
0.0104199
0.00481268
3.64081e-05
0.0378156
0.0127618
0.0533882
0.000710311
0.0556597
0.0342854
0.0236805
0.0208217
0.0230231
0.0144357
0.047004
0.0241069
0.0141335
0.00648136
0.0265688
0.0071118
1.43774e-05
0.0142105
0.0396509
2.39222e-05
0.0179297
0.00435167
0.0046849
0.0207151
0.0125585
0.0508878
0.0162088
0.0119717
0.052241
0.00689923
0.0160134
0.0379351
0.0407577
0.0664851
0.00692625
0.0230179
0.0488373
3.29214e-05
0.00438659
0.0532922
0.00691011
3.75418e-05
0.00597062
0.00814395
1.93323e-05
0.00402889
0.0660328
0.0122982
0.0210878
0.0679449
0.0317973
0.0586603
0.0488849
0.0298249
0.0121794
0.00479771
4.65022e-05
0.0454728
0.00625458
0.0604393
0.0565948
0.0679616
0.00971197
1.76815e-05
0.0321631
0.0576057
0.00583996
0.00601043
0.00243541
0.00793659
0.0114729
0.015926
0.0584669
0.0640805
0.0210967
0.0603048
0.00751234
0.0582369
0.0187342
0.012533
0.000767337
4.15974e-05
0.0513097
0.0471714
0.0114755
0.0065393
0.00743464
0.0212053
0.0247257
0.00469387
0.00386949
0.0068527
0.00439274
4.55722e-05
0.00447483
0.0517729
0.0162741
0.0257768
0.0036669
0.060665
0.0361587
0.0224151
0.0145065
0.022272
0.00941178
0.00668158
0.00703999
0.0599906
0.0100898
0.0111
1.6371e-05
0.0593775
0.00395632
0.00925728
0.00267043
0.0425672
0.00809987
0.0100371
0.00153664
0.0677893
0.0204086
0.026516
0.0579063
0.0148389
0.000433365
0.0165754
0.00115084
0.00579099
0.00277874
0.0598967
0.00444133
0.0663372
0.00734285
0.0296936
0.0140572
0.059677
0.0643993
3.11371e-05
0.00501277
0.0650585
2.24431e-05
0.0168694
0.0147949
0.0576508
0.0629974
0.00753735
1.78414e-05
0.0541321
0.0567358
0.0412099
0.0122397
0.0446882
0.058246
0.0286996
0.0295666
3.57176e-05
0.0313072
1.32955e-05
0.0545188
0.00164059
0.00363008
0.0199687
0.0106116
0.00157582
0.0659224
0.0448059
0.0467657
0.0525463
2.57889e-05
0.0281467
0.0454842
0.0107572
0.00568731
0.00756675
0.0118064
0.00169631
0.0341946
0.0553948
0.0361139
0.00673598
0.00661847
0.0527089
0.00511999
0.0194744
0.00588813
0.00858303
0.00050331
0.0254108
0.00892418
0.0572634
0.067112
0.000577589
0.00351718
0.0282405
0.0496707
0.00797678
0.00993461
0.0618425
0.0568673
0.0105944
0.00714764
0.067496
0.0652706
0.0028994
0.0206594
0.0133366
0.0670527
0.00342701
2.65721e-05
0.0378687
3.87737e-05
0.00709509
0.0129008
0.00663721
0.00925915
0.0109904
0.00873535
0.0214311
0.019969
0.0233271
0.0679271
0.0559853
0.00786983
0.0251903
0.00455213
2.83364e-05
0.0614076
0.0538275
0.05395
0.0594634
0.0606472
0.056111
0.0133614
0.0275612
0.0502108
0.0186198
0.0394295
0.0520162
0.0305338
0.0418357
0.0134617
0.012898
0.00205376
0.0056275
0.00628875
0.00637768
0.0261717
0.00224617
0.0538548
0.000538949
0.0554302
0.0223928
0.00788644
0.00972355
0.0305431
0.0543473
0.0216747
0.00225041
0.0127972
0.00810621
0.053675
0.0213664
0.0665931
0.0114046
0.00683528
0.020067
0.0339037
0.0311051
0.0145687
0.0237703
0.0154771
0.0199799
0.0287663
0.0583126
0.0542456
0.0293376
0.0125313
0.000929193
0.00308471
0.018027
0.00326498
0.0131744
0.00543377
0.0170212
0.00995564
0.00641895
0.00160489
0.0468688
0.00447819
0.010591
0.00474425
0.00141248
0.0105478
0.0414215
0.00778342
0.0246597
0.000588728
0.00656386
0.000665986
0.0276518
0.0279057
0.0116478
0.00483327
0.0551913
0.00537861
0.00969374
0.0227656
0.0659327
0.0589391
0.052131
0.0292352
0.0517027
0.0656114
0.00424207
0.0144428
0.0113484
0.0103871
0.0019954
0.0588226
0.00952716
0.00885897
0.00171391
0.0236054
0.00936997
0.0645597
0.00345833
0.014342
0.0059561
0.0510449
0.0533181
0.0548095
0.000636548
0.00792906
0.0228532
0.0517324
0.0060232
0.0133385
0.0560369
0.0522802
0.0315176
0.00485132
0.0407448
0.0244505
0.00639021
0.00906424
0.0214977
0.0050794
0.0101818
0.00476128
0.0229429
0.00202856
0.0062407
0.0556
0.0170147
0.00466455
0.0094597
0.0186075
0.00057201
0.0103508
0.0008239
0.00861074
0.00776248
0.0102069
0.0603888
0.00481573
0.0487973
0.06449
0.0432932
0.0129572
0.016354
0.00295934
0.00736576
0.00672041
0.018276
0.0522088
0.00998049
0.0641808
0.0246287
1.30593e-05
0.0081462
0.0572256
0.061707
0.0111484
0.0498842
0.00491251
0.048121
0.0048877
0.0575951
0.00576282
0.0536844
0.00604295
0.0221579
0.0132489
0.00569036
0.0023133
0.000878464
0.0516758
0.00277914
0.0160965
0.00671043
0.0121946
0.0241488
0.0174278
0.0167905
0.0564868
0.0125723
0.0123575
0.0280059
0.0112153
0.00372545
0.0542337
0.00696135
0.0320189
0.00960029
0.0596613
0.0630682
0.0597827
0.0134612
0.00478103
0.0047589
0.0234497
0.019554
0.057825
0.0212759
0.0340309
0.026487
0.0612121
0.0144635
0.0131344
0.0220341
0.037301
0.0085282
2.32282e-05
0.0532381
0.0295863
0.00825164
0.00409449
0.0171733
0.0457229
0.0671346
0.00385058
0.0139586
0.0533326
0.0664891
0.00327527
0.0129505
0.0479541
0.024779
0.0183962
0.000167513
0.0064696
0.01296
1.09448e-05
0.00264603
0.0146613
0.0114364
0.00441076
0.048865
0.00755672
0.0238447
0.0608402
0.0326396
0.00278975
0.0354054
0.00838695
0.0116394
0.0315743
0.0134275
0.00359268
0.0322967
0.00233278
0.0272182
0.00879397
0.0111667
0.0134826
0.00826993
0.00731002
0.017015
0.0268501
0.00874872
0.0254459
0.00776833
0.00279493
0.00428805
0.0258965
0.0264862
0.0282998
0.00610459
0.0532766
0.0524425
0.0234919
0.0195303
0.0226801
0.0125871
0.0235098
0.0631853
0.00827874
0.00709379
0.0244197
0.0582252
0.00471939
0.0279243
0.0350801
0.0324509
0.00113622
0.0317555
0.0319982
0.00325376
0.0340697
0.0246607
0.017396
0.0114289
0.0215248
0.0131907
0.00506442
0.0243145
0.00560273
0.0209095
0.0169881
0.00449809
0.00686351
0.00330778
0.0296726
0.0172729
0.033593
1.30985e-05
0.00488563
0.0280725
0.0205006
0.0152387
0.00690084
0.0618528
0.061549
0.0246688
0.0378368
0.0339431
0.0205512
0.00302043
0.0217512
0.0511258
0.0677804
0.0322809
0.000766898
0.00777056
4.53053e-05
0.0212282
0.0136552
0.0040286
0.0580959
0.059071
0.0286958
0.0585727
0.0594061
0.0185764
0.0305788
0.0271115
0.0166939
0.00674344
0.00349115
9.64768e-06
0.0121231
0.0573864
2.3707e-05
0.00167318
0.0184994
0.00101424
0.00159371
0.00349094
0.0145781
0.0353902
0.00294907
0.0371628
0.00740484
0.0536409
0.0124724
0.0215515
0.0309972
0.00634018
0.0109512
0.00121901
0.0580455
0.0127906
0.0129651
0.0197054
0.0480834
0.0263523
0.0301306
0.00747054
0.0263436
0.00402909
0.0128271
0.0194569
0.007131
0.0520829
0.0349875
0.0262458
0.036845
0.0108381
0.000679114
0.0552055
0.024984
0.00914597
0.0266041
0.0114097
0.00755148
0.0176728
0.0283897
0.055123
0.00999215
0.00593047
0.0542501
0.0524436
0.0051061
0.0528287
0.0421301
0.0179492
0.0223676
0.003459
0.01508
0.0101762
0.0235256
0.0128788
0.0438175
0.0560145
0.0545866
0.0154542
0.050726
0.0504983
0.0525629
0.00902576
0.00643786
0.0533815
0.0166646
0.00946938
0.0144688
0.0507699
0.00688211
0.00687674
0.00316551
0.0514822
0.0044875
0.0323635
0.00656953
0.0526742
0.00858098
0.00233525
0.00429196
0.0628254
0.0244515
0.00715487
8.56818e-05
5.31315e-05
0.029129
0.00322472
0.0519398
0.0564113
0.00506835
0.0088087
0.0348841
0.0124152
0.0218922
0.0643742
0.00406957
0.00211153
0.00837158
0.0502348
0.0632878
0.0112021
0.0227832
0.0607618
0.0124668
0.00578073
0.00587392
0.00695795
0.0542309
0.0336471
0.00582624
0.0117705
0.00713274
0.0114865
0.00821026
0.0093466
0.0634397
0.0630871
0.0291289
0.048409
0.045973
0.00093395
0.0141472
0.0624327
0.0598699
0.0629903
0.0517092
0.0180562
0.000670711
0.00630178
0.05122
0.0511208
0.0517921
0.000471299
0.016175
0.00741168
0.0645654
0.00707674
0.020344
0.0306855
0.0128087
0.0246188
0.00255843
0.0119311
0.0528044
0.00673219
0.0545779
0.00395763
0.00554427
0.0248018
0.00983896
0.0653774
0.0117404
0.00342669
0.0100343
0.029777
0.00828593
0.00737274
0.0645912
0.0534941
0.00529229
0.000644048
0.0257343
0.0145511
0.0088725
0.0228032
0.000860001
0.007616
0.000925951
0.00546469
0.00470093
0.00444397
0.00862373
0.0124458
0.00619672
0.0119107
0.0514523
0.0347776
0.0561336
0.00755829
0.0533595
0.00924706
0.000978351
0.0558697
0.0539905
0.0499297
0.0501267
0.053908
0.00643982
0.0181719
0.00881414
0.00898795
0.00693479
0.00619299
0.0530988
0.0427157
0.00628809
0.0306293
0.0578164
0.0667029
0.0332715
0.000782585
0.0625095
0.00234664
0.0637755
0.023563
0.00180704
0.05268
0.00902268
0.00580306
0.0122633
0.0066108
0.0221712
0.0658033
0.027812
0.0288832
0.0100901
0.0051745
0.00437307
0.0280408
0.00319218
0.00946912
0.00499596
0.0622973
0.0571137
0.0571628
0.0306652
0.00727496
0.0112568
0.0106511
0.0509562
0.00533862
0.0130693
0.028557
0.0133073
0.0108499
0.0252775
0.0125366
0.0129054
0.0160935
0.0262245
0.00114641
0.0498672
0.0503123
0.0267268
0.0143855